/*--------------------------------*- C++ -*----------------------------------*\
| =========                 |                                                 |
| \\      /  F ield         | OpenFOAM: The Open Source CFD Toolbox           |
|  \\    /   O peration     | Version:  2312                                  |
|   \\  /    A nd           | Website:  www.openfoam.com                      |
|    \\/     M anipulation  |                                                 |
\*---------------------------------------------------------------------------*/
FoamFile
{
    version     2.0;
    format      ascii;
    arch        "LSB;label=32;scalar=64";
    class       volSymmTensorField;
    location    "6";
    object      turbulenceProperties:devReff;
}
// * * * * * * * * * * * * * * * * * * * * * * * * * * * * * * * * * * * * * //

dimensions      [0 2 -2 0 0 0 0];

internalField   nonuniform List<symmTensor> 
400
(
(1.49354e-16 -1.44322e-16 -0 -2.72815e-16 -0 1.23461e-16)
(-5.37934e-17 1.63764e-16 -0 6.90619e-17 -0 -1.52685e-17)
(1.39937e-17 -3.4878e-17 -0 -1.72509e-17 -0 3.25724e-18)
(-1.89792e-18 6.93791e-18 -0 3.16428e-18 -0 -1.26636e-18)
(-2.07444e-19 -2.92685e-18 -0 -2.16667e-19 -0 4.24111e-19)
(-7.01049e-20 -1.21298e-18 -0 1.4021e-19 -0 -7.01049e-20)
(9.64009e-19 -1.38306e-18 -0 -6.64908e-19 -0 -2.99101e-19)
(1.03469e-19 -6.10283e-19 -0 -2.06938e-19 -0 1.03469e-19)
(4.48168e-19 -5.8797e-19 -0 -2.64781e-19 -0 -1.83387e-19)
(6.2754e-20 -5.80636e-19 -0 -1.25508e-19 -0 6.2754e-20)
(6.09712e-20 -8.81466e-19 -0 -1.21942e-19 -0 6.09712e-20)
(4.73688e-19 -6.6135e-19 -0 -3.15822e-19 -0 -1.57867e-19)
(1.54662e-19 -7.82067e-19 -0 -3.09324e-19 -0 1.54662e-19)
(7.09613e-19 -3.44333e-19 -0 -7.8767e-19 -0 7.80576e-20)
(1.04158e-18 1.97565e-19 -0 -8.20046e-19 -0 -2.21532e-19)
(-8.72808e-19 1.13235e-19 -0 4.82506e-19 -0 3.90302e-19)
(-4.95666e-19 -1.52792e-19 -0 3.59777e-19 -0 1.35889e-19)
(5.10419e-19 -8.85988e-20 -0 -3.89283e-19 -0 -1.21136e-19)
(-3.74451e-20 5.63161e-20 -0 7.48903e-20 -0 -3.74451e-20)
(-4.4326e-20 2.8916e-20 -0 8.86519e-20 -0 -4.4326e-20)
(-2.57735e-16 -4.27468e-17 -0 4.73006e-16 -0 -2.15271e-16)
(8.77983e-17 3.25302e-17 -0 -1.1777e-16 -0 2.99718e-17)
(-2.32536e-17 -6.05489e-18 -0 2.93541e-17 -0 -6.10044e-18)
(2.30242e-18 2.69564e-18 -0 -4.60484e-18 -0 2.30242e-18)
(-1.09466e-18 1.8618e-19 -0 1.5542e-18 -0 -4.59544e-19)
(-3.17182e-19 1.04041e-18 -0 -6.87263e-22 -0 3.17869e-19)
(5.38892e-19 4.93762e-19 -0 -4.42859e-19 -0 -9.60332e-20)
(5.35692e-19 7.56429e-19 -0 -4.36523e-19 -0 -9.9169e-20)
(-3.77551e-19 6.52313e-19 -0 1.20364e-19 -0 2.57187e-19)
(-2.06461e-20 5.32491e-19 -0 4.12922e-20 -0 -2.06461e-20)
(1.13284e-20 9.0087e-19 -0 -2.26567e-20 -0 1.13284e-20)
(5.19605e-19 5.23228e-19 -0 -4.04727e-19 -0 -1.14878e-19)
(1.36387e-19 4.30083e-19 -0 -2.72775e-19 -0 1.36387e-19)
(5.30957e-19 9.12566e-19 -0 -4.2762e-19 -0 -1.03337e-19)
(5.6183e-19 9.16741e-19 -0 -4.89488e-19 -0 -7.23427e-20)
(1.01141e-18 2.99169e-19 -0 -7.54604e-19 -0 -2.56803e-19)
(1.61506e-20 6.06496e-19 -0 -3.23011e-20 -0 1.61506e-20)
(-1.67861e-19 6.66862e-19 -0 3.35723e-19 -0 -1.67861e-19)
(-1.90034e-19 1.44772e-19 -0 3.80067e-19 -0 -1.90034e-19)
(-9.70548e-19 -1.52103e-19 -0 6.7357e-19 -0 2.96978e-19)
(5.85585e-17 1.94064e-16 -0 -1.22849e-16 -0 6.42901e-17)
(-1.05013e-17 -1.81246e-16 -0 2.48345e-17 -0 -1.43333e-17)
(3.44796e-18 3.7088e-17 -0 -6.25741e-18 -0 2.80946e-18)
(1.23926e-18 -9.15048e-18 -0 7.5199e-20 -0 -1.31446e-18)
(2.81549e-19 1.94779e-18 -0 -5.63098e-19 -0 2.81549e-19)
(-7.05286e-20 -4.97228e-19 -0 1.41057e-19 -0 -7.05286e-20)
(-9.02747e-20 1.14549e-18 -0 1.80549e-19 -0 -9.02747e-20)
(-4.22293e-20 1.26981e-19 -0 8.44587e-20 -0 -4.22293e-20)
(4.01814e-19 2.44626e-19 -0 -1.65748e-19 -0 -2.36066e-19)
(-1.68025e-19 1.03085e-19 -0 3.36049e-19 -0 -1.68025e-19)
(-1.32292e-19 -1.10264e-19 -0 2.64585e-19 -0 -1.32292e-19)
(3.22367e-20 -2.18632e-19 -0 -6.44734e-20 -0 3.22367e-20)
(4.60017e-20 4.68202e-19 -0 -9.20034e-20 -0 4.60017e-20)
(-8.43964e-20 -6.7029e-19 -0 1.68793e-19 -0 -8.43964e-20)
(-5.27406e-19 -5.25157e-19 -0 4.17544e-19 -0 1.09862e-19)
(2.89605e-20 -3.37731e-19 -0 -5.7921e-20 -0 2.89605e-20)
(1.14091e-20 -2.88086e-19 -0 -2.28181e-20 -0 1.14091e-20)
(-1.03328e-18 -4.15553e-19 -0 7.92571e-19 -0 2.40708e-19)
(-7.71021e-20 -6.95639e-21 -0 1.54204e-19 -0 -7.71021e-20)
(-2.37567e-20 -7.64851e-19 -0 4.75134e-20 -0 -2.37567e-20)
(1.39107e-16 -1.15575e-16 -0 -2.34724e-16 -0 9.56168e-17)
(-6.27931e-17 1.23178e-16 -0 6.84932e-17 -0 -5.70005e-18)
(1.51962e-17 -2.41173e-17 -0 -1.62835e-17 -0 1.08729e-18)
(-2.02703e-18 5.88787e-18 -0 2.77157e-18 -0 -7.44543e-19)
(8.00346e-19 -1.68572e-18 -0 -9.59598e-19 -0 1.59251e-19)
(-1.11447e-19 -3.12704e-19 -0 2.22893e-19 -0 -1.11447e-19)
(-1.54682e-19 -1.1464e-18 -0 3.09364e-19 -0 -1.54682e-19)
(-5.02472e-19 -6.18764e-19 -0 3.64144e-19 -0 1.38328e-19)
(7.26836e-20 -4.33361e-19 -0 -1.45367e-19 -0 7.26836e-20)
(1.44405e-19 -2.59387e-19 -0 -2.88811e-19 -0 1.44405e-19)
(-3.35261e-19 -3.53074e-19 -0 3.00825e-20 -0 3.05179e-19)
(3.11568e-20 -7.0106e-19 -0 -6.23137e-20 -0 3.11568e-20)
(3.26882e-19 -9.90792e-19 -0 -1.35402e-20 -0 -3.13342e-19)
(-1.52279e-19 -4.55554e-19 -0 3.04557e-19 -0 -1.52279e-19)
(-5.98609e-19 -5.25587e-19 -0 5.57209e-19 -0 4.13999e-20)
(3.02991e-19 1.30243e-19 -0 3.39513e-20 -0 -3.36942e-19)
(-4.49063e-21 -2.6875e-20 -0 8.98126e-21 -0 -4.49063e-21)
(5.32666e-19 -4.73127e-19 -0 -4.25613e-19 -0 -1.07052e-19)
(1.30971e-19 -9.51941e-20 -0 -2.61942e-19 -0 1.30971e-19)
(5.00387e-19 -3.05405e-19 -0 -3.61229e-19 -0 -1.39157e-19)
(-1.62362e-16 -2.29013e-17 -0 2.94573e-16 -0 -1.32211e-16)
(5.97257e-17 -2.30172e-18 -0 -7.50491e-17 -0 1.53234e-17)
(-1.62869e-17 -1.28697e-18 -0 1.9064e-17 -0 -2.77711e-18)
(1.03322e-18 8.60467e-19 -0 -2.70969e-18 -0 1.67647e-18)
(-7.04171e-19 4.54712e-20 -0 7.65247e-19 -0 -6.10767e-20)
(6.71835e-19 1.25746e-18 -0 -7.00653e-19 -0 2.8818e-20)
(-4.15186e-19 7.78259e-19 -0 1.87507e-19 -0 2.27679e-19)
(3.91011e-19 1.0714e-18 -0 -1.39234e-19 -0 -2.51777e-19)
(5.0453e-19 5.58554e-19 -0 -3.66422e-19 -0 -1.38108e-19)
(1.49941e-18 3.96479e-19 -0 -1.07114e-18 -0 -4.28268e-19)
(4.09187e-20 7.0167e-19 -0 -8.18374e-20 -0 4.09187e-20)
(-6.3455e-19 3.89261e-19 -0 6.26766e-19 -0 7.78323e-21)
(-1.08819e-18 1.05493e-19 -0 8.92011e-19 -0 1.9618e-19)
(-4.72241e-19 3.96327e-19 -0 3.02376e-19 -0 1.69866e-19)
(3.55206e-20 6.99066e-20 -0 -7.10412e-20 -0 3.55206e-20)
(-5.16681e-20 6.91648e-19 -0 1.03336e-19 -0 -5.16681e-20)
(-3.79858e-20 3.26656e-19 -0 7.59716e-20 -0 -3.79858e-20)
(5.24853e-19 6.60891e-19 -0 -4.08046e-19 -0 -1.16806e-19)
(8.12839e-20 4.13476e-20 -0 -1.62568e-19 -0 8.12839e-20)
(9.13581e-21 1.79433e-19 -0 -1.82716e-20 -0 9.13581e-21)
(7.32351e-17 9.62271e-17 -0 -1.51612e-16 -0 7.83769e-17)
(-1.43116e-17 -9.48824e-17 -0 2.92679e-17 -0 -1.49564e-17)
(5.11372e-18 1.75347e-17 -0 -8.29365e-18 -0 3.17993e-18)
(1.20839e-18 -5.8978e-18 -0 1.61272e-19 -0 -1.36967e-18)
(1.2147e-18 7.81434e-19 -0 -1.14069e-18 -0 -7.40139e-20)
(6.02681e-19 -7.48346e-19 -0 -5.61085e-19 -0 -4.15966e-20)
(-3.30028e-20 -4.08402e-19 -0 6.60057e-20 -0 -3.30028e-20)
(-2.45305e-19 -7.2136e-20 -0 4.9061e-19 -0 -2.45305e-19)
(-1.54629e-18 -1.70129e-19 -0 1.1609e-18 -0 3.85384e-19)
(-5.06579e-19 -2.0784e-19 -0 3.6935e-19 -0 1.37229e-19)
(-4.78671e-19 -1.01005e-18 -0 3.13685e-19 -0 1.64986e-19)
(-1.54163e-19 2.73698e-20 -0 3.08326e-19 -0 -1.54163e-19)
(-2.03625e-20 -2.74236e-19 -0 4.07251e-20 -0 -2.03625e-20)
(7.95706e-20 1.05249e-19 -0 -1.59141e-19 -0 7.95706e-20)
(5.30191e-19 4.47883e-19 -0 -4.17187e-19 -0 -1.13005e-19)
(4.97265e-19 -8.01891e-20 -0 -3.51416e-19 -0 -1.45848e-19)
(9.21487e-19 -2.50558e-19 -0 -5.5704e-19 -0 -3.64447e-19)
(-8.28425e-19 -1.1837e-20 -0 3.71081e-19 -0 4.57343e-19)
(2.82007e-20 3.64847e-20 -0 -5.64013e-20 -0 2.82007e-20)
(4.90632e-20 -1.71044e-19 -0 -9.81264e-20 -0 4.90632e-20)
(4.35331e-17 -8.0318e-17 -0 -8.70661e-17 -0 4.35331e-17)
(-1.27381e-17 1.01959e-16 -0 2.03118e-17 -0 -7.57372e-18)
(4.16669e-18 -1.74933e-17 -0 -5.75197e-18 -0 1.58528e-18)
(1.10017e-19 4.78135e-18 -0 4.25238e-19 -0 -5.35255e-19)
(7.16245e-19 -3.35533e-19 -0 -7.87379e-19 -0 7.11333e-20)
(-3.91536e-19 5.54807e-19 -0 1.38041e-19 -0 2.53495e-19)
(5.2997e-19 4.41796e-19 -0 -4.15066e-19 -0 -1.14903e-19)
(5.00812e-19 -5.20886e-19 -0 -3.56833e-19 -0 -1.4398e-19)
(2.56652e-20 3.08204e-19 -0 -5.13305e-20 -0 2.56652e-20)
(6.3339e-20 7.28558e-19 -0 -1.26678e-19 -0 6.3339e-20)
(1.5068e-18 1.46362e-18 -0 -1.08041e-18 -0 -4.26397e-19)
(5.55458e-19 9.90943e-19 -0 -4.66597e-19 -0 -8.88602e-20)
(-5.31355e-19 1.04318e-18 -0 4.18544e-19 -0 1.1281e-19)
(-1.11502e-18 8.58753e-19 -0 9.41883e-19 -0 1.73141e-19)
(-1.08012e-18 1.05257e-18 -0 8.72372e-19 -0 2.07745e-19)
(-4.91369e-19 4.27659e-19 -0 3.38889e-19 -0 1.5248e-19)
(5.14233e-19 6.54962e-20 -0 -3.84767e-19 -0 -1.29466e-19)
(5.34568e-19 7.33308e-20 -0 -4.2552e-19 -0 -1.09047e-19)
(6.81438e-20 1.09572e-20 -0 -1.36288e-19 -0 6.81438e-20)
(5.04852e-19 -3.47428e-19 -0 -3.66278e-19 -0 -1.38574e-19)
(-1.0928e-16 1.43799e-17 -0 2.24999e-16 -0 -1.15719e-16)
(2.16152e-17 -2.2516e-17 -0 -4.51683e-17 -0 2.35532e-17)
(-6.34361e-18 5.7145e-18 -0 1.13956e-17 -0 -5.052e-18)
(-2.65361e-19 2.3797e-19 -0 -1.40645e-18 -0 1.67181e-18)
(1.08078e-19 1.213e-18 -0 4.29408e-19 -0 -5.37486e-19)
(-4.51365e-19 8.20496e-19 -0 2.5725e-19 -0 1.94115e-19)
(5.61114e-19 8.32722e-19 -0 -4.76904e-19 -0 -8.42092e-20)
(2.25078e-19 6.84601e-19 -0 -4.50156e-19 -0 2.25078e-19)
(9.87441e-19 8.08569e-19 -0 -6.84717e-19 -0 -3.02725e-19)
(-9.86294e-19 1.47985e-19 -0 6.82591e-19 -0 3.03703e-19)
(-2.69404e-20 1.83808e-19 -0 5.38807e-20 -0 -2.69404e-20)
(1.28309e-19 1.85236e-19 -0 -2.56618e-19 -0 1.28309e-19)
(7.57914e-19 -2.34053e-20 -0 -2.26613e-19 -0 -5.31301e-19)
(-1.14597e-18 -3.71524e-20 -0 1.00289e-18 -0 1.43076e-19)
(-2.44087e-19 -1.64747e-19 -0 4.88175e-19 -0 -2.44087e-19)
(-5.63673e-19 -2.18456e-19 -0 4.83059e-19 -0 8.06136e-20)
(-3.61241e-20 7.85648e-19 -0 7.22481e-20 -0 -3.61241e-20)
(-8.86999e-19 6.57617e-19 -0 4.85895e-19 -0 4.01104e-19)
(2.416e-20 8.09262e-20 -0 -4.832e-20 -0 2.416e-20)
(-2.43144e-20 3.66772e-19 -0 4.86288e-20 -0 -2.43144e-20)
(6.48635e-17 4.48117e-17 -0 -1.37457e-16 -0 7.25935e-17)
(-8.14342e-18 -6.19819e-17 -0 2.53349e-17 -0 -1.71915e-17)
(3.77016e-18 9.82046e-18 -0 -6.89423e-18 -0 3.12407e-18)
(1.44584e-19 -3.27882e-18 -0 1.00286e-18 -0 -1.14744e-18)
(-1.35036e-18 -3.79526e-19 -0 7.63174e-19 -0 5.8719e-19)
(-1.66317e-19 -7.7041e-19 -0 3.32634e-19 -0 -1.66317e-19)
(-9.88436e-19 -5.72695e-19 -0 6.85652e-19 -0 3.02784e-19)
(8.0825e-19 -5.16195e-19 -0 -3.25452e-19 -0 -4.82798e-19)
(-1.15839e-19 -1.423e-18 -0 2.31678e-19 -0 -1.15839e-19)
(-1.07476e-18 -9.74973e-19 -0 8.58955e-19 -0 2.15805e-19)
(-6.98745e-19 -1.4973e-18 -0 7.52361e-19 -0 -5.3616e-20)
(-7.02162e-20 -8.31047e-19 -0 1.40432e-19 -0 -7.02162e-20)
(5.20711e-19 -9.12546e-19 -0 -3.96531e-19 -0 -1.24179e-19)
(3.77646e-20 -8.60711e-19 -0 -7.55293e-20 -0 3.77646e-20)
(-3.86536e-19 -1.43119e-18 -0 1.2842e-19 -0 2.58116e-19)
(7.96675e-20 -5.28451e-19 -0 -1.59335e-19 -0 7.96675e-20)
(4.15481e-19 -7.37691e-19 -0 -1.86546e-19 -0 -2.28935e-19)
(-1.56102e-19 -6.61381e-19 -0 3.12203e-19 -0 -1.56102e-19)
(-5.17725e-20 5.05484e-21 -0 1.03545e-19 -0 -5.17725e-20)
(-4.54852e-20 -3.48051e-19 -0 9.09704e-20 -0 -4.54852e-20)
(-8.73279e-18 -4.56261e-17 -0 1.03775e-17 -0 -1.64475e-18)
(5.56417e-18 7.13959e-17 -0 -5.3098e-18 -0 -2.54367e-19)
(-1.63574e-18 -1.47922e-17 -0 1.33257e-18 -0 3.03175e-19)
(1.45678e-18 1.45899e-18 -0 -9.74899e-19 -0 -4.81884e-19)
(-3.13493e-20 -1.87291e-18 -0 6.26986e-20 -0 -3.13493e-20)
(3.85927e-19 -6.90281e-19 -0 -1.25878e-19 -0 -2.60049e-19)
(-5.09858e-19 -9.51969e-19 -0 3.73899e-19 -0 1.35959e-19)
(5.55045e-20 -9.4682e-19 -0 -1.11009e-19 -0 5.55045e-20)
(1.23378e-19 -8.84499e-19 -0 -2.46757e-19 -0 1.23378e-19)
(2.0807e-19 -5.90714e-19 -0 -4.16141e-19 -0 2.0807e-19)
(6.46198e-20 -3.54949e-19 -0 -1.2924e-19 -0 6.46198e-20)
(-6.02504e-20 -3.53939e-19 -0 1.20501e-19 -0 -6.02504e-20)
(5.31929e-20 -1.85428e-19 -0 -1.06386e-19 -0 5.31929e-20)
(9.86963e-20 -6.10873e-19 -0 -1.97393e-19 -0 9.86963e-20)
(8.7558e-20 4.17083e-19 -0 -1.75116e-19 -0 8.7558e-20)
(5.38391e-19 -1.32554e-19 -0 -4.32011e-19 -0 -1.0638e-19)
(-8.33226e-21 -1.49234e-19 -0 1.66645e-20 -0 -8.33226e-21)
(3.80166e-19 7.00691e-20 -0 -1.15799e-19 -0 -2.64368e-19)
(-1.1203e-19 -8.49503e-20 -0 2.2406e-19 -0 -1.1203e-19)
(-6.34399e-20 2.21128e-19 -0 1.2688e-19 -0 -6.34399e-20)
(-3.01651e-18 5.02639e-17 -0 2.60137e-17 -0 -2.29972e-17)
(-1.33786e-17 -6.62437e-17 -0 2.18331e-18 -0 1.11953e-17)
(2.15802e-18 1.66328e-17 -0 2.09348e-19 -0 -2.36737e-18)
(-2.61755e-18 -8.39704e-19 -0 1.35671e-18 -0 1.26084e-18)
(-7.31883e-20 2.1957e-18 -0 1.46377e-19 -0 -7.31883e-20)
(-3.73883e-19 9.16514e-19 -0 1.01612e-19 -0 2.72271e-19)
(6.35848e-19 8.91571e-19 -0 -6.25702e-19 -0 -1.01455e-20)
(6.45259e-19 1.44003e-18 -0 -6.4461e-19 -0 -6.49036e-22)
(5.93929e-19 9.3019e-19 -0 -5.42106e-19 -0 -5.18221e-20)
(4.74107e-19 1.37239e-18 -0 -3.02549e-19 -0 -1.71558e-19)
(3.86145e-19 8.40871e-19 -0 -1.26782e-19 -0 -2.59364e-19)
(-1.00911e-19 7.99134e-19 -0 2.01822e-19 -0 -1.00911e-19)
(1.18635e-20 4.61607e-19 -0 -2.3727e-20 -0 1.18635e-20)
(1.07362e-18 5.4955e-20 -0 -8.56869e-19 -0 -2.16748e-19)
(1.32439e-19 -4.79319e-19 -0 -2.64879e-19 -0 1.32439e-19)
(-2.62587e-20 2.60044e-19 -0 5.25174e-20 -0 -2.62587e-20)
(-3.43944e-20 -5.00986e-19 -0 6.87889e-20 -0 -3.43944e-20)
(9.68331e-19 1.38549e-19 -0 -6.4725e-19 -0 -3.2108e-19)
(-8.76241e-19 2.59647e-20 -0 4.63223e-19 -0 4.13018e-19)
(-2.54996e-20 -6.11497e-19 -0 5.09991e-20 -0 -2.54996e-20)
(3.17618e-17 -3.82021e-17 -0 -7.83518e-17 -0 4.659e-17)
(3.59667e-18 5.29816e-17 -0 1.28591e-17 -0 -1.64558e-17)
(1.74971e-18 -9.27649e-18 -0 -4.14607e-18 -0 2.39636e-18)
(6.50044e-19 3.83723e-18 -0 6.39623e-19 -0 -1.28967e-18)
(-1.31254e-18 1.54802e-18 -0 6.85859e-19 -0 6.26682e-19)
(-9.97846e-19 2.12323e-18 -0 7.03045e-19 -0 2.948e-19)
(7.78787e-19 1.3954e-18 -0 -2.65249e-19 -0 -5.13539e-19)
(-2.73597e-19 1.05346e-18 -0 5.47193e-19 -0 -2.73597e-19)
(-3.69661e-19 1.30925e-18 -0 7.39321e-19 -0 -3.69661e-19)
(-2.1199e-18 3.66303e-19 -0 1.65647e-18 -0 4.63429e-19)
(-7.08875e-19 1.15314e-18 -0 7.72073e-19 -0 -6.31978e-20)
(-1.0255e-18 -1.15435e-19 -0 7.59819e-19 -0 2.65681e-19)
(-9.37532e-19 3.11071e-19 -0 5.84193e-19 -0 3.53339e-19)
(1.52757e-19 4.98544e-19 -0 -3.05515e-19 -0 1.52757e-19)
(1.64982e-19 4.54175e-19 -0 -3.29964e-19 -0 1.64982e-19)
(-4.68132e-20 7.62787e-19 -0 9.36264e-20 -0 -4.68132e-20)
(-4.45172e-19 6.15586e-19 -0 2.45388e-19 -0 1.99785e-19)
(4.89623e-19 6.8849e-19 -0 -3.34376e-19 -0 -1.55247e-19)
(4.96567e-19 1.16379e-19 -0 -3.48339e-19 -0 -1.48228e-19)
(4.39829e-19 1.5788e-19 -0 -2.34981e-19 -0 -2.04848e-19)
(-6.49881e-17 2.41521e-18 -0 1.61575e-16 -0 -9.6587e-17)
(-1.27087e-18 -9.7676e-18 -0 -2.72218e-17 -0 2.84927e-17)
(-2.05657e-18 -1.57801e-18 -0 7.3473e-18 -0 -5.29073e-18)
(-1.05345e-18 -3.03623e-18 -0 -1.12685e-18 -0 2.1803e-18)
(1.5991e-18 -1.47321e-18 -0 -6.11855e-19 -0 -9.87242e-19)
(-8.79036e-19 -2.22088e-18 -0 4.65069e-19 -0 4.13967e-19)
(-1.15596e-18 -1.48688e-18 -0 1.01924e-18 -0 1.36717e-19)
(-1.70716e-18 -1.68298e-18 -0 1.47556e-18 -0 2.31603e-19)
(-1.16054e-18 -1.46734e-18 -0 1.0289e-18 -0 1.31645e-19)
(2.66139e-20 -1.34763e-18 -0 -5.32279e-20 -0 2.66139e-20)
(1.0735e-18 -7.99756e-19 -0 -8.5529e-19 -0 -2.18206e-19)
(1.08071e-18 -1.48414e-19 -0 -8.69884e-19 -0 -2.10825e-19)
(5.62003e-20 3.0835e-19 -0 -1.12401e-19 -0 5.62003e-20)
(2.95824e-19 -3.08058e-19 -0 5.38757e-20 -0 -3.497e-19)
(-6.81113e-20 7.87873e-19 -0 1.36223e-19 -0 -6.81113e-20)
(-2.182e-20 2.07859e-19 -0 4.364e-20 -0 -2.182e-20)
(-2.41976e-20 9.51752e-19 -0 4.83951e-20 -0 -2.41976e-20)
(-5.01736e-19 -6.29321e-19 -0 3.5843e-19 -0 1.43307e-19)
(-6.13216e-20 1.00483e-19 -0 1.22643e-19 -0 -6.13216e-20)
(-9.26833e-19 -1.74257e-19 -0 5.63971e-19 -0 3.62863e-19)
(7.20848e-17 5.79623e-17 -0 -1.71262e-16 -0 9.91774e-17)
(-3.67794e-18 -7.15116e-17 -0 3.00089e-17 -0 -2.6331e-17)
(3.52264e-18 1.40092e-17 -0 -8.33933e-18 -0 4.8167e-18)
(8.21347e-19 -3.26329e-18 -0 9.4508e-19 -0 -1.76643e-18)
(2.64955e-19 3.17622e-19 -0 -5.29909e-19 -0 2.64955e-19)
(5.16135e-19 -5.31893e-19 -0 -3.85576e-19 -0 -1.3056e-19)
(4.98584e-19 3.76556e-19 -0 -3.50635e-19 -0 -1.47949e-19)
(4.60924e-19 4.1515e-19 -0 -2.75402e-19 -0 -1.85523e-19)
(5.35388e-19 9.71196e-19 -0 -4.24488e-19 -0 -1.109e-19)
(6.60341e-19 8.91498e-19 -0 -6.74481e-19 -0 1.41399e-20)
(1.86178e-19 -1.05018e-19 -0 -3.72355e-19 -0 1.86178e-19)
(1.6638e-19 1.18748e-19 -0 -3.32761e-19 -0 1.6638e-19)
(1.95176e-19 -4.48933e-19 -0 -3.90352e-19 -0 1.95176e-19)
(-2.16375e-20 3.96475e-20 -0 4.3275e-20 -0 -2.16375e-20)
(-5.93638e-19 -6.82963e-19 -0 5.41717e-19 -0 5.19209e-20)
(3.83596e-19 -5.93596e-19 -0 -1.2172e-19 -0 -2.61876e-19)
(-4.89677e-19 -5.9983e-19 -0 3.34035e-19 -0 1.55642e-19)
(-4.20585e-20 -5.4587e-19 -0 8.4117e-20 -0 -4.20585e-20)
(4.66752e-20 -5.35689e-19 -0 -9.33503e-20 -0 4.66752e-20)
(4.81888e-19 -6.79644e-19 -0 -3.18741e-19 -0 -1.63148e-19)
(1.41967e-17 -1.10247e-16 -0 1.28921e-18 -0 -1.54859e-17)
(-1.92433e-17 1.26162e-16 -0 8.0565e-18 -0 1.11868e-17)
(3.1986e-18 -2.41862e-17 -0 -1.21923e-18 -0 -1.97937e-18)
(-1.78539e-18 7.0265e-18 -0 9.8213e-19 -0 8.03257e-19)
(-4.67475e-20 -6.93092e-19 -0 9.3495e-20 -0 -4.67475e-20)
(-3.90297e-19 1.95529e-18 -0 1.33683e-19 -0 2.56614e-19)
(5.40871e-19 1.18174e-18 -0 -4.34992e-19 -0 -1.05879e-19)
(9.60575e-20 1.17041e-18 -0 -1.92115e-19 -0 9.60575e-20)
(8.65781e-19 1.71718e-19 -0 -4.38555e-19 -0 -4.27226e-19)
(-1.13766e-18 7.91371e-19 -0 9.82492e-19 -0 1.5517e-19)
(-6.92512e-19 5.86909e-19 -0 7.38766e-19 -0 -4.62541e-20)
(-9.69969e-19 4.84053e-19 -0 6.47597e-19 -0 3.22372e-19)
(-4.17763e-19 5.90607e-19 -0 1.89512e-19 -0 2.28251e-19)
(4.76084e-19 2.29608e-19 -0 -3.06241e-19 -0 -1.69842e-19)
(7.52388e-19 8.26016e-19 -0 -2.13235e-19 -0 -5.39153e-19)
(-9.27612e-19 5.22896e-20 -0 5.63858e-19 -0 3.63755e-19)
(-4.07241e-19 -3.45683e-19 -0 1.68953e-19 -0 2.38288e-19)
(-4.03144e-19 5.01917e-19 -0 1.60846e-19 -0 2.42298e-19)
(5.18337e-19 6.04973e-19 -0 -3.91309e-19 -0 -1.27028e-19)
(5.5319e-19 2.96103e-19 -0 -4.61134e-19 -0 -9.20557e-20)
(-1.28736e-16 7.29011e-17 -0 2.20679e-16 -0 -9.19425e-17)
(5.37547e-17 -8.25161e-17 -0 -6.08756e-17 -0 7.12087e-18)
(-1.19808e-17 1.59976e-17 -0 1.36018e-17 -0 -1.62101e-18)
(2.54752e-18 -3.8993e-18 -0 -3.15283e-18 -0 6.05309e-19)
(-1.96306e-19 8.1414e-19 -0 3.92612e-19 -0 -1.96306e-19)
(4.99193e-19 -1.19914e-19 -0 -3.51232e-19 -0 -1.4796e-19)
(1.12714e-19 -6.76348e-19 -0 -2.25427e-19 -0 1.12714e-19)
(2.23069e-19 -7.19436e-19 -0 -4.46138e-19 -0 2.23069e-19)
(1.00433e-18 -7.33742e-19 -0 -7.15173e-19 -0 -2.89154e-19)
(-9.47422e-19 -9.72752e-19 -0 6.01534e-19 -0 3.45888e-19)
(-5.37637e-19 -3.28615e-20 -0 4.2878e-19 -0 1.08857e-19)
(3.57083e-19 3.0053e-20 -0 -6.77568e-20 -0 -2.89326e-19)
(-2.09838e-19 2.89263e-19 -0 4.19675e-19 -0 -2.09838e-19)
(-6.55032e-19 8.6827e-19 -0 6.63901e-19 -0 -8.86883e-21)
(-1.04807e-18 1.3088e-19 -0 8.04131e-19 -0 2.4394e-19)
(-5.60878e-19 5.00146e-19 -0 4.75836e-19 -0 8.50415e-20)
(4.89255e-19 -9.52905e-20 -0 -3.32747e-19 -0 -1.56508e-19)
(9.757e-19 1.90171e-21 -0 -6.60047e-19 -0 -3.15652e-19)
(-8.75221e-19 -3.43631e-20 -0 4.59245e-19 -0 4.15976e-19)
(2.0616e-20 -3.63341e-19 -0 -4.12321e-20 -0 2.0616e-20)
(1.50712e-16 5.089e-17 -0 -2.63325e-16 -0 1.12612e-16)
(-5.84943e-17 -3.33931e-17 -0 6.96881e-17 -0 -1.11938e-17)
(1.35684e-17 8.88774e-18 -0 -1.61251e-17 -0 2.55672e-18)
(-2.71332e-18 -1.25836e-18 -0 3.48365e-18 -0 -7.70332e-19)
(1.00427e-18 4.36525e-19 -0 -7.13549e-19 -0 -2.90721e-19)
(-1.19028e-18 -4.49153e-19 -0 1.08575e-18 -0 1.04537e-19)
(-1.04443e-18 -2.13539e-20 -0 7.94362e-19 -0 2.50065e-19)
(-3.66727e-21 -4.90618e-19 -0 7.33455e-21 -0 -3.66727e-21)
(6.01889e-19 -3.36104e-19 -0 -5.56781e-19 -0 -4.51079e-20)
(1.59654e-18 -7.75623e-19 -0 -1.25236e-18 -0 -3.44186e-19)
(5.9629e-19 -1.04652e-18 -0 -5.45831e-19 -0 -5.04594e-20)
(3.33985e-20 -9.77278e-19 -0 -6.67971e-20 -0 3.33985e-20)
(-4.1754e-19 -7.99442e-19 -0 1.88576e-19 -0 2.28964e-19)
(-8.36285e-21 -7.74404e-19 -0 1.67257e-20 -0 -8.36285e-21)
(-4.3211e-20 -6.06812e-19 -0 8.6422e-20 -0 -4.3211e-20)
(-9.7504e-19 -9.62183e-19 -0 6.5774e-19 -0 3.173e-19)
(-9.56855e-19 -6.76425e-20 -0 6.21681e-19 -0 3.35174e-19)
(4.49982e-19 -3.38453e-20 -0 -2.54037e-19 -0 -1.95945e-19)
(7.76169e-20 1.00879e-19 -0 -1.55234e-19 -0 7.76169e-20)
(4.96966e-19 -1.72428e-20 -0 -3.48203e-19 -0 -1.48763e-19)
(5.94458e-18 -1.32258e-16 -0 -1.55318e-18 -0 -4.39141e-18)
(-4.56236e-18 1.11986e-16 -0 3.29086e-18 -0 1.2715e-18)
(-3.63804e-19 -2.32776e-17 -0 7.27607e-19 -0 -3.63804e-19)
(-2.063e-18 5.22942e-18 -0 1.53434e-18 -0 5.28662e-19)
(-5.68572e-19 -1.46938e-18 -0 4.89396e-19 -0 7.91758e-20)
(-1.90228e-19 -2.83879e-19 -0 3.80457e-19 -0 -1.90228e-19)
(-1.19483e-18 -1.90801e-19 -0 1.09466e-18 -0 1.00166e-19)
(-1.11576e-18 4.66025e-20 -0 9.36709e-19 -0 1.79056e-19)
(-3.59712e-20 1.00353e-19 -0 7.19423e-20 -0 -3.59712e-20)
(6.35565e-20 3.28867e-19 -0 -1.27113e-19 -0 6.35565e-20)
(-3.78571e-19 -2.75861e-19 -0 1.10144e-19 -0 2.68427e-19)
(-4.70005e-19 -6.58381e-20 -0 2.93099e-19 -0 1.76906e-19)
(4.72077e-19 -2.94608e-19 -0 -2.97404e-19 -0 -1.74673e-19)
(1.16211e-19 -1.59971e-20 -0 -2.32422e-19 -0 1.16211e-19)
(6.98349e-19 -3.57762e-19 -0 -7.50195e-19 -0 5.18451e-20)
(1.1238e-18 -3.90584e-19 -0 -9.5477e-19 -0 -1.69032e-19)
(8.97991e-19 -2.94668e-19 -0 -5.03463e-19 -0 -3.94529e-19)
(-1.01626e-18 7.11389e-19 -0 7.40178e-19 -0 2.76083e-19)
(-4.90313e-19 -1.05112e-19 -0 3.34532e-19 -0 1.55781e-19)
(4.34089e-19 4.9856e-19 -0 -2.22205e-19 -0 -2.11884e-19)
(-1.60708e-16 2.81495e-17 -0 2.8329e-16 -0 -1.22582e-16)
(6.12974e-17 -3.33205e-17 -0 -7.39669e-17 -0 1.26695e-17)
(-1.56191e-17 2.87752e-18 -0 1.82747e-17 -0 -2.6556e-18)
(2.27099e-18 -3.21998e-18 -0 -3.24581e-18 -0 9.74812e-19)
(-2.06192e-19 -1.07643e-18 -0 4.12385e-19 -0 -2.06192e-19)
(3.32676e-19 -8.04924e-19 -0 -6.65351e-19 -0 3.32676e-19)
(6.9775e-19 -1.2231e-18 -0 -7.47815e-19 -0 5.00657e-20)
(1.48703e-18 -6.10492e-19 -0 -1.03126e-18 -0 -4.55769e-19)
(4.7674e-19 -4.86833e-19 -0 -3.0604e-19 -0 -1.707e-19)
(-5.94408e-20 -5.85629e-19 -0 1.18882e-19 -0 -5.94408e-20)
(-6.37434e-20 -2.46581e-19 -0 1.27487e-19 -0 -6.37434e-20)
(-1.41342e-19 -3.13089e-19 -0 2.82685e-19 -0 -1.41342e-19)
(-1.5168e-18 -6.20626e-20 -0 1.09274e-18 -0 4.24057e-19)
(-5.45165e-19 1.78919e-19 -0 4.43468e-19 -0 1.01697e-19)
(1.88613e-19 4.67465e-19 -0 -3.77227e-19 -0 1.88613e-19)
(7.05366e-19 -2.92948e-19 -0 -7.64114e-19 -0 5.87478e-20)
(1.0055e-18 -8.91038e-20 -0 -7.18076e-19 -0 -2.87426e-19)
(-3.55719e-20 -8.59538e-19 -0 7.11438e-20 -0 -3.55719e-20)
(-9.81197e-19 -4.59455e-19 -0 6.69801e-19 -0 3.11396e-19)
(-9.66087e-20 -4.24567e-19 -0 1.93217e-19 -0 -9.66087e-20)
(9.05527e-17 9.46823e-17 -0 -1.73996e-16 -0 8.34435e-17)
(-2.89127e-17 -9.54165e-17 -0 4.10218e-17 -0 -1.21091e-17)
(8.03075e-18 2.20595e-17 -0 -1.08912e-17 -0 2.86041e-18)
(-2.29452e-19 -3.9405e-18 -0 1.1052e-18 -0 -8.75744e-19)
(6.77884e-19 2.07943e-18 -0 -7.09477e-19 -0 3.15926e-20)
(1.01697e-20 6.25861e-19 -0 -2.03394e-20 -0 1.01697e-20)
(1.28933e-19 1.31279e-18 -0 -2.57867e-19 -0 1.28933e-19)
(7.17154e-20 7.00201e-19 -0 -1.43431e-19 -0 7.17154e-20)
(-2.58703e-20 7.99529e-19 -0 5.17407e-20 -0 -2.58703e-20)
(6.53242e-20 8.14603e-19 -0 -1.30648e-19 -0 6.53242e-20)
(1.27419e-19 8.16609e-19 -0 -2.54838e-19 -0 1.27419e-19)
(6.61003e-19 4.9589e-19 -0 -6.75714e-19 -0 1.47112e-20)
(1.11127e-18 3.10881e-19 -0 -9.2996e-19 -0 -1.81311e-19)
(1.04235e-18 1.35645e-20 -0 -7.92125e-19 -0 -2.50229e-19)
(-9.14816e-19 -2.9331e-19 -0 5.3705e-19 -0 3.77767e-19)
(-1.34326e-19 6.464e-19 -0 2.68653e-19 -0 -1.34326e-19)
(-3.27918e-20 4.93037e-19 -0 6.55837e-20 -0 -3.27918e-20)
(5.65839e-19 1.36552e-19 -0 -4.85387e-19 -0 -8.04522e-20)
(1.31582e-19 3.09589e-19 -0 -2.63163e-19 -0 1.31582e-19)
(4.65931e-19 1.74665e-19 -0 -2.85571e-19 -0 -1.8036e-19)
)
;

boundaryField
{
    movingWall
    {
        type            calculated;
        value           nonuniform List<symmTensor> 
20
(
(2.23088e-16 3.99126e-17 -0 -4.40213e-16 -0 2.17125e-16)
(-5.57581e-17 -6.54312e-17 -0 9.74217e-17 -0 -4.16635e-17)
(1.43618e-17 2.06027e-17 -0 -2.43868e-17 -0 1.0025e-17)
(-1.71796e-18 -1.45386e-18 -0 3.97802e-18 -0 -2.26006e-18)
(8.49615e-19 3.76862e-18 -0 -1.15713e-18 -0 3.07514e-19)
(-3.19361e-19 2.37635e-18 -0 6.38721e-19 -0 -3.19361e-19)
(-2.80285e-19 2.68149e-18 -0 5.6057e-19 -0 -2.80285e-19)
(-2.74159e-19 2.26566e-18 -0 5.48319e-19 -0 -2.74159e-19)
(-1.59703e-19 2.79307e-18 -0 3.19406e-19 -0 -1.59703e-19)
(6.85961e-20 3.2498e-18 -0 -1.37192e-19 -0 6.85961e-20)
(2.1677e-19 2.36331e-18 -0 -4.3354e-19 -0 2.1677e-19)
(8.10956e-19 2.80943e-18 -0 -1.07981e-18 -0 2.68855e-19)
(1.32596e-18 1.32198e-18 -0 -1.56772e-18 -0 2.41759e-19)
(1.14492e-18 1.84416e-19 -0 -1.20564e-18 -0 6.07209e-20)
(-8.12103e-19 -2.46025e-19 -0 5.40004e-19 -0 2.72099e-19)
(-2.33945e-19 1.33236e-18 -0 4.67889e-19 -0 -2.33945e-19)
(-8.90597e-20 1.03068e-18 -0 1.78119e-19 -0 -8.90597e-20)
(5.07463e-19 1.00272e-18 -0 -4.72826e-19 -0 -3.46377e-20)
(2.16376e-19 4.32718e-19 -0 -4.32751e-19 -0 2.16376e-19)
(4.77141e-19 3.19546e-19 -0 -4.12181e-19 -0 -6.49602e-20)
)
;
    }
    fixedWalls
    {
        type            calculated;
        value           nonuniform List<symmTensor> 
60
(
(1.99832e-16 -5.93788e-16 -0 -2.69989e-16 -0 7.01576e-17)
(-3.27689e-16 -1.13069e-16 -0 4.58202e-16 -0 -1.30513e-16)
(4.18487e-17 6.41375e-16 -0 -1.00573e-16 -0 5.87241e-17)
(2.25968e-16 -4.30036e-16 -0 -2.52984e-16 -0 2.70159e-17)
(-2.19694e-16 5.48145e-18 -0 2.90175e-16 -0 -7.04803e-17)
(5.63714e-17 3.28137e-16 -0 -1.25177e-16 -0 6.88059e-17)
(4.49659e-17 -3.52398e-16 -0 -7.74972e-17 -0 3.25314e-17)
(-8.4961e-17 8.23297e-17 -0 1.85909e-16 -0 -1.00948e-16)
(3.76069e-17 2.12101e-16 -0 -1.07188e-16 -0 6.95813e-17)
(-2.23192e-17 -2.51152e-16 -0 1.62168e-17 -0 6.10248e-18)
(4.31029e-17 2.33955e-16 -0 -9.40679e-19 -0 -4.21622e-17)
(-5.83688e-18 -1.79279e-16 -0 -4.96106e-17 -0 5.54474e-17)
(5.82008e-18 2.38395e-17 -0 1.05599e-16 -0 -1.11419e-16)
(1.41775e-17 2.50421e-16 -0 -1.20726e-16 -0 1.06548e-16)
(6.99093e-17 -4.35316e-16 -0 -2.79082e-17 -0 -4.20011e-17)
(-1.94688e-16 2.85384e-16 -0 2.28615e-16 -0 -3.39272e-17)
(2.15332e-16 1.22294e-16 -0 -2.65463e-16 -0 5.01307e-17)
(1.93381e-17 -3.9405e-16 -0 -8.47819e-18 -0 -1.08599e-17)
(-2.25407e-16 1.05916e-16 -0 2.82948e-16 -0 -5.75409e-17)
(1.05138e-16 3.43306e-16 -0 -1.60537e-16 -0 5.53997e-17)
(-3.80476e-20 2.62448e-20 -0 7.60952e-20 -0 -3.80476e-20)
(-1.29161e-18 -2.5453e-19 -0 8.06869e-19 -0 4.84744e-19)
(-2.02229e-20 -8.89057e-19 -0 4.04458e-20 -0 -2.02229e-20)
(1.24698e-18 -3.75868e-19 -0 -7.1761e-19 -0 -5.29373e-19)
(7.72051e-21 2.95178e-20 -0 -1.5441e-20 -0 7.72051e-21)
(4.13837e-20 -3.29545e-19 -0 -8.27675e-20 -0 4.13837e-20)
(6.56068e-19 -2.64281e-19 -0 -4.23957e-19 -0 -2.32111e-19)
(-2.04716e-20 3.25199e-19 -0 4.09432e-20 -0 -2.04716e-20)
(5.53839e-19 -3.87111e-19 -0 -2.195e-19 -0 -3.34339e-19)
(-5.33736e-20 9.55194e-20 -0 1.06747e-19 -0 -5.33736e-20)
(5.70671e-19 -7.07352e-19 -0 -2.53164e-19 -0 -3.17507e-19)
(6.00565e-19 -3.31672e-20 -0 -3.12952e-19 -0 -2.87613e-19)
(-1.24059e-18 -3.85625e-19 -0 7.04828e-19 -0 5.35764e-19)
(6.35707e-19 -9.13397e-19 -0 -3.83235e-19 -0 -2.52472e-19)
(1.0336e-19 1.46953e-19 -0 -2.0672e-19 -0 1.0336e-19)
(1.73142e-20 -2.93237e-19 -0 -3.46285e-20 -0 1.73142e-20)
(6.4793e-19 -2.02123e-20 -0 -4.07682e-19 -0 -2.40248e-19)
(5.95006e-19 5.83733e-19 -0 -3.01834e-19 -0 -2.93172e-19)
(-8.10487e-20 -2.7394e-19 -0 1.62097e-19 -0 -8.10487e-20)
(6.21536e-19 9.74403e-20 -0 -3.54893e-19 -0 -2.66643e-19)
(4.05075e-16 -5.06407e-17 -0 -7.87923e-16 -0 3.82848e-16)
(-1.04362e-16 1.17625e-16 -0 1.75656e-16 -0 -7.12939e-17)
(2.58899e-17 -3.02839e-17 -0 -4.25641e-17 -0 1.66742e-17)
(-4.28929e-18 4.81897e-18 -0 8.03647e-18 -0 -3.74719e-18)
(6.12915e-19 -3.64853e-18 -0 -1.76793e-18 -0 1.15502e-18)
(-1.19652e-19 -2.79454e-18 -0 2.39304e-19 -0 -1.19652e-19)
(8.59564e-19 -2.3234e-18 -0 -6.34925e-19 -0 -2.24638e-19)
(1.54899e-19 -1.7581e-18 -0 -3.09798e-19 -0 1.54899e-19)
(4.49473e-19 -1.29486e-18 -0 -3.56845e-19 -0 -9.26282e-20)
(5.51346e-20 -8.44472e-19 -0 -1.10269e-19 -0 5.51346e-20)
(-2.84786e-20 -1.27573e-18 -0 5.69572e-20 -0 -2.84786e-20)
(2.65769e-19 -2.55747e-20 -0 1.05636e-20 -0 -2.76332e-19)
(3.97207e-20 -1.01737e-18 -0 -7.94414e-20 -0 3.97207e-20)
(6.10285e-19 -4.686e-19 -0 -6.7847e-19 -0 6.81843e-20)
(8.27885e-19 1.05776e-18 -0 -5.71567e-19 -0 -2.56318e-19)
(-9.26134e-19 9.71966e-20 -0 7.68067e-19 -0 1.58068e-19)
(-5.15509e-19 -5.7524e-19 -0 4.88916e-19 -0 2.65924e-20)
(5.07803e-19 -7.60496e-20 -0 -4.73504e-19 -0 -3.42986e-20)
(4.8691e-20 4.83395e-20 -0 -9.73819e-20 -0 4.8691e-20)
(1.74966e-20 2.48203e-20 -0 -3.49931e-20 -0 1.74966e-20)
)
;
    }
    frontAndBack
    {
        type            empty;
    }
}


// ************************************************************************* //
