/*--------------------------------*- C++ -*----------------------------------*\
| =========                 |                                                 |
| \\      /  F ield         | OpenFOAM: The Open Source CFD Toolbox           |
|  \\    /   O peration     | Version:  2312                                  |
|   \\  /    A nd           | Website:  www.openfoam.com                      |
|    \\/     M anipulation  |                                                 |
\*---------------------------------------------------------------------------*/
FoamFile
{
    version     2.0;
    format      ascii;
    arch        "LSB;label=32;scalar=64";
    class       volTensorField;
    location    "6";
    object      U2;
}
// * * * * * * * * * * * * * * * * * * * * * * * * * * * * * * * * * * * * * //

dimensions      [0 2 -2 0 0 0 0];

internalField   nonuniform List<tensor> 
400
(
(1 -1.45444e-13 -0 -1.46346e-13 2.12852e-26 0 -0 0 0)
(1 3.06543e-14 -0 3.08687e-14 9.46258e-28 -0 -0 -0 0)
(1 -7.36382e-15 -0 -7.40478e-15 5.45275e-29 0 -0 0 0)
(1 1.50673e-15 -0 1.47296e-15 2.21934e-30 -0 -0 -0 0)
(1 -4.23713e-16 -0 -3.65368e-16 1.54811e-31 0 -0 0 0)
(1 -1.89979e-17 -0 4.48695e-17 -8.52426e-34 -0 -0 0 0)
(1 -2.20681e-17 -0 -5.12859e-17 1.13178e-33 0 -0 0 0)
(1 2.11464e-17 -0 -5.80872e-17 -1.22834e-33 0 -0 -0 0)
(1 -1.6697e-17 -0 -3.30271e-17 5.51453e-34 0 -0 0 0)
(1 -4.08892e-18 -0 -2.06755e-17 8.45405e-35 0 -0 0 0)
(1 -1.09157e-17 -0 1.06795e-17 -1.16574e-34 -0 -0 0 0)
(1 -6.72418e-18 -0 3.5862e-17 -2.41142e-34 -0 -0 0 0)
(1 1.47069e-17 -0 -1.48953e-17 -2.19063e-34 0 -0 -0 0)
(1 -6.14557e-17 -0 -9.33317e-17 5.73577e-33 0 -0 0 0)
(1 -8.4594e-17 -0 -3.94061e-17 3.33353e-33 0 -0 0 0)
(1 1.66648e-17 -0 7.62499e-17 1.27069e-33 -0 -0 -0 0)
(1 1.17167e-16 -0 5.77905e-17 6.77113e-33 -0 -0 -0 0)
(1 5.93319e-18 -0 -5.49007e-17 -3.25736e-34 0 -0 -0 0)
(1 -6.25765e-17 -0 -1.82591e-17 1.14259e-33 0 -0 0 0)
(1 -1.6557e-17 -0 -6.56121e-18 1.08634e-34 0 -0 0 0)
(1 -2.37357e-14 -0 -2.3727e-14 5.63178e-28 0 -0 0 0)
(1 5.50639e-15 -0 5.32413e-15 2.93167e-29 -0 -0 -0 0)
(1 -1.42648e-15 -0 -1.39689e-15 1.99264e-30 0 -0 0 0)
(1 4.36964e-16 -0 4.28581e-16 1.87274e-31 -0 -0 -0 0)
(1 5.89696e-17 -0 9.03593e-17 5.32846e-33 -0 -0 -0 0)
(1 5.91141e-17 -0 4.53933e-17 2.68338e-33 -0 -0 -0 0)
(1 -7.25561e-17 -0 -1.05711e-16 7.66999e-33 0 -0 0 0)
(1 -5.33264e-17 -0 -7.51329e-17 4.00657e-33 0 -0 0 0)
(1 2.3144e-17 -0 -1.90539e-18 -4.40984e-35 0 -0 -0 0)
(1 4.03684e-18 -0 -6.01227e-17 -2.42705e-34 0 -0 -0 0)
(1 -8.42413e-17 -0 -8.91823e-17 7.51283e-33 0 -0 0 0)
(1 -1.44822e-16 -0 -1.03653e-16 1.50113e-32 0 -0 0 0)
(1 -1.39494e-16 -0 -1.84238e-16 2.57001e-32 0 -0 0 0)
(1 -2.41043e-16 -0 -2.78221e-16 6.70633e-32 0 -0 0 0)
(1 -2.59058e-16 -0 -2.17464e-16 5.63357e-32 0 -0 0 0)
(1 -6.95033e-17 -0 -3.66778e-17 2.54923e-33 0 -0 0 0)
(1 1.26341e-16 -0 3.82976e-17 4.83854e-33 -0 -0 -0 0)
(1 5.25374e-17 -0 -6.01827e-17 -3.16184e-33 0 -0 -0 0)
(1 -4.94931e-18 -0 6.64712e-17 -3.28987e-34 -0 -0 0 0)
(1 -1.72139e-17 -0 6.36326e-17 -1.09537e-33 -0 -0 0 0)
(1 1.48107e-13 -0 1.48011e-13 2.19215e-26 -0 -0 -0 0)
(1 -3.20133e-14 -0 -3.21497e-14 1.02922e-27 0 -0 0 0)
(1 7.71449e-15 -0 7.72178e-15 5.95696e-29 -0 -0 -0 0)
(1 -1.40882e-15 -0 -1.4743e-15 2.07703e-30 0 -0 0 0)
(1 6.19689e-16 -0 4.94047e-16 3.06155e-31 -0 -0 -0 0)
(1 3.16976e-18 -0 -9.10957e-17 -2.88752e-34 0 -0 -0 0)
(1 -1.88327e-16 -0 -1.99346e-16 3.75424e-32 0 -0 0 0)
(1 -2.90308e-16 -0 -2.02119e-16 5.86768e-32 0 -0 0 0)
(1 -1.50803e-16 -0 -9.14543e-17 1.37916e-32 0 -0 0 0)
(1 -3.03479e-17 -0 5.77658e-18 -1.75307e-34 -0 -0 0 0)
(1 -4.15652e-18 -0 -3.83741e-18 1.59503e-35 0 -0 0 0)
(1 -5.6612e-17 -0 -8.79615e-17 4.97968e-33 0 -0 0 0)
(1 -1.34682e-16 -0 -1.89723e-16 2.55522e-32 0 -0 0 0)
(1 -1.89632e-16 -0 -2.31906e-16 4.39767e-32 0 -0 0 0)
(1 -1.60938e-16 -0 -2.17697e-16 3.50358e-32 0 -0 0 0)
(1 -1.26785e-16 -0 -1.36537e-16 1.73108e-32 0 -0 0 0)
(1 -6.10594e-18 -0 3.70757e-17 -2.26382e-34 -0 -0 0 0)
(1 1.44003e-16 -0 1.60422e-16 2.31013e-32 -0 -0 -0 0)
(1 1.65209e-16 -0 2.25528e-16 3.72593e-32 -0 -0 -0 0)
(1 5.19715e-17 -0 1.54502e-16 8.02968e-33 -0 -0 -0 0)
(1 -1.02721e-13 -0 -1.03376e-13 1.06188e-26 0 -0 0 0)
(1 2.18744e-14 -0 2.1947e-14 4.80077e-28 -0 -0 -0 0)
(1 -5.23726e-15 -0 -5.24589e-15 2.74741e-29 0 -0 0 0)
(1 1.01959e-15 -0 1.01857e-15 1.03853e-30 -0 -0 -0 0)
(1 -2.85402e-16 -0 -2.6832e-16 7.65791e-32 0 -0 0 0)
(1 1.2829e-16 -0 1.35253e-16 1.73516e-32 -0 -0 -0 0)
(1 3.40338e-17 -0 9.33166e-18 3.17592e-34 -0 -0 -0 0)
(1 -1.64889e-17 -0 -2.13113e-17 3.514e-34 0 -0 0 0)
(1 -6.71949e-17 -0 2.79743e-17 -1.87973e-33 -0 -0 0 0)
(1 8.27448e-17 -0 1.54095e-16 1.27505e-32 -0 -0 -0 0)
(1 1.15512e-16 -0 7.95148e-17 9.18488e-33 -0 -0 -0 0)
(1 -3.22466e-17 -0 -1.44765e-16 4.66819e-33 0 -0 0 0)
(1 -1.72858e-16 -0 -2.42918e-16 4.19902e-32 0 -0 0 0)
(1 -1.60931e-16 -0 -1.70553e-16 2.74473e-32 0 -0 0 0)
(1 -9.93995e-17 -0 -8.65966e-17 8.60766e-33 0 -0 0 0)
(1 -1.15842e-16 -0 -7.36355e-17 8.53009e-33 0 -0 0 0)
(1 -7.1717e-17 -0 2.37351e-17 -1.70221e-33 -0 -0 0 0)
(1 5.35254e-17 -0 1.74644e-16 9.34787e-33 -0 -0 -0 0)
(1 9.4602e-17 -0 1.64906e-16 1.56004e-32 -0 -0 -0 0)
(1 9.00508e-17 -0 9.3967e-17 8.46181e-33 -0 -0 -0 0)
(1 7.46169e-15 -0 8.0111e-15 5.97764e-29 -0 -0 -0 0)
(1 -6.23374e-16 -0 -8.00935e-16 4.99282e-31 0 -0 0 0)
(1 4.39478e-16 -0 3.80043e-16 1.6702e-31 -0 -0 -0 0)
(1 1.43762e-18 -0 1.1947e-17 1.71752e-35 -0 -0 -0 0)
(1 -1.42235e-17 -0 2.10049e-17 -2.98765e-34 -0 -0 0 0)
(1 6.44776e-17 -0 5.02773e-17 3.24176e-33 -0 -0 -0 0)
(1 1.20249e-16 -0 -3.08343e-18 -3.70779e-34 0 -0 -0 0)
(1 2.82121e-17 -0 -1.06602e-16 -3.00745e-33 0 -0 -0 0)
(1 -1.53255e-16 -0 -1.83708e-16 2.81542e-32 0 -0 0 0)
(1 -2.71506e-16 -0 -1.77531e-16 4.82008e-32 0 -0 0 0)
(1 -2.49215e-16 -0 -1.20265e-16 2.99719e-32 0 -0 0 0)
(1 -2.31727e-16 -0 -1.27525e-16 2.9551e-32 0 -0 0 0)
(1 -1.4958e-16 -0 -6.27962e-17 9.39305e-33 0 -0 0 0)
(1 -8.063e-17 -0 -3.84734e-17 3.10211e-33 0 -0 0 0)
(1 -3.20198e-17 -0 7.53543e-19 -2.41283e-35 -0 -0 0 0)
(1 -2.18619e-17 -0 2.05589e-17 -4.49456e-34 -0 -0 0 0)
(1 -1.14729e-17 -0 4.27831e-17 -4.90847e-34 -0 -0 0 0)
(1 -2.72141e-17 -0 2.5447e-17 -6.92517e-34 -0 -0 0 0)
(1 -7.16368e-18 -0 5.90317e-17 -4.22885e-34 -0 -0 0 0)
(1 8.35172e-17 -0 6.03832e-17 5.04304e-33 -0 -0 -0 0)
(1 7.64706e-14 -0 7.6952e-14 5.88456e-27 -0 -0 -0 0)
(1 -1.60282e-14 -0 -1.61184e-14 2.58348e-28 0 -0 0 0)
(1 4.05101e-15 -0 3.95639e-15 1.60274e-29 -0 -0 -0 0)
(1 -7.73062e-16 -0 -8.29663e-16 6.41381e-31 0 -0 0 0)
(1 8.87629e-17 -0 7.9958e-17 7.09731e-33 -0 -0 -0 0)
(1 -2.04104e-16 -0 -1.7224e-16 3.5155e-32 0 -0 0 0)
(1 -6.15253e-17 -0 -7.60581e-18 4.6795e-34 0 -0 0 0)
(1 3.23653e-17 -0 2.61454e-17 8.46203e-34 -0 -0 -0 0)
(1 -2.87464e-18 -0 -6.83239e-17 1.96406e-34 0 -0 0 0)
(1 -2.47677e-16 -0 -1.17089e-16 2.90002e-32 0 -0 0 0)
(1 -1.82396e-16 -0 2.77207e-17 -5.05613e-33 -0 -0 0 0)
(1 -7.6136e-18 -0 1.16432e-16 -8.86468e-34 -0 -0 0 0)
(1 3.08692e-17 -0 5.0775e-17 1.56739e-33 -0 -0 -0 0)
(1 -6.53515e-17 -0 -1.14618e-16 7.49043e-33 0 -0 0 0)
(1 -1.38139e-16 -0 -1.31589e-16 1.81776e-32 0 -0 0 0)
(1 -1.1662e-16 -0 -8.18112e-18 9.54079e-34 0 -0 0 0)
(1 5.76292e-18 -0 7.18672e-17 4.14165e-34 -0 -0 -0 0)
(1 -7.70205e-18 -0 5.16176e-17 -3.97561e-34 -0 -0 0 0)
(1 1.96765e-17 -0 6.18858e-17 1.21769e-33 -0 -0 -0 0)
(1 5.62218e-17 -0 8.23862e-17 4.6319e-33 -0 -0 -0 0)
(1 -8.80422e-14 -0 -8.89805e-14 7.83404e-27 0 -0 0 0)
(1 1.76216e-14 -0 1.77897e-14 3.13483e-28 -0 -0 -0 0)
(1 -4.32442e-15 -0 -4.44457e-15 1.92202e-29 0 -0 0 0)
(1 6.85182e-16 -0 6.55783e-16 4.49331e-31 -0 -0 -0 0)
(1 -4.42352e-16 -0 -4.27694e-16 1.89191e-31 0 -0 0 0)
(1 -2.41117e-16 -0 -1.68274e-16 4.05736e-32 0 -0 0 0)
(1 -1.27399e-16 -0 3.85798e-17 -4.91503e-33 -0 -0 0 0)
(1 5.93498e-17 -0 2.03114e-16 1.20548e-32 -0 -0 -0 0)
(1 1.26511e-16 -0 1.42752e-16 1.80597e-32 -0 -0 -0 0)
(1 -6.44293e-17 -0 -7.98054e-17 5.14181e-33 0 -0 0 0)
(1 -1.5364e-16 -0 -5.76469e-17 8.85685e-33 0 -0 0 0)
(1 -6.82871e-17 -0 6.72582e-17 -4.59287e-33 -0 -0 0 0)
(1 -6.26339e-17 -0 -3.70623e-17 2.32136e-33 0 -0 0 0)
(1 -1.30772e-16 -0 -1.39046e-16 1.81834e-32 0 -0 0 0)
(1 -1.87857e-16 -0 -1.27432e-16 2.3939e-32 0 -0 0 0)
(1 -1.11227e-16 -0 -6.60811e-17 7.34998e-33 0 -0 0 0)
(1 -6.03926e-17 -0 -3.84066e-17 2.31948e-33 0 -0 0 0)
(1 -4.88697e-17 -0 -1.09225e-17 5.33778e-34 0 -0 0 0)
(1 2.73837e-17 -0 2.33581e-17 6.39632e-34 -0 -0 -0 0)
(1 -1.44423e-18 -0 -1.69241e-18 2.44423e-36 0 -0 0 0)
(1 2.14802e-14 -0 2.19377e-14 4.71225e-28 -0 -0 -0 0)
(1 -4.24573e-15 -0 -4.4099e-15 1.87232e-29 0 -0 0 0)
(1 9.16886e-16 -0 8.74716e-16 8.02015e-31 -0 -0 -0 0)
(1 -2.96487e-16 -0 -4.26203e-16 1.26363e-31 0 -0 0 0)
(1 -2.01996e-16 -0 -2.80755e-16 5.67113e-32 0 -0 0 0)
(1 -2.49965e-16 -0 -2.20755e-16 5.5181e-32 0 -0 0 0)
(1 -1.67833e-16 -0 -1.33769e-16 2.24508e-32 0 -0 0 0)
(1 -2.04485e-16 -0 -6.33314e-17 1.29503e-32 0 -0 0 0)
(1 -2.34243e-16 -0 -1.00698e-16 2.35878e-32 0 -0 0 0)
(1 -1.76854e-16 -0 -1.96995e-16 3.48393e-32 0 -0 0 0)
(1 -2.82001e-16 -0 -2.47372e-16 6.97592e-32 0 -0 0 0)
(1 -2.51415e-16 -0 -4.24737e-17 1.06786e-32 0 -0 0 0)
(1 -6.15364e-17 -0 1.79421e-16 -1.10409e-32 -0 -0 0 0)
(1 1.20386e-16 -0 2.08893e-16 2.51479e-32 -0 -0 -0 0)
(1 1.68464e-16 -0 1.48173e-16 2.49618e-32 -0 -0 -0 0)
(1 1.28012e-16 -0 7.02943e-17 8.9985e-33 -0 -0 -0 0)
(1 -3.91171e-17 -0 -3.56357e-17 1.39397e-33 0 -0 0 0)
(1 -8.00859e-17 -0 -8.1661e-17 6.53989e-33 0 -0 0 0)
(1 -4.13142e-17 -0 -2.42178e-17 1.00054e-33 0 -0 0 0)
(1 -3.15146e-17 -0 -1.35371e-17 4.26616e-34 0 -0 0 0)
(1 5.39804e-14 -0 5.44482e-14 2.93913e-27 -0 -0 -0 0)
(1 -1.08084e-14 -0 -1.10445e-14 1.19374e-28 0 -0 0 0)
(1 2.36665e-15 -0 2.45864e-15 5.81874e-30 -0 -0 -0 0)
(1 -6.7776e-16 -0 -6.36355e-16 4.31296e-31 0 -0 0 0)
(1 -6.50945e-17 -0 -2.17276e-17 1.41435e-33 0 -0 0 0)
(1 -1.7945e-16 -0 -1.41762e-16 2.54392e-32 0 -0 0 0)
(1 -1.97462e-16 -0 -1.26361e-16 2.49516e-32 0 -0 0 0)
(1 -2.07849e-16 -0 -8.05366e-17 1.67394e-32 0 -0 0 0)
(1 -1.59084e-16 -0 -1.77529e-17 2.8242e-33 0 -0 0 0)
(1 3.9573e-17 -0 7.94164e-17 3.14274e-33 -0 -0 -0 0)
(1 2.57572e-17 -0 -2.3675e-17 -6.09802e-34 0 -0 -0 0)
(1 -7.84939e-17 -0 -9.45615e-17 7.4225e-33 0 -0 0 0)
(1 -6.05572e-17 -0 9.10556e-17 -5.51407e-33 -0 -0 0 0)
(1 6.70447e-17 -0 2.22545e-16 1.49204e-32 -0 -0 -0 0)
(1 1.49354e-16 -0 1.80589e-16 2.69718e-32 -0 -0 -0 0)
(1 1.14141e-16 -0 1.03227e-16 1.17824e-32 -0 -0 -0 0)
(1 -5.20785e-17 -0 7.19599e-18 -3.74757e-34 -0 -0 0 0)
(1 -9.24226e-17 -0 2.47617e-17 -2.28854e-33 -0 -0 0 0)
(1 -1.07435e-16 -0 -7.14877e-18 7.68028e-34 0 -0 0 0)
(1 -5.0858e-17 -0 2.9015e-17 -1.47565e-33 -0 -0 0 0)
(1 -6.55762e-14 -0 -6.64471e-14 4.35735e-27 0 -0 0 0)
(1 1.32717e-14 -0 1.34254e-14 1.78178e-28 -0 -0 -0 0)
(1 -3.29642e-15 -0 -3.32817e-15 1.09711e-29 0 -0 0 0)
(1 3.44697e-16 -0 4.76008e-16 1.64078e-31 -0 -0 -0 0)
(1 -3.26772e-16 -0 -2.06898e-16 6.76084e-32 0 -0 0 0)
(1 -9.81932e-17 -0 -1.13289e-17 1.11242e-33 0 -0 0 0)
(1 -9.64137e-17 -0 2.6973e-17 -2.60056e-33 -0 -0 0 0)
(1 -4.98557e-17 -0 2.7369e-18 -1.3645e-34 -0 -0 0 0)
(1 7.89189e-18 -0 4.52564e-17 3.57158e-34 -0 -0 -0 0)
(1 6.39973e-17 -0 7.31593e-17 4.682e-33 -0 -0 -0 0)
(1 6.6971e-17 -0 9.12589e-17 6.1117e-33 -0 -0 -0 0)
(1 1.85036e-17 -0 4.6042e-17 8.51941e-34 -0 -0 -0 0)
(1 5.65599e-18 -0 6.49501e-17 3.67357e-34 -0 -0 -0 0)
(1 1.40371e-17 -0 1.61269e-16 2.26375e-33 -0 -0 -0 0)
(1 -4.47896e-18 -0 9.36406e-17 -4.19413e-34 -0 -0 0 0)
(1 -7.92325e-17 -0 -3.021e-17 2.39361e-33 0 -0 0 0)
(1 -1.40138e-16 -0 -1.78061e-17 2.49532e-33 0 -0 0 0)
(1 -5.85808e-17 -0 1.15341e-16 -6.75675e-33 -0 -0 0 0)
(1 -4.85388e-17 -0 4.11272e-17 -1.99626e-33 -0 -0 0 0)
(1 -3.09435e-17 -0 4.38828e-17 -1.35788e-33 -0 -0 0 0)
(1 5.91099e-14 -0 5.95053e-14 3.51735e-27 -0 -0 -0 0)
(1 -1.31956e-14 -0 -1.31641e-14 1.73708e-28 0 -0 0 0)
(1 2.93697e-15 -0 2.89035e-15 8.48887e-30 -0 -0 -0 0)
(1 -7.93143e-16 -0 -8.43144e-16 6.68734e-31 0 -0 0 0)
(1 7.57662e-18 -0 1.77296e-17 1.3433e-34 -0 -0 -0 0)
(1 -7.84959e-17 -0 -8.54637e-17 6.70855e-33 0 -0 0 0)
(1 -4.09458e-17 -0 -2.64974e-17 1.08496e-33 0 -0 0 0)
(1 -1.52834e-16 -0 -1.50432e-16 2.29911e-32 0 -0 0 0)
(1 -2.03733e-16 -0 -1.73157e-16 3.52778e-32 0 -0 0 0)
(1 -2.08358e-16 -0 -1.82699e-16 3.80668e-32 0 -0 0 0)
(1 -1.95828e-16 -0 -1.05099e-16 2.05813e-32 0 -0 0 0)
(1 -1.23444e-16 -0 -1.86331e-17 2.30015e-33 0 -0 0 0)
(1 -6.66422e-17 -0 2.40052e-17 -1.59976e-33 -0 -0 0 0)
(1 -9.22607e-18 -0 9.81201e-17 -9.05263e-34 -0 -0 0 0)
(1 1.15062e-17 -0 7.018e-17 8.07508e-34 -0 -0 -0 0)
(1 -9.51811e-17 -0 -3.36624e-17 3.20403e-33 0 -0 0 0)
(1 -6.94907e-17 -0 1.77067e-17 -1.23045e-33 -0 -0 0 0)
(1 -3.19855e-17 -0 8.72404e-17 -2.79042e-33 -0 -0 0 0)
(1 4.43862e-18 -0 1.34206e-16 5.95689e-34 -0 -0 -0 0)
(1 2.96516e-17 -0 1.09075e-16 3.23427e-33 -0 -0 -0 0)
(1 -4.56013e-14 -0 -4.58363e-14 2.09019e-27 0 -0 0 0)
(1 9.5579e-15 -0 9.64809e-15 9.22155e-29 -0 -0 -0 0)
(1 -2.34087e-15 -0 -2.24783e-15 5.26189e-30 0 -0 0 0)
(1 4.50731e-16 -0 5.16206e-16 2.3267e-31 -0 -0 -0 0)
(1 -1.43611e-16 -0 -1.14806e-16 1.64874e-32 0 -0 0 0)
(1 -7.40589e-17 -0 -8.29173e-17 6.14077e-33 0 -0 0 0)
(1 -1.6457e-16 -0 -2.31307e-16 3.80662e-32 0 -0 0 0)
(1 -2.65358e-16 -0 -2.67497e-16 7.09825e-32 0 -0 0 0)
(1 -2.62274e-16 -0 -1.60538e-16 4.2105e-32 0 -0 0 0)
(1 -1.6174e-16 -0 1.8169e-17 -2.93866e-33 -0 -0 0 0)
(1 3.60816e-17 -0 1.4693e-16 5.30148e-33 -0 -0 -0 0)
(1 1.4735e-16 -0 1.73177e-16 2.55178e-32 -0 -0 -0 0)
(1 1.00007e-16 -0 5e-17 5.00035e-33 -0 -0 -0 0)
(1 -1.25169e-16 -0 -1.07655e-16 1.34751e-32 0 -0 0 0)
(1 -1.56786e-16 -0 -7.33183e-17 1.14953e-32 0 -0 0 0)
(1 -1.05502e-16 -0 2.89724e-18 -3.05664e-34 -0 -0 0 0)
(1 -1.09182e-17 -0 2.5569e-17 -2.79168e-34 -0 -0 0 0)
(1 -7.17403e-17 -0 -2.17896e-17 1.56319e-33 0 -0 0 0)
(1 -1.13259e-16 -0 6.22368e-17 -7.04891e-33 -0 -0 0 0)
(1 -1.36493e-17 -0 7.60544e-17 -1.03809e-33 -0 -0 0 0)
(1 6.69709e-15 -0 6.97631e-15 4.6721e-29 -0 -0 -0 0)
(1 -7.5206e-16 -0 -8.80257e-16 6.62006e-31 0 -0 0 0)
(1 5.51009e-17 -0 1.48036e-16 8.15692e-33 -0 -0 -0 0)
(1 -1.89303e-16 -0 -3.43611e-17 6.50466e-33 0 -0 0 0)
(1 -1.45043e-16 -0 4.25436e-17 -6.17063e-33 -0 -0 0 0)
(1 -1.14471e-16 -0 8.57434e-17 -9.81516e-33 -0 -0 0 0)
(1 -3.9969e-17 -0 7.76545e-17 -3.10377e-33 -0 -0 0 0)
(1 8.33342e-17 -0 1.93916e-16 1.61599e-32 -0 -0 -0 0)
(1 2.11034e-16 -0 2.92211e-16 6.16663e-32 -0 -0 -0 0)
(1 2.85941e-16 -0 3.18012e-16 9.09326e-32 -0 -0 -0 0)
(1 3.03086e-16 -0 2.45541e-16 7.44203e-32 -0 -0 -0 0)
(1 2.02969e-16 -0 1.8883e-16 3.83266e-32 -0 -0 -0 0)
(1 1.39179e-16 -0 1.20952e-16 1.68341e-32 -0 -0 -0 0)
(1 -4.67046e-17 -0 -9.43571e-17 4.40691e-33 0 -0 0 0)
(1 -1.80737e-16 -0 -1.3775e-16 2.48966e-32 0 -0 0 0)
(1 -8.63552e-17 -0 2.5345e-17 -2.18867e-33 -0 -0 0 0)
(1 1.10964e-17 -0 3.6872e-17 4.09146e-34 -0 -0 -0 0)
(1 -3.30346e-17 -0 1.19495e-17 -3.94748e-34 -0 -0 0 0)
(1 -5.43345e-17 -0 5.00854e-17 -2.72137e-33 -0 -0 0 0)
(1 -3.51368e-17 -0 9.64061e-17 -3.38741e-33 -0 -0 0 0)
(1 6.26919e-14 -0 6.26731e-14 3.9291e-27 -0 -0 -0 0)
(1 -1.35687e-14 -0 -1.36914e-14 1.85775e-28 0 -0 0 0)
(1 3.06995e-15 -0 3.04805e-15 9.35737e-30 -0 -0 -0 0)
(1 -8.80941e-16 -0 -8.6981e-16 7.66251e-31 0 -0 0 0)
(1 -6.77705e-17 -0 4.25574e-17 -2.88414e-33 -0 -0 0 0)
(1 -2.57025e-16 -0 -6.14923e-17 1.5805e-32 0 -0 0 0)
(1 -9.41899e-17 -0 1.38792e-16 -1.30728e-32 -0 -0 0 0)
(1 1.09758e-16 -0 2.5424e-16 2.79049e-32 -0 -0 -0 0)
(1 2.07533e-16 -0 2.1588e-16 4.48022e-32 -0 -0 -0 0)
(1 1.15594e-16 -0 -1.53307e-17 -1.77214e-33 0 -0 -0 0)
(1 -8.16506e-17 -0 -1.20441e-16 9.83409e-33 0 -0 0 0)
(1 -1.51542e-16 -0 -1.03452e-16 1.56774e-32 0 -0 0 0)
(1 -1.35126e-16 -0 -2.0785e-17 2.80859e-33 0 -0 0 0)
(1 7.74983e-18 -0 6.18032e-17 4.78964e-34 -0 -0 -0 0)
(1 -2.00728e-17 -0 1.25006e-17 -2.50922e-34 -0 -0 0 0)
(1 7.0632e-17 -0 3.03936e-17 2.14677e-33 -0 -0 -0 0)
(1 5.35203e-17 -0 5.60687e-17 3.00082e-33 -0 -0 -0 0)
(1 -7.83542e-18 -0 6.86062e-17 -5.37558e-34 -0 -0 0 0)
(1 6.97899e-17 -0 1.39549e-16 9.73911e-33 -0 -0 -0 0)
(1 4.14206e-17 -0 1.60587e-16 6.65159e-33 -0 -0 -0 0)
(1 -1.06168e-13 -0 -1.06661e-13 1.13239e-26 0 -0 0 0)
(1 2.2684e-14 -0 2.27141e-14 5.15247e-28 -0 -0 -0 0)
(1 -5.33719e-15 -0 -5.36324e-15 2.86246e-29 0 -0 0 0)
(1 1.04095e-15 -0 1.10168e-15 1.14679e-30 -0 -0 -0 0)
(1 -3.57376e-16 -0 -2.90566e-16 1.03841e-31 0 -0 0 0)
(1 -7.91024e-17 -0 -2.1142e-17 1.67238e-33 0 -0 0 0)
(1 -1.22967e-16 -0 -7.31927e-18 9.00032e-34 0 -0 0 0)
(1 8.82975e-17 -0 1.56231e-16 1.37948e-32 -0 -0 -0 0)
(1 1.31125e-16 -0 1.60693e-16 2.1071e-32 -0 -0 -0 0)
(1 6.5319e-17 -0 2.91686e-17 1.90526e-33 -0 -0 -0 0)
(1 -1.11548e-17 -0 1.12063e-17 -1.25004e-34 -0 -0 0 0)
(1 -4.27952e-17 -0 -2.06151e-17 8.82225e-34 0 -0 0 0)
(1 -1.08684e-16 -0 -1.24801e-16 1.35639e-32 0 -0 0 0)
(1 -1.16224e-16 -0 -6.71088e-17 7.79968e-33 0 -0 0 0)
(1 -9.70577e-18 -0 6.79005e-17 -6.59027e-34 -0 -0 0 0)
(1 4.46622e-17 -0 8.42002e-17 3.76057e-33 -0 -0 -0 0)
(1 5.35619e-17 -0 1.11802e-16 5.98831e-33 -0 -0 -0 0)
(1 5.92255e-17 -0 6.49536e-17 3.84691e-33 -0 -0 -0 0)
(1 1.02624e-17 -0 -8.74387e-18 -8.97328e-35 0 -0 -0 0)
(1 -5.40656e-19 -0 3.10244e-17 -1.67736e-35 -0 -0 0 0)
(1 6.944e-14 -0 6.97196e-14 4.84133e-27 -0 -0 -0 0)
(1 -1.48521e-14 -0 -1.50019e-14 2.2281e-28 0 -0 0 0)
(1 3.37922e-15 -0 3.36638e-15 1.13757e-29 -0 -0 -0 0)
(1 -9.15301e-16 -0 -7.94892e-16 7.27566e-31 0 -0 0 0)
(1 -2.28763e-18 -0 1.0131e-16 -2.3176e-34 -0 -0 0 0)
(1 -1.56874e-16 -0 -1.12999e-16 1.77267e-32 0 -0 0 0)
(1 -7.5565e-17 -0 8.61753e-19 -6.51184e-35 -0 -0 0 0)
(1 6.30232e-17 -0 1.33451e-16 8.41053e-33 -0 -0 -0 0)
(1 1.23925e-16 -0 2.1113e-16 2.61642e-32 -0 -0 -0 0)
(1 2.42371e-16 -0 3.31576e-16 8.03645e-32 -0 -0 -0 0)
(1 2.68346e-16 -0 2.08809e-16 5.6033e-32 -0 -0 -0 0)
(1 1.09427e-16 -0 3.29705e-17 3.60788e-33 -0 -0 -0 0)
(1 1.51765e-17 -0 -3.70385e-17 -5.62115e-34 0 -0 -0 0)
(1 1.43506e-17 -0 4.56589e-18 6.5523e-35 -0 -0 -0 0)
(1 1.34974e-16 -0 1.49299e-16 2.01514e-32 -0 -0 -0 0)
(1 6.19882e-17 -0 1.14395e-16 7.09111e-33 -0 -0 -0 0)
(1 3.35863e-17 -0 2.69555e-17 9.05338e-34 -0 -0 -0 0)
(1 6.61012e-17 -0 3.44008e-17 2.27393e-33 -0 -0 -0 0)
(1 5.78043e-17 -0 2.85522e-17 1.65044e-33 -0 -0 -0 0)
(1 2.62327e-18 -0 5.5465e-18 1.455e-35 -0 -0 -0 0)
(1 2.48053e-14 -0 2.46105e-14 6.1047e-28 -0 -0 -0 0)
(1 -5.59422e-15 -0 -5.74151e-15 3.21193e-29 0 -0 0 0)
(1 1.00586e-15 -0 1.00932e-15 1.01524e-30 -0 -0 -0 0)
(1 -5.26013e-16 -0 -4.7175e-16 2.48147e-31 0 -0 0 0)
(1 -1.33162e-16 -0 -4.39378e-17 5.85082e-33 0 -0 0 0)
(1 -1.0307e-16 -0 -1.0628e-16 1.09543e-32 0 -0 0 0)
(1 -1.13188e-16 -0 -1.48981e-16 1.68629e-32 0 -0 0 0)
(1 -1.92213e-16 -0 -1.24165e-16 2.38661e-32 0 -0 0 0)
(1 -9.85586e-17 -0 -1.78524e-17 1.75951e-33 0 -0 0 0)
(1 4.51217e-18 -0 1.36324e-16 6.15119e-34 -0 -0 -0 0)
(1 9.05382e-17 -0 1.45338e-16 1.31586e-32 -0 -0 -0 0)
(1 1.21438e-16 -0 7.22928e-17 8.7791e-33 -0 -0 -0 0)
(1 1.197e-16 -0 1.3923e-16 1.66658e-32 -0 -0 -0 0)
(1 1.99259e-16 -0 2.15103e-16 4.28611e-32 -0 -0 -0 0)
(1 2.8477e-16 -0 3.02945e-16 8.62697e-32 -0 -0 -0 0)
(1 2.35747e-16 -0 2.48191e-16 5.85103e-32 -0 -0 -0 0)
(1 1.25244e-16 -0 3.78276e-17 4.73769e-33 -0 -0 -0 0)
(1 7.54707e-17 -0 -7.96211e-17 -6.00906e-33 0 -0 -0 0)
(1 8.17943e-17 -0 9.42259e-18 7.70715e-34 -0 -0 -0 0)
(1 1.30569e-17 -0 5.05308e-18 6.59778e-35 -0 -0 -0 0)
(1 -8.77124e-14 -0 -8.8077e-14 7.72545e-27 0 -0 0 0)
(1 1.87084e-14 -0 1.88326e-14 3.52328e-28 -0 -0 -0 0)
(1 -4.45805e-15 -0 -4.45107e-15 1.98431e-29 0 -0 0 0)
(1 9.70144e-16 -0 9.85426e-16 9.56004e-31 -0 -0 -0 0)
(1 -1.08628e-16 -0 -7.56913e-17 8.22219e-33 0 -0 0 0)
(1 2.43971e-16 -0 2.97803e-16 7.26553e-32 -0 -0 -0 0)
(1 2.37924e-16 -0 2.288e-16 5.4437e-32 -0 -0 -0 0)
(1 1.72658e-16 -0 1.38059e-16 2.38371e-32 -0 -0 -0 0)
(1 3.63843e-17 -0 -3.2286e-18 -1.1747e-34 0 -0 -0 0)
(1 -2.32495e-17 -0 -4.89411e-17 1.13786e-33 0 -0 0 0)
(1 2.05406e-17 -0 1.20001e-18 2.46489e-35 -0 -0 -0 0)
(1 5.31875e-17 -0 -9.02681e-18 -4.80114e-34 0 -0 -0 0)
(1 -2.69935e-17 -0 -5.39712e-17 1.45688e-33 0 -0 0 0)
(1 -8.4761e-17 -0 1.50859e-17 -1.27869e-33 -0 -0 0 0)
(1 1.02436e-16 -0 2.03669e-16 2.08629e-32 -0 -0 -0 0)
(1 1.79939e-16 -0 2.57199e-16 4.62802e-32 -0 -0 -0 0)
(1 1.73075e-16 -0 1.47166e-16 2.54708e-32 -0 -0 -0 0)
(1 1.16905e-16 -0 1.00233e-17 1.17177e-33 -0 -0 -0 0)
(1 6.50484e-17 -0 -6.91708e-17 -4.49946e-33 0 -0 -0 0)
(1 3.15574e-18 -0 -7.81705e-17 -2.46686e-34 0 -0 -0 0)
(1 2.55853e-14 -0 2.58013e-14 6.60134e-28 -0 -0 -0 0)
(1 -5.01145e-15 -0 -4.89711e-15 2.45416e-29 0 -0 0 0)
(1 1.40464e-15 -0 1.46585e-15 2.059e-30 -0 -0 -0 0)
(1 3.54903e-17 -0 -5.10329e-17 -1.81117e-33 0 -0 -0 0)
(1 2.51388e-16 -0 1.27719e-16 3.2107e-32 -0 -0 -0 0)
(1 9.116e-17 -0 1.32556e-16 1.20838e-32 -0 -0 -0 0)
(1 1.61827e-16 -0 2.67328e-16 4.32609e-32 -0 -0 -0 0)
(1 2.1286e-16 -0 1.93041e-16 4.10906e-32 -0 -0 -0 0)
(1 9.01486e-17 -0 2.7339e-17 2.46457e-33 -0 -0 -0 0)
(1 9.80727e-17 -0 5.64661e-17 5.53779e-33 -0 -0 -0 0)
(1 1.59073e-16 -0 7.90274e-17 1.25711e-32 -0 -0 -0 0)
(1 1.25159e-16 -0 1.20977e-16 1.51413e-32 -0 -0 -0 0)
(1 1.0108e-16 -0 8.77939e-17 8.8742e-33 -0 -0 -0 0)
(1 6.19049e-17 -0 6.89723e-17 4.26973e-33 -0 -0 -0 0)
(1 -3.13018e-17 -0 -3.33142e-17 1.04279e-33 0 -0 0 0)
(1 -8.34544e-17 -0 -8.12776e-17 6.78298e-33 0 -0 0 0)
(1 -4.98198e-17 -0 -7.86071e-18 3.91619e-34 0 -0 0 0)
(1 5.48625e-17 -0 1.15054e-16 6.31214e-33 -0 -0 -0 0)
(1 1.13258e-16 -0 8.44126e-17 9.5604e-33 -0 -0 -0 0)
(1 8.36279e-17 -0 7.22484e-19 6.04198e-35 -0 -0 -0 0)
(1 8.196e-14 -0 8.21672e-14 6.73442e-27 -0 -0 -0 0)
(1 -1.73845e-14 -0 -1.73856e-14 3.0224e-28 0 -0 0 0)
(1 4.25419e-15 -0 4.30147e-15 1.82993e-29 -0 -0 -0 0)
(1 -6.88457e-16 -0 -7.79761e-16 5.36832e-31 0 -0 0 0)
(1 2.83375e-16 -0 1.83081e-16 5.18804e-32 -0 -0 -0 0)
(1 -5.01655e-17 -0 -1.1976e-16 6.00784e-33 0 -0 0 0)
(1 -1.09214e-16 -0 -1.05107e-16 1.14791e-32 0 -0 0 0)
(1 -1.37018e-16 -0 -1.0281e-16 1.40868e-32 0 -0 0 0)
(1 -5.50787e-17 -0 -5.98886e-17 3.29859e-33 0 -0 0 0)
(1 1.56252e-17 -0 2.57235e-17 4.01935e-34 -0 -0 -0 0)
(1 7.46927e-17 -0 8.12887e-17 6.07167e-33 -0 -0 -0 0)
(1 9.86158e-17 -0 1.68583e-16 1.6625e-32 -0 -0 -0 0)
(1 1.74303e-16 -0 2.26185e-16 3.94247e-32 -0 -0 -0 0)
(1 2.11784e-16 -0 1.58296e-16 3.35245e-32 -0 -0 -0 0)
(1 2.87569e-17 -0 -3.34881e-17 -9.63013e-34 0 -0 -0 0)
(1 -6.85435e-17 -0 -8.77292e-17 6.01327e-33 0 -0 0 0)
(1 -7.34087e-17 -0 -3.33974e-17 2.45166e-33 0 -0 0 0)
(1 4.3906e-17 -0 5.47735e-17 2.40488e-33 -0 -0 -0 0)
(1 7.3618e-17 -0 8.11409e-17 5.97342e-33 -0 -0 -0 0)
(1 5.70064e-17 -0 4.34026e-17 2.47422e-33 -0 -0 -0 0)
)
;

boundaryField
{
    movingWall
    {
        type            calculated;
        value           uniform (1 0 0 0 0 0 0 0 0);
    }
    fixedWalls
    {
        type            calculated;
        value           uniform (1 0 0 0 0 0 0 0 0);
    }
    frontAndBack
    {
        type            empty;
    }
}


// ************************************************************************* //
