/*--------------------------------*- C++ -*----------------------------------*\
| =========                 |                                                 |
| \\      /  F ield         | OpenFOAM: The Open Source CFD Toolbox           |
|  \\    /   O peration     | Version:  2312                                  |
|   \\  /    A nd           | Website:  www.openfoam.com                      |
|    \\/     M anipulation  |                                                 |
\*---------------------------------------------------------------------------*/
FoamFile
{
    version     2.0;
    format      ascii;
    arch        "LSB;label=32;scalar=64";
    class       volVectorField;
    location    "6";
    object      UMean;
}
// * * * * * * * * * * * * * * * * * * * * * * * * * * * * * * * * * * * * * //

dimensions      [0 1 -1 0 0 0 0];

internalField   nonuniform List<vector> 
400
(
(-0.583411 6.24278e-05 0)
(-0.583919 0.000281994 0)
(-0.584863 0.000424189 0)
(-0.585952 0.000495644 0)
(-0.587155 0.000561545 0)
(-0.5885 0.000648645 0)
(-0.590029 0.000762858 0)
(-0.591752 0.000885379 0)
(-0.593596 0.000950941 0)
(-0.595376 0.00089229 0)
(-0.59682 0.000674858 0)
(-0.597645 0.000310699 0)
(-0.597631 -0.000185281 0)
(-0.596595 -0.000713262 0)
(-0.594558 -0.00120204 0)
(-0.591754 -0.00152341 0)
(-0.588601 -0.00153182 0)
(-0.585597 -0.00111831 0)
(-0.5836 -0.000449819 0)
(-0.583122 0.00010982 0)
(-0.583682 0.000613377 0)
(-0.584696 0.00131849 0)
(-0.586084 0.00170353 0)
(-0.587637 0.00190348 0)
(-0.589311 0.00209834 0)
(-0.591137 0.00234537 0)
(-0.593138 0.00260789 0)
(-0.595267 0.0027908 0)
(-0.597412 0.00277054 0)
(-0.599394 0.00243597 0)
(-0.600989 0.00173063 0)
(-0.601958 0.000663876 0)
(-0.602067 -0.000697323 0)
(-0.60115 -0.00220627 0)
(-0.599111 -0.00362757 0)
(-0.596048 -0.00462598 0)
(-0.592275 -0.00483529 0)
(-0.588295 -0.00392797 0)
(-0.584835 -0.00204392 0)
(-0.58333 -0.000116865 0)
(-0.583939 0.00170166 0)
(-0.585246 0.00273296 0)
(-0.5868 0.00329244 0)
(-0.588538 0.00364138 0)
(-0.590425 0.00399229 0)
(-0.592479 0.00440396 0)
(-0.594713 0.0048037 0)
(-0.597093 0.0050447 0)
(-0.599515 0.00494987 0)
(-0.601817 0.00436409 0)
(-0.603779 0.00319143 0)
(-0.605145 0.00140927 0)
(-0.605665 -0.000895764 0)
(-0.605164 -0.00353107 0)
(-0.603514 -0.00616581 0)
(-0.600618 -0.00829062 0)
(-0.596541 -0.00923358 0)
(-0.591631 -0.00828052 0)
(-0.586655 -0.00516232 0)
(-0.583577 -0.00120599 0)
(-0.584089 0.00304531 0)
(-0.585569 0.00429551 0)
(-0.587204 0.0049831 0)
(-0.589006 0.00548683 0)
(-0.590964 0.00601415 0)
(-0.593118 0.00661445 0)
(-0.595495 0.00719222 0)
(-0.598069 0.00754885 0)
(-0.60074 0.00744011 0)
(-0.603328 0.00664433 0)
(-0.605597 0.0050202 0)
(-0.607289 0.00254362 0)
(-0.60818 -0.000686367 0)
(-0.608096 -0.00443152 0)
(-0.60694 -0.00832063 0)
(-0.604565 -0.0118202 0)
(-0.600769 -0.0140908 0)
(-0.595483 -0.0139454 0)
(-0.589258 -0.0102027 0)
(-0.584181 -0.00330134 0)
(-0.58414 0.00452472 0)
(-0.585686 0.00594658 0)
(-0.587322 0.00671938 0)
(-0.5891 0.00735813 0)
(-0.591038 0.0080698 0)
(-0.593188 0.00889328 0)
(-0.595591 0.0096965 0)
(-0.598228 0.0102167 0)
(-0.600984 0.0101283 0)
(-0.603653 0.00913742 0)
(-0.605986 0.00707777 0)
(-0.607758 0.0039566 0)
(-0.60881 -8.40341e-05 0)
(-0.609035 -0.00476871 0)
(-0.608331 -0.00974094 0)
(-0.606633 -0.0145571 0)
(-0.603622 -0.0184628 0)
(-0.598777 -0.0200222 0)
(-0.592062 -0.0169285 0)
(-0.58543 -0.00742482 0)
(-0.584112 0.00602095 0)
(-0.585626 0.00758803 0)
(-0.587191 0.00841961 0)
(-0.588869 0.00917879 0)
(-0.590693 0.0100753 0)
(-0.592717 0.0111335 0)
(-0.594993 0.0121772 0)
(-0.597501 0.0128699 0)
(-0.600125 0.0127954 0)
(-0.602674 0.0116036 0)
(-0.604947 0.00913413 0)
(-0.606773 0.00543139 0)
(-0.607982 0.000692191 0)
(-0.60842 -0.00480373 0)
(-0.608017 -0.0106634 0)
(-0.60679 -0.0165029 0)
(-0.604575 -0.021847 0)
(-0.600681 -0.025525 0)
(-0.594289 -0.0244782 0)
(-0.58676 -0.0136579 0)
(-0.584029 0.00743486 0)
(-0.585428 0.00913564 0)
(-0.586856 0.010007 0)
(-0.588363 0.0108591 0)
(-0.589977 0.0119111 0)
(-0.591746 0.0131787 0)
(-0.593723 0.0144386 0)
(-0.595902 0.0152896 0)
(-0.598208 0.0152489 0)
(-0.600518 0.0139343 0)
(-0.602713 0.011182 0)
(-0.604636 0.00702299 0)
(-0.606062 0.00163763 0)
(-0.606751 -0.00464655 0)
(-0.606612 -0.0113576 0)
(-0.605692 -0.0180247 0)
(-0.604014 -0.0244079 0)
(-0.601091 -0.0299653 0)
(-0.595536 -0.0317995 0)
(-0.587779 -0.0216114 0)
(-0.583911 0.00868448 0)
(-0.585131 0.0105203 0)
(-0.586369 0.0114112 0)
(-0.587642 0.0123136 0)
(-0.588965 0.0134618 0)
(-0.590368 0.0148714 0)
(-0.591886 0.0162909 0)
(-0.593557 0.0173012 0)
(-0.595376 0.017366 0)
(-0.597316 0.0160624 0)
(-0.59934 0.0132106 0)
(-0.60131 0.00876579 0)
(-0.602945 0.00283331 0)
(-0.60397 -0.00421856 0)
(-0.604211 -0.0117835 0)
(-0.60369 -0.0192333 0)
(-0.602481 -0.026432 0)
(-0.600385 -0.0334041 0)
(-0.595853 -0.0382991 0)
(-0.588363 -0.0305366 0)
(-0.583772 0.00971402 0)
(-0.584772 0.011688 0)
(-0.585782 0.0125786 0)
(-0.586783 0.0134799 0)
(-0.587762 0.0146452 0)
(-0.588718 0.0160991 0)
(-0.589679 0.0175928 0)
(-0.590708 0.0187282 0)
(-0.591868 0.0189645 0)
(-0.59323 0.0178629 0)
(-0.594866 0.0151477 0)
(-0.596698 0.0106303 0)
(-0.598488 0.00432969 0)
(-0.599885 -0.0033829 0)
(-0.600649 -0.0117037 0)
(-0.600759 -0.0199215 0)
(-0.600206 -0.027878 0)
(-0.598936 -0.0359819 0)
(-0.595516 -0.0438134 0)
(-0.588625 -0.039698 0)
(-0.58363 0.0104937 0)
(-0.584388 0.0126085 0)
(-0.585153 0.0134801 0)
(-0.585869 0.0143242 0)
(-0.586489 0.0154147 0)
(-0.58698 0.0167959 0)
(-0.587352 0.0182649 0)
(-0.58767 0.0194571 0)
(-0.588048 0.0198801 0)
(-0.588624 0.0190686 0)
(-0.589549 0.0166923 0)
(-0.590909 0.012455 0)
(-0.592624 0.00617133 0)
(-0.594349 -0.00187243 0)
(-0.595833 -0.0107967 0)
(-0.596852 -0.0197718 0)
(-0.597215 -0.0284852 0)
(-0.596933 -0.0376517 0)
(-0.594726 -0.0482068 0)
(-0.588784 -0.0486472 0)
(-0.583498 0.0110206 0)
(-0.58402 0.0132749 0)
(-0.584544 0.0141093 0)
(-0.584984 0.0148452 0)
(-0.585268 0.015778 0)
(-0.585332 0.0169739 0)
(-0.585165 0.0182895 0)
(-0.584808 0.0194147 0)
(-0.584386 0.0199393 0)
(-0.584068 0.0194303 0)
(-0.58408 0.0175302 0)
(-0.5846 0.013878 0)
(-0.585835 0.0080875 0)
(-0.587763 0.00022258 0)
(-0.590025 -0.00894137 0)
(-0.592101 -0.0184844 0)
(-0.593585 -0.0279763 0)
(-0.59447 -0.0381817 0)
(-0.593611 -0.0513843 0)
(-0.588956 -0.0571656 0)
(-0.583395 0.0113178 0)
(-0.583711 0.0137051 0)
(-0.584015 0.0144848 0)
(-0.584209 0.0150715 0)
(-0.584201 0.0157829 0)
(-0.583916 0.0167032 0)
(-0.583321 0.0177443 0)
(-0.582434 0.0186638 0)
(-0.581357 0.0191349 0)
(-0.58026 0.0188022 0)
(-0.579374 0.0173355 0)
(-0.578965 0.0143919 0)
(-0.579404 0.00961013 0)
(-0.581041 0.00269912 0)
(-0.583781 -0.00611189 0)
(-0.586863 -0.0159191 0)
(-0.589525 -0.0261731 0)
(-0.591658 -0.0373988 0)
(-0.592281 -0.0532345 0)
(-0.589179 -0.0651864 0)
(-0.58334 0.0114409 0)
(-0.5835 0.0139356 0)
(-0.58362 0.0146402 0)
(-0.583603 0.0150465 0)
(-0.583354 0.0154981 0)
(-0.582802 0.0160953 0)
(-0.581907 0.0167922 0)
(-0.580678 0.0174121 0)
(-0.579191 0.0177062 0)
(-0.577596 0.0173964 0)
(-0.576112 0.0162175 0)
(-0.575022 0.0139173 0)
(-0.574701 0.010196 0)
(-0.575673 0.00472635 0)
(-0.578188 -0.00288289 0)
(-0.581737 -0.0124245 0)
(-0.585376 -0.0230887 0)
(-0.588666 -0.035223 0)
(-0.590852 -0.0536551 0)
(-0.58948 -0.0726931 0)
(-0.583351 0.0114974 0)
(-0.583427 0.0140304 0)
(-0.583408 0.0146174 0)
(-0.583211 0.014812 0)
(-0.582755 0.0149849 0)
(-0.581995 0.0152515 0)
(-0.5809 0.0155952 0)
(-0.57948 0.0158972 0)
(-0.5778 0.0159736 0)
(-0.575986 0.0156152 0)
(-0.574231 0.0146255 0)
(-0.572794 0.0128399 0)
(-0.571979 0.0100677 0)
(-0.57221 0.00594985 0)
(-0.574016 -4.72018e-05 0)
(-0.577326 -0.00851595 0)
(-0.581456 -0.0189601 0)
(-0.585667 -0.0317212 0)
(-0.589366 -0.0524254 0)
(-0.589849 -0.0794468 0)
(-0.583457 0.0114951 0)
(-0.583559 0.0140152 0)
(-0.58343 0.0144288 0)
(-0.583063 0.0143785 0)
(-0.582411 0.0142682 0)
(-0.581464 0.0142234 0)
(-0.580215 0.0142476 0)
(-0.578684 0.0142642 0)
(-0.576927 0.0141446 0)
(-0.575053 0.0137375 0)
(-0.573224 0.0129022 0)
(-0.571637 0.0115216 0)
(-0.570528 0.00946211 0)
(-0.570197 0.00645711 0)
(-0.571137 0.00196046 0)
(-0.573731 -0.0048067 0)
(-0.577807 -0.0142443 0)
(-0.582633 -0.0271676 0)
(-0.587484 -0.0492228 0)
(-0.590132 -0.0851261 0)
(-0.583709 0.0120611 0)
(-0.583907 0.0141417 0)
(-0.583701 0.014167 0)
(-0.583161 0.0137816 0)
(-0.5823 0.0133695 0)
(-0.581153 0.0130363 0)
(-0.579743 0.0127898 0)
(-0.578106 0.0125756 0)
(-0.576295 0.0123036 0)
(-0.574398 0.0118675 0)
(-0.572541 0.0111634 0)
(-0.570876 0.0100976 0)
(-0.569582 0.00857188 0)
(-0.568873 0.0064086 0)
(-0.569117 0.00316731 0)
(-0.570784 -0.00190449 0)
(-0.574504 -0.00965684 0)
(-0.579052 -0.0221925 0)
(-0.584435 -0.0441787 0)
(-0.590006 -0.0902531 0)
(-0.584272 0.0112922 0)
(-0.584868 0.0132584 0)
(-0.5844 0.0131879 0)
(-0.58352 0.0126888 0)
(-0.582349 0.012123 0)
(-0.580938 0.0116057 0)
(-0.579308 0.0111777 0)
(-0.577505 0.0108117 0)
(-0.575579 0.0104454 0)
(-0.573598 0.0100035 0)
(-0.571659 0.00940908 0)
(-0.56987 0.00858877 0)
(-0.568388 0.00747823 0)
(-0.567386 0.00594944 0)
(-0.567154 0.00371808 0)
(-0.567954 7.20419e-05 0)
(-0.571182 -0.00570241 0)
(-0.573908 -0.0176374 0)
(-0.580324 -0.0383408 0)
(-0.589086 -0.0963167 0)
(-0.585048 0.0182488 0)
(-0.585675 0.0175613 0)
(-0.584718 0.0152492 0)
(-0.583402 0.0132152 0)
(-0.581844 0.0117641 0)
(-0.580027 0.0106911 0)
(-0.577996 0.00988771 0)
(-0.575828 0.00926533 0)
(-0.573586 0.00873561 0)
(-0.571327 0.00822658 0)
(-0.569123 0.00768137 0)
(-0.56708 0.00705579 0)
(-0.565322 0.00629652 0)
(-0.563966 0.00531564 0)
(-0.563313 0.0039578 0)
(-0.563263 0.00153923 0)
(-0.566135 -0.00263673 0)
(-0.564809 -0.013272 0)
(-0.577496 -0.0304223 0)
(-0.584871 -0.101137 0)
(-0.586123 0.00681811 0)
(-0.587209 0.00419881 0)
(-0.583846 0.00434714 0)
(-0.580107 0.00548713 0)
(-0.57625 0.00576058 0)
(-0.572495 0.00556164 0)
(-0.568942 0.00531746 0)
(-0.565585 0.00511962 0)
(-0.562397 0.00493427 0)
(-0.559358 0.00472975 0)
(-0.556478 0.0044932 0)
(-0.553789 0.00421244 0)
(-0.551359 0.00387178 0)
(-0.549196 0.00340317 0)
(-0.547672 0.00276238 0)
(-0.546101 0.0014285 0)
(-0.548825 -0.000434368 0)
(-0.543548 -0.0070123 0)
(-0.573574 -0.0158068 0)
(-0.559273 -0.0883522 0)
(-0.566701 0.0383036 0)
(-0.558006 0.0280175 0)
(-0.547861 0.017174 0)
(-0.53928 0.011221 0)
(-0.532766 0.0081452 0)
(-0.527345 0.00636148 0)
(-0.522438 0.00519632 0)
(-0.517901 0.00437547 0)
(-0.513698 0.00376265 0)
(-0.50979 0.00328821 0)
(-0.506149 0.00290507 0)
(-0.502767 0.00258252 0)
(-0.499681 0.00229904 0)
(-0.496864 0.00202903 0)
(-0.494711 0.00173665 0)
(-0.492303 0.00132929 0)
(-0.494548 0.000843453 0)
(-0.485289 -0.000916457 0)
(-0.535093 0.00236539 0)
(-0.432311 -0.03994 0)
)
;

boundaryField
{
    movingWall
    {
        type            calculated;
        value           uniform (-0.166667 0 0);
    }
    fixedWalls
    {
        type            calculated;
        value           uniform (-0.583333 0 0);
    }
    frontAndBack
    {
        type            empty;
    }
}


// ************************************************************************* //
