/*--------------------------------*- C++ -*----------------------------------*\
| =========                 |                                                 |
| \\      /  F ield         | OpenFOAM: The Open Source CFD Toolbox           |
|  \\    /   O peration     | Version:  2312                                  |
|   \\  /    A nd           | Website:  www.openfoam.com                      |
|    \\/     M anipulation  |                                                 |
\*---------------------------------------------------------------------------*/
FoamFile
{
    version     2.0;
    format      ascii;
    arch        "LSB;label=32;scalar=64";
    class       volSymmTensorField;
    location    "6";
    object      UPrime2Mean;
}
// * * * * * * * * * * * * * * * * * * * * * * * * * * * * * * * * * * * * * //

dimensions      [0 2 -2 0 0 0 0];

internalField   nonuniform List<symmTensor> 
400
(
(0.242968 3.61335e-05 0 1.78794e-08 0 0)
(0.242373 0.000164229 0 1.56554e-07 0 0)
(0.241276 0.000246131 0 3.576e-07 0 0)
(0.240015 0.00028644 0 4.98345e-07 0 0)
(0.238629 0.000322866 0 6.91938e-07 0 0)
(0.237089 0.000370372 0 1.08239e-06 0 0)
(0.235353 0.000431297 0 1.86085e-06 0 0)
(0.233419 0.000493508 0 3.15711e-06 0 0)
(0.231383 0.000520575 0 4.30619e-06 0 0)
(0.229453 0.000478925 0 4.24913e-06 0 0)
(0.227917 0.000355179 0 2.74092e-06 0 0)
(0.227057 0.00015901 0 8.50603e-07 0 0)
(0.22709 -0.000104641 0 1.4874e-07 0 0)
(0.22821 -0.000386968 0 1.52041e-06 0 0)
(0.230411 -0.000655862 0 4.77119e-06 0 0)
(0.233482 -0.000844098 0 8.10555e-06 0 0)
(0.237003 -0.000865783 0 8.37422e-06 0 0)
(0.240428 -0.000644793 0 4.19325e-06 0 0)
(0.242745 -0.000262328 0 4.66151e-07 0 0)
(0.243303 6.44534e-05 0 2.49947e-07 0 0)
(0.242653 0.000357108 0 7.536e-07 0 0)
(0.24147 0.000765115 0 3.88257e-06 0 0)
(0.239865 0.000982644 0 6.70815e-06 0 0)
(0.238081 0.00109033 0 8.65699e-06 0 0)
(0.236174 0.00119152 0 1.14133e-05 0 0)
(0.234116 0.00131636 0 1.66001e-05 0 0)
(0.231891 0.00144076 0 2.46429e-05 0 0)
(0.229565 0.00151165 0 3.30186e-05 0 0)
(0.227269 0.00146774 0 3.64629e-05 0 0)
(0.225191 0.00126155 0 3.08886e-05 0 0)
(0.223551 0.00087522 0 1.78791e-05 0 0)
(0.222577 0.000318824 0 4.8303e-06 0 0)
(0.222492 -0.000378265 0 1.55808e-06 0 0)
(0.223465 -0.00115451 0 1.5592e-05 0 0)
(0.225609 -0.00190658 0 4.65911e-05 0 0)
(0.228863 -0.00247246 0 8.05719e-05 0 0)
(0.23295 -0.00264805 0 9.20997e-05 0 0)
(0.237368 -0.0022135 0 6.06101e-05 0 0)
(0.241311 -0.00118243 0 1.3516e-05 0 0)
(0.24306 -6.74807e-05 0 1.07074e-06 0 0)
(0.242353 0.000989492 0 6.38534e-06 0 0)
(0.240833 0.0015815 0 1.81218e-05 0 0)
(0.239044 0.00189121 0 2.72919e-05 0 0)
(0.237058 0.00207351 0 3.47183e-05 0 0)
(0.234925 0.00224833 0 4.55151e-05 0 0)
(0.232634 0.00244403 0 6.37857e-05 0 0)
(0.230183 0.00261582 0 8.83048e-05 0 0)
(0.227623 0.00268576 0 0.000109985 0 0)
(0.225072 0.00257202 0 0.000115125 0 0)
(0.222694 0.00221328 0 9.55079e-05 0 0)
(0.220702 0.00157894 0 5.64148e-05 0 0)
(0.219334 0.000666789 0 1.66344e-05 0 0)
(0.218827 -0.000486043 0 3.02452e-06 0 0)
(0.219357 -0.00180308 0 3.93109e-05 0 0)
(0.221069 -0.00314441 0 0.000133366 0 0)
(0.224087 -0.00428109 0 0.000259428 0 0)
(0.228396 -0.00487991 0 0.000344362 0 0)
(0.2337 -0.00452282 0 0.000293168 0 0)
(0.239241 -0.00292997 0 0.000111262 0 0)
(0.242772 -0.000702152 0 3.98733e-06 0 0)
(0.24218 0.0017698 0 2.18546e-05 0 0)
(0.24046 0.00248105 0 4.67371e-05 0 0)
(0.238582 0.0028549 0 6.54623e-05 0 0)
(0.236529 0.00311351 0 8.32669e-05 0 0)
(0.234325 0.00337147 0 0.000109407 0 0)
(0.231934 0.00364936 0 0.000150225 0 0)
(0.229341 0.00388956 0 0.000201082 0 0)
(0.226586 0.00399027 0 0.000242059 0 0)
(0.223779 0.00384166 0 0.000247078 0 0)
(0.2211 0.00335579 0 0.000202886 0 0)
(0.218778 0.00248332 0 0.000121762 0 0)
(0.217061 0.00122177 0 3.96585e-05 0 0)
(0.216162 -0.000386277 0 4.24652e-06 0 0)
(0.216254 -0.00224465 0 5.95375e-05 0 0)
(0.217453 -0.00419687 0 0.000227007 0 0)
(0.219928 -0.00600531 0 0.000487656 0 0)
(0.223915 -0.00727718 0 0.000746083 0 0)
(0.229545 -0.00740924 0 0.00080124 0 0)
(0.236344 -0.00564798 0 0.000468181 0 0)
(0.242074 -0.00190784 0 4.35048e-05 0 0)
(0.242118 0.00262874 0 5.03136e-05 0 0)
(0.240325 0.00343211 0 9.18939e-05 0 0)
(0.238446 0.00384635 0 0.000122098 0 0)
(0.236422 0.0041718 0 0.000154262 0 0)
(0.23424 0.00452028 0 0.000202585 0 0)
(0.231852 0.00490489 0 0.000275209 0 0)
(0.229224 0.00524838 0 0.000360494 0 0)
(0.226386 0.00541771 0 0.000423406 0 0)
(0.223463 0.00526439 0 0.0004236 0 0)
(0.220663 0.00466522 0 0.000344727 0 0)
(0.218237 0.0035569 0 0.000210576 0 0)
(0.216405 0.00195003 0 7.66684e-05 0 0)
(0.215325 -8.9745e-05 0 8.98816e-06 0 0)
(0.215099 -0.00244184 0 6.73013e-05 0 0)
(0.215837 -0.00495433 0 0.000286588 0 0)
(0.217621 -0.00742776 0 0.000666853 0 0)
(0.220804 -0.00951109 0 0.00114234 0 0)
(0.225968 -0.010516 0 0.00148654 0 0)
(0.233248 -0.00920481 0 0.00122592 0 0)
(0.240649 -0.00422827 0 0.000278917 0 0)
(0.242145 0.00349913 0 9.11959e-05 0 0)
(0.240395 0.00438075 0 0.000151241 0 0)
(0.238594 0.00482373 0 0.000193466 0 0)
(0.23668 0.00521246 0 0.000242544 0 0)
(0.234619 0.00565956 0 0.000317597 0 0)
(0.232357 0.00617001 0 0.000426961 0 0)
(0.229847 0.00664293 0 0.000549014 0 0)
(0.227114 0.00690548 0 0.000631679 0 0)
(0.224286 0.00675863 0 0.000620882 0 0)
(0.221565 0.00604387 0 0.000502382 0 0)
(0.219163 0.00469511 0 0.00031523 0 0)
(0.217255 0.0027443 0 0.000130815 0 0)
(0.21601 0.00029487 0 2.83245e-05 0 0)
(0.215575 -0.00251954 0 7.78543e-05 0 0)
(0.216017 -0.00552372 0 0.000325223 0 0)
(0.21732 -0.00854815 0 0.000781824 0 0)
(0.219667 -0.0113793 0 0.00142612 0 0)
(0.22383 -0.0134613 0 0.00212525 0 0)
(0.230768 -0.0132455 0 0.00229335 0 0)
(0.239136 -0.00770711 0 0.000921896 0 0)
(0.242239 0.0043232 0 0.000139942 0 0)
(0.240623 0.00528058 0 0.00021867 0 0)
(0.238975 0.00574616 0 0.000271892 0 0)
(0.23725 0.00618939 0 0.000337114 0 0)
(0.235415 0.00672966 0 0.000437647 0 0)
(0.23342 0.00736874 0 0.000581413 0 0)
(0.231211 0.0079794 0 0.000735819 0 0)
(0.228798 0.00834831 0 0.000834209 0 0)
(0.226268 0.00822968 0 0.000813889 0 0)
(0.223758 0.00743525 0 0.000665546 0 0)
(0.221401 0.00589213 0 0.000438274 0 0)
(0.21937 0.00363334 0 0.000211085 0 0)
(0.217897 0.00076835 0 7.304e-05 0 0)
(0.217219 -0.00252868 0 0.00010707 0 0)
(0.217415 -0.00602898 0 0.000368401 0 0)
(0.218419 -0.00951937 0 0.000870901 0 0)
(0.2202 -0.0129161 0 0.00161771 0 0)
(0.223309 -0.0159905 0 0.00259427 0 0)
(0.229345 -0.0172965 0 0.00338772 0 0)
(0.237973 -0.0121734 0 0.00207607 0 0)
(0.242377 0.00505428 0 0.000189212 0 0)
(0.240965 0.00609205 0 0.000285779 0 0)
(0.239533 0.00657381 0 0.000347211 0 0)
(0.238068 0.00705427 0 0.000423928 0 0)
(0.236553 0.00766479 0 0.000542137 0 0)
(0.234955 0.00841021 0 0.00070954 0 0)
(0.233235 0.00914722 0 0.000886179 0 0)
(0.231353 0.00964166 0 0.00100043 0 0)
(0.22932 0.00960109 0 0.000982465 0 0)
(0.227174 0.00879951 0 0.000822912 0 0)
(0.224964 0.00715007 0 0.000575453 0 0)
(0.222851 0.0046513 0 0.000318783 0 0)
(0.221143 0.00138863 0 0.000148392 0 0)
(0.220125 -0.00242024 0 0.000161902 0 0)
(0.219949 -0.00644752 0 0.000422587 0 0)
(0.22056 -0.0103888 0 0.000948438 0 0)
(0.221857 -0.0142305 0 0.00175747 0 0)
(0.224057 -0.018067 0 0.00291163 0 0)
(0.228958 -0.0210289 0 0.00431639 0 0)
(0.237301 -0.0172524 0 0.0036214 0 0)
(0.242539 0.00565851 0 0.000231153 0 0)
(0.241381 0.00678325 0 0.000343733 0 0)
(0.240209 0.00727373 0 0.000409618 0 0)
(0.239051 0.00776695 0 0.000490658 0 0)
(0.237923 0.00840954 0 0.000614396 0 0)
(0.236824 0.00921578 0 0.000788597 0 0)
(0.235723 0.0100425 0 0.000972634 0 0)
(0.23455 0.0106574 0 0.00109865 0 0)
(0.233235 0.0107467 0 0.00109589 0 0)
(0.231705 0.0100569 0 0.000953102 0 0)
(0.229888 0.00843585 0 0.000713321 0 0)
(0.227889 0.00580168 0 0.000445231 0 0)
(0.225987 0.00220442 0 0.000251115 0 0)
(0.224563 -0.00210335 0 0.000238981 0 0)
(0.223838 -0.00664319 0 0.000476458 0 0)
(0.223785 -0.0110395 0 0.000994755 0 0)
(0.224388 -0.0152845 0 0.00183599 0 0)
(0.225676 -0.0197173 0 0.00310967 0 0)
(0.229325 -0.0242905 0 0.00503816 0 0)
(0.236994 -0.0225314 0 0.00532803 0 0)
(0.242705 0.00611826 0 0.000259795 0 0)
(0.241827 0.00733413 0 0.000385697 0 0)
(0.240937 0.00782502 0 0.000452281 0 0)
(0.240107 0.00830062 0 0.000529637 0 0)
(0.239389 0.00892374 0 0.00064501 0 0)
(0.238825 0.00972424 0 0.000806815 0 0)
(0.238401 0.0105851 0 0.000982345 0 0)
(0.238046 0.0112866 0 0.00111076 0 0)
(0.237628 0.0115269 0 0.00112863 0 0)
(0.236989 0.0110197 0 0.00101779 0 0)
(0.235959 0.00956634 0 0.00081259 0 0)
(0.234457 0.00700608 0 0.000569828 0 0)
(0.232595 0.00327494 0 0.000370798 0 0)
(0.230773 -0.0013869 0 0.00032405 0 0)
(0.229238 -0.0063991 0 0.000507922 0 0)
(0.228176 -0.0112703 0 0.000979173 0 0)
(0.227764 -0.0159204 0 0.00181649 0 0)
(0.227951 -0.0208938 0 0.00317943 0 0)
(0.230224 -0.0269559 0 0.00553811 0 0)
(0.236806 -0.0277217 0 0.00702731 0 0)
(0.242859 0.00643018 0 0.000272219 0 0)
(0.242256 0.00773785 0 0.000408152 0 0)
(0.241646 0.00821889 0 0.000472214 0 0)
(0.241136 0.0086463 0 0.000539363 0 0)
(0.240811 0.00919815 0 0.00063552 0 0)
(0.240747 0.00991984 0 0.000769182 0 0)
(0.240961 0.0107297 0 0.000917774 0 0)
(0.241409 0.0114377 0 0.00103217 0 0)
(0.241946 0.0117812 0 0.00106198 0 0)
(0.242369 0.0114797 0 0.000987761 0 0)
(0.24241 0.010303 0 0.000835109 0 0)
(0.241863 0.0080355 0 0.000648449 0 0)
(0.240507 0.00447285 0 0.000478439 0 0)
(0.238389 -0.00025702 0 0.000399634 0 0)
(0.235907 -0.00556624 0 0.000500551 0 0)
(0.233608 -0.0108556 0 0.000882167 0 0)
(0.231908 -0.0159509 0 0.00167146 0 0)
(0.230767 -0.0214502 0 0.00308287 0 0)
(0.231506 -0.028943 0 0.00581045 0 0)
(0.236604 -0.0326698 0 0.00862397 0 0)
(0.242979 0.00660772 0 0.000269234 0 0)
(0.242618 0.00800179 0 0.000411335 0 0)
(0.242264 0.00846156 0 0.000470712 0 0)
(0.242044 0.00881388 0 0.000523847 0 0)
(0.242063 0.00925087 0 0.000595044 0 0)
(0.242416 0.00982896 0 0.000691924 0 0)
(0.243146 0.0104994 0 0.000800599 0 0)
(0.244238 0.011112 0 0.00088593 0 0)
(0.245577 0.0114521 0 0.00091137 0 0)
(0.246955 0.0112801 0 0.000862164 0 0)
(0.248087 0.0103747 0 0.000757925 0 0)
(0.248647 0.00851928 0 0.00063616 0 0)
(0.248195 0.00550587 0 0.000530061 0 0)
(0.246339 0.00122278 0 0.000454031 0 0)
(0.243203 -0.0040479 0 0.000468736 0 0)
(0.239673 -0.00963611 0 0.000720802 0 0)
(0.236576 -0.0152219 0 0.00140589 0 0)
(0.23399 -0.0212672 0 0.00280621 0 0)
(0.23304 -0.0301724 0 0.00584083 0 0)
(0.236343 -0.0373185 0 0.0100983 0 0)
(0.243042 0.00668134 0 0.000254988 0 0)
(0.242866 0.00814511 0 0.000398489 0 0)
(0.242729 0.00856915 0 0.000451785 0 0)
(0.242759 0.00882448 0 0.000489799 0 0)
(0.243066 0.00911787 0 0.00053565 0 0)
(0.243739 0.00951346 0 0.000596093 0 0)
(0.244832 0.00998692 0 0.000663253 0 0)
(0.246345 0.0104274 0 0.000714667 0 0)
(0.248189 0.0106694 0 0.000726522 0 0)
(0.250182 0.0105216 0 0.000689047 0 0)
(0.25205 0.0098017 0 0.000617435 0 0)
(0.253435 0.00834657 0 0.000544705 0 0)
(0.253875 0.00598137 0 0.000494319 0 0)
(0.252748 0.00253827 0 0.000460437 0 0)
(0.249799 -0.00212763 0 0.000431611 0 0)
(0.245649 -0.0077306 0 0.000545197 0 0)
(0.241371 -0.0136803 0 0.00106576 0 0)
(0.237422 -0.02027 0 0.00236907 0 0)
(0.234683 -0.0305762 0 0.00561857 0 0)
(0.235995 -0.0416478 0 0.0114634 0 0)
(0.243028 0.0067149 0 0.000236615 0 0)
(0.242953 0.00820345 0 0.000375489 0 0)
(0.242982 0.00856423 0 0.000420783 0 0)
(0.243227 0.00870098 0 0.000443976 0 0)
(0.243781 0.00883511 0 0.000467489 0 0)
(0.244704 0.00903719 0 0.000497805 0 0)
(0.246038 0.00929848 0 0.00053083 0 0)
(0.247781 0.00954356 0 0.000553937 0 0)
(0.249859 0.00964944 0 0.000552907 0 0)
(0.252116 0.00947183 0 0.000521928 0 0)
(0.254307 0.0088751 0 0.000471157 0 0)
(0.256105 0.0077522 0 0.000424482 0 0)
(0.257127 0.00599324 0 0.000402614 0 0)
(0.256862 0.00339624 0 0.00039858 0 0)
(0.25471 -0.00033193 0 0.000387368 0 0)
(0.250798 -0.00542963 0 0.000404302 0 0)
(0.245911 -0.0114211 0 0.00072427 0 0)
(0.240863 -0.018465 0 0.00182948 0 0)
(0.236385 -0.0300295 0 0.00511627 0 0)
(0.235568 -0.0455242 0 0.0126834 0 0)
(0.242902 0.00671091 0 0.000217427 0 0)
(0.242801 0.00819066 0 0.000346641 0 0)
(0.24296 0.00845266 0 0.000381645 0 0)
(0.243408 0.00844931 0 0.000390819 0 0)
(0.244196 0.00841913 0 0.000396314 0 0)
(0.245342 0.0084362 0 0.000404498 0 0)
(0.24686 0.00850217 0 0.000413765 0 0)
(0.248732 0.00856757 0 0.000417649 0 0)
(0.250893 0.00854659 0 0.000408582 0 0)
(0.253211 0.00833591 0 0.000383233 0 0)
(0.255478 0.00783941 0 0.000347009 0 0)
(0.257443 0.00698163 0 0.000313453 0 0)
(0.258808 0.00568513 0 0.0002976 0 0)
(0.259209 0.00379699 0 0.000303155 0 0)
(0.258067 0.000996315 0 0.000310475 0 0)
(0.254968 -0.00314194 0 0.000309433 0 0)
(0.250128 -0.00869902 0 0.000449864 0 0)
(0.24435 -0.0159927 0 0.00127844 0 0)
(0.238535 -0.0283743 0 0.00431853 0 0)
(0.235243 -0.0487998 0 0.0136792 0 0)
(0.242605 0.00703648 0 0.000223241 0 0)
(0.242397 0.00825362 0 0.000328222 0 0)
(0.242646 0.00828946 0 0.000343593 0 0)
(0.2433 0.00809175 0 0.000336434 0 0)
(0.244335 0.00788518 0 0.000326698 0 0)
(0.245717 0.00773035 0 0.000319304 0 0)
(0.247423 0.00763054 0 0.000313716 0 0)
(0.249416 0.00755018 0 0.000306493 0 0)
(0.251633 0.00743 0 0.000293738 0 0)
(0.253965 0.00719873 0 0.00027343 0 0)
(0.256252 0.00678688 0 0.000247509 0 0)
(0.258298 0.00613477 0 0.000222069 0 0)
(0.259877 0.00518442 0 0.000205518 0 0)
(0.260728 0.00383318 0 0.000204458 0 0)
(0.260411 0.0018197 0 0.000212239 0 0)
(0.258389 -0.0013014 0 0.000217074 0 0)
(0.253946 -0.00595771 0 0.000266631 0 0)
(0.248501 -0.013226 0 0.000821844 0 0)
(0.242055 -0.0257177 0 0.00333495 0 0)
(0.235388 -0.0518442 0 0.014584 0 0)
(0.241939 0.00657873 0 0.000187651 0 0)
(0.241278 0.00771347 0 0.00027006 0 0)
(0.241831 0.0076948 0 0.000279009 0 0)
(0.242879 0.00743373 0 0.000268104 0 0)
(0.244275 0.00713838 0 0.000253154 0 0)
(0.245967 0.0068738 0 0.000238961 0 0)
(0.247932 0.00666268 0 0.000226816 0 0)
(0.250119 0.00648642 0 0.00021536 0 0)
(0.252466 0.00630476 0 0.000202484 0 0)
(0.25489 0.00606842 0 0.000186755 0 0)
(0.257267 0.00572716 0 0.000168364 0 0)
(0.259457 0.00523431 0 0.000149329 0 0)
(0.261261 0.00455124 0 0.000133141 0 0)
(0.262464 0.00360233 0 0.000123345 0 0)
(0.262714 0.00221755 0 0.000121436 0 0)
(0.261713 -2.99168e-05 0 0.000122101 0 0)
(0.257806 -0.00354891 0 0.000150803 0 0)
(0.254555 -0.0106747 0 0.00052264 0 0)
(0.246853 -0.0226045 0 0.0024022 0 0)
(0.236472 -0.0556 0 0.0157508 0 0)
(0.241026 0.0106109 0 0.000481851 0 0)
(0.240339 0.0101881 0 0.000458872 0 0)
(0.241451 0.00888047 0 0.000357891 0 0)
(0.243004 0.00773079 0 0.000277296 0 0)
(0.244848 0.00692004 0 0.000226431 0 0)
(0.247013 0.00632942 0 0.000192355 0 0)
(0.249451 0.00589547 0 0.000168633 0 0)
(0.252069 0.00556481 0 0.000150888 0 0)
(0.254795 0.00528373 0 0.000135886 0 0)
(0.257557 0.00500754 0 0.000121736 0 0)
(0.26026 0.00470034 0 0.000107688 0 0)
(0.262769 0.00433418 0 9.38407e-05 0 0)
(0.264923 0.00387593 0 8.04088e-05 0 0)
(0.266574 0.00327198 0 6.74156e-05 0 0)
(0.267346 0.00242568 0 5.54885e-05 0 0)
(0.267374 0.00091898 0 4.4541e-05 0 0)
(0.263825 -0.00166697 0 6.10163e-05 0 0)
(0.265493 -0.00822915 0 0.000325938 0 0)
(0.250139 -0.0180892 0 0.00145034 0 0)
(0.241458 -0.0591956 0 0.016258 0 0)
(0.239817 0.00395957 0 7.04818e-05 0 0)
(0.238556 0.00242273 0 2.66408e-05 0 0)
(0.242464 0.00253596 0 2.91757e-05 0 0)
(0.24685 0.00323276 0 4.73997e-05 0 0)
(0.251422 0.00343092 0 5.33381e-05 0 0)
(0.255923 0.00334831 0 5.09222e-05 0 0)
(0.260229 0.00323481 0 4.75138e-05 0 0)
(0.264339 0.00314524 0 4.47513e-05 0 0)
(0.268281 0.0030596 0 4.21116e-05 0 0)
(0.272072 0.00295819 0 3.91173e-05 0 0)
(0.275693 0.00283243 0 3.56944e-05 0 0)
(0.279095 0.00267411 0 3.18634e-05 0 0)
(0.282187 0.00247254 0 2.7621e-05 0 0)
(0.284951 0.0021835 0 2.23045e-05 0 0)
(0.286902 0.00177447 0 1.59032e-05 0 0)
(0.288908 0.000908829 0 7.04165e-06 0 0)
(0.285417 -0.000319304 0 9.8815e-06 0 0)
(0.292151 -0.00461173 0 0.000114999 0 0)
(0.25474 -0.00952292 0 0.000418165 0 0)
(0.272517 -0.055097 0 0.0117464 0 0)
(0.262964 0.0232584 0 0.00207529 0 0)
(0.27351 0.0173633 0 0.00115058 0 0)
(0.286277 0.0109134 0 0.000449985 0 0)
(0.297288 0.00728189 0 0.000199149 0 0)
(0.305813 0.00537238 0 0.000107807 0 0)
(0.313012 0.00425266 0 6.70325e-05 0 0)
(0.319611 0.00351626 0 4.53831e-05 0 0)
(0.325785 0.00299434 0 3.25575e-05 0 0)
(0.331567 0.00260212 0 2.43238e-05 0 0)
(0.337 0.00229648 0 1.87543e-05 0 0)
(0.342109 0.0020477 0 1.4773e-05 0 0)
(0.346899 0.00183611 0 1.17785e-05 0 0)
(0.351305 0.00164752 0 9.41002e-06 0 0)
(0.355355 0.00146427 0 7.36818e-06 0 0)
(0.358471 0.00125919 0 5.38375e-06 0 0)
(0.361952 0.000965503 0 3.04485e-06 0 0)
(0.358711 0.000600574 0 1.21268e-06 0 0)
(0.371932 -0.000709967 0 5.45803e-06 0 0)
(0.302933 0.00146145 0 4.33009e-05 0 0)
(0.4527 -0.0319132 0 0.00226451 0 0)
)
;

boundaryField
{
    movingWall
    {
        type            calculated;
        value           uniform (0.972222 0 0 0 0 0);
    }
    fixedWalls
    {
        type            calculated;
        value           uniform (0.243056 0 0 0 0 0);
    }
    frontAndBack
    {
        type            empty;
    }
}


// ************************************************************************* //
