/*--------------------------------*- C++ -*----------------------------------*\
| =========                 |                                                 |
| \\      /  F ield         | OpenFOAM: The Open Source CFD Toolbox           |
|  \\    /   O peration     | Version:  2312                                  |
|   \\  /    A nd           | Website:  www.openfoam.com                      |
|    \\/     M anipulation  |                                                 |
\*---------------------------------------------------------------------------*/
FoamFile
{
    version     2.0;
    format      ascii;
    arch        "LSB;label=32;scalar=64";
    class       volScalarField;
    location    "6";
    object      Uy;
}
// * * * * * * * * * * * * * * * * * * * * * * * * * * * * * * * * * * * * * //

dimensions      [0 1 -1 0 0 0 0];

internalField   nonuniform List<scalar> 
400
(
1.46346e-13
-3.08687e-14
7.40478e-15
-1.47296e-15
3.65368e-16
-4.48695e-17
5.12859e-17
5.80872e-17
3.30271e-17
2.06755e-17
-1.06795e-17
-3.5862e-17
1.48953e-17
9.33317e-17
3.94061e-17
-7.62499e-17
-5.77905e-17
5.49007e-17
1.82591e-17
6.56121e-18
2.3727e-14
-5.32413e-15
1.39689e-15
-4.28581e-16
-9.03593e-17
-4.53933e-17
1.05711e-16
7.51329e-17
1.90539e-18
6.01227e-17
8.91823e-17
1.03653e-16
1.84238e-16
2.78221e-16
2.17464e-16
3.66778e-17
-3.82976e-17
6.01827e-17
-6.64712e-17
-6.36326e-17
-1.48011e-13
3.21497e-14
-7.72178e-15
1.4743e-15
-4.94047e-16
9.10957e-17
1.99346e-16
2.02119e-16
9.14543e-17
-5.77658e-18
3.83741e-18
8.79615e-17
1.89723e-16
2.31906e-16
2.17697e-16
1.36537e-16
-3.70757e-17
-1.60422e-16
-2.25528e-16
-1.54502e-16
1.03376e-13
-2.1947e-14
5.24589e-15
-1.01857e-15
2.6832e-16
-1.35253e-16
-9.33166e-18
2.13113e-17
-2.79743e-17
-1.54095e-16
-7.95148e-17
1.44765e-16
2.42918e-16
1.70553e-16
8.65966e-17
7.36355e-17
-2.37351e-17
-1.74644e-16
-1.64906e-16
-9.3967e-17
-8.0111e-15
8.00935e-16
-3.80043e-16
-1.1947e-17
-2.10049e-17
-5.02773e-17
3.08343e-18
1.06602e-16
1.83708e-16
1.77531e-16
1.20265e-16
1.27525e-16
6.27962e-17
3.84734e-17
-7.53543e-19
-2.05589e-17
-4.27831e-17
-2.5447e-17
-5.90317e-17
-6.03832e-17
-7.6952e-14
1.61184e-14
-3.95639e-15
8.29663e-16
-7.9958e-17
1.7224e-16
7.60581e-18
-2.61454e-17
6.83239e-17
1.17089e-16
-2.77207e-17
-1.16432e-16
-5.0775e-17
1.14618e-16
1.31589e-16
8.18112e-18
-7.18672e-17
-5.16176e-17
-6.18858e-17
-8.23862e-17
8.89805e-14
-1.77897e-14
4.44457e-15
-6.55783e-16
4.27694e-16
1.68274e-16
-3.85798e-17
-2.03114e-16
-1.42752e-16
7.98054e-17
5.76469e-17
-6.72582e-17
3.70623e-17
1.39046e-16
1.27432e-16
6.60811e-17
3.84066e-17
1.09225e-17
-2.33581e-17
1.69241e-18
-2.19377e-14
4.4099e-15
-8.74716e-16
4.26203e-16
2.80755e-16
2.20755e-16
1.33769e-16
6.33314e-17
1.00698e-16
1.96995e-16
2.47372e-16
4.24737e-17
-1.79421e-16
-2.08893e-16
-1.48173e-16
-7.02943e-17
3.56357e-17
8.1661e-17
2.42178e-17
1.35371e-17
-5.44482e-14
1.10445e-14
-2.45864e-15
6.36355e-16
2.17276e-17
1.41762e-16
1.26361e-16
8.05366e-17
1.77529e-17
-7.94164e-17
2.3675e-17
9.45615e-17
-9.10556e-17
-2.22545e-16
-1.80589e-16
-1.03227e-16
-7.19599e-18
-2.47617e-17
7.14877e-18
-2.9015e-17
6.64471e-14
-1.34254e-14
3.32817e-15
-4.76008e-16
2.06898e-16
1.13289e-17
-2.6973e-17
-2.7369e-18
-4.52564e-17
-7.31593e-17
-9.12589e-17
-4.6042e-17
-6.49501e-17
-1.61269e-16
-9.36406e-17
3.021e-17
1.78061e-17
-1.15341e-16
-4.11272e-17
-4.38828e-17
-5.95053e-14
1.31641e-14
-2.89035e-15
8.43144e-16
-1.77296e-17
8.54637e-17
2.64974e-17
1.50432e-16
1.73157e-16
1.82699e-16
1.05099e-16
1.86331e-17
-2.40052e-17
-9.81201e-17
-7.018e-17
3.36624e-17
-1.77067e-17
-8.72404e-17
-1.34206e-16
-1.09075e-16
4.58363e-14
-9.64809e-15
2.24783e-15
-5.16206e-16
1.14806e-16
8.29173e-17
2.31307e-16
2.67497e-16
1.60538e-16
-1.8169e-17
-1.4693e-16
-1.73177e-16
-5e-17
1.07655e-16
7.33183e-17
-2.89724e-18
-2.5569e-17
2.17896e-17
-6.22368e-17
-7.60544e-17
-6.97631e-15
8.80257e-16
-1.48036e-16
3.43611e-17
-4.25436e-17
-8.57434e-17
-7.76545e-17
-1.93916e-16
-2.92211e-16
-3.18012e-16
-2.45541e-16
-1.8883e-16
-1.20952e-16
9.43571e-17
1.3775e-16
-2.5345e-17
-3.6872e-17
-1.19495e-17
-5.00854e-17
-9.64061e-17
-6.26731e-14
1.36914e-14
-3.04805e-15
8.6981e-16
-4.25574e-17
6.14923e-17
-1.38792e-16
-2.5424e-16
-2.1588e-16
1.53307e-17
1.20441e-16
1.03452e-16
2.0785e-17
-6.18032e-17
-1.25006e-17
-3.03936e-17
-5.60687e-17
-6.86062e-17
-1.39549e-16
-1.60587e-16
1.06661e-13
-2.27141e-14
5.36324e-15
-1.10168e-15
2.90566e-16
2.1142e-17
7.31927e-18
-1.56231e-16
-1.60693e-16
-2.91686e-17
-1.12063e-17
2.06151e-17
1.24801e-16
6.71088e-17
-6.79005e-17
-8.42002e-17
-1.11802e-16
-6.49536e-17
8.74387e-18
-3.10244e-17
-6.97196e-14
1.50019e-14
-3.36638e-15
7.94892e-16
-1.0131e-16
1.12999e-16
-8.61753e-19
-1.33451e-16
-2.1113e-16
-3.31576e-16
-2.08809e-16
-3.29705e-17
3.70385e-17
-4.56589e-18
-1.49299e-16
-1.14395e-16
-2.69555e-17
-3.44008e-17
-2.85522e-17
-5.5465e-18
-2.46105e-14
5.74151e-15
-1.00932e-15
4.7175e-16
4.39378e-17
1.0628e-16
1.48981e-16
1.24165e-16
1.78524e-17
-1.36324e-16
-1.45338e-16
-7.22928e-17
-1.3923e-16
-2.15103e-16
-3.02945e-16
-2.48191e-16
-3.78276e-17
7.96211e-17
-9.42259e-18
-5.05308e-18
8.8077e-14
-1.88326e-14
4.45107e-15
-9.85426e-16
7.56913e-17
-2.97803e-16
-2.288e-16
-1.38059e-16
3.2286e-18
4.89411e-17
-1.20001e-18
9.02681e-18
5.39712e-17
-1.50859e-17
-2.03669e-16
-2.57199e-16
-1.47166e-16
-1.00233e-17
6.91708e-17
7.81705e-17
-2.58013e-14
4.89711e-15
-1.46585e-15
5.10329e-17
-1.27719e-16
-1.32556e-16
-2.67328e-16
-1.93041e-16
-2.7339e-17
-5.64661e-17
-7.90274e-17
-1.20977e-16
-8.77939e-17
-6.89723e-17
3.33142e-17
8.12776e-17
7.86071e-18
-1.15054e-16
-8.44126e-17
-7.22484e-19
-8.21672e-14
1.73856e-14
-4.30147e-15
7.79761e-16
-1.83081e-16
1.1976e-16
1.05107e-16
1.0281e-16
5.98886e-17
-2.57235e-17
-8.12887e-17
-1.68583e-16
-2.26185e-16
-1.58296e-16
3.34881e-17
8.77292e-17
3.33974e-17
-5.47735e-17
-8.11409e-17
-4.34026e-17
)
;

boundaryField
{
    movingWall
    {
        type            calculated;
        value           uniform -0;
    }
    fixedWalls
    {
        type            calculated;
        value           uniform -0;
    }
    frontAndBack
    {
        type            empty;
    }
}


// ************************************************************************* //
