/*--------------------------------*- C++ -*----------------------------------*\
| =========                 |                                                 |
| \\      /  F ield         | OpenFOAM: The Open Source CFD Toolbox           |
|  \\    /   O peration     | Version:  2312                                  |
|   \\  /    A nd           | Website:  www.openfoam.com                      |
|    \\/     M anipulation  |                                                 |
\*---------------------------------------------------------------------------*/
FoamFile
{
    version     2.0;
    format      ascii;
    arch        "LSB;label=32;scalar=64";
    class       volVectorField;
    location    "6";
    object      vorticityField;
}
// * * * * * * * * * * * * * * * * * * * * * * * * * * * * * * * * * * * * * //

dimensions      [0 0 -1 0 0 0 0];

internalField   nonuniform List<vector> 
400
(
(0 -0 1.07075e-11)
(0 -0 -1.37315e-11)
(0 -0 2.88537e-12)
(0 -0 -8.12362e-13)
(0 -0 3.43886e-14)
(0 -0 -1.66934e-13)
(0 -0 -9.81245e-14)
(0 -0 -5.6036e-14)
(0 -0 -5.79513e-14)
(0 -0 -5.85808e-14)
(0 -0 -8.69689e-14)
(0 -0 -5.16526e-14)
(0 -0 -4.12907e-14)
(0 -0 -2.4654e-14)
(0 -0 -1.69582e-14)
(0 -0 -9.71966e-15)
(0 -0 1.31151e-14)
(0 -0 7.60496e-15)
(0 -0 -4.83395e-15)
(0 -0 -2.48203e-15)
(0 -0 2.4251e-14)
(0 -0 -1.69091e-12)
(0 -0 4.6245e-13)
(0 -0 -6.741e-14)
(0 -0 9.25288e-14)
(0 -0 1.28027e-13)
(0 -0 6.62627e-14)
(0 -0 4.38295e-14)
(0 -0 5.27091e-14)
(0 -0 6.29378e-14)
(0 -0 8.56682e-14)
(0 -0 6.37157e-14)
(0 -0 7.16669e-14)
(0 -0 8.46377e-14)
(0 -0 3.00558e-14)
(0 -0 -2.55761e-14)
(0 -0 5.65606e-14)
(0 -0 5.13928e-14)
(0 -0 -1.23815e-14)
(0 -0 1.30104e-14)
(0 -0 -6.65299e-12)
(0 -0 1.26737e-11)
(0 -0 -2.98623e-12)
(0 -0 6.68563e-13)
(0 -0 -1.11215e-13)
(0 -0 9.64444e-14)
(0 -0 1.19523e-13)
(0 -0 -1.07892e-14)
(0 -0 -2.07895e-14)
(0 -0 -8.76169e-15)
(0 -0 9.37381e-15)
(0 -0 1.85885e-14)
(0 -0 6.86046e-14)
(0 -0 -5.14127e-14)
(0 -0 -6.3747e-14)
(0 -0 -7.96874e-14)
(0 -0 -8.3906e-14)
(0 -0 -7.30554e-14)
(0 -0 5.9207e-16)
(0 -0 1.08979e-14)
(0 -0 6.48945e-12)
(0 -0 -9.21665e-12)
(0 -0 2.14705e-12)
(0 -0 -4.97757e-13)
(0 -0 3.41217e-14)
(0 -0 -8.19753e-14)
(0 -0 -6.56587e-14)
(0 -0 -5.60744e-14)
(0 -0 -7.17507e-14)
(0 -0 -3.22591e-14)
(0 -0 2.9886e-14)
(0 -0 5.1382e-15)
(0 -0 -7.87363e-14)
(0 -0 -6.98422e-14)
(0 -0 -6.39019e-14)
(0 -0 -1.10332e-14)
(0 -0 -5.1933e-14)
(0 -0 -6.83272e-14)
(0 -0 8.06767e-15)
(0 -0 2.58873e-14)
(0 -0 -3.37731e-12)
(0 -0 1.33231e-12)
(0 -0 -2.71024e-13)
(0 -0 1.44324e-13)
(0 -0 -3.83303e-15)
(0 -0 1.10829e-13)
(0 -0 9.70031e-14)
(0 -0 1.26483e-13)
(0 -0 6.13031e-14)
(0 -0 2.07608e-14)
(0 -0 4.92095e-14)
(0 -0 2.13582e-14)
(0 -0 -8.90519e-15)
(0 -0 2.07501e-14)
(0 -0 -5.90322e-15)
(0 -0 5.00072e-14)
(0 -0 2.66162e-14)
(0 -0 5.25852e-14)
(0 -0 -3.49362e-15)
(0 -0 3.90465e-14)
(0 -0 -4.05048e-12)
(0 -0 6.62193e-12)
(0 -0 -1.58308e-12)
(0 -0 2.79223e-13)
(0 -0 -6.57423e-14)
(0 -0 -4.54537e-14)
(0 -0 -7.40487e-14)
(0 -0 6.07181e-15)
(0 -0 1.43234e-14)
(0 -0 -3.67095e-14)
(0 -0 -1.31772e-13)
(0 -0 -2.30543e-15)
(0 -0 2.3105e-14)
(0 -0 4.53415e-14)
(0 -0 1.64614e-14)
(0 -0 -4.74507e-14)
(0 -0 -3.30849e-14)
(0 -0 9.98139e-16)
(0 -0 -3.07686e-15)
(0 -0 1.44272e-14)
(0 -0 7.47144e-12)
(0 -0 -8.34517e-12)
(0 -0 1.95734e-12)
(0 -0 -4.01687e-13)
(0 -0 1.36616e-13)
(0 -0 -4.66274e-14)
(0 -0 -3.71388e-14)
(0 -0 -6.46274e-14)
(0 -0 8.25021e-14)
(0 -0 1.01355e-13)
(0 -0 9.37139e-14)
(0 -0 7.92567e-14)
(0 -0 1.29051e-13)
(0 -0 9.03522e-14)
(0 -0 7.40186e-14)
(0 -0 1.82025e-14)
(0 -0 -5.51587e-15)
(0 -0 -6.17647e-15)
(0 -0 -9.23005e-16)
(0 -0 -2.49385e-14)
(0 -0 -2.29488e-12)
(0 -0 2.32314e-12)
(0 -0 -3.17055e-13)
(0 -0 2.51072e-13)
(0 -0 6.07704e-14)
(0 -0 3.95115e-14)
(0 -0 3.84677e-14)
(0 -0 5.0903e-14)
(0 -0 9.46816e-14)
(0 -0 4.17724e-14)
(0 -0 -1.54522e-14)
(0 -0 -6.97844e-14)
(0 -0 -5.22418e-14)
(0 -0 3.12485e-15)
(0 -0 1.38599e-14)
(0 -0 1.83808e-14)
(0 -0 9.65107e-14)
(0 -0 5.30683e-14)
(0 -0 -6.81239e-15)
(0 -0 2.33296e-14)
(0 -0 -4.90957e-12)
(0 -0 5.19895e-12)
(0 -0 -1.25766e-12)
(0 -0 2.20932e-13)
(0 -0 -1.30774e-13)
(0 -0 -4.37467e-14)
(0 -0 -6.03326e-14)
(0 -0 -6.50709e-14)
(0 -0 -1.51521e-13)
(0 -0 -8.0723e-14)
(0 -0 -9.10224e-14)
(0 -0 -9.27882e-14)
(0 -0 -1.40131e-13)
(0 -0 -9.02685e-14)
(0 -0 -9.64885e-14)
(0 -0 -9.76576e-15)
(0 -0 -4.63636e-14)
(0 -0 -5.27756e-14)
(0 -0 -4.25333e-16)
(0 -0 -2.49184e-14)
(0 -0 6.76584e-12)
(0 -0 -6.63715e-12)
(0 -0 1.34915e-12)
(0 -0 -5.01863e-13)
(0 -0 -5.96865e-14)
(0 -0 -1.04702e-13)
(0 -0 -8.27217e-14)
(0 -0 -8.31435e-14)
(0 -0 -8.83574e-14)
(0 -0 -5.88104e-14)
(0 -0 -2.43933e-14)
(0 -0 -2.44742e-14)
(0 -0 -3.86278e-14)
(0 -0 -5.70792e-14)
(0 -0 7.3358e-14)
(0 -0 1.11447e-14)
(0 -0 -4.16601e-14)
(0 -0 -5.89333e-15)
(0 -0 7.14579e-15)
(0 -0 3.56061e-14)
(0 -0 -5.0407e-12)
(0 -0 5.76992e-12)
(0 -0 -1.06946e-12)
(0 -0 5.04102e-13)
(0 -0 3.26522e-14)
(0 -0 8.57379e-14)
(0 -0 8.7812e-14)
(0 -0 1.50191e-13)
(0 -0 8.45419e-14)
(0 -0 1.01614e-13)
(0 -0 3.78035e-14)
(0 -0 4.12997e-14)
(0 -0 1.54297e-14)
(0 -0 -4.61748e-15)
(0 -0 -1.39268e-14)
(0 -0 3.23524e-14)
(0 -0 -6.63004e-14)
(0 -0 -1.16499e-14)
(0 -0 -2.1835e-15)
(0 -0 -2.77692e-15)
(0 -0 4.0254e-12)
(0 -0 -4.27753e-12)
(0 -0 1.04871e-12)
(0 -0 -1.04882e-13)
(0 -0 2.49648e-13)
(0 -0 2.01385e-13)
(0 -0 1.53983e-13)
(0 -0 7.42383e-14)
(0 -0 5.27486e-14)
(0 -0 -3.07468e-14)
(0 -0 6.58143e-14)
(0 -0 9.69303e-15)
(0 -0 8.22934e-14)
(0 -0 6.65419e-14)
(0 -0 1.60498e-14)
(0 -0 4.43214e-14)
(0 -0 5.66788e-14)
(0 -0 5.05433e-14)
(0 -0 -9.7844e-15)
(0 -0 4.09342e-14)
(0 -0 -1.01618e-12)
(0 -0 5.47303e-13)
(0 -0 -3.0143e-13)
(0 -0 -2.33396e-13)
(0 -0 -1.47536e-13)
(0 -0 -1.93246e-13)
(0 -0 -1.46343e-13)
(0 -0 -1.84086e-13)
(0 -0 -1.47935e-13)
(0 -0 -1.03753e-13)
(0 -0 -4.12919e-14)
(0 -0 1.24589e-14)
(0 -0 8.25288e-14)
(0 -0 2.58702e-14)
(0 -0 4.22399e-14)
(0 -0 -1.74622e-14)
(0 -0 8.26547e-14)
(0 -0 -5.55314e-14)
(0 -0 -8.44566e-15)
(0 -0 1.46492e-14)
(0 -0 -4.92528e-12)
(0 -0 5.9354e-12)
(0 -0 -1.39058e-12)
(0 -0 3.27654e-13)
(0 -0 -1.35042e-13)
(0 -0 -6.38336e-14)
(0 -0 -3.15732e-14)
(0 -0 1.93963e-14)
(0 -0 1.35377e-13)
(0 -0 1.42052e-13)
(0 -0 8.81214e-15)
(0 -0 -9.96561e-15)
(0 -0 -7.07356e-14)
(0 -0 -3.32856e-15)
(0 -0 -5.10692e-14)
(0 -0 -5.85669e-14)
(0 -0 -5.80314e-14)
(0 -0 -6.25581e-14)
(0 -0 -6.34081e-14)
(0 -0 2.90849e-15)
(0 -0 7.52728e-12)
(0 -0 -9.69605e-12)
(0 -0 2.29677e-12)
(0 -0 -4.25952e-13)
(0 -0 1.66492e-13)
(0 -0 1.07201e-13)
(0 -0 6.35779e-14)
(0 -0 6.45139e-14)
(0 -0 3.98113e-14)
(0 -0 9.62639e-14)
(0 -0 5.91885e-14)
(0 -0 6.78108e-14)
(0 -0 5.88595e-14)
(0 -0 -1.92701e-14)
(0 -0 3.90792e-14)
(0 -0 -4.39011e-15)
(0 -0 -2.51804e-14)
(0 -0 6.62647e-14)
(0 -0 5.7603e-14)
(0 -0 2.93331e-14)
(0 -0 -4.82125e-12)
(0 -0 6.36427e-12)
(0 -0 -1.50201e-12)
(0 -0 3.26507e-13)
(0 -0 -6.81893e-14)
(0 -0 1.00448e-14)
(0 -0 -1.0596e-13)
(0 -0 -1.02342e-13)
(0 -0 -1.01128e-13)
(0 -0 -8.1083e-14)
(0 -0 5.69656e-14)
(0 -0 5.16898e-14)
(0 -0 2.99455e-14)
(0 -0 3.55764e-14)
(0 -0 -1.09829e-14)
(0 -0 6.64444e-14)
(0 -0 7.99938e-15)
(0 -0 -1.59665e-16)
(0 -0 2.88543e-15)
(0 -0 -2.36952e-14)
(0 -0 4.9835e-13)
(0 -0 1.92643e-12)
(0 -0 -3.10136e-13)
(0 -0 1.05326e-13)
(0 -0 -3.6547e-14)
(0 -0 -1.66008e-14)
(0 -0 1.7885e-15)
(0 -0 -6.73229e-14)
(0 -0 -8.0259e-14)
(0 -0 -9.76342e-14)
(0 -0 -7.4912e-14)
(0 -0 -8.07044e-14)
(0 -0 -9.55961e-14)
(0 -0 -9.76867e-14)
(0 -0 -5.7519e-14)
(0 -0 -2.76983e-14)
(0 -0 5.98863e-14)
(0 -0 2.8405e-15)
(0 -0 -8.46742e-15)
(0 -0 1.44757e-15)
(0 -0 2.75026e-12)
(0 -0 -7.35971e-12)
(0 -0 1.62209e-12)
(0 -0 -4.37537e-13)
(0 -0 1.45522e-14)
(0 -0 -8.46592e-14)
(0 -0 1.59744e-14)
(0 -0 5.03079e-14)
(0 -0 4.58051e-14)
(0 -0 2.66622e-14)
(0 -0 -3.10965e-14)
(0 -0 5.51713e-15)
(0 -0 -2.95163e-14)
(0 -0 -5.28691e-14)
(0 -0 -7.84215e-14)
(0 -0 -2.14548e-14)
(0 -0 2.47176e-14)
(0 -0 1.02949e-13)
(0 -0 8.81938e-15)
(0 -0 1.23709e-14)
(0 -0 -1.81937e-12)
(0 -0 2.08118e-12)
(0 -0 -7.28553e-13)
(0 -0 -1.71242e-15)
(0 -0 -1.26779e-13)
(0 -0 -9.52761e-14)
(0 -0 -1.14469e-13)
(0 -0 -3.10611e-15)
(0 -0 -1.34476e-14)
(0 -0 -5.9379e-14)
(0 -0 -3.35561e-14)
(0 -0 -2.79817e-14)
(0 -0 5.20042e-15)
(0 -0 3.92159e-14)
(0 -0 6.92351e-14)
(0 -0 -2.96504e-14)
(0 -0 -4.67382e-14)
(0 -0 -9.05425e-14)
(0 -0 -1.56719e-14)
(0 -0 -1.85915e-14)
(0 -0 -5.01448e-12)
(0 -0 7.56973e-12)
(0 -0 -1.47085e-12)
(0 -0 4.93155e-13)
(0 -0 4.24202e-14)
(0 -0 1.10134e-13)
(0 -0 1.06725e-13)
(0 -0 4.96883e-14)
(0 -0 4.13568e-14)
(0 -0 4.00924e-14)
(0 -0 3.99241e-14)
(0 -0 1.26154e-14)
(0 -0 2.81338e-14)
(0 -0 5.30723e-14)
(0 -0 2.46025e-14)
(0 -0 5.4201e-14)
(0 -0 1.28548e-14)
(0 -0 -1.14538e-14)
(0 -0 2.82421e-14)
(0 -0 3.95594e-14)
)
;

boundaryField
{
    movingWall
    {
        type            calculated;
        value           nonuniform List<vector> 
20
(
(0 -0 -8.96505e-12)
(0 -0 9.03002e-12)
(0 -0 -1.26091e-12)
(0 -0 6.78293e-13)
(0 -0 2.44862e-13)
(0 -0 2.95272e-13)
(0 -0 2.64758e-13)
(0 -0 2.17523e-13)
(0 -0 2.536e-13)
(0 -0 2.96745e-13)
(0 -0 2.07759e-13)
(0 -0 2.51964e-13)
(0 -0 1.34256e-13)
(0 -0 7.03762e-14)
(0 -0 2.46025e-14)
(0 -0 1.33218e-13)
(0 -0 7.45676e-14)
(0 -0 7.7364e-14)
(0 -0 4.5546e-14)
(0 -0 5.68633e-14)
)
;
    }
    fixedWalls
    {
        type            calculated;
        value           nonuniform List<vector> 
60
(
(0 -0 5.76983e-11)
(0 -0 7.67477e-12)
(0 -0 -5.42712e-11)
(0 -0 3.96968e-11)
(0 -0 -5.86074e-12)
(0 -0 -2.87479e-11)
(0 -0 3.59446e-11)
(0 -0 -9.31718e-12)
(0 -0 -2.23485e-11)
(0 -0 2.80425e-11)
(0 -0 -2.42087e-11)
(0 -0 1.87411e-11)
(0 -0 -3.1971e-12)
(0 -0 -2.50964e-11)
(0 -0 4.17968e-11)
(0 -0 -2.72373e-11)
(0 -0 -7.45894e-12)
(0 -0 3.10566e-11)
(0 -0 -1.00495e-11)
(0 -0 -3.14032e-11)
(0 -0 -2.62448e-15)
(0 -0 2.5453e-14)
(0 -0 3.46956e-14)
(0 -0 3.75868e-14)
(0 -0 5.12583e-14)
(0 -0 3.29545e-14)
(0 -0 -2.7782e-14)
(0 -0 2.16902e-14)
(0 -0 -1.54991e-14)
(0 -0 4.46582e-14)
(0 -0 1.65251e-14)
(0 -0 5.75268e-14)
(0 -0 3.85625e-14)
(0 -0 3.71296e-14)
(0 -0 3.95148e-14)
(0 -0 -2.48865e-14)
(0 -0 2.02123e-15)
(0 -0 -4.16316e-15)
(0 -0 -2.68161e-14)
(0 -0 4.44661e-14)
(0 -0 1.80315e-11)
(0 -0 -1.60258e-11)
(0 -0 2.85076e-12)
(0 -0 -9.25986e-13)
(0 -0 -7.92358e-14)
(0 -0 -3.42271e-13)
(0 -0 -2.11749e-13)
(0 -0 -1.79462e-13)
(0 -0 -1.36968e-13)
(0 -0 -9.31885e-14)
(0 -0 -1.38881e-13)
(0 -0 2.55747e-15)
(0 -0 -7.58985e-14)
(0 -0 -4.19578e-14)
(0 -0 7.18597e-14)
(0 -0 -9.71966e-15)
(0 -0 -3.12939e-14)
(0 -0 7.60496e-15)
(0 -0 -4.83395e-15)
(0 -0 -2.48203e-15)
)
;
    }
    frontAndBack
    {
        type            empty;
    }
}


// ************************************************************************* //
