/*--------------------------------*- C++ -*----------------------------------*\
| =========                 |                                                 |
| \\      /  F ield         | OpenFOAM: The Open Source CFD Toolbox           |
|  \\    /   O peration     | Version:  2312                                  |
|   \\  /    A nd           | Website:  www.openfoam.com                      |
|    \\/     M anipulation  |                                                 |
\*---------------------------------------------------------------------------*/
FoamFile
{
    version     2.0;
    format      ascii;
    arch        "LSB;label=32;scalar=64";
    class       volVectorField;
    location    "6";
    object      wallShearStress;
}
// * * * * * * * * * * * * * * * * * * * * * * * * * * * * * * * * * * * * * //

dimensions      [0 2 -2 0 0 0 0];

internalField   uniform (0 0 0);

boundaryField
{
    movingWall
    {
        type            calculated;
        value           uniform (0 0 0);
    }
    fixedWalls
    {
        type            calculated;
        value           nonuniform List<vector> 
60
(
(1.99832e-16 -5.93788e-16 0)
(-3.27689e-16 -1.13069e-16 0)
(4.18487e-17 6.41375e-16 0)
(2.25968e-16 -4.30036e-16 0)
(-2.19694e-16 5.48145e-18 0)
(5.63714e-17 3.28137e-16 0)
(4.49659e-17 -3.52398e-16 0)
(-8.4961e-17 8.23297e-17 0)
(3.76069e-17 2.12101e-16 0)
(-2.23192e-17 -2.51152e-16 0)
(4.31029e-17 2.33955e-16 0)
(-5.83688e-18 -1.79279e-16 0)
(5.82008e-18 2.38395e-17 0)
(1.41775e-17 2.50421e-16 0)
(6.99093e-17 -4.35316e-16 0)
(-1.94688e-16 2.85384e-16 0)
(2.15332e-16 1.22294e-16 0)
(1.93381e-17 -3.9405e-16 0)
(-2.25407e-16 1.05916e-16 0)
(1.05138e-16 3.43306e-16 0)
(3.80476e-20 -2.62448e-20 0)
(1.29161e-18 2.5453e-19 0)
(2.02229e-20 8.89057e-19 0)
(-1.24698e-18 3.75868e-19 0)
(-7.72051e-21 -2.95178e-20 0)
(-4.13837e-20 3.29545e-19 0)
(-6.56068e-19 2.64281e-19 0)
(2.04716e-20 -3.25199e-19 0)
(-5.53839e-19 3.87111e-19 0)
(5.33736e-20 -9.55194e-20 0)
(-5.70671e-19 7.07352e-19 0)
(-6.00565e-19 3.31672e-20 0)
(1.24059e-18 3.85625e-19 0)
(-6.35707e-19 9.13397e-19 0)
(-1.0336e-19 -1.46953e-19 0)
(-1.73142e-20 2.93237e-19 0)
(-6.4793e-19 2.02123e-20 0)
(-5.95006e-19 -5.83733e-19 0)
(8.10487e-20 2.7394e-19 0)
(-6.21536e-19 -9.74403e-20 0)
(-5.06407e-17 -7.87923e-16 0)
(1.17625e-16 1.75656e-16 0)
(-3.02839e-17 -4.25641e-17 0)
(4.81897e-18 8.03647e-18 0)
(-3.64853e-18 -1.76793e-18 0)
(-2.79454e-18 2.39304e-19 0)
(-2.3234e-18 -6.34925e-19 0)
(-1.7581e-18 -3.09798e-19 0)
(-1.29486e-18 -3.56845e-19 0)
(-8.44472e-19 -1.10269e-19 0)
(-1.27573e-18 5.69572e-20 0)
(-2.55747e-20 1.05636e-20 0)
(-1.01737e-18 -7.94414e-20 0)
(-4.686e-19 -6.7847e-19 0)
(1.05776e-18 -5.71567e-19 0)
(9.71966e-20 7.68067e-19 0)
(-5.7524e-19 4.88916e-19 0)
(-7.60496e-20 -4.73504e-19 0)
(4.83395e-20 -9.73819e-20 0)
(2.48203e-20 -3.49931e-20 0)
)
;
    }
    frontAndBack
    {
        type            empty;
    }
}


// ************************************************************************* //
