/*--------------------------------*- C++ -*----------------------------------*\
| =========                 |                                                 |
| \\      /  F ield         | OpenFOAM: The Open Source CFD Toolbox           |
|  \\    /   O peration     | Version:  2312                                  |
|   \\  /    A nd           | Website:  www.openfoam.com                      |
|    \\/     M anipulation  |                                                 |
\*---------------------------------------------------------------------------*/
FoamFile
{
    version     2.0;
    format      ascii;
    arch        "LSB;label=32;scalar=64";
    class       volScalarField;
    location    "6";
    object      yPlus;
}
// * * * * * * * * * * * * * * * * * * * * * * * * * * * * * * * * * * * * * //

dimensions      [0 0 0 0 0 0 0];

internalField   uniform 0;

boundaryField
{
    movingWall
    {
        type            calculated;
        value           nonuniform List<scalar> 
20
(
4.53878e-06
2.10127e-06
1.05071e-06
5.06348e-07
4.46774e-07
4.11343e-07
4.10602e-07
3.75683e-07
4.08907e-07
4.40903e-07
3.7451e-07
4.14468e-07
3.17257e-07
2.19857e-07
9.14988e-08
2.9344e-07
2.36929e-07
2.39113e-07
1.85414e-07
1.7263e-07
)
;
    }
    fixedWalls
    {
        type            calculated;
        value           nonuniform List<scalar> 
60
(
6.06715e-06
2.92454e-06
6.08329e-06
5.1557e-06
2.25274e-06
4.38656e-06
4.71683e-06
2.34673e-06
3.69441e-06
4.07866e-06
3.88755e-06
3.40852e-06
2.01437e-06
3.99149e-06
5.18589e-06
4.25904e-06
2.83401e-06
4.69462e-06
2.88343e-06
4.53878e-06
4.05006e-08
2.40303e-07
1.96533e-07
2.45514e-07
1.22865e-07
1.43515e-07
1.6661e-07
5.81745e-08
1.69375e-07
1.04741e-07
1.97255e-07
1.83422e-07
2.46003e-07
2.20923e-07
8.80688e-08
3.72374e-08
1.66686e-07
1.84243e-07
1.34395e-08
1.7263e-07
6.06715e-06
2.79845e-06
1.36089e-06
6.27313e-07
4.07603e-07
4.41149e-07
3.73321e-07
3.34616e-07
2.89266e-07
2.36117e-07
2.88634e-07
9.46863e-08
2.35873e-07
1.90421e-07
2.37442e-07
1.38067e-07
1.76892e-07
1.17154e-07
6.75631e-08
4.05006e-08
)
;
    }
    frontAndBack
    {
        type            empty;
    }
}


// ************************************************************************* //
