/*--------------------------------*- C++ -*----------------------------------*\
| =========                 |                                                 |
| \\      /  F ield         | OpenFOAM: The Open Source CFD Toolbox           |
|  \\    /   O peration     | Version:  2312                                  |
|   \\  /    A nd           | Website:  www.openfoam.com                      |
|    \\/     M anipulation  |                                                 |
\*---------------------------------------------------------------------------*/
FoamFile
{
    version     2.0;
    format      ascii;
    arch        "LSB;label=32;scalar=64";
    class       volScalarField;
    location    "4.125";
    object      enstrophyField;
}
// * * * * * * * * * * * * * * * * * * * * * * * * * * * * * * * * * * * * * //

dimensions      [0 0 -2 0 0 0 0];

internalField   nonuniform List<scalar> 
400
(
5.17577e-12
7.92116e-12
4.46918e-13
2.53238e-14
1.42269e-15
8.18959e-17
4.4508e-18
2.82911e-19
1.15182e-20
1.52895e-21
5.5832e-27
4.34566e-23
9.32398e-24
6.0599e-24
2.46258e-24
1.03405e-24
3.43434e-25
6.92607e-26
1.07414e-26
1.92446e-27
5.16191e-12
7.91637e-12
4.46545e-13
2.51856e-14
1.42054e-15
8.01118e-17
4.51984e-18
2.54633e-19
1.44264e-20
8.00149e-22
4.85416e-23
2.14294e-24
2.08747e-25
2.91525e-29
1.58907e-26
1.25905e-26
1.97111e-26
2.01959e-26
1.70168e-26
1.49545e-26
5.16483e-12
7.87975e-12
4.43487e-13
2.49572e-14
1.40443e-15
7.90385e-17
4.44688e-18
2.50429e-19
1.40463e-20
8.02988e-22
4.29054e-23
3.03176e-24
1.81208e-26
1.00065e-25
3.81234e-26
5.95645e-26
4.66896e-26
4.9489e-26
6.47215e-26
3.27499e-26
5.19433e-12
7.87171e-12
4.42827e-13
2.49076e-14
1.40096e-15
7.87904e-17
4.43246e-18
2.48977e-19
1.40762e-20
7.74779e-22
4.73148e-23
1.82374e-24
4.23479e-25
4.06768e-26
9.38755e-26
5.8097e-26
5.54404e-26
1.06477e-25
1.03965e-25
5.11467e-26
5.1955e-12
7.85742e-12
4.41884e-13
2.48462e-14
1.39696e-15
7.85485e-17
4.41446e-18
2.48609e-19
1.3891e-20
8.02113e-22
4.00385e-23
3.46502e-24
1.6247e-26
1.04893e-25
5.55113e-26
8.52548e-26
7.94714e-26
8.75278e-26
1.57176e-25
9.30348e-26
5.19517e-12
7.84669e-12
4.41198e-13
2.48026e-14
1.39431e-15
7.83713e-17
4.407e-18
2.47375e-19
1.3984e-20
7.6782e-22
4.79834e-23
1.46024e-24
4.31055e-25
2.89838e-26
1.04664e-25
1.08155e-25
7.86406e-26
1.36345e-25
1.57329e-25
7.53277e-26
5.18352e-12
7.83415e-12
4.40466e-13
2.47603e-14
1.3918e-15
7.82401e-17
4.3963e-18
2.47389e-19
1.38318e-20
7.98047e-22
3.98024e-23
3.62285e-24
1.23576e-28
2.12498e-25
9.73827e-26
8.1316e-26
1.07333e-25
1.20801e-25
1.40926e-25
7.91894e-26
5.17112e-12
7.82441e-12
4.39925e-13
2.47301e-14
1.39019e-15
7.81401e-17
4.39389e-18
2.46582e-19
1.39525e-20
7.63192e-22
4.80383e-23
1.73701e-24
4.48875e-25
8.28723e-26
1.47217e-25
1.64058e-25
1.58543e-25
1.16132e-25
1.49433e-25
7.68327e-26
5.15446e-12
7.81512e-12
4.39429e-13
2.47042e-14
1.38877e-15
7.80801e-17
4.38788e-18
2.47021e-19
1.37908e-20
7.97839e-22
3.97958e-23
3.46269e-24
9.0151e-27
1.17325e-25
7.20705e-26
7.03829e-26
8.04732e-26
1.30425e-25
1.55239e-25
5.80584e-26
5.13846e-12
7.80824e-12
4.39081e-13
2.46866e-14
1.38799e-15
7.80309e-17
4.38857e-18
2.46391e-19
1.39448e-20
7.63151e-22
4.70963e-23
1.69464e-24
3.32184e-25
1.54613e-26
9.73864e-26
4.23592e-26
4.83866e-26
1.01645e-25
1.42901e-25
5.08491e-26
5.12093e-12
7.80226e-12
4.38789e-13
2.46731e-14
1.38735e-15
7.80155e-17
4.38577e-18
2.46854e-19
1.38308e-20
7.92336e-22
4.07551e-23
3.15458e-24
2.11803e-26
1.07733e-25
3.65887e-26
6.11957e-26
4.89286e-26
4.54956e-26
7.99904e-26
2.4208e-26
5.10401e-12
7.7978e-12
4.38586e-13
2.46643e-14
1.38706e-15
7.80017e-17
4.38745e-18
2.4657e-19
1.38994e-20
7.75542e-22
4.51057e-23
2.02259e-24
3.20401e-25
6.26854e-27
4.02934e-26
3.83169e-26
2.65717e-26
3.01694e-26
6.40228e-26
2.03858e-26
5.08741e-12
7.79425e-12
4.38433e-13
2.46587e-14
1.38688e-15
7.80089e-17
4.38694e-18
2.46959e-19
1.38403e-20
7.89157e-22
4.13135e-23
2.91741e-24
4.6944e-26
4.8156e-26
6.50747e-27
1.52972e-26
2.70734e-26
3.23891e-26
5.41508e-26
7.63623e-27
5.07116e-12
7.79129e-12
4.38312e-13
2.46545e-14
1.38683e-15
7.80115e-17
4.38885e-18
2.46799e-19
1.3902e-20
7.75986e-22
4.53808e-23
2.10325e-24
1.73671e-25
5.75329e-29
5.73039e-27
4.06757e-27
8.84948e-27
2.54408e-26
4.53038e-26
2.12534e-27
5.05738e-12
7.78942e-12
4.38245e-13
2.46531e-14
1.38689e-15
7.80264e-17
4.3897e-18
2.47003e-19
1.38929e-20
7.8244e-22
4.31579e-23
2.5987e-24
9.80812e-26
4.9377e-26
3.82202e-27
3.92207e-27
2.83683e-28
1.40916e-26
2.47811e-26
3.95192e-28
5.04331e-12
7.78717e-12
4.38151e-13
2.46498e-14
1.38684e-15
7.80269e-17
4.39088e-18
2.46988e-19
1.39286e-20
7.79162e-22
4.41645e-23
2.32459e-24
1.83511e-25
1.12793e-26
4.06384e-27
2.1967e-29
1.73939e-28
3.94875e-27
6.07766e-27
6.24333e-30
5.03525e-12
7.78692e-12
4.38158e-13
2.46516e-14
1.38701e-15
7.80466e-17
4.39166e-18
2.47134e-19
1.39128e-20
7.80804e-22
4.54466e-23
2.28644e-24
1.29944e-25
1.8582e-26
1.30895e-28
1.17923e-29
2.05463e-29
1.1527e-29
3.57274e-27
2.71959e-29
5.02622e-12
7.78545e-12
4.38098e-13
2.46494e-14
1.38697e-15
7.80478e-17
4.39217e-18
2.47205e-19
1.38987e-20
7.82628e-22
4.34615e-23
2.64791e-24
1.32557e-25
9.01811e-27
3.82766e-27
5.76424e-27
3.23171e-28
1.3142e-29
1.57689e-27
4.03896e-29
5.02603e-12
7.79904e-12
4.39541e-13
2.47689e-14
1.39587e-15
7.86695e-17
4.43406e-18
2.49992e-19
1.4084e-20
7.94749e-22
4.46187e-23
2.48346e-24
1.4176e-25
6.73366e-27
9.47379e-28
2.37481e-30
8.49018e-29
1.61426e-27
1.74087e-27
3.77163e-28
5.06322e-12
7.80934e-12
4.41595e-13
2.49563e-14
1.41028e-15
8.03548e-17
4.50338e-18
2.64526e-19
1.39234e-20
9.69997e-22
3.33001e-23
5.46212e-24
2.6817e-28
6.72639e-26
3.02503e-27
4.30387e-27
1.81107e-28
7.02968e-30
1.61847e-28
7.78009e-28
)
;

boundaryField
{
    movingWall
    {
        type            calculated;
        value           nonuniform List<scalar> 
20
(
5.36362e-12
7.92109e-12
4.52796e-13
2.57752e-14
1.47016e-15
8.53895e-17
4.78526e-18
2.9611e-19
1.46299e-20
1.26138e-21
2.50714e-23
1.05642e-23
1.13168e-25
2.8453e-25
4.72257e-26
1.47567e-26
2.01237e-27
1.15962e-27
3.17639e-27
1.6103e-27
)
;
    }
    fixedWalls
    {
        type            calculated;
        value           nonuniform List<scalar> 
60
(
1.4213e-10
1.41966e-10
1.41538e-10
1.41405e-10
1.41157e-10
1.40972e-10
1.40751e-10
1.40576e-10
1.40408e-10
1.40283e-10
1.40173e-10
1.4009e-10
1.40023e-10
1.39968e-10
1.39932e-10
1.3989e-10
1.39885e-10
1.39855e-10
1.39896e-10
1.4015e-10
1.54088e-27
9.61207e-27
1.28798e-26
1.54432e-26
3.44644e-26
2.35428e-26
2.68254e-26
2.06366e-26
8.26741e-27
6.00482e-27
3.91354e-28
2.4094e-28
2.58044e-27
8.90886e-27
9.62226e-27
9.66869e-27
7.3538e-27
3.88398e-27
4.29383e-27
1.95414e-27
5.23952e-12
7.97084e-12
4.51628e-13
2.58414e-14
1.45036e-15
8.58738e-17
4.4993e-18
3.25015e-19
9.26135e-21
2.60737e-21
4.95359e-23
1.40153e-22
4.43561e-23
2.38719e-23
9.85612e-24
3.801e-24
1.29097e-24
2.7392e-25
2.94979e-26
5.66565e-27
)
;
    }
    frontAndBack
    {
        type            empty;
    }
}


// ************************************************************************* //
