/*--------------------------------*- C++ -*----------------------------------*\
| =========                 |                                                 |
| \\      /  F ield         | OpenFOAM: The Open Source CFD Toolbox           |
|  \\    /   O peration     | Version:  2312                                  |
|   \\  /    A nd           | Website:  www.openfoam.com                      |
|    \\/     M anipulation  |                                                 |
\*---------------------------------------------------------------------------*/
FoamFile
{
    version     2.0;
    format      ascii;
    arch        "LSB;label=32;scalar=64";
    class       volScalarField;
    location    "4.125";
    object      epsilonzeroGrad;
}
// * * * * * * * * * * * * * * * * * * * * * * * * * * * * * * * * * * * * * //

dimensions      [0 2 -3 0 0 0 0];

internalField   nonuniform List<scalar> 
400
(
2.00797e-05
2.00794e-05
2.00793e-05
2.00791e-05
2.00791e-05
2.00789e-05
2.00788e-05
2.00787e-05
2.00786e-05
2.00786e-05
2.00785e-05
2.00785e-05
2.00784e-05
2.00784e-05
2.00784e-05
2.00783e-05
2.00783e-05
2.00783e-05
2.00783e-05
2.00783e-05
2.59295e-05
2.51059e-05
2.51697e-05
2.51963e-05
2.525e-05
2.52778e-05
2.5332e-05
2.53611e-05
2.54156e-05
2.54461e-05
2.5501e-05
2.55329e-05
2.55881e-05
2.56214e-05
2.56769e-05
2.57118e-05
2.57677e-05
2.58039e-05
2.58321e-05
2.58787e-05
3.39705e-05
3.27683e-05
3.28616e-05
3.29005e-05
3.29791e-05
3.30196e-05
3.30987e-05
3.3141e-05
3.32205e-05
3.32647e-05
3.33446e-05
3.33907e-05
3.34709e-05
3.35189e-05
3.35995e-05
3.36495e-05
3.37305e-05
3.37824e-05
3.38233e-05
3.38904e-05
4.08035e-05
3.92515e-05
3.93709e-05
3.94206e-05
3.95212e-05
3.95732e-05
3.96745e-05
3.9729e-05
3.98309e-05
3.98878e-05
3.99903e-05
4.00498e-05
4.01528e-05
4.02149e-05
4.03184e-05
4.03832e-05
4.04873e-05
4.05546e-05
4.06072e-05
4.06938e-05
4.53928e-05
4.35919e-05
4.37294e-05
4.37868e-05
4.39029e-05
4.3963e-05
4.408e-05
4.4143e-05
4.42607e-05
4.43267e-05
4.44451e-05
4.45141e-05
4.46332e-05
4.47053e-05
4.48251e-05
4.49003e-05
4.50208e-05
4.50992e-05
4.51601e-05
4.52606e-05
4.81302e-05
4.61769e-05
4.63256e-05
4.63875e-05
4.65131e-05
4.65782e-05
4.67046e-05
4.67728e-05
4.69001e-05
4.69716e-05
4.70997e-05
4.71746e-05
4.73034e-05
4.73817e-05
4.75114e-05
4.75931e-05
4.77236e-05
4.78087e-05
4.78746e-05
4.79837e-05
4.9708e-05
4.76661e-05
4.78211e-05
4.78858e-05
4.80169e-05
4.80848e-05
4.82167e-05
4.8288e-05
4.84209e-05
4.84956e-05
4.86293e-05
4.87076e-05
4.88421e-05
4.8924e-05
4.90593e-05
4.91448e-05
4.92811e-05
4.93702e-05
4.94391e-05
4.9553e-05
5.06599e-05
4.85643e-05
4.87232e-05
4.87895e-05
4.89238e-05
4.89934e-05
4.91288e-05
4.92018e-05
4.93381e-05
4.94147e-05
4.95519e-05
4.96322e-05
4.97701e-05
4.98542e-05
4.9993e-05
5.00808e-05
5.02206e-05
5.0312e-05
5.03827e-05
5.04997e-05
5.13068e-05
4.91748e-05
4.93364e-05
4.94037e-05
4.95403e-05
4.96111e-05
4.97487e-05
4.9823e-05
4.99616e-05
5.00395e-05
5.0179e-05
5.02607e-05
5.0401e-05
5.04865e-05
5.06277e-05
5.0717e-05
5.08591e-05
5.09522e-05
5.10241e-05
5.11431e-05
5.18221e-05
4.96611e-05
4.98247e-05
4.9893e-05
5.00314e-05
5.01031e-05
5.02425e-05
5.03178e-05
5.04581e-05
5.05371e-05
5.06784e-05
5.07612e-05
5.09034e-05
5.099e-05
5.11331e-05
5.12236e-05
5.13677e-05
5.14621e-05
5.15349e-05
5.16555e-05
5.22961e-05
5.01087e-05
5.02743e-05
5.03433e-05
5.04833e-05
5.05559e-05
5.06969e-05
5.07732e-05
5.09152e-05
5.09952e-05
5.11381e-05
5.12219e-05
5.13658e-05
5.14535e-05
5.15983e-05
5.169e-05
5.18358e-05
5.19313e-05
5.2005e-05
5.21271e-05
5.27793e-05
5.05645e-05
5.07321e-05
5.08019e-05
5.09436e-05
5.1017e-05
5.11597e-05
5.12369e-05
5.13806e-05
5.14615e-05
5.16062e-05
5.16911e-05
5.18366e-05
5.19255e-05
5.2072e-05
5.21648e-05
5.23124e-05
5.24092e-05
5.24838e-05
5.26074e-05
5.33015e-05
5.10575e-05
5.12271e-05
5.12978e-05
5.14413e-05
5.15157e-05
5.16602e-05
5.17384e-05
5.18839e-05
5.19659e-05
5.21124e-05
5.21984e-05
5.23459e-05
5.24359e-05
5.25843e-05
5.26784e-05
5.28279e-05
5.29259e-05
5.30015e-05
5.31268e-05
5.38864e-05
5.16094e-05
5.17813e-05
5.18531e-05
5.19986e-05
5.2074e-05
5.22206e-05
5.22999e-05
5.24475e-05
5.25307e-05
5.26793e-05
5.27665e-05
5.29161e-05
5.30074e-05
5.3158e-05
5.32535e-05
5.34051e-05
5.35046e-05
5.35813e-05
5.37084e-05
5.45559e-05
5.22411e-05
5.24158e-05
5.24887e-05
5.26365e-05
5.27131e-05
5.2862e-05
5.29426e-05
5.30926e-05
5.31772e-05
5.33282e-05
5.34169e-05
5.35688e-05
5.36617e-05
5.38147e-05
5.39118e-05
5.40659e-05
5.41672e-05
5.42451e-05
5.43743e-05
5.53327e-05
5.29737e-05
5.31515e-05
5.32257e-05
5.33762e-05
5.34543e-05
5.3606e-05
5.3688e-05
5.38408e-05
5.3927e-05
5.40807e-05
5.41711e-05
5.43259e-05
5.44206e-05
5.45764e-05
5.46754e-05
5.48323e-05
5.49355e-05
5.50149e-05
5.51466e-05
5.62266e-05
5.38168e-05
5.39982e-05
5.4074e-05
5.42276e-05
5.43073e-05
5.44621e-05
5.45459e-05
5.47018e-05
5.47898e-05
5.49468e-05
5.50391e-05
5.51972e-05
5.52939e-05
5.5453e-05
5.55541e-05
5.57144e-05
5.58199e-05
5.59009e-05
5.60354e-05
5.71943e-05
5.47305e-05
5.49158e-05
5.49931e-05
5.51499e-05
5.52314e-05
5.53894e-05
5.54751e-05
5.56343e-05
5.57244e-05
5.58847e-05
5.59792e-05
5.61406e-05
5.62397e-05
5.64022e-05
5.65058e-05
5.66696e-05
5.67776e-05
5.68604e-05
5.6998e-05
5.80753e-05
5.56193e-05
5.57999e-05
5.58754e-05
5.60293e-05
5.61096e-05
5.62651e-05
5.63504e-05
5.65075e-05
5.65978e-05
5.67567e-05
5.68522e-05
5.70126e-05
5.71135e-05
5.72756e-05
5.73819e-05
5.75459e-05
5.76575e-05
5.77408e-05
5.78808e-05
5.84324e-05
5.84317e-05
5.84314e-05
5.84307e-05
5.84307e-05
5.84299e-05
5.84301e-05
5.84294e-05
5.84297e-05
5.8429e-05
5.84294e-05
5.84288e-05
5.84291e-05
5.84287e-05
5.84289e-05
5.84287e-05
5.84288e-05
5.84287e-05
5.84287e-05
5.84287e-05
)
;

boundaryField
{
    movingWall
    {
        type            zeroGradient;
    }
    fixedWalls
    {
        type            zeroGradient;
    }
    frontAndBack
    {
        type            empty;
    }
}


// ************************************************************************* //
