/*--------------------------------*- C++ -*----------------------------------*\
| =========                 |                                                 |
| \\      /  F ield         | OpenFOAM: The Open Source CFD Toolbox           |
|  \\    /   O peration     | Version:  2312                                  |
|   \\  /    A nd           | Website:  www.openfoam.com                      |
|    \\/     M anipulation  |                                                 |
\*---------------------------------------------------------------------------*/
FoamFile
{
    version     2.0;
    format      ascii;
    arch        "LSB;label=32;scalar=64";
    class       volScalarField;
    location    "4.125";
    object      flowTypeField;
}
// * * * * * * * * * * * * * * * * * * * * * * * * * * * * * * * * * * * * * //

dimensions      [0 0 0 0 0 0 0];

internalField   nonuniform List<scalar> 
400
(
-0.0011062
-0.000943827
-0.00158457
-0.00370065
-0.00270634
-0.0110807
0.0049158
-0.0491025
0.0998406
-0.317557
0.989172
-0.207887
0.168208
0.0530617
0.108753
0.11319
0.177918
0.297599
0.408805
0.316543
-0.000240694
-0.000903869
-0.00133091
-0.00351801
-0.00308612
-0.00831302
-0.00333088
-0.0218157
0.0130117
-0.0767385
0.17013
0.352432
0.708992
0.993297
0.827325
0.795178
0.672524
0.537552
0.398955
0.0112127
-0.00206491
-0.000481204
-0.000654966
-0.000568146
-0.00155496
0.000880019
-0.00629896
0.0116772
-0.0368773
0.0842477
-0.220076
0.444597
0.87705
0.692094
0.725012
0.571169
0.50756
0.376487
0.096561
0.00617054
-0.00595606
-0.00109118
-0.00176223
-0.00188922
-0.00206969
-0.00415317
0.000160481
-0.0157113
0.0257192
-0.110324
0.203244
0.0655003
0.573052
0.756636
0.579984
0.565045
0.47077
0.197949
0.0975267
0.000696518
-0.00702448
-0.00125094
-0.00211257
-0.00209716
-0.00281294
-0.00289951
-0.00598962
0.00271137
-0.0318184
0.0658486
-0.344782
0.375389
0.848133
0.651589
0.638903
0.470136
0.353348
0.269143
0.0106812
-0.12875
-0.00770386
-0.00131866
-0.00235488
-0.00218679
-0.00295838
-0.00389363
-0.00285395
-0.0101779
0.0117549
-0.072338
0.155387
-0.182081
0.519511
0.758833
0.515861
0.370049
0.36218
0.0992388
0.048635
0.0674223
-0.00725674
-0.00120722
-0.00219314
-0.00199786
-0.0027015
-0.00325397
-0.00410752
-0.00165566
-0.0165788
0.0347682
-0.151044
0.289066
0.980797
0.453476
0.473687
0.434185
0.231061
0.143296
0.0962736
0.0639143
-0.00654311
-0.00105231
-0.00197479
-0.0016812
-0.00243877
-0.0028227
-0.00286002
-0.00507863
0.00198831
-0.0276986
0.0863221
0.057124
0.440846
0.542484
0.360472
0.171417
0.0290727
0.12187
0.0596783
0.00341479
-0.005319
-0.000814646
-0.00157246
-0.001271
-0.00181254
-0.00218
-0.00201811
-0.00245422
-0.00432239
0.00930527
-0.0197681
0.198049
0.85378
0.530612
0.497791
0.423268
0.234436
0.0373544
0.00890998
0.016013
-0.00399725
-0.000564102
-0.00116059
-0.000803147
-0.00131557
-0.00127262
-0.00144187
-0.00113801
-0.00187874
0.000907758
0.0291514
0.210706
0.417663
0.762547
0.422813
0.482164
0.353078
0.112314
-0.0281442
-0.0902937
-0.00244091
-0.000278071
-0.000663691
-0.000313775
-0.000581009
-0.000572964
6.44066e-05
-0.00100044
0.0025384
-0.00385901
0.0426249
0.0982048
0.770329
0.495954
0.596316
0.316445
0.321892
0.284971
0.0781342
0.129242
-0.000847873
6.13622e-06
-0.000169184
0.000182969
3.72866e-05
0.000410048
0.00044009
0.00205795
-0.00145172
0.0149555
-0.00829652
0.234486
0.31579
0.825785
0.540865
0.395066
0.384023
0.24236
0.087038
0.0440555
0.000769122
0.000288597
0.000332595
0.00065503
0.000736882
0.00106365
0.00205335
0.000635092
0.0092336
-0.013987
0.0878383
-0.0263671
0.695898
0.533437
0.775095
0.533934
0.258415
0.18635
-0.000836583
0.113687
0.00238362
0.000561204
0.000829522
0.00110393
0.00134961
0.00201113
0.00202219
0.0052109
-0.0023313
0.0309552
-0.0670383
0.27165
0.266197
0.977511
0.74835
0.740615
0.455962
0.114814
-0.122181
0.0305675
0.00378985
0.000793832
0.00125131
0.00147665
0.00191989
0.00237238
0.00385867
0.00156895
0.0143218
-0.0213935
0.100016
-0.216185
0.56737
0.451021
0.759967
0.685822
0.866142
0.204653
0.00544335
0.252432
0.00520746
0.0010209
0.00168192
0.00184876
0.00237662
0.003438
0.00280507
0.00857507
-0.00554967
0.0432716
-0.102962
0.26319
0.00630619
0.677986
0.694631
0.958466
0.878416
0.3671
0.22275
0.296583
0.0060678
0.00115452
0.00193516
0.00201117
0.00282554
0.00293587
0.00553164
0.00075323
0.018808
-0.0293781
0.0947208
-0.376762
0.476467
0.420787
0.914716
0.95384
0.939637
0.932396
0.0276676
0.1911
0.00696657
0.00126418
0.00218839
0.00243567
0.00288374
0.00488588
0.00322809
0.0114454
-0.00378753
0.0444374
-0.0809262
0.207261
-0.251183
0.644326
0.537223
0.436162
0.552153
0.890692
0.162028
0.725129
0.00707945
0.000587211
0.000886024
-0.000413384
-0.000421013
-0.00209595
-0.00099428
-0.00760178
0.00507615
-0.0320769
0.0625898
-0.150691
0.380422
0.499454
0.671377
0.958309
0.753663
0.273059
-0.148914
0.327927
0.00322456
-7.24562e-05
-0.00031782
-0.00167908
-0.0018688
-0.00496641
-0.00139206
-0.0168505
0.0170756
-0.0760598
0.152689
-0.284372
0.959596
-0.0443865
0.490118
0.0689438
0.39326
0.805067
0.489665
0.21267
)
;

boundaryField
{
    movingWall
    {
        type            calculated;
        value           nonuniform List<scalar> 
20
(
0.758907
0.265924
0.262
0.259226
0.256644
0.248
0.252073
0.222668
0.2716
0.122044
0.465364
-0.284184
0.609365
-0.232365
0.172006
-0.0304618
-0.0148643
0.0733915
0.145106
0.108599
)
;
    }
    fixedWalls
    {
        type            calculated;
        value           nonuniform List<scalar> 
60
(
-0.000210002
-4.64633e-05
-0.000394523
-0.0011363
-0.00133585
-0.0014533
-0.00134998
-0.0011904
-0.000932327
-0.000657915
-0.00034314
-3.00605e-05
0.000280054
0.00057949
0.000832258
0.00108146
0.00122098
0.00137065
0.00137144
0.000624973
0.31966
0.157443
0.00165641
0.00229527
-0.218383
0.159161
0.105107
0.0124626
0.0259649
-0.110311
0.498175
0.381927
0.363733
0.00768506
0.0463937
0.000489102
0.00119548
0.27612
0.108717
0.108283
0.762746
0.267354
0.265893
0.261118
0.263086
0.247185
0.272577
0.188341
0.406855
-0.167375
0.547293
-0.173708
0.069615
-0.0115178
0.021574
0.0151191
0.037874
0.0824148
0.211834
0.0214165
)
;
    }
    frontAndBack
    {
        type            empty;
    }
}


// ************************************************************************* //
