/*--------------------------------*- C++ -*----------------------------------*\
| =========                 |                                                 |
| \\      /  F ield         | OpenFOAM: The Open Source CFD Toolbox           |
|  \\    /   O peration     | Version:  2312                                  |
|   \\  /    A nd           | Website:  www.openfoam.com                      |
|    \\/     M anipulation  |                                                 |
\*---------------------------------------------------------------------------*/
FoamFile
{
    version     2.0;
    format      ascii;
    arch        "LSB;label=32;scalar=64";
    class       surfaceScalarField;
    location    "4.125";
    object      fluxField;
}
// * * * * * * * * * * * * * * * * * * * * * * * * * * * * * * * * * * * * * //

dimensions      [0 3 -1 0 0 0 0];

oriented        oriented;

internalField   nonuniform List<scalar> 
760
(
-5e-05
4.35514e-16
-5e-05
-4.92101e-17
-5e-05
1.74398e-16
-5e-05
-1.1882e-17
-5e-05
3.25201e-17
-5e-05
2.11779e-18
-5e-05
6.70823e-18
-5e-05
2.18269e-18
-5e-05
2.05654e-18
-5e-05
1.17182e-18
-5e-05
8.75665e-19
-5e-05
5.9981e-19
-5e-05
4.44901e-19
-5e-05
3.27699e-19
-5e-05
2.43504e-19
-5e-05
1.75547e-19
-5e-05
1.22138e-19
-5e-05
8.13457e-20
-5e-05
4.66101e-20
1.21353e-20
-5e-05
-1.95767e-15
-5e-05
7.18714e-16
-5e-05
-7.46157e-17
-5e-05
6.84058e-17
-5e-05
1.53784e-17
-5e-05
1.30568e-17
-5e-05
7.77436e-18
-5e-05
4.80357e-18
-5e-05
3.33084e-18
-5e-05
2.22785e-18
-5e-05
1.59194e-18
-5e-05
1.13853e-18
-5e-05
8.36596e-19
-5e-05
6.18012e-19
-5e-05
4.58573e-19
-5e-05
3.35006e-19
-5e-05
2.37746e-19
-5e-05
1.61539e-19
-5e-05
8.8521e-20
1.86968e-20
-5e-05
1.26948e-15
-5e-05
-4.49621e-16
-5e-05
1.59246e-16
-5e-05
-1.41744e-17
-5e-05
3.01967e-17
-5e-05
9.07413e-18
-5e-05
9.47652e-18
-5e-05
5.50623e-18
-5e-05
4.13825e-18
-5e-05
2.85275e-18
-5e-05
2.09046e-18
-5e-05
1.53049e-18
-5e-05
1.13916e-18
-5e-05
8.46562e-19
-5e-05
6.30752e-19
-5e-05
4.65916e-19
-5e-05
3.37273e-19
-5e-05
2.31735e-19
-5e-05
1.22925e-19
2.10152e-20
-5e-05
-1.13662e-15
-5e-05
3.74165e-16
-5e-05
-7.4655e-17
-5e-05
4.08143e-17
-5e-05
6.28987e-18
-5e-05
1.19162e-17
-5e-05
7.25522e-18
-5e-05
5.80205e-18
-5e-05
4.18042e-18
-5e-05
3.11961e-18
-5e-05
2.32104e-18
-5e-05
1.74574e-18
-5e-05
1.32045e-18
-5e-05
9.98302e-19
-5e-05
7.55168e-19
-5e-05
5.62731e-19
-5e-05
4.10864e-19
-5e-05
2.84947e-19
-5e-05
1.5024e-19
2.40049e-20
-5e-05
8.26067e-16
-5e-05
-2.5015e-16
-5e-05
6.94207e-17
-5e-05
-8.3308e-18
-5e-05
1.35889e-17
-5e-05
6.59891e-18
-5e-05
6.70584e-18
-5e-05
4.96355e-18
-5e-05
3.95695e-18
-5e-05
3.03539e-18
-5e-05
2.34466e-18
-5e-05
1.80026e-18
-5e-05
1.38871e-18
-5e-05
1.0711e-18
-5e-05
8.20987e-19
-5e-05
6.15917e-19
-5e-05
4.52404e-19
-5e-05
3.15457e-19
-5e-05
1.69822e-19
2.82769e-20
-5e-05
-7.36887e-16
-5e-05
1.76491e-16
-5e-05
-3.59541e-17
-5e-05
1.5476e-17
-5e-05
4.05278e-18
-5e-05
6.23059e-18
-5e-05
4.93269e-18
-5e-05
4.23106e-18
-5e-05
3.43678e-18
-5e-05
2.76967e-18
-5e-05
2.20226e-18
-5e-05
1.73799e-18
-5e-05
1.36702e-18
-5e-05
1.06934e-18
-5e-05
8.2536e-19
-5e-05
6.27784e-19
-5e-05
4.65967e-19
-5e-05
3.24716e-19
-5e-05
1.78654e-19
3.14268e-20
-5e-05
5.14034e-16
-5e-05
-9.94344e-17
-5e-05
2.53817e-17
-5e-05
-1.0321e-18
-5e-05
4.94222e-18
-5e-05
3.99623e-18
-5e-05
3.83779e-18
-5e-05
3.35913e-18
-5e-05
2.85262e-18
-5e-05
2.37859e-18
-5e-05
1.94768e-18
-5e-05
1.58268e-18
-5e-05
1.27314e-18
-5e-05
1.01092e-18
-5e-05
7.91539e-19
-5e-05
6.0908e-19
-5e-05
4.52649e-19
-5e-05
3.18593e-19
-5e-05
1.75401e-19
2.88681e-20
-5e-05
-3.87278e-16
-5e-05
4.54891e-17
-5e-05
-7.19469e-18
-5e-05
2.06764e-18
-5e-05
3.34033e-18
-5e-05
2.62534e-18
-5e-05
2.89488e-18
-5e-05
2.51857e-18
-5e-05
2.26424e-18
-5e-05
1.93038e-18
-5e-05
1.63165e-18
-5e-05
1.3579e-18
-5e-05
1.12123e-18
-5e-05
9.10649e-19
-5e-05
7.2894e-19
-5e-05
5.64883e-19
-5e-05
4.24177e-19
-5e-05
3.03483e-19
-5e-05
1.62456e-19
2.07341e-20
-5e-05
2.11282e-16
-5e-05
2.83076e-18
-5e-05
-2.01972e-18
-5e-05
4.3648e-18
-5e-05
3.22432e-19
-5e-05
2.30012e-18
-5e-05
1.75824e-18
-5e-05
1.87658e-18
-5e-05
1.66268e-18
-5e-05
1.48964e-18
-5e-05
1.28732e-18
-5e-05
1.10393e-18
-5e-05
9.33817e-19
-5e-05
7.77878e-19
-5e-05
6.33228e-19
-5e-05
4.98092e-19
-5e-05
3.8535e-19
-5e-05
2.79368e-19
-5e-05
1.44947e-19
1.3192e-20
-5e-05
-1.04276e-16
-5e-05
-4.0101e-17
-5e-05
1.1923e-17
-5e-05
-5.52033e-18
-5e-05
2.99819e-18
-5e-05
4.09756e-19
-5e-05
1.37568e-18
-5e-05
1.11608e-18
-5e-05
1.15662e-18
-5e-05
1.04682e-18
-5e-05
9.51282e-19
-5e-05
8.43694e-19
-5e-05
7.36147e-19
-5e-05
6.3039e-19
-5e-05
5.21929e-19
-5e-05
4.18548e-19
-5e-05
3.2782e-19
-5e-05
2.42243e-19
-5e-05
1.26137e-19
8.59784e-21
-5e-05
-5.71809e-18
-5e-05
6.72579e-17
-5e-05
-1.85047e-17
-5e-05
7.65444e-18
-5e-05
-2.37673e-18
-5e-05
1.09467e-18
-5e-05
2.47076e-19
-5e-05
6.5481e-19
-5e-05
6.13523e-19
-5e-05
6.53474e-19
-5e-05
6.29457e-19
-5e-05
5.90269e-19
-5e-05
5.38202e-19
-5e-05
4.75479e-19
-5e-05
4.07717e-19
-5e-05
3.36881e-19
-5e-05
2.64601e-19
-5e-05
2.01044e-19
-5e-05
1.07451e-19
4.81461e-21
-5e-05
7.45597e-17
-5e-05
-8.59374e-17
-5e-05
2.19864e-17
-5e-05
-9.42811e-18
-5e-05
2.34118e-18
-5e-05
-1.12902e-18
-5e-05
1.30234e-19
-5e-05
-4.04605e-20
-5e-05
1.8826e-19
-5e-05
2.57074e-19
-5e-05
3.25827e-19
-5e-05
3.44802e-19
-5e-05
3.4673e-19
-5e-05
3.22923e-19
-5e-05
2.95362e-19
-5e-05
2.57314e-19
-5e-05
2.09532e-19
-5e-05
1.61837e-19
-5e-05
8.44933e-20
-3.11796e-21
-5e-05
-1.17273e-16
-5e-05
9.43968e-17
-5e-05
-2.58717e-17
-5e-05
8.13163e-18
-5e-05
-4.15478e-18
-5e-05
-1.42396e-19
-5e-05
-1.00606e-18
-5e-05
-4.05103e-19
-5e-05
-2.83672e-19
-5e-05
-7.74933e-20
-5e-05
3.96764e-20
-5e-05
1.24978e-19
-5e-05
1.72152e-19
-5e-05
1.89767e-19
-5e-05
1.92116e-19
-5e-05
1.81916e-19
-5e-05
1.5972e-19
-5e-05
1.24364e-19
-5e-05
6.00274e-20
-1.28326e-20
-5e-05
1.51194e-16
-5e-05
-9.54437e-17
-5e-05
2.25246e-17
-5e-05
-1.08703e-17
-5e-05
6.2671e-19
-5e-05
-2.52503e-18
-5e-05
-1.12178e-18
-5e-05
-1.04416e-18
-5e-05
-6.25213e-19
-5e-05
-3.86994e-19
-5e-05
-1.91744e-19
-5e-05
-5.98102e-20
-5e-05
2.88814e-20
-5e-05
7.9759e-20
-5e-05
1.02078e-19
-5e-05
1.12453e-19
-5e-05
1.11598e-19
-5e-05
9.35674e-20
-5e-05
4.03407e-20
-1.7013e-20
-5e-05
-1.32057e-16
-5e-05
8.5759e-17
-5e-05
-2.64945e-17
-5e-05
4.83543e-18
-5e-05
-5.92268e-18
-5e-05
-1.84688e-18
-5e-05
-2.23983e-18
-5e-05
-1.35039e-18
-5e-05
-9.91797e-19
-5e-05
-6.17845e-19
-5e-05
-3.75566e-19
-5e-05
-1.9754e-19
-5e-05
-8.12012e-20
-5e-05
-7.87757e-21
-5e-05
3.36389e-20
-5e-05
5.61467e-20
-5e-05
6.73643e-20
-5e-05
6.58577e-20
-5e-05
2.35065e-20
-1.73615e-20
-5e-05
1.56355e-16
-5e-05
-7.8672e-17
-5e-05
1.22216e-17
-5e-05
-1.16437e-17
-5e-05
-3.1738e-18
-5e-05
-4.00954e-18
-5e-05
-2.44957e-18
-5e-05
-1.78891e-18
-5e-05
-1.18017e-18
-5e-05
-7.75803e-19
-5e-05
-4.7905e-19
-5e-05
-2.7438e-19
-5e-05
-1.42571e-19
-5e-05
-6.12181e-20
-5e-05
-1.09158e-20
-5e-05
1.51562e-20
-5e-05
3.01848e-20
-5e-05
3.92009e-20
-5e-05
1.35437e-20
-1.62709e-20
-5e-05
-7.45226e-17
-5e-05
4.672e-17
-5e-05
-3.46272e-17
-5e-05
-1.83791e-18
-5e-05
-9.73471e-18
-5e-05
-3.27916e-18
-5e-05
-3.23164e-18
-5e-05
-1.743e-18
-5e-05
-1.26162e-18
-5e-05
-7.73265e-19
-5e-05
-4.97923e-19
-5e-05
-2.86949e-19
-5e-05
-1.59059e-19
-5e-05
-7.81598e-20
-5e-05
-3.1378e-20
-5e-05
-7.89708e-21
-5e-05
8.32781e-21
-5e-05
2.03901e-20
-5e-05
8.40915e-21
-1.47823e-20
-5e-05
1.82799e-16
-5e-05
-8.52921e-17
-5e-05
-3.3216e-17
-5e-05
-1.20464e-18
-5e-05
-1.26315e-17
-5e-05
-1.84228e-18
-5e-05
-3.48472e-18
-5e-05
-1.29135e-18
-5e-05
-1.12532e-18
-5e-05
-6.07842e-19
-5e-05
-4.15574e-19
-5e-05
-2.38201e-19
-5e-05
-1.39925e-19
-5e-05
-7.11775e-20
-5e-05
-3.37189e-20
-5e-05
-1.44064e-20
-5e-05
9.69625e-22
-5e-05
9.02052e-21
-5e-05
1.59884e-21
-1.29944e-20
-5e-05
-1.82598e-16
-5e-05
3.17218e-16
-5e-05
-1.66841e-16
-5e-05
5.2702e-17
-5e-05
-2.80212e-17
-5e-05
5.04406e-18
-5e-05
-4.17105e-18
-5e-05
-1.08379e-19
-5e-05
-8.39568e-19
-5e-05
-2.81811e-19
-5e-05
-2.49365e-19
-5e-05
-1.29801e-19
-5e-05
-8.18774e-20
-5e-05
-4.31319e-20
-5e-05
-2.59708e-20
-5e-05
-1.28041e-20
-5e-05
-2.23144e-21
-5e-05
2.24865e-21
-5e-05
-1.94653e-21
-8.00505e-21
-5e-05
-5e-05
-5e-05
-5e-05
-5e-05
-5e-05
-5e-05
-5e-05
-5e-05
-5e-05
-5e-05
-5e-05
-5e-05
-5e-05
-5e-05
-5e-05
-5e-05
-5e-05
-5e-05
)
;

boundaryField
{
    movingWall
    {
        type            calculated;
        value           uniform -0;
    }
    fixedWalls
    {
        type            calculated;
        value           nonuniform List<scalar> 
60
(
5e-05
5e-05
5e-05
5e-05
5e-05
5e-05
5e-05
5e-05
5e-05
5e-05
5e-05
5e-05
5e-05
5e-05
5e-05
5e-05
5e-05
5e-05
5e-05
5e-05
-5e-05
-5e-05
-5e-05
-5e-05
-5e-05
-5e-05
-5e-05
-5e-05
-5e-05
-5e-05
-5e-05
-5e-05
-5e-05
-5e-05
-5e-05
-5e-05
-5e-05
-5e-05
-5e-05
-5e-05
0
0
0
0
0
0
0
0
0
0
0
0
0
0
0
0
0
0
0
0
)
;
    }
    frontAndBack
    {
        type            empty;
        value           nonuniform List<scalar> 0();
    }
}


// ************************************************************************* //
