/*--------------------------------*- C++ -*----------------------------------*\
| =========                 |                                                 |
| \\      /  F ield         | OpenFOAM: The Open Source CFD Toolbox           |
|  \\    /   O peration     | Version:  2312                                  |
|   \\  /    A nd           | Website:  www.openfoam.com                      |
|    \\/     M anipulation  |                                                 |
\*---------------------------------------------------------------------------*/
FoamFile
{
    version     2.0;
    format      ascii;
    arch        "LSB;label=32;scalar=64";
    class       volTensorField;
    location    "4.125";
    object      gradU;
}
// * * * * * * * * * * * * * * * * * * * * * * * * * * * * * * * * * * * * * //

dimensions      [0 0 -1 0 0 0 0];

internalField   nonuniform List<tensor> 
400
(
(-1.77297e-09 3.21383e-06 0 -3.5561e-09 1.74206e-09 0 0 0 0)
(4.20947e-09 -3.97649e-06 0 3.75535e-09 -1.9684e-10 0 0 0 0)
(-3.27348e-09 9.43927e-07 0 -1.50167e-09 6.97591e-10 0 0 0 0)
(1.45164e-09 -2.24216e-07 0 8.34483e-10 -4.75278e-11 0 0 0 0)
(-6.68655e-10 5.31938e-08 0 -1.48346e-10 1.30081e-10 0 0 0 0)
(1.65368e-10 -1.26568e-08 0 1.41353e-10 8.47117e-12 0 0 0 0)
(-8.97719e-11 2.99684e-09 0 1.32815e-11 2.68329e-11 0 0 0 0)
(8.67362e-12 -7.16894e-10 0 3.53179e-11 8.73077e-12 0 0 0 0)
(-1.46096e-11 1.67851e-10 0 1.60733e-11 8.22618e-12 0 0 0 0)
(-3.2255e-12 -4.13933e-11 0 1.39049e-11 4.68727e-12 0 0 0 0)
(-4.20128e-12 8.92031e-12 0 9.02598e-12 3.50266e-12 0 0 0 0)
(-2.30393e-12 -2.7091e-12 0 6.61363e-12 2.39924e-12 0 0 0 0)
(-1.87025e-12 2.62425e-13 0 4.58075e-12 1.7796e-12 0 0 0 0)
(-1.35525e-12 -3.37164e-13 0 3.14419e-12 1.3108e-12 0 0 0 0)
(-9.75782e-13 -1.32181e-13 0 2.08709e-12 9.74017e-13 0 0 0 0)
(-6.77626e-13 -1.37045e-13 0 1.30104e-12 7.02186e-13 0 0 0 0)
(-5.14996e-13 -9.6938e-14 0 7.31836e-13 4.88552e-13 0 0 0 0)
(-3.25261e-13 -7.4029e-14 0 2.98156e-13 3.25383e-13 0 0 0 0)
(-1.6263e-13 -6.52547e-14 0 8.13152e-14 1.8644e-13 0 0 0 0)
(-5.42101e-14 -6.20397e-14 0 0 4.85412e-14 0 0 0 0)
(1.97233e-09 -3.21228e-06 0 7.88052e-10 -9.57273e-09 0 0 0 0)
(-2.1551e-09 3.97544e-06 0 -3.59505e-09 3.0717e-09 0 0 0 0)
(3.52583e-10 -9.43778e-07 0 1.25667e-09 -9.96053e-10 0 0 0 0)
(-9.83371e-11 2.23648e-07 0 -7.87049e-10 3.21151e-10 0 0 0 0)
(-2.44488e-11 -5.31378e-08 0 1.6404e-10 -6.8567e-11 0 0 0 0)
(-3.7405e-12 1.25535e-08 0 -1.04436e-10 4.37561e-11 0 0 0 0)
(-1.62901e-11 -2.99658e-09 0 1.00289e-11 4.26454e-12 0 0 0 0)
(-5.85469e-12 6.98287e-10 0 -1.53415e-11 1.04835e-11 0 0 0 0)
(-6.77626e-12 -1.71894e-10 0 -2.03288e-12 5.09717e-12 0 0 0 0)
(-3.84892e-12 3.66698e-11 0 -3.33392e-12 4.22413e-12 0 0 0 0)
(-3.06287e-12 -1.12083e-11 0 -1.35525e-12 2.86509e-12 0 0 0 0)
(-2.1684e-12 9.86037e-13 0 -1.0842e-12 2.15488e-12 0 0 0 0)
(-1.6263e-12 -1.35087e-12 0 -7.04731e-13 1.56678e-12 0 0 0 0)
(-1.13841e-12 -4.68422e-13 0 -4.60786e-13 1.16125e-12 0 0 0 0)
(-8.67362e-13 -4.76429e-13 0 -2.98156e-13 8.60273e-13 0 0 0 0)
(-6.50521e-13 -3.4842e-13 0 -1.89735e-13 6.37836e-13 0 0 0 0)
(-4.87891e-13 -2.79866e-13 0 -8.13152e-14 4.62432e-13 0 0 0 0)
(-2.98156e-13 -2.28082e-13 0 -2.71051e-14 3.20773e-13 0 0 0 0)
(-1.89735e-13 -2.11587e-13 0 -2.71051e-14 1.67644e-13 0 0 0 0)
(0 -1.72942e-13 0 0 2.6246e-14 0 0 0 0)
(-4.57997e-09 3.20733e-06 0 -6.6522e-09 1.29086e-08 0 0 0 0)
(4.67806e-09 -3.96791e-06 0 1.91489e-09 -4.67334e-09 0 0 0 0)
(-4.65475e-10 9.41176e-07 0 -6.17019e-10 9.35445e-10 0 0 0 0)
(3.58979e-10 -2.23288e-07 0 1.27394e-10 -3.30321e-10 0 0 0 0)
(1.39591e-11 5.29164e-08 0 -8.2318e-11 5.92731e-11 0 0 0 0)
(1.14112e-11 -1.25839e-08 0 -1.10589e-11 -1.59307e-11 0 0 0 0)
(-6.77626e-13 2.96356e-09 0 -1.86754e-11 6.80861e-12 0 0 0 0)
(-3.38813e-12 -7.16061e-10 0 -8.34836e-12 2.81066e-12 0 0 0 0)
(-2.6563e-12 1.61591e-10 0 -6.01732e-12 3.22966e-12 0 0 0 0)
(-2.57498e-12 -4.36254e-11 0 -3.55076e-12 2.49962e-12 0 0 0 0)
(-1.92446e-12 6.85106e-12 0 -2.41235e-12 1.99407e-12 0 0 0 0)
(-1.6263e-12 -4.00741e-12 0 -1.54499e-12 1.56783e-12 0 0 0 0)
(-1.19262e-12 -7.31199e-13 0 -9.21572e-13 1.21025e-12 0 0 0 0)
(-9.21572e-13 -1.04367e-12 0 -5.96311e-13 9.14196e-13 0 0 0 0)
(-7.04731e-13 -6.55599e-13 0 -3.79471e-13 6.88717e-13 0 0 0 0)
(-5.14996e-13 -5.34886e-13 0 -1.89735e-13 5.23642e-13 0 0 0 0)
(-3.79471e-13 -4.14e-13 0 -1.0842e-13 3.9811e-13 0 0 0 0)
(-2.71051e-13 -3.68818e-13 0 -5.42101e-14 2.80784e-13 0 0 0 0)
(-1.0842e-13 -3.59782e-13 0 0 1.37618e-13 0 0 0 0)
(-2.71051e-14 -2.55929e-13 0 0 9.27352e-15 0 0 0 0)
(-2.76507e-09 -3.20405e-06 0 1.90993e-08 -9.62442e-09 0 0 0 0)
(3.88017e-09 3.96347e-06 0 -4.32814e-09 3.29515e-09 0 0 0 0)
(-1.43497e-09 -9.39435e-07 0 1.65707e-09 -9.35602e-10 0 0 0 0)
(4.36364e-10 2.22772e-07 0 -4.21402e-10 2.19955e-10 0 0 0 0)
(-1.62874e-10 -5.28234e-08 0 1.09667e-10 -9.56272e-11 0 0 0 0)
(5.98751e-11 1.2501e-08 0 -5.20688e-11 1.13681e-11 0 0 0 0)
(-1.35796e-11 -2.97784e-09 0 -4.33681e-13 -8.88518e-12 0 0 0 0)
(6.83047e-12 6.94708e-10 0 -1.09504e-11 1.18329e-12 0 0 0 0)
(-1.97867e-12 -1.72205e-10 0 -4.41812e-12 1.68681e-13 0 0 0 0)
(-2.1684e-13 3.54342e-11 0 -3.93023e-12 1.06744e-12 0 0 0 0)
(-1.0842e-12 -1.21401e-11 0 -2.41235e-12 9.22355e-13 0 0 0 0)
(-7.04731e-13 2.02221e-13 0 -1.70762e-12 8.61019e-13 0 0 0 0)
(-6.77626e-13 -2.00451e-12 0 -1.0842e-12 7.25172e-13 0 0 0 0)
(-5.69206e-13 -9.89957e-13 0 -7.04731e-13 6.06962e-13 0 0 0 0)
(-4.87891e-13 -8.66983e-13 0 -4.33681e-13 4.97666e-13 0 0 0 0)
(-4.06576e-13 -6.39028e-13 0 -2.98156e-13 3.87259e-13 0 0 0 0)
(-2.98156e-13 -5.22723e-13 0 -1.89735e-13 2.94364e-13 0 0 0 0)
(-2.43945e-13 -4.88574e-13 0 -2.71051e-14 2.12848e-13 0 0 0 0)
(-1.0842e-13 -4.83098e-13 0 -2.71051e-14 1.0926e-13 0 0 0 0)
(0 -3.19833e-13 0 0 1.19588e-14 0 0 0 0)
(1.01911e-08 3.201e-06 0 -2.25116e-08 7.85076e-09 0 0 0 0)
(-1.27642e-08 -3.95922e-06 0 4.97418e-09 -2.49726e-09 0 0 0 0)
(3.44128e-09 9.38101e-07 0 -1.98832e-09 5.76303e-10 0 0 0 0)
(-1.18842e-09 -2.22448e-07 0 4.69785e-10 -1.9658e-10 0 0 0 0)
(3.8332e-10 5.27079e-08 0 -1.49674e-10 2.91959e-11 0 0 0 0)
(-9.87166e-11 -1.24972e-08 0 3.6646e-11 -2.1269e-11 0 0 0 0)
(4.04407e-11 2.95338e-09 0 -1.79707e-11 -2.19754e-12 0 0 0 0)
(-7.42678e-12 -7.07008e-10 0 -1.87025e-12 -3.354e-12 0 0 0 0)
(4.39102e-12 1.61475e-10 0 -5.20417e-12 -8.93875e-13 0 0 0 0)
(-5.42101e-13 -4.28717e-11 0 -2.81893e-12 -3.36875e-13 0 0 0 0)
(2.71051e-13 6.64464e-12 0 -2.30393e-12 9.44534e-14 0 0 0 0)
(-2.71051e-13 -4.20459e-12 0 -1.57209e-12 2.18054e-13 0 0 0 0)
(-1.89735e-13 -9.85256e-13 0 -1.16552e-12 2.73024e-13 0 0 0 0)
(-3.25261e-13 -1.27118e-12 0 -8.13152e-13 2.91174e-13 0 0 0 0)
(-2.71051e-13 -8.75302e-13 0 -5.42101e-13 2.63274e-13 0 0 0 0)
(-2.1684e-13 -7.38189e-13 0 -3.25261e-13 2.12743e-13 0 0 0 0)
(-1.35525e-13 -5.88412e-13 0 -1.89735e-13 1.6616e-13 0 0 0 0)
(-1.0842e-13 -5.53922e-13 0 -1.35525e-13 1.22039e-13 0 0 0 0)
(-2.71051e-14 -5.60671e-13 0 0 7.83271e-14 0 0 0 0)
(-5.42101e-14 -3.77148e-13 0 5.42101e-14 1.70881e-14 0 0 0 0)
(-2.03024e-08 -3.19869e-06 0 2.47139e-08 -6.25181e-09 0 0 0 0)
(2.44034e-08 3.95619e-06 0 -5.29272e-09 1.70656e-09 0 0 0 0)
(-5.93937e-09 -9.37134e-07 0 2.22584e-09 -4.21499e-10 0 0 0 0)
(2.27498e-09 2.22225e-07 0 -4.97676e-10 9.52273e-11 0 0 0 0)
(-5.96013e-10 -5.26481e-08 0 1.59161e-10 -3.81443e-11 0 0 0 0)
(1.91606e-10 1.24697e-08 0 -5.00359e-11 -1.47328e-12 0 0 0 0)
(-5.2123e-11 -2.95992e-09 0 8.91756e-12 -7.09257e-12 0 0 0 0)
(1.96241e-11 6.96012e-10 0 -7.37257e-12 -2.92997e-12 0 0 0 0)
(-2.92735e-12 -1.69188e-10 0 -1.95156e-12 -2.0807e-12 0 0 0 0)
(2.6563e-12 3.64225e-11 0 -2.76472e-12 -1.06291e-12 0 0 0 0)
(1.89735e-13 -1.15852e-11 0 -1.78893e-12 -5.69586e-13 0 0 0 0)
(4.33681e-13 3.80791e-13 0 -1.32815e-12 -2.49074e-13 0 0 0 0)
(5.42101e-14 -1.93139e-12 0 -1.00289e-12 -8.67699e-14 0 0 0 0)
(5.42101e-14 -9.99706e-13 0 -7.58942e-13 -7.03779e-15 0 0 0 0)
(2.71051e-14 -9.45414e-13 0 -4.87891e-13 1.74932e-14 0 0 0 0)
(-5.42101e-14 -7.36143e-13 0 -2.71051e-13 4.74707e-14 0 0 0 0)
(-1.0842e-13 -6.13427e-13 0 -2.1684e-13 5.42496e-14 0 0 0 0)
(-5.42101e-14 -5.76407e-13 0 -5.42101e-14 3.70367e-14 0 0 0 0)
(2.71051e-14 -5.88049e-13 0 -2.71051e-14 3.5326e-14 0 0 0 0)
(-2.71051e-14 -4.15249e-13 0 -2.71051e-14 1.25996e-14 0 0 0 0)
(2.96123e-08 3.19645e-06 0 -2.3339e-08 5.00368e-09 0 0 0 0)
(-3.52522e-08 -3.95339e-06 0 4.93033e-09 -1.1037e-09 0 0 0 0)
(8.23633e-09 9.3649e-07 0 -2.09026e-09 2.45343e-10 0 0 0 0)
(-3.25507e-09 -2.22065e-07 0 4.67616e-10 -6.60325e-11 0 0 0 0)
(8.30878e-10 5.26112e-08 0 -1.48725e-10 3.55778e-12 0 0 0 0)
(-2.4896e-10 -1.24661e-08 0 4.30699e-11 -8.93744e-12 0 0 0 0)
(8.31312e-11 2.95192e-09 0 -1.33086e-11 -4.37962e-12 0 0 0 0)
(-1.82688e-11 -7.01996e-10 0 1.40946e-12 -3.48772e-12 0 0 0 0)
(8.99888e-12 1.63342e-10 0 -2.98156e-12 -2.33663e-12 0 0 0 0)
(-2.98156e-13 -4.13606e-11 0 -1.40946e-12 -1.56432e-12 0 0 0 0)
(1.6263e-12 7.45847e-12 0 -1.46367e-12 -1.01833e-12 0 0 0 0)
(4.87891e-13 -3.72177e-12 0 -1.02999e-12 -6.21246e-13 0 0 0 0)
(4.06576e-13 -7.4322e-13 0 -7.58942e-13 -3.75507e-13 0 0 0 0)
(1.89735e-13 -1.16691e-12 0 -5.14996e-13 -2.33668e-13 0 0 0 0)
(1.6263e-13 -8.20793e-13 0 -3.79471e-13 -1.35284e-13 0 0 0 0)
(1.35525e-13 -7.01432e-13 0 -2.98156e-13 -7.48163e-14 0 0 0 0)
(5.42101e-14 -5.98846e-13 0 -1.35525e-13 -5.32706e-14 0 0 0 0)
(2.71051e-14 -5.72845e-13 0 -8.13152e-14 -2.44924e-14 0 0 0 0)
(5.42101e-14 -5.85108e-13 0 -5.42101e-14 -1.30118e-14 0 0 0 0)
(0 -4.25073e-13 0 -2.71051e-14 -1.02349e-14 0 0 0 0)
(-3.8711e-08 -3.19479e-06 0 2.11435e-08 -3.60525e-09 0 0 0 0)
(4.56521e-08 3.95144e-06 0 -4.42243e-09 5.79694e-10 0 0 0 0)
(-1.04021e-08 -9.36096e-07 0 1.90662e-09 -1.30306e-10 0 0 0 0)
(4.21654e-09 2.21983e-07 0 -4.13379e-10 1.2399e-11 0 0 0 0)
(-1.02056e-09 -5.2591e-08 0 1.38209e-10 -6.40757e-12 0 0 0 0)
(3.27022e-10 1.24617e-08 0 -3.94921e-11 -5.48353e-12 0 0 0 0)
(-9.37293e-11 -2.95447e-09 0 9.94755e-12 -3.77165e-12 0 0 0 0)
(2.9924e-11 6.98055e-10 0 -4.20128e-12 -3.36224e-12 0 0 0 0)
(-5.77338e-12 -1.67265e-10 0 -2.1684e-13 -2.35353e-12 0 0 0 0)
(4.11997e-12 3.77408e-11 0 -1.32815e-12 -1.79284e-12 0 0 0 0)
(6.23416e-13 -1.06421e-11 0 -8.40257e-13 -1.26413e-12 0 0 0 0)
(1.16552e-12 1.02362e-12 0 -8.40257e-13 -8.99108e-13 0 0 0 0)
(5.69206e-13 -1.54381e-12 0 -5.96311e-13 -6.07644e-13 0 0 0 0)
(4.06576e-13 -7.59483e-13 0 -3.52366e-13 -4.01082e-13 0 0 0 0)
(2.71051e-13 -7.86563e-13 0 -2.43945e-13 -2.50399e-13 0 0 0 0)
(1.6263e-13 -6.54129e-13 0 -8.13152e-14 -1.76788e-13 0 0 0 0)
(8.13152e-14 -5.63103e-13 0 0 -1.1389e-13 0 0 0 0)
(1.0842e-13 -5.36148e-13 0 -5.42101e-14 -6.04389e-14 0 0 0 0)
(8.13152e-14 -5.73791e-13 0 -2.71051e-14 -5.17785e-14 0 0 0 0)
(0 -3.92002e-13 0 0 -3.25359e-14 0 0 0 0)
(4.63335e-08 3.19343e-06 0 -1.73264e-08 2.39424e-09 0 0 0 0)
(-5.44892e-08 -3.94992e-06 0 3.59424e-09 -1.70633e-10 0 0 0 0)
(1.22454e-08 9.35923e-07 0 -1.55206e-09 2.06999e-11 0 0 0 0)
(-5.02352e-09 -2.21941e-07 0 3.39084e-10 9.18866e-12 0 0 0 0)
(1.20482e-09 5.25933e-08 0 -1.09179e-10 -1.20716e-11 0 0 0 0)
(-3.77275e-10 -1.24635e-08 0 3.29055e-11 -1.30089e-12 0 0 0 0)
(1.18422e-10 2.95404e-09 0 -8.34836e-12 -4.54657e-12 0 0 0 0)
(-2.84332e-11 -7.00578e-10 0 2.30393e-12 -2.56796e-12 0 0 0 0)
(1.19262e-11 1.64912e-10 0 -1.16552e-12 -2.40623e-12 0 0 0 0)
(-9.75782e-13 -4.02712e-11 0 -3.25261e-13 -1.76295e-12 0 0 0 0)
(2.1413e-12 8.35221e-12 0 -5.69206e-13 -1.37729e-12 0 0 0 0)
(7.58942e-13 -3.06529e-12 0 -4.33681e-13 -1.01586e-12 0 0 0 0)
(8.40257e-13 -2.45194e-13 0 -3.79471e-13 -7.49642e-13 0 0 0 0)
(5.69206e-13 -8.09668e-13 0 -3.25261e-13 -5.31082e-13 0 0 0 0)
(4.06576e-13 -5.96499e-13 0 -2.1684e-13 -3.82848e-13 0 0 0 0)
(2.71051e-13 -5.64923e-13 0 -1.89735e-13 -2.67165e-13 0 0 0 0)
(1.6263e-13 -4.82496e-13 0 -8.13152e-14 -1.55309e-13 0 0 0 0)
(1.0842e-13 -5.10734e-13 0 0 -9.64611e-14 0 0 0 0)
(2.71051e-14 -5.57205e-13 0 0 -7.00368e-14 0 0 0 0)
(5.42101e-14 -3.40759e-13 0 0 -3.01686e-14 0 0 0 0)
(-5.24432e-08 -3.19257e-06 0 1.31959e-08 -1.26223e-09 0 0 0 0)
(6.14264e-08 3.94906e-06 0 -2.70595e-09 -1.71727e-10 0 0 0 0)
(-1.36572e-08 -9.35916e-07 0 1.18609e-09 5.57709e-11 0 0 0 0)
(5.65943e-09 2.2195e-07 0 -2.50532e-10 -3.95405e-11 0 0 0 0)
(-1.32671e-09 -5.26015e-08 0 8.59772e-11 1.0703e-11 0 0 0 0)
(4.27826e-10 1.24692e-08 0 -2.3229e-11 -7.56146e-12 0 0 0 0)
(-1.24331e-10 -2.95574e-09 0 6.88468e-12 -1.53024e-12 0 0 0 0)
(3.71068e-11 7.00195e-10 0 -1.78893e-12 -3.04199e-12 0 0 0 0)
(-8.48388e-12 -1.6646e-10 0 5.42101e-13 -2.02425e-12 0 0 0 0)
(4.77049e-12 3.87698e-11 0 -2.98156e-13 -1.77127e-12 0 0 0 0)
(5.14996e-13 -9.89503e-12 0 -1.89735e-13 -1.34417e-12 0 0 0 0)
(1.35525e-12 1.65126e-12 0 -1.89735e-13 -1.04096e-12 0 0 0 0)
(7.04731e-13 -1.05903e-12 0 -2.43945e-13 -7.90681e-13 0 0 0 0)
(5.69206e-13 -3.92689e-13 0 -2.1684e-13 -5.89952e-13 0 0 0 0)
(4.60786e-13 -5.22646e-13 0 -8.13152e-14 -4.45196e-13 0 0 0 0)
(2.98156e-13 -4.2659e-13 0 -1.35525e-13 -3.18176e-13 0 0 0 0)
(2.1684e-13 -3.92399e-13 0 -8.13152e-14 -2.30118e-13 0 0 0 0)
(1.89735e-13 -4.50876e-13 0 0 -1.485e-13 0 0 0 0)
(8.13152e-14 -5.07499e-13 0 2.71051e-14 -7.52412e-14 0 0 0 0)
(0 -2.91796e-13 0 2.71051e-14 -1.83765e-14 0 0 0 0)
(5.68234e-08 3.19199e-06 0 -8.29965e-09 3.94231e-10 0 0 0 0)
(-6.6499e-08 -3.9486e-06 0 1.65829e-09 4.29435e-10 0 0 0 0)
(1.47008e-08 9.36055e-07 0 -7.36851e-10 -1.21711e-10 0 0 0 0)
(-6.12357e-09 -2.21986e-07 0 1.54174e-10 5.26991e-11 0 0 0 0)
(1.43215e-09 5.26252e-08 0 -5.00901e-11 -2.14997e-11 0 0 0 0)
(-4.56341e-10 -1.24757e-08 0 1.55041e-11 2.73966e-12 0 0 0 0)
(1.39835e-10 2.95856e-09 0 -3.11708e-12 -4.5144e-12 0 0 0 0)
(-3.48571e-11 -7.01072e-10 0 1.57209e-12 -1.84509e-12 0 0 0 0)
(1.34712e-11 1.66183e-10 0 -1.35525e-13 -2.17238e-12 0 0 0 0)
(-1.5992e-12 -3.95911e-11 0 2.1684e-13 -1.57339e-12 0 0 0 0)
(2.22261e-12 9.08251e-12 0 5.42101e-14 -1.2873e-12 0 0 0 0)
(7.04731e-13 -2.5118e-12 0 0 -1.0137e-12 0 0 0 0)
(7.86047e-13 2.05817e-13 0 0 -7.91776e-13 0 0 0 0)
(6.77626e-13 -4.64183e-13 0 0 -6.19645e-13 0 0 0 0)
(5.42101e-13 -3.24723e-13 0 -5.42101e-14 -4.56847e-13 0 0 0 0)
(2.43945e-13 -3.49845e-13 0 0 -3.26667e-13 0 0 0 0)
(2.71051e-13 -3.12821e-13 0 0 -2.52875e-13 0 0 0 0)
(1.89735e-13 -3.55858e-13 0 -5.42101e-14 -1.64797e-13 0 0 0 0)
(2.71051e-14 -4.27081e-13 0 -2.71051e-14 -7.47438e-14 0 0 0 0)
(5.42101e-14 -2.47141e-13 0 -2.71051e-14 -1.51329e-14 0 0 0 0)
(-5.90845e-08 -3.19174e-06 0 3.25402e-09 3.21111e-10 0 0 0 0)
(6.89892e-08 3.94855e-06 0 -5.78503e-10 -6.12781e-10 0 0 0 0)
(-1.51614e-08 -9.36293e-07 0 2.81215e-10 1.61965e-10 0 0 0 0)
(6.34619e-09 2.2205e-07 0 -5.00359e-11 -6.83302e-11 0 0 0 0)
(-1.46541e-09 -5.26515e-08 0 1.84314e-11 1.88716e-11 0 0 0 0)
(4.74799e-10 1.24862e-08 0 -3.90313e-12 -8.89476e-12 0 0 0 0)
(-1.3829e-10 -2.96032e-09 0 1.92446e-12 -4.67368e-13 0 0 0 0)
(4.01426e-11 7.02537e-10 0 2.98156e-13 -2.78108e-12 0 0 0 0)
(-9.83913e-12 -1.66188e-10 0 5.42101e-13 -1.70105e-12 0 0 0 0)
(4.87891e-12 3.96548e-11 0 2.71051e-13 -1.5856e-12 0 0 0 0)
(2.98156e-13 -9.33534e-12 0 1.6263e-13 -1.21452e-12 0 0 0 0)
(1.30104e-12 2.14679e-12 0 1.35525e-13 -9.81867e-13 0 0 0 0)
(6.77626e-13 -6.64976e-13 0 1.35525e-13 -7.6589e-13 0 0 0 0)
(5.69206e-13 -5.7759e-14 0 5.42101e-14 -6.10222e-13 0 0 0 0)
(4.87891e-13 -2.29668e-13 0 5.42101e-14 -4.49418e-13 0 0 0 0)
(2.98156e-13 -2.22618e-13 0 5.42101e-14 -3.18266e-13 0 0 0 0)
(2.43945e-13 -2.30529e-13 0 0 -2.20276e-13 0 0 0 0)
(1.0842e-13 -2.72745e-13 0 -2.71051e-14 -1.56824e-13 0 0 0 0)
(1.35525e-13 -3.57835e-13 0 0 -9.18293e-14 0 0 0 0)
(5.42101e-14 -2.0192e-13 0 0 -3.17303e-14 0 0 0 0)
(5.94989e-08 3.1917e-06 0 1.90099e-09 -7.6733e-10 0 0 0 0)
(-6.94718e-08 -3.94876e-06 0 -5.28765e-10 7.21337e-10 0 0 0 0)
(1.52292e-08 9.36599e-07 0 1.87757e-10 -1.91433e-10 0 0 0 0)
(-6.38638e-09 -2.22129e-07 0 -5.38035e-11 7.0239e-11 0 0 0 0)
(1.47831e-09 5.26847e-08 0 1.81062e-11 -2.59838e-11 0 0 0 0)
(-4.72793e-10 -1.24951e-08 0 -4.36391e-12 3.9465e-12 0 0 0 0)
(1.43982e-10 2.96468e-09 0 2.60209e-12 -4.54518e-12 0 0 0 0)
(-3.62124e-11 -7.02305e-10 0 4.87891e-13 -1.45857e-12 0 0 0 0)
(1.34712e-11 1.67378e-10 0 1.00289e-12 -1.88773e-12 0 0 0 0)
(-2.00577e-12 -3.91046e-11 0 6.23416e-13 -1.33827e-12 0 0 0 0)
(2.1413e-12 9.68625e-12 0 5.96311e-13 -1.1446e-12 0 0 0 0)
(6.23416e-13 -2.06317e-12 0 3.52366e-13 -8.79297e-13 0 0 0 0)
(7.86047e-13 5.77462e-13 0 2.71051e-13 -6.98313e-13 0 0 0 0)
(4.87891e-13 -1.47711e-13 0 1.6263e-13 -5.32627e-13 0 0 0 0)
(4.87891e-13 -3.27679e-14 0 8.13152e-14 -4.12987e-13 0 0 0 0)
(2.71051e-13 -1.20703e-13 0 5.42101e-14 -3.01594e-13 0 0 0 0)
(1.89735e-13 -1.51379e-13 0 8.13152e-14 -1.99249e-13 0 0 0 0)
(1.6263e-13 -2.27411e-13 0 2.71051e-14 -1.49892e-13 0 0 0 0)
(8.13152e-14 -3.01987e-13 0 2.71051e-14 -9.78637e-14 0 0 0 0)
(5.42101e-14 -1.23582e-13 0 0 -3.88587e-14 0 0 0 0)
(-5.77123e-08 -3.19179e-06 0 -7.08857e-09 1.07387e-09 0 0 0 0)
(6.7276e-08 3.94912e-06 0 1.64379e-09 -7.59362e-10 0 0 0 0)
(-1.46863e-08 -9.36944e-07 0 -6.62285e-10 1.93585e-10 0 0 0 0)
(6.17654e-09 2.22216e-07 0 1.59649e-10 -7.60077e-11 0 0 0 0)
(-1.41608e-09 -5.27178e-08 0 -5.21772e-11 1.91259e-11 0 0 0 0)
(4.59322e-10 1.25077e-08 0 1.67509e-11 -9.53055e-12 0 0 0 0)
(-1.33411e-10 -2.96573e-09 0 -3.00866e-12 -4.62872e-13 0 0 0 0)
(3.85163e-11 7.05195e-10 0 2.62919e-12 -2.55624e-12 0 0 0 0)
(-9.70361e-12 -1.66068e-10 0 6.77626e-13 -1.36616e-12 0 0 0 0)
(4.44523e-12 4.0398e-11 0 1.00289e-12 -1.238e-12 0 0 0 0)
(5.42101e-14 -8.87636e-12 0 6.50521e-13 -9.25681e-13 0 0 0 0)
(9.75782e-13 2.59307e-12 0 5.42101e-13 -7.39152e-13 0 0 0 0)
(4.33681e-13 -3.18306e-13 0 2.71051e-13 -5.73081e-13 0 0 0 0)
(4.60786e-13 2.27567e-13 0 2.1684e-13 -4.40031e-13 0 0 0 0)
(3.79471e-13 1.36519e-15 0 1.0842e-13 -3.6015e-13 0 0 0 0)
(3.25261e-13 -8.87985e-15 0 8.13152e-14 -2.77853e-13 0 0 0 0)
(1.6263e-13 -7.88274e-14 0 5.42101e-14 -1.92489e-13 0 0 0 0)
(1.35525e-13 -1.71359e-13 0 5.42101e-14 -1.23188e-13 0 0 0 0)
(5.42101e-14 -2.46801e-13 0 5.42101e-14 -7.87467e-14 0 0 0 0)
(0 -6.51973e-14 0 0 -1.67214e-14 0 0 0 0)
(5.40541e-08 3.19201e-06 0 1.16428e-08 -1.133e-09 0 0 0 0)
(-6.30455e-08 -3.94964e-06 0 -2.6329e-09 7.24811e-10 0 0 0 0)
(1.37451e-08 9.37283e-07 0 1.07228e-09 -1.96077e-10 0 0 0 0)
(-5.77625e-09 -2.22303e-07 0 -2.53432e-10 6.28229e-11 0 0 0 0)
(1.33538e-09 5.27512e-08 0 8.44322e-11 -2.61976e-11 0 0 0 0)
(-4.23679e-10 -1.25147e-08 0 -2.25514e-11 2.71261e-12 0 0 0 0)
(1.29887e-10 2.97165e-09 0 8.64651e-12 -4.47221e-12 0 0 0 0)
(-3.25261e-11 -7.03209e-10 0 -3.52366e-13 -1.22488e-12 0 0 0 0)
(1.18449e-11 1.68696e-10 0 2.00577e-12 -1.46634e-12 0 0 0 0)
(-2.03288e-12 -3.86641e-11 0 8.94467e-13 -9.23402e-13 0 0 0 0)
(1.5992e-12 1.01851e-11 0 8.94467e-13 -7.35289e-13 0 0 0 0)
(3.52366e-13 -1.71057e-12 0 5.69206e-13 -5.5092e-13 0 0 0 0)
(4.87891e-13 8.76583e-13 0 4.33681e-13 -4.40331e-13 0 0 0 0)
(3.52366e-13 6.52193e-14 0 3.79471e-13 -3.50546e-13 0 0 0 0)
(2.71051e-13 1.2941e-13 0 2.1684e-13 -2.73757e-13 0 0 0 0)
(2.1684e-13 4.69582e-14 0 1.35525e-13 -2.25225e-13 0 0 0 0)
(1.6263e-13 3.28563e-15 0 2.71051e-14 -1.76934e-13 0 0 0 0)
(1.35525e-13 -1.13668e-13 0 5.42101e-14 -1.10839e-13 0 0 0 0)
(8.13152e-14 -1.95521e-13 0 2.71051e-14 -6.7337e-14 0 0 0 0)
(-2.71051e-14 -2.81138e-14 0 0 -1.39396e-15 0 0 0 0)
(-4.87024e-08 -3.1922e-06 0 -1.62554e-08 1.15365e-09 0 0 0 0)
(5.67055e-08 3.95006e-06 0 3.62639e-09 -6.57724e-10 0 0 0 0)
(-1.23069e-08 -9.37606e-07 0 -1.49647e-09 1.54864e-10 0 0 0 0)
(5.18867e-09 2.22386e-07 0 3.50821e-10 -6.59165e-11 0 0 0 0)
(-1.18517e-09 -5.27779e-08 0 -1.12188e-10 1.09955e-11 0 0 0 0)
(3.83564e-10 1.25294e-08 0 3.72423e-11 -8.65064e-12 0 0 0 0)
(-1.11158e-10 -2.96966e-09 0 -6.26127e-12 -8.38958e-13 0 0 0 0)
(3.18484e-11 7.08201e-10 0 5.3668e-12 -1.7541e-12 0 0 0 0)
(-8.42967e-12 -1.65766e-10 0 1.13841e-12 -7.53474e-13 0 0 0 0)
(3.30682e-12 4.1129e-11 0 1.65341e-12 -6.31831e-13 0 0 0 0)
(-2.98156e-13 -8.50388e-12 0 8.94467e-13 -4.13935e-13 0 0 0 0)
(4.33681e-13 2.88803e-12 0 7.31836e-13 -3.07358e-13 0 0 0 0)
(2.43945e-13 -1.17933e-13 0 4.87891e-13 -2.4548e-13 0 0 0 0)
(2.43945e-13 3.94141e-13 0 2.43945e-13 -2.13362e-13 0 0 0 0)
(1.89735e-13 1.26687e-13 0 2.1684e-13 -1.78219e-13 0 0 0 0)
(1.35525e-13 8.79434e-14 0 8.13152e-14 -1.63962e-13 0 0 0 0)
(1.35525e-13 3.55586e-14 0 5.42101e-14 -1.48718e-13 0 0 0 0)
(8.13152e-14 -6.17628e-14 0 2.71051e-14 -1.06627e-13 0 0 0 0)
(0 -1.37356e-13 0 -2.71051e-14 -3.98513e-14 0 0 0 0)
(0 3.53365e-15 0 0 4.36242e-15 0 0 0 0)
(4.14251e-08 3.19251e-06 0 1.91059e-08 -9.23511e-10 0 0 0 0)
(-4.82866e-08 -3.95064e-06 0 -4.26663e-09 5.01568e-10 0 0 0 0)
(1.04695e-08 9.37874e-07 0 1.75671e-09 -1.87395e-10 0 0 0 0)
(-4.39205e-09 -2.22447e-07 0 -4.04191e-10 3.92232e-11 0 0 0 0)
(1.02189e-09 5.28084e-08 0 1.39374e-10 -2.62437e-11 0 0 0 0)
(-3.17725e-10 -1.25265e-08 0 -3.277e-11 2.92151e-12 0 0 0 0)
(9.79848e-11 2.97855e-09 0 1.48807e-11 -3.12826e-12 0 0 0 0)
(-2.51264e-11 -7.03123e-10 0 -8.13152e-14 1.83658e-13 0 0 0 0)
(8.07731e-12 1.69818e-10 0 3.00866e-12 -3.25819e-13 0 0 0 0)
(-2.19551e-12 -3.83246e-11 0 1.19262e-12 1.01489e-14 0 0 0 0)
(7.04731e-13 1.05096e-11 0 9.75782e-13 -7.54941e-14 0 0 0 0)
(-1.35525e-13 -1.54212e-12 0 5.96311e-13 -5.02779e-14 0 0 0 0)
(8.13152e-14 9.70579e-13 0 4.60786e-13 -6.59525e-14 0 0 0 0)
(5.42101e-14 1.32481e-13 0 3.25261e-13 -6.77668e-14 0 0 0 0)
(8.13152e-14 1.7881e-13 0 1.6263e-13 -8.18489e-14 0 0 0 0)
(8.13152e-14 7.64588e-14 0 8.13152e-14 -9.22129e-14 0 0 0 0)
(1.0842e-13 6.06205e-14 0 5.42101e-14 -8.74278e-14 0 0 0 0)
(8.13152e-14 -4.80146e-15 0 0 -7.52433e-14 0 0 0 0)
(0 -8.45309e-14 0 0 -2.05381e-14 0 0 0 0)
(0 7.37508e-15 0 0 5.95444e-15 0 0 0 0)
(-3.38631e-08 -3.19262e-06 0 -2.20644e-08 1.02929e-09 0 0 0 0)
(3.93563e-08 3.9508e-06 0 4.79895e-09 -5.28048e-10 0 0 0 0)
(-8.4445e-09 -9.38069e-07 0 -2.01502e-09 5.64462e-12 0 0 0 0)
(3.57142e-09 2.22547e-07 0 5.13532e-10 2.5331e-12 0 0 0 0)
(-8.13694e-10 -5.28142e-08 0 -1.46069e-10 -1.15872e-11 0 0 0 0)
(2.59016e-10 1.25525e-08 0 5.86824e-11 5.74755e-12 0 0 0 0)
(-7.84962e-11 -2.9724e-09 0 -8.5652e-12 -1.01235e-12 0 0 0 0)
(2.00035e-11 7.11003e-10 0 7.86047e-12 1.80656e-12 0 0 0 0)
(-7.18284e-12 -1.6594e-10 0 7.86047e-13 5.45209e-13 0 0 0 0)
(1.27394e-12 4.13793e-11 0 1.81604e-12 6.61696e-13 0 0 0 0)
(-9.21572e-13 -8.56431e-12 0 7.58942e-13 3.29397e-13 0 0 0 0)
(-2.71051e-14 2.89757e-12 0 5.96311e-13 1.94991e-13 0 0 0 0)
(-1.0842e-13 -1.35422e-13 0 3.79471e-13 7.65358e-14 0 0 0 0)
(0 3.78244e-13 0 2.43945e-13 2.79291e-14 0 0 0 0)
(0 1.02241e-13 0 1.89735e-13 -9.36347e-15 0 0 0 0)
(0 8.23646e-14 0 1.89735e-13 -2.60371e-14 0 0 0 0)
(0 5.25283e-14 0 2.71051e-14 -2.94328e-14 0 0 0 0)
(5.42101e-14 5.1268e-15 0 0 -4.54784e-14 0 0 0 0)
(2.71051e-14 -5.61585e-14 0 0 -2.72412e-14 0 0 0 0)
(-2.71051e-14 1.81173e-14 0 2.71051e-14 7.15133e-15 0 0 0 0)
(2.41597e-08 3.19301e-06 0 2.25143e-08 -1.46159e-09 0 0 0 0)
(-2.82373e-08 -3.95166e-06 0 -2.21936e-09 1.61004e-09 0 0 0 0)
(6.18418e-09 9.38405e-07 0 8.10956e-10 -5.345e-10 0 0 0 0)
(-2.52307e-09 -2.22465e-07 0 1.06387e-10 2.15626e-10 0 0 0 0)
(5.66956e-10 5.28116e-08 0 -2.53161e-11 -6.15587e-11 0 0 0 0)
(-1.80194e-10 -1.25159e-08 0 2.75658e-11 2.75453e-11 0 0 0 0)
(4.71899e-11 2.97461e-09 0 -3.33392e-12 -2.74529e-12 0 0 0 0)
(-1.57751e-11 -7.01565e-10 0 5.52943e-12 4.7319e-12 0 0 0 0)
(2.03288e-12 1.68674e-10 0 8.40257e-13 1.143e-12 0 0 0 0)
(-2.22261e-12 -3.85404e-11 0 1.32815e-12 1.30412e-12 0 0 0 0)
(-5.42101e-13 1.00429e-11 0 5.96311e-13 6.64839e-13 0 0 0 0)
(-4.87891e-13 -1.79498e-12 0 4.33681e-13 4.33601e-13 0 0 0 0)
(-2.71051e-13 8.03517e-13 0 2.71051e-13 2.32192e-13 0 0 0 0)
(-1.6263e-13 4.65816e-14 0 1.6263e-13 1.12183e-13 0 0 0 0)
(-5.42101e-14 1.24844e-13 0 8.13152e-14 3.09926e-14 0 0 0 0)
(-5.42101e-14 5.63895e-14 0 5.42101e-14 6.4089e-15 0 0 0 0)
(0 4.11792e-14 0 5.42101e-14 -1.28043e-14 0 0 0 0)
(5.42101e-14 -2.60993e-15 0 5.42101e-14 -2.70875e-14 0 0 0 0)
(2.71051e-14 -3.19012e-14 0 2.71051e-14 -1.41815e-14 0 0 0 0)
(-2.71051e-14 2.7465e-14 0 0 1.99575e-14 0 0 0 0)
(-1.35681e-08 -3.19247e-06 0 -1.02656e-08 7.30393e-10 0 0 0 0)
(1.76529e-08 3.95172e-06 0 -3.25965e-10 -1.26887e-09 0 0 0 0)
(-6.11875e-09 -9.39463e-07 0 3.18755e-10 6.67364e-10 0 0 0 0)
(2.73514e-09 2.2302e-07 0 -3.91397e-10 -2.10808e-10 0 0 0 0)
(-8.92542e-10 -5.30023e-08 0 1.06713e-10 1.12085e-10 0 0 0 0)
(2.80998e-10 1.26113e-08 0 -6.58111e-11 -2.01762e-11 0 0 0 0)
(-1.0056e-10 -2.99522e-09 0 5.9089e-12 1.66842e-11 0 0 0 0)
(2.41506e-11 7.14891e-10 0 -1.24683e-11 4.33517e-13 0 0 0 0)
(-1.13299e-11 -1.69367e-10 0 -2.49366e-12 3.35827e-12 0 0 0 0)
(1.02999e-12 4.09012e-11 0 -3.14419e-12 1.12724e-12 0 0 0 0)
(-1.81604e-12 -9.43483e-12 0 -1.27394e-12 9.97459e-13 0 0 0 0)
(-3.25261e-13 2.46493e-12 0 -8.40257e-13 5.19205e-13 0 0 0 0)
(-4.06576e-13 -4.5684e-13 0 -4.33681e-13 3.2751e-13 0 0 0 0)
(-1.6263e-13 1.77045e-13 0 -1.89735e-13 1.72527e-13 0 0 0 0)
(-1.0842e-13 -3.53308e-15 0 -8.13152e-14 1.03883e-13 0 0 0 0)
(-5.42101e-14 3.85678e-14 0 -5.42101e-14 5.12166e-14 0 0 0 0)
(-2.71051e-14 1.90319e-14 0 0 8.92576e-15 0 0 0 0)
(2.71051e-14 3.74958e-15 0 0 -8.9946e-15 0 0 0 0)
(-2.71051e-14 -9.11357e-15 0 -2.71051e-14 7.78611e-15 0 0 0 0)
(-2.71051e-14 1.23413e-14 0 -2.71051e-14 3.20202e-14 0 0 0 0)
)
;

boundaryField
{
    movingWall
    {
        type            extrapolatedCalculated;
        value           nonuniform List<tensor> 
20
(
(-1.35681e-08 -3.19247e-06 0 8.27746e-08 1.67524e-05 0 0 0 0)
(1.76529e-08 3.95172e-06 0 -2.85021e-08 -3.98256e-06 0 0 0 0)
(-6.11875e-09 -9.39463e-07 0 1.21629e-08 9.45558e-07 0 0 0 0)
(2.73514e-09 2.2302e-07 0 -4.02709e-09 -2.24707e-07 0 0 0 0)
(-8.92542e-10 -5.30023e-08 0 1.2224e-09 5.34792e-08 0 0 0 0)
(2.80998e-10 1.26113e-08 0 -4.56923e-10 -1.26978e-08 0 0 0 0)
(-1.0056e-10 -2.99522e-09 0 9.84102e-11 3.03392e-09 0 0 0 0)
(2.41506e-11 7.14891e-10 0 -5.46674e-11 -7.16975e-10 0 0 0 0)
(-1.13299e-11 -1.69367e-10 0 1.68754e-12 1.74356e-10 0 0 0 0)
(1.02999e-12 4.09012e-11 0 -9.32587e-12 -3.95057e-11 0 0 0 0)
(-1.81604e-12 -9.43483e-12 0 -2.35367e-12 1.07511e-11 0 0 0 0)
(-3.25261e-13 2.46493e-12 0 -2.13163e-12 -1.76641e-12 0 0 0 0)
(-4.06576e-13 -4.5684e-13 0 -9.32587e-13 8.91404e-13 0 0 0 0)
(-1.6263e-13 1.77045e-13 0 -5.77316e-13 6.09523e-14 0 0 0 0)
(-1.0842e-13 -3.53308e-15 0 -3.10862e-13 1.83224e-13 0 0 0 0)
(-5.42101e-14 3.85678e-14 0 -1.33227e-13 7.50846e-14 0 0 0 0)
(-2.71051e-14 1.90319e-14 0 -4.44089e-14 2.89524e-14 0 0 0 0)
(2.71051e-14 3.74958e-15 0 -4.44089e-14 -1.04306e-15 0 0 0 0)
(-2.71051e-14 -9.11357e-15 0 -8.88178e-14 1.39541e-14 0 0 0 0)
(-2.71051e-14 1.23413e-14 0 -4.44089e-14 3.54112e-14 0 0 0 0)
)
;
    }
    fixedWalls
    {
        type            extrapolatedCalculated;
        value           nonuniform List<tensor> 
60
(
(-2.33089e-08 1.68565e-05 0 -3.5561e-09 1.74206e-09 0 0 0 0)
(9.0846e-09 -1.68495e-05 0 7.88052e-10 -9.57273e-09 0 0 0 0)
(-2.01568e-08 1.68182e-05 0 -6.6522e-09 1.29086e-08 0 0 0 0)
(-1.75242e-08 -1.67979e-05 0 1.90993e-08 -9.62442e-09 0 0 0 0)
(5.62405e-08 1.67797e-05 0 -2.25116e-08 7.85076e-09 0 0 0 0)
(-1.0757e-07 -1.67665e-05 0 2.47139e-08 -6.25181e-09 0 0 0 0)
(1.55096e-07 1.67547e-05 0 -2.3339e-08 5.00368e-09 0 0 0 0)
(-2.00926e-07 -1.67465e-05 0 2.11435e-08 -3.60525e-09 0 0 0 0)
(2.3967e-07 1.67403e-05 0 -1.73264e-08 2.39424e-09 0 0 0 0)
(-2.70232e-07 -1.67369e-05 0 1.31959e-08 -1.26223e-09 0 0 0 0)
(2.92454e-07 1.67352e-05 0 -8.29965e-09 3.94231e-10 0 0 0 0)
(-3.03431e-07 -1.67353e-05 0 3.25402e-09 3.21111e-10 0 0 0 0)
(3.0547e-07 1.67365e-05 0 1.90099e-09 -7.6733e-10 0 0 0 0)
(-2.95827e-07 -1.67384e-05 0 -7.08857e-09 1.07387e-09 0 0 0 0)
(2.77116e-07 1.67408e-05 0 1.16428e-08 -1.133e-09 0 0 0 0)
(-2.49255e-07 -1.67429e-05 0 -1.62554e-08 1.15365e-09 0 0 0 0)
(2.12094e-07 1.67454e-05 0 1.91059e-08 -9.23511e-10 0 0 0 0)
(-1.72832e-07 -1.67466e-05 0 -2.20644e-08 1.02929e-09 0 0 0 0)
(1.23837e-07 1.67495e-05 0 2.25143e-08 -1.46159e-09 0 0 0 0)
(-8.27746e-08 -1.67524e-05 0 -1.02656e-08 7.30393e-10 0 0 0 0)
(-4.44089e-14 -5.55136e-14 0 0 4.85412e-14 0 0 0 0)
(8.88178e-14 -1.38651e-13 0 0 2.6246e-14 0 0 0 0)
(0 -1.60498e-13 0 0 9.27352e-15 0 0 0 0)
(0 -1.75745e-13 0 0 1.19588e-14 0 0 0 0)
(-4.44089e-14 -2.08333e-13 0 5.42101e-14 1.70881e-14 0 0 0 0)
(-8.88178e-14 -2.44097e-13 0 -2.71051e-14 1.25996e-14 0 0 0 0)
(0 -2.58731e-13 0 -2.71051e-14 -1.02349e-14 0 0 0 0)
(0 -2.03158e-13 0 0 -3.25359e-14 0 0 0 0)
(0 -1.28588e-13 0 0 -3.01686e-14 0 0 0 0)
(-4.44089e-14 -8.24834e-14 0 2.71051e-14 -1.83765e-14 0 0 0 0)
(0 -5.5082e-14 0 -2.71051e-14 -1.51329e-14 0 0 0 0)
(0 -2.19518e-14 0 0 -3.17303e-14 0 0 0 0)
(8.88178e-14 7.18392e-14 0 0 -3.88587e-14 0 0 0 0)
(0 1.33483e-13 0 0 -1.67214e-14 0 0 0 0)
(-4.44089e-14 1.38725e-13 0 0 -1.39396e-15 0 0 0 0)
(0 1.39059e-13 0 0 4.36242e-15 0 0 0 0)
(0 1.21275e-13 0 0 5.95444e-15 0 0 0 0)
(-4.44089e-14 1.15241e-13 0 2.71051e-14 7.15133e-15 0 0 0 0)
(-4.44089e-14 9.26696e-14 0 0 1.99575e-14 0 0 0 0)
(-4.44089e-14 3.54112e-14 0 -2.71051e-14 3.20202e-14 0 0 0 0)
(-1.77297e-09 3.21383e-06 0 -2.33089e-08 1.68565e-05 0 0 0 0)
(4.20947e-09 -3.97649e-06 0 1.6217e-08 -4.00118e-06 0 0 0 0)
(-3.27348e-09 9.43927e-07 0 -6.471e-09 9.50536e-07 0 0 0 0)
(1.45164e-09 -2.24216e-07 0 3.1231e-09 -2.2547e-07 0 0 0 0)
(-6.68655e-10 5.31938e-08 0 -6.64446e-10 5.36734e-08 0 0 0 0)
(1.65368e-10 -1.26568e-08 0 4.48486e-10 -1.26942e-08 0 0 0 0)
(-8.97719e-11 2.99684e-09 0 -2.93099e-12 3.04637e-09 0 0 0 0)
(8.67362e-12 -7.16894e-10 0 8.93507e-11 -7.069e-10 0 0 0 0)
(-1.46096e-11 1.67851e-10 0 3.17524e-11 1.78795e-10 0 0 0 0)
(-3.2255e-12 -4.13933e-11 0 3.08198e-11 -3.54979e-11 0 0 0 0)
(-4.20128e-12 8.92031e-12 0 1.88738e-11 1.3222e-11 0 0 0 0)
(-2.30393e-12 -2.7091e-12 0 1.40332e-11 1.83309e-13 0 0 0 0)
(-1.87025e-12 2.62425e-13 0 9.68114e-12 2.3856e-12 0 0 0 0)
(-1.35525e-12 -3.37164e-13 0 6.57252e-12 1.23301e-12 0 0 0 0)
(-9.75782e-13 -1.32181e-13 0 4.30767e-12 1.03694e-12 0 0 0 0)
(-6.77626e-13 -1.37045e-13 0 2.62013e-12 7.04284e-13 0 0 0 0)
(-5.14996e-13 -9.6938e-14 0 1.5099e-12 4.88761e-13 0 0 0 0)
(-3.25261e-13 -7.4029e-14 0 6.66134e-13 3.16532e-13 0 0 0 0)