/*--------------------------------*- C++ -*----------------------------------*\
| =========                 |                                                 |
| \\      /  F ield         | OpenFOAM: The Open Source CFD Toolbox           |
|  \\    /   O peration     | Version:  2312                                  |
|   \\  /    A nd           | Website:  www.openfoam.com                      |
|    \\/     M anipulation  |                                                 |
\*---------------------------------------------------------------------------*/
FoamFile
{
    version     2.0;
    format      ascii;
    arch        "LSB;label=32;scalar=64";
    class       volVectorField;
    location    "4.125";
    object      LambVectorField;
}
// * * * * * * * * * * * * * * * * * * * * * * * * * * * * * * * * * * * * * //

dimensions      [0 1 -2 0 0 0 0];

internalField   nonuniform List<vector> 
400
(
(-1.35584e-13 -3.21738e-06 -3.21738e-06)
(-3.98141e-14 3.98024e-06 -0)
(-2.24666e-15 -9.45429e-07 -9.45429e-07)
(-1.26855e-16 2.2505e-07 -0)
(-7.15764e-18 -5.33422e-08 -5.33422e-08)
(-4.06156e-19 1.27981e-08 -0)
(-2.27225e-20 -2.98355e-09 -2.98355e-09)
(-1.32935e-21 7.52212e-10 -0)
(-6.78426e-23 -1.51777e-10 -1.51777e-10)
(-4.90743e-24 5.52982e-11 -0)
(3.49296e-27 1.05671e-13 1.05671e-13)
(4.27235e-27 9.32273e-12 0)
(2.57545e-26 4.31833e-12 4.31833e-12)
(1.07313e-26 3.48135e-12 0)
(5.75313e-27 2.21927e-12 2.21927e-12)
(2.53206e-27 1.43809e-12 0)
(1.01268e-27 8.28774e-13 8.28774e-13)
(2.94521e-28 3.72185e-13 0)
(7.05899e-29 1.4657e-13 1.4657e-13)
(8.61012e-30 6.20397e-14 0)
(-1.35347e-13 3.21307e-06 3.21307e-06)
(-3.97943e-14 -3.97904e-06 0)
(-2.23913e-15 9.45034e-07 9.45034e-07)
(-1.26402e-16 -2.24435e-07 0)
(-7.0829e-18 5.33019e-08 5.33019e-08)
(-4.0278e-19 -1.26579e-08 0)
(-2.20913e-20 3.00661e-09 3.00661e-09)
(-1.32347e-21 -7.13629e-10 0)
(-6.19528e-23 1.69861e-10 1.69861e-10)
(-5.4252e-24 -4.00037e-11 0)
(1.9427e-26 9.85308e-12 9.85308e-12)
(-4.87213e-26 -2.07024e-12 0)
(7.64513e-27 6.46138e-13 6.46138e-13)
(7.65519e-29 7.63577e-15 0)
(1.27426e-27 1.78273e-13 1.78273e-13)
(8.34866e-28 1.58685e-13 0)
(7.27412e-28 1.9855e-13 1.9855e-13)
(4.94906e-28 2.00977e-13 0)
(2.551e-28 1.84482e-13 1.84482e-13)
(5.99465e-29 1.72942e-13 0)
(-1.35133e-13 -3.21398e-06 -3.21398e-06)
(-3.9588e-14 3.96982e-06 -0)
(-2.22864e-15 -9.41793e-07 -9.41793e-07)
(-1.25216e-16 2.23415e-07 -0)
(-7.07522e-18 -5.29988e-08 -5.29988e-08)
(-3.93506e-19 1.25729e-08 -0)
(-2.28397e-20 -2.98224e-09 -2.98224e-09)
(-1.17651e-21 7.07713e-10 -0)
(-8.34623e-23 -1.67608e-10 -1.67608e-10)
(-1.86361e-24 4.00746e-11 -0)
(-5.71607e-25 -9.26341e-12 -9.26341e-12)
(5.41906e-26 2.46242e-12 0)
(-4.1181e-27 -1.90372e-13 -1.90372e-13)
(6.57397e-27 4.47359e-13 0)
(3.09128e-27 2.76128e-13 2.76128e-13)
(2.8092e-27 3.45151e-13 0)
(1.78649e-27 3.0558e-13 3.0558e-13)
(1.25814e-27 3.14608e-13 0)
(7.76427e-28 3.59782e-13 3.59782e-13)
(1.0269e-28 2.55929e-13 0)
(-1.35355e-13 3.22315e-06 3.22315e-06)
(-3.94964e-14 -3.9678e-06 0)
(-2.22098e-15 9.41092e-07 9.41092e-07)
(-1.24965e-16 -2.23193e-07 0)
(-7.00252e-18 5.29331e-08 5.29331e-08)
(-3.97444e-19 -1.25531e-08 0)
(-2.1674e-20 2.9774e-09 2.9774e-09)
(-1.32852e-21 -7.05659e-10 0)
(-5.57774e-23 1.67787e-10 1.67787e-10)
(-6.32247e-24 -3.93644e-11 0)
(2.13158e-25 9.72778e-12 9.72778e-12)
(-7.48895e-26 -1.90984e-12 0)
(2.20271e-26 9.20303e-13 9.20303e-13)
(5.46703e-27 2.85225e-13 0)
(6.0814e-27 4.33303e-13 4.33303e-13)
(3.57833e-27 3.40872e-13 0)
(2.54559e-27 3.32988e-13 3.32988e-13)
(2.4321e-27 4.61469e-13 0)
(1.25807e-27 4.55993e-13 4.55993e-13)
(1.40523e-28 3.19833e-13 0)
(-1.35224e-13 -3.22351e-06 -3.22351e-06)
(-3.94012e-14 3.9642e-06 -0)
(-2.21581e-15 -9.40089e-07 -9.40089e-07)
(-1.24447e-16 2.22918e-07 -0)
(-7.00582e-18 -5.28575e-08 -5.28575e-08)
(-3.9086e-19 1.25338e-08 -0)
(-2.24923e-20 -2.97135e-09 -2.97135e-09)
(-1.16389e-21 7.05137e-10 -0)
(-8.32808e-23 -1.66679e-10 -1.66679e-10)
(-1.43506e-24 4.00528e-11 -0)
(-6.34717e-25 -8.94857e-12 -8.94857e-12)
(8.05998e-26 2.6325e-12 0)
(-5.20657e-27 -1.80261e-13 -1.80261e-13)
(9.51074e-27 4.58025e-13 0)
(5.38844e-27 3.33201e-13 3.33201e-13)
(4.95995e-27 4.12928e-13 0)
(3.50431e-27 3.98676e-13 3.98676e-13)
(2.56374e-27 4.18396e-13 0)
(1.82254e-27 5.60671e-13 5.60671e-13)
(2.24665e-28 4.31358e-13 0)
(-1.35113e-13 3.22341e-06 3.22341e-06)
(-3.93347e-14 -3.96149e-06 0)
(-2.21148e-15 9.3936e-07 9.3936e-07)
(-1.24263e-16 -2.22722e-07 0)
(-6.97046e-18 5.28073e-08 5.28073e-08)
(-3.93723e-19 -1.25197e-08 0)
(-2.16769e-20 2.96884e-09 2.96884e-09)
(-1.30065e-21 -7.03385e-10 0)
(-5.70892e-23 1.67236e-10 1.67236e-10)
(-6.162e-24 -3.91872e-11 0)
(2.23912e-25 9.79626e-12 9.79626e-12)
(-7.07381e-26 -1.70894e-12 0)
(2.47582e-26 9.28499e-13 9.28499e-13)
(5.31588e-27 2.40765e-13 0)
(7.62588e-27 4.57523e-13 4.57523e-13)
(5.87179e-27 4.65092e-13 0)
(3.69076e-27 3.96587e-13 3.96587e-13)
(3.38944e-27 5.22197e-13 0)
(1.987e-27 5.60944e-13 5.60944e-13)
(2.36862e-28 3.88143e-13 0)
(-1.34866e-13 -3.21979e-06 -3.21979e-06)
(-3.92753e-14 3.95832e-06 -0)
(-2.2083e-15 -9.3858e-07 -9.3858e-07)
(-1.2402e-16 2.22532e-07 -0)
(-6.97275e-18 -5.27599e-08 -5.27599e-08)
(-3.90276e-19 1.25092e-08 -0)
(-2.22357e-20 -2.96523e-09 -2.96523e-09)
(-1.18164e-21 7.03405e-10 -0)
(-7.96425e-23 -1.66324e-10 -1.66324e-10)
(-1.85606e-24 3.99511e-11 -0)
(-5.82023e-25 -8.92215e-12 -8.92215e-12)
(7.57104e-26 2.69178e-12 0)
(-4.40439e-28 -1.57211e-14 -1.57211e-14)
(1.3491e-26 6.51918e-13 0)
(7.21416e-27 4.41322e-13 4.41322e-13)
(5.03546e-27 4.03277e-13 0)
(4.32387e-27 4.6332e-13 4.6332e-13)
(3.19392e-27 4.9153e-13 0)
(1.91331e-27 5.30898e-13 5.30898e-13)
(2.57417e-28 3.97968e-13 0)
(-1.34639e-13 3.21594e-06 3.21594e-06)
(-3.92351e-14 -3.95586e-06 0)
(-2.20599e-15 9.38003e-07 9.38003e-07)
(-1.23935e-16 -2.22396e-07 0)
(-6.95828e-18 5.27292e-08 5.27292e-08)
(-3.92025e-19 -1.25012e-08 0)
(-2.17745e-20 2.96442e-09 2.96442e-09)
(-1.27407e-21 -7.02256e-10 0)
(-6.09281e-23 1.67048e-10 1.67048e-10)
(-5.53224e-24 -3.9069e-11 0)
(1.24225e-25 9.80187e-12 9.80187e-12)
(-6.5572e-26 -1.86387e-12 0)
(2.17069e-26 9.47496e-13 9.47496e-13)
(8.03751e-27 4.07118e-13 0)
(8.31013e-27 5.42617e-13 5.42617e-13)
(6.80321e-27 5.72813e-13 0)
(4.94045e-27 5.63103e-13 5.63103e-13)
(3.01009e-27 4.81938e-13 0)
(1.86536e-27 5.46686e-13 5.46686e-13)
(1.99096e-28 3.92002e-13 0)
(-1.34372e-13 -3.21075e-06 -3.21075e-06)
(-3.92046e-14 3.95351e-06 -0)
(-2.20448e-15 -9.37475e-07 -9.37475e-07)
(-1.23851e-16 2.2228e-07 -0)
(-6.96179e-18 -5.27024e-08 -5.27024e-08)
(-3.90562e-19 1.24964e-08 -0)
(-2.21026e-20 -2.96239e-09 -2.96239e-09)
(-1.20439e-21 7.02881e-10 -0)
(-7.56157e-23 -1.66077e-10 -1.66077e-10)
(-2.57199e-24 3.99459e-11 -0)
(-4.69198e-25 -8.92141e-12 -8.92141e-12)
(5.0357e-26 2.63161e-12 0)
(-2.94594e-27 -1.34277e-13 -1.34277e-13)
(8.0816e-27 4.84407e-13 0)
(5.2555e-27 3.79659e-13 3.79659e-13)
(4.02144e-27 3.75188e-13 0)
(3.28706e-27 4.01181e-13 4.01181e-13)
(3.01002e-27 5.10734e-13 0)
(1.7196e-27 5.57205e-13 5.57205e-13)
(1.09544e-28 3.40759e-13 0)
(-1.34136e-13 3.20576e-06 3.20576e-06)
(-3.91878e-14 -3.95177e-06 0)
(-2.20368e-15 9.37102e-07 9.37102e-07)
(-1.23846e-16 -2.22201e-07 0)
(-6.95913e-18 5.26875e-08 5.26875e-08)
(-3.91588e-19 -1.24925e-08 0)
(-2.1896e-20 2.96262e-09 2.96262e-09)
(-1.25555e-21 -7.01984e-10 0)
(-6.49297e-23 1.67002e-10 1.67002e-10)
(-4.84334e-24 -3.90679e-11 0)
(-1.06694e-26 9.70529e-12 9.70529e-12)
(-4.60654e-26 -1.841e-12 0)
(1.25632e-26 8.15087e-13 8.15087e-13)
(2.53778e-27 1.75848e-13 0)
(5.06931e-27 4.41331e-13 4.41331e-13)
(2.6793e-27 2.91064e-13 0)
(2.24619e-27 3.11084e-13 3.11084e-13)
(2.38117e-27 4.50876e-13 0)
(1.44971e-27 5.34604e-13 5.34604e-13)
(6.57602e-29 3.18901e-13 0)
(-1.33894e-13 -3.20029e-06 -3.20029e-06)
(-3.91792e-14 3.95026e-06 -0)
(-2.20339e-15 -9.36792e-07 -9.36792e-07)
(-1.23861e-16 2.2214e-07 -0)
(-6.96384e-18 -5.26753e-08 -5.26753e-08)
(-3.91345e-19 1.24912e-08 -0)
(-2.2052e-20 -2.96168e-09 -2.96168e-09)
(-1.22536e-21 7.02644e-10 -0)
(-7.23586e-23 -1.66318e-10 -1.66318e-10)
(-3.26821e-24 3.98079e-11 -0)
(-3.53464e-25 -9.0283e-12 -9.0283e-12)
(2.19175e-26 2.5118e-12 0)
(-2.88814e-27 -2.05817e-13 -2.05817e-13)
(5.00574e-27 4.64183e-13 0)
(2.54032e-27 2.70513e-13 2.70513e-13)
(2.63669e-27 3.49845e-13 0)
(1.84323e-27 3.12821e-13 3.12821e-13)
(1.32982e-27 3.01647e-13 0)
(9.33427e-28 3.99976e-13 3.99976e-13)
(3.03001e-29 2.20036e-13 0)
(-1.33673e-13 3.195e-06 3.195e-06)
(-3.91786e-14 -3.94913e-06 0)
(-2.20357e-15 9.36574e-07 9.36574e-07)
(-1.23907e-16 -2.221e-07 0)
(-6.96813e-18 5.26699e-08 5.26699e-08)
(-3.91857e-19 -1.24901e-08 0)
(-2.2027e-20 2.96225e-09 2.96225e-09)
(-1.24305e-21 -7.02239e-10 0)
(-6.84461e-23 1.6673e-10 1.6673e-10)
(-4.26284e-24 -3.93838e-11 0)
(-1.32709e-25 9.49797e-12 9.49797e-12)
(-2.99375e-26 -2.01126e-12 0)
(6.00019e-27 8.00501e-13 8.00501e-13)
(9.22087e-28 1.11969e-13 0)
(1.96385e-27 2.83878e-13 2.83878e-13)
(1.64395e-27 2.76828e-13 0)
(1.08159e-27 2.30529e-13 2.30529e-13)
(8.92464e-28 2.4564e-13 0)
(7.02901e-28 3.57835e-13 3.57835e-13)
(1.10812e-29 2.0192e-13 0)
(-1.33465e-13 -3.1898e-06 -3.1898e-06)
(-3.91832e-14 3.94823e-06 -0)
(-2.20401e-15 -9.36411e-07 -9.36411e-07)
(-1.23977e-16 2.22075e-07 -0)
(-6.97262e-18 -5.26666e-08 -5.26666e-08)
(-3.92439e-19 1.24907e-08 -0)
(-2.20411e-20 -2.96207e-09 -2.96207e-09)
(-1.24516e-21 7.02793e-10 -0)
(-6.95533e-23 -1.66375e-10 -1.66375e-10)
(-3.89157e-24 3.9728e-11 -0)
(-2.45477e-25 -9.08994e-12 -9.08994e-12)
(-2.63988e-27 2.41554e-12 -0)
(-1.95296e-27 -3.06411e-13 -3.06411e-13)
(1.45294e-27 3.10342e-13 0)
(5.58613e-28 1.14083e-13 1.14083e-13)
(7.61581e-28 1.74913e-13 0)
(8.58532e-28 2.32694e-13 2.32694e-13)
(7.22894e-28 2.54516e-13 0)
(4.65802e-28 3.29092e-13 3.29092e-13)
(-2.2195e-29 1.23582e-13 -0)
(-1.33267e-13 3.1847e-06 3.1847e-06)
(-3.91907e-14 -3.94748e-06 0)
(-2.20468e-15 9.36282e-07 9.36282e-07)
(-1.24039e-16 -2.22056e-07 0)
(-6.98125e-18 5.26656e-08 5.26656e-08)
(-3.92375e-19 -1.24909e-08 0)
(-2.21651e-20 2.96272e-09 2.96272e-09)
(-1.23338e-21 -7.02566e-10 0)
(-7.16001e-23 1.66745e-10 1.66745e-10)
(-3.73685e-24 -3.93951e-11 0)
(-2.42158e-25 9.52688e-12 9.52688e-12)
(-1.24945e-26 -2.05097e-12 0)
(3.01987e-28 5.89357e-13 5.89357e-13)
(-3.12036e-29 -1.07269e-14 0)
(2.98477e-28 1.07055e-13 1.07055e-13)
(2.63602e-28 9.0195e-14 0)
(3.59105e-28 1.33037e-13 1.33037e-13)
(4.81434e-28 2.2557e-13 0)
(2.96701e-28 3.01011e-13 3.01011e-13)
(-2.17568e-29 6.51973e-14 -0)
(-1.33105e-13 -3.18037e-06 -3.18037e-06)
(-3.92011e-14 3.947e-06 -0)
(-2.20535e-15 -9.3621e-07 -9.3621e-07)
(-1.24132e-16 2.2205e-07 -0)
(-6.98272e-18 -5.26667e-08 -5.26667e-08)
(-3.93674e-19 1.24921e-08 -0)
(-2.20343e-20 -2.963e-09 -2.963e-09)
(-1.26324e-21 7.02856e-10 -0)
(-6.74079e-23 -1.6669e-10 -1.6669e-10)
(-4.36471e-24 3.95586e-11 -0)
(-1.64896e-25 -9.29063e-12 -9.29063e-12)
(-1.93425e-26 2.27978e-12 -0)
(-2.84723e-28 -4.42902e-13 -4.42902e-13)
(8.84417e-29 3.14251e-13 0)
(1.13227e-28 8.74303e-14 8.74303e-14)
(1.39541e-28 8.85671e-14 0)
(4.20325e-29 2.38194e-14 2.38194e-14)
(2.70015e-28 1.67878e-13 0)
(1.39798e-28 2.22626e-13 2.22626e-13)
(-9.75018e-30 2.81138e-14 -0)
(-1.32936e-13 3.17594e-06 3.17594e-06)
(-3.92089e-14 -3.94643e-06 0)
(-2.20611e-15 9.3611e-07 9.3611e-07)
(-1.24166e-16 -2.22035e-07 0)
(-6.99506e-18 5.26657e-08 5.26657e-08)
(-3.92752e-19 -1.24922e-08 0)
(-2.23028e-20 2.9634e-09 2.9634e-09)
(-1.22524e-21 -7.02834e-10 0)
(-7.41158e-23 1.66904e-10 1.66904e-10)
(-3.37997e-24 -3.94756e-11 0)
(-3.07995e-25 9.39835e-12 9.39835e-12)
(-1.2566e-27 -2.1562e-12 0)
(-2.3572e-27 6.05824e-13 6.05824e-13)
(8.95974e-29 -1.50195e-13 -0)
(4.55319e-30 9.01537e-14 9.01537e-14)
(-4.44312e-30 -6.62827e-15 0)
(1.73447e-29 1.86515e-14 1.86515e-14)
(9.11709e-29 8.88679e-14 0)
(3.44326e-29 1.10251e-13 1.10251e-13)
(1.22846e-30 -3.53365e-15 -0)
(-1.3285e-13 -3.1734e-06 -3.1734e-06)
(-3.92207e-14 3.94637e-06 -0)
(-2.20658e-15 -9.36118e-07 -9.36118e-07)
(-1.24274e-16 2.22043e-07 -0)
(-6.98882e-18 -5.26691e-08 -5.26691e-08)
(-3.94806e-19 1.24937e-08 -0)
(-2.20144e-20 -2.96367e-09 -2.96367e-09)
(-1.27591e-21 7.03042e-10 -0)
(-6.61993e-23 -1.6681e-10 -1.6681e-10)
(-4.60983e-24 3.95172e-11 -0)
(-1.29748e-25 -9.53379e-12 -9.53379e-12)
(-2.47159e-26 2.13843e-12 -0)
(9.23716e-28 -5.09793e-13 -5.09793e-13)
(-3.57064e-28 1.9278e-13 -0)
(7.88183e-30 -1.61799e-14 -1.61799e-14)
(-3.11211e-31 4.8564e-15 -0)
(-1.77856e-30 -6.41036e-15 -6.41036e-15)
(2.60298e-30 4.80146e-15 0)
(1.93945e-29 8.45309e-14 8.45309e-14)
(2.23603e-30 -7.37508e-15 -0)
(-1.3274e-13 3.17056e-06 3.17056e-06)
(-3.92244e-14 -3.946e-06 0)
(-2.20773e-15 9.36054e-07 9.36054e-07)
(-1.24252e-16 -2.22033e-07 0)
(-7.0092e-18 5.26681e-08 5.26681e-08)
(-3.9317e-19 -1.24938e-08 0)
(-2.23988e-20 2.96384e-09 2.96384e-09)
(-1.22707e-21 -7.03143e-10 0)
(-7.45796e-23 1.66726e-10 1.66726e-10)
(-3.39149e-24 -3.95633e-11 0)
(-3.12573e-25 9.32325e-12 9.32325e-12)
(-1.8412e-28 -2.30126e-12 0)
(-2.34298e-27 5.14892e-13 5.14892e-13)
(1.71125e-28 -1.34299e-13 -0)
(-6.71946e-29 8.74947e-14 8.74947e-14)
(-2.7036e-29 1.07371e-13 -0)
(-1.4151e-30 -2.54232e-14 -2.54232e-14)
(-1.40209e-30 -5.1268e-15 0)
(6.005e-30 5.61585e-14 5.61585e-14)
(-2.58939e-30 8.98773e-15 -0)
(-1.32761e-13 -3.1705e-06 -3.1705e-06)
(-3.92721e-14 3.94944e-06 -0)
(-2.21012e-15 -9.37594e-07 -9.37594e-07)
(-1.24564e-16 2.22571e-07 -0)
(-7.00497e-18 -5.2837e-08 -5.2837e-08)
(-3.95657e-19 1.25435e-08 -0)
(-2.20902e-20 -2.97794e-09 -2.97794e-09)
(-1.27049e-21 7.07095e-10 -0)
(-6.75205e-23 -1.67833e-10 -1.67833e-10)
(-4.387e-24 3.98685e-11 -0)
(-1.59677e-25 -9.44656e-12 -9.44656e-12)
(-2.14131e-26 2.22866e-12 -0)
(5.57272e-28 -5.32466e-13 -5.32466e-13)
(-1.82532e-28 1.16049e-13 -0)
(2.52803e-29 -4.35288e-14 -4.35288e-14)
(7.07103e-31 -2.17936e-15 -0)
(-2.19916e-31 1.30309e-14 1.30309e-14)
(4.96257e-30 5.682e-14 0)
(-2.53584e-30 5.90063e-14 5.90063e-14)
(6.36292e-30 -2.7465e-14 -0)
(-1.33274e-13 3.18221e-06 3.18221e-06)
(-3.93482e-14 -3.95205e-06 0)
(-2.22155e-15 9.39782e-07 9.39782e-07)
(-1.25505e-16 -2.23411e-07 0)
(-7.10057e-18 5.3109e-08 5.3109e-08)
(-4.02431e-19 -1.26771e-08 0)
(-2.27629e-20 3.00113e-09 3.00113e-09)
(-1.30375e-21 -7.2736e-10 0)
(-7.27385e-23 1.66874e-10 1.66874e-10)
(-4.35011e-24 -4.40454e-11 0)
(-2.19347e-25 8.16089e-12 8.16089e-12)
(-1.45958e-26 -3.30518e-12 0)
(-5.161e-29 2.3159e-14 2.3159e-14)
(5.58903e-29 -3.6678e-13 -0)
(3.56288e-29 -7.77821e-14 -7.77821e-14)
(1.74155e-29 -9.27779e-14 -0)
(1.37755e-30 -1.90319e-14 -1.90319e-14)
(-9.77763e-33 -3.74958e-15 0)
(6.27638e-31 -1.79915e-14 -1.79915e-14)
(3.49211e-30 -3.94464e-14 -0)
)
;

boundaryField
{
    movingWall
    {
        type            calculated;
        value           nonuniform List<vector> 
20
(
(0 3.27525e-06 -0)
(0 -3.98022e-06 -0)
(0 9.51626e-07 -0)
(0 -2.27047e-07 -0)
(0 5.42247e-08 -0)
(0 -1.30682e-08 -0)
(0 3.09363e-09 -0)
(0 -7.69559e-10 -0)
(0 1.71055e-10 -0)
(0 -5.02271e-11 -0)
(0 7.08116e-12 -0)
(0 -4.59656e-12 -0)
(0 -4.75747e-13 -0)
(0 -7.54361e-13 -0)
(0 -3.07329e-13 -0)
(0 -1.71795e-13 -0)
(0 -6.34408e-14 -0)
(0 -4.81585e-14 -0)
(0 -7.97043e-14 -0)
(0 -5.67503e-14 -0)
)
;
    }
    fixedWalls
    {
        type            calculated;
        value           nonuniform List<vector> 
60
(
(0 -1.686e-05 -0)
(0 1.68503e-05 -0)
(0 -1.68248e-05 -0)
(0 1.6817e-05 -0)
(0 -1.68022e-05 -0)
(0 1.67912e-05 -0)
(0 -1.6778e-05 -0)
(0 1.67676e-05 -0)
(0 -1.67576e-05 -0)
(0 1.67501e-05 -0)
(0 -1.67435e-05 -0)
(0 1.67386e-05 -0)
(0 -1.67346e-05 -0)
(0 1.67313e-05 -0)
(0 -1.67292e-05 -0)
(0 1.67267e-05 -0)
(0 -1.67263e-05 -0)
(0 1.67245e-05 -0)
(0 -1.6727e-05 -0)
(0 1.67422e-05 -0)
(0 5.55136e-14 -0)
(0 1.38651e-13 -0)
(0 1.60498e-13 -0)
(0 1.75745e-13 -0)
(0 2.62543e-13 -0)
(0 2.16992e-13 -0)
(0 2.31626e-13 -0)
(0 2.03158e-13 -0)
(0 1.28588e-13 -0)
(0 1.09588e-13 -0)
(0 2.79769e-14 -0)
(0 2.19518e-14 -0)
(0 -7.18392e-14 -0)
(0 -1.33483e-13 -0)
(0 -1.38725e-13 -0)
(0 -1.39059e-13 -0)
(0 -1.21275e-13 -0)
(0 -8.81361e-14 -0)
(0 -9.26696e-14 -0)
(0 -6.25163e-14 -0)
(0 -3.23714e-06 -0)
(0 3.9927e-06 -0)
(0 -9.50398e-07 -0)
(0 2.27339e-07 -0)
(0 -5.38583e-08 -0)
(0 1.31052e-08 -0)
(0 -2.99977e-09 -0)
(0 8.06245e-10 -0)
(0 -1.36098e-10 -0)
(0 7.22131e-11 -0)
(0 9.95348e-12 -0)
(0 1.67423e-11 -0)
(0 9.41872e-12 -0)
(0 6.90968e-12 -0)
(0 4.43985e-12 -0)
(0 2.75717e-12 -0)
(0 1.60684e-12 -0)
(0 7.40163e-13 -0)
(0 2.4289e-13 -0)
(0 1.06449e-13 -0)
)
;
    }
    frontAndBack
    {
        type            empty;
    }
}


// ************************************************************************* //
