/*--------------------------------*- C++ -*----------------------------------*\
| =========                 |                                                 |
| \\      /  F ield         | OpenFOAM: The Open Source CFD Toolbox           |
|  \\    /   O peration     | Version:  2312                                  |
|   \\  /    A nd           | Website:  www.openfoam.com                      |
|    \\/     M anipulation  |                                                 |
\*---------------------------------------------------------------------------*/
FoamFile
{
    version     2.0;
    format      ascii;
    arch        "LSB;label=32;scalar=64";
    class       volScalarField;
    location    "4.125";
    object      Lambda2Field;
}
// * * * * * * * * * * * * * * * * * * * * * * * * * * * * * * * * * * * * * //

dimensions      [0 0 -2 0 0 0 0];

internalField   nonuniform List<scalar> 
400
(
0
-1.49154e-14
0
-1.84997e-16
0
-1.76172e-18
4.78614e-20
-2.5243e-20
2.91135e-21
-5.53599e-22
9.2786e-23
-1.21606e-23
4.69994e-24
6.58081e-25
6.76276e-25
2.80876e-25
1.94278e-25
8.37223e-26
2.11424e-26
2.35625e-27
0
-1.42825e-14
0
-1.75919e-16
0
-1.30912e-18
0
-1.06028e-20
3.95358e-22
-1.04411e-22
2.45713e-23
3.57444e-24
3.51117e-24
1.51182e-24
8.90066e-25
4.72942e-25
2.46457e-25
9.50789e-26
4.17346e-26
0
0
-7.57623e-15
0
-2.83166e-17
0
1.39294e-19
0
5.98584e-21
0
1.61151e-22
0
8.6495e-24
2.0962e-24
1.45811e-24
7.42174e-25
3.66708e-25
1.88884e-25
9.34621e-26
1.17549e-26
8.59981e-29
0
-1.71394e-14
0
-9.36862e-17
0
-6.4733e-19
1.47584e-21
-7.56071e-21
7.64739e-22
-1.38125e-22
3.04617e-23
1.51331e-25
2.63247e-24
1.02165e-24
6.14032e-25
3.40499e-25
1.88076e-25
5.8547e-26
2.48493e-26
0
0
-1.9531e-14
0
-1.0309e-16
0
-4.48227e-19
0
1.33353e-21
0
1.20966e-22
0
6.65756e-24
1.18433e-24
1.11844e-24
5.4797e-25
2.85363e-25
1.3001e-25
8.68253e-26
7.34684e-28
-1.75065e-26
0
-2.03435e-14
0
-1.0542e-16
0
-5.87218e-19
0
-4.7463e-21
3.3875e-22
-9.3642e-23
2.07611e-23
-3.17667e-25
1.9399e-24
7.58768e-25
4.61994e-25
2.01785e-25
1.44771e-25
3.26188e-26
1.66738e-26
1.14141e-26
0
-1.82488e-14
0
-9.32456e-17
0
-4.74935e-19
0
-6.55687e-22
0
5.83851e-23
0
4.07144e-24
7.05128e-25
6.36955e-25
3.37916e-25
2.14733e-25
8.40975e-26
4.71809e-26
3.46575e-26
1.15216e-26
0
-1.53909e-14
0
-7.39839e-17
0
-3.85195e-19
0
-2.03728e-21
6.96016e-23
-3.31512e-23
9.33076e-24
0
1.24459e-24
4.28483e-25
2.65347e-25
7.96392e-26
6.61216e-27
3.27175e-26
2.21648e-26
0
0
-1.12279e-14
0
-5.00209e-17
0
-2.67782e-19
0
-8.05634e-22
0
1.40508e-23
0
1.90535e-24
6.59515e-25
5.45402e-25
2.94649e-25
1.78563e-25
6.56829e-26
9.30475e-27
7.34684e-28
9.10147e-28
0
-6.91276e-15
0
-2.35765e-17
0
-1.06613e-19
0
0
0
0
2.14266e-24
7.703e-25
7.54993e-25
4.09146e-25
2.54823e-25
1.4671e-25
7.89278e-26
2.20524e-26
0
-7.57146e-27
0
-2.1258e-15
0
0
0
0
1.03317e-20
0
1.58952e-22
-6.02752e-24
5.43238e-24
4.96646e-25
6.17869e-25
3.8396e-25
2.44607e-25
5.95094e-26
7.34684e-26
4.64491e-26
1.23107e-26
6.92779e-27
0
0
0
0
1.17698e-18
0
1.34271e-20
2.172e-22
6.71796e-24
1.32626e-23
0
1.25501e-24
3.69056e-25
3.20865e-25
2.09673e-25
7.68286e-26
5.95094e-26
1.91477e-26
1.83671e-26
1.00681e-27
9.60749e-15
2.08849e-15
4.07782e-16
1.19563e-17
3.13932e-18
5.4543e-20
2.84452e-20
0
3.49335e-22
-2.03553e-23
1.03612e-23
0
6.67635e-25
2.14015e-25
1.71148e-25
6.69251e-26
2.36901e-26
1.63037e-26
0
1.51e-27
2.59559e-14
6.49209e-15
8.36212e-16
3.54823e-17
4.75594e-18
2.09606e-19
2.67214e-20
1.86063e-21
0
4.20473e-23
0
1.95205e-24
1.01802e-25
2.42973e-25
1.32721e-25
7.64801e-26
2.21754e-26
5.88581e-27
0
0
4.0086e-14
1.03995e-14
1.19395e-15
5.63428e-17
6.23715e-18
2.82231e-19
4.25652e-20
2.49287e-22
4.78668e-22
-3.04512e-23
1.16677e-23
-6.70155e-25
6.18195e-25
1.47632e-25
1.0153e-25
5.33838e-26
2.65377e-26
6.12325e-27
1.31256e-27
1.94313e-30
5.42623e-14
1.43249e-14
1.55456e-15
7.80219e-17
7.32566e-18
4.66699e-19
3.09499e-20
3.80385e-21
0
6.84023e-23
0
2.20804e-24
1.97116e-27
1.41672e-25
6.12646e-26
2.55182e-26
2.02947e-26
4.93807e-27
3.72305e-27
0
6.27117e-14
1.68562e-14
1.75718e-15
8.99126e-17
8.40439e-18
4.10502e-19
5.39238e-20
5.72083e-23
5.76169e-22
-4.08865e-23
1.07517e-23
-9.01215e-25
4.53841e-25
4.60295e-26
3.56921e-26
1.28294e-26
1.09401e-26
5.66155e-27
0
0
7.15898e-14
1.89599e-14
1.96153e-15
1.14285e-16
8.37662e-18
7.36645e-19
3.16209e-20
5.59208e-21
0
7.55843e-23
0
1.72859e-24
0
9.2271e-26
1.93987e-26
1.56275e-26
1.42378e-27
2.06828e-27
7.34684e-28
5.42213e-28
7.24722e-14
8.77276e-15
7.99249e-16
-1.73015e-17
0
-3.12542e-19
0
-3.6304e-21
1.45862e-22
-4.62473e-23
6.28255e-24
-5.4041e-25
2.91262e-25
2.01605e-26
1.15859e-26
3.09795e-27
2.23233e-27
5.92248e-28
0
3.98301e-28
3.29567e-14
-9.765e-16
0
-7.98083e-17
0
-7.51005e-19
0
-8.33025e-21
5.50712e-22
-1.2733e-22
1.53174e-23
-1.8016e-24
3.05519e-25
-3.82598e-27
1.20422e-26
5.32372e-28
1.70223e-28
8.09029e-29
3.88571e-28
4.00171e-28
)
;

boundaryField
{
    movingWall
    {
        type            calculated;
        value           nonuniform List<scalar> 
20
(
0
0
0
0
0
0
0
0
0
0
2.55045e-23
-2.13411e-24
5.91347e-25
-7.57623e-26
1.28532e-26
0
0
0
1.54413e-27
1.86619e-28
)
;
    }
    fixedWalls
    {
        type            calculated;
        value           nonuniform List<scalar> 
60
(
0
-1.31867e-14
0
-3.20521e-13
0
-4.02794e-13
0
-3.13708e-13
0
-1.47833e-13
0
0
1.25128e-13
1.18652e-13
2.71704e-13
2.72163e-13
3.6492e-13
3.69504e-13
3.9244e-13
1.71974e-13
1.97215e-27
6.88854e-28
0
0
0
6.77503e-27
7.01293e-27
0
0
-2.63565e-28
1.493e-27
0
2.80022e-27
0
1.97215e-27
0
0
3.17476e-27
1.97215e-27
6.54706e-29
0
0
0
0
0
0
0
0
5.54309e-21
-1.56295e-23
1.86011e-22
-3.27092e-23
6.03841e-24
-3.79307e-25
3.82758e-25
1.00102e-25
1.18854e-25
5.08795e-26
1.48571e-26
1.8362e-28
)
;
    }
    frontAndBack
    {
        type            empty;
    }
}


// ************************************************************************* //
