/*--------------------------------*- C++ -*----------------------------------*\
| =========                 |                                                 |
| \\      /  F ield         | OpenFOAM: The Open Source CFD Toolbox           |
|  \\    /   O peration     | Version:  2312                                  |
|   \\  /    A nd           | Website:  www.openfoam.com                      |
|    \\/     M anipulation  |                                                 |
\*---------------------------------------------------------------------------*/
FoamFile
{
    version     2.0;
    format      ascii;
    arch        "LSB;label=32;scalar=64";
    class       volScalarField;
    location    "4.125";
    object      QField;
}
// * * * * * * * * * * * * * * * * * * * * * * * * * * * * * * * * * * * * * //

dimensions      [0 0 -2 0 0 0 0];

internalField   nonuniform List<scalar> 
400
(
1.14256e-14
1.49323e-14
1.41519e-15
1.87035e-16
7.80411e-18
1.79047e-18
-4.22113e-20
2.53949e-20
-2.81809e-21
5.60451e-22
-9.52303e-23
1.23893e-23
-4.53041e-24
-7.16354e-25
-6.74554e-25
-2.97519e-25
-1.80659e-25
-8.3762e-26
-2.50147e-26
-2.63142e-27
2.51257e-15
1.42853e-14
1.18567e-15
1.7599e-16
8.7184e-18
1.31087e-18
2.99828e-20
1.06514e-20
-3.8398e-22
1.05996e-22
-2.39655e-23
-3.60358e-24
-3.50006e-24
-1.53783e-24
-8.88218e-25
-4.81033e-25
-2.48374e-25
-1.01823e-25
-3.7543e-26
0
2.12767e-14
7.57625e-15
5.80289e-16
2.83269e-17
4.35681e-18
-1.39346e-19
5.53411e-20
-5.98746e-21
9.63767e-22
-1.6134e-22
1.26897e-23
-8.74117e-24
-2.11723e-24
-1.46485e-24
-7.34141e-25
-3.7116e-25
-1.95957e-25
-9.61004e-26
-1.49206e-26
-2.51359e-28
6.12217e-14
1.71672e-14
1.55805e-15
9.39725e-17
5.80857e-18
6.51595e-19
-1.17077e-21
7.61545e-21
-7.61157e-22
1.39033e-22
-3.02862e-23
-2.61471e-25
-2.66469e-24
-1.04314e-24
-6.18801e-25
-3.4798e-25
-1.86945e-25
-6.51661e-26
-2.49404e-26
0
7.21394e-14
1.97258e-14
1.86723e-15
1.04736e-16
7.90019e-18
4.60072e-19
5.29853e-20
-1.29737e-21
8.3642e-22
-1.2067e-22
1.53344e-23
-6.66911e-24
-1.20014e-24
-1.12837e-24
-5.45863e-25
-2.86235e-25
-1.34161e-25
-8.83019e-26
-2.12306e-27
1.95189e-26
7.91791e-14
2.09807e-14
2.08841e-15
1.10813e-16
8.40226e-18
6.23649e-19
2.6765e-20
5.0739e-21
-3.2409e-22
9.78745e-23
-2.08332e-23
3.97728e-25
-1.94167e-24
-7.591e-25
-4.60785e-25
-2.02105e-25
-1.38898e-25
-3.32548e-26
-1.49816e-26
-1.15968e-26
7.475e-14
1.95304e-14
1.95953e-15
1.04056e-16
7.82757e-18
5.39141e-19
3.89218e-20
1.05315e-21
4.65987e-22
-5.78298e-23
9.26065e-24
-4.1365e-24
-7.16733e-25
-6.45291e-25
-3.33468e-25
-2.19275e-25
-8.40465e-26
-4.72449e-26
-3.24241e-26
-1.15216e-26
6.76888e-14
1.75014e-14
1.78614e-15
9.18154e-17
7.27508e-18
4.90346e-19
2.97433e-20
2.83212e-21
-2.26819e-23
4.27389e-23
-9.73019e-24
-1.87827e-25
-1.26646e-24
-4.30686e-25
-2.59749e-25
-8.19417e-26
-9.26095e-27
-3.56174e-26
-1.9763e-26
0
5.54416e-14
1.42062e-14
1.45286e-15
7.52105e-17
5.72754e-18
4.10609e-19
2.4123e-20
1.6871e-21
1.6351e-22
-1.13784e-23
1.80494e-24
-2.10033e-24
-7.22936e-25
-5.65649e-25
-2.85002e-25
-1.79601e-25
-6.44922e-26
-1.04583e-26
-1.89835e-27
-1.63545e-27
4.21951e-14
1.06754e-14
1.10932e-15
5.53819e-17
4.50833e-18
2.86413e-19
2.05396e-20
1.13972e-21
1.07411e-22
3.10961e-24
-2.56968e-24
-1.09746e-24
-8.15564e-25
-4.20955e-25
-2.47639e-25
-1.52679e-25
-8.18068e-26
-2.81758e-26
7.63752e-27
7.90916e-27
2.65148e-14
6.51935e-15
6.87944e-16
3.39016e-17
2.60522e-18
1.92175e-19
8.59081e-21
1.16646e-21
-6.74269e-24
1.11011e-23
-3.35353e-24
-7.14388e-25
-6.22373e-25
-4.19888e-25
-2.6526e-25
-7.9689e-26
-6.8542e-26
-5.05589e-26
-1.3602e-26
-7.51914e-27
1.0367e-14
2.24197e-15
2.60844e-16
1.06769e-17
9.42788e-19
4.45121e-20
5.76165e-21
-3.21105e-22
1.06827e-22
-1.84845e-23
1.15609e-24
-1.56839e-24
-4.28866e-25
-3.44211e-25
-2.06817e-25
-8.28248e-26
-5.37354e-26
-2.43957e-26
-1.24452e-26
-1.7201e-27
-6.11303e-15
-2.13808e-15
-1.78768e-16
-1.23999e-17
-9.9233e-19
-5.63933e-20
-8.36877e-21
3.95467e-22
-1.93291e-22
2.70627e-23
-8.22695e-24
1.78824e-25
-7.05428e-25
-2.35842e-25
-1.98828e-25
-7.52038e-26
-2.54951e-26
-1.82131e-26
2.27573e-28
-2.10653e-27
-2.26872e-14
-6.5426e-15
-6.23367e-16
-3.5946e-17
-2.77775e-18
-2.13893e-19
-8.86112e-21
-1.95255e-21
1.25788e-22
-4.60178e-23
5.72408e-24
-2.12696e-24
-1.62257e-25
-2.52106e-25
-1.36814e-25
-8.96525e-26
-2.70313e-26
-7.40564e-27
9.11024e-27
0
-3.72254e-14
-1.04447e-14
-1.00772e-15
-5.67017e-17
-4.48888e-18
-2.83372e-19
-2.62753e-20
-2.07946e-22
-3.55735e-22
3.64609e-23
-1.02861e-23
7.79543e-25
-5.94991e-25
-1.48269e-25
-1.02263e-25
-5.52018e-26
-2.88638e-26
-8.85948e-27
-1.75922e-28
3.77834e-29
-5.19465e-14
-1.43617e-14
-1.40501e-15
-7.83595e-17
-5.93407e-18
-4.69942e-19
-1.85006e-20
-3.85664e-21
1.95062e-22
-7.00924e-23
7.72986e-24
-2.24686e-24
-2.34556e-27
-1.48198e-25
-6.12852e-26
-2.93721e-26
-2.20827e-26
-6.99633e-27
-3.72305e-27
0
-6.10339e-14
-1.68801e-14
-1.64953e-15
-9.00834e-17
-7.38695e-18
-4.11422e-19
-4.46293e-20
-6.17892e-23
-5.13558e-22
4.56844e-23
-1.03083e-23
9.26396e-25
-4.52592e-25
-4.67645e-26
-3.57355e-26
-1.37156e-26
-1.27652e-26
-6.11842e-27
0
0
-7.0478e-14
-1.89805e-14
-1.89027e-15
-1.14276e-16
-7.70509e-18
-7.35123e-19
-2.53798e-20
-5.55268e-21
1.2652e-22
-7.43035e-23
6.19625e-24
-1.73314e-24
4.30905e-26
-9.2271e-26
-1.93987e-26
-1.56275e-26
-1.42378e-27
-2.46539e-27
-7.38375e-28
-6.84908e-28
-7.19238e-14
-8.81563e-15
-7.64311e-16
2.31234e-17
1.30208e-18
3.40048e-19
9.78755e-21
3.80461e-21
-1.39406e-22
4.82887e-23
-6.34909e-24
5.66898e-25
-2.80729e-25
-2.58199e-26
-1.18318e-26
-3.40431e-27
-2.23233e-27
-1.32693e-27
4.80295e-28
-5.40948e-28
-3.27825e-14
1.26573e-15
2.95375e-16
8.67127e-17
5.55597e-18
8.24295e-19
1.60207e-20
8.92397e-21
-4.60394e-22
1.29762e-22
-1.38308e-23
1.90229e-24
-3.3128e-25
5.53351e-27
-1.15503e-26
-6.85692e-28
-2.41933e-28
-2.43799e-28
-4.58067e-28
-5.33397e-28
)
;

boundaryField
{
    movingWall
    {
        type            calculated;
        value           nonuniform List<scalar> 
20
(
3.69565e-14
4.23286e-14
5.64095e-15
2.83515e-16
1.70575e-17
2.19434e-18
-1.03307e-20
2.17659e-20
-1.68962e-21
3.40749e-22
-4.17309e-23
5.82885e-24
-7.88466e-25
9.22982e-26
-2.09634e-26
1.06791e-27
6.04293e-29
1.38243e-28
-1.18767e-27
-4.11758e-28
)
;
    }
    fixedWalls
    {
        type            calculated;
        value           nonuniform List<scalar> 
60
(
5.99028e-14
1.31913e-14
1.11618e-13
3.20997e-13
3.78179e-13
4.15038e-13
3.91813e-13
3.54804e-13
2.90623e-13
2.212e-13
1.39012e-13
5.43595e-14
-3.20502e-14
-1.18969e-13
-1.95224e-13
-2.7245e-13
-3.20131e-13
-3.69681e-13
-3.77285e-13
-1.72034e-13
-2.15566e-27
2.33111e-27
0
0
1.05349e-26
-7.73535e-27
-7.01293e-27
0
0
3.0518e-27
-1.493e-27
0
-3.45135e-27
0
6.19043e-29
0
0
-3.4412e-27
-8.8629e-28
-4.6216e-28
4.50248e-14
4.76438e-14
2.9966e-15
3.72948e-16
-5.44532e-19
3.57716e-18
-2.64695e-19
5.79236e-20
-7.94178e-21
1.39023e-21
-2.23909e-22
3.7595e-23
-7.00224e-24
5.44978e-25
-4.42436e-25
-1.18166e-25
-1.05343e-25
-5.36423e-26
-1.97384e-26
-2.54285e-28
)
;
    }
    frontAndBack
    {
        type            empty;
    }
}


// ************************************************************************* //
