/*--------------------------------*- C++ -*----------------------------------*\
| =========                 |                                                 |
| \\      /  F ield         | OpenFOAM: The Open Source CFD Toolbox           |
|  \\    /   O peration     | Version:  2312                                  |
|   \\  /    A nd           | Website:  www.openfoam.com                      |
|    \\/     M anipulation  |                                                 |
\*---------------------------------------------------------------------------*/
FoamFile
{
    version     2.0;
    format      ascii;
    arch        "LSB;label=32;scalar=64";
    class       volScalarField;
    location    "4.125";
    object      staticCoeffP;
}
// * * * * * * * * * * * * * * * * * * * * * * * * * * * * * * * * * * * * * //

dimensions      [0 0 0 0 0 0 0];

internalField   nonuniform List<scalar> 
400
(
0
0
1.13758e-11
2.09077e-12
4.18066e-12
2.74936e-12
2.84572e-12
2.62412e-12
2.58638e-12
2.53575e-12
2.51266e-12
2.49534e-12
2.48557e-12
2.47891e-12
2.47447e-12
2.47091e-12
2.46869e-12
2.46692e-12
2.46558e-12
2.46514e-12
9.53015e-12
1.68221e-12
4.53815e-12
2.46869e-12
3.0167e-12
2.67741e-12
2.67386e-12
2.58282e-12
2.54907e-12
2.51754e-12
2.49978e-12
2.48823e-12
2.48024e-12
2.47491e-12
2.47136e-12
2.46914e-12
2.46736e-12
2.46603e-12
2.4647e-12
2.46381e-12
0
0
0
1.6751e-12
2.31104e-12
2.47358e-12
2.50289e-12
2.502e-12
2.49356e-12
2.48512e-12
2.47846e-12
2.47358e-12
2.47047e-12
2.4678e-12
2.46603e-12
2.46514e-12
2.46425e-12
2.46336e-12
2.46203e-12
2.46114e-12
1.83689e-11
0
4.31877e-12
1.48992e-12
2.33102e-12
2.21867e-12
2.38698e-12
2.40874e-12
2.43849e-12
2.44693e-12
2.4527e-12
2.45537e-12
2.45715e-12
2.45848e-12
2.45937e-12
2.45981e-12
2.45981e-12
2.45937e-12
2.45848e-12
2.45848e-12
0
1.67035e-11
0
2.70806e-12
1.65645e-12
2.27018e-12
2.25864e-12
2.359e-12
2.38565e-12
2.41274e-12
2.42695e-12
2.43672e-12
2.44293e-12
2.44782e-12
2.45137e-12
2.45359e-12
2.45448e-12
2.45448e-12
2.45448e-12
2.45493e-12
3.10925e-11
0
5.0977e-12
0
2.59037e-12
2.01617e-12
2.28928e-12
2.29283e-12
2.35545e-12
2.38165e-12
2.4043e-12
2.41895e-12
2.42961e-12
2.43716e-12
2.44249e-12
2.44649e-12
2.44871e-12
2.44915e-12
2.4496e-12
2.45048e-12
0
5.35838e-11
0
4.70823e-12
1.24301e-12
2.29017e-12
2.14539e-12
2.29594e-12
2.32125e-12
2.36211e-12
2.38476e-12
2.4043e-12
2.41762e-12
2.42739e-12
2.4345e-12
2.43983e-12
2.44293e-12
2.44427e-12
2.44471e-12
2.4456e-12
4.13918e-11
0
5.21716e-12
0
2.97229e-12
1.92513e-12
2.28972e-12
2.24354e-12
2.31637e-12
2.34301e-12
2.37188e-12
2.39186e-12
2.40741e-12
2.41851e-12
2.42739e-12
2.43361e-12
2.43761e-12
2.43938e-12
2.43983e-12
2.44071e-12
0
8.64788e-11
0
6.55964e-12
9.5568e-13
2.36788e-12
2.09877e-12
2.28129e-12
2.29416e-12
2.33813e-12
2.36167e-12
2.38343e-12
2.39897e-12
2.4114e-12
2.42117e-12
2.42828e-12
2.43272e-12
2.4345e-12
2.43539e-12
2.43627e-12
4.8296e-11
0
5.18741e-12
0
3.28004e-12
1.89315e-12
2.32392e-12
2.23332e-12
2.30704e-12
2.3288e-12
2.35767e-12
2.37765e-12
2.39408e-12
2.40652e-12
2.41585e-12
2.42339e-12
2.42784e-12
2.43006e-12
2.43139e-12
2.43228e-12
0
1.07581e-10
0
7.8062e-12
8.24674e-13
2.44826e-12
2.09788e-12
2.29283e-12
2.29283e-12
2.33413e-12
2.35501e-12
2.37588e-12
2.39142e-12
2.40297e-12
2.41229e-12
2.41984e-12
2.42428e-12
2.4265e-12
2.42828e-12
2.42872e-12
5.06368e-11
0
5.09726e-12
0
3.46656e-12
1.91536e-12
2.36744e-12
2.24931e-12
2.3177e-12
2.3328e-12
2.35856e-12
2.37588e-12
2.39098e-12
2.40119e-12
2.40963e-12
2.41673e-12
2.42162e-12
2.42384e-12
2.42517e-12
2.42562e-12
0
1.13524e-10
0
8.20277e-12
8.65086e-13
2.51266e-12
2.13429e-12
2.32214e-12
2.31193e-12
2.34657e-12
2.36211e-12
2.37899e-12
2.39142e-12
2.40119e-12
2.40874e-12
2.41496e-12
2.4194e-12
2.42117e-12
2.42295e-12
2.42295e-12
4.76548e-11
0
4.9174e-12
0
3.51497e-12
1.9944e-12
2.41496e-12
2.28884e-12
2.34524e-12
2.35278e-12
2.37188e-12
2.38343e-12
2.39453e-12
2.40297e-12
2.40874e-12
2.41362e-12
2.41762e-12
2.4194e-12
2.42073e-12
2.42162e-12
0
1.03676e-10
0
7.68807e-12
1.08269e-12
2.56195e-12
2.21112e-12
2.36877e-12
2.34968e-12
2.37277e-12
2.38076e-12
2.39098e-12
2.39853e-12
2.40519e-12
2.41007e-12
2.41362e-12
2.41673e-12
2.41851e-12
2.4194e-12
2.42029e-12
3.92681e-11
0
4.59499e-12
0
3.4408e-12
2.13829e-12
2.47402e-12
2.35501e-12
2.39009e-12
2.38609e-12
2.39453e-12
2.39941e-12
2.4043e-12
2.40785e-12
2.41185e-12
2.41407e-12
2.41629e-12
2.41762e-12
2.41895e-12
2.4194e-12
0
7.98912e-11
4.6807e-13
6.4122e-12
1.50235e-12
2.61968e-12
2.34035e-12
2.43672e-12
2.40608e-12
2.41007e-12
2.40652e-12
2.40785e-12
2.40918e-12
2.4114e-12
2.41318e-12
2.4154e-12
2.41673e-12
2.41718e-12
2.41851e-12
2.41895e-12
2.62563e-11
0
4.26637e-12
0
3.37641e-12
2.37321e-12
2.56906e-12
2.44516e-12
2.44649e-12
2.42606e-12
2.42073e-12
2.4154e-12
2.41407e-12
2.41451e-12
2.4154e-12
2.41673e-12
2.41718e-12
2.41718e-12
2.41807e-12
2.41895e-12
0
4.45608e-11
2.85949e-12
4.77662e-12
2.38565e-12
2.70672e-12
2.53086e-12
2.50955e-12
2.46558e-12
2.44427e-12
2.4305e-12
2.42206e-12
2.41851e-12
2.41718e-12
2.41718e-12
2.41762e-12
2.41718e-12
2.41762e-12
2.41807e-12
2.41851e-12
8.66551e-12
0
1.02962e-11
3.4639e-14
3.96128e-12
2.44826e-12
2.7125e-12
2.50422e-12
2.49267e-12
2.45093e-12
2.43716e-12
2.42562e-12
2.42117e-12
2.41895e-12
2.41807e-12
2.41762e-12
2.41718e-12
2.41807e-12
2.41807e-12
2.41851e-12
)
;

boundaryField
{
    movingWall
    {
        type            calculated;
        value           nonuniform List<scalar> 
20
(
8.66551e-12
0
1.02962e-11
3.4639e-14
3.96128e-12
2.44826e-12
2.7125e-12
2.50422e-12
2.49267e-12
2.45093e-12
2.43716e-12
2.42562e-12
2.42117e-12
2.41895e-12
2.41807e-12
2.41762e-12
2.41718e-12
2.41807e-12
2.41807e-12
2.41851e-12
)
;
    }
    fixedWalls
    {
        type            calculated;
        value           nonuniform List<scalar> 
60
(
0
9.53015e-12
0
1.83689e-11
0
3.10925e-11
0
4.13918e-11
0
4.8296e-11
0
5.06368e-11
0
4.76548e-11
0
3.92681e-11
0
2.62563e-11
0
8.66551e-12
2.46514e-12
2.46381e-12
2.46114e-12
2.45848e-12
2.45493e-12
2.45048e-12
2.4456e-12
2.44071e-12
2.43627e-12
2.43228e-12
2.42872e-12
2.42562e-12
2.42295e-12
2.42162e-12
2.42029e-12
2.4194e-12
2.41895e-12
2.41895e-12
2.41851e-12
2.41851e-12
0
0
1.13758e-11
2.09077e-12
4.18066e-12
2.74936e-12
2.84572e-12
2.62412e-12
2.58638e-12
2.53575e-12
2.51266e-12
2.49534e-12
2.48557e-12
2.47891e-12
2.47447e-12
2.47091e-12
2.46869e-12
2.46692e-12
2.46558e-12
2.46514e-12
)
;
    }
    frontAndBack
    {
        type            empty;
    }
}


// ************************************************************************* //
