/*--------------------------------*- C++ -*----------------------------------*\
| =========                 |                                                 |
| \\      /  F ield         | OpenFOAM: The Open Source CFD Toolbox           |
|  \\    /   O peration     | Version:  2312                                  |
|   \\  /    A nd           | Website:  www.openfoam.com                      |
|    \\/     M anipulation  |                                                 |
\*---------------------------------------------------------------------------*/
FoamFile
{
    version     2.0;
    format      ascii;
    arch        "LSB;label=32;scalar=64";
    class       volScalarField;
    location    "4.125";
    object      Uy;
}
// * * * * * * * * * * * * * * * * * * * * * * * * * * * * * * * * * * * * * //

dimensions      [0 1 -1 0 0 0 0];

internalField   nonuniform List<scalar> 
400
(
4.21412e-08
-1.00029e-08
2.37634e-09
-5.63674e-10
1.34184e-10
-3.17356e-11
7.61593e-12
-1.76725e-12
4.46988e-13
-8.87448e-14
3.3055e-14
4.58272e-16
5.96399e-15
3.08252e-15
2.59235e-15
1.76071e-15
1.2219e-15
7.91331e-16
4.81613e-16
1.38784e-16
-4.21238e-08
1.0001e-08
-2.36936e-09
5.63199e-10
-1.32883e-10
3.18203e-11
-7.3476e-12
1.85456e-12
-3.64726e-13
1.35618e-13
1.97167e-15
2.35341e-14
1.1832e-14
1.00254e-14
7.14782e-15
5.26115e-15
3.66361e-15
2.4625e-15
1.38279e-15
3.46628e-16
4.20455e-08
-9.97223e-09
2.36638e-09
-5.60462e-10
1.33498e-10
-3.12981e-11
7.65857e-12
-1.66242e-12
4.9796e-13
-4.65036e-14
6.17059e-14
2.20071e-14
2.16318e-14
1.46951e-14
1.11951e-14
8.13907e-15
5.84623e-15
3.99906e-15
2.15805e-15
4.01244e-16
-4.19947e-08
9.95424e-09
-2.36001e-09
5.59895e-10
-1.3229e-10
3.1661e-11
-7.27951e-12
1.88266e-12
-3.3243e-13
1.60614e-13
2.19124e-14
3.92125e-14
2.39346e-14
1.91674e-14
1.4035e-14
1.04976e-14
7.64471e-15
5.27034e-15
2.75897e-15
4.39363e-16
4.19492e-08
-9.93927e-09
2.35702e-09
-5.58263e-10
1.32542e-10
-3.11844e-11
7.56972e-12
-1.65058e-12
4.99647e-13
-3.58292e-14
7.09294e-14
3.06172e-14
2.88835e-14
2.07647e-14
1.61717e-14
1.20117e-14
8.78986e-15
6.12754e-15
3.25065e-15
5.20832e-16
-4.19162e-08
9.92927e-09
-2.35425e-09
5.5793e-10
-1.31998e-10
3.14483e-11
-7.30149e-12
1.84912e-12
-3.41368e-13
1.57245e-13
2.28569e-14
4.1393e-14
2.66648e-14
2.20791e-14
1.66677e-14
1.2625e-14
9.30631e-15
6.49073e-15
3.54224e-15
6.10244e-16
4.18867e-08
-9.92221e-09
2.35281e-09
-5.57311e-10
1.3216e-10
-3.11991e-11
7.4988e-12
-1.67988e-12
4.7884e-13
-4.64582e-14
6.52336e-14
2.81265e-14
2.80158e-14
2.06943e-14
1.63467e-14
1.24864e-14
9.33236e-15
6.49791e-15
3.60391e-15
6.46829e-16
-4.18662e-08
9.91823e-09
-2.35179e-09
5.57269e-10
-1.31962e-10
3.1359e-11
-7.34528e-12
1.81425e-12
-3.64735e-13
1.41602e-13
1.26736e-14
3.51805e-14
2.29097e-14
1.97425e-14
1.53149e-14
1.18768e-14
8.7736e-15
6.24581e-15
3.41212e-15
5.07895e-16
4.18507e-08
-9.91641e-09
2.3515e-09
-5.57187e-10
1.32096e-10
-3.12539e-11
7.46108e-12
-1.7135e-12
4.55304e-13
-6.43867e-14
5.25923e-14
1.91354e-14
2.19394e-14
1.66835e-14
1.38427e-14
1.07185e-14
8.19346e-15
5.89352e-15
3.08612e-15
3.2147e-16
-4.18422e-08
9.91653e-09
-2.35159e-09
5.57361e-10
-1.32083e-10
3.13459e-11
-7.39075e-12
1.78857e-12
-3.88797e-13
1.23972e-13
-1.09934e-15
2.5022e-14
1.54133e-14
1.44316e-14
1.14864e-14
9.20519e-15
7.22052e-15
5.28119e-15
2.71176e-15
2.06209e-16
4.1838e-08
-9.91813e-09
2.35206e-09
-5.57582e-10
1.32203e-10
-3.13296e-11
7.44578e-12
-1.74392e-12
4.35062e-13
-8.20993e-14
3.91506e-14
8.72579e-15
1.40326e-14
1.0784e-14
9.39073e-15
7.53673e-15
5.89228e-15
4.40851e-15
2.33371e-15
1.37705e-16
-4.18383e-08
9.92082e-09
-2.3528e-09
5.57888e-10
-1.32298e-10
3.13733e-11
-7.43589e-12
1.77012e-12
-4.10521e-13
1.08238e-13
-1.39723e-14
1.4885e-14
7.49553e-15
8.23519e-15
6.91795e-15
5.93851e-15
4.69176e-15
3.63323e-15
1.96432e-15
5.48794e-17
4.18413e-08
-9.92426e-09
2.35368e-09
-5.58265e-10
1.32392e-10
-3.14185e-11
7.4411e-12
-1.77174e-12
4.18051e-13
-9.79554e-14
2.70054e-14
-1.09287e-15
6.37366e-15
4.68174e-15
4.89655e-15
4.35407e-15
3.68952e-15
2.84027e-15
1.41542e-15
-1.79598e-16
-4.18459e-08
9.92803e-09
-2.35472e-09
5.58591e-10
-1.32558e-10
3.14128e-11
-7.48135e-12
1.75553e-12
-4.29398e-13
9.48556e-14
-2.54183e-14
6.09199e-15
5.124e-16
2.90892e-15
2.78807e-15
2.92258e-15
2.69927e-15
2.1343e-15
9.85681e-16
-3.33708e-16
4.1852e-08
-9.93185e-09
2.35562e-09
-5.59025e-10
1.32583e-10
-3.15138e-11
7.43647e-12
-1.7973e-12
4.0439e-13
-1.10335e-13
1.77486e-14
-8.4844e-15
6.42857e-16
2.81436e-16
1.29505e-15
1.57554e-15
1.76463e-15
1.60839e-15
6.27949e-16
-3.46812e-16
-4.18573e-08
9.93528e-09
-2.35668e-09
5.59219e-10
-1.3282e-10
3.14399e-11
-7.52607e-12
1.74328e-12
-4.44061e-13
8.56216e-14
-3.27712e-14
5.82787e-16
-3.8909e-15
-5.96539e-16
5.05048e-17
6.70329e-16
9.29939e-16
1.02592e-15
3.12311e-16
-3.47647e-16
4.18635e-08
-9.93843e-09
2.35717e-09
-5.59685e-10
1.32693e-10
-3.16003e-11
7.42809e-12
-1.81484e-12
3.96855e-13
-1.16654e-13
1.36092e-14
-1.1558e-14
-1.81194e-15
-1.85219e-15
-4.87137e-16
-6.40827e-17
2.77451e-16
5.42122e-16
2.29436e-16
-3.03187e-16
-4.18665e-08
9.9403e-09
-2.35855e-09
5.59611e-10
-1.33082e-10
3.14691e-11
-7.55735e-12
1.74512e-12
-4.4732e-13
8.57231e-14
-3.35262e-14
8.00084e-17
-4.55043e-15
-1.27421e-15
-7.67985e-16
-2.51801e-16
5.56615e-17
2.73483e-16
1.06929e-16
-2.88103e-16
4.18738e-08
-9.94371e-09
2.35722e-09
-5.59659e-10
1.32577e-10
-3.15428e-11
7.41796e-12
-1.79677e-12
4.02307e-13
-1.10037e-13
1.69032e-14
-9.60806e-15
-1.04659e-15
-1.57289e-15
-5.80771e-16
-3.24454e-16
-1.68765e-17
8.73384e-17
-4.29758e-17
-2.31674e-16
-4.18811e-08
9.9564e-09
-2.3639e-09
5.61767e-10
-1.33698e-10
3.17446e-11
-7.5848e-12
1.79244e-12
-4.3589e-13
9.87643e-14
-2.68778e-14
4.41602e-15
-2.22851e-15
-1.52381e-16
-4.58059e-16
-1.87712e-16
-7.23811e-17
2.60766e-18
-3.48853e-17
-8.8528e-17
)
;

boundaryField
{
    movingWall
    {
        type            calculated;
        value           uniform -0;
    }
    fixedWalls
    {
        type            calculated;
        value           uniform -0;
    }
    frontAndBack
    {
        type            empty;
    }
}


// ************************************************************************* //
