/*--------------------------------*- C++ -*----------------------------------*\
| =========                 |                                                 |
| \\      /  F ield         | OpenFOAM: The Open Source CFD Toolbox           |
|  \\    /   O peration     | Version:  2312                                  |
|   \\  /    A nd           | Website:  www.openfoam.com                      |
|    \\/     M anipulation  |                                                 |
\*---------------------------------------------------------------------------*/
FoamFile
{
    version     2.0;
    format      ascii;
    arch        "LSB;label=32;scalar=64";
    class       volScalarField;
    location    "4.125";
    object      zeroGradient(p);
}
// * * * * * * * * * * * * * * * * * * * * * * * * * * * * * * * * * * * * * //

dimensions      [0 2 -2 0 0 0 0];

internalField   nonuniform List<scalar> 
400
(
0
0
5.68789e-12
1.04543e-12
2.09032e-12
1.37472e-12
1.42283e-12
1.3121e-12
1.29318e-12
1.26785e-12
1.2563e-12
1.24773e-12
1.24276e-12
1.23946e-12
1.23718e-12
1.23555e-12
1.23444e-12
1.23355e-12
1.23288e-12
1.23265e-12
4.76518e-12
8.41147e-13
2.26903e-12
1.23442e-12
1.50827e-12
1.33876e-12
1.33699e-12
1.29142e-12
1.27447e-12
1.25876e-12
1.24983e-12
1.24402e-12
1.24011e-12
1.23753e-12
1.23572e-12
1.23465e-12
1.23379e-12
1.23294e-12
1.23228e-12
1.23187e-12
0
0
0
8.37528e-13
1.15545e-12
1.2367e-12
1.25141e-12
1.25093e-12
1.24687e-12
1.24259e-12
1.23921e-12
1.23684e-12
1.2352e-12
1.23396e-12
1.23308e-12
1.2325e-12
1.23219e-12
1.2316e-12
1.23111e-12
1.23065e-12
9.1844e-12
0
2.15938e-12
7.44957e-13
1.1655e-12
1.10938e-12
1.19345e-12
1.20428e-12
1.21926e-12
1.22342e-12
1.22641e-12
1.2277e-12
1.2285e-12
1.22916e-12
1.22958e-12
1.2299e-12
1.22991e-12
1.22966e-12
1.22932e-12
1.22923e-12
0
8.35182e-12
0
1.35398e-12
8.28233e-13
1.1351e-12
1.12922e-12
1.17954e-12
1.19292e-12
1.20632e-12
1.21342e-12
1.21836e-12
1.22149e-12
1.22397e-12
1.22561e-12
1.2267e-12
1.22717e-12
1.2272e-12
1.22715e-12
1.22742e-12
1.55462e-11
0
2.54879e-12
0
1.2952e-12
1.00809e-12
1.14466e-12
1.14649e-12
1.17768e-12
1.19074e-12
1.20226e-12
1.20948e-12
1.21486e-12
1.21861e-12
1.22116e-12
1.22329e-12
1.22442e-12
1.22459e-12
1.22484e-12
1.22532e-12
0
2.6792e-11
0
2.35404e-12
6.21496e-13
1.14509e-12
1.07263e-12
1.148e-12
1.16073e-12
1.18104e-12
1.19234e-12
1.20212e-12
1.20875e-12
1.21365e-12
1.21727e-12
1.21992e-12
1.22139e-12
1.22216e-12
1.22245e-12
1.22288e-12
2.06958e-11
0
2.60856e-12
0
1.48606e-12
9.62505e-13
1.14495e-12
1.12183e-12
1.15829e-12
1.17149e-12
1.18603e-12
1.19586e-12
1.20363e-12
1.20936e-12
1.2137e-12
1.21687e-12
1.21877e-12
1.21961e-12
1.21998e-12
1.22033e-12
0
4.32395e-11
0
3.27988e-12
4.77842e-13
1.18386e-12
1.04949e-12
1.14066e-12
1.14713e-12
1.16909e-12
1.18084e-12
1.19176e-12
1.1995e-12
1.20579e-12
1.21054e-12
1.21415e-12
1.21626e-12
1.21726e-12
1.21778e-12
1.2181e-12
2.4148e-11
0
2.59368e-12
0
1.63999e-12
9.46507e-13
1.16187e-12
1.11665e-12
1.15343e-12
1.16432e-12
1.17877e-12
1.18888e-12
1.19706e-12
1.20329e-12
1.20797e-12
1.21177e-12
1.21393e-12
1.21497e-12
1.2158e-12
1.2162e-12
0
5.37907e-11
0
3.90312e-12
4.12287e-13
1.22416e-12
1.04885e-12
1.14637e-12
1.14633e-12
1.16708e-12
1.17761e-12
1.18794e-12
1.19562e-12
1.20142e-12
1.20605e-12
1.2099e-12
1.21212e-12
1.21322e-12
1.21404e-12
1.21444e-12
2.53184e-11
0
2.54872e-12
0
1.73318e-12
9.5768e-13
1.18382e-12
1.12468e-12
1.15881e-12
1.16636e-12
1.17927e-12
1.18794e-12
1.19544e-12
1.20069e-12
1.20484e-12
1.20834e-12
1.21078e-12
1.21192e-12
1.21254e-12
1.21281e-12
0
5.67622e-11
0
4.10149e-12
4.32608e-13
1.25642e-12
1.06711e-12
1.16109e-12
1.15604e-12
1.17325e-12
1.18098e-12
1.18958e-12
1.19571e-12
1.2007e-12
1.20444e-12
1.20738e-12
1.20962e-12
1.21066e-12
1.21139e-12
1.21146e-12
2.38274e-11
0
2.45862e-12
0
1.75748e-12
9.97163e-13
1.20753e-12
1.14449e-12
1.17264e-12
1.17634e-12
1.18584e-12
1.19181e-12
1.19735e-12
1.20147e-12
1.20439e-12
1.2068e-12
1.20872e-12
1.20978e-12
1.21041e-12
1.21075e-12
0
5.18381e-11
0
3.84394e-12
5.41297e-13
1.28105e-12
1.10548e-12
1.18449e-12
1.17494e-12
1.1863e-12
1.19044e-12
1.19556e-12
1.19928e-12
1.20263e-12
1.20513e-12
1.20673e-12
1.20828e-12
1.20931e-12
1.2096e-12
1.21012e-12
1.9634e-11
0
2.29742e-12
0
1.72035e-12
1.0692e-12
1.23702e-12
1.17752e-12
1.195e-12
1.19293e-12
1.19735e-12
1.19963e-12
1.20206e-12
1.20403e-12
1.20585e-12
1.20711e-12
1.20819e-12
1.20882e-12
1.20939e-12
1.20976e-12
0
3.99456e-11
2.34087e-13
3.206e-12
7.51112e-13
1.30982e-12
1.17016e-12
1.21841e-12
1.20299e-12
1.20497e-12
1.20328e-12
1.20399e-12
1.20462e-12
1.20568e-12
1.20669e-12
1.20769e-12
1.20833e-12
1.2087e-12
1.20917e-12
1.20952e-12
1.31282e-11
0
2.13327e-12
0
1.6882e-12
1.18657e-12
1.28451e-12
1.22257e-12
1.22316e-12
1.21293e-12
1.21028e-12
1.20775e-12
1.20706e-12
1.20719e-12
1.20777e-12
1.2083e-12
1.20863e-12
1.20866e-12
1.20902e-12
1.20938e-12
0
2.22804e-11
1.42974e-12
2.3884e-12
1.19281e-12
1.35329e-12
1.26554e-12
1.25488e-12
1.23274e-12
1.22221e-12
1.21516e-12
1.21104e-12
1.20932e-12
1.2087e-12
1.20855e-12
1.20872e-12
1.20857e-12
1.2088e-12
1.20901e-12
1.20933e-12
4.33272e-12
0
5.14799e-12
1.73538e-14
1.98071e-12
1.22407e-12
1.3563e-12
1.25207e-12
1.24623e-12
1.22554e-12
1.21856e-12
1.21281e-12
1.2105e-12
1.20939e-12
1.209e-12
1.20879e-12
1.20867e-12
1.20894e-12
1.2091e-12
1.20935e-12
)
;

boundaryField
{
    movingWall
    {
        type            zeroGradient;
    }
    fixedWalls
    {
        type            zeroGradient;
    }
    frontAndBack
    {
        type            empty;
    }
}


// ************************************************************************* //
