/*--------------------------------*- C++ -*----------------------------------*\
| =========                 |                                                 |
| \\      /  F ield         | OpenFOAM: The Open Source CFD Toolbox           |
|  \\    /   O peration     | Version:  2312                                  |
|   \\  /    A nd           | Website:  www.openfoam.com                      |
|    \\/     M anipulation  |                                                 |
\*---------------------------------------------------------------------------*/
FoamFile
{
    version     2.0;
    format      ascii;
    arch        "LSB;label=32;scalar=64";
    class       volScalarField;
    location    "275";
    object      epsilon;
}
// * * * * * * * * * * * * * * * * * * * * * * * * * * * * * * * * * * * * * //

dimensions      [0 2 -3 0 0 0 0];

internalField   nonuniform List<scalar> 
12225
(
936.697
1509.29
1777.68
1793.86
1757.87
1666.3
1569.08
1480.87
1405.34
1342.23
1290.05
1247.21
1211.55
1182.63
1157.41
1139.32
1120.24
1110.61
109.95
259.862
333.849
358.691
364.439
359.925
352.777
342.614
334.465
328.061
323.509
320.408
318.402
316.683
316.001
314.924
314.189
314.493
30.1265
67.1237
93.1753
106.886
113.34
114.523
114.035
112.083
109.804
107.659
106.019
104.801
104.136
103.768
103.835
103.98
104.362
105.283
17.9657
29.1781
39.38
46.5521
51.2523
53.7132
55.0004
55.0177
54.7783
54.178
53.3804
52.5963
51.8329
51.2428
50.6137
50.2835
49.7183
49.8426
15.5754
18.8869
23.3842
27.0611
29.9006
31.8179
33.1296
33.799
34.1562
34.1482
34.0497
33.8218
33.4655
33.1603
32.7252
32.4559
31.9429
31.8865
14.9406
15.7275
17.5854
19.4183
21.0181
22.256
23.2081
23.8476
24.2827
24.5113
24.6167
24.6044
24.5423
24.4334
24.2353
24.0845
23.796
23.7401
14.7076
14.7891
15.3023
16.1013
16.9138
17.618
18.208
18.658
18.9956
19.2242
19.3666
19.4421
19.4478
19.4271
19.3711
19.2937
19.1466
19.1206
14.6662
14.4463
14.4834
14.6365
14.9553
15.2727
15.5696
15.8193
16.0199
16.1703
16.2727
16.3385
16.3633
16.3583
16.341
16.2982
16.2206
16.2092
14.6715
14.3502
14.157
14.0523
14.0626
14.1026
14.182
14.2617
14.3315
14.3868
14.4229
14.4441
14.4429
14.4315
14.4079
14.3749
14.3138
14.299
14.6768
14.3357
14.056
13.8296
13.6743
13.5628
13.4897
13.4396
13.4014
13.3693
13.3368
13.3043
13.2658
13.2265
13.1782
13.1374
13.0709
13.0411
14.6779
14.3376
14.032
13.7593
13.5286
13.3341
13.1721
13.0366
12.9207
12.8202
12.7295
12.6476
12.5692
12.4972
12.4231
12.3595
12.2827
12.2317
14.6776
14.3395
14.0285
13.7428
13.4857
13.2562
13.0527
12.8729
12.713
12.5703
12.4411
12.3242
12.2154
12.1163
12.0204
11.9352
11.8456
11.7752
14.6772
14.3402
14.0281
13.739
13.4725
13.2281
13.0048
12.8015
12.6161
12.4472
12.2924
12.1508
12.0195
11.899
11.785
11.6816
11.5794
11.4922
14.677
14.3401
14.0279
13.7381
13.469
13.2193
12.9878
12.7735
12.5749
12.3912
12.2208
12.063
11.916
11.7797
11.6517
11.5335
11.4202
11.3183
14.6769
14.34
14.0276
13.7375
13.4678
13.2168
12.9829
12.7648
12.5614
12.3715
12.1941
12.0284
11.8732
11.7281
11.5918
11.4644
11.3437
11.2318
14.6768
14.3398
14.0273
13.737
13.467
13.2156
12.981
12.762
12.5572
12.3655
12.1858
12.0173
11.8591
11.7105
11.5706
11.4391
11.3149
11.1983
14.6768
14.3397
14.027
13.7366
13.4664
13.2147
12.9798
12.7604
12.5552
12.3629
12.1826
12.0134
11.8543
11.7046
11.5636
11.4308
11.3055
11.1872
14.6768
14.3397
14.0269
13.7363
13.466
13.2141
12.979
12.7594
12.5539
12.3614
12.1809
12.0113
11.8519
11.7019
11.5606
11.4274
11.3017
11.183
14.6768
14.3396
14.0268
13.7362
13.4658
13.2139
12.9787
12.759
12.5534
12.3608
12.1801
12.0105
11.851
11.7009
11.5596
11.4263
11.3006
11.1818
14.6768
14.3397
14.0269
13.7364
13.466
13.2142
12.9791
12.7596
12.5542
12.362
12.1817
12.0126
11.8537
11.7044
11.564
11.4316
11.307
11.1893
14.6768
14.3398
14.0271
13.7367
13.4666
13.2153
12.9813
12.7632
12.56
12.3703
12.1933
12.0278
11.8731
11.7282
11.5925
11.4649
11.3456
11.2325
14.677
14.3398
14.0272
13.7378
13.4705
13.2242
12.9978
12.7899
12.5989
12.4233
12.2616
12.1121
11.974
11.8454
11.7262
11.614
11.5105
11.4107
14.6775
14.3385
14.0295
13.7523
13.5065
13.2916
13.1043
12.9406
12.7967
12.6686
12.5535
12.4484
12.352
12.2617
12.178
12.0969
12.0234
11.9469
14.6764
14.3372
14.0738
13.8741
13.7319
13.6398
13.5805
13.5414
13.5131
13.489
13.4658
13.4399
13.4117
13.3784
13.3428
13.3002
13.2616
13.2077
14.6669
14.4157
14.41
14.5053
14.6829
14.9183
15.1428
15.3432
15.51
15.6421
15.7415
15.8081
15.8505
15.8648
15.8609
15.8432
15.8182
15.7624
14.7254
15.0949
15.8307
16.895
17.8674
18.7156
19.4029
19.9486
20.3515
20.6442
20.837
20.9488
21.0017
20.993
20.9677
20.8918
20.8249
20.6939
15.1523
18.3003
21.8229
24.9349
27.3822
29.2534
30.5664
31.4805
32.0088
32.322
32.3928
32.3515
32.2284
32.0077
31.7841
31.4662
31.2311
30.8835
19.7796
33.892
45.1055
53.073
58.3547
61.7427
63.51
64.3152
64.2433
63.9648
63.3264
62.5073
61.7126
60.8445
60.1624
59.3751
58.9014
58.2215
57.9427
118.799
155.102
177.266
189.651
195.629
196.474
195.56
193.298
190.227
187.176
184.407
182.001
179.919
178.315
176.838
175.996
174.934
557.161
767.377
897.452
964.606
979.939
973.471
956.351
928.699
899.549
871.189
844.721
820.607
798.891
779.458
762.114
746.631
732.767
720.352
0.0274369
0.0240396
0.0402216
0.0600065
0.081196
0.102379
0.122791
0.142079
0.160144
0.177059
0.193067
0.208892
0.224927
0.241431
0.258762
0.277225
0.297019
0.318209
0.340756
0.364563
0.389591
0.416156
0.445807
0.483232
0.533997
0.596129
0.668048
0.750144
0.843859
0.95115
1.0743
1.21571
1.37784
1.56302
1.77339
2.01083
2.27696
2.57313
2.90052
3.25961
3.6497
4.07071
4.5222
5.00365
5.51442
6.05391
6.62146
7.21655
7.83866
8.48742
9.16247
9.86367
10.5908
11.3439
12.123
12.9282
13.7596
14.6175
15.5019
16.4133
17.3517
18.3175
19.3108
20.3318
21.3806
22.4574
23.562
24.6947
25.8552
27.0434
28.259
29.5019
30.7716
32.0679
33.3904
34.7391
36.1137
37.5151
38.9441
40.4035
41.8976
43.4345
45.0269
46.6961
48.3498
50.0355
51.7242
53.4281
55.1364
56.8503
58.5639
60.2746
61.9772
63.6675
65.3402
66.9912
68.6177
70.2221
71.8185
73.3835
74.9242
76.4345
77.9134
79.3572
80.7631
82.1281
83.4493
84.7237
85.9485
87.1211
88.2388
89.2992
90.2998
91.2384
92.1131
92.9218
93.6628
94.3347
94.9361
95.4658
95.9231
96.3071
96.6177
96.8546
97.0179
97.1082
97.1256
97.0694
96.9334
96.7091
96.4272
96.0949
95.6815
95.201
94.6551
94.0464
93.377
92.6495
91.8666
91.0307
90.1445
89.2109
88.2327
87.2127
86.1539
85.059
83.9311
82.7731
81.5879
80.3784
79.1474
77.8978
76.6325
75.3542
74.0663
72.7728
71.4807
70.2157
69.1928
68.6472
68.1847
67.7238
67.2567
66.7878
66.3197
65.851
65.3826
64.9155
64.4506
63.9882
63.5286
63.0712
62.6148
62.156
61.6895
61.2024
60.6715
60.0309
59.2003
55.6036
0.0835536
0.0501878
0.0461736
0.0490413
0.0547142
0.0616833
0.0695341
0.0781096
0.0873876
0.0974444
0.108464
0.120754
0.134473
0.149746
0.166786
0.185845
0.207181
0.231061
0.257764
0.287617
0.321052
0.358695
0.401468
0.450598
0.50716
0.571495
0.643841
0.724658
0.814567
0.914235
1.02429
1.14526
1.27754
1.42139
1.57695
1.74432
1.92361
2.11512
2.31781
2.5305
2.75266
2.98393
3.22394
3.47247
3.72938
3.99465
4.26833
4.55053
4.84143
5.14125
5.45021
5.76859
6.09663
6.4346
6.78274
7.14131
7.5105
7.89054
8.28158
8.6838
9.09731
9.52223
9.95861
10.4065
10.866
11.337
11.8196
12.3136
12.819
13.3357
13.8636
14.4025
14.9522
15.5128
16.084
16.6658
17.2582
17.8614
18.4754
19.1008
19.7379
20.3872
21.0483
21.7191
22.3921
23.0718
23.7537
24.4388
25.1249
25.8113
26.4965
27.1792
27.8581
28.5319
29.1998
29.8617
30.5194
31.1772
31.846
32.5046
33.1542
33.7931
34.4203
35.0347
35.6352
36.2205
36.7896
37.3413
37.8745
38.3883
38.8814
39.3531
39.8022
40.2279
40.6294
41.0058
41.3564
41.6806
41.9777
42.2472
42.4887
42.7017
42.8861
43.0416
43.1681
43.2653
43.333
43.3701
43.3758
43.3508
43.3002
43.2254
43.1198
42.9862
42.8254
42.6383
42.4257
42.1882
41.9269
41.6425
41.3362
41.0089
40.6615
40.2951
39.9109
39.5098
39.0929
38.6614
38.2164
37.759
37.2903
36.8114
36.3235
35.8277
35.3254
34.8181
34.309
33.8076
33.3571
32.9993
32.6693
32.3439
32.0184
31.6927
31.3675
31.0427
30.7186
30.3958
30.0747
29.7557
29.4392
29.1254
28.8143
28.506
28.2003
27.8983
27.5972
27.3095
27.0472
26.6723
0.187783
0.0941003
0.0731918
0.0687168
0.069825
0.0737799
0.079767
0.0873916
0.0965759
0.107358
0.119838
0.1342
0.150646
0.1694
0.190732
0.214882
0.242108
0.272691
0.306938
0.345198
0.387877
0.435449
0.488446
0.547395
0.61271
0.68461
0.763222
0.848669
0.941081
1.04058
1.14725
1.26112
1.38222
1.51049
1.6459
1.78837
1.93783
2.09221
2.25167
2.41792
2.5911
2.77146
2.95913
3.15405
3.3564
3.56637
3.78415
4.00991
4.24382
4.48603
4.73669
4.99594
5.26389
5.54064
5.82629
6.12093
6.42465
6.73751
7.05958
7.39091
7.73154
8.08149
8.44078
8.80941
9.18738
9.57465
9.9712
10.377
10.7919
11.2159
11.6489
12.0908
12.5415
13.0009
13.4688
13.9453
14.4301
14.9233
15.4246
15.9338
16.4508
16.975
17.5056
18.0414
18.5811
19.1248
19.6714
20.2204
20.7709
21.3224
21.8741
22.4252
22.9751
23.5234
24.0699
24.6147
25.1581
25.7013
26.2428
26.7779
27.3059
27.826
28.337
28.8382
29.3285
29.807
30.2728
30.725
31.1627
31.5849
31.9909
32.3798
32.7509
33.1033
33.4363
33.7494
34.0418
34.313
34.5624
34.7897
34.9945
35.1763
35.3349
35.4701
35.5817
35.6696
35.7337
35.772
35.7846
35.7765
35.7449
35.6917
35.6147
35.5151
35.3932
35.2499
35.0856
34.901
34.6968
34.4737
34.2326
33.974
33.699
33.4083
33.1027
32.7832
32.4505
32.1057
31.7496
31.3831
31.0071
30.6225
30.2302
29.8311
29.4265
29.0175
28.6063
28.1985
27.8096
27.4533
27.1121
26.7759
26.4412
26.1074
25.7745
25.4428
25.1124
24.7839
24.4575
24.1338
23.8134
23.4964
23.1832
22.8744
22.571
22.2755
21.9902
21.7313
21.5153
21.3359
0.310821
0.141991
0.103986
0.0937381
0.0925096
0.09563
0.101632
0.10995
0.120418
0.13306
0.148015
0.165474
0.185657
0.208787
0.23507
0.264753
0.298073
0.335266
0.376572
0.422234
0.472501
0.527613
0.587785
0.65318
0.723881
0.799897
0.881193
0.967734
1.05951
1.15652
1.2588
1.36642
1.47945
1.59795
1.722
1.85162
1.98673
2.12858
2.27779
2.43405
2.59689
2.76585
2.94135
3.12418
3.31459
3.5127
3.71866
3.9326
4.1546
4.38476
4.62316
4.86989
5.12503
5.38866
5.66085
5.94169
6.23123
6.52955
6.83672
7.15278
7.4778
7.81182
8.15488
8.507
8.86822
9.23855
9.61798
10.0065
10.4041
10.8107
11.2264
11.6509
12.0843
12.5265
12.9773
13.4366
13.9043
14.3802
14.8641
15.3555
15.8542
16.3597
16.8712
17.3881
17.9097
18.4356
18.9652
19.4978
20.033
20.57
21.1082
21.6471
22.1861
22.7247
23.2626
23.7994
24.335
24.8684
25.3981
25.9219
26.4391
26.9487
27.4496
27.9409
28.4217
28.891
29.3478
29.7913
30.2205
30.6346
31.0326
31.4137
31.7772
32.1223
32.4482
32.7544
33.04
33.3047
33.5477
33.7688
33.9675
34.1435
34.2964
34.4261
34.5324
34.6152
34.6743
34.7069
34.7168
34.7052
34.6702
34.6129
34.5328
34.4303
34.3061
34.1608
33.9948
33.8089
33.6038
33.3802
33.1388
32.8805
32.606
32.3162
32.012
31.6942
31.3638
31.0215
30.6683
30.3051
29.9328
29.5523
29.1644
28.7702
28.3706
27.9668
27.5607
27.1558
26.7595
26.3781
26.0059
25.6382
25.2726
24.9085
24.5461
24.1854
23.8268
23.4708
23.1176
22.7678
22.4209
22.0783
21.7407
21.4091
21.0848
20.7711
20.4718
20.2017
19.9743
19.7944
0.427206
0.187074
0.135206
0.120807
0.118267
0.121349
0.128067
0.137672
0.149923
0.164811
0.182446
0.203002
0.226677
0.25367
0.284172
0.318361
0.356398
0.398423
0.444561
0.494917
0.549578
0.608611
0.672054
0.739917
0.812184
0.888828
0.969832
1.05521
1.14503
1.23939
1.33844
1.44236
1.55137
1.66568
1.78553
1.91115
2.04283
2.18094
2.32562
2.47675
2.63481
2.80038
2.97363
3.15446
3.34296
3.53927
3.74354
3.9559
4.17653
4.40543
4.64267
4.88838
5.14265
5.40559
5.6773
5.95788
6.24745
6.54609
6.85393
7.17104
7.49754
7.83352
8.17906
8.53424
8.89914
9.27382
9.65834
10.0527
10.457
10.8712
11.2953
11.7293
12.1731
12.6266
13.0899
13.5626
14.0447
14.5359
15.036
15.5445
16.0612
16.5856
17.1169
17.6548
18.1987
18.7479
19.302
19.8602
20.4221
20.9869
21.5539
22.1226
22.6923
23.2622
23.8317
24.3999
24.9659
25.5287
26.0869
26.6393
27.1847
27.7221
28.2505
28.7687
29.2758
29.7706
30.2522
30.7195
31.1715
31.6073
32.0259
32.4264
32.8078
33.1695
33.5106
33.8304
34.1281
34.4033
34.6553
34.8836
35.0878
35.2677
35.4228
35.5529
35.658
35.7379
35.7921
35.8181
35.8219
35.801
35.7555
35.6859
35.5922
35.4751
35.3349
35.1724
34.9882
34.783
34.5576
34.3128
34.0494
33.7683
33.4704
33.1566
32.8279
32.4851
32.1293
31.7613
31.3823
30.9931
30.5947
30.188
29.774
29.3537
28.9282
28.4984
28.0661
27.6338
27.2056
26.7849
26.3701
25.9591
25.5506
25.1444
24.7404
24.339
23.9405
23.5454
23.1541
22.7672
22.3851
22.0086
21.6383
21.2755
20.9221
20.5812
20.2577
19.9642
19.7107
19.4954
0.522687
0.22761
0.165964
0.148746
0.145527
0.148937
0.156625
0.167663
0.181721
0.198739
0.218788
0.242003
0.268538
0.298546
0.332159
0.369482
0.410594
0.455546
0.504363
0.557057
0.613621
0.674044
0.738311
0.806412
0.878353
0.954164
1.03391
1.11771
1.20572
1.29814
1.3952
1.49716
1.60428
1.71685
1.83515
1.95943
2.08998
2.22706
2.37086
2.52159
2.67954
2.84497
3.01805
3.19889
3.38763
3.58442
3.78939
4.00267
4.22437
4.45472
4.69387
4.94199
5.19922
5.46572
5.74165
6.02715
6.3224
6.62754
6.94275
7.26817
7.60398
7.95032
8.30734
8.67519
9.05399
9.44388
9.84496
10.2573
10.6811
11.1162
11.5628
12.0208
12.4903
12.9711
13.4632
13.9665
14.4806
15.0055
15.5407
16.086
16.6408
17.2048
17.7774
18.358
18.946
19.5409
20.1418
20.7483
21.3594
21.9745
22.5929
23.2135
23.8357
24.4584
25.0808
25.7017
26.3199
26.9343
27.5437
28.1467
28.7421
29.3288
29.9055
30.471
31.0241
31.5637
32.0885
32.5975
33.0893
33.5631
34.0176
34.452
34.8651
35.2561
35.6241
35.9683
36.288
36.5825
36.8511
37.0934
37.3089
37.4973
37.6582
37.7915
37.8969
37.9746
38.0229
38.042
38.0361
38.0027
37.9423
37.8553
37.742
37.6031
37.4392
37.2509
37.0391
36.8045
36.548
36.2706
35.9732
35.6568
35.3224
34.971
34.6037
34.2215
33.8255
33.4169
32.9966
32.5657
32.1253
31.6765
31.2202
30.7576
30.2897
29.8176
29.3428
28.8673
28.3937
27.9242
27.4589
26.9969
26.5378
26.0815
25.6283
25.1785
24.7325
24.291
23.8543
23.4231
22.998
22.5798
22.1694
21.7682
21.3782
21.0029
20.6471
20.3214
20.0325
19.7702
0.593044
0.263323
0.195384
0.176442
0.172988
0.176911
0.185596
0.197964
0.213601
0.232387
0.254344
0.279556
0.308126
0.340147
0.375693
0.414809
0.457508
0.503785
0.553613
0.606961
0.663798
0.724107
0.787886
0.855166
0.926007
1.00051
1.07883
1.16113
1.24765
1.33863
1.43434
1.53507
1.64109
1.75271
1.8702
1.99383
2.12388
2.26059
2.40421
2.55498
2.71314
2.87894
3.05258
3.23424
3.42412
3.62241
3.82931
4.04502
4.26975
4.50373
4.74717
5.0003
5.26333
5.53648
5.81997
6.11402
6.41887
6.73475
7.06188
7.4005
7.75084
8.11313
8.48757
8.8744
9.27381
9.68599
10.1111
10.5493
11.0008
11.4656
11.9438
12.4354
12.9405
13.4589
13.9907
14.5357
15.0936
15.6642
16.2472
16.8421
17.4487
18.0662
18.6941
19.3319
19.9788
20.6341
21.2971
21.9669
22.6427
23.3235
24.0084
24.6963
25.3863
26.0771
26.7675
27.4563
28.1422
28.8236
29.4994
30.1679
30.828
31.4781
32.117
32.7432
33.3553
33.952
34.5319
35.0937
35.6361
36.1579
36.6579
37.1348
37.5877
38.0155
38.4171
38.7918
39.1386
39.457
39.7461
40.0054
40.2346
40.4331
40.6007
40.7373
40.8427
40.9169
40.9575
40.968
40.9488
40.8992
40.8195
40.7104
40.5722
40.4056
40.2115
39.9906
39.7438
39.4721
39.1765
38.8581
38.5178
38.157
37.7767
37.378
36.9623
36.5307
36.0844
35.6246
35.1525
34.6694
34.1764
33.6746
33.1653
32.6495
32.1285
31.6033
31.0754
30.5464
30.0183
29.4928
28.9705
28.4514
27.9357
27.4234
26.9151
26.4111
25.912
25.4184
24.9308
24.45
23.9767
23.5118
23.0563
22.6117
22.1803
21.7654
21.3717
21.008
20.6776
20.3643
0.639526
0.293446
0.222624
0.202912
0.199514
0.203978
0.213519
0.226952
0.24379
0.263855
0.287116
0.313605
0.343373
0.376465
0.412907
0.452703
0.495834
0.542269
0.591969
0.644904
0.701056
0.760433
0.823075
0.889058
0.958496
1.03154
1.10839
1.18926
1.27441
1.3641
1.45861
1.55822
1.66323
1.77393
1.89061
2.01355
2.14303
2.27932
2.42268
2.5734
2.73172
2.89793
3.07226
3.25498
3.44633
3.64656
3.85594
4.07474
4.30326
4.5418
4.79064
5.05009
5.32044
5.60198
5.89501
6.19986
6.51682
6.84622
7.18836
7.54357
7.91217
8.29446
8.69075
9.10133
9.52649
9.9665
10.4216
10.892
11.3779
11.8794
12.3967
12.9299
13.4789
14.0437
14.6243
15.2205
15.8321
16.4588
17.1002
17.7559
18.4253
19.108
19.8032
20.5103
21.2283
21.9565
22.694
23.4397
24.1927
24.9517
25.7157
26.4834
27.2535
28.0246
28.7952
29.564
30.3292
31.0893
31.8428
32.588
33.3233
34.0472
34.7581
35.4543
36.1344
36.7966
37.4395
38.0616
38.6614
39.2375
39.7886
40.3133
40.8104
41.2789
41.7175
42.1254
42.5016
42.8453
43.1559
43.4327
43.6754
43.8834
44.0566
44.1948
44.2979
44.3655
44.3961
44.3939
44.3574
44.2871
44.1833
44.0468
43.8782
43.6781
43.4477
43.1877
42.8993
42.5836
42.2418
41.875
41.4845
41.0716
40.6376
40.1839
39.7118
39.2228
38.718
38.199
37.6671
37.1235
36.5697
36.007
35.4365
34.8595
34.2774
33.6913
33.1025
32.5127
31.9233
31.3359
30.7514
30.1704
29.5932
29.0203
28.4522
27.8896
27.3329
26.783
26.2404
25.706
25.1805
24.665
24.1607
23.669
23.1924
22.734
22.2981
21.892
21.5163
21.1507
0.670008
0.320138
0.248174
0.227903
0.224439
0.229183
0.239244
0.25334
0.270912
0.291721
0.315681
0.342775
0.373009
0.406391
0.442918
0.482573
0.525327
0.571149
0.620012
0.671905
0.72684
0.784859
0.846038
0.910492
0.978369
1.04985
1.12516
1.20454
1.28825
1.37656
1.46975
1.56806
1.67183
1.78138
1.89699
2.01897
2.14763
2.28325
2.42616
2.57664
2.73502
2.9016
3.0767
3.26063
3.45371
3.65626
3.86855
4.09096
4.32393
4.56783
4.82306
5.09001
5.36907
5.66061
5.96505
6.28278
6.61422
6.95979
7.31989
7.69494
8.08537
8.49158
8.91396
9.35292
9.80881
10.282
10.7728
11.2814
11.8082
12.3534
12.9171
13.4994
14.1003
14.7199
15.358
16.0145
16.6891
17.3815
18.0912
18.8179
19.5607
20.3192
21.0924
21.8795
22.6796
23.4917
24.3146
25.1472
25.9882
26.8363
27.69
28.5478
29.4083
30.2697
31.1303
31.9884
32.8423
33.69
34.5297
35.3597
36.178
36.9829
37.7725
38.545
39.2987
40.0316
40.7422
41.4287
42.0894
42.7229
43.3275
43.9019
44.4447
44.9547
45.4307
45.8715
46.2764
46.6444
46.9748
47.2671
47.5207
47.7353
47.9106
48.0467
48.1435
48.2
48.2171
48.1963
48.1373
48.0407
47.9073
47.7376
47.5323
47.2926
47.0195
46.714
46.3775
46.0111
45.6163
45.1944
44.7468
44.2751
43.7807
43.2651
42.73
42.1767
41.6068
41.0219
40.4235
39.8131
39.1921
38.5619
37.924
37.2797
36.6304
35.9773
35.322
34.6656
34.0099
33.3562
32.7055
32.0587
31.4164
30.7793
30.1481
29.5234
28.906
28.2966
27.696
27.105
26.5245
25.9556
25.3996
24.8582
24.3335
23.8287
23.3475
22.8958
22.4724
22.0546
0.771729
0.361316
0.27712
0.25287
0.247911
0.252071
0.262023
0.27624
0.294024
0.315046
0.339155
0.366284
0.3964
0.429483
0.465514
0.504469
0.546324
0.591061
0.638673
0.689174
0.742604
0.799033
0.85857
0.921356
0.987554
1.05734
1.13096
1.20868
1.29079
1.37759
1.46942
1.56656
1.66922
1.7777
1.89231
2.01337
2.14121
2.27615
2.41856
2.56876
2.72714
2.89405
3.06989
3.25503
3.44989
3.65492
3.87063
4.09738
4.33566
4.58601
4.84893
5.12492
5.41445
5.71803
6.03616
6.36936
6.71815
7.08307
7.46463
7.86338
8.27983
8.7145
9.16791
9.64052
10.1328
10.6452
11.1781
11.7319
12.3068
12.9032
13.5212
14.1609
14.8223
15.5055
16.2104
16.9366
17.6839
18.452
19.2402
20.0479
20.8745
21.719
22.5806
23.4582
24.3507
25.2568
26.1752
27.1045
28.0431
28.9895
29.9419
30.8986
31.8578
32.8174
33.7756
34.7303
35.6795
36.621
37.5527
38.4726
39.3786
40.2685
41.1404
41.9922
42.8218
43.6273
44.4068
45.1584
45.8802
46.5706
47.2279
47.8505
48.437
48.9861
49.4965
49.9671
50.3969
50.7851
51.1309
51.4337
51.6932
51.909
52.0809
52.209
52.2933
52.3331
52.33
52.284
52.1959
52.0665
51.8966
51.6869
51.4383
51.1522
50.8296
50.4719
50.0805
49.6569
49.2026
48.7192
48.2083
47.6715
47.1106
46.5272
45.923
45.2998
44.6592
44.003
43.3328
42.6502
41.9569
41.2545
40.5443
39.828
39.107
38.3827
37.6565
36.9299
36.2042
35.4809
34.7611
34.0459
33.336
32.6324
31.9357
31.2469
30.5666
29.8957
29.2351
28.5856
27.9483
27.3243
26.7149
26.1219
25.5474
24.9942
24.4656
23.9665
23.494
23.0248
0.942269
0.41666
0.309303
0.277527
0.269527
0.272147
0.281312
0.295092
0.312587
0.333348
0.357144
0.383858
0.413421
0.445792
0.480942
0.518847
0.559493
0.602877
0.649015
0.697948
0.749734
0.804423
0.862195
0.923241
0.987793
1.05616
1.12844
1.20485
1.28564
1.37108
1.46143
1.55692
1.65794
1.76486
1.87803
1.99782
2.1246
2.25875
2.40069
2.55082
2.70959
2.87744
3.05485
3.2423
3.44028
3.64931
3.86981
4.10213
4.34719
4.60571
4.87839
5.1658
5.46852
5.78717
6.12236
6.47474
6.84496
7.23367
7.64153
8.06919
8.51731
8.98649
9.47737
9.99053
10.5265
11.0858
11.669
12.2763
12.9082
13.5649
14.2467
14.9536
15.6856
16.4428
17.2248
18.0314
18.8621
19.7166
20.594
21.4936
22.4145
23.3557
24.316
25.2941
26.2887
27.2983
28.3213
29.3559
30.4004
31.4528
32.5112
33.5735
34.6374
35.7009
36.7616
37.8172
38.8653
39.9036
40.9297
41.9412
42.9358
43.9112
44.8651
45.7951
46.6992
47.575
48.4206
49.2339
50.0129
50.7558
51.4608
52.1263
52.7508
53.3328
53.8711
54.3646
54.8122
55.2131
55.5666
55.8722
56.1296
56.3385
56.4988
56.6106
56.6741
56.6894
56.6576
56.5783
56.4529
56.2826
56.0684
55.8109
55.5115
55.1715
54.7923
54.3754
53.9224
53.435
52.9149
52.3638
51.7836
51.1762
50.5433
49.8868
49.2087
48.5108
47.795
47.0631
46.317
45.5584
44.7891
44.0108
43.2252
42.4337
41.6381
40.8397
40.0401
39.2406
38.4428
37.6481
36.8577
36.0726
35.294
34.5227
33.7596
33.0056
32.2616
31.5285
30.8071
30.0985
29.4037
28.7239
28.0604
27.415
26.7897
26.1873
25.6103
25.0629
24.5411
24.0221
1.122
0.472985
0.340351
0.300009
0.288294
0.288817
0.29671
0.309617
0.326416
0.346535
0.369666
0.395638
0.424352
0.455747
0.489785
0.526448
0.565731
0.607632
0.652193
0.699513
0.749736
0.803048
0.859482
0.919167
0.982257
1.04886
1.11928
1.19382
1.27276
1.3564
1.44504
1.53905
1.63879
1.7446
1.85687
1.976
2.10244
2.23664
2.37907
2.5302
2.69057
2.8607
3.04124
3.23271
3.43561
3.65041
3.8775
4.11815
4.37314
4.6432
4.92915
5.23197
5.55232
5.89089
6.24844
6.62575
7.02362
7.44284
7.88419
8.34845
8.83639
9.34875
9.88624
10.4495
11.0392
11.656
12.3002
12.9723
13.6727
14.4016
15.1592
15.9455
16.7605
17.6039
18.4756
19.3749
20.3013
21.2542
22.2326
23.2356
24.2619
25.3104
26.3796
27.468
28.5738
29.6952
30.8304
31.9773
33.1339
34.2977
35.4666
36.6382
37.8099
38.9792
40.1436
41.3005
42.4471
43.5809
44.6992
45.7994
46.879
47.9353
48.966
49.9684
50.9404
51.8794
52.7833
53.65
54.4774
55.2635
56.0066
56.705
57.357
57.9613
58.5167
59.022
59.4762
59.8786
60.2286
60.5258
60.7698
60.9607
61.0984
61.1831
61.2153
61.1959
61.1248
61.0018
60.8297
60.6093
60.3416
60.0278
59.6692
59.2674
58.8239
58.3406
57.8192
57.2615
56.6695
56.0451
55.3903
54.7071
53.9976
53.2638
52.5078
51.7316
50.9372
50.1266
49.3018
48.4647
47.6171
46.761
45.8979
45.0298
44.1581
43.2844
42.4104
41.5374
40.6669
39.8004
38.9392
38.0844
37.2372
36.3985
35.5693
34.7507
33.9434
33.1485
32.3669
31.5997
30.8478
30.1127
29.3955
28.6981
28.0224
27.3707
26.7454
26.1501
25.5798
25.0131
1.3026
0.526957
0.368527
0.319368
0.303544
0.301787
0.308096
0.319826
0.335644
0.354858
0.377087
0.402114
0.429812
0.460102
0.492921
0.528287
0.566244
0.6069
0.650256
0.69633
0.745165
0.796782
0.851437
0.909328
0.970663
1.03569
1.10468
1.17788
1.25558
1.33812
1.42585
1.51913
1.61837
1.72396
1.83636
1.95604
2.08351
2.21938
2.36416
2.51839
2.68265
2.85752
3.04344
3.24096
3.45114
3.67493
3.91335
4.16726
4.43755
4.72513
5.03098
5.35615
5.70152
6.06799
6.4565
6.86797
7.30334
7.76355
8.2495
8.76209
9.30218
9.8706
10.4681
11.0955
11.7533
12.4421
13.1625
13.9147
14.6992
15.5159
16.365
17.2464
18.1597
19.1047
20.0808
21.0873
22.1234
23.1881
24.2802
25.3985
26.5414
27.7074
28.8947
30.1015
31.3257
32.5651
33.8175
35.0806
36.3518
37.6286
38.9084
40.1884
41.4659
42.7381
44.002
45.2548
46.4937
47.7156
48.9179
50.0976
51.2521
52.3786
53.4744
54.5369
55.5638
56.5525
57.5007
58.4064
59.2673
60.0815
60.8472
61.5628
62.2267
62.8375
63.3941
63.8954
64.3406
64.729
65.0602
65.3338
65.5497
65.7082
65.8092
65.8533
65.8415
65.7749
65.6508
65.4731
65.2431
64.962
64.6309
64.2512
63.8244
63.3524
62.837
62.28
61.6834
61.0493
60.3798
59.677
58.943
58.18
57.3903
56.576
55.7393
54.8824
54.0075
53.1166
52.2119
51.2953
50.3689
49.4346
48.4942
47.5494
46.602
45.6537
44.706
43.7604
42.8184
41.8815
40.951
40.0281
39.114
38.2098
37.3164
36.435
35.5664
34.7116
33.8717
33.0477
32.2407
31.4519
30.6828
29.9349
29.2102
28.5107
27.8383
27.1963
26.5794
25.9679
1.48039
0.577323
0.393152
0.335222
0.315178
0.311055
0.315632
0.326022
0.340703
0.358876
0.380097
0.404099
0.43076
0.460032
0.491907
0.526304
0.563186
0.602522
0.644409
0.688975
0.736354
0.786714
0.840211
0.897042
0.957431
1.02164
1.08994
1.16264
1.24009
1.32265
1.41077
1.50487
1.60537
1.71275
1.82753
1.95024
2.0814
2.22143
2.37091
2.53076
2.7018
2.88486
3.08089
3.29085
3.51563
3.75629
4.01395
4.28966
4.5845
4.89963
5.23627
5.59548
5.97835
6.38602
6.81964
7.28032
7.76913
8.2871
8.83522
9.41443
10.0256
10.6697
11.3473
12.0593
12.806
13.588
14.4057
15.2591
16.1485
17.0737
18.0345
19.0305
20.0612
21.1259
22.2237
23.3536
24.5143
25.7045
26.9228
28.1673
29.4363
30.7277
32.0396
33.3695
34.7151
36.074
37.4434
38.8208
40.2032
41.5879
42.972
44.3524
45.7261
47.0901
48.4412
49.7765
51.0929
52.3873
53.6567
54.8982
56.109
57.2863
58.4273
59.5294
60.5901
61.607
62.5778
63.5004
64.3727
65.1928
65.9589
66.6696
67.3233
67.9189
68.4553
68.9317
69.3472
69.7015
69.9941
70.2252
70.3944
70.5028
70.5503
70.5377
70.4676
70.3354
70.146
69.9004
69.6002
69.2468
68.8414
68.3857
67.8816
67.331
66.7358
66.0983
65.4204
64.7045
63.9527
63.1674
62.3507
61.5052
60.633
59.7365
58.818
57.8798
56.9241
55.9532
54.9691
53.9741
52.9702
51.9593
50.9433
49.9241
48.9034
47.883
46.8643
45.849
44.8386
43.8345
42.838
41.8505
40.873
39.9068
38.9528
38.0121
37.0857
36.1745
35.2797
34.4023
33.5433
32.7041
31.886
31.0905
30.3194
29.5746
28.8577
28.1716
27.5108
26.8585
1.65433
0.623637
0.41405
0.347582
0.323412
0.316937
0.319772
0.328807
0.342345
0.359515
0.379868
0.403112
0.429013
0.457432
0.488293
0.521635
0.557503
0.595961
0.637076
0.680962
0.727773
0.777702
0.830984
0.887844
0.948533
1.01335
1.08263
1.15672
1.236
1.32087
1.41166
1.50873
1.6128
1.72451
1.84454
1.97357
2.11237
2.26183
2.42282
2.59619
2.78293
2.98411
3.20089
3.43443
3.68592
3.95657
4.24768
4.56054
4.89647
5.25681
5.64296
6.05616
6.49777
6.96917
7.47173
8.00673
8.57522
9.17821
9.81661
10.4913
11.2031
11.9525
12.7403
13.5668
14.4324
15.3371
16.2809
17.2638
18.2853
19.3449
20.4421
21.5759
22.7453
23.9492
25.1863
26.455
27.7537
29.0806
30.4337
31.8109
33.2099
34.6285
36.064
37.514
38.9756
40.4461
41.9227
43.4022
44.8818
46.3584
47.8288
49.29
50.7387
52.1718
53.5861
54.9785
56.3459
57.6852
58.9934
60.2676
61.505
62.7027
63.8583
64.969
66.0325
67.0464
68.0087
68.9173
69.7702
70.5658
71.3025
71.9788
72.5936
73.1458
73.6346
74.0593
74.4193
74.7145
74.9447
75.1104
75.2107
75.2485
75.2235
75.1368
74.9857
74.7743
74.504
74.1763
73.7928
73.3549
72.8642
72.3226
71.7323
71.0951
70.4134
69.6893
68.9251
68.1232
67.2858
66.4154
65.5144
64.5852
63.6302
62.6518
61.6523
60.6342
59.5997
58.5511
57.4906
56.4204
55.3425
54.2589
53.1715
52.0823
50.993
49.9052
48.8206
47.7407
46.6671
45.6011
44.544
43.4972
42.4618
41.439
40.4297
39.4351
38.4562
37.4939
36.5492
35.6233
34.7172
33.8321
32.9694
32.1306
31.3172
30.531
29.7732
29.0468
28.346
27.6577
1.83113
0.667268
0.431857
0.356989
0.328842
0.32013
0.321361
0.329219
0.341878
0.358326
0.377996
0.400566
0.425908
0.45391
0.484508
0.517712
0.553577
0.592194
0.633685
0.678207
0.725942
0.777085
0.831806
0.890367
0.953176
1.02063
1.09316
1.17124
1.25536
1.3461
1.44412
1.55013
1.66482
1.78901
1.92357
2.06948
2.2278
2.39966
2.58625
2.78875
3.00845
3.24673
3.50501
3.78477
4.0875
4.41471
4.76796
5.14877
5.55865
5.99906
6.47126
6.97666
7.51693
8.09371
8.70874
9.36362
10.0587
10.7945
11.5715
12.3901
13.2508
14.1535
15.0985
16.0854
17.114
18.1837
19.294
20.444
21.6327
22.8589
24.1213
25.4185
26.7488
28.1105
29.5018
30.9205
32.3646
33.8319
35.3198
36.826
38.3479
39.8829
41.4281
42.9808
44.5381
46.0971
47.6547
49.208
50.7538
52.289
53.8106
55.3155
56.8006
58.2627
59.6988
61.1058
62.4809
63.821
65.1233
66.3852
67.6039
68.7768
69.9016
70.9759
71.9973
72.964
73.874
74.7255
75.5168
76.2465
76.9132
77.5158
78.0534
78.5251
78.9305
79.2691
79.5403
79.7451
79.882
79.9542
79.957
79.9027
79.7783
79.5904
79.3406
79.0303
78.6609
78.2343
77.752
77.2157
76.6272
75.9886
75.3021
74.5698
73.7941
72.9772
72.1216
71.2296
70.3036
69.3461
68.3596
67.3464
66.3091
65.2501
64.1717
63.0762
61.9661
60.8436
59.7108
58.57
57.4232
56.2723
55.1192
53.9659
52.814
51.6652
50.5211
49.3833
48.2531
47.1319
46.0211
44.9219
43.8354
42.7627
41.705
40.6632
39.6382
38.6311
37.6429
36.6746
35.7273
34.8021
33.9004
33.0235
32.1729
31.3501
30.5563
29.7942
29.0581
28.3393
2.00903
0.706786
0.445955
0.36341
0.331903
0.32148
0.321682
0.328973
0.341304
0.357692
0.377538
0.40049
0.426326
0.454951
0.486366
0.520619
0.557811
0.598092
0.641655
0.688741
0.739639
0.794693
0.854334
0.919004
0.989185
1.06544
1.1484
1.23877
1.33734
1.44497
1.56265
1.69144
1.83243
1.98682
2.1559
2.3411
2.54392
2.76592
3.00876
3.27411
3.56373
3.87941
4.22298
4.59624
5.00097
5.43894
5.91189
6.42144
6.96909
7.55621
8.18407
8.8539
9.56694
10.3246
11.1283
11.9777
12.8726
13.8126
14.7973
15.8261
16.8983
18.0131
19.1695
20.3663
21.6022
22.8758
24.1856
25.5299
26.9069
28.3147
29.7515
31.2151
32.7035
34.2144
35.7457
37.295
38.8598
40.4379
42.0267
43.6236
45.226
46.8313
48.4369
50.04
51.6379
53.2278
54.8069
56.3723
57.9213
59.4509
60.9585
62.4412
63.8961
65.3205
66.7117
68.067
69.3836
70.659
71.8907
73.0763
74.2136
75.3002
76.334
77.313
78.2352
79.099
79.9028
80.6452
81.3249
81.9404
82.4907
82.9755
83.3938
83.7448
84.0291
84.2462
84.3943
84.4782
84.4909
84.4452
84.3298
84.1498
83.9066
83.6015
83.2359
82.8114
82.3297
81.7927
81.2018
80.559
79.8663
79.1258
78.3397
77.5103
76.6398
75.7308
74.7854
73.8061
72.7954
71.7557
70.6893
69.5988
68.4864
67.3547
66.2058
65.0422
63.8661
62.6796
61.4849
60.2842
59.0793
57.8722
56.6648
55.4587
54.2557
53.0574
51.8653
50.6809
49.5055
48.3406
47.1872
46.0466
44.9199
43.8081
42.7123
41.6335
40.5726
39.5305
38.5081
37.5066
36.5269
35.5701
34.6376
33.7304
32.8501
31.9981
31.1752
30.3842
29.6191
28.8772
2.18877
0.742191
0.456909
0.367814
0.333951
0.322731
0.322772
0.330336
0.34333
0.360668
0.381758
0.406282
0.434109
0.465198
0.499608
0.537489
0.579064
0.624632
0.674563
0.729302
0.789371
0.855377
0.928031