/*--------------------------------*- C++ -*----------------------------------*\
| =========                 |                                                 |
| \\      /  F ield         | OpenFOAM: The Open Source CFD Toolbox           |
|  \\    /   O peration     | Version:  2312                                  |
|   \\  /    A nd           | Website:  www.openfoam.com                      |
|    \\/     M anipulation  |                                                 |
\*---------------------------------------------------------------------------*/
FoamFile
{
    version     2.0;
    format      ascii;
    arch        "LSB;label=32;scalar=64";
    class       volScalarField;
    location    "275";
    object      k;
}
// * * * * * * * * * * * * * * * * * * * * * * * * * * * * * * * * * * * * * //

dimensions      [0 2 -2 0 0 0 0];

internalField   nonuniform List<scalar> 
12225
(
0.517795
0.711678
0.793704
0.798535
0.786137
0.761354
0.730663
0.702796
0.678628
0.658142
0.640965
0.626696
0.614691
0.604877
0.596221
0.590084
0.583146
0.581043
0.435928
0.440171
0.428405
0.403691
0.382453
0.365966
0.353087
0.34401
0.338607
0.335333
0.334322
0.334633
0.335609
0.336873
0.339364
0.340798
0.343494
0.345128
0.392644
0.393615
0.385372
0.366755
0.344555
0.324299
0.306842
0.29174
0.279828
0.26999
0.262758
0.256935
0.253091
0.249961
0.248269
0.246998
0.246455
0.246403
0.379354
0.377843
0.37267
0.362637
0.349742
0.336127
0.322948
0.310363
0.299126
0.288697
0.279893
0.271738
0.265205
0.259004
0.254364
0.249763
0.246526
0.243092
0.374788
0.372792
0.368452
0.361906
0.353768
0.344753
0.335573
0.326356
0.317649
0.309204
0.301581
0.294213
0.287844
0.281563
0.276371
0.271006
0.266918
0.262341
0.373296
0.370333
0.366487
0.361535
0.35568
0.349193
0.342468
0.335581
0.328875
0.322236
0.316017
0.309928
0.304401
0.298945
0.294182
0.289312
0.285343
0.280949
0.372796
0.369129
0.365377
0.36116
0.35648
0.351419
0.346177
0.340795
0.335473
0.330168
0.325082
0.320077
0.315399
0.310794
0.306612
0.302398
0.298781
0.294876
0.372663
0.368558
0.364705
0.3608
0.356731
0.352487
0.34815
0.343734
0.339348
0.334979
0.330737
0.326563
0.322586
0.318685
0.315053
0.311433
0.308207
0.304805
0.372646
0.368314
0.364325
0.360503
0.356724
0.352934
0.349141
0.345341
0.341581
0.337857
0.334224
0.33066
0.327231
0.323877
0.320704
0.31757
0.314703
0.311741
0.372652
0.368223
0.364131
0.360295
0.356625
0.35306
0.349576
0.346152
0.342798
0.339507
0.336304
0.333175
0.330155
0.327213
0.324405
0.321651
0.319086
0.316483
0.372657
0.368194
0.364043
0.360168
0.356518
0.353045
0.349715
0.346501
0.343393
0.340379
0.337463
0.334634
0.331907
0.329263
0.32673
0.324263
0.321939
0.319617
0.372659
0.368186
0.364009
0.360106
0.356446
0.352994
0.349721
0.346599
0.343613
0.340745
0.337991
0.335339
0.332792
0.330335
0.327983
0.325704
0.323545
0.321416
0.372659
0.368182
0.363993
0.360072
0.356397
0.352944
0.349688
0.346606
0.343681
0.340894
0.338236
0.335695
0.333265
0.330934
0.328707
0.326563
0.324526
0.322539
0.372658
0.368179
0.363983
0.360052
0.356365
0.352901
0.349644
0.346572
0.343671
0.340923
0.338316
0.335838
0.333481
0.331233
0.329092
0.327043
0.325094
0.323215
0.372657
0.368176
0.363976
0.360039
0.356343
0.352871
0.349606
0.34653
0.34363
0.340892
0.338302
0.335849
0.333524
0.331316
0.329219
0.327223
0.325325
0.323512
0.372656
0.368173
0.363971
0.360029
0.356328
0.352849
0.349577
0.346495
0.343589
0.340847
0.338257
0.335807
0.333489
0.331292
0.329208
0.327231
0.325353
0.323567
0.372656
0.368171
0.363966
0.360021
0.356316
0.352833
0.349556
0.346468
0.343557
0.34081
0.338215
0.335761
0.333439
0.33124
0.329156
0.32718
0.325305
0.323524
0.372656
0.36817
0.363964
0.360017
0.356309
0.352823
0.349542
0.346451
0.343536
0.340784
0.338184
0.335726
0.3334
0.331198
0.32911
0.327131
0.325253
0.32347
0.372656
0.36817
0.363963
0.360016
0.356307
0.352819
0.349537
0.346444
0.343526
0.340772
0.33817
0.33571
0.333381
0.331176
0.329086
0.327104
0.325223
0.323437
0.372656
0.368171
0.363965
0.360018
0.356311
0.352825
0.349543
0.346451
0.343535
0.340781
0.338179
0.335717
0.333387
0.331179
0.329085
0.327098
0.325211
0.323418
0.372656
0.368172
0.363968
0.360024
0.35632
0.352838
0.34956
0.34647
0.343555
0.3408
0.338192
0.335721
0.333377
0.331152
0.329036
0.327023
0.325106
0.323282
0.372657
0.368174
0.363974
0.360038
0.356344
0.35287
0.349597
0.346503
0.343572
0.340789
0.338141
0.335616
0.333207
0.330906
0.328704
0.3266
0.324581
0.322657
0.372655
0.368177
0.363999
0.360092
0.356423
0.352955
0.349656
0.346502
0.343475
0.340564
0.337759
0.335056
0.332448
0.329938
0.327515
0.325189
0.322939
0.320796
0.372645
0.368216
0.364128
0.3603
0.356643
0.353099
0.349632
0.346231
0.342891
0.339621
0.336422
0.333309
0.330279
0.327347
0.324502
0.32177
0.319114
0.316596
0.372643
0.368469
0.364636
0.36089
0.35708
0.353161
0.349152
0.345099
0.341037
0.337016
0.333053
0.329189
0.325423
0.321791
0.31827
0.314912
0.311645
0.308584
0.372864
0.36953
0.366156
0.362227
0.357689
0.352687
0.347385
0.341958
0.336495
0.33112
0.325845
0.320768
0.315851
0.311186
0.306688
0.302477
0.298394
0.294647
0.374383
0.373028
0.370209
0.36516
0.358374
0.350669
0.34258
0.334481
0.326513
0.318892
0.311575
0.304749
0.298254
0.292291
0.286629
0.28151
0.276608
0.272263
0.381316
0.385698
0.382115
0.372924
0.359468
0.345683
0.332425
0.320092
0.308695
0.298459
0.289092
0.280906
0.273467
0.267063
0.261259
0.256291
0.251837
0.247972
0.407754
0.411627
0.403614
0.386606
0.368795
0.352501
0.33883
0.327434
0.317644
0.309892
0.303536
0.298697
0.294797
0.291965
0.289779
0.288266
0.287295
0.286605
0.44028
0.545008
0.604978
0.634793
0.641502
0.638676
0.631166
0.61894
0.60592
0.593117
0.581042
0.569931
0.559831
0.550715
0.542515
0.535142
0.528497
0.52251
0.000685996
0.00104147
0.00146746
0.00191577
0.00234348
0.00273488
0.00308693
0.00340185
0.00368388
0.0039383
0.00417147
0.0043953
0.00461634
0.00483832
0.00506589
0.00530278
0.00555088
0.00581049
0.00608039
0.00635897
0.0066451
0.00694171
0.00726383
0.00765772
0.00817809
0.00879655
0.00948714
0.0102461
0.011079
0.0119954
0.0130054
0.0141188
0.015343
0.016684
0.0181442
0.0197246
0.0214231
0.023237
0.0251619
0.0271914
0.029312
0.0315169
0.033797
0.036145
0.0385535
0.0410163
0.0435275
0.0460829
0.0486781
0.0513103
0.0539766
0.0566755
0.0594051
0.0621649
0.0649535
0.0677712
0.0706171
0.0734917
0.0763942
0.0793254
0.0822845
0.085272
0.0882873
0.0913306
0.0944011
0.0974988
0.100623
0.103772
0.106946
0.110144
0.113364
0.116606
0.119868
0.123148
0.126446
0.12976
0.133091
0.13644
0.139807
0.143201
0.146629
0.150108
0.153668
0.157354
0.160957
0.164584
0.16817
0.171744
0.175283
0.178792
0.182259
0.185681
0.189047
0.192352
0.195587
0.198745
0.201823
0.204827
0.207788
0.210661
0.213461
0.216179
0.218814
0.221362
0.223819
0.226181
0.228444
0.230605
0.232661
0.234608
0.236444
0.238164
0.239767
0.241251
0.242613
0.24385
0.244962
0.245947
0.246804
0.247531
0.248129
0.248596
0.248934
0.249142
0.249222
0.249174
0.248999
0.248697
0.248257
0.247664
0.246971
0.246191
0.245272
0.244235
0.243084
0.241824
0.240456
0.238986
0.237418
0.235754
0.234
0.232159
0.230236
0.228235
0.22616
0.224017
0.221808
0.219539
0.217215
0.21484
0.212418
0.209953
0.207452
0.204917
0.202355
0.199772
0.197182
0.194634
0.192542
0.191319
0.190238
0.189159
0.188065
0.186967
0.185869
0.184768
0.183665
0.182564
0.181465
0.180369
0.179277
0.178188
0.177099
0.176004
0.174892
0.173741
0.172505
0.171059
0.169247
0.162105
0.00144053
0.00206138
0.00295604
0.00377118
0.004492
0.00514082
0.00573771
0.00630041
0.00684432
0.00738293
0.0079278
0.00848844
0.00907735
0.00970629
0.0103829
0.0111116
0.011894
0.0127301
0.0136185
0.014558
0.0155483
0.0165915
0.0176925
0.0188594
0.0200991
0.0214135
0.0228036
0.0242733
0.0258291
0.0274794
0.0292327
0.0310972
0.0330796
0.035185
0.0374165
0.0397764
0.0422658
0.0448861
0.0476369
0.0505137
0.0535107
0.0566258
0.0598565
0.0632009
0.0666566
0.0702217
0.0738943
0.0776729
0.0815558
0.0855419
0.0896299
0.0938189
0.098108
0.102497
0.106984
0.11157
0.116255
0.121037
0.125917
0.130895
0.13597
0.141143
0.146412
0.151777
0.157238
0.162794
0.168444
0.174187
0.180021
0.185945
0.191957
0.198053
0.204233
0.210493
0.216831
0.223242
0.229725
0.236274
0.242888
0.249562
0.256293
0.263075
0.269902
0.276764
0.283643
0.290545
0.297458
0.304379
0.311298
0.31821
0.325104
0.331971
0.3388
0.34558
0.352295
0.358932
0.36547
0.371887
0.378157
0.384337
0.39042
0.396401
0.40227
0.408022
0.413647
0.419137
0.424484
0.429681
0.43472
0.439593
0.444293
0.448813
0.453146
0.457285
0.461225
0.46496
0.468484
0.471793
0.474882
0.477746
0.480383
0.482789
0.484963
0.486901
0.488605
0.490072
0.491303
0.492299
0.493052
0.493495
0.493707
0.493772
0.49358
0.493142
0.492474
0.491581
0.490467
0.489138
0.487599
0.485857
0.483917
0.481787
0.479473
0.476981
0.47432
0.471497
0.468518
0.465393
0.462129
0.458733
0.455214
0.45158
0.447839
0.443999
0.440068
0.436055
0.431972
0.427842
0.423754
0.419786
0.415817
0.411814
0.407778
0.403716
0.399635
0.395542
0.391439
0.387333
0.383227
0.379125
0.375029
0.370942
0.366862
0.362788
0.358714
0.354632
0.350487
0.346335
0.341931
0.331364
0.00247295
0.00336831
0.00463925
0.00572518
0.00666427
0.00751245
0.00830745
0.00907607
0.00983897
0.0106137
0.0114154
0.0122577
0.0131524
0.0141092
0.0151351
0.0162348
0.0174107
0.0186638
0.0199938
0.0214008
0.0228849
0.0244475
0.026091
0.0278184
0.0296324
0.0315348
0.0335274
0.0356137
0.0377988
0.0400893
0.0424929
0.0450175
0.0476711
0.0504613
0.053395
0.0564787
0.0597173
0.0631143
0.0666691
0.0703812
0.0742511
0.0782783
0.082461
0.086797
0.0912836
0.0959181
0.100697
0.105618
0.110678
0.115872
0.1212
0.126657
0.132241
0.137951
0.143785
0.14974
0.155816
0.162011
0.168324
0.174754
0.181301
0.187963
0.194739
0.201629
0.20863
0.215743
0.222964
0.230292
0.237726
0.245263
0.2529
0.260634
0.268463
0.276383
0.28439
0.29248
0.300649
0.308893
0.317206
0.325584
0.33402
0.342507
0.351038
0.359603
0.368192
0.376801
0.38542
0.394043
0.402661
0.411263
0.41984
0.428383
0.436879
0.445318
0.453689
0.46198
0.470182
0.478285
0.486284
0.494175
0.501947
0.509589
0.517091
0.524443
0.531633
0.538652
0.545489
0.552134
0.558576
0.564807
0.570817
0.576596
0.582135
0.587428
0.592465
0.597239
0.601743
0.605971
0.609917
0.613576
0.616942
0.620013
0.622785
0.625256
0.627423
0.629286
0.630845
0.632099
0.633039
0.633628
0.633898
0.633944
0.633674
0.633097
0.632224
0.631063
0.629618
0.627898
0.625909
0.623658
0.621154
0.618405
0.61542
0.612207
0.608776
0.605136
0.601298
0.59727
0.593064
0.588689
0.584155
0.579473
0.574653
0.569707
0.564643
0.559475
0.554216
0.548887
0.543541
0.53822
0.532879
0.527498
0.522077
0.516623
0.511144
0.505647
0.50014
0.494629
0.489121
0.483621
0.478134
0.472666
0.46722
0.461799
0.456405
0.451049
0.445718
0.4405
0.43521
0.426111
0.00346241
0.00474927
0.00638201
0.00771323
0.00884703
0.00987116
0.0108383
0.0117831
0.0127313
0.0137035
0.014717
0.0157868
0.0169249
0.018141
0.0194417
0.0208312
0.0223113
0.0238824
0.025544
0.0272952
0.0291357
0.0310654
0.0330853
0.0351969
0.0374022
0.0397041
0.0421065
0.0446151
0.0472372
0.0499816
0.0528579
0.0558759
0.0590455
0.0623753
0.0658728
0.0695438
0.0733918
0.0774184
0.0816258
0.0860155
0.0905866
0.0953368
0.100262
0.10536
0.110626
0.116057
0.121649
0.127398
0.133301
0.139354
0.145554
0.151898
0.158385
0.165012
0.171778
0.17868
0.185718
0.192891
0.200198
0.207637
0.215209
0.222912
0.230745
0.238708
0.246799
0.255018
0.263361
0.271829
0.280418
0.289126
0.297951
0.306889
0.315938
0.325093
0.334351
0.343707
0.353156
0.362692
0.372311
0.382005
0.391767
0.40159
0.411463
0.421379
0.431328
0.441301
0.45129
0.461285
0.471276
0.481253
0.491205
0.501121
0.510989
0.5208
0.53054
0.540199
0.549766
0.55923
0.56858
0.577803
0.586887
0.59582
0.604588
0.613179
0.62158
0.629779
0.637763
0.645521
0.65304
0.660309
0.667318
0.674054
0.680508
0.68667
0.692531
0.698082
0.703314
0.70822
0.712794
0.717029
0.72092
0.724463
0.727652
0.730487
0.732963
0.735081
0.73684
0.738238
0.73927
0.739904
0.740166
0.740139
0.739746
0.738997
0.737901
0.736467
0.734701
0.732611
0.730206
0.727494
0.724486
0.72119
0.717617
0.713778
0.709683
0.705344
0.700773
0.69598
0.690978
0.685779
0.680396
0.674839
0.669122
0.663257
0.657256
0.651133
0.644904
0.638589
0.632224
0.625837
0.619414
0.612945
0.606432
0.599882
0.593304
0.586707
0.580101
0.573492
0.566891
0.560304
0.55374
0.547207
0.540712
0.534267
0.527883
0.521588
0.515402
0.509425
0.503477
0.495193
0.0042824
0.00616344
0.0081652
0.00973864
0.0110663
0.0122636
0.0133957
0.0145045
0.0156201
0.0167662
0.0179622
0.0192238
0.0205635
0.0219906
0.0235114
0.0251294
0.0268457
0.02866
0.030571
0.0325775
0.0346785
0.0368738
0.0391646
0.0415531
0.0440431
0.0466397
0.0493495
0.052181
0.0551435
0.0582474
0.0615032
0.0649212
0.0685104
0.0722789
0.0762328
0.0803768
0.0847136
0.0892452
0.093972
0.0988928
0.104005
0.109306
0.114793
0.120463
0.126313
0.13234
0.13854
0.144909
0.151445
0.158145
0.165007
0.172028
0.179207
0.186542
0.194031
0.201675
0.209471
0.21742
0.22552
0.233772
0.242174
0.250727
0.259429
0.268281
0.27728
0.286426
0.295717
0.305152
0.314729
0.324446
0.334299
0.344286
0.354403
0.364646
0.37501
0.385491
0.396084
0.406781
0.417576
0.428462
0.43943
0.450472
0.461578
0.472737
0.48394
0.495177
0.506437
0.51771
0.528983
0.540246
0.551486
0.562691
0.573848
0.584945
0.595967
0.606903
0.617739
0.628459
0.63905
0.649497
0.659785
0.669901
0.679829
0.689555
0.699064
0.708341
0.717373
0.726146
0.734645
0.742859
0.750773
0.758377
0.765657
0.772604
0.779205
0.785452
0.791335
0.796846
0.801976
0.806719
0.811069
0.815021
0.818571
0.821714
0.82445
0.826776
0.828692
0.830197
0.831288
0.831932
0.832169
0.832046
0.831513
0.83058
0.829254
0.827543
0.825457
0.823004
0.820194
0.817036
0.813542
0.809723
0.80559
0.801156
0.796433
0.791434
0.786172
0.780661
0.774914
0.768945
0.762768
0.756397
0.749845
0.743127
0.736256
0.729249
0.72212
0.714892
0.70759
0.700236
0.692832
0.685375
0.67787
0.670326
0.662752
0.65516
0.647559
0.639961
0.632374
0.624811
0.61728
0.609794
0.602366
0.595013
0.587759
0.580643
0.573707
0.567054
0.560512
0.552454
0.00490068
0.0075527
0.00993359
0.0117514
0.0132745
0.0146436
0.0159354
0.0171981
0.0184658
0.0197647
0.0211157
0.0225355
0.024037
0.0256296
0.0273193
0.0291094
0.0310008
0.0329931
0.0350852
0.037276
0.0395653
0.041954
0.0444443
0.0470405
0.0497483
0.052575
0.0555291
0.0586206
0.0618597
0.0652568
0.068822
0.0725644
0.0764919
0.0806109
0.0849261
0.0894411
0.0941577
0.0990768
0.104198
0.109521
0.115042
0.120762
0.126676
0.132784
0.139082
0.145568
0.152239
0.159093
0.166128
0.173342
0.180733
0.188301
0.196043
0.20396
0.21205
0.220313
0.228748
0.237357
0.246137
0.25509
0.264216
0.273513
0.282983
0.292624
0.302436
0.312418
0.322569
0.332887
0.343371
0.354018
0.364826
0.37579
0.386908
0.398175
0.409587
0.421136
0.432818
0.444625
0.45655
0.468584
0.480717
0.492941
0.505244
0.517615
0.530042
0.542515
0.555021
0.567546
0.58008
0.592607
0.605114
0.617587
0.630011
0.642371
0.654652
0.666837
0.67891
0.690855
0.702655
0.714293
0.725753
0.737018
0.748072
0.758898
0.76948
0.779801
0.789845
0.799597
0.809041
0.818163
0.826948
0.835382
0.843453
0.851148
0.858454
0.865362
0.87186
0.87794
0.883593
0.888811
0.893587
0.897917
0.901795
0.905218
0.908183
0.91069
0.912739
0.914326
0.915454
0.916086
0.916279
0.916044
0.915358
0.914226
0.912658
0.910663
0.908249
0.905428
0.902209
0.898605
0.894626
0.890287
0.8856
0.880579
0.875237
0.86959
0.863653
0.857439
0.850965
0.844245
0.837296
0.830132
0.82277
0.815225
0.807512
0.799648
0.791649
0.783537
0.775334
0.767059
0.75872
0.750321
0.741871
0.73338
0.724859
0.71632
0.707776
0.699238
0.69072
0.682233
0.673791
0.66541
0.657107
0.648906
0.640839
0.632954
0.62531
0.618002
0.610863
0.602663
0.00533251
0.00887077
0.0116321
0.0136925
0.0154087
0.0169451
0.0183885
0.0197929
0.0211958
0.0226258
0.0241051
0.0256515
0.0272783
0.0289954
0.0308092
0.0327233
0.0347393
0.0368576
0.0390778
0.0414003
0.043826
0.0463573
0.0489983
0.0517546
0.0546334
0.0576433
0.0607936
0.0640942
0.0675553
0.0711863
0.0749962
0.0789927
0.0831824
0.0875705
0.0921608
0.0969562
0.101958
0.107168
0.112585
0.118209
0.124039
0.130075
0.136315
0.142758
0.149401
0.156245
0.163287
0.170527
0.177963
0.185595
0.193422
0.201443
0.209658
0.218068
0.226672
0.235471
0.244464
0.253653
0.263038
0.27262
0.282398
0.292373
0.302546
0.312916
0.323483
0.334247
0.345206
0.356359
0.367706
0.379242
0.390965
0.402873
0.41496
0.427223
0.439654
0.452249
0.465
0.4779
0.490939
0.504108
0.517397
0.530794
0.544288
0.557866
0.571515
0.585221
0.598971
0.612749
0.626542
0.640333
0.654107
0.667846
0.681535
0.695154
0.708687
0.722114
0.735418
0.748578
0.761577
0.774395
0.787015
0.799417
0.811583
0.823494
0.835132
0.846479
0.857516
0.868227
0.878595
0.888603
0.898236
0.907477
0.916314
0.924732
0.932718
0.94026
0.947347
0.953969
0.960117
0.965782
0.970958
0.975638
0.979819
0.983496
0.986666
0.98933
0.991486
0.993134
0.994277
0.99488
0.995006
0.994644
0.993787
0.992442
0.990619
0.988326
0.985574
0.982375
0.978741
0.974684
0.970218
0.965356
0.960114
0.954507
0.948549
0.942258
0.93565
0.928741
0.921547
0.914087
0.906377
0.898433
0.890274
0.881916
0.873377
0.864672
0.855822
0.846845
0.837762
0.828593
0.819349
0.81004
0.800676
0.791269
0.781833
0.772381
0.762926
0.753484
0.744068
0.734693
0.725377
0.716137
0.706996
0.697983
0.689137
0.680512
0.672174
0.664207
0.656452
0.64791
0.00560853
0.0100874
0.0132118
0.0155055
0.0174068
0.019101
0.0206842
0.0222155
0.0237356
0.0252751
0.0268577
0.0285022
0.0302229
0.0320304
0.0339319
0.0359321
0.0380339
0.0402388
0.0425482
0.0449638
0.0474881
0.050125
0.0528797
0.055759
0.0587706
0.0619232
0.0652262
0.0686889
0.0723204
0.0761292
0.0801231
0.0843087
0.0886917
0.0932766
0.0980669
0.103065
0.108274
0.113694
0.119326
0.125171
0.131229
0.137501
0.143985
0.150683
0.157594
0.164718
0.172055
0.179604
0.187367
0.195344
0.203534
0.211939
0.22056
0.229397
0.238451
0.247723
0.257215
0.266928
0.276863
0.28702
0.297402
0.308008
0.318841
0.329899
0.341184
0.352695
0.364431
0.376391
0.388573
0.400976
0.413596
0.426429
0.439471
0.452716
0.466158
0.479791
0.493605
0.507593
0.521745
0.536049
0.550494
0.565067
0.579755
0.594543
0.609417
0.624361
0.639359
0.654394
0.66945
0.684507
0.699549
0.714555
0.729506
0.744382
0.759162
0.773826
0.788353
0.80272
0.816908
0.830895
0.84466
0.858184
0.871444
0.884422
0.897096
0.909447
0.921454
0.9331
0.944366
0.955233
0.965684
0.975704
0.985276
0.994386
1.00302
1.01116
1.01881
1.02594
1.03255
1.03863
1.04417
1.04917
1.05363
1.05753
1.06087
1.06366
1.0659
1.06758
1.06871
1.06927
1.0693
1.06879
1.06775
1.06617
1.06408
1.06148
1.05838
1.05479
1.05073
1.04622
1.04126
1.03587
1.03007
1.02388
1.01731
1.01038
1.00311
0.995512
0.987609
0.979418
0.970959
0.962249
0.953307
0.944152
0.934802
0.925276
0.915592
0.90577
0.895831
0.885794
0.875673
0.865483
0.855234
0.844942
0.834621
0.824287
0.813954
0.803639
0.793357
0.783128
0.772969
0.762903
0.752956
0.743161
0.733561
0.724217
0.715192
0.706563
0.698174
0.689226
0.0057847
0.0111772
0.0146372
0.0171476
0.0192186
0.021055
0.0227617
0.0244023
0.0260206
0.027649
0.0293125
0.0310311
0.03282
0.034691
0.0366524
0.0387104
0.0408692
0.043132
0.0455018
0.0479818
0.0505758
0.0532888
0.0561268
0.0590967
0.0622065
0.0654644
0.0688792
0.0724593
0.0762129
0.0801475
0.0842701
0.0885866
0.0931022
0.0978214
0.102748
0.107884
0.113234
0.118798
0.12458
0.13058
0.136801
0.143243
0.149909
0.156798
0.163914
0.171256
0.178827
0.186628
0.194659
0.202923
0.211422
0.220157
0.229131
0.238344
0.2478
0.2575
0.267446
0.277641
0.288086
0.298783
0.309734
0.32094
0.332404
0.344124
0.356103
0.36834
0.380835
0.393587
0.406593
0.419851
0.433359
0.447111
0.461102
0.475328
0.48978
0.50445
0.51933
0.534409
0.549675
0.565118
0.580723
0.596475
0.612361
0.628362
0.644464
0.660647
0.676893
0.693183
0.709499
0.725818
0.74212
0.758384
0.774587
0.790706
0.80672
0.822603
0.838333
0.853886
0.869238
0.884368
0.899252
0.913866
0.92819
0.9422
0.955874
0.969191
0.98213
0.994669
1.00679
1.01847
1.0297
1.04045
1.05071
1.06047
1.06971
1.07841
1.08656
1.09416
1.10119
1.10764
1.1135
1.11878
1.12346
1.12755
1.13103
1.13391
1.1362
1.13788
1.13897
1.13945
1.13937
1.13869
1.13744
1.13561
1.13323
1.1303
1.12684
1.12286
1.11837
1.1134
1.10795
1.10204
1.09569
1.08892
1.08174
1.07418
1.06626
1.05798
1.04939
1.04048
1.03129
1.02184
1.01213
1.00221
0.992069
0.981745
0.971254
0.960615
0.94985
0.938977
0.928014
0.916977
0.90588
0.894739
0.88357
0.87239
0.861215
0.850064
0.838955
0.827907
0.816942
0.806085
0.795365
0.78482
0.774495
0.76445
0.754749
0.74546
0.736428
0.72699
0.00634318
0.0121994
0.0159173
0.0186044
0.0208151
0.0227689
0.0245769
0.0263063
0.0280029
0.0297005
0.0314253
0.033198
0.035035
0.0369489
0.0389496
0.0410445
0.0432393
0.0455388
0.0479473
0.0504692
0.0531094
0.0558734
0.0587675
0.0617987
0.0649745
0.0683027
0.0717912
0.0754476
0.0792794
0.0832934
0.087496
0.0918931
0.0964899
0.101291
0.1063
0.111522
0.116959
0.122615
0.128493
0.134596
0.140927
0.147489
0.154285
0.161317
0.168588
0.176101
0.183859
0.191865
0.200121
0.208631
0.217396
0.226422
0.23571
0.245265
0.255088
0.265184
0.275555
0.286205
0.297135
0.30835
0.31985
0.331639
0.343719
0.356089
0.368753
0.381708
0.394956
0.408495
0.422323
0.436437
0.450833
0.465507
0.480452
0.495661
0.511127
0.526839
0.542789
0.558962
0.575348
0.591931
0.608697
0.625629
0.64271
0.659921
0.677243
0.694656
0.712139
0.729671
0.747228
0.764789
0.782329
0.799824
0.81725
0.834581
0.851791
0.868855
0.885747
0.902442
0.918913
0.935136
0.951086
0.966738
0.982068
0.997052
1.01167
1.02589
1.03969
1.05306
1.06597
1.07841
1.09034
1.10176
1.11264
1.12298
1.13275
1.14194
1.15054
1.15854
1.16592
1.17269
1.17882
1.18432
1.18918
1.19339
1.19697
1.19989
1.20218
1.20383
1.20484
1.20522
1.20498
1.20411
1.20262
1.20053
1.19785
1.19458
1.19075
1.18637
1.18145
1.17601
1.17007
1.16364
1.15675
1.14941
1.14165
1.13348
1.12492
1.116
1.10673
1.09714
1.08725
1.07708
1.06665
1.05598
1.04509
1.034
1.02274
1.01133
0.999776
0.988111
0.97635
0.964511
0.952611
0.940667
0.928697
0.916717
0.904748
0.892807
0.880916
0.869095
0.857368
0.845763
0.834312
0.823053
0.812035
0.801317
0.790959
0.781021
0.771352
0.761393
0.00724748
0.0131364
0.0170336
0.0198545
0.0221718
0.0242153
0.0261005
0.0278971
0.0296524
0.0314009
0.0331697
0.03498
0.036849
0.0387903
0.0408148
0.042931
0.045146
0.0474658
0.0498956
0.0524408
0.0551069
0.0578998
0.0608257
0.0638913
0.0671038
0.0704705
0.0739988
0.0776958
0.0815683
0.0856229
0.0898658
0.0943027
0.0989389
0.10378
0.108829
0.114094
0.119576
0.125282
0.131215
0.137381
0.143783
0.150426
0.157314
0.164452
0.171843
0.179494
0.187407
0.195588
0.204039
0.212766
0.221774
0.231066
0.240648
0.250524
0.260698
0.271175
0.281958
0.293052
0.304461
0.316187
0.328234
0.340605
0.353301
0.366325
0.379678
0.393359
0.407368
0.421703
0.436363
0.451343
0.466639
0.482244
0.498152
0.514355
0.530842
0.547603
0.564626
0.581897
0.5994
0.617121
0.635042
0.653143
0.671405
0.689808
0.708329
0.726947
0.745636
0.764374
0.783135
0.801894
0.820624
0.839298
0.85789
0.876371
0.894714
0.912891
0.930874
0.948635
0.966147
0.983382
1.00031
1.01692
1.03316
1.04903
1.06449
1.07953
1.0941
1.10821
1.12181
1.1349
1.14745
1.15944
1.17085
1.18167
1.19189
1.20148
1.21044
1.21876
1.22641
1.23341
1.23973
1.24538
1.25035
1.25463
1.25823
1.26115
1.26339
1.26496
1.26585
1.26607
1.26566
1.26457
1.26282
1.26044
1.25743
1.25382
1.24961
1.24483
1.23948
1.23358
1.22716
1.22024
1.21282
1.20494
1.19661
1.18785
1.17869
1.16915
1.15925
1.14902
1.13846
1.12762
1.11651
1.10514
1.09355
1.08176
1.06978
1.05764
1.04536
1.03296
1.02045
1.00787
0.995229
0.982541
0.969827
0.957108
0.944401
0.931729
0.919112
0.906574
0.894141
0.88184
0.869707
0.857782
0.846114
0.834758
0.823773
0.813211
0.802928
0.792453
0.00814458
0.0139193
0.0179483
0.0208713
0.0232679
0.0253766
0.0273166
0.0291601
0.0309555
0.0327381
0.0345354
0.0363692
0.0382571
0.0402134
0.0422496
0.0443751
0.0465978
0.0489245
0.0513612
0.0539139
0.0565883
0.0593907
0.0623274
0.0654051
0.0686303
0.07201
0.0755506
0.079259
0.0831417
0.0872053
0.091456
0.0958999
0.100543
0.105391
0.11045
0.115726
0.121224
0.12695
0.132911
0.139112
0.14556
0.15226
0.159219
0.166442
0.173936
0.181707
0.189761
0.198102
0.206738
0.215675
0.224918
0.234474
0.244349
0.254548
0.265078
0.275942
0.287148
0.298698
0.310599
0.322853
0.335465
0.348437
0.361772
0.375472
0.389538
0.403968
0.418763
0.433919
0.449434
0.465302
0.481517
0.498072
0.514959
0.532167
0.549685
0.567499
0.585596
0.603959
0.622571
0.641414
0.660468
0.679712
0.699123
0.718678
0.738354
0.758123
0.777961
0.797841
0.817734
0.837614
0.857451
0.877217
0.896881
0.916414
0.935787
0.954969
0.973931
0.992643
1.01108
1.0292
1.04699
1.06442
1.08146
1.09808
1.11425
1.12997
1.14519
1.15989
1.17406
1.18767
1.2007
1.21314
1.22496
1.23615
1.24669
1.25657
1.26577
1.2743
1.28213
1.28926
1.29568
1.30138
1.30637
1.31065
1.31421
1.31705
1.31918
1.32061
1.32133
1.32136
1.32074
1.31938
1.31735
1.31466
1.31132
1.30735
1.30277
1.29758
1.29181
1.28548
1.27859
1.27119
1.26327
1.25488
1.24602
1.23672
1.227
1.21689
1.20641
1.19558
1.18443
1.17297
1.16123
1.14924
1.13701
1.12457
1.11194
1.09915
1.0862
1.07314
1.05997
1.04672
1.0334
1.02005
1.00666
0.993276
0.979905
0.966573
0.953302
0.940116
0.927042
0.914111
0.901358
0.888825
0.876559
0.864615
0.853044
0.841898
0.831039
0.820078
0.00899946
0.0145384
0.0186528
0.0216481
0.0240983
0.0262489
0.0282229
0.0300942
0.0319125
0.0337137
0.0355258
0.0373707
0.0392663
0.0412271
0.043265
0.0453898
0.0476098
0.0499325
0.0523645
0.0549121
0.0575816
0.0603788
0.0633098
0.066381
0.0695989
0.0729698
0.0765005
0.0801976
0.0840678
0.0881177
0.0923542
0.0967839
0.101414
0.10625
0.111301
0.116572
0.12207
0.127804
0.133782
0.140009
0.146496
0.153249
0.160276
0.167586
0.175185
0.183081
0.191282
0.199796
0.208632
0.217796
0.227297
0.237141
0.247337
0.257891
0.26881
0.2801
0.291766
0.303815
0.316251
0.329079
0.342303
0.355925
0.369947
0.384371
0.399197
0.414423
0.430046
0.446064
0.462471
0.479261
0.496425
0.513954
0.531837
0.550062
0.568614
0.587478
0.606638
0.626074
0.645767
0.665696
0.685837
0.706169
0.726665
0.7473
0.768047
0.788878
0.809765
0.830679
0.85159
0.872468
0.893283
0.914003
0.934597
0.955034
0.975282
0.995311
1.01509
1.03458
1.05377
1.07261
1.09109
1.10916
1.12681
1.14401
1.16073
1.17695
1.19263
1.20777
1.22233
1.2363
1.24965
1.26237
1.27444
1.28584
1.29656
1.30658
1.3159
1.3245
1.33238
1.33952
1.34593
1.35159
1.35651
1.36068
1.36411
1.3668
1.36876
1.36998
1.37048
1.37029
1.3694
1.36775
1.36541
1.3624
1.35872
1.35439
1.34943
1.34385
1.33767
1.33092
1.32361
1.31576
1.30739
1.29852
1.28918
1.2794
1.26918
1.25856
1.24756
1.23621
1.22452
1.21252
1.20024
1.1877
1.17491
1.16191
1.14872
1.13535
1.12184
1.1082
1.09445
1.08062
1.06673
1.05279
1.03882
1.02486
1.01091
0.997006
0.983165
0.969414
0.955781
0.942298
0.929001
0.91593
0.903132
0.890661
0.878563
0.866887
0.855505
0.84411
0.00980381
0.0150003
0.0191549
0.0221924
0.0246711
0.0268411
0.0288289
0.0307099
0.0325349
0.0343405
0.0361547
0.0379996
0.039893
0.0418492
0.0438805
0.0459968
0.0482067
0.0505176
0.0529362
0.0554688
0.0581218
0.0609011
0.0638133
0.0668645
0.0700614
0.0734105
0.0769188
0.0805922
0.0844382
0.0884644
0.0926784
0.0970876
0.1017
0.106523
0.111566
0.116837
0.122342
0.128093
0.134099
0.140369
0.146913
0.15374
0.160861
0.168285
0.176021
0.18408
0.192472
0.201207
0.210294
0.219743
0.229563
0.239762
0.25035
0.261333
0.272719
0.284514
0.296725
0.309356
0.322413
0.3359
0.349821
0.364176
0.378968
0.394195
0.409856
0.425947
0.442465
0.459402
0.476752
0.494504
0.512649
0.531173
0.550064
0.569305
0.588879
0.608769
0.628954
0.649413
0.670124
0.691063
0.712204
0.733523
0.75499
0.77658
0.798262
0.820007
0.841786
0.863566
0.885317
0.907007
0.928605
0.950078
0.971395
0.992522
1.01343
1.03408
1.05445
1.0745
1.09421
1.11354
1.13247
1.15096
1.16899
1.18654
1.20357
1.22007
1.236
1.25135
1.26609
1.28021
1.29368
1.30649
1.31861
1.33004
1.34076
1.35076
1.36003
1.36856
1.37633
1.38335
1.38961
1.39511
1.39985
1.40382
1.40703
1.40948
1.41119
1.41215
1.41238
1.41192
1.41071
1.40874
1.40608
1.40273
1.3987
1.39402
1.38869
1.38275
1.37619
1.36906
1.36135
1.3531
1.34433
1.33506
1.32531
1.3151
1.30446
1.29341
1.28198
1.27019
1.25806
1.24562
1.23289
1.21989
1.20665
1.19319
1.17954
1.16571
1.15173
1.13762
1.1234
1.1091
1.09473
1.08032
1.06588
1.05144
1.03702
1.02265
1.00834
0.994118
0.980022
0.966079
0.952326
0.938802
0.925554
0.912632
0.900078
0.887941
0.876104
0.864345
0.0105607
0.0153192
0.0194701
0.0225203
0.0250027
0.0271701
0.029152
0.0310253
0.032842
0.0346391
0.0364441
0.0382793
0.0401624
0.0421074
0.0441257
0.0462271
0.0484201
0.0507121
0.0531102
0.055621
0.0582508
0.0610061
0.0638934
0.0669196
0.0700917
0.0734175
0.0769057
0.0805612
0.084392
0.0884063
0.0926123
0.0970182
0.101632
0.106464
0.111526
0.116825
0.122372
0.12818
0.13426
0.140623
0.147281
0.154247
0.161531
0.169147
0.177105
0.185417
0.194096
0.203154
0.212605
0.222458
0.232722
0.243406
0.254521
0.266073
0.278068
0.290512
0.303411
0.316768
0.330589
0.344874
0.359627
0.374845
0.390527
0.40667
0.423269
0.440317
0.457807
0.475728
0.49407
0.512819
0.531961
0.55148
0.57136
0.591581
0.612123
0.632966
0.654086
0.675459
0.697061
0.718866
0.740847
0.762976
0.785224
0.807563
0.829961
0.852389
0.874815
0.897208
0.919536
0.941768
0.963871
0.985813
1.00756
1.02908
1.05035
1.07133
1.09199
1.11229
1.13222
1.15174
1.17082
1.18944
1.20756
1.22517
1.24223
1.25873
1.27464
1.28994
1.30461
1.31863
1.33198
1.34464
1.3566
1.36785
1.37837
1.38815
1.39718
1.40546
1.41297
1.41972
1.4257
1.4309
1.43534
1.439
1.4419
1.44403
1.44541
1.44605
1.44596
1.44519
1.44361
1.44131
1.43831
1.43462
1.43026
1.42524
1.41958
1.4133
1.40641
1.39894
1.3909
1.38232
1.37322
1.36362
1.35353
1.343
1.33203
1.32065
1.30889
1.29677
1.2843
1.27153
1.25847
1.24514
1.23156
1.21777
1.20377
1.1896
1.17528
1.16083
1.14627
1.13162
1.11691
1.10215
1.08736
1.07257
1.0578
1.04307
1.02841
1.01384
0.999396
0.985102
0.970997
0.957121
0.943517
0.930234
0.917312
0.904799
0.892588
0.880551
0.0113039
0.0155189
0.0196234
0.0226563
0.0251162
0.0272579
0.0292137
0.0310623
0.0328569
0.0346357
0.0364257
0.0382474
0.0401173