/*--------------------------------*- C++ -*----------------------------------*\
| =========                 |                                                 |
| \\      /  F ield         | OpenFOAM: The Open Source CFD Toolbox           |
|  \\    /   O peration     | Version:  2312                                  |
|   \\  /    A nd           | Website:  www.openfoam.com                      |
|    \\/     M anipulation  |                                                 |
\*---------------------------------------------------------------------------*/
FoamFile
{
    version     2.0;
    format      ascii;
    arch        "LSB;label=32;scalar=64";
    class       volScalarField;
    location    "275";
    object      mag(U);
}
// * * * * * * * * * * * * * * * * * * * * * * * * * * * * * * * * * * * * * //

dimensions      [0 1 -1 0 0 0 0];

internalField   nonuniform List<scalar> 
12225
(
4.91717
4.70388
4.45476
4.20464
3.98085
3.79118
3.63277
3.50084
3.39171
3.30144
3.22648
3.16388
3.11135
3.06731
3.03072
3.00185
2.97611
2.96699
5.07624
5.14494
5.13417
5.08668
5.0273
4.96179
4.89052
4.81608
4.74183
4.67017
4.60241
4.53917
4.48088
4.42765
4.37951
4.33635
4.29936
4.26697
5.00441
5.02831
5.05661
5.07537
5.08627
5.09033
5.08679
5.07652
5.0613
5.04284
5.02228
5.00052
4.97833
4.95629
4.93494
4.9146
4.89637
4.87791
4.99801
5.00997
5.03473
5.05417
5.06847
5.08018
5.08881
5.09406
5.09655
5.09695
5.09568
5.09312
5.08958
5.08544
5.08096
5.07633
5.07184
5.06606
4.9993
5.00893
5.02801
5.04337
5.05562
5.0671
5.07721
5.08535
5.09181
5.09698
5.10111
5.10437
5.10693
5.10897
5.11062
5.11192
5.11285
5.11264
5.00013
5.00827
5.02345
5.0366
5.04774
5.0585
5.0684
5.07689
5.08418
5.09056
5.09622
5.10126
5.10579
5.10992
5.11368
5.11706
5.11994
5.12185
5.00028
5.00717
5.01994
5.03186
5.04227
5.05231
5.06169
5.07
5.07736
5.08402
5.0901
5.09569
5.10087
5.10569
5.11016
5.11423
5.11777
5.1205
5.00029
5.00611
5.01707
5.02801
5.0378
5.04721
5.05611
5.06415
5.07141
5.07805
5.0842
5.08992
5.09527
5.10027
5.10492
5.10915
5.11286
5.11588
5.00031
5.00522
5.01462
5.02458
5.03379
5.04267
5.05113
5.05891
5.06601
5.07256
5.07865
5.08434
5.08967
5.09465
5.09927
5.10347
5.10716
5.11026
5.00032
5.00449
5.0125
5.02148
5.0301
5.03847
5.04652
5.05402
5.06094
5.06736
5.07335
5.07895
5.08418
5.08907
5.09357
5.09767
5.10128
5.10438
5.00031
5.00385
5.01069
5.01872
5.0267
5.03455
5.04217
5.04937
5.05608
5.06234
5.0682
5.07368
5.07879
5.08355
5.08793
5.0919
5.09541
5.09848
5.00029
5.00335
5.00928
5.0165
5.02388
5.03123
5.03844
5.04533
5.05182
5.0579
5.06361
5.06895
5.07394
5.07856
5.08282
5.08667
5.0901
5.09313
5.00027
5.00293
5.00808
5.01455
5.02135
5.02821
5.035
5.04156
5.04778
5.05366
5.0592
5.06439
5.06923
5.07372
5.07784
5.08159
5.08493
5.08792
5.00024
5.00253
5.00694
5.01265
5.01882
5.02513
5.03144
5.0376
5.04351
5.04912
5.05443
5.05941
5.06407
5.06839
5.07236
5.07598
5.07924
5.08217
5.00022
5.00215
5.0059
5.01087
5.01639
5.02213
5.02793
5.03364
5.03918
5.04447
5.0495
5.05423
5.05866
5.06278
5.06658
5.07006
5.0732
5.07606
5.00019
5.00182
5.005
5.0093
5.01419
5.01936
5.02464
5.02989
5.03503
5.03997
5.04468
5.04914
5.05332
5.05722
5.06083
5.06415
5.06717
5.06994
5.00016
5.00155
5.00426
5.008
5.01234
5.01699
5.02179
5.02662
5.03136
5.03596
5.04036
5.04454
5.04847
5.05215
5.05557
5.05873
5.06163
5.06431
5.00014
5.00136
5.00375
5.00708
5.01101
5.01526
5.01968
5.02415
5.02857
5.03287
5.037
5.04093
5.04465
5.04814
5.05139
5.05442
5.05721
5.05981
5.00013
5.00128
5.00353
5.0067
5.01044
5.0145
5.01873
5.023
5.02723
5.03135
5.03531
5.03909
5.04265
5.04601
5.04915
5.05209
5.05481
5.05735
5.00014
5.00136
5.00375
5.00711
5.01103
5.01523
5.01956
5.0239
5.02817
5.03231
5.03626
5.04001
5.04356
5.04688
5.04999
5.0529
5.0556
5.05811
5.00015
5.0015
5.00419
5.00795
5.01225
5.01676
5.02135
5.0259
5.03033
5.03457
5.0386
5.0424
5.04596
5.0493
5.05241
5.05531
5.05801
5.06052
5.00015
5.00165
5.00482
5.0092
5.01404
5.01897
5.02391
5.02875
5.0334
5.03779
5.04192
5.04578
5.04939
5.05274
5.05586
5.05876
5.06146
5.06395
5.00012
5.00172
5.00553
5.01076
5.01626
5.02166
5.02699
5.03215
5.03703
5.04158
5.04581
5.04975
5.0534
5.05678
5.05991
5.06281
5.0655
5.06798
5.00005
5.00168
5.0063
5.01247
5.01861
5.02454
5.03037
5.03591
5.04104
5.04577
5.05014
5.05417
5.05788
5.0613
5.06443
5.06733
5.07
5.07245
4.99981
5.00118
5.00708
5.0143
5.02098
5.02754
5.03407
5.04017
5.04568
5.05068
5.05524
5.05939
5.06315
5.06656
5.06966
5.07247
5.07503
5.07736
4.99829
4.99838
5.00725
5.01679
5.02451
5.0319
5.03926
5.04602
5.05197
5.05725
5.06193
5.06607
5.0697
5.07286
5.07562
5.07801
5.0801
5.0819
4.99435
4.99232
5.00594
5.02054
5.03163
5.0411
5.04959
5.05677
5.06266
5.06749
5.07141
5.07449
5.07681
5.07846
5.07953
5.0801
5.08026
5.08008
4.9949
4.99743
5.01306
5.03042
5.04576
5.05863
5.06802
5.07367
5.07617
5.07625
5.0744
5.07096
5.06626
5.06055
5.05409
5.04706
5.03963
5.03201
5.04132
5.09339
5.10213
5.09232
5.08022
5.06601
5.04633
5.02099
4.99171
4.96008
4.92724
4.89397
4.86087
4.82837
4.79673
4.76615
4.73668
4.70867
4.97373
4.89674
4.76601
4.60652
4.44796
4.30367
4.1753
4.0617
3.96179
3.87433
3.79761
3.73003
3.67017
3.61692
3.56926
3.52641
3.48744
3.4522
0.00084763
0.00378861
0.00785794
0.012452
0.0169266
0.0209682
0.0244016
0.0271239
0.029094
0.0303241
0.0308694
0.0307726
0.0301327
0.0290497
0.0275953
0.0258224
0.0237631
0.0214283
0.0188123
0.0159003
0.0126846
0.00920543
0.00574028
0.0040649
0.00705151
0.0123103
0.0186147
0.0257993
0.0338799
0.0429158
0.0529778
0.0641367
0.076455
0.0899826
0.104751
0.120774
0.138041
0.156524
0.176175
0.196926
0.218689
0.241368
0.264858
0.289048
0.31383
0.339098
0.36475
0.390692
0.41684
0.443117
0.469457
0.4958
0.522099
0.548312
0.574403
0.600345
0.626113
0.651687
0.677051
0.702191
0.727091
0.751741
0.776128
0.800239
0.824062
0.847582
0.870786
0.893658
0.916179
0.938332
0.960096
0.981451
1.00237
1.02284
1.04282
1.0623
1.08123
1.0996
1.11736
1.1345
1.15097
1.16675
1.18181
1.1961
1.20971
1.22259
1.23474
1.24613
1.25673
1.26654
1.27551
1.28362
1.29082
1.29709
1.30237
1.30661
1.30976
1.31175
1.3125
1.31233
1.31122
1.30917
1.3062
1.30229
1.29744
1.29164
1.28489
1.2772
1.26855
1.25895
1.2484
1.23691
1.22448
1.21112
1.19685
1.18166
1.16557
1.1486
1.13077
1.11208
1.09256
1.07222
1.0511
1.0292
1.00657
0.983206
0.959148
0.934417
0.909038
0.883044
0.856464
0.829324
0.801656
0.773488
0.744853
0.715783
0.686309
0.656463
0.626274
0.595776
0.564998
0.533971
0.502726
0.47129
0.439692
0.407959
0.37612
0.344199
0.312224
0.280219
0.248212
0.21623
0.184306
0.152482
0.120822
0.0894509
0.0587231
0.03031
0.0194229
0.0422063
0.071435
0.101532
0.131764
0.161935
0.191982
0.221885
0.251631
0.281211
0.310616
0.339832
0.368839
0.397606
0.426081
0.454166
0.48173
0.508378
0.533926
0.555393
0.576608
0.564643
0.0057353
0.0129508
0.0174182
0.0199977
0.021416
0.022078
0.0222163
0.0219446
0.0212917
0.020247
0.0187935
0.0169437
0.0147091
0.0121693
0.00959992
0.00780493
0.00831819
0.0115989
0.0166668
0.0228864
0.0300412
0.03808
0.0470192
0.0568982
0.0677564
0.0796399
0.0926028
0.106692
0.121937
0.138352
0.15593
0.174644
0.194447
0.215269
0.237026
0.259618
0.282935
0.306861
0.331269
0.356037
0.381051
0.406209
0.431416
0.456591
0.481663
0.506575
0.531279
0.555739
0.579927
0.603822
0.627413
0.650689
0.673646
0.696282
0.718597
0.740592
0.762269
0.783628
0.80467
0.825394
0.8458
0.865884
0.885643
0.90507
0.924158
0.9429
0.961286
0.979304
0.996941
1.01419
1.03102
1.04743
1.06341
1.07892
1.09397
1.10852
1.12257
1.13609
1.14907
1.1615
1.17336
1.18465
1.19535
1.20545
1.21491
1.2237
1.23181
1.23922
1.2459
1.25183
1.25701
1.26142
1.26504
1.26788
1.26993
1.27122
1.27177
1.27166
1.27095
1.2694
1.26698
1.26366
1.25942
1.25427
1.2482
1.24119
1.23324
1.22436
1.21455
1.2038
1.19211
1.1795
1.16597
1.15152
1.13616
1.11991
1.10278
1.08478
1.06592
1.04623
1.02572
1.00441
0.982319
0.959474
0.935898
0.911613
0.886645
0.861018
0.834757
0.807894
0.780455
0.752469
0.723967
0.694979
0.665534
0.635666
0.605405
0.574784
0.543832
0.512582
0.481065
0.449312
0.417355
0.385224
0.352949
0.320564
0.288099
0.255593
0.223085
0.190629
0.158302
0.126233
0.094701
0.0644786
0.0386636
0.0311067
0.0505747
0.0790383
0.109609
0.140808
0.17221
0.203654
0.235065
0.266398
0.297633
0.328757
0.359759
0.39063
0.421361
0.451938
0.48234
0.512534
0.542466
0.572044
0.601132
0.629408
0.65662
0.681016
0.704457
0.714843
0.0127539
0.0216579
0.0231804
0.0218911
0.0194893
0.016547
0.0133532
0.0101252
0.00714543
0.00516094
0.00567958
0.00853933
0.0125274
0.0172272
0.022576
0.0286011
0.0353494
0.042868
0.0512007
0.0603877
0.0704668
0.0814737
0.0934422
0.106402
0.120372
0.135359
0.151354
0.168327
0.186227
0.204987
0.224519
0.244722
0.265485
0.286692
0.308224
0.32997
0.351823
0.373687
0.395478
0.41714
0.43863
0.459913
0.480969
0.501785
0.522356
0.542685
0.562776
0.582636
0.602276
0.621704
0.640928
0.659955
0.678792
0.697444
0.715913
0.7342
0.752306
0.770229
0.787965
0.80551
0.822858
0.840001
0.856931
0.873639
0.890114
0.906343
0.922315
0.938014
0.953428
0.96854
0.983335
0.997795
1.0119
1.02564
1.039
1.05195
1.06447
1.07656
1.08819
1.09935
1.11002
1.12018
1.12981
1.13888
1.14737
1.15525
1.16251
1.16912
1.17506
1.18031
1.18487
1.18872
1.19185
1.19425
1.19592
1.19686
1.19707
1.19651
1.19517
1.193
1.18997
1.18608
1.1813
1.17565
1.16909
1.16164
1.15328
1.14402
1.13385
1.12278
1.11081
1.09793
1.08417
1.06952
1.05399
1.03759
1.02034
1.00225
0.983327
0.963595
0.94307
0.921771
0.899717
0.87693
0.853434
0.829251
0.804408
0.778927
0.752837
0.726162
0.698929
0.67117
0.642914
0.61419
0.58503
0.555465
0.525527
0.495247
0.46466
0.433798
0.402696
0.37139
0.339918
0.308321
0.276647
0.244952
0.21331
0.18183
0.15069
0.120221
0.0911608
0.065455
0.0487406
0.05079
0.0699087
0.0963619
0.125534
0.155851
0.186715
0.217849
0.249104
0.280399
0.311679
0.342909
0.374069
0.405144
0.436122
0.466991
0.497741
0.528357
0.558818
0.589089
0.619117
0.648817
0.678062
0.706591
0.734206
0.75978
0.784973
0.803113
0.018588
0.02659
0.0248749
0.0205377
0.0154425
0.0101247
0.00512495
0.0039358
0.00858179
0.014291
0.0203134
0.0266027
0.0332119
0.040223
0.0477278
0.055816
0.0645692
0.0740566
0.0843333
0.0954405
0.107405
0.120239
0.133942
0.148498
0.163876
0.180029
0.196892
0.214386
0.232417
0.250881
0.269669
0.288671
0.307781
0.326901
0.345948
0.36485
0.383554
0.402025
0.420248
0.438218
0.455938
0.473417
0.490672
0.507726
0.5246
0.541318
0.5579
0.574365
0.590726
0.606996
0.623183
0.639294
0.65533
0.671292
0.68718
0.702988
0.718711
0.734343
0.749876
0.7653
0.780605
0.79578
0.810811
0.825687
0.840394
0.854917
0.869241
0.883349
0.897227
0.910856
0.92422
0.9373
0.950079
0.962537
0.974657
0.986419
0.997804
1.00879
1.01937
1.02951
1.03919
1.04841
1.05712
1.06531
1.07296
1.08003
1.08652
1.09239
1.09764
1.10223
1.10617
1.10943
1.11201
1.11388
1.11504
1.11547
1.11516
1.11408
1.11221
1.10953
1.10603
1.10169
1.0965
1.09047
1.08357
1.07581
1.06718
1.05768
1.04731
1.03606
1.02395
1.01097
0.997136
0.982446
0.966913
0.950545
0.933353
0.915351
0.896552
0.876973
0.85663
0.835541
0.813727
0.791208
0.768008
0.744149
0.719656
0.694555
0.668873
0.642633
0.615862
0.588593
0.560857
0.532683
0.504106
0.475158
0.445876
0.416298
0.386463
0.356416
0.326206
0.295894
0.265551
0.235273
0.205195
0.175525
0.146618
0.119132
0.0944198
0.0753503
0.0669925
0.0731358
0.0908751
0.114936
0.142112
0.170885
0.200532
0.230679
0.261125
0.291754
0.322488
0.353269
0.384056
0.414815
0.445526
0.476174
0.506744
0.537225
0.567604
0.597865
0.627988
0.657937
0.687665
0.717094
0.746115
0.77452
0.802193
0.828386
0.854788
0.876735
0.0217205
0.0270107
0.0228513
0.0171136
0.0119473
0.0096451
0.0122448
0.0177968
0.0244331
0.0315625
0.0390278
0.04681
0.0549449
0.0634932
0.0725249
0.08211
0.0923114
0.103179
0.114749
0.127038
0.140046
0.153754
0.168128
0.183113
0.198644
0.21464
0.231011
0.247661
0.264489
0.281395
0.298288
0.315083
0.331709
0.348112
0.36425
0.380101
0.395659
0.410929
0.42593
0.440681
0.455211
0.46955
0.483732
0.497789
0.511749
0.525639
0.539478
0.553287
0.567077
0.580859
0.594639
0.608419
0.622199
0.635976
0.649746
0.663501
0.677233
0.690932
0.704588
0.718187
0.731718
0.745167
0.758519
0.77176
0.784874
0.797845
0.810656
0.82329
0.835731
0.84796
0.859958
0.871708
0.88319
0.894386
0.905277
0.915842
0.926062
0.935917
0.945388
0.954454
0.963095
0.971288
0.979012
0.986243
0.992958
0.999136
1.00476
1.0098
1.01424
1.01807
1.02128
1.02383
1.02573
1.02695
1.02747
1.02729
1.02639
1.02473
1.02231
1.01911
1.01512
1.01034
1.00474
0.998336
0.991107
0.983053
0.974169
0.964454
0.953907
0.942529
0.930321
0.917288
0.903434
0.888767
0.873294
0.857025
0.839971
0.822144
0.803559
0.78423
0.764174
0.743411
0.721959
0.699839
0.677074
0.653688
0.629707
0.605157
0.580066
0.55446
0.528368
0.501825
0.474865
0.447527
0.41985
0.391879
0.363665
0.335265
0.306751
0.27821
0.24976
0.22156
0.19385
0.167005
0.141648
0.118871
0.100568
0.0896407
0.0889334
0.0987135
0.116386
0.138973
0.16445
0.191649
0.219908
0.248842
0.278214
0.307873
0.337722
0.367699
0.397757
0.427858
0.457971
0.488069
0.518133
0.548148
0.578101
0.60798
0.637772
0.667462
0.697028
0.726441
0.755656
0.784605
0.813203
0.841292
0.86883
0.895317
0.922486
0.946347
0.0215957
0.0234051
0.017993
0.0133518
0.0130416
0.0175201
0.0243069
0.0320088
0.0401645
0.0486279
0.0573657
0.066393
0.0757482
0.0854813
0.0956448
0.106288
0.117449
0.129156
0.141418
0.154227
0.167559
0.181369
0.195599
0.210177
0.225022
0.240045
0.255156
0.270265
0.285287
0.300148
0.314784
0.329145
0.343196
0.356918
0.370305
0.383367
0.396123
0.408599
0.420828
0.432846
0.444691
0.456401
0.468012
0.479558
0.491066
0.502562
0.514066
0.525594
0.537159
0.548766
0.560422
0.572126
0.583877
0.595671
0.6075
0.619355
0.631228
0.643107
0.654979
0.66683
0.678647
0.690415
0.702118
0.713739
0.725264
0.736674
0.747953
0.759082
0.770044
0.780821
0.791394
0.801743
0.811851
0.821698
0.831264
0.84053
0.849477
0.858085
0.866333
0.874202
0.88167
0.888716
0.89532
0.901459
0.907112
0.912258
0.916877
0.920951
0.924461
0.927389
0.92972
0.931437
0.932524
0.932965
0.932745
0.931845
0.93025
0.927942
0.924907
0.921134
0.916614
0.911338
0.905299
0.89849
0.890905
0.882541
0.873392
0.863459
0.852741
0.841238
0.828952
0.815889
0.802052
0.787449
0.772088
0.755978
0.73913
0.721558
0.703275
0.684297
0.664641
0.644327
0.623374
0.601804
0.579643
0.556917
0.533652
0.509882
0.485638
0.460954
0.435865
0.410419
0.384664
0.35866
0.332475
0.306193
0.279922
0.253804
0.228032
0.202885
0.178778
0.156345
0.136568
0.12091
0.111263
0.109348
0.115635
0.128987
0.147533
0.169593
0.193976
0.219905
0.246882
0.274582
0.302788
0.331353
0.360171
0.389168
0.41829
0.447497
0.476761
0.506058
0.535363
0.564659
0.593929
0.62316
0.65234
0.681458
0.710503
0.73946
0.768311
0.797028
0.825574
0.853895
0.881924
0.909552
0.9368
0.963325
0.990889
1.01565
0.0183041
0.0166816
0.0121764
0.0134997
0.0199518
0.0281729
0.0370029
0.0461319
0.0554709
0.0650033
0.0747427
0.0847178
0.0949644
0.10552
0.116419
0.127689
0.139347
0.151398
0.163829
0.176612
0.189706
0.203054
0.216587
0.23023
0.243902
0.257523
0.271015
0.284307
0.297339
0.310061
0.322439
0.334451
0.346089
0.357358
0.368276
0.378867
0.389164
0.399205
0.40903
0.418679
0.428194
0.437612
0.446971
0.456301
0.46563
0.474983
0.484377
0.493828
0.503345
0.512936
0.522604
0.532349
0.542167
0.552054
0.562003
0.572004
0.582046
0.592117
0.602205
0.612294
0.622371
0.632419
0.642423
0.652366
0.662232
0.672002
0.681659
0.691185
0.700564
0.709775
0.718801
0.727623
0.736222
0.744581
0.752679
0.760498
0.768019
0.775222
0.782088
0.788598
0.794732
0.80047
0.805792
0.810677
0.815106
0.81906
0.822521
0.825469
0.827889
0.829762
0.831074
0.831808
0.83195
0.831484
0.830394
0.828666
0.826284
0.823234
0.819504
0.815085
0.809969
0.804148
0.797615
0.790365
0.782393
0.773695
0.76427
0.754115
0.743232
0.731621
0.719286
0.70623
0.692461
0.677984
0.66281
0.646948
0.630411
0.613212
0.595368
0.576895
0.557814
0.538146
0.517916
0.497149
0.475878
0.454134
0.431957
0.409393
0.386489
0.363303
0.339901
0.316369
0.292815
0.269374
0.246228
0.223619
0.201889
0.181516
0.163176
0.147797
0.136544
0.13064
0.13094
0.137507
0.149597
0.166065
0.185788
0.207865
0.231636
0.256635
0.282533
0.309095
0.336154
0.363584
0.391292
0.419209
0.447279
0.475462
0.503724
0.53204
0.560393
0.588764
0.61714
0.645507
0.673851
0.702163
0.730434
0.758653
0.786812
0.814898
0.842895
0.870781
0.898525
0.926086
0.95342
0.980456
1.00727
1.0336
1.06125
1.08627
0.012345
0.00874897
0.0118036
0.0204834
0.0301726
0.0400661
0.0500417
0.0600948
0.0702425
0.0805088
0.0909206
0.101506
0.112291
0.123299
0.134547
0.146043
0.157785
0.169758
0.181936
0.194279
0.206737
0.219247
0.231745
0.244158
0.256418
0.268459
0.28022
0.291652
0.302717
0.313387
0.323649
0.333502
0.342955
0.352029
0.360751
0.369156
0.377284
0.385175
0.392871
0.400414
0.407846
0.415202
0.422518
0.429825
0.437147
0.444507
0.451924
0.45941
0.466976
0.474627
0.482367
0.490194
0.498107
0.5061
0.514166
0.522295
0.530476
0.538697
0.546946
0.555207
0.563465
0.571705
0.579912
0.588067
0.596155
0.604158
0.61206
0.619841
0.627485
0.634975
0.642292
0.649418
0.656336
0.663029
0.669477
0.675664
0.681571
0.687181
0.692475
0.697435
0.702044
0.706284
0.710135
0.713581
0.716603
0.719184
0.721307
0.722957
0.724116
0.724771
0.724907
0.724509
0.723563
0.722056
0.719974
0.717304
0.714032
0.710148
0.705643
0.700506
0.694733
0.688316
0.681251
0.673534
0.66516
0.656128
0.646437
0.636086
0.625079
0.613416
0.601104
0.588147
0.574554
0.560334
0.545499
0.530061
0.514038
0.497447
0.480309
0.462649
0.444494
0.425876
0.406832
0.387407
0.367651
0.347626
0.327409
0.30709
0.286784
0.266634
0.246825
0.2276
0.209282
0.192295
0.177195
0.164673
0.155521
0.150516
0.150218
0.154782
0.163907
0.176973
0.193249
0.212045
0.232789
0.25503
0.278424
0.302714
0.327701
0.353235
0.3792
0.405504
0.432074
0.458851
0.48579
0.512852
0.540006
0.567228
0.594498
0.621798
0.649115
0.676441
0.703765
0.731078
0.758372
0.785639
0.812872
0.840065
0.867209
0.894295
0.921312
0.948241
0.975061
1.00174
1.02826
1.05458
1.08081
1.10676
1.1342
1.15906
0.00465216
0.00971715
0.0206911
0.0315509
0.0422487
0.0528259
0.0633503
0.0738781
0.084448
0.095089
0.105824
0.116673
0.127648
0.138757
0.150001
0.161371
0.172851
0.184414
0.196023
0.207633
0.219192
0.230642
0.241922
0.252973
0.263739
0.27417
0.284223
0.293867
0.30308
0.311852
0.320185
0.328089
0.335586
0.342701
0.34947
0.35593
0.362122
0.368088
0.373868
0.379505
0.385036
0.390497
0.39592
0.401334
0.406765
0.412231
0.417751
0.423337
0.428998
0.434741
0.440569
0.446481
0.452475
0.458546
0.464686
0.470888
0.477139
0.483429
0.489744
0.49607
0.502393
0.508697
0.514966
0.521186
0.527338
0.533407
0.539376
0.545229
0.550949
0.55652
0.561924
0.567147
0.572171
0.57698
0.581559
0.585891
0.589961
0.593752
0.59725
0.600438
0.603301
0.605822
0.607988
0.609781
0.611188
0.612194
0.612784
0.612945
0.612663
0.611925
0.61072
0.609034
0.606857
0.604178
0.600983
0.597265
0.593011
0.588215
0.582868
0.576965
0.570501
0.563472
0.555875
0.547709
0.538972
0.529665
0.51979
0.509351
0.498351
0.486798
0.474701
0.462071
0.448921
0.435269
0.421133
0.406538
0.391512
0.37609
0.360311
0.344224
0.327887
0.311371
0.294764
0.278173
0.261732
0.24561
0.230022
0.215238
0.201593
0.189496
0.179423
0.171896
0.167419
0.166391
0.169016
0.175255
0.184853
0.197413
0.212488
0.229647
0.248508
0.268754
0.290123
0.312408
0.335441
0.359088
0.383238
0.407804
0.432711
0.457898
0.483314
0.508915
0.534665
0.560533
0.586492
0.612522
0.638603
0.664721
0.690862
0.717016
0.743174
0.76933
0.79548
0.821617
0.847737
0.873835
0.899907
0.925949
0.951956
0.977922
1.00384
1.02969
1.05547
1.08116
1.10674
1.13222
1.15773
1.1831
1.2101
1.23449
0.00631334
0.0211203
0.0333978
0.0446284
0.055504
0.0662051
0.0768285
0.0874367
0.0980654
0.108736
0.11946
0.130245
0.141089
0.151986
0.162922
0.173877
0.184823
0.195725
0.206543
0.217229
0.227734
0.238007
0.247997
0.257654
0.266938
0.27581
0.284244
0.292221
0.299733
0.306781
0.313376
0.319535
0.325284
0.330653
0.335679
0.340399
0.344852
0.349079
0.35312
0.357012
0.360791
0.36449
0.368139
0.371765
0.375391
0.379035
0.382713
0.386438
0.390219
0.394062
0.39797
0.401943
0.405979
0.410073
0.414219
0.418409
0.422631
0.426876
0.431131
0.435382
0.439616
0.443818
0.447973
0.452066
0.456083
0.460007
0.463825
0.467521
0.471079
0.474487
0.477729
0.480792
0.483662
0.486324
0.488767
0.490977
0.492941
0.494647
0.496082
0.497233
0.498089
0.498638
0.498867
0.498765
0.498321
0.497524
0.496363
0.494828
0.492909
0.490596
0.487881
0.484756
0.481211
0.47724
0.472834
0.467987
0.462694
0.45695
0.450751
0.444097
0.436986
0.429419
0.421399
0.412929
0.404015
0.394664
0.384887
0.374695
0.364105
0.353137
0.341813
0.330165
0.318227
0.306043
0.293667
0.281164
0.268612
0.256111
0.243777
0.231758
0.220229
0.209407
0.199545
0.190936
0.183906
0.178793
0.175916
0.175535
0.177806
0.182759
0.190305
0.200256
0.212369
0.22638
0.242032
0.25909
0.277348
0.296627
0.316777
0.337671
0.359201
0.381277
0.403822
0.426768
0.45006
0.473647
0.497486
0.521538
0.545771
0.570154
0.594661
0.619269
0.643958
0.668709
0.693507
0.71834
0.743196
0.768066
0.792942
0.817818
0.842688
0.867549
0.8924
0.917238
0.942062
0.96687
0.99166
1.01643
1.04118
1.06591
1.0906
1.11527
1.13989
1.16447
1.18901
1.21353
1.23817
1.26281
1.28915
1.31283
0.0164066
0.0347412
0.0476275
0.0588007
0.0694672
0.0799318
0.090314
0.100678
0.111051
0.121447
0.131865
0.142299
0.152736
0.163158
0.17354
0.183852
0.19406
0.204125
0.214005
0.223654
0.233029
0.242082
0.250774
0.259067
0.266929
0.274335
0.28127
0.287723
0.293696
0.299195
0.304237
0.308841
0.313036
0.316852
0.320323
0.323486
0.326378
0.329036
0.331495
0.33379
0.335954
0.338015
0.340001
0.341936
0.343839
0.345728
0.347618
0.349518
0.351439
0.353384
0.355358
0.357361
0.359391
0.361443
0.363511
0.365588
0.367664
0.369729
0.371771
0.373778
0.375738
0.377637
0.379461
0.381199
0.382835
0.384358
0.385754
0.387012
0.388119
0.389063
0.389835
0.390422
0.390816
0.391006
0.390984
0.390741
0.390267
0.389556
0.388599
0.38739
0.38592
0.384183
0.382172
0.379881
0.377305
0.374438
0.371274
0.367809
0.364038
0.359959
0.355567
0.350862
0.345841
0.340503
0.334848
0.328878
0.322595
0.316005
0.309115
0.301935
0.294477
0.286758
0.278796
0.270617
0.262249
0.253729
0.245101
0.236417
0.227742
0.219155
0.210748
0.202636
0.19495
0.187847
0.181506
0.176122
0.171908
0.169076
0.167821
0.168306
0.17064
0.174873
0.180985
0.188906
0.198522
0.209696
0.222282
0.236135
0.251117
0.267101
0.283977
0.301642
0.320007
0.338996
0.358542
0.378588
0.399081
0.419975
0.441226
0.462799
0.484658
0.506771
0.52911
0.551648
0.57436
0.597224
0.620219
0.643325
0.666524
0.6898
0.713139
0.736527
0.759951
0.783402
0.80687
0.830348
0.853829
0.877309
0.900782
0.924245
0.947696
0.971135
0.994563
1.01798
1.04138
1.06478
1.08817
1.11155
1.13493
1.1583
1.18166
1.20502
1.22838
1.25174
1.27512
1.29856
1.32221
1.34594
1.37145
1.39424
0.0271223
0.0491131
0.0625484
0.0735088
0.0837536
0.0937406
0.10363
0.113492
0.123355
0.133222
0.143087
0.152932
0.162737
0.172473
0.182109
0.19161
0.200936
0.210047
0.218901
0.227456
0.235673
0.243515
0.250947
0.257942
0.264474
0.270529
0.276097
0.281174
0.285767
0.289887
0.293552
0.296782
0.299606
0.302051
0.30415
0.305936
0.30744
0.308697
0.309736
0.310589
0.311281
0.31184
0.312287
0.312643
0.312926
0.313149
0.313324
0.313461
0.313565
0.313642
0.313694
0.313719
0.313716
0.31368
0.313604
0.313481
0.313303
0.31306
0.312741
0.312335
0.31183
0.311216
0.310479
0.309609
0.308595
0.307427
0.306095
0.304589
0.302902
0.301026
0.298955
0.296681
0.294201
0.29151
0.288604
0.285479
0.282135
0.278569
0.274781
0.270769
0.266536
0.262081
0.257407
0.252516
0.247412
0.242101
0.236587
0.230879
0.224985
0.218916
0.212686
0.206311
0.199812
0.193211
0.186538
0.17983
0.17313
0.166493
0.159983
0.153681
0.147681
0.142096
0.137057
0.132712
0.129221
0.126752
0.125464
0.125497
0.126955
0.129894
0.134322
0.140198
0.147448
0.155975
0.165672
0.176431
0.188152
0.200741
0.214117
0.228207
0.24295
0.25829
0.27418
0.290579
0.307451
0.324763
0.342488
0.360597
0.379067
0.397876
0.417
0.436416
0.456105
0.476047
0.496225
0.516622
0.537221
0.558007
0.578963
0.600075
0.621326
0.642704
0.664194
0.685782
0.707457
0.729204
0.751014
0.772875
0.794776
0.816709
0.838664
0.860633
0.88261
0.904589
0.926564
0.948532
0.97049
0.992436
1.01437
1.03628
1.05818
1.08007
1.10195
1.12382
1.14568
1.16755
1.18941
1.21129
1.23317
1.25508
1.277
1.29895
1.32093
1.34296
1.36507
1.38731
1.40984
1.43252
1.45702
1.47877
0.0378769
0.0636706
0.0776736
0.0883602
0.0980614
0.107409
0.11662
0.125784
0.134931
0.144067
0.153178
0.162244
0.171238
0.180127
0.188874
0.197442
0.205789
0.213877
0.221665
0.229114
0.23619
0.242859
0.249094
0.254872
0.260177
0.264999
0.269334
0.273183
0.276555
0.279463
0.281924
0.283958
0.285592
0.28685
0.28776
0.288351
0.288651
0.288688
0.288488
0.288076
0.287474
0.286703
0.285782
0.284725
0.283545
0.282254
0.280859
0.279367
0.277782
0.276104
0.274335
0.272472
0.27051
0.268445
0.266269
0.263975
0.261554
0.258996
0.256291
0.253427
0.250395
0.247182
0.243778
0.240173
0.236358
0.232325
0.228066
0.223574
0.218844
0.21387
0.208649
0.203178
0.197455
0.191479
0.185249
0.178767
0.172035
0.165054
0.15783
0.150368
0.142674
0.134757
0.126629
0.118304
0.109802
0.10115
0.0923855
0.0835622
0.0747613
0.0661092
0.0578095
0.0501972
0.0438191
0.0394909
0.0381421
0.0402872
0.045625
0.0533687
0.0627753
0.0733306
0.0847147
0.0967315
0.109259
0.122217
0.135554
0.149233
0.163228
0.17752
0.192094
0.206938
0.222045
0.237404
0.253011
0.268859
0.284942
0.301255
0.317795
0.334555
0.351531
0.368718
0.386112
0.403707
0.421499
0.439481
0.457648
0.475997
0.49452
0.513209
0.532058
0.551064
0.570213
0.589499
0.608911
0.628444
0.648089
0.667838
0.687683
0.707616
0.727629
0.747713
0.76786
0.788062
0.808312
0.8286
0.848921
0.869267
0.889631
0.910006
0.930387
0.950768
0.971145
0.991513
1.01187
1.03221
1.05253
1.07284
1.09312
1.11339
1.13364
1.15387
1.17409
1.1943
1.2145
1.2347
1.2549
1.27511
1.29534
1.31559
1.33587
1.35619
1.37656
1.39698
1.41748
1.43808
1.45881
1.47973
1.50102
1.52252
1.54586
1.56643
0.048426
0.0781098
0.0927041
0.103086
0.112167
0.120762
0.129157
0.137468
0.145739
0.153979
0.162178
0.170316
0.178362
0.186284
0.194044
0.201603
0.20892
0.215953
0.222666
0.229021
0.234987
0.240537
0.245647
0.250301
0.254487
0.258199
0.261435
0.2642
0.266504
0.26836
0.269784
0.270797
0.27142
0.271677
0.271592
0.27119
0.270495
0.269529
0.268315
0.266871
0.265216
0.263365
0.261334
0.259133
0.256772
0.254258
0.251595
0.248788
0.245839
0.242748
0.239514
0.236135
0.232606
0.228924
0.225083
0.221078
0.216903
0.21255
0.208012
0.203281
0.198352
0.193219
0.187878
0.182326
0.176564
0.170592
0.164414
0.158037
0.15147
0.144727
0.137825
0.130789
0.123648
0.116444
0.10923
0.102076
0.0950745
0.0883499
0.0820649
0.0764313
0.0717137
0.0682197
0.0662642
0.066105
0.0678724
0.0715349
0.076925
0.0838039
0.0919234
0.101062
0.111039
0.121712
0.132972
0.144734
0.156935
0.169525
0.182464
0.195721
0.209272
0.223095
0.237173
0.251492
0.266039
0.280804
0.295776
0.310947
0.32631
0.341857
0.357582
0.373478
0.389539
0.405761
0.422137
0.438663
0.455333
0.472142
0.489086
0.50616
0.523359
0.540678
0.558114
0.57566
0.593313
0.611068
0.628923
0.646871
0.664906
0.683024
0.701221
0.719493
0.737829
0.756227
0.774678
0.793178
0.811723
0.830308
0.848926
0.867574
0.886245
0.904935
0.923638
0.942351
0.961068
0.979784
0.998496
1.0172
1.03589
1.05457
1.07323
1.09186
1.11048
1.12907
1.14763
1.16617
1.18468
1.20317
1.22164
1.24008
1.25851
1.27692
1.29532
1.31372
1.33211
1.35052
1.36893
1.38737
1.40585
1.42436
1.44292
1.46155
1.48025
1.49905
1.51796
1.53701
1.55626
1.57575
1.59567
1.61586
1.63792
1.65721
0.0587043
0.0923143
0.1075
0.117539
0.125932
0.133681
0.141145
0.148474
0.155734
0.162947
0.17011
0.177207
0.18421
0.191086
0.197796
0.204299
0.210556
0.216525
0.222172
0.227461
0.232364
0.236857
0.240919
0.244539
0.247706
0.250419
0.252679
0.254492
0.25587
0.256827
0.257379
0.257547
0.257348
0.256807
0.255945
0.254784
0.253347
0.251654
0.249724
0.247575
0.245225
0.242687
0.239977
0.237106
0.234085
0.230924
0.227634
0.224223
0.220701
0.217076
0.213358
0.209557
0.205684
0.201751
0.197773
0.193766
0.189749
0.185741
0.181766
0.177852
0.174033
0.170347
0.16684
0.16356
0.160565
0.157912
0.155667
0.153894
0.152659
0.152025
0.152049
0.152782
0.154261
0.156515
0.159558
0.163391
0.168003
0.173374
0.179474
0.186271
0.193724
0.201795
0.210444
0.219631
0.229319
0.239473
0.25006
0.261049
0.272414
0.28413
0.296176
0.308529
0.321173
0.334088
0.347262
0.360678
0.374325
0.388191
0.402265
0.416537
0.430997
0.445636
0.460446
0.475419
0.490547
0.505822
0.521239
0.53679
0.552468
0.568266
0.584179
0.6002
0.616323
0.632542
0.648851
0.665245
0.681718
0.698265
0.71488
0.731557
0.748294
0.765082
0.781921
0.798804
0.815728
0.832685
0.849674
0.866688
0.883726
0.90078
0.917846
0.934919
0.951995
0.96907
0.986142
1.00321
1.02026
1.0373
1.05433
1.07133
1.08832
1.10528
1.12221
1.13911
1.15599
1.17283
1.18964
1.20641
1.22315
1.23986
1.25653
1.27316
1.28977
1.30634
1.32289
1.33941
1.3559
1.37238
1.38884
1.4053
1.42175
1.4382
1.45467
1.47115
1.48766
1.50421
1.52081
1.53747
1.55421
1.57103
1.58796
1.60502
1.62224
1.63964
1.6573
1.67525
1.6937
1.71247
1.73311
1.75102
0.0690954
0.106759
0.122516
0.132129
0.139721
0.146486
0.152866
0.159055
0.16515
0.171189
0.177181
0.183116
0.18897
0.194709
0.200296
0.20569
0.210848
0.215731
0.220303
0.22453
0.228385
0.231848
0.234901
0.237534
0.239743
0.241528
0.242894
0.243852
0.244416
0.244602
0.24443
0.243921
0.243097
0.241981
0.240599
0.238976
0.237139
0.235112
0.232922
0.230593
0.228152
0.225624
0.223038
0.22042
0.2178
0.215209
0.212679
0.210245
0.207944
0.205817
0.203903
0.202245
0.200886
0.199872
0.199247
0.199055
0.199339
0.200136
0.201483
0.203409
0.20594
0.209095
0.212886
0.217318
0.222388
0.228087
0.234402
0.241312
0.248795
0.256824
0.265371
0.274407
0.283901
0.293824
0.304146
0.31484
0.32588
0.337239
0.348893
0.360822
0.373003
0.385419
0.398052
0.410886
0.423906
0.437101
0.450457
0.463965
0.477617
0.491402
0.505313
0.519342
0.533483
0.54773
0.562078
0.576522
0.591056
0.605678
0.620383
0.635168
0.650029
0.664961
0.679962
0.695027
0.710154
0.725338
0.740576