/*--------------------------------*- C++ -*----------------------------------*\
| =========                 |                                                 |
| \\      /  F ield         | OpenFOAM: The Open Source CFD Toolbox           |
|  \\    /   O peration     | Version:  2312                                  |
|   \\  /    A nd           | Website:  www.openfoam.com                      |
|    \\/     M anipulation  |                                                 |
\*---------------------------------------------------------------------------*/
FoamFile
{
    version     2.0;
    format      ascii;
    arch        "LSB;label=32;scalar=64";
    class       volScalarField;
    location    "275";
    object      nut;
}
// * * * * * * * * * * * * * * * * * * * * * * * * * * * * * * * * * * * * * //

dimensions      [0 2 -1 0 0 0 0];

internalField   nonuniform List<scalar> 
12225
(
2.57608e-05
3.0202e-05
3.18937e-05
3.19921e-05
3.16411e-05
3.13085e-05
3.06219e-05
3.00181e-05
2.94935e-05
2.90438e-05
2.8662e-05
2.83411e-05
2.80682e-05
2.78439e-05
2.7642e-05
2.75057e-05
2.73204e-05
2.7359e-05
0.000155552
6.71031e-05
4.94767e-05
4.08902e-05
3.61221e-05
3.34897e-05
3.18056e-05
3.10869e-05
3.0852e-05
3.08489e-05
3.10947e-05
3.1454e-05
3.18371e-05
3.22515e-05
3.28009e-05
3.31918e-05
3.37979e-05
3.40872e-05
0.000460566
0.000207735
0.000143451
0.00011326
9.42705e-05
8.26501e-05
7.4308e-05
6.8343e-05
6.4181e-05
6.0938e-05
5.86095e-05
5.66923e-05
5.53602e-05
5.41906e-05
5.3425e-05
5.28053e-05
5.23812e-05
5.19009e-05
0.000720918
0.00044036
0.000317407
0.000254242
0.000214796
0.000189308
0.000170664
0.000157572
0.000147009
0.000138454
0.000132083
0.000126354
0.000122124
0.000117821
0.00011505
0.000111654
0.000110015
0.000106705
0.000811661
0.000662238
0.000522495
0.0004356
0.000376703
0.000336193
0.000305915
0.000283609
0.000265869
0.000251979
0.000240402
0.00023034
0.000222822
0.000215167
0.00021006
0.000203661
0.000200735
0.000194254
0.000839423
0.00078482
0.000687396
0.000605804
0.000541712
0.000493091
0.000454824
0.000425003
0.000400874
0.000381263
0.000365119
0.00035136
0.000339796
0.000329187
0.000321386
0.000312779
0.000307945
0.000299237
0.00085044
0.000829198
0.00078518
0.000729088
0.000676195
0.000630866
0.000592346
0.000560227
0.000533218
0.000510345
0.000491104
0.000474253
0.000460355
0.000447486
0.000436785
0.000426565
0.000419622
0.000409279
0.000852232
0.000846247
0.00082652
0.000800461
0.000765823
0.000732173
0.000700644
0.000672202
0.000646954
0.00062454
0.000604989
0.000587439
0.000572351
0.000558764
0.000546676
0.000535588
0.000527061
0.000515853
0.000851841
0.000850783
0.000843817
0.000832367
0.000814404
0.000794929
0.000773587
0.000752606
0.000732719
0.000714073
0.000697056
0.000681263
0.000667264
0.000654168
0.000642464
0.000631419
0.000622715
0.000611681
0.000851567
0.000851227
0.000848979
0.000844792
0.000837068
0.00082716
0.000815315
0.000802399
0.000789165
0.000775946
0.000763228
0.000750922
0.000739515
0.000728549
0.00071872
0.000708768
0.000701057
0.000691241
0.000851528
0.000850978
0.000850017
0.000848508
0.000845577
0.000841276
0.000835636
0.000828875
0.00082137
0.000813341
0.000805158
0.000796847
0.000788799
0.000780755
0.000773375
0.000765665
0.000759444
0.00075165
0.000851552
0.00085083
0.000850074
0.000849235
0.000847924
0.000845976
0.000843303
0.000839889
0.000835862
0.000831297
0.000826406
0.000821208
0.000815978
0.000810552
0.000805427
0.000799945
0.000795348
0.000789607
0.000851573
0.000850774
0.00085002
0.000849312
0.000848521
0.000847529
0.00084625
0.000844608
0.000842613
0.000840253
0.000837617
0.000834693
0.00083164
0.000828353
0.000825146
0.000821625
0.000818569
0.000814708
0.000851583
0.000850759
0.000849987
0.000849271
0.000848587
0.000847892
0.000847144
0.000846294
0.000845321
0.00084419
0.000842921
0.000841486
0.000839952
0.000838252
0.000836544
0.000834624
0.00083289
0.000830705
0.000851584
0.000850755
0.000849975
0.000849243
0.000848558
0.000847908
0.000847282
0.000846661
0.000846034
0.000845379
0.000844696
0.000843961
0.000843195
0.000842361
0.000841518
0.00084058
0.000839697
0.000838635
0.000851584
0.000850752
0.000849968
0.00084923
0.000848536
0.000847882
0.000847264
0.000846677
0.000846117
0.000845575
0.00084505
0.000844531
0.000844021
0.000843506
0.000843
0.000842477
0.000841973
0.000841431
0.000851583
0.000850749
0.000849963
0.000849221
0.000848523
0.000847863
0.00084724
0.000846651
0.000846093
0.000845562
0.000845057
0.000844574
0.000844113
0.000843669
0.000843243
0.000842828
0.000842432
0.00084204
0.000851583
0.000850748
0.00084996
0.000849216
0.000848515
0.000847852
0.000847225
0.000846632
0.000846069
0.000845535
0.000845028
0.000844545
0.000844085
0.000843646
0.000843227
0.000842826
0.000842443
0.000842077
0.000851583
0.000850748
0.000849959
0.000849215
0.000848512
0.000847848
0.000847219
0.000846624
0.000846058
0.000845521
0.000845009
0.000844521
0.000844054
0.000843608
0.00084318
0.00084277
0.000842374
0.000841996
0.000851583
0.000850749
0.000849961
0.000849219
0.000848517
0.000847853
0.000847223
0.000846622
0.000846044
0.000845486
0.000844943
0.000844412
0.000843887
0.000843371
0.000842853
0.000842346
0.000841828
0.000841332
0.000851584
0.00085075
0.000849966
0.000849227
0.000848524
0.000847841
0.000847163
0.000846475
0.000845758
0.000845006
0.000844206
0.000843362
0.000842462
0.000841524
0.000840526
0.000839516
0.000838424
0.000837391
0.000851577
0.000850755
0.00084999
0.000849222
0.000848393
0.000847427
0.000846265
0.000844871
0.000843229
0.000841353
0.00083925
0.000836969
0.000834513
0.00083196
0.000829269
0.000826594
0.000823747
0.000821129
0.00085154
0.000850851
0.000849965
0.000848587
0.000846506
0.000843537
0.000839672
0.000835023
0.000829728
0.000823973
0.000817886
0.000811642
0.000805292
0.000799018
0.000792735
0.000786754
0.000780653
0.000775254
0.000851554
0.000851106
0.000847894
0.000842101
0.000833644
0.000822676
0.000810119
0.000796728
0.000783065
0.000769572
0.000756448
0.000743941
0.000732015
0.000720867
0.000710281
0.000700608
0.000691094
0.000683008
0.000852101
0.000847632
0.000830416
0.000808101
0.000781561
0.000752434
0.000724544
0.000698576
0.000674888
0.000653504
0.000634196
0.000616957
0.000601305
0.000587432
0.000574786
0.000563349
0.000552595
0.000543711
0.000849719
0.000814165
0.000762211
0.000698952
0.000644457
0.000598159
0.000559755
0.000527566
0.000500729
0.000477986
0.000458595
0.000442044
0.000427517
0.000415153
0.000403725
0.00039414
0.000384806
0.000377575
0.000832523
0.000684334
0.000565228
0.000481285
0.000422131
0.000378323
0.000345558
0.000319847
0.00029976
0.000283161
0.000269725
0.000258363
0.000248413
0.000240226
0.000232634
0.000226665
0.000220488
0.00021602
0.000661598
0.00039504
0.00029134
0.000235836
0.000199291
0.000174186
0.000156599
0.000143377
0.000133498
0.000125335
0.000118776
0.000113615
0.000109063
0.000105499
0.000102108
9.95647e-05
9.69075e-05
9.50523e-05
0.00025825
0.000128363
9.4527e-05
7.58847e-05
6.45442e-05
5.71648e-05
5.25899e-05
4.93411e-05
4.69781e-05
4.54352e-05
4.43011e-05
4.35439e-05
4.29747e-05
4.26411e-05
4.23825e-05
4.22914e-05
4.2208e-05
4.22605e-05
3.13126e-05
3.48369e-05
3.67038e-05
3.75973e-05
3.77955e-05
3.77121e-05
3.74898e-05
3.71249e-05
3.67323e-05
3.63421e-05
3.59703e-05
3.56247e-05
3.53077e-05
3.5019e-05
3.47573e-05
3.45203e-05
3.43053e-05
3.41105e-05
1.54366e-06
4.06074e-06
4.81855e-06
5.50467e-06
6.0874e-06
6.57522e-06
6.98441e-06
7.33065e-06
7.62678e-06
7.88392e-06
8.11172e-06
8.32337e-06
8.52699e-06
8.72647e-06
8.92593e-06
9.12886e-06
9.33645e-06
9.54894e-06
9.76475e-06
9.98259e-06
1.02009e-05
1.04212e-05
1.06519e-05
1.09216e-05
1.12722e-05
1.16823e-05
1.21257e-05
1.25954e-05
1.3091e-05
1.36152e-05
1.417e-05
1.47572e-05
1.53767e-05
1.60279e-05
1.67077e-05
1.74134e-05
1.81407e-05
1.8886e-05
1.96451e-05
2.04145e-05
2.11874e-05
2.19613e-05
2.27326e-05
2.34992e-05
2.42588e-05
2.50103e-05
2.57523e-05
2.64846e-05
2.72062e-05
2.79175e-05
2.86181e-05
2.93086e-05
2.99889e-05
3.06597e-05
3.13211e-05
3.19738e-05
3.26179e-05
3.32542e-05
3.38827e-05
3.45041e-05
3.51185e-05
3.57264e-05
3.63278e-05
3.69232e-05
3.75126e-05
3.80962e-05
3.86741e-05
3.92464e-05
3.98131e-05
4.03743e-05
4.09297e-05
4.14797e-05
4.20239e-05
4.25624e-05
4.30952e-05
4.36223e-05
4.41437e-05
4.46599e-05
4.51712e-05
4.56787e-05
4.61838e-05
4.66893e-05
4.71994e-05
4.77218e-05
4.82243e-05
4.87233e-05
4.92089e-05
4.96862e-05
5.01517e-05
5.06066e-05
5.10495e-05
5.14803e-05
5.1898e-05
5.23019e-05
5.26914e-05
5.30659e-05
5.34252e-05
5.37706e-05
5.4106e-05
5.44265e-05
5.47338e-05
5.50273e-05
5.53071e-05
5.55728e-05
5.58242e-05
5.60611e-05
5.62834e-05
5.64907e-05
5.66829e-05
5.68598e-05
5.70214e-05
5.71673e-05
5.72976e-05
5.74121e-05
5.75107e-05
5.75933e-05
5.76599e-05
5.77105e-05
5.77451e-05
5.77636e-05
5.77662e-05
5.77528e-05
5.77237e-05
5.76788e-05
5.76185e-05
5.75428e-05
5.74518e-05
5.73457e-05
5.72233e-05
5.70824e-05
5.69293e-05
5.67659e-05
5.65861e-05
5.63918e-05
5.61839e-05
5.59625e-05
5.57282e-05
5.54812e-05
5.52219e-05
5.49507e-05
5.46682e-05
5.43746e-05
5.40704e-05
5.3756e-05
5.34319e-05
5.30985e-05
5.27563e-05
5.24057e-05
5.20472e-05
5.16812e-05
5.13082e-05
5.09288e-05
5.05433e-05
5.01523e-05
4.97564e-05
4.93564e-05
4.8954e-05
4.85562e-05
4.82207e-05
4.79882e-05
4.77697e-05
4.75503e-05
4.73286e-05
4.71061e-05
4.68829e-05
4.66587e-05
4.64339e-05
4.62088e-05
4.59834e-05
4.57581e-05
4.55327e-05
4.53072e-05
4.50812e-05
4.48541e-05
4.46245e-05
4.43894e-05
4.4143e-05
4.38691e-05
4.35475e-05
4.25335e-05
2.23521e-06
7.62007e-06
1.70321e-05
2.60996e-05
3.31911e-05
3.85602e-05
4.26109e-05
4.57379e-05
4.82451e-05
5.03434e-05
5.21508e-05
5.37029e-05
5.51475e-05
5.66232e-05
5.81727e-05
5.97921e-05
6.14541e-05
6.31217e-05
6.47556e-05
6.63178e-05
6.77694e-05
6.90694e-05
7.0173e-05
7.10409e-05
7.16889e-05
7.22112e-05
7.26892e-05
7.31755e-05
7.37115e-05
7.43361e-05
7.50861e-05
7.59946e-05
7.70885e-05
7.83869e-05
7.99007e-05
8.16333e-05
8.35802e-05
8.573e-05
8.81153e-05
9.07518e-05
9.36204e-05
9.67124e-05
0.000100018
0.000103526
0.000107224
0.000111098
0.000115135
0.000119322
0.000123645
0.000128095
0.000132658
0.000137326
0.000142089
0.00014694
0.000151872
0.000156878
0.000161955
0.000167099
0.000172306
0.000177574
0.000182901
0.000188287
0.000193729
0.000199227
0.00020478
0.000210388
0.00021605
0.000221763
0.000227529
0.000233344
0.000239207
0.000245115
0.000251066
0.000257057
0.000263081
0.000269134
0.000275208
0.000281295
0.000287383
0.000293459
0.000299511
0.000305522
0.000311484
0.000317411
0.000323364
0.000329298
0.000335245
0.000341186
0.00034713
0.000353069
0.000359003
0.000364927
0.000370834
0.000376711
0.000382539
0.000388285
0.000393885
0.000399233
0.000404139
0.000408999
0.000413779
0.000418488
0.00042312
0.000427671
0.000432138
0.000436515
0.000440799
0.000444986
0.000449071
0.00045305
0.000456919
0.000460675
0.000464314
0.000467832
0.000471226
0.000474492
0.000477628
0.000480631
0.000483498
0.000486227
0.000488815
0.000491261
0.000493563
0.00049572
0.000497732
0.0004996
0.000501329
0.000502934
0.000504407
0.000505604
0.000506631
0.00050764
0.000508488
0.000509164
0.000509691
0.000510072
0.000510309
0.000510404
0.000510359
0.000510178
0.000509864
0.000509419
0.000508847
0.000508151
0.000507335
0.000506402
0.000505357
0.000504202
0.000502943
0.000501582
0.000500125
0.000498574
0.000496934
0.000495208
0.000493396
0.000491497
0.000489494
0.000487297
0.000484486
0.000480612
0.00047633
0.000471902
0.000467401
0.000462844
0.000458238
0.000453594
0.00044892
0.000444219
0.000439494
0.000434748
0.000429979
0.00042519
0.000420379
0.00041554
0.000410663
0.000405714
0.00040061
0.000395296
0.000389042
0.000370505
2.931e-06
1.08511e-05
2.64653e-05
4.29297e-05
5.7245e-05
6.88442e-05
7.78671e-05
8.48336e-05
9.02138e-05
9.44357e-05
9.78654e-05
0.000100765
0.000103347
0.000105763
0.000108091
0.000110391
0.000112685
0.000114966
0.000117215
0.000119408
0.000121519
0.00012353
0.000125431
0.000127235
0.00012898
0.000130731
0.000132554
0.000134505
0.000136638
0.000139003
0.000141651
0.000144626
0.000147971
0.000151719
0.000155898
0.000160529
0.000165625
0.000171353
0.000177659
0.00018438
0.000191498
0.000198983
0.000206812
0.000214973
0.000223437
0.000232176
0.000241163
0.000250372
0.00025978
0.000269365
0.000279107
0.00028899
0.000299
0.000309126
0.000319357
0.000329687
0.000340108
0.000350616
0.000361207
0.000371878
0.000382629
0.000393456
0.000404359
0.000415337
0.000426389
0.000437513
0.000448708
0.000459972
0.000471301
0.000482694
0.000494145
0.00050565
0.000517204
0.0005288
0.00054043
0.000552086
0.000563757
0.000575432
0.000587102
0.000598755
0.000610381
0.000621976
0.000633541
0.000645087
0.000656627
0.000668141
0.000679637
0.000691101
0.00070253
0.000713913
0.00072524
0.000736497
0.000747665
0.000758721
0.000769633
0.00078036
0.000790853
0.000801053
0.000810986
0.000820782
0.000830425
0.000839909
0.000849224
0.000858363
0.000867316
0.000876074
0.00088463
0.000892975
0.0009011
0.000908998
0.000916662
0.000924082
0.000931254
0.000938168
0.00094482
0.000951203
0.00095731
0.000963137
0.000968678
0.000973929
0.000978886
0.000983546
0.000987905
0.000991963
0.000995719
0.000999173
0.00100233
0.00100524
0.00100788
0.00100998
0.00101173
0.00101339
0.00101472
0.00101571
0.0010164
0.00101679
0.00101688
0.00101668
0.00101619
0.00101542
0.00101438
0.00101307
0.00101151
0.00100968
0.00100761
0.00100531
0.00100277
0.001
0.000997027
0.000993844
0.000990462
0.000986891
0.000983137
0.000979208
0.000975107
0.000970833
0.000966359
0.000961574
0.00095612
0.00094966
0.000942618
0.000935274
0.000927746
0.00092008
0.0009123
0.000904426
0.000896473
0.000888449
0.000880363
0.000872219
0.000864013
0.000855757
0.000847447
0.000839071
0.000830603
0.000821982
0.000813081
0.000803614
0.000792304
0.000765908
3.47129e-06
1.42967e-05
3.5252e-05
5.71214e-05
7.61465e-05
9.17032e-05
0.000104024
0.00011365
0.000121143
0.000127015
0.000131698
0.00013555
0.000138863
0.000141861
0.000144715
0.000147513
0.000150304
0.000153112
0.000155945
0.000158804
0.000161692
0.000164619
0.000167608
0.000170694
0.000173928
0.00017737
0.00018108
0.000185119
0.000189543
0.000194407
0.000199758
0.00020564
0.000212088
0.000219131
0.000226788
0.000235075
0.000244005
0.00025342
0.00026326
0.000273569
0.000284392
0.000295757
0.000307591
0.000319786
0.0003323
0.000345101
0.000358157
0.000371441
0.000384927
0.000398596
0.00041243
0.000426412
0.000440531
0.000454773
0.000469132
0.0004836
0.000498171
0.000512843
0.000527611
0.000542473
0.000557429
0.000572476
0.000587613
0.000602838
0.000618151
0.000633548
0.000649027
0.000664586
0.00068022
0.000695924
0.000711694
0.000727523
0.000743404
0.000759329
0.00077529
0.000791277
0.000807281
0.000823291
0.000839298
0.000855294
0.000871271
0.000887223
0.000903149
0.000919045
0.000934908
0.000950725
0.000966489
0.000982187
0.000997809
0.00101334
0.00102877
0.00104407
0.00105922
0.0010742
0.00108898
0.00110353
0.00111781
0.00113182
0.00114558
0.00115914
0.00117248
0.00118559
0.00119847
0.00121109
0.00122345
0.00123554
0.00124734
0.00125885
0.00127005
0.00128093
0.00129149
0.0013017
0.00131157
0.00132109
0.00133024
0.00133902
0.00134741
0.00135542
0.00136304
0.00137025
0.00137706
0.00138346
0.00138945
0.00139501
0.00140017
0.0014049
0.00140923
0.00141325
0.0014168
0.0014197
0.00142215
0.0014244
0.00142619
0.00142753
0.00142846
0.00142896
0.00142906
0.00142876
0.00142805
0.00142696
0.00142549
0.00142365
0.00142145
0.00141889
0.00141598
0.00141275
0.00140919
0.00140531
0.00140114
0.00139668
0.00139193
0.00138692
0.00138166
0.00137614
0.00137039
0.00136439
0.00135813
0.00135152
0.00134433
0.00133635
0.0013278
0.00131886
0.00130965
0.00130025
0.00129067
0.00128095
0.00127111
0.00126116
0.00125112
0.00124099
0.00123084
0.00122062
0.00121032
0.00119994
0.00118946
0.0011788
0.00116783
0.00115615
0.00114217
0.00111493
3.86348e-06
1.82758e-05
4.43792e-05
7.06556e-05
9.31931e-05
0.000111543
0.000126107
0.000137531
0.000146468
0.000153507
0.000159157
0.000163839
0.000167891
0.000171573
0.000175073
0.00017852
0.000181994
0.000185545
0.000189204
0.000192995
0.00019694
0.000201066
0.000205412
0.000210023
0.000214953
0.00022026
0.000226002
0.000232235
0.000239009
0.00024637
0.000254355
0.000262991
0.000272295
0.000282275
0.000292927
0.000304235
0.000316167
0.000328677
0.000341744
0.000355378
0.00036949
0.000383984
0.000398828
0.000414025
0.000429547
0.000445359
0.000461432
0.000477734
0.000494238
0.000510935
0.00052781
0.000544848
0.000562036
0.000579363
0.000596821
0.000614403
0.000632104
0.000649919
0.000667843
0.000685876
0.000704012
0.000722251
0.000740589
0.000759024
0.000777553
0.000796173
0.000814878
0.000833665
0.000852529
0.000871462
0.00089046
0.000909514
0.000928615
0.000947756
0.000966928
0.000986119
0.00100532
0.00102452
0.00104372
0.00106289
0.00108204
0.00110116
0.00112023
0.00113925
0.00115821
0.00117709
0.00119589
0.00121459
0.00123318
0.00125164
0.00126994
0.00128809
0.00130604
0.0013238
0.00134132
0.00135861
0.00137564
0.00139241
0.00140893
0.00142519
0.0014412
0.00145693
0.00147237
0.00148751
0.00150234
0.00151684
0.001531
0.00154481
0.00155826
0.00157133
0.00158401
0.0015963
0.00160818
0.00161963
0.00163066
0.00164125
0.00165139
0.00166108
0.00167031
0.00167906
0.00168734
0.00169513
0.00170244
0.00170926
0.00171559
0.00172143
0.0017268
0.00173182
0.00173619
0.00173989
0.0017431
0.00174599
0.00174834
0.00175018
0.00175151
0.00175236
0.00175271
0.00175259
0.00175199
0.00175093
0.00174942
0.00174745
0.00174506
0.00174223
0.00173899
0.00173535
0.00173132
0.00172691
0.00172213
0.00171699
0.00171152
0.00170572
0.0016996
0.00169319
0.00168648
0.00167947
0.00167216
0.00166449
0.00165633
0.00164756
0.00163828
0.00162858
0.00161858
0.00160832
0.00159786
0.00158721
0.00157641
0.00156546
0.0015544
0.00154323
0.00153196
0.00152061
0.00150918
0.00149767
0.00148606
0.00147431
0.00146229
0.00144958
0.00143454
0.00140897
4.13536e-06
2.25556e-05
5.35109e-05
8.35556e-05
0.000108976
0.00012958
0.000145918
0.000158769
0.000168877
0.000176904
0.000183413
0.000188867
0.000193641
0.000198023
0.000202226
0.000206402
0.000210656
0.000215058
0.000219658
0.000224493
0.0002296
0.000235017
0.000240789
0.000246962
0.000253589
0.000260722
0.000268411
0.000276703
0.000285635
0.000295239
0.000305536
0.000316536
0.000328241
0.00034064
0.000353716
0.00036744
0.000381779
0.000396694
0.000412152
0.000428114
0.000444528
0.000461343
0.000478528
0.00049606
0.000513911
0.000532052
0.000550457
0.000569106
0.000587982
0.000607055
0.000626306
0.000645719
0.000665284
0.000684988
0.000704824
0.000724785
0.000744863
0.000765055
0.000785355
0.00080576
0.000826265
0.000846867
0.000867563
0.000888349
0.000909221
0.000930174
0.000951204
0.000972306
0.000993473
0.0010147
0.00103598
0.0010573
0.00107866
0.00110005
0.00112146
0.00114288
0.0011643
0.00118572
0.00120711
0.00122848
0.00124982
0.00127111
0.00129234
0.0013135
0.00133458
0.00135557
0.00137645
0.00139722
0.00141784
0.00143832
0.00145863
0.00147876
0.00149869
0.0015184
0.00153788
0.00155711
0.0015761
0.00159481
0.00161326
0.00163143
0.00164931
0.00166688
0.00168414
0.00170107
0.00171766
0.00173389
0.00174975
0.00176523
0.00178031
0.00179498
0.00180923
0.00182305
0.00183643
0.00184935
0.0018618
0.00187378
0.00188527
0.00189627
0.00190676
0.00191674
0.00192621
0.00193515
0.00194356
0.00195144
0.00195878
0.00196558
0.00197193
0.0019778
0.00198298
0.00198747
0.00199148
0.00199503
0.00199802
0.00200044
0.00200232
0.00200365
0.00200444
0.0020047
0.00200444
0.00200366
0.00200238
0.0020006
0.00199833
0.00199559
0.00199238
0.00198872
0.00198461
0.00198008
0.00197513
0.00196979
0.00196405
0.00195794
0.00195148
0.00194466
0.00193752
0.00193004
0.00192223
0.00191406
0.00190545
0.00189635
0.00188679
0.00187682
0.00186653
0.00185596
0.00184514
0.00183412
0.00182291
0.00181154
0.00180003
0.0017884
0.00177665
0.00176482
0.00175292
0.00174094
0.0017289
0.00171676
0.00170441
0.00169148
0.00167647
0.00165341
4.31538e-06
2.68953e-05
6.23258e-05
9.56332e-05
0.000123526
0.000146075
0.000163971
0.000178104
0.000189295
0.000198261
0.000205608
0.000211835
0.000217345
0.000222451
0.000227389
0.000232332
0.000237403
0.000242689
0.000248254
0.000254149
0.000260417
0.000267101
0.000274246
0.000281897
0.000290098
0.000298894
0.000308323
0.000318419
0.000329207
0.000340703
0.000352914
0.000365838
0.000379465
0.000393774
0.00040874
0.000424331
0.000440512
0.000457245
0.000474494
0.000492217
0.000510375
0.00052893
0.000547851
0.000567111
0.000586682
0.000606538
0.000626654
0.000647007
0.000667576
0.00068834
0.00070928
0.000730382
0.000751633
0.000773024
0.000794544
0.000816186
0.000837943
0.00085981
0.000881779
0.000903848
0.000926011
0.000948263
0.000970601
0.00099302
0.00101552
0.00103808
0.00106072
0.00108341
0.00110616
0.00112896
0.0011518
0.00117468
0.00119758
0.00122051
0.00124344
0.00126638
0.00128931
0.00131223
0.00133512
0.00135798
0.00138079
0.00140355
0.00142625
0.00144886
0.00147139
0.00149381
0.00151612
0.00153829
0.00156033
0.0015822
0.0016039
0.00162541
0.00164672
0.00166781
0.00168866
0.00170927
0.00172963
0.00174972
0.00176953
0.00178905
0.00180827
0.00182718
0.00184575
0.00186399
0.00188186
0.00189937
0.00191649
0.00193322
0.00194953
0.00196542
0.00198087
0.00199587
0.00201041
0.00202448
0.00203807
0.00205115
0.00206374
0.00207581
0.00208735
0.00209837
0.00210884
0.00211877
0.00212814
0.00213695
0.0021452
0.00215289
0.00216014
0.00216678
0.00217278
0.00217806
0.00218286
0.00218712
0.00219079
0.00219387
0.00219637
0.00219829
0.00219964
0.00220043
0.00220066
0.00220034
0.00219947
0.00219808
0.00219616
0.00219373
0.0021908
0.00218738
0.00218348
0.00217912
0.00217431
0.00216906
0.00216339
0.00215731
0.00215083
0.00214398
0.00213676
0.00212918
0.00212125
0.00211295
0.00210425
0.00209512
0.00208557
0.00207564
0.00206537
0.0020548
0.00204397
0.00203292
0.00202166
0.00201022
0.00199862
0.0019869
0.00197506
0.00196313
0.00195113
0.00193909
0.00192702
0.0019149
0.00190268
0.00189002
0.00187564
0.00185525
4.42673e-06
3.12084e-05
7.0566e-05
0.000106637
0.00013668
0.00016098
0.000180336
0.000195713
0.000207982
0.000217902
0.000226112
0.00023314
0.000239414
0.000245268
0.000250961
0.000256682
0.000262571
0.000268731
0.000275236
0.000282145
0.000289507
0.000297365
0.00030576
0.000314733
0.000324319
0.000334551
0.000345457
0.000357057
0.000369364
0.000382384
0.000396114
0.000410544
0.000425654
0.000441418
0.000457809
0.000474793
0.000492335
0.0005104
0.000528951
0.000547953
0.00056737
0.00058717
0.000607323
0.000627802
0.000648582
0.000669638
0.000690947
0.000712486
0.00073423
0.00075616
0.000778258
0.000800509
0.000822902
0.000845426
0.000868071
0.00089083
0.000913693
0.000936656
0.000959713
0.000982857
0.00100608
0.00102939
0.00105277
0.00107622
0.00109973
0.0011233
0.00114693
0.00117061
0.00119434
0.0012181
0.0012419
0.00126573
0.00128958
0.00131344
0.00133731
0.00136118
0.00138505
0.00140889
0.00143271
0.0014565
0.00148024
0.00150393
0.00152755
0.00155109
0.00157455
0.0015979
0.00162114
0.00164425
0.00166723
0.00169004
0.00171269
0.00173516
0.00175743
0.00177949
0.00180132
0.00182292
0.00184426
0.00186535
0.00188616
0.00190668
0.0019269
0.0019468
0.00196637
0.0019856
0.00200447
0.00202297
0.00204108
0.00205879
0.00207609
0.00209295
0.00210938
0.00212535
0.00214085
0.00215588
0.00217042
0.00218445
0.00219797
0.00221097
0.00222343
0.00223536
0.00224673
0.00225755
0.0022678
0.00227747
0.00228657
0.00229512
0.00230319
0.00231059
0.00231739
0.00232348
0.00232908
0.00233409
0.00233848
0.00234226
0.00234544
0.00234802
0.00235002
0.00235143
0.00235225
0.00235251
0.0023522
0.00235133
0.00234991
0.00234796
0.00234548
0.00234248
0.00233897
0.00233498
0.00233051
0.00232557
0.00232018
0.00231436
0.00230812
0.00230147
0.00229443
0.00228701
0.00227921
0.00227105
0.00226249
0.00225354
0.0022442
0.00223449
0.00222444
0.00221409
0.00220346
0.00219259
0.0021815
0.00217023
0.00215879
0.0021472
0.00213551
0.00212373
0.0021119
0.00210004
0.00208819
0.00207636
0.00206452
0.00205239
0.00203893
0.00202135
4.49495e-06
3.51216e-05
7.76962e-05
0.000116117
0.000148111
0.000174089
0.000194899
0.000211544
0.000224931
0.000235848
0.000244963
0.00025283
0.000259897
0.000266521
0.000272975
0.000279469
0.000286157
0.000293152
0.000300539
0.000308381
0.00031673
0.000325629
0.000335114
0.000345218
0.000355968
0.000367387
0.000379493
0.000392292
0.000405788
0.000419979
0.000434858
0.000450419
0.000466627
0.000483453
0.000500866
0.000518834
0.000537323
0.000556301
0.000575732
0.000595586
0.00061583
0.000636434
0.000657371
0.000678616
0.000700144
0.000721936
0.00074398
0.000766246
0.000788703
0.000811329
0.000834105
0.000857018
0.000880056
0.00090321
0.00092647
0.000949828
0.000973278
0.000996813
0.00102043
0.00104412
0.00106787
0.0010917
0.00111559
0.00113953
0.00116353
0.00118758
0.00121169
0.00123583
0.00126002
0.00128424
0.0013085
0.00133278
0.00135709
0.00138142
0.00140575
0.0014301
0.00145444
0.00147878
0.0015031
0.00152739
0.00155165
0.00157587
0.00160004
0.00162415
0.00164817
0.00167211
0.00169596
0.00171968
0.00174329
0.00176675
0.00179006
0.00181321
0.00183617
0.00185894
0.0018815
0.00190384
0.00192594
0.00194779
0.00196937
0.00199068
0.00201169
0.00203239
0.00205277
0.00207281
0.0020925
0.00211183
0.00213077
0.00214931
0.00216744
0.00218515
0.00220242
0.00221924
0.00223559
0.00225146
0.00226685
0.00228173
0.0022961
0.00230995
0.00232326
0.00233603
0.00234825
0.0023599
0.00237098
0.00238149
0.00239141
0.0024008
0.00240962
0.00241782
0.00242542
0.00243236
0.00243875
0.00244453
0.00244968
0.0024542
0.00245812
0.00246142
0.00246412
0.00246622
0.00246773
0.00246865
0.00246898
0.00246874
0.00246793
0.00246657
0.00246466
0.00246221
0.00245924
0.00245575
0.00245177
0.0024473
0.00244235
0.00243695
0.00243111
0.00242484
0.00241816
0.00241108
0.00240361
0.00239575
0.00238752
0.0023789
0.00236991
0.00236055
0.00235086
0.00234086
0.00233058
0.00232005
0.00230929
0.00229833
0.00228719
0.00227592
0.00226453
0.00225306
0.00224155
0.00223004
0.00221858
0.00220719
0.00219588
0.00218441
0.00217197
0.00215675
4.69237e-06
3.7071e-05
8.22837e-05
0.000123191
0.000157291
0.000185099
0.00020747
0.000225463
0.00024003
0.000251997
0.000262061
0.000270801
0.000278685
0.000286089
0.000293303
0.000300551
0.000307999
0.000315772
0.000323961
0.000332634
0.000341843
0.000351631
0.000362027
0.000373055
0.00038474
0.000397103
0.000410146
0.00042386
0.000438236
0.000453257
0.000468892
0.000485135
0.000501987
0.000519427
0.000537425
0.000555952
0.000574976
0.000594465
0.000614391
0.000634721
0.000655427
0.000676481
0.000697856
0.000719526
0.000741464
0.000763641
0.000786018
0.00080859
0.000831329
0.000854207
0.000877205
0.000900312
0.000923519
0.000946819
0.000970205
0.00099367
0.00101721
0.00104082
0.00106449
0.00108823
0.00111203
0.00113588
0.00115979
0.00118375
0.00120777
0.00123183
0.00125595
0.00128011
0.00130432
0.00132858
0.00135288
0.00137722
0.0014016
0.00142602
0.00145046
0.00147493
0.00149942
0.00152393
0.00154844
0.00157296
0.00159746
0.00162195
0.00164641
0.00167083
0.0016952
0.00171951
0.00174374
0.00176789
0.00179194
0.00181587
0.00183968
0.00186334
0.00188685
0.00191018
0.00193333
0.00195627
0.00197899
0.00200148
0.00202372
0.00204569
0.00206739
0.00208879
0.00210988
0.00213064
0.00215106
0.00217112
0.0021908
0.0022101
0.002229
0.00224748
0.00226552
0.00228312
0.00230026
0.00231693
0.00233312
0.0023488
0.00236398
0.00237863
0.00239276
0.00240634
0.00241937
0.00243184
0.00244374
0.00245507
0.00246581
0.00247601
0.0024856
0.00249461
0.00250303
0.00251082
0.00251804
0.00252463
0.00253055
0.00253586
0.00254055
0.00254463
0.00254809
0.00255095
0.0025532
0.00255485
0.0025559
0.00255637
0.00255626
0.00255558
0.00255433
0.00255254
0.0025502
0.00254734
0.00254395
0.00254007
0.00253569
0.00253084
0.00252553
0.00251977
0.00251359
0.00250698
0.00249997
0.00249257
0.00248479
0.00247662
0.00246809
0.00245919
0.00244997
0.00244043
0.0024306
0.00242051
0.00241019
0.00239966
0.00238895
0.00237809
0.00236712
0.00235608
0.00234501
0.00233396
0.00232298
0.00231213
0.00230141
0.00229067
0.00227925
0.00226602
5.01697e-06
3.72748e-05
8.4425e-05
0.000127836
0.00016415
0.000193918
0.000217948
0.000237358
0.000253157
0.000266214
0.000277256
0.000286887
0.000295597
0.000303778
0.000311734
0.000319702
0.000327859
0.000336337
0.000345232
0.000354616
0.000364542
0.00037507
0.000386199
0.000397934
0.000410271
0.000423182
0.000436731
0.000450927
0.000465766
0.000481238
0.000497341
0.000514074
0.000531384
0.000549232
0.000567588
0.000586419
0.000605697
0.00062539
0.000645471
0.00066591
0.000686679
0.000707751
0.000729098
0.000750698
0.000772529
0.000794568
0.00081682
0.000839296
0.000861906
0.000884607
0.000907372
0.000930201
0.000953095
0.000976055
0.000999077
0.00102216
0.0010453
0.0010685
0.00109175
0.00111507
0.00113843
0.00116186
0.00118535
0.00120889
0.0012325
0.00125618
0.00127992
0.00130373
0.00132762
0.00135157
0.00137559
0.00139969
0.00142385
0.00144808
0.00147238
0.00149674
0.00152115
0.00154562
0.00157013
0.00159469
0.00161927
0.00164387
0.00166848
0.00169309
0.00171768
0.00174225
0.00176678
0.00179126
0.00181567
0.00183999
0.00186422
0.00188833
0.00191232
0.00193615
0.00195982
0.00198331
0.00200661
0.00202969
0.00205253
0.00207513
0.00209747
0.00211952
0.00214128
0.00216272
0.00218383
0.0022046
0.002225
0.00224502
0.00226465
0.00228387
0.00230267
0.00232102
0.00233893
0.00235637
0.00237333
0.0023898
0.00240577
0.00242122
0.00243614
0.00245053
0.00246437
0.00247765
0.00249037
0.00250251
0.00251408
0.00252508
0.00253548
0.00254532
0.00255458
0.00256322
0.00257134
0.00257874
0.00258548
0.00259161
0.00259712
0.00260202
0.00260629
0.00260996
0.00261301
0.00261546
0.0026173
0.00261855
0.00261922
0.0026193
0.0026188
0.00261775
0.00261614
0.00261399
0.00261131
0.00260811
0.0026044
0.00260021
0.00259554
0.0025904
0.00258483
0.00257881
0.00257238
0.00256555
0.00255833
0.00255072
0.00254274
0.00253441
0.00252573
0.00251674
0.00250746
0.00249791
0.00248811
0.0024781
0.0024679
0.00245756
0.0024471
0.00243657
0.00242602
0.00241551
0.00240509
0.00239483
0.00238475
0.00237475
0.00236429
0.00235277
5.32092e-06
3.68664e-05
8.51845e-05
0.00013068
0.000169013
0.000200671