/*--------------------------------*- C++ -*----------------------------------*\
| =========                 |                                                 |
| \\      /  F ield         | OpenFOAM: The Open Source CFD Toolbox           |
|  \\    /   O peration     | Version:  2312                                  |
|   \\  /    A nd           | Website:  www.openfoam.com                      |
|    \\/     M anipulation  |                                                 |
\*---------------------------------------------------------------------------*/
FoamFile
{
    version     2.0;
    format      ascii;
    arch        "LSB;label=32;scalar=64";
    class       surfaceScalarField;
    location    "275";
    object      phi;
}
// * * * * * * * * * * * * * * * * * * * * * * * * * * * * * * * * * * * * * //

dimensions      [0 3 -1 0 0 0 0];

oriented        oriented;

internalField   nonuniform List<scalar> 
24170
(
1.53244e-06
6.17639e-08
1.44699e-06
8.54456e-08
1.37259e-06
7.44084e-08
1.30261e-06
6.99734e-08
1.23848e-06
6.41319e-08
1.18303e-06
5.54513e-08
1.13669e-06
4.63373e-08
1.09838e-06
3.83109e-08
1.06671e-06
3.16716e-08
1.04043e-06
2.62804e-08
1.01853e-06
2.18986e-08
1.0002e-06
1.83264e-08
9.84838e-07
1.53647e-08
9.72017e-07
1.2821e-08
9.61528e-07
1.04887e-08
9.5318e-07
8.34797e-09
9.46668e-07
6.51242e-09
2.36581e-09
9.44302e-07
1.74832e-06
2.20697e-08
1.75311e-06
8.06498e-08
1.74302e-06
8.45045e-08
1.72701e-06
8.59785e-08
1.7065e-06
8.46492e-08
1.68303e-06
7.89186e-08
1.65804e-06
7.13241e-08
1.63269e-06
6.36645e-08
1.60782e-06
5.65355e-08
1.58404e-06
5.00668e-08
1.56168e-06
4.42604e-08
1.54093e-06
3.90681e-08
1.52191e-06
3.43932e-08
1.5046e-06
3.01239e-08
1.48902e-06
2.60673e-08
1.47522e-06
2.21479e-08
1.46383e-06
1.7903e-08
1.14255e-08
1.45477e-06
1.83575e-06
1.75821e-08
1.84805e-06
6.83417e-08
1.85522e-06
7.73366e-08
1.86075e-06
8.04465e-08
1.86374e-06
8.16644e-08
1.86366e-06
7.89976e-08
1.86098e-06
7.4006e-08
1.8563e-06
6.83439e-08
1.85015e-06
6.26803e-08
1.84301e-06
5.7207e-08
1.83527e-06
5.20084e-08
1.82722e-06
4.71119e-08
1.81913e-06
4.24854e-08
1.81119e-06
3.80593e-08
1.80357e-06
3.36923e-08
1.79651e-06
2.92034e-08
1.79017e-06
2.4246e-08
1.77742e-08
1.78382e-06
1.96288e-06
1.73934e-08
1.97288e-06
5.83461e-08
1.98013e-06
7.00858e-08
1.98645e-06
7.41301e-08
1.99184e-06
7.62657e-08
1.99582e-06
7.50266e-08
1.99844e-06
7.13773e-08
1.99996e-06
6.6829e-08
2.00055e-06
6.20882e-08
2.00039e-06
5.73692e-08
1.99964e-06
5.27604e-08
1.99844e-06
4.83044e-08
1.99695e-06
4.39835e-08
1.99526e-06
3.97416e-08
1.99349e-06
3.54616e-08
1.99173e-06
3.09684e-08
1.98989e-06
2.60858e-08
2.02461e-08
1.98742e-06
2.10464e-06
1.6319e-08
2.11225e-06
5.0734e-08
2.11851e-06
6.3828e-08
2.12407e-06
6.85637e-08
2.12933e-06
7.10049e-08
2.13389e-06
7.04689e-08
2.13765e-06
6.76168e-08
2.14071e-06
6.37693e-08
2.14318e-06
5.96229e-08
2.14514e-06
5.54041e-08
2.1467e-06
5.12053e-08
2.14793e-06
4.70756e-08
2.1489e-06
4.30071e-08
2.14969e-06
3.89532e-08
2.15033e-06
3.48209e-08
2.15082e-06
3.0481e-08
2.15106e-06
2.58441e-08
2.06433e-08
2.15066e-06
2.25611e-06
1.47544e-08
2.26226e-06
4.45812e-08
2.26805e-06
5.80394e-08
2.27333e-06
6.32807e-08
2.27845e-06
6.58824e-08
2.28313e-06
6.57949e-08
2.28721e-06
6.3535e-08
2.29075e-06
6.02255e-08
2.29385e-06
5.65269e-08
2.29657e-06
5.26805e-08
2.29899e-06
4.879e-08
2.30115e-06
4.49107e-08
2.30311e-06
4.10463e-08
2.30491e-06
3.71623e-08
2.30653e-06
3.3194e-08
2.30796e-06
2.90558e-08
2.30909e-06
2.47143e-08
2.00823e-08
2.30965e-06
2.41791e-06
1.31994e-08
2.42332e-06
3.91808e-08
2.42891e-06
5.24479e-08
2.43411e-06
5.80783e-08
2.43916e-06
6.08275e-08
2.44388e-06
6.10826e-08
2.4481e-06
5.93072e-08
2.45188e-06
5.64516e-08
2.45528e-06
5.31297e-08
2.45836e-06
4.95952e-08
2.46119e-06
4.59646e-08
2.4638e-06
4.23012e-08
2.46622e-06
3.86213e-08
2.46848e-06
3.49054e-08
2.47056e-06
3.11153e-08
2.47241e-06
2.72041e-08
2.47395e-06
2.31763e-08
1.90364e-08
2.47499e-06
2.59123e-06
1.17573e-08
2.59612e-06
3.42962e-08
2.60154e-06
4.70256e-08
2.60671e-06
5.29068e-08
2.61175e-06
5.57839e-08
2.61652e-06
5.63169e-08
2.62087e-06
5.49554e-08
2.62482e-06
5.25032e-08
2.62843e-06
4.95228e-08
2.63175e-06
4.62743e-08
2.63483e-06
4.28856e-08
2.6377e-06
3.94289e-08
2.64039e-06
3.59333e-08
2.6429e-06
3.23961e-08
2.64521e-06
2.88022e-08
2.64728e-06
2.51357e-08
2.64903e-06
2.1424e-08
1.77117e-08
2.65035e-06
2.77702e-06
1.04025e-08
2.78144e-06
2.9881e-08
2.78665e-06
4.18165e-08
2.79178e-06
4.77709e-08
2.79684e-06
5.07234e-08
2.80168e-06
5.14779e-08
2.80616e-06
5.04745e-08
2.81028e-06
4.83892e-08
2.81407e-06
4.57306e-08
2.81759e-06
4.27585e-08
2.82086e-06
3.96095e-08
2.82393e-06
3.63644e-08
2.8268e-06
3.30645e-08
2.82947e-06
2.97232e-08
2.83193e-06
2.63448e-08
2.83412e-06
2.29364e-08
2.83601e-06
1.95366e-08
1.6204e-08
2.83752e-06
2.97617e-06
9.12207e-09
2.98015e-06
2.58986e-08
2.98511e-06
3.68577e-08
2.99018e-06
4.27013e-08
2.99525e-06
4.56566e-08
3.00015e-06
4.65697e-08
3.00476e-06
4.58679e-08
3.00904e-06
4.41142e-08
3.01301e-06
4.17609e-08
3.0167e-06
3.90612e-08
3.02016e-06
3.61567e-08
3.02338e-06
3.31348e-08
3.0264e-06
3.00473e-08
3.0292e-06
2.69217e-08
3.03177e-06
2.37776e-08
3.03407e-06
2.0637e-08
3.03606e-06
1.75431e-08
1.45556e-08
3.03771e-06
3.18961e-06
7.91833e-09
3.19321e-06
2.23022e-08
3.1979e-06
3.21656e-08
3.20287e-06
3.77333e-08
3.20791e-06
4.06148e-08
3.21286e-06
4.16187e-08
3.21757e-06
4.11556e-08
3.22199e-06
3.96928e-08
3.22613e-06
3.76251e-08
3.23e-06
3.51929e-08
3.23362e-06
3.2538e-08
3.237e-06
2.9752e-08
3.24015e-06
2.68944e-08
3.24307e-06
2.40035e-08
3.24574e-06
2.11099e-08
3.24813e-06
1.82443e-08
3.25022e-06
1.54499e-08
1.27816e-08
3.252e-06
2.87138e-06
6.95392e-09
2.87415e-06
1.95354e-08
2.87791e-06
2.84082e-08
2.88201e-06
3.363e-08
2.88623e-06
3.63973e-08
2.89042e-06
3.74288e-08
2.89446e-06
3.71161e-08
2.89828e-06
3.58636e-08
2.90189e-06
3.40187e-08
2.90528e-06
3.18055e-08
2.90845e-06
2.93629e-08
2.91142e-06
2.67836e-08
2.91418e-06
2.41316e-08
2.91674e-06
2.14511e-08
2.91907e-06
1.87785e-08
2.92116e-06
1.61487e-08
2.92301e-06
1.36021e-08
1.11898e-08
2.9246e-06
3.50011e-06
5.92505e-09
3.50304e-06
1.66027e-08
3.50711e-06
2.43406e-08
3.51166e-06
2.90745e-08
3.51642e-06
3.16391e-08
3.5212e-06
3.26454e-08
3.52587e-06
3.24526e-08
3.53033e-06
3.13999e-08
3.53457e-06
2.97845e-08
3.53856e-06
2.78101e-08
3.54231e-06
2.56086e-08
3.54583e-06
2.32713e-08
3.54909e-06
2.08637e-08
3.55211e-06
1.84339e-08
3.55487e-06
1.60216e-08
3.55735e-06
1.36631e-08
3.55956e-06
1.13946e-08
9.26155e-09
3.56149e-06
4.26651e-06
4.84036e-09
4.26957e-06
1.35404e-08
4.27391e-06
2.00008e-08
4.27889e-06
2.40901e-08
4.28419e-06
2.6346e-08
4.28958e-06
2.72573e-08
4.29489e-06
2.71375e-08
4.30003e-06
2.62617e-08
4.30494e-06
2.48738e-08
4.3096e-06
2.31521e-08
4.31399e-06
2.12177e-08
4.3181e-06
1.91564e-08
4.32193e-06
1.70322e-08
4.32548e-06
1.48938e-08
4.32872e-06
1.2781e-08
4.33165e-06
1.07284e-08
4.33428e-06
8.76732e-09
6.93593e-09
4.3366e-06
5.20074e-06
3.70991e-09
5.2039e-06
1.03802e-08
5.20848e-06
1.54249e-08
5.21386e-06
1.87033e-08
5.21968e-06
2.05295e-08
5.22568e-06
2.12611e-08
5.23166e-06
2.11533e-08
5.2375e-06
2.04192e-08
5.24313e-06
1.92484e-08
5.24849e-06
1.77878e-08
5.25357e-06
1.61423e-08
5.25833e-06
1.43885e-08
5.26278e-06
1.25845e-08
5.2669e-06
1.07758e-08
5.27068e-06
8.99882e-09
5.27413e-06
7.28419e-09
5.27724e-06
5.65712e-09
4.14871e-09
5.28002e-06
6.33956e-06
2.54256e-09
6.34281e-06
7.12914e-09
6.34761e-06
1.06293e-08
6.35338e-06
1.29285e-08
6.35972e-06
1.41892e-08
6.36634e-06
1.46431e-08
6.37302e-06
1.44754e-08
6.3796e-06
1.38382e-08
6.38598e-06
1.28664e-08
6.3921e-06
1.16702e-08
6.39791e-06
1.03321e-08
6.40339e-06
8.91401e-09
6.40851e-06
7.46396e-09
6.41326e-06
6.01981e-09
6.41765e-06
4.61176e-09
6.42167e-06
3.26423e-09
6.42533e-06
1.99594e-09
8.30982e-10
6.42865e-06
7.7278e-06
1.3332e-09
7.73118e-06
3.75208e-09
7.73623e-06
5.57488e-09
7.74243e-06
6.72636e-09
7.74935e-06
7.276e-09
7.75664e-06
7.3448e-09
7.76408e-06
7.03924e-09
7.77147e-06
6.44883e-09
7.77868e-06
5.65374e-09
7.78563e-06
4.72206e-09
7.79226e-06
3.70738e-09
7.79852e-06
2.6513e-09
7.8044e-06
1.5868e-09
7.80987e-06
5.40256e-10
7.81495e-06
-4.67297e-10
7.81964e-06
-1.41922e-09
7.82394e-06
-2.30348e-09
-3.10282e-09
7.82787e-06
9.42011e-06
4.53543e-11
9.42373e-06
1.30623e-10
9.4292e-06
9.83905e-11
9.43601e-06
-8.01626e-11
9.44368e-06
-3.92613e-10
9.45184e-06
-8.16548e-10
9.46021e-06
-1.33217e-09
9.46858e-06
-1.91824e-09
9.47678e-06
-2.55201e-09
9.48472e-06
-3.21269e-09
9.49231e-06
-3.8825e-09
9.49951e-06
-4.54604e-09
9.50628e-06
-5.18989e-09
9.51263e-06
-5.80252e-09
9.51853e-06
-6.37441e-09
9.52401e-06
-6.89784e-09
9.52908e-06
-7.36755e-09
-7.77296e-09
9.53375e-06
1.14831e-05
-1.41878e-09
1.14873e-05
-4.03018e-09
1.14936e-05
-6.23199e-09
1.15015e-05
-7.98224e-09
1.15104e-05
-9.31317e-09
1.15199e-05
-1.03196e-08
1.15297e-05
-1.10887e-08
1.15395e-05
-1.16771e-08
1.1549e-05
-1.21277e-08
1.15583e-05
-1.24765e-08
1.15672e-05
-1.27501e-08
1.15756e-05
-1.29651e-08
1.15835e-05
-1.31314e-08
1.1591e-05
-1.32551e-08
1.1598e-05
-1.33399e-08
1.16044e-05
-1.33875e-08
1.16105e-05
-1.33993e-08
-1.33711e-08
1.16161e-05
8.40649e-06
-2.55822e-09
8.40972e-06
-7.25932e-09
8.41464e-06
-1.11512e-08
8.42073e-06
-1.40685e-08
8.42751e-06
-1.60976e-08
8.43466e-06
-1.74737e-08
8.44195e-06
-1.83748e-08
8.44919e-06
-1.89119e-08
8.45624e-06
-1.91803e-08
8.46302e-06
-1.9263e-08
8.46949e-06
-1.92192e-08
8.47562e-06
-1.90878e-08
8.48138e-06
-1.88945e-08
8.48678e-06
-1.86575e-08
8.49183e-06
-1.83883e-08
8.49654e-06
-1.80942e-08
8.50092e-06
-1.778e-08
-1.74446e-08
8.50499e-06
7.31837e-06
-3.63988e-09
7.32152e-06
-1.04096e-08
7.32634e-06
-1.59702e-08
7.33218e-06
-1.99171e-08
7.33857e-06
-2.24845e-08
7.34521e-06
-2.41161e-08
7.3519e-06
-2.50608e-08
7.35846e-06
-2.54728e-08
7.36479e-06
-2.55093e-08
7.37083e-06
-2.53016e-08
7.37654e-06
-2.49363e-08
7.38193e-06
-2.44688e-08
7.38697e-06
-2.39379e-08
7.39168e-06
-2.33702e-08
7.39608e-06
-2.27829e-08
7.40017e-06
-2.21865e-08
7.40398e-06
-2.15872e-08
-2.09854e-08
7.40752e-06
6.37105e-06
-4.62474e-09
6.37425e-06
-1.36118e-08
6.3792e-06
-2.09166e-08
6.38498e-06
-2.56948e-08
6.39111e-06
-2.86149e-08
6.39739e-06
-3.03991e-08
6.40363e-06
-3.12964e-08
6.40965e-06
-3.14998e-08
6.41539e-06
-3.12474e-08
6.42081e-06
-3.07192e-08
6.42589e-06
-3.00211e-08
6.43065e-06
-2.92207e-08
6.43507e-06
-2.83662e-08
6.43919e-06
-2.74903e-08
6.44302e-06
-2.66129e-08
6.44658e-06
-2.57452e-08
6.44989e-06
-2.48933e-08
-2.40575e-08
6.45296e-06
5.54624e-06
-5.40159e-09
5.54956e-06
-1.69281e-08
5.55477e-06
-2.61307e-08
5.56053e-06
-3.14523e-08
5.56645e-06
-3.45365e-08
5.57243e-06
-3.63764e-08
5.57826e-06
-3.71256e-08
5.5838e-06
-3.70399e-08
5.589e-06
-3.64546e-08
5.59387e-06
-3.55866e-08
5.5984e-06
-3.45507e-08
5.6026e-06
-3.34231e-08
5.6065e-06
-3.22595e-08
5.6101e-06
-3.10958e-08
5.61344e-06
-2.99522e-08
5.61654e-06
-2.88397e-08
5.61941e-06
-2.77627e-08
-2.67201e-08
5.62207e-06
4.8281e-06
-5.89095e-09
4.83159e-06
-2.04258e-08
4.83699e-06
-3.15302e-08
4.84262e-06
-3.70828e-08
4.84837e-06
-4.02794e-08
4.8541e-06
-4.2114e-08
4.85958e-06
-4.26048e-08
4.8647e-06
-4.21535e-08
4.86944e-06
-4.12015e-08
4.87384e-06
-3.99804e-08
4.87789e-06
-3.86043e-08
4.88162e-06
-3.71549e-08
4.88506e-06
-3.5693e-08
4.88822e-06
-3.42556e-08
4.89113e-06
-3.28625e-08
4.89381e-06
-3.15229e-08
4.89629e-06
-3.02391e-08
-2.90067e-08
4.89857e-06
4.20246e-06
-5.67501e-09
4.20659e-06
-2.45591e-08
4.212e-06
-3.69404e-08
4.21735e-06
-4.24244e-08
4.22297e-06
-4.59009e-08
4.22859e-06
-4.77347e-08
4.23385e-06
-4.78703e-08
4.23868e-06
-4.69782e-08
4.24309e-06
-4.56113e-08
4.24711e-06
-4.40022e-08
4.25077e-06
-4.22608e-08
4.25408e-06
-4.04735e-08
4.25709e-06
-3.87037e-08
4.25983e-06
-3.69876e-08
4.26231e-06
-3.53436e-08
4.26456e-06
-3.37797e-08
4.26662e-06
-3.22961e-08
-3.08861e-08
4.2685e-06
3.65581e-06
-2.84056e-09
3.66189e-06
-3.06397e-08
3.6679e-06
-4.29522e-08
3.67337e-06
-4.78918e-08
3.67911e-06
-5.16445e-08
3.68471e-06
-5.33297e-08
3.68981e-06
-5.29751e-08
3.6944e-06
-5.15653e-08
3.69851e-06
-4.97192e-08
3.70216e-06
-4.76555e-08
3.70539e-06
-4.5487e-08
3.70822e-06
-4.33081e-08
3.7107e-06
-4.11852e-08
3.71287e-06
-3.91522e-08
3.71475e-06
-3.72273e-08
3.71639e-06
-3.54174e-08
3.71781e-06
-3.37192e-08
-3.21276e-08
3.71905e-06
3.17741e-06
4.78183e-09
3.18642e-06
-3.96496e-08
3.19425e-06
-5.07782e-08
3.20127e-06
-5.49173e-08
3.20802e-06
-5.83947e-08
3.2139e-06
-5.92115e-08
3.21882e-06
-5.78901e-08
3.22293e-06
-5.56803e-08
3.22636e-06
-5.31495e-08
3.22917e-06
-5.04576e-08
3.23139e-06
-4.77155e-08
3.23311e-06
-4.50233e-08
3.23437e-06
-4.24476e-08
3.23524e-06
-4.00176e-08
3.23576e-06
-3.77499e-08
3.236e-06
-3.56526e-08
3.23599e-06
-3.37173e-08
-3.19654e-08
3.23583e-06
2.7672e-06
1.03148e-08
2.77705e-06
-4.95015e-08
2.78525e-06
-5.89771e-08
2.79389e-06
-6.35601e-08
2.8019e-06
-6.64008e-08
2.80797e-06
-6.52864e-08
2.81197e-06
-6.18838e-08
2.81417e-06
-5.78835e-08
2.81489e-06
-5.38723e-08
2.8144e-06
-4.99646e-08
2.81292e-06
-4.62352e-08
2.81065e-06
-4.27549e-08
2.80776e-06
-3.95569e-08
2.80439e-06
-3.66437e-08
2.80064e-06
-3.40064e-08
2.79663e-06
-3.1643e-08
2.79245e-06
-2.95335e-08
-2.77335e-08
2.78822e-06
2.44896e-06
-2.48372e-08
2.45702e-06
-5.75686e-08
2.45647e-06
-5.84294e-08
2.45387e-06
-6.09564e-08
2.44872e-06
-6.12503e-08
2.44055e-06
-5.71195e-08
2.4296e-06
-5.09278e-08
2.41647e-06
-4.47586e-08
2.40185e-06
-3.92476e-08
2.38632e-06
-3.44375e-08
2.37038e-06
-3.02915e-08
2.35437e-06
-2.67504e-08
2.33855e-06
-2.37382e-08
2.32309e-06
-2.11764e-08
2.30808e-06
-1.89983e-08
2.2936e-06
-1.7162e-08
2.2797e-06
-1.56361e-08
-1.45807e-08
2.26655e-06
2.0765e-06
2.01893e-06
1.9605e-06
1.89955e-06
1.8383e-06
1.78118e-06
1.73025e-06
1.68549e-06
1.64624e-06
1.61181e-06
1.58151e-06
1.55476e-06
1.53103e-06
1.50985e-06
1.49085e-06
1.47369e-06
1.45805e-06
1.44347e-06
1.37561e-09
-1.3762e-09
4.9721e-09
-3.59778e-09
9.87018e-09
-4.89891e-09
1.52102e-08
-5.34118e-09
2.03546e-08
-5.14514e-09
2.48938e-08
-4.54034e-09
2.86094e-08
-3.71616e-09
3.1414e-08
-2.80592e-09
3.33097e-08
-1.89619e-09
3.4347e-08
-1.03869e-09
3.46075e-08
-2.61031e-10
3.41886e-08
4.17348e-10
3.32032e-08
9.84851e-10
3.17511e-08
1.45047e-09
2.99118e-08
1.83883e-09
2.77311e-08
2.17898e-09
2.52331e-08
2.49756e-09
2.2413e-08
2.81826e-09
1.92511e-08
3.16136e-09
1.57085e-08
3.54062e-09
1.17431e-08
3.96495e-09
7.3033e-09
4.4375e-09
2.35122e-09
4.95141e-09
-3.17195e-09
5.52065e-09
-9.34493e-09
6.17211e-09
-1.62446e-08
6.89704e-09
-2.39406e-08
7.69518e-09
-3.25217e-08
8.57847e-09
-4.20747e-08
9.55216e-09
-5.26936e-08
1.06163e-08
-6.44611e-08
1.17668e-08
-7.74584e-08
1.29949e-08
-9.17461e-08
1.42872e-08
-1.07374e-07
1.56258e-08
-1.24364e-07
1.69896e-08
-1.42721e-07
1.83553e-08
-1.62421e-07
1.96998e-08
-1.83424e-07
2.10004e-08
-2.05659e-07
2.22354e-08
-2.29045e-07
2.33839e-08
-2.53474e-07
2.44293e-08
-2.78836e-07
2.536e-08
-3.05005e-07
2.61699e-08
-3.31864e-07
2.68565e-08
-3.59285e-07
2.74216e-08
-3.87156e-07
2.78695e-08
-4.15363e-07
2.82079e-08
-4.4381e-07
2.84452e-08
-4.72402e-07
2.85918e-08
-5.01062e-07
2.86579e-08
-5.29716e-07
2.86543e-08
-5.58309e-07
2.85906e-08
-5.86786e-07
2.84766e-08
-6.15108e-07
2.83201e-08
-6.43237e-07
2.81287e-08
-6.71148e-07
2.79081e-08
-6.98812e-07
2.76637e-08
-7.26213e-07
2.73989e-08
-7.53331e-07
2.71173e-08
-7.80154e-07
2.68202e-08
-8.06663e-07
2.65095e-08
-8.32851e-07
2.61853e-08
-8.58699e-07
2.58482e-08
-8.84198e-07
2.54974e-08
-9.09331e-07
2.51326e-08
-9.34085e-07
2.47524e-08
-9.58441e-07
2.43562e-08
-9.82385e-07
2.39421e-08
-1.00589e-06
2.35093e-08
-1.02895e-06
2.30559e-08
-1.05153e-06
2.25809e-08
-1.07362e-06
2.20824e-08
-1.09517e-06
2.15594e-08
-1.11619e-06
2.10098e-08
-1.13662e-06
2.04325e-08
-1.15645e-06
1.98254e-08
-1.17563e-06
1.91877e-08
-1.19415e-06
1.85181e-08
-1.21197e-06
1.7816e-08
-1.22905e-06
1.70797e-08
-1.24536e-06
1.6309e-08
-1.26087e-06
1.55077e-08
-1.27556e-06
1.46907e-08
-1.28944e-06
1.38813e-08
-1.30252e-06
1.30775e-08
-1.31478e-06
1.22626e-08
-1.32622e-06
1.14326e-08
-1.3368e-06
1.05812e-08
-1.3465e-06
9.70627e-09
-1.3553e-06
8.80448e-09
-1.36317e-06
7.87278e-09
-1.37008e-06
6.90724e-09
-1.37598e-06
5.90362e-09
-1.38084e-06
4.85659e-09
-1.3846e-06
3.75872e-09
-1.3872e-06
2.59915e-09
-1.38858e-06
1.37361e-09
-1.3887e-06
1.25287e-10
-1.38768e-06
-1.02021e-09
-1.38564e-06
-2.04699e-09
-1.3826e-06
-3.04156e-09
-1.37857e-06
-4.02832e-09
-1.37356e-06
-5.01622e-09
-1.36755e-06
-6.0069e-09
-1.36055e-06
-6.99981e-09
-1.35256e-06
-7.99388e-09
-1.34357e-06
-8.98748e-09
-1.33359e-06
-9.97915e-09
-1.32263e-06
-1.09671e-08
-1.31068e-06
-1.19498e-08
-1.29775e-06
-1.29254e-08
-1.28386e-06
-1.38924e-08
-1.26901e-06
-1.48488e-08
-1.25322e-06
-1.57932e-08
-1.23649e-06
-1.67237e-08
-1.21885e-06
-1.76388e-08
-1.20031e-06
-1.85367e-08
-1.1809e-06
-1.94159e-08
-1.16062e-06
-2.02746e-08
-1.13951e-06
-2.11115e-08
-1.11758e-06
-2.19251e-08
-1.09487e-06
-2.27139e-08
-1.07139e-06
-2.34769e-08
-1.04718e-06
-2.42127e-08
-1.02226e-06
-2.49209e-08
-9.96656e-07
-2.56008e-08
-9.70404e-07
-2.62524e-08
-9.43529e-07
-2.68757e-08
-9.16061e-07
-2.74686e-08
-8.88037e-07
-2.80257e-08
-8.59491e-07
-2.85475e-08
-8.30453e-07
-2.90396e-08
-8.00955e-07
-2.94996e-08
-7.71033e-07
-2.99243e-08
-7.40721e-07
-3.03135e-08
-7.10055e-07
-3.06681e-08
-6.79068e-07
-3.09878e-08
-6.47795e-07
-3.12733e-08
-6.16269e-07
-3.15244e-08
-5.84523e-07
-3.17422e-08
-5.5259e-07
-3.19272e-08
-5.20503e-07
-3.20809e-08
-4.88293e-07
-3.22039e-08
-4.55989e-07
-3.22971e-08
-4.23621e-07
-3.23611e-08
-3.91216e-07
-3.23972e-08
-3.58802e-07
-3.24061e-08
-3.26404e-07
-3.23891e-08
-2.94048e-07
-3.23472e-08
-2.61757e-07
-3.22818e-08
-2.29554e-07
-3.21935e-08
-1.9746e-07
-3.20836e-08
-1.65498e-07
-3.19521e-08
-1.33687e-07
-3.17999e-08
-1.02047e-07
-3.16279e-08
-7.0599e-08
-3.14367e-08
-3.93649e-08
-3.12221e-08
-8.41229e-09
-3.09406e-08
2.22379e-08
-3.06382e-08
5.26001e-08
-3.03508e-08
8.26507e-08
-3.00395e-08
1.12388e-07
-2.9727e-08
1.41823e-07
-2.94248e-08
1.7096e-07
-2.91272e-08
1.99804e-07
-2.88344e-08
2.2836e-07
-2.8547e-08
2.5663e-07
-2.8262e-08
2.84614e-07
-2.79756e-08
3.12304e-07
-2.76826e-08
3.39688e-07
-2.73767e-08
3.66743e-07
-2.70479e-08
3.9343e-07
-2.66808e-08
4.19685e-07
-2.62486e-08
4.45396e-07
-2.57044e-08
4.70361e-07
-2.49599e-08
4.94204e-07
-2.38383e-08
5.16115e-07
-2.19058e-08
5.34252e-07
-1.81328e-08
5.43286e-07
-9.03035e-09
1.7046e-08
5.26243e-07
3.38795e-09
-4.76499e-09
8.48354e-09
-8.69495e-09
1.32465e-08
-9.66271e-09
1.71188e-08
-9.21452e-09
2.00444e-08
-8.07123e-09
2.20626e-08
-6.55942e-09
2.32185e-08
-4.87247e-09
2.35504e-08
-3.1387e-09
2.30974e-08
-1.44369e-09
2.18994e-08
1.58448e-10
2.00003e-08
1.63759e-09
1.74343e-08
2.98245e-09
1.42211e-08
4.1975e-09
1.03702e-08
5.30042e-09
5.88864e-09
6.31991e-09
7.75308e-10
7.29133e-09
-4.98039e-09
8.25281e-09
-1.14034e-08
9.24032e-09
-1.85269e-08
1.02844e-08
-2.63977e-08
1.14105e-08
-3.50709e-08
1.26377e-08
-4.46135e-08
1.39792e-08
-5.5105e-08
1.54423e-08
-6.66176e-08
1.70322e-08
-7.91993e-08
1.87533e-08
-9.2911e-08
2.06077e-08
-1.07812e-07
2.25958e-08
-1.23948e-07
2.47133e-08
-1.41345e-07
2.69484e-08
-1.60011e-07
2.92816e-08
-1.79932e-07
3.1687e-08
-2.01071e-07
3.4133e-08
-2.23369e-07
3.65837e-08
-2.46744e-07
3.90005e-08
-2.71099e-07
4.13439e-08
-2.9632e-07
4.35757e-08
-3.22282e-07
4.56613e-08
-3.48852e-07
4.75698e-08
-3.75893e-07
4.92754e-08
-4.03271e-07
5.07608e-08
-4.3086e-07
5.20184e-08
-4.58548e-07
5.30475e-08
-4.86232e-07
5.38535e-08
-5.13824e-07
5.4447e-08
-5.41245e-07
5.48429e-08
-5.68435e-07
5.50592e-08
-5.95343e-07
5.51154e-08
-6.2193e-07
5.50318e-08
-6.48167e-07
5.48284e-08
-6.74034e-07
5.45241e-08
-6.99517e-07
5.41363e-08
-7.24607e-07
5.36804e-08
-7.49301e-07
5.31698e-08
-7.73598e-07
5.26159e-08
-7.97498e-07
5.20276e-08
-8.21003e-07
5.1412e-08
-8.44114e-07
5.07744e-08
-8.66835e-07
5.01183e-08
-8.89164e-07
4.9446e-08
-9.11103e-07
4.87584e-08
-9.3265e-07
4.80556e-08
-9.53803e-07
4.73366e-08
-9.74555e-07
4.66e-08
-9.94902e-07
4.58439e-08
-1.01484e-06
4.5066e-08
-1.03435e-06
4.42638e-08
-1.05343e-06
4.34348e-08
-1.07206e-06
4.25762e-08
-1.09024e-06
4.16855e-08
-1.10794e-06
4.07599e-08
-1.12516e-06
3.97973e-08
-1.14187e-06
3.8795e-08
-1.15806e-06
3.77511e-08
-1.17372e-06
3.66634e-08
-1.18882e-06
3.55303e-08
-1.20334e-06
3.43502e-08
-1.21728e-06
3.31224e-08
-1.23061e-06
3.18464e-08
-1.24331e-06
3.05223e-08
-1.25539e-06
2.91505e-08
-1.26681e-06
2.7734e-08
-1.27758e-06
2.62789e-08
-1.28769e-06
2.47953e-08
-1.2971e-06
2.32905e-08
-1.30578e-06
2.17599e-08
-1.31371e-06
2.01961e-08
-1.32088e-06
1.85957e-08
-1.32725e-06
1.69553e-08
-1.33282e-06
1.52733e-08
-1.33756e-06
1.35481e-08
-1.34146e-06
1.17788e-08
-1.34452e-06
9.9649e-09
-1.34672e-06
8.10718e-09
-1.34808e-06
6.2076e-09
-1.34859e-06
4.27006e-09
-1.34829e-06
2.30415e-09
-1.34725e-06
3.32988e-10
-1.34552e-06
-1.61119e-09
-1.34301e-06
-3.53397e-09
-1.33959e-06
-5.4623e-09
-1.33523e-06
-7.40031e-09
-1.32992e-06
-9.34708e-09
-1.32363e-06
-1.13029e-08
-1.31637e-06
-1.32662e-08
-1.30814e-06
-1.52346e-08
-1.29893e-06
-1.72052e-08
-1.28874e-06
-1.9175e-08
-1.27758e-06
-2.11407e-08
-1.26545e-06
-2.30991e-08
-1.25235e-06
-2.50467e-08
-1.2383e-06
-2.69802e-08
-1.22329e-06
-2.88962e-08
-1.20735e-06
-3.07913e-08
-1.19048e-06
-3.26621e-08
-1.1727e-06
-3.45054e-08
-1.15402e-06
-3.63178e-08
-1.13446e-06
-3.80961e-08
-1.11404e-06
-3.9837e-08
-1.09277e-06
-4.15375e-08
-1.07069e-06
-4.31944e-08
-1.04781e-06
-4.4805e-08
-1.02416e-06
-4.63664e-08
-9.99755e-07
-4.78763e-08
-9.74636e-07
-4.93321e-08
-9.48824e-07
-5.07325e-08
-9.22348e-07
-5.2076e-08
-8.95238e-07
-5.33626e-08
-8.67522e-07
-5.45921e-08
-8.39231e-07
-5.57607e-08
-8.10396e-07
-5.68608e-08
-7.81053e-07
-5.7892e-08
-7.51232e-07
-5.88612e-08
-7.20967e-07
-5.97661e-08
-6.9029e-07
-6.06016e-08
-6.59238e-07
-6.13672e-08
-6.27843e-07
-6.20636e-08
-5.9614e-07
-6.26912e-08
-5.64162e-07
-6.32505e-08
-5.31943e-07
-6.37424e-08
-4.99515e-07
-6.41678e-08
-4.6691e-07
-6.45287e-08
-4.34161e-07
-6.48266e-08
-4.01298e-07
-6.50636e-08
-3.6835e-07
-6.52409e-08
-3.35346e-07
-6.53607e-08
-3.02315e-07
-6.54246e-08
-2.69281e-07
-6.54351e-08
-2.36272e-07
-6.53939e-08
-2.0331e-07
-6.5304e-08
-1.7042e-07
-6.51669e-08
-1.37623e-07
-6.49855e-08
-1.0494e-07
-6.47611e-08
-7.23909e-08
-6.44955e-08
-3.99952e-08
-6.41895e-08
-7.77518e-09
-6.3842e-08
2.42503e-08
-6.34559e-08
5.60693e-08
-6.30352e-08
8.77002e-08
-6.25654e-08
1.19118e-07
-6.20506e-08
1.50273e-07
-6.14997e-08
1.81166e-07
-6.09263e-08
2.11799e-07
-6.03545e-08
2.42173e-07
-5.97935e-08
2.72291e-07
-5.92392e-08
3.02152e-07
-5.86909e-08
3.31758e-07
-5.81477e-08
3.61107e-07
-5.76058e-08
3.90195e-07
-5.70584e-08
4.19013e-07
-5.64969e-08
4.47549e-07
-5.59083e-08
4.75779e-07
-5.52732e-08
5.03662e-07
-5.45601e-08
5.31134e-07
-5.37163e-08
5.58084e-07
-5.2651e-08
5.84324e-07
-5.11957e-08
6.09523e-07
-4.90338e-08
6.33049e-07
-4.54288e-08
6.53909e-07
-3.89901e-08
6.70517e-07
-2.5636e-08
5.1865e-09
6.82379e-07
3.49531e-09
-8.26099e-09
7.43137e-09
-1.26322e-08
1.01832e-08
-1.24151e-08
1.1707e-08
-1.0739e-08
1.22048e-08
-8.56944e-09
1.18504e-08
-6.20551e-09
1.07568e-08
-3.77921e-09
8.98662e-09
-1.36902e-09
6.56977e-09
9.72828e-10
3.51491e-09
3.21278e-09
-1.81868e-10
5.33402e-09
-4.53497e-09
7.33501e-09
-9.56473e-09
9.22691e-09
-1.52971e-08
1.10322e-08
-2.17603e-08
1.27828e-08
-2.89857e-08
1.45162e-08
-3.70052e-08
1.6272e-08
-4.58538e-08
1.80885e-08
-5.55689e-08
1.99992e-08
-6.61909e-08
2.2032e-08
-7.77608e-08
2.42073e-08
-9.03205e-08
2.65384e-08
-1.03909e-07
2.90307e-08
-1.1856e-07
3.16824e-08
-1.34292e-07
3.44852e-08
-1.51111e-07
3.74258e-08
-1.69001e-07
4.04853e-08
-1.87926e-07
4.36384e-08
-2.07831e-07
4.68527e-08
-2.2864e-07
5.00897e-08
-2.5026e-07
5.33065e-08
-2.72585e-07
5.64575e-08
-2.95499e-07
5.94971e-08
-3.18881e-07
6.23816e-08
-3.42608e-07
6.50711e-08
-3.66564e-07
6.7531e-08
-3.90635e-07
6.97323e-08
-4.14721e-07
7.16548e-08
-4.38737e-07
7.32914e-08
-4.6262e-07
7.46427e-08
-4.86316e-07
7.57145e-08
-5.09787e-07
7.65183e-08
-5.33004e-07
7.70699e-08
-5.55947e-07
7.73894e-08
-5.78604e-07
7.75001e-08
-6.00972e-07
7.74264e-08
-6.23049e-07
7.71926e-08
-6.4484e-07
7.68221e-08
-6.66349e-07
7.6337e-08
-6.87582e-07
7.57572e-08
-7.08546e-07
7.51003e-08
-7.29248e-07
7.43814e-08
-7.49692e-07
7.36131e-08
-7.69882e-07
7.28056e-08
-7.89821e-07
7.19665e-08
-8.09511e-07
7.11016e-08
-8.28952e-07
7.02147e-08
-8.48142e-07
6.93078e-08
-8.67078e-07
6.83816e-08
-8.85756e-07
6.74357e-08
-9.0417e-07
6.64685e-08
-9.22312e-07
6.54779e-08
-9.40174e-07
6.4461e-08
-9.57745e-07
6.34147e-08
-9.75015e-07
6.23353e-08
-9.91971e-07
6.12194e-08
-1.0086e-06
6.00631e-08
-1.02489e-06
5.88629e-08
-1.04082e-06
5.76151e-08
-1.05637e-06
5.63164e-08
-1.07154e-06
5.49637e-08
-1.0863e-06
5.35539e-08
-1.10063e-06
5.20845e-08
-1.11452e-06
5.05531e-08
-1.12795e-06
4.89578e-08
-1.1409e-06
4.72974e-08
-1.15335e-06
4.55709e-08
-1.16528e-06
4.37782e-08
-1.17668e-06
4.19198e-08
-1.18752e-06
3.99967e-08
-1.1978e-06
3.80115e-08
-1.20749e-06
3.59685e-08
-1.21657e-06
3.3873e-08
-1.22501e-06
3.17275e-08
-1.23278e-06
2.95298e-08
-1.23986e-06
2.72769e-08
-1.24623e-06
2.49669e-08
-1.25187e-06
2.25985e-08
-1.25677e-06
2.01715e-08
-1.26091e-06
1.76863e-08
-1.26427e-06
1.51441e-08
-1.26685e-06
1.25471e-08
-1.26865e-06
9.89927e-09
-1.26964e-06
7.20592e-09
-1.26985e-06
4.4745e-09
-1.26926e-06
1.7156e-09
-1.26787e-06
-1.05686e-09
-1.26565e-06
-3.83532e-09
-1.26255e-06
-6.63142e-09
-1.25856e-06
-9.4566e-09
-1.25365e-06
-1.23079e-08
-1.24782e-06
-1.51806e-08
-1.24105e-06
-1.80704e-08
-1.23335e-06
-2.09732e-08
-1.2247e-06
-2.38843e-08
-1.2151e-06
-2.67993e-08
-1.20457e-06
-2.97132e-08
-1.19309e-06
-3.26212e-08
-1.18067e-06
-3.55185e-08
-1.16731e-06
-3.83998e-08
-1.15303e-06
-4.12604e-08
-1.13783e-06
-4.40951e-08
-1.12172e-06
-4.68989e-08
-1.10472e-06
-4.96669e-08
-1.08683e-06
-5.23939e-08
-1.06807e-06
-5.50753e-08
-1.04846e-06
-5.77062e-08
-1.02802e-06
-6.02818e-08
-1.00676e-06
-6.27975e-08
-9.84702e-07
-6.52488e-08
-9.61875e-07
-6.76315e-08
-9.383e-07
-6.99415e-08
-9.14001e-07
-7.2175e-08
-8.89004e-07
-7.43285e-08
-8.63337e-07
-7.63992e-08
-8.37028e-07
-7.83852e-08
-8.10105e-07
-8.02858e-08
-7.82597e-07
-8.21006e-08
-7.54533e-07
-8.38251e-08
-7.25943e-07
-8.54512e-08
-6.96859e-07
-8.69765e-08
-6.67315e-07
-8.84066e-08
-6.37341e-07
-8.97405e-08
-6.06971e-07
-9.09724e-08
-5.76238e-07
-9.21015e-08
-5.45174e-07
-9.3128e-08
-5.13813e-07
-9.40528e-08
-4.82187e-07
-9.48765e-08
-4.50328e-07
-9.56004e-08
-4.18268e-07
-9.62262e-08
-3.86039e-07
-9.67562e-08
-3.53671e-07
-9.71929e-08
-3.21194e-07
-9.75389e-08
-2.88636e-07
-9.77966e-08
-2.56026e-07
-9.79689e-08
-2.2339e-07
-9.80586e-08
-1.90754e-07
-9.80691e-08
-1.58143e-07
-9.80036e-08
-1.25579e-07
-9.78656e-08
-9.30858e-08
-9.76585e-08
-6.06836e-08
-9.73856e-08
-2.83924e-08
-9.70503e-08
3.76907e-09
-9.66548e-08
3.57816e-08
-9.62e-08
6.76305e-08
-9.56887e-08
9.93028e-08
-9.51261e-08
1.30786e-07
-9.45161e-08
1.6208e-07
-9.38576e-08
1.93181e-07
-9.31496e-08
2.24077e-07
-9.23938e-08
2.54759e-07
-9.16055e-08
2.85215e-07
-9.08091e-08
3.1544e-07
-9.00162e-08
3.4543e-07
-8.92273e-08
3.75183e-07
-8.84423e-08
4.04697e-07
-8.76599e-08
4.33968e-07
-8.68754e-08
4.62992e-07
-8.60806e-08
4.9176e-07
-8.52633e-08
5.20258e-07
-8.44047e-08
5.48463e-07
-8.3476e-08
5.76335e-07
-8.24308e-08
6.03813e-07
-8.1193e-08
6.30798e-07
-7.96341e-08
6.57127e-07
-7.75237e-08
6.82539e-07
-7.44449e-08
7.06643e-07
-6.95309e-08
7.28906e-07
-6.12526e-08
7.49201e-07
-4.59294e-08
-1.56217e-08
7.7001e-07
2.4261e-09
-1.06876e-08
4.04388e-09
-1.42509e-08
4.36303e-09
-1.27348e-08
3.66231e-09
-1.00387e-08
2.1482e-09
-7.05563e-09
-5.27041e-11
-4.00501e-09
-2.86795e-09
-9.64215e-10
-6.26414e-09
2.02677e-09
-1.02345e-08
4.9429e-09
-1.47921e-08
7.77001e-09
-1.99624e-08
1.05041e-08
-2.57792e-08
1.31513e-08
-3.22799e-08
1.57274e-08
-3.95047e-08
1.82566e-08
-4.74923e-08
2.07701e-08
-5.62799e-08
2.33034e-08
-6.59006e-08
2.58925e-08
-7.63842e-08
2.85716e-08
-8.77548e-08
3.13697e-08
-1.00032e-07
3.43088e-08
-1.13228e-07
3.74027e-08
-1.27346e-07
4.06561e-08
-1.42379e-07
4.40643e-08
-1.58311e-07
4.76133e-08
-1.75107e-07
5.1281e-08
-1.92719e-07
5.50379e-08
-2.11082e-07
5.88484e-08
-2.30116e-07
6.26718e-08
-2.49727e-07
6.64632e-08
-2.69813e-07
7.01753e-08
-2.90267e-07
7.37605e-08
-3.10984e-07
7.71732e-08
-3.31858e-07
8.03716e-08
-3.52797e-07
8.33197e-08
-3.73715e-07
8.59885e-08
-3.94541e-07
8.83565e-08
-4.1522e-07
9.04113e-08
-4.35715e-07
9.21497e-08
-4.56001e-07
9.35767e-08
-4.76061e-07
9.47025e-08
-4.95888e-07
9.55409e-08
-5.15481e-07
9.61107e-08
-5.34846e-07
9.64349e-08
-5.53995e-07
9.65383e-08
-5.72941e-07
9.64457e-08
-5.91697e-07
9.61819e-08
-6.10275e-07
9.57703e-08
-6.28686e-07
9.52331e-08
-6.46939e-07
9.45905e-08
-6.65043e-07
9.38606e-08
-6.83002e-07
9.30588e-08
-7.00819e-07
9.21983e-08
-7.18496e-07
9.12898e-08
-7.36032e-07
9.03415e-08
-7.53425e-07
8.93595e-08
-7.70672e-07
8.8348e-08
-7.87767e-07
8.73092e-08
-8.04704e-07
8.62439e-08
-8.21474e-07
8.51515e-08
-8.38069e-07
8.40303e-08
-8.54479e-07
8.28778e-08
-8.70692e-07
8.16906e-08
-8.86697e-07
8.04651e-08
-9.02479e-07
7.9197e-08
-9.18026e-07
7.78819e-08
-9.33323e-07
7.65153e-08
-9.48353e-07
7.50927e-08
-9.631e-07
7.36098e-08
-9.77547e-07
7.20622e-08
-9.91677e-07
7.0446e-08
-1.00547e-06
6.87575e-08
-1.01891e-06
6.69932e-08
-1.03198e-06
6.51503e-08
-1.04465e-06
6.32259e-08
-1.05691e-06
6.12182e-08
-1.06874e-06
5.91256e-08
-1.08012e-06
5.69472e-08
-1.09102e-06
5.46827e-08
-1.10143e-06
5.23325e-08
-1.11133e-06
4.98976e-08
-1.1207e-06
4.738e-08
-1.12952e-06
4.47822e-08
-1.13775e-06
4.21073e-08
-1.14538e-06
3.93566e-08
-1.15238e-06
3.65297e-08
-1.15873e-06
3.36258e-08
-1.16441e-06
3.06446e-08
-1.1694e-06
2.75864e-08
-1.17368e-06
2.44524e-08
-1.17723e-06
2.12444e-08
-1.18005e-06
1.79651e-08
-1.18212e-06
1.46183e-08
-1.18343e-06
1.1209e-08
-1.18397e-06
7.74339e-09
-1.18373e-06
4.22865e-09
-1.18269e-06
6.72903e-10
-1.18083e-06
-2.91642e-09
-1.17813e-06
-6.53739e-09
-1.17456e-06
-1.01958e-08
-1.17012e-06
-1.38948e-08
-1.1648e-06
-1.76303e-08
-1.15859e-06
-2.13962e-08
-1.15147e-06
-2.51863e-08
-1.14345e-06
-2.89944e-08
-1.13452e-06
-3.28142e-08
-1.12468e-06
-3.66393e-08
-1.11393e-06
-4.04635e-08