/*--------------------------------*- C++ -*----------------------------------*\
| =========                 |                                                 |
| \\      /  F ield         | OpenFOAM: The Open Source CFD Toolbox           |
|  \\    /   O peration     | Version:  2312                                  |
|   \\  /    A nd           | Website:  www.openfoam.com                      |
|    \\/     M anipulation  |                                                 |
\*---------------------------------------------------------------------------*/
FoamFile
{
    version     2.0;
    format      ascii;
    arch        "LSB;label=32;scalar=64";
    class       volVectorField;
    location    "275";
    object      U;
}
// * * * * * * * * * * * * * * * * * * * * * * * * * * * * * * * * * * * * * //

dimensions      [0 1 -1 0 0 0 0];

internalField   nonuniform List<vector> 
12225
(
(4.84801 -0.821804 0)
(4.65549 -0.67301 0)
(4.43862 -0.378808 0)
(4.20052 -0.186177 0)
(3.98001 -0.0822369 0)
(3.79105 -0.0313487 0)
(3.63276 -0.0078791 0)
(3.50083 0.00208596 0)
(3.39171 0.00581854 0)
(3.30143 0.00673797 0)
(3.22647 0.00645085 0)
(3.16387 0.00570318 0)
(3.11134 0.00482839 0)
(3.06731 0.00388993 0)
(3.03072 0.00298121 0)
(3.00185 0.00151688 0)
(2.9761 0.00299662 0)
(2.96694 -0.0155595 0)
(5.07191 0.20952 0)
(5.13586 0.305563 0)
(5.12826 0.24626 0)
(5.08362 0.176499 0)
(5.02568 0.127527 0)
(4.96088 0.0954604 0)
(4.88995 0.0743133 0)
(4.81571 0.0601939 0)
(4.74156 0.0503593 0)
(4.66997 0.0431587 0)
(4.60226 0.0376136 0)
(4.53905 0.0331415 0)
(4.48079 0.029366 0)
(4.42757 0.0260581 0)
(4.37945 0.0228376 0)
(4.3363 0.0199038 0)
(4.29933 0.0155644 0)
(4.26695 0.0140065 0)
(5.00411 0.0539414 0)
(5.02799 0.0569203 0)
(5.05647 0.0376077 0)
(5.07523 0.0373058 0)
(5.08607 0.0451282 0)
(5.09007 0.0508579 0)
(5.08652 0.053143 0)
(5.07625 0.0531903 0)
(5.06103 0.0519447 0)
(5.04259 0.049926 0)
(5.02206 0.0474682 0)
(5.00032 0.0447856 0)
(4.97815 0.0419717 0)
(4.95613 0.0390155 0)
(4.93481 0.0358292 0)
(4.91449 0.0322213 0)
(4.89629 0.0279374 0)
(4.87786 0.0210033 0)
(4.998 0.0107201 0)
(5.00988 0.0290455 0)
(5.03457 0.040651 0)
(5.05391 0.0514174 0)
(5.06814 0.0584467 0)
(5.07982 0.0606629 0)
(5.08846 0.0599688 0)
(5.09373 0.0581129 0)
(5.09625 0.0558526 0)
(5.09667 0.0534186 0)
(5.09543 0.0508968 0)
(5.09289 0.0483249 0)
(5.08938 0.0456715 0)
(5.08526 0.0428715 0)
(5.08081 0.0397717 0)
(5.0762 0.0361376 0)
(5.07174 0.0316059 0)
(5.066 0.0247874 0)
(4.99929 0.00748995 0)
(5.00882 0.0331185 0)
(5.0278 0.0460356 0)
(5.0431 0.0521623 0)
(5.05531 0.0556331 0)
(5.06678 0.0567562 0)
(5.07689 0.056234 0)
(5.08505 0.0549521 0)
(5.09153 0.0533387 0)
(5.09672 0.0515115 0)
(5.10087 0.0495161 0)
(5.10415 0.0473739 0)
(5.10673 0.0450616 0)
(5.1088 0.0425137 0)
(5.11047 0.039597 0)
(5.11179 0.0361026 0)
(5.11275 0.0317919 0)
(5.11258 0.026097 0)
(5.00013 0.00919742 0)
(5.00817 0.0317976 0)
(5.02327 0.0424321 0)
(5.03638 0.0473459 0)
(5.04748 0.0508293 0)
(5.05823 0.0526157 0)
(5.06812 0.052786 0)
(5.07663 0.052035 0)
(5.08392 0.0508167 0)
(5.09032 0.0492953 0)
(5.096 0.047538 0)
(5.10106 0.0455791 0)
(5.10561 0.0434069 0)
(5.10975 0.0409636 0)
(5.11354 0.0381442 0)
(5.11694 0.0347894 0)
(5.11985 0.0307773 0)
(5.12179 0.0258664 0)
(5.00027 0.00895886 0)
(5.00709 0.0278063 0)
(5.0198 0.037867 0)
(5.03168 0.0431847 0)
(5.04205 0.0469696 0)
(5.05207 0.0490438 0)
(5.06145 0.0495065 0)
(5.06976 0.0490067 0)
(5.07714 0.0479926 0)
(5.0838 0.046639 0)
(5.0899 0.0450193 0)
(5.09551 0.0431702 0)
(5.10071 0.0410851 0)
(5.10554 0.0387183 0)
(5.11004 0.0359915 0)
(5.11413 0.0327981 0)
(5.11769 0.0290844 0)
(5.12044 0.0247716 0)
(5.00028 0.00794181 0)
(5.00605 0.024074 0)
(5.01696 0.0339252 0)
(5.02785 0.0395135 0)
(5.03761 0.0433013 0)
(5.04701 0.0454316 0)
(5.0559 0.0460705 0)
(5.06395 0.0457676 0)
(5.07121 0.0449217 0)
(5.07786 0.043705 0)
(5.08403 0.0421954 0)
(5.08976 0.0404328 0)
(5.09512 0.0384201 0)
(5.10014 0.0361259 0)
(5.10481 0.0334994 0)
(5.10906 0.0304791 0)
(5.11279 0.0270549 0)
(5.11583 0.0232362 0)
(5.0003 0.00698376 0)
(5.00518 0.0209764 0)
(5.01452 0.0303147 0)
(5.02445 0.0358722 0)
(5.03364 0.0395591 0)
(5.0425 0.041711 0)
(5.05096 0.0425028 0)
(5.05873 0.0423754 0)
(5.06584 0.0416786 0)
(5.0724 0.0405821 0)
(5.0785 0.0391694 0)
(5.08421 0.0374857 0)
(5.08955 0.035544 0)
(5.09454 0.03333 0)
(5.09917 0.030817 0)
(5.10339 0.0279791 0)
(5.1071 0.0248337 0)
(5.11021 0.021431 0)
(5.00031 0.00614665 0)
(5.00445 0.0182511 0)
(5.01243 0.0268532 0)
(5.02138 0.0322206 0)
(5.02997 0.0357768 0)
(5.03832 0.0379233 0)
(5.04637 0.0388289 0)
(5.05387 0.0388453 0)
(5.06079 0.0382773 0)
(5.06722 0.0372896 0)
(5.07322 0.0359695 0)
(5.07883 0.034367 0)
(5.08408 0.0325052 0)
(5.08898 0.0303853 0)
(5.0935 0.0280018 0)
(5.09761 0.025354 0)
(5.10123 0.0224752 0)
(5.10434 0.0194302 0)
(5.0003 0.00537276 0)
(5.00382 0.0157857 0)
(5.01063 0.0235538 0)
(5.01864 0.0286275 0)
(5.0266 0.0320075 0)
(5.03443 0.0340954 0)
(5.04205 0.0350602 0)
(5.04925 0.0351823 0)
(5.05596 0.0347216 0)
(5.06223 0.0338333 0)
(5.06809 0.0326048 0)
(5.07358 0.03109 0)
(5.07871 0.0293204 0)
(5.08348 0.0273106 0)
(5.08787 0.0250714 0)
(5.09185 0.022619 0)
(5.09537 0.0199941 0)
(5.09845 0.0172638 0)
(5.00028 0.00468727 0)
(5.00333 0.013712 0)
(5.00924 0.0206852 0)
(5.01643 0.0254094 0)
(5.0238 0.0285803 0)
(5.03114 0.0305677 0)
(5.03835 0.0315378 0)
(5.04523 0.0317199 0)
(5.05172 0.0313354 0)
(5.05781 0.0305269 0)
(5.06352 0.0293798 0)
(5.06888 0.0279502 0)
(5.07387 0.0262752 0)
(5.07851 0.0243789 0)
(5.08277 0.0222824 0)
(5.08664 0.020012 0)
(5.09007 0.0176097 0)
(5.09311 0.01514 0)
(5.00026 0.00404396 0)
(5.00291 0.011813 0)
(5.00805 0.0179791 0)
(5.0145 0.0222926 0)
(5.02129 0.0252178 0)
(5.02814 0.0270696 0)
(5.03492 0.0280063 0)
(5.04148 0.0282168 0)
(5.04771 0.0278873 0)
(5.05359 0.0271466 0)
(5.05913 0.0260765 0)
(5.06433 0.0247334 0)
(5.06917 0.0231582 0)
(5.07367 0.0213814 0)
(5.0778 0.0194313 0)
(5.08156 0.0173395 0)
(5.08491 0.0151471 0)
(5.0879 0.0129147 0)
(5.00024 0.00337567 0)
(5.00252 0.00983656 0)
(5.00692 0.0150832 0)
(5.01261 0.0188644 0)
(5.01878 0.0214561 0)
(5.02508 0.0231056 0)
(5.03138 0.0239561 0)
(5.03754 0.0241582 0)
(5.04345 0.0238624 0)
(5.04907 0.0231809 0)
(5.05438 0.0221895 0)
(5.05937 0.0209432 0)
(5.06403 0.0194847 0)
(5.06836 0.0178485 0)
(5.07234 0.0160668 0)
(5.07596 0.0141735 0)
(5.07922 0.0122067 0)
(5.08216 0.0102209 0)
(5.00022 0.00268128 0)
(5.00215 0.00779163 0)
(5.00589 0.0120198 0)
(5.01085 0.0151447 0)
(5.01636 0.0173035 0)
(5.0221 0.0186726 0)
(5.02789 0.0193725 0)
(5.0336 0.0195183 0)
(5.03914 0.0192255 0)
(5.04444 0.018587 0)
(5.04946 0.0176705 0)
(5.0542 0.0165271 0)
(5.05864 0.0151985 0)
(5.06276 0.01372 0)
(5.06657 0.0121246 0)
(5.07005 0.0104453 0)
(5.07319 0.00871498 0)
(5.07606 0.00698076 0)
(5.00019 0.0019612 0)
(5.00182 0.00568682 0)
(5.00499 0.00880732 0)
(5.00928 0.0111506 0)
(5.01417 0.0127672 0)
(5.01934 0.013768 0)
(5.02462 0.0142428 0)
(5.02987 0.0142746 0)
(5.03501 0.0139459 0)
(5.03995 0.0133283 0)
(5.04467 0.0124776 0)
(5.04913 0.0114382 0)
(5.05331 0.0102475 0)
(5.05721 0.00893823 0)
(5.06082 0.00754065 0)
(5.06414 0.00608367 0)
(5.06717 0.0045944 0)
(5.06994 0.00311156 0)
(5.00016 0.00121525 0)
(5.00155 0.00351522 0)
(5.00426 0.00544211 0)
(5.008 0.00688048 0)
(5.01233 0.00783846 0)
(5.01699 0.00837357 0)
(5.02178 0.0085414 0)
(5.02661 0.00839401 0)
(5.03136 0.00798385 0)
(5.03595 0.00735912 0)
(5.04036 0.00656021 0)
(5.04453 0.00562089 0)
(5.04847 0.0045706 0)
(5.05215 0.00343587 0)
(5.05557 0.00224104 0)
(5.05873 0.00100888 0)
(5.06163 -0.000240331 0)
(5.06431 -0.0014763 0)
(5.00014 0.000430458 0)
(5.00136 0.00123084 0)
(5.00375 0.00186181 0)
(5.00708 0.00226666 0)
(5.01101 0.00244102 0)
(5.01526 0.00240361 0)
(5.01968 0.00217524 0)
(5.02415 0.00177766 0)
(5.02857 0.0012346 0)
(5.03287 0.000569412 0)
(5.037 -0.000196724 0)
(5.04093 -0.00104468 0)
(5.04465 -0.00195663 0)
(5.04814 -0.00291577 0)
(5.05139 -0.00390623 0)
(5.05441 -0.00491308 0)
(5.05721 -0.00592323 0)
(5.0598 -0.00691481 0)
(5.00013 -0.000431753 0)
(5.00128 -0.00128044 0)
(5.00353 -0.0020959 0)
(5.0067 -0.00287002 0)
(5.01044 -0.00360544 0)
(5.0145 -0.00431802 0)
(5.01873 -0.00502437 0)
(5.023 -0.0057348 0)
(5.02723 -0.00645549 0)
(5.03135 -0.00719064 0)
(5.03531 -0.00794208 0)
(5.03908 -0.00870894 0)
(5.04265 -0.00948823 0)
(5.046 -0.0102754 0)
(5.04914 -0.0110652 0)
(5.05207 -0.0118514 0)
(5.0548 -0.0126286 0)
(5.05733 -0.0133833 0)
(5.00014 -0.00125056 0)
(5.00136 -0.00367617 0)
(5.00375 -0.00588037 0)
(5.0071 -0.0077714 0)
(5.01102 -0.00935015 0)
(5.01522 -0.0106781 0)
(5.01954 -0.011812 0)
(5.02388 -0.0127923 0)
(5.02815 -0.0136556 0)
(5.03229 -0.0144357 0)
(5.03624 -0.0151583 0)
(5.03999 -0.0158405 0)
(5.04353 -0.0164934 0)
(5.04685 -0.0171244 0)
(5.04996 -0.0177372 0)
(5.05286 -0.0183335 0)
(5.05557 -0.0189135 0)
(5.05807 -0.0194704 0)
(5.00015 -0.00195324 0)
(5.00149 -0.0057713 0)
(5.00419 -0.00919694 0)
(5.00793 -0.0120029 0)
(5.01223 -0.0142212 0)
(5.01674 -0.0159979 0)
(5.02132 -0.0174289 0)
(5.02587 -0.0185755 0)
(5.03029 -0.0195035 0)
(5.03453 -0.0202761 0)
(5.03855 -0.0209399 0)
(5.04235 -0.0215264 0)
(5.04591 -0.0220582 0)
(5.04925 -0.0225511 0)
(5.05236 -0.0230155 0)
(5.05526 -0.0234578 0)
(5.05796 -0.0238817 0)
(5.06046 -0.0242841 0)
(5.00015 -0.00260911 0)
(5.00164 -0.00784146 0)
(5.0048 -0.0125131 0)
(5.00917 -0.0161487 0)
(5.01401 -0.0188828 0)
(5.01893 -0.0209987 0)
(5.02386 -0.0226284 0)
(5.02869 -0.0238548 0)
(5.03333 -0.0247807 0)
(5.03772 -0.0254985 0)
(5.04185 -0.0260712 0)
(5.04571 -0.0265415 0)
(5.04931 -0.0269416 0)
(5.05267 -0.0272945 0)
(5.05579 -0.0276157 0)
(5.05869 -0.0279148 0)
(5.06138 -0.0281974 0)
(5.06387 -0.0284629 0)
(5.00011 -0.00321083 0)
(5.00171 -0.00995601 0)
(5.0055 -0.0158741 0)
(5.01072 -0.0202203 0)
(5.0162 -0.0233994 0)
(5.02159 -0.0258001 0)
(5.02691 -0.0275371 0)
(5.03207 -0.0287415 0)
(5.03694 -0.029585 0)
(5.04149 -0.030193 0)
(5.04572 -0.0306381 0)
(5.04966 -0.0309703 0)
(5.05331 -0.0312284 0)
(5.05668 -0.0314406 0)
(5.05981 -0.0316248 0)
(5.06271 -0.0317917 0)
(5.0654 -0.0319475 0)
(5.06788 -0.032092 0)
(5.00005 -0.00373825 0)
(5.00167 -0.0124912 0)
(5.00626 -0.019493 0)
(5.01241 -0.0241105 0)
(5.01853 -0.0275824 0)
(5.02445 -0.0302758 0)
(5.03026 -0.0321115 0)
(5.0358 -0.0332572 0)
(5.04093 -0.0339785 0)
(5.04565 -0.034441 0)
(5.05002 -0.0347284 0)
(5.05405 -0.034899 0)
(5.05776 -0.0349995 0)
(5.06117 -0.0350621 0)
(5.06431 -0.0351063 0)
(5.06721 -0.0351431 0)
(5.06988 -0.0351775 0)
(5.07233 -0.0352078 0)
(4.99981 -0.00348669 0)
(5.00116 -0.0157365 0)
(5.00703 -0.0242026 0)
(5.01422 -0.0285133 0)
(5.02088 -0.0317176 0)
(5.02742 -0.034372 0)
(5.03394 -0.036173 0)
(5.04003 -0.0372494 0)
(5.04554 -0.0378839 0)
(5.05054 -0.0382405 0)
(5.05509 -0.0384019 0)
(5.05924 -0.0384337 0)
(5.06301 -0.0383905 0)
(5.06642 -0.0383098 0)
(5.06951 -0.0382146 0)
(5.07232 -0.0381186 0)
(5.07489 -0.0380275 0)
(5.07722 -0.0379392 0)
(4.99829 -0.000185132 0)
(4.99835 -0.0164971 0)
(5.00717 -0.0285444 0)
(5.01668 -0.0342667 0)
(5.02437 -0.0375005 0)
(5.03175 -0.0394885 0)
(5.0391 -0.0405303 0)
(5.04585 -0.0410262 0)
(5.0518 -0.0412551 0)
(5.05708 -0.0413118 0)
(5.06177 -0.0412379 0)
(5.06591 -0.0410787 0)
(5.06953 -0.0408751 0)
(5.0727 -0.0406546 0)
(5.07546 -0.0404346 0)
(5.07785 -0.0402271 0)
(5.07994 -0.0400349 0)
(5.08174 -0.0398538 0)
(4.99435 0.00186036 0)
(4.99231 -0.0104776 0)
(5.00589 -0.0232872 0)
(5.02042 -0.0347352 0)
(5.03144 -0.0428294 0)
(5.04089 -0.0468394 0)
(5.04936 -0.0481226 0)
(5.05654 -0.0481681 0)
(5.06244 -0.0477044 0)
(5.06728 -0.0469892 0)
(5.0712 -0.0461503 0)
(5.07429 -0.0452818 0)
(5.07662 -0.0444438 0)
(5.07827 -0.0436632 0)
(5.07934 -0.0429557 0)
(5.07992 -0.0423298 0)
(5.08009 -0.0417827 0)
(5.07992 -0.0413212 0)
(4.99482 -0.0276811 0)
(4.99737 -0.0243055 0)
(5.01305 -0.00743503 0)
(5.03042 -0.00722681 0)
(5.04573 -0.0165282 0)
(5.05856 -0.0255221 0)
(5.06792 -0.0318736 0)
(5.07354 -0.0361771 0)
(5.07602 -0.03902 0)
(5.07608 -0.0407248 0)
(5.07423 -0.0415872 0)
(5.07079 -0.0418739 0)
(5.06608 -0.0417882 0)
(5.06038 -0.0414676 0)
(5.05393 -0.0410138 0)
(5.0469 -0.0405048 0)
(5.03947 -0.0399923 0)
(5.03186 -0.0395732 0)
(5.03833 -0.173517 0)
(5.08591 -0.276052 0)
(5.09644 -0.240796 0)
(5.08894 -0.185384 0)
(5.07822 -0.142612 0)
(5.06477 -0.112109 0)
(5.04552 -0.0903083 0)
(5.02044 -0.0748531 0)
(4.99131 -0.0638398 0)
(4.95977 -0.0557789 0)
(4.92699 -0.0496897 0)
(4.89377 -0.0449706 0)
(4.8607 -0.0412383 0)
(4.82822 -0.0382308 0)
(4.7966 -0.035772 0)
(4.76603 -0.033758 0)
(4.73657 -0.0321099 0)
(4.70856 -0.0309512 0)
(4.92933 0.663094 0)
(4.86205 0.581837 0)
(4.75227 0.361578 0)
(4.602 0.204064 0)
(4.44663 0.108767 0)
(4.30333 0.0542895 0)
(4.17523 0.0239868 0)
(4.06169 0.00733672 0)
(3.96179 -0.00172325 0)
(3.87433 -0.00649408 0)
(3.7976 -0.00882085 0)
(3.73002 -0.00977023 0)
(3.67015 -0.00995564 0)
(3.61691 -0.00973393 0)
(3.56924 -0.00931097 0)
(3.5264 -0.0088205 0)
(3.48743 -0.00833843 0)
(3.45219 -0.00807267 0)
(0.000388316 -0.000753451 1.65731e-16)
(0.00265964 -0.00269812 -1.79555e-16)
(0.0064282 -0.00451946 0)
(0.0111031 -0.00563667 0)
(0.015861 -0.00591089 0)
(0.0202242 -0.00553586 1.20643e-16)
(0.0239302 -0.00477353 0)
(0.0268514 -0.00383484 0)
(0.0289531 -0.00285958 0)
(0.0302626 -0.00192985 0)
(0.0308501 -0.00109087 -1.04786e-16)
(0.0307703 -0.000373871 0)
(0.030132 0.000202935 0)
(0.0290425 0.00064727 0)
(0.0275775 0.000989438 0)
(0.0257913 0.00126751 -1.04948e-16)
(0.0237146 0.00151807 0)
(0.021355 0.00177164 0)
(0.0187001 0.00205129 0)
(0.0157222 0.00237289 0)
(0.0123839 0.00274569 0)
(0.00864289 0.00316866 0)
(0.00445381 0.00362138 0)
(-0.000229914 0.00405839 -1.19346e-16)
(-0.00546352 0.00445799 1.14235e-16)
(-0.0113128 0.00485425 -1.0711e-16)
(-0.0178481 0.00528697 -1.00176e-16)
(-0.025144 0.00577813 0)
(-0.0332812 0.00634112 0)
(-0.0423435 0.00698521 8.0912e-17)
(-0.0524128 0.00771693 7.50675e-17)
(-0.0635658 0.00853794 0)
(-0.0758695 0.00944446 0)
(-0.0893765 0.0104259 5.95116e-17)
(-0.104122 0.0114666 0)
(-0.120121 0.0125471 0)
(-0.137365 0.0136469 -4.71116e-17)
(-0.155828 0.0147442 0)
(-0.175463 0.0158168 -4.05314e-17)
(-0.196204 0.0168392 -7.53889e-17)
(-0.217964 0.0177881 0)
(-0.240647 0.018646 0)
(-0.264146 0.0194015 0)
(-0.288352 0.0200475 0)
(-0.313155 0.0205819 0)
(-0.338447 0.0210062 -5.12838e-17)
(-0.364126 0.0213256 -4.85257e-17)
(-0.390098 0.0215475 -4.60299e-17)
(-0.416276 0.021681 0)
(-0.442584 0.0217359 4.17115e-17)
(-0.468954 0.0217226 0)
(-0.495327 0.021651 -3.81306e-17)
(-0.521655 0.0215306 -3.65669e-17)
(-0.547895 0.0213697 0)
(-0.574013 0.021176 0)
(-0.599979 0.0209554 0)
(-0.62577 0.0207136 -3.14725e-17)
(-0.651366 0.0204546 0)
(-0.676751 0.0201818 0)
(-0.701909 0.0198974 0)
(-0.726827 0.0196032 0)
(-0.751493 0.0193002 0)
(-0.775895 0.0189891 0)
(-0.800021 0.0186697 0)
(-0.823857 0.0183421 0)
(-0.847391 0.0180055 2.42707e-17)
(-0.870607 0.0176597 0)
(-0.89349 0.0173035 0)
(-0.916022 0.0169365 -2.26569e-17)
(-0.938186 0.0165573 -2.21793e-17)
(-0.95996 0.0161652 0)
(-0.981325 0.0157588 2.13028e-17)
(-1.00226 0.0153371 -2.09008e-17)
(-1.02273 0.0148985 0)
(-1.04272 0.0144419 2.01625e-17)
(-1.0622 0.0139657 0)
(-1.08115 0.0134687 0)
(-1.09952 0.0129495 -1.92033e-17)
(-1.11729 0.0124073 0)
(-1.13443 0.0118428 1.86526e-17)
(-1.15091 0.0112614 0)
(-1.1667 0.0106739 -1.81664e-17)
(-1.18176 0.0100964 -1.79457e-17)
(-1.19606 0.00954339 -1.77369e-17)
(-1.20968 0.00900164 -3.50821e-17)
(-1.22256 0.00845593 3.47157e-17)
(-1.23471 0.00790553 0)
(-1.2461 0.00734413 0)
(-1.25672 0.00676997 0)
(-1.26652 0.00617885 3.34834e-17)
(-1.2755 0.00556718 3.3231e-17)
(-1.28361 0.00493021 -3.30002e-17)
(-1.29082 0.00426296 0)
(-1.29709 0.00355984 3.26038e-17)
(-1.30236 0.00281684 3.24387e-17)
(-1.30661 0.00203795 3.22966e-17)
(-1.30976 0.0012498 0)
(-1.31175 0.000510883 0)
(-1.3125 -0.000126189 0)
(-1.31233 -0.000691009 3.19315e-17)
(-1.31122 -0.00123635 0)
(-1.30917 -0.00177419 0)
(-1.3062 -0.00230922 -3.18373e-17)
(-1.30229 -0.00284211 0)
(-1.29743 -0.00337278 0)
(-1.29164 -0.00390074 -3.19032e-17)
(-1.28489 -0.00442536 0)
(-1.27719 -0.00494601 0)
(-1.26854 -0.00546202 3.2133e-17)
(-1.25893 -0.00597273 3.22472e-17)
(-1.24838 -0.00647747 0)
(-1.23689 -0.00697558 -3.25343e-17)
(-1.22446 -0.00746642 0)
(-1.2111 -0.00794935 3.29021e-17)
(-1.19682 -0.00842377 0)
(-1.18163 -0.00888905 3.33548e-17)
(-1.16554 -0.00934463 3.36145e-17)
(-1.14856 -0.00978987 0)
(-1.13072 -0.0102243 0)
(-1.11203 -0.0106474 0)
(-1.0925 -0.0110588 0)
(-1.07216 -0.0114581 0)
(-1.05103 -0.011845 0)
(-1.02913 -0.0122192 0)
(-1.00649 -0.0125808 3.65917e-17)
(-0.983121 -0.0129299 -3.70908e-17)
(-0.959057 -0.0132665 0)
(-0.934318 -0.0135899 0)
(-0.908931 -0.0138989 0)
(-0.88293 -0.0141932 0)
(-0.856341 -0.0144751 -8.02092e-17)
(-0.829193 -0.0147443 0)
(-0.801515 -0.0149989 8.31647e-17)
(-0.773338 -0.0152396 -8.47786e-17)
(-0.744693 -0.0154662 0)
(-0.715611 -0.0156794 0)
(-0.686125 -0.0158794 0)
(-0.656266 -0.0160667 9.22608e-17)
(-0.626064 -0.0162414 9.44202e-17)
(-0.59555 -0.0164044 0)
(-0.564755 -0.0165564 9.91396e-17)
(-0.53371 -0.0166981 1.01718e-16)
(-0.502444 -0.0168302 -1.04456e-16)
(-0.470985 -0.0169534 0)
(-0.43936 -0.0170683 0)
(-0.407598 -0.0171758 -1.13754e-16)
(-0.375723 -0.0172767 0)
(-0.34376 -0.017372 0)
(-0.311735 -0.0174625 0)
(-0.279669 -0.0175493 0)
(-0.247585 -0.0176331 1.33856e-16)
(-0.215503 -0.0177148 1.38765e-16)
(-0.183445 -0.0177947 0)
(-0.151431 -0.0178731 1.49718e-16)
(-0.119481 -0.0179517 0)
(-0.0876128 -0.0180407 0)
(-0.0558507 -0.0181412 1.69647e-16)
(-0.0242288 -0.0182117 0)
(0.00719498 -0.0180411 1.79787e-16)
(0.0383815 -0.0175564 0)
(0.0693852 -0.0169898 0)
(0.100191 -0.0164504 1.59462e-16)
(0.130795 -0.0159452 0)
(0.161195 -0.0154657 1.47533e-16)
(0.191394 -0.01501 0)
(0.221406 -0.014578 0)
(0.251232 -0.0141671 0)
(0.280874 -0.013774 -1.28883e-16)
(0.310327 -0.013395 0)
(0.339582 -0.0130263 1.21484e-16)
(0.368622 -0.012663 0)
(0.397416 -0.0122983 0)
(0.425914 -0.0119215 0)
(0.45402 -0.0115148 0)
(0.481603 -0.0110449 0)
(0.508271 -0.0104503 0)
(0.53384 -0.00957288 0)
(0.555335 -0.00806538 -2.02634e-16)
(0.576587 -0.00485457 0)
(0.564624 0.004583 0)
(0.00115175 -0.00561846 -4.72756e-16)
(0.00540993 -0.0117667 3.98641e-16)
(0.00983237 -0.0143777 0)
(0.0136364 -0.0146272 -1.39576e-16)
(0.0166618 -0.0134547 0)
(0.0188727 -0.0114568 -5.26186e-17)
(0.0202903 -0.00904823 9.79175e-17)
(0.0209554 -0.00651423 9.33172e-17)
(0.0209047 -0.00404132 0)
(0.020172 -0.00174194 8.82728e-17)
(0.0187907 0.000325546 4.32914e-17)
(0.0168088 0.00213333 0)
(0.0142414 0.0036794 0)
(0.0110972 0.00499427 0)
(0.00738565 0.00613275 0)
(0.00310921 0.0071589 4.1333e-17)
(-0.0017375 0.0081347 0)
(-0.00717096 0.00911661 -7.83493e-17)
(-0.0132179 0.0101522 0)
(-0.0199152 0.011277 0)
(-0.0273096 0.0125163 7.0359e-17)
(-0.0354583 0.013885 0)
(-0.0444299 0.0153877 -6.56929e-17)
(-0.0542933 0.0170189 3.17792e-17)
(-0.0651035 0.018774 -3.0757e-17)
(-0.0769128 0.0206625 2.9754e-17)
(-0.0897776 0.0226991 2.87498e-17)
(-0.103748 0.0248902 0)
(-0.118858 0.0272301 0)
(-0.135126 0.029702 -2.56721e-17)
(-0.152552 0.0322797 2.46306e-17)
(-0.171116 0.0349288 0)
(-0.190775 0.0376083 0)
(-0.211468 0.040272 -2.15532e-17)
(-0.233117 0.042872 0)
(-0.255625 0.045361 0)
(-0.278886 0.0476944 1.87253e-17)
(-0.302788 0.0498299 0)
(-0.327205 0.0517284 -1.70559e-17)
(-0.352015 0.0533647 3.2582e-17)
(-0.377101 0.054727 0)
(-0.402356 0.0558118 0)
(-0.427684 0.0566249 5.71104e-17)
(-0.452996 0.0571789 5.47792e-17)
(-0.47822 0.0574916 5.26093e-17)
(-0.503291 0.0575845 -2.52952e-17)
(-0.52816 0.0574819 2.43555e-17)
(-0.552786 0.0572087 7.04424e-17)
(-0.577139 0.0567901 -4.53313e-17)
(-0.601197 0.0562498 -2.19052e-17)
(-0.624943 0.05561 0)
(-0.648369 0.0548904 2.05308e-17)
(-0.671469 0.0541083 -1.99088e-17)
(-0.694241 0.0532784 0)
(-0.716683 0.0524129 0)
(-0.738798 0.0515212 0)
(-0.760587 0.050611 1.77747e-17)
(-0.782051 0.0496877 0)
(-0.803191 0.0487552 -3.3764e-17)
(-0.824008 0.0478156 0)
(-0.8445 0.0468703 -3.21644e-17)
(-0.864666 0.0459194 0)
(-0.884501 0.0449624 3.07239e-17)
(-0.904 0.0439982 0)
(-0.923156 0.0430255 -2.94209e-17)
(-0.941963 0.0420423 1.44077e-17)
(-0.960409 0.0410471 0)
(-0.978485 0.0400378 2.76868e-17)
(-0.996178 0.0390127 1.35803e-17)
(-1.01347 0.0379698 1.33289e-17)
(-1.03036 0.0369077 0)
(-1.04682 0.0358245 1.28592e-17)
(-1.06284 0.0347191 1.26394e-17)
(-1.0784 0.0335898 0)
(-1.09349 0.0324358 -1.22286e-17)
(-1.10808 0.0312559 2.40735e-17)
(-1.12217 0.03005 0)
(-1.13572 0.0288178 1.1678e-17)
(-1.14874 0.0275591 0)
(-1.1612 0.0262733 -3.40539e-17)
(-1.1731 0.0249625 0)
(-1.18441 0.0236341 3.31642e-17)
(-1.19514 0.0223027 1.0917e-17)
(-1.20526 0.0209834 -1.07855e-17)
(-1.21475 0.0196729 -2.13195e-17)
(-1.22356 0.0183589 2.10792e-17)
(-1.23169 0.0170372 0)
(-1.23912 0.0157037 0)
(-1.24581 0.0143563 0)
(-1.25176 0.0129934 -6.06687e-17)
(-1.25696 0.0116131 -2.00335e-17)
(-1.26137 0.0102139 1.98535e-17)
(-1.26501 0.00879444 0)
(-1.26785 0.00735298 1.9521e-17)
(-1.26991 0.00588668 -1.93686e-17)
(-1.27121 0.00439396 -1.92257e-17)
(-1.27177 0.00288654 0)
(-1.27166 0.00140641 0)
(-1.27095 8.64988e-06 0)
(-1.2694 -0.00131804 -1.87147e-17)
(-1.26697 -0.00261602 0)
(-1.26365 -0.00389606 3.70004e-17)
(-1.25941 -0.00516305 5.52141e-17)
(-1.25426 -0.00641737 -3.66336e-17)
(-1.24817 -0.00765805 0)
(-1.24116 -0.00888359 -1.81636e-17)
(-1.2332 -0.0100922 0)
(-1.22431 -0.0112822 -3.60804e-17)
(-1.21448 -0.0124517 1.79893e-17)
(-1.20372 -0.013599 1.79457e-17)
(-1.19202 -0.0147224 0)
(-1.17939 -0.0158201 5.36407e-17)
(-1.16584 -0.0168906 -3.5716e-17)
(-1.15138 -0.0179323 -1.78431e-17)
(-1.136 -0.0189436 0)
(-1.11973 -0.0199233 -1.78339e-17)
(-1.10258 -0.0208699 -5.3519e-17)
(-1.08456 -0.0217822 0)
(-1.06568 -0.0226588 -3.57446e-17)
(-1.04596 -0.0234989 -3.57982e-17)
(-1.02543 -0.0243014 -3.58658e-17)
(-1.00409 -0.0250654 0)
(-0.98198 -0.0257904 0)
(-0.959109 -0.0264757 0)
(-0.935505 -0.0271215 1.81372e-17)
(-0.911191 -0.0277278 1.82062e-17)
(-0.886194 -0.0282956 0)
(-0.860535 -0.0288259 3.67256e-17)
(-0.834242 -0.0293167 3.69027e-17)
(-0.807346 -0.0297632 0)
(-0.779872 -0.0301667 3.73112e-17)
(-0.751849 -0.0305341 7.50628e-17)
(-0.723309 -0.0308641 -3.77674e-17)
(-0.69428 -0.0311537 -3.80169e-17)
(-0.664793 -0.0314037 0)
(-0.634879 -0.0316156 0)
(-0.60457 -0.0317904 0)
(-0.573896 -0.031929 -3.91688e-17)
(-0.542888 -0.0320328 3.94923e-17)
(-0.511576 -0.0321029 7.96652e-17)
(-0.47999 -0.0321411 -4.01879e-17)
(-0.448161 -0.0321491 4.05563e-17)
(-0.416116 -0.0321284 4.09424e-17)
(-0.383886 -0.0320805 0)
(-0.351495 -0.0320069 0)
(-0.318971 -0.0319091 -4.21864e-17)
(-0.28634 -0.0317888 0)
(-0.253626 -0.0316477 0)
(-0.220852 -0.0314875 8.71404e-17)
(-0.18804 -0.0313097 0)
(-0.155213 -0.0311159 4.4569e-17)
(-0.122391 -0.0309073 -4.50934e-17)
(-0.089592 -0.0306849 0)
(-0.0568363 -0.0304487 4.61858e-17)
(-0.0241429 -0.0301992 0)
(0.00846501 -0.0299327 0)
(0.0409734 -0.0296477 -4.64152e-17)
(0.0733915 -0.0293383 9.1636e-17)
(0.105717 -0.0289488 -4.52811e-17)
(0.137903 -0.0284555 0)
(0.169931 -0.0279264 0)
(0.201802 -0.0274082 4.40181e-17)
(0.233519 -0.026909 0)
(0.265084 -0.0264262 4.32882e-17)
(0.296499 -0.0259586 0)
(0.327766 -0.0255053 0)
(0.358885 -0.0250636 0)
(0.389853 -0.0246299 4.19855e-17)
(0.420666 -0.0242 0)
(0.451313 -0.0237681 -4.14008e-17)
(0.481776 -0.0233261 0)
(0.512024 -0.0228614 0)
(0.542005 -0.022353 8.12153e-17)
(0.57163 -0.0217653 -8.0741e-17)
(0.600764 -0.0210308 0)
(0.62909 -0.0200261 0)
(0.656361 -0.0184299 0)
(0.680835 -0.0156936 2.38594e-16)
(0.70439 -0.00972458 0)
(0.71483 0.00431855 -1.62749e-16)
(0.00138667 -0.0126783 -9.67614e-23)
(0.00518477 -0.0210281 -4.3198e-16)
(0.00810771 -0.0217163 0)
(0.00990875 -0.0195201 1.9732e-16)
(0.01078 -0.0162365 0)
(0.010838 -0.0125036 0)
(0.0101905 -0.00862906 9.59771e-24)
(0.00891583 -0.00479874 -5.89282e-17)
(0.007055 -0.00113319 -5.64043e-17)
(0.00462358 0.00229298 -5.46192e-17)
(0.00162338 0.00544263 0)
(-0.0019564 0.0083122 0)
(-0.00613253 0.0109238 5.03888e-17)
(-0.0109265 0.0133187 9.80175e-17)
(-0.0163636 0.0155534 -9.53803e-17)
(-0.0224716 0.0176933 0)
(-0.0292795 0.0198063 -9.02743e-17)
(-0.0368183 0.0219563 4.38888e-17)
(-0.0451215 0.0241985 0)
(-0.054225 0.0265769 -8.29225e-17)
(-0.0641667 0.0291241 -4.029e-17)
(-0.0749854 0.0318614 7.83002e-17)
(-0.0867202 0.0348 3.80404e-17)
(-0.0994065 0.0379429 0)
(-0.11307 0.041286 -7.1779e-17)
(-0.127725 0.0448174 -6.96581e-17)
(-0.143367 0.048517 0)
(-0.159977 0.0523562 -6.54082e-17)
(-0.177515 0.0562953 0)
(-0.195922 0.0602841 -6.11432e-17)
(-0.215125 0.0642646 -2.95097e-17)
(-0.235034 0.0681735 0)
(-0.25555 0.0719457 0)
(-0.276567 0.0755171 0)
(-0.297974 0.0788284 0)
(-0.319663 0.0818262 0)
(-0.341534 0.0844657 0)
(-0.363486 0.0867166 -4.52238e-17)
(-0.385434 0.0885651 6.5235e-17)
(-0.407314 0.0900075 0)
(-0.429075 0.0910517 0)
(-0.450675 0.0917147 0)
(-0.472084 0.09202 4.77922e-23)
(-0.493279 0.091998 -3.61012e-17)
(-0.514247 0.0916838 -6.97286e-17)
(-0.534981 0.0911146 6.7398e-17)
(-0.555479 0.0903277 3.26012e-17)
(-0.575743 0.0893588 -3.15668e-17)
(-0.595777 0.0882414 -4.79099e-23)
(-0.615586 0.0870057 -2.96719e-17)
(-0.635175 0.0856784 0)
(-0.654551 0.0842823 -2.79832e-17)
(-0.673719 0.0828364 -5.81035e-23)
(-0.692683 0.0813563 0)
(-0.711445 0.0798537 0)
(-0.730009 0.0783378 2.51163e-17)
(-0.748374 0.0768147 0)
(-0.76654 0.0752885 0)
(-0.784505 0.0737612 -2.33247e-17)
(-0.802265 0.0722333 -4.55671e-17)
(-0.819814 0.0707043 2.22674e-17)
(-0.837148 0.0691723 0)
(-0.854258 0.0676354 -2.13036e-17)
(-0.871136 0.0660905 0)
(-0.887771 0.0645349 -2.04222e-17)
(-0.904153 0.0629652 -2.00091e-17)
(-0.92027 0.0613786 3.92265e-17)
(-0.936108 0.0597718 1.92337e-17)
(-0.951654 0.0581422 0)
(-0.966892 0.056487 -3.70393e-17)
(-0.981806 0.054804 0)
(-0.996382 0.0530912 -5.3584e-17)
(-1.0106 0.0513469 -3.5103e-17)
(-1.02445 0.0495697 -3.45076e-17)
(-1.0379 0.0477587 3.39356e-17)
(-1.05094 0.0459136 -5.00789e-17)
(-1.06356 0.0440348 0)
(-1.07574 0.0421232 0)
(-1.08745 0.0401808 3.18643e-17)
(-1.09869 0.0382096 4.70954e-17)
(-1.10943 0.0362134 0)
(-1.11965 0.0341976 -1.52589e-17)
(-1.12935 0.0321691 0)
(-1.13848 0.0301323 4.45601e-17)
(-1.14703 0.028085 -6.75953e-23)
(-1.15496 0.0260233 5.97892e-23)
(-1.16226 0.0239452 -2.86024e-17)
(-1.16891 0.0218493 0)
(-1.17489 0.0197354 2.79353e-17)
(-1.18018 0.0176039 -2.54337e-23)
(-1.18477 0.0154559 0)
(-1.18865 0.0132935 0)
(-1.1918 0.0111204 0)
(-1.19422 0.00894206 -2.64893e-17)
(-1.1959 0.00676666 0)
(-1.19685 0.00460576 0)
(-1.19706 0.00247384 0)
(-1.19651 0.000378437 0)
(-1.19517 -0.00169614 0)
(-1.19299 -0.00376259 -2.50815e-17)
(-1.18995 -0.00581605 0)
(-1.18605 -0.00785325 -2.46798e-17)
(-1.18126 -0.00987205 -2.44937e-17)
(-1.17559 -0.01187 2.43172e-17)
(-1.16901 -0.0138443 0)
(-1.16153 -0.015792 2.39922e-17)
(-1.15315 -0.0177103 0)
(-1.14385 -0.0195961 2.37036e-17)
(-1.13365 -0.0214465 -2.35726e-17)
(-1.12254 -0.0232586 -7.03503e-17)
(-1.11052 -0.0250297 0)
(-1.09761 -0.0267569 -6.96919e-17)
(-1.08379 -0.0284377 -2.31331e-17)
(-1.06909 -0.0300696 0)
(-1.05351 -0.0316501 -4.59259e-17)
(-1.03706 -0.033177 -4.57794e-17)
(-1.01975 -0.0346482 6.84729e-17)
(-1.0016 -0.0360616 0)
(-0.982614 -0.0374153 2.27165e-17)
(-0.962817 -0.0387077 2.26739e-17)
(-0.942224 -0.0399372 6.79152e-17)
(-0.920854 -0.0411025 0)
(-0.898726 -0.0422026 0)
(-0.875864 -0.0432366 0)
(-0.852288 -0.0442043 2.25689e-17)
(-0.828024 -0.0451058 0)
(-0.803095 -0.0459421 0)
(-0.777525 -0.0467144 -2.25888e-17)
(-0.751342 -0.0474213 -2.26079e-17)
(-0.72457 -0.0480586 0)
(-0.697236 -0.0486261 0)
(-0.669369 -0.0491298 -4.5425e-17)
(-0.641 -0.0495705 0)
(-0.612156 -0.0499456 4.56233e-17)
(-0.582868 -0.0502557 4.57412e-17)
(-0.553164 -0.0505028 0)
(-0.523076 -0.0506886 0)
(-0.492634 -0.0508147 -4.61717e-17)
(-0.461866 -0.0508832 -7.80382e-22)
(-0.430802 -0.0508962 -7.84384e-22)
(-0.399472 -0.0508562 0)
(-0.367904 -0.0507657 -9.38241e-17)
(-0.336126 -0.0506273 0)
(-0.304167 -0.0504433 0)
(-0.272051 -0.0502161 0)
(-0.239805 -0.0499483 4.78296e-17)
(-0.207453 -0.0496424 0)
(-0.175019 -0.049301 -9.66989e-17)
(-0.142526 -0.0489267 -4.86253e-17)
(-0.109994 -0.0485217 0)
(-0.0774454 -0.0480884 -4.92035e-17)
(-0.0448986 -0.0476285 0)
(-0.012372 -0.0471443 0)
(0.0201153 -0.0466369 -1.49157e-16)
(0.0525482 -0.0461076 9.87086e-17)
(0.0849136 -0.0455555 0)
(0.117198 -0.0449821 9.73319e-17)
(0.149396 -0.0443892 -4.8349e-17)
(0.18151 -0.0437778 0)
(0.213532 -0.0431506 0)
(0.245449 -0.0425169 0)
(0.277252 -0.0418904 -1.42311e-16)
(0.308933 -0.0412761 0)
(0.340488 -0.0406733 -4.70924e-17)
(0.371916 -0.0400813 0)
(0.403214 -0.0394992 0)
(0.434381 -0.0389248 0)
(0.465414 -0.0383539 0)
(0.496306 -0.0377812 0)
(0.527046 -0.0371986 0)
(0.557618 -0.0365941 -9.22209e-17)
(0.587991 -0.0359482 0)
(0.618114 -0.0352293 -4.58895e-17)
(0.647905 -0.0343839 1.37378e-16)
(0.677243 -0.0333148 0)
(0.705873 -0.0318435 0)
(0.73361 -0.0295832 -9.12607e-17)
(0.759341 -0.0258273 -9.1361e-17)
(0.784749 -0.0187618 9.18453e-17)
(0.803103 -0.00408254 9.35541e-17)
(0.00115648 -0.018552 8.07787e-16)
(0.00319695 -0.0263971 5.59092e-16)
(0.00396047 -0.0245576 2.27597e-16)
(0.00371708 -0.0201985 8.03376e-17)
(0.002717 -0.0152016 0)
(0.00106135 -0.0100689 -1.10125e-16)
(-0.00117181 -0.00498918 4.95472e-17)
(-0.00393532 -6.16585e-05 0)
(-0.00721114 0.00465259 4.29714e-17)
(-0.0110036 0.00911882 0)
(-0.0153315 0.0133258 -7.87624e-17)
(-0.020223 0.017284 0)
(-0.0257111 0.021023 -3.70749e-17)
(-0.0318321 0.0245888 -7.22374e-17)
(-0.0386224 0.0280403 7.0435e-17)
(-0.0461169 0.0314429 0)
(-0.0543486 0.0348628 6.69678e-17)
(-0.0633466 0.0383613 0)
(-0.0731364 0.0419902 0)
(-0.0837392 0.045789 6.18896e-17)
(-0.0951705 0.0497835 0)
(-0.107439 0.0539847 6.50604e-23)
(-0.120546 0.0583893 0)
(-0.134481 0.0629804 0)
(-0.149225 0.0677293 -6.34005e-23)
(-0.164743 0.0725964 5.20732e-17)
(-0.180983 0.0775335 5.04626e-17)
(-0.197883 0.0824838 4.88573e-17)
(-0.215365 0.0873833 0)
(-0.23334 0.0921629 9.13597e-17)
(-0.251715 0.0967521 0)
(-0.270395 0.101082 4.25824e-17)
(-0.289284 0.105089 0)
(-0.308293 0.108719 0)