/*--------------------------------*- C++ -*----------------------------------*\
| =========                 |                                                 |
| \\      /  F ield         | OpenFOAM: The Open Source CFD Toolbox           |
|  \\    /   O peration     | Version:  2312                                  |
|   \\  /    A nd           | Website:  www.openfoam.com                      |
|    \\/     M anipulation  |                                                 |
\*---------------------------------------------------------------------------*/
FoamFile
{
    version     2.0;
    format      ascii;
    arch        "LSB;label=32;scalar=64";
    class       volVectorField;
    location    "2.375";
    object      diffU;
}
// * * * * * * * * * * * * * * * * * * * * * * * * * * * * * * * * * * * * * //

dimensions      [0 1 -1 0 0 0 0];

internalField   nonuniform List<vector> 
400
(
(0 0 0)
(-0.00150691 0.000727554 0)
(-0.00482512 0.00124377 0)
(-0.00884864 0.00174846 0)
(-0.0139445 0.00254972 0)
(-0.0210166 0.00368879 0)
(-0.031095 0.00532088 0)
(-0.0448183 0.00742149 0)
(-0.0614476 0.00895117 0)
(-0.0785843 0.00899748 0)
(-0.0931252 0.00730032 0)
(-0.102214 0.00431647 0)
(-0.104353 0.000663731 0)
(-0.0985702 -0.00322496 0)
(-0.0847185 -0.00711129 0)
(-0.0642646 -0.0101443 0)
(-0.0400291 -0.010932 0)
(-0.0154117 -0.00809129 0)
(0.00112286 -0.00224549 0)
(0.00312227 0.00219397 0)
(-0.00134628 0.00199781 0)
(-0.00610133 0.00534348 0)
(-0.0130879 0.00706226 0)
(-0.0209371 0.00832292 0)
(-0.0299001 0.0107071 0)
(-0.0415188 0.0148684 0)
(-0.0570701 0.020094 0)
(-0.0756727 0.024412 0)
(-0.0953058 0.026146 0)
(-0.113413 0.0240709 0)
(-0.12777 0.0180431 0)
(-0.136663 0.008994 0)
(-0.138882 -0.00189493 0)
(-0.134176 -0.0137145 0)
(-0.121842 -0.0252534 0)
(-0.101594 -0.0344309 0)
(-0.0747572 -0.0383127 0)
(-0.0435935 -0.0322029 0)
(-0.0119583 -0.0152992 0)
(0.00198488 0.00335309 0)
(-0.00294823 0.00721904 0)
(-0.00984319 0.0129172 0)
(-0.0186324 0.0158712 0)
(-0.0288568 0.0183691 0)
(-0.0408487 0.0231251 0)
(-0.0558421 0.0306232 0)
(-0.0738317 0.0386357 0)
(-0.0940124 0.0443129 0)
(-0.114116 0.0450507 0)
(-0.131329 0.0397664 0)
(-0.143721 0.0291201 0)
(-0.150471 0.0143674 0)
(-0.151932 -0.00285997 0)
(-0.148407 -0.0215301 0)
(-0.140528 -0.0409307 0)
(-0.126826 -0.0591514 0)
(-0.104969 -0.0712192 0)
(-0.073582 -0.0694017 0)
(-0.0353287 -0.0453711 0)
(-0.00236481 -0.00657251 0)
(-0.00411895 0.0143992 0)
(-0.0123961 0.0217479 0)
(-0.0220802 0.0259795 0)
(-0.0333605 0.030285 0)
(-0.0465728 0.0376277 0)
(-0.062667 0.0478294 0)
(-0.0814021 0.0579068 0)
(-0.100957 0.063841 0)
(-0.118453 0.06228 0)
(-0.131343 0.0525458 0)
(-0.138602 0.0363452 0)
(-0.141001 0.0165959 0)
(-0.139614 -0.00455339 0)
(-0.135961 -0.026338 0)
(-0.131057 -0.0488502 0)
(-0.125069 -0.0725681 0)
(-0.114393 -0.0948012 0)
(-0.0927321 -0.106018 0)
(-0.0568445 -0.088465 0)
(-0.0134977 -0.0288823 0)
(-0.00465753 0.022716 0)
(-0.0134732 0.0313209 0)
(-0.0231526 0.0365903 0)
(-0.0342869 0.0425836 0)
(-0.0472411 0.0522442 0)
(-0.0627416 0.064825 0)
(-0.0798757 0.0759819 0)
(-0.0963642 0.0804469 0)
(-0.109178 0.0749875 0)
(-0.116188 0.059965 0)
(-0.117282 0.0388747 0)
(-0.114069 0.0158379 0)
(-0.109203 -0.00672896 0)
(-0.104322 -0.0282268 0)
(-0.100313 -0.0499016 0)
(-0.0986349 -0.0740031 0)
(-0.0976807 -0.102105 0)
(-0.0900019 -0.128801 0)
(-0.0659818 -0.13205 0)
(-0.0263079 -0.0726911 0)
(-0.00452083 0.0312748 0)
(-0.0130447 0.0407887 0)
(-0.0219735 0.0468249 0)
(-0.0320266 0.0542202 0)
(-0.0434403 0.0657237 0)
(-0.0566054 0.079861 0)
(-0.0704377 0.0907541 0)
(-0.0826748 0.0925832 0)
(-0.0905717 0.0823174 0)
(-0.0929168 0.0618096 0)
(-0.0909407 0.0364378 0)
(-0.0871396 0.0110991 0)
(-0.0824988 -0.0122265 0)
(-0.0768803 -0.0335018 0)
(-0.0713476 -0.0531798 0)
(-0.067958 -0.0735263 0)
(-0.0688304 -0.0996152 0)
(-0.0703991 -0.134563 0)
(-0.059857 -0.162182 0)
(-0.0297576 -0.121177 0)
(-0.00384242 0.0392002 0)
(-0.0113767 0.0493901 0)
(-0.018977 0.0559044 0)
(-0.027164 0.0641539 0)
(-0.0360161 0.0766607 0)
(-0.0456757 0.0914231 0)
(-0.0553076 0.10127 0)
(-0.0632073 0.100273 0)
(-0.0675339 0.0858486 0)
(-0.0681528 0.0615279 0)
(-0.066941 0.033918 0)
(-0.0650823 0.00728977 0)
(-0.0617389 -0.0175539 0)
(-0.0566302 -0.0401669 0)
(-0.0505418 -0.0596477 0)
(-0.0453317 -0.0772166 0)
(-0.043566 -0.0980113 0)
(-0.0468429 -0.131319 0)
(-0.0451772 -0.175123 0)
(-0.0263619 -0.165809 0)
(-0.00283126 0.0457623 0)
(-0.00887733 0.0565334 0)
(-0.0146963 0.0631326 0)
(-0.020545 0.071547 0)
(-0.0262342 0.0841021 0)
(-0.0319 0.0987322 0)
(-0.0366804 0.107242 0)
(-0.040753 0.104632 0)
(-0.0428311 0.0878594 0)
(-0.0433398 0.0618011 0)
(-0.0436374 0.0332606 0)
(-0.0434025 0.00541441 0)
(-0.0413849 -0.0213643 0)
(-0.037424 -0.0458201 0)
(-0.0326085 -0.0658268 0)
(-0.0282783 -0.0821106 0)
(-0.0257736 -0.0994313 0)
(-0.0280065 -0.12753 0)
(-0.0297589 -0.17796 0)
(-0.0201023 -0.198513 0)
(-0.00165454 0.0504495 0)
(-0.00586179 0.0617556 0)
(-0.00968122 0.0681169 0)
(-0.0130724 0.0760778 0)
(-0.0154795 0.0878078 0)
(-0.0168936 0.10156 0)
(-0.0171773 0.108963 0)
(-0.0173326 0.106165 0)
(-0.0174315 0.0891872 0)
(-0.0177831 0.0630277 0)
(-0.0187796 0.0341319 0)
(-0.0194583 0.00512935 0)
(-0.0187205 -0.0234591 0)
(-0.0164782 -0.0494297 0)
(-0.0143626 -0.0696018 0)
(-0.0127626 -0.0848983 0)
(-0.0121443 -0.100261 0)
(-0.0148415 -0.124897 0)
(-0.0179986 -0.177012 0)
(-0.0145803 -0.21988 0)
(-0.0004611 0.0530413 0)
(-0.00268332 0.0648871 0)
(-0.00447248 0.0708089 0)
(-0.00553251 0.0777849 0)
(-0.00501837 0.0879081 0)
(-0.00256142 0.0999294 0)
(0.00125595 0.106999 0)
(0.00516412 0.104495 0)
(0.00767623 0.089338 0)
(0.00843295 0.0642588 0)
(0.00765309 0.0357323 0)
(0.00671793 0.00620508 0)
(0.00623614 -0.0233 0)
(0.00585079 -0.0498016 0)
(0.00422097 -0.0697844 0)
(0.00208915 -0.0843745 0)
(-0.000364202 -0.0984391 0)
(-0.00514956 -0.121181 0)
(-0.00980372 -0.173804 0)
(-0.011471 -0.233623 0)
(0.000634884 0.0535165 0)
(0.000328974 0.0659459 0)
(0.000406468 0.0713351 0)
(0.00136069 0.0769948 0)
(0.00417599 0.0849785 0)
(0.00959985 0.0946961 0)
(0.0167792 0.101112 0)
(0.0245706 0.099203 0)
(0.0303313 0.0868285 0)
(0.0335164 0.0644387 0)
(0.0339864 0.0373315 0)
(0.0331254 0.00828915 0)
(0.0311946 -0.0208156 0)
(0.0275422 -0.0465909 0)
(0.021785 -0.0659463 0)
(0.0156228 -0.0801268 0)
(0.00980846 -0.0934727 0)
(0.00230828 -0.114908 0)
(-0.00434397 -0.168598 0)
(-0.0101533 -0.242432 0)
(0.00152795 0.0520872 0)
(0.00291237 0.0651427 0)
(0.00460401 0.0700281 0)
(0.00716094 0.0742645 0)
(0.0115545 0.0798872 0)
(0.0187485 0.0868355 0)
(0.0281815 0.0918409 0)
(0.0386304 0.0903611 0)
(0.0476189 0.0804531 0)
(0.0537204 0.0619177 0)
(0.056197 0.0376928 0)
(0.0557098 0.0107733 0)
(0.0524238 -0.0161293 0)
(0.045733 -0.0399195 0)
(0.0364307 -0.0582714 0)
(0.0268662 -0.072342 0)
(0.0180486 -0.0854742 0)
(0.00799438 -0.106182 0)
(-0.000757358 -0.161117 0)
(-0.00998627 -0.248533 0)
(0.00213658 0.0491088 0)
(0.00489995 0.0627746 0)
(0.00792175 0.0672596 0)
(0.0116748 0.0701703 0)
(0.0170593 0.073556 0)
(0.024921 0.0776798 0)
(0.0352598 0.0806787 0)
(0.0468331 0.0791374 0)
(0.0575803 0.0711848 0)
(0.0657339 0.0562914 0)
(0.0700062 0.0359651 0)
(0.0700646 0.0128171 0)
(0.0660128 -0.0103721 0)
(0.0576766 -0.0310163 0)
(0.0465862 -0.0479432 0)
(0.0350562 -0.0618799 0)
(0.0241296 -0.07496 0)
(0.0120917 -0.0952258 0)
(0.00148157 -0.151811 0)
(-0.0105225 -0.253237 0)
(0.0023839 0.0451694 0)
(0.00616315 0.0592227 0)
(0.0102403 0.0633655 0)
(0.014911 0.0651578 0)
(0.0209146 0.0666861 0)
(0.0288209 0.0684077 0)
(0.0388849 0.0693312 0)
(0.0502404 0.067386 0)
(0.0611686 0.0608529 0)
(0.0699128 0.0491089 0)
(0.0749332 0.0330091 0)
(0.0754691 0.0145505 0)
(0.0715188 -0.00414435 0)
(0.0634306 -0.0213849 0)
(0.0524691 -0.0365555 0)
(0.0403645 -0.0499866 0)
(0.0283356 -0.0627611 0)
(0.0148588 -0.0825965 0)
(0.00288084 -0.140518 0)
(-0.0114376 -0.256901 0)
(0.0022299 0.040459 0)
(0.00652854 0.0546248 0)
(0.0114553 0.0584594 0)
(0.016934 0.0593923 0)
(0.0234115 0.0595618 0)
(0.0312125 0.0595317 0)
(0.0405216 0.0588325 0)
(0.0508275 0.0563497 0)
(0.0609508 0.0509375 0)
(0.0692695 0.0419676 0)
(0.0743487 0.0298915 0)
(0.075401 0.0159026 0)
(0.0723159 0.00143192 0)
(0.0654237 -0.0124709 0)
(0.0555201 -0.0254568 0)
(0.0439445 -0.0377615 0)
(0.0314114 -0.0497091 0)
(0.017119 -0.0692602 0)
(0.00499077 -0.126651 0)
(-0.0120035 -0.259365 0)
(0.00143835 0.0372875 0)
(0.00599893 0.0502616 0)
(0.0115768 0.053182 0)
(0.0177785 0.0531908 0)
(0.0247467 0.0523509 0)
(0.0325943 0.0511706 0)
(0.0413279 0.0494717 0)
(0.0505562 0.0466552 0)
(0.0595159 0.0421314 0)
(0.0670682 0.0354691 0)
(0.0720234 0.0267627 0)
(0.0736704 0.0166266 0)
(0.0716485 0.00589073 0)
(0.0661759 -0.00479412 0)
(0.0576731 -0.0152903 0)
(0.047126 -0.0259317 0)
(0.0341801 -0.0366928 0)
(0.0212469 -0.0570998 0)
(0.0103794 -0.110685 0)
(-0.0110703 -0.262133 0)
(-0.00021421 0.0301327 0)
(0.00328063 0.0417923 0)
(0.0095485 0.0449779 0)
(0.0167757 0.0452062 0)
(0.0245503 0.0442347 0)
(0.0328848 0.0426733 0)
(0.0416393 0.0406796 0)
(0.0504245 0.0380112 0)
(0.0586846 0.0343729 0)
(0.0656987 0.0295256 0)
(0.0706368 0.0234514 0)
(0.0729614 0.0164333 0)
(0.0720641 0.00898454 0)
(0.0679702 0.0013034 0)
(0.0607574 -0.00655482 0)
(0.0515028 -0.0151798 0)
(0.0380513 -0.0246805 0)
(0.0310881 -0.0478563 0)
(0.0185337 -0.0959021 0)
(-0.00722524 -0.26801 0)
(-0.00313264 0.0439719 0)
(-0.000655846 0.0491028 0)
(0.00628721 0.0463044 0)
(0.0142516 0.0423762 0)
(0.022964 0.0390223 0)
(0.0323017 0.0361859 0)
(0.0418764 0.0336134 0)
(0.0512308 0.030962 0)
(0.0598965 0.0279587 0)
(0.0673366 0.0244456 0)
(0.0730042 0.0204426 0)
(0.0762311 0.0161077 0)
(0.076835 0.011603 0)
(0.0746568 0.00704422 0)
(0.0693454 0.00224061 0)
(0.0624641 -0.00423627 0)
(0.0491152 -0.013515 0)
(0.0527399 -0.0388609 0)
(0.0225205 -0.0772567 0)
(0.00614853 -0.269464 0)
(-0.00722568 0.0137027 0)
(-0.0101374 0.00992107 0)
(0.00223668 0.0131383 0)
(0.0162671 0.0170175 0)
(0.0299528 0.0182681 0)
(0.0433415 0.0181349 0)
(0.0560288 0.017574 0)
(0.0677727 0.0168197 0)
(0.07842 0.0158232 0)
(0.0877841 0.0145144 0)
(0.0956485 0.0129258 0)
(0.10178 0.0111365 0)
(0.106057 0.00923044 0)
(0.108655 0.00715195 0)
(0.108788 0.0048523 0)
(0.108623 0.000925121 0)
(0.0977394 -0.00422756 0)
(0.108114 -0.0215119 0)
(0.0298096 -0.0427633 0)
(0.0724108 -0.227022 0)
(0.0401054 0.0935245 0)
(0.0599985 0.0694138 0)
(0.0858796 0.04335 0)
(0.108731 0.0288612 0)
(0.127078 0.0214168 0)
(0.14306 0.0171292 0)
(0.157928 0.0143312 0)
(0.171862 0.0123443 0)
(0.184767 0.0108348 0)
(0.196588 0.00962773 0)
(0.207245 0.00860878 0)
(0.216663 0.00770738 0)
(0.224693 0.00687554 0)
(0.231429 0.00604854 0)
(0.235949 0.00511392 0)
(0.240717 0.00383006 0)
(0.233376 0.00237851 0)
(0.253647 -0.00277609 0)
(0.127296 0.00356507 0)
(0.379287 -0.0982034 0)
)
;

boundaryField
{
    movingWall
    {
        type            calculated;
        value           uniform (0.999919 0.00027986 0);
    }
    fixedWalls
    {
        type            calculated;
        value           uniform (-8.05841e-05 0.00027986 0);
    }
    frontAndBack
    {
        type            empty;
    }
}


// ************************************************************************* //
