/*--------------------------------*- C++ -*----------------------------------*\
| =========                 |                                                 |
| \\      /  F ield         | OpenFOAM: The Open Source CFD Toolbox           |
|  \\    /   O peration     | Version:  2312                                  |
|   \\  /    A nd           | Website:  www.openfoam.com                      |
|    \\/     M anipulation  |                                                 |
\*---------------------------------------------------------------------------*/
FoamFile
{
    version     2.0;
    format      ascii;
    arch        "LSB;label=32;scalar=64";
    class       volScalarField;
    location    "2.375";
    object      divU;
}
// * * * * * * * * * * * * * * * * * * * * * * * * * * * * * * * * * * * * * //

dimensions      [0 0 -1 0 0 0 0];

internalField   nonuniform List<scalar> 
400
(
0.00923569
0.0686187
0.0404581
0.0392269
0.0529122
0.0847013
0.105346
0.092115
0.0771405
0.0831102
0.115411
0.152334
0.185274
0.213497
0.138128
-0.0445521
-0.0951437
0.0298123
0.0429489
0.0581034
-0.00674016
0.0448009
-0.0208306
-0.0191575
-0.000630687
-0.0235534
-0.0839073
-0.134429
-0.164121
-0.16954
-0.142975
-0.106144
-0.103682
-0.126489
-0.12368
-0.192215
-0.22872
0.148853
0.245278
0.104573
-0.0228818
0.0720178
-0.00962972
-0.0254098
-0.00648294
-0.00221429
-0.0357452
-0.0855427
-0.118272
-0.112996
-0.0839616
-0.0609403
-0.0594413
-0.12193
-0.201616
-0.257788
-0.324432
-0.41755
-0.194861
0.529699
-0.0857
0.0442448
-0.0245354
-0.0278133
-0.0187388
-0.06275
-0.0943973
-0.0916978
-0.0448911
0.00500619
0.00964141
0.0458431
0.117149
0.186046
0.192084
0.181148
0.145059
-0.185028
-0.744447
0.406241
-0.109399
0.0545698
0.00316893
-0.015326
-0.0358674
-0.0603023
-0.0775308
-0.056024
0.0213818
0.116036
0.221142
0.258161
0.207355
0.172699
0.135778
0.167355
0.381912
0.31546
-1.00232
-0.0166176
-0.0920095
0.0616585
0.0332169
0.0103394
-0.0162324
-0.0399195
-0.0781636
-0.0307916
0.0619093
0.119394
0.0820495
-0.0106261
-0.056567
-0.078881
-0.0823917
-0.0696224
0.165298
0.645509
-0.243175
-0.366411
-0.0570473
0.0610114
0.0520308
0.0287651
-0.0133224
-0.0420259
-0.104407
-0.017749
0.0596525
0.0584384
-0.0106795
-0.0482691
-0.0685762
-0.112116
-0.134848
-0.160857
-0.132737
0.542177
0.4703
-0.595776
-0.0298079
0.0500495
0.0544751
0.0385987
-0.0207819
-0.0309464
-0.116
-0.0258865
0.0751759
0.06935
0.0151216
0.00920897
0.00733475
-0.0486506
-0.0808397
-0.0846818
-0.197764
0.243713
0.601537
-0.437148
-0.00761574
0.0327041
0.0465677
0.0439659
-0.00152063
-0.0500622
-0.0681446
-0.0390824
0.102814
0.110964
0.0796492
0.0849751
0.104451
0.0376377
-0.0242118
-0.0045613
-0.108668
0.0494207
0.441743
-0.269219
0.00837313
0.0178889
0.0369029
0.0371087
0.0141762
-0.0589446
-0.0125359
-0.054161
0.0910162
0.138783
0.148462
0.174286
0.177643
0.0823661
-0.010615
0.0186367
-0.0450748
0.0549481
0.209306
-0.143868
0.0170931
0.00271317
0.0250903
0.0249167
0.021827
-0.0490775
-0.0187534
-0.0582152
0.00608562
0.131394
0.156961
0.17764
0.15875
0.0472476
-0.040638
0.00559787
-0.0349657
0.0846788
0.0225101
-0.0573924
0.0193799
-0.00952423
0.0173066
0.0125992
0.016511
-0.0389222
-0.0551196
-0.0628215
-0.0553656
0.0430778
0.0622889
0.075474
0.0466759
-0.0418493
-0.0863758
-0.0135236
-0.0359104
0.0876052
-0.11943
-0.0221777
0.0279909
-0.013481
0.0112377
0.00308344
0.00451048
-0.0227198
-0.0597643
-0.06546
-0.0699381
-0.0382848
-0.035299
-0.0216266
-0.0403136
-0.0891865
-0.0904519
-0.0101292
-0.0251381
0.0937543
-0.201466
0.0511774
0.00584448
-0.0293479
-0.00523806
-0.0103609
-0.00842641
-0.0177864
-0.0426816
-0.0503917
-0.057491
-0.0559207
-0.0517325
-0.0328885
-0.0234485
-0.0504289
-0.0579685
-0.00150797
-0.0254825
0.0510826
-0.11366
0.226713
0.103766
0.026427
0.0221987
-0.0010761
-0.00567239
-0.0127051
-0.0244491
-0.0301571
-0.0279482
-0.0241882
-0.011487
0.00432285
0.00578165
-0.0204986
-0.0213991
-0.00537677
-0.0757125
-0.0923919
0.071041
0.161904
-0.272794
-0.269404
-0.17019
-0.101622
-0.0511298
-0.0277166
-0.0191034
-0.0150549
-0.00525417
0.00654774
0.016214
0.0155815
0.00581192
-0.020107
-0.0147969
-0.0911329
-0.0850542
-0.239687
-0.156781
-0.811521
0.991201
0.860389
0.661744
0.41872
0.278051
0.210437
0.168138
0.135198
0.110151
0.0928757
0.0942591
0.0908431
0.0721005
0.0531683
0.106354
-0.101071
0.276304
-0.127873
-0.488512
-1.88002
-2.00573
-2.24514
-1.69322
-1.15119
-0.791649
-0.562606
-0.417645
-0.317138
-0.244384
-0.190353
-0.163106
-0.14659
-0.132832
-0.164108
-0.0785647
-0.412528
1.07288
-0.0250237
0.654739
1.21581
3.23507
2.97734
2.34501
1.42011
0.946891
0.701928
0.514907
0.377343
0.288745
0.24106
0.216213
0.200802
0.21474
0.173541
0.284161
-0.298224
1.53839
-3.1845
4.51189
6.88789
-0.640236
-3.30009
-0.719577
-0.412075
-0.479673
-0.385465
-0.254323
-0.17644
-0.137251
-0.110466
-0.0899586
-0.0836707
-0.0780925
-0.138427
-0.0117702
-0.676846
1.53384
-8.12329
16.5398
-18.0959
)
;

boundaryField
{
    movingWall
    {
        type            extrapolatedCalculated;
        value           nonuniform List<scalar> 
20
(
-0.640236
-3.30009
-0.719577
-0.412075
-0.479673
-0.385465
-0.254323
-0.17644
-0.137251
-0.110466
-0.0899586
-0.0836707
-0.0780925
-0.138427
-0.0117702
-0.676846
1.53384
-8.12329
16.5398
-18.0959
)
;
    }
    fixedWalls
    {
        type            extrapolatedCalculated;
        value           nonuniform List<scalar> 
60
(
0.00923569
-0.00674016
-0.0228818
-0.0857
-0.109399
-0.0920095
-0.0570473
-0.0298079
-0.00761574
0.00837313
0.0170931
0.0193799
0.0279909
0.00584448
0.103766
-0.272794
0.991201
-2.00573
3.23507
-0.640236
0.0581034
0.104573
0.529699
0.406241
-0.0166176
-0.366411
-0.595776
-0.437148
-0.269219
-0.143868
-0.0573924
-0.0221777
0.0511774
0.226713
0.161904
-0.811521
-1.88002
1.21581
6.88789
-18.0959
0.00923569
0.0686187
0.0404581
0.0392269
0.0529122
0.0847013
0.105346
0.092115
0.0771405
0.0831102
0.115411
0.152334
0.185274
0.213497
0.138128
-0.0445521
-0.0951437
0.0298123
0.0429489
0.0581034
)
;
    }
    frontAndBack
    {
        type            empty;
    }
}


// ************************************************************************* //
