/*--------------------------------*- C++ -*----------------------------------*\
| =========                 |                                                 |
| \\      /  F ield         | OpenFOAM: The Open Source CFD Toolbox           |
|  \\    /   O peration     | Version:  2312                                  |
|   \\  /    A nd           | Website:  www.openfoam.com                      |
|    \\/     M anipulation  |                                                 |
\*---------------------------------------------------------------------------*/
FoamFile
{
    version     2.0;
    format      ascii;
    arch        "LSB;label=32;scalar=64";
    class       volScalarField;
    location    "2.375";
    object      enstrophyField;
}
// * * * * * * * * * * * * * * * * * * * * * * * * * * * * * * * * * * * * * //

dimensions      [0 0 -2 0 0 0 0];

internalField   nonuniform List<scalar> 
400
(
0.00915228
0.377654
1.76208
4.78349
10.4077
21.2196
42.078
76.8306
125.086
180.853
233.395
269.304
277.378
252.698
198.962
131.02
68.069
22.8018
2.1965
0.108442
0.473345
0.897898
1.40898
2.79731
5.59439
9.77369
13.6661
15.2606
13.6909
9.96453
6.30796
4.00985
3.0929
3.50549
6.15766
12.2524
22.5575
32.954
25.9254
1.61873
2.49743
1.11707
1.04317
1.93598
4.1838
6.71933
7.22829
5.0243
1.72994
0.0199753
1.06105
3.82041
6.1833
6.58346
4.03473
0.232094
4.31763
28.115
58.013
23.1104
6.95522
1.15677
0.852471
1.45834
2.86486
3.69338
2.43225
0.22613
1.3176
8.43632
19.4621
29.877
36.6907
39.0565
37.3642
27.4854
8.29809
2.58919
58.0926
100.607
14.5147
1.05456
0.6223
1.02532
1.82574
1.56222
0.108457
1.858
11.695
27.7802
42.1252
49.4666
51.1866
52.2783
55.6358
59.7484
50.3614
13.6648
17.4773
245.446
24.9845
0.904983
0.428365
0.693362
1.03907
0.317169
0.701627
8.65018
26.2217
44.0996
51.0568
47.6785
42.38
39.2899
40.316
49.7389
66.2989
55.8899
0.275198
403.203
37.2739
0.785873
0.280235
0.430094
0.506337
4.64612e-05
3.10189
16.441
37.3988
51.519
51.5533
45.3237
39.2237
33.2521
28.7197
30.4538
47.1998
71.4067
20.8578
550.577
49.5491
0.702758
0.163462
0.236525
0.221024
0.159193
5.194
21.2923
43.1831
55.0921
54.6515
50.2493
44.4181
35.7981
26.2593
21.8948
29.5225
61.0848
48.1785
667.042
59.7054
0.658186
0.0839827
0.109439
0.0910015
0.334861
5.55486
21.5776
43.8465
57.0612
59.6111
58.0089
52.2039
39.9774
26.1351
18.621
21.391
49.6092
66.0543
755.908
66.2162
0.670114
0.0394827
0.0355423
0.0309767
0.273975
4.31901
17.7396
38.7195
55.0255
61.405
62.2906
56.0971
40.9556
25.0069
16.2679
17.2634
42.7948
79.501
814.301
68.344
0.746994
0.019451
0.00451181
0.00636735
0.133984
2.51296
11.4001
27.9057
44.9205
54.8036
57.3937
51.0734
36.136
21.6124
13.6782
14.1479
38.9569
93.2582
840.93
66.3189
0.89377
0.0129055
0.00103497
0.000487864
0.0566985
1.11826
5.66171
15.5082
28.1084
37.9881
41.188
36.5606
26.1194
16.3728
10.8747
11.5975
36.4885
109.781
842.876
61.0156
1.11005
0.0154788
0.0105649
0.0171253
0.0435046
0.427423
2.22687
6.62319
13.216
19.3507
21.8438
19.7999
15.2732
10.999
8.2074
9.51912
35.0415
130.652
828.485
53.8089
1.37242
0.0288392
0.0187913
0.0481211
0.0664845
0.197413
0.777851
2.34309
4.92333
7.56643
9.02692
8.92043
8.06347
7.04463
6.15785
7.95674
34.2661
158.088
797.839
45.5723
1.64975
0.0588598
0.0155765
0.0681809
0.101375
0.158205
0.337089
0.81019
1.65646
2.68083
3.554
4.06214
4.39088
4.64962
4.80926
6.97253
34.7198
195.236
745.787
39.9917
1.83217
0.116934
0.00226293
0.0499009
0.103582
0.158655
0.240622
0.397818
0.695948
1.14468
1.69878
2.24062
2.81495
3.47818
4.19366
7.14723
38.6859
238.878
679.328
28.8315
2.31125
0.378755
0.0387445
0.0028133
0.0532184
0.135751
0.243695
0.393059
0.626062
0.990264
1.44967
2.06379
2.88486
3.96367
5.59911
11.3343
52.7515
269.805
602.924
49.5275
1.24041
0.00171263
0.229398
0.671961
1.25859
1.92342
2.64568
3.44577
4.38124
5.56097
7.09069
9.26918
12.5236
17.589
26.5545
44.4744
99.077
292.527
358.167
2.03495
18.7387
26.2783
39.9171
53.0415
62.108
68.8744
74.8869
80.8689
87.3166
94.6948
103.864
115.28
129.847
149.352
175.469
213.62
286.665
481.384
52.8331
16282.6
20003
19056.9
17988.7
17196.6
16571.5
16032.4
15553.2
15127
14752.3
14430.7
14164.6
13957
13803.2
13733.6
13665.9
14033.6
13397.1
18782.3
10555.2
)
;

boundaryField
{
    movingWall
    {
        type            calculated;
        value           nonuniform List<scalar> 
20
(
67597.1
72575.1
68328.4
64321.6
61358.5
58979.8
56877.3
54970.2
53246.4
51698.9
50327.5
49133.5
48129.6
47300.4
46759.9
46194.1
47209.9
44518.4
64294.2
28496.7
)
;
    }
    fixedWalls
    {
        type            calculated;
        value           nonuniform List<scalar> 
60
(
2.15625e-05
0.482167
4.66022
16.9285
40.6317
75.8478
118.567
161.536
196.631
217.896
222.515
211.619
189.073
161.038
130.673
113.213
76.8579
165.219
0.546365
12703.9
0.835246
0.231596
9.19865
98.8301
474.763
1180.4
2143.15
3068.49
3802
4335.51
4698.34
4956.29
5156.38
5306.59
5389.43
5458.81
5575.06
4993.39
1436.84
6660.98
0.000119354
0.241447
1.99981
6.61686
16.4715
37.4245
81.6519
166.68
305.154
487.857
675.272
807.605
838.642
745.689
549.9
319.831
130.973
24.5076
0.149686
0.744224
)
;
    }
    frontAndBack
    {
        type            empty;
    }
}


// ************************************************************************* //
