/*--------------------------------*- C++ -*----------------------------------*\
| =========                 |                                                 |
| \\      /  F ield         | OpenFOAM: The Open Source CFD Toolbox           |
|  \\    /   O peration     | Version:  2312                                  |
|   \\  /    A nd           | Website:  www.openfoam.com                      |
|    \\/     M anipulation  |                                                 |
\*---------------------------------------------------------------------------*/
FoamFile
{
    version     2.0;
    format      ascii;
    arch        "LSB;label=32;scalar=64";
    class       volScalarField;
    location    "2.375";
    object      flowTypeField;
}
// * * * * * * * * * * * * * * * * * * * * * * * * * * * * * * * * * * * * * //

dimensions      [0 0 0 0 0 0 0];

internalField   nonuniform List<scalar> 
400
(
0.373385
0.162947
0.0910351
0.0458047
0.0314895
0.0301795
0.0295079
0.0313165
0.0342852
0.0346965
0.0324784
0.0301852
0.0311563
0.0393368
0.0571582
0.0847262
0.123928
0.174745
0.272271
0.408785
0.213226
0.286413
0.303127
0.222913
0.157087
0.149755
0.179768
0.221282
0.269373
0.325716
0.383256
0.432088
0.478719
0.508618
0.48551
0.42371
0.331898
0.227503
0.104105
0.0500211
0.148585
0.365714
0.450164
0.386597
0.303083
0.287095
0.337295
0.44201
0.616905
0.942263
0.563044
0.178032
0.0245561
0.123944
0.392445
0.86106
0.60811
0.31948
0.149242
0.075932
0.109907
0.41986
0.524622
0.483896
0.426096
0.442475
0.551496
0.831756
0.577761
0.008324
-0.485339
-0.874922
-0.810072
-0.703743
-0.611475
-0.343618
0.253711
0.675268
0.230769
0.0772475
0.0819724
0.465329
0.589385
0.561138
0.528713
0.602252
0.87784
0.517136
-0.087969
-0.618686
-0.90386
-0.721401
-0.644607
-0.637098
-0.71942
-0.890915
-0.713891
0.0753995
0.428151
0.087589
0.0609849
0.493488
0.639895
0.620549
0.619294
0.790729
0.685444
0.0609104
-0.506126
-0.935472
-0.807345
-0.703546
-0.624434
-0.572942
-0.619819
-0.834943
-0.84518
-0.636794
0.848407
0.0861699
0.044913
0.496643
0.677478
0.671086
0.703357
0.996913
0.372922
-0.229455
-0.724273
-0.951953
-0.831618
-0.753834
-0.651178
-0.549799
-0.518332
-0.665073
-0.792393
-0.535137
-0.273752
0.0694733
0.0332477
0.47529
0.712667
0.719653
0.776177
0.81649
0.186933
-0.383159
-0.816109
-0.911383
-0.854028
-0.818182
-0.734176
-0.640325
-0.582535
-0.638939
-0.6851
-0.396732
-0.368596
0.048452
0.0253123
0.432265
0.750174
0.774057
0.834589
0.721467
0.121458
-0.430629
-0.848271
-0.908071
-0.865986
-0.868925
-0.845289
-0.820309
-0.805314
-0.862883
-0.627947
-0.286355
-0.208622
0.0285422
0.0201445
0.372543
0.788602
0.844241
0.888608
0.730068
0.171435
-0.365215
-0.806212
-0.943497
-0.875283
-0.864721
-0.871846
-0.885313
-0.806313
-0.71801
-0.483928
-0.202359
-0.115905
0.0136406
0.0168028
0.314134
0.822155
0.932816
0.942225
0.795361
0.32023
-0.17267
-0.601874
-0.854381
-0.856142
-0.800362
-0.733825
-0.619118
-0.473802
-0.367957
-0.264174
-0.126106
-0.0599674
0.00485787
0.0143205
0.272044
0.841017
0.963431
0.981958
0.855721
0.508774
0.0981821
-0.288366
-0.582589
-0.697964
-0.656383
-0.535482
-0.36302
-0.206195
-0.109325
-0.0662675
-0.0565216
-0.025215
-0.000220157
0.0116172
0.24161
0.828165
0.881235
0.88858
0.864111
0.66565
0.364854
0.042338
-0.238567
-0.405216
-0.40949
-0.288742
-0.126477
-0.00153793
0.0720508
0.07949
0.00100622
-0.00412887
-0.00312293
0.0077774
0.211988
0.785006
0.845179
0.809748
0.821488
0.74744
0.568187
0.326288
0.0842131
-0.0914677
-0.13358
-0.0523767
0.0564808
0.138657
0.18726
0.174234
0.0365903
0.00159502
-0.00337804
-0.00204185
0.167507
0.724493
0.864309
0.773319
0.768999
0.750593
0.671986
0.5215
0.329384
0.152806
0.0677508
0.0968342
0.163307
0.21531
0.245913
0.223109
0.024992
-0.0146717
0.00119834
-0.0168612
0.158622
0.679469
0.952059
0.810372
0.760535
0.73117
0.686637
0.600253
0.452812
0.265236
0.117265
0.109669
0.169702
0.218791
0.248542
0.19833
-0.0783473
-0.0403667
0.0130595
-0.0579734
-0.142504
0.423723
0.809882
0.951025
0.816893
0.732124
0.652914
0.550254
0.387399
0.12849
-0.169234
-0.162811
0.00379399
0.0991512
0.141561
-0.00491851
-0.304003
-0.0269774
0.0478768
-0.0572219
0.508104
0.977597
0.747931
0.588344
0.470874
0.375747
0.28165
0.172171
0.0346456
-0.130544
-0.262166
-0.26474
-0.189747
-0.151746
-0.13791
-0.397419
-0.441194
-0.00176685
0.235742
0.662829
0.0519899
0.131669
0.0978716
0.0538261
0.0334446
0.0229869
0.0138177
0.00362024
-0.00674981
-0.0155464
-0.0215782
-0.0252741
-0.0277451
-0.0372148
-0.0476977
-0.117054
-0.101178
-0.318152
0.744747
0.0848889
-0.0245842
-0.0204283
-0.0111531
-0.00596267
-0.00357709
-0.00239389
-0.00173721
-0.00134938
-0.0011169
-0.000984994
-0.000917663
-0.000911203
-0.00100927
-0.00130841
-0.00165286
-0.0039275
0.00292337
-0.0489649
0.120495
)
;

boundaryField
{
    movingWall
    {
        type            calculated;
        value           nonuniform List<scalar> 
20
(
0.0468999
-0.0105072
-0.00986866
-0.00556522
-0.00301666
-0.00183261
-0.00124448
-0.000916384
-0.00072039
-0.000600478
-0.000530328
-0.000492689
-0.000487377
-0.000538163
-0.000701299
-0.000889437
-0.00214183
0.00103599
-0.0266484
0.0674869
)
;
    }
    fixedWalls
    {
        type            calculated;
        value           nonuniform List<scalar> 
60
(
0.958606
0.14207
0.0620385
0.0417671
0.0316096
0.0247442
0.0195078
0.0156509
0.0129313
0.0109768
0.00943906
0.00794356
0.00602063
0.00317023
-0.00301007
-0.013148
-0.0365827
-0.0327931
0.847069
0.192874
0.204959
0.566921
0.0650606
0.0389285
0.047889
0.043962
0.0325993
0.021883
0.0126903
0.00618982
0.00250351
0.00047962
-0.000547973
-0.000446022
0.0014177
0.00545322
0.0164107
0.0746579
0.436903
0.4349
0.884619
0.102547
0.0349482
0.00965932
0.0023102
0.00106215
0.00143399
0.00648515
0.0125379
0.0161516
0.0172739
0.017364
0.0181245
0.0215316
0.0288806
0.0409618
0.0627417
0.133868
0.718863
0.200959
)
;
    }
    frontAndBack
    {
        type            empty;
    }
}


// ************************************************************************* //
