/*--------------------------------*- C++ -*----------------------------------*\
| =========                 |                                                 |
| \\      /  F ield         | OpenFOAM: The Open Source CFD Toolbox           |
|  \\    /   O peration     | Version:  2312                                  |
|   \\  /    A nd           | Website:  www.openfoam.com                      |
|    \\/     M anipulation  |                                                 |
\*---------------------------------------------------------------------------*/
FoamFile
{
    version     2.0;
    format      ascii;
    arch        "LSB;label=32;scalar=64";
    class       surfaceScalarField;
    location    "2.375";
    object      fluxField;
}
// * * * * * * * * * * * * * * * * * * * * * * * * * * * * * * * * * * * * * //

dimensions      [0 3 -1 0 0 0 0];

oriented        oriented;

internalField   nonuniform List<scalar> 
760
(
-3.36435e-08
3.59524e-08
-1.54272e-07
1.37783e-07
-3.37815e-07
1.93658e-07
-5.658e-07
2.37792e-07
-8.69999e-07
3.17428e-07
-1.29876e-06
4.49938e-07
-1.8938e-06
6.21379e-07
-2.65262e-06
7.81843e-07
-3.49677e-06
8.63435e-07
-4.28871e-06
8.12718e-07
-4.87945e-06
6.19592e-07
-5.16013e-06
3.18769e-07
-5.06904e-06
-4.47731e-08
-4.57819e-06
-4.37479e-07
-3.72055e-06
-8.2311e-07
-2.60331e-06
-1.12837e-06
-1.38199e-06
-1.24511e-06
-3.53191e-07
-1.02135e-06
1.10158e-07
-4.52611e-07
1.24683e-07
-1.82161e-07
2.16428e-07
-4.75702e-07
4.42524e-07
-8.46596e-07
5.59345e-07
-1.2669e-06
6.53308e-07
-1.78144e-06
8.31813e-07
-2.46069e-06
1.1233e-06
-3.31454e-06
1.45425e-06
-4.27043e-06
1.70413e-06
-5.21395e-06
1.76592e-06
-6.02556e-06
1.58194e-06
-6.6068e-06
1.16509e-06
-6.88461e-06
5.70041e-07
-6.82243e-06
-1.32866e-07
-6.39643e-06
-8.95108e-07
-5.58186e-06
-1.66859e-06
-4.40474e-06
-2.35355e-06
-2.95474e-06
-2.75229e-06
-1.38477e-06
-2.55411e-06
-2.45305e-07
-1.53075e-06
-9.44787e-08
-3.15756e-07
5.26464e-07
-7.07862e-07
8.52634e-07
-1.1832e-06
1.03228e-06
-1.73861e-06
1.20236e-06
-2.41324e-06
1.50483e-06
-3.23782e-06
1.94732e-06
-4.19207e-06
2.39957e-06
-5.19919e-06
2.68986e-06
-6.13211e-06
2.66928e-06
-6.87223e-06
2.29381e-06
-7.35077e-06
1.62264e-06
-7.55605e-06
7.60089e-07
-7.50445e-06
-1.99327e-07
-7.21935e-06
-1.2107e-06
-6.67983e-06
-2.25852e-06
-5.79085e-06
-3.30698e-06
-4.45974e-06
-4.1645e-06
-2.71874e-06
-4.3995e-06
-9.38309e-07
-3.3599e-06
-9.00363e-07
-4.08848e-07
9.13887e-07
-8.57878e-07
1.31273e-06
-1.38199e-06
1.55025e-06
-1.9943e-06
1.80772e-06
-2.72697e-06
2.2328e-06
-3.5977e-06
2.80237e-06
-4.55495e-06
3.33323e-06
-5.48123e-06
3.5932e-06
-6.24087e-06
3.41769e-06
-6.74458e-06
2.79878e-06
-6.98604e-06
1.86651e-06
-7.01134e-06
7.96852e-07
-6.88533e-06
-2.96052e-07
-6.6714e-06
-1.37811e-06
-6.39911e-06
-2.48279e-06
-5.98253e-06
-3.67827e-06
-5.17411e-06
-4.93666e-06
-3.73539e-06
-5.88448e-06
-1.75452e-06
-5.52687e-06
-2.55333e-06
-4.4924e-07
1.33578e-06
-9.11617e-07
1.78875e-06
-1.43196e-06
2.07139e-06
-2.03417e-06
2.4061e-06
-2.74554e-06
2.93521e-06
-3.5614e-06
3.60316e-06
-4.40197e-06
4.15441e-06
-5.13453e-06
4.31176e-06
-5.63012e-06
3.91863e-06
-5.83271e-06
3.03037e-06
-5.77974e-06
1.86882e-06
-5.57778e-06
6.59433e-07
-5.33411e-06
-4.8788e-07
-5.11184e-06
-1.55721e-06
-4.96966e-06
-2.59103e-06
-4.90386e-06
-3.70223e-06
-4.68804e-06
-5.057e-06
-3.89556e-06
-6.59808e-06
-2.30321e-06
-7.3698e-06
-4.8607e-06
-4.35108e-07
1.74788e-06
-8.71425e-07
2.24048e-06
-1.34597e-06
2.55424e-06
-1.88265e-06
2.94536e-06
-2.49711e-06
3.54562e-06
-3.17205e-06
4.26811e-06
-3.82378e-06
4.7866e-06
-4.32713e-06
4.80741e-06
-4.58318e-06
4.19016e-06
-4.59241e-06
3.06945e-06
-4.44798e-06
1.7449e-06
-4.23693e-06
4.45729e-07
-3.98045e-06
-7.58504e-07
-3.70167e-06
-1.85571e-06
-3.47861e-06
-2.83468e-06
-3.41568e-06
-3.78257e-06
-3.47671e-06
-4.95465e-06
-3.25237e-06
-6.66104e-06
-2.23634e-06
-8.44663e-06
-7.18864e-06
-3.76448e-07
2.11007e-06
-7.54813e-07
2.6341e-06
-1.1495e-06
2.96193e-06
-1.57547e-06
3.37853e-06
-2.03827e-06
4.00508e-06
-2.52055e-06
4.73989e-06
-2.95884e-06
5.19879e-06
-3.2645e-06
5.10863e-06
-3.38814e-06
4.32871e-06
-3.37332e-06
3.06923e-06
-3.29655e-06
1.66547e-06
-3.1665e-06
3.03612e-07
-2.9552e-06
-9.8695e-07
-2.67527e-06
-2.16367e-06
-2.39281e-06
-3.15086e-06
-2.21841e-06
-3.99717e-06
-2.25619e-06
-4.95006e-06
-2.29648e-06
-6.48522e-06
-1.78445e-06
-8.84108e-06
-9.12203e-06
-2.88686e-07
2.3913e-06
-5.85311e-07
2.94323e-06
-8.77003e-07
3.26724e-06
-1.16545e-06
3.67663e-06
-1.44933e-06
4.28375e-06
-1.71048e-06
4.99331e-06
-1.93181e-06
5.39112e-06
-2.08557e-06
5.25593e-06
-2.15024e-06
4.41217e-06
-2.1704e-06
3.10673e-06
-2.17197e-06
1.67082e-06
-2.11566e-06
2.49601e-07
-1.96619e-06
-1.13458e-06
-1.74678e-06
-2.39524e-06
-1.51814e-06
-3.39971e-06
-1.34727e-06
-4.18922e-06
-1.34047e-06
-5.00629e-06
-1.44011e-06
-6.32466e-06
-1.2425e-06
-8.8883e-06
-1.04738e-05
-1.83879e-07
2.57328e-06
-3.84546e-07
3.15208e-06
-5.64811e-07
3.45915e-06
-7.09768e-07
3.83257e-06
-8.05298e-07
4.3789e-06
-8.47744e-07
5.02324e-06
-8.58719e-07
5.38505e-06
-8.65074e-07
5.25252e-06
-8.76334e-07
4.44914e-06
-9.10036e-07
3.16817e-06
-9.51917e-07
1.73261e-06
-9.5044e-07
2.69368e-07
-8.75937e-07
-1.18297e-06
-7.66989e-07
-2.49478e-06
-6.74101e-07
-3.49865e-06
-6.18645e-07
-4.24581e-06
-6.70617e-07
-4.98149e-06
-8.16974e-07
-6.16595e-06
-8.10444e-07
-8.7844e-06
-1.13516e-05
-7.45813e-08
2.64995e-06
-1.74866e-07
3.25683e-06
-2.46096e-07
3.53961e-06
-2.59743e-07
3.8555e-06
-1.85465e-07
4.30817e-06
-2.86074e-08
4.85164e-06
1.64531e-07
5.18878e-06
3.25038e-07
5.07847e-06
4.06759e-07
4.39017e-06
4.0618e-07
3.20344e-06
3.63305e-07
1.8126e-06
3.27881e-07
3.48363e-07
3.06202e-07
-1.11688e-06
2.55823e-07
-2.42381e-06
1.61782e-07
-3.40726e-06
4.71528e-08
-4.12653e-06
-1.33815e-07
-4.81179e-06
-3.69803e-07
-5.91622e-06
-5.27839e-07
-8.57403e-06
-1.19154e-05
2.81256e-08
2.6261e-06
2.24152e-08
3.26322e-06
4.82082e-08
3.52009e-06
1.42446e-07
3.76749e-06
3.48425e-07
4.10765e-06
6.63505e-07
4.5243e-06
1.03777e-06
4.80983e-06
1.37658e-06
4.72511e-06
1.60022e-06
4.16805e-06
1.6916e-06
3.14492e-06
1.68182e-06
1.86161e-06
1.61203e-06
4.62567e-07
1.47245e-06
-9.37614e-07
1.23721e-06
-2.17675e-06
9.39224e-07
-3.11944e-06
6.39811e-07
-3.82571e-06
3.06948e-07
-4.48767e-06
-4.68633e-08
-5.54124e-06
-3.58402e-07
-8.25687e-06
-1.22881e-05
1.15037e-07
2.51591e-06
1.91939e-07
3.18394e-06
2.98153e-07
3.4182e-06
4.71914e-07
3.59688e-06
7.61603e-07
3.82209e-06
1.17728e-06
4.09889e-06
1.67433e-06
4.299e-06
2.16026e-06
4.22347e-06
2.53751e-06
3.77696e-06
2.75196e-06
2.94124e-06
2.8017e-06
1.82745e-06
2.70737e-06
5.75765e-07
2.45795e-06
-6.76526e-07
2.05812e-06
-1.78739e-06
1.58645e-06
-2.66936e-06
1.1269e-06
-3.36954e-06
6.55104e-07
-4.02485e-06
1.84955e-07
-5.04919e-06
-2.64562e-07
-7.83721e-06
-1.25582e-05
1.79942e-07
2.34296e-06
3.24572e-07
3.03594e-06
4.93944e-07
3.25164e-06
7.22382e-07
3.36921e-06
1.05354e-06
3.49206e-06
1.50855e-06
3.6382e-06
2.05635e-06
3.73625e-06
2.61436e-06
3.64909e-06
3.08689e-06
3.28695e-06
3.39753e-06
2.62102e-06
3.5058e-06
1.71036e-06
3.40596e-06
6.70196e-07
3.09626e-06
-3.76904e-07
2.6106e-06
-1.32402e-06
2.04509e-06
-2.12646e-06
1.48367e-06
-2.81066e-06
9.09561e-07
-3.45702e-06
3.43361e-07
-4.45955e-06
-2.21993e-07
-7.32222e-06
-1.27674e-05
2.17705e-07
2.12672e-06
4.14114e-07
2.83219e-06
6.3281e-07
3.03163e-06
8.9967e-07
3.09976e-06
1.24742e-06
3.14221e-06
1.69667e-06
3.18449e-06
2.23216e-06
3.1901e-06
2.78925e-06
3.0794e-06
3.28106e-06
2.78077e-06
3.62518e-06
2.26292e-06
3.76409e-06
1.55852e-06
3.67873e-06
7.47333e-07
3.37777e-06
-8.18036e-08
2.90152e-06
-8.60387e-07
2.32487e-06
-1.5643e-06
1.72153e-06
-2.2077e-06
1.08389e-06
-2.82575e-06
4.4752e-07
-3.81041e-06
-2.09891e-07
-6.69322e-06
-1.29206e-05
2.2299e-07
1.92967e-06
4.53624e-07
2.60817e-06
7.13762e-07
2.77704e-06
1.01267e-06
2.80059e-06
1.36963e-06
2.78383e-06
1.79738e-06
2.75356e-06
2.28776e-06
2.69361e-06
2.79849e-06
2.56113e-06
3.25954e-06
2.31273e-06
3.59449e-06
1.92193e-06
3.74777e-06
1.40236e-06
3.69695e-06
7.99235e-07
3.44752e-06
1.69073e-07
3.02763e-06
-4.45618e-07
2.49064e-06
-1.03267e-06
1.88793e-06
-1.60632e-06
1.21729e-06
-2.17404e-06
5.56774e-07
-3.17299e-06
-1.7129e-07
-5.9474e-06
-1.30515e-05
1.89961e-07
1.67151e-06
4.43422e-07
2.28735e-06
7.37911e-07
2.44001e-06
1.06716e-06
2.44593e-06
1.43756e-06
2.40065e-06
1.85209e-06
2.3321e-06
2.30113e-06
2.23979e-06
2.75583e-06
2.10267e-06
3.16863e-06
1.89861e-06
3.48132e-06
1.61088e-06
3.64637e-06
1.24136e-06
3.637e-06
8.12503e-07
3.44964e-06
3.57889e-07
3.10026e-06
-1.01261e-07
2.62401e-06
-5.6012e-07
2.03668e-06
-1.04178e-06
1.3897e-06
-1.54832e-06
7.94684e-07
-2.6379e-06
-1.32439e-08
-5.17867e-06
-1.32676e-05
8.06897e-08
1.83862e-06
3.24758e-07
2.25838e-06
6.62134e-07
2.26806e-06
1.03718e-06
2.17557e-06
1.43991e-06
2.06743e-06
1.86713e-06
1.95749e-06
2.30562e-06
1.84333e-06
2.73175e-06
1.71034e-06
3.11361e-06
1.5443e-06
3.41242e-06
1.33529e-06
3.59399e-06
1.08336e-06
3.62967e-06
7.99532e-07
3.50489e-06
5.00696e-07
3.22222e-06
1.94698e-07
2.81054e-06
-1.21848e-07
2.24288e-06
-4.99395e-07
1.73251e-06
-9.6888e-07
1.24457e-06
-2.18192e-06
2.8674e-07
-4.34296e-06
-1.34508e-05
-9.06829e-08
1.42787e-06
1.44813e-07
1.4616e-06
5.17499e-07
1.47207e-06
9.34418e-07
1.47085e-06
1.38567e-06
1.41827e-06
1.85848e-06
1.34403e-06
2.33171e-06
1.26569e-06
2.78221e-06
1.18055e-06
3.18486e-06
1.08056e-06
3.51255e-06
9.60008e-07
3.73491e-06
8.20218e-07
3.83068e-06
6.67113e-07
3.79133e-06
5.06843e-07
3.60409e-06
3.40911e-07
3.29927e-06
1.6333e-07
2.79351e-06
-9.67716e-08
2.55041e-06
-4.57557e-07
1.88554e-06
-1.52331e-06
7.20756e-07
-3.01449e-06
-1.24261e-05
-4.30049e-07
2.66669e-06
-1.9349e-07
1.96938e-06
4.66623e-07
1.39821e-06
1.15953e-06
1.13298e-06
1.83639e-06
9.7813e-07
2.48829e-06
8.6761e-07
3.09907e-06
7.83639e-07
3.65885e-06
7.15106e-07
4.15913e-06
6.52459e-07
4.58984e-06
5.89561e-07
4.93974e-06
5.24372e-07
5.19995e-06
4.57105e-07
5.37182e-06
3.88657e-07
5.4401e-06
3.16019e-07
5.43931e-06
2.35162e-07
5.16309e-06
1.04886e-07
5.15035e-06
-6.02192e-08
3.45211e-06
-6.21193e-07
2.55954e-06
-9.93948e-07
-8.14462e-06
2.50663e-06
3.65098e-06
4.8693e-06
5.89926e-06
6.75747e-06
7.52872e-06
8.24877e-06
8.91977e-06
9.53792e-06
1.00999e-05
1.06017e-05
1.10379e-05
1.14071e-05
1.16885e-05
1.19207e-05
1.18564e-05
1.21796e-05
9.5276e-06
1.26686e-05
)
;

boundaryField
{
    movingWall
    {
        type            calculated;
        value           uniform 0;
    }
    fixedWalls
    {
        type            calculated;
        value           uniform 0;
    }
    frontAndBack
    {
        type            empty;
        value           nonuniform List<scalar> 0();
    }
}


// ************************************************************************* //
