/*--------------------------------*- C++ -*----------------------------------*\
| =========                 |                                                 |
| \\      /  F ield         | OpenFOAM: The Open Source CFD Toolbox           |
|  \\    /   O peration     | Version:  2312                                  |
|   \\  /    A nd           | Website:  www.openfoam.com                      |
|    \\/     M anipulation  |                                                 |
\*---------------------------------------------------------------------------*/
FoamFile
{
    version     2.0;
    format      ascii;
    arch        "LSB;label=32;scalar=64";
    class       volScalarField;
    location    "2.375";
    object      Lambda2Field;
}
// * * * * * * * * * * * * * * * * * * * * * * * * * * * * * * * * * * * * * //

dimensions      [0 0 -2 0 0 0 0];

internalField   nonuniform List<scalar> 
400
(
0.0160903
0.134297
0.356567
0.414808
0.630711
1.06871
2.37114
4.52048
8.9279
12.6212
15.9017
15.4081
18.4251
18.9459
26.0282
26.0749
21.5046
11.5579
2.3372
0.221452
0.330979
0.955972
1.78942
2.02957
2.47505
3.97889
7.5832
10.5552
14.3899
13.5332
12.9488
10.3651
10.7878
14.2543
22.1214
30.0884
32.1564
24.1664
7.81318
0.0756026
1.05213
1.915
3.1249
3.92178
5.23903
7.58401
11.2386
13.9151
14.8122
10.9127
6.33667
1.89269
0.301329
1.84269
8.04961
19.529
32.3
35.7568
22.5163
2.0183
2.05965
2.80378
4.00908
5.23038
7.46712
10.2945
13.6893
12.9537
8.67459
0.132361
0
-14.8602
0
-18.7959
0
-10.1354
8.00766
32.0744
39.0642
14.892
3.00191
3.32454
4.34409
5.93551
8.7905
11.6794
12.5346
8.07228
0
-13.0176
0
-23.8803
0
-24.6595
0
-29.7239
0
1.45266
38.5686
51.4287
3.60285
3.35922
4.16152
5.95062
8.9173
11.3172
9.74852
1.12256
0
-22.008
0
-23.1083
0
-18.102
0
-24.6371
0
-25.841
19.2253
77.0273
3.75119
2.96719
3.55645
5.2681
8.11458
9.59015
6.02101
-4.9596
0
-25.7368
0
-22.1832
0
-15.0904
0
-14.4852
0
-31.4595
0
76.9906
3.55832
2.34296
2.73799
4.25006
6.84521
7.63299
3.00657
-8.49112
0
-27.4701
0
-24.8688
0
-16.9933
0
-10.3544
0
-24.2637
0
62.5935
3.1871
1.71805
1.96008
3.23802
5.55197
6.10153
1.74138
-9.02885
0
-28.4365
0
-28.8299
0
-19.7773
0
-9.25905
0
-17.0337
0
40.182
2.77599
1.24555
1.35598
2.41507
4.41467
5.35046
2.14702
-6.87718
0
-27.4706
0
-30.9125
0
-20.3796
0
-7.9061
0
-11.8119
0
19.8506
2.37738
0.994483
0.990702
1.83078
3.55554
4.97802
3.45409
-2.76484
0
-22.2736
0
-28.2397
0
-17.0209
0
-5.37236
0
-7.45803
0
7.06188
1.96337
0.906543
0.847124
1.47591
2.91514
4.57722
4.59978
1.23831
0
-13.0339
0
-19.6367
0
-10.1368
0
-1.90688
0
-3.36112
0
0
1.47013
0.916171
0.863954
1.31656
2.45167
4.02567
4.95466
3.87965
0.476579
-4.05007
0
-8.97492
0
-2.8535
0.165905
1.34979
1.84323
0
0
-4.10731
0.855198
0.899663
0.974708
1.3132
2.14096
3.39474
4.53387
4.62642
3.25272
0.884872
0
-1.82335
0
0.909805
2.7642
3.48754
4.13057
2.47421
0.786338
-0.85646
0
0.763822
1.12774
1.46111
2.04407
2.89996
3.76974
4.14755
3.63777
2.38278
1.13419
0.547513
0.95863
2.00635
3.29726
4.14578
5.35206
1.42088
0
0
0
0.467844
1.33157
1.73569
2.17206
2.70118
3.17574
3.33699
2.97993
2.09474
1.13471
0.493123
0.61557
1.35225
2.52188
3.47238
4.6243
-4.3125
0
2.86751
0
0
0.478498
1.18843
1.8187
2.25337
2.55474
2.41698
2.15884
1.17496
0.390391
-0.304111
0
0
0.787478
1.92635
0
-18.5115
0
27.8027
0
0.410213
2.53956
2.77953
2.92338
3.00298
2.818
2.23921
1.29782
0.0243482
0
-2.1728
0
-3.07822
0
-4.52087
0
-42.0226
0
262.819
8.65426
0
5.11294
1.94601
7.43065
0.271822
4.17374
0
1.04654
0
0
-2.90925
0
-5.49871
0
-12.7109
0
-17.1348
0
967.004
3293.88
-622.738
0
-354.238
0
-82.8749
0
-38.3456
0
-23.4142
0
-18.9205
0
-16.3294
0
0
0
0
0
1621.62
)
;

boundaryField
{
    movingWall
    {
        type            calculated;
        value           nonuniform List<scalar> 
20
(
5505.74
0
0
0
0
0
0
0
0
0
0
0
0
0
0
0
0
0
0
2883
)
;
    }
    fixedWalls
    {
        type            calculated;
        value           nonuniform List<scalar> 
60
(
0.00159229
0.0471266
0.540852
1.33242
2.97044
3.12036
4.89128
4.98974
5.14267
3.24204
4.27972
1.29832
2.41949
0
0
0
0
0
26.5719
6885.62
0.254121
0
0
0
61.1865
45.7415
166.139
33.9649
104.155
0
24.1459
0
0
0
8.47743
0
188.134
777.501
3552.98
2188.94
0.00924945
0
0.213165
0
0.315514
0
0.912781
0.538496
7.5247
11.1308
22.7984
18.8132
31.2989
22.2227
34.9478
24.38
20.4243
5.24524
1.42834
0.175223
)
;
    }
    frontAndBack
    {
        type            empty;
    }
}


// ************************************************************************* //
