/*--------------------------------*- C++ -*----------------------------------*\
| =========                 |                                                 |
| \\      /  F ield         | OpenFOAM: The Open Source CFD Toolbox           |
|  \\    /   O peration     | Version:  2312                                  |
|   \\  /    A nd           | Website:  www.openfoam.com                      |
|    \\/     M anipulation  |                                                 |
\*---------------------------------------------------------------------------*/
FoamFile
{
    version     2.0;
    format      ascii;
    arch        "LSB;label=32;scalar=64";
    class       volScalarField;
    location    "2.375";
    object      magSqrU;
}
// * * * * * * * * * * * * * * * * * * * * * * * * * * * * * * * * * * * * * //

dimensions      [0 2 -2 0 0 0 0];

internalField   nonuniform List<scalar> 
400
(
8.48152e-08
2.23483e-06
2.34398e-05
7.90357e-05
0.000197361
0.000449939
0.000987306
0.00205247
0.0038411
0.00623884
0.00870659
0.0104475
0.0108728
0.0097125
0.0072182
0.00422825
0.00172159
0.000305118
7.82568e-06
1.39221e-05
4.55334e-06
6.18896e-05
0.000215191
0.000499686
0.000997932
0.00192995
0.0036404
0.00629653
0.00973689
0.0134104
0.0166201
0.0187307
0.0192707
0.0181775
0.0154778
0.0115097
0.00706598
0.0029485
0.000383788
1.37108e-05
5.63756e-05
0.000255011
0.000587263
0.00115529
0.00218394
0.00403007
0.00691041
0.0107621
0.0150086
0.0187854
0.0214643
0.0228157
0.0230688
0.0224764
0.0214238
0.0195965
0.0161136
0.010258
0.00332644
5.21727e-05
0.000215665
0.000612548
0.00114445
0.00200786
0.00355639
0.00617802
0.00993406
0.0142161
0.0178561
0.0199615
0.0204888
0.0201248
0.0194929
0.0191719
0.0195685
0.0209289
0.0221078
0.0198836
0.0110978
0.00103045
0.000524327
0.00114291
0.00185077
0.00295968
0.00492441
0.00809248
0.0120981
0.0156973
0.0174835
0.0170432
0.0152257
0.0132354
0.0119569
0.0116789
0.0125646
0.0152309
0.0200085
0.0247477
0.0218542
0.00601263
0.000980404
0.00180903
0.00264574
0.00393011
0.00616296
0.00952821
0.0131357
0.0153417
0.0149188
0.0124045
0.00956297
0.00769632
0.00694918
0.00703939
0.00793692
0.0100547
0.0147056
0.0231272
0.0299671
0.0156325
0.00152894
0.00253942
0.00345117
0.0048134
0.00712539
0.010386
0.013249
0.0139836
0.011872
0.00838516
0.00560183
0.00427437
0.0041198
0.0048338
0.00613765
0.00805336
0.0115521
0.019505
0.0328
0.0282761
0.00207622
0.00324184
0.00416408
0.00549779
0.00771018
0.0107053
0.0127804
0.0125436
0.00949779
0.00565622
0.00298493
0.00190316
0.00217452
0.00351974
0.00542815
0.00758331
0.0106025
0.0171152
0.0326503
0.0399194
0.00251947
0.00381269
0.00469403
0.00591411
0.00789827
0.0105403
0.0121043
0.0115093
0.00820557
0.00425067
0.00149561
0.000399012
0.000910986
0.00273993
0.00508742
0.00741616
0.0102539
0.0158871
0.0317535
0.0486807
0.00278391
0.00418087
0.00499363
0.00603675
0.00770309
0.00993619
0.0113908
0.0108884
0.00799152
0.00416578
0.00131668
8.13281e-05
0.000595909
0.00254334
0.0049275
0.00717107
0.00974552
0.0147785
0.0303997
0.0548401
0.00283465
0.0043122
0.00504908
0.00588725
0.00719197
0.00900813
0.0104513
0.0103935
0.00841556
0.00524511
0.00253338
0.00116679
0.00142315
0.00295989
0.00486401
0.00671182
0.00888733
0.0132739
0.0285378
0.0590107
0.00268659
0.00421614
0.00488676
0.00552617
0.00647271
0.00784641
0.00918217
0.00961317
0.00870299
0.00669377
0.00456689
0.00322267
0.00302597
0.00371488
0.00476132
0.00600007
0.00768243
0.0113993
0.0260495
0.0620058
0.00238918
0.0039304
0.00455032
0.00502287
0.00566317
0.00661583
0.00771292
0.0084194
0.00835229
0.00746884
0.0061856
0.00507753
0.00448179
0.00431534
0.00450326
0.00509843
0.00624717
0.00926949
0.0231341
0.0643797
0.00202114
0.00351324
0.00408632
0.0044339
0.00485059
0.0054767
0.00628639
0.00703543
0.00742055
0.00728335
0.00669827
0.00591141
0.00514604
0.00450304
0.00411831
0.00416253
0.00478164
0.00709168
0.0198328
0.0662708
0.00161971
0.00299705
0.00351793
0.00378378
0.00406623
0.00449004
0.00507695
0.00573547
0.00629102
0.00654731
0.00641657
0.00594154
0.00524257
0.0044534
0.00375381
0.00338535
0.00349064
0.00513164
0.0161373
0.0675577
0.00137187
0.00253514
0.00293453
0.00311852
0.00332779
0.00365751
0.0041345
0.00471476
0.00530329
0.00574725
0.00590032
0.00570643
0.00517654
0.00441567
0.00357792
0.00291551
0.00254077
0.00374729
0.0124226
0.0689814
0.000891208
0.00173458
0.00209063
0.00230251
0.00253871
0.00288392
0.00337269
0.00397442
0.00461568
0.00518223
0.00553787
0.00559607
0.00528063
0.00463195
0.00374798
0.00289985
0.00207706
0.00328858
0.00959746
0.0720306
0.00191831
0.00238401
0.00215881
0.00197751
0.00203203
0.00233786
0.00287151
0.00357425
0.00436338
0.00512906
0.00574792
0.00607399
0.00604422
0.00563144
0.00482381
0.00393223
0.00261052
0.00432201
0.00652273
0.0728005
0.000231226
0.000194093
0.000170709
0.000547396
0.00122558
0.00220428
0.00344735
0.00487764
0.00640393
0.00792282
0.00932397
0.0104934
0.0113453
0.0118706
0.0118733
0.0118169
0.00958906
0.0121809
0.00274613
0.056921
0.0103095
0.008389
0.0092442
0.0126569
0.0166161
0.0207731
0.025164
0.0297099
0.0342802
0.0387659
0.0430534
0.0470331
0.0505665
0.0536298
0.0557334
0.0579963
0.0545065
0.0643871
0.0162355
0.153619
)
;

boundaryField
{
    movingWall
    {
        type            calculated;
        value           uniform 1;
    }
    fixedWalls
    {
        type            calculated;
        value           uniform 0;
    }
    frontAndBack
    {
        type            empty;
    }
}


// ************************************************************************* //
