/*--------------------------------*- C++ -*----------------------------------*\
| =========                 |                                                 |
| \\      /  F ield         | OpenFOAM: The Open Source CFD Toolbox           |
|  \\    /   O peration     | Version:  2312                                  |
|   \\  /    A nd           | Website:  www.openfoam.com                      |
|    \\/     M anipulation  |                                                 |
\*---------------------------------------------------------------------------*/
FoamFile
{
    version     2.0;
    format      ascii;
    arch        "LSB;label=32;scalar=64";
    class       volScalarField;
    location    "2.375";
    object      magU;
}
// * * * * * * * * * * * * * * * * * * * * * * * * * * * * * * * * * * * * * //

dimensions      [0 1 -1 0 0 0 0];

internalField   nonuniform List<scalar> 
400
(
0.000291231
0.00149493
0.00484147
0.0088902
0.0140485
0.0212118
0.0314214
0.0453042
0.0619766
0.0789863
0.0933091
0.102213
0.104273
0.098552
0.08496
0.065025
0.0414921
0.0174676
0.00279744
0.00373124
0.00213386
0.007867
0.0146694
0.0223537
0.0315901
0.0439312
0.0603357
0.0793507
0.0986757
0.115803
0.128919
0.13686
0.138819
0.134824
0.12441
0.107283
0.0840594
0.0543001
0.0195905
0.00370282
0.00750837
0.0159691
0.0242335
0.0339895
0.0467327
0.0634828
0.0831288
0.103741
0.122509
0.13706
0.146507
0.151049
0.151884
0.149921
0.146369
0.139988
0.12694
0.101282
0.0576753
0.00722307
0.0146856
0.0247497
0.0338298
0.0448092
0.0596355
0.0786004
0.0996698
0.119231
0.133627
0.141285
0.143139
0.141862
0.139617
0.138463
0.139887
0.144668
0.148687
0.141009
0.105346
0.0321006
0.0228982
0.0338069
0.0430205
0.054403
0.0701741
0.0899582
0.109991
0.125289
0.132225
0.13055
0.123392
0.115045
0.109348
0.108069
0.112092
0.123414
0.141451
0.157314
0.147832
0.0775412
0.0313114
0.0425327
0.0514368
0.0626906
0.0785045
0.0976126
0.114611
0.123862
0.122143
0.111375
0.0977904
0.0877287
0.0833617
0.0839011
0.0890894
0.100273
0.121266
0.152076
0.17311
0.12503
0.0391017
0.0503927
0.0587466
0.0693787
0.084412
0.101912
0.115104
0.118252
0.108959
0.0915705
0.0748454
0.0653786
0.0641856
0.0695255
0.0783431
0.0897405
0.107481
0.13966
0.181108
0.168155
0.0455655
0.0569372
0.0645297
0.0741471
0.0878076
0.103467
0.11305
0.111998
0.0974566
0.0752078
0.0546345
0.0436252
0.0466318
0.0593274
0.073676
0.0870822
0.102968
0.130825
0.180694
0.199798
0.0501943
0.061747
0.068513
0.0769033
0.0888722
0.102666
0.110019
0.107281
0.0905846
0.0651972
0.0386731
0.0199753
0.0301825
0.0523443
0.0713262
0.0861171
0.101262
0.126044
0.178195
0.220637
0.0527628
0.0646597
0.0706656
0.0776965
0.0877673
0.0996804
0.106728
0.104347
0.0893953
0.0645429
0.0362861
0.00901821
0.0244112
0.0504315
0.0701962
0.0846822
0.0987194
0.121567
0.174355
0.23418
0.0532415
0.0656673
0.0710569
0.0767284
0.0848055
0.0949112
0.102232
0.101948
0.0917363
0.0724231
0.0503327
0.0341583
0.0377247
0.0544049
0.0697424
0.0819257
0.0942726
0.115212
0.168931
0.242921
0.0518323
0.0649318
0.0699053
0.0743382
0.0804531
0.0885799
0.0958237
0.0980468
0.0932898
0.0818155
0.0675788
0.0567686
0.0550088
0.0609498
0.0690023
0.0774601
0.0876495
0.106768
0.161399
0.24901
0.0488793
0.0626929
0.0674561
0.0708722
0.075254
0.0813378
0.0878232
0.0917573
0.0913909
0.0864225
0.0786486
0.0712568
0.0669462
0.0656913
0.0671063
0.0714033
0.079039
0.0962782
0.152099
0.253731
0.0449571
0.0592726
0.0639244
0.0665875
0.0696462
0.0740048
0.0792868
0.0838775
0.0861426
0.0853426
0.0818429
0.0768857
0.0717359
0.0671047
0.0641741
0.0645177
0.0691494
0.0842121
0.140829
0.257431
0.0402456
0.0547453
0.0593121
0.0615125
0.063767
0.0670078
0.0712527
0.0757329
0.079316
0.0809154
0.0801035
0.0770814
0.0724056
0.0667338
0.0612684
0.0581838
0.0590816
0.0716355
0.127033
0.259919
0.0370387
0.0503501
0.0541713
0.0558437
0.057687
0.0604774
0.0643001
0.0686641
0.0728237
0.0758106
0.0768136
0.0755409
0.0719482
0.0664505
0.0598157
0.0539954
0.050406
0.0612151
0.111457
0.262643
0.0298531
0.0416483
0.0457235
0.0479845
0.0503856
0.0537022
0.0580749
0.063043
0.0679388
0.0719877
0.0744169
0.0748069
0.0726679
0.0680584
0.0612207
0.0538503
0.0455748
0.0573461
0.0979666
0.268385
0.0437985
0.0488263
0.046463
0.0444692
0.045078
0.0483514
0.0535865
0.059785
0.0660559
0.0716174
0.075815
0.0779358
0.0777446
0.0750429
0.0694537
0.0627075
0.0510932
0.065742
0.0807634
0.269816
0.0152061
0.0139317
0.0130656
0.0233965
0.0350083
0.0469497
0.0587141
0.0698401
0.0800246
0.0890102
0.0965607
0.102438
0.106514
0.108952
0.108964
0.108706
0.0979237
0.110367
0.0524036
0.238581
0.101536
0.0915915
0.0961468
0.112503
0.128903
0.144129
0.158632
0.172365
0.185149
0.196891
0.207493
0.216871
0.22487
0.231581
0.236079
0.240824
0.233466
0.253746
0.127419
0.391943
)
;

boundaryField
{
    movingWall
    {
        type            calculated;
        value           uniform 1;
    }
    fixedWalls
    {
        type            calculated;
        value           uniform 0;
    }
    frontAndBack
    {
        type            empty;
    }
}


// ************************************************************************* //
