/*--------------------------------*- C++ -*----------------------------------*\
| =========                 |                                                 |
| \\      /  F ield         | OpenFOAM: The Open Source CFD Toolbox           |
|  \\    /   O peration     | Version:  2312                                  |
|   \\  /    A nd           | Website:  www.openfoam.com                      |
|    \\/     M anipulation  |                                                 |
\*---------------------------------------------------------------------------*/
FoamFile
{
    version     2.0;
    format      ascii;
    arch        "LSB;label=32;scalar=64";
    class       volScalarField;
    location    "2.375";
    object      QField;
}
// * * * * * * * * * * * * * * * * * * * * * * * * * * * * * * * * * * * * * //

dimensions      [0 0 -2 0 0 0 0];

internalField   nonuniform List<scalar> 
400
(
-0.017364
-0.173303
-0.387485
-0.480524
-0.697379
-1.35817
-2.63102
-5.12407
-9.19404
-13.4649
-16.1889
-17.2742
-18.3965
-21.5193
-25.5763
-26.5012
-21.9776
-11.7007
-2.2576
-0.251959
-0.326075
-1.00907
-1.75872
-2.06504
-2.47375
-4.04903
-7.29972
-11.1285
-13.8039
-14.2628
-12.7013
-10.7384
-10.8923
-14.7603
-22.581
-31.2451
-33.5197
-25.1153
-6.69526
-0.173977
-1.02354
-2.02826
-3.10659
-3.97797
-5.22153
-7.59134
-11.1023
-14.2618
-14.5365
-11.2862
-6.25446
-2.01153
-0.317392
-2.11898
-8.55896
-20.6716
-34.1398
-38.7038
-23.905
-3.96983
-1.92606
-2.88515
-3.95772
-5.29828
-7.41228
-10.5131
-13.3322
-13.2851
-8.53871
-0.142803
8.56279
14.8731
18.1502
18.9551
17.6146
10.4794
-7.54968
-33.1432
-45.0349
-18.1721
-2.81756
-3.43164
-4.3507
-5.97443
-8.69134
-11.8923
-12.757
-8.24036
1.73854
13.126
21.0333
24.1188
24.4196
24.8696
27.0864
29.7888
24.5519
-2.36067
-45.2631
-51.648
-3.4518
-3.4796
-4.22706
-5.97657
-8.87943
-11.4525
-9.71798
-1.19443
11.703
22.0324
25.2417
23.1174
20.059
18.2
19.051
24.6706
32.9297
26.7773
-20.2904
-83.1435
-3.66884
-3.07902
-3.64895
-5.33546
-8.09413
-9.7203
-5.878
4.99165
18.223
25.7456
25.5589
22.2165
18.7389
15.2294
12.9238
14.6237
23.2921
32.5764
7.14921
-88.1728
-3.52487
-2.42512
-2.82054
-4.33073
-6.84868
-7.71893
-2.93069
8.52912
21.373
27.4892
27.1565
24.8734
21.6873
17.0396
12.2193
10.4197
14.2653
24.8744
19.1429
-71.2939
-3.18156
-1.76484
-2.01777
-3.3178
-5.55167
-6.22687
-1.74593
9.08069
21.7808
28.4705
29.655
28.8654
25.9239
19.7946
12.9159
9.26008
10.1427
17.1714
18.9649
-45.6871
-2.77857
-1.26804
-1.39278
-2.47295
-4.43668
-5.48854
-2.15697
6.95364
19.141
27.4991
30.5777
30.9966
27.9329
20.4054
12.3597
7.91499
7.58875
11.982
14.8215
-22.8235
-2.37577
-0.997657
-1.0109
-1.86452
-3.59446
-5.08826
-3.48283
2.86458
13.091
22.3304
27.2495
28.3598
24.9475
17.0693
9.42953
5.37914
4.67795
7.75162
9.95539
-8.24857
-1.95485
-0.917623
-0.858684
-1.49122
-2.94313
-4.66075
-4.71405
-1.36504
5.38991
13.0774
18.395
19.7106
16.6084
10.2084
4.64456
1.93229
1.3526
3.69909
5.2744
0.371213
-1.45079
-0.932522
-0.868217
-1.32011
-2.45154
-4.07137
-5.08836
-4.02592
-0.609063
4.1113
7.94259
9.00509
6.88529
3.04856
0.0378183
-1.37344
-1.78569
-0.0662665
1.09033
5.14375
-0.850143
-0.936621
-0.979548
-1.32512
-2.15302
-3.42767
-4.62558
-4.73927
-3.36712
-0.987171
1.16323
1.8773
0.84402
-1.02191
-2.63149
-3.4914
-4.06584
-2.7004
-0.499459
5.37973
0.19073
-0.797131
-1.12337
-1.46241
-2.05219
-2.92178
-3.81771
-4.2102
-3.6903
-2.42612
-1.14143
-0.554104
-0.964432
-2.04837
-3.2515
-4.15954
-5.15201
-1.82128
5.56694
-1.7786
1.34147
-0.784773
-1.5322
-1.86962
-2.24784
-2.74717
-3.21012
-3.36498
-2.98866
-2.10498
-1.12461
-0.511177
-0.619961
-1.38565
-2.49377
-3.68744
-4.40765
5.24174
17.8302
-17.8868
3.47784
0.874784
-0.747558
-1.64861
-2.19227
-2.57113
-2.75592
-2.6324
-2.13247
-1.28825
-0.330604
0.363035
0.499604
-0.0206439
-0.962894
-2.14606
0.148579
18.8701
13.9218
-61.9169
7.08262
-2.68924
-5.2383
-4.73799
-4.35257
-4.07523
-3.62198
-2.83776
-1.70153
-0.307646
1.14926
2.34454
3.07705
3.37103
4.02723
5.74159
18.6779
42.0912
1.2444
-288.377
-18.4965
2.26425
-6.42834
-8.59247
-5.92988
-4.20047
-3.18461
-2.05674
-0.548106
1.19204
2.87825
4.31519
5.56653
6.8365
10.3732
15.294
41.2617
52.9087
186.467
-1184.1
-3300.87
942.333
747.998
392.541
202.766
117.786
76.4259
53.8666
40.7236
32.8865
28.3765
25.9525
25.3921
27.8158
35.8444
45.2557
110.55
-45.7953
1808.42
-3124.7
)
;

boundaryField
{
    movingWall
    {
        type            calculated;
        value           nonuniform List<scalar> 
20
(
-6608.1
1759.82
1398.71
734.763
380.581
222.062
144.968
102.857
78.1362
63.1257
54.2002
49.1192
47.5436
51.5543
65.9981
83.4343
201.47
-48.3869
3314.38
-4359.55
)
;
    }
    fixedWalls
    {
        type            calculated;
        value           nonuniform List<scalar> 
60
(
-0.00863105
-0.162886
-0.652913
-1.53792
-2.72888
-3.93832
-4.81031
-5.21813
-5.21469
-4.87842
-4.26291
-3.39554
-2.28531
-1.02026
0.791205
2.99063
5.42254
14.2596
-37.3775
-7507.8
-0.235584
0.0497502
1.29838
-7.55557
-49.3655
-110.276
-145.445
-136.988
-96.3741
-51.6955
-20.422
-0.606298
11.2226
12.4518
-6.31071
-53.9555
-186.88
-869.465
-3889.2
-11042.3
0.0145237
-0.0154465
-0.0893229
-0.0776847
-0.0287627
-0.0179014
-0.168688
-2.17425
-7.84329
-16.23
-24.0573
-28.9255
-31.3984
-33.3829
-33.5678
-28.4429
-18.6287
-8.45265
-2.3673
-0.415675
)
;
    }
    frontAndBack
    {
        type            empty;
    }
}


// ************************************************************************* //
