/*--------------------------------*- C++ -*----------------------------------*\
| =========                 |                                                 |
| \\      /  F ield         | OpenFOAM: The Open Source CFD Toolbox           |
|  \\    /   O peration     | Version:  2312                                  |
|   \\  /    A nd           | Website:  www.openfoam.com                      |
|    \\/     M anipulation  |                                                 |
\*---------------------------------------------------------------------------*/
FoamFile
{
    version     2.0;
    format      ascii;
    arch        "LSB;label=32;scalar=64";
    class       volVectorField;
    location    "2.375";
    object      U;
}
// * * * * * * * * * * * * * * * * * * * * * * * * * * * * * * * * * * * * * //

dimensions      [0 1 -1 0 0 0 0];

internalField   nonuniform List<vector> 
400
(
(8.05841e-05 -0.00027986 0)
(-0.00142632 0.000447695 0)
(-0.00474454 0.000963914 0)
(-0.00876806 0.0014686 0)
(-0.0138639 0.00226986 0)
(-0.020936 0.00340893 0)
(-0.0310144 0.00504103 0)
(-0.0447377 0.00714163 0)
(-0.061367 0.00867131 0)
(-0.0785038 0.00871762 0)
(-0.0930446 0.00702046 0)
(-0.102133 0.00403661 0)
(-0.104272 0.000383872 0)
(-0.0984897 -0.00350482 0)
(-0.0846379 -0.00739115 0)
(-0.064184 -0.0104241 0)
(-0.0399485 -0.0112118 0)
(-0.0153311 -0.00837115 0)
(0.00120344 -0.00252535 0)
(0.00320286 0.00191411 0)
(-0.00126569 0.00171795 0)
(-0.00602075 0.00506362 0)
(-0.0130073 0.00678241 0)
(-0.0208565 0.00804306 0)
(-0.0298195 0.0104272 0)
(-0.0414382 0.0145886 0)
(-0.0569895 0.0198141 0)
(-0.0755921 0.0241321 0)
(-0.0952252 0.0258661 0)
(-0.113333 0.0237911 0)
(-0.12769 0.0177632 0)
(-0.136582 0.00871414 0)
(-0.138802 -0.00217479 0)
(-0.134096 -0.0139943 0)
(-0.121762 -0.0255332 0)
(-0.101513 -0.0347108 0)
(-0.0746766 -0.0385925 0)
(-0.0435129 -0.0324827 0)
(-0.0118777 -0.0155791 0)
(0.00206546 0.00307323 0)
(-0.00286764 0.00693918 0)
(-0.00976261 0.0126373 0)
(-0.0185519 0.0155914 0)
(-0.0287762 0.0180892 0)
(-0.0407681 0.0228453 0)
(-0.0557616 0.0303433 0)
(-0.0737512 0.0383558 0)
(-0.0939318 0.0440331 0)
(-0.114036 0.0447709 0)
(-0.131249 0.0394865 0)
(-0.14364 0.0288402 0)
(-0.15039 0.0140875 0)
(-0.151852 -0.00313983 0)
(-0.148326 -0.02181 0)
(-0.140448 -0.0412105 0)
(-0.126746 -0.0594312 0)
(-0.104888 -0.071499 0)
(-0.0735014 -0.0696816 0)
(-0.0352481 -0.045651 0)
(-0.00228423 -0.00685237 0)
(-0.00403836 0.0141194 0)
(-0.0123156 0.021468 0)
(-0.0219996 0.0256997 0)
(-0.0332799 0.0300052 0)
(-0.0464922 0.0373478 0)
(-0.0625864 0.0475495 0)
(-0.0813216 0.057627 0)
(-0.100877 0.0635612 0)
(-0.118373 0.0620002 0)
(-0.131262 0.0522659 0)
(-0.138521 0.0360654 0)
(-0.14092 0.016316 0)
(-0.139533 -0.00483325 0)
(-0.13588 -0.0266179 0)
(-0.130976 -0.0491301 0)
(-0.124988 -0.0728479 0)
(-0.114313 -0.0950811 0)
(-0.0926516 -0.106298 0)
(-0.0567639 -0.0887449 0)
(-0.0134171 -0.0291622 0)
(-0.00457694 0.0224361 0)
(-0.0133926 0.031041 0)
(-0.023072 0.0363104 0)
(-0.0342063 0.0423038 0)
(-0.0471605 0.0519644 0)
(-0.062661 0.0645451 0)
(-0.0797951 0.0757021 0)
(-0.0962836 0.080167 0)
(-0.109098 0.0747076 0)
(-0.116107 0.0596851 0)
(-0.117201 0.0385948 0)
(-0.113988 0.0155581 0)
(-0.109123 -0.00700882 0)
(-0.104242 -0.0285066 0)
(-0.100232 -0.0501814 0)
(-0.0985543 -0.074283 0)
(-0.0976002 -0.102385 0)
(-0.0899213 -0.129081 0)
(-0.0659012 -0.13233 0)
(-0.0262273 -0.072971 0)
(-0.00444024 0.030995 0)
(-0.0129641 0.0405088 0)
(-0.0218929 0.046545 0)
(-0.031946 0.0539404 0)
(-0.0433598 0.0654438 0)
(-0.0565248 0.0795811 0)
(-0.0703571 0.0904743 0)
(-0.0825942 0.0923034 0)
(-0.0904911 0.0820375 0)
(-0.0928362 0.0615298 0)
(-0.0908601 0.036158 0)
(-0.087059 0.0108193 0)
(-0.0824183 -0.0125064 0)
(-0.0767997 -0.0337816 0)
(-0.071267 -0.0534596 0)
(-0.0678775 -0.0738062 0)
(-0.0687498 -0.099895 0)
(-0.0703185 -0.134843 0)
(-0.0597764 -0.162462 0)
(-0.029677 -0.121457 0)
(-0.00376184 0.0389203 0)
(-0.0112961 0.0491103 0)
(-0.0188965 0.0556246 0)
(-0.0270835 0.063874 0)
(-0.0359355 0.0763808 0)
(-0.0455951 0.0911433 0)
(-0.055227 0.10099 0)
(-0.0631267 0.0999932 0)
(-0.0674533 0.0855688 0)
(-0.0680722 0.0612481 0)
(-0.0668604 0.0336381 0)
(-0.0650017 0.00700991 0)
(-0.0616584 -0.0178338 0)
(-0.0565497 -0.0404467 0)
(-0.0504612 -0.0599276 0)
(-0.0452512 -0.0774964 0)
(-0.0434854 -0.0982911 0)
(-0.0467624 -0.131599 0)
(-0.0450966 -0.175403 0)
(-0.0262813 -0.166089 0)
(-0.00275068 0.0454824 0)
(-0.00879675 0.0562535 0)
(-0.0146157 0.0628527 0)
(-0.0204644 0.0712671 0)
(-0.0261536 0.0838222 0)
(-0.0318194 0.0984524 0)
(-0.0365998 0.106962 0)
(-0.0406724 0.104352 0)
(-0.0427506 0.0875796 0)
(-0.0432592 0.0615212 0)
(-0.0435569 0.0329807 0)
(-0.043322 0.00513455 0)
(-0.0413043 -0.0216442 0)
(-0.0373434 -0.0461 0)
(-0.032528 -0.0661066 0)
(-0.0281977 -0.0823905 0)
(-0.025693 -0.0997112 0)
(-0.027926 -0.12781 0)
(-0.0296783 -0.17824 0)
(-0.0200217 -0.198793 0)
(-0.00157396 0.0501697 0)
(-0.0057812 0.0614758 0)
(-0.00960064 0.067837 0)
(-0.0129918 0.0757979 0)
(-0.0153989 0.0875279 0)
(-0.016813 0.10128 0)
(-0.0170967 0.108683 0)
(-0.017252 0.105885 0)
(-0.0173509 0.0889073 0)
(-0.0177025 0.0627479 0)
(-0.018699 0.033852 0)
(-0.0193777 0.00484949 0)
(-0.0186399 -0.023739 0)
(-0.0163976 -0.0497096 0)
(-0.014282 -0.0698817 0)
(-0.0126821 -0.0851782 0)
(-0.0120637 -0.10054 0)
(-0.0147609 -0.125177 0)
(-0.017918 -0.177292 0)
(-0.0144998 -0.22016 0)
(-0.000380516 0.0527614 0)
(-0.00260274 0.0646073 0)
(-0.0043919 0.070529 0)
(-0.00545193 0.077505 0)
(-0.00493778 0.0876283 0)
(-0.00248083 0.0996496 0)
(0.00133654 0.106719 0)
(0.00524471 0.104216 0)
(0.00775681 0.0890581 0)
(0.00851353 0.0639789 0)
(0.00773367 0.0354524 0)
(0.00679852 0.00592522 0)
(0.00631672 -0.0235798 0)
(0.00593137 -0.0500815 0)
(0.00430156 -0.0700643 0)
(0.00216973 -0.0846544 0)
(-0.000283618 -0.098719 0)
(-0.00506897 -0.121461 0)
(-0.00972314 -0.174084 0)
(-0.0113904 -0.233903 0)
(0.000715468 0.0532366 0)
(0.000409558 0.0656661 0)
(0.000487052 0.0710552 0)
(0.00144127 0.0767149 0)
(0.00425658 0.0846986 0)
(0.00968044 0.0944162 0)
(0.0168598 0.100832 0)
(0.0246512 0.0989232 0)
(0.0304119 0.0865487 0)
(0.0335969 0.0641588 0)
(0.0340669 0.0370517 0)
(0.033206 0.00800929 0)
(0.0312752 -0.0210954 0)
(0.0276228 -0.0468708 0)
(0.0218656 -0.0662262 0)
(0.0157034 -0.0804066 0)
(0.00988904 -0.0937525 0)
(0.00238886 -0.115188 0)
(-0.00426339 -0.168877 0)
(-0.0100727 -0.242712 0)
(0.00160853 0.0518073 0)
(0.00299296 0.0648628 0)
(0.0046846 0.0697482 0)
(0.00724153 0.0739847 0)
(0.011635 0.0796074 0)
(0.0188291 0.0865556 0)
(0.0282621 0.0915611 0)
(0.038711 0.0900813 0)
(0.0476995 0.0801732 0)
(0.053801 0.0616378 0)
(0.0562776 0.0374129 0)
(0.0557903 0.0104934 0)
(0.0525044 -0.0164091 0)
(0.0458136 -0.0401994 0)
(0.0365113 -0.0585512 0)
(0.0269467 -0.0726219 0)
(0.0181292 -0.0857541 0)
(0.00807497 -0.106462 0)
(-0.000676774 -0.161397 0)
(-0.00990569 -0.248813 0)
(0.00221716 0.048829 0)
(0.00498053 0.0624947 0)
(0.00800233 0.0669797 0)
(0.0117554 0.0698905 0)
(0.0171399 0.0732762 0)
(0.0250016 0.0773999 0)
(0.0353404 0.0803989 0)
(0.0469137 0.0788575 0)
(0.0576609 0.070905 0)
(0.0658145 0.0560116 0)
(0.0700868 0.0356852 0)
(0.0701452 0.0125372 0)
(0.0660933 -0.0106519 0)
(0.0577572 -0.0312962 0)
(0.0466668 -0.0482231 0)
(0.0351368 -0.0621598 0)
(0.0242102 -0.0752399 0)
(0.0121723 -0.0955056 0)
(0.00156216 -0.152091 0)
(-0.0104419 -0.253517 0)
(0.00246448 0.0448895 0)
(0.00624373 0.0589428 0)
(0.0103208 0.0630857 0)
(0.0149916 0.064878 0)
(0.0209952 0.0664063 0)
(0.0289015 0.0681279 0)
(0.0389654 0.0690513 0)
(0.0503209 0.0671062 0)
(0.0612492 0.060573 0)
(0.0699934 0.0488291 0)
(0.0750138 0.0327292 0)
(0.0755497 0.0142706 0)
(0.0715994 -0.00442421 0)
(0.0635112 -0.0216647 0)
(0.0525497 -0.0368354 0)
(0.0404451 -0.0502665 0)
(0.0284162 -0.0630409 0)
(0.0149394 -0.0828764 0)
(0.00296142 -0.140798 0)
(-0.011357 -0.257181 0)
(0.00231049 0.0401792 0)
(0.00660912 0.0543449 0)
(0.0115358 0.0581795 0)
(0.0170146 0.0591125 0)
(0.0234921 0.059282 0)
(0.0312931 0.0592519 0)
(0.0406022 0.0585526 0)
(0.0509081 0.0560699 0)
(0.0610314 0.0506576 0)
(0.0693501 0.0416878 0)
(0.0744293 0.0296116 0)
(0.0754816 0.0156227 0)
(0.0723965 0.00115206 0)
(0.0655043 -0.0127508 0)
(0.0556007 -0.0257367 0)
(0.044025 -0.0380414 0)
(0.031492 -0.0499889 0)
(0.0171996 -0.06954 0)
(0.00507135 -0.126931 0)
(-0.0119229 -0.259645 0)
(0.00151893 0.0370076 0)
(0.00607951 0.0499817 0)
(0.0116574 0.0529022 0)
(0.0178591 0.052911 0)
(0.0248273 0.0520711 0)
(0.0326749 0.0508907 0)
(0.0414085 0.0491918 0)
(0.0506368 0.0463754 0)
(0.0595965 0.0418516 0)
(0.0671488 0.0351893 0)
(0.072104 0.0264829 0)
(0.073751 0.0163467 0)
(0.0717291 0.00561087 0)
(0.0662565 -0.00507398 0)
(0.0577537 -0.0155701 0)
(0.0472066 -0.0262116 0)
(0.0342607 -0.0369726 0)
(0.0213274 -0.0573797 0)
(0.0104599 -0.110965 0)
(-0.0109897 -0.262413 0)
(-0.000133626 0.0298528 0)
(0.00336122 0.0415124 0)
(0.00962909 0.044698 0)
(0.0168563 0.0449263 0)
(0.0246309 0.0439548 0)
(0.0329654 0.0423935 0)
(0.0417199 0.0403997 0)
(0.0505051 0.0377314 0)
(0.0587651 0.034093 0)
(0.0657793 0.0292457 0)
(0.0707174 0.0231715 0)
(0.073042 0.0161534 0)
(0.0721447 0.00870468 0)
(0.0680507 0.00102354 0)
(0.060838 -0.00683468 0)
(0.0515834 -0.0154597 0)
(0.0381319 -0.0249603 0)
(0.0311687 -0.0481362 0)
(0.0186143 -0.0961819 0)
(-0.00714466 -0.26829 0)
(-0.00305205 0.043692 0)
(-0.000575262 0.0488229 0)
(0.00636779 0.0460245 0)
(0.0143322 0.0420963 0)
(0.0230445 0.0387425 0)
(0.0323823 0.0359061 0)
(0.041957 0.0333336 0)
(0.0513114 0.0306821 0)
(0.0599771 0.0276789 0)
(0.0674172 0.0241658 0)
(0.0730848 0.0201627 0)
(0.0763116 0.0158278 0)
(0.0769156 0.0113231 0)
(0.0747374 0.00676436 0)
(0.069426 0.00196076 0)
(0.0625447 -0.00451613 0)
(0.0491958 -0.0137948 0)
(0.0528205 -0.0391408 0)
(0.0226011 -0.0775365 0)
(0.00622912 -0.269744 0)
(-0.00714509 0.0134229 0)
(-0.0100569 0.00964121 0)
(0.00231726 0.0128584 0)
(0.0163477 0.0167377 0)
(0.0300334 0.0179882 0)
(0.0434221 0.017855 0)
(0.0561094 0.0172942 0)
(0.0678533 0.0165398 0)
(0.0785005 0.0155434 0)
(0.0878647 0.0142346 0)
(0.0957291 0.012646 0)
(0.101861 0.0108567 0)
(0.106137 0.00895058 0)
(0.108735 0.00687209 0)
(0.108868 0.00457244 0)
(0.108704 0.000645262 0)
(0.0978199 -0.00450742 0)
(0.108194 -0.0217918 0)
(0.0298901 -0.0430431 0)
(0.0724913 -0.227302 0)
(0.040186 0.0932446 0)
(0.0600791 0.0691339 0)
(0.0859602 0.0430701 0)
(0.108812 0.0285813 0)
(0.127158 0.021137 0)
(0.14314 0.0168494 0)
(0.158008 0.0140514 0)
(0.171943 0.0120644 0)
(0.184848 0.010555 0)
(0.196669 0.00934787 0)
(0.207326 0.00832892 0)
(0.216744 0.00742752 0)
(0.224773 0.00659568 0)
(0.231509 0.00576868 0)
(0.23603 0.00483406 0)
(0.240798 0.0035502 0)
(0.233457 0.00209865 0)
(0.253728 -0.00305595 0)
(0.127376 0.00328521 0)
(0.379368 -0.0984833 0)
)
;

boundaryField
{
    movingWall
    {
        type            fixedValue;
        value           uniform (1 0 0);
    }
    fixedWalls
    {
        type            noSlip;
    }
    frontAndBack
    {
        type            empty;
    }
}


// ************************************************************************* //
