/*--------------------------------*- C++ -*----------------------------------*\
| =========                 |                                                 |
| \\      /  F ield         | OpenFOAM: The Open Source CFD Toolbox           |
|  \\    /   O peration     | Version:  2312                                  |
|   \\  /    A nd           | Website:  www.openfoam.com                      |
|    \\/     M anipulation  |                                                 |
\*---------------------------------------------------------------------------*/
FoamFile
{
    version     2.0;
    format      ascii;
    arch        "LSB;label=32;scalar=64";
    class       volVectorField;
    location    "2.375";
    object      URandom;
}
// * * * * * * * * * * * * * * * * * * * * * * * * * * * * * * * * * * * * * //

dimensions      [0 1 -1 0 0 0 0];

internalField   nonuniform List<vector> 
400
(
(0.0910292 -0.0022121 -0.0415285)
(0.0692339 -0.0369585 -0.0600658)
(0.00900645 0.0494762 -0.0863566)
(-0.0837512 0.0309702 -0.0592215)
(-0.0819261 -0.0403125 0.0596178)
(-0.109417 0.0222492 0.0426155)
(0.00905671 0.0242483 0.0895845)
(0.0351586 0.0664928 0.00969639)
(-0.140486 0.0192367 0.060238)
(-0.164336 0.0422689 -0.0388219)
(-0.0751176 -0.0913585 0.000458146)
(-0.0753131 -0.0640972 -0.0681063)
(-0.160309 -0.0680346 -0.0466777)
(-0.182403 0.0385352 0.0345147)
(-0.0378232 -0.0949799 0.0116875)
(-0.132454 -0.0771538 -0.029771)
(0.0114823 0.0177571 -0.0807197)
(-0.0494703 -0.0751905 0.0661037)
(-0.07347 -0.0637703 0.0259411)
(-0.0585679 -0.0500221 0.0590508)
(0.0380969 -0.0613792 0.0668531)
(0.047248 -0.022971 0.079853)
(0.0261397 -0.0769453 0.0381731)
(0.0504459 0.0627466 -0.0438576)
(-0.0891642 0.0706114 -0.0534423)
(-0.0720161 -0.0166236 0.0899488)
(-0.117252 0.0994875 0.00453629)
(-0.034662 0.103068 -0.045759)
(-0.150389 -0.0525831 -0.028332)
(-0.171595 0.105041 -0.0019737)
(-0.196816 -0.00108222 0.0697597)
(-0.114736 0.0323006 -0.0946911)
(-0.108534 0.0911336 -0.0194262)
(-0.165227 0.00815571 -0.0924131)
(-0.193654 -0.0891324 -0.0280459)
(-0.10281 0.0647556 0.0102352)
(0.023265 -0.0185441 -0.00234655)
(-0.0519275 -0.106181 0.0670657)
(-0.00365277 -0.081521 0.0747263)
(0.00105224 0.0984719 -0.0299677)
(0.0220264 -0.0362462 -0.0866909)
(0.0466994 0.0831964 0.042819)
(-0.0629537 -0.0633782 -0.0423353)
(0.00137161 0.107453 0.0332439)
(-0.0696673 -0.00938099 0.090146)
(0.0365383 -0.00551337 0.0139653)
(-0.135133 0.0386739 -0.0789441)
(-0.151366 0.020829 0.0785039)
(-0.191639 -0.00799273 0.0345514)
(-0.0836936 -0.0468205 -0.0170183)
(-0.200082 0.102258 -0.0377373)
(-0.127208 -0.0732321 0.0428702)
(-0.117511 0.0780992 -0.0471265)
(-0.214241 -0.0195244 0.0751667)
(-0.207479 -0.0651923 0.070226)
(-0.0872367 -0.0217813 -0.0837945)
(-0.0689698 -0.134755 -0.0686192)
(-0.0323121 -0.106834 0.0832056)
(0.0320243 -0.119025 0.00952383)
(-0.0282474 -0.0842146 0.0578014)
(-0.0784365 0.0358743 0.0631794)
(-0.0733169 0.0127687 0.0787601)
(-0.0643124 0.110392 -0.0322011)
(-0.0778927 0.0474705 -0.0877762)
(0.0456977 0.0681182 0.0235414)
(0.0112381 0.00502384 0.0523594)
(-0.095716 -0.0222952 -0.0583546)
(-0.0818515 0.0361066 0.0942565)
(-0.032725 0.0517231 0.0505854)
(-0.0603609 -0.0146542 0.0222414)
(-0.140408 0.06694 0.0950957)
(-0.0778977 -0.017539 -0.0698711)
(-0.119915 -0.0578818 0.082468)
(-0.0968393 -0.0934749 -0.0632927)
(-0.198797 -0.0701632 -0.0704129)
(-0.150074 0.0235719 0.00859801)
(-0.206955 -0.127534 -0.0190843)
(-0.0359899 -0.0469203 -0.0571289)
(-0.0776882 -0.183636 0.0236179)
(-0.014391 -0.127287 0.0192512)
(-0.055227 0.062485 0.0763587)
(-0.109953 0.00506898 -0.00122472)
(0.0219636 0.101055 0.0614815)
(-0.130463 0.0224051 -0.0184048)
(-0.127319 0.0536369 -0.0597651)
(-0.0470469 -0.0292619 0.0309262)
(0.00659457 0.0377675 -0.0331328)
(-0.145313 0.14688 -0.0560849)
(-0.174546 0.149384 0.0118332)
(-0.0984318 0.119056 0.078503)
(-0.0924777 0.0763768 0.089226)
(-0.025862 0.0562443 -0.0240495)
(-0.0910263 0.0489192 0.0808986)
(-0.0515898 0.00225545 -0.0792558)
(-0.0595193 0.0184907 -0.0602214)
(-0.174811 -0.0550975 0.0617809)
(-6.76777e-05 -0.0906328 -0.0186896)
(-0.0695399 -0.0651217 0.0741205)
(-0.00679925 -0.186848 -0.0594537)
(0.0340999 -0.0446016 -0.0745373)
(-0.0503083 -0.0176647 -0.074353)
(0.0156306 0.117693 0.056789)
(-0.109712 0.0487722 0.0477793)
(0.0381425 0.0914979 -0.0606385)
(-0.0570874 0.108352 -0.0892772)
(-0.0378959 0.0430453 -0.0912036)
(-0.122318 0.175655 -0.00665653)
(-0.0469993 0.079808 0.0926114)
(-0.0152375 0.131293 0.0437129)
(-0.0502788 0.0725293 0.0898214)
(-0.167853 0.0216678 -0.0621458)
(-0.0535646 0.0485543 0.0863376)
(-0.00796814 -0.0715206 0.031217)
(-0.084694 0.065367 -0.0103555)
(-0.132279 -0.000972453 -0.0593523)
(-0.0428694 -0.104912 0.0916898)
(-0.00482147 -0.165908 0.0394386)
(-0.0559478 -0.208193 0.0664321)
(-0.0623999 -0.225821 -0.0773226)
(0.0411897 -0.0729757 -0.0512589)
(0.0283545 0.116571 -0.0542116)
(0.0817856 0.018526 0.0200098)
(-0.0810189 0.101989 -0.0631754)
(0.0531769 0.00426275 0.00218348)
(0.00518143 0.0407677 0.0839113)
(-0.0944479 0.173621 -0.028475)
(0.0335981 0.0621908 0.0245913)
(-0.017562 0.187711 -0.0151481)
(-0.0614637 0.0589341 0.0962014)
(-0.0329614 0.126079 0.0675587)
(0.025334 0.0292754 0.0384858)
(-0.110467 -0.0788277 -0.0237666)
(0.0241036 -0.0516391 -0.0387568)
(-0.111908 -0.0217949 0.0811638)
(-0.0373794 -0.0758914 0.0978469)
(0.00837832 -0.161896 -0.000748011)
(-0.00441488 -0.189764 0.0103098)
(-0.0130191 -0.0775219 0.0770523)
(0.0220813 -0.19856 -0.0703625)
(0.0503438 -0.124988 -0.04939)
(0.0556046 0.0921699 0.066445)
(0.0565885 -0.0043811 0.0452572)
(-0.00976445 0.119116 -0.0825285)
(0.0195574 0.0104011 0.0685098)
(-0.0833027 0.0186553 -0.0498725)
(-0.006877 0.148016 -0.0831947)
(-0.0431924 0.0167302 -0.0426004)
(-0.0270375 0.012164 -0.0362688)
(-0.0664033 0.0873323 0.0971622)
(0.0289734 -0.00193823 0.0274835)
(-0.000489719 0.0637176 0.0848555)
(-0.0303076 -0.0568697 -0.0773699)
(-0.115707 -0.000903602 0.0635143)
(-0.0590435 -0.000461079 -0.0862913)
(-0.0831145 -0.147264 -0.0292302)
(0.050505 -0.144061 -0.00160806)
(-0.0955569 -0.127362 0.0659887)
(-0.0531644 -0.0312308 0.00596221)
(-0.112454 -0.211034 0.0455266)
(-0.0856214 -0.132279 -0.0356733)
(-0.0725421 0.11739 0.0210946)
(0.0566875 0.119976 0.0517247)
(-0.0755825 0.0866002 0.0727622)
(0.0558686 0.0743395 -0.0724991)
(-0.0681141 0.123799 -0.0768473)
(0.0165528 0.0317248 0.0636301)
(0.0560773 0.100681 -0.0676869)
(-0.0344447 0.0100433 -0.0227766)
(-0.0520175 0.0786098 -0.0932319)
(0.0531558 0.131537 -0.0157232)
(-0.0142538 0.0997701 0.0750669)
(-0.0708252 0.0905987 0.00047712)
(-0.087286 -0.0319972 -0.0722462)
(-0.000605417 0.0353716 -0.0501178)
(0.0616833 -0.115424 -0.046424)
(-0.0708455 -0.0172498 0.044752)
(0.0101083 -0.174609 0.0634209)
(0.0844158 -0.131283 0.0112557)
(-0.0620844 -0.130797 -0.0767306)
(0.0160785 -0.166478 0.0786334)
(-0.0202571 0.0956728 0.0881109)
(-0.0607302 0.14576 0.00594933)
(0.0833932 0.0282326 -0.0224676)
(-0.0490441 0.0096985 -0.0591777)
(-0.0309062 0.183337 0.0128667)
(0.019164 0.184131 0.0489324)
(0.0755197 0.0660212 -0.0532965)
(-0.0797554 0.070933 0.0408321)
(0.0485526 0.158635 -0.0591164)
(-0.0582592 0.121936 -0.0467164)
(-0.0588533 0.0112876 -0.070585)
(0.0711191 -0.0336102 0.065573)
(0.0634278 -0.10132 -0.0263591)
(-0.0506795 -0.0773078 0.077807)
(0.0138733 -0.0272659 0.0898704)
(-0.00977278 -0.0406982 -0.0890238)
(0.0754336 -0.162087 0.0158541)
(-0.101368 -0.136143 0.0226038)
(0.0717904 -0.228036 -0.0210883)
(0.00327638 -0.326853 -0.0338405)
(0.0387309 -0.0391559 0.00429423)
(-0.0597694 0.0929253 -0.0750695)
(0.0725609 0.0261761 0.052832)
(-0.0484416 0.12899 -0.0691305)
(-0.000218572 0.0522305 -0.0944764)
(0.0828624 0.0621475 0.060026)
(0.0808279 0.027924 -0.0243413)
(0.0520853 0.0459623 0.0802653)
(0.0798254 0.167961 0.030501)
(-0.00871612 0.00242647 0.0663228)
(-0.0346512 0.106483 -0.0213801)
(0.0493705 -0.0711341 0.0589494)
(0.117268 0.0277214 0.014906)
(-0.0275869 -0.0158561 -0.0773949)
(-0.0332944 -0.0534628 -0.0824286)
(-0.0139693 -0.0135196 -0.0681591)
(-0.0205698 -0.0780509 -0.0939453)
(0.0906578 -0.102491 -0.0452482)
(-0.0574883 -0.110334 -0.0611532)
(0.0478737 -0.251022 0.0810751)
(0.0790504 0.0305456 -0.0595877)
(0.0487674 -0.023973 0.00359207)
(-0.0559262 -0.00937619 0.008103)
(0.00406629 0.157099 -0.0555153)
(0.0417613 0.114239 -0.088843)
(-0.0496825 0.120248 -0.064583)
(-0.0117281 0.151374 0.0694494)
(-0.0310394 0.0339633 0.0445608)
(0.00832942 0.08579 0.0917521)
(-0.0159251 0.0756318 -0.0703025)
(0.0486572 -0.0162401 0.0840433)
(0.141309 -0.0319077 0.0298106)
(0.103959 0.0493925 -0.0549779)
(0.0252851 0.0190617 0.077889)
(0.0341189 -0.123096 -0.076343)
(0.0861699 -0.0430902 0.07497)
(0.0428626 -0.000311071 0.0456919)
(0.0168667 -0.00832449 0.0170807)
(0.0818281 -0.18829 -0.0496963)
(0.0142965 -0.301726 -0.0813293)
(-0.0746435 -0.00888675 0.0275923)
(0.0753717 0.0967426 0.0622268)
(0.0115745 0.15721 -0.0429611)
(-0.0542559 -0.00315855 -0.0175027)
(0.0857186 0.111177 -0.0621327)
(0.0355952 0.172192 0.0300375)
(0.121406 0.0700452 -0.0498543)
(-0.0114143 -0.00165459 0.0107543)
(0.024664 0.0247973 -0.0823729)
(0.032456 0.0450607 -0.0936338)
(0.135254 0.00815477 0.0706773)
(0.0937745 -0.0822411 0.0214179)
(0.110947 0.0141898 0.085855)
(0.0287297 0.0519728 0.0471559)
(0.115266 -0.117425 -0.0224779)
(0.0809801 -0.0041881 0.0673623)
(0.0510219 -0.0655732 0.0958524)
(-0.0711637 -0.0426567 0.0161895)
(0.0872562 -0.103537 -0.0172915)
(0.0349496 -0.335725 -0.0343705)
(-0.0478727 0.100299 -0.0663022)
(-0.0411365 0.0891424 -0.082723)
(0.0832797 0.131028 -0.00780053)
(0.0828852 0.135906 -0.0185856)
(0.00637189 -0.00194944 -0.0715098)
(-0.0477413 0.071537 -0.0641425)
(0.10533 0.071614 0.0747606)
(-0.0405204 0.0754979 0.0409564)
(0.13706 0.114258 0.0370226)
(0.161982 0.0794868 0.0244564)
(0.107582 0.126644 0.0109224)
(0.0859173 0.0247976 0.0989025)
(-0.0149977 0.0423138 0.0177907)
(0.138999 -0.0246902 0.0655163)
(0.0608612 0.0575148 -0.0320773)
(0.110371 -0.0986515 0.0526232)
(0.0403522 0.0237809 -0.0481611)
(0.0914515 -0.0364689 0.0446345)
(0.0714562 -0.170048 0.06673)
(-0.0759147 -0.240571 -0.0745416)
(0.0694365 -0.0330985 -0.0111575)
(-0.0457625 0.00384912 0.0686104)
(0.0933409 0.0869714 0.0497892)
(-0.0199106 0.126757 0.0637236)
(0.0894488 0.125128 -0.0362495)
(0.0742972 -0.00208995 0.0662407)
(0.00483829 -0.0209029 -0.049069)
(0.0230058 0.0853981 0.0914402)
(0.0229282 0.10327 0.0760271)
(0.0427609 0.126335 0.0461292)
(0.134047 -0.0255507 0.0583342)
(0.0236904 -0.0268196 -0.0742719)
(0.137068 0.0470749 -0.0608991)
(0.102469 0.050258 -0.0682897)
(-0.0265224 0.0308752 -0.00713378)
(0.119992 -0.0587816 0.0616343)
(0.0590984 -0.0680569 -0.0944004)
(-0.0691676 -0.0859124 -0.0476723)
(-0.0684683 -0.0733406 0.0414724)
(-0.00355371 -0.358933 -0.00847581)
(0.0329786 0.126061 0.0328597)
(0.0484311 0.121391 -0.055741)
(-0.00894012 0.021937 0.0928273)
(-0.0397676 0.102854 0.0646909)
(0.118875 0.0790017 0.0207332)
(-0.0555751 0.0719374 0.0420591)
(0.0302774 -0.0500132 0.00587075)
(0.115272 0.0666176 -0.07357)
(0.0416294 -0.0544401 -0.0201272)
(0.139017 -0.00690138 -0.0553473)
(0.020331 -0.0530734 0.0314698)
(0.00877634 -0.0553148 0.0253558)
(0.0185374 0.0157311 0.0840728)
(0.0819431 0.0759629 0.0564531)
(0.0176461 0.0758554 0.00572339)
(0.0793468 0.00149774 -0.0905495)
(0.0259157 0.0336174 -0.0703378)
(0.0662602 -0.074259 -0.0877276)
(-0.00255146 -0.0888361 0.096649)
(0.0240526 -0.281642 -0.0916641)
(0.0586196 -0.0128393 -0.0687419)
(0.0927911 0.0791741 -0.0241639)
(-0.0424682 -0.0399413 -0.0110481)
(-0.0551955 0.0393372 -0.069118)
(-0.0238493 -0.039211 -0.027076)
(-0.014088 0.0117102 0.0827316)
(0.065519 0.135907 0.0176644)
(0.106029 -0.00412617 -0.0718684)
(0.136329 0.079689 0.0436451)
(0.143116 0.00343333 0.057903)
(0.115079 -0.0504574 0.0510965)
(0.114973 -0.0620428 -0.0461214)
(0.0568716 0.107483 -0.00310715)
(-0.00730239 0.0667637 0.000373853)
(-0.0121923 0.0599113 0.0145446)
(0.108521 0.0274107 0.0701443)
(0.0282599 -0.113703 -0.0450248)
(0.0141775 -0.088576 0.0898661)
(-0.024619 -0.0363522 -0.0674632)
(-0.0282236 -0.36356 0.0218948)
(0.018813 0.134292 -0.0362429)
(0.0831525 0.0262441 0.0497981)
(0.0526078 -0.0211916 -0.057826)
(0.0734351 -0.0379184 -0.0102219)
(0.108037 0.0720177 -0.0408544)
(-0.0110955 -0.0248034 -0.0665135)
(0.00864977 0.0746955 0.0847338)
(0.13177 -0.0243385 0.0223397)
(0.00787638 0.10883 0.0264579)
(0.116884 0.0605299 -0.0789346)
(0.142689 -0.0101657 -0.0650797)
(0.124649 0.0913142 -0.0443317)
(0.131078 -0.0717631 0.0127719)
(0.00414329 -0.0555138 -0.0337328)
(0.0483875 -0.0181923 0.0956621)
(-0.00424445 -0.0623111 -0.046893)
(-0.0342193 -0.0598135 -0.0304008)
(0.0618208 0.0161071 -0.0828654)
(0.0790166 -0.155237 0.0279268)
(-0.0683671 -0.329636 -0.0291251)
(-0.0498636 -0.0533402 0.0609739)
(-0.0323802 -0.0394348 0.0842212)
(0.0355296 -0.0236745 -0.0869614)
(0.0890631 0.0266224 -0.067932)
(0.0454521 -0.0358567 -0.0828431)
(0.0575117 -0.0270948 -0.08821)
(-0.0343573 -0.0248398 -0.00636465)
(0.0686774 0.0493446 -0.0944625)
(0.0515933 0.0893828 -0.0618363)
(0.152712 0.086042 0.0252689)
(0.071737 -0.0534942 0.0710624)
(0.107608 0.0787971 0.073151)
(0.0932699 0.0525054 0.0890921)
(0.128505 -0.0109025 0.0964014)
(0.193407 -0.0279829 -0.0423493)
(0.174332 -0.0435818 0.0611307)
(0.0664296 0.0677507 0.0615907)
(0.177666 -0.075664 0.0476604)
(-0.0582012 -0.0366457 0.0468934)
(0.103531 -0.167438 -0.0738433)
(0.081662 0.145346 0.0746004)
(-0.00357603 0.0116371 -0.0514017)
(0.0205604 0.0216048 -0.0725404)
(0.173362 0.00107813 -0.0712521)
(0.112215 -0.0421959 0.0759319)
(0.219216 0.0814462 0.00630887)
(0.107018 -0.0501569 -0.0572481)
(0.147712 0.0741895 -0.0745208)
(0.104944 0.0358897 0.0545303)
(0.108929 -0.0282019 0.0298635)
(0.176653 -0.0718382 -0.0513068)
(0.254597 0.084004 0.0519923)
(0.189785 -0.0551488 -0.0704514)
(0.176042 -0.0190205 0.0794284)
(0.275833 0.00871794 -0.0916547)
(0.267393 0.0799896 -0.0587342)
(0.18367 0.0523808 -0.0706607)
(0.350837 0.0208096 -0.000365736)
(0.193614 -0.0279415 0.0680984)
(0.316506 -0.175647 -0.0096982)
)
;

boundaryField
{
    movingWall
    {
        type            fixedValue;
        value           uniform (1 0 0);
    }
    fixedWalls
    {
        type            noSlip;
    }
    frontAndBack
    {
        type            empty;
    }
}


// ************************************************************************* //
