/*--------------------------------*- C++ -*----------------------------------*\
| =========                 |                                                 |
| \\      /  F ield         | OpenFOAM: The Open Source CFD Toolbox           |
|  \\    /   O peration     | Version:  2312                                  |
|   \\  /    A nd           | Website:  www.openfoam.com                      |
|    \\/     M anipulation  |                                                 |
\*---------------------------------------------------------------------------*/
FoamFile
{
    version     2.0;
    format      ascii;
    arch        "LSB;label=32;scalar=64";
    class       volScalarField;
    location    "2.375";
    object      Ux;
}
// * * * * * * * * * * * * * * * * * * * * * * * * * * * * * * * * * * * * * //

dimensions      [0 1 -1 0 0 0 0];

internalField   nonuniform List<scalar> 
400
(
8.05841e-05
-0.00142632
-0.00474454
-0.00876806
-0.0138639
-0.020936
-0.0310144
-0.0447377
-0.061367
-0.0785038
-0.0930446
-0.102133
-0.104272
-0.0984897
-0.0846379
-0.064184
-0.0399485
-0.0153311
0.00120344
0.00320286
-0.00126569
-0.00602075
-0.0130073
-0.0208565
-0.0298195
-0.0414382
-0.0569895
-0.0755921
-0.0952252
-0.113333
-0.12769
-0.136582
-0.138802
-0.134096
-0.121762
-0.101513
-0.0746766
-0.0435129
-0.0118777
0.00206546
-0.00286764
-0.00976261
-0.0185519
-0.0287762
-0.0407681
-0.0557616
-0.0737512
-0.0939318
-0.114036
-0.131249
-0.14364
-0.15039
-0.151852
-0.148326
-0.140448
-0.126746
-0.104888
-0.0735014
-0.0352481
-0.00228423
-0.00403836
-0.0123156
-0.0219996
-0.0332799
-0.0464922
-0.0625864
-0.0813216
-0.100877
-0.118373
-0.131262
-0.138521
-0.14092
-0.139533
-0.13588
-0.130976
-0.124988
-0.114313
-0.0926516
-0.0567639
-0.0134171
-0.00457694
-0.0133926
-0.023072
-0.0342063
-0.0471605
-0.062661
-0.0797951
-0.0962836
-0.109098
-0.116107
-0.117201
-0.113988
-0.109123
-0.104242
-0.100232
-0.0985543
-0.0976002
-0.0899213
-0.0659012
-0.0262273
-0.00444024
-0.0129641
-0.0218929
-0.031946
-0.0433598
-0.0565248
-0.0703571
-0.0825942
-0.0904911
-0.0928362
-0.0908601
-0.087059
-0.0824183
-0.0767997
-0.071267
-0.0678775
-0.0687498
-0.0703185
-0.0597764
-0.029677
-0.00376184
-0.0112961
-0.0188965
-0.0270835
-0.0359355
-0.0455951
-0.055227
-0.0631267
-0.0674533
-0.0680722
-0.0668604
-0.0650017
-0.0616584
-0.0565497
-0.0504612
-0.0452512
-0.0434854
-0.0467624
-0.0450966
-0.0262813
-0.00275068
-0.00879675
-0.0146157
-0.0204644
-0.0261536
-0.0318194
-0.0365998
-0.0406724
-0.0427506
-0.0432592
-0.0435569
-0.043322
-0.0413043
-0.0373434
-0.032528
-0.0281977
-0.025693
-0.027926
-0.0296783
-0.0200217
-0.00157396
-0.0057812
-0.00960064
-0.0129918
-0.0153989
-0.016813
-0.0170967
-0.017252
-0.0173509
-0.0177025
-0.018699
-0.0193777
-0.0186399
-0.0163976
-0.014282
-0.0126821
-0.0120637
-0.0147609
-0.017918
-0.0144998
-0.000380516
-0.00260274
-0.0043919
-0.00545193
-0.00493778
-0.00248083
0.00133654
0.00524471
0.00775681
0.00851353
0.00773367
0.00679852
0.00631672
0.00593137
0.00430156
0.00216973
-0.000283618
-0.00506897
-0.00972314
-0.0113904
0.000715468
0.000409558
0.000487052
0.00144127
0.00425658
0.00968044
0.0168598
0.0246512
0.0304119
0.0335969
0.0340669
0.033206
0.0312752
0.0276228
0.0218656
0.0157034
0.00988904
0.00238886
-0.00426339
-0.0100727
0.00160853
0.00299296
0.0046846
0.00724153
0.011635
0.0188291
0.0282621
0.038711
0.0476995
0.053801
0.0562776
0.0557903
0.0525044
0.0458136
0.0365113
0.0269467
0.0181292
0.00807497
-0.000676774
-0.00990569
0.00221716
0.00498053
0.00800233
0.0117554
0.0171399
0.0250016
0.0353404
0.0469137
0.0576609
0.0658145
0.0700868
0.0701452
0.0660933
0.0577572
0.0466668
0.0351368
0.0242102
0.0121723
0.00156216
-0.0104419
0.00246448
0.00624373
0.0103208
0.0149916
0.0209952
0.0289015
0.0389654
0.0503209
0.0612492
0.0699934
0.0750138
0.0755497
0.0715994
0.0635112
0.0525497
0.0404451
0.0284162
0.0149394
0.00296142
-0.011357
0.00231049
0.00660912
0.0115358
0.0170146
0.0234921
0.0312931
0.0406022
0.0509081
0.0610314
0.0693501
0.0744293
0.0754816
0.0723965
0.0655043
0.0556007
0.044025
0.031492
0.0171996
0.00507135
-0.0119229
0.00151893
0.00607951
0.0116574
0.0178591
0.0248273
0.0326749
0.0414085
0.0506368
0.0595965
0.0671488
0.072104
0.073751
0.0717291
0.0662565
0.0577537
0.0472066
0.0342607
0.0213274
0.0104599
-0.0109897
-0.000133626
0.00336122
0.00962909
0.0168563
0.0246309
0.0329654
0.0417199
0.0505051
0.0587651
0.0657793
0.0707174
0.073042
0.0721447
0.0680507
0.060838
0.0515834
0.0381319
0.0311687
0.0186143
-0.00714466
-0.00305205
-0.000575262
0.00636779
0.0143322
0.0230445
0.0323823
0.041957
0.0513114
0.0599771
0.0674172
0.0730848
0.0763116
0.0769156
0.0747374
0.069426
0.0625447
0.0491958
0.0528205
0.0226011
0.00622912
-0.00714509
-0.0100569
0.00231726
0.0163477
0.0300334
0.0434221
0.0561094
0.0678533
0.0785005
0.0878647
0.0957291
0.101861
0.106137
0.108735
0.108868
0.108704
0.0978199
0.108194
0.0298901
0.0724913
0.040186
0.0600791
0.0859602
0.108812
0.127158
0.14314
0.158008
0.171943
0.184848
0.196669
0.207326
0.216744
0.224773
0.231509
0.23603
0.240798
0.233457
0.253728
0.127376
0.379368
)
;

boundaryField
{
    movingWall
    {
        type            calculated;
        value           uniform 1;
    }
    fixedWalls
    {
        type            calculated;
        value           uniform 0;
    }
    frontAndBack
    {
        type            empty;
    }
}


// ************************************************************************* //
