/*--------------------------------*- C++ -*----------------------------------*\
| =========                 |                                                 |
| \\      /  F ield         | OpenFOAM: The Open Source CFD Toolbox           |
|  \\    /   O peration     | Version:  2312                                  |
|   \\  /    A nd           | Website:  www.openfoam.com                      |
|    \\/     M anipulation  |                                                 |
\*---------------------------------------------------------------------------*/
FoamFile
{
    version     2.0;
    format      ascii;
    arch        "LSB;label=32;scalar=64";
    class       volScalarField;
    location    "2.375";
    object      Uy;
}
// * * * * * * * * * * * * * * * * * * * * * * * * * * * * * * * * * * * * * //

dimensions      [0 1 -1 0 0 0 0];

internalField   nonuniform List<scalar> 
400
(
-0.00027986
0.000447695
0.000963914
0.0014686
0.00226986
0.00340893
0.00504103
0.00714163
0.00867131
0.00871762
0.00702046
0.00403661
0.000383872
-0.00350482
-0.00739115
-0.0104241
-0.0112118
-0.00837115
-0.00252535
0.00191411
0.00171795
0.00506362
0.00678241
0.00804306
0.0104272
0.0145886
0.0198141
0.0241321
0.0258661
0.0237911
0.0177632
0.00871414
-0.00217479
-0.0139943
-0.0255332
-0.0347108
-0.0385925
-0.0324827
-0.0155791
0.00307323
0.00693918
0.0126373
0.0155914
0.0180892
0.0228453
0.0303433
0.0383558
0.0440331
0.0447709
0.0394865
0.0288402
0.0140875
-0.00313983
-0.02181
-0.0412105
-0.0594312
-0.071499
-0.0696816
-0.045651
-0.00685237
0.0141194
0.021468
0.0256997
0.0300052
0.0373478
0.0475495
0.057627
0.0635612
0.0620002
0.0522659
0.0360654
0.016316
-0.00483325
-0.0266179
-0.0491301
-0.0728479
-0.0950811
-0.106298
-0.0887449
-0.0291622
0.0224361
0.031041
0.0363104
0.0423038
0.0519644
0.0645451
0.0757021
0.080167
0.0747076
0.0596851
0.0385948
0.0155581
-0.00700882
-0.0285066
-0.0501814
-0.074283
-0.102385
-0.129081
-0.13233
-0.072971
0.030995
0.0405088
0.046545
0.0539404
0.0654438
0.0795811
0.0904743
0.0923034
0.0820375
0.0615298
0.036158
0.0108193
-0.0125064
-0.0337816
-0.0534596
-0.0738062
-0.099895
-0.134843
-0.162462
-0.121457
0.0389203
0.0491103
0.0556246
0.063874
0.0763808
0.0911433
0.10099
0.0999932
0.0855688
0.0612481
0.0336381
0.00700991
-0.0178338
-0.0404467
-0.0599276
-0.0774964
-0.0982911
-0.131599
-0.175403
-0.166089
0.0454824
0.0562535
0.0628527
0.0712671
0.0838222
0.0984524
0.106962
0.104352
0.0875796
0.0615212
0.0329807
0.00513455
-0.0216442
-0.0461
-0.0661066
-0.0823905
-0.0997112
-0.12781
-0.17824
-0.198793
0.0501697
0.0614758
0.067837
0.0757979
0.0875279
0.10128
0.108683
0.105885
0.0889073
0.0627479
0.033852
0.00484949
-0.023739
-0.0497096
-0.0698817
-0.0851782
-0.10054
-0.125177
-0.177292
-0.22016
0.0527614
0.0646073
0.070529
0.077505
0.0876283
0.0996496
0.106719
0.104216
0.0890581
0.0639789
0.0354524
0.00592522
-0.0235798
-0.0500815
-0.0700643
-0.0846544
-0.098719
-0.121461
-0.174084
-0.233903
0.0532366
0.0656661
0.0710552
0.0767149
0.0846986
0.0944162
0.100832
0.0989232
0.0865487
0.0641588
0.0370517
0.00800929
-0.0210954
-0.0468708
-0.0662262
-0.0804066
-0.0937525
-0.115188
-0.168877
-0.242712
0.0518073
0.0648628
0.0697482
0.0739847
0.0796074
0.0865556
0.0915611
0.0900813
0.0801732
0.0616378
0.0374129
0.0104934
-0.0164091
-0.0401994
-0.0585512
-0.0726219
-0.0857541
-0.106462
-0.161397
-0.248813
0.048829
0.0624947
0.0669797
0.0698905
0.0732762
0.0773999
0.0803989
0.0788575
0.070905
0.0560116
0.0356852
0.0125372
-0.0106519
-0.0312962
-0.0482231
-0.0621598
-0.0752399
-0.0955056
-0.152091
-0.253517
0.0448895
0.0589428
0.0630857
0.064878
0.0664063
0.0681279
0.0690513
0.0671062
0.060573
0.0488291
0.0327292
0.0142706
-0.00442421
-0.0216647
-0.0368354
-0.0502665
-0.0630409
-0.0828764
-0.140798
-0.257181
0.0401792
0.0543449
0.0581795
0.0591125
0.059282
0.0592519
0.0585526
0.0560699
0.0506576
0.0416878
0.0296116
0.0156227
0.00115206
-0.0127508
-0.0257367
-0.0380414
-0.0499889
-0.06954
-0.126931
-0.259645
0.0370076
0.0499817
0.0529022
0.052911
0.0520711
0.0508907
0.0491918
0.0463754
0.0418516
0.0351893
0.0264829
0.0163467
0.00561087
-0.00507398
-0.0155701
-0.0262116
-0.0369726
-0.0573797
-0.110965
-0.262413
0.0298528
0.0415124
0.044698
0.0449263
0.0439548
0.0423935
0.0403997
0.0377314
0.034093
0.0292457
0.0231715
0.0161534
0.00870468
0.00102354
-0.00683468
-0.0154597
-0.0249603
-0.0481362
-0.0961819
-0.26829
0.043692
0.0488229
0.0460245
0.0420963
0.0387425
0.0359061
0.0333336
0.0306821
0.0276789
0.0241658
0.0201627
0.0158278
0.0113231
0.00676436
0.00196076
-0.00451613
-0.0137948
-0.0391408
-0.0775365
-0.269744
0.0134229
0.00964121
0.0128584
0.0167377
0.0179882
0.017855
0.0172942
0.0165398
0.0155434
0.0142346
0.012646
0.0108567
0.00895058
0.00687209
0.00457244
0.000645262
-0.00450742
-0.0217918
-0.0430431
-0.227302
0.0932446
0.0691339
0.0430701
0.0285813
0.021137
0.0168494
0.0140514
0.0120644
0.010555
0.00934787
0.00832892
0.00742752
0.00659568
0.00576868
0.00483406
0.0035502
0.00209865
-0.00305595
0.00328521
-0.0984833
)
;

boundaryField
{
    movingWall
    {
        type            calculated;
        value           uniform 0;
    }
    fixedWalls
    {
        type            calculated;
        value           uniform 0;
    }
    frontAndBack
    {
        type            empty;
    }
}


// ************************************************************************* //
