/*--------------------------------*- C++ -*----------------------------------*\
| =========                 |                                                 |
| \\      /  F ield         | OpenFOAM: The Open Source CFD Toolbox           |
|  \\    /   O peration     | Version:  2312                                  |
|   \\  /    A nd           | Website:  www.openfoam.com                      |
|    \\/     M anipulation  |                                                 |
\*---------------------------------------------------------------------------*/
FoamFile
{
    version     2.0;
    format      ascii;
    arch        "LSB;label=32;scalar=64";
    class       volVectorField;
    location    "2.375";
    object      vorticityField;
}
// * * * * * * * * * * * * * * * * * * * * * * * * * * * * * * * * * * * * * //

dimensions      [0 0 -1 0 0 0 0];

internalField   nonuniform List<vector> 
400
(
(0 -0 0.135294)
(0 -0 0.869085)
(0 -0 1.87728)
(0 -0 3.09305)
(0 -0 4.56238)
(0 -0 6.51454)
(0 -0 9.17366)
(0 -0 12.396)
(0 -0 15.8168)
(0 -0 19.0186)
(0 -0 21.6053)
(0 -0 23.2079)
(0 -0 23.5532)
(0 -0 22.481)
(0 -0 19.948)
(0 -0 16.1876)
(0 -0 11.6678)
(0 -0 6.75305)
(0 -0 2.09595)
(0 -0 -0.465708)
(0 -0 0.97298)
(0 -0 1.34007)
(0 -0 1.67868)
(0 -0 2.36529)
(0 -0 3.34496)
(0 -0 4.42124)
(0 -0 5.22803)
(0 -0 5.5246)
(0 -0 5.23276)
(0 -0 4.4642)
(0 -0 3.55189)
(0 -0 2.83191)
(0 -0 2.48713)
(0 -0 2.64783)
(0 -0 3.50932)
(0 -0 4.95024)
(0 -0 6.71677)
(0 -0 8.11837)
(0 -0 7.20075)
(0 -0 1.7993)
(0 -0 2.23492)
(0 -0 1.4947)
(0 -0 1.44442)
(0 -0 1.96773)
(0 -0 2.89268)
(0 -0 3.66588)
(0 -0 3.80218)
(0 -0 3.16995)
(0 -0 1.86008)
(0 -0 0.199876)
(0 -0 -1.45675)
(0 -0 -2.7642)
(0 -0 -3.51662)
(0 -0 -3.62863)
(0 -0 -2.84068)
(0 -0 -0.681313)
(0 -0 2.93858)
(0 -0 7.49867)
(0 -0 10.7715)
(0 -0 6.79859)
(0 -0 3.72967)
(0 -0 1.52103)
(0 -0 1.30573)
(0 -0 1.70783)
(0 -0 2.39368)
(0 -0 2.71786)
(0 -0 2.20556)
(0 -0 0.672502)
(0 -0 -1.62333)
(0 -0 -4.10763)
(0 -0 -6.23892)
(0 -0 -7.73007)
(0 -0 -8.56629)
(0 -0 -8.83816)
(0 -0 -8.64456)
(0 -0 -7.41424)
(0 -0 -4.07384)
(0 -0 2.27561)
(0 -0 10.7789)
(0 -0 14.185)
(0 -0 5.3879)
(0 -0 1.45228)
(0 -0 1.11562)
(0 -0 1.43201)
(0 -0 1.91089)
(0 -0 1.76761)
(0 -0 0.465741)
(0 -0 -1.92769)
(0 -0 -4.83633)
(0 -0 -7.45388)
(0 -0 -9.1788)
(0 -0 -9.94651)
(0 -0 -10.118)
(0 -0 -10.2253)
(0 -0 -10.5485)
(0 -0 -10.9315)
(0 -0 -10.0361)
(0 -0 -5.22778)
(0 -0 5.91223)
(0 -0 22.1561)
(0 -0 7.06887)
(0 -0 1.34535)
(0 -0 0.925597)
(0 -0 1.17759)
(0 -0 1.44158)
(0 -0 0.796454)
(0 -0 -1.18459)
(0 -0 -4.15937)
(0 -0 -7.24179)
(0 -0 -9.39144)
(0 -0 -10.1051)
(0 -0 -9.76509)
(0 -0 -9.20652)
(0 -0 -8.86452)
(0 -0 -8.97953)
(0 -0 -9.97386)
(0 -0 -11.5151)
(0 -0 -10.5726)
(0 -0 -0.741887)
(0 -0 28.3973)
(0 -0 8.6341)
(0 -0 1.25369)
(0 -0 0.748645)
(0 -0 0.927463)
(0 -0 1.00632)
(0 -0 -0.00963962)
(0 -0 -2.49074)
(0 -0 -5.73428)
(0 -0 -8.64857)
(0 -0 -10.1508)
(0 -0 -10.1541)
(0 -0 -9.52089)
(0 -0 -8.85705)
(0 -0 -8.15501)
(0 -0 -7.57888)
(0 -0 -7.80433)
(0 -0 -9.71594)
(0 -0 -11.9505)
(0 -0 -6.45877)
(0 -0 33.1836)
(0 -0 9.95481)
(0 -0 1.18554)
(0 -0 0.571773)
(0 -0 0.687786)
(0 -0 0.664867)
(0 -0 -0.564257)
(0 -0 -3.22304)
(0 -0 -6.52568)
(0 -0 -9.29334)
(0 -0 -10.4969)
(0 -0 -10.4548)
(0 -0 -10.0249)
(0 -0 -9.4253)
(0 -0 -8.46145)
(0 -0 -7.24697)
(0 -0 -6.61736)
(0 -0 -7.68408)
(0 -0 -11.053)
(0 -0 -9.81616)
(0 -0 36.5251)
(0 -0 10.9275)
(0 -0 1.14733)
(0 -0 0.409836)
(0 -0 0.467843)
(0 -0 0.426618)
(0 -0 -0.818365)
(0 -0 -3.33313)
(0 -0 -6.56926)
(0 -0 -9.36445)
(0 -0 -10.6828)
(0 -0 -10.9189)
(0 -0 -10.7712)
(0 -0 -10.218)
(0 -0 -8.94174)
(0 -0 -7.22981)
(0 -0 -6.10263)
(0 -0 -6.54079)
(0 -0 -9.96085)
(0 -0 -11.4938)
(0 -0 38.8821)
(0 -0 11.5079)
(0 -0 1.15768)
(0 -0 0.281008)
(0 -0 0.266617)
(0 -0 0.248904)
(0 -0 -0.740236)
(0 -0 -2.93905)
(0 -0 -5.95644)
(0 -0 -8.79994)
(0 -0 -10.4905)
(0 -0 -11.082)
(0 -0 -11.1616)
(0 -0 -10.5922)
(0 -0 -9.05048)
(0 -0 -7.07204)
(0 -0 -5.70402)
(0 -0 -5.87596)
(0 -0 -9.25147)
(0 -0 -12.6096)
(0 -0 40.3559)
(0 -0 11.6914)
(0 -0 1.22229)
(0 -0 0.197236)
(0 -0 0.0949927)
(0 -0 0.112848)
(0 -0 -0.517657)
(0 -0 -2.24186)
(0 -0 -4.77495)
(0 -0 -7.4707)
(0 -0 -9.47845)
(0 -0 -10.4693)
(0 -0 -10.7139)
(0 -0 -10.1068)
(0 -0 -8.5013)
(0 -0 -6.57456)
(0 -0 -5.23034)
(0 -0 -5.31939)
(0 -0 -8.82688)
(0 -0 -13.6571)
(0 -0 41.0105)
(0 -0 11.5168)
(0 -0 1.33699)
(0 -0 0.160658)
(0 -0 -0.0454966)
(0 -0 -0.0312366)
(0 -0 -0.336745)
(0 -0 -1.4955)
(0 -0 -3.36503)
(0 -0 -5.56924)
(0 -0 -7.49779)
(0 -0 -8.71643)
(0 -0 -9.07612)
(0 -0 -8.5511)
(0 -0 -7.22765)
(0 -0 -5.72237)
(0 -0 -4.66363)
(0 -0 -4.81611)
(0 -0 -8.54266)
(0 -0 -14.8176)
(0 -0 41.0579)
(0 -0 11.0468)
(0 -0 1.49)
(0 -0 0.175948)
(0 -0 -0.145361)
(0 -0 -0.185069)
(0 -0 -0.294973)
(0 -0 -0.924579)
(0 -0 -2.11039)
(0 -0 -3.63956)
(0 -0 -5.14121)
(0 -0 -6.22105)
(0 -0 -6.60966)
(0 -0 -6.29284)
(0 -0 -5.52687)
(0 -0 -4.6902)
(0 -0 -4.05152)
(0 -0 -4.36328)
(0 -0 -8.37156)
(0 -0 -16.1649)
(0 -0 40.7059)
(0 -0 10.3739)
(0 -0 1.65676)
(0 -0 0.240163)
(0 -0 -0.193862)
(0 -0 -0.310229)
(0 -0 -0.364649)
(0 -0 -0.628351)
(0 -0 -1.24728)
(0 -0 -2.16476)
(0 -0 -3.13794)
(0 -0 -3.8901)
(0 -0 -4.24898)
(0 -0 -4.22385)
(0 -0 -4.01584)
(0 -0 -3.75356)
(0 -0 -3.50937)
(0 -0 -3.98917)
(0 -0 -8.27841)
(0 -0 -17.7813)
(0 -0 39.9459)
(0 -0 9.54696)
(0 -0 1.81645)
(0 -0 0.343103)
(0 -0 -0.176502)
(0 -0 -0.369272)
(0 -0 -0.450277)
(0 -0 -0.562504)
(0 -0 -0.821083)
(0 -0 -1.27294)
(0 -0 -1.82014)
(0 -0 -2.31553)
(0 -0 -2.66608)
(0 -0 -2.85031)
(0 -0 -2.9634)
(0 -0 -3.04947)
(0 -0 -3.10137)
(0 -0 -3.73431)
(0 -0 -8.33304)
(0 -0 -19.7604)
(0 -0 38.6209)
(0 -0 8.94334)
(0 -0 1.91425)
(0 -0 0.483599)
(0 -0 -0.0672746)
(0 -0 -0.315914)
(0 -0 -0.455152)
(0 -0 -0.563303)
(0 -0 -0.693718)
(0 -0 -0.891984)
(0 -0 -1.17979)
(0 -0 -1.51307)
(0 -0 -1.84324)
(0 -0 -2.11689)
(0 -0 -2.37274)
(0 -0 -2.63749)
(0 -0 -2.89609)
(0 -0 -3.7808)
(0 -0 -8.79612)
(0 -0 -21.8576)
(0 -0 36.86)
(0 -0 7.59362)
(0 -0 2.15)
(0 -0 0.87035)
(0 -0 0.278368)
(0 -0 -0.0750106)
(0 -0 -0.326246)
(0 -0 -0.521058)
(0 -0 -0.698133)
(0 -0 -0.886633)
(0 -0 -1.11898)
(0 -0 -1.40731)
(0 -0 -1.70275)
(0 -0 -2.03164)
(0 -0 -2.40203)
(0 -0 -2.81555)
(0 -0 -3.34637)
(0 -0 -4.76116)
(0 -0 -10.2715)
(0 -0 -23.2295)
(0 -0 34.7253)
(0 -0 9.95264)
(0 -0 1.57506)
(0 -0 0.0585257)
(0 -0 -0.677345)
(0 -0 -1.15928)
(0 -0 -1.58656)
(0 -0 -1.96134)
(0 -0 -2.3003)
(0 -0 -2.62518)
(0 -0 -2.96015)
(0 -0 -3.33496)
(0 -0 -3.76582)
(0 -0 -4.30562)
(0 -0 -5.00471)
(0 -0 -5.9311)
(0 -0 -7.2876)
(0 -0 -9.43127)
(0 -0 -14.0767)
(0 -0 -24.1879)
(0 -0 26.7644)
(0 -0 -2.0174)
(0 -0 -6.12188)
(0 -0 -7.2496)
(0 -0 -8.935)
(0 -0 -10.2997)
(0 -0 -11.1452)
(0 -0 -11.7366)
(0 -0 -12.2382)
(0 -0 -12.7176)
(0 -0 -13.2149)
(0 -0 -13.7619)
(0 -0 -14.4128)
(0 -0 -15.1842)
(0 -0 -16.115)
(0 -0 -17.2831)
(0 -0 -18.7333)
(0 -0 -20.6698)
(0 -0 -23.9443)
(0 -0 -31.0285)
(0 -0 -10.2794)
(0 -0 -180.458)
(0 -0 -200.015)
(0 -0 -195.228)
(0 -0 -189.677)
(0 -0 -185.454)
(0 -0 -182.052)
(0 -0 -179.067)
(0 -0 -176.37)
(0 -0 -173.937)
(0 -0 -171.769)
(0 -0 -169.887)
(0 -0 -168.313)
(0 -0 -167.075)
(0 -0 -166.152)
(0 -0 -165.732)
(0 -0 -165.323)
(0 -0 -167.533)
(0 -0 -163.689)
(0 -0 -193.816)
(0 -0 -145.294)
)
;

boundaryField
{
    movingWall
    {
        type            calculated;
        value           nonuniform List<vector> 
20
(
(0 -0 -367.688)
(0 -0 -380.986)
(0 -0 -369.671)
(0 -0 -358.669)
(0 -0 -350.31)
(0 -0 -343.452)
(0 -0 -337.275)
(0 -0 -331.573)
(0 -0 -326.332)
(0 -0 -321.555)
(0 -0 -317.262)
(0 -0 -313.476)
(0 -0 -310.257)
(0 -0 -307.572)
(0 -0 -305.81)
(0 -0 -303.954)
(0 -0 -307.278)
(0 -0 -298.39)
(0 -0 -358.592)
(0 -0 -238.733)
)
;
    }
    fixedWalls
    {
        type            calculated;
        value           nonuniform List<vector> 
60
(
(0 -0 0.00656696)
(0 -0 0.982005)
(0 -0 3.05294)
(0 -0 5.81868)
(0 -0 9.01463)
(0 -0 12.3165)
(0 -0 15.3992)
(0 -0 17.9742)
(0 -0 19.8308)
(0 -0 20.8756)
(0 -0 21.0958)
(0 -0 20.5728)
(0 -0 19.446)
(0 -0 17.9465)
(0 -0 16.1662)
(0 -0 15.0474)
(0 -0 12.3982)
(0 -0 18.178)
(0 -0 1.04534)
(0 -0 -159.398)
(0 -0 -1.29248)
(0 -0 -0.680582)
(0 -0 4.28921)
(0 -0 14.0592)
(0 -0 30.8144)
(0 -0 48.5881)
(0 -0 65.4699)
(0 -0 78.3389)
(0 -0 87.2009)
(0 -0 93.1183)
(0 -0 96.9364)
(0 -0 99.5619)
(0 -0 101.552)
(0 -0 103.02)
(0 -0 103.821)
(0 -0 104.487)
(0 -0 105.594)
(0 -0 99.9339)
(0 -0 53.6068)
(0 -0 -115.421)
(0 -0 -0.0154502)
(0 -0 0.694906)
(0 -0 1.99991)
(0 -0 3.63782)
(0 -0 5.73961)
(0 -0 8.65153)
(0 -0 12.779)
(0 -0 18.2581)
(0 -0 24.7044)
(0 -0 31.2364)
(0 -0 36.7497)
(0 -0 40.1897)
(0 -0 40.9547)
(0 -0 38.6184)
(0 -0 33.1632)
(0 -0 25.2915)
(0 -0 16.1847)
(0 -0 7.00108)
(0 -0 0.547149)
(0 -0 -1.22002)
)
;
    }
    frontAndBack
    {
        type            empty;
    }
}


// ************************************************************************* //
