/*--------------------------------*- C++ -*----------------------------------*\
| =========                 |                                                 |
| \\      /  F ield         | OpenFOAM: The Open Source CFD Toolbox           |
|  \\    /   O peration     | Version:  2312                                  |
|   \\  /    A nd           | Website:  www.openfoam.com                      |
|    \\/     M anipulation  |                                                 |
\*---------------------------------------------------------------------------*/
FoamFile
{
    version     2.0;
    format      ascii;
    arch        "LSB;label=32;scalar=64";
    class       volScalarField;
    location    "2.375";
    object      zeroGradient(epsilon);
}
// * * * * * * * * * * * * * * * * * * * * * * * * * * * * * * * * * * * * * //

dimensions      [0 2 -3 0 0 0 0];

internalField   nonuniform List<scalar> 
400
(
6.55351e-05
0.000138825
0.000285822
0.000508092
0.000840102
0.00134845
0.0021106
0.00314227
0.00428577
0.0051281
0.00550626
0.00561262
0.00550899
0.00515435
0.00466639
0.00390896
0.00282384
0.00131164
0.000329682
0.000101945
0.000121299
0.000151997
0.00026331
0.000422254
0.000676044
0.00109694
0.00169879
0.00237106
0.00282938
0.00296351
0.00296225
0.00297434
0.00320756
0.00361768
0.00410081
0.00458804
0.00481852
0.00392089
0.00159696
0.000282128
0.000265936
0.000212131
0.000319981
0.000490838
0.000783178
0.00125713
0.00186351
0.00224052
0.00234515
0.00234352
0.00233332
0.00246803
0.00273845
0.00316474
0.00380192
0.00470348
0.00584319
0.00664138
0.0053659
0.0017729
0.000479373
0.000305109
0.000422143
0.000638715
0.00101805
0.00157658
0.00193954
0.00203227
0.00194991
0.00179456
0.00174633
0.00176977
0.00195014
0.00224685
0.0027749
0.00372502
0.00531452
0.00777039
0.0098479
0.00718528
0.000749109
0.00040516
0.00053122
0.000810765
0.00127083
0.00171982
0.00185541
0.0017757
0.00149451
0.00133929
0.00128002
0.00126676
0.00133232
0.0015095
0.00188572
0.00264877
0.00416478
0.0070758
0.0122739
0.0156735
0.00105034
0.000497078
0.000621344
0.000946007
0.00142273
0.00169514
0.00171432
0.00146923
0.00116015
0.00101822
0.000947917
0.000918785
0.00091949
0.00104026
0.00130425
0.00187072
0.00317254
0.00610088
0.0127787
0.0226266
0.00135535
0.000569841
0.000675956
0.0010111
0.00145332
0.00163758
0.00155573
0.00122318
0.00093396
0.00079997
0.000713514
0.000674095
0.000669103
0.000768881
0.000993064
0.00143436
0.00247791
0.00523091
0.0124161
0.0273392
0.00164457
0.000619429
0.000680986
0.00100308
0.00141669
0.00154909
0.00141592
0.00106356
0.000792482
0.00066041
0.000562175
0.000515837
0.000508411
0.000599317
0.000812856
0.0012006
0.00205171
0.00452261
0.0118714
0.0307261
0.00189377
0.000647976
0.000666916
0.000961756
0.0013389
0.00146557
0.00132874
0.000984193
0.000713575
0.000572289
0.000481269
0.000437926
0.000437134
0.000523801
0.000737536
0.00110279
0.00185733
0.00416468
0.0116675
0.0334492
0.00209285
0.000661848
0.000634026
0.000877391
0.00122553
0.00139514
0.0012973
0.000994046
0.000720363
0.000569756
0.000476277
0.000421407
0.000424094
0.000505879
0.000723923
0.0010813
0.00178494
0.00394452
0.0116611
0.0360425
0.00223467
0.000674195
0.000591114
0.000780555
0.00108818
0.0013147
0.00128162
0.00104585
0.000766459
0.000598445
0.000501249
0.000452309
0.000470942
0.000565491
0.000810365
0.00115324
0.00177977
0.00384526
0.012117
0.0387629
0.00228349
0.000703113
0.000556591
0.000684457
0.00094329
0.00120161
0.00126581
0.00115621
0.000897221
0.000690736
0.00057727
0.000536449
0.000568656
0.000687161
0.000957086
0.00126427
0.00181685
0.00380952
0.0127496
0.0419124
0.00225496
0.000736468
0.000531312
0.00060606
0.00080368
0.00105544
0.0012219
0.00119806
0.00109134
0.000904891
0.000764553
0.000718461
0.000752357
0.000866821
0.00108422
0.00132153
0.00182424
0.00374445
0.0135589
0.0457117
0.00216669
0.000751565
0.000513879
0.000549825
0.00068677
0.000901066
0.00110709
0.00118316
0.001161
0.00108996
0.000985665
0.000924541
0.000938209
0.000999082
0.00113083
0.0013341
0.00177171
0.00354793
0.0143686
0.0504926
0.00197693
0.000738202
0.000495404
0.00050857
0.000597781
0.000764142
0.000947451
0.00110035
0.00113934
0.00111787
0.00106753
0.00101142
0.0010058
0.00103308
0.00111707
0.00128596
0.00166841
0.0032649
0.014987
0.0566832
0.0018264
0.000703549
0.000482138
0.000490314
0.00055425
0.000677581
0.000819537
0.000950387
0.00103902
0.00106224
0.0010461
0.00100946
0.000995119
0.00101442
0.00108714
0.00125492
0.00162616
0.00314494
0.0153801
0.0649846
0.0015208
0.000602943
0.000482893
0.000512677
0.000590059
0.000709557
0.00084285
0.000967376
0.0010601
0.00110329
0.00110846
0.00110143
0.00110677
0.0011422
0.00124019
0.00146361
0.00191378
0.00377554
0.0179278
0.076431
0.00167183
0.000759192
0.000826343
0.00099445
0.00118313
0.00138275
0.00157764
0.00175409
0.0019008
0.00201297
0.0020972
0.0021854
0.00228678
0.00245631
0.00267462
0.00307152
0.00393887
0.00770625
0.0249909
0.0945955
0.00282368
0.00465766
0.00717641
0.00898853
0.0102914
0.0113161
0.0121287
0.0128059
0.013343
0.0138467
0.0143118
0.0148565
0.0154193
0.0162459
0.0171178
0.0184862
0.0209642
0.0318932
0.048759
0.126676
0.0436644
0.0846262
0.122498
0.145363
0.158328
0.165785
0.169655
0.171528
0.171597
0.171336
0.170705
0.170116
0.169535
0.169586
0.169998
0.171159
0.174785
0.17592
0.191739
0.166742
)
;

boundaryField
{
    movingWall
    {
        type            zeroGradient;
    }
    fixedWalls
    {
        type            zeroGradient;
    }
    frontAndBack
    {
        type            empty;
    }
}


// ************************************************************************* //
