/*--------------------------------*- C++ -*----------------------------------*\
| =========                 |                                                 |
| \\      /  F ield         | OpenFOAM: The Open Source CFD Toolbox           |
|  \\    /   O peration     | Version:  2312                                  |
|   \\  /    A nd           | Website:  www.openfoam.com                      |
|    \\/     M anipulation  |                                                 |
\*---------------------------------------------------------------------------*/
FoamFile
{
    version     2.0;
    format      ascii;
    arch        "LSB;label=32;scalar=64";
    class       volVectorField;
    location    "2.75";
    object      diffU;
}
// * * * * * * * * * * * * * * * * * * * * * * * * * * * * * * * * * * * * * //

dimensions      [0 1 -1 0 0 0 0];

internalField   nonuniform List<vector> 
400
(
(0 0 0)
(8.61323e-06 -1.92486e-06 0)
(6.0925e-06 -1.46085e-06 0)
(6.9771e-06 -1.56759e-06 0)
(6.71299e-06 -1.54342e-06 0)
(6.81378e-06 -1.54814e-06 0)
(6.79238e-06 -1.54637e-06 0)
(6.80843e-06 -1.54577e-06 0)
(6.81025e-06 -1.54508e-06 0)
(6.815e-06 -1.54453e-06 0)
(6.81746e-06 -1.54411e-06 0)
(6.81963e-06 -1.54379e-06 0)
(6.82113e-06 -1.54356e-06 0)
(6.82226e-06 -1.54338e-06 0)
(6.82307e-06 -1.54324e-06 0)
(6.82366e-06 -1.54314e-06 0)
(6.82407e-06 -1.54306e-06 0)
(6.82434e-06 -1.543e-06 0)
(6.8245e-06 -1.54295e-06 0)
(6.82456e-06 -1.5429e-06 0)
(-4.68157e-07 -2.7585e-06 0)
(8.79566e-06 -1.17628e-06 0)
(6.03425e-06 -1.64733e-06 0)
(6.99786e-06 -1.53301e-06 0)
(6.70485e-06 -1.56636e-06 0)
(6.81678e-06 -1.55486e-06 0)
(6.79243e-06 -1.55462e-06 0)
(6.80967e-06 -1.55139e-06 0)
(6.81099e-06 -1.54947e-06 0)
(6.81569e-06 -1.54775e-06 0)
(6.81794e-06 -1.54651e-06 0)
(6.82e-06 -1.54556e-06 0)
(6.82138e-06 -1.54486e-06 0)
(6.82244e-06 -1.54433e-06 0)
(6.82319e-06 -1.54393e-06 0)
(6.82373e-06 -1.54363e-06 0)
(6.82411e-06 -1.54339e-06 0)
(6.82436e-06 -1.54321e-06 0)
(6.82451e-06 -1.54306e-06 0)
(6.82456e-06 -1.54293e-06 0)
(-2.9185e-06 -2.16836e-07 0)
(9.31914e-06 -1.84986e-06 0)
(5.81379e-06 -1.51345e-06 0)
(7.0402e-06 -1.59447e-06 0)
(6.692e-06 -1.5697e-06 0)
(6.8238e-06 -1.5681e-06 0)
(6.79467e-06 -1.56116e-06 0)
(6.81259e-06 -1.55704e-06 0)
(6.813e-06 -1.55334e-06 0)
(6.81725e-06 -1.55066e-06 0)
(6.81907e-06 -1.54862e-06 0)
(6.8208e-06 -1.54712e-06 0)
(6.82194e-06 -1.546e-06 0)
(6.82282e-06 -1.54516e-06 0)
(6.82344e-06 -1.54453e-06 0)
(6.82388e-06 -1.54405e-06 0)
(6.82419e-06 -1.54368e-06 0)
(6.8244e-06 -1.54339e-06 0)
(6.82452e-06 -1.54315e-06 0)
(6.82456e-06 -1.54295e-06 0)
(-2.5848e-06 -1.3591e-06 0)
(9.28973e-06 -1.91085e-06 0)
(5.84971e-06 -1.53752e-06 0)
(7.04556e-06 -1.64357e-06 0)
(6.70382e-06 -1.57515e-06 0)
(6.83028e-06 -1.58109e-06 0)
(6.80071e-06 -1.56614e-06 0)
(6.81666e-06 -1.56188e-06 0)
(6.81616e-06 -1.55634e-06 0)
(6.81949e-06 -1.55297e-06 0)
(6.82069e-06 -1.55025e-06 0)
(6.82194e-06 -1.54833e-06 0)
(6.82274e-06 -1.54688e-06 0)
(6.82335e-06 -1.5458e-06 0)
(6.82378e-06 -1.54499e-06 0)
(6.8241e-06 -1.54437e-06 0)
(6.82431e-06 -1.5439e-06 0)
(6.82445e-06 -1.54353e-06 0)
(6.82453e-06 -1.54323e-06 0)
(6.82456e-06 -1.54297e-06 0)
(1.54805e-06 4.29678e-07 0)
(8.17482e-06 -2.68621e-06 0)
(6.29868e-06 -1.36137e-06 0)
(6.94946e-06 -1.73068e-06 0)
(6.76331e-06 -1.56213e-06 0)
(6.82896e-06 -1.59421e-06 0)
(6.81279e-06 -1.56774e-06 0)
(6.82081e-06 -1.56542e-06 0)
(6.82049e-06 -1.55809e-06 0)
(6.82214e-06 -1.55446e-06 0)
(6.82273e-06 -1.55124e-06 0)
(6.82334e-06 -1.54908e-06 0)
(6.82372e-06 -1.54742e-06 0)
(6.82401e-06 -1.54619e-06 0)
(6.82421e-06 -1.54527e-06 0)
(6.82436e-06 -1.54457e-06 0)
(6.82445e-06 -1.54404e-06 0)
(6.82452e-06 -1.54362e-06 0)
(6.82455e-06 -1.54327e-06 0)
(6.82457e-06 -1.54297e-06 0)
(1.31073e-05 -1.88825e-06 0)
(5.20282e-06 -2.13717e-06 0)
(7.4417e-06 -1.47519e-06 0)
(6.66302e-06 -1.70288e-06 0)
(6.88691e-06 -1.56744e-06 0)
(6.8096e-06 -1.59413e-06 0)
(6.83155e-06 -1.56867e-06 0)
(6.82371e-06 -1.56618e-06 0)
(6.82575e-06 -1.55864e-06 0)
(6.8249e-06 -1.55489e-06 0)
(6.82503e-06 -1.55154e-06 0)
(6.82487e-06 -1.54929e-06 0)
(6.82481e-06 -1.54756e-06 0)
(6.82474e-06 -1.54629e-06 0)
(6.82469e-06 -1.54533e-06 0)
(6.82465e-06 -1.54461e-06 0)
(6.82461e-06 -1.54407e-06 0)
(6.82459e-06 -1.54363e-06 0)
(6.82457e-06 -1.54328e-06 0)
(6.82457e-06 -1.54297e-06 0)
(1.96652e-05 -2.55561e-07 0)
(3.37027e-06 -2.12498e-06 0)
(8.12312e-06 -1.48418e-06 0)
(6.48089e-06 -1.65235e-06 0)
(6.96913e-06 -1.57567e-06 0)
(6.7996e-06 -1.58409e-06 0)
(6.84621e-06 -1.56886e-06 0)
(6.82734e-06 -1.56412e-06 0)
(6.83064e-06 -1.55806e-06 0)
(6.82776e-06 -1.55421e-06 0)
(6.82733e-06 -1.55111e-06 0)
(6.82645e-06 -1.54892e-06 0)
(6.82594e-06 -1.54728e-06 0)
(6.82549e-06 -1.54607e-06 0)
(6.82518e-06 -1.54517e-06 0)
(6.82495e-06 -1.5445e-06 0)
(6.82478e-06 -1.54398e-06 0)
(6.82466e-06 -1.54358e-06 0)
(6.8246e-06 -1.54325e-06 0)
(6.82457e-06 -1.54296e-06 0)
(1.70192e-05 -1.22258e-06 0)
(4.18306e-06 -1.52205e-06 0)
(7.86643e-06 -1.60538e-06 0)
(6.57806e-06 -1.57085e-06 0)
(6.95153e-06 -1.58404e-06 0)
(6.81525e-06 -1.57117e-06 0)
(6.84989e-06 -1.56698e-06 0)
(6.83298e-06 -1.56066e-06 0)
(6.83424e-06 -1.55627e-06 0)
(6.83071e-06 -1.55263e-06 0)
(6.82944e-06 -1.54997e-06 0)
(6.82799e-06 -1.54801e-06 0)
(6.82701e-06 -1.54658e-06 0)
(6.82622e-06 -1.54555e-06 0)
(6.82565e-06 -1.54478e-06 0)
(6.82524e-06 -1.54422e-06 0)
(6.82494e-06 -1.54379e-06 0)
(6.82474e-06 -1.54345e-06 0)
(6.82462e-06 -1.54318e-06 0)
(6.82457e-06 -1.54294e-06 0)
(1.37385e-05 -1.9233e-06 0)
(4.88214e-06 -1.33649e-06 0)
(7.56741e-06 -1.61927e-06 0)
(6.63579e-06 -1.54743e-06 0)
(6.93162e-06 -1.57666e-06 0)
(6.82516e-06 -1.56418e-06 0)
(6.85274e-06 -1.56236e-06 0)
(6.83752e-06 -1.55695e-06 0)
(6.83743e-06 -1.55339e-06 0)
(6.83333e-06 -1.55033e-06 0)
(6.83136e-06 -1.54816e-06 0)
(6.82938e-06 -1.54659e-06 0)
(6.82798e-06 -1.5455e-06 0)
(6.82688e-06 -1.54473e-06 0)
(6.82608e-06 -1.54418e-06 0)
(6.82549e-06 -1.54379e-06 0)
(6.82508e-06 -1.54349e-06 0)
(6.8248e-06 -1.54326e-06 0)
(6.82463e-06 -1.54308e-06 0)
(6.82457e-06 -1.54291e-06 0)
(1.32665e-05 -4.95909e-07 0)
(5.10713e-06 -1.82247e-06 0)
(7.49135e-06 -1.50443e-06 0)
(6.66412e-06 -1.58054e-06 0)
(6.92312e-06 -1.56226e-06 0)
(6.83176e-06 -1.56183e-06 0)
(6.85556e-06 -1.5568e-06 0)
(6.8414e-06 -1.55292e-06 0)
(6.84025e-06 -1.54972e-06 0)
(6.83561e-06 -1.54737e-06 0)
(6.833e-06 -1.54576e-06 0)
(6.83055e-06 -1.54472e-06 0)
(6.82878e-06 -1.54406e-06 0)
(6.82741e-06 -1.54366e-06 0)
(6.82641e-06 -1.5434e-06 0)
(6.82569e-06 -1.54323e-06 0)
(6.82519e-06 -1.5431e-06 0)
(6.82485e-06 -1.54301e-06 0)
(6.82465e-06 -1.54295e-06 0)
(6.82457e-06 -1.54287e-06 0)
(1.32172e-05 -2.28742e-06 0)
(5.08251e-06 -1.39865e-06 0)
(7.49547e-06 -1.60546e-06 0)
(6.66038e-06 -1.56636e-06 0)
(6.93046e-06 -1.56251e-06 0)
(6.83577e-06 -1.5577e-06 0)
(6.86028e-06 -1.55153e-06 0)
(6.8448e-06 -1.54815e-06 0)
(6.84294e-06 -1.54532e-06 0)
(6.83751e-06 -1.54375e-06 0)
(6.83433e-06 -1.54282e-06 0)
(6.83143e-06 -1.54243e-06 0)
(6.82936e-06 -1.54232e-06 0)
(6.82777e-06 -1.54237e-06 0)
(6.82663e-06 -1.54247e-06 0)
(6.82582e-06 -1.54257e-06 0)
(6.82525e-06 -1.54265e-06 0)
(6.82487e-06 -1.54272e-06 0)
(6.82465e-06 -1.5428e-06 0)
(6.82457e-06 -1.54283e-06 0)
(1.45522e-05 -7.98369e-07 0)
(4.61235e-06 -2.00988e-06 0)
(7.66357e-06 -1.4697e-06 0)
(6.62072e-06 -1.61295e-06 0)
(6.95617e-06 -1.54814e-06 0)
(6.83807e-06 -1.55556e-06 0)
(6.86712e-06 -1.54437e-06 0)
(6.84792e-06 -1.54232e-06 0)
(6.84544e-06 -1.5399e-06 0)
(6.83891e-06 -1.53939e-06 0)
(6.83519e-06 -1.53936e-06 0)
(6.8319e-06 -1.53979e-06 0)
(6.82961e-06 -1.54036e-06 0)
(6.82789e-06 -1.54094e-06 0)
(6.82669e-06 -1.54145e-06 0)
(6.82584e-06 -1.54186e-06 0)
(6.82526e-06 -1.54218e-06 0)
(6.82488e-06 -1.54242e-06 0)
(6.82465e-06 -1.54264e-06 0)
(6.82457e-06 -1.5428e-06 0)
(1.73737e-05 -5.41493e-07 0)
(4.20757e-06 -1.80532e-06 0)
(7.89747e-06 -1.51856e-06 0)
(6.59702e-06 -1.59994e-06 0)
(6.98641e-06 -1.54492e-06 0)
(6.84243e-06 -1.54749e-06 0)
(6.87486e-06 -1.53518e-06 0)
(6.85063e-06 -1.53449e-06 0)
(6.8473e-06 -1.53321e-06 0)
(6.83948e-06 -1.53424e-06 0)
(6.83535e-06 -1.53543e-06 0)
(6.83179e-06 -1.53692e-06 0)
(6.82943e-06 -1.53828e-06 0)
(6.82771e-06 -1.53947e-06 0)
(6.82654e-06 -1.54042e-06 0)
(6.82574e-06 -1.54116e-06 0)
(6.8252e-06 -1.54171e-06 0)
(6.82485e-06 -1.54212e-06 0)
(6.82464e-06 -1.54248e-06 0)
(6.82457e-06 -1.54276e-06 0)
(1.79473e-05 -3.58293e-06 0)
(3.32836e-06 -1.8417e-06 0)
(8.13387e-06 -1.49553e-06 0)
(6.49479e-06 -1.63741e-06 0)
(7.0482e-06 -1.51503e-06 0)
(6.83926e-06 -1.53891e-06 0)
(6.88569e-06 -1.52016e-06 0)
(6.85104e-06 -1.52446e-06 0)
(6.84801e-06 -1.52493e-06 0)
(6.83862e-06 -1.5284e-06 0)
(6.83446e-06 -1.53123e-06 0)
(6.83087e-06 -1.534e-06 0)
(6.82869e-06 -1.53626e-06 0)
(6.82715e-06 -1.53809e-06 0)
(6.82615e-06 -1.5395e-06 0)
(6.82549e-06 -1.54054e-06 0)
(6.82505e-06 -1.54131e-06 0)
(6.82478e-06 -1.54187e-06 0)
(6.82462e-06 -1.54236e-06 0)
(6.82457e-06 -1.54273e-06 0)
(3.2008e-05 5.15207e-06 0)
(8.23299e-07 -3.36803e-06 0)
(9.36073e-06 -1.14109e-06 0)
(6.29899e-06 -1.686e-06 0)
(7.15529e-06 -1.47544e-06 0)
(6.82515e-06 -1.51902e-06 0)
(6.89579e-06 -1.50016e-06 0)
(6.84766e-06 -1.51109e-06 0)
(6.84617e-06 -1.51547e-06 0)
(6.8356e-06 -1.52228e-06 0)
(6.8321e-06 -1.5272e-06 0)
(6.82893e-06 -1.5314e-06 0)
(6.82729e-06 -1.53457e-06 0)
(6.82617e-06 -1.53701e-06 0)
(6.82551e-06 -1.5388e-06 0)
(6.82509e-06 -1.5401e-06 0)
(6.82484e-06 -1.54103e-06 0)
(6.82468e-06 -1.5417e-06 0)
(6.82459e-06 -1.54227e-06 0)
(6.82456e-06 -1.54271e-06 0)
(2.84793e-05 -9.99531e-06 0)
(-1.47035e-08 -1.47011e-06 0)
(9.48126e-06 -1.51551e-06 0)
(6.15664e-06 -1.62685e-06 0)
(7.2475e-06 -1.40871e-06 0)
(6.80498e-06 -1.48641e-06 0)
(6.9017e-06 -1.47131e-06 0)
(6.83716e-06 -1.49607e-06 0)
(6.84031e-06 -1.50583e-06 0)
(6.82949e-06 -1.51698e-06 0)
(6.82795e-06 -1.52411e-06 0)
(6.82586e-06 -1.52964e-06 0)
(6.82522e-06 -1.53355e-06 0)
(6.82479e-06 -1.53642e-06 0)
(6.82464e-06 -1.53847e-06 0)
(6.82457e-06 -1.53991e-06 0)
(6.82455e-06 -1.54092e-06 0)
(6.82455e-06 -1.54165e-06 0)
(6.82456e-06 -1.54225e-06 0)
(6.82456e-06 -1.54271e-06 0)
(8.40666e-05 1.45777e-05 0)
(-1.20288e-05 -6.57183e-06 0)
(1.44413e-05 -4.6363e-08 0)
(5.13404e-06 -1.69249e-06 0)
(7.61512e-06 -1.2615e-06 0)
(6.68784e-06 -1.43732e-06 0)
(6.9088e-06 -1.44314e-06 0)
(6.81148e-06 -1.48169e-06 0)
(6.82961e-06 -1.4997e-06 0)
(6.81983e-06 -1.51411e-06 0)
(6.82208e-06 -1.52312e-06 0)
(6.82183e-06 -1.52932e-06 0)
(6.82266e-06 -1.53357e-06 0)
(6.82314e-06 -1.53655e-06 0)
(6.82363e-06 -1.53862e-06 0)
(6.82398e-06 -1.54005e-06 0)
(6.82424e-06 -1.54102e-06 0)
(6.82441e-06 -1.54172e-06 0)
(6.82452e-06 -1.54229e-06 0)
(6.82456e-06 -1.54273e-06 0)
(9.01111e-05 -3.20532e-05 0)
(-1.57703e-05 9.13762e-06 0)
(1.52113e-05 -3.29812e-06 0)
(4.60289e-06 -2.19498e-07 0)
(7.63003e-06 -1.48468e-06 0)
(6.58429e-06 -1.28822e-06 0)
(6.87273e-06 -1.46026e-06 0)
(6.77983e-06 -1.46827e-06 0)
(6.81222e-06 -1.50332e-06 0)
(6.80843e-06 -1.51507e-06 0)
(6.81512e-06 -1.52543e-06 0)
(6.81748e-06 -1.53089e-06 0)
(6.81997e-06 -1.53487e-06 0)
(6.82149e-06 -1.53749e-06 0)
(6.82264e-06 -1.53932e-06 0)
(6.82341e-06 -1.54053e-06 0)
(6.82394e-06 -1.54135e-06 0)
(6.82428e-06 -1.54193e-06 0)
(6.82448e-06 -1.5424e-06 0)
(6.82455e-06 -1.54276e-06 0)
(3.08519e-05 1.51519e-05 0)
(2.05924e-06 6.28443e-06 0)
(8.26032e-06 -2.9389e-06 0)
(6.30805e-06 3.82064e-07 0)
(6.68182e-06 -1.74216e-06 0)
(6.68687e-06 -1.20551e-06 0)
(6.73329e-06 -1.51926e-06 0)
(6.76986e-06 -1.4701e-06 0)
(6.78609e-06 -1.51844e-06 0)
(6.80041e-06 -1.52135e-06 0)
(6.80806e-06 -1.53135e-06 0)
(6.81392e-06 -1.53454e-06 0)
(6.81758e-06 -1.5375e-06 0)
(6.82014e-06 -1.53924e-06 0)
(6.82182e-06 -1.54052e-06 0)
(6.82295e-06 -1.54134e-06 0)
(6.82369e-06 -1.54188e-06 0)
(6.82417e-06 -1.54225e-06 0)
(6.82445e-06 -1.54256e-06 0)
(6.82455e-06 -1.54281e-06 0)
(-0.000254987 -3.10892e-05 0)
(7.44444e-05 1.46175e-05 0)
(-1.90807e-05 -5.25855e-06 0)
(1.32851e-05 2.6562e-07 0)
(4.09885e-06 -1.91791e-06 0)
(7.32007e-06 -1.32299e-06 0)
(6.47221e-06 -1.56184e-06 0)
(6.8165e-06 -1.50712e-06 0)
(6.75507e-06 -1.53626e-06 0)
(6.80083e-06 -1.5343e-06 0)
(6.80276e-06 -1.53904e-06 0)
(6.81236e-06 -1.53987e-06 0)
(6.81612e-06 -1.54099e-06 0)
(6.81946e-06 -1.54159e-06 0)
(6.82138e-06 -1.54207e-06 0)
(6.8227e-06 -1.54235e-06 0)
(6.82354e-06 -1.54254e-06 0)
(6.82411e-06 -1.54267e-06 0)
(6.82443e-06 -1.54278e-06 0)
(6.82455e-06 -1.54286e-06 0)
)
;

boundaryField
{
    movingWall
    {
        type            calculated;
        value           uniform (6.82457e-06 -1.54289e-06 0);
    }
    fixedWalls
    {
        type            calculated;
        value           uniform (6.82457e-06 -1.54289e-06 0);
    }
    frontAndBack
    {
        type            empty;
    }
}


// ************************************************************************* //
