/*--------------------------------*- C++ -*----------------------------------*\
| =========                 |                                                 |
| \\      /  F ield         | OpenFOAM: The Open Source CFD Toolbox           |
|  \\    /   O peration     | Version:  2312                                  |
|   \\  /    A nd           | Website:  www.openfoam.com                      |
|    \\/     M anipulation  |                                                 |
\*---------------------------------------------------------------------------*/
FoamFile
{
    version     2.0;
    format      ascii;
    arch        "LSB;label=32;scalar=64";
    class       volScalarField;
    location    "2.75";
    object      divPhi;
}
// * * * * * * * * * * * * * * * * * * * * * * * * * * * * * * * * * * * * * //

dimensions      [0 0 -1 0 0 0 0];

internalField   nonuniform List<scalar> 
400
(
3.75515e-08
1.20366e-09
1.4704e-09
1.22159e-09
8.53699e-10
5.54978e-10
3.28528e-10
1.78557e-10
6.77213e-11
-4.36271e-12
-6.12608e-11
-9.78982e-11
-1.2857e-10
-1.45588e-10
-1.60746e-10
-1.68715e-10
-1.57045e-10
-1.59524e-10
-1.98312e-10
-7.65989e-11
1.3903e-09
7.84501e-10
9.99623e-10
8.64201e-10
6.55852e-10
4.2786e-10
2.68667e-10
1.34852e-10
5.1256e-11
-2.06129e-11
-6.48931e-11
-1.04283e-10
-1.28205e-10
-1.49491e-10
-1.5951e-10
-1.63307e-10
-1.71343e-10
-1.67135e-10
-1.44451e-10
-1.02891e-10
-2.2865e-09
-1.14944e-10
2.85268e-10
3.82519e-10
3.19374e-10
2.32414e-10
1.39426e-10
6.9988e-11
9.43599e-12
-3.39617e-11
-7.15155e-11
-9.84618e-11
-1.21156e-10
-1.36215e-10
-1.48356e-10
-1.55538e-10
-1.43042e-10
-1.42687e-10
-1.93402e-10
-5.6514e-11
-6.34692e-10
-3.81473e-10
-9.48349e-11
3.37371e-11
7.57285e-11
6.19083e-11
3.90856e-11
7.2113e-12
-1.9465e-11
-4.69902e-11
-6.93523e-11
-9.00808e-11
-1.06181e-10
-1.20627e-10
-1.29003e-10
-1.29899e-10
-1.40869e-10
-1.46858e-10
-9.97069e-11
-8.45678e-11
-2.05923e-09
-6.05014e-10
-3.45394e-10
-1.90314e-10
-1.15215e-10
-7.16424e-11
-5.56751e-11
-4.77702e-11
-5.12407e-11
-5.73817e-11
-6.80976e-11
-7.89226e-11
-9.01906e-11
-9.92341e-11
-1.07829e-10
-1.15634e-10
-1.0299e-10
-9.70735e-11
-1.55612e-10
-3.17942e-11
-8.87067e-10
-5.7248e-10
-4.1645e-10
-2.95609e-10
-2.01988e-10
-1.41839e-10
-9.7765e-11
-7.31702e-11
-5.84102e-11
-5.45748e-11
-5.59793e-11
-6.17646e-11
-6.88169e-11
-7.73374e-11
-8.34002e-11
-8.38427e-11
-9.73143e-11
-1.06485e-10
-5.07737e-11
-5.49962e-11
-1.37767e-09
-5.42356e-10
-4.07084e-10
-2.98974e-10
-2.19117e-10
-1.53085e-10
-1.07129e-10
-7.28217e-11
-5.33743e-11
-4.2433e-11
-4.00889e-11
-4.20642e-11
-4.73855e-11
-5.30109e-11
-5.99474e-11
-6.93101e-11
-6.01512e-11
-5.13252e-11
-9.93897e-11
-1.0327e-11
-6.04931e-10
-4.04156e-10
-3.23541e-10
-2.47746e-10
-1.78558e-10
-1.24077e-10
-7.98705e-11
-4.99382e-11
-2.99865e-11
-2.04585e-11
-1.75563e-11
-1.98541e-11
-2.4789e-11
-3.17819e-11
-3.8036e-11
-4.07012e-11
-5.57075e-11
-6.24814e-11
-1.35843e-11
-2.43403e-11
-8.46003e-10
-2.97055e-10
-2.07386e-10
-1.42325e-10
-9.28479e-11
-5.36e-11
-2.48625e-11
-5.18443e-12
5.65347e-12
9.49998e-12
8.01872e-12
2.79518e-12
-4.16177e-12
-1.14324e-11
-1.95827e-11
-3.11485e-11
-2.75881e-11
-2.00715e-11
-4.36634e-11
1.54499e-12
6.71121e-11
-9.33555e-11
-6.82612e-11
-3.66165e-11
-9.91429e-12
1.0815e-11
2.46851e-11
3.24807e-11
3.43174e-11
3.18063e-11
2.56642e-11
1.79074e-11
9.03725e-12
5.15548e-14
-8.11112e-12
-1.40884e-11
-2.90993e-11
-2.87472e-11
1.38478e-12
-2.71051e-12
-4.91306e-10
-2.86728e-11
2.71065e-11
5.06434e-11
6.24845e-11
6.64297e-11
6.66507e-11
6.23785e-11
5.57255e-11
4.63662e-11
3.62176e-11
2.52627e-11
1.50045e-11
5.82725e-12
-3.14956e-12
-1.50155e-11
-1.57168e-11
-1.24226e-11
-6.76279e-12
1.11131e-12
6.83237e-10
1.32732e-10
1.00515e-10
8.99323e-11
8.30559e-11
7.60808e-11
6.79786e-11
5.85985e-11
4.83581e-11
3.75422e-11
2.68433e-11
1.66551e-11
7.37655e-12
-9.15327e-13
-7.89444e-12
-1.4478e-11
-2.60234e-11
-1.5803e-11
-7.76475e-12
3.11708e-12
-4.25712e-10
3.46954e-11
5.06637e-11
4.72648e-11
3.94653e-11
3.32628e-11
2.59799e-11
1.98807e-11
1.26309e-11
6.1629e-12
-6.44869e-13
-6.59811e-12
-1.21967e-11
-1.64142e-11
-2.09375e-11
-2.78774e-11
-2.77632e-11
-2.76064e-11
3.28288e-14
-9.1073e-12
5.47603e-10
2.94857e-11
-1.90019e-11
-3.87035e-11
-4.60746e-11
-4.82545e-11
-4.82773e-11
-4.68608e-11
-4.61164e-11
-4.44502e-11
-4.40781e-11
-4.25589e-11
-4.2399e-11
-4.11425e-11
-4.08487e-11
-4.10707e-11
-4.47936e-11
-2.48152e-11
-3.22642e-11
-6.4239e-12
-6.45588e-10
-1.78901e-10
-1.77463e-10
-1.80708e-10
-1.75202e-10
-1.67007e-10
-1.52885e-10
-1.40793e-10
-1.25496e-10
-1.14102e-10
-1.00633e-10
-9.13409e-11
-8.07228e-11
-7.33012e-11
-6.58267e-11
-6.27179e-11
-5.46729e-11
-5.39897e-11
-2.06131e-11
-2.37982e-11
-2.44488e-10
-2.95401e-10
-3.09505e-10
-3.07978e-10
-2.93019e-10
-2.74893e-10
-2.49676e-10
-2.26793e-10
-2.00418e-10
-1.78605e-10
-1.55238e-10
-1.36905e-10
-1.18372e-10
-1.04266e-10
-9.02896e-11
-7.98849e-11
-7.14758e-11
-4.78018e-11
-5.95951e-11
-2.54516e-11
-8.94711e-10
-4.48931e-10
-4.44663e-10
-4.24147e-10
-4.10854e-10
-3.76333e-10
-3.53204e-10
-3.12744e-10
-2.86431e-10
-2.4713e-10
-2.21757e-10
-1.8793e-10
-1.66116e-10
-1.39564e-10
-1.21518e-10
-1.02277e-10
-8.556e-11
-8.03142e-11
-5.99487e-11
-4.10371e-11
-8.73623e-10
-5.34445e-10
-5.14748e-10
-4.99403e-10
-4.7049e-10
-4.45137e-10
-4.07015e-10
-3.74346e-10
-3.3308e-10
-2.98593e-10
-2.59668e-10
-2.27672e-10
-1.94764e-10
-1.68075e-10
-1.4161e-10
-1.18666e-10
-1.0044e-10
-8.16258e-11
-8.88508e-11
-4.82741e-11
-9.05959e-10
-5.12887e-10
-4.92797e-10
-4.77269e-10
-4.52432e-10
-4.2955e-10
-3.96632e-10
-3.67004e-10
-3.30144e-10
-2.98158e-10
-2.62063e-10
-2.31553e-10
-2.0032e-10
-1.73926e-10
-1.46965e-10
-1.24095e-10
-1.04191e-10
-9.81555e-11
-9.96115e-11
-4.98462e-11
-3.69333e-10
-2.37305e-10
-2.31992e-10
-2.20906e-10
-2.12992e-10
-1.9803e-10
-1.86266e-10
-1.6881e-10
-1.54824e-10
-1.37124e-10
-1.22732e-10
-1.06957e-10
-9.40003e-11
-8.02581e-11
-6.81963e-11
-5.71103e-11
-5.03612e-11
-5.13912e-11
-4.98462e-11
0
)
;

boundaryField
{
    movingWall
    {
        type            extrapolatedCalculated;
        value           nonuniform List<scalar> 
20
(
-3.69333e-10
-2.37305e-10
-2.31992e-10
-2.20906e-10
-2.12992e-10
-1.9803e-10
-1.86266e-10
-1.6881e-10
-1.54824e-10
-1.37124e-10
-1.22732e-10
-1.06957e-10
-9.40003e-11
-8.02581e-11
-6.81963e-11
-5.71103e-11
-5.03612e-11
-5.13912e-11
-4.98462e-11
0
)
;
    }
    fixedWalls
    {
        type            extrapolatedCalculated;
        value           nonuniform List<scalar> 
60
(
3.75515e-08
1.3903e-09
-2.2865e-09
-6.34692e-10
-2.05923e-09
-8.87067e-10
-1.37767e-09
-6.04931e-10
-8.46003e-10
6.71121e-11
-4.91306e-10
6.83237e-10
-4.25712e-10
5.47603e-10
-6.45588e-10
-2.44488e-10
-8.94711e-10
-8.73623e-10
-9.05959e-10
-3.69333e-10
-7.65989e-11
-1.02891e-10
-5.6514e-11
-8.45678e-11
-3.17942e-11
-5.49962e-11
-1.0327e-11
-2.43403e-11
1.54499e-12
-2.71051e-12
1.11131e-12
3.11708e-12
-9.1073e-12
-6.4239e-12
-2.37982e-11
-2.54516e-11
-4.10371e-11
-4.82741e-11
-4.98462e-11
0
3.75515e-08
1.20366e-09
1.4704e-09
1.22159e-09
8.53699e-10
5.54978e-10
3.28528e-10
1.78557e-10
6.77213e-11
-4.36271e-12
-6.12608e-11
-9.78982e-11
-1.2857e-10
-1.45588e-10
-1.60746e-10
-1.68715e-10
-1.57045e-10
-1.59524e-10
-1.98312e-10
-7.65989e-11
)
;
    }
    frontAndBack
    {
        type            empty;
    }
}


// ************************************************************************* //
