/*--------------------------------*- C++ -*----------------------------------*\
| =========                 |                                                 |
| \\      /  F ield         | OpenFOAM: The Open Source CFD Toolbox           |
|  \\    /   O peration     | Version:  2312                                  |
|   \\  /    A nd           | Website:  www.openfoam.com                      |
|    \\/     M anipulation  |                                                 |
\*---------------------------------------------------------------------------*/
FoamFile
{
    version     2.0;
    format      ascii;
    arch        "LSB;label=32;scalar=64";
    class       volScalarField;
    location    "2.75";
    object      divU;
}
// * * * * * * * * * * * * * * * * * * * * * * * * * * * * * * * * * * * * * //

dimensions      [0 0 -1 0 0 0 0];

internalField   nonuniform List<scalar> 
400
(
-0.000470862
0.000607714
-0.000165853
6.05668e-05
-1.87315e-05
6.21756e-06
-2.05561e-06
6.48973e-07
-2.18766e-07
7.08839e-08
-2.10403e-08
9.19851e-09
-9.45487e-10
2.01236e-09
7.93024e-10
9.17809e-10
6.65332e-10
3.36857e-10
-4.55858e-10
1.49934e-09
-0.000553847
0.000657741
-0.000185039
6.43723e-05
-2.07366e-05
6.76258e-06
-2.19078e-06
7.29051e-07
-2.23489e-07
8.17587e-08
-1.99936e-08
1.09965e-08
-3.54148e-10
2.46215e-09
9.95769e-10
1.08139e-09
7.66315e-10
3.01155e-10
-4.36655e-10
1.40529e-09
-0.000584908
0.000799772
-0.000216913
7.67653e-05
-2.25197e-05
7.64442e-06
-2.2731e-06
7.83939e-07
-2.21626e-07
8.43948e-08
-1.93909e-08
1.05055e-08
-6.55425e-10
2.09266e-09
7.49309e-10
7.65791e-10
5.31209e-10
3.63385e-10
-3.15676e-10
1.17663e-09
-0.000629769
0.000759815
-0.000209208
7.1791e-05
-2.0771e-05
7.07836e-06
-2.01945e-06
7.0685e-07
-1.92746e-07
7.3174e-08
-1.68212e-08
8.58586e-09
-7.3935e-10
1.57082e-09
4.92237e-10
5.64997e-10
3.65784e-10
1.778e-10
-2.7859e-10
8.98912e-10
-0.000445542
0.000452432
-0.000116303
4.05312e-05
-1.12788e-05
3.64343e-06
-1.06719e-06
3.40314e-07
-9.76477e-08
3.26176e-08
-8.60017e-09
3.44788e-09
-4.56573e-10
7.16714e-10
3.03159e-10
1.78215e-10
5.66885e-11
2.23117e-10
-5.81146e-11
5.14508e-10
0.000397576
-0.000510438
0.000133739
-4.76461e-05
1.33024e-05
-4.52379e-06
1.29913e-06
-4.49487e-07
1.20982e-07
-4.73872e-08
1.0403e-08
-5.32228e-09
8.27748e-10
-4.95404e-10
1.507e-10
-1.15747e-10
-9.82487e-11
6.11602e-11
3.00661e-11
1.10887e-10
0.0010052
-0.00109269
0.000298044
-0.000102196
3.02099e-05
-9.99573e-06
2.94391e-06
-1.00578e-06
2.78754e-07
-1.04771e-07
2.4954e-08
-1.15066e-08
2.0301e-09
-1.23153e-09
1.6098e-10
-4.59299e-10
-4.59609e-10
4.19602e-11
2.94748e-10
-3.3163e-10
0.000588543
-0.000836433
0.00022599
-8.09979e-05
2.36205e-05
-8.17246e-06
2.42398e-06
-8.49271e-07
2.40946e-07
-9.1619e-08
2.29914e-08
-1.01892e-08
2.05513e-09
-1.21637e-09
-3.69346e-11
-6.70997e-10
-6.107e-10
-5.28448e-11
3.76716e-10
-7.82116e-10
0.000569818
-0.000647151
0.000185461
-6.45475e-05
2.11147e-05
-6.95361e-06
2.2547e-06
-7.57594e-07
2.37186e-07
-8.1613e-08
2.49301e-08
-8.80392e-09
2.3843e-09
-1.18406e-09
-7.22059e-11
-8.44264e-10
-9.73192e-10
-1.97611e-10
5.90288e-10
-1.16481e-09
0.000436036
-0.000583729
0.00015708
-5.87171e-05
1.818e-05
-6.10828e-06
2.04644e-06
-6.50109e-07
2.28405e-07
-6.70095e-08
2.7016e-08
-6.14427e-09
3.22528e-09
-7.72013e-10
-3.36728e-11
-9.99887e-10
-1.10955e-09
-2.36528e-10
6.1999e-10
-1.5323e-09
0.00043481
-0.000590912
0.00016126
-5.97424e-05
1.89507e-05
-6.39067e-06
2.14559e-06
-6.73386e-07
2.51892e-07
-6.31558e-08
3.28159e-08
-4.59741e-09
4.26378e-09
-5.79188e-10
-1.55426e-10
-1.23908e-09
-1.47883e-09
-5.69733e-10
6.61383e-10
-1.75261e-09
0.000726131
-0.000729526
0.000209526
-7.40973e-05
2.34935e-05
-7.88373e-06
2.61918e-06
-8.02716e-07
3.09536e-07
-7.43698e-08
3.85458e-08
-6.52376e-09
3.88691e-09
-1.627e-09
-8.21496e-10
-1.91014e-09
-1.83512e-09
-6.57424e-10
4.80865e-10
-1.94216e-09
0.000514757
-0.000930805
0.000236363
-9.35527e-05
2.7852e-05
-9.48942e-06
3.24061e-06
-9.70055e-07
3.82598e-07
-9.68298e-08
4.32012e-08
-1.27703e-08
1.74554e-09
-4.06036e-09
-2.03093e-09
-2.54477e-09
-2.2525e-09
-1.20867e-09
2.61436e-10
-1.78568e-09
0.00133201
-0.00113761
0.00035439
-0.000117173
4.13947e-05
-1.34037e-05
4.6813e-06
-1.42817e-06
5.31807e-07
-1.58291e-07
4.82203e-08
-2.59065e-08
-1.63208e-09
-7.4135e-09
-3.33065e-09
-3.43915e-09
-2.51518e-09
-1.15671e-09
3.44037e-13
-1.53146e-09
0.00127698
-0.00222757
0.00054557
-0.000219488
6.32488e-05
-2.0699e-05
7.13602e-06
-2.12278e-06
7.04157e-07
-2.65222e-07
4.55181e-08
-4.53554e-08
-5.72257e-09
-1.09645e-08
-4.33884e-09
-3.73351e-09
-2.40395e-09
-1.40302e-09
-2.76697e-10
-8.66684e-10
0.00242411
-0.00222019
0.000726607
-0.000224025
8.62289e-05
-2.64093e-05
8.92028e-06
-3.19909e-06
8.09113e-07
-4.18764e-07
4.45789e-08
-6.52023e-08
-6.90603e-09
-1.28171e-08
-3.98922e-09
-3.49285e-09
-1.8372e-09
-8.69545e-10
-3.14451e-10
-8.22367e-11
0.00363308
-0.00590176
0.00153802
-0.000541882
0.000147783
-5.08137e-05
1.34695e-05
-5.13841e-06
1.08578e-06
-5.61937e-07
6.77781e-08
-6.80846e-08
-6.52724e-10
-9.38913e-09
-1.21219e-09
-1.34887e-09
-2.54111e-10
-2.41021e-10
-2.43807e-10
9.46752e-10
0.00612659
-0.00620436
0.00174806
-0.000550672
0.000150073
-5.25493e-05
1.19422e-05
-4.89153e-06
9.85858e-07
-4.34252e-07
8.18722e-08
-3.73567e-08
7.88045e-09
-1.58336e-09
2.24858e-09
9.47644e-10
9.52642e-10
5.74215e-10
1.60712e-11
1.93411e-09
0.0020226
-0.00171118
0.000228838
-0.000109339
-5.44166e-06
1.67078e-06
-1.85886e-06
1.39505e-06
-2.38068e-07
2.74122e-07
-9.89777e-09
5.45194e-08
1.03223e-08
1.42987e-08
6.02186e-09
4.42623e-09
2.76155e-09
1.78472e-09
3.69115e-10
2.787e-09
-0.018134
0.0211919
-0.00560477
0.00194461
-0.000539074
0.000181608
-5.08257e-05
1.743e-05
-4.67606e-06
1.75555e-06
-3.85695e-07
1.99316e-07
-1.87274e-08
2.98898e-08
4.85763e-09
7.00695e-09
3.77896e-09
2.37473e-09
3.51824e-10
3.24217e-09
)
;

boundaryField
{
    movingWall
    {
        type            extrapolatedCalculated;
        value           nonuniform List<scalar> 
20
(
-0.018134
0.0211919
-0.00560477
0.00194461
-0.000539074
0.000181608
-5.08257e-05
1.743e-05
-4.67606e-06
1.75555e-06
-3.85695e-07
1.99316e-07
-1.87274e-08
2.98898e-08
4.85763e-09
7.00695e-09
3.77896e-09
2.37473e-09
3.51824e-10
3.24217e-09
)
;
    }
    fixedWalls
    {
        type            extrapolatedCalculated;
        value           nonuniform List<scalar> 
60
(
-0.000470862
-0.000553847
-0.000584908
-0.000629769
-0.000445542
0.000397576
0.0010052
0.000588543
0.000569818
0.000436036
0.00043481
0.000726131
0.000514757
0.00133201
0.00127698
0.00242411
0.00363308
0.00612659
0.0020226
-0.018134
1.49934e-09
1.40529e-09
1.17663e-09
8.98912e-10
5.14508e-10
1.10887e-10
-3.3163e-10
-7.82116e-10
-1.16481e-09
-1.5323e-09
-1.75261e-09
-1.94216e-09
-1.78568e-09
-1.53146e-09
-8.66684e-10
-8.22367e-11
9.46752e-10
1.93411e-09
2.787e-09
3.24217e-09
-0.000470862
0.000607714
-0.000165853
6.05668e-05
-1.87315e-05
6.21756e-06
-2.05561e-06
6.48973e-07
-2.18766e-07
7.08839e-08
-2.10403e-08
9.19851e-09
-9.45487e-10
2.01236e-09
7.93024e-10
9.17809e-10
6.65332e-10
3.36857e-10
-4.55858e-10
1.49934e-09
)
;
    }
    frontAndBack
    {
        type            empty;
    }
}


// ************************************************************************* //
