/*--------------------------------*- C++ -*----------------------------------*\
| =========                 |                                                 |
| \\      /  F ield         | OpenFOAM: The Open Source CFD Toolbox           |
|  \\    /   O peration     | Version:  2312                                  |
|   \\  /    A nd           | Website:  www.openfoam.com                      |
|    \\/     M anipulation  |                                                 |
\*---------------------------------------------------------------------------*/
FoamFile
{
    version     2.0;
    format      ascii;
    arch        "LSB;label=32;scalar=64";
    class       volScalarField;
    location    "2.75";
    object      enstrophyField;
}
// * * * * * * * * * * * * * * * * * * * * * * * * * * * * * * * * * * * * * //

dimensions      [0 0 -2 0 0 0 0];

internalField   nonuniform List<scalar> 
400
(
1.16712e-06
1.36273e-07
1.76653e-08
8.33959e-10
3.14363e-10
1.21872e-12
2.22387e-11
5.22557e-12
4.24312e-12
1.88223e-12
1.04564e-12
5.0535e-13
2.47556e-13
1.12631e-13
4.81731e-14
1.84068e-14
5.97661e-15
1.46579e-15
2.36533e-16
2.93536e-17
2.14141e-08
8.21125e-10
3.04276e-11
1.59719e-12
3.77967e-15
1.47959e-14
6.94911e-15
4.88707e-15
3.93118e-15
2.52235e-15
1.68231e-15
1.16694e-15
8.87695e-16
7.08317e-16
5.83892e-16
4.90147e-16
4.26221e-16
3.93775e-16
3.51049e-16
2.08062e-16
4.91639e-08
1.60327e-08
9.67696e-10
5.403e-11
3.755e-12
1.22961e-13
3.87666e-14
3.4561e-15
7.22022e-15
4.23254e-15
3.08236e-15
2.25398e-15
1.84169e-15
1.55692e-15
1.33972e-15
1.16101e-15
1.03297e-15
9.66391e-16
8.69291e-16
5.1279e-16
1.08146e-07
4.66482e-09
2.3677e-10
1.41115e-11
3.89679e-13
7.36658e-14
5.89287e-15
1.25195e-14
1.01501e-14
7.25193e-15
4.76186e-15
3.46146e-15
2.84754e-15
2.45167e-15
2.12831e-15
1.85738e-15
1.66748e-15
1.57032e-15
1.42277e-15
8.30807e-16
1.10452e-06
2.6355e-08
2.0254e-09
1.65215e-10
1.08651e-11
1.13529e-12
2.10999e-14
3.41883e-14
9.32417e-15
1.02281e-14
5.49342e-15
4.04905e-15
3.3102e-15
2.94415e-15
2.59626e-15
2.29577e-15
2.09042e-15
1.98739e-15
1.81968e-15
1.04473e-15
1.8158e-06
1.36117e-07
9.66252e-09
7.08073e-10
4.71201e-11
3.95716e-12
1.49629e-13
6.12481e-14
6.47462e-15
1.09326e-14
4.98627e-15
3.74368e-15
3.03395e-15
2.77416e-15
2.51289e-15
2.28635e-15
2.13405e-15
2.05763e-15
1.91365e-15
1.07035e-15
5.14141e-08
2.18124e-10
1.14698e-11
2.12883e-13
6.62231e-14
6.70577e-15
1.32398e-14
1.16573e-14
1.02027e-14
6.43494e-15
3.75845e-15
2.5618e-15
2.13195e-15
1.96273e-15
1.87217e-15
1.80686e-15
1.76571e-15
1.73785e-15
1.65385e-15
8.87029e-16
1.96428e-07
1.79488e-08
1.28479e-09
8.91959e-11
6.91994e-12
3.61063e-13
7.9089e-14
1.39367e-15
7.82164e-15
2.66383e-15
1.75483e-15
1.04807e-15
8.88434e-16
8.66709e-16
9.38001e-16
1.02591e-15
1.09745e-15
1.12551e-15
1.11887e-15
5.55884e-16
6.40373e-08
1.92224e-09
1.34708e-10
9.43861e-12
6.79575e-13
2.43445e-14
1.21991e-14
1.51484e-15
1.84691e-15
5.28801e-16
1.62473e-16
4.65724e-17
4.09496e-17
7.86251e-17
1.65511e-16
2.8473e-16
3.98709e-16
4.56458e-16
5.01071e-16
2.06581e-16
8.30397e-09
7.30701e-09
4.9257e-10
3.39604e-11
1.97194e-12
1.32942e-13
9.4981e-15
2.06668e-16
4.94063e-18
2.51121e-16
4.95812e-16
6.27947e-16
4.94215e-16
2.68822e-16
8.38817e-17
4.72238e-18
1.06857e-17
3.3788e-17
6.54903e-17
7.35425e-18
1.77844e-08
6.92369e-09
5.77731e-10
3.72745e-11
2.97545e-12
1.08721e-13
2.01917e-14
4.8171e-16
3.08234e-15
3.18485e-15
3.82062e-15
3.6279e-15
2.90562e-15
1.97101e-15
1.13884e-15
5.57547e-16
2.45423e-16
1.43642e-16
7.25936e-17
1.12734e-16
7.52326e-08
2.07276e-10
1.27653e-13
1.13767e-12
1.0323e-14
4.15491e-14
8.97449e-15
9.25317e-15
1.01912e-14
1.01709e-14
1.02515e-14
9.19373e-15
7.38217e-15
5.3045e-15
3.46356e-15
2.08344e-15
1.24192e-15
9.32604e-16
6.80705e-16
6.01974e-16
3.52754e-08
4.70987e-10
3.50939e-10
4.95765e-11
7.83155e-12
3.66008e-13
1.54787e-13
6.54659e-15
2.68526e-14
1.88729e-14
1.90882e-14
1.6393e-14
1.32673e-14
9.78473e-15
6.72808e-15
4.36862e-15
2.86332e-15
2.30534e-15
1.84323e-15
1.42291e-15
1.44045e-06
1.49696e-07
7.92506e-09
3.87885e-10
2.47587e-11
7.38699e-13
2.10643e-13
1.61621e-14
3.96344e-14
2.91976e-14
2.76184e-14
2.34893e-14
1.90776e-14
1.43039e-14
1.0113e-14
6.82509e-15
4.6803e-15
3.9014e-15
3.26479e-15
2.37175e-15
1.60305e-07
4.35152e-08
5.59966e-10
7.21166e-14
5.22372e-12
4.56392e-13
3.26066e-13
1.01689e-14
6.05983e-14
3.37476e-14
3.40217e-14
2.78778e-14
2.29843e-14
1.73956e-14
1.25083e-14
8.62886e-15
6.07379e-15
5.17e-15
4.44371e-15
3.12368e-15
1.82639e-05
2.27525e-06
1.37147e-07
8.08679e-09
5.1005e-10
2.79102e-11
2.56898e-12
1.35714e-14
9.49096e-14
3.15291e-14
3.4621e-14
2.76568e-14
2.33469e-14
1.78562e-14
1.29283e-14
9.01829e-15
6.46159e-15
5.58373e-15
4.86928e-15
3.35475e-15
1.27715e-05
6.40113e-09
3.61851e-09
5.73275e-10
8.11024e-11
7.62898e-12
1.18537e-12
2.99661e-15
9.4149e-14
2.80641e-14
2.80654e-14
2.15907e-14
1.95848e-14
1.53434e-14
1.10739e-14
7.68174e-15
5.57917e-15
4.89198e-15
4.29231e-15
2.90922e-15
5.57275e-06
1.07561e-06
5.04396e-08
2.04435e-09
9.16897e-11
3.2234e-12
1.03232e-13
1.03454e-14
5.39176e-14
3.60237e-14
1.61158e-14
1.15787e-14
1.1541e-14
1.04812e-14
7.5403e-15
4.97572e-15
3.58888e-15
3.2541e-15
2.90979e-15
1.93198e-15
0.000683096
5.86504e-05
4.02985e-06
2.80163e-07
1.88879e-08
1.31524e-09
9.23798e-11
6.42663e-12
1.74135e-13
1.40973e-13
3.57585e-15
5.15027e-15
3.57893e-15
5.01682e-15
3.59681e-15
2.06884e-15
1.37409e-15
1.34146e-15
1.29107e-15
8.34453e-16
0.000315433
3.93254e-05
7.53548e-06
4.31025e-07
9.93275e-08
2.54819e-09
1.97036e-09
6.91624e-12
9.13198e-11
1.28409e-11
9.62687e-12
3.07762e-12
1.46918e-12
5.61569e-13
2.23832e-13
7.80047e-14
2.44382e-14
5.97894e-15
1.00011e-15
1.47106e-16
)
;

boundaryField
{
    movingWall
    {
        type            calculated;
        value           nonuniform List<scalar> 
20
(
0.00562471
0.000438999
6.95879e-05
4.25819e-06
7.80183e-07
2.73338e-08
1.2697e-08
2.22644e-13
4.65576e-10
4.77624e-11
4.30358e-11
1.2896e-11
6.29467e-12
2.3082e-12
9.10867e-13
3.1396e-13
9.65686e-14
2.14784e-14
2.65105e-15
2.00427e-16
)
;
    }
    fixedWalls
    {
        type            calculated;
        value           nonuniform List<scalar> 
60
(
2.05819e-06
1.88942e-08
2.75346e-07
6.96159e-08
3.04343e-07
1.90097e-06
7.65568e-09
2.59771e-07
2.48895e-08
1.10885e-07
9.09003e-08
6.94343e-09
1.86346e-09
2.59795e-06
1.31995e-06
3.68668e-05
4.06312e-08
2.36855e-05
0.000848215
0.000633573
1.76874e-17
1.16749e-16
2.83148e-16
4.45158e-16
5.34936e-16
5.08861e-16
3.71895e-16
1.79176e-16
2.70918e-17
2.26066e-17
2.47445e-16
7.17097e-16
1.36116e-15
2.01792e-15
2.47843e-15
2.54604e-15
2.14273e-15
1.38442e-15
5.74238e-16
1.03927e-16
4.04963e-06
3.71134e-07
5.39736e-08
2.39923e-09
1.08471e-09
8.07866e-12
8.59417e-11
2.16726e-11
1.71103e-11
7.68641e-12
4.25187e-12
2.05624e-12
1.00356e-12
4.54194e-13
1.92353e-13
7.22189e-14
2.26277e-14
5.06298e-15
6.1253e-16
3.52879e-17
)
;
    }
    frontAndBack
    {
        type            empty;
    }
}


// ************************************************************************* //
