/*--------------------------------*- C++ -*----------------------------------*\
| =========                 |                                                 |
| \\      /  F ield         | OpenFOAM: The Open Source CFD Toolbox           |
|  \\    /   O peration     | Version:  2312                                  |
|   \\  /    A nd           | Website:  www.openfoam.com                      |
|    \\/     M anipulation  |                                                 |
\*---------------------------------------------------------------------------*/
FoamFile
{
    version     2.0;
    format      ascii;
    arch        "LSB;label=32;scalar=64";
    class       volVectorField;
    location    "2.75";
    object      gradPhi;
}
// * * * * * * * * * * * * * * * * * * * * * * * * * * * * * * * * * * * * * //

dimensions      [0 2 -1 0 0 0 0];

internalField   nonuniform List<vector> 
400
(
(-0.02 1.04537e-09 0)
(2.87641e-10 -2.87581e-10 0)
(1.80822e-10 -1.80749e-10 0)
(8.28927e-11 -8.28316e-11 0)
(1.19187e-10 -1.19144e-10 0)
(8.20182e-11 -8.19905e-11 0)
(7.47962e-11 -7.47798e-11 0)
(5.61452e-11 -5.61363e-11 0)
(4.36709e-11 -4.36676e-11 0)
(3.24425e-11 -3.24427e-11 0)
(2.42225e-11 -2.42255e-11 0)
(1.79169e-11 -1.79218e-11 0)
(1.32127e-11 -1.32191e-11 0)
(9.6569e-12 -9.66418e-12 0)
(6.97595e-12 -6.98398e-12 0)
(4.94125e-12 -4.94968e-12 0)
(3.38811e-12 -3.39596e-12 0)
(2.15935e-12 -2.16732e-12 0)
(1.12807e-12 -1.13799e-12 0)
(2.71284e-13 -2.75113e-13 0)
(-0.02 -4.69045e-10 0)
(-1.1533e-09 1.15334e-09 0)
(1.15115e-10 -1.15065e-10 0)
(6.44925e-11 -6.44493e-11 0)
(1.24788e-10 -1.24755e-10 0)
(9.80426e-11 -9.80212e-11 0)
(7.4628e-11 -7.46146e-11 0)
(5.67036e-11 -5.66968e-11 0)
(4.15254e-11 -4.15228e-11 0)
(3.08481e-11 -3.08492e-11 0)
(2.26541e-11 -2.26573e-11 0)
(1.67364e-11 -1.67416e-11 0)
(1.22826e-11 -1.2289e-11 0)
(8.96038e-12 -8.96786e-12 0)
(6.45656e-12 -6.46454e-12 0)
(4.56692e-12 -4.57508e-12 0)
(3.12347e-12 -3.13204e-12 0)
(1.98299e-12 -1.99134e-12 0)
(1.03422e-12 -1.04144e-12 0)
(2.44313e-13 -2.49457e-13 0)
(-0.02 4.76705e-09 0)
(4.15916e-09 -4.15916e-09 0)
(-4.08686e-10 4.087e-10 0)
(5.88255e-10 -5.88236e-10 0)
(5.61894e-11 -5.61734e-11 0)
(1.33954e-10 -1.33942e-10 0)
(5.94289e-11 -5.94219e-11 0)
(5.3147e-11 -5.31435e-11 0)
(3.48127e-11 -3.48122e-11 0)
(2.62949e-11 -2.62966e-11 0)
(1.88316e-11 -1.88351e-11 0)
(1.39168e-11 -1.39217e-11 0)
(1.01581e-11 -1.01641e-11 0)
(7.3994e-12 -7.40621e-12 0)
(5.31811e-12 -5.32553e-12 0)
(3.75432e-12 -3.7621e-12 0)
(2.56436e-12 -2.57151e-12 0)
(1.62894e-12 -1.63607e-12 0)
(8.48429e-13 -8.581e-13 0)
(1.92414e-13 -1.95239e-13 0)
(-0.02 3.95548e-09 0)
(3.70853e-09 -3.70855e-09 0)
(-7.43647e-10 7.43642e-10 0)
(7.07361e-10 -7.0736e-10 0)
(-2.16149e-11 2.16187e-11 0)
(1.38297e-10 -1.38294e-10 0)
(3.51362e-11 -3.51342e-11 0)
(4.29236e-11 -4.29233e-11 0)
(2.40959e-11 -2.40968e-11 0)
(1.91929e-11 -1.91953e-11 0)
(1.32159e-11 -1.32193e-11 0)
(9.8411e-12 -9.8456e-12 0)
(7.11779e-12 -7.1231e-12 0)
(5.17591e-12 -5.18194e-12 0)
(3.70027e-12 -3.70672e-12 0)
(2.60738e-12 -2.61388e-12 0)
(1.77406e-12 -1.7811e-12 0)
(1.11533e-12 -1.12267e-12 0)
(5.78476e-13 -5.83461e-13 0)
(1.18566e-13 -1.22796e-13 0)
(-0.02 3.46578e-09 0)
(3.49151e-09 -3.49154e-09 0)
(-5.46341e-10 5.46323e-10 0)
(4.4825e-10 -4.4826e-10 0)
(-7.83779e-11 7.83721e-11 0)
(7.63669e-11 -7.63705e-11 0)
(9.1667e-12 -9.16948e-12 0)
(2.27599e-11 -2.27622e-11 0)
(1.12869e-11 -1.12895e-11 0)
(9.71537e-12 -9.71824e-12 0)
(6.41785e-12 -6.42125e-12 0)
(4.78954e-12 -4.79349e-12 0)
(3.39463e-12 -3.39914e-12 0)
(2.44462e-12 -2.44958e-12 0)
(1.72411e-12 -1.7295e-12 0)
(1.19817e-12 -1.20395e-12 0)
(8.01627e-13 -8.06776e-13 0)
(4.95693e-13 -5.00547e-13 0)
(2.52014e-13 -2.59795e-13 0)
(2.93103e-14 -3.09009e-14 0)
(-0.02 -4.02441e-09 0)
(-4.11361e-09 4.11359e-09 0)
(5.63634e-10 -5.63655e-10 0)
(-4.83164e-10 4.83149e-10 0)
(7.26478e-11 -7.26579e-11 0)
(-5.61075e-11 5.61004e-11 0)
(5.7358e-12 -5.74068e-12 0)
(-7.36348e-12 7.35982e-12 0)
(-3.13698e-13 3.10778e-13 0)
(-1.44664e-12 1.44391e-12 0)
(-7.20095e-13 7.17296e-13 0)
(-8.33638e-13 8.30549e-13 0)
(-7.05109e-13 7.01669e-13 0)
(-6.07455e-13 6.03587e-13 0)
(-4.74917e-13 4.70747e-13 0)
(-3.6499e-13 3.60799e-13 0)
(-2.76507e-13 2.71641e-13 0)
(-2.04749e-13 1.99425e-13 0)
(-1.17302e-13 1.14763e-13 0)
(-6.95742e-14 6.68248e-14 0)
(-0.02 -4.15453e-09 0)
(-4.32975e-09 4.32972e-09 0)
(1.07145e-09 -1.07147e-09 0)
(-7.99553e-10 7.99538e-10 0)
(1.29983e-10 -1.29994e-10 0)
(-1.36074e-10 1.36067e-10 0)
(-5.81431e-12 5.80895e-12 0)
(-3.03722e-11 3.03686e-11 0)
(-1.1904e-11 1.19014e-11 0)
(-1.17223e-11 1.17202e-11 0)
(-7.90384e-12 7.90183e-12 0)
(-6.46823e-12 6.46612e-12 0)
(-4.89733e-12 4.89496e-12 0)
(-3.7338e-12 3.73115e-12 0)
(-2.74325e-12 2.74025e-12 0)
(-1.98676e-12 1.98329e-12 0)
(-1.3984e-12 1.39539e-12 0)
(-9.22224e-13 9.19658e-13 0)
(-4.93592e-13 4.88622e-13 0)
(-1.67582e-13 1.67066e-13 0)
(-0.02 -4.32111e-09 0)
(-3.80842e-09 3.8084e-09 0)
(2.99597e-10 -2.99614e-10 0)
(-5.00456e-10 5.00444e-10 0)
(-4.46623e-11 4.46534e-11 0)
(-9.43703e-11 9.43641e-11 0)
(-3.74751e-11 3.74711e-11 0)
(-3.56967e-11 3.56942e-11 0)
(-2.41209e-11 2.41194e-11 0)
(-1.95028e-11 1.95018e-11 0)
(-1.48975e-11 1.48967e-11 0)
(-1.16893e-11 1.16883e-11 0)
(-8.94242e-12 8.94118e-12 0)
(-6.73354e-12 6.73195e-12 0)
(-4.94741e-12 4.94551e-12 0)
(-3.55295e-12 3.55091e-12 0)
(-2.47233e-12 2.46955e-12 0)
(-1.61383e-12 1.6107e-12 0)
(-8.59068e-13 8.5839e-13 0)
(-2.61052e-13 2.59835e-13 0)
(-0.02 1.96718e-09 0)
(2.47721e-09 -2.47723e-09 0)
(-2.41552e-10 2.41542e-10 0)
(1.04702e-10 -1.04709e-10 0)
(-9.68179e-11 9.68132e-11 0)
(-4.79921e-11 4.79894e-11 0)
(-5.12046e-11 5.12034e-11 0)
(-3.92239e-11 3.92236e-11 0)
(-3.2869e-11 3.28692e-11 0)
(-2.63386e-11 2.63391e-11 0)
(-2.10538e-11 2.10542e-11 0)
(-1.64682e-11 1.64683e-11 0)
(-1.26345e-11 1.26343e-11 0)
(-9.47212e-12 9.47155e-12 0)
(-6.93844e-12 6.93747e-12 0)
(-4.95811e-12 4.95655e-12 0)
(-3.43312e-12 3.43174e-12 0)
(-2.22523e-12 2.22423e-12 0)
(-1.17663e-12 1.17444e-12 0)
(-3.35566e-13 3.35642e-13 0)
(-0.02 -7.03925e-10 0)
(-2.17014e-10 2.1701e-10 0)
(-2.01567e-10 2.01564e-10 0)
(7.96917e-11 -7.96935e-11 0)
(-6.94698e-11 6.94693e-11 0)
(-2.76963e-11 2.76969e-11 0)
(-5.3207e-11 5.32082e-11 0)
(-4.33445e-11 4.33462e-11 0)
(-4.0173e-11 4.01747e-11 0)
(-3.27574e-11 3.2759e-11 0)
(-2.65888e-11 2.65901e-11 0)
(-2.07437e-11 2.07446e-11 0)
(-1.58547e-11 1.58552e-11 0)
(-1.181e-11 1.181e-11 0)
(-8.5921e-12 8.59169e-12 0)
(-6.09787e-12 6.09717e-12 0)
(-4.1885e-12 4.18704e-12 0)
(-2.69833e-12 2.6969e-12 0)
(-1.42539e-12 1.42546e-12 0)
(-3.9049e-13 3.90357e-13 0)
(-0.02 5.4764e-10 0)
(9.98797e-10 -9.98798e-10 0)
(-2.18932e-10 2.18933e-10 0)
(1.86085e-10 -1.86083e-10 0)
(-7.26508e-11 7.2654e-11 0)
(-2.95387e-11 2.9542e-11 0)
(-6.13762e-11 6.13796e-11 0)
(-5.21038e-11 5.21069e-11 0)
(-4.85133e-11 4.85161e-11 0)
(-3.95035e-11 3.95058e-11 0)
(-3.17923e-11 3.17941e-11 0)
(-2.45025e-11 2.45038e-11 0)
(-1.84692e-11 1.84699e-11 0)
(-1.35722e-11 1.35725e-11 0)
(-9.77183e-12 9.77168e-12 0)
(-6.85378e-12 6.85302e-12 0)
(-4.66758e-12 4.66679e-12 0)
(-2.9897e-12 2.98908e-12 0)
(-1.56855e-12 1.56821e-12 0)
(-4.12009e-13 4.12065e-13 0)
(-0.02 2.59268e-09 0)
(3.10224e-09 -3.10223e-09 0)
(-1.38555e-10 1.3856e-10 0)
(1.42369e-10 -1.42365e-10 0)
(-7.93528e-11 7.93569e-11 0)
(-5.53867e-11 5.53905e-11 0)
(-7.90788e-11 7.90822e-11 0)
(-6.71495e-11 6.71524e-11 0)
(-5.94298e-11 5.94323e-11 0)
(-4.70369e-11 4.70388e-11 0)
(-3.66754e-11 3.66767e-11 0)
(-2.74651e-11 2.74659e-11 0)
(-2.02007e-11 2.0201e-11 0)
(-1.45239e-11 1.45238e-11 0)
(-1.02594e-11 1.02591e-11 0)
(-7.08785e-12 7.08712e-12 0)
(-4.76076e-12 4.75945e-12 0)
(-3.01643e-12 3.01564e-12 0)
(-1.57825e-12 1.57787e-12 0)
(-4.03644e-13 4.03801e-13 0)
(-0.02 -5.05969e-09 0)
(-3.84074e-09 3.84075e-09 0)
(-5.4425e-10 5.44253e-10 0)
(2.71098e-11 -2.71075e-11 0)
(-1.647e-10 1.64702e-10 0)
(-7.50862e-11 7.50878e-11 0)
(-1.17715e-10 1.17716e-10 0)
(-8.67102e-11 8.67112e-11 0)
(-7.37062e-11 7.37069e-11 0)
(-5.42743e-11 5.42746e-11 0)
(-4.0418e-11 4.0418e-11 0)
(-2.89498e-11 2.89494e-11 0)
(-2.05386e-11 2.0538e-11 0)
(-1.43016e-11 1.43008e-11 0)
(-9.83272e-12 9.83167e-12 0)
(-6.64001e-12 6.63861e-12 0)
(-4.38685e-12 4.38546e-12 0)
(-2.75229e-12 2.75091e-12 0)
(-1.42638e-12 1.42639e-12 0)
(-3.47838e-13 3.47382e-13 0)
(-0.02 1.42884e-08 0)
(1.53212e-08 -1.53212e-08 0)
(-7.29471e-10 7.2947e-10 0)
(7.50632e-10 -7.50634e-10 0)
(-3.60299e-10 3.60297e-10 0)
(-1.39864e-10 1.39861e-10 0)
(-1.72295e-10 1.72292e-10 0)
(-1.14032e-10 1.1403e-10 0)
(-8.72626e-11 8.72602e-11 0)
(-5.94623e-11 5.94601e-11 0)
(-4.12539e-11 4.12517e-11 0)
(-2.77955e-11 2.77933e-11 0)
(-1.87194e-11 1.87173e-11 0)
(-1.2452e-11 1.245e-11 0)
(-8.23776e-12 8.23572e-12 0)
(-5.39438e-12 5.39232e-12 0)
(-3.47142e-12 3.46918e-12 0)
(-2.12872e-12 2.12748e-12 0)
(-1.09296e-12 1.09135e-12 0)
(-2.56742e-13 2.56421e-13 0)
(-0.02 -1.83416e-08 0)
(-1.47536e-08 1.47536e-08 0)
(-1.62572e-09 1.62571e-09 0)
(-6.84387e-10 6.84378e-10 0)
(-4.33162e-10 4.33153e-10 0)
(-2.33978e-10 2.33969e-10 0)
(-2.24824e-10 2.24816e-10 0)
(-1.38471e-10 1.38464e-10 0)
(-9.56929e-11 9.56867e-11 0)
(-5.7978e-11 5.79723e-11 0)
(-3.6462e-11 3.64569e-11 0)
(-2.23782e-11 2.23737e-11 0)
(-1.39008e-11 1.38968e-11 0)
(-8.57007e-12 8.56641e-12 0)
(-5.29197e-12 5.28868e-12 0)
(-3.26454e-12 3.2614e-12 0)
(-2.00219e-12 1.99945e-12 0)
(-1.18362e-12 1.18092e-12 0)
(-5.88154e-13 5.87124e-13 0)
(-1.18818e-13 1.17627e-13 0)
(-0.02 3.53035e-08 0)
(3.89758e-08 -3.89759e-08 0)
(-3.10015e-09 3.10014e-09 0)
(1.51062e-09 -1.51064e-09 0)
(-1.10556e-09 1.10555e-09 0)
(-3.46415e-10 3.46401e-10 0)
(-3.09362e-10 3.0935e-10 0)
(-1.50619e-10 1.50608e-10 0)
(-8.47786e-11 8.47685e-11 0)
(-4.34728e-11 4.34638e-11 0)
(-2.20618e-11 2.2054e-11 0)
(-1.12649e-11 1.12581e-11 0)
(-5.48688e-12 5.48096e-12 0)
(-2.53132e-12 2.52611e-12 0)
(-1.01949e-12 1.01497e-12 0)
(-3.5226e-13 3.48266e-13 0)
(-6.56666e-14 6.20937e-14 0)
(4.85423e-14 -5.09327e-14 0)
(5.60431e-14 -5.90229e-14 0)
(4.86961e-14 -4.99686e-14 0)
(-0.0199999 -7.14514e-08 0)
(-6.89485e-08 6.89484e-08 0)
(6.12648e-09 -6.12651e-09 0)
(-7.61005e-09 7.61003e-09 0)
(2.41666e-10 -2.41687e-10 0)
(-1.01785e-09 1.01783e-09 0)
(-8.78009e-11 8.77832e-11 0)
(-1.5435e-10 1.54334e-10 0)
(-2.15042e-11 2.14899e-11 0)
(-1.31139e-11 1.31016e-11 0)
(4.88169e-12 -4.89278e-12 0)
(5.56788e-12 -5.57727e-12 0)
(6.23626e-12 -6.24456e-12 0)
(5.18342e-12 -5.19039e-12 0)
(4.19396e-12 -4.20004e-12 0)
(3.07619e-12 -3.0813e-12 0)
(2.14335e-12 -2.14763e-12 0)
(1.39996e-12 -1.40397e-12 0)
(7.54162e-13 -7.57161e-13 0)
(2.38104e-13 -2.40155e-13 0)
(-0.02 -3.68493e-08 0)
(-4.34437e-08 4.34437e-08 0)
(1.55203e-08 -1.55204e-08 0)
(-1.02093e-08 1.02093e-08 0)
(2.1634e-09 -2.16342e-09 0)
(-1.36672e-09 1.3667e-09 0)
(3.1976e-10 -3.1978e-10 0)
(-8.04995e-11 8.04808e-11 0)
(8.89936e-11 -8.90103e-11 0)
(3.41296e-11 -3.41445e-11 0)
(4.06854e-11 -4.06984e-11 0)
(2.58904e-11 -2.59018e-11 0)
(1.95897e-11 -1.95994e-11 0)
(1.34193e-11 -1.34277e-11 0)
(9.53714e-12 -9.54422e-12 0)
(6.48314e-12 -6.48907e-12 0)
(4.29162e-12 -4.29664e-12 0)
(2.69062e-12 -2.6947e-12 0)
(1.41021e-12 -1.41466e-12 0)
(4.18593e-13 -4.21008e-13 0)
(-0.0199999 -9.6727e-08 0)
(-1.08655e-07 1.08655e-07 0)
(1.57921e-08 -1.57921e-08 0)
(-8.26796e-09 8.26794e-09 0)
(3.23936e-09 -3.23938e-09 0)
(-1.29168e-10 1.29147e-10 0)
(6.36167e-10 -6.36187e-10 0)
(1.776e-10 -1.77618e-10 0)
(1.81108e-10 -1.81125e-10 0)
(9.5742e-11 -9.57569e-11 0)
(7.03605e-11 -7.03736e-11 0)
(4.54858e-11 -4.54974e-11 0)
(3.1216e-11 -3.1226e-11 0)
(2.07834e-11 -2.07921e-11 0)
(1.39357e-11 -1.3943e-11 0)
(9.22544e-12 -9.23164e-12 0)
(6.02218e-12 -6.02739e-12 0)
(3.75461e-12 -3.75952e-12 0)
(1.94184e-12 -1.94682e-12 0)
(5.54244e-13 -5.56736e-13 0)
(-0.0200002 1.74169e-07 0)
(1.80741e-07 -1.80741e-07 0)
(-3.11707e-08 3.11707e-08 0)
(2.38624e-08 -2.38624e-08 0)
(-3.62059e-09 3.62058e-09 0)
(3.22751e-09 -3.22752e-09 0)
(-1.47267e-11 1.47174e-11 0)
(5.90591e-10 -5.906e-10 0)
(1.54704e-10 -1.54712e-10 0)
(1.58171e-10 -1.58178e-10 0)
(7.84821e-11 -7.84883e-11 0)
(5.83361e-11 -5.83415e-11 0)
(3.7062e-11 -3.70667e-11 0)
(2.52038e-11 -2.52078e-11 0)
(1.61864e-11 -1.61899e-11 0)
(1.06199e-11 -1.06228e-11 0)
(6.93623e-12 -6.93875e-12 0)
(4.3853e-12 -4.38787e-12 0)
(2.25167e-12 -2.25417e-12 0)
(6.15647e-13 -6.15647e-13 0)
)
;

boundaryField
{
    movingWall
    {
        type            extrapolatedCalculated;
        value           nonuniform List<vector> 
20
(
(-0.0200002 1.74169e-07 0)
(1.80741e-07 -1.80741e-07 0)
(-3.11707e-08 3.11707e-08 0)
(2.38624e-08 -2.38624e-08 0)
(-3.62059e-09 3.62058e-09 0)
(3.22751e-09 -3.22752e-09 0)
(-1.47267e-11 1.47174e-11 0)
(5.90591e-10 -5.906e-10 0)
(1.54704e-10 -1.54712e-10 0)
(1.58171e-10 -1.58178e-10 0)
(7.84821e-11 -7.84883e-11 0)
(5.83361e-11 -5.83415e-11 0)
(3.7062e-11 -3.70667e-11 0)
(2.52038e-11 -2.52078e-11 0)
(1.61864e-11 -1.61899e-11 0)
(1.06199e-11 -1.06228e-11 0)
(6.93623e-12 -6.93875e-12 0)
(4.3853e-12 -4.38787e-12 0)
(2.25167e-12 -2.25417e-12 0)
(6.15647e-13 -6.15647e-13 0)
)
;
    }
    fixedWalls
    {
        type            extrapolatedCalculated;
        value           nonuniform List<vector> 
60
(
(-0.02 1.04537e-09 0)
(-0.02 -4.69045e-10 0)
(-0.02 4.76705e-09 0)
(-0.02 3.95548e-09 0)
(-0.02 3.46578e-09 0)
(-0.02 -4.02441e-09 0)
(-0.02 -4.15453e-09 0)
(-0.02 -4.32111e-09 0)
(-0.02 1.96718e-09 0)
(-0.02 -7.03925e-10 0)
(-0.02 5.4764e-10 0)
(-0.02 2.59268e-09 0)
(-0.02 -5.05969e-09 0)
(-0.02 1.42884e-08 0)
(-0.02 -1.83416e-08 0)
(-0.02 3.53035e-08 0)
(-0.0199999 -7.14514e-08 0)
(-0.02 -3.68493e-08 0)
(-0.0199999 -9.6727e-08 0)
(-0.0200002 1.74169e-07 0)
(2.71284e-13 -2.75113e-13 0)
(2.44313e-13 -2.49457e-13 0)
(1.92414e-13 -1.95239e-13 0)
(1.18566e-13 -1.22796e-13 0)
(2.93103e-14 -3.09009e-14 0)
(-6.95742e-14 6.68248e-14 0)
(-1.67582e-13 1.67066e-13 0)
(-2.61052e-13 2.59835e-13 0)
(-3.35566e-13 3.35642e-13 0)
(-3.9049e-13 3.90357e-13 0)
(-4.12009e-13 4.12065e-13 0)
(-4.03644e-13 4.03801e-13 0)
(-3.47838e-13 3.47382e-13 0)
(-2.56742e-13 2.56421e-13 0)
(-1.18818e-13 1.17627e-13 0)
(4.86961e-14 -4.99686e-14 0)
(2.38104e-13 -2.40155e-13 0)
(4.18593e-13 -4.21008e-13 0)
(5.54244e-13 -5.56736e-13 0)
(6.15647e-13 -6.15647e-13 0)
(-0.02 1.04537e-09 0)
(2.87641e-10 -2.87581e-10 0)
(1.80822e-10 -1.80749e-10 0)
(8.28927e-11 -8.28316e-11 0)
(1.19187e-10 -1.19144e-10 0)
(8.20182e-11 -8.19905e-11 0)
(7.47962e-11 -7.47798e-11 0)
(5.61452e-11 -5.61363e-11 0)
(4.36709e-11 -4.36676e-11 0)
(3.24425e-11 -3.24427e-11 0)
(2.42225e-11 -2.42255e-11 0)
(1.79169e-11 -1.79218e-11 0)
(1.32127e-11 -1.32191e-11 0)
(9.6569e-12 -9.66418e-12 0)
(6.97595e-12 -6.98398e-12 0)
(4.94125e-12 -4.94968e-12 0)
(3.38811e-12 -3.39596e-12 0)
(2.15935e-12 -2.16732e-12 0)
(1.12807e-12 -1.13799e-12 0)
(2.71284e-13 -2.75113e-13 0)
)
;
    }
    frontAndBack
    {
        type            empty;
    }
}


// ************************************************************************* //
