/*--------------------------------*- C++ -*----------------------------------*\
| =========                 |                                                 |
| \\      /  F ield         | OpenFOAM: The Open Source CFD Toolbox           |
|  \\    /   O peration     | Version:  2312                                  |
|   \\  /    A nd           | Website:  www.openfoam.com                      |
|    \\/     M anipulation  |                                                 |
\*---------------------------------------------------------------------------*/
FoamFile
{
    version     2.0;
    format      ascii;
    arch        "LSB;label=32;scalar=64";
    class       volTensorField;
    location    "2.75";
    object      gradU;
}
// * * * * * * * * * * * * * * * * * * * * * * * * * * * * * * * * * * * * * //

dimensions      [0 0 -1 0 0 0 0];

internalField   nonuniform List<tensor> 
400
(
(-0.00050359 0.000116092 0 -0.00141173 3.27285e-05 0 0 0 0)
(0.00060925 -0.000146085 0 0.000375975 -1.53624e-06 0 0 0 0)
(-0.000163613 3.57264e-05 0 -0.000152238 -2.23998e-06 0 0 0 0)
(6.20487e-05 -8.25664e-06 0 3.25835e-05 -1.48191e-06 0 0 0 0)
(-1.63324e-05 1.94506e-06 0 -2.31293e-05 -2.3991e-06 0 0 0 0)
(7.93978e-06 -2.95721e-07 0 -1.85695e-06 -1.72222e-06 0 0 0 0)
(-5.34722e-07 2.37617e-07 0 -6.43152e-06 -1.52089e-06 0 0 0 0)
(1.78679e-06 1.29476e-07 0 -3.10335e-06 -1.13782e-06 0 0 0 0)
(6.57511e-07 1.242e-07 0 -2.78892e-06 -8.76277e-07 0 0 0 0)
(7.20668e-07 9.66343e-08 0 -1.84359e-06 -6.49784e-07 0 0 0 0)
(4.62917e-07 7.31532e-08 0 -1.37298e-06 -4.83957e-07 0 0 0 0)
(3.66956e-07 5.54081e-08 0 -9.49928e-07 -3.57758e-07 0 0 0 0)
(2.62718e-07 4.15873e-08 0 -6.62054e-07 -2.63664e-07 0 0 0 0)
(1.94667e-07 3.14483e-08 0 -4.43169e-07 -1.92654e-07 0 0 0 0)
(1.39927e-07 2.37766e-08 0 -2.8662e-07 -1.39134e-07 0 0 0 0)
(9.94593e-08 1.81107e-08 0 -1.73758e-07 -9.85415e-08 0 0 0 0)
(6.81956e-08 1.40998e-08 0 -9.5231e-08 -6.75302e-08 0 0 0 0)
(4.33078e-08 1.14708e-08 0 -4.26734e-08 -4.29709e-08 0 0 0 0)
(2.19496e-08 9.59869e-09 0 -1.21514e-08 -2.24054e-08 0 0 0 0)
(6.69021e-09 7.0422e-09 0 -6.19865e-10 -5.19087e-09 0 0 0 0)
(-0.000532163 -8.49e-05 0 -0.00029185 -2.16836e-05 0 0 0 0)
(0.000650241 0.000111116 0 7.05918e-05 7.50014e-06 0 0 0 0)
(-0.000179779 -3.56721e-05 0 -2.78711e-05 -5.2599e-06 0 0 0 0)
(6.70601e-05 8.09751e-06 0 6.31023e-06 -2.68771e-06 0 0 0 0)
(-1.81081e-05 -2.18537e-06 0 -2.09842e-06 -2.62852e-06 0 0 0 0)
(8.75804e-06 1.17394e-06 0 1.00191e-06 -1.99546e-06 0 0 0 0)
(-7.11674e-07 3.46779e-07 0 2.28888e-07 -1.47911e-06 0 0 0 0)
(1.85581e-06 5.15135e-07 0 4.16271e-07 -1.12675e-06 0 0 0 0)
(6.0225e-07 3.63839e-07 0 2.75169e-07 -8.25738e-07 0 0 0 0)
(6.95274e-07 2.95686e-07 0 2.2466e-07 -6.13515e-07 0 0 0 0)
(4.30742e-07 2.18873e-07 0 1.60868e-07 -4.50736e-07 0 0 0 0)
(3.43965e-07 1.64885e-07 0 1.16575e-07 -3.32968e-07 0 0 0 0)
(2.4404e-07 1.23516e-07 0 8.13806e-08 -2.44395e-07 0 0 0 0)
(1.80767e-07 9.30819e-08 0 5.54437e-08 -1.78305e-07 0 0 0 0)
(1.29484e-07 7.03364e-08 0 3.61635e-08 -1.28489e-07 0 0 0 0)
(9.19298e-08 5.34926e-08 0 2.2183e-08 -9.08484e-08 0 0 0 0)
(6.28892e-08 4.14708e-08 0 1.22742e-08 -6.21229e-08 0 0 0 0)
(3.97718e-08 3.3654e-08 0 5.59069e-09 -3.94707e-08 0 0 0 0)
(2.01039e-08 2.81813e-08 0 1.6842e-09 -2.05406e-08 0 0 0 0)
(6.08105e-09 2.05541e-08 0 1.54987e-10 -4.67576e-09 0 0 0 0)
(-0.000724848 0.000101909 0 -0.000211664 0.00013994 0 0 0 0)
(0.000873229 -0.000129661 0 4.9407e-05 -7.34569e-05 0 0 0 0)
(-0.000227894 2.55385e-05 0 -1.84546e-05 1.09808e-05 0 0 0 0)
(8.78214e-05 -5.62525e-06 0 4.76993e-06 -1.1056e-05 0 0 0 0)
(-2.16407e-05 2.63731e-06 0 -1.03128e-07 -8.79001e-07 0 0 0 0)
(1.02671e-05 8.53692e-07 0 1.3496e-06 -2.62267e-06 0 0 0 0)
(-1.12036e-06 1.10632e-06 0 8.27877e-07 -1.15274e-06 0 0 0 0)
(1.83308e-06 7.82843e-07 0 6.99703e-07 -1.04914e-06 0 0 0 0)
(4.65899e-07 6.37439e-07 0 5.1727e-07 -6.87525e-07 0 0 0 0)
(6.06367e-07 4.71637e-07 0 3.79631e-07 -5.21972e-07 0 0 0 0)
(3.54832e-07 3.53701e-07 0 2.75185e-07 -3.74223e-07 0 0 0 0)
(2.87469e-07 2.61749e-07 0 1.94608e-07 -2.76964e-07 0 0 0 0)
(2.01587e-07 1.9625e-07 0 1.35559e-07 -2.02243e-07 0 0 0 0)
(1.4945e-07 1.47354e-07 0 9.15523e-08 -1.47357e-07 0 0 0 0)
(1.06666e-07 1.11233e-07 0 5.947e-08 -1.05917e-07 0 0 0 0)
(7.55699e-08 8.44765e-08 0 3.62893e-08 -7.48042e-08 0 0 0 0)
(5.16033e-08 6.54776e-08 0 2.0025e-08 -5.1072e-08 0 0 0 0)
(3.27178e-08 5.30531e-08 0 9.08965e-09 -3.23544e-08 0 0 0 0)
(1.65139e-08 4.43936e-08 0 2.69728e-09 -1.68295e-08 0 0 0 0)
(4.85105e-09 3.22585e-08 0 2.33862e-10 -3.67442e-09 0 0 0 0)
(-0.00069442 -1.8417e-05 0 0.000446655 6.46515e-05 0 0 0 0)
(0.00084345 -1.78426e-05 0 -0.000114433 -8.36352e-05 0 0 0 0)
(-0.000224416 2.67288e-05 0 4.84897e-05 1.52083e-05 0 0 0 0)
(8.54115e-05 -3.76225e-06 0 -9.07479e-06 -1.36205e-05 0 0 0 0)
(-2.15284e-05 6.248e-06 0 7.13081e-06 7.57405e-07 0 0 0 0)
(9.68904e-06 9.00197e-07 0 5.1636e-07 -2.61068e-06 0 0 0 0)
(-1.36157e-06 1.92031e-06 0 1.81175e-06 -6.57881e-07 0 0 0 0)
(1.5452e-06 9.80349e-07 0 8.22111e-07 -8.38349e-07 0 0 0 0)
(2.82178e-07 8.91003e-07 0 7.48524e-07 -4.74924e-07 0 0 0 0)
(4.53188e-07 6.08988e-07 0 4.88557e-07 -3.80014e-07 0 0 0 0)
(2.45718e-07 4.63882e-07 0 3.66292e-07 -2.6254e-07 0 0 0 0)
(2.04339e-07 3.36865e-07 0 2.53661e-07 -1.95753e-07 0 0 0 0)
(1.40985e-07 2.53123e-07 0 1.77657e-07 -1.41724e-07 0 0 0 0)
(1.04678e-07 1.89408e-07 0 1.19384e-07 -1.03107e-07 0 0 0 0)
(7.42214e-08 1.42889e-07 0 7.76465e-08 -7.37292e-08 0 0 0 0)
(5.24848e-08 1.08337e-07 0 4.73885e-08 -5.19198e-08 0 0 0 0)
(3.56895e-08 8.39205e-08 0 2.61714e-08 -3.53237e-08 0 0 0 0)
(2.24442e-08 6.78965e-08 0 1.18551e-08 -2.22664e-08 0 0 0 0)
(1.12481e-08 5.68613e-08 0 3.51775e-09 -1.15267e-08 0 0 0 0)
(3.14982e-09 4.10581e-08 0 2.95174e-10 -2.25091e-09 0 0 0 0)
(-0.000392626 8.2925e-05 0 0.00156921 -5.29154e-05 0 0 0 0)
(0.000475063 -0.000179104 0 -0.000408691 -2.26315e-05 0 0 0 0)
(-0.000122536 9.55532e-05 0 0.000159199 6.23289e-06 0 0 0 0)
(4.64625e-05 -2.00762e-05 0 -3.82539e-05 -5.93124e-06 0 0 0 0)
(-1.20496e-05 1.36471e-05 0 1.83087e-05 7.70765e-07 0 0 0 0)
(4.94803e-06 -5.61594e-07 0 -2.06844e-06 -1.30459e-06 0 0 0 0)
(-8.14612e-07 2.87866e-06 0 3.08408e-06 -2.52579e-07 0 0 0 0)
(7.6985e-07 9.65799e-07 0 7.0431e-07 -4.29536e-07 0 0 0 0)
(1.32345e-07 1.09577e-06 0 9.59214e-07 -2.29992e-07 0 0 0 0)
(2.24135e-07 6.84022e-07 0 5.40996e-07 -1.91518e-07 0 0 0 0)
(1.19936e-07 5.37961e-07 0 4.33143e-07 -1.28536e-07 0 0 0 0)
(9.88339e-08 3.82564e-07 0 2.92575e-07 -9.5386e-08 0 0 0 0)
(6.73102e-08 2.88897e-07 0 2.07531e-07 -6.77667e-08 0 0 0 0)
(4.94396e-08 2.15349e-07 0 1.38614e-07 -4.87229e-08 0 0 0 0)
(3.46705e-08 1.6242e-07 0 9.03613e-08 -3.43673e-08 0 0 0 0)
(2.40948e-08 1.22882e-07 0 5.51211e-08 -2.39166e-08 0 0 0 0)
(1.60699e-08 9.5131e-08 0 3.04716e-08 -1.60132e-08 0 0 0 0)
(1.00641e-08 7.68501e-08 0 1.38042e-08 -9.84095e-09 0 0 0 0)
(4.95394e-09 6.44091e-08 0 4.08202e-09 -5.01205e-09 0 0 0 0)
(1.03815e-09 4.60362e-08 0 3.25586e-10 -5.23625e-10 0 0 0 0)
(0.0004661 -9.3964e-05 0 0.00181171 -6.8524e-05 0 0 0 0)
(-0.000566562 4.13058e-05 0 -0.000480455 5.61234e-05 0 0 0 0)
(0.000146021 4.3429e-05 0 0.000182444 -1.22816e-05 0 0 0 0)
(-5.54789e-05 -9.22438e-06 0 -4.68561e-05 7.83286e-06 0 0 0 0)
(1.46571e-05 1.08746e-05 0 2.05824e-05 -1.35473e-06 0 0 0 0)
(-5.53557e-06 -1.23147e-07 0 -2.93639e-06 1.01178e-06 0 0 0 0)
(1.41118e-06 2.79537e-06 0 3.34241e-06 -1.12046e-07 0 0 0 0)
(-5.79668e-07 1.00294e-06 0 6.52941e-07 1.30181e-07 0 0 0 0)
(1.18864e-07 1.12902e-06 0 1.01523e-06 2.11786e-09 0 0 0 0)
(-7.28826e-08 7.10445e-07 0 5.62576e-07 2.54953e-08 0 0 0 0)
(-2.70262e-09 5.60013e-07 0 4.60151e-07 1.31057e-08 0 0 0 0)
(-2.1273e-08 3.97634e-07 0 3.11105e-07 1.59508e-08 0 0 0 0)
(-1.29758e-08 2.99786e-07 0 2.21889e-07 1.38035e-08 0 0 0 0)
(-1.2492e-08 2.22807e-07 0 1.4832e-07 1.19966e-08 0 0 0 0)
(-9.27166e-09 1.67696e-07 0 9.68028e-08 9.42237e-09 0 0 0 0)
(-7.40497e-09 1.26691e-07 0 5.90695e-08 7.28922e-09 0 0 0 0)
(-5.62731e-09 9.79962e-08 0 3.26654e-08 5.52905e-09 0 0 0 0)
(-3.94541e-09 7.88977e-08 0 1.47474e-08 4.00658e-09 0 0 0 0)
(-2.23047e-09 6.61786e-08 0 4.31339e-09 2.26054e-09 0 0 0 0)
(-1.25776e-09 4.65938e-08 0 3.26101e-10 1.36864e-09 0 0 0 0)
(0.000938631 7.05245e-05 0 0.000391193 6.65674e-05 0 0 0 0)
(-0.00115421 -0.000122862 0 -0.000101975 6.15115e-05 0 0 0 0)
(0.000311063 4.72627e-05 0 4.24732e-05 -1.30183e-05 0 0 0 0)
(-0.000115399 -9.14934e-06 0 -8.49684e-06 1.32024e-05 0 0 0 0)
(3.18701e-05 6.82605e-06 0 6.46211e-06 -1.66023e-06 0 0 0 0)
(-1.22919e-05 6.81087e-07 0 5.65278e-07 2.29621e-06 0 0 0 0)
(2.77471e-06 1.99706e-06 0 1.83433e-06 1.69194e-07 0 0 0 0)
(-1.55734e-06 1.07996e-06 0 9.27271e-07 5.5156e-07 0 0 0 0)
(4.19794e-08 9.91088e-07 0 8.4824e-07 2.36775e-07 0 0 0 0)
(-3.30941e-07 6.95009e-07 0 5.81564e-07 2.2617e-07 0 0 0 0)
(-1.31535e-07 5.28417e-07 0 4.41717e-07 1.56489e-07 0 0 0 0)
(-1.39428e-07 3.83262e-07 0 3.11683e-07 1.27921e-07 0 0 0 0)
(-9.54746e-08 2.84943e-07 0 2.19644e-07 9.75047e-08 0 0 0 0)
(-7.56465e-08 2.10968e-07 0 1.48315e-07 7.44149e-08 0 0 0 0)
(-5.45801e-08 1.57713e-07 0 9.65221e-08 5.4741e-08 0 0 0 0)
(-4.00426e-08 1.18989e-07 0 5.88744e-08 3.95833e-08 0 0 0 0)
(-2.82523e-08 9.18483e-08 0 3.24226e-08 2.77927e-08 0 0 0 0)
(-1.82879e-08 7.35816e-08 0 1.46265e-08 1.83299e-08 0 0 0 0)
(-9.46733e-09 6.17711e-08 0 4.2585e-09 9.76208e-09 0 0 0 0)
(-3.60137e-09 4.2407e-08 0 2.87422e-10 3.26973e-09 0 0 0 0)
(0.000755317 3.41149e-05 0 -0.000592667 -0.000166774 0 0 0 0)
(-0.000915281 -3.828e-05 0 0.000151187 7.88486e-05 0 0 0 0)
(0.000239499 -4.8801e-06 0 -5.55712e-05 -1.35091e-05 0 0 0 0)
(-9.149e-05 2.13371e-06 0 1.549e-05 1.04922e-05 0 0 0 0)
(2.37192e-05 -3.15251e-08 0 -3.75173e-06 -9.8687e-08 0 0 0 0)
(-1.01634e-05 1.70627e-06 0 2.55605e-06 1.9909e-06 0 0 0 0)
(1.77317e-06 1.05072e-06 0 6.53006e-07 6.50809e-07 0 0 0 0)
(-1.56576e-06 1.07052e-06 0 1.01772e-06 7.16488e-07 0 0 0 0)
(-2.26843e-07 8.03631e-07 0 6.78558e-07 4.67789e-07 0 0 0 0)
(-4.79406e-07 6.30159e-07 0 5.57168e-07 3.87787e-07 0 0 0 0)
(-2.72583e-07 4.61764e-07 0 4.02522e-07 2.95575e-07 0 0 0 0)
(-2.43346e-07 3.3865e-07 0 2.92866e-07 2.33157e-07 0 0 0 0)
(-1.76344e-07 2.46279e-07 0 2.04126e-07 1.78399e-07 0 0 0 0)
(-1.35614e-07 1.80044e-07 0 1.38409e-07 1.34398e-07 0 0 0 0)
(-9.87119e-08 1.32864e-07 0 8.95511e-08 9.8675e-08 0 0 0 0)
(-7.15044e-08 9.97429e-08 0 5.4446e-08 7.08334e-08 0 0 0 0)
(-4.98753e-08 7.67428e-08 0 2.98931e-08 4.92645e-08 0 0 0 0)
(-3.21095e-08 6.08671e-08 0 1.34221e-08 3.20566e-08 0 0 0 0)
(-1.65695e-08 5.11185e-08 0 3.81371e-09 1.69462e-08 0 0 0 0)
(-5.80365e-09 3.3562e-08 0 2.18765e-10 5.02154e-09 0 0 0 0)
(0.000497151 -1.7401e-05 0 -0.000375276 7.26669e-05 0 0 0 0)
(-0.000617109 3.04028e-05 0 9.24068e-05 -3.00418e-05 0 0 0 0)
(0.000175366 -2.10937e-05 0 -3.75076e-05 1.00953e-05 0 0 0 0)
(-6.35793e-05 4.26112e-06 0 8.60591e-06 -9.68195e-07 0 0 0 0)
(1.89361e-05 -1.67522e-06 0 -2.84105e-06 2.17854e-06 0 0 0 0)
(-7.88721e-06 1.43058e-06 0 1.65124e-06 9.33602e-07 0 0 0 0)
(1.23638e-06 7.22643e-07 0 5.66444e-07 1.01832e-06 0 0 0 0)
(-1.53179e-06 8.96943e-07 0 8.419e-07 7.74192e-07 0 0 0 0)
(-4.18574e-07 6.62386e-07 0 6.0161e-07 6.55759e-07 0 0 0 0)
(-6.06977e-07 5.22795e-07 0 4.90274e-07 5.25364e-07 0 0 0 0)
(-3.95837e-07 3.73787e-07 0 3.5576e-07 4.20767e-07 0 0 0 0)
(-3.37824e-07 2.66087e-07 0 2.56435e-07 3.2902e-07 0 0 0 0)
(-2.49932e-07 1.86184e-07 0 1.77134e-07 2.52316e-07 0 0 0 0)
(-1.90222e-07 1.31244e-07 0 1.18704e-07 1.89038e-07 0 0 0 0)
(-1.38543e-07 9.41488e-08 0 7.59548e-08 1.38471e-07 0 0 0 0)
(-9.97005e-08 6.95782e-08 0 4.57148e-08 9.88563e-08 0 0 0 0)
(-6.92762e-08 5.30715e-08 0 2.48329e-08 6.8303e-08 0 0 0 0)
(-4.43673e-08 4.12632e-08 0 1.10488e-08 4.41697e-08 0 0 0 0)
(-2.26707e-08 3.4736e-08 0 3.07941e-09 2.3261e-08 0 0 0 0)
(-7.63387e-09 2.04392e-08 0 1.12838e-10 6.46907e-09 0 0 0 0)
(0.000472448 7.674e-05 0 -5.21318e-05 -3.64123e-05 0 0 0 0)
(-0.000577513 -0.000100852 0 2.00369e-05 -6.21636e-06 0 0 0 0)
(0.000155698 2.41935e-05 0 -7.1934e-06 1.38167e-06 0 0 0 0)
(-5.68235e-05 -5.78303e-06 0 2.45838e-06 -1.89356e-06 0 0 0 0)
(1.67645e-05 1.87027e-06 0 -1.15647e-07 1.4155e-06 0 0 0 0)
(-6.75587e-06 5.46054e-07 0 1.06169e-06 6.47587e-07 0 0 0 0)
(9.63836e-07 8.91312e-07 0 7.53486e-07 1.0826e-06 0 0 0 0)
(-1.53059e-06 7.07957e-07 0 7.28288e-07 8.80484e-07 0 0 0 0)
(-5.78469e-07 5.54802e-07 0 5.51659e-07 8.06874e-07 0 0 0 0)
(-7.25255e-07 3.95167e-07 0 4.17578e-07 6.58245e-07 0 0 0 0)
(-5.06422e-07 2.6542e-07 0 2.9691e-07 5.33438e-07 0 0 0 0)
(-4.21972e-07 1.70198e-07 0 2.05637e-07 4.15828e-07 0 0 0 0)
(-3.14076e-07 1.06297e-07 0 1.37737e-07 3.17301e-07 0 0 0 0)
(-2.36793e-07 6.61988e-08 0 8.9386e-08 2.36021e-07 0 0 0 0)
(-1.71701e-07 4.26825e-08 0 5.56348e-08 1.71667e-07 0 0 0 0)
(-1.22626e-07 2.95749e-08 0 3.26481e-08 1.21626e-07 0 0 0 0)
(-8.45413e-08 2.20563e-08 0 1.74333e-08 8.34318e-08 0 0 0 0)
(-5.3863e-08 1.58251e-08 0 7.60462e-09 5.36265e-08 0 0 0 0)
(-2.75055e-08 1.34178e-08 0 1.97314e-09 2.81255e-08 0 0 0 0)
(-8.99584e-09 3.83191e-09 0 -3.25261e-12 7.46352e-09 0 0 0 0)
(0.000465056 -6.00296e-05 0 0.000128568 -3.0246e-05 0 0 0 0)
(-0.000572171 6.81968e-05 0 -4.94781e-05 -1.87413e-05 0 0 0 0)
(0.000157787 -1.67709e-05 0 1.72212e-05 3.47236e-06 0 0 0 0)
(-5.65015e-05 4.29495e-06 0 -4.33923e-06 -3.2409e-06 0 0 0 0)
(1.75395e-05 8.65931e-07 0 3.30538e-06 1.4112e-06 0 0 0 0)
(-7.01808e-06 1.09768e-06 0 6.31373e-07 6.27404e-07 0 0 0 0)
(9.02976e-07 9.5554e-07 0 1.1565e-06 1.24262e-06 0 0 0 0)
(-1.73361e-06 6.21216e-07 0 6.52255e-07 1.06023e-06 0 0 0 0)
(-7.29284e-07 4.40148e-07 0 5.18664e-07 9.81176e-07 0 0 0 0)
(-8.61725e-07 2.4936e-07 0 3.2917e-07 7.98569e-07 0 0 0 0)
(-6.07778e-07 1.31369e-07 0 2.18783e-07 6.40594e-07 0 0 0 0)
(-4.96997e-07 4.99491e-08 0 1.3513e-07 4.924e-07 0 0 0 0)
(-3.66183e-07 6.37728e-09 0 8.26088e-08 3.70446e-07 0 0 0 0)
(-2.72324e-07 -1.43895e-08 0 4.8396e-08 2.71745e-07 0 0 0 0)
(-1.95281e-07 -2.02462e-08 0 2.74789e-08 1.95126e-07 0 0 0 0)
(-1.37902e-07 -1.86575e-08 0 1.47355e-08 1.36663e-07 0 0 0 0)
(-9.43197e-08 -1.49283e-08 0 7.2267e-09 9.28408e-08 0 0 0 0)
(-5.98275e-08 -1.40431e-08 0 2.90639e-09 5.92578e-08 0 0 0 0)
(-3.02785e-08 -1.14269e-08 0 6.22413e-10 3.09399e-08 0 0 0 0)
(-9.60375e-09 -1.51498e-08 0 -1.3417e-10 7.85115e-09 0 0 0 0)
(0.000551538 2.77528e-05 0 0.000415651 0.000174593 0 0 0 0)
(-0.000688859 -6.71333e-05 0 -8.74938e-05 -4.06668e-05 0 0 0 0)
(0.000200837 3.96939e-05 0 4.01992e-05 8.68919e-06 0 0 0 0)
(-7.07393e-05 -7.84419e-06 0 -6.33577e-06 -3.35795e-06 0 0 0 0)
(2.17351e-05 5.73857e-06 0 5.59488e-06 1.75839e-06 0 0 0 0)
(-8.90475e-06 3.77475e-07 0 6.65742e-07 1.02102e-06 0 0 0 0)
(9.84718e-07 1.32414e-06 0 1.45811e-06 1.63446e-06 0 0 0 0)
(-2.16843e-06 4.46515e-07 0 5.82553e-07 1.36571e-06 0 0 0 0)
(-9.01554e-07 2.93144e-07 0 4.35911e-07 1.21109e-06 0 0 0 0)
(-1.02513e-06 5.45847e-08 0 1.97209e-07 9.50765e-07 0 0 0 0)
(-7.00463e-07 -4.07488e-08 0 1.0244e-07 7.39009e-07 0 0 0 0)
(-5.58147e-07 -9.99489e-08 0 3.56515e-08 5.51623e-07 0 0 0 0)
(-4.0081e-07 -1.14358e-07 0 7.15096e-09 4.04697e-07 0 0 0 0)
(-2.91923e-07 -1.09122e-07 0 -6.12176e-09 2.90296e-07 0 0 0 0)
(-2.05362e-07 -9.23992e-08 0 -9.16988e-09 2.0454e-07 0 0 0 0)
(-1.42878e-07 -7.271e-08 0 -8.15862e-09 1.40968e-07 0 0 0 0)
(-9.63704e-08 -5.53489e-08 0 -5.51076e-09 9.45353e-08 0 0 0 0)
(-6.04673e-08 -4.60759e-08 0 -2.8878e-09 5.98099e-08 0 0 0 0)
(-3.0546e-08 -3.79889e-08 0 -1.09157e-09 3.10269e-08 0 0 0 0)
(-9.48411e-09 -3.49591e-08 0 -2.61184e-10 7.54196e-09 0 0 0 0)
(0.000793213 7.38967e-05 0 0.000339511 -0.000278456 0 0 0 0)
(-0.000947623 -9.77071e-05 0 -0.000128399 1.6818e-05 0 0 0 0)
(0.000238945 2.0538e-05 0 4.70309e-05 -2.58238e-06 0 0 0 0)
(-9.11058e-05 -2.63586e-06 0 -1.25934e-05 -2.44686e-06 0 0 0 0)
(2.4541e-05 5.2449e-06 0 9.20256e-06 3.31101e-06 0 0 0 0)
(-1.11549e-05 9.73753e-07 0 1.18174e-07 1.66543e-06 0 0 0 0)
(8.19787e-07 1.30023e-06 0 1.85663e-06 2.42083e-06 0 0 0 0)
(-2.75581e-06 1.97845e-07 0 3.1227e-07 1.78576e-06 0 0 0 0)
(-1.11463e-06 2.52034e-08 0 2.56947e-07 1.49723e-06 0 0 0 0)
(-1.1952e-06 -2.22721e-07 0 -2.84382e-08 1.09837e-06 0 0 0 0)
(-7.69335e-07 -2.67773e-07 0 -7.23851e-08 8.12537e-07 0 0 0 0)
(-5.92286e-07 -2.84363e-07 0 -1.03294e-07 5.79516e-07 0 0 0 0)
(-4.07956e-07 -2.54949e-07 0 -9.20549e-08 4.09701e-07 0 0 0 0)
(-2.88645e-07 -2.14546e-07 0 -7.4655e-08 2.84584e-07 0 0 0 0)
(-1.97318e-07 -1.69574e-07 0 -5.35735e-08 1.95287e-07 0 0 0 0)
(-1.34243e-07 -1.28662e-07 0 -3.51892e-08 1.31698e-07 0 0 0 0)
(-8.90489e-08 -9.60867e-08 0 -2.04121e-08 8.67964e-08 0 0 0 0)
(-5.54083e-08 -7.75514e-08 0 -9.6494e-09 5.41997e-08 0 0 0 0)
(-2.76519e-08 -6.36949e-08 0 -2.97876e-09 2.79134e-08 0 0 0 0)
(-8.25097e-09 -5.37186e-08 0 -3.72369e-10 6.46527e-09 0 0 0 0)
(0.000762649 -0.000233885 0 0.00146343 0.000569356 0 0 0 0)
(-0.000981339 0.00020874 0 -0.000338427 -0.000156271 0 0 0 0)
(0.000316643 2.04291e-05 0 0.000146326 3.77475e-05 0 0 0 0)
(-0.000108568 -1.95081e-06 0 -2.98035e-05 -8.60567e-06 0 0 0 0)
(3.44467e-05 9.85086e-06 0 1.68877e-05 6.94799e-06 0 0 0 0)
(-1.62507e-05 -5.12709e-07 0 -1.72819e-06 2.84696e-06 0 0 0 0)
(1.17881e-06 1.44446e-06 0 2.09353e-06 3.50249e-06 0 0 0 0)
(-3.76811e-06 -4.77085e-07 0 -2.97296e-07 2.33993e-06 0 0 0 0)
(-1.24226e-06 -3.94246e-07 0 -1.12699e-07 1.77407e-06 0 0 0 0)
(-1.35447e-06 -6.30104e-07 0 -3.88453e-07 1.19618e-06 0 0 0 0)
(-7.75318e-07 -5.59599e-07 0 -3.24574e-07 8.23539e-07 0 0 0 0)
(-5.77817e-07 -5.02784e-07 0 -2.86038e-07 5.5191e-07 0 0 0 0)
(-3.72171e-07 -4.09289e-07 0 -2.13956e-07 3.70539e-07 0 0 0 0)
(-2.53442e-07 -3.23536e-07 0 -1.54398e-07 2.46028e-07 0 0 0 0)
(-1.65896e-07 -2.45285e-07 0 -1.03067e-07 1.62565e-07 0 0 0 0)
(-1.09717e-07 -1.81201e-07 0 -6.43668e-08 1.06278e-07 0 0 0 0)
(-7.08306e-08 -1.32847e-07 0 -3.60971e-08 6.83154e-08 0 0 0 0)
(-4.30339e-08 -1.04959e-07 0 -1.66253e-08 4.18772e-08 0 0 0 0)
(-2.1269e-08 -8.57232e-08 0 -4.91737e-09 2.12694e-08 0 0 0 0)
(-6.13298e-09 -6.93378e-08 0 -4.64716e-10 4.60152e-09 0 0 0 0)
(0.00191822 0.000486982 0 0.00105321 -0.000641238 0 0 0 0)
(-0.00226473 -0.000629316 0 -0.000334307 3.71596e-05 0 0 0 0)
(0.000547569 0.000168204 0 0.000134738 -1.99884e-06 0 0 0 0)
(-0.000220544 -3.34354e-05 0 -3.38152e-05 1.05632e-06 0 0 0 0)
(5.26162e-05 1.66975e-05 0 1.99298e-05 1.06325e-05 0 0 0 0)
(-2.5949e-05 -2.47176e-06 0 -3.42715e-06 5.25e-06 0 0 0 0)
(2.25068e-06 7.93209e-07 0 1.60076e-06 4.88534e-06 0 0 0 0)
(-4.96204e-06 -1.53057e-06 0 -1.38796e-06 2.83925e-06 0 0 0 0)
(-1.20579e-06 -1.11855e-06 0 -7.7042e-07 1.90994e-06 0 0 0 0)
(-1.40707e-06 -1.17325e-06 0 -9.13453e-07 1.14185e-06 0 0 0 0)
(-6.6692e-07 -9.12039e-07 0 -6.51188e-07 7.12438e-07 0 0 0 0)
(-4.81668e-07 -7.37363e-07 0 -5.01236e-07 4.36313e-07 0 0 0 0)
(-2.76315e-07 -5.60831e-07 0 -3.46428e-07 2.70593e-07 0 0 0 0)
(-1.77756e-07 -4.2252e-07 0 -2.35996e-07 1.66791e-07 0 0 0 0)
(-1.07287e-07 -3.09325e-07 0 -1.51158e-07 1.02948e-07 0 0 0 0)
(-6.7273e-08 -2.22912e-07 0 -9.15435e-08 6.35395e-08 0 0 0 0)
(-4.13074e-08 -1.60487e-07 0 -5.02714e-08 3.89035e-08 0 0 0 0)
(-2.42287e-08 -1.24598e-07 0 -2.29118e-08 2.28257e-08 0 0 0 0)
(-1.14912e-08 -1.00971e-07 0 -6.69747e-09 1.12146e-08 0 0 0 0)
(-2.86888e-09 -7.95895e-08 0 -5.49311e-10 2.0022e-09 0 0 0 0)
(0.00148155 -0.000837963 0 0.00520586 0.000942566 0 0 0 0)
(-0.00189981 0.000847979 0 -0.00128521 -0.00032038 0 0 0 0)
(0.000617134 -1.56742e-05 0 0.000508056 0.000109473 0 0 0 0)
(-0.000223376 1.06806e-05 0 -0.000116495 -6.49262e-07 0 0 0 0)
(6.48348e-05 1.40445e-05 0 4.59835e-05 2.13942e-05 0 0 0 0)
(-3.45797e-05 -6.25991e-06 0 -1.37312e-05 8.1704e-06 0 0 0 0)
(3.21801e-06 -9.66288e-07 0 1.30042e-06 5.70227e-06 0 0 0 0)
(-6.13928e-06 -3.45248e-06 0 -3.61723e-06 2.94019e-06 0 0 0 0)
(-7.67755e-07 -2.09165e-06 0 -1.65597e-06 1.57687e-06 0 0 0 0)
(-1.23524e-06 -1.82761e-06 0 -1.57649e-06 8.16472e-07 0 0 0 0)
(-3.63101e-07 -1.26514e-06 0 -1.002e-06 4.0768e-07 0 0 0 0)
(-2.73056e-07 -9.4463e-07 0 -7.09441e-07 2.07854e-07 0 0 0 0)
(-1.0693e-07 -6.78811e-07 0 -4.62724e-07 1.00024e-07 0 0 0 0)
(-5.81718e-08 -4.91181e-07 0 -3.02204e-07 4.53547e-08 0 0 0 0)
(-2.14437e-08 -3.48537e-07 0 -1.87737e-07 1.74545e-08 0 0 0 0)
(-8.83053e-09 -2.45245e-07 0 -1.10945e-07 5.33769e-09 0 0 0 0)
(-2.19887e-09 -1.73561e-07 0 -5.98809e-08 3.61674e-10 0 0 0 0)
(5.40014e-10 -1.32648e-07 0 -2.69716e-08 -1.40955e-09 0 0 0 0)
(1.09344e-09 -1.06547e-07 0 -7.86258e-09 -1.40789e-09 0 0 0 0)
(1.11377e-09 -8.25545e-08 0 -6.42959e-10 -1.19599e-09 0 0 0 0)
(0.00583887 0.00110917 0 0.00616318 -0.00220579 0 0 0 0)
(-0.00696253 -0.00146241 0 -0.00157556 0.00106077 0 0 0 0)
(0.00171629 0.000487934 0 0.000573004 -0.000178261 0 0 0 0)
(-0.000682617 -0.000121514 0 -0.000155375 0.000140735 0 0 0 0)
(0.00015538 2.55172e-05 0 3.82532e-05 -7.59724e-06 0 0 0 0)
(-7.06322e-05 -1.81636e-05 0 -2.20698e-05 1.98185e-05 0 0 0 0)
(1.23647e-05 -4.437e-06 0 -2.89728e-06 1.10485e-06 0 0 0 0)
(-7.91842e-06 -5.65597e-06 0 -5.73339e-06 2.78001e-06 0 0 0 0)
(8.34948e-07 -3.24227e-06 0 -2.80834e-06 2.50828e-07 0 0 0 0)
(-7.53099e-07 -2.34244e-06 0 -2.10553e-06 1.91163e-07 0 0 0 0)
(2.00133e-07 -1.52066e-06 0 -1.28374e-06 -1.32355e-07 0 0 0 0)
(5.76044e-08 -1.04502e-06 0 -8.37217e-07 -1.25689e-07 0 0 0 0)
(1.30923e-07 -7.23331e-07 0 -5.25418e-07 -1.31575e-07 0 0 0 0)
(9.7231e-08 -5.05089e-07 0 -3.29913e-07 -1.0662e-07 0 0 0 0)
(8.39718e-08 -3.49342e-07 0 -2.00521e-07 -8.5184e-08 0 0 0 0)
(6.05832e-08 -2.40005e-07 0 -1.16056e-07 -6.19321e-08 0 0 0 0)
(4.2666e-08 -1.67235e-07 0 -6.16017e-08 -4.29201e-08 0 0 0 0)
(2.77897e-08 -1.26367e-07 0 -2.74531e-08 -2.80308e-08 0 0 0 0)
(1.48374e-08 -1.00757e-07 0 -8.10379e-09 -1.50812e-08 0 0 0 0)
(5.6366e-09 -7.69857e-08 0 -7.069e-10 -4.68986e-09 0 0 0 0)
(0.00606917 -0.00198298 0 -0.00532147 5.7413e-05 0 0 0 0)
(-0.00748998 0.00287551 0 0.00140881 0.00128563 0 0 0 0)
(0.00203732 -0.000935712 0 -0.000618097 -0.000289253 0 0 0 0)
(-0.000758127 0.000181344 0 0.000117401 0.000207455 0 0 0 0)
(0.00019814 -0.000106872 0 -9.33304e-05 -4.80663e-05 0 0 0 0)
(-7.57301e-05 2.44218e-06 0 -9.68754e-08 2.31808e-05 0 0 0 0)
(1.95544e-05 -1.80048e-05 0 -1.75504e-05 -7.61219e-06 0 0 0 0)
(-6.05035e-06 -4.3065e-06 0 -4.16265e-06 1.15881e-06 0 0 0 0)
(2.86011e-06 -4.6805e-06 0 -4.35211e-06 -1.87425e-06 0 0 0 0)
(2.89365e-07 -2.21079e-06 0 -1.94238e-06 -7.23616e-07 0 0 0 0)
(9.05208e-07 -1.58199e-06 0 -1.40246e-06 -8.23336e-07 0 0 0 0)
(4.85264e-07 -9.4385e-07 0 -7.91674e-07 -5.22621e-07 0 0 0 0)
(4.00374e-07 -6.59742e-07 0 -5.07815e-07 -3.92494e-07 0 0 0 0)
(2.66725e-07 -4.4479e-07 0 -3.00006e-07 -2.68309e-07 0 0 0 0)
(1.92413e-07 -3.03849e-07 0 -1.81046e-07 -1.90165e-07 0 0 0 0)
(1.30088e-07 -2.02981e-07 0 -1.03224e-07 -1.29141e-07 0 0 0 0)
(8.64035e-08 -1.3966e-07 0 -5.49382e-08 -8.54508e-08 0 0 0 0)
(5.40379e-08 -1.04809e-07 0 -2.41355e-08 -5.34637e-08 0 0 0 0)
(2.78396e-08 -8.32058e-08 0 -6.91962e-09 -2.78236e-08 0 0 0 0)
(9.92452e-09 -6.27835e-08 0 -6.22657e-10 -7.99042e-09 0 0 0 0)
(0.0019262 0.00245221 0 -0.0345098 9.63957e-05 0 0 0 0)
(-0.00225916 -0.00180908 0 0.00902147 0.000547985 0 0 0 0)
(0.000424881 -0.000590236 0 -0.0034292 -0.000196043 0 0 0 0)
(-0.000157851 0.000119673 0 0.000868222 4.85118e-05 0 0 0 0)
(3.78818e-05 -0.000158758 0 -0.000353117 -4.33234e-05 0 0 0 0)
(5.14788e-06 2.22905e-05 0 7.35786e-05 -3.4771e-06 0 0 0 0)
(8.2989e-06 -2.6459e-05 0 -4.00516e-05 -1.01578e-05 0 0 0 0)
(5.27987e-06 8.19695e-08 0 3.66711e-06 -3.88482e-06 0 0 0 0)
(3.05523e-06 -5.1247e-06 0 -5.71484e-06 -3.2933e-06 0 0 0 0)
(2.19656e-06 -1.29153e-06 0 -7.60541e-07 -1.92244e-06 0 0 0 0)
(1.35083e-06 -1.31966e-06 0 -1.23509e-06 -1.36073e-06 0 0 0 0)
(9.52245e-07 -6.14177e-07 0 -5.12685e-07 -8.97726e-07 0 0 0 0)
(6.22591e-07 -4.69018e-07 0 -3.84414e-07 -6.12269e-07 0 0 0 0)
(4.24e-07 -3.0276e-07 0 -2.02592e-07 -4.09701e-07 0 0 0 0)
(2.80753e-07 -2.10174e-07 0 -1.25358e-07 -2.74731e-07 0 0 0 0)
(1.86691e-07 -1.35291e-07 0 -7.09662e-08 -1.82265e-07 0 0 0 0)
(1.21755e-07 -9.15578e-08 0 -3.91347e-08 -1.18993e-07 0 0 0 0)
(7.58083e-08 -6.87398e-08 0 -1.6943e-08 -7.40236e-08 0 0 0 0)
(3.83502e-08 -5.52838e-08 0 -4.46908e-09 -3.79811e-08 0 0 0 0)
(1.31788e-08 -4.11717e-08 0 -3.19433e-10 -1.03918e-08 0 0 0 0)
(-0.0194192 -0.0013386 0 0.0237784 0.00128516 0 0 0 0)
(0.0235907 0.00258307 0 -0.00628546 -0.00239877 0 0 0 0)
(-0.00611593 -0.00143519 0 0.00244695 0.000511167 0 0 0 0)
(0.00231795 0.000334064 0 -0.000594403 -0.000373347 0 0 0 0)
(-0.000596504 -0.000158861 0 0.000286846 5.74297e-05 0 0 0 0)
(0.000237336 3.56078e-05 0 -3.57811e-05 -5.57279e-05 0 0 0 0)
(-5.03571e-05 -1.84125e-05 0 4.43626e-05 -4.68584e-07 0 0 0 0)
(2.82864e-05 2.55796e-06 0 6.27717e-06 -1.08564e-05 0 0 0 0)
(-1.56755e-06 -2.71812e-06 0 1.07963e-05 -3.10851e-06 0 0 0 0)
(4.76911e-06 -2.78229e-07 0 4.78949e-06 -3.01356e-06 0 0 0 0)
(1.15306e-06 -5.57275e-07 0 3.83063e-06 -1.53876e-06 0 0 0 0)
(1.33594e-06 -1.95387e-07 0 2.28559e-06 -1.13663e-06 0 0 0 0)
(7.10467e-07 -1.71718e-07 0 1.54245e-06 -7.29195e-07 0 0 0 0)
(5.25781e-07 -1.07252e-07 0 9.5253e-07 -4.95891e-07 0 0 0 0)
(3.2404e-07 -7.64128e-08 0 5.92665e-07 -3.19182e-07 0 0 0 0)
(2.16312e-07 -4.72433e-08 0 3.47737e-07 -2.09305e-07 0 0 0 0)
(1.40427e-07 -3.14186e-08 0 1.89662e-07 -1.36648e-07 0 0 0 0)
(8.87035e-08 -2.37966e-08 0 8.55555e-08 -8.63287e-08 0 0 0 0)
(4.44631e-08 -1.95741e-08 0 2.51498e-08 -4.41113e-08 0 0 0 0)
(1.47131e-08 -1.44105e-08 0 2.74208e-09 -1.14709e-08 0 0 0 0)
)
;

boundaryField
{
    movingWall
    {
        type            extrapolatedCalculated;
        value           nonuniform List<tensor> 
20
(
(-0.0194192 -0.0013386 0 0.104725 0.0118185 0 0 0 0)
(0.0235907 0.00258307 0 -0.027048 -0.00646414 0 0 0 0)
(-0.00611593 -0.00143519 0 0.0103621 0.00148626 0 0 0 0)
(0.00231795 0.000334064 0 -0.00258422 -0.000723404 0 0 0 0)
(-0.000596504 -0.000158861 0 0.00109028 0.00015001 0 0 0 0)
(0.000237336 3.56078e-05 0 -0.000198203 -8.79597e-05 0 0 0 0)
(-5.03571e-05 -1.84125e-05 0 0.000140942 7.57824e-06 0 0 0 0)
(2.82864e-05 2.55796e-06 0 3.22526e-06 -1.43097e-05 0 0 0 0)
(-1.56755e-06 -2.71812e-06 0 2.77967e-05 -2.6536e-06 0 0 0 0)
(4.76911e-06 -2.78229e-07 0 9.49545e-06 -3.43727e-06 0 0 0 0)
(1.15306e-06 -5.57275e-07 0 8.7202e-06 -1.54068e-06 0 0 0 0)
(1.33594e-06 -1.95387e-07 0 4.8832e-06 -1.20817e-06 0 0 0 0)
(7.10467e-07 -1.71718e-07 0 3.37643e-06 -7.59136e-07 0 0 0 0)
(5.25781e-07 -1.07252e-07 0 2.04133e-06 -5.21297e-07 0 0 0 0)
(3.2404e-07 -7.64128e-08 0 1.2733e-06 -3.30127e-07 0 0 0 0)
(2.16312e-07 -4.72433e-08 0 7.4517e-07 -2.15646e-07 0 0 0 0)
(1.40427e-07 -3.14186e-08 0 4.08055e-07 -1.41154e-07 0 0 0 0)
(8.87035e-08 -2.37966e-08 0 1.83463e-07 -8.99712e-08 0 0 0 0)
(4.44631e-08 -1.95741e-08 0 5.32415e-08 -4.59671e-08 0 0 0 0)
(1.47131e-08 -1.44105e-08 0 5.6108e-09 -1.1675e-08 0 0 0 0)
)
;
    }
    fixedWalls
    {
        type            extrapolatedCalculated;
        value           nonuniform List<tensor> 
60
(
(-0.00272983 0.000617156 0 -0.00141173 3.27285e-05 0 0 0 0)
(-0.00291709 -0.000486242 0 -0.00029185 -2.16836e-05 0 0 0 0)
(-0.00389723 0.000530422 0 -0.000211664 0.00013994 0 0 0 0)
(-0.00376374 7.35171e-05 0 0.000446655 6.46515e-05 0 0 0 0)
(-0.00211061 0.000789028 0 0.00156921 -5.29154e-05 0 0 0 0)
(0.0025131 -0.000138145 0 0.00181171 -6.8524e-05 0 0 0 0)
(0.00513624 0.000514932 0 0.000391193 6.65674e-05 0 0 0 0)
(0.00407787 0.000128125 0 -0.000592667 -0.000166774 0 0 0 0)
(0.00276557 -0.000152164 0 -0.000375276 7.26669e-05 0 0 0 0)
(0.00257677 0.000418793 0 -5.21318e-05 -3.64123e-05 0 0 0 0)
(0.00255705 -0.000297813 0 0.000128568 -3.0246e-05 0 0 0 0)
(0.00309104 0.000297809 0 0.000415651 0.000174593 0 0 0 0)
(0.00421965 0.000400559 0 0.000339511 -0.000278456 0 0 0 0)
(0.00444908 -0.000816016 0 0.00146343 0.000569356 0 0 0 0)
(0.0100734 0.00267798 0 0.00105321 -0.000641238 0 0 0 0)
(0.0086619 -0.00338097 0 0.00520586 0.000942566 0 0 0 0)
(0.0308968 0.00644825 0 0.00616318 -0.00220579 0 0 0 0)
(0.0333146 -0.0122041 0 -0.00532147 5.7413e-05 0 0 0 0)
(0.00961095 0.0066779 0 -0.0345098 9.63957e-05 0 0 0 0)
(-0.104725 -0.0118185 0 0.0237784 0.00128516 0 0 0 0)
(1.35874e-09 5.32781e-09 0 -6.19865e-10 -5.19087e-09 0 0 0 0)
(1.12079e-09 1.54357e-08 0 1.54987e-10 -4.67576e-09 0 0 0 0)
(7.38787e-10 2.40308e-08 0 2.33862e-10 -3.67442e-09 0 0 0 0)
(1.85185e-10 3.01333e-08 0 2.95174e-10 -2.25091e-09 0 0 0 0)
(-4.41869e-10 3.30345e-08 0 3.25586e-10 -5.23625e-10 0 0 0 0)
(-1.11706e-09 3.22278e-08 0 3.26101e-10 1.36864e-09 0 0 0 0)
(-1.74634e-09 2.75599e-08 0 2.87422e-10 3.26973e-09 0 0 0 0)
(-2.26676e-09 1.91489e-08 0 2.18765e-10 5.02154e-09 0 0 0 0)
(-2.62137e-09 7.47379e-09 0 1.12838e-10 6.46907e-09 0 0 0 0)
(-2.71809e-09 -6.72733e-09 0 -3.25261e-12 7.46352e-09 0 0 0 0)
(-2.6084e-09 -2.23803e-08 0 -1.3417e-10 7.85115e-09 0 0 0 0)
(-2.18137e-09 -3.81319e-08 0 -2.61184e-10 7.54196e-09 0 0 0 0)
(-1.56359e-09 -5.25482e-08 0 -3.72369e-10 6.46527e-09 0 0 0 0)
(-6.91935e-10 -6.3993e-08 0 -4.64716e-10 4.60152e-09 0 0 0 0)
(2.95231e-10 -7.09542e-08 0 -5.49311e-10 2.0022e-09 0 0 0 0)
(1.50528e-09 -7.20018e-08 0 -6.42959e-10 -1.19599e-09 0 0 0 0)
(2.86695e-09 -6.61703e-08 0 -7.069e-10 -4.68986e-09 0 0 0 0)
(4.33307e-09 -5.32424e-08 0 -6.22657e-10 -7.99042e-09 0 0 0 0)
(5.35749e-09 -3.42086e-08 0 -3.19433e-10 -1.03918e-08 0 0 0 0)
(5.6108e-09 -1.1675e-08 0 2.74208e-09 -1.14709e-08 0 0 0 0)
(-0.00050359 0.000116092 0 -0.00272983 0.000617156 0 0 0 0)
(0.00060925 -0.000146085 0 0.000715465 -0.000152787 0 0 0 0)
(-0.000163613 3.57264e-05 0 -0.000292827 3.28164e-05 0 0 0 0)
(6.20487e-05 -8.25664e-06 0 6.10143e-05 -9.8817e-06 0 0 0 0)
(-1.63324e-05 1.94506e-06 0 -4.46319e-05 -2.10147e-07 0 0 0 0)
(7.93978e-06 -2.95721e-07 0 -4.31534e-06 -2.10146e-06 0 0 0 0)
(-5.34722e-07 2.37617e-07 0 -1.28728e-05 -1.39303e-06 0 0 0 0)
(1.78679e-06 1.29476e-07 0 -6.45423e-06 -1.15099e-06 0 0 0 0)
(6.57511e-07 1.242e-07 0 -5.72563e-06 -8.7513e-07 0 0 0 0)
(7.20668e-07 9.66343e-08 0 -3.82418e-06 -6.54191e-07 0 0 0 0)
(4.62917e-07 7.31532e-08 0 -2.84296e-06 -4.88593e-07 0 0 0 0)