/*--------------------------------*- C++ -*----------------------------------*\
| =========                 |                                                 |
| \\      /  F ield         | OpenFOAM: The Open Source CFD Toolbox           |
|  \\    /   O peration     | Version:  2312                                  |
|   \\  /    A nd           | Website:  www.openfoam.com                      |
|    \\/     M anipulation  |                                                 |
\*---------------------------------------------------------------------------*/
FoamFile
{
    version     2.0;
    format      ascii;
    arch        "LSB;label=32;scalar=64";
    class       volScalarField;
    location    "2.75";
    object      Lambda2Field;
}
// * * * * * * * * * * * * * * * * * * * * * * * * * * * * * * * * * * * * * //

dimensions      [0 0 -2 0 0 0 0];

internalField   nonuniform List<scalar> 
400
(
8.97124e-08
0
3.39876e-09
0
1.17949e-10
3.51517e-12
0
8.92832e-13
8.59378e-14
2.44066e-13
1.13854e-13
7.53569e-14
4.14878e-14
2.31788e-14
1.27646e-14
6.56354e-15
3.30789e-15
1.357e-15
3.65147e-16
2.25799e-17
3.59553e-08
7.90016e-09
1.0371e-09
5.8321e-11
1.14968e-11
5.15805e-12
5.85854e-13
1.48401e-12
4.62821e-13
4.4283e-13
2.20748e-13
1.30089e-13
6.96075e-14
3.69535e-14
1.93098e-14
9.44006e-15
4.46407e-15
1.74608e-15
4.51631e-16
2.50483e-17
2.25947e-08
0
1.33123e-10
9.54039e-11
2.37816e-12
8.03054e-12
2.17112e-12
1.64844e-12
5.46791e-13
4.51503e-13
2.23239e-13
1.27647e-13
6.7241e-14
3.52047e-14
1.79927e-14
8.66125e-15
3.97408e-15
1.52904e-15
3.9245e-16
2.10454e-17
5.00267e-08
9.03662e-09
1.64575e-09
2.1966e-10
4.53218e-11
7.28048e-12
3.91488e-12
1.50878e-12
7.46561e-13
4.41936e-13
2.30294e-13
1.23769e-13
6.48457e-14
3.32433e-14
1.66037e-14
7.8296e-15
3.47006e-15
1.30071e-15
3.26544e-16
1.71859e-17
2.84282e-07
7.37105e-08
1.62635e-08
8.03173e-10
2.55888e-10
2.86359e-12
8.95236e-12
8.64723e-13
1.0686e-12
4.06732e-13
2.47399e-13
1.21027e-13
6.44857e-14
3.22244e-14
1.58786e-14
7.34539e-15
3.15703e-15
1.1577e-15
2.87461e-16
1.52629e-17
4.70136e-08
0
1.29054e-08
4.93572e-10
2.49221e-10
1.38531e-12
9.43065e-12
6.71805e-13
1.14945e-12
4.00329e-13
2.57698e-13
1.2396e-13
6.66875e-14
3.31907e-14
1.63194e-14
7.53673e-15
3.23276e-15
1.1791e-15
2.90429e-16
1.67762e-17
5.77269e-08
1.63126e-08
2.18261e-09
2.52043e-10
4.69002e-11
5.65758e-12
3.69851e-12
1.30564e-12
8.42442e-13
4.55345e-13
2.50712e-13
1.3582e-13
7.17014e-14
3.68273e-14
1.82018e-14
8.57222e-15
3.77615e-15
1.41069e-15
3.52683e-16
2.28798e-17
1.05809e-07
4.29664e-10
1.09609e-09
1.43137e-10
3.58798e-12
8.32502e-12
1.14922e-12
1.60284e-12
5.96768e-13
5.01483e-13
2.60172e-13
1.53541e-13
8.13694e-14
4.29824e-14
2.16422e-14
1.0448e-14
4.78162e-15
1.84459e-15
4.695e-16
3.2558e-17
4.38293e-08
3.71194e-09
9.60441e-10
3.76082e-11
9.8452e-12
3.23385e-12
1.45241e-12
1.35451e-12
5.73702e-13
5.3232e-13
2.89666e-13
1.76488e-13
9.54453e-14
5.13145e-14
2.63453e-14
1.29533e-14
6.11711e-15
2.40687e-15
6.20927e-16
4.41552e-17
1.47725e-09
0
7.41602e-11
0
2.77332e-12
9.9911e-13
1.60057e-12
1.29085e-12
6.40688e-13
5.983e-13
3.3527e-13
2.07912e-13
1.13285e-13
6.16233e-14
3.18559e-14
1.57585e-14
7.35072e-15
2.99614e-15
7.83026e-16
5.56917e-17
2.08918e-09
0
1.2108e-11
0
6.34143e-12
1.08668e-12
1.92044e-12
1.52927e-12
7.60144e-13
7.19794e-13
3.98135e-13
2.49207e-13
1.34616e-13
7.31487e-14
3.75784e-14
1.84018e-14
8.63425e-15
3.47068e-15
9.09676e-16
6.36733e-17
7.96345e-08
7.52753e-09
1.67123e-09
6.09748e-11
3.52037e-11
1.29378e-12
2.9004e-12
2.12528e-12
9.40584e-13
9.14719e-13
4.86474e-13
3.00725e-13
1.59831e-13
8.49399e-14
4.30207e-14
2.04653e-14
9.59227e-15
3.71029e-15
9.74528e-16
6.6012e-17
1.20264e-07
1.28283e-08
1.14806e-09
3.91815e-11
6.3145e-11
2.88874e-12
3.0861e-12
3.25071e-12
1.24887e-12
1.21274e-12
6.1126e-13
3.65212e-13
1.89897e-13
9.70051e-14
4.80191e-14
2.18719e-14
9.89103e-15
3.68593e-15
9.54361e-16
6.18028e-17
2.39358e-07
0
8.37671e-09
1.32198e-10
2.27013e-10
8.99123e-12
4.41362e-12
5.61712e-12
1.58765e-12
1.6756e-12
7.8275e-13
4.4842e-13
2.26081e-13
1.10483e-13
5.28023e-14
2.29583e-14
9.81238e-15
3.49868e-15
8.73905e-16
5.33964e-17
1.00423e-06
2.11765e-07
2.29474e-08
1.13174e-09
4.48441e-10
3.60336e-11
6.33531e-12
1.01857e-11
2.31567e-12
2.37553e-12
1.03869e-12
5.59962e-13
2.70638e-13
1.27532e-13
5.82674e-14
2.44434e-14
9.77424e-15
3.37576e-15
8.08296e-16
4.77282e-17
0
0
7.25943e-08
0
1.35855e-09
1.52712e-10
9.09899e-12
2.11331e-11
4.05316e-12
3.54784e-12
1.3995e-12
7.13363e-13
3.25536e-13
1.50494e-13
6.58932e-14
2.72372e-14
1.03978e-14
3.57801e-15
8.38928e-16
5.43197e-17
1.80873e-05
3.42935e-06
3.13174e-07
3.86866e-08
1.07438e-09
7.93641e-10
1.46686e-11
4.01563e-11
9.21538e-12
4.96861e-12
1.98368e-12
8.78226e-13
3.97191e-13
1.76089e-13
7.71014e-14
3.15242e-14
1.21223e-14
4.24144e-15
1.03666e-15
7.64159e-17
1.3342e-05
5.70387e-06
6.87248e-07
6.43278e-08
1.23306e-08
5.37112e-10
3.73988e-10
1.92693e-11
2.39098e-11
4.37792e-12
2.90461e-12
9.82703e-13
4.94849e-13
2.04582e-13
9.20336e-14
3.76299e-14
1.51382e-14
5.38798e-15
1.3508e-15
1.02939e-16
0
-1.12167e-05
2.20456e-06
1.06256e-07
5.74951e-08
1.65219e-09
1.1286e-09
1.53924e-11
3.86213e-11
4.67802e-12
3.45466e-12
1.12079e-12
5.5696e-13
2.29192e-13
1.03623e-13
4.28215e-14
1.84073e-14
6.64415e-15
1.71781e-15
1.21142e-16
5.64865e-06
0
5.17208e-07
0
7.39321e-09
1.83151e-09
1.68571e-10
1.33918e-10
0
7.749e-12
0
8.45349e-13
2.39898e-13
1.43747e-13
5.97145e-14
2.73804e-14
1.37608e-14
5.41671e-15
1.48469e-15
9.20668e-17
)
;

boundaryField
{
    movingWall
    {
        type            calculated;
        value           nonuniform List<scalar> 
20
(
0.000178303
0
2.21314e-05
0
1.82613e-07
6.79325e-10
0
2.13019e-10
0
9.1729e-12
0
5.05558e-13
0
5.28132e-14
7.70498e-15
1.12987e-14
6.89916e-15
3.50249e-15
9.34818e-16
5.54516e-17
)
;
    }
    fixedWalls
    {
        type            calculated;
        value           nonuniform List<scalar> 
60
(
1.58907e-07
1.4238e-07
4.49848e-08
3.70166e-08
1.39312e-06
0
2.09697e-07
0
7.48288e-08
0
8.07585e-09
1.54267e-07
2.14464e-07
0
3.89163e-06
0
1.13312e-05
0
0
0
0
3.6485e-18
6.16571e-18
8.92887e-18
1.09508e-17
1.17574e-17
1.0971e-17
9.32734e-18
7.71491e-18
7.40991e-18
9.80653e-18
1.47178e-17
2.20121e-17
3.02174e-17
3.90631e-17
4.77246e-17
5.49952e-17
5.19272e-17
3.96301e-17
0
0
0
1.63074e-08
0
1.79936e-10
5.69225e-12
0
4.8911e-13
0
5.84179e-14
6.31987e-15
2.14448e-14
1.18326e-14
8.91097e-15
5.3974e-15
3.33717e-15
1.84994e-15
8.52861e-16
2.37957e-16
1.88171e-17
)
;
    }
    frontAndBack
    {
        type            empty;
    }
}


// ************************************************************************* //
