/*--------------------------------*- C++ -*----------------------------------*\
| =========                 |                                                 |
| \\      /  F ield         | OpenFOAM: The Open Source CFD Toolbox           |
|  \\    /   O peration     | Version:  2312                                  |
|   \\  /    A nd           | Website:  www.openfoam.com                      |
|    \\/     M anipulation  |                                                 |
\*---------------------------------------------------------------------------*/
FoamFile
{
    version     2.0;
    format      ascii;
    arch        "LSB;label=32;scalar=64";
    class       volScalarField;
    location    "2.75";
    object      QField;
}
// * * * * * * * * * * * * * * * * * * * * * * * * * * * * * * * * * * * * * //

dimensions      [0 0 -2 0 0 0 0];

internalField   nonuniform List<scalar> 
400
(
1.47409e-07
5.39884e-08
5.80541e-09
1.7708e-10
8.41711e-11
-1.42232e-11
2.34149e-12
-1.63125e-12
-2.29779e-13
-2.90125e-13
-1.23594e-13
-7.86478e-14
-4.17362e-14
-2.35665e-14
-1.26536e-14
-6.65398e-15
-3.26252e-15
-1.37148e-15
-3.75153e-16
-3.03628e-17
-1.32388e-08
-2.96701e-09
-4.85994e-11
-2.31335e-10
4.30116e-11
-1.86525e-11
9.73268e-13
-2.30547e-12
-5.97418e-13
-4.9299e-13
-2.2936e-13
-1.33751e-13
-6.96939e-14
-3.73925e-14
-1.91809e-14
-9.5383e-15
-4.41588e-15
-1.75797e-15
-4.60409e-16
-3.16191e-17
-7.98647e-08
-5.77385e-08
-2.03115e-09
-9.44124e-10
1.92942e-11
-2.80793e-11
3.75587e-13
-2.4709e-12
-6.50046e-13
-4.95555e-13
-2.30119e-13
-1.30557e-13
-6.73731e-14
-3.55131e-14
-1.79128e-14
-8.71854e-15
-3.94667e-15
-1.5408e-15
-3.97663e-16
-2.53688e-17
-3.66692e-08
-7.25839e-08
-4.70907e-09
-1.19749e-09
-6.0859e-11
-2.57598e-11
-2.58338e-12
-2.10137e-12
-8.0095e-13
-4.69743e-13
-2.34427e-13
-1.2545e-13
-6.49499e-14
-3.34052e-14
-1.65671e-14
-7.85894e-15
-3.45701e-15
-1.30467e-15
-3.29678e-16
-1.92093e-17
-1.09351e-07
-8.39497e-08
-1.59757e-08
-1.04357e-09
-2.59149e-10
-7.61679e-12
-8.67226e-12
-1.0109e-12
-1.08152e-12
-4.12979e-13
-2.48431e-13
-1.21356e-13
-6.45165e-14
-3.22593e-14
-1.58681e-14
-7.34965e-15
-3.15612e-15
-1.15989e-15
-2.87749e-16
-1.55323e-17
1.38297e-07
-1.19518e-08
-9.71671e-09
-8.66777e-10
-2.43682e-10
-5.96239e-12
-9.5014e-12
-7.3032e-13
-1.14596e-12
-4.01537e-13
-2.57726e-13
-1.24045e-13
-6.66982e-14
-3.31966e-14
-1.63208e-14
-7.53757e-15
-3.2322e-15
-1.17935e-15
-2.90496e-16
-1.69157e-17
3.48936e-08
-8.35258e-08
-6.05691e-09
-1.60128e-09
-9.70224e-11
-2.86099e-11
-3.1938e-12
-1.86038e-12
-8.3074e-13
-4.79041e-13
-2.53994e-13
-1.37292e-13
-7.18952e-14
-3.69189e-14
-1.82106e-14
-8.5904e-15
-3.76317e-15
-1.41145e-15
-3.55473e-16
-2.39642e-17
-1.05748e-07
-6.63812e-08
-3.50662e-09
-9.9298e-10
-2.45905e-12
-2.45956e-11
4.67869e-13
-2.21133e-12
-6.51425e-13
-5.37012e-13
-2.66439e-13
-1.55917e-13
-8.17318e-14
-4.31459e-14
-2.16385e-14
-1.04955e-14
-4.75116e-15
-1.84629e-15
-4.75741e-16
-3.64854e-17
2.95962e-08
1.57297e-08
9.79194e-10
2.48863e-11
3.64937e-11
-9.72575e-12
8.49693e-13
-1.94103e-12
-6.72982e-13
-5.75197e-13
-2.99534e-13
-1.79385e-13
-9.60412e-14
-5.15383e-14
-2.63353e-14
-1.30368e-14
-6.04969e-15
-2.4156e-15
-6.34309e-16
-5.16903e-17
-1.32023e-08
5.61077e-09
3.89158e-10
1.21816e-10
2.39465e-11
-4.95475e-12
3.71857e-13
-1.86326e-12
-7.72813e-13
-6.42408e-13
-3.48951e-13
-2.10467e-13
-1.14298e-13
-6.18055e-14
-3.18501e-14
-1.58801e-14
-7.43795e-15
-3.00883e-15
-8.0008e-16
-6.71282e-17
-6.3482e-09
1.40975e-08
8.36709e-10
2.01752e-10
2.18894e-11
-5.09621e-12
1.6975e-14
-2.24322e-12
-9.43845e-13
-7.70229e-13
-4.1808e-13
-2.51471e-13
-1.36178e-13
-7.33061e-14
-3.7548e-14
-1.85712e-14
-8.64883e-15
-3.50444e-15
-9.29702e-16
-7.74332e-17
8.47592e-08
2.21399e-08
1.4945e-10
1.8784e-10
6.1122e-12
-9.3432e-12
-3.21252e-13
-3.22156e-12
-1.21965e-12
-9.85427e-13
-5.13474e-13
-3.04323e-13
-1.61389e-13
-8.54123e-14
-4.2852e-14
-2.07345e-14
-9.41542e-15
-3.7496e-15
-9.89217e-16
-8.06596e-17
-2.45964e-07
-2.84826e-08
-1.58297e-09
1.89729e-10
3.29889e-11
-1.86927e-11
-4.29488e-13
-4.98299e-12
-1.67533e-12
-1.3191e-12
-6.44496e-13
-3.72612e-13
-1.90609e-13
-9.81606e-14
-4.76183e-14
-2.22071e-14
-9.69045e-15
-3.75144e-15
-9.61591e-16
-7.33479e-17
7.76495e-07
2.23998e-07
8.96316e-09
8.76158e-10
7.29772e-11
-4.71511e-11
1.10477e-12
-8.95895e-12
-2.24829e-12
-1.86495e-12
-8.20136e-13
-4.62718e-13
-2.25474e-13
-1.12307e-13
-5.22497e-14
-2.33238e-14
-9.63423e-15
-3.54712e-15
-8.73912e-16
-6.04434e-17
-1.74293e-06
-2.94541e-07
-2.37579e-08
-1.36359e-09
2.26666e-10
-1.44704e-10
9.72561e-12
-1.62129e-11
-3.16474e-12
-2.67837e-12
-1.06905e-12
-5.79751e-13
-2.69057e-13
-1.29361e-13
-5.78019e-14
-2.46807e-14
-9.67493e-15
-3.40778e-15
-8.05117e-16
-4.94635e-17
5.75878e-06
1.69849e-06
7.55226e-08
1.38926e-09
7.41267e-10
-3.68486e-10
1.96065e-11
-3.05391e-11
-4.67436e-12
-3.88975e-12
-1.41569e-12
-7.26915e-13
-3.24798e-13
-1.51075e-13
-6.58076e-14
-2.72559e-14
-1.03938e-14
-3.57848e-15
-8.39271e-16
-5.44112e-17
-1.97153e-05
-9.68978e-06
-5.85535e-07
-1.14948e-07
-2.15657e-09
-1.80069e-09
8.05875e-13
-5.44412e-11
-8.89597e-12
-5.07603e-12
-1.97861e-12
-8.82148e-13
-3.97277e-13
-1.77002e-13
-7.72032e-14
-3.1606e-14
-1.21332e-14
-4.24814e-15
-1.04028e-15
-8.0856e-17
-1.02039e-05
-1.36803e-05
-1.16766e-06
-1.78568e-07
-1.94983e-08
-1.75525e-09
-4.64843e-10
-2.49377e-11
-2.57306e-11
-4.50358e-12
-2.96396e-12
-1.00083e-12
-4.92171e-13
-2.05004e-13
-9.16009e-14
-3.77523e-14
-1.50559e-14
-5.41868e-15
-1.35035e-15
-1.18394e-16
8.48109e-05
1.50825e-05
-2.10733e-06
-1.11561e-07
-5.77012e-08
-1.658e-09
-1.14402e-09
-2.08119e-11
-3.93486e-11
-5.20501e-12
-3.46803e-12
-1.16973e-12
-5.6149e-13
-2.3505e-13
-1.03479e-13
-4.36283e-14
-1.80711e-14
-6.77626e-15
-1.70365e-15
-1.50104e-16
6.87304e-06
-4.03527e-05
3.85561e-07
-6.66831e-07
1.13116e-08
-1.19521e-08
8.40423e-10
-3.23145e-10
3.42184e-11
-1.30395e-11
3.60432e-13
-1.0719e-12
-2.53204e-13
-1.58569e-13
-5.81404e-14
-2.88469e-14
-1.32301e-14
-5.62172e-15
-1.46904e-15
-1.29258e-16
)
;

boundaryField
{
    movingWall
    {
        type            calculated;
        value           nonuniform List<scalar> 
20
(
-8.93221e-05
-8.26266e-05
5.78163e-06
-8.13523e-07
8.37226e-08
-1.38184e-08
2.21348e-09
-4.13021e-10
7.97142e-11
-1.37508e-11
3.08305e-12
-6.59933e-13
4.04514e-14
-5.51509e-14
-9.67747e-15
-1.14424e-14
-7.00124e-15
-3.61495e-15
-1.00169e-15
-9.0921e-17
)
;
    }
    fixedWalls
    {
        type            calculated;
        value           nonuniform List<scalar> 
60
(
7.81914e-07
-7.86566e-08
-4.33106e-07
-2.76168e-07
-1.12647e-06
7.8071e-08
1.40469e-07
-6.04147e-07
1.43862e-07
-7.19935e-08
-3.90512e-08
4.15889e-07
-1.31098e-06
3.7273e-06
-9.27991e-06
2.57652e-05
-0.000107894
-6.30312e-05
0.00023138
0.000146438
-3.75049e-18
-7.63287e-18
-8.33452e-18
-9.31142e-18
-1.05242e-17
-1.20384e-17
-1.36314e-17
-1.55718e-17
-1.78011e-17
-2.03084e-17
-2.34817e-17
-2.64112e-17
-2.96764e-17
-3.29225e-17
-3.83848e-17
-4.80945e-17
-6.02213e-17
-6.77748e-17
-6.66015e-17
-3.23471e-17
6.11775e-09
1.14331e-08
5.09247e-09
-1.09374e-10
9.0244e-11
-1.79612e-11
3.80368e-12
-1.22092e-12
1.35714e-13
-1.01907e-13
-1.82058e-14
-2.33896e-14
-1.2947e-14
-9.02028e-15
-5.57096e-15
-3.40307e-15
-1.88599e-15
-8.70825e-16
-2.57523e-16
-2.60757e-17
)
;
    }
    frontAndBack
    {
        type            empty;
    }
}


// ************************************************************************* //
