/*--------------------------------*- C++ -*----------------------------------*\
| =========                 |                                                 |
| \\      /  F ield         | OpenFOAM: The Open Source CFD Toolbox           |
|  \\    /   O peration     | Version:  2312                                  |
|   \\  /    A nd           | Website:  www.openfoam.com                      |
|    \\/     M anipulation  |                                                 |
\*---------------------------------------------------------------------------*/
FoamFile
{
    version     2.0;
    format      ascii;
    arch        "LSB;label=32;scalar=64";
    class       volVectorField;
    location    "2.75";
    object      vorticityField;
}
// * * * * * * * * * * * * * * * * * * * * * * * * * * * * * * * * * * * * * //

dimensions      [0 0 -1 0 0 0 0];

internalField   nonuniform List<vector> 
400
(
(0 -0 0.00152782)
(0 -0 -0.00052206)
(0 -0 0.000187964)
(0 -0 -4.08402e-05)
(0 -0 2.50744e-05)
(0 -0 1.56123e-06)
(0 -0 6.66913e-06)
(0 -0 3.23282e-06)
(0 -0 2.91312e-06)
(0 -0 1.94022e-06)
(0 -0 1.44613e-06)
(0 -0 1.00534e-06)
(0 -0 7.03641e-07)
(0 -0 4.74617e-07)
(0 -0 3.10397e-07)
(0 -0 1.91869e-07)
(0 -0 1.09331e-07)
(0 -0 5.41442e-08)
(0 -0 2.17501e-08)
(0 -0 7.66207e-09)
(0 -0 0.00020695)
(0 -0 4.05247e-05)
(0 -0 -7.80097e-06)
(0 -0 1.78728e-06)
(0 -0 -8.69444e-08)
(0 -0 1.72023e-07)
(0 -0 1.17891e-07)
(0 -0 9.88642e-08)
(0 -0 8.86699e-08)
(0 -0 7.10261e-08)
(0 -0 5.80053e-08)
(0 -0 4.83103e-08)
(0 -0 4.21354e-08)
(0 -0 3.76382e-08)
(0 -0 3.41728e-08)
(0 -0 3.13096e-08)
(0 -0 2.91966e-08)
(0 -0 2.80633e-08)
(0 -0 2.64971e-08)
(0 -0 2.03991e-08)
(0 -0 0.000313573)
(0 -0 -0.000179068)
(0 -0 4.39931e-05)
(0 -0 -1.03952e-05)
(0 -0 2.74044e-06)
(0 -0 -4.95905e-07)
(0 -0 2.78448e-07)
(0 -0 8.31396e-08)
(0 -0 1.20168e-07)
(0 -0 9.20059e-08)
(0 -0 7.85157e-08)
(0 -0 6.71414e-08)
(0 -0 6.06908e-08)
(0 -0 5.58019e-08)
(0 -0 5.17633e-08)
(0 -0 4.81872e-08)
(0 -0 4.54526e-08)
(0 -0 4.39634e-08)
(0 -0 4.16963e-08)
(0 -0 3.20247e-08)
(0 -0 -0.000465072)
(0 -0 9.659e-05)
(0 -0 -2.1761e-05)
(0 -0 5.31254e-06)
(0 -0 -8.82812e-07)
(0 -0 3.83838e-07)
(0 -0 1.08562e-07)
(0 -0 1.58237e-07)
(0 -0 1.42479e-07)
(0 -0 1.20432e-07)
(0 -0 9.75896e-08)
(0 -0 8.32041e-08)
(0 -0 7.54658e-08)
(0 -0 7.00238e-08)
(0 -0 6.52428e-08)
(0 -0 6.09487e-08)
(0 -0 5.77491e-08)
(0 -0 5.60414e-08)
(0 -0 5.33436e-08)
(0 -0 4.07629e-08)
(0 -0 -0.00148629)
(0 -0 0.000229586)
(0 -0 -6.36459e-05)
(0 -0 1.81778e-05)
(0 -0 -4.66157e-06)
(0 -0 1.50685e-06)
(0 -0 -2.05426e-07)
(0 -0 2.61489e-07)
(0 -0 1.36559e-07)
(0 -0 1.43026e-07)
(0 -0 1.04818e-07)
(0 -0 8.99894e-08)
(0 -0 8.13659e-08)
(0 -0 7.67352e-08)
(0 -0 7.20591e-08)
(0 -0 6.77609e-08)
(0 -0 6.46594e-08)
(0 -0 6.30459e-08)
(0 -0 6.0327e-08)
(0 -0 4.57106e-08)
(0 -0 -0.00190568)
(0 -0 0.000521761)
(0 -0 -0.000139015)
(0 -0 3.76317e-05)
(0 -0 -9.70773e-06)
(0 -0 2.81324e-06)
(0 -0 -5.47044e-07)
(0 -0 3.49994e-07)
(0 -0 1.13795e-07)
(0 -0 1.47869e-07)
(0 -0 9.98626e-08)
(0 -0 8.65295e-08)
(0 -0 7.78968e-08)
(0 -0 7.44871e-08)
(0 -0 7.08928e-08)
(0 -0 6.76218e-08)
(0 -0 6.53308e-08)
(0 -0 6.41502e-08)
(0 -0 6.18652e-08)
(0 -0 4.62677e-08)
(0 -0 -0.000320668)
(0 -0 -2.08865e-05)
(0 -0 4.78953e-06)
(0 -0 -6.52508e-07)
(0 -0 3.63932e-07)
(0 -0 1.15808e-07)
(0 -0 1.62725e-07)
(0 -0 1.52691e-07)
(0 -0 1.42848e-07)
(0 -0 1.13445e-07)
(0 -0 8.67001e-08)
(0 -0 7.15793e-08)
(0 -0 6.52986e-08)
(0 -0 6.26535e-08)
(0 -0 6.1191e-08)
(0 -0 6.01142e-08)
(0 -0 5.94258e-08)
(0 -0 5.89551e-08)
(0 -0 5.75126e-08)
(0 -0 4.21196e-08)
(0 -0 0.000626782)
(0 -0 -0.000189467)
(0 -0 5.06911e-05)
(0 -0 -1.33563e-05)
(0 -0 3.7202e-06)
(0 -0 -8.4978e-07)
(0 -0 3.97716e-07)
(0 -0 5.27953e-08)
(0 -0 1.25073e-07)
(0 -0 7.29908e-08)
(0 -0 5.92424e-08)
(0 -0 4.57836e-08)
(0 -0 4.21529e-08)
(0 -0 4.16343e-08)
(0 -0 4.33128e-08)
(0 -0 4.52969e-08)
(0 -0 4.68497e-08)
(0 -0 4.7445e-08)
(0 -0 4.73048e-08)
(0 -0 3.33432e-08)
(0 -0 0.000357875)
(0 -0 -6.20039e-05)
(0 -0 1.64139e-05)
(0 -0 -4.34479e-06)
(0 -0 1.16583e-06)
(0 -0 -2.20656e-07)
(0 -0 1.562e-07)
(0 -0 5.50424e-08)
(0 -0 6.07768e-08)
(0 -0 3.25208e-08)
(0 -0 1.80263e-08)
(0 -0 9.65116e-09)
(0 -0 9.04981e-09)
(0 -0 1.25399e-08)
(0 -0 1.8194e-08)
(0 -0 2.38634e-08)
(0 -0 2.82386e-08)
(0 -0 3.02145e-08)
(0 -0 3.16566e-08)
(0 -0 2.03264e-08)
(0 -0 0.000128872)
(0 -0 -0.000120888)
(0 -0 3.13869e-05)
(0 -0 -8.24141e-06)
(0 -0 1.98592e-06)
(0 -0 -5.15639e-07)
(0 -0 1.37827e-07)
(0 -0 -2.03307e-08)
(0 -0 3.14345e-09)
(0 -0 -2.24108e-08)
(0 -0 -3.14901e-08)
(0 -0 -3.54386e-08)
(0 -0 -3.14393e-08)
(0 -0 -2.31871e-08)
(0 -0 -1.29523e-08)
(0 -0 -3.07323e-09)
(0 -0 4.62291e-09)
(0 -0 8.22046e-09)
(0 -0 1.14447e-08)
(0 -0 3.83517e-09)
(0 -0 -0.000188597)
(0 -0 0.000117675)
(0 -0 -3.39921e-05)
(0 -0 8.63418e-06)
(0 -0 -2.43945e-06)
(0 -0 4.66308e-07)
(0 -0 -2.00956e-07)
(0 -0 -3.1039e-08)
(0 -0 -7.85154e-08)
(0 -0 -7.98105e-08)
(0 -0 -8.74142e-08)
(0 -0 -8.5181e-08)
(0 -0 -7.62315e-08)
(0 -0 -6.27855e-08)
(0 -0 -4.77251e-08)
(0 -0 -3.3393e-08)
(0 -0 -2.2155e-08)
(0 -0 -1.69495e-08)
(0 -0 -1.20494e-08)
(0 -0 -1.50156e-08)
(0 -0 -0.000387898)
(0 -0 2.03606e-05)
(0 -0 -5.05278e-07)
(0 -0 -1.50843e-06)
(0 -0 1.43687e-07)
(0 -0 -2.88268e-07)
(0 -0 -1.33974e-07)
(0 -0 -1.36038e-07)
(0 -0 -1.42767e-07)
(0 -0 -1.42624e-07)
(0 -0 -1.43189e-07)
(0 -0 -1.356e-07)
(0 -0 -1.21509e-07)
(0 -0 -1.03e-07)
(0 -0 -8.32293e-08)
(0 -0 -6.45514e-08)
(0 -0 -4.98381e-08)
(0 -0 -4.31881e-08)
(0 -0 -3.68973e-08)
(0 -0 -3.4698e-08)
(0 -0 -0.000265614)
(0 -0 3.06916e-05)
(0 -0 -2.6493e-05)
(0 -0 9.95756e-06)
(0 -0 -3.95766e-06)
(0 -0 8.55579e-07)
(0 -0 -5.56395e-07)
(0 -0 -1.14425e-07)
(0 -0 -2.31744e-07)
(0 -0 -1.94283e-07)
(0 -0 -1.95388e-07)
(0 -0 -1.81069e-07)
(0 -0 -1.62895e-07)
(0 -0 -1.39891e-07)
(0 -0 -1.16001e-07)
(0 -0 -9.34732e-08)
(0 -0 -7.56746e-08)
(0 -0 -6.7902e-08)
(0 -0 -6.07161e-08)
(0 -0 -5.33463e-08)
(0 -0 -0.00169732)
(0 -0 0.000547167)
(0 -0 -0.000125897)
(0 -0 2.78527e-05)
(0 -0 -7.03686e-06)
(0 -0 1.21548e-06)
(0 -0 -6.49065e-07)
(0 -0 -1.79789e-07)
(0 -0 -2.81547e-07)
(0 -0 -2.41651e-07)
(0 -0 -2.35025e-07)
(0 -0 -2.16746e-07)
(0 -0 -1.95333e-07)
(0 -0 -1.69138e-07)
(0 -0 -1.42218e-07)
(0 -0 -1.16834e-07)
(0 -0 -9.67502e-08)
(0 -0 -8.83335e-08)
(0 -0 -8.08059e-08)
(0 -0 -6.88731e-08)
(0 -0 -0.000566224)
(0 -0 -0.000295009)
(0 -0 3.34654e-05)
(0 -0 3.7978e-07)
(0 -0 -3.23225e-06)
(0 -0 9.55397e-07)
(0 -0 -8.07547e-07)
(0 -0 -1.42611e-07)
(0 -0 -3.48133e-07)
(0 -0 -2.59798e-07)
(0 -0 -2.60851e-07)
(0 -0 -2.36126e-07)
(0 -0 -2.14403e-07)
(0 -0 -1.86524e-07)
(0 -0 -1.58167e-07)
(0 -0 -1.31369e-07)
(0 -0 -1.10216e-07)
(0 -0 -1.01686e-07)
(0 -0 -9.42732e-08)
(0 -0 -7.90402e-08)
(0 -0 -0.00604382)
(0 -0 0.00213319)
(0 -0 -0.00052373)
(0 -0 0.000127175)
(0 -0 -3.1939e-05)
(0 -0 7.47131e-06)
(0 -0 -2.26671e-06)
(0 -0 1.6475e-07)
(0 -0 -4.35683e-07)
(0 -0 -2.51114e-07)
(0 -0 -2.63139e-07)
(0 -0 -2.35188e-07)
(0 -0 -2.16087e-07)
(0 -0 -1.88977e-07)
(0 -0 -1.608e-07)
(0 -0 -1.343e-07)
(0 -0 -1.1368e-07)
(0 -0 -1.05676e-07)
(0 -0 -9.86841e-08)
(0 -0 -8.19116e-08)
(0 -0 -0.00505401)
(0 -0 0.000113147)
(0 -0 -8.50707e-05)
(0 -0 3.38608e-05)
(0 -0 -1.2736e-05)
(0 -0 3.90614e-06)
(0 -0 -1.53972e-06)
(0 -0 7.74159e-08)
(0 -0 -4.33933e-07)
(0 -0 -2.36914e-07)
(0 -0 -2.36919e-07)
(0 -0 -2.07802e-07)
(0 -0 -1.97913e-07)
(0 -0 -1.75177e-07)
(0 -0 -1.48821e-07)
(0 -0 -1.23949e-07)
(0 -0 -1.05633e-07)
(0 -0 -9.89139e-08)
(0 -0 -9.26533e-08)
(0 -0 -7.62788e-08)
(0 -0 0.00333849)
(0 -0 0.0014667)
(0 -0 -0.000317615)
(0 -0 6.39429e-05)
(0 -0 -1.35418e-05)
(0 -0 2.53906e-06)
(0 -0 -4.54383e-07)
(0 -0 -1.43843e-07)
(0 -0 -3.28383e-07)
(0 -0 -2.68416e-07)
(0 -0 -1.79532e-07)
(0 -0 -1.52176e-07)
(0 -0 -1.51928e-07)
(0 -0 -1.44784e-07)
(0 -0 -1.22803e-07)
(0 -0 -9.97569e-08)
(0 -0 -8.47216e-08)
(0 -0 -8.06734e-08)
(0 -0 -7.62862e-08)
(0 -0 -6.21608e-08)
(0 -0 0.036962)
(0 -0 -0.0108305)
(0 -0 0.00283896)
(0 -0 -0.000748549)
(0 -0 0.00019436)
(0 -0 -5.12882e-05)
(0 -0 1.35926e-05)
(0 -0 -3.58514e-06)
(0 -0 5.90145e-07)
(0 -0 -5.30986e-07)
(0 -0 -8.45677e-08)
(0 -0 -1.01492e-07)
(0 -0 -8.46041e-08)
(0 -0 -1.00168e-07)
(0 -0 -8.48152e-08)
(0 -0 -6.43248e-08)
(0 -0 -5.24231e-08)
(0 -0 -5.17968e-08)
(0 -0 -5.08147e-08)
(0 -0 -4.08522e-08)
(0 -0 -0.025117)
(0 -0 0.00886853)
(0 -0 -0.00388213)
(0 -0 0.000928467)
(0 -0 -0.000445707)
(0 -0 7.13889e-05)
(0 -0 -6.27751e-05)
(0 -0 -3.71921e-06)
(0 -0 -1.35144e-05)
(0 -0 -5.06771e-06)
(0 -0 -4.38791e-06)
(0 -0 -2.48097e-06)
(0 -0 -1.71416e-06)
(0 -0 -1.05978e-06)
(0 -0 -6.69077e-07)
(0 -0 -3.9498e-07)
(0 -0 -2.2108e-07)
(0 -0 -1.09352e-07)
(0 -0 -4.47239e-08)
(0 -0 -1.71526e-08)
)
;

boundaryField
{
    movingWall
    {
        type            calculated;
        value           nonuniform List<vector> 
20
(
(0 -0 -0.106063)
(0 -0 0.029631)
(0 -0 -0.0117973)
(0 -0 0.00291828)
(0 -0 -0.00124915)
(0 -0 0.000233811)
(0 -0 -0.000159355)
(0 -0 -6.67299e-07)
(0 -0 -3.05148e-05)
(0 -0 -9.77368e-06)
(0 -0 -9.27748e-06)
(0 -0 -5.07858e-06)
(0 -0 -3.54815e-06)
(0 -0 -2.14858e-06)
(0 -0 -1.34972e-06)
(0 -0 -7.92414e-07)
(0 -0 -4.39474e-07)
(0 -0 -2.0726e-07)
(0 -0 -7.28156e-08)
(0 -0 -2.00213e-08)
)
;
    }
    fixedWalls
    {
        type            calculated;
        value           nonuniform List<vector> 
60
(
(0 -0 0.00202888)
(0 -0 -0.000194392)
(0 -0 0.000742086)
(0 -0 -0.000373138)
(0 -0 -0.000780183)
(0 -0 -0.00194986)
(0 -0 0.000123739)
(0 -0 0.000720792)
(0 -0 0.000223112)
(0 -0 0.000470924)
(0 -0 -0.000426381)
(0 -0 -0.000117843)
(0 -0 6.10485e-05)
(0 -0 -0.00227945)
(0 -0 0.00162478)
(0 -0 -0.00858683)
(0 -0 0.000285066)
(0 -0 -0.00688266)
(0 -0 0.0411877)
(0 -0 -0.035597)
(0 -0 5.94768e-09)
(0 -0 1.52807e-08)
(0 -0 2.3797e-08)
(0 -0 2.98382e-08)
(0 -0 3.27089e-08)
(0 -0 3.19017e-08)
(0 -0 2.72725e-08)
(0 -0 1.89302e-08)
(0 -0 7.36095e-09)
(0 -0 -6.72408e-09)
(0 -0 -2.22461e-08)
(0 -0 -3.78708e-08)
(0 -0 -5.21758e-08)
(0 -0 -6.35283e-08)
(0 -0 -7.04049e-08)
(0 -0 -7.13589e-08)
(0 -0 -6.54634e-08)
(0 -0 -5.26197e-08)
(0 -0 -3.38892e-08)
(0 -0 -1.44171e-08)
(0 -0 0.00284592)
(0 -0 -0.00086155)
(0 -0 0.000328553)
(0 -0 -6.92709e-05)
(0 -0 4.6577e-05)
(0 -0 4.01962e-06)
(0 -0 1.31104e-05)
(0 -0 6.5837e-06)
(0 -0 5.84983e-06)
(0 -0 3.92082e-06)
(0 -0 2.91612e-06)
(0 -0 2.02793e-06)
(0 -0 1.41673e-06)
(0 -0 9.53094e-07)
(0 -0 6.20247e-07)
(0 -0 3.8005e-07)
(0 -0 2.12733e-07)
(0 -0 1.00628e-07)
(0 -0 3.50009e-08)
(0 -0 8.40094e-09)
)
;
    }
    frontAndBack
    {
        type            empty;
    }
}


// ************************************************************************* //
