/*--------------------------------*- C++ -*----------------------------------*\
| =========                 |                                                 |
| \\      /  F ield         | OpenFOAM: The Open Source CFD Toolbox           |
|  \\    /   O peration     | Version:  2312                                  |
|   \\  /    A nd           | Website:  www.openfoam.com                      |
|    \\/     M anipulation  |                                                 |
\*---------------------------------------------------------------------------*/
FoamFile
{
    version     2.0;
    format      ascii;
    arch        "LSB;label=32;scalar=64";
    class       volScalarField;
    location    "2.75";
    object      zeroGradient(epsilon);
}
// * * * * * * * * * * * * * * * * * * * * * * * * * * * * * * * * * * * * * //

dimensions      [0 2 -3 0 0 0 0];

internalField   nonuniform List<scalar> 
400
(
0.00010596
0.000105943
0.000105932
0.000105921
0.00010591
0.000105903
0.000105894
0.000105888
0.000105881
0.000105876
0.00010587
0.000105867
0.000105863
0.000105861
0.000105858
0.000105857
0.000105855
0.000105855
0.000105854
0.000105854
0.000300085
0.000283671
0.000284549
0.000284973
0.000285788
0.000286253
0.000287092
0.00028762
0.000288478
0.00028907
0.000289945
0.000290603
0.000291493
0.000292216
0.000293125
0.000293907
0.00029484
0.000295676
0.000296158
0.000297068
0.000921653
0.000829735
0.000834225
0.000836341
0.000840542
0.000842978
0.0008473
0.000850123
0.00085455
0.00085776
0.000862303
0.000865892
0.000870568
0.000874525
0.000879353
0.000883662
0.000888676
0.000893309
0.000895937
0.000900942
0.00176934
0.00153658
0.00154659
0.00155119
0.00156077
0.00156644
0.00157635
0.0015831
0.00159336
0.00160118
0.00161184
0.0016207
0.00163185
0.00164169
0.00165344
0.00166419
0.00167664
0.00168827
0.00169491
0.00170755
0.00247659
0.0021047
0.00211874
0.00212563
0.00213968
0.00214819
0.0021629
0.0021732
0.00218858
0.00220068
0.0022168
0.00223066
0.00224768
0.00226322
0.00228131
0.00229844
0.00231779
0.00233646
0.00234689
0.00236696
0.00292981
0.00246035
0.00247721
0.00248501
0.00250191
0.00251221
0.00252992
0.00254258
0.00256114
0.00257621
0.00259571
0.00261314
0.0026338
0.00265344
0.00267555
0.00269726
0.00272108
0.00274478
0.00275772
0.00278292
0.00321156
0.00267928
0.00269725
0.00270597
0.00272448
0.0027359
0.00275532
0.00276958
0.0027899
0.00280704
0.0028284
0.00284829
0.00287101
0.00289343
0.00291789
0.00294266
0.00296919
0.0029962
0.0030107
0.00303917
0.00340003
0.00282484
0.00284366
0.00285284
0.00287238
0.00288463
0.00290506
0.00292051
0.00294187
0.00296048
0.00298299
0.00300461
0.00302864
0.00305299
0.00307899
0.00310586
0.00313419
0.00316347
0.00317901
0.0032097
0.00354665
0.00293772
0.00295727
0.00296675
0.00298703
0.003
0.00302114
0.00303757
0.00305969
0.00307951
0.00310286
0.00312586
0.00315088
0.00317677
0.00320392
0.00323247
0.00326216
0.00329325
0.0033096
0.00334202
0.00367836
0.00303887
0.00305888
0.00306887
0.00308966
0.00310335
0.00312506
0.00314241
0.00316518
0.00318609
0.0032102
0.00323444
0.00326034
0.00328762
0.00331582
0.00334588
0.00337681
0.00340954
0.00342661
0.0034606
0.00381138
0.00314075
0.00316117
0.0031717
0.00319297
0.00320741
0.00322968
0.00324795
0.00327136
0.00329339
0.00331824
0.00334377
0.00337054
0.00339925
0.00342849
0.00346011
0.00349228
0.00352668
0.00354449
0.00358008
0.0039566
0.0032515
0.0032723
0.00328347
0.00330522
0.00332049
0.00334333
0.00336264
0.00338672
0.00340997
0.00343563
0.00346257
0.0034903
0.00352057
0.00355096
0.00358429
0.00361782
0.00365407
0.00367267
0.00371001
0.00412224
0.00337746
0.0033987
0.00341056
0.00343284
0.00344906
0.00347253
0.00349303
0.00351787
0.00354255
0.00356909
0.00359767
0.00362647
0.00365857
0.00369025
0.00372555
0.00376064
0.00379903
0.00381855
0.00385792
0.00431706
0.00352488
0.00354656
0.0035593
0.00358214
0.00359953
0.00362369
0.00364564
0.00367132
0.00369771
0.00372527
0.00375582
0.00378585
0.00382013
0.00385332
0.00389099
0.00392791
0.00396883
0.00398945
0.00403122
0.00455139
0.00370124
0.00372337
0.00373719
0.00376063
0.00377945
0.00380438
0.00382812
0.00385475
0.00388326
0.00391199
0.00394495
0.00397645
0.00401338
0.00404839
0.00408893
0.00412807
0.00417209
0.00419404
0.00423874
0.00483975
0.0039169
0.00393947
0.00395464
0.00397871
0.00399935
0.00402514
0.00405113
0.00407886
0.00411005
0.00414015
0.00417616
0.00420938
0.0042497
0.00428688
0.00433108
0.00437295
0.00442076
0.00444443
0.00449278
0.00520844
0.00419041
0.00421333
0.00423031
0.004255
0.00427805
0.00430475
0.00433374
0.00436269
0.00439743
0.00442914
0.0044692
0.00450452
0.00454931
0.0045892
0.00463827
0.00468356
0.0047362
0.00476219
0.0048153
0.00570088
0.00455552
0.00457856
0.00459799
0.00462319
0.00464952
0.00467717
0.00471023
0.00474062
0.00478018
0.0048139
0.00485947
0.00489751
0.00494843
0.00499188
0.0050476
0.00509741
0.00515672
0.00518587
0.00524545
0.00626533
0.0050317
0.00505201
0.00507324
0.00509639
0.00512517
0.0051515
0.00518772
0.00521777
0.00526112
0.00529582
0.00534578
0.00538619
0.00544239
0.00548966
0.0055518
0.00560696
0.00567384
0.0057067
0.00577407
0.00622286
0.00621651
0.00621418
0.00621144
0.00620969
0.00620767
0.00620644
0.00620501
0.00620423
0.00620322
0.00620278
0.00620205
0.00620188
0.00620148
0.0062014
0.00620125
0.00620121
0.00620119
0.00620118
0.00620119
)
;

boundaryField
{
    movingWall
    {
        type            zeroGradient;
    }
    fixedWalls
    {
        type            zeroGradient;
    }
    frontAndBack
    {
        type            empty;
    }
}


// ************************************************************************* //
