/*--------------------------------*- C++ -*----------------------------------*\
| =========                 |                                                 |
| \\      /  F ield         | OpenFOAM: The Open Source CFD Toolbox           |
|  \\    /   O peration     | Version:  2312                                  |
|   \\  /    A nd           | Website:  www.openfoam.com                      |
|    \\/     M anipulation  |                                                 |
\*---------------------------------------------------------------------------*/
FoamFile
{
    version     2.0;
    format      ascii;
    arch        "LSB;label=32;scalar=64";
    class       volVectorField;
    location    "2.75";
    object      zeroGradient(U);
}
// * * * * * * * * * * * * * * * * * * * * * * * * * * * * * * * * * * * * * //

dimensions      [0 1 -1 0 0 0 0];

internalField   nonuniform List<vector> 
400
(
(-1.00001 1.54289e-06 0)
(-0.999998 -3.81968e-07 0)
(-1 8.2041e-08 0)
(-1 -2.47043e-08 0)
(-1 -5.25367e-10 0)
(-1 -5.25364e-09 0)
(-1 -3.48258e-09 0)
(-1 -2.87747e-09 0)
(-1 -2.18783e-09 0)
(-1 -1.63548e-09 0)
(-1 -1.22148e-09 0)
(-1 -9.03944e-10 0)
(-1 -6.67401e-10 0)
(-1 -4.88071e-10 0)
(-1 -3.52917e-10 0)
(-1 -2.50305e-10 0)
(-1 -1.7181e-10 0)
(-1 -1.09306e-10 0)
(-1 -5.71025e-11 0)
(-1 -1.33195e-11 0)
(-1.00001 -1.21561e-06 0)
(-0.999998 3.66606e-07 0)
(-1 -1.04441e-07 0)
(-1 9.88513e-09 0)
(-1 -2.34656e-08 0)
(-1 -1.19685e-08 0)
(-1 -1.17263e-08 0)
(-1 -8.50075e-09 0)
(-1 -6.57494e-09 0)
(-1 -4.86236e-09 0)
(-1 -3.61809e-09 0)
(-1 -2.67363e-09 0)
(-1 -1.96924e-09 0)
(-1 -1.43847e-09 0)
(-1 -1.03842e-09 0)
(-1 -7.3511e-10 0)
(-1 -5.03492e-10 0)
(-1 -3.20403e-10 0)
(-1 -1.66952e-10 0)
(-1 -3.85891e-11 0)
(-1.00001 1.32605e-06 0)
(-0.999998 -3.06967e-07 0)
(-1 2.9442e-08 0)
(-1 -5.15814e-08 0)
(-1 -2.68106e-08 0)
(-1 -2.52083e-08 0)
(-1 -1.82736e-08 0)
(-1 -1.4145e-08 0)
(-1 -1.04452e-08 0)
(-1 -7.77063e-09 0)
(-1 -5.72884e-09 0)
(-1 -4.23362e-09 0)
(-1 -3.11135e-09 0)
(-1 -2.27112e-09 0)
(-1 -1.6378e-09 0)
(-1 -1.15879e-09 0)
(-1 -7.93039e-10 0)
(-1 -5.04013e-10 0)
(-1 -2.62508e-10 0)
(-1 -6.00771e-11 0)
(-1.00001 1.83793e-07 0)
(-0.999998 -3.67963e-07 0)
(-1 5.36688e-09 0)
(-1 -1.00675e-07 0)
(-1 -3.22557e-08 0)
(-1 -3.81952e-08 0)
(-1 -2.32537e-08 0)
(-1 -1.89921e-08 0)
(-1 -1.34502e-08 0)
(-1 -1.00821e-08 0)
(-1 -7.36031e-09 0)
(-1 -5.44327e-09 0)
(-1 -3.99166e-09 0)
(-1 -2.91205e-09 0)
(-1 -2.09758e-09 0)
(-1 -1.48315e-09 0)
(-1 -1.01421e-09 0)
(-1 -6.43946e-10 0)
(-1 -3.35247e-10 0)
(-1 -7.53334e-11 0)
(-1.00001 1.97257e-06 0)
(-0.999999 -1.14332e-06 0)
(-1 1.81525e-07 0)
(-1 -1.87786e-07 0)
(-1 -1.92365e-08 0)
(-1 -5.13151e-08 0)
(-1 -2.48524e-08 0)
(-1 -2.25285e-08 0)
(-1 -1.51944e-08 0)
(-1 -1.15708e-08 0)
(-1 -8.35423e-09 0)
(-1 -6.19116e-09 0)
(-1 -4.52859e-09 0)
(-1 -3.30219e-09 0)
(-1 -2.3751e-09 0)
(-1 -1.67799e-09 0)
(-1 -1.14628e-09 0)
(-1 -7.26677e-10 0)
(-1 -3.77775e-10 0)
(-1 -8.25862e-11 0)
(-0.999994 -3.45362e-07 0)
(-1 -5.94278e-07 0)
(-0.999999 6.76958e-08 0)
(-1 -1.59988e-07 0)
(-1 -2.4548e-08 0)
(-1 -5.12412e-08 0)
(-1 -2.57795e-08 0)
(-1 -2.32875e-08 0)
(-1 -1.57501e-08 0)
(-1 -1.19973e-08 0)
(-1 -8.64567e-09 0)
(-1 -6.39713e-09 0)
(-1 -4.66933e-09 0)
(-1 -3.39927e-09 0)
(-1 -2.44126e-09 0)
(-1 -1.72232e-09 0)
(-1 -1.17434e-09 0)
(-1 -7.42356e-10 0)
(-1 -3.85368e-10 0)
(-1 -8.05696e-11 0)
(-0.999987 1.28733e-06 0)
(-1 -5.82085e-07 0)
(-0.999999 5.87097e-08 0)
(-1 -1.09458e-07 0)
(-1 -3.27838e-08 0)
(-1 -4.11973e-08 0)
(-1 -2.59729e-08 0)
(-1 -2.12267e-08 0)
(-1 -1.51733e-08 0)
(-1 -1.13158e-08 0)
(-1 -8.22318e-09 0)
(-1 -6.03165e-09 0)
(-1 -4.39055e-09 0)
(-1 -3.18222e-09 0)
(-1 -2.28087e-09 0)
(-1 -1.60509e-09 0)
(-1 -1.09099e-09 0)
(-1 -6.86611e-10 0)
(-1 -3.5517e-10 0)
(-1 -6.88998e-11 0)
(-0.99999 3.20312e-07 0)
(-1 2.08371e-08 0)
(-0.999999 -6.24874e-08 0)
(-1 -2.79638e-08 0)
(-1 -4.11503e-08 0)
(-1 -2.82791e-08 0)
(-1 -2.40875e-08 0)
(-1 -1.77719e-08 0)
(-1 -1.33824e-08 0)
(-1 -9.73556e-09 0)
(-1 -7.08078e-09 0)
(-1 -5.11792e-09 0)
(-1 -3.69428e-09 0)
(-1 -2.65512e-09 0)
(-1 -1.89385e-09 0)
(-1 -1.32649e-09 0)
(-1 -8.96418e-10 0)
(-1 -5.59057e-10 0)
(-1 -2.87747e-10 0)
(-1 -4.78723e-11 0)
(-0.999993 -3.8041e-07 0)
(-1 2.06401e-07 0)
(-0.999999 -7.63818e-08 0)
(-1 -4.53605e-09 0)
(-1 -3.37706e-08 0)
(-1 -2.12883e-08 0)
(-1 -1.94648e-08 0)
(-1 -1.40618e-08 0)
(-1 -1.04954e-08 0)
(-1 -7.43795e-09 0)
(-1 -5.26743e-09 0)
(-1 -3.70009e-09 0)
(-1 -2.60656e-09 0)
(-1 -1.83825e-09 0)
(-1 -1.29412e-09 0)
(-1 -8.9676e-10 0)
(-1 -5.9834e-10 0)
(-1 -3.66045e-10 0)
(-1 -1.85708e-10 0)
(-1 -1.86845e-11 0)
(-0.999994 1.04698e-06 0)
(-1 -2.79581e-07 0)
(-0.999999 3.84654e-08 0)
(-1 -3.76458e-08 0)
(-1 -1.93649e-08 0)
(-1 -1.89431e-08 0)
(-1 -1.39044e-08 0)
(-1 -1.00299e-08 0)
(-1 -6.82478e-09 0)
(-1 -4.48193e-09 0)
(-1 -2.87311e-09 0)
(-1 -1.82772e-09 0)
(-1 -1.17113e-09 0)
(-1 -7.64747e-10 0)
(-1 -5.09137e-10 0)
(-1 -3.37922e-10 0)
(-1 -2.13388e-10 0)
(-1 -1.1736e-10 0)
(-1 -5.51375e-11 0)
(-1 1.68183e-11 0)
(-0.999994 -7.44533e-07 0)
(-1 1.44237e-07 0)
(-0.999999 -6.25651e-08 0)
(-1 -2.34717e-08 0)
(-1 -1.96156e-08 0)
(-1 -1.48124e-08 0)
(-1 -8.63881e-09 0)
(-1 -5.25698e-09 0)
(-1 -2.42664e-09 0)
(-1 -8.555e-10 0)
(-1 6.69565e-11 0)
(-1 4.58193e-10 0)
(-1 5.66447e-10 0)
(-1 5.21966e-10 0)
(-1 4.22553e-10 0)
(-1 3.19504e-10 0)
(-1 2.35977e-10 0)
(-1 1.7022e-10 0)
(-1 9.55469e-11 0)
(-1 5.59508e-11 0)
(-0.999992 7.44522e-07 0)
(-1 -4.66994e-07 0)
(-0.999999 7.3189e-08 0)
(-1 -7.00548e-08 0)
(-1 -5.25292e-09 0)
(-1 -1.2669e-08 0)
(-1 -1.47817e-09 0)
(-1 5.72324e-10 0)
(-1 2.98698e-09 0)
(-1 3.50376e-09 0)
(-1 3.53283e-09 0)
(-1 3.09628e-09 0)
(-1 2.53334e-09 0)
(-1 1.9527e-09 0)
(-1 1.44212e-09 0)
(-1 1.02871e-09 0)
(-1 7.1502e-10 0)
(-1 4.75218e-10 0)
(-1 2.54262e-10 0)
(-1 9.53299e-11 0)
(-0.999989 1.0014e-06 0)
(-1 -2.62431e-07 0)
(-0.999999 2.43268e-08 0)
(-1 -5.70512e-08 0)
(-1 -2.03173e-09 0)
(-1 -4.60221e-09 0)
(-1 7.7058e-09 0)
(-1 8.40012e-09 0)
(-1 9.68425e-09 0)
(-1 8.65215e-09 0)
(-1 7.45704e-09 0)
(-1 5.97442e-09 0)
(-1 4.61341e-09 0)
(-1 3.42493e-09 0)
(-1 2.46795e-09 0)
(-1 1.72919e-09 0)
(-1 1.18133e-09 0)
(-1 7.6832e-10 0)
(-1 4.05816e-10 0)
(-1 1.3137e-10 0)
(-0.999989 -2.04004e-06 0)
(-1 -2.98814e-07 0)
(-0.999999 4.73652e-08 0)
(-1 -9.45233e-08 0)
(-1 2.78572e-08 0)
(-1 3.98528e-09 0)
(-1 2.27301e-08 0)
(-1 1.84299e-08 0)
(-1 1.79592e-08 0)
(-1 1.44874e-08 0)
(-1 1.16582e-08 0)
(-1 8.89144e-09 0)
(-1 6.63035e-09 0)
(-1 4.79854e-09 0)
(-1 3.39499e-09 0)
(-1 2.34569e-09 0)
(-1 1.58298e-09 0)
(-1 1.01722e-09 0)
(-1 5.33395e-10 0)
(-1 1.59983e-10 0)
(-0.999975 6.69496e-06 0)
(-1.00001 -1.82514e-06 0)
(-0.999997 4.01802e-07 0)
(-1 -1.43108e-07 0)
(-1 6.74482e-08 0)
(-1 2.38674e-08 0)
(-1 4.27307e-08 0)
(-1 3.17994e-08 0)
(-1 2.74249e-08 0)
(-1 2.06139e-08 0)
(-1 1.56924e-08 0)
(-1 1.14935e-08 0)
(-1 8.3188e-09 0)
(-1 5.88521e-09 0)
(-1 4.09361e-09 0)
(-1 2.79197e-09 0)
(-1 1.86448e-09 0)
(-1 1.18709e-09 0)
(-1 6.1851e-10 0)
(-1 1.77386e-10 0)
(-0.999978 -8.45242e-06 0)
(-1.00001 7.27822e-08 0)
(-0.999997 2.73769e-08 0)
(-1 -8.39601e-08 0)
(-1 1.34183e-07 0)
(-1 5.64853e-08 0)
(-1 7.15834e-08 0)
(-1 4.68224e-08 0)
(-1 3.70587e-08 0)
(-1 2.59059e-08 0)
(-1 1.87826e-08 0)
(-1 1.32546e-08 0)
(-1 9.33628e-09 0)
(-1 6.46645e-09 0)
(-1 4.42447e-09 0)
(-1 2.98108e-09 0)
(-1 1.97202e-09 0)
(-1 1.24547e-09 0)
(-1 6.45541e-10 0)
(-1 1.80005e-10 0)
(-0.999923 1.61206e-05 0)
(-1.00002 -5.02894e-06 0)
(-0.999992 1.49653e-06 0)
(-1 -1.49601e-07 0)
(-0.999999 2.8139e-07 0)
(-1 1.05571e-07 0)
(-1 9.97534e-08 0)
(-1 6.12014e-08 0)
(-1 4.31936e-08 0)
(-1 2.87786e-08 0)
(-1 1.97692e-08 0)
(-1 1.35721e-08 0)
(-1 9.31904e-09 0)
(-1 6.33876e-09 0)
(-1 4.26815e-09 0)
(-1 2.84534e-09 0)
(-1 1.8681e-09 0)
(-1 1.173e-09 0)
(-1 6.04431e-10 0)
(-1 1.65426e-10 0)
(-0.999917 -3.05103e-05 0)
(-1.00002 1.06805e-05 0)
(-0.999992 -1.75523e-06 0)
(-1 1.32339e-06 0)
(-0.999999 5.82101e-08 0)
(-1 2.5467e-07 0)
(-1 8.26319e-08 0)
(-1 7.46225e-08 0)
(-1 3.95669e-08 0)
(-1 2.78175e-08 0)
(-1 1.7459e-08 0)
(-1 1.19977e-08 0)
(-1 8.02053e-09 0)
(-1 5.40025e-09 0)
(-1 3.57263e-09 0)
(-1 2.36176e-09 0)
(-1 1.54282e-09 0)
(-1 9.65164e-10 0)
(-1 4.94729e-10 0)
(-1 1.33106e-10 0)
(-0.999976 1.66948e-05 0)
(-1 7.82732e-06 0)
(-0.999999 -1.39601e-06 0)
(-1 1.92495e-06 0)
(-1 -1.99273e-07 0)
(-1 3.37379e-07 0)
(-1 2.36314e-08 0)
(-1 7.27895e-08 0)
(-1 2.44511e-08 0)
(-1 2.15425e-08 0)
(-1 1.15359e-08 0)
(-1 8.34586e-09 0)
(-1 5.39411e-09 0)
(-1 3.65567e-09 0)
(-1 2.3665e-09 0)
(-1 1.55394e-09 0)
(-1 1.01359e-09 0)
(-1 6.38359e-10 0)
(-1 3.26195e-10 0)
(-1 8.55215e-11 0)
(-1.00026 -2.95464e-05 0)
(-0.999932 1.61604e-05 0)
(-1.00003 -3.71566e-06 0)
(-0.999994 1.80851e-06 0)
(-1 -3.75024e-07 0)
(-1 2.19899e-07 0)
(-1 -1.89456e-08 0)
(-1 3.57743e-08 0)
(-1 6.63399e-09 0)
(-1 8.59317e-09 0)
(-1 3.85171e-09 0)
(-1 3.02042e-09 0)
(-1 1.89784e-09 0)
(-1 1.30324e-09 0)
(-1 8.25317e-10 0)
(-1 5.39114e-10 0)
(-1 3.52884e-10 0)
(-1 2.24928e-10 0)
(-1 1.14918e-10 0)
(-1 2.91876e-11 0)
)
;

boundaryField
{
    movingWall
    {
        type            zeroGradient;
    }
    fixedWalls
    {
        type            zeroGradient;
    }
    frontAndBack
    {
        type            empty;
    }
}


// ************************************************************************* //
