/*--------------------------------*- C++ -*----------------------------------*\
| =========                 |                                                 |
| \\      /  F ield         | OpenFOAM: The Open Source CFD Toolbox           |
|  \\    /   O peration     | Version:  2312                                  |
|   \\  /    A nd           | Website:  www.openfoam.com                      |
|    \\/     M anipulation  |                                                 |
\*---------------------------------------------------------------------------*/
FoamFile
{
    version     2.0;
    format      ascii;
    arch        "LSB;label=32;scalar=64";
    class       volVectorField;
    location    "2.125";
    object      diffU;
}
// * * * * * * * * * * * * * * * * * * * * * * * * * * * * * * * * * * * * * //

dimensions      [0 1 -1 0 0 0 0];

internalField   nonuniform List<vector> 
400
(
(0 0 0)
(-0.00199079 0.000820592 0)
(-0.00589374 0.00135519 0)
(-0.0104691 0.00169227 0)
(-0.015656 0.00216547 0)
(-0.0216859 0.00284148 0)
(-0.0287322 0.00358911 0)
(-0.0369474 0.00432111 0)
(-0.0464037 0.00495246 0)
(-0.0564536 0.00511408 0)
(-0.0656552 0.00431901 0)
(-0.0720636 0.00230738 0)
(-0.0736859 -0.000616298 0)
(-0.0690945 -0.00377836 0)
(-0.0581362 -0.0066377 0)
(-0.0424017 -0.0084345 0)
(-0.024595 -0.00821388 0)
(-0.00794177 -0.00513798 0)
(0.00118396 -0.00150169 0)
(0.00186895 0.00103866 0)
(-0.00116871 0.0022428 0)
(-0.00575893 0.00555966 0)
(-0.0123644 0.00735631 0)
(-0.0199042 0.00829323 0)
(-0.0279057 0.00926621 0)
(-0.0362019 0.0104038 0)
(-0.0451135 0.0118106 0)
(-0.0554068 0.0135156 0)
(-0.067356 0.0148641 0)
(-0.0802114 0.0146757 0)
(-0.0920963 0.012079 0)
(-0.100684 0.00680407 0)
(-0.103962 -0.000848006 0)
(-0.100675 -0.00984349 0)
(-0.0898579 -0.0188033 0)
(-0.072338 -0.0253311 0)
(-0.0495946 -0.0264667 0)
(-0.0246867 -0.0203616 0)
(-0.00392695 -0.00830373 0)
(0.00177218 0.00176438 0)
(-0.00246509 0.00710729 0)
(-0.00857179 0.0123023 0)
(-0.0161042 0.0152176 0)
(-0.0247325 0.0168645 0)
(-0.0338527 0.0181601 0)
(-0.0433655 0.0198207 0)
(-0.0543217 0.0226173 0)
(-0.0677891 0.026291 0)
(-0.0836941 0.0293192 0)
(-0.100792 0.0295127 0)
(-0.116799 0.0247438 0)
(-0.128668 0.0144845 0)
(-0.13414 -0.000127523 0)
(-0.132982 -0.0173174 0)
(-0.124893 -0.0347576 0)
(-0.108755 -0.0490359 0)
(-0.084512 -0.0557313 0)
(-0.0529916 -0.0488733 0)
(-0.0179745 -0.0262777 0)
(0.00104495 -0.00124275 0)
(-0.00327951 0.0133166 0)
(-0.0103281 0.0197585 0)
(-0.0182215 0.0234729 0)
(-0.0270622 0.0258477 0)
(-0.0365466 0.0278778 0)
(-0.047072 0.0309646 0)
(-0.0599483 0.0362328 0)
(-0.0760476 0.0427174 0)
(-0.0950258 0.0475307 0)
(-0.114197 0.0469827 0)
(-0.130053 0.0388141 0)
(-0.140171 0.023229 0)
(-0.144379 0.00207549 0)
(-0.143345 -0.0217656 0)
(-0.138486 -0.0463456 0)
(-0.12874 -0.069405 0)
(-0.111215 -0.0860299 0)
(-0.0823714 -0.087489 0)
(-0.0431541 -0.0625693 0)
(-0.00370714 -0.0133196 0)
(-0.00357978 0.0202824 0)
(-0.0109554 0.0276262 0)
(-0.0187052 0.0318173 0)
(-0.0272329 0.0348646 0)
(-0.0365802 0.0380053 0)
(-0.0473752 0.0431354 0)
(-0.0611156 0.0513468 0)
(-0.0782727 0.0607028 0)
(-0.0970418 0.0662482 0)
(-0.11364 0.0629807 0)
(-0.12465 0.0493864 0)
(-0.129211 0.0278267 0)
(-0.128639 0.00254739 0)
(-0.125499 -0.0238764 0)
(-0.121742 -0.0503432 0)
(-0.118511 -0.0776078 0)
(-0.112389 -0.104135 0)
(-0.0957677 -0.12101 0)
(-0.0626226 -0.107724 0)
(-0.0181634 -0.0431649 0)
(-0.00340383 0.0273193 0)
(-0.0105052 0.0353288 0)
(-0.0176685 0.039799 0)
(-0.0254438 0.0435325 0)
(-0.0340995 0.0480084 0)
(-0.0442371 0.0553855 0)
(-0.0571775 0.0665148 0)
(-0.072561 0.0775744 0)
(-0.0879307 0.0817865 0)
(-0.0994211 0.0741625 0)
(-0.104303 0.0546329 0)
(-0.102964 0.0280716 0)
(-0.0983402 0.000165211 0)
(-0.0933114 -0.0261421 0)
(-0.0889797 -0.0509629 0)
(-0.087376 -0.0764683 0)
(-0.0886266 -0.106111 0)
(-0.0860244 -0.137704 0)
(-0.0673149 -0.149462 0)
(-0.0290553 -0.0911971 0)
(-0.0028709 0.0338043 0)
(-0.00917625 0.0423443 0)
(-0.0153769 0.0469514 0)
(-0.0219998 0.0513011 0)
(-0.0293379 0.0570136 0)
(-0.0377415 0.0662464 0)
(-0.0480336 0.0793414 0)
(-0.0596266 0.0905697 0)
(-0.0702598 0.0923884 0)
(-0.0768063 0.0799328 0)
(-0.0779009 0.0549316 0)
(-0.0751674 0.0244464 0)
(-0.0711948 -0.00517607 0)
(-0.066329 -0.0318466 0)
(-0.0610089 -0.0553674 0)
(-0.0571156 -0.0768566 0)
(-0.0576838 -0.101934 0)
(-0.0618442 -0.137719 0)
(-0.0566997 -0.173442 0)
(-0.0301456 -0.141413 0)
(-0.00210209 0.0392135 0)
(-0.00722085 0.0482449 0)
(-0.012172 0.0528962 0)
(-0.0172874 0.0576271 0)
(-0.0227452 0.0641011 0)
(-0.0285324 0.0742602 0)
(-0.0350363 0.0880627 0)
(-0.0416363 0.0987265 0)
(-0.0473422 0.0984552 0)
(-0.0504289 0.0824413 0)
(-0.0505344 0.0542478 0)
(-0.0494066 0.0218902 0)
(-0.0474968 -0.009184 0)
(-0.0440391 -0.037564 0)
(-0.0393629 -0.0616275 0)
(-0.035156 -0.0811629 0)
(-0.0334364 -0.101009 0)
(-0.0374816 -0.132117 0)
(-0.0394545 -0.179935 0)
(-0.0249081 -0.184108 0)
(-0.00121262 0.0431921 0)
(-0.00490296 0.0527435 0)
(-0.00839218 0.0573215 0)
(-0.0117804 0.0620812 0)
(-0.0150622 0.0686696 0)
(-0.0178435 0.0787181 0)
(-0.0200649 0.0921451 0)
(-0.0214261 0.101488 0)
(-0.0222427 0.100622 0)
(-0.0226066 0.0837937 0)
(-0.0224488 0.0548794 0)
(-0.0226689 0.021793 0)
(-0.0225154 -0.0107862 0)
(-0.0208873 -0.041041 0)
(-0.0185127 -0.0657498 0)
(-0.0168586 -0.0843488 0)
(-0.0162233 -0.101668 0)
(-0.019629 -0.127352 0)
(-0.0239255 -0.179183 0)
(-0.0178479 -0.212425 0)
(-0.000304364 0.0455722 0)
(-0.00244005 0.0556505 0)
(-0.00438655 0.0600626 0)
(-0.00600261 0.0644977 0)
(-0.00709605 0.0705664 0)
(-0.00702424 0.0795295 0)
(-0.0052037 0.0913102 0)
(-0.00189329 0.0999167 0)
(0.00217223 0.0989486 0)
(0.00505755 0.0835734 0)
(0.00627872 0.0558828 0)
(0.00596421 0.0233536 0)
(0.00492427 -0.00990481 0)
(0.0043225 -0.0410496 0)
(0.00288784 -0.0658682 0)
(0.000477702 -0.0837971 0)
(-0.00214912 -0.0998623 0)
(-0.00725313 -0.123431 0)
(-0.0127802 -0.175159 0)
(-0.0129502 -0.229955 0)
(0.000566094 0.0463004 0)
(-6.5805e-05 0.0569496 0)
(-0.000503411 0.0611254 0)
(-0.0004741 0.0649531 0)
(0.000390836 0.0700075 0)
(0.00279492 0.0771973 0)
(0.0076792 0.0865417 0)
(0.0146428 0.0939617 0)
(0.0229557 0.0930107 0)
(0.0295116 0.0804667 0)
(0.0332503 0.0559505 0)
(0.0340661 0.0255339 0)
(0.0324332 -0.00707157 0)
(0.0290062 -0.0375142 0)
(0.0230779 -0.0616089 0)
(0.016162 -0.0791311 0)
(0.00978828 -0.0945188 0)
(0.00185052 -0.116787 0)
(-0.00540565 -0.169509 0)
(-0.0106256 -0.240623 0)
(0.00123993 0.0455516 0)
(0.00201049 0.0567375 0)
(0.00294223 0.0606524 0)
(0.00439098 0.0637132 0)
(0.00683862 0.0674895 0)
(0.0108869 0.0726144 0)
(0.0175227 0.0790943 0)
(0.0267247 0.0843984 0)
(0.037508 0.0833605 0)
(0.04718 0.073131 0)
(0.0537232 0.0530407 0)
(0.0561829 0.0263562 0)
(0.0544545 -0.00304778 0)
(0.0487088 -0.0307315 0)
(0.0392425 -0.0533199 0)
(0.0287627 -0.0706441 0)
(0.0191331 -0.0858943 0)
(0.00849541 -0.107533 0)
(-0.000791363 -0.16168 0)
(-0.0100024 -0.247394 0)
(0.0017177 0.0435609 0)
(0.00364184 0.0552012 0)
(0.00574653 0.0588655 0)
(0.00835693 0.06113 0)
(0.0119829 0.0635906 0)
(0.0170767 0.0667286 0)
(0.024375 0.070449 0)
(0.0342299 0.0732558 0)
(0.0456725 0.071722 0)
(0.0565099 0.0633326 0)
(0.0646039 0.0473128 0)
(0.0680461 0.0253994 0)
(0.0665736 0.000906594 0)
(0.06011 -0.0225605 0)
(0.0493578 -0.042757 0)
(0.0372546 -0.0595167 0)
(0.0256011 -0.0746907 0)
(0.013006 -0.096028 0)
(0.00188904 -0.151924 0)
(-0.0103946 -0.25226 0)
(0.0019213 0.040789 0)
(0.00469578 0.0526343 0)
(0.00776036 0.0560032 0)
(0.0113225 0.0575045 0)
(0.0158105 0.0587787 0)
(0.0215363 0.0602515 0)
(0.0289215 0.061774 0)
(0.0382808 0.0624198 0)
(0.0490393 0.0602332 0)
(0.0594641 0.0533051 0)
(0.0674912 0.0408579 0)
(0.0712241 0.0238834 0)
(0.0701168 0.00483763 0)
(0.0641284 -0.0141681 0)
(0.0541411 -0.0316462 0)
(0.0420627 -0.0473186 0)
(0.0296689 -0.0620011 0)
(0.0158293 -0.0829011 0)
(0.00340319 -0.140295 0)
(-0.0113054 -0.255853 0)
(0.00181256 0.0373584 0)
(0.00500639 0.0491584 0)
(0.00883439 0.0521815 0)
(0.013214 0.0530006 0)
(0.0183908 0.0533127 0)
(0.0245418 0.0535291 0)
(0.0318614 0.0535336 0)
(0.0404317 0.0527196 0)
(0.0498646 0.0500085 0)
(0.0590577 0.0443195 0)
(0.0662715 0.0349816 0)
(0.0700124 0.0225215 0)
(0.0694363 0.00808243 0)
(0.0645651 -0.00681914 0)
(0.0559305 -0.0213016 0)
(0.044859 -0.0352258 0)
(0.0324198 -0.0487802 0)
(0.0179424 -0.0691739 0)
(0.00546023 -0.126193 0)
(-0.011943 -0.258242 0)
(0.00110814 0.0352845 0)
(0.00450573 0.0458735 0)
(0.00888737 0.0479801 0)
(0.0139322 0.0479482 0)
(0.0197279 0.0474119 0)
(0.0263027 0.046703 0)
(0.0336676 0.0457572 0)
(0.0416938 0.0441839 0)
(0.0500058 0.0413547 0)
(0.0578803 0.036705 0)
(0.0641892 0.0298519 0)
(0.0677585 0.0208969 0)
(0.0678507 0.0104373 0)
(0.0642174 -0.000735271 0)
(0.0570521 -0.0121224 0)
(0.0473188 -0.0238597 0)
(0.0348428 -0.0358216 0)
(0.0217532 -0.0566728 0)
(0.0107521 -0.110076 0)
(-0.0111106 -0.261021 0)
(-0.000360324 0.0293053 0)
(0.00183647 0.0387955 0)
(0.00680031 0.0411058 0)
(0.0127886 0.0412038 0)
(0.0194304 0.0405001 0)
(0.0266889 0.0394039 0)
(0.0344415 0.0380627 0)
(0.0424587 0.0363135 0)
(0.0503567 0.0337911 0)
(0.0575863 0.03017 0)
(0.0634177 0.0252426 0)
(0.0671408 0.0189697 0)
(0.0679639 0.0118237 0)
(0.0654235 0.00396197 0)
(0.0595044 -0.00444262 0)
(0.0511303 -0.0137746 0)
(0.038372 -0.024029 0)
(0.0311972 -0.0472157 0)
(0.018837 -0.0951066 0)
(-0.00738207 -0.266995 0)
(-0.00298639 0.0439125 0)
(-0.00172567 0.047391 0)
(0.00404309 0.0437511 0)
(0.0106261 0.039509 0)
(0.0181266 0.0362502 0)
(0.0263949 0.0337116 0)
(0.035093 0.0315902 0)
(0.0438552 0.029555 0)
(0.0523055 0.0272805 0)
(0.0599769 0.0245214 0)
(0.066338 0.0211516 0)
(0.0706965 0.0172868 0)
(0.0725781 0.0129082 0)
(0.0717779 0.00823374 0)
(0.0676629 0.00315448 0)
(0.0616112 -0.00363019 0)
(0.0488466 -0.0131761 0)
(0.0522792 -0.0383719 0)
(0.0227475 -0.0766114 0)
(0.0058923 -0.268636 0)
(-0.00664258 0.0142131 0)
(-0.00983187 0.00935665 0)
(0.00137525 0.0117703 0)
(0.014033 0.0156058 0)
(0.0264896 0.0167739 0)
(0.0388818 0.0166736 0)
(0.0507428 0.0162504 0)
(0.0619384 0.0157384 0)
(0.072365 0.0150533 0)
(0.0818558 0.0140885 0)
(0.0901711 0.0128086 0)
(0.0970115 0.0112534 0)
(0.102116 0.00946572 0)
(0.105548 0.00738902 0)
(0.106438 0.00503176 0)
(0.106898 0.00104146 0)
(0.0964394 -0.00417941 0)
(0.107085 -0.0215189 0)
(0.0299051 -0.0425172 0)
(0.0720726 -0.226565 0)
(0.040523 0.0930389 0)
(0.060755 0.0693806 0)
(0.0864496 0.0433147 0)
(0.108867 0.0287089 0)
(0.126739 0.0211504 0)
(0.142159 0.0167676 0)
(0.156447 0.013898 0)
(0.169875 0.0118607 0)
(0.182407 0.0103245 0)
(0.194023 0.00911648 0)
(0.204658 0.0081075 0)
(0.214213 0.00722414 0)
(0.222498 0.0064118 0)
(0.229541 0.00560582 0)
(0.234357 0.00469662 0)
(0.239383 0.00342599 0)
(0.232244 0.00198861 0)
(0.252845 -0.00317887 0)
(0.126411 0.00330403 0)
(0.378976 -0.0983998 0)
)
;

boundaryField
{
    movingWall
    {
        type            calculated;
        value           uniform (1.00018 -9.86869e-05 0);
    }
    fixedWalls
    {
        type            calculated;
        value           uniform (0.000179144 -9.86869e-05 0);
    }
    frontAndBack
    {
        type            empty;
    }
}


// ************************************************************************* //
