/*--------------------------------*- C++ -*----------------------------------*\
| =========                 |                                                 |
| \\      /  F ield         | OpenFOAM: The Open Source CFD Toolbox           |
|  \\    /   O peration     | Version:  2312                                  |
|   \\  /    A nd           | Website:  www.openfoam.com                      |
|    \\/     M anipulation  |                                                 |
\*---------------------------------------------------------------------------*/
FoamFile
{
    version     2.0;
    format      ascii;
    arch        "LSB;label=32;scalar=64";
    class       volScalarField;
    location    "2.125";
    object      divU;
}
// * * * * * * * * * * * * * * * * * * * * * * * * * * * * * * * * * * * * * //

dimensions      [0 0 -1 0 0 0 0];

internalField   nonuniform List<scalar> 
400
(
0.00911021
0.0683881
0.0430609
0.0420615
0.0412157
0.0366446
0.0335638
0.0362561
0.0507666
0.0735739
0.0985427
0.127815
0.170213
0.21252
0.144915
-0.00271058
-0.0023215
0.0476738
0.0202667
0.0305796
-0.017864
0.0286001
-0.0282825
-0.0369002
-0.0303069
-0.0228617
-0.017673
-0.0272677
-0.0437855
-0.0341699
-0.00482533
0.0311906
0.0498183
0.0564654
0.0217101
-0.0338092
0.0133905
0.193235
0.168281
0.0231657
-0.0321371
0.0559694
-0.00440618
-0.0193993
-0.00214966
0.00917692
-0.000130501
-0.0170645
-0.0336036
-0.0797747
-0.114089
-0.0916472
-0.139116
-0.267472
-0.331513
-0.36932
-0.37995
-0.058983
-0.0229006
0.220384
-0.0790808
0.038193
-0.0134377
-0.0325134
-0.0164552
-0.00868865
-0.024606
-0.0665725
-0.122063
-0.155953
-0.133153
-0.0983372
-0.0498681
-0.0666202
-0.0980503
-0.130107
-0.203571
-0.407605
-0.278191
0.529736
-0.089072
0.044488
0.00485542
-0.0190209
-0.00117414
-0.0114495
-0.0615483
-0.10692
-0.111126
-0.0427971
0.0247192
0.0852893
0.180187
0.252084
0.237059
0.228982
0.266239
-0.0448623
-0.92889
0.326681
-0.074537
0.0453441
0.0195466
0.000549396
0.0214957
0.00329147
-0.0329331
-0.0886205
-0.0719942
0.0579512
0.200206
0.258268
0.192926
0.139032
0.0911223
0.110439
0.355332
0.460327
-0.874877
-0.151919
-0.0511242
0.0410173
0.0273692
0.0133526
0.0351006
0.0179075
-0.0337265
-0.107414
-0.0511008
0.0637771
0.125387
0.0524604
-0.0510782
-0.123599
-0.14512
-0.136945
0.0373687
0.657064
0.122573
-0.570733
-0.0293453
0.0329251
0.0303532
0.0206965
0.0411002
0.0180515
-0.0300119
-0.138726
-0.0559315
0.0668731
0.097014
0.0384209
-0.0242656
-0.106045
-0.149941
-0.156571
-0.20596
0.434896
0.683204
-0.629174
-0.011523
0.0226019
0.0288982
0.0200632
0.04021
0.0266587
-0.0335155
-0.0987591
-0.0687129
0.0925977
0.157271
0.139687
0.106086
0.0517071
-0.0212078
-0.0344788
-0.162382
0.0984366
0.655761
-0.37157
0.000562143
0.0123991
0.0241409
0.016241
0.0316228
0.0371634
-0.0472397
-0.0150689
-0.0660137
0.0779488
0.197784
0.238643
0.207295
0.149035
0.0296187
0.0180763
-0.0581732
-0.00666762
0.39768
-0.210909
0.0121422
0.00174667
0.0181503
0.010974
0.0192145
0.0373281
-0.0368001
-0.0241896
-0.0719256
-0.0147754
0.17124
0.218554
0.17971
0.0962824
-0.0295876
-0.013673
-0.0343486
0.0703995
0.10028
-0.104905
0.015257
-0.004612
0.0120585
0.00733316
0.00789975
0.0215366
-0.0254916
-0.0720509
-0.0833415
-0.0918894
0.0365125
0.0596803
0.0504004
-0.0258233
-0.109419
-0.0494969
-0.043925
0.0834874
-0.0912081
-0.0484755
0.023863
-0.00743979
0.00659348
0.0027672
0.000898294
0.00292735
-0.0167036
-0.068112
-0.0847395
-0.0894643
-0.0646605
-0.0503108
-0.00506851
-0.0652405
-0.118169
-0.0431101
-0.0355364
0.0919756
-0.201571
0.0404499
0.00562719
-0.0203746
-0.00572473
-0.00792864
-0.00640623
-0.00886276
-0.0170908
-0.0418411
-0.0530191
-0.0561195
-0.0571096
-0.0252339
0.00801701
-0.0234343
-0.0610359
-0.0181423
-0.0322933
0.0588452
-0.140445
0.22779
0.0956153
0.0261124
0.0184535
2.22144e-05
-0.00390724
-0.0078023
-0.0126838
-0.0232674
-0.0252478
-0.0193064
-0.00513328
0.0178228
0.0152404
-0.00729883
-0.0182339
-0.00518805
-0.0737088
-0.0731234
0.0333179
0.167333
-0.279748
-0.258368
-0.164918
-0.0956235
-0.0442161
-0.0185541
-0.00797592
-0.00678916
-0.00309556
0.00340069
0.0139172
0.0109644
0.0200189
-0.00174976
-0.00396238
-0.0758036
-0.0814509
-0.21326
-0.177687
-0.803638
0.974592
0.867812
0.672308
0.419083
0.273857
0.201977
0.160278
0.12863
0.105339
0.0877413
0.0854235
0.093609
0.0753512
0.0509489
0.0983583
-0.0902771
0.271248
-0.123411
-0.511434
-1.87118
-2.01626
-2.24094
-1.69838
-1.15146
-0.795738
-0.576381
-0.435195
-0.336255
-0.26161
-0.204909
-0.171439
-0.147615
-0.127661
-0.148817
-0.0692235
-0.400023
1.05176
-0.0402237
0.620242
1.21486
3.22936
3.00074
2.34285
1.43142
0.974894
0.730919
0.536441
0.392787
0.296138
0.240114
0.211166
0.188206
0.204044
0.169389
0.289214
-0.294198
1.53512
-3.13412
4.49032
6.86169
-0.65296
-3.30081
-0.716997
-0.422273
-0.482973
-0.393003
-0.262999
-0.183649
-0.142696
-0.115219
-0.0923804
-0.0834419
-0.0746407
-0.133337
-0.00840685
-0.67776
1.54552
-8.13327
16.5147
-18.0261
)
;

boundaryField
{
    movingWall
    {
        type            extrapolatedCalculated;
        value           nonuniform List<scalar> 
20
(
-0.65296
-3.30081
-0.716997
-0.422273
-0.482973
-0.393003
-0.262999
-0.183649
-0.142696
-0.115219
-0.0923804
-0.0834419
-0.0746407
-0.133337
-0.00840685
-0.67776
1.54552
-8.13327
16.5147
-18.0261
)
;
    }
    fixedWalls
    {
        type            extrapolatedCalculated;
        value           nonuniform List<scalar> 
60
(
0.00911021
-0.017864
-0.0321371
-0.0790808
-0.089072
-0.074537
-0.0511242
-0.0293453
-0.011523
0.000562143
0.0121422
0.015257
0.023863
0.00562719
0.0956153
-0.279748
0.974592
-2.01626
3.22936
-0.65296
0.0305796
0.0231657
0.220384
0.529736
0.326681
-0.151919
-0.570733
-0.629174
-0.37157
-0.210909
-0.104905
-0.0484755
0.0404499
0.22779
0.167333
-0.803638
-1.87118
1.21486
6.86169
-18.0261
0.00911021
0.0683881
0.0430609
0.0420615
0.0412157
0.0366446
0.0335638
0.0362561
0.0507666
0.0735739
0.0985427
0.127815
0.170213
0.21252
0.144915
-0.00271058
-0.0023215
0.0476738
0.0202667
0.0305796
)
;
    }
    frontAndBack
    {
        type            empty;
    }
}


// ************************************************************************* //
