/*--------------------------------*- C++ -*----------------------------------*\
| =========                 |                                                 |
| \\      /  F ield         | OpenFOAM: The Open Source CFD Toolbox           |
|  \\    /   O peration     | Version:  2312                                  |
|   \\  /    A nd           | Website:  www.openfoam.com                      |
|    \\/     M anipulation  |                                                 |
\*---------------------------------------------------------------------------*/
FoamFile
{
    version     2.0;
    format      ascii;
    arch        "LSB;label=32;scalar=64";
    class       volScalarField;
    location    "2.125";
    object      epsilonzeroGrad;
}
// * * * * * * * * * * * * * * * * * * * * * * * * * * * * * * * * * * * * * //

dimensions      [0 2 -3 0 0 0 0];

internalField   nonuniform List<scalar> 
400
(
7.74146e-05
0.00016037
0.000308361
0.000511395
0.000779757
0.00112507
0.00154133
0.00200417
0.0024782
0.00290592
0.00315675
0.00324872
0.00321276
0.00300672
0.00262405
0.0020547
0.00130157
0.000561871
0.00017379
8.20619e-05
0.000140501
0.000159813
0.00025066
0.000363159
0.000500075
0.000666726
0.000869411
0.00112593
0.00142588
0.00172323
0.00198603
0.00226135
0.00260093
0.00301458
0.00334569
0.00349249
0.00300685
0.0018609
0.000596739
0.000144719
0.000287358
0.000207586
0.000283152
0.000379969
0.000491415
0.000648457
0.00089645
0.001237
0.00166135
0.0021408
0.00253079
0.00284087
0.00321555
0.00363273
0.00421263
0.00492421
0.00539602
0.00505249
0.00250792
0.000479537
0.000482536
0.000279946
0.00033852
0.000432281
0.000558746
0.000776688
0.00114944
0.00168737
0.00212819
0.00230548
0.00241327
0.00256744
0.00275193
0.0031058
0.00373258
0.00472876
0.0062004
0.0073725
0.00721772
0.00287874
0.000711891
0.000352529
0.000395445
0.000511244
0.000701003
0.00104466
0.00158078
0.00199438
0.00210245
0.00210352
0.00196006
0.00188825
0.00188413
0.00213701
0.0026008
0.00352917
0.00524875
0.00832374
0.0112465
0.00983965
0.000957693
0.000419108
0.000445724
0.000588977
0.000846464
0.0012909
0.00180228
0.00197104
0.00194687
0.00163396
0.0014058
0.00131119
0.00128249
0.00138046
0.00171575
0.00243788
0.00393832
0.00695826
0.0131821
0.0189624
0.00120294
0.000474641
0.000482656
0.000646951
0.000951329
0.00143534
0.00181387
0.00188589
0.00163201
0.00124842
0.00103969
0.0009367
0.000896943
0.000931428
0.00118127
0.00171405
0.00298474
0.00607495
0.0133568
0.0254766
0.00143125
0.000515823
0.000502923
0.000668083
0.000979378
0.00145188
0.00175924
0.00173463
0.00139118
0.00101669
0.000815233
0.000709668
0.000668865
0.000704096
0.000919293
0.00136047
0.00233347
0.00502727
0.0126552
0.0298337
0.00163064
0.000544671
0.000503672
0.000659408
0.000959483
0.00140713
0.00166734
0.00162055
0.00124925
0.000882565
0.000687125
0.000590042
0.000553418
0.000601314
0.000803235
0.00121272
0.00205182
0.00447465
0.012187
0.0330025
0.00178656
0.000565557
0.000497222
0.000633391
0.000904808
0.00130332
0.00158306
0.00156464
0.00124647
0.00088845
0.000681112
0.000569168
0.000522233
0.000576557
0.000775274
0.0011761
0.00195448
0.00419836
0.0120418
0.0357582
0.00189461
0.000578538
0.000482002
0.000589249
0.000817446
0.00115757
0.00147417
0.00152362
0.00129386
0.000947044
0.000724254
0.000606009
0.000581087
0.000645536
0.000859106
0.00125505
0.00194751
0.00408194
0.0122622
0.0385571
0.00194244
0.000604844
0.000467578
0.000542556
0.000725511
0.00100742
0.00132238
0.00147625
0.00138173
0.00111752
0.000858223
0.000717245
0.000717403
0.000800335
0.00104454
0.0014051
0.00201108
0.00404953
0.0128834
0.0416982
0.00192665
0.00062963
0.000456939
0.000502104
0.000640765
0.000865816
0.00114513
0.00137385
0.00138468
0.00130007
0.00111994
0.00096314
0.000952429
0.00102737
0.00121583
0.00147899
0.00202786
0.00401817
0.013679
0.0455015
0.00187167
0.000641397
0.000449097
0.000471613
0.000571425
0.000745843
0.000972377
0.00120098
0.00133578
0.00131973
0.00126113
0.0011592
0.00113352
0.00116775
0.00127557
0.0014919
0.00196647
0.00381181
0.014517
0.0502635
0.00175022
0.000633328
0.000438747
0.000448274
0.000519351
0.000653174
0.000827689
0.00101842
0.00118219
0.00125565
0.00123986
0.00119209
0.00116134
0.00117911
0.00125002
0.00141575
0.00182037
0.00348126
0.0151693
0.0564723
0.00165881
0.000611086
0.000436621
0.00044716
0.000507274
0.000614218
0.000747387
0.000892396
0.00102314
0.00110955
0.00113972
0.00113157
0.00111608
0.00112973
0.00119422
0.00135928
0.00175253
0.00332922
0.0155968
0.0648039
0.00146253
0.000551555
0.000452569
0.000486062
0.000563798
0.000675029
0.000804147
0.00093939
0.00106223
0.00115207
0.00119719
0.00121023
0.00121878
0.00125073
0.00133607
0.00154936
0.00201238
0.00390572
0.018059
0.0763254
0.00164615
0.000745269
0.000846552
0.00102371
0.00121911
0.00142569
0.00163111
0.00182452
0.00199637
0.00214365
0.00225685
0.00235543
0.00245867
0.00261611
0.00282899
0.00320291
0.00405418
0.0077975
0.0250217
0.0945814
0.00282929
0.00473811
0.00739808
0.00928857
0.0106605
0.0117524
0.0126228
0.0133427
0.0139077
0.014416
0.0148856
0.0153827
0.0159093
0.0166657
0.0174783
0.0188429
0.0211635
0.0320198
0.0486936
0.126884
0.043492
0.0842997
0.122687
0.146152
0.159754
0.167784
0.172063
0.174207
0.174283
0.173938
0.173127
0.172175
0.171305
0.170953
0.171217
0.172216
0.175691
0.176788
0.192625
0.167302
)
;

boundaryField
{
    movingWall
    {
        type            zeroGradient;
    }
    fixedWalls
    {
        type            zeroGradient;
    }
    frontAndBack
    {
        type            empty;
    }
}


// ************************************************************************* //
