/*--------------------------------*- C++ -*----------------------------------*\
| =========                 |                                                 |
| \\      /  F ield         | OpenFOAM: The Open Source CFD Toolbox           |
|  \\    /   O peration     | Version:  2312                                  |
|   \\  /    A nd           | Website:  www.openfoam.com                      |
|    \\/     M anipulation  |                                                 |
\*---------------------------------------------------------------------------*/
FoamFile
{
    version     2.0;
    format      ascii;
    arch        "LSB;label=32;scalar=64";
    class       volScalarField;
    location    "2.125";
    object      flowTypeField;
}
// * * * * * * * * * * * * * * * * * * * * * * * * * * * * * * * * * * * * * //

dimensions      [0 0 0 0 0 0 0];

internalField   nonuniform List<scalar> 
400
(
0.308627
0.200132
0.120873
0.0654809
0.0365807
0.0248193
0.0214476
0.0208382
0.0217446
0.0241548
0.0275738
0.0308809
0.034342
0.0420928
0.058611
0.0849424
0.120354
0.182674
0.358811
0.380088
0.191481
0.320505
0.382647
0.343618
0.279702
0.235866
0.214229
0.212801
0.226895
0.241985
0.247924
0.254963
0.275393
0.305734
0.32106
0.302616
0.257502
0.19264
0.108643
0.0101949
0.1347
0.377651
0.512235
0.55753
0.529274
0.460832
0.398686
0.3754
0.388075
0.441644
0.536924
0.665163
0.787822
0.817754
0.69951
0.527715
0.35816
0.221122
0.111365
0.0877684
0.100696
0.427273
0.588201
0.680914
0.671584
0.582857
0.514895
0.522747
0.622236
0.891218
0.579237
0.123952
-0.11687
-0.132822
0.0285424
0.427341
0.829898
0.362551
0.156277
0.0536638
0.074704
0.472967
0.667452
0.776964
0.754784
0.661437
0.626682
0.730004
0.871674
0.268206
-0.300345
-0.730371
-0.845512
-0.792724
-0.782827
-0.642413
-0.160992
0.998713
0.258921
0.0699214
0.0549914
0.502347
0.737061
0.845337
0.803644
0.718141
0.758947
0.907353
0.314727
-0.296676
-0.817375
-0.835841
-0.725288
-0.704047
-0.760051
-0.896553
-0.878743
-0.324152
0.534295
0.0866913
0.040398
0.508529
0.791162
0.892194
0.839994
0.779538
0.933661
0.551118
-0.0624835
-0.629283
-0.947665
-0.7742
-0.698828
-0.642313
-0.644494
-0.817703
-0.821738
-0.663021
0.357798
0.0823095
0.0300578
0.486388
0.832242
0.936894
0.884521
0.850689
0.887001
0.319129
-0.281974
-0.77861
-0.912606
-0.80771
-0.750904
-0.678924
-0.632903
-0.709409
-0.803754
-0.499482
-0.51128
0.0643871
0.0229551
0.43736
0.869011
0.995205
0.94454
0.918219
0.76501
0.214546
-0.356658
-0.822171
-0.908747
-0.840331
-0.8292
-0.823574
-0.822373
-0.870743
-0.712751
-0.365575
-0.310131
0.0421743
0.0184418
0.370783
0.900402
0.931164
0.972822
0.994937
0.740376
0.23788
-0.311215
-0.780416
-0.918297
-0.839938
-0.830349
-0.853491
-0.82525
-0.733503
-0.529707
-0.25182
-0.166079
0.0221415
0.0149292
0.303032
0.915883
0.855084
0.881907
0.928726
0.771605
0.35645
-0.131438
-0.575317
-0.811328
-0.786423
-0.72285
-0.633988
-0.500819
-0.390173
-0.286612
-0.15116
-0.0837876
0.00886503
0.0119742
0.253289
0.901542
0.795081
0.800032
0.851725
0.794047
0.50968
0.120469
-0.261889
-0.538533
-0.60547
-0.534564
-0.389645
-0.233434
-0.129595
-0.0755329
-0.0647069
-0.0343116
0.00133988
0.00927566
0.220114
0.855433
0.770849
0.741429
0.777734
0.777186
0.628939
0.358592
0.0507845
-0.208423
-0.319612
-0.277724
-0.145919
-0.0211493
0.0563633
0.0752466
0.00251527
-0.00601148
-0.00276305
0.00539487
0.191203
0.793836
0.791538
0.719524
0.727316
0.736308
0.681799
0.528867
0.303999
0.0835214
-0.0481479
-0.0372876
0.0480984
0.124283
0.172718
0.168223
0.0422448
0.00260269
-0.00357662
-0.00454329
0.144956
0.724221
0.85888
0.74438
0.71609
0.70531
0.678629
0.60646
0.466487
0.286516
0.138719
0.105811
0.149054
0.198063
0.227008
0.21377
0.0334644
-0.0129331
0.000755714
-0.0194447
0.131099
0.666999
0.987493
0.833667
0.761431
0.716407
0.672463
0.612302
0.512963
0.35278
0.172182
0.0916116
0.133026
0.187373
0.221412
0.190777
-0.0673913
-0.0389443
0.0125704
-0.0509618
-0.210744
0.396463
0.779877
0.984508
0.835216
0.738533
0.65299
0.554633
0.420139
0.208773
-0.102571
-0.278955
-0.100152
0.0354716
0.10359
-0.00594604
-0.293664
-0.0261114
0.0476102
-0.0518495
0.588413
0.900523
0.653885
0.51635
0.415511
0.337879
0.264023
0.17934
0.073415
-0.0568475
-0.193005
-0.260161
-0.225371
-0.187846
-0.162096
-0.41026
-0.446788
-0.00154835
0.236572
0.669141
0.0272289
0.109384
0.0835878
0.0426865
0.0264285
0.0198392
0.0143723
0.0072358
-0.00127936
-0.00983833
-0.0171638
-0.023095
-0.027562
-0.0379975
-0.0491997
-0.118671
-0.103644
-0.318127
0.741034
0.0850631
-0.0243549
-0.020501
-0.0112825
-0.0060848
-0.00367984
-0.00247248
-0.00178851
-0.00136851
-0.00110988
-0.000962558
-0.000886783
-0.000877733
-0.000973129
-0.00127794
-0.00163236
-0.00391765
0.00298149
-0.0488106
0.119857
)
;

boundaryField
{
    movingWall
    {
        type            calculated;
        value           nonuniform List<scalar> 
20
(
0.046964
-0.010364
-0.00988831
-0.00562398
-0.00307446
-0.0018816
-0.00128216
-0.000941426
-0.000730294
-0.000598265
-0.000521276
-0.000479805
-0.000473012
-0.000521584
-0.000686799
-0.000878869
-0.00213685
0.00107388
-0.0265496
0.0671355
)
;
    }
    fixedWalls
    {
        type            calculated;
        value           nonuniform List<scalar> 
60
(
0.324804
0.0972461
0.0528768
0.0378498
0.0284509
0.0219058
0.0172237
0.013916
0.0115455
0.00993345
0.00835491
0.00668411
0.00488472
0.0021997
-0.00378919
-0.013336
-0.0317658
-0.0290482
0.8066
0.192738
0.147145
0.312488
0.370764
-0.00314656
0.0325362
0.046804
0.0409496
0.0298425
0.0189521
0.00991554
0.00422731
0.00114818
-0.000376884
-0.000487317
0.00130092
0.00533098
0.0163395
0.0747744
0.43807
0.433915
0.322003
0.099565
0.0455709
0.0197889
0.00737484
0.00378588
0.00391591
0.00484792
0.00694523
0.0104802
0.0145513
0.0179864
0.0206695
0.0245724
0.0319949
0.0444679
0.0660513
0.149457
0.795669
0.224808
)
;
    }
    frontAndBack
    {
        type            empty;
    }
}


// ************************************************************************* //
