/*--------------------------------*- C++ -*----------------------------------*\
| =========                 |                                                 |
| \\      /  F ield         | OpenFOAM: The Open Source CFD Toolbox           |
|  \\    /   O peration     | Version:  2312                                  |
|   \\  /    A nd           | Website:  www.openfoam.com                      |
|    \\/     M anipulation  |                                                 |
\*---------------------------------------------------------------------------*/
FoamFile
{
    version     2.0;
    format      ascii;
    arch        "LSB;label=32;scalar=64";
    class       surfaceScalarField;
    location    "2.125";
    object      fluxField;
}
// * * * * * * * * * * * * * * * * * * * * * * * * * * * * * * * * * * * * * //

dimensions      [0 3 -1 0 0 0 0];

oriented        oriented;

internalField   nonuniform List<scalar> 
760
(
-5.87269e-08
6.10044e-08
-2.0607e-07
1.64441e-07
-4.18027e-07
2.22722e-07
-6.62084e-07
2.54572e-07
-9.42506e-07
2.90726e-07
-1.26941e-06
3.36066e-07
-1.65095e-06
3.89927e-07
-2.09274e-06
4.50853e-07
-2.58039e-06
5.00348e-07
-3.06168e-06
4.9968e-07
-3.45193e-06
4.14885e-07
-3.65269e-06
2.32721e-07
-3.57847e-06
-3.16733e-08
-3.18972e-06
-3.35612e-07
-2.5224e-06
-6.31092e-07
-1.68387e-06
-8.39207e-07
-8.22376e-07
-8.62079e-07
-1.77902e-07
-6.32556e-07
6.73654e-08
-2.40201e-07
7.50103e-08
-1.82148e-07
2.38687e-07
-4.62041e-07
4.51483e-07
-8.15672e-07
5.69283e-07
-1.2042e-06
6.33878e-07
-1.61165e-06
6.90591e-07
-2.04184e-06
7.60545e-07
-2.52196e-06
8.65631e-07
-3.07803e-06
1.0001e-06
-3.69814e-06
1.10952e-06
-4.31665e-06
1.10964e-06
-4.82848e-06
9.25505e-07
-5.12511e-06
5.37148e-07
-5.12487e-06
-1.94539e-08
-4.77228e-06
-6.74088e-07
-4.06385e-06
-1.33409e-06
-3.05727e-06
-1.85424e-06
-1.86599e-06
-2.05002e-06
-7.24298e-07
-1.72594e-06
-6.28265e-08
-8.59602e-07
1.79753e-08
-2.84879e-07
5.15531e-07
-6.25857e-07
8.06453e-07
-1.02987e-06
9.72198e-07
-1.47359e-06
1.07274e-06
-1.93941e-06
1.15588e-06
-2.45114e-06
1.27456e-06
-3.06173e-06
1.47619e-06
-3.79604e-06
1.73014e-06
-4.6211e-06
1.92618e-06
-5.44872e-06
1.91732e-06
-6.14562e-06
1.59388e-06
-6.57916e-06
9.4777e-07
-6.68702e-06
5.36336e-08
-6.45584e-06
-9.72142e-07
-5.85016e-06
-2.02265e-06
-4.84064e-06
-2.95609e-06
-3.44655e-06
-3.5391e-06
-1.78311e-06
-3.40412e-06
-4.32196e-07
-2.21624e-06
-3.59124e-07
-3.49149e-07
8.4491e-07
-7.22697e-07
1.18955e-06
-1.14105e-06
1.38719e-06
-1.59918e-06
1.52274e-06
-2.09942e-06
1.65201e-06
-2.68446e-06
1.85743e-06
-3.40885e-06
2.19443e-06
-4.28579e-06
2.59044e-06
-5.23953e-06
2.84941e-06
-6.11522e-06
2.75402e-06
-6.76457e-06
2.20995e-06
-7.12271e-06
1.28133e-06
-7.20205e-06
1.20506e-07
-7.05473e-06
-1.13612e-06
-6.6896e-06
-2.41229e-06
-6.00783e-06
-3.67039e-06
-4.84862e-06
-4.7492e-06
-3.14709e-06
-5.20755e-06
-1.18049e-06
-4.25239e-06
-1.40718e-06
-3.72336e-07
1.19498e-06
-7.50472e-07
1.57881e-06
-1.15741e-06
1.79534e-06
-1.60429e-06
1.96486e-06
-2.10784e-06
2.15528e-06
-2.72123e-06
2.46796e-06
-3.49367e-06
2.95148e-06
-4.39182e-06
3.46186e-06
-5.276e-06
3.7058e-06
-5.96619e-06
3.43351e-06
-6.35548e-06
2.60542e-06
-6.45523e-06
1.40239e-06
-6.36242e-06
7.27493e-08
-6.18999e-06
-1.24553e-06
-6.01529e-06
-2.52772e-06
-5.78146e-06
-3.84697e-06
-5.21287e-06
-5.25123e-06
-3.96871e-06
-6.46293e-06
-2.02861e-06
-6.42472e-06
-3.35412e-06
-3.56682e-07
1.53303e-06
-7.13298e-07
1.94676e-06
-1.08676e-06
2.17369e-06
-1.49754e-06
2.37577e-06
-1.96737e-06
2.63048e-06
-2.54432e-06
3.04573e-06
-3.25242e-06
3.65134e-06
-4.02125e-06
4.20854e-06
-4.69275e-06
4.35931e-06
-5.10206e-06
3.85732e-06
-5.19064e-06
2.74405e-06
-5.04157e-06
1.31788e-06
-4.80025e-06
-1.20337e-07
-4.56624e-06
-1.44478e-06
-4.41785e-06
-2.65332e-06
-4.40902e-06
-3.82819e-06
-4.37523e-06
-5.19619e-06
-3.84244e-06
-6.88064e-06
-2.41821e-06
-8.06767e-06
-5.81031e-06
-3.10136e-07
1.83038e-06
-6.22786e-07
2.26966e-06
-9.43373e-07
2.50112e-06
-1.2924e-06
2.72814e-06
-1.68594e-06
3.0328e-06
-2.15333e-06
3.5176e-06
-2.70046e-06
4.19004e-06
-3.25612e-06
4.73734e-06
-3.68561e-06
4.77602e-06
-3.87664e-06
4.06429e-06
-3.83566e-06
2.73442e-06
-3.66801e-06
1.16335e-06
-3.44705e-06
-3.54067e-07
-3.1924e-06
-1.73033e-06
-2.96207e-06
-2.91994e-06
-2.87894e-06
-3.94555e-06
-2.99716e-06
-5.06863e-06
-2.97256e-06
-6.74097e-06
-2.18009e-06
-8.82949e-06
-8.13308e-06
-2.42031e-07
2.06507e-06
-4.9378e-07
2.52964e-06
-7.45444e-07
2.76038e-06
-1.00977e-06
2.99764e-06
-1.2909e-06
3.3242e-06
-1.59818e-06
3.82939e-06
-1.92577e-06
4.51013e-06
-2.23342e-06
5.0103e-06
-2.45323e-06
4.98186e-06
-2.53304e-06
4.16081e-06
-2.50748e-06
2.73311e-06
-2.43154e-06
1.09702e-06
-2.29735e-06
-4.94321e-07
-2.09401e-06
-1.96019e-06
-1.87193e-06
-3.1795e-06
-1.72377e-06
-4.13286e-06
-1.78191e-06
-5.06198e-06
-1.93236e-06
-6.48179e-06
-1.61802e-06
-8.97303e-06
-9.9084e-06
-1.61847e-07
2.22404e-06
-3.41336e-07
2.71478e-06
-5.13271e-07
2.93954e-06
-6.80021e-07
3.16941e-06
-8.31599e-07
3.48583e-06
-9.56666e-07
3.96112e-06
-1.04623e-06
4.59132e-06
-1.10068e-06
5.04006e-06
-1.13019e-06
4.99419e-06
-1.13534e-06
4.18911e-06
-1.1369e-06
2.77399e-06
-1.13857e-06
1.1336e-06
-1.09402e-06
-5.12342e-07
-9.93957e-07
-2.04733e-06
-8.9324e-07
-3.28552e-06
-8.36006e-07
-4.19871e-06
-9.05265e-07
-5.03332e-06
-1.09782e-06
-6.26463e-06
-1.05329e-06
-8.85361e-06
-1.10546e-05
-7.75675e-08
2.30175e-06
-1.79622e-07
2.81994e-06
-2.68686e-07
3.03463e-06
-3.36424e-07
3.2412e-06
-3.61965e-07
3.51928e-06
-3.14656e-07
3.9231e-06
-1.86382e-07
4.45123e-06
-1.98372e-09
4.85189e-06
1.71787e-07
4.80392e-06
2.7445e-07
4.10594e-06
2.97116e-07
2.80077e-06
2.63255e-07
1.22712e-06
2.22212e-07
-4.19475e-07
1.71301e-07
-1.95916e-06
7.51813e-08
-3.18199e-06
-5.07428e-08
-4.06827e-06
-2.44014e-07
-4.85459e-06
-5.09789e-07
-6.00052e-06
-6.52216e-07
-8.61177e-06
-1.17595e-05
3.54999e-09
2.30123e-06
-2.31876e-08
2.84711e-06
-3.3395e-08
3.04938e-06
-1.10388e-08
3.22159e-06
7.06868e-08
3.44236e-06
2.52896e-07
3.75023e-06
5.49092e-07
4.14584e-06
9.31003e-07
4.46394e-06
1.30272e-06
4.41421e-06
1.56009e-06
3.84488e-06
1.67395e-06
2.72972e-06
1.65353e-06
1.30219e-06
1.52703e-06
-2.48049e-07
1.29315e-06
-1.70121e-06
9.72042e-07
-2.86828e-06
6.398e-07
-3.73945e-06
2.82013e-07
-4.50539e-06
-9.78355e-08
-5.60307e-06
-4.09738e-07
-8.2748e-06
-1.21955e-05
7.23033e-08
2.23275e-06
1.14861e-07
2.8034e-06
1.74373e-07
2.99288e-06
2.71783e-07
3.12601e-06
4.34181e-07
3.28194e-06
7.01283e-07
3.48851e-06
1.09723e-06
3.74352e-06
1.59686e-06
3.94629e-06
2.10824e-06
3.882e-06
2.51362e-06
3.41653e-06
2.7387e-06
2.51377e-06
2.75698e-06
1.29883e-06
2.57012e-06
-4.85954e-08
2.18982e-06
-1.32737e-06
1.69117e-06
-2.39699e-06
1.18844e-06
-3.24909e-06
6.81756e-07
-4.00969e-06
1.83644e-07
-5.08409e-06
-2.788e-07
-7.83515e-06
-1.24864e-05
1.25031e-07
2.11368e-06
2.25752e-07
2.70082e-06
3.43629e-07
2.87665e-06
4.99539e-07
2.9708e-06
7.17533e-07
3.06417e-06
1.02734e-06
3.17944e-06
1.45617e-06
3.31051e-06
1.9886e-06
3.39682e-06
2.5456e-06
3.30381e-06
3.01889e-06
2.92088e-06
3.30729e-06
2.2092e-06
3.35653e-06
1.23701e-06
3.15813e-06
1.4854e-07
2.72774e-06
-9.1328e-07
2.15635e-06
-1.85514e-06
1.56243e-06
-2.66595e-06
9.56221e-07
-3.41236e-06
3.6342e-07
-4.46829e-06
-2.21595e-07
-7.30053e-06
-1.26979e-05
1.5647e-07
1.95862e-06
3.02446e-07
2.54975e-06
4.68115e-07
2.70955e-06
6.69369e-07
2.76756e-06
9.24713e-07
2.80722e-06
1.25249e-06
2.84945e-06
1.6711e-06
2.88762e-06
2.17405e-06
2.88342e-06
2.70363e-06
2.76098e-06
3.16493e-06
2.44555e-06
3.45893e-06
1.90092e-06
3.52457e-06
1.16506e-06
3.34717e-06
3.27936e-07
2.94778e-06
-5.19747e-07
2.39614e-06
-1.31876e-06
1.78433e-06
-2.05868e-06
1.1285e-06
-2.7646e-06
4.71854e-07
-3.79694e-06
-2.06513e-07
-6.65728e-06
-1.28475e-05
1.61516e-07
1.821e-06
3.37062e-07
2.38073e-06
5.42254e-07
2.50898e-06
7.81165e-07
2.52865e-06
1.06436e-06
2.52305e-06
1.40112e-06
2.51074e-06
1.79837e-06
2.48721e-06
2.24845e-06
2.42752e-06
2.7141e-06
2.28901e-06
3.12427e-06
2.03055e-06
3.39814e-06
1.62577e-06
3.47726e-06
1.09039e-06
3.34108e-06
4.67928e-07
3.00343e-06
-1.83926e-07
2.51078e-06
-8.30665e-07
1.92301e-06
-1.4722e-06
1.2501e-06
-2.11011e-06
5.76109e-07
-3.14123e-06
-1.71027e-07
-5.90181e-06
-1.29766e-05
1.3139e-07
1.61968e-06
3.2587e-07
2.12166e-06
5.61533e-07
2.23208e-06
8.32546e-07
2.23374e-06
1.14181e-06
2.20274e-06
1.4903e-06
2.15761e-06
1.87508e-06
2.10043e-06
2.28353e-06
2.01737e-06
2.68819e-06
1.88358e-06
3.04278e-06
1.67681e-06
3.28974e-06
1.3823e-06
3.38127e-06
1.0016e-06
3.29275e-06
5.6146e-07
3.02278e-06
8.56019e-08
2.60031e-06
-4.0919e-07
2.04508e-06
-9.35925e-07
1.40594e-06
-1.49133e-06
8.03675e-07
-2.59228e-06
-1.79185e-08
-5.12464e-06
-1.31955e-05
2.79464e-08
1.83538e-06
2.06962e-07
2.1596e-06
4.80765e-07
2.12636e-06
7.96516e-07
2.02275e-06
1.14402e-06
1.92369e-06
1.5193e-06
1.83282e-06
1.91355e-06
1.74626e-06
2.31143e-06
1.65165e-06
2.68962e-06
1.53172e-06
3.01614e-06
1.37222e-06
3.25501e-06
1.16479e-06
3.36866e-06
9.11346e-07
3.32573e-06
6.23231e-07
3.11424e-06
3.09827e-07
2.75691e-06
-2.72691e-08
2.2286e-06
-4.30186e-07
1.73027e-06
-9.25194e-07
1.2419e-06
-2.13476e-06
2.77417e-07
-4.28801e-06
-1.33859e-05
-1.26758e-07
1.45807e-06
4.89784e-08
1.42363e-06
3.57773e-07
1.39297e-06
7.09859e-07
1.3828e-06
1.10408e-06
1.33054e-06
1.52824e-06
1.26457e-06
1.96475e-06
1.20095e-06
2.39506e-06
1.13727e-06
2.7981e-06
1.06328e-06
3.14891e-06
9.70182e-07
3.4169e-06
8.53939e-07
3.57291e-06
7.18438e-07
3.59994e-06
5.64282e-07
3.47706e-06
3.95503e-07
3.2229e-06
2.0959e-07
2.75249e-06
-5.97838e-08
2.51919e-06
-4.28954e-07
1.86671e-06
-1.49234e-06
7.07038e-07
-2.97328e-06
-1.23751e-05
-4.20818e-07
2.68623e-06
-2.20373e-07
1.97337e-06
3.7625e-07
1.38206e-06
1.00411e-06
1.1128e-06
1.62533e-06
9.53043e-07
2.23166e-06
8.40964e-07
2.80807e-06
7.58644e-07
3.34863e-06
6.94913e-07
3.84656e-06
6.39378e-07
4.29172e-06
5.85058e-07
4.67061e-06
5.27837e-07
4.96922e-06
4.66873e-07
5.18265e-06
4.01872e-07
5.29069e-06
3.29805e-07
5.32444e-06
2.48144e-07
5.07449e-06
1.16621e-07
5.07915e-06
-4.98357e-08
3.41579e-06
-6.12511e-07
2.54049e-06
-9.75395e-07
-8.11919e-06
2.52299e-06
3.67116e-06
4.87397e-06
5.8812e-06
6.7135e-06
7.45621e-06
8.14911e-06
8.79811e-06
9.40181e-06
9.95806e-06
1.04628e-05
1.09088e-05
1.1292e-05
1.15885e-05
1.18345e-05
1.17817e-05
1.21183e-05
9.47244e-06
1.26257e-05
)
;

boundaryField
{
    movingWall
    {
        type            calculated;
        value           uniform 0;
    }
    fixedWalls
    {
        type            calculated;
        value           uniform 0;
    }
    frontAndBack
    {
        type            empty;
        value           nonuniform List<scalar> 0();
    }
}


// ************************************************************************* //
