/*--------------------------------*- C++ -*----------------------------------*\
| =========                 |                                                 |
| \\      /  F ield         | OpenFOAM: The Open Source CFD Toolbox           |
|  \\    /   O peration     | Version:  2312                                  |
|   \\  /    A nd           | Website:  www.openfoam.com                      |
|    \\/     M anipulation  |                                                 |
\*---------------------------------------------------------------------------*/
FoamFile
{
    version     2.0;
    format      ascii;
    arch        "LSB;label=32;scalar=64";
    class       volVectorField;
    location    "2.125";
    object      LambVectorField;
}
// * * * * * * * * * * * * * * * * * * * * * * * * * * * * * * * * * * * * * //

dimensions      [0 1 -2 0 0 0 0];

internalField   nonuniform List<vector> 
400
(
(-2.51154e-05 -4.55916e-05 -8.16748e-09)
(-0.000869932 -0.00205345 0)
(-0.00283334 -0.0118349 -7.18722e-05)
(-0.005649 -0.0335863 0)
(-0.0102044 -0.0713677 -0.00113012)
(-0.0175439 -0.130468 0)
(-0.0279106 -0.218811 -0.00632612)
(-0.0415796 -0.349271 0)
(-0.0580433 -0.535289 -0.0249353)
(-0.0710968 -0.772414 0)
(-0.0686081 -1.02243 -0.0673108)
(-0.040463 -1.21491 0)
(0.00889877 -1.26989 -0.0938002)
(0.0603858 -1.13683 -0)
(0.0939632 -0.837969 -0.0488664)
(0.0946297 -0.483386 -0)
(0.0631722 -0.192853 -0.00477777)
(0.0200055 -0.0322391 -0)
(0.0013017 0.00093226 -9.3675e-07)
(0.000343157 -0.000509844 0)
(-0.00245035 -0.00141052 -1.90116e-06)
(-0.00661716 -0.00694429 0)
(-0.00964976 -0.0162364 -0.000203662)
(-0.0135725 -0.0324814 0)
(-0.0190175 -0.0570324 -0.00160175)
(-0.0254412 -0.0881294 0)
(-0.0341812 -0.129996 -0.00588785)
(-0.046146 -0.188409 0)
(-0.0575325 -0.259676 -0.0175373)
(-0.0613922 -0.334047 0)
(-0.0526952 -0.399294 -0.0368451)
(-0.0301493 -0.440544 0)
(0.00328252 -0.456206 -0.0475096)
(0.0447604 -0.463249 -0)
(0.0958967 -0.46161 -0.0415619)
(0.14809 -0.425605 -0)
(0.171093 -0.322965 -0.0160752)
(0.128087 -0.157184 -0)
(0.0338741 -0.0169518 -6.96058e-05)
(-0.00133507 0.00114157 0)
(-0.0156498 -0.00574269 -1.5185e-05)
(-0.0157239 -0.0110958 0)
(-0.0159585 -0.0169661 -0.000276264)
(-0.0171336 -0.0251618 0)
(-0.0211748 -0.0394669 -0.00134313)
(-0.0305309 -0.0667422 0)
(-0.0483967 -0.116115 -0.00632834)
(-0.0721567 -0.185844 0)
(-0.0908761 -0.259096 -0.0217312)
(-0.0870883 -0.29696 0)
(-0.0569608 -0.268216 -0.0313754)
(-0.0213142 -0.188317 0)
(2.48436e-05 -0.115722 -0.0155438)
(0.0138436 -0.10706 -0)
(0.0586073 -0.211493 -0.0264518)
(0.173375 -0.385933 -0)
(0.343716 -0.523249 -0.0443145)
(0.425014 -0.463321 -0)
(0.227385 -0.157678 -0.00286243)
(0.0037528 0.00284005 0)
(-0.0461313 -0.0118933 -4.1135e-05)
(-0.0249007 -0.013176 0)
(-0.0204843 -0.0159906 -0.000294236)
(-0.0179168 -0.018811 0)
(-0.021946 -0.0288093 -0.00105805)
(-0.0384088 -0.0584246 0)
(-0.0673835 -0.111517 -0.00670525)
(-0.09326 -0.166034 0)
(-0.0838899 -0.167685 -0.0159644)
(-0.0194514 -0.047254 0)
(0.0618829 0.207108 0.0269722)
(0.0844345 0.507999 0)
(0.0109786 0.729951 0.10552)
(-0.121128 0.802362 -0)
(-0.234888 0.70428 0.0976592)
(-0.207421 0.385831 -0)
(0.0841519 -0.109088 -0.0121518)
(0.578845 -0.546787 -0)
(0.74226 -0.514874 -0.0223112)
(0.125466 -0.0368808 -0)
(-0.0982987 -0.0181294 -6.81471e-05)
(-0.032471 -0.0130406 0)
(-0.0213371 -0.0126249 -0.000238414)
(-0.015977 -0.0125263 0)
(-0.0221906 -0.0214075 -0.000786926)
(-0.0454247 -0.0499639 0)
(-0.0761221 -0.0906957 -0.00555918)
(-0.0694036 -0.0895512 0)
(0.0319605 0.0468331 0.00455316)
(0.19957 0.3601 0)
(0.301384 0.760257 0.0949019)
(0.234703 1.08748 0)
(0.0258632 1.2591 0.162195)
(-0.244731 1.29353 -0)
(-0.518713 1.25869 0.153461)
(-0.737546 1.12941 -0)
(-0.686551 0.74285 0.0836212)
(0.000780593 -0.000619422 -0)
(1.09785 -0.640618 -0.0402319)
(0.758135 -0.322902 -0)
(-0.170366 -0.0222634 -7.97689e-05)
(-0.0379093 -0.0114328 0)
(-0.0194518 -0.00870144 -0.0001553)
(-0.0129856 -0.00762594 0)
(-0.0221805 -0.0158047 -0.000541762)
(-0.0492296 -0.0394094 0)
(-0.0606641 -0.052234 -0.00299597)
(0.0262099 0.0245453 0)
(0.247244 0.266038 0.0234406)
(0.475175 0.637312 0)
(0.508126 0.97001 0.101349)
(0.305681 1.11922 0)
(0.00294664 1.10005 0.108376)
(-0.287254 1.03119 -0)
(-0.564895 0.990194 0.0882846)
(-0.890042 1.0204 -0)
(-1.22912 1.02962 0.0914363)
(-1.06334 0.666135 -0)
(0.606179 -0.273918 -0.0184879)
(2.29973 -0.738006 -0)
(-0.254423 -0.0228888 -6.98117e-05)
(-0.0418603 -0.00922696 0)
(-0.0162812 -0.005383 -8.37382e-05)
(-0.0097963 -0.00422708 0)
(-0.0205088 -0.0105995 -0.000312865)
(-0.0439408 -0.0251151 0)
(-0.0173345 -0.0105204 -0.000507219)
(0.162094 0.106919 0)
(0.473768 0.360826 0.0254162)
(0.691864 0.665532 0)
(0.601235 0.853066 0.0666074)
(0.278992 0.856428 0)
(-0.0543972 0.764675 0.0545779)
(-0.315777 0.661514 -0)
(-0.52299 0.579003 0.035428)
(-0.758264 0.565995 -0)
(-1.18182 0.671513 0.0388557)
(-1.65214 0.744595 -0)
(-0.54697 0.179477 0.0102084)
(4.38793 -0.941613 -0)
(-0.338075 -0.019618 -4.47533e-05)
(-0.0454884 -0.00696295 0)
(-0.0127051 -0.0029611 -3.65731e-05)
(-0.00568912 -0.0017214 0)
(-0.0151343 -0.00540412 -0.000123886)
(-0.0302164 -0.0116672 0)
(0.0308775 0.0123338 0.00043434)
(0.274814 0.116281 0)
(0.633725 0.305574 0.0145213)
(0.812252 0.498019 0)
(0.630437 0.588293 0.0298344)
(0.254918 0.574849 0)
(-0.0982427 0.515537 0.0245787)
(-0.36673 0.432831 -0)
(-0.529733 0.340438 0.0134616)
(-0.645582 0.281403 -0)
(-0.932561 0.310658 0.0104429)
(-1.5993 0.456228 -0)
(-1.52438 0.335954 0.0133151)
(6.46882 -0.881937 -0)
(-0.408385 -0.0131293 -1.82729e-05)
(-0.0493997 -0.00475102 0)
(-0.00891277 -0.00133044 -1.14037e-05)
(-0.00039412 -7.5804e-05 0)
(-0.00679282 -0.00150551 -2.2946e-05)
(-0.0155051 -0.00354547 0)
(0.0651461 0.0142971 0.00028943)
(0.317626 0.0675518 0)
(0.676932 0.150695 0.00337885)
(0.849232 0.230658 0)
(0.653215 0.268851 0.00608357)
(0.26497 0.276545 0)
(-0.123179 0.261566 0.00593613)
(-0.423037 0.217669 -0)
(-0.561702 0.159925 0.00298929)
(-0.602824 0.121908 -0)
(-0.754559 0.121854 0.00199871)
(-1.37107 0.21342 -0)
(-2.00123 0.269364 0.00649293)
(8.0568 -0.684042 -0)
(-0.45507 -0.00481774 -2.32942e-06)
(-0.0538162 -0.00252838 0)
(-0.00576589 -0.000437579 -1.99785e-06)
(0.0051838 0.00049608 0)
(0.00297673 0.000306464 2.22959e-06)
(-0.000839116 -7.59088e-05 0)
(0.0672477 0.00396006 2.13164e-05)
(0.284348 0.00589201 0)
(0.609553 -0.0122658 2.44467e-05)
(0.796425 -0.0464347 0)
(0.648932 -0.0707057 0.000431275)
(0.287344 -0.0708802 0)
(-0.117038 -0.0566339 0.000268735)
(-0.433494 -0.0438603 0)
(-0.554688 -0.0228446 6.18792e-05)
(-0.560902 -0.00200077 0)
(-0.654902 0.015284 3.55853e-05)
(-1.19356 0.0719266 -0)
(-2.18903 0.162049 0.00210004)
(9.14128 -0.522146 -0)
(-0.472822 0.00394313 -1.52579e-06)
(-0.0591845 -0.000254122 0)
(-0.0041304 -4.60477e-05 -3.14301e-08)
(0.00983263 9.87384e-05 0)
(0.0118508 -3.57843e-05 7.57524e-09)
(0.0106431 -0.000360175 0)
(0.0516555 -0.00447158 3.35371e-05)
(0.208335 -0.0320355 0)
(0.45466 -0.111219 0.00253319)
(0.637938 -0.232262 0)
(0.573816 -0.338573 0.011197)
(0.290266 -0.383739 0)
(-0.0784996 -0.363111 0.0117118)
(-0.370128 -0.285168 0)
(-0.479604 -0.178545 0.00408847)
(-0.483638 -0.097807 0)
(-0.556498 -0.0566348 0.000544212)
(-1.05882 -0.0151659 0)
(-2.30101 0.0758551 0.000423635)
(9.78902 -0.439738 -0)
(-0.462596 0.0107494 -1.14029e-05)
(-0.0647544 0.00208648 0)
(-0.00440903 0.000200532 -5.54085e-07)
(0.0127236 -0.000839809 0)
(0.0181872 -0.00179199 1.19337e-05)
(0.0194647 -0.00286638 0)
(0.0388985 -0.00851891 0.000147748)
(0.129458 -0.0406704 0)
(0.283629 -0.126859 0.00473551)
(0.419738 -0.2694 0)
(0.41517 -0.418331 0.0223991)
(0.238275 -0.504418 0)
(-0.026904 -0.495144 0.0268741)
(-0.249277 -0.394914 0)
(-0.352284 -0.25857 0.0101006)
(-0.378596 -0.153399 0)
(-0.452157 -0.0998904 0.00189332)
(-0.934045 -0.0723026 0)
(-2.37776 0.0142816 1.38604e-05)
(10.1056 -0.416062 -0)
(-0.429078 0.0151206 -2.32639e-05)
(-0.069785 0.0043697 0)
(-0.00654879 0.000618336 -3.44252e-06)
(0.0135101 -0.00180443 0)
(0.0214841 -0.00398173 4.69995e-05)
(0.0253336 -0.00640569 0)
(0.0343677 -0.0117872 0.000285201)
(0.075432 -0.0350151 0)
(0.154088 -0.0976038 0.00444033)
(0.23275 -0.206696 0)
(0.245123 -0.333084 0.0214588)
(0.156679 -0.417024 0)
(0.00639582 -0.422416 0.0280461)
(-0.132712 -0.354091 0)
(-0.221204 -0.255015 0.0125413)
(-0.268769 -0.167706 0)
(-0.350934 -0.119603 0.00304055)
(-0.811244 -0.108473 0)
(-2.43567 -0.0274313 4.69047e-05)
(10.2198 -0.428541 -0)
(-0.382405 0.0162936 -2.83859e-05)
(-0.0730336 0.00625541 0)
(-0.00999939 0.00135125 -1.02441e-05)
(0.0119909 -0.00231964 0)
(0.0215542 -0.00572243 8.94494e-05)
(0.0269753 -0.00954618 0)
(0.0329045 -0.0152854 0.000439339)
(0.0484059 -0.0295008 0)
(0.080282 -0.0650169 0.00317674)
(0.117078 -0.129971 0)
(0.127331 -0.209269 0.0140863)
(0.0910999 -0.269876 0)
(0.0201966 -0.286145 0.0200123)
(-0.0575987 -0.261802 0)
(-0.125317 -0.214355 0.011567)
(-0.179243 -0.158987 0)
(-0.262474 -0.12504 0.00368741)
(-0.689167 -0.130256 0)
(-2.47479 -0.0569119 0.000183487)
(10.1662 -0.456511 -0)
(-0.327851 0.0142968 -2.33526e-05)
(-0.0739508 0.00724725 0)
(-0.0141947 0.00235 -2.03398e-05)
(0.00785074 -0.00192721 0)
(0.0181004 -0.00617169 0.000112397)
(0.0243769 -0.0110742 0)
(0.0297957 -0.0176013 0.000557647)
(0.0366458 -0.0279276 0)
(0.0469331 -0.046538 0.00231226)
(0.0597117 -0.0791509 0)
(0.0648845 -0.122244 0.00807942)
(0.0530073 -0.163645 0)
(0.02215 -0.187511 0.0129865)
(-0.0198072 -0.189765 0)
(-0.0664026 -0.1746 0.0097342)
(-0.114987 -0.146258 0)
(-0.190452 -0.126132 0.00406657)
(-0.575653 -0.148034 0)
(-2.47672 -0.10373 0.000547805)
(9.91384 -0.465544 -0)
(-0.295549 0.00775976 -7.2088e-06)
(-0.0729375 0.00686437 0)
(-0.0197545 0.00357802 -3.11582e-05)
(0.000685698 -0.000196276 0)
(0.0108552 -0.0044665 8.73145e-05)
(0.017793 -0.00993161 0)
(0.0233829 -0.0170764 0.000571862)
(0.0284717 -0.026692 0)
(0.0330425 -0.0397168 0.00197895)
(0.0369194 -0.0578825 0)
(0.0387989 -0.0829206 0.00530776)
(0.0347328 -0.111796 0)
(0.0212403 -0.136424 0.009232)
(-0.00149076 -0.149965 0)
(-0.0321011 -0.151841 0.00863565)
(-0.0712132 -0.14128 0)
(-0.138481 -0.134375 0.00465793)
(-0.495077 -0.188793 0)
(-2.39449 -0.2302 0.0024339)
(9.55861 -0.413586 -0)
(-0.212863 -0.00390536 -2.10682e-06)
(-0.0701338 0.00298847 0)
(-0.0298838 0.00480203 -3.17951e-05)
(-0.0111535 0.00340509 0)
(0.000806267 -0.000382317 7.36007e-06)
(0.0099928 -0.00670606 0)
(0.0172328 -0.0154721 0.00053011)
(0.0234241 -0.0271987 0)
(0.0286137 -0.0423658 0.00212581)
(0.0322211 -0.0611101 0)
(0.0338283 -0.0844176 0.00533845)
(0.03119 -0.109529 0)
(0.023529 -0.133774 0.00906786)
(0.00967522 -0.155456 0)
(-0.0123139 -0.168172 0.00997683)
(-0.0463326 -0.172617 0)
(-0.113537 -0.181206 0.00692077)
(-0.478726 -0.315155 0)
(-2.20205 -0.432443 0.00806847)
(9.20531 -0.260788 -0)
(-0.430356 -0.0309536 -9.79844e-05)
(-0.054646 -0.00219185 0)
(0.0107736 -0.000949346 3.66822e-06)
(0.0346386 -0.00913631 0)
(0.0467324 -0.0230743 0.000414124)
(0.05698 -0.0441811 0)
(0.0648288 -0.0714265 0.00249377)
(0.070544 -0.103902 0)
(0.0740385 -0.140959 0.00734769)
(0.0748414 -0.181776 0)
(0.0722254 -0.224861 0.0148765)
(0.066263 -0.26877 0)
(0.056196 -0.312799 0.0226463)
(0.0415609 -0.357124 0)
(0.0191277 -0.396785 0.0267766)
(-0.0254617 -0.442917 0)
(-0.12137 -0.451678 0.021982)
(-0.533233 -0.725874 0)
(-1.8465 -0.544648 0.0122918)
(7.13224 0.151739 0)
(0.0282547 0.0134677 9.18726e-05)
(0.0613873 0.064995 0)
(0.0903909 -0.00910921 1.08956e-05)
(0.146424 -0.12917 0)
(0.181456 -0.282954 0.00744464)
(0.195042 -0.450065 0)
(0.199933 -0.618341 0.0312656)
(0.201475 -0.785683 0)
(0.19963 -0.951062 0.0686532)
(0.193358 -1.11318 0)
(0.182193 -1.27028 0.114315)
(0.166716 -1.42207 0)
(0.147086 -1.56762 0.159798)
(0.121449 -1.70906 0)
(0.088778 -1.83871 0.195379)
(0.0213189 -1.99547 0)
(-0.0840457 -1.98256 0.190841)
(-0.511737 -2.55401 0)
(-1.3095 -0.917671 0.0272787)
(-2.35974 -0.749117 0)
(16.8007 -7.27747 0.293601)
(13.89 -12.1101 0)
(8.47952 -16.8504 1.45369)
(5.47235 -20.6467 0)
(3.95036 -23.5284 2.97774)
(3.08074 -25.9337 0)
(2.5167 -28.0982 4.39086)
(2.11934 -30.0721 0)
(1.82231 -31.8595 5.8057)
(1.59118 -33.471 0)
(1.40114 -34.9131 7.13897)
(1.23817 -36.1895 0)
(1.09205 -37.2909 8.29048)
(0.950932 -38.2343 0)
(0.796857 -38.9143 9.11287)
(0.583963 -39.631 0)
(0.350306 -38.947 9.03823)
(-0.504878 -41.4148 0)
(0.659877 -24.4797 3.09011)
(-14.297 -55.0926 0)
)
;

boundaryField
{
    movingWall
    {
        type            calculated;
        value           nonuniform List<vector> 
20
(
(0 -367.601 0)
(0 -380.742 0)
(0 -369.559 0)
(0 -358.741 0)
(0 -350.57 0)
(0 -343.933 0)
(0 -337.983 0)
(0 -332.479 0)
(0 -327.383 0)
(0 -322.684 0)
(0 -318.398 0)
(0 -314.556 0)
(0 -311.234 0)
(0 -308.427 0)
(0 -306.547 0)
(0 -304.589 0)
(0 -307.835 0)
(0 -298.802 0)
(0 -359.029 0)
(0 -238.992 0)
)
;
    }
    fixedWalls
    {
        type            calculated;
        value           uniform (-0 0 0);
    }
    frontAndBack
    {
        type            empty;
    }
}


// ************************************************************************* //
