/*--------------------------------*- C++ -*----------------------------------*\
| =========                 |                                                 |
| \\      /  F ield         | OpenFOAM: The Open Source CFD Toolbox           |
|  \\    /   O peration     | Version:  2312                                  |
|   \\  /    A nd           | Website:  www.openfoam.com                      |
|    \\/     M anipulation  |                                                 |
\*---------------------------------------------------------------------------*/
FoamFile
{
    version     2.0;
    format      ascii;
    arch        "LSB;label=32;scalar=64";
    class       volScalarField;
    location    "2.125";
    object      magSqrU;
}
// * * * * * * * * * * * * * * * * * * * * * * * * * * * * * * * * * * * * * //

dimensions      [0 2 -2 0 0 0 0];

internalField   nonuniform List<scalar> 
400
(
4.18319e-08
5.55367e-06
3.89938e-05
0.000116592
0.000255878
0.000486727
0.000849465
0.00139791
0.00219548
0.00323444
0.00435367
0.0052248
0.00545631
0.00481238
0.00344344
0.00188261
0.000679615
9.13437e-05
2.97807e-06
4.14898e-06
7.29928e-06
6.72777e-05
0.000212918
0.000473765
0.000876459
0.00143388
0.00219325
0.00327514
0.00478488
0.00668092
0.00866306
0.0102211
0.0108458
0.0102665
0.00845653
0.00589542
0.0031727
0.0010289
8.41828e-05
6.00881e-06
5.8918e-05
0.000230363
0.000499737
0.000908339
0.00149155
0.00229292
0.00348635
0.00531609
0.00790013
0.011072
0.014301
0.0168142
0.0180417
0.0180285
0.0168442
0.0142616
0.0102676
0.00520609
0.0010149
2.05849e-06
0.000191932
0.000504709
0.000894203
0.0014153
0.00213147
0.00319759
0.00493528
0.00764373
0.0113325
0.0152986
0.0184747
0.0202424
0.0209018
0.0210686
0.0213668
0.0214235
0.0197929
0.0144517
0.00578034
0.000189896
0.000429519
0.000892646
0.00137525
0.00197385
0.00280317
0.0041306
0.00640369
0.00985151
0.0138538
0.0169338
0.018031
0.0175217
0.0166012
0.0163604
0.0173893
0.0200951
0.0234952
0.0238254
0.0155272
0.00219115
0.000764585
0.00136926
0.00191036
0.00256021
0.00348931
0.0050513
0.00772715
0.0113242
0.0144685
0.0154349
0.0139121
0.0114321
0.00970614
0.00941874
0.0105365
0.0134982
0.0191251
0.0263663
0.026865
0.00915357
0.00115872
0.00188893
0.0024557
0.00313384
0.00413307
0.00583964
0.00863519
0.0117975
0.0135155
0.0123318
0.00912482
0.00627956
0.00512002
0.00543126
0.0067986
0.00917446
0.0137185
0.0227862
0.033283
0.0208892
0.00155065
0.00239187
0.00296101
0.00363734
0.00464714
0.0063536
0.00901256
0.011515
0.0119711
0.00937402
0.0055254
0.00294225
0.00235554
0.0033589
0.00534937
0.00781998
0.0113129
0.0188473
0.033912
0.0344888
0.00187603
0.00281812
0.00337054
0.00400936
0.00496138
0.00653689
0.00891873
0.0107867
0.0106473
0.00755712
0.00353461
0.00100128
0.000629266
0.00212007
0.00465946
0.00738837
0.0105853
0.0165857
0.0326523
0.0454075
0.00208606
0.00311483
0.00364022
0.00421091
0.00504648
0.00639253
0.00838455
0.0100074
0.00981434
0.00702482
0.00317114
0.000583477
0.000118676
0.00169414
0.00433297
0.00700551
0.0099582
0.0152661
0.030814
0.0530065
0.00215303
0.00325457
0.00374886
0.00423216
0.00491492
0.00598152
0.00756281
0.00905655
0.00918813
0.00735117
0.00423522
0.00180536
0.00108895
0.00223092
0.00430786
0.00650157
0.00900749
0.013619
0.0287312
0.0579686
0.00208507
0.0032337
0.00369833
0.00408969
0.00461251
0.00540185
0.00657233
0.00784442
0.00835888
0.00757168
0.00569076
0.00383629
0.00295451
0.0032935
0.00435844
0.00579368
0.00772014
0.0116113
0.0261094
0.0612586
0.00190852
0.00307007
0.00350777
0.00381583
0.00419565
0.00475142
0.00556242
0.00654034
0.00722785
0.00719668
0.00639839
0.00525608
0.00440923
0.00409624
0.00423827
0.00490508
0.00621024
0.00936697
0.0230538
0.063697
0.00167484
0.00280116
0.0032049
0.0034423
0.00371089
0.00409828
0.00465435
0.00536029
0.00602725
0.00636667
0.00620836
0.00562253
0.00491565
0.00428746
0.00390714
0.00398395
0.00470155
0.00710117
0.0196654
0.0655423
0.0014057
0.00244957
0.00280813
0.00298944
0.00318445
0.00346947
0.00388018
0.00441004
0.00497937
0.00543966
0.00559883
0.00538836
0.00486349
0.00419072
0.00355778
0.0032302
0.00340935
0.00508692
0.0159278
0.0667851
0.00125283
0.00213217
0.0023874
0.00249766
0.00263941
0.00287284
0.00322424
0.00368442
0.00420108
0.00468394
0.00499433
0.00500778
0.00469045
0.00410131
0.0033791
0.00278673
0.0024777
0.00366607
0.0122069
0.068208
0.000864885
0.00151551
0.00174165
0.00186489
0.00201887
0.00226322
0.0026302
0.00311341
0.0036663
0.00421178
0.0046413
0.00484747
0.00473691
0.00427332
0.00353835
0.00278305
0.00203136
0.00318214
0.00937462
0.071291
0.00194701
0.0022589
0.00193773
0.00167791
0.00164335
0.0018304
0.00222316
0.00278694
0.00346678
0.00418192
0.00482856
0.00527495
0.00541079
0.0051958
0.00456464
0.00378637
0.00253954
0.00417926
0.00636353
0.072145
0.000251363
0.000189624
0.000142303
0.00043856
0.000976925
0.0017792
0.00282398
0.00406502
0.00544038
0.00687236
0.00826515
0.00950538
0.0104825
0.0111587
0.0113172
0.0113903
0.00928269
0.0118877
0.00268297
0.0564558
0.0103022
0.00849681
0.00932731
0.012643
0.0164689
0.0204428
0.0246157
0.0289398
0.0333158
0.0376605
0.0418788
0.0458641
0.0494681
0.0526396
0.0548622
0.057231
0.0538585
0.0638495
0.015946
0.15315
)
;

boundaryField
{
    movingWall
    {
        type            calculated;
        value           uniform 1;
    }
    fixedWalls
    {
        type            calculated;
        value           uniform 0;
    }
    frontAndBack
    {
        type            empty;
    }
}


// ************************************************************************* //
