/*--------------------------------*- C++ -*----------------------------------*\
| =========                 |                                                 |
| \\      /  F ield         | OpenFOAM: The Open Source CFD Toolbox           |
|  \\    /   O peration     | Version:  2312                                  |
|   \\  /    A nd           | Website:  www.openfoam.com                      |
|    \\/     M anipulation  |                                                 |
\*---------------------------------------------------------------------------*/
FoamFile
{
    version     2.0;
    format      ascii;
    arch        "LSB;label=32;scalar=64";
    class       volScalarField;
    location    "2.125";
    object      magU;
}
// * * * * * * * * * * * * * * * * * * * * * * * * * * * * * * * * * * * * * //

dimensions      [0 1 -1 0 0 0 0];

internalField   nonuniform List<scalar> 
400
(
0.000204528
0.00235662
0.0062445
0.0107978
0.0159962
0.0220619
0.0291456
0.0373887
0.0468559
0.0568722
0.0659824
0.0722828
0.0738668
0.0693713
0.0586808
0.0433891
0.0260694
0.00955739
0.00172571
0.0020369
0.00270172
0.0082023
0.0145917
0.0217661
0.029605
0.0378666
0.0468322
0.0572289
0.0691729
0.0817369
0.0930756
0.1011
0.104143
0.101324
0.0919594
0.0767816
0.0563267
0.0320764
0.00917512
0.00245129
0.00767581
0.0151777
0.0223548
0.0301387
0.0386205
0.0478844
0.0590453
0.0729116
0.0888827
0.105223
0.119587
0.12967
0.134319
0.13427
0.129785
0.119422
0.101329
0.0721532
0.0318574
0.00143474
0.013854
0.0224657
0.0299032
0.0376205
0.0461678
0.0565473
0.0702516
0.0874284
0.106454
0.123688
0.135922
0.142276
0.144574
0.14515
0.146174
0.146368
0.140687
0.120215
0.0760285
0.0137803
0.0207248
0.0298772
0.0370843
0.044428
0.0529449
0.0642698
0.0800231
0.0992548
0.117702
0.13013
0.13428
0.13237
0.128846
0.127908
0.131869
0.141757
0.153282
0.154355
0.124608
0.0468097
0.0276511
0.0370035
0.0437077
0.0505986
0.0590704
0.0710725
0.0879042
0.106415
0.120285
0.124237
0.11795
0.106921
0.0985197
0.0970502
0.102647
0.116182
0.138294
0.162377
0.163905
0.0956743
0.0340399
0.0434618
0.049555
0.0559807
0.064289
0.0764176
0.0929257
0.108616
0.116256
0.111049
0.0955239
0.0792437
0.0715543
0.0736971
0.0824536
0.0957834
0.117126
0.150951
0.182436
0.144531
0.0393783
0.0489067
0.0544152
0.0603104
0.0681699
0.0797095
0.0949345
0.107308
0.109413
0.0968195
0.0743331
0.0542425
0.0485339
0.057956
0.0731394
0.0884306
0.106362
0.137285
0.184152
0.185712
0.0433132
0.053086
0.0580564
0.0633195
0.0704371
0.0808511
0.094439
0.103859
0.103186
0.0869317
0.0594526
0.0316431
0.0250852
0.0460442
0.0682602
0.0859556
0.102885
0.128785
0.180699
0.21309
0.0456734
0.0558107
0.0603343
0.0648915
0.0710386
0.0799533
0.0915672
0.100037
0.0990674
0.0838142
0.0563128
0.0241553
0.0108939
0.04116
0.0658253
0.0836989
0.0997908
0.123556
0.175539
0.230231
0.0464007
0.0570489
0.0612279
0.065055
0.0701065
0.0773403
0.0869644
0.0951659
0.0958547
0.085739
0.0650786
0.0424895
0.0329992
0.0472326
0.0656343
0.0806323
0.0949078
0.116701
0.169503
0.240767
0.0456626
0.0568657
0.0608139
0.0639507
0.0679155
0.0734973
0.0810699
0.0885687
0.0914269
0.0870154
0.0754371
0.0619378
0.0543554
0.057389
0.0660185
0.0761162
0.0878643
0.107756
0.161584
0.247505
0.0436867
0.0554082
0.0592265
0.0617724
0.0647738
0.0689305
0.0745817
0.0808724
0.0850168
0.0848333
0.0799899
0.0724988
0.066402
0.0640019
0.065102
0.0700363
0.0788051
0.0967831
0.151835
0.252383
0.0409247
0.052926
0.0566118
0.0586711
0.0609171
0.0640178
0.0682228
0.073214
0.0776354
0.0797914
0.0787931
0.0749835
0.0701117
0.0654787
0.0625071
0.0631186
0.0685679
0.0842684
0.140233
0.256012
0.0374926
0.0494931
0.0529918
0.0546758
0.0564309
0.0589022
0.0622911
0.0664081
0.0705647
0.0737541
0.0748254
0.0734055
0.0697387
0.0647358
0.0596471
0.0568349
0.0583896
0.0713226
0.126205
0.258428
0.0353953
0.0461754
0.0488611
0.0499765
0.0513752
0.0535988
0.0567824
0.0606994
0.0648157
0.0684393
0.0706705
0.0707657
0.0684868
0.0640415
0.05813
0.0527895
0.0497765
0.0605481
0.110485
0.261167
0.0294089
0.0389295
0.0417331
0.0431844
0.0449319
0.0475733
0.0512855
0.055798
0.06055
0.0648982
0.0681271
0.0696238
0.0688252
0.0653706
0.059484
0.0527546
0.0450706
0.0564104
0.0968226
0.267004
0.0441249
0.0475279
0.0440197
0.0409623
0.0405382
0.0427832
0.0471504
0.0527915
0.0588793
0.0646678
0.0694879
0.0726289
0.0735581
0.0720819
0.0675621
0.0615335
0.0503938
0.0646472
0.0797717
0.268598
0.0158544
0.0137704
0.0119291
0.0209418
0.0312558
0.0421806
0.0531411
0.0637575
0.0737589
0.0828997
0.0909128
0.0974955
0.102384
0.105635
0.106382
0.106725
0.0963467
0.109031
0.0517974
0.237604
0.1015
0.0921781
0.096578
0.112441
0.128331
0.142978
0.156894
0.170117
0.182526
0.194063
0.204643
0.214159
0.222414
0.229433
0.234227
0.23923
0.232074
0.252685
0.126278
0.391344
)
;

boundaryField
{
    movingWall
    {
        type            calculated;
        value           uniform 1;
    }
    fixedWalls
    {
        type            calculated;
        value           uniform 0;
    }
    frontAndBack
    {
        type            empty;
    }
}


// ************************************************************************* //
