/*--------------------------------*- C++ -*----------------------------------*\
| =========                 |                                                 |
| \\      /  F ield         | OpenFOAM: The Open Source CFD Toolbox           |
|  \\    /   O peration     | Version:  2312                                  |
|   \\  /    A nd           | Website:  www.openfoam.com                      |
|    \\/     M anipulation  |                                                 |
\*---------------------------------------------------------------------------*/
FoamFile
{
    version     2.0;
    format      ascii;
    arch        "LSB;label=32;scalar=64";
    class       volScalarField;
    location    "2.125";
    object      pNear;
}
// * * * * * * * * * * * * * * * * * * * * * * * * * * * * * * * * * * * * * //

dimensions      [0 2 -2 0 0 0 0];

internalField   nonuniform List<scalar> 
400
(
2.47251e-08
0
0
0
0
0
0
0
0
0
0
0
9.78522e-05
0.001064
0.00224909
0.00329852
0.00391667
0.00410203
0.00402914
0.00394441
2.66936e-05
4.06758e-07
0
0
0
0
0
0
0
0
0
0
0
0.000575993
0.00177049
0.00292668
0.00369159
0.00397817
0.00398313
0.0038883
2.65062e-05
0
0
0
0
0
0
0
0
0
0
0
0
0
0.000252758
0.00169439
0.0029665
0.00370228
0.003917
0.00375848
0
0
0
0
0
0
0
0
0
0
0
0
0
0
0
0
0.000857025
0.00273841
0.00370081
0.00367211
0
0
0
0
0
0
0
0
0
0
0
0
0
0
0
0
0
0.000429025
0.0029554
0.00345448
0
0
0
0
0
0
0
0
0
0
0
0
0
0
0
0
0
0
0.000900828
0.00258352
0
0
0
0
0
0
0
0
0
0
0
0
0
0
0
0
0
0
0
0.000640878
0
0
0
0
0
0
0
0
0
0
0
0
0
0
0
0
0
0
0
0
0
0
0
0
0
0
0
0
0
0
0
0
0
0
0
0
0
0
0
0
0
0
0
0
0
0
0
0
0
0
0
0
0
0
0
0
0
0
0
0
0
0
0
0
0
0
0
0
0
0
0
0
0
0
0
0
0
0
0
0
0
0
0
0
0
0
0
0
0
0
0
0
0
0
0
0
0
0
0
0
0
0
0
0
0
0
0
0
0
0
0
0
0
0
0
0
0
0
0
0
0
0
0
0
0
0
0
0
0
0
0
0
0
0
0
0
0
0
0
0
0
0
0
0
0
0
0
0
0
0
0
0
0
0
0
0
0
0
0
0
0
0
0
0
0
0
0
0
0
0
0
0
0
0
0
0
0
0
0
0
0
0
0
0
0
0
0
0
0
0
0
0
0
0
0
0
0
0
0
0
0
0
0
0
0
0
0
0
0
0
0
0
0
0
0
0
0
0
0
0
0
0
0
0
0
0
0
0
0
0
0
0
0
0
0
0
0
0.000852355
0.00238905
0.0152548
0
0.00131596
0.000663369
0
0
0
0
0
0
0
0
0
0
0
0
0
0
0.00348411
0.00523455
0.0581829
)
;

boundaryField
{
    movingWall
    {
        type            zeroGradient;
    }
    fixedWalls
    {
        type            calculated;
        value           nonuniform List<scalar> 
60
(
4.02506e-06
2.26652e-05
2.25584e-05
3.97594e-06
0
0
0
0
0
0
0
0
0
0
0
0
0
0
0
0
0.00393599
0.00387725
0.003765
0.00365242
0.00335648
0.00242277
0.000836143
9.61317e-05
0
0
0
0
0
0
0
0
0
0.00228822
0.0194058
0.0517437
2.10164e-08
3.70877e-09
0
0
0
0
0
0
0
0
0
1.46778e-05
0.000228097
0.00109684
0.00222874
0.00323383
0.00385175
0.00406329
0.00402737
0.00395712
)
;
    }
    frontAndBack
    {
        type            empty;
    }
}


// ************************************************************************* //
