/*--------------------------------*- C++ -*----------------------------------*\
| =========                 |                                                 |
| \\      /  F ield         | OpenFOAM: The Open Source CFD Toolbox           |
|  \\    /   O peration     | Version:  2312                                  |
|   \\  /    A nd           | Website:  www.openfoam.com                      |
|    \\/     M anipulation  |                                                 |
\*---------------------------------------------------------------------------*/
FoamFile
{
    version     2.0;
    format      ascii;
    arch        "LSB;label=32;scalar=64";
    class       volScalarField;
    location    "2.125";
    object      QField;
}
// * * * * * * * * * * * * * * * * * * * * * * * * * * * * * * * * * * * * * //

dimensions      [0 0 -2 0 0 0 0];

internalField   nonuniform List<scalar> 
400
(
-0.0417773
-0.277789
-0.593042
-0.745069
-0.799685
-0.928567
-1.2824
-1.92291
-2.99904
-4.71581
-7.0282
-9.29088
-10.8706
-12.3315
-13.6457
-13.0733
-9.42539
-4.30852
-0.751063
-0.0895709
-0.320629
-0.948939
-1.68177
-2.08554
-2.2227
-2.37013
-2.85803
-3.94492
-5.61148
-7.27114
-8.20744
-8.76207
-10.0641
-13.3808
-18.3074
-21.4323
-19.6651
-11.7905
-2.31646
-0.0050753
-0.848012
-1.56601
-2.33734
-2.90503
-3.21248
-3.72408
-5.00491
-7.19393
-9.88943
-12.2501
-13.1569
-12.6692
-12.9796
-15.8791
-22.0968
-29.6269
-33.1145
-27.6747
-10.6391
-1.11057
-1.46915
-2.0476
-2.61941
-3.1884
-3.83142
-5.12102
-7.52609
-10.8864
-13.519
-12.8429
-8.26557
-2.11107
2.39016
3.23694
-0.77538
-11.6635
-27.4855
-39.0618
-30.9538
-5.2563
-2.02569
-2.33466
-2.69751
-3.26131
-4.25717
-6.36998
-9.84313
-13.0423
-12.2769
-5.0122
6.58893
17.2343
23.7325
26.1612
26.2778
21.5899
5.23679
-25.1213
-48.6246
-24.9957
-2.37471
-2.32151
-2.53387
-3.13029
-4.43072
-7.11643
-10.8319
-12.0326
-6.10748
7.22611
21.3504
29.2349
30.3973
29.5066
30.2666
33.8613
33.5289
11.1454
-40.1934
-66.221
-2.46935
-2.04708
-2.17182
-2.78846
-4.23022
-7.03525
-10.1013
-8.73607
1.45372
17.7183
29.8281
31.7776
27.795
23.567
21.3499
24.1609
33.3487
34.767
-8.6304
-94.0712
-2.36242
-1.6319
-1.69923
-2.28487
-3.68523
-6.30079
-8.5207
-5.31362
7.09578
23.837
33.5763
33.2201
28.6408
23.0834
17.6056
15.4097
21.1198
32.6951
16.3176
-90.7046
-2.13986
-1.20718
-1.21985
-1.73889
-2.99552
-5.31275
-6.9093
-3.39477
8.75556
25.3785
35.2235
36.3586
32.9254
26.4417
18.127
12.7386
13.4227
22.7626
22.7779
-66.1208
-1.90042
-0.872629
-0.833452
-1.2654
-2.33653
-4.30997
-5.94376
-3.31026
6.85786
22.3085
33.5516
37.274
35.3277
27.8503
17.6197
10.9622
9.75671
15.0502
19.1771
-36.6008
-1.59756
-0.671417
-0.588961
-0.930182
-1.80678
-3.46547
-5.25724
-4.22194
2.45079
14.5356
25.9331
31.6244
30.8809
23.2418
13.5179
7.56059
6.01507
9.39441
13.1647
-14.9422
-1.25947
-0.589647
-0.489774
-0.752748
-1.44867
-2.77586
-4.51616
-4.97375
-1.7951
5.4075
13.8879
19.0579
18.8937
13.3618
6.72876
2.92643
1.81455
4.31808
6.94948
-2.24231
-0.912467
-0.576286
-0.504868
-0.714718
-1.26186
-2.2624
-3.71502
-4.82799
-4.00848
-0.754881
3.81723
6.93132
6.88586
3.88125
0.552358
-1.29419
-1.94698
-0.176559
1.54903
4.51441
-0.47701
-0.56045
-0.593317
-0.789243
-1.22578
-1.95419
-2.99473
-4.03589
-4.21753
-3.01463
-0.959483
0.632721
0.58015
-0.889377
-2.55538
-3.6362
-4.37096
-3.18853
-0.805386
5.637
0.349493
-0.446554
-0.701812
-0.942757
-1.3083
-1.83559
-2.50664
-3.16273
-3.43512
-2.96156
-1.92545
-1.02674
-0.969929
-1.78806
-3.02049
-4.07105
-5.29015
-2.48517
4.86351
-1.10228
1.34452
-0.403712
-1.00185
-1.28125
-1.57203
-1.93348
-2.31615
-2.59122
-2.58823
-2.17614
-1.41318
-0.687553
-0.451005
-0.970564
-2.02251
-3.2779
-4.37468
4.55241
17.119
-16.9794
2.89294
0.843999
-0.346502
-1.0859
-1.58034
-1.9479
-2.19008
-2.23589
-1.9878
-1.41207
-0.590608
0.230124
0.667048
0.471067
-0.301555
-1.47559
0.169056
18.1221
13.453
-60.6891
6.51355
-2.08824
-4.05107
-3.51174
-3.33208
-3.28832
-3.1309
-2.70198
-1.91304
-0.769173
0.602645
1.98084
3.06628
3.74521
4.6049
6.31941
18.3212
41.4329
1.09134
-285.593
-18.6102
3.28937
-5.25382
-7.62805
-4.91193
-3.50344
-2.94434
-2.31723
-1.23056
0.265865
1.94454
3.59566
5.23888
6.88161
10.6018
15.6694
41.4035
53.4771
184.578
-1176.16
-3306.26
933.088
751.263
398.192
207.88
121.951
79.578
55.9829
41.7266
33.024
28.0117
25.3109
24.6549
26.998
35.1988
44.8911
110.68
-47.5082
1805.13
-3110.44
)
;

boundaryField
{
    movingWall
    {
        type            calculated;
        value           nonuniform List<scalar> 
20
(
-6618.23
1740.85
1402.97
743.787
388.904
228.867
150.086
106.265
79.6975
63.2872
53.5887
48.0846
46.3497
50.1655
64.8868
82.7076
201.76
-52.362
3310.87
-4343.84
)
;
    }
    fixedWalls
    {
        type            calculated;
        value           nonuniform List<scalar> 
60
(
-0.011458
-0.152303
-0.562851
-1.22458
-2.00406
-2.71539
-3.21642
-3.46424
-3.46699
-3.30954
-2.86647
-2.21908
-1.48303
-0.587372
0.858689
2.77608
4.62964
12.9706
-38.3129
-7499.51
-0.0534555
0.0839679
0.773138
3.64124
-13.4731
-71.2264
-136.142
-161.776
-134.619
-81.2126
-35.8977
-7.02437
9.56551
13.0928
-4.51792
-51.5551
-183.823
-862.702
-3869.19
-11012.8
-0.0019784
-0.0990928
-0.281311
-0.354233
-0.287955
-0.292723
-0.540125
-1.09952
-2.46361
-5.44911
-10.1495
-15.0345
-18.0424
-18.9737
-17.8428
-13.8683
-7.91922
-3.01595
-0.798834
-0.140545
)
;
    }
    frontAndBack
    {
        type            empty;
    }
}


// ************************************************************************* //
