/*--------------------------------*- C++ -*----------------------------------*\
| =========                 |                                                 |
| \\      /  F ield         | OpenFOAM: The Open Source CFD Toolbox           |
|  \\    /   O peration     | Version:  2312                                  |
|   \\  /    A nd           | Website:  www.openfoam.com                      |
|    \\/     M anipulation  |                                                 |
\*---------------------------------------------------------------------------*/
FoamFile
{
    version     2.0;
    format      ascii;
    arch        "LSB;label=32;scalar=64";
    class       volVectorField;
    location    "2.125";
    object      URandom;
}
// * * * * * * * * * * * * * * * * * * * * * * * * * * * * * * * * * * * * * //

dimensions      [0 1 -1 0 0 0 0];

internalField   nonuniform List<vector> 
400
(
(0.0907695 -0.00183356 -0.0415285)
(0.0684903 -0.0364869 -0.0600658)
(0.00767811 0.0499662 -0.0863566)
(-0.0856313 0.0312925 -0.0592215)
(-0.0838973 -0.0403182 0.0596178)
(-0.110346 0.0217804 0.0426155)
(0.0111598 0.0228951 0.0895845)
(0.0427698 0.0637709 0.00969639)
(-0.125701 0.0156166 0.060238)
(-0.142465 0.0387641 -0.0388219)
(-0.0479073 -0.0939612 0.000458146)
(-0.0454226 -0.0657277 -0.0681063)
(-0.129902 -0.0689361 -0.0466777)
(-0.153187 0.0383603 0.0345147)
(-0.0115006 -0.0941278 0.0116875)
(-0.110851 -0.0750655 -0.029771)
(0.0266567 0.0208537 -0.0807197)
(-0.0422601 -0.0718586 0.0661037)
(-0.0736686 -0.0626479 0.0259411)
(-0.060081 -0.0507989 0.0590508)
(0.0380148 -0.0607556 0.0668531)
(0.0473306 -0.0223763 0.079853)
(0.0266034 -0.0762727 0.0381731)
(0.0512191 0.0630955 -0.0438576)
(-0.0874295 0.0695491 -0.0534423)
(-0.0669588 -0.0207097 0.0899488)
(-0.105555 0.0915826 0.00453629)
(-0.0146558 0.09255 -0.045759)
(-0.122699 -0.0634864 -0.028332)
(-0.138653 0.0960246 -0.0019737)
(-0.161402 -0.00666775 0.0697597)
(-0.0790168 0.0304892 -0.0946911)
(-0.0738724 0.0925591 -0.0194262)
(-0.131986 0.0124052 -0.0924131)
(-0.16193 -0.0823038 -0.0280459)
(-0.0738143 0.0742339 0.0102352)
(0.0481678 -0.00631951 -0.00234655)
(-0.0332804 -0.0939608 0.0670657)
(0.0041188 -0.0741469 0.0747263)
(0.000579818 0.0972618 -0.0299677)
(0.0222498 -0.0359794 -0.0866909)
(0.047711 0.08296 0.042819)
(-0.0606852 -0.0636533 -0.0423353)
(0.00523616 0.106327 0.0332439)
(-0.0629311 -0.0139675 0.090146)
(0.0487552 -0.0159374 0.0139653)
(-0.115883 0.023034 -0.0789441)
(-0.125403 0.00318559 0.0785039)
(-0.161476 -0.0233457 0.0345514)
(-0.0534159 -0.0566956 -0.0170183)
(-0.17342 0.0982606 -0.0377373)
(-0.105664 -0.0727364 0.0428702)
(-0.0999783 0.0812102 -0.0471265)
(-0.199076 -0.0149331 0.0751667)
(-0.192103 -0.0586407 0.070226)
(-0.0694254 -0.0112872 -0.0837945)
(-0.0487728 -0.118888 -0.0686192)
(-0.0119814 -0.0859266 0.0832056)
(0.0491188 -0.0995529 0.00952383)
(-0.0250973 -0.0785063 0.0578014)
(-0.0778568 0.0351702 0.0631794)
(-0.0715086 0.0111578 0.0787601)
(-0.0607135 0.108263 -0.0322011)
(-0.071854 0.0434117 -0.0877762)
(0.0554642 0.0587468 0.0235414)
(0.0265734 -0.0114625 0.0523594)
(-0.0745218 -0.0435906 -0.0583546)
(-0.0572016 0.0153615 0.0942565)
(-0.00955739 0.0373523 0.0505854)
(-0.0434749 -0.0198388 0.0222414)
(-0.132119 0.0697874 0.0950957)
(-0.0773278 -0.0105274 -0.0698711)
(-0.12494 -0.0508743 0.082468)
(-0.104483 -0.088524 -0.0632927)
(-0.206486 -0.0672801 -0.0704129)
(-0.154005 0.0271135 0.00859801)
(-0.204036 -0.118384 -0.0190843)
(-0.0258889 -0.0280124 -0.0571289)
(-0.0642575 -0.157362 0.0236179)
(-0.00486013 -0.111346 0.0192512)
(-0.054409 0.06043 0.0763587)
(-0.107695 0.00175285 -0.00122472)
(0.0261513 0.0966602 0.0614815)
(-0.123669 0.0150645 -0.0184048)
(-0.116918 0.0397765 -0.0597651)
(-0.0319403 -0.050573 0.0309262)
(0.0250949 0.0135109 -0.0331328)
(-0.127481 0.127514 -0.0560849)
(-0.162669 0.141023 0.0118332)
(-0.0961437 0.12245 0.078503)
(-0.100105 0.0872671 0.089226)
(-0.0412642 0.0686116 -0.0240495)
(-0.110722 0.0585741 0.0808986)
(-0.0730265 0.00698435 -0.0792558)
(-0.0812086 0.0184276 -0.0602214)
(-0.194947 -0.0583237 0.0617809)
(-0.0150356 -0.0922845 -0.0186896)
(-0.0755654 -0.0569527 0.0741205)
(-0.00369974 -0.162143 -0.0594537)
(0.0419846 -0.0146968 -0.0745373)
(-0.049451 -0.0212416 -0.074353)
(0.0179104 0.112611 0.056789)
(-0.105667 0.0421249 0.0477793)
(0.0444656 0.0811888 -0.0606385)
(-0.0480063 0.0910155 -0.0892772)
(-0.0257874 0.0189483 -0.0912036)
(-0.109318 0.151794 -0.00665653)
(-0.0371452 0.0651777 0.0926114)
(-0.0128562 0.13114 0.0437129)
(-0.0570428 0.0852607 0.0898214)
(-0.181475 0.0402414 -0.0621458)
(-0.0696488 0.0659054 0.0863376)
(-0.0240693 -0.0587503 0.031217)
(-0.101385 0.0731052 -0.0103555)
(-0.15017 0.00162296 -0.0593523)
(-0.0625471 -0.107476 0.0916898)
(-0.0248774 -0.172026 0.0394386)
(-0.0718328 -0.210956 0.0664321)
(-0.0701176 -0.212722 -0.0773226)
(0.0416324 -0.0426173 -0.0512589)
(0.0290663 0.111554 -0.0542116)
(0.0837263 0.0118586 0.0200098)
(-0.0776785 0.0934146 -0.0631754)
(0.0580815 -0.00821148 0.00218348)
(0.0115999 0.0214992 0.0839113)
(-0.0867734 0.148823 -0.028475)
(0.0406124 0.040641 0.0245913)
(-0.0142411 0.178386 -0.0151481)
(-0.0644494 0.0658524 0.0962014)
(-0.0418747 0.144862 0.0675587)
(0.0141144 0.0506676 0.0384858)
(-0.120811 -0.0612925 -0.0237666)
(0.014388 -0.0388827 -0.0387568)
(-0.121866 -0.0130961 0.0811638)
(-0.0481063 -0.0712325 0.0978469)
(-0.00366527 -0.161158 -0.000748011)
(-0.0187924 -0.193308 0.0103098)
(-0.0282801 -0.083543 0.0770523)
(0.010299 -0.1965 -0.0703625)
(0.0463004 -0.100214 -0.04939)
(0.0560741 0.0859997 0.066445)
(0.0579852 -0.012291 0.0452572)
(-0.00749995 0.109258 -0.0825285)
(0.0225552 -0.00314022 0.0685098)
(-0.0800733 -0.00096709 -0.0498725)
(-0.00376921 0.123922 -0.0831947)
(-0.0418081 -0.00207019 -0.0426004)
(-0.0281805 0.00663702 -0.0362688)
(-0.071174 0.0983067 0.0971622)
(0.0216246 0.0190805 0.0274835)
(-0.00764637 0.0850835 0.0848555)
(-0.0365714 -0.0400154 -0.0773699)
(-0.122079 0.0116553 0.0635143)
(-0.0659183 0.00817359 -0.0862913)
(-0.0901286 -0.142687 -0.0292302)
(0.0433676 -0.142735 -0.00160806)
(-0.103479 -0.12856 0.0659887)
(-0.0628992 -0.0354399 0.00596221)
(-0.12241 -0.21263 0.0455266)
(-0.0906869 -0.117495 -0.0356733)
(-0.0723599 0.110511 0.0210946)
(0.0573866 0.111342 0.0517247)
(-0.0745532 0.0761833 0.0727622)
(0.0569009 0.0607214 -0.0724991)
(-0.0679565 0.10504 -0.0768473)
(0.0153432 0.00926153 0.0636301)
(0.05293 0.0842416 -0.0676869)
(-0.0387979 0.00574524 -0.0227766)
(-0.0570884 0.0904228 -0.0932319)
(0.0480725 0.152681 -0.0157232)
(-0.0181828 0.120896 0.0750669)
(-0.0742956 0.107641 0.00047712)
(-0.0913407 -0.0189457 -0.0722462)
(-0.00527425 0.0441389 -0.0501178)
(0.0572734 -0.111193 -0.046424)
(-0.0752012 -0.0163217 0.044752)
(0.00576958 -0.175638 0.0634209)
(0.0793686 -0.133359 0.0112557)
(-0.068271 -0.13259 -0.0767306)
(0.0125512 -0.158645 0.0786334)
(-0.0203601 0.0885823 0.0881109)
(-0.0607466 0.136902 0.00594933)
(0.0832194 0.0178648 -0.0224676)
(-0.0497739 -0.00321015 -0.0591777)
(-0.0332437 0.166373 0.0128667)
(0.0144415 0.16411 0.0489324)
(0.0688003 0.0507107 -0.0532965)
(-0.0870725 0.0667329 0.0408321)
(0.0427889 0.168624 -0.0591164)
(-0.0618943 0.141629 -0.0467164)
(-0.0604874 0.0318168 -0.070585)
(0.0701056 -0.0160831 0.065573)
(0.0618562 -0.0875462 -0.0263591)
(-0.0524675 -0.0681772 0.077807)
(0.0122804 -0.0229712 0.0898704)
(-0.011644 -0.0397422 -0.0890238)
(0.073389 -0.163132 0.0158541)
(-0.103731 -0.138014 0.0226038)
(0.0685543 -0.229012 -0.0210883)
(0.0015375 -0.322807 -0.0338405)
(0.0384024 -0.0459934 0.00429423)
(-0.0604239 0.0843076 -0.0750695)
(0.0713913 0.016345 0.052832)
(-0.0505361 0.117327 -0.0691305)
(-0.00426346 0.0376381 -0.0944764)
(0.0757978 0.0450273 0.060026)
(0.0714682 0.0137324 -0.0243413)
(0.0418977 0.0410995 0.0802653)
(0.07219 0.174522 0.030501)
(-0.0129806 0.018833 0.0663228)
(-0.035647 0.125481 -0.0213801)
(0.0500515 -0.0535108 0.0589494)
(0.118247 0.0418439 0.014906)
(-0.0263827 -0.00640084 -0.0773949)
(-0.0322611 -0.0487468 -0.0824286)
(-0.0136899 -0.0121454 -0.0681591)
(-0.0208497 -0.0787184 -0.0939453)
(0.0899403 -0.103992 -0.0452482)
(-0.0588097 -0.110867 -0.0611532)
(0.0471416 -0.248834 0.0810751)
(0.0785027 0.0243886 -0.0595877)
(0.0476058 -0.0319996 0.00359207)
(-0.0578478 -0.0183733 0.008103)
(0.0010366 0.146926 -0.0555153)
(0.0367857 0.10222 -0.088843)
(-0.0578038 0.106406 -0.064583)
(-0.0226466 0.139006 0.0694494)
(-0.0432048 0.0283791 0.0445608)
(-0.00204123 0.089076 0.0917521)
(-0.0227252 0.0872237 -0.0703025)
(0.0459236 -0.000513647 0.0840433)
(0.141523 -0.0159461 0.0298106)
(0.10573 0.0628525 -0.0549779)
(0.0280011 0.0286283 0.077889)
(0.0366709 -0.117766 -0.076343)
(0.0878068 -0.0410137 0.07497)
(0.0436874 -0.000352578 0.0456919)
(0.017108 -0.00929682 0.0170807)
(0.0815344 -0.188474 -0.0496963)
(0.0140206 -0.300208 -0.0813293)
(-0.0753221 -0.0140562 0.0275923)
(0.0738538 0.0895478 0.0622268)
(0.00913954 0.149195 -0.0429611)
(-0.0578336 -0.0118203 -0.0175027)
(0.0803825 0.10159 -0.0621327)
(0.0274912 0.161619 0.0300375)
(0.110262 0.0601941 -0.0498543)
(-0.0242771 -0.00715757 0.0107543)
(0.0124965 0.025713 -0.0823729)
(0.0229722 0.0524804 -0.0936338)
(0.129592 0.019881 0.0706773)
(0.0914962 -0.0692802 0.0214179)
(0.111248 0.0258471 0.085855)
(0.0309034 0.0608072 0.0471559)
(0.117778 -0.11186 -0.0224779)
(0.0829187 -0.00144629 0.0673623)
(0.0522337 -0.0649254 0.0958524)
(-0.0705091 -0.0430804 0.0161895)
(0.0874039 -0.10327 -0.0172915)
(0.0348177 -0.33437 -0.0343705)
(-0.048595 0.096297 -0.0663022)
(-0.0428636 0.0829325 -0.082723)
(0.0805401 0.124044 -0.00780053)
(0.079037 0.128632 -0.0185856)
(0.00100806 -0.00947832 -0.0715098)
(-0.0552857 0.0637594 -0.0641425)
(0.0951071 0.0644354 0.0747606)
(-0.0527397 0.0709102 0.0409564)
(0.124671 0.114017 0.0370226)
(0.151274 0.0840614 0.0244564)
(0.0998799 0.134872 0.0109224)
(0.0814125 0.0345091 0.0989025)
(-0.0166594 0.0516743 0.0177907)
(0.139437 -0.0170949 0.0655163)
(0.0622735 0.0628027 -0.0320773)
(0.11181 -0.0956049 0.0526232)
(0.0414257 0.0249195 -0.0481611)
(0.0921622 -0.0363949 0.0446345)
(0.0717188 -0.169446 0.06673)
(-0.0760422 -0.239145 -0.0745416)
(0.0687594 -0.0358206 -0.0111575)
(-0.0475443 -0.00123868 0.0686104)
(0.0904603 0.0810721 0.0497892)
(-0.0238903 0.120744 0.0637236)
(0.0841684 0.119257 -0.0362495)
(0.0673667 -0.00771405 0.0662407)
(-0.00408168 -0.0258233 -0.049069)
(0.0123502 0.0821465 0.0914402)
(0.0115822 0.102719 0.0760271)
(0.0322894 0.129065 0.0461292)
(0.12571 -0.0200819 0.0583342)
(0.0180421 -0.0198221 -0.0742719)
(0.133929 0.054104 -0.0608991)
(0.101351 0.0562883 -0.0682897)
(-0.0263717 0.0354089 -0.00713378)
(0.120647 -0.0558673 0.0616343)
(0.059847 -0.0667495 -0.0944004)
(-0.068604 -0.0854475 -0.0476723)
(-0.0682585 -0.072504 0.0414724)
(-0.00375295 -0.357432 -0.00847581)
(0.0323887 0.124437 0.0328597)
(0.0466781 0.117382 -0.055741)
(-0.0118893 0.0171136 0.0928273)
(-0.0438736 0.0979895 0.0646909)
(0.113596 0.0744412 0.0207332)
(-0.0621265 0.0678484 0.0420591)
(0.0223574 -0.0533491 0.00587075)
(0.10615 0.0645248 -0.07357)
(0.0318596 -0.0548383 -0.0201272)
(0.129569 -0.00528695 -0.0553473)
(0.0122371 -0.0496058 0.0314698)
(0.00260468 -0.050666 0.0253558)
(0.0144799 0.0206563 0.0840728)
(0.0797249 0.0804003 0.0564531)
(0.0167654 0.0794019 0.00572339)
(0.0792798 0.00394825 -0.0905495)
(0.0263188 0.0348671 -0.0703378)
(0.0665068 -0.0734534 -0.0877276)
(-0.00243843 -0.087849 0.096649)
(0.0237526 -0.280151 -0.0916641)
(0.0582137 -0.0132881 -0.0687419)
(0.0910872 0.0765558 -0.0241639)
(-0.0454761 -0.0434348 -0.0110481)
(-0.0594424 0.0357133 -0.069118)
(-0.029229 -0.042567 -0.027076)
(-0.0205437 0.00881926 0.0827316)
(0.0580614 0.133668 0.0176644)
(0.0978032 -0.00544536 -0.0718684)
(0.127741 0.0794858 0.0436451)
(0.134744 0.00445632 0.057903)
(0.1076 -0.0482876 0.0510965)
(0.108892 -0.0591278 -0.0461214)
(0.0525116 0.1107 -0.00310715)
(-0.0101088 0.0698008 0.000373853)
(-0.0137051 0.062402 0.0145446)
(0.107889 0.0291944 0.0701443)
(0.0283209 -0.112673 -0.0450248)
(0.0140269 -0.0875569 0.0898661)
(-0.0245754 -0.0351781 -0.0674632)
(-0.0286402 -0.362166 0.0218948)
(0.0186996 0.134611 -0.0362429)
(0.081823 0.0249109 0.0497981)
(0.0501039 -0.0233664 -0.057826)
(0.0695499 -0.040407 -0.0102219)
(0.10294 0.069624 -0.0408544)
(-0.017262 -0.0268992 -0.0665135)
(0.00160663 0.0730508 0.0847338)
(0.124135 -0.025367 0.0223397)
(2.55816e-05 0.10853 0.0264579)
(0.109265 0.0609843 -0.0789346)
(0.135764 -0.00907817 -0.0650797)
(0.118855 0.0928718 -0.0443317)
(0.126561 -0.0700794 0.0127719)
(0.00100458 -0.0539457 -0.0337328)
(0.0464453 -0.0168999 0.0956621)
(-0.005357 -0.0613265 -0.046893)
(-0.0347476 -0.0590961 -0.0304008)
(0.0611004 0.0169746 -0.0828654)
(0.0789839 -0.154213 0.0279268)
(-0.0688831 -0.32843 -0.0291251)
(-0.0495403 -0.0524513 0.0609739)
(-0.0323343 -0.0396206 0.0842212)
(0.0344084 -0.0246639 -0.0869614)
(0.0865694 0.0255891 -0.067932)
(0.0417292 -0.0369723 -0.0828431)
(0.0527922 -0.0281775 -0.08821)
(-0.039903 -0.0257848 -0.00636465)
(0.0625833 0.0486419 -0.0944625)
(0.0452785 0.0889914 -0.0618363)
(0.146524 0.0859946 0.0252689)
(0.0659999 -0.0532329 0.0710624)
(0.10258 0.0792925 0.073151)
(0.0890691 0.0531192 0.0890921)
(0.125139 -0.0102869 0.0964014)
(0.190796 -0.0274249 -0.0423493)
(0.172347 -0.0430869 0.0611307)
(0.0648699 0.0681774 0.0615907)
(0.176377 -0.0752924 0.0476604)
(-0.0583653 -0.0360211 0.0468934)
(0.102933 -0.166603 -0.0738433)
(0.0818198 0.145239 0.0746004)
(-0.00307932 0.0119824 -0.0514017)
(0.0208706 0.0219481 -0.0725404)
(0.173238 0.00130436 -0.0712521)
(0.111617 -0.0420838 0.0759319)
(0.218055 0.0814631 0.00630887)
(0.105278 -0.0502116 -0.0572481)
(0.145466 0.0740845 -0.0745208)
(0.102325 0.0357579 0.0545303)
(0.106105 -0.0283346 0.0298635)
(0.173805 -0.071961 -0.0513068)
(0.251887 0.0838993 0.0519923)
(0.18733 -0.055234 -0.0704514)
(0.173895 -0.0190847 0.0794284)
(0.273981 0.00867919 -0.0916547)
(0.265799 0.0799641 -0.0587342)
(0.182278 0.0523695 -0.0706607)
(0.349775 0.0207854 -0.000365736)
(0.19247 -0.027824 0.0680984)
(0.315934 -0.175465 -0.0096982)
)
;

boundaryField
{
    movingWall
    {
        type            fixedValue;
        value           uniform (1 0 0);
    }
    fixedWalls
    {
        type            noSlip;
    }
    frontAndBack
    {
        type            empty;
    }
}


// ************************************************************************* //
