/*--------------------------------*- C++ -*----------------------------------*\
| =========                 |                                                 |
| \\      /  F ield         | OpenFOAM: The Open Source CFD Toolbox           |
|  \\    /   O peration     | Version:  2312                                  |
|   \\  /    A nd           | Website:  www.openfoam.com                      |
|    \\/     M anipulation  |                                                 |
\*---------------------------------------------------------------------------*/
FoamFile
{
    version     2.0;
    format      ascii;
    arch        "LSB;label=32;scalar=64";
    class       volScalarField;
    location    "2.125";
    object      Ux;
}
// * * * * * * * * * * * * * * * * * * * * * * * * * * * * * * * * * * * * * //

dimensions      [0 1 -1 0 0 0 0];

internalField   nonuniform List<scalar> 
400
(
-0.000179144
-0.00216993
-0.00607289
-0.0106482
-0.0158351
-0.0218651
-0.0289113
-0.0371265
-0.0465829
-0.0566328
-0.0658343
-0.0722427
-0.073865
-0.0692737
-0.0583153
-0.0425809
-0.0247741
-0.00812091
0.00100482
0.0016898
-0.00134785
-0.00593808
-0.0125436
-0.0200833
-0.0280848
-0.036381
-0.0452926
-0.0555859
-0.0675352
-0.0803905
-0.0922755
-0.100864
-0.104141
-0.100854
-0.090037
-0.0725172
-0.0497737
-0.0248658
-0.0041061
0.00159304
-0.00264423
-0.00875093
-0.0162833
-0.0249116
-0.0340318
-0.0435447
-0.0545008
-0.0679682
-0.0838732
-0.100971
-0.116978
-0.128847
-0.134319
-0.133162
-0.125072
-0.108934
-0.0846912
-0.0531707
-0.0181536
0.000865803
-0.00345866
-0.0105073
-0.0184006
-0.0272413
-0.0367258
-0.0472511
-0.0601274
-0.0762267
-0.0952049
-0.114376
-0.130232
-0.140351
-0.144558
-0.143524
-0.138665
-0.128919
-0.111394
-0.0825505
-0.0433332
-0.00388629
-0.00375893
-0.0111345
-0.0188844
-0.027412
-0.0367594
-0.0475544
-0.0612948
-0.0784519
-0.097221
-0.113819
-0.124829
-0.129391
-0.128819
-0.125678
-0.121921
-0.11869
-0.112568
-0.0959468
-0.0628017
-0.0183426
-0.00358297
-0.0106843
-0.0178476
-0.0256229
-0.0342786
-0.0444163
-0.0573567
-0.0727401
-0.0881098
-0.0996002
-0.104482
-0.103143
-0.0985194
-0.0934905
-0.0891589
-0.0875552
-0.0888057
-0.0862035
-0.0674941
-0.0292344
-0.00305004
-0.00935539
-0.015556
-0.0221789
-0.0295171
-0.0379206
-0.0482127
-0.0598058
-0.070439
-0.0769855
-0.07808
-0.0753466
-0.071374
-0.0665081
-0.061188
-0.0572947
-0.0578629
-0.0620234
-0.0568789
-0.0303247
-0.00228123
-0.0074
-0.0123512
-0.0174666
-0.0229243
-0.0287116
-0.0352155
-0.0418154
-0.0475213
-0.050608
-0.0507135
-0.0495857
-0.047676
-0.0442182
-0.039542
-0.0353351
-0.0336155
-0.0376607
-0.0396337
-0.0250872
-0.00139177
-0.0050821
-0.00857133
-0.0119595
-0.0152413
-0.0180226
-0.020244
-0.0216052
-0.0224218
-0.0227858
-0.022628
-0.0228481
-0.0226945
-0.0210664
-0.0186919
-0.0170377
-0.0164025
-0.0198081
-0.0241047
-0.018027
-0.000483508
-0.00261919
-0.0045657
-0.00618176
-0.00727519
-0.00720339
-0.00538284
-0.00207243
0.00199309
0.00487841
0.00609958
0.00578506
0.00474513
0.00414336
0.0027087
0.000298557
-0.00232827
-0.00743228
-0.0129593
-0.0131293
0.000386949
-0.000244949
-0.000682555
-0.000653244
0.000211692
0.00261578
0.00750006
0.0144636
0.0227765
0.0293325
0.0330712
0.033887
0.0322541
0.0288271
0.0228988
0.0159829
0.00960914
0.00167138
-0.0055848
-0.0108047
0.00106079
0.00183135
0.00276308
0.00421183
0.00665948
0.0107078
0.0173435
0.0265456
0.0373289
0.0470009
0.053544
0.0560038
0.0542753
0.0485296
0.0390633
0.0285836
0.018954
0.00831627
-0.000970508
-0.0101815
0.00153855
0.00346269
0.00556739
0.00817778
0.0118038
0.0168975
0.0241959
0.0340508
0.0454934
0.0563307
0.0644247
0.0678669
0.0663944
0.0599308
0.0491786
0.0370754
0.025422
0.0128269
0.0017099
-0.0105737
0.00174215
0.00451663
0.00758121
0.0111434
0.0156314
0.0213571
0.0287423
0.0381017
0.0488602
0.0592849
0.0673121
0.071045
0.0699377
0.0639493
0.053962
0.0418836
0.0294898
0.0156501
0.00322405
-0.0114846
0.00163341
0.00482724
0.00865525
0.0130349
0.0182117
0.0243626
0.0316822
0.0402526
0.0496854
0.0588786
0.0660924
0.0698333
0.0692572
0.064386
0.0557514
0.0446798
0.0322407
0.0177633
0.00528108
-0.0121222
0.000928998
0.00432658
0.00870822
0.0137531
0.0195487
0.0261235
0.0334884
0.0415147
0.0498266
0.0577012
0.0640101
0.0675794
0.0676715
0.0640383
0.0568729
0.0471397
0.0346637
0.021574
0.010573
-0.0112897
-0.000539468
0.00165732
0.00662117
0.0126094
0.0192512
0.0265097
0.0342623
0.0422796
0.0501775
0.0574072
0.0632385
0.0669617
0.0677847
0.0652444
0.0593252
0.0509511
0.0381929
0.0310181
0.0186579
-0.00756121
-0.00316553
-0.00190481
0.00386395
0.010447
0.0179474
0.0262158
0.0349138
0.0436761
0.0521263
0.0597977
0.0661588
0.0705174
0.072399
0.0715987
0.0674838
0.0614321
0.0486674
0.0521001
0.0225684
0.00571315
-0.00682172
-0.010011
0.0011961
0.0138539
0.0263104
0.0387026
0.0505637
0.0617592
0.0721858
0.0816767
0.0899919
0.0968324
0.101937
0.105369
0.106258
0.106719
0.0962603
0.106906
0.029726
0.0718935
0.0403439
0.0605758
0.0862704
0.108688
0.12656
0.14198
0.156268
0.169696
0.182228
0.193844
0.204478
0.214034
0.222319
0.229362
0.234178
0.239204
0.232065
0.252666
0.126232
0.378796
)
;

boundaryField
{
    movingWall
    {
        type            calculated;
        value           uniform 1;
    }
    fixedWalls
    {
        type            calculated;
        value           uniform 0;
    }
    frontAndBack
    {
        type            empty;
    }
}


// ************************************************************************* //
