/*--------------------------------*- C++ -*----------------------------------*\
| =========                 |                                                 |
| \\      /  F ield         | OpenFOAM: The Open Source CFD Toolbox           |
|  \\    /   O peration     | Version:  2312                                  |
|   \\  /    A nd           | Website:  www.openfoam.com                      |
|    \\/     M anipulation  |                                                 |
\*---------------------------------------------------------------------------*/
FoamFile
{
    version     2.0;
    format      ascii;
    arch        "LSB;label=32;scalar=64";
    class       volScalarField;
    location    "2.125";
    object      Uy;
}
// * * * * * * * * * * * * * * * * * * * * * * * * * * * * * * * * * * * * * //

dimensions      [0 1 -1 0 0 0 0];

internalField   nonuniform List<scalar> 
400
(
9.86869e-05
0.000919279
0.00145388
0.00179096
0.00226415
0.00294017
0.0036878
0.00441979
0.00505115
0.00521276
0.00441769
0.00240606
-0.000517611
-0.00367968
-0.00653902
-0.00833582
-0.00811519
-0.0050393
-0.001403
0.00113734
0.00234149
0.00565835
0.00745499
0.00839191
0.00936489
0.0105025
0.0119093
0.0136143
0.0149628
0.0147744
0.0121777
0.00690276
-0.000749319
-0.0097448
-0.0187047
-0.0252325
-0.026368
-0.0202629
-0.00820504
0.00186307
0.00720598
0.012401
0.0153163
0.0169632
0.0182588
0.0199193
0.022716
0.0263897
0.0294179
0.0296114
0.0248425
0.0145832
-2.8836e-05
-0.0172187
-0.0346589
-0.0489372
-0.0556327
-0.0487746
-0.0261791
-0.00114406
0.0134153
0.0198571
0.0235716
0.0259464
0.0279765
0.0310632
0.0363315
0.0428161
0.0476294
0.0470814
0.0389128
0.0233276
0.00217418
-0.021667
-0.0462469
-0.0693063
-0.0859312
-0.0873903
-0.0624706
-0.0132209
0.0203811
0.0277249
0.031916
0.0349633
0.038104
0.0432341
0.0514455
0.0608015
0.0663469
0.0630794
0.0494851
0.0279254
0.00264607
-0.0237777
-0.0502446
-0.0775091
-0.104037
-0.120912
-0.107625
-0.0430662
0.027418
0.0354275
0.0398977
0.0436312
0.0481071
0.0554841
0.0666135
0.0776731
0.0818852
0.0742612
0.0547316
0.0281703
0.000263898
-0.0260434
-0.0508642
-0.0763697
-0.106012
-0.137605
-0.149364
-0.0910984
0.033903
0.0424429
0.04705
0.0513998
0.0571123
0.0663451
0.0794401
0.0906684
0.0924871
0.0800315
0.0550302
0.0245451
-0.00507738
-0.0317479
-0.0552687
-0.0767579
-0.101835
-0.13762
-0.173343
-0.141314
0.0393122
0.0483436
0.0529949
0.0577258
0.0641998
0.0743589
0.0881614
0.0988252
0.0985539
0.08254
0.0543465
0.0219889
-0.00908531
-0.0374653
-0.0615288
-0.0810642
-0.10091
-0.132019
-0.179837
-0.184009
0.0432908
0.0528422
0.0574201
0.0621798
0.0687683
0.0788167
0.0922438
0.101587
0.10072
0.0838924
0.054978
0.0218917
-0.0106875
-0.0409423
-0.0656512
-0.0842501
-0.101569
-0.127253
-0.179085
-0.212326
0.0456708
0.0557492
0.0601613
0.0645964
0.070665
0.0796281
0.0914088
0.100015
0.0990473
0.0836721
0.0559815
0.0234523
-0.00980612
-0.0409509
-0.0657695
-0.0836984
-0.0997636
-0.123332
-0.17506
-0.229857
0.0463991
0.0570483
0.0612241
0.0650518
0.0701062
0.077296
0.0866404
0.0940604
0.0931094
0.0805654
0.0560492
0.0256326
-0.00697288
-0.0374155
-0.0615102
-0.0790324
-0.0944201
-0.116689
-0.169411
-0.240524
0.0456503
0.0568362
0.0607511
0.0638119
0.0675882
0.0727131
0.079193
0.084497
0.0834592
0.0732297
0.0531394
0.0264549
-0.0029491
-0.0306328
-0.0532212
-0.0705454
-0.0857956
-0.107434
-0.161581
-0.247295
0.0436596
0.0552999
0.0589642
0.0612287
0.0636893
0.0668273
0.0705477
0.0733545
0.0718206
0.0634313
0.0474114
0.0254981
0.00100528
-0.0224618
-0.0426583
-0.059418
-0.074592
-0.0959293
-0.151825
-0.252161
0.0408877
0.0527329
0.0561019
0.0576032
0.0588774
0.0603502
0.0618727
0.0625184
0.0603319
0.0534037
0.0409566
0.0239821
0.00493632
-0.0140694
-0.0315475
-0.0472199
-0.0619024
-0.0828024
-0.140196
-0.255755
0.037457
0.0492571
0.0522802
0.0530992
0.0534114
0.0536277
0.0536323
0.0528183
0.0501072
0.0444182
0.0350803
0.0226202
0.00818111
-0.00672045
-0.0212029
-0.0351271
-0.0486815
-0.0690752
-0.126095
-0.258144
0.0353831
0.0459722
0.0480788
0.0480469
0.0475106
0.0468017
0.0458559
0.0442826
0.0414534
0.0368037
0.0299505
0.0209955
0.010536
-0.000636584
-0.0120237
-0.0237611
-0.035723
-0.0565741
-0.109978
-0.260922
0.029404
0.0388942
0.0412045
0.0413025
0.0405988
0.0395025
0.0381614
0.0364122
0.0338897
0.0302687
0.0253413
0.0190684
0.0119224
0.00406066
-0.00434393
-0.0136759
-0.0239304
-0.0471171
-0.0950079
-0.266897
0.0440112
0.0474897
0.0438498
0.0396077
0.0363488
0.0338103
0.0316889
0.0296537
0.0273792
0.0246201
0.0212502
0.0173854
0.0130069
0.00833242
0.00325317
-0.0035315
-0.0130774
-0.0382732
-0.0765127
-0.268538
0.0143118
0.00945534
0.011869
0.0157044
0.0168726
0.0167723
0.0163491
0.0158371
0.015152
0.0141872
0.0129073
0.0113521
0.00956441
0.00748771
0.00513044
0.00114015
-0.00408072
-0.0214202
-0.0424185
-0.226467
0.0931375
0.0694793
0.0434134
0.0288076
0.0212491
0.0168663
0.0139966
0.0119594
0.0104231
0.00921517
0.00820618
0.00732283
0.00651049
0.00570451
0.0047953
0.00352467
0.00208729
-0.00308019
0.00340272
-0.0983011
)
;

boundaryField
{
    movingWall
    {
        type            calculated;
        value           uniform 0;
    }
    fixedWalls
    {
        type            calculated;
        value           uniform 0;
    }
    frontAndBack
    {
        type            empty;
    }
}


// ************************************************************************* //
