/*--------------------------------*- C++ -*----------------------------------*\
| =========                 |                                                 |
| \\      /  F ield         | OpenFOAM: The Open Source CFD Toolbox           |
|  \\    /   O peration     | Version:  2312                                  |
|   \\  /    A nd           | Website:  www.openfoam.com                      |
|    \\/     M anipulation  |                                                 |
\*---------------------------------------------------------------------------*/
FoamFile
{
    version     2.0;
    format      ascii;
    arch        "LSB;label=32;scalar=64";
    class       volVectorField;
    location    "2.125";
    object      UzeroGrad;
}
// * * * * * * * * * * * * * * * * * * * * * * * * * * * * * * * * * * * * * //

dimensions      [0 1 -1 0 0 0 0];

internalField   nonuniform List<vector> 
400
(
(-0.000179144 9.86869e-05 0)
(-0.00216993 0.000919279 0)
(-0.00607289 0.00145388 0)
(-0.0106482 0.00179096 0)
(-0.0158351 0.00226415 0)
(-0.0218651 0.00294017 0)
(-0.0289113 0.0036878 0)
(-0.0371265 0.00441979 0)
(-0.0465829 0.00505115 0)
(-0.0566328 0.00521276 0)
(-0.0658343 0.00441769 0)
(-0.0722427 0.00240606 0)
(-0.073865 -0.000517611 0)
(-0.0692737 -0.00367968 0)
(-0.0583153 -0.00653902 0)
(-0.0425809 -0.00833582 0)
(-0.0247741 -0.00811519 0)
(-0.00812091 -0.0050393 0)
(0.00100482 -0.001403 0)
(0.0016898 0.00113734 0)
(-0.00134785 0.00234149 0)
(-0.00593808 0.00565835 0)
(-0.0125436 0.00745499 0)
(-0.0200833 0.00839191 0)
(-0.0280848 0.00936489 0)
(-0.036381 0.0105025 0)
(-0.0452926 0.0119093 0)
(-0.0555859 0.0136143 0)
(-0.0675352 0.0149628 0)
(-0.0803905 0.0147744 0)
(-0.0922755 0.0121777 0)
(-0.100864 0.00690276 0)
(-0.104141 -0.000749319 0)
(-0.100854 -0.0097448 0)
(-0.090037 -0.0187047 0)
(-0.0725172 -0.0252325 0)
(-0.0497737 -0.026368 0)
(-0.0248658 -0.0202629 0)
(-0.0041061 -0.00820504 0)
(0.00159304 0.00186307 0)
(-0.00264423 0.00720598 0)
(-0.00875093 0.012401 0)
(-0.0162833 0.0153163 0)
(-0.0249116 0.0169632 0)
(-0.0340318 0.0182588 0)
(-0.0435447 0.0199193 0)
(-0.0545008 0.022716 0)
(-0.0679682 0.0263897 0)
(-0.0838732 0.0294179 0)
(-0.100971 0.0296114 0)
(-0.116978 0.0248425 0)
(-0.128847 0.0145832 0)
(-0.134319 -2.8836e-05 0)
(-0.133162 -0.0172187 0)
(-0.125072 -0.0346589 0)
(-0.108934 -0.0489372 0)
(-0.0846912 -0.0556327 0)
(-0.0531707 -0.0487746 0)
(-0.0181536 -0.0261791 0)
(0.000865803 -0.00114406 0)
(-0.00345866 0.0134153 0)
(-0.0105073 0.0198571 0)
(-0.0184006 0.0235716 0)
(-0.0272413 0.0259464 0)
(-0.0367258 0.0279765 0)
(-0.0472511 0.0310632 0)
(-0.0601274 0.0363315 0)
(-0.0762267 0.0428161 0)
(-0.0952049 0.0476294 0)
(-0.114376 0.0470814 0)
(-0.130232 0.0389128 0)
(-0.140351 0.0233276 0)
(-0.144558 0.00217418 0)
(-0.143524 -0.021667 0)
(-0.138665 -0.0462469 0)
(-0.128919 -0.0693063 0)
(-0.111394 -0.0859312 0)
(-0.0825505 -0.0873903 0)
(-0.0433332 -0.0624706 0)
(-0.00388629 -0.0132209 0)
(-0.00375893 0.0203811 0)
(-0.0111345 0.0277249 0)
(-0.0188844 0.031916 0)
(-0.027412 0.0349633 0)
(-0.0367594 0.038104 0)
(-0.0475544 0.0432341 0)
(-0.0612948 0.0514455 0)
(-0.0784519 0.0608015 0)
(-0.097221 0.0663469 0)
(-0.113819 0.0630794 0)
(-0.124829 0.0494851 0)
(-0.129391 0.0279254 0)
(-0.128819 0.00264607 0)
(-0.125678 -0.0237777 0)
(-0.121921 -0.0502446 0)
(-0.11869 -0.0775091 0)
(-0.112568 -0.104037 0)
(-0.0959468 -0.120912 0)
(-0.0628017 -0.107625 0)
(-0.0183426 -0.0430662 0)
(-0.00358297 0.027418 0)
(-0.0106843 0.0354275 0)
(-0.0178476 0.0398977 0)
(-0.0256229 0.0436312 0)
(-0.0342786 0.0481071 0)
(-0.0444163 0.0554841 0)
(-0.0573567 0.0666135 0)
(-0.0727401 0.0776731 0)
(-0.0881098 0.0818852 0)
(-0.0996002 0.0742612 0)
(-0.104482 0.0547316 0)
(-0.103143 0.0281703 0)
(-0.0985194 0.000263898 0)
(-0.0934905 -0.0260434 0)
(-0.0891589 -0.0508642 0)
(-0.0875552 -0.0763697 0)
(-0.0888057 -0.106012 0)
(-0.0862035 -0.137605 0)
(-0.0674941 -0.149364 0)
(-0.0292344 -0.0910984 0)
(-0.00305004 0.033903 0)
(-0.00935539 0.0424429 0)
(-0.015556 0.04705 0)
(-0.0221789 0.0513998 0)
(-0.0295171 0.0571123 0)
(-0.0379206 0.0663451 0)
(-0.0482127 0.0794401 0)
(-0.0598058 0.0906684 0)
(-0.070439 0.0924871 0)
(-0.0769855 0.0800315 0)
(-0.07808 0.0550302 0)
(-0.0753466 0.0245451 0)
(-0.071374 -0.00507738 0)
(-0.0665081 -0.0317479 0)
(-0.061188 -0.0552687 0)
(-0.0572947 -0.0767579 0)
(-0.0578629 -0.101835 0)
(-0.0620234 -0.13762 0)
(-0.0568789 -0.173343 0)
(-0.0303247 -0.141314 0)
(-0.00228123 0.0393122 0)
(-0.0074 0.0483436 0)
(-0.0123512 0.0529949 0)
(-0.0174666 0.0577258 0)
(-0.0229243 0.0641998 0)
(-0.0287116 0.0743589 0)
(-0.0352155 0.0881614 0)
(-0.0418154 0.0988252 0)
(-0.0475213 0.0985539 0)
(-0.050608 0.08254 0)
(-0.0507135 0.0543465 0)
(-0.0495857 0.0219889 0)
(-0.047676 -0.00908531 0)
(-0.0442182 -0.0374653 0)
(-0.039542 -0.0615288 0)
(-0.0353351 -0.0810642 0)
(-0.0336155 -0.10091 0)
(-0.0376607 -0.132019 0)
(-0.0396337 -0.179837 0)
(-0.0250872 -0.184009 0)
(-0.00139177 0.0432908 0)
(-0.0050821 0.0528422 0)
(-0.00857133 0.0574201 0)
(-0.0119595 0.0621798 0)
(-0.0152413 0.0687683 0)
(-0.0180226 0.0788167 0)
(-0.020244 0.0922438 0)
(-0.0216052 0.101587 0)
(-0.0224218 0.10072 0)
(-0.0227858 0.0838924 0)
(-0.022628 0.054978 0)
(-0.0228481 0.0218917 0)
(-0.0226945 -0.0106875 0)
(-0.0210664 -0.0409423 0)
(-0.0186919 -0.0656512 0)
(-0.0170377 -0.0842501 0)
(-0.0164025 -0.101569 0)
(-0.0198081 -0.127253 0)
(-0.0241047 -0.179085 0)
(-0.018027 -0.212326 0)
(-0.000483508 0.0456708 0)
(-0.00261919 0.0557492 0)
(-0.0045657 0.0601613 0)
(-0.00618176 0.0645964 0)
(-0.00727519 0.070665 0)
(-0.00720339 0.0796281 0)
(-0.00538284 0.0914088 0)
(-0.00207243 0.100015 0)
(0.00199309 0.0990473 0)
(0.00487841 0.0836721 0)
(0.00609958 0.0559815 0)
(0.00578506 0.0234523 0)
(0.00474513 -0.00980612 0)
(0.00414336 -0.0409509 0)
(0.0027087 -0.0657695 0)
(0.000298557 -0.0836984 0)
(-0.00232827 -0.0997636 0)
(-0.00743228 -0.123332 0)
(-0.0129593 -0.17506 0)
(-0.0131293 -0.229857 0)
(0.000386949 0.0463991 0)
(-0.000244949 0.0570483 0)
(-0.000682555 0.0612241 0)
(-0.000653244 0.0650518 0)
(0.000211692 0.0701062 0)
(0.00261578 0.077296 0)
(0.00750006 0.0866404 0)
(0.0144636 0.0940604 0)
(0.0227765 0.0931094 0)
(0.0293325 0.0805654 0)
(0.0330712 0.0560492 0)
(0.033887 0.0256326 0)
(0.0322541 -0.00697288 0)
(0.0288271 -0.0374155 0)
(0.0228988 -0.0615102 0)
(0.0159829 -0.0790324 0)
(0.00960914 -0.0944201 0)
(0.00167138 -0.116689 0)
(-0.0055848 -0.169411 0)
(-0.0108047 -0.240524 0)
(0.00106079 0.0456503 0)
(0.00183135 0.0568362 0)
(0.00276308 0.0607511 0)
(0.00421183 0.0638119 0)
(0.00665948 0.0675882 0)
(0.0107078 0.0727131 0)
(0.0173435 0.079193 0)
(0.0265456 0.084497 0)
(0.0373289 0.0834592 0)
(0.0470009 0.0732297 0)
(0.053544 0.0531394 0)
(0.0560038 0.0264549 0)
(0.0542753 -0.0029491 0)
(0.0485296 -0.0306328 0)
(0.0390633 -0.0532212 0)
(0.0285836 -0.0705454 0)
(0.018954 -0.0857956 0)
(0.00831627 -0.107434 0)
(-0.000970508 -0.161581 0)
(-0.0101815 -0.247295 0)
(0.00153855 0.0436596 0)
(0.00346269 0.0552999 0)
(0.00556739 0.0589642 0)
(0.00817778 0.0612287 0)
(0.0118038 0.0636893 0)
(0.0168975 0.0668273 0)
(0.0241959 0.0705477 0)
(0.0340508 0.0733545 0)
(0.0454934 0.0718206 0)
(0.0563307 0.0634313 0)
(0.0644247 0.0474114 0)
(0.0678669 0.0254981 0)
(0.0663944 0.00100528 0)
(0.0599308 -0.0224618 0)
(0.0491786 -0.0426583 0)
(0.0370754 -0.059418 0)
(0.025422 -0.074592 0)
(0.0128269 -0.0959293 0)
(0.0017099 -0.151825 0)
(-0.0105737 -0.252161 0)
(0.00174215 0.0408877 0)
(0.00451663 0.0527329 0)
(0.00758121 0.0561019 0)
(0.0111434 0.0576032 0)
(0.0156314 0.0588774 0)
(0.0213571 0.0603502 0)
(0.0287423 0.0618727 0)
(0.0381017 0.0625184 0)
(0.0488602 0.0603319 0)
(0.0592849 0.0534037 0)
(0.0673121 0.0409566 0)
(0.071045 0.0239821 0)
(0.0699377 0.00493632 0)
(0.0639493 -0.0140694 0)
(0.053962 -0.0315475 0)
(0.0418836 -0.0472199 0)
(0.0294898 -0.0619024 0)
(0.0156501 -0.0828024 0)
(0.00322405 -0.140196 0)
(-0.0114846 -0.255755 0)
(0.00163341 0.037457 0)
(0.00482724 0.0492571 0)
(0.00865525 0.0522802 0)
(0.0130349 0.0530992 0)
(0.0182117 0.0534114 0)
(0.0243626 0.0536277 0)
(0.0316822 0.0536323 0)
(0.0402526 0.0528183 0)
(0.0496854 0.0501072 0)
(0.0588786 0.0444182 0)
(0.0660924 0.0350803 0)
(0.0698333 0.0226202 0)
(0.0692572 0.00818111 0)
(0.064386 -0.00672045 0)
(0.0557514 -0.0212029 0)
(0.0446798 -0.0351271 0)
(0.0322407 -0.0486815 0)
(0.0177633 -0.0690752 0)
(0.00528108 -0.126095 0)
(-0.0121222 -0.258144 0)
(0.000928998 0.0353831 0)
(0.00432658 0.0459722 0)
(0.00870822 0.0480788 0)
(0.0137531 0.0480469 0)
(0.0195487 0.0475106 0)
(0.0261235 0.0468017 0)
(0.0334884 0.0458559 0)
(0.0415147 0.0442826 0)
(0.0498266 0.0414534 0)
(0.0577012 0.0368037 0)
(0.0640101 0.0299505 0)
(0.0675794 0.0209955 0)
(0.0676715 0.010536 0)
(0.0640383 -0.000636584 0)
(0.0568729 -0.0120237 0)
(0.0471397 -0.0237611 0)
(0.0346637 -0.035723 0)
(0.021574 -0.0565741 0)
(0.010573 -0.109978 0)
(-0.0112897 -0.260922 0)
(-0.000539468 0.029404 0)
(0.00165732 0.0388942 0)
(0.00662117 0.0412045 0)
(0.0126094 0.0413025 0)
(0.0192512 0.0405988 0)
(0.0265097 0.0395025 0)
(0.0342623 0.0381614 0)
(0.0422796 0.0364122 0)
(0.0501775 0.0338897 0)
(0.0574072 0.0302687 0)
(0.0632385 0.0253413 0)
(0.0669617 0.0190684 0)
(0.0677847 0.0119224 0)
(0.0652444 0.00406066 0)
(0.0593252 -0.00434393 0)
(0.0509511 -0.0136759 0)
(0.0381929 -0.0239304 0)
(0.0310181 -0.0471171 0)
(0.0186579 -0.0950079 0)
(-0.00756121 -0.266897 0)
(-0.00316553 0.0440112 0)
(-0.00190481 0.0474897 0)
(0.00386395 0.0438498 0)
(0.010447 0.0396077 0)
(0.0179474 0.0363488 0)
(0.0262158 0.0338103 0)
(0.0349138 0.0316889 0)
(0.0436761 0.0296537 0)
(0.0521263 0.0273792 0)
(0.0597977 0.0246201 0)
(0.0661588 0.0212502 0)
(0.0705174 0.0173854 0)
(0.072399 0.0130069 0)
(0.0715987 0.00833242 0)
(0.0674838 0.00325317 0)
(0.0614321 -0.0035315 0)
(0.0486674 -0.0130774 0)
(0.0521001 -0.0382732 0)
(0.0225684 -0.0765127 0)
(0.00571315 -0.268538 0)
(-0.00682172 0.0143118 0)
(-0.010011 0.00945534 0)
(0.0011961 0.011869 0)
(0.0138539 0.0157044 0)
(0.0263104 0.0168726 0)
(0.0387026 0.0167723 0)
(0.0505637 0.0163491 0)
(0.0617592 0.0158371 0)
(0.0721858 0.015152 0)
(0.0816767 0.0141872 0)
(0.0899919 0.0129073 0)
(0.0968324 0.0113521 0)
(0.101937 0.00956441 0)
(0.105369 0.00748771 0)
(0.106258 0.00513044 0)
(0.106719 0.00114015 0)
(0.0962603 -0.00408072 0)
(0.106906 -0.0214202 0)
(0.029726 -0.0424185 0)
(0.0718935 -0.226467 0)
(0.0403439 0.0931375 0)
(0.0605758 0.0694793 0)
(0.0862704 0.0434134 0)
(0.108688 0.0288076 0)
(0.12656 0.0212491 0)
(0.14198 0.0168663 0)
(0.156268 0.0139966 0)
(0.169696 0.0119594 0)
(0.182228 0.0104231 0)
(0.193844 0.00921517 0)
(0.204478 0.00820618 0)
(0.214034 0.00732283 0)
(0.222319 0.00651049 0)
(0.229362 0.00570451 0)
(0.234178 0.0047953 0)
(0.239204 0.00352467 0)
(0.232065 0.00208729 0)
(0.252666 -0.00308019 0)
(0.126232 0.00340272 0)
(0.378796 -0.0983011 0)
)
;

boundaryField
{
    movingWall
    {
        type            zeroGradient;
    }
    fixedWalls
    {
        type            zeroGradient;
    }
    frontAndBack
    {
        type            empty;
    }
}


// ************************************************************************* //
