/*--------------------------------*- C++ -*----------------------------------*\
| =========                 |                                                 |
| \\      /  F ield         | OpenFOAM: The Open Source CFD Toolbox           |
|  \\    /   O peration     | Version:  2312                                  |
|   \\  /    A nd           | Website:  www.openfoam.com                      |
|    \\/     M anipulation  |                                                 |
\*---------------------------------------------------------------------------*/
FoamFile
{
    version     2.0;
    format      ascii;
    arch        "LSB;label=32;scalar=64";
    class       volVectorField;
    location    "2.125";
    object      vorticityField;
}
// * * * * * * * * * * * * * * * * * * * * * * * * * * * * * * * * * * * * * //

dimensions      [0 0 -1 0 0 0 0];

internalField   nonuniform List<vector> 
400
(
(0 -0 0.254496)
(0 -0 0.94632)
(0 -0 1.94881)
(0 -0 3.15418)
(0 -0 4.50692)
(0 -0 5.96697)
(0 -0 7.56836)
(0 -0 9.40758)
(0 -0 11.4911)
(0 -0 13.639)
(0 -0 15.5303)
(0 -0 16.8171)
(0 -0 17.192)
(0 -0 16.4106)
(0 -0 14.3696)
(0 -0 11.3522)
(0 -0 7.78444)
(0 -0 3.96989)
(0 -0 0.927792)
(0 -0 -0.301718)
(0 -0 1.04649)
(0 -0 1.16945)
(0 -0 1.2944)
(0 -0 1.61733)
(0 -0 2.03072)
(0 -0 2.4224)
(0 -0 2.87013)
(0 -0 3.38952)
(0 -0 3.84504)
(0 -0 4.1553)
(0 -0 4.3272)
(0 -0 4.36772)
(0 -0 4.38067)
(0 -0 4.59326)
(0 -0 5.12689)
(0 -0 5.86903)
(0 -0 6.48866)
(0 -0 6.32127)
(0 -0 4.12844)
(0 -0 0.716597)
(0 -0 2.17178)
(0 -0 1.26796)
(0 -0 1.04193)
(0 -0 1.01004)
(0 -0 1.15971)
(0 -0 1.53273)
(0 -0 2.13051)
(0 -0 2.73428)
(0 -0 3.08914)
(0 -0 2.94104)
(0 -0 2.29288)
(0 -0 1.46156)
(0 -0 0.861547)
(0 -0 0.803984)
(0 -0 1.69097)
(0 -0 3.5428)
(0 -0 6.17831)
(0 -0 8.71383)
(0 -0 8.68576)
(0 -0 3.28024)
(0 -0 3.43871)
(0 -0 1.25399)
(0 -0 0.869024)
(0 -0 0.690531)
(0 -0 0.784445)
(0 -0 1.23647)
(0 -0 1.85468)
(0 -0 2.17815)
(0 -0 1.76131)
(0 -0 0.413145)
(0 -0 -1.5903)
(0 -0 -3.6195)
(0 -0 -5.04954)
(0 -0 -5.59043)
(0 -0 -5.079)
(0 -0 -2.99282)
(0 -0 0.979295)
(0 -0 6.62367)
(0 -0 11.8818)
(0 -0 9.48999)
(0 -0 4.82303)
(0 -0 1.17119)
(0 -0 0.668539)
(0 -0 0.456965)
(0 -0 0.582368)
(0 -0 1.05067)
(0 -0 1.47966)
(0 -0 1.14148)
(0 -0 -0.481718)
(0 -0 -3.1638)
(0 -0 -6.0904)
(0 -0 -8.40463)
(0 -0 -9.77418)
(0 -0 -10.2924)
(0 -0 -10.3238)
(0 -0 -9.5156)
(0 -0 -6.59911)
(0 -0 0.00645589)
(0 -0 10.2006)
(0 -0 17.604)
(0 -0 6.21366)
(0 -0 1.07006)
(0 -0 0.487541)
(0 -0 0.297622)
(0 -0 0.461064)
(0 -0 0.887274)
(0 -0 0.910688)
(0 -0 -0.337439)
(0 -0 -3.01939)
(0 -0 -6.39871)
(0 -0 -9.28396)
(0 -0 -10.8512)
(0 -0 -11.1658)
(0 -0 -11.0298)
(0 -0 -11.1059)
(0 -0 -11.6544)
(0 -0 -11.5941)
(0 -0 -7.72747)
(0 -0 4.05841)
(0 -0 25.2444)
(0 -0 7.50442)
(0 -0 0.986272)
(0 -0 0.346039)
(0 -0 0.19059)
(0 -0 0.359096)
(0 -0 0.662308)
(0 -0 0.218209)
(0 -0 -1.78777)
(0 -0 -5.12254)
(0 -0 -8.6449)
(0 -0 -10.9255)
(0 -0 -11.3665)
(0 -0 -10.7136)
(0 -0 -9.94636)
(0 -0 -9.46268)
(0 -0 -9.87865)
(0 -0 -11.6052)
(0 -0 -12.0051)
(0 -0 -3.15542)
(0 -0 31.051)
(0 -0 8.59976)
(0 -0 0.940939)
(0 -0 0.239742)
(0 -0 0.0985542)
(0 -0 0.235738)
(0 -0 0.406359)
(0 -0 -0.350238)
(0 -0 -2.7808)
(0 -0 -6.43024)
(0 -0 -9.84071)
(0 -0 -11.6003)
(0 -0 -11.593)
(0 -0 -10.8134)
(0 -0 -9.78852)
(0 -0 -8.60951)
(0 -0 -7.96383)
(0 -0 -9.2415)
(0 -0 -12.1142)
(0 -0 -8.47648)
(0 -0 35.1548)
(0 -0 9.43352)
(0 -0 0.934854)
(0 -0 0.15522)
(0 -0 0.00633838)
(0 -0 0.0987783)
(0 -0 0.196723)
(0 -0 -0.706238)
(0 -0 -3.12664)
(0 -0 -6.7209)
(0 -0 -10.1229)
(0 -0 -11.8814)
(0 -0 -12.1036)
(0 -0 -11.5255)
(0 -0 -10.3325)
(0 -0 -8.55585)
(0 -0 -7.15517)
(0 -0 -7.42902)
(0 -0 -10.7744)
(0 -0 -11.1748)
(0 -0 37.9453)
(0 -0 9.96413)
(0 -0 0.965327)
(0 -0 0.0958406)
(0 -0 -0.0802491)
(0 -0 -0.0421245)
(0 -0 0.0105379)
(0 -0 -0.735681)
(0 -0 -2.84304)
(0 -0 -6.15416)
(0 -0 -9.5184)
(0 -0 -11.5919)
(0 -0 -12.2523)
(0 -0 -11.9352)
(0 -0 -10.5857)
(0 -0 -8.43381)
(0 -0 -6.70147)
(0 -0 -6.56454)
(0 -0 -9.6776)
(0 -0 -12.5044)
(0 -0 39.7695)
(0 -0 10.1903)
(0 -0 1.03745)
(0 -0 0.0674636)
(0 -0 -0.151151)
(0 -0 -0.16904)
(0 -0 -0.137693)
(0 -0 -0.596206)
(0 -0 -2.2149)
(0 -0 -4.88308)
(0 -0 -7.91826)
(0 -0 -10.2377)
(0 -0 -11.3241)
(0 -0 -11.2578)
(0 -0 -9.89236)
(0 -0 -7.79715)
(0 -0 -6.11949)
(0 -0 -5.89385)
(0 -0 -9.07392)
(0 -0 -13.5824)
(0 -0 40.6987)
(0 -0 10.1335)
(0 -0 1.13932)
(0 -0 0.0725754)
(0 -0 -0.199393)
(0 -0 -0.269089)
(0 -0 -0.267691)
(0 -0 -0.491186)
(0 -0 -1.5321)
(0 -0 -3.39842)
(0 -0 -5.7318)
(0 -0 -7.81284)
(0 -0 -9.00685)
(0 -0 -9.12281)
(0 -0 -8.13759)
(0 -0 -6.61924)
(0 -0 -5.36669)
(0 -0 -5.27016)
(0 -0 -8.69411)
(0 -0 -14.7156)
(0 -0 40.8645)
(0 -0 9.82781)
(0 -0 1.26194)
(0 -0 0.111064)
(0 -0 -0.22065)
(0 -0 -0.337327)
(0 -0 -0.37909)
(0 -0 -0.487156)
(0 -0 -1.02832)
(0 -0 -2.14545)
(0 -0 -3.66933)
(0 -0 -5.17013)
(0 -0 -6.14473)
(0 -0 -6.36223)
(0 -0 -5.90832)
(0 -0 -5.18548)
(0 -0 -4.52337)
(0 -0 -4.70472)
(0 -0 -8.45668)
(0 -0 -16.0426)
(0 -0 40.5289)
(0 -0 9.35257)
(0 -0 1.38497)
(0 -0 0.178236)
(0 -0 -0.208163)
(0 -0 -0.366086)
(0 -0 -0.446979)
(0 -0 -0.531809)
(0 -0 -0.774266)
(0 -0 -1.33067)
(0 -0 -2.19232)
(0 -0 -3.10893)
(0 -0 -3.79866)
(0 -0 -4.09143)
(0 -0 -4.09389)
(0 -0 -3.97232)
(0 -0 -3.79593)
(0 -0 -4.24012)
(0 -0 -8.32303)
(0 -0 -17.6523)
(0 -0 39.7499)
(0 -0 8.75273)
(0 -0 1.50132)
(0 -0 0.271512)
(0 -0 -0.14785)
(0 -0 -0.338886)
(0 -0 -0.454557)
(0 -0 -0.555556)
(0 -0 -0.693809)
(0 -0 -0.936653)
(0 -0 -1.34431)
(0 -0 -1.8496)
(0 -0 -2.34336)
(0 -0 -2.70745)
(0 -0 -2.94731)
(0 -0 -3.13176)
(0 -0 -3.27346)
(0 -0 -3.9122)
(0 -0 -8.33371)
(0 -0 -19.6417)
(0 -0 38.4043)
(0 -0 8.35283)
(0 -0 1.58656)
(0 -0 0.410878)
(0 -0 -0.0142714)
(0 -0 -0.22848)
(0 -0 -0.380179)
(0 -0 -0.50992)
(0 -0 -0.642954)
(0 -0 -0.7971)
(0 -0 -1.00314)
(0 -0 -1.29543)
(0 -0 -1.65429)
(0 -0 -2.01597)
(0 -0 -2.34181)
(0 -0 -2.66983)
(0 -0 -2.99706)
(0 -0 -3.87653)
(0 -0 -8.75094)
(0 -0 -21.7725)
(0 -0 36.6339)
(0 -0 7.23927)
(0 -0 1.80319)
(0 -0 0.725255)
(0 -0 0.270043)
(0 -0 -0.0198594)
(0 -0 -0.252966)
(0 -0 -0.451577)
(0 -0 -0.643305)
(0 -0 -0.844318)
(0 -0 -1.0645)
(0 -0 -1.33491)
(0 -0 -1.63569)
(0 -0 -1.97352)
(0 -0 -2.38267)
(0 -0 -2.83474)
(0 -0 -3.38789)
(0 -0 -4.74448)
(0 -0 -10.1604)
(0 -0 -23.1775)
(0 -0 34.4902)
(0 -0 9.77832)
(0 -0 1.15069)
(0 -0 -0.245693)
(0 -0 -0.874542)
(0 -0 -1.28566)
(0 -0 -1.68529)
(0 -0 -2.04579)
(0 -0 -2.37893)
(0 -0 -2.70419)
(0 -0 -3.03985)
(0 -0 -3.39881)
(0 -0 -3.81141)
(0 -0 -4.32049)
(0 -0 -4.98785)
(0 -0 -5.87971)
(0 -0 -7.20987)
(0 -0 -9.2809)
(0 -0 -13.9323)
(0 -0 -24.1332)
(0 -0 26.5596)
(0 -0 -1.97423)
(0 -0 -6.49234)
(0 -0 -7.61574)
(0 -0 -9.32376)
(0 -0 -10.7544)
(0 -0 -11.6288)
(0 -0 -12.229)
(0 -0 -12.7217)
(0 -0 -13.1752)
(0 -0 -13.6291)
(0 -0 -14.1155)
(0 -0 -14.6859)
(0 -0 -15.3784)
(0 -0 -16.2198)
(0 -0 -17.3042)
(0 -0 -18.6983)
(0 -0 -20.5958)
(0 -0 -23.8903)
(0 -0 -30.871)
(0 -0 -10.4198)
(0 -0 -180.386)
(0 -0 -199.916)
(0 -0 -195.321)
(0 -0 -189.962)
(0 -0 -185.907)
(0 -0 -182.657)
(0 -0 -179.807)
(0 -0 -177.212)
(0 -0 -174.833)
(0 -0 -172.67)
(0 -0 -170.742)
(0 -0 -169.083)
(0 -0 -167.736)
(0 -0 -166.698)
(0 -0 -166.174)
(0 -0 -165.678)
(0 -0 -167.828)
(0 -0 -163.911)
(0 -0 -193.926)
(0 -0 -145.441)
)
;

boundaryField
{
    movingWall
    {
        type            calculated;
        value           nonuniform List<vector> 
20
(
(0 -0 -367.601)
(0 -0 -380.742)
(0 -0 -369.559)
(0 -0 -358.741)
(0 -0 -350.57)
(0 -0 -343.933)
(0 -0 -337.983)
(0 -0 -332.479)
(0 -0 -327.383)
(0 -0 -322.684)
(0 -0 -318.398)
(0 -0 -314.556)
(0 -0 -311.234)
(0 -0 -308.427)
(0 -0 -306.547)
(0 -0 -304.589)
(0 -0 -307.835)
(0 -0 -298.802)
(0 -0 -359.029)
(0 -0 -238.992)
)
;
    }
    fixedWalls
    {
        type            calculated;
        value           nonuniform List<vector> 
60
(
(0 -0 0.192174)
(0 -0 1.1831)
(0 -0 3.09347)
(0 -0 5.47758)
(0 -0 8.16488)
(0 -0 10.8963)
(0 -0 13.431)
(0 -0 15.5591)
(0 -0 17.1365)
(0 -0 18.0905)
(0 -0 18.4052)
(0 -0 18.1449)
(0 -0 17.3957)
(0 -0 16.3456)
(0 -0 15.0641)
(0 -0 14.3705)
(0 -0 12.171)
(0 -0 18.2327)
(0 -0 1.37377)
(0 -0 -159.393)
(0 -0 -0.783221)
(0 -0 -0.662829)
(0 -0 1.00556)
(0 -0 7.2092)
(0 -0 19.7613)
(0 -0 37.6376)
(0 -0 56.1108)
(0 -0 72.374)
(0 -0 83.7348)
(0 -0 91.2205)
(0 -0 95.9149)
(0 -0 98.895)
(0 -0 100.995)
(0 -0 102.457)
(0 -0 103.238)
(0 -0 103.913)
(0 -0 105.058)
(0 -0 99.4695)
(0 -0 53.2783)
(0 -0 -115.611)
(0 -0 0.173454)
(0 -0 1.00349)
(0 -0 2.51632)
(0 -0 4.34031)
(0 -0 6.44898)
(0 -0 8.8884)
(0 -0 11.7125)
(0 -0 14.9869)
(0 -0 18.7124)
(0 -0 22.5898)
(0 -0 26.0531)
(0 -0 28.4036)
(0 -0 28.9374)
(0 -0 27.1073)
(0 -0 22.8605)
(0 -0 16.8747)
(0 -0 10.2393)
(0 -0 3.91958)
(0 -0 0.215737)
(0 -0 -0.649355)
)
;
    }
    frontAndBack
    {
        type            empty;
    }
}


// ************************************************************************* //
