/*--------------------------------*- C++ -*----------------------------------*\
| =========                 |                                                 |
| \\      /  F ield         | OpenFOAM: The Open Source CFD Toolbox           |
|  \\    /   O peration     | Version:  2312                                  |
|   \\  /    A nd           | Website:  www.openfoam.com                      |
|    \\/     M anipulation  |                                                 |
\*---------------------------------------------------------------------------*/
FoamFile
{
    version     2.0;
    format      ascii;
    arch        "LSB;label=32;scalar=64";
    class       volVectorField;
    location    "3.375";
    object      diffU;
}
// * * * * * * * * * * * * * * * * * * * * * * * * * * * * * * * * * * * * * //

dimensions      [0 1 -1 0 0 0 0];

internalField   nonuniform List<vector> 
400
(
(0 0 0)
(-1.35885e-08 -3.21922e-07 0)
(-1.07626e-08 -2.48801e-07 0)
(-1.17773e-08 -2.6595e-07 0)
(-1.15936e-08 -2.62067e-07 0)
(-1.16585e-08 -2.62962e-07 0)
(-1.16452e-08 -2.62756e-07 0)
(-1.16504e-08 -2.62803e-07 0)
(-1.16509e-08 -2.62792e-07 0)
(-1.16526e-08 -2.62794e-07 0)
(-1.16539e-08 -2.62794e-07 0)
(-1.16551e-08 -2.62794e-07 0)
(-1.16562e-08 -2.62794e-07 0)
(-1.16571e-08 -2.62794e-07 0)
(-1.16578e-08 -2.62794e-07 0)
(-1.16584e-08 -2.62794e-07 0)
(-1.16588e-08 -2.62794e-07 0)
(-1.16592e-08 -2.62795e-07 0)
(-1.16594e-08 -2.62795e-07 0)
(-1.16594e-08 -2.62795e-07 0)
(-5.0457e-08 -5.3448e-07 0)
(-4.44306e-09 -2.01765e-07 0)
(-1.48605e-08 -2.7721e-07 0)
(-1.10602e-08 -2.5955e-07 0)
(-1.18593e-08 -2.63537e-07 0)
(-1.15909e-08 -2.62621e-07 0)
(-1.16619e-08 -2.6283e-07 0)
(-1.1645e-08 -2.62784e-07 0)
(-1.16522e-08 -2.62794e-07 0)
(-1.16522e-08 -2.62792e-07 0)
(-1.1654e-08 -2.62793e-07 0)
(-1.16551e-08 -2.62793e-07 0)
(-1.16562e-08 -2.62793e-07 0)
(-1.16571e-08 -2.62793e-07 0)
(-1.16578e-08 -2.62794e-07 0)
(-1.16584e-08 -2.62794e-07 0)
(-1.16589e-08 -2.62794e-07 0)
(-1.16592e-08 -2.62794e-07 0)
(-1.16594e-08 -2.62794e-07 0)
(-1.16594e-08 -2.62795e-07 0)
(5.40551e-08 2.70362e-08 0)
(-2.38372e-08 -3.28003e-07 0)
(-6.20456e-09 -2.47389e-07 0)
(-1.26284e-08 -2.66265e-07 0)
(-1.12829e-08 -2.61994e-07 0)
(-1.17389e-08 -2.62975e-07 0)
(-1.16243e-08 -2.6275e-07 0)
(-1.16571e-08 -2.628e-07 0)
(-1.16495e-08 -2.62789e-07 0)
(-1.16533e-08 -2.62792e-07 0)
(-1.1654e-08 -2.62791e-07 0)
(-1.16554e-08 -2.62792e-07 0)
(-1.16564e-08 -2.62792e-07 0)
(-1.16572e-08 -2.62793e-07 0)
(-1.16579e-08 -2.62793e-07 0)
(-1.16585e-08 -2.62793e-07 0)
(-1.16589e-08 -2.62794e-07 0)
(-1.16592e-08 -2.62794e-07 0)
(-1.16594e-08 -2.62794e-07 0)
(-1.16594e-08 -2.62795e-07 0)
(-1.06662e-07 -5.80085e-07 0)
(6.12491e-09 -1.91258e-07 0)
(-1.95326e-08 -2.79701e-07 0)
(-1.01982e-08 -2.5898e-07 0)
(-1.21707e-08 -2.63668e-07 0)
(-1.15096e-08 -2.62587e-07 0)
(-1.16828e-08 -2.62834e-07 0)
(-1.1639e-08 -2.62779e-07 0)
(-1.16545e-08 -2.62792e-07 0)
(-1.16525e-08 -2.62789e-07 0)
(-1.16548e-08 -2.6279e-07 0)
(-1.16556e-08 -2.62791e-07 0)
(-1.16566e-08 -2.62791e-07 0)
(-1.16574e-08 -2.62792e-07 0)
(-1.16581e-08 -2.62792e-07 0)
(-1.16585e-08 -2.62793e-07 0)
(-1.16589e-08 -2.62793e-07 0)
(-1.16592e-08 -2.62794e-07 0)
(-1.16594e-08 -2.62794e-07 0)
(-1.16594e-08 -2.62795e-07 0)
(1.12618e-07 9.08009e-08 0)
(-3.49642e-08 -3.42982e-07 0)
(-1.2634e-09 -2.43834e-07 0)
(-1.35375e-08 -2.67088e-07 0)
(-1.09427e-08 -2.61794e-07 0)
(-1.18249e-08 -2.63015e-07 0)
(-1.16023e-08 -2.62735e-07 0)
(-1.16656e-08 -2.62799e-07 0)
(-1.16489e-08 -2.62785e-07 0)
(-1.1655e-08 -2.62789e-07 0)
(-1.16548e-08 -2.62789e-07 0)
(-1.16562e-08 -2.6279e-07 0)
(-1.16569e-08 -2.6279e-07 0)
(-1.16577e-08 -2.62791e-07 0)
(-1.16582e-08 -2.62792e-07 0)
(-1.16586e-08 -2.62792e-07 0)
(-1.1659e-08 -2.62793e-07 0)
(-1.16592e-08 -2.62793e-07 0)
(-1.16594e-08 -2.62794e-07 0)
(-1.16594e-08 -2.62795e-07 0)
(-1.64638e-07 -6.60093e-07 0)
(1.72968e-08 -1.7225e-07 0)
(-2.44949e-08 -2.84244e-07 0)
(-9.26274e-09 -2.57913e-07 0)
(-1.25146e-08 -2.63914e-07 0)
(-1.14209e-08 -2.62521e-07 0)
(-1.17079e-08 -2.62842e-07 0)
(-1.16332e-08 -2.62771e-07 0)
(-1.16582e-08 -2.62789e-07 0)
(-1.16535e-08 -2.62786e-07 0)
(-1.16562e-08 -2.62788e-07 0)
(-1.16566e-08 -2.62789e-07 0)
(-1.16574e-08 -2.6279e-07 0)
(-1.1658e-08 -2.62791e-07 0)
(-1.16584e-08 -2.62791e-07 0)
(-1.16588e-08 -2.62792e-07 0)
(-1.16591e-08 -2.62793e-07 0)
(-1.16593e-08 -2.62793e-07 0)
(-1.16594e-08 -2.62794e-07 0)
(-1.16594e-08 -2.62795e-07 0)
(1.67413e-07 1.80599e-07 0)
(-4.58853e-08 -3.65029e-07 0)
(3.77522e-09 -2.38491e-07 0)
(-1.44648e-08 -2.68312e-07 0)
(-1.05742e-08 -2.61469e-07 0)
(-1.19203e-08 -2.63077e-07 0)
(-1.15806e-08 -2.62713e-07 0)
(-1.16772e-08 -2.62799e-07 0)
(-1.16496e-08 -2.62781e-07 0)
(-1.16577e-08 -2.62787e-07 0)
(-1.16563e-08 -2.62787e-07 0)
(-1.16575e-08 -2.62788e-07 0)
(-1.16578e-08 -2.62789e-07 0)
(-1.16583e-08 -2.6279e-07 0)
(-1.16586e-08 -2.62791e-07 0)
(-1.16589e-08 -2.62792e-07 0)
(-1.16591e-08 -2.62793e-07 0)
(-1.16593e-08 -2.62793e-07 0)
(-1.16594e-08 -2.62794e-07 0)
(-1.16594e-08 -2.62795e-07 0)
(-2.03148e-07 -7.40873e-07 0)
(2.54967e-08 -1.50166e-07 0)
(-2.84812e-08 -2.89387e-07 0)
(-8.53234e-09 -2.56526e-07 0)
(-1.28612e-08 -2.64238e-07 0)
(-1.13537e-08 -2.62435e-07 0)
(-1.17396e-08 -2.6286e-07 0)
(-1.16304e-08 -2.62764e-07 0)
(-1.16634e-08 -2.62789e-07 0)
(-1.16554e-08 -2.62785e-07 0)
(-1.16583e-08 -2.62787e-07 0)
(-1.16579e-08 -2.62788e-07 0)
(-1.16584e-08 -2.62789e-07 0)
(-1.16587e-08 -2.6279e-07 0)
(-1.16589e-08 -2.62791e-07 0)
(-1.16591e-08 -2.62792e-07 0)
(-1.16592e-08 -2.62792e-07 0)
(-1.16593e-08 -2.62793e-07 0)
(-1.16594e-08 -2.62794e-07 0)
(-1.16594e-08 -2.62795e-07 0)
(1.8136e-07 2.4236e-07 0)
(-4.96459e-08 -3.8287e-07 0)
(5.45326e-09 -2.3435e-07 0)
(-1.49478e-08 -2.69514e-07 0)
(-1.04074e-08 -2.61182e-07 0)
(-1.1984e-08 -2.63156e-07 0)
(-1.15704e-08 -2.62692e-07 0)
(-1.16875e-08 -2.62804e-07 0)
(-1.16516e-08 -2.62779e-07 0)
(-1.16608e-08 -2.62787e-07 0)
(-1.16581e-08 -2.62786e-07 0)
(-1.1659e-08 -2.62788e-07 0)
(-1.16589e-08 -2.62789e-07 0)
(-1.1659e-08 -2.6279e-07 0)
(-1.16591e-08 -2.62791e-07 0)
(-1.16592e-08 -2.62792e-07 0)
(-1.16593e-08 -2.62792e-07 0)
(-1.16594e-08 -2.62793e-07 0)
(-1.16594e-08 -2.62794e-07 0)
(-1.16594e-08 -2.62795e-07 0)
(-1.98531e-07 -7.92501e-07 0)
(2.51303e-08 -1.36286e-07 0)
(-2.82873e-08 -2.92748e-07 0)
(-8.48909e-09 -2.55635e-07 0)
(-1.28889e-08 -2.64479e-07 0)
(-1.13495e-08 -2.62378e-07 0)
(-1.17489e-08 -2.62879e-07 0)
(-1.16327e-08 -2.62761e-07 0)
(-1.16671e-08 -2.6279e-07 0)
(-1.16577e-08 -2.62784e-07 0)
(-1.16602e-08 -2.62787e-07 0)
(-1.16593e-08 -2.62787e-07 0)
(-1.16595e-08 -2.62789e-07 0)
(-1.16594e-08 -2.6279e-07 0)
(-1.16594e-08 -2.62791e-07 0)
(-1.16594e-08 -2.62792e-07 0)
(-1.16594e-08 -2.62792e-07 0)
(-1.16594e-08 -2.62793e-07 0)
(-1.16594e-08 -2.62794e-07 0)
(-1.16594e-08 -2.62795e-07 0)
(1.66708e-07 2.8867e-07 0)
(-4.70064e-08 -3.9489e-07 0)
(4.23635e-09 -2.31485e-07 0)
(-1.47457e-08 -2.7028e-07 0)
(-1.04852e-08 -2.60999e-07 0)
(-1.19696e-08 -2.63209e-07 0)
(-1.15777e-08 -2.62682e-07 0)
(-1.16892e-08 -2.62809e-07 0)
(-1.16544e-08 -2.62779e-07 0)
(-1.16628e-08 -2.62787e-07 0)
(-1.16598e-08 -2.62786e-07 0)
(-1.16603e-08 -2.62788e-07 0)
(-1.16598e-08 -2.62789e-07 0)
(-1.16597e-08 -2.6279e-07 0)
(-1.16596e-08 -2.62791e-07 0)
(-1.16595e-08 -2.62792e-07 0)
(-1.16594e-08 -2.62792e-07 0)
(-1.16594e-08 -2.62793e-07 0)
(-1.16594e-08 -2.62794e-07 0)
(-1.16594e-08 -2.62795e-07 0)
(-1.76577e-07 -8.34593e-07 0)
(2.09408e-08 -1.25572e-07 0)
(-2.63665e-08 -2.95307e-07 0)
(-8.83546e-09 -2.54984e-07 0)
(-1.27563e-08 -2.64645e-07 0)
(-1.13842e-08 -2.62341e-07 0)
(-1.17423e-08 -2.62892e-07 0)
(-1.16378e-08 -2.6276e-07 0)
(-1.16685e-08 -2.62792e-07 0)
(-1.16597e-08 -2.62785e-07 0)
(-1.16616e-08 -2.62788e-07 0)
(-1.16605e-08 -2.62788e-07 0)
(-1.16604e-08 -2.62789e-07 0)
(-1.166e-08 -2.6279e-07 0)
(-1.16598e-08 -2.62791e-07 0)
(-1.16596e-08 -2.62792e-07 0)
(-1.16595e-08 -2.62792e-07 0)
(-1.16594e-08 -2.62793e-07 0)
(-1.16594e-08 -2.62794e-07 0)
(-1.16594e-08 -2.62795e-07 0)
(1.39493e-07 3.26983e-07 0)
(-4.16877e-08 -4.04519e-07 0)
(1.83004e-09 -2.29199e-07 0)
(-1.429e-08 -2.7086e-07 0)
(-1.06599e-08 -2.60861e-07 0)
(-1.19262e-08 -2.63246e-07 0)
(-1.15914e-08 -2.62675e-07 0)
(-1.1687e-08 -2.62813e-07 0)
(-1.1657e-08 -2.6278e-07 0)
(-1.1664e-08 -2.62789e-07 0)
(-1.16612e-08 -2.62787e-07 0)
(-1.16613e-08 -2.62789e-07 0)
(-1.16606e-08 -2.62789e-07 0)
(-1.16603e-08 -2.6279e-07 0)
(-1.166e-08 -2.62791e-07 0)
(-1.16597e-08 -2.62792e-07 0)
(-1.16596e-08 -2.62793e-07 0)
(-1.16594e-08 -2.62793e-07 0)
(-1.16594e-08 -2.62794e-07 0)
(-1.16594e-08 -2.62795e-07 0)
(-1.4534e-07 -8.68998e-07 0)
(1.48137e-08 -1.16983e-07 0)
(-2.35905e-08 -2.97349e-07 0)
(-9.36022e-09 -2.54475e-07 0)
(-1.25529e-08 -2.64772e-07 0)
(-1.14366e-08 -2.62312e-07 0)
(-1.17291e-08 -2.62901e-07 0)
(-1.16438e-08 -2.62759e-07 0)
(-1.16688e-08 -2.62794e-07 0)
(-1.16613e-08 -2.62786e-07 0)
(-1.16626e-08 -2.62789e-07 0)
(-1.16614e-08 -2.62789e-07 0)
(-1.16611e-08 -2.6279e-07 0)
(-1.16605e-08 -2.62791e-07 0)
(-1.16602e-08 -2.62791e-07 0)
(-1.16598e-08 -2.62792e-07 0)
(-1.16596e-08 -2.62793e-07 0)
(-1.16595e-08 -2.62793e-07 0)
(-1.16593e-08 -2.62794e-07 0)
(-1.16593e-08 -2.62795e-07 0)
(1.04588e-07 3.57375e-07 0)
(-3.47563e-08 -4.12028e-07 0)
(-1.28024e-09 -2.27418e-07 0)
(-1.36864e-08 -2.71302e-07 0)
(-1.08909e-08 -2.60755e-07 0)
(-1.18673e-08 -2.63274e-07 0)
(-1.16092e-08 -2.6267e-07 0)
(-1.16828e-08 -2.62816e-07 0)
(-1.16596e-08 -2.62781e-07 0)
(-1.16648e-08 -2.6279e-07 0)
(-1.16623e-08 -2.62789e-07 0)
(-1.16621e-08 -2.6279e-07 0)
(-1.16613e-08 -2.6279e-07 0)
(-1.16608e-08 -2.62791e-07 0)
(-1.16603e-08 -2.62792e-07 0)
(-1.16599e-08 -2.62792e-07 0)
(-1.16597e-08 -2.62793e-07 0)
(-1.16595e-08 -2.62793e-07 0)
(-1.16593e-08 -2.62794e-07 0)
(-1.16593e-08 -2.62795e-07 0)
(-1.08779e-07 -8.95105e-07 0)
(7.58138e-09 -1.10628e-07 0)
(-2.03264e-08 -2.98851e-07 0)
(-9.9875e-09 -2.54107e-07 0)
(-1.23106e-08 -2.64859e-07 0)
(-1.14998e-08 -2.62291e-07 0)
(-1.17128e-08 -2.62907e-07 0)
(-1.16508e-08 -2.6276e-07 0)
(-1.16686e-08 -2.62796e-07 0)
(-1.16628e-08 -2.62788e-07 0)
(-1.16634e-08 -2.6279e-07 0)
(-1.16622e-08 -2.6279e-07 0)
(-1.16616e-08 -2.62791e-07 0)
(-1.1661e-08 -2.62792e-07 0)
(-1.16604e-08 -2.62792e-07 0)
(-1.166e-08 -2.62793e-07 0)
(-1.16597e-08 -2.62793e-07 0)
(-1.16595e-08 -2.62794e-07 0)
(-1.16593e-08 -2.62794e-07 0)
(-1.16593e-08 -2.62795e-07 0)
(6.75473e-08 3.7925e-07 0)
(-2.74642e-08 -4.17386e-07 0)
(-4.57708e-09 -2.2614e-07 0)
(-1.30548e-08 -2.7161e-07 0)
(-1.11364e-08 -2.60678e-07 0)
(-1.18062e-08 -2.63292e-07 0)
(-1.16285e-08 -2.62666e-07 0)
(-1.16787e-08 -2.62818e-07 0)
(-1.16623e-08 -2.62783e-07 0)
(-1.16654e-08 -2.62792e-07 0)
(-1.16632e-08 -2.6279e-07 0)
(-1.16627e-08 -2.62791e-07 0)
(-1.16618e-08 -2.62792e-07 0)
(-1.16611e-08 -2.62792e-07 0)
(-1.16605e-08 -2.62793e-07 0)
(-1.16601e-08 -2.62793e-07 0)
(-1.16598e-08 -2.62793e-07 0)
(-1.16595e-08 -2.62794e-07 0)
(-1.16593e-08 -2.62794e-07 0)
(-1.16593e-08 -2.62795e-07 0)
(-6.80143e-08 -9.12681e-07 0)
(-6.04973e-10 -1.06339e-07 0)
(-1.66761e-08 -2.99853e-07 0)
(-1.07089e-08 -2.53851e-07 0)
(-1.20403e-08 -2.64918e-07 0)
(-1.15741e-08 -2.62276e-07 0)
(-1.16951e-08 -2.62912e-07 0)
(-1.1659e-08 -2.62761e-07 0)
(-1.16683e-08 -2.62798e-07 0)
(-1.16643e-08 -2.6279e-07 0)
(-1.1664e-08 -2.62792e-07 0)
(-1.16628e-08 -2.62792e-07 0)
(-1.1662e-08 -2.62792e-07 0)
(-1.16612e-08 -2.62793e-07 0)
(-1.16606e-08 -2.62793e-07 0)
(-1.16601e-08 -2.62794e-07 0)
(-1.16598e-08 -2.62794e-07 0)
(-1.16595e-08 -2.62794e-07 0)
(-1.16593e-08 -2.62794e-07 0)
(-1.16593e-08 -2.62795e-07 0)
(2.92947e-08 3.92179e-07 0)
(-1.99088e-08 -4.20295e-07 0)
(-8.03721e-09 -2.25454e-07 0)
(-1.2396e-08 -2.71751e-07 0)
(-1.14062e-08 -2.60646e-07 0)
(-1.17425e-08 -2.633e-07 0)
(-1.1651e-08 -2.62668e-07 0)
(-1.16744e-08 -2.62821e-07 0)
(-1.16652e-08 -2.62785e-07 0)
(-1.16658e-08 -2.62794e-07 0)
(-1.1664e-08 -2.62792e-07 0)
(-1.16631e-08 -2.62793e-07 0)
(-1.16621e-08 -2.62793e-07 0)
(-1.16614e-08 -2.62794e-07 0)
(-1.16607e-08 -2.62794e-07 0)
(-1.16602e-08 -2.62794e-07 0)
(-1.16598e-08 -2.62794e-07 0)
(-1.16595e-08 -2.62794e-07 0)
(-1.16593e-08 -2.62794e-07 0)
(-1.16593e-08 -2.62795e-07 0)
(-3.21765e-08 -9.22245e-07 0)
(-7.0337e-09 -1.02992e-07 0)
(-1.37348e-08 -3.00668e-07 0)
(-1.12219e-08 -2.53605e-07 0)
(-1.185e-08 -2.64992e-07 0)
(-1.16281e-08 -2.62263e-07 0)
(-1.16853e-08 -2.62922e-07 0)
(-1.16648e-08 -2.62763e-07 0)
(-1.16684e-08 -2.62801e-07 0)
(-1.16653e-08 -2.62792e-07 0)
(-1.16645e-08 -2.62795e-07 0)
(-1.16632e-08 -2.62794e-07 0)
(-1.16623e-08 -2.62794e-07 0)
(-1.16615e-08 -2.62794e-07 0)
(-1.16608e-08 -2.62794e-07 0)
(-1.16603e-08 -2.62794e-07 0)
(-1.16599e-08 -2.62794e-07 0)
(-1.16596e-08 -2.62794e-07 0)
(-1.16593e-08 -2.62795e-07 0)
(-1.16593e-08 -2.62795e-07 0)
)
;

boundaryField
{
    movingWall
    {
        type            calculated;
        value           uniform (-1.16594e-08 -2.62795e-07 0);
    }
    fixedWalls
    {
        type            calculated;
        value           uniform (-1.16594e-08 -2.62795e-07 0);
    }
    frontAndBack
    {
        type            empty;
    }
}


// ************************************************************************* //
