/*--------------------------------*- C++ -*----------------------------------*\
| =========                 |                                                 |
| \\      /  F ield         | OpenFOAM: The Open Source CFD Toolbox           |
|  \\    /   O peration     | Version:  2312                                  |
|   \\  /    A nd           | Website:  www.openfoam.com                      |
|    \\/     M anipulation  |                                                 |
\*---------------------------------------------------------------------------*/
FoamFile
{
    version     2.0;
    format      ascii;
    arch        "LSB;label=32;scalar=64";
    class       volScalarField;
    location    "3.375";
    object      divU;
}
// * * * * * * * * * * * * * * * * * * * * * * * * * * * * * * * * * * * * * //

dimensions      [0 0 -1 0 0 0 0];

internalField   nonuniform List<scalar> 
400
(
8.39459e-08
-8.86058e-07
1.38999e-07
-7.42613e-08
1.0403e-08
-4.54522e-09
1.07873e-09
-2.53163e-10
8.32941e-11
-1.80272e-11
6.18991e-12
-3.73882e-13
1.93235e-12
1.35326e-12
1.65729e-12
8.92258e-13
-1.14069e-12
-9.3078e-13
5.19772e-12
-5.14996e-13
-4.54513e-07
2.9515e-06
-5.20568e-07
2.68617e-07
-4.57851e-08
1.84315e-08
-4.77606e-09
1.22055e-09
-3.95979e-10
9.92313e-11
-2.81496e-11
8.10501e-12
-1.65094e-12
1.31192e-12
1.25912e-12
-6.79888e-13
-2.49987e-12
1.42752e-12
5.29216e-12
-1.19262e-12
7.93156e-07
-4.97521e-06
8.71732e-07
-4.5081e-07
7.58758e-08
-3.07184e-08
7.84513e-09
-2.01238e-09
6.59973e-10
-1.58805e-10
4.67522e-11
-1.2662e-11
4.27013e-12
-3.93254e-13
1.48521e-12
1.06172e-12
-1.89901e-12
-1.76532e-12
4.39724e-12
-8.13152e-14
-1.34536e-06
7.21503e-06
-1.27679e-06
6.53959e-07
-1.11164e-07
4.47287e-08
-1.14878e-08
2.95526e-09
-9.75021e-10
2.35412e-10
-6.97018e-11
1.90785e-11
-4.83821e-12
2.31466e-12
1.2572e-12
-8.1359e-13
-2.60888e-12
1.87518e-12
5.27156e-12
-1.27394e-12
2.09654e-06
-9.48736e-06
1.68844e-06
-8.61187e-07
1.46676e-07
-5.93732e-08
1.50666e-08
-3.94601e-09
1.29847e-09
-3.15671e-10
9.03356e-11
-2.69046e-11
6.85582e-12
-1.72285e-12
1.50575e-12
7.98573e-13
-1.78041e-12
-1.97237e-12
3.80615e-12
1.89735e-13
-3.42243e-06
1.18096e-05
-2.12164e-06
1.0756e-06
-1.83293e-07
7.44744e-08
-1.89714e-08
4.9171e-09
-1.67164e-09
3.84918e-10
-1.21034e-10
3.16456e-11
-8.94515e-12
3.3701e-12
1.14325e-12
-1.33424e-12
-3.13027e-12
2.2293e-12
4.90889e-12
-1.24683e-12
6.40659e-06
-1.41554e-05
2.62769e-06
-1.29626e-06
2.22081e-07
-9.19925e-08
2.25504e-08
-6.20256e-09
2.00844e-09
-4.85046e-10
1.45261e-10
-4.0959e-11
1.10402e-11
-2.70609e-12
1.78407e-12
4.4268e-13
-1.73871e-12
-2.02267e-12
3.04683e-12
4.06576e-13
-9.25713e-06
1.56826e-05
-2.9888e-06
1.44183e-06
-2.53457e-07
1.04307e-07
-2.56401e-08
7.15761e-09
-2.30238e-09
5.61242e-10
-1.68819e-10
4.73484e-11
-1.23592e-11
4.97405e-12
1.1091e-12
-1.696e-12
-3.46656e-12
2.51608e-12
4.22845e-12
-1.0571e-12
1.03405e-05
-1.62027e-05
3.13374e-06
-1.49696e-06
2.7223e-07
-1.1063e-07
2.77526e-08
-7.77396e-09
2.53116e-09
-6.13228e-10
1.91881e-10
-5.14107e-11
1.50732e-11
-3.36093e-12
2.09759e-12
1.25431e-13
-1.81497e-12
-1.92606e-12
2.2174e-12
5.69206e-13
-1.03771e-05
1.58223e-05
-3.07542e-06
1.46325e-06
-2.67712e-07
1.08717e-07
-2.72643e-08
7.70168e-09
-2.49272e-09
6.17191e-10
-1.8732e-10
5.33384e-11
-1.41913e-11
5.63265e-12
1.0114e-12
-2.06493e-12
-3.81041e-12
2.63473e-12
3.44264e-12
-8.94467e-13
1.00929e-05
-1.51757e-05
2.97015e-06
-1.40704e-06
2.60987e-07
-1.05491e-07
2.67399e-08
-7.56918e-09
2.44918e-09
-6.10912e-10
1.87444e-10
-5.25921e-11
1.43929e-11
-3.56595e-12
1.98746e-12
-5.59427e-13
-2.04421e-12
-1.66343e-12
1.39093e-12
6.23416e-13
-9.40046e-06
1.40582e-05
-2.7491e-06
1.30297e-06
-2.41054e-07
9.76439e-08
-2.46661e-08
6.99346e-09
-2.267e-09
5.63397e-10
-1.74263e-10
4.78159e-11
-1.43391e-11
4.95735e-12
7.46216e-13
-2.58987e-12
-4.27689e-12
2.42767e-12
2.58766e-12
-7.31836e-13
8.67196e-06
-1.29074e-05
2.5356e-06
-1.19809e-06
2.23755e-07
-9.02597e-08
2.29851e-08
-6.51912e-09
2.10029e-09
-5.3229e-10
1.59965e-10
-4.72168e-11
1.14377e-11
-3.559e-12
1.30963e-12
-1.36896e-12
-2.28445e-12
-1.153e-12
5.87983e-13
5.96311e-13
-7.6816e-06
1.14241e-05
-2.23924e-06
1.05959e-06
-1.97027e-07
7.96452e-08
-2.02063e-08
5.72616e-09
-1.85244e-09
4.61653e-10
-1.44697e-10
3.77249e-11
-1.31175e-11
3.62696e-12
4.31366e-13
-2.98889e-12
-4.3874e-12
2.06884e-12
1.44018e-12
-4.87891e-13
6.7043e-06
-9.95133e-06
1.95674e-06
-9.24317e-07
1.7316e-07
-6.97739e-08
1.78317e-08
-5.05171e-09
1.6195e-09
-4.16283e-10
1.22378e-10
-3.80269e-11
7.82359e-12
-3.13529e-12
8.07803e-13
-2.37679e-12
-2.88914e-12
-5.37964e-13
-3.26456e-13
4.87891e-13
-5.60042e-06
8.30943e-06
-1.6291e-06
7.70736e-07
-1.4353e-07
5.79421e-08
-1.47466e-08
4.15531e-09
-1.34818e-09
3.3069e-10
-1.08987e-10
2.39802e-11
-1.23564e-11
9.58391e-13
-1.02284e-12
-4.05803e-12
-4.58485e-12
1.76023e-12
5.61836e-13
-1.89735e-13
4.58262e-06
-6.78354e-06
1.34074e-06
-6.30278e-07
1.18981e-07
-4.77294e-08
1.22477e-08
-3.47373e-09
1.09618e-09
-2.89706e-10
8.26668e-11
-2.62219e-11
5.53853e-12
-1.01821e-12
1.89461e-12
-1.0696e-12
-1.33138e-12
1.26855e-12
-5.54428e-13
5.42101e-14
-3.23708e-06
4.84293e-06
-9.41772e-07
4.49513e-07
-8.33519e-08
3.37757e-08
-8.6393e-09
2.4129e-09
-7.79136e-10
1.96529e-10
-6.04121e-11
1.58803e-11
-6.20589e-12
2.22305e-12
1.01652e-12
-2.62954e-12
-4.85924e-12
-8.21001e-14
-2.85864e-13
-5.42101e-14
2.31404e-06
-3.39853e-06
6.69805e-07
-3.12345e-07
5.79516e-08
-2.31189e-08
5.87768e-09
-1.63215e-09
5.06423e-10
-1.38302e-10
3.1444e-11
-1.88433e-11
-4.21901e-12
-4.81701e-12
-3.4388e-12
-7.94585e-12
-6.61354e-12
7.0574e-13
-6.4157e-13
5.42101e-13
-1.1415e-06
1.61395e-06
-3.65563e-07
1.65144e-07
-3.57775e-08
1.37947e-08
-3.63801e-09
1.11058e-09
-3.29462e-10
9.70903e-11
-2.57227e-11
9.81203e-12
-7.04731e-13
4.8518e-12
2.87314e-12
-1.0842e-12
9.48677e-13
4.71628e-12
-2.24972e-12
4.60786e-13
)
;

boundaryField
{
    movingWall
    {
        type            extrapolatedCalculated;
        value           nonuniform List<scalar> 
20
(
-1.1415e-06
1.61395e-06
-3.65563e-07
1.65144e-07
-3.57775e-08
1.37947e-08
-3.63801e-09
1.11058e-09
-3.29462e-10
9.70903e-11
-2.57227e-11
9.81203e-12
-7.04731e-13
4.8518e-12
2.87314e-12
-1.0842e-12
9.48677e-13
4.71628e-12
-2.24972e-12
4.60786e-13
)
;
    }
    fixedWalls
    {
        type            extrapolatedCalculated;
        value           nonuniform List<scalar> 
60
(
8.39459e-08
-4.54513e-07
7.93156e-07
-1.34536e-06
2.09654e-06
-3.42243e-06
6.40659e-06
-9.25713e-06
1.03405e-05
-1.03771e-05
1.00929e-05
-9.40046e-06
8.67196e-06
-7.6816e-06
6.7043e-06
-5.60042e-06
4.58262e-06
-3.23708e-06
2.31404e-06
-1.1415e-06
-5.14996e-13
-1.19262e-12
-8.13152e-14
-1.27394e-12
1.89735e-13
-1.24683e-12
4.06576e-13
-1.0571e-12
5.69206e-13
-8.94467e-13
6.23416e-13
-7.31836e-13
5.96311e-13
-4.87891e-13
4.87891e-13
-1.89735e-13
5.42101e-14
-5.42101e-14
5.42101e-13
4.60786e-13
8.39459e-08
-8.86058e-07
1.38999e-07
-7.42613e-08
1.0403e-08
-4.54522e-09
1.07873e-09
-2.53163e-10
8.32941e-11
-1.80272e-11
6.18991e-12
-3.73882e-13
1.93235e-12
1.35326e-12
1.65729e-12
8.92258e-13
-1.14069e-12
-9.3078e-13
5.19772e-12
-5.14996e-13
)
;
    }
    frontAndBack
    {
        type            empty;
    }
}


// ************************************************************************* //
