/*--------------------------------*- C++ -*----------------------------------*\
| =========                 |                                                 |
| \\      /  F ield         | OpenFOAM: The Open Source CFD Toolbox           |
|  \\    /   O peration     | Version:  2312                                  |
|   \\  /    A nd           | Website:  www.openfoam.com                      |
|    \\/     M anipulation  |                                                 |
\*---------------------------------------------------------------------------*/
FoamFile
{
    version     2.0;
    format      ascii;
    arch        "LSB;label=32;scalar=64";
    class       volScalarField;
    location    "3.375";
    object      enstrophyField;
}
// * * * * * * * * * * * * * * * * * * * * * * * * * * * * * * * * * * * * * //

dimensions      [0 0 -2 0 0 0 0];

internalField   nonuniform List<scalar> 
400
(
2.66357e-10
3.22803e-10
1.69802e-11
9.44919e-13
4.87617e-14
2.8797e-15
1.08879e-16
1.73952e-17
2.87737e-19
1.26164e-18
5.61113e-19
3.83543e-19
2.1037e-19
1.10923e-19
5.17996e-20
2.09277e-20
6.53597e-21
1.05426e-21
1.34033e-23
6.53868e-25
3.50361e-10
3.57832e-10
1.94332e-11
1.05465e-12
5.71822e-14
3.10061e-15
1.67471e-16
9.12779e-18
4.87212e-19
2.54588e-20
2.21491e-21
3.79675e-23
5.2239e-22
6.01975e-22
7.2222e-22
6.25918e-22
4.62549e-22
7.72399e-22
1.28601e-21
6.6519e-23
3.94319e-10
4.06107e-10
2.20514e-11
1.19607e-12
6.48741e-14
3.50578e-15
1.91285e-16
1.00604e-17
5.88522e-19
2.69195e-20
1.32269e-21
6.4577e-22
6.77549e-22
1.40903e-21
1.70012e-21
1.57607e-21
1.19432e-21
2.04849e-21
3.4336e-21
1.83618e-22
4.63044e-10
4.85195e-10
2.63999e-11
1.43515e-12
7.78966e-14
4.23857e-15
2.27576e-16
1.27568e-17
6.25098e-19
4.11937e-20
2.4753e-21
1.39586e-22
1.67796e-21
2.49516e-21
3.20547e-21
2.93476e-21
2.23419e-21
3.79987e-21
6.3376e-21
3.40776e-22
5.49074e-10
5.97913e-10
3.26893e-11
1.78521e-12
9.7518e-14
5.30277e-15
2.92141e-16
1.53249e-17
9.26226e-19
4.05012e-20
1.87385e-21
1.54756e-21
2.03768e-21
4.00249e-21
4.87626e-21
4.51569e-21
3.42756e-21
5.81013e-21
9.6782e-21
5.27204e-22
6.53583e-10
7.47956e-10
4.1134e-11
2.25928e-12
1.23861e-13
6.81007e-15
3.68926e-16
2.09545e-17
1.02856e-18
6.90976e-20
4.43322e-21
3.74234e-22
3.53411e-21
5.2835e-21
6.71832e-21
6.15731e-21
4.69121e-21
7.89807e-21
1.3074e-20
7.06643e-22
7.20744e-10
9.12882e-10
5.07059e-11
2.81044e-12
1.55744e-13
8.59186e-15
4.80034e-16
2.55682e-17
1.55852e-18
7.06538e-20
3.04791e-21
2.80701e-21
3.57918e-21
6.9137e-21
8.33356e-21
7.70399e-21
5.85669e-21
9.78273e-21
1.61194e-20
8.7491e-22
7.19713e-10
1.03625e-09
5.83608e-11
3.28513e-12
1.84582e-13
1.0391e-14
5.76267e-16
3.33133e-17
1.68945e-18
1.11388e-19
7.76133e-21
5.68991e-22
5.37801e-21
7.78373e-21
9.83323e-21
8.96962e-21
6.82073e-21
1.12902e-20
1.85305e-20
9.9616e-22
7.23756e-10
1.13452e-09
6.40287e-11
3.61148e-12
2.03861e-13
1.14682e-14
6.53317e-16
3.57054e-17
2.1994e-18
1.0681e-19
4.29714e-21
4.10301e-21
4.72661e-21
9.02597e-21
1.07166e-20
9.86958e-21
7.47365e-21
1.22901e-20
2.0071e-20
1.06642e-21
7.54837e-10
1.23561e-09
6.97759e-11
3.93867e-12
2.22159e-13
1.25743e-14
7.03703e-16
4.09717e-17
2.13505e-18
1.37435e-19
1.05884e-20
7.19984e-22
6.48673e-21
9.05469e-21
1.13115e-20
1.02369e-20
7.73286e-21
1.26447e-20
2.06512e-20
1.08203e-21
7.897e-10
1.3311e-09
7.52633e-11
4.25384e-12
2.40682e-13
1.35824e-14
7.74993e-16
4.26748e-17
2.59456e-18
1.31961e-19
4.79083e-21
4.81296e-21
5.08294e-21
9.52209e-21
1.11156e-20
1.01516e-20
7.59652e-21
1.23632e-20
2.02447e-20
1.03973e-21
8.29715e-10
1.42561e-09
8.0652e-11
4.56194e-12
2.57928e-13
1.46259e-14
8.2154e-16
4.76538e-17
2.53099e-18
1.56205e-19
1.27394e-20
6.71232e-22
6.38592e-21
8.55675e-21
1.05505e-20
9.41571e-21
7.00302e-21
1.14168e-20
1.90083e-20
9.69309e-22
8.68682e-10
1.51281e-09
8.56514e-11
4.84744e-12
2.74571e-13
1.55193e-14
8.84814e-16
4.90638e-17
2.93354e-18
1.5591e-19
5.47147e-21
4.77423e-21
4.34387e-21
8.13565e-21
9.31709e-21
8.36691e-21
6.11087e-21
1.00434e-20
1.70173e-20
8.57553e-22
9.05192e-10
1.59453e-09
9.02919e-11
5.11151e-12
2.89275e-13
1.64081e-14
9.24036e-16
5.33157e-17
2.88515e-18
1.71853e-19
1.39631e-20
3.88638e-22
5.04398e-21
6.41087e-21
7.8644e-21
6.87163e-21
4.94873e-21
8.26087e-21
1.44858e-20
7.32708e-22
9.4341e-10
1.66788e-09
9.44786e-11
5.34955e-12
3.03097e-13
1.71475e-14
9.76267e-16
5.44938e-17
3.20613e-18
1.75615e-19
6.59194e-21
3.92792e-21
2.78298e-21
5.42675e-21
6.06438e-21
5.34833e-21
3.76633e-21
6.40246e-21
1.15168e-20
5.77857e-22
9.81702e-10
1.73438e-09
9.82555e-11
5.56464e-12
3.15107e-13
1.78726e-14
1.00895e-15
5.78835e-17
3.18818e-18
1.8471e-19
1.42758e-20
8.75983e-23
3.13484e-21
3.63863e-21
4.46379e-21
3.8033e-21
2.65643e-21
4.57905e-21
8.42683e-21
4.21397e-22
9.97654e-10
1.78326e-09
1.00998e-10
5.71767e-12
3.23832e-13
1.83258e-14
1.04099e-15
5.84678e-17
3.37808e-18
1.90823e-19
7.69334e-21
2.85864e-21
1.2943e-21
2.74097e-21
2.94858e-21
2.56356e-21
1.7718e-21
3.05215e-21
5.58606e-21
2.63825e-22
1.03593e-09
1.83177e-09
1.03754e-10
5.87446e-12
3.32598e-13
1.88491e-14
1.06552e-15
6.07658e-17
3.39127e-18
1.9375e-19
1.33328e-20
2.56187e-23
1.24918e-21
1.20191e-21
1.52384e-21
1.23598e-21
8.10654e-22
1.55559e-21
3.22512e-21
1.55805e-22
1.06554e-09
1.86786e-09
1.06001e-10
6.01318e-12
3.41209e-13
1.936e-14
1.10015e-15
6.22304e-17
3.5726e-18
1.98841e-19
1.10186e-20
1.02722e-21
3.10632e-23
2.8234e-22
2.63094e-22
1.80759e-22
6.18956e-23
3.13918e-22
1.35227e-21
9.95103e-23
1.14822e-09
1.90933e-09
1.11103e-10
6.25761e-12
3.69385e-13
2.0365e-14
1.33848e-15
5.00143e-17
9.84402e-18
1.54494e-19
6.80782e-19
2.68001e-19
1.76337e-19
8.83281e-20
4.17051e-20
1.69143e-20
5.87844e-21
1.12787e-21
1.71284e-23
3.36366e-24
)
;

boundaryField
{
    movingWall
    {
        type            calculated;
        value           nonuniform List<scalar> 
20
(
1.69197e-09
2.04851e-09
1.26269e-10
7.00356e-12
4.43709e-13
2.40887e-14
1.82095e-15
4.86916e-17
2.14644e-17
1.4262e-18
2.48468e-18
1.14042e-18
7.12607e-19
3.6251e-19
1.71196e-19
7.1216e-20
2.61209e-20
4.60195e-21
2.59781e-23
8.21438e-23
)
;
    }
    fixedWalls
    {
        type            calculated;
        value           nonuniform List<scalar> 
60
(
5.81384e-09
6.50708e-09
7.38755e-09
8.81427e-09
1.08392e-08
1.35135e-08
1.64182e-08
1.85524e-08
2.03213e-08
2.21378e-08
2.38472e-08
2.55375e-08
2.7095e-08
2.85583e-08
2.98686e-08
3.10554e-08
3.19391e-08
3.28011e-08
3.33868e-08
3.4253e-08
1.05577e-22
3.75137e-22
9.78705e-22
1.79412e-21
2.71841e-21
3.67866e-21
4.53575e-21
5.25864e-21
5.76068e-21
6.03049e-21
6.04824e-21
5.81706e-21
5.34984e-21
4.66259e-21
3.80806e-21
2.86152e-21
1.9837e-21
1.18285e-21
4.84482e-22
1.90305e-22
1.23292e-10
2.90608e-10
1.37206e-11
8.18439e-13
3.71477e-14
2.40234e-15
5.24066e-17
2.56434e-17
3.35347e-18
4.24036e-18
2.36198e-18
1.49579e-18
8.3467e-19
4.33528e-19
2.00517e-19
7.96672e-20
2.45318e-20
3.22914e-21
2.93617e-23
2.27682e-23
)
;
    }
    frontAndBack
    {
        type            empty;
    }
}


// ************************************************************************* //
