/*--------------------------------*- C++ -*----------------------------------*\
| =========                 |                                                 |
| \\      /  F ield         | OpenFOAM: The Open Source CFD Toolbox           |
|  \\    /   O peration     | Version:  2312                                  |
|   \\  /    A nd           | Website:  www.openfoam.com                      |
|    \\/     M anipulation  |                                                 |
\*---------------------------------------------------------------------------*/
FoamFile
{
    version     2.0;
    format      ascii;
    arch        "LSB;label=32;scalar=64";
    class       volScalarField;
    location    "3.375";
    object      flowTypeField;
}
// * * * * * * * * * * * * * * * * * * * * * * * * * * * * * * * * * * * * * //

dimensions      [0 0 0 0 0 0 0];

internalField   nonuniform List<scalar> 
400
(
-0.130524
-0.0202458
-0.0405714
-0.0341486
-0.044012
-0.0971722
0.0745431
-0.585722
0.526346
-0.0874012
0.0735872
0.0397317
0.0641331
0.0764296
0.100906
0.140237
0.229529
0.437564
0.819446
0.892843
-0.225557
-0.0293851
-0.0709729
-0.0360464
-0.0831921
-0.0686603
-0.0641692
-0.135693
0.14514
0.364697
0.786767
0.962512
0.85192
0.811902
0.752682
0.710075
0.680442
0.504685
0.125813
0.266902
-0.178907
-0.0130045
-0.0562963
0.00195014
-0.053026
-0.0037712
-0.00792734
0.0433289
-0.0866209
0.556221
0.802957
0.859922
0.829307
0.725712
0.643455
0.574927
0.532681
0.334326
0.0438496
0.12302
-0.129096
0.00576154
-0.0399599
0.0411955
-0.0233256
0.0510035
0.0794855
0.017253
0.330568
0.1385
0.792112
0.925589
0.744669
0.643789
0.538411
0.464449
0.411835
0.211217
0.0172445
0.0426518
-0.0802582
0.0233448
-0.0218395
0.0735868
0.00486664
0.103258
0.100974
0.181158
0.0988952
0.571607
0.743356
0.788205
0.707662
0.566012
0.455169
0.371813
0.318019
0.149111
0.00438704
0.0171211
-0.0422654
0.0369422
-0.00798379
0.0968638
0.0261555
0.126231
0.164441
0.115414
0.396299
0.0638411
0.742024
0.869671
0.632464
0.501854
0.384256
0.305052
0.245656
0.093654
-0.00172949
-0.00330426
0.00422829
0.0503617
0.0116844
0.120034
0.0433505
0.170719
0.155206
0.246106
0.234724
0.531926
0.653498
0.707869
0.602158
0.44317
0.3293
0.24777
0.189564
0.0701899
-0.00472145
-0.00997793
0.0541882
0.0586447
0.0327875
0.127968
0.0709707
0.177272
0.196651
0.205598
0.39083
0.228383
0.662389
0.82243
0.53293
0.398857
0.284746
0.210172
0.151255
0.0470806
-0.00632843
-0.0157242
0.0871007
0.0611543
0.0448535
0.130774
0.0868219
0.191404
0.200103
0.26527
0.315296
0.474248
0.616977
0.621639
0.521203
0.359276
0.255114
0.180651
0.123419
0.0379211
-0.00687278
-0.0162903
0.0982575
0.057136
0.0465429
0.121919
0.0869164
0.180219
0.196915
0.231205
0.360594
0.306793
0.57615
0.786435
0.462376
0.34154
0.235463
0.165797
0.110581
0.0313067
-0.00739461
-0.0164698
0.10342
0.0520951
0.0461213
0.110484
0.0837984
0.167393
0.181551
0.23521
0.300951
0.398434
0.622495
0.554135
0.486885
0.325111
0.23124
0.161279
0.106137
0.0301139
-0.00657366
-0.0144006
0.103283
0.0453746
0.0429995
0.0956913
0.0753053
0.146959
0.162097
0.199042
0.297708
0.301123
0.489071
0.792858
0.445773
0.34321
0.23984
0.171587
0.118311
0.0377409
-0.00710263
-0.0134033
0.101802
0.0394039
0.0402449
0.0823017
0.0687031
0.129298
0.142854
0.187449
0.248507
0.316892
0.612997
0.537401
0.519158
0.354169
0.264602
0.194619
0.140777
0.0455194
-0.00526359
-0.0147524
0.0997373
0.0334048
0.0370441
0.0684779
0.0605795
0.10887
0.122653
0.152719
0.228927
0.258611
0.44096
0.846209
0.49812
0.410463
0.303608
0.232605
0.182999
0.0719802
-0.00513644
-0.00916982
0.0950429
0.0279133
0.0337219
0.0559455
0.0532761
0.0913279
0.101388
0.139025
0.177982
0.253913
0.588678
0.585777
0.612626
0.448648
0.361025
0.287894
0.23989
0.100344
0.00124748
-0.000553912
0.0890046
0.0227791
0.0300728
0.0440468
0.045608
0.071841
0.08473
0.10081
0.163221
0.200256
0.447979
0.930354
0.603429
0.535191
0.428599
0.357168
0.311261
0.152275
0.00719052
0.0251094
0.0912082
0.0203592
0.0296658
0.0376277
0.042853
0.0642205
0.0688897
0.10463
0.113983
0.219965
0.584224
0.661684
0.734309
0.584355
0.504951
0.429415
0.385056
0.201821
0.0186261
0.0674652
0.0813941
0.0157397
0.0256951
0.0271993
0.0369265
0.0453269
0.0601685
0.0619632
0.117685
0.166473
0.498573
0.964796
0.745126
0.711633
0.62208
0.567996
0.541819
0.330732
0.0289995
0.118355
0.0740616
0.0122056
0.0210416
0.0190113
0.0253975
0.0336229
0.0301405
0.0561652
0.0503588
0.187919
0.555294
0.804421
0.957401
0.854273
0.828588
0.814428
0.854145
0.632321
0.108589
0.197467
0.0414051
0.00627129
0.0106542
0.00977505
0.0083205
0.0281413
-0.0322109
0.177304
-0.490527
0.572732
-0.128307
0.0986656
0.0418956
0.080105
0.0956858
0.131497
0.21886
0.442991
0.828717
0.814972
)
;

boundaryField
{
    movingWall
    {
        type            calculated;
        value           nonuniform List<scalar> 
20
(
0.731649
0.258769
0.236327
0.248158
0.220059
0.241195
0.153842
0.402221
-0.258477
0.338572
-0.0873196
0.0376486
-0.00175158
0.0143531
0.0132841
0.0226132
0.0562636
0.201752
0.820074
0.431824
)
;
    }
    fixedWalls
    {
        type            calculated;
        value           nonuniform List<scalar> 
60
(
-0.0247453
-0.0383908
-0.0208589
-5.07047e-05
0.0198367
0.035831
0.0523698
0.0634849
0.0662305
0.0619103
0.056686
0.0496156
0.0434079
0.0370275
0.0312838
0.0258778
0.0231592
0.018351
0.0155804
0.00822522
0.17119
0.104055
0.0475736
0.0261052
0.0191561
0.0125217
0.0112454
0.00870295
0.00793626
0.00695979
0.00607376
0.00703491
0.00869454
0.0119967
0.014943
0.019907
0.0223062
0.0453238
0.143362
0.215629
0.811331
0.272608
0.308373
0.276165
0.316439
0.256021
0.499109
-0.225546
0.268813
-0.0638729
0.0275563
0.003515
0.0128841
0.0134347
0.0192837
0.0316727
0.0685482
0.221872
0.776086
0.552164
)
;
    }
    frontAndBack
    {
        type            empty;
    }
}


// ************************************************************************* //
