/*--------------------------------*- C++ -*----------------------------------*\
| =========                 |                                                 |
| \\      /  F ield         | OpenFOAM: The Open Source CFD Toolbox           |
|  \\    /   O peration     | Version:  2312                                  |
|   \\  /    A nd           | Website:  www.openfoam.com                      |
|    \\/     M anipulation  |                                                 |
\*---------------------------------------------------------------------------*/
FoamFile
{
    version     2.0;
    format      ascii;
    arch        "LSB;label=32;scalar=64";
    class       surfaceScalarField;
    location    "3.375";
    object      fluxField;
}
// * * * * * * * * * * * * * * * * * * * * * * * * * * * * * * * * * * * * * //

dimensions      [0 3 -1 0 0 0 0];

oriented        oriented;

internalField   nonuniform List<scalar> 
760
(
-5e-05
-2.22268e-13
-5e-05
4.75511e-14
-5e-05
-1.05303e-14
-5e-05
2.2096e-15
-5e-05
-3.71242e-16
-5e-05
1.52025e-16
-5e-05
6.76408e-17
-5e-05
7.93565e-17
-5e-05
7.57045e-17
-5e-05
7.06284e-17
-5e-05
6.47565e-17
-5e-05
5.762e-17
-5e-05
4.99566e-17
-5e-05
4.16261e-17
-5e-05
3.34486e-17
-5e-05
2.57289e-17
-5e-05
1.96506e-17
-5e-05
1.43634e-17
-5e-05
6.15801e-18
-2.30674e-18
-5e-05
4.53637e-13
-5e-05
-1.04488e-13
-5e-05
2.47562e-14
-5e-05
-5.66548e-15
-5e-05
1.44998e-15
-5e-05
-1.74323e-16
-5e-05
2.27009e-16
-5e-05
1.40528e-16
-5e-05
1.56504e-16
-5e-05
1.41563e-16
-5e-05
1.29863e-16
-5e-05
1.15115e-16
-5e-05
9.95575e-17
-5e-05
8.28019e-17
-5e-05
6.64782e-17
-5e-05
5.10247e-17
-5e-05
3.87926e-17
-5e-05
2.85326e-17
-5e-05
1.20295e-17
-4.51777e-18
-5e-05
-6.86489e-13
-5e-05
1.58202e-13
-5e-05
-3.7531e-14
-5e-05
8.58928e-15
-5e-05
-1.82073e-15
-5e-05
6.81862e-16
-5e-05
1.45019e-16
-5e-05
2.67217e-16
-5e-05
2.26427e-16
-5e-05
2.14971e-16
-5e-05
1.92824e-16
-5e-05
1.70707e-16
-5e-05
1.47015e-16
-5e-05
1.22037e-16
-5e-05
9.78614e-17
-5e-05
7.50686e-17
-5e-05
5.69338e-17
-5e-05
4.18154e-17
-5e-05
1.76334e-17
-6.57341e-18
-5e-05
9.07629e-13
-5e-05
-2.16277e-13
-5e-05
5.13488e-14
-5e-05
-1.19678e-14
-5e-05
3.17158e-15
-5e-05
-3.3376e-16
-5e-05
5.08792e-16
-5e-05
2.98689e-16
-5e-05
3.20199e-16
-5e-05
2.8123e-16
-5e-05
2.53584e-16
-5e-05
2.22267e-16
-5e-05
1.90891e-16
-5e-05
1.58073e-16
-5e-05
1.26597e-16
-5e-05
9.70224e-17
-5e-05
7.35004e-17
-5e-05
5.39606e-17
-5e-05
2.27377e-17
-8.4387e-18
-5e-05
-1.09256e-12
-5e-05
2.58929e-13
-5e-05
-6.22107e-14
-5e-05
1.4719e-14
-5e-05
-2.97271e-15
-5e-05
1.31097e-15
-5e-05
2.9144e-16
-5e-05
4.78364e-16
-5e-05
3.7941e-16
-5e-05
3.49715e-16
-5e-05
3.06699e-16
-5e-05
2.68438e-16
-5e-05
2.29518e-16
-5e-05
1.89752e-16
-5e-05
1.51785e-16
-5e-05
1.1625e-16
-5e-05
8.79919e-17
-5e-05
6.45184e-17
-5e-05
2.7196e-17
-1.00659e-17
-5e-05
1.15238e-12
-5e-05
-2.92238e-13
-5e-05
7.13685e-14
-5e-05
-1.58873e-14
-5e-05
5.15734e-15
-5e-05
-2.39993e-16
-5e-05
8.57472e-16
-5e-05
4.65144e-16
-5e-05
4.69298e-16
-5e-05
3.97529e-16
-5e-05
3.52749e-16
-5e-05
3.06067e-16
-5e-05
2.61503e-16
-5e-05
2.1588e-16
-5e-05
1.72599e-16
-5e-05
1.32129e-16
-5e-05
9.99398e-17
-5e-05
7.32395e-17
-5e-05
3.08598e-17
-1.1417e-17
-5e-05
-8.67127e-13
-5e-05
2.5985e-13
-5e-05
-5.72221e-14
-5e-05
1.87846e-14
-5e-05
-2.93511e-15
-5e-05
1.92058e-15
-5e-05
4.17915e-16
-5e-05
6.41433e-16
-5e-05
4.83834e-16
-5e-05
4.42192e-16
-5e-05
3.83416e-16
-5e-05
3.34455e-16
-5e-05
2.85262e-16
-5e-05
2.35612e-16
-5e-05
1.88372e-16
-5e-05
1.44215e-16
-5e-05
1.09056e-16
-5e-05
7.9854e-17
-5e-05
3.36537e-17
-1.24708e-17
-5e-05
6.76908e-13
-5e-05
-1.8617e-13
-5e-05
4.63055e-14
-5e-05
-1.12571e-14
-5e-05
4.23473e-15
-5e-05
-4.38832e-17
-5e-05
9.24289e-16
-5e-05
5.27757e-16
-5e-05
5.34837e-16
-5e-05
4.52595e-16
-5e-05
4.03863e-16
-5e-05
3.50867e-16
-5e-05
3.00439e-16
-5e-05
2.48313e-16
-5e-05
1.98734e-16
-5e-05
1.52205e-16
-5e-05
1.15109e-16
-5e-05
8.42955e-17
-5e-05
3.55076e-17
-1.32232e-17
-5e-05
-6.13803e-13
-5e-05
1.60838e-13
-5e-05
-3.77106e-14
-5e-05
1.10191e-14
-5e-05
-1.80213e-15
-5e-05
1.37252e-15
-5e-05
4.49498e-16
-5e-05
6.14719e-16
-5e-05
4.98702e-16
-5e-05
4.61747e-16
-5e-05
4.06387e-16
-5e-05
3.57436e-16
-5e-05
3.06471e-16
-5e-05
2.54015e-16
-5e-05
2.03541e-16
-5e-05
1.56041e-16
-5e-05
1.18083e-16
-5e-05
8.64918e-17
-5e-05
3.64482e-17
-1.36725e-17
-5e-05
5.43957e-13
-5e-05
-1.39657e-13
-5e-05
3.39205e-14
-5e-05
-8.12941e-15
-5e-05
2.77931e-15
-5e-05
5.09599e-17
-5e-05
7.14533e-16
-5e-05
4.9554e-16
-5e-05
4.99424e-16
-5e-05
4.43421e-16
-5e-05
4.00932e-16
-5e-05
3.53096e-16
-5e-05
3.04494e-16
-5e-05
2.52896e-16
-5e-05
2.03026e-16
-5e-05
1.55792e-16
-5e-05
1.17998e-16
-5e-05
8.65614e-17
-5e-05
3.65038e-17
-1.3826e-17
-5e-05
-5.08332e-13
-5e-05
1.28193e-13
-5e-05
-3.00593e-14
-5e-05
8.14966e-15
-5e-05
-1.3783e-15
-5e-05
9.9108e-16
-5e-05
3.90745e-16
-5e-05
5.20136e-16
-5e-05
4.5209e-16
-5e-05
4.26283e-16
-5e-05
3.83567e-16
-5e-05
3.41149e-16
-5e-05
2.94964e-16
-5e-05
2.4567e-16
-5e-05
1.97524e-16
-5e-05
1.51737e-16
-5e-05
1.15072e-16
-5e-05
8.45924e-17
-5e-05
3.5774e-17
-1.36984e-17
-5e-05
4.49494e-13
-5e-05
-1.12535e-13
-5e-05
2.70715e-14
-5e-05
-6.36469e-15
-5e-05
2.07657e-15
-5e-05
5.35027e-17
-5e-05
5.63501e-16
-5e-05
4.23444e-16
-5e-05
4.32531e-16
-5e-05
3.9477e-16
-5e-05
3.61452e-16
-5e-05
3.21751e-16
-5e-05
2.79256e-16
-5e-05
2.3294e-16
-5e-05
1.87537e-16
-5e-05
1.44168e-16
-5e-05
1.09499e-16
-5e-05
8.0804e-17
-5e-05
3.42978e-17
-1.32961e-17
-5e-05
-4.10626e-13
-5e-05
1.0219e-13
-5e-05
-2.39717e-14
-5e-05
6.36273e-15
-5e-05
-1.07834e-15
-5e-05
7.76711e-16
-5e-05
3.2804e-16
-5e-05
4.32203e-16
-5e-05
3.84844e-16
-5e-05
3.65843e-16
-5e-05
3.32245e-16
-5e-05
2.97139e-16
-5e-05
2.58006e-16
-5e-05
2.15463e-16
-5e-05
1.73549e-16
-5e-05
1.33496e-16
-5e-05
1.01588e-16
-5e-05
7.52806e-17
-5e-05
3.21242e-17
-1.26003e-17
-5e-05
3.49168e-13
-5e-05
-8.55331e-14
-5e-05
2.0566e-14
-5e-05
-4.6799e-15
-5e-05
1.57452e-15
-5e-05
9.27936e-17
-5e-05
4.57276e-16
-5e-05
3.55721e-16
-5e-05
3.58147e-16
-5e-05
3.27849e-16
-5e-05
2.99888e-16
-5e-05
2.67227e-16
-5e-05
2.32101e-16
-5e-05
1.93746e-16
-5e-05
1.56057e-16
-5e-05
1.20053e-16
-5e-05
9.15211e-17
-5e-05
6.81782e-17
-5e-05
2.9254e-17
-1.15915e-17
-5e-05
-3.0352e-13
-5e-05
7.33403e-14
-5e-05
-1.69974e-14
-5e-05
4.507e-15
-5e-05
-6.11801e-16
-5e-05
6.07956e-16
-5e-05
3.02869e-16
-5e-05
3.51734e-16
-5e-05
3.12331e-16
-5e-05
2.90667e-16
-5e-05
2.6218e-16
-5e-05
2.33097e-16
-5e-05
2.01883e-16
-5e-05
1.68277e-16
-5e-05
1.35416e-16
-5e-05
1.04119e-16
-5e-05
7.95087e-17
-5e-05
5.95237e-17
-5e-05
2.5675e-17
-1.02707e-17
-5e-05
2.43341e-13
-5e-05
-6.0612e-14
-5e-05
1.49489e-14
-5e-05
-3.20228e-15
-5e-05
1.31445e-15
-5e-05
1.47064e-16
-5e-05
3.90289e-16
-5e-05
2.85876e-16
-5e-05
2.75537e-16
-5e-05
2.44354e-16
-5e-05
2.19843e-16
-5e-05
1.93745e-16
-5e-05
1.67286e-16
-5e-05
1.39072e-16
-5e-05
1.11769e-16
-5e-05
8.59046e-17
-5e-05
6.58033e-17
-5e-05
4.96018e-17
-5e-05
2.15128e-17
-8.7157e-18
-5e-05
-1.96049e-13
-5e-05
4.66124e-14
-5e-05
-1.01009e-14
-5e-05
3.21038e-15
-5e-05
-1.53873e-16
-5e-05
5.17241e-16
-5e-05
2.6304e-16
-5e-05
2.63067e-16
-5e-05
2.18499e-16
-5e-05
1.95595e-16
-5e-05
1.72008e-16
-5e-05
1.50932e-16
-5e-05
1.29639e-16
-5e-05
1.07549e-16
-5e-05
8.63492e-17
-5e-05
6.6472e-17
-5e-05
5.11532e-17
-5e-05
3.8847e-17
-5e-05
1.6985e-17
-7.02575e-18
-5e-05
1.27195e-13
-5e-05
-2.61102e-14
-5e-05
7.05339e-15
-5e-05
-3.05315e-16
-5e-05
6.38257e-16
-5e-05
3.29502e-16
-5e-05
2.2668e-16
-5e-05
1.96921e-16
-5e-05
1.56355e-16
-5e-05
1.38281e-16
-5e-05
1.19148e-16
-5e-05
1.03967e-16
-5e-05
8.87558e-17
-5e-05
7.34209e-17
-5e-05
5.88485e-17
-5e-05
4.52992e-17
-5e-05
3.50111e-17
-5e-05
2.72268e-17
-5e-05
1.24782e-17
-5.1345e-18
-5e-05
-1.1191e-13
-5e-05
5.75538e-14
-5e-05
-1.33131e-14
-5e-05
5.83306e-15
-5e-05
-1.21299e-15
-5e-05
6.69835e-16
-5e-05
-6.96509e-18
-5e-05
1.44865e-16
-5e-05
7.00172e-17
-5e-05
7.34992e-17
-5e-05
5.87575e-17
-5e-05
5.18778e-17
-5e-05
4.37499e-17
-5e-05
3.61126e-17
-5e-05
2.88136e-17
-5e-05
2.20557e-17
-5e-05
1.72253e-17
-5e-05
1.42846e-17
-5e-05
7.17152e-18
-2.78875e-18
-5e-05
-5e-05
-5e-05
-5e-05
-5e-05
-5e-05
-5e-05
-5e-05
-5e-05
-5e-05
-5e-05
-5e-05
-5e-05
-5e-05
-5e-05
-5e-05
-5e-05
-5e-05
-5e-05
)
;

boundaryField
{
    movingWall
    {
        type            calculated;
        value           uniform -0;
    }
    fixedWalls
    {
        type            calculated;
        value           nonuniform List<scalar> 
60
(
5e-05
5e-05
5e-05
5e-05
5e-05
5e-05
5e-05
5e-05
5e-05
5e-05
5e-05
5e-05
5e-05
5e-05
5e-05
5e-05
5e-05
5e-05
5e-05
5e-05
-5e-05
-5e-05
-5e-05
-5e-05
-5e-05
-5e-05
-5e-05
-5e-05
-5e-05
-5e-05
-5e-05
-5e-05
-5e-05
-5e-05
-5e-05
-5e-05
-5e-05
-5e-05
-5e-05
-5e-05
0
0
0
0
0
0
0
0
0
0
0
0
0
0
0
0
0
0
0
0
)
;
    }
    frontAndBack
    {
        type            empty;
        value           nonuniform List<scalar> 0();
    }
}


// ************************************************************************* //
