/*--------------------------------*- C++ -*----------------------------------*\
| =========                 |                                                 |
| \\      /  F ield         | OpenFOAM: The Open Source CFD Toolbox           |
|  \\    /   O peration     | Version:  2312                                  |
|   \\  /    A nd           | Website:  www.openfoam.com                      |
|    \\/     M anipulation  |                                                 |
\*---------------------------------------------------------------------------*/
FoamFile
{
    version     2.0;
    format      ascii;
    arch        "LSB;label=32;scalar=64";
    class       volTensorField;
    location    "3.375";
    object      gradU;
}
// * * * * * * * * * * * * * * * * * * * * * * * * * * * * * * * * * * * * * //

dimensions      [0 0 -1 0 0 0 0];

internalField   nonuniform List<tensor> 
400
(
(9.7302e-07 2.03668e-05 0 -2.71383e-06 -8.89074e-07 0 0 0 0)
(-1.07626e-06 -2.48801e-05 0 5.28714e-07 1.90204e-07 0 0 0 0)
(1.8112e-07 5.59713e-06 0 -2.30434e-07 -4.2121e-08 0 0 0 0)
(-8.30997e-08 -1.32659e-06 0 4.81198e-08 8.83838e-09 0 0 0 0)
(1.18879e-08 2.98871e-07 0 -1.34162e-08 -1.48497e-09 0 0 0 0)
(-5.15332e-09 -6.8953e-08 0 6.93767e-09 6.081e-10 0 0 0 0)
(8.08164e-10 1.5924e-08 0 1.16739e-09 2.70563e-10 0 0 0 0)
(-5.70588e-10 -3.566e-09 0 2.33234e-09 3.17426e-10 0 0 0 0)
(-2.19524e-10 8.14035e-10 0 1.57264e-09 3.02818e-10 0 0 0 0)
(-3.00541e-10 -1.94875e-10 0 1.39361e-09 2.82514e-10 0 0 0 0)
(-2.52836e-10 2.82383e-11 0 1.08759e-09 2.59026e-10 0 0 0 0)
(-2.30854e-10 -2.36514e-11 0 8.52183e-10 2.3048e-10 0 0 0 0)
(-1.97894e-10 -1.37631e-11 0 6.34882e-10 1.99826e-10 0 0 0 0)
(-1.65151e-10 -1.67785e-11 0 4.54227e-10 1.66504e-10 0 0 0 0)
(-1.32137e-10 -1.54998e-11 0 3.06368e-10 1.33794e-10 0 0 0 0)
(-1.02023e-10 -1.33868e-11 0 1.91199e-10 1.02916e-10 0 0 0 0)
(-7.97431e-11 -1.18484e-11 0 1.02484e-10 7.86024e-11 0 0 0 0)
(-5.83843e-11 -1.3528e-11 0 3.23905e-11 5.74535e-11 0 0 0 0)
(-1.94343e-11 -1.63177e-11 0 -1.11402e-11 2.4632e-11 0 0 0 0)
(8.70072e-12 -4.08771e-12 0 -5.23128e-12 -9.22696e-12 0 0 0 0)
(-3.15814e-06 -2.10656e-05 0 5.40551e-06 2.70362e-06 0 0 0 0)
(3.55966e-06 2.5727e-05 0 -1.02487e-06 -6.08157e-07 0 0 0 0)
(-6.61714e-07 -5.77849e-06 0 4.55806e-07 1.41146e-07 0 0 0 0)
(3.00117e-07 1.36723e-06 0 -8.51101e-08 -3.15003e-08 0 0 0 0)
(-5.307e-08 -3.07102e-07 0 3.10765e-08 7.28487e-09 0 0 0 0)
(1.97369e-08 7.07085e-08 0 -8.03933e-09 -1.30539e-09 0 0 0 0)
(-5.41353e-09 -1.62147e-08 0 2.08671e-09 6.37474e-10 0 0 0 0)
(9.75863e-10 3.59825e-09 0 -6.74401e-10 2.44686e-10 0 0 0 0)
(-7.19178e-10 -8.48948e-10 0 1.38182e-10 3.23199e-10 0 0 0 0)
(-1.84504e-10 1.51083e-10 0 -7.4566e-11 2.83738e-10 0 0 0 0)
(-2.88588e-10 -8.02721e-11 0 -1.37152e-11 2.60428e-10 0 0 0 0)
(-2.21882e-10 -3.55481e-11 0 -2.6834e-11 2.29981e-10 0 0 0 0)
(-2.00062e-10 -5.02124e-11 0 -1.78893e-11 1.98404e-10 0 0 0 0)
(-1.63389e-10 -4.92534e-11 0 -1.45554e-11 1.64703e-10 0 0 0 0)
(-1.30863e-10 -4.80889e-11 0 -1.00831e-11 1.32118e-10 0 0 0 0)
(-1.01861e-10 -4.18052e-11 0 -6.4239e-12 1.01183e-10 0 0 0 0)
(-7.90654e-11 -3.36138e-11 0 -3.1984e-12 7.65679e-11 0 0 0 0)
(-5.52401e-11 -4.04423e-11 0 -1.13841e-12 5.66768e-11 0 0 0 0)
(-1.81875e-11 -5.03628e-11 0 3.52366e-13 2.34861e-11 0 0 0 0)
(7.67073e-12 -1.13174e-11 0 2.1684e-13 -8.84411e-12 0 0 0 0)
(5.35366e-06 2.24622e-05 0 -5.6205e-06 -4.56051e-06 0 0 0 0)
(-6.02597e-06 -2.74426e-05 0 1.0568e-06 1.05076e-06 0 0 0 0)
(1.12088e-06 6.17378e-06 0 -4.6721e-07 -2.49149e-07 0 0 0 0)
(-5.07829e-07 -1.46046e-06 0 8.61975e-08 5.7019e-08 0 0 0 0)
(8.89587e-08 3.29066e-07 0 -3.11396e-08 -1.30828e-08 0 0 0 0)
(-3.41432e-08 -7.56004e-08 0 8.13469e-09 3.42474e-09 0 0 0 0)
(8.1731e-09 1.74741e-08 0 -2.0853e-09 -3.27961e-10 0 0 0 0)
(-2.51914e-09 -3.88028e-09 0 6.05337e-10 5.06754e-10 0 0 0 0)
(3.80284e-10 8.53087e-10 0 -2.3183e-10 2.79691e-10 0 0 0 0)
(-4.52438e-10 -2.57647e-10 0 -2.56143e-11 2.93633e-10 0 0 0 0)
(-2.05104e-10 -2.5518e-11 0 -7.69512e-11 2.51844e-10 0 0 0 0)
(-2.35028e-10 -8.56758e-11 0 -4.97378e-11 2.22365e-10 0 0 0 0)
(-1.85561e-10 -7.90413e-11 0 -4.22297e-11 1.89829e-10 0 0 0 0)
(-1.57345e-10 -8.30637e-11 0 -2.99782e-11 1.56941e-10 0 0 0 0)
(-1.2406e-10 -7.90199e-11 0 -2.07083e-11 1.25533e-10 0 0 0 0)
(-9.51116e-11 -6.89374e-11 0 -1.27936e-11 9.61756e-11 0 0 0 0)
(-7.44576e-11 -5.63546e-11 0 -7.48099e-12 7.25648e-11 0 0 0 0)
(-5.48877e-11 -6.66097e-11 0 -2.60209e-12 5.31315e-11 0 0 0 0)
(-1.80249e-11 -8.18386e-11 0 1.02999e-12 2.24154e-11 0 0 0 0)
(8.13152e-12 -1.87297e-11 0 4.33681e-13 -8.22257e-12 0 0 0 0)
(-7.72183e-06 -2.45754e-05 0 5.85633e-06 6.37647e-06 0 0 0 0)
(8.71294e-06 3.00384e-05 0 -1.1127e-06 -1.49791e-06 0 0 0 0)
(-1.63231e-06 -6.77224e-06 0 4.94116e-07 3.55519e-07 0 0 0 0)
(7.36188e-07 1.6033e-06 0 -9.09027e-08 -8.22284e-08 0 0 0 0)
(-1.31133e-07 -3.60696e-07 0 3.40106e-08 1.99692e-08 0 0 0 0)
(4.87912e-08 8.34634e-08 0 -8.60802e-09 -4.06249e-09 0 0 0 0)
(-1.29429e-08 -1.91327e-08 0 2.20158e-09 1.45509e-09 0 0 0 0)
(2.82936e-09 4.20591e-09 0 -8.4519e-10 1.25891e-10 0 0 0 0)
(-1.3501e-09 -1.06207e-09 0 5.60533e-11 3.75089e-10 0 0 0 0)
(-2.96258e-11 1.23236e-10 0 -1.63796e-10 2.65033e-10 0 0 0 0)
(-3.12738e-10 -1.5154e-10 0 -8.11796e-11 2.4304e-10 0 0 0 0)
(-1.8716e-10 -9.75628e-11 0 -8.08544e-11 2.06243e-10 0 0 0 0)
(-1.8033e-10 -1.15637e-10 0 -5.77067e-11 1.75504e-10 0 0 0 0)
(-1.41841e-10 -1.1355e-10 0 -4.29073e-11 1.44142e-10 0 0 0 0)
(-1.13679e-10 -1.08854e-10 0 -2.87856e-11 1.14941e-10 0 0 0 0)
(-8.86335e-11 -9.47732e-11 0 -1.81604e-11 8.78153e-11 0 0 0 0)
(-6.88739e-11 -7.6658e-11 0 -9.81203e-12 6.62667e-11 0 0 0 0)
(-4.6702e-11 -9.05917e-11 0 -3.41524e-12 4.85807e-11 0 0 0 0)
(-1.51517e-11 -1.11717e-10 0 8.67362e-13 2.04171e-11 0 0 0 0)
(6.17995e-12 -2.55102e-11 0 5.96311e-13 -7.46115e-12 0 0 0 0)
(1.00973e-05 2.73408e-05 0 -5.79755e-06 -8.00076e-06 0 0 0 0)
(-1.13882e-05 -3.34635e-05 0 1.11719e-06 1.90082e-06 0 0 0 0)
(2.14268e-06 7.58947e-06 0 -4.96233e-07 -4.54238e-07 0 0 0 0)
(-9.67934e-07 -1.79601e-06 0 9.35487e-08 1.06747e-07 0 0 0 0)
(1.71253e-07 4.07232e-07 0 -3.43966e-08 -2.45771e-08 0 0 0 0)
(-6.59522e-08 -9.41145e-08 0 8.86864e-09 6.57892e-09 0 0 0 0)
(1.5936e-08 2.16625e-08 0 -2.50944e-09 -8.69409e-10 0 0 0 0)
(-4.6647e-09 -4.96028e-09 0 5.75955e-10 7.18697e-10 0 0 0 0)
(1.06162e-09 9.92229e-10 0 -3.68818e-10 2.36842e-10 0 0 0 0)
(-5.89616e-10 -3.89696e-10 0 -1.05086e-10 2.73941e-10 0 0 0 0)
(-1.22135e-10 -8.43085e-11 0 -1.45527e-10 2.12459e-10 0 0 0 0)
(-2.11582e-10 -1.53212e-10 0 -9.75782e-11 1.84681e-10 0 0 0 0)
(-1.47641e-10 -1.41142e-10 0 -7.73036e-11 1.54511e-10 0 0 0 0)
(-1.28451e-10 -1.43626e-10 0 -5.41559e-11 1.26717e-10 0 0 0 0)
(-9.92587e-11 -1.35347e-10 0 -3.65918e-11 1.00754e-10 0 0 0 0)
(-7.6111e-11 -1.17612e-10 0 -2.25785e-11 7.691e-11 0 0 0 0)
(-5.97395e-11 -9.55893e-11 0 -1.27936e-11 5.79659e-11 0 0 0 0)
(-4.42083e-11 -1.12459e-10 0 -4.66207e-12 4.2231e-11 0 0 0 0)
(-1.40404e-11 -1.3788e-10 0 1.24683e-12 1.78334e-11 0 0 0 0)
(6.69495e-12 -3.16856e-11 0 7.86047e-13 -6.50887e-12 0 0 0 0)
(-1.24022e-05 -3.06753e-05 0 5.47943e-06 8.97977e-06 0 0 0 0)
(1.40143e-05 3.75849e-05 0 -1.09211e-06 -2.20467e-06 0 0 0 0)
(-2.65596e-06 -8.56631e-06 0 5.03863e-07 5.34317e-07 0 0 0 0)
(1.19802e-06 2.03296e-06 0 -9.27322e-08 -1.22425e-07 0 0 0 0)
(-2.15813e-07 -4.60864e-07 0 3.68532e-08 3.25202e-08 0 0 0 0)
(8.06782e-08 1.07171e-07 0 -9.53426e-09 -6.20386e-09 0 0 0 0)
(-2.12355e-08 -2.49929e-08 0 2.17049e-09 2.26413e-09 0 0 0 0)
(4.96998e-09 5.31216e-09 0 -1.16156e-09 -5.28795e-11 0 0 0 0)
(-2.0312e-09 -1.50682e-09 0 -7.25602e-11 3.59554e-10 0 0 0 0)
(1.93666e-10 9.88525e-11 0 -2.72894e-10 1.91259e-10 0 0 0 0)
(-3.0523e-10 -2.408e-10 0 -1.46638e-10 1.84201e-10 0 0 0 0)
(-1.18883e-10 -1.55511e-10 0 -1.28153e-10 1.50518e-10 0 0 0 0)
(-1.36881e-10 -1.73601e-10 0 -8.9528e-11 1.27937e-10 0 0 0 0)
(-1.01156e-10 -1.67306e-10 0 -6.451e-11 1.04514e-10 0 0 0 0)
(-8.21012e-11 -1.58661e-10 0 -4.27447e-11 8.32566e-11 0 0 0 0)
(-6.48624e-11 -1.37561e-10 0 -2.65901e-11 6.35156e-11 0 0 0 0)
(-5.09304e-11 -1.11337e-10 0 -1.44741e-11 4.77916e-11 0 0 0 0)
(-3.26616e-11 -1.30724e-10 0 -5.04154e-12 3.48846e-11 0 0 0 0)
(-9.75782e-12 -1.60457e-10 0 1.24683e-12 1.46553e-11 0 0 0 0)
(4.17418e-12 -3.68348e-11 0 7.58942e-13 -5.4045e-12 0 0 0 0)
(1.44846e-05 3.41159e-05 0 -3.85107e-06 -8.07803e-06 0 0 0 0)
(-1.63638e-05 -4.1909e-05 0 8.1999e-07 2.20835e-06 0 0 0 0)
(3.14205e-06 9.67171e-06 0 -3.98627e-07 -5.14362e-07 0 0 0 0)
(-1.43494e-06 -2.2978e-06 0 7.30398e-08 1.38688e-07 0 0 0 0)
(2.54451e-07 5.23453e-07 0 -3.46582e-08 -3.23698e-08 0 0 0 0)
(-1.00635e-07 -1.24371e-07 0 6.71612e-09 8.64229e-09 0 0 0 0)
(2.43086e-08 2.78135e-08 0 -3.17151e-09 -1.75823e-09 0 0 0 0)
(-6.90772e-09 -6.86485e-09 0 2.86121e-10 7.05157e-10 0 0 0 0)
(1.95029e-09 1.23637e-09 0 -5.29145e-10 5.8144e-11 0 0 0 0)
(-6.63694e-10 -5.65048e-10 0 -1.89139e-10 1.78648e-10 0 0 0 0)
(2.26056e-11 -1.25049e-10 0 -2.03125e-10 1.22665e-10 0 0 0 0)
(-1.54499e-10 -2.09476e-10 0 -1.34549e-10 1.13553e-10 0 0 0 0)
(-8.39986e-11 -1.87145e-10 0 -1.02538e-10 9.50392e-11 0 0 0 0)
(-8.16404e-11 -1.88307e-10 0 -7.07171e-11 7.89253e-11 0 0 0 0)
(-6.13116e-11 -1.76345e-10 0 -4.72441e-11 6.30909e-11 0 0 0 0)
(-4.78946e-11 -1.53077e-10 0 -2.89482e-11 4.83434e-11 0 0 0 0)
(-3.8191e-11 -1.2422e-10 0 -1.5992e-11 3.64655e-11 0 0 0 0)
(-2.84874e-11 -1.45596e-10 0 -5.71917e-12 2.64581e-11 0 0 0 0)
(-8.13152e-12 -1.7817e-10 0 1.38236e-12 1.11755e-11 0 0 0 0)
(4.60786e-12 -4.09364e-11 0 8.94467e-13 -4.21508e-12 0 0 0 0)
(-1.54333e-05 -3.6545e-05 0 1.39477e-06 6.17614e-06 0 0 0 0)
(1.74667e-05 4.51486e-05 0 -3.76055e-07 -1.78408e-06 0 0 0 0)
(-3.40291e-06 -1.0636e-05 0 1.67804e-07 4.14111e-07 0 0 0 0)
(1.56199e-06 2.51495e-06 0 -4.83028e-08 -1.20167e-07 0 0 0 0)
(-2.82136e-07 -5.9091e-07 0 1.66794e-08 2.86794e-08 0 0 0 0)
(1.12165e-07 1.37783e-07 0 -6.37706e-09 -7.85785e-09 0 0 0 0)
(-2.76656e-08 -3.29301e-08 0 1.01893e-09 2.02549e-09 0 0 0 0)
(7.61232e-09 7.12853e-09 0 -1.03398e-09 -4.54705e-10 0 0 0 0)
(-2.5064e-09 -2.03333e-09 0 -1.95156e-10 2.04011e-10 0 0 0 0)
(5.19631e-10 1.63374e-10 0 -3.08618e-10 4.16125e-11 0 0 0 0)
(-2.50613e-10 -3.05896e-10 0 -1.81306e-10 8.17889e-11 0 0 0 0)
(-1.82959e-11 -1.83137e-10 0 -1.49403e-10 6.56476e-11 0 0 0 0)
(-7.30752e-11 -2.08228e-10 0 -1.04517e-10 6.07075e-11 0 0 0 0)
(-4.58346e-11 -1.99254e-10 0 -7.44847e-11 5.08043e-11 0 0 0 0)
(-4.03323e-11 -1.89243e-10 0 -4.90059e-11 4.14463e-11 0 0 0 0)
(-3.36645e-11 -1.64187e-10 0 -3.02492e-11 3.19595e-11 0 0 0 0)
(-2.76743e-11 -1.33222e-10 0 -1.64257e-11 2.42117e-11 0 0 0 0)
(-1.52601e-11 -1.56014e-10 0 -5.74627e-12 1.7766e-11 0 0 0 0)
(-3.1984e-12 -1.9113e-10 0 1.38236e-12 7.41578e-12 0 0 0 0)
(1.95156e-12 -4.37951e-11 0 8.40257e-13 -3.00975e-12 0 0 0 0)
(1.55033e-05 3.85079e-05 0 4.61763e-07 -5.16285e-06 0 0 0 0)
(-1.75907e-05 -4.7671e-05 0 -3.66419e-08 1.38803e-06 0 0 0 0)
(3.4698e-06 1.13356e-05 0 1.93813e-08 -3.36064e-07 0 0 0 0)
(-1.58607e-06 -2.68323e-06 0 4.32445e-09 8.91048e-08 0 0 0 0)
(2.96377e-07 6.35763e-07 0 -2.76938e-09 -2.41474e-08 0 0 0 0)
(-1.16295e-07 -1.51024e-07 0 4.23001e-10 5.66561e-09 0 0 0 0)
(2.96517e-08 3.52166e-08 0 -9.3076e-10 -1.89916e-09 0 0 0 0)
(-8.12181e-09 -8.68634e-09 0 -2.35841e-10 3.47851e-10 0 0 0 0)
(2.6757e-09 1.73269e-09 0 -3.64644e-10 -1.44539e-10 0 0 0 0)
(-6.49844e-10 -6.8727e-10 0 -2.2508e-10 3.66112e-11 0 0 0 0)
(1.81794e-10 -1.01014e-10 0 -1.9372e-10 1.00968e-11 0 0 0 0)
(-7.76831e-11 -2.30558e-10 0 -1.39971e-10 2.62765e-11 0 0 0 0)
(-9.05309e-12 -2.01989e-10 0 -1.04761e-10 2.41256e-11 0 0 0 0)
(-2.61564e-11 -2.07568e-10 0 -7.32108e-11 2.28087e-11 0 0 0 0)
(-1.71304e-11 -1.9519e-10 0 -4.87891e-11 1.92302e-11 0 0 0 0)
(-1.5233e-11 -1.70312e-10 0 -2.98156e-11 1.53469e-11 0 0 0 0)
(-1.37152e-11 -1.38414e-10 0 -1.61546e-11 1.18973e-11 0 0 0 0)
(-1.07065e-11 -1.62392e-10 0 -5.61075e-12 8.78513e-12 0 0 0 0)
(-1.54499e-12 -1.98945e-10 0 1.40946e-12 3.76233e-12 0 0 0 0)
(2.38524e-12 -4.53424e-11 0 8.40257e-13 -1.79685e-12 0 0 0 0)
(-1.50082e-05 -4.03198e-05 0 -1.46527e-06 4.63104e-06 0 0 0 0)
(1.70243e-05 4.99754e-05 0 2.63943e-07 -1.20198e-06 0 0 0 0)
(-3.36194e-06 -1.19349e-05 0 -1.21691e-07 2.86524e-07 0 0 0 0)
(1.53984e-06 2.82687e-06 0 2.0207e-08 -7.6594e-08 0 0 0 0)
(-2.86038e-07 -6.74349e-07 0 -7.77633e-09 1.83257e-08 0 0 0 0)
(1.14004e-07 1.60031e-07 0 1.44755e-09 -5.28624e-09 0 0 0 0)
(-2.83244e-08 -3.82478e-08 0 -7.32406e-10 1.06014e-09 0 0 0 0)
(8.17841e-09 8.88315e-09 0 -1.69108e-10 -4.76718e-10 0 0 0 0)
(-2.49562e-09 -2.34457e-09 0 -2.78152e-10 2.88841e-12 0 0 0 0)
(6.90501e-10 3.1801e-10 0 -2.06269e-10 -7.33076e-11 0 0 0 0)
(-1.65503e-10 -3.1623e-10 0 -1.70708e-10 -2.1821e-11 0 0 0 0)
(7.069e-11 -1.69108e-10 0 -1.31161e-10 -1.73592e-11 0 0 0 0)
(-6.28837e-12 -2.11696e-10 0 -9.7795e-11 -7.90564e-12 0 0 0 0)
(1.01102e-11 -2.0415e-10 0 -6.95787e-11 -4.47763e-12 0 0 0 0)
(3.06287e-12 -1.96705e-10 0 -4.62954e-11 -2.06197e-12 0 0 0 0)
(-1.0571e-12 -1.7152e-10 0 -2.84332e-11 -9.97736e-13 0 0 0 0)
(-3.46945e-12 -1.39784e-10 0 -1.54228e-11 -3.42025e-13 0 0 0 0)
(2.35814e-12 -1.64149e-10 0 -5.12286e-12 2.78191e-13 0 0 0 0)
(3.2255e-12 -2.01712e-10 0 1.51788e-12 2.22348e-13 0 0 0 0)
(-2.98156e-13 -4.57606e-11 0 7.58942e-13 -6.14169e-13 0 0 0 0)
(1.4302e-05 4.1937e-05 0 2.19534e-06 -4.20916e-06 0 0 0 0)
(-1.62471e-05 -5.20155e-05 0 -4.18952e-07 1.0714e-06 0 0 0 0)
(3.22607e-06 1.2461e-05 0 1.92084e-07 -2.55919e-07 0 0 0 0)
(-1.47215e-06 -2.95143e-06 0 -3.4637e-08 6.51163e-08 0 0 0 0)
(2.77618e-07 7.0707e-07 0 1.32657e-08 -1.66304e-08 0 0 0 0)
(-1.09252e-07 -1.6829e-07 0 -3.4724e-09 3.76048e-09 0 0 0 0)
(2.80351e-08 4.00261e-08 0 6.56268e-10 -1.29515e-09 0 0 0 0)
(-7.66756e-09 -9.74359e-09 0 -5.05103e-10 9.83827e-11 0 0 0 0)
(2.63851e-09 2.1361e-09 0 -1.41868e-10 -1.89336e-10 0 0 0 0)
(-5.42372e-10 -7.1198e-10 0 -1.98246e-10 -6.85489e-11 0 0 0 0)
(2.56902e-10 -4.50661e-11 0 -1.42952e-10 -6.9461e-11 0 0 0 0)
(-4.79759e-12 -2.16642e-10 0 -1.1853e-10 -4.77902e-11 0 0 0 0)
(5.25025e-11 -1.89107e-10 0 -8.82812e-11 -3.81214e-11 0 0 0 0)
(2.53432e-11 -2.01725e-10 0 -6.3724e-11 -2.8904e-11 0 0 0 0)
(2.3988e-11 -1.9171e-10 0 -4.26091e-11 -2.2009e-11 0 0 0 0)
(1.56667e-11 -1.68592e-10 0 -2.61022e-11 -1.62212e-11 0 0 0 0)
(9.6494e-12 -1.37138e-10 0 -1.38778e-11 -1.1705e-11 0 0 0 0)
(6.20706e-12 -1.61827e-10 0 -4.58075e-12 -7.87603e-12 0 0 0 0)
(4.3097e-12 -1.99838e-10 0 1.38236e-12 -2.91907e-12 0 0 0 0)
(1.35525e-13 -4.49506e-11 0 6.50521e-13 5.10556e-13 0 0 0 0)
(-1.32318e-05 -4.34576e-05 0 -2.72145e-06 3.8313e-06 0 0 0 0)
(1.50211e-05 5.39286e-05 0 5.31878e-07 -9.62911e-07 0 0 0 0)
(-2.97762e-06 -1.29412e-05 0 -2.4063e-07 2.28523e-07 0 0 0 0)
(1.36102e-06 3.06616e-06 0 4.55775e-08 -5.80574e-08 0 0 0 0)
(-2.54873e-07 -7.35705e-07 0 -1.7474e-08 1.38195e-08 0 0 0 0)
(1.01394e-07 1.75366e-07 0 4.33456e-09 -3.75031e-09 0 0 0 0)
(-2.53571e-08 -4.19099e-08 0 -1.37499e-09 6.91026e-10 0 0 0 0)
(7.38022e-09 9.98897e-09 0 2.26409e-10 -3.86768e-10 0 0 0 0)
(-2.18876e-09 -2.5115e-09 0 -2.61618e-10 -7.82364e-11 0 0 0 0)
(6.89444e-10 4.37885e-10 0 -1.21051e-10 -1.26055e-10 0 0 0 0)
(-8.58146e-11 -2.95472e-10 0 -1.35851e-10 -8.84605e-11 0 0 0 0)
(1.25415e-10 -1.37769e-10 0 -1.01129e-10 -7.75909e-11 0 0 0 0)
(4.84909e-11 -1.9281e-10 0 -7.97973e-11 -6.28301e-11 0 0 0 0)
(5.58635e-11 -1.88037e-10 0 -5.72188e-11 -5.09181e-11 0 0 0 0)
(4.06847e-11 -1.84022e-10 0 -3.87602e-11 -3.99473e-11 0 0 0 0)
(2.76743e-11 -1.61216e-10 0 -2.3988e-11 -3.02739e-11 0 0 0 0)
(1.80249e-11 -1.31439e-10 0 -1.30917e-11 -2.22904e-11 0 0 0 0)
(1.75912e-11 -1.55363e-10 0 -4.25549e-12 -1.51535e-11 0 0 0 0)
(8.48388e-12 -1.93325e-10 0 1.65341e-12 -5.90479e-12 0 0 0 0)
(-2.35814e-12 -4.33521e-11 0 6.77626e-13 1.6091e-12 0 0 0 0)
(1.21124e-05 4.48054e-05 0 3.12369e-06 -3.44048e-06 0 0 0 0)
(-1.37663e-05 -5.56183e-05 0 -6.1271e-07 8.58899e-07 0 0 0 0)
(2.73977e-06 1.33659e-05 0 2.77598e-07 -2.04173e-07 0 0 0 0)
(-1.249e-06 -3.16613e-06 0 -5.24761e-08 5.09097e-08 0 0 0 0)
(2.36375e-07 7.61377e-07 0 2.03361e-08 -1.26196e-08 0 0 0 0)
(-9.31525e-08 -1.81418e-07 0 -5.24079e-09 2.89283e-09 0 0 0 0)
(2.39269e-08 4.33897e-08 0 1.32273e-09 -9.41845e-10 0 0 0 0)
(-6.55416e-09 -1.05128e-08 0 -6.06909e-10 3.50378e-11 0 0 0 0)
(2.29103e-09 2.39681e-09 0 -2.53974e-11 -1.90749e-10 0 0 0 0)
(-4.16578e-10 -7.22204e-10 0 -1.63796e-10 -1.15704e-10 0 0 0 0)
(2.76797e-10 3.39827e-12 0 -1.0121e-10 -1.16828e-10 0 0 0 0)
(5.12286e-11 -1.91012e-10 0 -9.32956e-11 -9.84479e-11 0 0 0 0)
(9.64398e-11 -1.62434e-10 0 -6.92263e-11 -8.50015e-11 0 0 0 0)
(6.63532e-11 -1.78842e-10 0 -5.12828e-11 -6.99093e-11 0 0 0 0)
(5.7273e-11 -1.71066e-10 0 -3.45589e-11 -5.59506e-11 0 0 0 0)
(4.13081e-11 -1.50935e-10 0 -2.15756e-11 -4.26893e-11 0 0 0 0)
(2.93548e-11 -1.22017e-10 0 -1.14654e-11 -3.16449e-11 0 0 0 0)
(2.09522e-11 -1.45442e-10 0 -3.71339e-12 -2.20934e-11 0 0 0 0)
(9.26993e-12 -1.83075e-10 0 1.40946e-12 -8.69463e-12 0 0 0 0)
(-2.19551e-12 -4.06549e-11 0 7.58942e-13 2.78301e-12 0 0 0 0)
(-1.07208e-05 -4.60391e-05 0 -3.49053e-06 3.03918e-06 0 0 0 0)
(1.2175e-05 5.71649e-05 0 6.9314e-07 -7.50891e-07 0 0 0 0)
(-2.41739e-06 -1.37492e-05 0 -3.11028e-07 1.7815e-07 0 0 0 0)
(1.10376e-06 3.25771e-06 0 6.03609e-08 -4.41705e-08 0 0 0 0)
(-2.07638e-07 -7.83721e-07 0 -2.30965e-08 1.06114e-08 0 0 0 0)
(8.23809e-08 1.87044e-07 0 5.89142e-09 -2.73567e-09 0 0 0 0)
(-2.07233e-08 -4.47677e-08 0 -1.7785e-09 5.16945e-10 0 0 0 0)
(6.03209e-09 1.07401e-08 0 4.13813e-10 -3.05928e-10 0 0 0 0)
(-1.74565e-09 -2.66225e-09 0 -2.601e-10 -1.0679e-10 0 0 0 0)
(6.13631e-10 5.11807e-10 0 -7.44576e-11 -1.51977e-10 0 0 0 0)
(-1.52601e-11 -2.78215e-10 0 -1.11104e-10 -1.29428e-10 0 0 0 0)
(1.57372e-10 -1.05942e-10 0 -7.80626e-11 -1.19647e-10 0 0 0 0)
(9.05038e-11 -1.64271e-10 0 -6.38324e-11 -1.03621e-10 0 0 0 0)
(9.05038e-11 -1.58986e-10 0 -4.57533e-11 -8.68686e-11 0 0 0 0)
(7.03918e-11 -1.56802e-10 0 -3.13877e-11 -6.9969e-11 0 0 0 0)
(5.07678e-11 -1.3691e-10 0 -1.96783e-11 -5.37701e-11 0 0 0 0)
(3.58871e-11 -1.10843e-10 0 -1.1357e-11 -4.02669e-11 0 0 0 0)
(3.04661e-11 -1.32413e-10 0 -3.87602e-12 -2.84098e-11 0 0 0 0)
(1.29291e-11 -1.68449e-10 0 1.76183e-12 -1.14806e-11 0 0 0 0)
(-4.49944e-12 -3.74405e-11 0 8.40257e-13 4.03544e-12 0 0 0 0)
(9.31505e-06 4.70937e-05 0 3.65615e-06 -2.61075e-06 0 0 0 0)
(-1.05868e-05 -5.84793e-05 0 -7.2323e-07 6.35494e-07 0 0 0 0)
(2.10699e-06 1.40726e-05 0 3.26416e-07 -1.50253e-07 0 0 0 0)
(-9.61065e-07 -3.33367e-06 0 -6.27274e-08 3.67476e-08 0 0 0 0)
(1.81905e-07 8.02812e-07 0 2.42271e-08 -8.74529e-09 0 0 0 0)
(-7.18345e-08 -1.91513e-07 0 -6.32385e-09 2.06065e-09 0 0 0 0)
(1.84494e-08 4.58194e-08 0 1.63194e-09 -6.17628e-10 0 0 0 0)
(-5.03577e-09 -1.11366e-08 0 -6.96871e-10 -1.59462e-11 0 0 0 0)
(1.80276e-09 2.55076e-09 0 1.85128e-11 -1.83262e-10 0 0 0 0)
(-2.67554e-10 -7.44842e-10 0 -1.52195e-10 -1.48728e-10 0 0 0 0)
(2.73219e-10 3.57285e-11 0 -7.90925e-11 -1.5083e-10 0 0 0 0)
(9.84998e-11 -1.65205e-10 0 -7.65718e-11 -1.36521e-10 0 0 0 0)
(1.28695e-10 -1.29656e-10 0 -5.50504e-11 -1.20873e-10 0 0 0 0)
(9.87437e-11 -1.4519e-10 0 -4.10099e-11 -1.01874e-10 0 0 0 0)
(8.33751e-11 -1.37968e-10 0 -2.78369e-11 -8.2565e-11 0 0 0 0)
(6.13658e-11 -1.21233e-10 0 -1.7808e-11 -6.37353e-11 0 0 0 0)
(4.5157e-11 -9.66571e-11 0 -9.86624e-12 -4.80498e-11 0 0 0 0)
(3.40711e-11 -1.16655e-10 0 -3.49655e-12 -3.46179e-11 0 0 0 0)
(1.39862e-11 -1.5063e-10 0 1.13841e-12 -1.43163e-11 0 0 0 0)
(-4.79759e-12 -3.32097e-11 0 7.86047e-13 5.28327e-12 0 0 0 0)
(-7.78786e-06 -4.80144e-05 0 -3.70408e-06 2.18744e-06 0 0 0 0)
(8.84524e-06 5.96254e-05 0 7.29205e-07 -5.35809e-07 0 0 0 0)
(-1.75689e-06 -1.43479e-05 0 -3.29684e-07 1.27785e-07 0 0 0 0)
(8.01573e-07 3.39922e-06 0 6.31584e-08 -3.08371e-08 0 0 0 0)
(-1.51235e-07 -8.18408e-07 0 -2.45476e-08 7.70501e-09 0 0 0 0)
(5.97857e-08 1.95172e-07 0 6.10758e-09 -1.84357e-09 0 0 0 0)
(-1.50963e-08 -4.68443e-08 0 -1.92316e-09 3.4968e-10 0 0 0 0)
(4.41875e-09 1.11744e-08 0 4.14924e-10 -2.63435e-10 0 0 0 0)
(-1.201e-09 -2.79503e-09 0 -2.69885e-10 -1.47175e-10 0 0 0 0)
(5.15945e-10 5.44238e-10 0 -6.35614e-11 -1.85251e-10 0 0 0 0)
(6.0363e-11 -2.66008e-10 0 -9.70361e-11 -1.69349e-10 0 0 0 0)
(1.81387e-10 -7.59844e-11 0 -6.27482e-11 -1.57408e-10 0 0 0 0)
(1.26039e-10 -1.29624e-10 0 -5.04425e-11 -1.38385e-10 0 0 0 0)
(1.17771e-10 -1.20679e-10 0 -3.53721e-11 -1.16822e-10 0 0 0 0)
(9.35666e-11 -1.18664e-10 0 -2.41777e-11 -9.45841e-11 0 0 0 0)
(6.87926e-11 -1.02395e-10 0 -1.51788e-11 -7.28591e-11 0 0 0 0)
(5.02257e-11 -8.17256e-11 0 -8.83625e-12 -5.48216e-11 0 0 0 0)
(4.14436e-11 -9.86795e-11 0 -2.98156e-12 -3.96875e-11 0 0 0 0)
(1.72117e-11 -1.28548e-10 0 1.27394e-12 -1.66487e-11 0 0 0 0)
(-6.4239e-12 -2.84075e-11 0 6.23416e-13 6.21983e-12 0 0 0 0)
(6.34018e-06 4.87453e-05 0 4.07644e-06 -1.75756e-06 0 0 0 0)
(-7.21243e-06 -6.0539e-05 0 -8.18636e-07 4.28897e-07 0 0 0 0)
(1.44094e-06 1.45776e-05 0 3.65027e-07 -1.00199e-07 0 0 0 0)
(-6.55929e-07 -3.45375e-06 0 -7.21363e-08 2.56506e-08 0 0 0 0)
(1.24854e-07 8.31806e-07 0 2.70299e-08 -5.8733e-09 0 0 0 0)
(-4.92101e-08 -1.98868e-07 0 -7.42215e-09 1.48071e-09 0 0 0 0)
(1.27567e-08 4.73996e-08 0 1.77088e-09 -5.08997e-10 0 0 0 0)
(-3.38249e-09 -1.16334e-08 0 -8.19765e-10 -9.12359e-11 0 0 0 0)
(1.32433e-09 2.62894e-09 0 2.968e-11 -2.28153e-10 0 0 0 0)
(-9.4678e-11 -7.67016e-10 0 -1.4924e-10 -1.95036e-10 0 0 0 0)
(2.74005e-10 6.35716e-11 0 -6.04714e-11 -1.9134e-10 0 0 0 0)
(1.45039e-10 -1.34241e-10 0 -5.86282e-11 -1.71253e-10 0 0 0 0)
(1.56125e-10 -8.90694e-11 0 -3.8191e-11 -1.5059e-10 0 0 0 0)
(1.25063e-10 -1.01389e-10 0 -2.7349e-11 -1.26091e-10 0 0 0 0)
(1.03568e-10 -9.40047e-11 0 -1.72117e-11 -1.01681e-10 0 0 0 0)
(7.66531e-11 -8.14702e-11 0 -9.86624e-12 -7.77304e-11 0 0 0 0)
(5.7273e-11 -6.34856e-11 0 -3.95734e-12 -5.86003e-11 0 0 0 0)
(4.42897e-11 -7.84824e-11 0 -3.52366e-13 -4.30195e-11 0 0 0 0)
(1.75641e-11 -1.04723e-10 0 9.75782e-13 -1.81111e-11 0 0 0 0)
(-6.69495e-12 -2.27809e-11 0 1.89735e-13 6.75982e-12 0 0 0 0)
(-4.53005e-06 -4.93431e-05 0 -3.82526e-06 1.29298e-06 0 0 0 0)
(5.13382e-06 6.12828e-05 0 7.55545e-07 -2.9089e-07 0 0 0 0)
(-1.01039e-06 -1.47512e-05 0 -3.46014e-07 6.86173e-08 0 0 0 0)
(4.63576e-07 3.49354e-06 0 6.58733e-08 -1.40628e-08 0 0 0 0)
(-8.65204e-08 -8.42578e-07 0 -2.69829e-08 3.16852e-09 0 0 0 0)
(3.45266e-08 2.00536e-07 0 6.37557e-09 -7.50958e-10 0 0 0 0)
(-8.49386e-09 -4.84163e-08 0 -2.253e-09 -1.45439e-10 0 0 0 0)
(2.67749e-09 1.14553e-08 0 4.31133e-10 -2.64583e-10 0 0 0 0)
(-5.30554e-10 -2.89883e-09 0 -2.94496e-10 -2.48576e-10 0 0 0 0)
(4.25793e-10 5.81051e-10 0 -4.14436e-11 -2.29258e-10 0 0 0 0)
(1.51029e-10 -2.42226e-10 0 -7.89299e-11 -2.11438e-10 0 0 0 0)
(2.03749e-10 -3.52343e-11 0 -4.23923e-11 -1.87857e-10 0 0 0 0)
(1.57318e-10 -8.44612e-11 0 -3.44776e-11 -1.63533e-10 0 0 0 0)
(1.38724e-10 -7.17699e-11 0 -2.27411e-11 -1.36512e-10 0 0 0 0)
(1.11022e-10 -7.03034e-11 0 -1.50975e-11 -1.10003e-10 0 0 0 0)
(8.20741e-11 -5.93139e-11 0 -9.59519e-12 -8.46911e-11 0 0 0 0)
(5.97124e-11 -4.70146e-11 0 -6.74916e-12 -6.45684e-11 0 0 0 0)
(4.64039e-11 -5.81903e-11 0 -2.41235e-12 -4.64806e-11 0 0 0 0)
(1.77538e-11 -7.87684e-11 0 1.54499e-12 -1.80273e-11 0 0 0 0)
(-7.61652e-12 -1.70562e-11 0 5.96311e-13 7.56499e-12 0 0 0 0)
(3.27046e-06 4.97474e-05 0 3.58379e-06 -9.56423e-07 0 0 0 0)
(-3.73319e-06 -6.17633e-05 0 -6.42873e-07 3.34656e-07 0 0 0 0)
(7.51271e-07 1.48544e-05 0 2.94131e-07 -8.1466e-08 0 0 0 0)
(-3.36898e-07 -3.5192e-06 0 -5.12993e-08 2.45535e-08 0 0 0 0)
(6.53565e-08 8.45118e-07 0 1.90312e-08 -7.40497e-09 0 0 0 0)
(-2.44802e-08 -2.02182e-07 0 -5.40838e-09 1.36133e-09 0 0 0 0)
(6.81226e-09 4.78859e-08 0 9.78655e-10 -9.34582e-10 0 0 0 0)
(-1.42394e-09 -1.17366e-08 0 -5.80373e-10 -2.08223e-10 0 0 0 0)
(8.51776e-10 2.66427e-09 0 -8.78204e-12 -3.45352e-10 0 0 0 0)
(1.20834e-10 -7.29878e-10 0 -9.92587e-11 -2.59126e-10 0 0 0 0)
(2.73002e-10 1.04973e-10 0 -4.34765e-11 -2.41563e-10 0 0 0 0)
(1.89519e-10 -8.63358e-11 0 -4.10099e-11 -2.08358e-10 0 0 0 0)
(1.75803e-10 -3.77247e-11 0 -2.98427e-11 -1.80024e-10 0 0 0 0)
(1.44416e-10 -4.78594e-11 0 -2.40964e-11 -1.49233e-10 0 0 0 0)
(1.16714e-10 -4.21834e-11 0 -1.92446e-11 -1.2014e-10 0 0 0 0)
(8.50286e-11 -3.60356e-11 0 -1.7022e-11 -9.29741e-11 0 0 0 0)
(6.45371e-11 -2.5275e-11 0 -1.41488e-11 -7.11432e-11 0 0 0 0)
(5.24754e-11 -3.19413e-11 0 -6.88468e-12 -5.17689e-11 0 0 0 0)
(2.05727e-11 -5.0677e-11 0 1.32815e-12 -2.12266e-11 0 0 0 0)
(-8.83625e-12 -1.23185e-11 0 1.78893e-12 9.38298e-12 0 0 0 0)
(-1.58914e-06 -4.99648e-05 0 -2.04369e-06 4.47642e-07 0 0 0 0)
(1.84417e-06 6.21577e-05 0 3.62372e-07 -2.30215e-07 0 0 0 0)
(-4.18816e-07 -1.50613e-05 0 -1.54674e-07 5.32525e-08 0 0 0 0)
(1.88477e-07 3.5676e-06 0 2.99165e-08 -2.33322e-08 0 0 0 0)
(-4.06294e-08 -8.6577e-07 0 -6.25268e-09 4.85194e-09 0 0 0 0)
(1.6474e-08 2.07006e-07 0 5.18945e-09 -2.67934e-09 0 0 0 0)
(-3.66588e-09 -4.99858e-08 0 1.75348e-09 2.78603e-11 0 0 0 0)
(1.69003e-09 1.20445e-08 0 2.04307e-09 -5.79461e-10 0 0 0 0)
(-4.93854e-11 -2.94973e-09 0 1.48739e-09 -2.80069e-10 0 0 0 0)
(3.91099e-10 6.8484e-10 0 1.24071e-09 -2.93997e-10 0 0 0 0)
(2.09305e-10 -1.91458e-10 0 9.75402e-10 -2.3503e-10 0 0 0 0)
(2.17328e-10 2.63054e-11 0 7.58427e-10 -2.07511e-10 0 0 0 0)
(1.74285e-10 -2.53358e-11 0 5.68529e-10 -1.75e-10 0 0 0 0)
(1.49295e-10 -1.1886e-11 0 4.08419e-10 -1.44451e-10 0 0 0 0)
(1.18124e-10 -1.40442e-11 0 2.74764e-10 -1.15254e-10 0 0 0 0)
(8.71427e-11 -1.03175e-11 0 1.73608e-10 -8.82229e-11 0 0 0 0)
(6.98497e-11 -5.80943e-12 0 1.0262e-10 -6.89011e-11 0 0 0 0)
(6.18537e-11 -8.2737e-12 0 3.9221e-11 -5.71385e-11 0 0 0 0)
(2.64274e-11 -1.76165e-11 0 -1.17636e-11 -2.86861e-11 0 0 0 0)
(-1.07065e-11 -5.21255e-12 0 -7.80626e-12 1.1155e-11 0 0 0 0)
)
;

boundaryField
{
    movingWall
    {
        type            extrapolatedCalculated;
        value           nonuniform List<tensor> 
20
(
(-1.58914e-06 -4.99648e-05 0 8.20683e-06 0.00026378 0 0 0 0)
(1.84417e-06 6.21577e-05 0 -1.85027e-06 -6.39209e-05 0 0 0 0)
(-4.18816e-07 -1.50613e-05 0 8.30165e-07 1.51493e-05 0 0 0 0)
(1.88477e-07 3.5676e-06 0 -1.75005e-07 -3.67583e-06 0 0 0 0)
(-4.06294e-08 -8.6577e-07 0 7.62586e-08 8.78894e-07 0 0 0 0)
(1.6474e-08 2.07006e-07 0 -1.24873e-08 -2.12748e-07 0 0 0 0)
(-3.66588e-09 -4.99858e-08 0 1.03624e-08 5.08681e-08 0 0 0 0)
(1.69003e-09 1.20445e-08 0 2.17621e-09 -1.28043e-08 0 0 0 0)
(-4.93854e-11 -2.94973e-09 0 3.60227e-09 2.69012e-09 0 0 0 0)
(3.91099e-10 6.8484e-10 0 2.37375e-09 -1.00535e-09 0 0 0 0)
(2.09305e-10 -1.91458e-10 0 2.03775e-09 -4.92404e-11 0 0 0 0)
(2.17328e-10 2.63054e-11 0 1.53655e-09 -2.39521e-10 0 0 0 0)
(1.74285e-10 -2.53358e-11 0 1.16849e-09 -1.54462e-10 0 0 0 0)
(1.49295e-10 -1.1886e-11 0 8.39595e-10 -1.38178e-10 0 0 0 0)
(1.18124e-10 -1.40442e-11 0 5.71099e-10 -1.06918e-10 0 0 0 0)
(8.71427e-11 -1.03175e-11 0 3.67084e-10 -8.20009e-11 0 0 0 0)
(6.98497e-11 -5.80943e-12 0 2.22755e-10 -6.56479e-11 0 0 0 0)
(6.18537e-11 -8.2737e-12 0 8.76632e-11 -5.87632e-11 0 0 0 0)
(2.64274e-11 -1.76165e-11 0 -2.48246e-11 -3.25532e-11 0 0 0 0)
(-1.07065e-11 -5.21255e-12 0 -1.803e-11 1.1703e-11 0 0 0 0)
)
;
    }
    fixedWalls
    {
        type            extrapolatedCalculated;
        value           nonuniform List<tensor> 
60
(
(4.66375e-06 0.000105118 0 -2.71383e-06 -8.89074e-07 0 0 0 0)
(-1.55191e-05 -0.000108674 0 5.40551e-06 2.70362e-06 0 0 0 0)
(2.62858e-05 0.000115932 0 -5.6205e-06 -4.56051e-06 0 0 0 0)
(-3.80011e-05 -0.000126916 0 5.85633e-06 6.37647e-06 0 0 0 0)
(4.97111e-05 0.000141438 0 -5.79755e-06 -8.00076e-06 0 0 0 0)
(-6.11913e-05 -0.000158919 0 5.47943e-06 8.97977e-06 0 0 0 0)
(7.16289e-05 0.000177357 0 -3.85107e-06 -8.07803e-06 0 0 0 0)
(-7.65955e-05 -0.000191231 0 1.39477e-06 6.17614e-06 0 0 0 0)
(7.72079e-05 0.000202062 0 4.61763e-07 -5.16285e-06 0 0 0 0)
(-7.47485e-05 -0.000211883 0 -1.46527e-06 4.63104e-06 0 0 0 0)
(7.13469e-05 0.000220586 0 2.19534e-06 -4.20916e-06 0 0 0 0)
(-6.59671e-05 -0.000228719 0 -2.72145e-06 3.8313e-06 0 0 0 0)
(6.04611e-05 0.000235911 0 3.12369e-06 -3.44048e-06 0 0 0 0)
(-5.34724e-05 -0.000242481 0 -3.49053e-06 3.03918e-06 0 0 0 0)
(4.6499e-05 0.000248068 0 3.65615e-06 -2.61075e-06 0 0 0 0)
(-3.88478e-05 -0.000252924 0 -3.70408e-06 2.18744e-06 0 0 0 0)
(3.16827e-05 0.000256818 0 4.07644e-06 -1.75756e-06 0 0 0 0)
(-2.2542e-05 -0.000259955 0 -3.82526e-06 1.29298e-06 0 0 0 0)
(1.63816e-05 0.00026199 0 3.58379e-06 -9.56423e-07 0 0 0 0)
(-8.20683e-06 -0.00026378 0 -2.04369e-06 4.47642e-07 0 0 0 0)
(1.08358e-11 9.29987e-12 0 -5.23128e-12 -9.22696e-12 0 0 0 0)
(1.02141e-11 2.7608e-11 0 2.1684e-13 -8.84411e-12 0 0 0 0)
(9.9476e-12 4.46763e-11 0 4.33681e-13 -8.22257e-12 0 0 0 0)
(8.34888e-12 6.04982e-11 0 5.96311e-13 -7.46115e-12 0 0 0 0)
(7.54952e-12 7.45209e-11 0 7.86047e-13 -6.50887e-12 0 0 0 0)
(5.32907e-12 8.65337e-11 0 7.58942e-13 -5.4045e-12 0 0 0 0)
(4.35207e-12 9.61389e-11 0 8.94467e-13 -4.21508e-12 0 0 0 0)
(1.86517e-12 1.03394e-10 0 8.40257e-13 -3.00975e-12 0 0 0 0)
(8.88178e-13 1.08178e-10 0 8.40257e-13 -1.79685e-12 0 0 0 0)
(-1.42109e-12 1.10581e-10 0 7.58942e-13 -6.14169e-13 0 0 0 0)
(-2.13163e-12 1.10635e-10 0 6.50521e-13 5.10556e-13 0 0 0 0)
(-4.04121e-12 1.08539e-10 0 6.77626e-13 1.6091e-12 0 0 0 0)
(-4.84057e-12 1.04198e-10 0 7.58942e-13 2.78301e-12 0 0 0 0)
(-7.01661e-12 9.74072e-11 0 8.40257e-13 4.03544e-12 0 0 0 0)
(-8.26006e-12 8.80564e-11 0 7.86047e-13 5.28327e-12 0 0 0 0)
(-1.01696e-11 7.62741e-11 0 6.23416e-13 6.21983e-12 0 0 0 0)
(-1.0747e-11 6.31771e-11 0 1.89735e-13 6.75982e-12 0 0 0 0)
(-1.09246e-11 4.92349e-11 0 5.96311e-13 7.56499e-12 0 0 0 0)
(-1.3145e-11 3.29171e-11 0 1.78893e-12 9.38298e-12 0 0 0 0)
(-1.803e-11 1.1703e-11 0 -7.80626e-12 1.1155e-11 0 0 0 0)
(9.7302e-07 2.03668e-05 0 4.66375e-06 0.000105118 0 0 0 0)
(-1.07626e-06 -2.48801e-05 0 -7.71668e-07 -2.36508e-05 0 0 0 0)
(1.8112e-07 5.59713e-06 0 3.58698e-07 5.59753e-06 0 0 0 0)
(-8.30997e-08 -1.32659e-06 0 -4.71889e-08 -1.26233e-06 0 0 0 0)
(1.18879e-08 2.98871e-07 0 2.62995e-08 2.91151e-07 0 0 0 0)