/*--------------------------------*- C++ -*----------------------------------*\
| =========                 |                                                 |
| \\      /  F ield         | OpenFOAM: The Open Source CFD Toolbox           |
|  \\    /   O peration     | Version:  2312                                  |
|   \\  /    A nd           | Website:  www.openfoam.com                      |
|    \\/     M anipulation  |                                                 |
\*---------------------------------------------------------------------------*/
FoamFile
{
    version     2.0;
    format      ascii;
    arch        "LSB;label=32;scalar=64";
    class       volVectorField;
    location    "3.375";
    object      LambVectorField;
}
// * * * * * * * * * * * * * * * * * * * * * * * * * * * * * * * * * * * * * //

dimensions      [0 1 -2 0 0 0 0];

internalField   nonuniform List<vector> 
400
(
(-6.06545e-12 -2.30806e-05 -2.30806e-05)
(-1.50235e-12 2.54088e-05 -0)
(-8.15498e-14 -5.82756e-06 -5.82756e-06)
(-4.33836e-15 1.37471e-06 -0)
(-2.27307e-16 -3.12288e-07 -3.12288e-07)
(-1.26822e-17 7.58907e-08 -0)
(-5.65863e-19 -1.47566e-08 -1.47566e-08)
(-4.64299e-20 5.89834e-09 -0)
(2.03785e-21 7.586e-10 7.586e-10)
(4.26757e-22 1.58848e-09 0)
(7.81351e-22 1.05935e-09 1.05935e-09)
(4.8262e-22 8.75834e-10 0)
(3.2501e-22 6.48645e-10 6.48645e-10)
(1.94718e-22 4.71005e-10 0)
(1.07271e-22 3.21868e-10 3.21868e-10)
(5.28672e-23 2.04586e-10 0)
(2.27987e-23 1.14333e-10 1.14333e-10)
(6.42525e-24 4.59185e-11 0)
(3.32018e-25 5.17751e-12 5.17751e-12)
(2.65875e-26 -1.14356e-12 -0)
(-7.19182e-12 2.64711e-05 2.64711e-05)
(-1.63265e-12 -2.67519e-05 0)
(-8.98676e-14 6.2343e-06 6.2343e-06)
(-4.7117e-15 -1.45234e-06 0)
(-2.51174e-16 3.38178e-07 3.38178e-07)
(-1.36386e-17 -7.87479e-08 0)
(-6.52275e-19 1.83014e-08 1.83014e-08)
(-4.71956e-20 -4.27266e-09 0)
(3.37451e-22 9.87129e-10 9.87129e-10)
(-5.76868e-22 -2.25649e-10 0)
(1.23309e-22 6.65569e-11 6.65569e-11)
(1.52824e-23 8.71407e-12 0)
(4.83942e-23 3.23231e-11 3.23231e-11)
(4.34292e-23 3.4698e-11 0)
(3.81832e-23 3.80058e-11 3.80058e-11)
(2.727e-23 3.53813e-11 0)
(1.78422e-23 3.04154e-11 3.04154e-11)
(1.70818e-23 3.93039e-11 0)
(9.23998e-24 5.07151e-11 5.07151e-11)
(-7.9609e-25 1.15342e-11 -0)
(-8.13924e-12 -2.80827e-05 -2.80827e-05)
(-1.85841e-12 2.84994e-05 -0)
(-1.02306e-13 -6.64099e-06 -6.64099e-06)
(-5.36817e-15 1.54665e-06 -0)
(-2.88426e-16 -3.60206e-07 -3.60206e-07)
(-1.50862e-17 8.37351e-08 -0)
(-8.74718e-19 -1.95594e-08 -1.95594e-08)
(-2.43337e-20 4.48561e-09 -0)
(-6.42088e-21 -1.08492e-09 -1.08492e-09)
(7.207e-22 2.32032e-10 0)
(-1.71882e-22 -5.14332e-11 -5.14332e-11)
(1.02454e-22 3.5938e-11 0)
(9.14805e-23 3.68117e-11 3.68117e-11)
(1.09379e-22 5.30855e-11 0)
(9.64742e-23 5.83116e-11 5.83116e-11)
(7.13163e-23 5.61438e-11 0)
(4.71672e-23 4.88736e-11 4.88736e-11)
(4.52339e-23 6.40077e-11 0)
(2.47767e-23 8.28686e-11 8.28686e-11)
(-2.14037e-24 1.91634e-11 -0)
(-9.65569e-12 3.04317e-05 3.04317e-05)
(-2.22845e-12 -3.11511e-05 0)
(-1.22849e-13 7.26635e-06 7.26635e-06)
(-6.46235e-15 -1.6942e-06 0)
(-3.44798e-16 3.94707e-07 3.94707e-07)
(-1.90993e-17 -9.20714e-08 0)
(-8.30337e-19 2.13343e-08 2.13343e-08)
(-8.13908e-20 -5.0511e-09 0)
(3.50951e-21 1.11812e-09 1.11812e-09)
(-1.57661e-21 -2.87032e-10 0)
(3.07554e-22 7.03605e-11 7.03605e-11)
(6.64563e-23 1.67084e-11 0)
(1.96702e-22 5.79303e-11 5.79303e-11)
(1.99285e-22 7.06422e-11 0)
(1.80954e-22 8.00684e-11 8.00684e-11)
(1.32732e-22 7.66128e-11 0)
(8.77196e-23 6.6846e-11 6.6846e-11)
(8.42057e-23 8.71765e-11 0)
(4.57483e-23 1.12584e-10 1.12584e-10)
(-3.9485e-24 2.61065e-11 -0)
(-1.17176e-11 -3.31383e-05 -3.31383e-05)
(-2.77295e-12 3.45807e-05 -0)
(-1.53309e-13 -8.0857e-06 -8.0857e-06)
(-8.11207e-15 1.88955e-06 -0)
(-4.41813e-16 -4.41629e-07 -4.41629e-07)
(-2.27377e-17 1.02983e-07 -0)
(-1.43272e-18 -2.41719e-08 -2.41719e-08)
(-2.30635e-20 5.53623e-09 -0)
(-1.31603e-20 -1.36105e-09 -1.36105e-09)
(1.63832e-21 2.84609e-10 0)
(-3.53369e-22 -6.12185e-11 -6.12185e-11)
(2.73344e-22 5.56337e-11 0)
(2.70684e-22 6.38385e-11 6.38385e-11)
(3.13314e-22 8.94706e-11 0)
(2.76896e-22 9.87548e-11 9.87548e-11)
(2.0417e-22 9.50336e-11 0)
(1.34771e-22 8.27957e-11 8.27957e-11)
(1.28549e-22 1.07797e-10 0)
(7.00031e-23 1.39127e-10 1.39127e-10)
(-6.04954e-24 3.24717e-11 -0)
(-1.43642e-11 3.61547e-05 3.61548e-05)
(-3.50201e-12 -3.8677e-05 0)
(-1.94545e-13 9.07017e-06 9.07017e-06)
(-1.03773e-14 -2.12569e-06 0)
(-5.57108e-16 4.97717e-07 4.97717e-07)
(-3.18874e-17 -1.16705e-07 0)
(-1.29337e-18 2.71634e-08 2.71634e-08)
(-1.50841e-19 -6.47372e-09 0)
(7.89875e-21 1.43426e-09 1.43426e-09)
(-3.0603e-21 -3.71746e-10 0)
(6.11647e-22 9.41618e-11 9.41618e-11)
(1.5934e-22 2.73582e-11 0)
(4.15369e-22 8.40727e-11 8.40727e-11)
(4.20252e-22 1.02796e-10 0)
(3.78762e-22 1.15917e-10 1.15917e-10)
(2.77606e-22 1.10971e-10 0)
(1.83257e-22 9.68628e-11 9.68628e-11)
(1.74477e-22 1.25683e-10 0)
(9.45451e-23 1.61704e-10 1.61704e-10)
(-8.13281e-24 3.75937e-11 -0)
(-1.68343e-11 -3.79669e-05 -3.79669e-05)
(-4.36837e-12 4.2729e-05 -0)
(-2.44746e-13 -1.00703e-05 -1.00703e-05)
(-1.30808e-14 2.37084e-06 -0)
(-7.39843e-16 -5.58112e-07 -5.58112e-07)
(-3.70752e-17 1.31087e-07 -0)
(-2.53808e-18 -3.0985e-08 -3.0985e-08)
(-3.35718e-20 7.15097e-09 -0)
(-2.34191e-20 -1.76551e-09 -1.76551e-09)
(2.88283e-21 3.75909e-10 0)
(-5.9449e-22 -7.80758e-11 -7.80758e-11)
(4.80914e-22 7.49267e-11 0)
(4.66989e-22 8.4607e-11 8.4607e-11)
(5.34682e-22 1.1759e-10 0)
(4.69469e-22 1.29101e-10 1.29101e-10)
(3.45519e-22 1.24129e-10 0)
(2.27893e-22 1.08228e-10 1.08228e-10)
(2.15599e-22 1.39877e-10 0)
(1.16657e-22 1.79552e-10 1.79552e-10)
(-1.00539e-23 4.18308e-11 -0)
(-1.81382e-11 3.79398e-05 3.79398e-05)
(-5.12737e-12 -4.55246e-05 0)
(-2.873e-13 1.08038e-05 1.08038e-05)
(-1.60684e-14 -2.56325e-06 0)
(-8.76765e-16 6.07589e-07 6.07589e-07)
(-5.18474e-17 -1.4416e-07 0)
(-2.21336e-18 3.3949e-08 3.3949e-08)
(-2.47749e-19 -8.16251e-09 0)
(1.1192e-20 1.83818e-09 1.83818e-09)
(-4.72875e-21 -4.71992e-10 0)
(9.62128e-22 1.2459e-10 1.2459e-10)
(2.3478e-22 3.3734e-11 0)
(6.10962e-22 1.03711e-10 1.03711e-10)
(6.0856e-22 1.2477e-10 0)
(5.46707e-22 1.40237e-10 1.40237e-10)
(3.99808e-22 1.33937e-10 0)
(2.63561e-22 1.16797e-10 1.16797e-10)
(2.48365e-22 1.50268e-10 0)
(1.34073e-22 1.92512e-10 1.92512e-10)
(-1.15376e-23 4.46354e-11 -0)
(-1.92192e-11 -3.80462e-05 -3.80462e-05)
(-5.71971e-12 4.76344e-05 -0)
(-3.21888e-13 -1.13162e-05 -1.13162e-05)
(-1.80578e-14 2.68756e-06 -0)
(-1.02958e-15 -6.38532e-07 -6.38532e-07)
(-5.47343e-17 1.51447e-07 -0)
(-3.69311e-18 -3.61474e-08 -3.61474e-08)
(-7.80976e-20 8.4505e-09 -0)
(-3.20993e-20 -2.09733e-09 -2.09733e-09)
(3.73684e-21 4.6219e-10 0)
(-7.81706e-22 -9.27054e-11 -9.27054e-11)
(6.40897e-22 9.05871e-11 0)
(5.95674e-22 9.72277e-11 9.72277e-11)
(6.79184e-22 1.34358e-10 0)
(5.93056e-22 1.46401e-10 1.46401e-10)
(4.3598e-22 1.40496e-10 0)
(2.87038e-22 1.22259e-10 1.22259e-10)
(2.69508e-22 1.56781e-10 0)
(1.45031e-22 2.00355e-10 2.00355e-10)
(-1.24899e-23 4.61827e-11 -0)
(-2.05815e-11 3.88545e-05 3.88545e-05)
(-6.28893e-12 -4.97114e-05 0)
(-3.53843e-13 1.18132e-05 1.18132e-05)
(-2.00951e-14 -2.80666e-06 0)
(-1.12284e-15 6.66573e-07 6.66573e-07)
(-6.60197e-17 -1.58583e-07 0)
(-3.15836e-18 3.75154e-08 3.75154e-08)
(-3.06243e-19 -9.05226e-09 0)
(9.59486e-21 2.06642e-09 2.06642e-09)
(-5.44455e-21 -5.2428e-10 0)
(1.13847e-21 1.45523e-10 1.45523e-10)
(2.74072e-22 3.79469e-11 0)
(6.98469e-22 1.13901e-10 1.13901e-10)
(6.8706e-22 1.34571e-10 0)
(6.15288e-22 1.5041e-10 1.5041e-10)
(4.49077e-22 1.43086e-10 0)
(2.95427e-22 1.24361e-10 1.24361e-10)
(2.76812e-22 1.59026e-10 0)
(1.49183e-22 2.0323e-10 2.0323e-10)
(-1.28605e-23 4.65196e-11 -0)
(-2.19161e-11 -3.97417e-05 -3.97416e-05)
(-6.81565e-12 5.15966e-05 -0)
(-3.8414e-13 -1.22689e-05 -1.22689e-05)
(-2.18321e-14 2.91679e-06 -0)
(-1.24584e-15 -6.93805e-07 -6.93805e-07)
(-6.82791e-17 1.64818e-07 -0)
(-4.43973e-18 -3.93699e-08 -3.93699e-08)
(-1.29421e-19 9.23848e-09 -0)
(-3.49297e-20 -2.27796e-09 -2.27796e-09)
(3.77697e-21 5.13733e-10 0)
(-8.0403e-22 -9.78859e-11 -9.78859e-11)
(6.77103e-22 9.81118e-11 0)
(6.09748e-22 1.00826e-10 1.00826e-10)
(6.91421e-22 1.38001e-10 0)
(6.00919e-22 1.49101e-10 1.49101e-10)
(4.40744e-22 1.4249e-10 0)
(2.88967e-22 1.2326e-10 1.2326e-10)
(2.70746e-22 1.57247e-10 0)
(1.46104e-22 2.0122e-10 2.0122e-10)
(-1.26126e-23 4.56011e-11 -0)
(-2.32928e-11 4.07361e-05 4.07361e-05)
(-7.32725e-12 -5.33967e-05 0)
(-4.12925e-13 1.27006e-05 1.27006e-05)
(-2.35936e-14 -3.02058e-06 0)
(-1.3293e-15 7.18231e-07 7.18231e-07)
(-7.76336e-17 -1.71032e-07 0)
(-3.93756e-18 4.05349e-08 4.05349e-08)
(-3.39877e-19 -9.76256e-09 0)
(6.18688e-21 2.24989e-09 2.24989e-09)
(-5.42131e-21 -5.58936e-10 0)
(1.13789e-21 1.59621e-10 1.59621e-10)
(2.4712e-22 3.66397e-11 0)
(6.49939e-22 1.13013e-10 1.13013e-10)
(6.3009e-22 1.30819e-10 0)
(5.62259e-22 1.45262e-10 1.45262e-10)
(4.0843e-22 1.37228e-10 0)
(2.67287e-22 1.18347e-10 1.18347e-10)
(2.51127e-22 1.51108e-10 0)
(1.37434e-22 1.94979e-10 1.94979e-10)
(-1.19474e-23 4.40297e-11 -0)
(-2.4583e-11 -4.16817e-05 -4.16817e-05)
(-7.79562e-12 5.50056e-05 -0)
(-4.39703e-13 -1.30883e-05 -1.30883e-05)
(-2.51134e-14 3.11366e-06 -0)
(-1.43307e-15 -7.41041e-07 -7.41041e-07)
(-7.95924e-17 1.76178e-07 -0)
(-5.03457e-18 -4.2067e-08 -4.2067e-08)
(-1.77085e-19 9.90594e-09 -0)
(-3.52464e-20 -2.42221e-09 -2.42221e-09)
(3.40152e-21 5.58408e-10 0)
(-7.66712e-22 -1.04609e-10 -1.04609e-10)
(5.98555e-22 9.77163e-11 0)
(5.05116e-22 9.32081e-11 9.32081e-11)
(5.74154e-22 1.27559e-10 0)
(4.95631e-22 1.36507e-10 1.36507e-10)
(3.60968e-22 1.29359e-10 0)
(2.34532e-22 1.10552e-10 1.10552e-10)
(2.2255e-22 1.41728e-10 0)
(1.23059e-22 1.84485e-10 1.84485e-10)
(-1.07881e-23 4.14138e-11 -0)
(-2.57931e-11 4.25486e-05 4.25486e-05)
(-8.23425e-12 -5.64718e-05 0)
(-4.64343e-13 1.34381e-05 1.34381e-05)
(-2.66021e-14 -3.19735e-06 0)
(-1.50375e-15 7.60625e-07 7.60625e-07)
(-8.74681e-17 -1.81153e-07 0)
(-4.58086e-18 4.29892e-08 4.29892e-08)
(-3.6312e-19 -1.03263e-08 0)
(2.0235e-21 2.40215e-09 2.40215e-09)
(-5.00804e-21 -5.86264e-10 0)
(9.96058e-22 1.67112e-10 1.67112e-10)
(1.60591e-22 2.78797e-11 0)
(4.92252e-22 1.00439e-10 1.00439e-10)
(4.66229e-22 1.13233e-10 0)
(4.15266e-22 1.25415e-10 1.25415e-10)
(2.9887e-22 1.17232e-10 0)
(1.93207e-22 9.9486e-11 9.9486e-11)
(1.85218e-22 1.28537e-10 0)
(1.05177e-22 1.70211e-10 1.70211e-10)
(-9.32205e-24 3.82807e-11 -0)
(-2.69386e-11 -4.34375e-05 -4.34375e-05)
(-8.61912e-12 5.77561e-05 -0)
(-4.86294e-13 -1.37462e-05 -1.37462e-05)
(-2.78268e-14 3.27095e-06 -0)
(-1.5883e-15 -7.78585e-07 -7.78585e-07)
(-8.87297e-17 1.85189e-07 -0)
(-5.51678e-18 -4.41875e-08 -4.41875e-08)
(-2.18565e-19 1.04397e-08 -0)
(-3.41435e-20 -2.53225e-09 -2.53225e-09)
(2.70939e-21 5.92647e-10 0)
(-6.92953e-22 -1.14821e-10 -1.14821e-10)
(4.3687e-22 8.86332e-11 0)
(3.26997e-22 7.46054e-11 7.46054e-11)
(3.78424e-22 1.0418e-10 0)
(3.22806e-22 1.10131e-10 1.10131e-10)
(2.32988e-22 1.03425e-10 0)
(1.49176e-22 8.67909e-11 8.67909e-11)
(1.4554e-22 1.13159e-10 0)
(8.38123e-23 1.51768e-10 1.51768e-10)
(-7.48387e-24 3.39958e-11 -0)
(-2.80179e-11 4.43103e-05 4.43103e-05)
(-8.96204e-12 -5.88962e-05 0)
(-5.0545e-13 1.40182e-05 1.40182e-05)
(-2.89821e-14 -3.33606e-06 0)
(-1.63889e-15 7.93861e-07 7.93861e-07)
(-9.5184e-17 -1.89064e-07 0)
(-5.06417e-18 4.49211e-08 4.49211e-08)
(-3.7664e-19 -1.07595e-08 0)
(-2.50052e-21 2.52514e-09 2.52514e-09)
(-4.28803e-21 -6.078e-10 0)
(7.52287e-22 1.68972e-10 1.68972e-10)
(5.8172e-23 1.32362e-11 0)
(2.9236e-22 7.91813e-11 7.91813e-11)
(2.64339e-22 8.53069e-11 0)
(2.34845e-22 9.44859e-11 9.44859e-11)
(1.66761e-22 8.72158e-11 0)
(1.06532e-22 7.28893e-11 7.28893e-11)
(1.04769e-22 9.56979e-11 0)
(6.16341e-23 1.29822e-10 1.29822e-10)
(-5.53577e-24 2.90309e-11 -0)
(-2.86794e-11 -4.46689e-05 -4.46689e-05)
(-9.23224e-12 5.97203e-05 -0)
(-5.20954e-13 -1.42125e-05 -1.42125e-05)
(-2.98111e-14 3.38162e-06 -0)
(-1.70373e-15 -8.04776e-07 -8.04776e-07)
(-9.52571e-17 1.91446e-07 -0)
(-5.85626e-18 -4.56287e-08 -4.56287e-08)
(-2.54881e-19 1.08137e-08 -0)
(-3.12217e-20 -2.59926e-09 -2.59926e-09)
(1.67983e-21 6.17776e-10 0)
(-5.38542e-22 -1.24043e-10 -1.24043e-10)
(2.53671e-22 7.56127e-11 0)
(1.52593e-22 5.08784e-11 5.08784e-11)
(1.82448e-22 7.40401e-11 0)
(1.52455e-22 7.6793e-11 7.6793e-11)
(1.09134e-22 7.1604e-11 0)
(6.96823e-23 5.95282e-11 5.95282e-11)
(6.94797e-23 7.81301e-11 0)
(4.07733e-23 1.05698e-10 1.05698e-10)
(-3.62804e-24 2.29706e-11 -0)
(-2.95814e-11 4.55178e-05 4.55178e-05)
(-9.46983e-12 -6.05272e-05 0)
(-5.33835e-13 1.44052e-05 1.44052e-05)
(-3.06572e-14 -3.42767e-06 0)
(-1.73166e-15 8.15595e-07 8.15595e-07)
(-1.00625e-16 -1.9416e-07 0)
(-5.43916e-18 4.61633e-08 4.61633e-08)
(-3.75845e-19 -1.10241e-08 0)
(-8.52079e-21 2.60433e-09 2.60433e-09)
(-3.17761e-21 -6.22495e-10 0)
(4.14564e-22 1.63296e-10 1.63296e-10)
(-1.92006e-23 -7.15804e-12 0)
(1.09284e-22 4.99835e-11 4.99835e-11)
(9.01038e-23 4.90287e-11 0)
(8.10804e-23 5.52058e-11 5.52058e-11)
(5.6418e-23 4.97188e-11 0)
(3.52545e-23 4.02655e-11 4.02655e-11)
(3.70699e-23 5.5778e-11 0)
(2.35839e-23 8.03134e-11 8.03134e-11)
(-2.17279e-24 1.76525e-11 -0)
(-3.0236e-11 -4.61636e-05 -4.61636e-05)
(-9.62648e-12 6.11205e-05 -0)
(-5.43691e-13 -1.45603e-05 -1.45603e-05)
(-3.10594e-14 3.4679e-06 -0)
(-1.77502e-15 -8.26086e-07 -8.26086e-07)
(-9.93857e-17 1.96774e-07 -0)
(-5.95215e-18 -4.69073e-08 -4.69073e-08)
(-2.92472e-19 1.11562e-08 -0)
(-2.54634e-20 -2.67305e-09 -2.67305e-09)
(2.69011e-22 6.3062e-10 0)
(-3.30626e-22 -1.48449e-10 -1.48449e-10)
(6.69149e-23 4.53259e-11 0)
(1.07498e-23 7.88203e-12 7.88203e-12)
(2.6117e-23 2.3763e-11 0)
(2.03065e-23 2.29388e-11 2.29388e-11)
(1.28765e-23 1.90136e-11 0)
(5.84002e-24 1.11261e-11 1.11261e-11)
(1.0636e-23 2.50567e-11 0)
(1.06859e-23 5.20051e-11 5.20051e-11)
(-1.16094e-24 1.41075e-11 -0)
(-3.16016e-11 4.79211e-05 4.79211e-05)
(-9.87504e-12 -6.17954e-05 0)
(-5.64561e-13 1.49066e-05 1.49066e-05)
(-3.25098e-14 -3.53769e-06 0)
(-1.88856e-15 8.59518e-07 8.59518e-07)
(-1.0734e-16 -2.01817e-07 0)
(-6.5797e-18 5.17393e-08 5.17393e-08)
(-3.20153e-19 -1.00014e-08 0)
(-2.9841e-20 4.43712e-09 4.43712e-09)
(1.39711e-21 5.55867e-10 0)
(1.43642e-22 1.16686e-09 1.16686e-09)
(4.38396e-22 7.32121e-10 0)
(2.29323e-22 5.93864e-10 5.93864e-10)
(1.45192e-22 4.20305e-10 0)
(7.71969e-23 2.88808e-10 2.88808e-10)
(3.77051e-23 1.83925e-10 0)
(1.77954e-23 1.08429e-10 1.08429e-10)
(6.97735e-24 4.74947e-11 0)
(4.76329e-25 5.85293e-12 5.85293e-12)
(7.58851e-26 -2.59371e-12 -0)
)
;

boundaryField
{
    movingWall
    {
        type            calculated;
        value           nonuniform List<vector> 
20
(
(0 5.81717e-05 -0)
(0 -6.4008e-05 -0)
(0 1.58914e-05 -0)
(0 -3.74261e-06 -0)
(0 9.42029e-07 -0)
(0 -2.19494e-07 -0)
(0 6.03482e-08 -0)
(0 -9.86829e-09 -0)
(0 6.55201e-09 -0)
(0 1.68891e-09 -0)
(0 2.22921e-09 -0)
(0 1.51024e-09 -0)
(0 1.19382e-09 -0)
(0 8.51481e-10 -0)
(0 5.85143e-10 -0)
(0 3.77402e-10 -0)
(0 2.28565e-10 -0)
(0 9.59369e-11 -0)
(0 -7.20806e-12 -0)
(0 -1.28175e-11 -0)
)
;
    }
    fixedWalls
    {
        type            calculated;
        value           nonuniform List<vector> 
60
(
(0 -0.000107832 -0)
(0 0.00011408 -0)
(0 -0.000121553 -0)
(0 0.000132773 -0)
(0 -0.000147236 -0)
(0 0.000164399 -0)
(0 -0.000181208 -0)
(0 0.000192626 -0)
(0 -0.0002016 -0)
(0 0.000210417 -0)
(0 -0.000218391 -0)
(0 0.000225998 -0)
(0 -0.000232788 -0)
(0 0.000238991 -0)
(0 -0.000244412 -0)
(0 0.00024922 -0)
(0 -0.000252741 -0)
(0 0.000256129 -0)
(0 -0.000258406 -0)
(0 0.000261737 -0)
(0 -1.45311e-11 -0)
(0 -2.73911e-11 -0)
(0 -4.42426e-11 -0)
(0 -5.99019e-11 -0)
(0 -7.37348e-11 -0)
(0 -8.57748e-11 -0)
(0 -9.52444e-11 -0)
(0 -1.02554e-10 -0)
(0 -1.07338e-10 -0)
(0 -1.09823e-10 -0)
(0 -1.09984e-10 -0)
(0 -1.07862e-10 -0)
(0 -1.03439e-10 -0)
(0 -9.6567e-11 -0)
(0 -8.72703e-11 -0)
(0 -7.56507e-11 -0)
(0 -6.29873e-11 -0)
(0 -4.86385e-11 -0)
(0 -3.11282e-11 -0)
(0 -1.95092e-11 -0)
(0 -1.5703e-05 -0)
(0 2.41084e-05 -0)
(0 -5.23843e-06 -0)
(0 1.27941e-06 -0)
(0 -2.72572e-07 -0)
(0 6.93158e-08 -0)
(0 -1.02378e-08 -0)
(0 7.16148e-09 -0)
(0 2.58978e-09 -0)
(0 2.91217e-09 -0)
(0 2.17347e-09 -0)
(0 1.72962e-09 -0)
(0 1.29203e-09 -0)
(0 9.31158e-10 -0)
(0 6.33272e-10 -0)
(0 3.99167e-10 -0)
(0 2.21503e-10 -0)
(0 8.03634e-11 -0)
(0 -7.66313e-12 -0)
(0 -6.74806e-12 -0)
)
;
    }
    frontAndBack
    {
        type            empty;
    }
}


// ************************************************************************* //
