/*--------------------------------*- C++ -*----------------------------------*\
| =========                 |                                                 |
| \\      /  F ield         | OpenFOAM: The Open Source CFD Toolbox           |
|  \\    /   O peration     | Version:  2312                                  |
|   \\  /    A nd           | Website:  www.openfoam.com                      |
|    \\/     M anipulation  |                                                 |
\*---------------------------------------------------------------------------*/
FoamFile
{
    version     2.0;
    format      ascii;
    arch        "LSB;label=32;scalar=64";
    class       volScalarField;
    location    "3.375";
    object      Uy;
}
// * * * * * * * * * * * * * * * * * * * * * * * * * * * * * * * * * * * * * //

dimensions      [0 1 -1 0 0 0 0];

internalField   nonuniform List<scalar> 
400
(
2.62795e-07
-5.91271e-08
1.39938e-08
-3.15583e-09
7.27876e-10
-1.67112e-10
3.83463e-11
-7.8717e-12
2.68633e-12
2.68657e-13
7.37575e-13
5.5104e-13
5.01061e-13
4.13409e-13
3.33275e-13
2.58411e-13
1.99407e-13
1.39927e-13
6.41268e-14
-2.32497e-14
-2.71685e-07
6.10291e-08
-1.4415e-08
3.24421e-09
-7.42726e-10
1.73193e-10
-3.56407e-11
1.1046e-11
3.41851e-13
2.55648e-12
1.85268e-12
1.75376e-12
1.4972e-12
1.25163e-12
1.00467e-12
7.70746e-13
5.86617e-13
4.34608e-13
1.82194e-13
-6.90199e-14
2.89831e-07
-6.52087e-08
1.54053e-08
-3.47083e-09
8.00725e-10
-1.80166e-10
4.47211e-11
-5.42484e-12
5.91832e-12
3.10603e-12
3.34185e-12
2.85085e-12
2.4851e-12
2.06044e-12
1.65446e-12
1.27024e-12
9.65085e-13
7.06696e-13
2.98988e-13
-1.11691e-13
-3.1729e-07
7.15368e-08
-1.69065e-08
3.8144e-09
-8.73554e-10
2.0744e-10
-3.89203e-11
1.61135e-11
3.13876e-12
5.49281e-12
4.37112e-12
3.97741e-12
3.39549e-12
2.82104e-12
2.26e-12
1.7325e-12
1.31226e-12
9.65922e-13
4.06348e-13
-1.51246e-13
3.53596e-07
-8.01878e-08
1.89605e-08
-4.29311e-09
1.00042e-09
-2.20791e-10
5.9272e-11
-4.16593e-12
9.66921e-12
5.75637e-12
5.77226e-12
4.91328e-12
4.24014e-12
3.50186e-12
2.80387e-12
2.1484e-12
1.62775e-12
1.1925e-12
5.03158e-13
-1.86302e-13
-3.97298e-07
9.0545e-08
-2.14489e-08
4.88187e-09
-1.11933e-09
2.7323e-10
-4.76144e-11
2.33005e-11
5.50718e-12
8.23222e-12
6.49571e-12
5.82422e-12
4.9406e-12
4.08821e-12
3.26754e-12
2.5016e-12
1.89192e-12
1.38823e-12
5.84682e-13
-2.16334e-13
4.43393e-07
-1.02235e-07
2.43036e-08
-5.51736e-09
1.32562e-09
-2.82829e-10
8.19133e-11
-4.69472e-12
1.32648e-11
7.66895e-12
7.61427e-12
6.41846e-12
5.51951e-12
4.547e-12
3.63644e-12
2.78355e-12
2.10567e-12
1.54135e-12
6.49711e-13
-2.40347e-13
-4.78078e-07
1.12628e-07
-2.65925e-08
6.26875e-09
-1.44302e-09
3.59653e-10
-6.51967e-11
3.0352e-11
6.08862e-12
1.00187e-11
7.72236e-12
6.95975e-12
5.89099e-12
4.87747e-12
3.89845e-12
2.98504e-12
2.25658e-12
1.65281e-12
6.96437e-13
-2.58485e-13
5.05155e-07
-1.20075e-07
2.84447e-08
-6.71903e-09
1.61241e-09
-3.61408e-10
1.02168e-10
-9.24177e-12
1.53049e-11
8.08508e-12
8.43216e-12
7.07493e-12
6.12658e-12
5.05505e-12
4.0509e-12
3.10315e-12
2.34779e-12
1.71901e-12
7.23869e-13
-2.70445e-13
-5.29707e-07
1.26509e-07
-2.99532e-08
7.1598e-09
-1.6845e-09
4.16309e-10
-8.41883e-11
3.38305e-11
4.64323e-12
1.03848e-11
7.82333e-12
7.22252e-12
6.13225e-12
5.10555e-12
4.09075e-12
3.1385e-12
2.37555e-12
1.74066e-12
7.3406e-13
-2.76454e-13
5.51465e-07
-1.32095e-07
3.131e-08
-7.48497e-09
1.79567e-09
-4.1427e-10
1.1277e-10
-1.4009e-11
1.53337e-11
7.352e-12
8.21395e-12
6.90134e-12
6.04753e-12
5.01027e-12
4.03028e-12
3.09317e-12
2.34437e-12
1.72179e-12
7.26092e-13
-2.76586e-13
-5.71798e-07
1.37223e-07
-3.25124e-08
7.81096e-09
-1.8508e-09
4.53914e-10
-9.71398e-11
3.48144e-11
2.74987e-12
9.69933e-12
7.12872e-12
6.74461e-12
5.75103e-12
4.81651e-12
3.87066e-12
2.97629e-12
2.2585e-12
1.6619e-12
7.04869e-13
-2.71348e-13
5.89778e-07
-1.41724e-07
3.35952e-08
-8.06555e-09
1.93386e-09
-4.51773e-10
1.1968e-10
-1.78766e-11
1.45514e-11
6.09145e-12
7.32935e-12
6.12543e-12
5.41923e-12
4.50109e-12
3.63081e-12
2.79043e-12
2.12146e-12
1.57026e-12
6.67044e-13
-2.60495e-13
-6.06203e-07
1.45812e-07
-3.45541e-08
8.32006e-09
-1.977e-09
4.82842e-10
-1.06558e-10
3.51648e-11
8.42371e-13
8.54229e-12
5.96044e-12
5.76013e-12
4.90102e-12
4.11742e-12
3.31115e-12
2.5494e-12
1.94205e-12
1.44097e-12
6.17923e-13
-2.43518e-13
6.2017e-07
-1.49233e-07
3.53767e-08
-8.50725e-09
2.03998e-09
-4.7913e-10
1.24849e-10
-2.09359e-11
1.34835e-11
4.57168e-12
6.03507e-12
4.92896e-12
4.38302e-12
3.6324e-12
2.93112e-12
2.25273e-12
1.71879e-12
1.28616e-12
5.52238e-13
-2.20141e-13
-6.32311e-07
1.52167e-07
-3.60566e-08
8.68753e-09
-2.06445e-09
5.03448e-10
-1.12735e-10
3.50053e-11
-9.90249e-13
7.055e-12
4.45213e-12
4.39492e-12
3.69229e-12
3.09868e-12
2.4855e-12
1.91205e-12
1.46155e-12
1.09479e-12
4.7476e-13
-1.90685e-13
6.42044e-07
-1.54591e-07
3.66546e-08
-8.81562e-09
2.11703e-09
-4.97566e-10
1.28346e-10
-2.35703e-11
1.20117e-11
2.71916e-12
4.34158e-12
3.35488e-12
2.99917e-12
2.46418e-12
1.98528e-12
1.52414e-12
1.17058e-12
8.89282e-13
3.85752e-13
-1.57943e-13
-6.49886e-07
1.56456e-07
-3.70586e-08
8.94404e-09
-2.12318e-09
5.18255e-10
-1.17825e-10
3.40929e-11
-3.27178e-12
5.10465e-12
2.53873e-12
2.68239e-12
2.18639e-12
1.83778e-12
1.46869e-12
1.13474e-12
8.75552e-13
6.64596e-13
2.93649e-13
-1.23087e-13
6.54974e-07
-1.575e-07
3.73407e-08
-8.95625e-09
2.14871e-09
-5.05075e-10
1.26892e-10
-2.62161e-11
9.52598e-12
4.26582e-13
2.2272e-12
1.47631e-12
1.36384e-12
1.09906e-12
8.85248e-13
6.77227e-13
5.24892e-13
4.24477e-13
2.05478e-13
-8.22928e-14
-6.59451e-07
1.59802e-07
-3.78733e-08
9.18957e-09
-2.19723e-09
5.31869e-10
-1.2717e-10
3.20107e-11
-6.7253e-12
2.51338e-12
1.23101e-13
5.98803e-13
3.86155e-13
3.45445e-13
2.67295e-13
2.05002e-13
1.6412e-13
1.46908e-13
8.13829e-14
-2.92574e-14
)
;

boundaryField
{
    movingWall
    {
        type            calculated;
        value           uniform -0;
    }
    fixedWalls
    {
        type            calculated;
        value           uniform -0;
    }
    frontAndBack
    {
        type            empty;
    }
}


// ************************************************************************* //
