/*--------------------------------*- C++ -*----------------------------------*\
| =========                 |                                                 |
| \\      /  F ield         | OpenFOAM: The Open Source CFD Toolbox           |
|  \\    /   O peration     | Version:  2312                                  |
|   \\  /    A nd           | Website:  www.openfoam.com                      |
|    \\/     M anipulation  |                                                 |
\*---------------------------------------------------------------------------*/
FoamFile
{
    version     2.0;
    format      ascii;
    arch        "LSB;label=32;scalar=64";
    class       volVectorField;
    location    "3.375";
    object      vorticityField;
}
// * * * * * * * * * * * * * * * * * * * * * * * * * * * * * * * * * * * * * //

dimensions      [0 0 -1 0 0 0 0];

internalField   nonuniform List<vector> 
400
(
(0 -0 2.30806e-05)
(0 -0 -2.54088e-05)
(0 -0 5.82756e-06)
(0 -0 -1.37471e-06)
(0 -0 3.12288e-07)
(0 -0 -7.58907e-08)
(0 -0 1.47566e-08)
(0 -0 -5.89834e-09)
(0 -0 -7.586e-10)
(0 -0 -1.58848e-09)
(0 -0 -1.05935e-09)
(0 -0 -8.75834e-10)
(0 -0 -6.48645e-10)
(0 -0 -4.71005e-10)
(0 -0 -3.21868e-10)
(0 -0 -2.04586e-10)
(0 -0 -1.14333e-10)
(0 -0 -4.59185e-11)
(0 -0 -5.17751e-12)
(0 -0 1.14356e-12)
(0 -0 -2.64711e-05)
(0 -0 2.67519e-05)
(0 -0 -6.2343e-06)
(0 -0 1.45234e-06)
(0 -0 -3.38178e-07)
(0 -0 7.87479e-08)
(0 -0 -1.83014e-08)
(0 -0 4.27266e-09)
(0 -0 -9.87129e-10)
(0 -0 2.25649e-10)
(0 -0 -6.65569e-11)
(0 -0 -8.71407e-12)
(0 -0 -3.23231e-11)
(0 -0 -3.4698e-11)
(0 -0 -3.80058e-11)
(0 -0 -3.53813e-11)
(0 -0 -3.04154e-11)
(0 -0 -3.93039e-11)
(0 -0 -5.07151e-11)
(0 -0 -1.15342e-11)
(0 -0 2.80827e-05)
(0 -0 -2.84994e-05)
(0 -0 6.64099e-06)
(0 -0 -1.54665e-06)
(0 -0 3.60206e-07)
(0 -0 -8.37351e-08)
(0 -0 1.95594e-08)
(0 -0 -4.48561e-09)
(0 -0 1.08492e-09)
(0 -0 -2.32032e-10)
(0 -0 5.14332e-11)
(0 -0 -3.5938e-11)
(0 -0 -3.68117e-11)
(0 -0 -5.30855e-11)
(0 -0 -5.83116e-11)
(0 -0 -5.61438e-11)
(0 -0 -4.88736e-11)
(0 -0 -6.40077e-11)
(0 -0 -8.28686e-11)
(0 -0 -1.91634e-11)
(0 -0 -3.04317e-05)
(0 -0 3.11511e-05)
(0 -0 -7.26635e-06)
(0 -0 1.6942e-06)
(0 -0 -3.94707e-07)
(0 -0 9.20714e-08)
(0 -0 -2.13343e-08)
(0 -0 5.0511e-09)
(0 -0 -1.11812e-09)
(0 -0 2.87032e-10)
(0 -0 -7.03605e-11)
(0 -0 -1.67084e-11)
(0 -0 -5.79303e-11)
(0 -0 -7.06422e-11)
(0 -0 -8.00684e-11)
(0 -0 -7.66128e-11)
(0 -0 -6.6846e-11)
(0 -0 -8.71765e-11)
(0 -0 -1.12584e-10)
(0 -0 -2.61065e-11)
(0 -0 3.31383e-05)
(0 -0 -3.45807e-05)
(0 -0 8.0857e-06)
(0 -0 -1.88955e-06)
(0 -0 4.41629e-07)
(0 -0 -1.02983e-07)
(0 -0 2.41719e-08)
(0 -0 -5.53623e-09)
(0 -0 1.36105e-09)
(0 -0 -2.84609e-10)
(0 -0 6.12185e-11)
(0 -0 -5.56337e-11)
(0 -0 -6.38385e-11)
(0 -0 -8.94706e-11)
(0 -0 -9.87548e-11)
(0 -0 -9.50336e-11)
(0 -0 -8.27957e-11)
(0 -0 -1.07797e-10)
(0 -0 -1.39127e-10)
(0 -0 -3.24717e-11)
(0 -0 -3.61547e-05)
(0 -0 3.8677e-05)
(0 -0 -9.07017e-06)
(0 -0 2.12569e-06)
(0 -0 -4.97717e-07)
(0 -0 1.16705e-07)
(0 -0 -2.71634e-08)
(0 -0 6.47372e-09)
(0 -0 -1.43426e-09)
(0 -0 3.71746e-10)
(0 -0 -9.41618e-11)
(0 -0 -2.73582e-11)
(0 -0 -8.40727e-11)
(0 -0 -1.02796e-10)
(0 -0 -1.15917e-10)
(0 -0 -1.10971e-10)
(0 -0 -9.68628e-11)
(0 -0 -1.25683e-10)
(0 -0 -1.61704e-10)
(0 -0 -3.75937e-11)
(0 -0 3.79669e-05)
(0 -0 -4.2729e-05)
(0 -0 1.00703e-05)
(0 -0 -2.37084e-06)
(0 -0 5.58112e-07)
(0 -0 -1.31087e-07)
(0 -0 3.0985e-08)
(0 -0 -7.15097e-09)
(0 -0 1.76551e-09)
(0 -0 -3.75909e-10)
(0 -0 7.80758e-11)
(0 -0 -7.49267e-11)
(0 -0 -8.4607e-11)
(0 -0 -1.1759e-10)
(0 -0 -1.29101e-10)
(0 -0 -1.24129e-10)
(0 -0 -1.08228e-10)
(0 -0 -1.39877e-10)
(0 -0 -1.79552e-10)
(0 -0 -4.18308e-11)
(0 -0 -3.79398e-05)
(0 -0 4.55246e-05)
(0 -0 -1.08038e-05)
(0 -0 2.56325e-06)
(0 -0 -6.07589e-07)
(0 -0 1.4416e-07)
(0 -0 -3.3949e-08)
(0 -0 8.16251e-09)
(0 -0 -1.83818e-09)
(0 -0 4.71992e-10)
(0 -0 -1.2459e-10)
(0 -0 -3.3734e-11)
(0 -0 -1.03711e-10)
(0 -0 -1.2477e-10)
(0 -0 -1.40237e-10)
(0 -0 -1.33937e-10)
(0 -0 -1.16797e-10)
(0 -0 -1.50268e-10)
(0 -0 -1.92512e-10)
(0 -0 -4.46354e-11)
(0 -0 3.80462e-05)
(0 -0 -4.76344e-05)
(0 -0 1.13162e-05)
(0 -0 -2.68756e-06)
(0 -0 6.38532e-07)
(0 -0 -1.51447e-07)
(0 -0 3.61474e-08)
(0 -0 -8.4505e-09)
(0 -0 2.09733e-09)
(0 -0 -4.6219e-10)
(0 -0 9.27054e-11)
(0 -0 -9.05871e-11)
(0 -0 -9.72277e-11)
(0 -0 -1.34358e-10)
(0 -0 -1.46401e-10)
(0 -0 -1.40496e-10)
(0 -0 -1.22259e-10)
(0 -0 -1.56781e-10)
(0 -0 -2.00355e-10)
(0 -0 -4.61827e-11)
(0 -0 -3.88545e-05)
(0 -0 4.97114e-05)
(0 -0 -1.18132e-05)
(0 -0 2.80666e-06)
(0 -0 -6.66573e-07)
(0 -0 1.58583e-07)
(0 -0 -3.75154e-08)
(0 -0 9.05226e-09)
(0 -0 -2.06642e-09)
(0 -0 5.2428e-10)
(0 -0 -1.45523e-10)
(0 -0 -3.79469e-11)
(0 -0 -1.13901e-10)
(0 -0 -1.34571e-10)
(0 -0 -1.5041e-10)
(0 -0 -1.43086e-10)
(0 -0 -1.24361e-10)
(0 -0 -1.59026e-10)
(0 -0 -2.0323e-10)
(0 -0 -4.65196e-11)
(0 -0 3.97417e-05)
(0 -0 -5.15966e-05)
(0 -0 1.22689e-05)
(0 -0 -2.91679e-06)
(0 -0 6.93805e-07)
(0 -0 -1.64818e-07)
(0 -0 3.93699e-08)
(0 -0 -9.23848e-09)
(0 -0 2.27796e-09)
(0 -0 -5.13733e-10)
(0 -0 9.78859e-11)
(0 -0 -9.81118e-11)
(0 -0 -1.00826e-10)
(0 -0 -1.38001e-10)
(0 -0 -1.49101e-10)
(0 -0 -1.4249e-10)
(0 -0 -1.2326e-10)
(0 -0 -1.57247e-10)
(0 -0 -2.0122e-10)
(0 -0 -4.56011e-11)
(0 -0 -4.07361e-05)
(0 -0 5.33967e-05)
(0 -0 -1.27006e-05)
(0 -0 3.02058e-06)
(0 -0 -7.18231e-07)
(0 -0 1.71032e-07)
(0 -0 -4.05349e-08)
(0 -0 9.76256e-09)
(0 -0 -2.24989e-09)
(0 -0 5.58936e-10)
(0 -0 -1.59621e-10)
(0 -0 -3.66397e-11)
(0 -0 -1.13013e-10)
(0 -0 -1.30819e-10)
(0 -0 -1.45262e-10)
(0 -0 -1.37228e-10)
(0 -0 -1.18347e-10)
(0 -0 -1.51108e-10)
(0 -0 -1.94979e-10)
(0 -0 -4.40297e-11)
(0 -0 4.16817e-05)
(0 -0 -5.50056e-05)
(0 -0 1.30883e-05)
(0 -0 -3.11366e-06)
(0 -0 7.41041e-07)
(0 -0 -1.76178e-07)
(0 -0 4.2067e-08)
(0 -0 -9.90594e-09)
(0 -0 2.42221e-09)
(0 -0 -5.58408e-10)
(0 -0 1.04609e-10)
(0 -0 -9.77163e-11)
(0 -0 -9.32081e-11)
(0 -0 -1.27559e-10)
(0 -0 -1.36507e-10)
(0 -0 -1.29359e-10)
(0 -0 -1.10552e-10)
(0 -0 -1.41728e-10)
(0 -0 -1.84485e-10)
(0 -0 -4.14138e-11)
(0 -0 -4.25486e-05)
(0 -0 5.64718e-05)
(0 -0 -1.34381e-05)
(0 -0 3.19735e-06)
(0 -0 -7.60625e-07)
(0 -0 1.81153e-07)
(0 -0 -4.29892e-08)
(0 -0 1.03263e-08)
(0 -0 -2.40215e-09)
(0 -0 5.86264e-10)
(0 -0 -1.67112e-10)
(0 -0 -2.78797e-11)
(0 -0 -1.00439e-10)
(0 -0 -1.13233e-10)
(0 -0 -1.25415e-10)
(0 -0 -1.17232e-10)
(0 -0 -9.9486e-11)
(0 -0 -1.28537e-10)
(0 -0 -1.70211e-10)
(0 -0 -3.82807e-11)
(0 -0 4.34375e-05)
(0 -0 -5.77561e-05)
(0 -0 1.37462e-05)
(0 -0 -3.27095e-06)
(0 -0 7.78585e-07)
(0 -0 -1.85189e-07)
(0 -0 4.41875e-08)
(0 -0 -1.04397e-08)
(0 -0 2.53225e-09)
(0 -0 -5.92647e-10)
(0 -0 1.14821e-10)
(0 -0 -8.86332e-11)
(0 -0 -7.46054e-11)
(0 -0 -1.0418e-10)
(0 -0 -1.10131e-10)
(0 -0 -1.03425e-10)
(0 -0 -8.67909e-11)
(0 -0 -1.13159e-10)
(0 -0 -1.51768e-10)
(0 -0 -3.39958e-11)
(0 -0 -4.43103e-05)
(0 -0 5.88962e-05)
(0 -0 -1.40182e-05)
(0 -0 3.33606e-06)
(0 -0 -7.93861e-07)
(0 -0 1.89064e-07)
(0 -0 -4.49211e-08)
(0 -0 1.07595e-08)
(0 -0 -2.52514e-09)
(0 -0 6.078e-10)
(0 -0 -1.68972e-10)
(0 -0 -1.32362e-11)
(0 -0 -7.91813e-11)
(0 -0 -8.53069e-11)
(0 -0 -9.44859e-11)
(0 -0 -8.72158e-11)
(0 -0 -7.28893e-11)
(0 -0 -9.56979e-11)
(0 -0 -1.29822e-10)
(0 -0 -2.90309e-11)
(0 -0 4.46689e-05)
(0 -0 -5.97203e-05)
(0 -0 1.42125e-05)
(0 -0 -3.38162e-06)
(0 -0 8.04776e-07)
(0 -0 -1.91446e-07)
(0 -0 4.56287e-08)
(0 -0 -1.08137e-08)
(0 -0 2.59926e-09)
(0 -0 -6.17776e-10)
(0 -0 1.24043e-10)
(0 -0 -7.56127e-11)
(0 -0 -5.08784e-11)
(0 -0 -7.40401e-11)
(0 -0 -7.6793e-11)
(0 -0 -7.1604e-11)
(0 -0 -5.95282e-11)
(0 -0 -7.81301e-11)
(0 -0 -1.05698e-10)
(0 -0 -2.29706e-11)
(0 -0 -4.55178e-05)
(0 -0 6.05272e-05)
(0 -0 -1.44052e-05)
(0 -0 3.42767e-06)
(0 -0 -8.15595e-07)
(0 -0 1.9416e-07)
(0 -0 -4.61633e-08)
(0 -0 1.10241e-08)
(0 -0 -2.60433e-09)
(0 -0 6.22495e-10)
(0 -0 -1.63296e-10)
(0 -0 7.15804e-12)
(0 -0 -4.99835e-11)
(0 -0 -4.90287e-11)
(0 -0 -5.52058e-11)
(0 -0 -4.97188e-11)
(0 -0 -4.02655e-11)
(0 -0 -5.5778e-11)
(0 -0 -8.03134e-11)
(0 -0 -1.76525e-11)
(0 -0 4.61636e-05)
(0 -0 -6.11205e-05)
(0 -0 1.45603e-05)
(0 -0 -3.4679e-06)
(0 -0 8.26086e-07)
(0 -0 -1.96774e-07)
(0 -0 4.69073e-08)
(0 -0 -1.11562e-08)
(0 -0 2.67305e-09)
(0 -0 -6.3062e-10)
(0 -0 1.48449e-10)
(0 -0 -4.53259e-11)
(0 -0 -7.88203e-12)
(0 -0 -2.3763e-11)
(0 -0 -2.29388e-11)
(0 -0 -1.90136e-11)
(0 -0 -1.11261e-11)
(0 -0 -2.50567e-11)
(0 -0 -5.20051e-11)
(0 -0 -1.41075e-11)
(0 -0 -4.79211e-05)
(0 -0 6.17954e-05)
(0 -0 -1.49066e-05)
(0 -0 3.53769e-06)
(0 -0 -8.59518e-07)
(0 -0 2.01817e-07)
(0 -0 -5.17393e-08)
(0 -0 1.00014e-08)
(0 -0 -4.43712e-09)
(0 -0 -5.55867e-10)
(0 -0 -1.16686e-09)
(0 -0 -7.32121e-10)
(0 -0 -5.93864e-10)
(0 -0 -4.20305e-10)
(0 -0 -2.88808e-10)
(0 -0 -1.83925e-10)
(0 -0 -1.08429e-10)
(0 -0 -4.74947e-11)
(0 -0 -5.85293e-12)
(0 -0 2.59371e-12)
)
;

boundaryField
{
    movingWall
    {
        type            calculated;
        value           nonuniform List<vector> 
20
(
(0 -0 -5.81717e-05)
(0 -0 6.4008e-05)
(0 -0 -1.58914e-05)
(0 -0 3.74261e-06)
(0 -0 -9.42029e-07)
(0 -0 2.19494e-07)
(0 -0 -6.03482e-08)
(0 -0 9.86829e-09)
(0 -0 -6.55201e-09)
(0 -0 -1.68891e-09)
(0 -0 -2.22921e-09)
(0 -0 -1.51024e-09)
(0 -0 -1.19382e-09)
(0 -0 -8.51481e-10)
(0 -0 -5.85143e-10)
(0 -0 -3.77402e-10)
(0 -0 -2.28565e-10)
(0 -0 -9.59369e-11)
(0 -0 7.20806e-12)
(0 -0 1.28175e-11)
)
;
    }
    fixedWalls
    {
        type            calculated;
        value           nonuniform List<vector> 
60
(
(0 -0 0.000107832)
(0 -0 -0.00011408)
(0 -0 0.000121553)
(0 -0 -0.000132773)
(0 -0 0.000147236)
(0 -0 -0.000164399)
(0 -0 0.000181208)
(0 -0 -0.000192626)
(0 -0 0.0002016)
(0 -0 -0.000210417)
(0 -0 0.000218391)
(0 -0 -0.000225998)
(0 -0 0.000232788)
(0 -0 -0.000238991)
(0 -0 0.000244412)
(0 -0 -0.00024922)
(0 -0 0.000252741)
(0 -0 -0.000256129)
(0 -0 0.000258406)
(0 -0 -0.000261737)
(0 -0 1.45311e-11)
(0 -0 2.73911e-11)
(0 -0 4.42426e-11)
(0 -0 5.99019e-11)
(0 -0 7.37348e-11)
(0 -0 8.57748e-11)
(0 -0 9.52444e-11)
(0 -0 1.02554e-10)
(0 -0 1.07338e-10)
(0 -0 1.09823e-10)
(0 -0 1.09984e-10)
(0 -0 1.07862e-10)
(0 -0 1.03439e-10)
(0 -0 9.6567e-11)
(0 -0 8.72703e-11)
(0 -0 7.56507e-11)
(0 -0 6.29873e-11)
(0 -0 4.86385e-11)
(0 -0 3.11282e-11)
(0 -0 1.95092e-11)
(0 -0 1.5703e-05)
(0 -0 -2.41084e-05)
(0 -0 5.23843e-06)
(0 -0 -1.27941e-06)
(0 -0 2.72572e-07)
(0 -0 -6.93158e-08)
(0 -0 1.02378e-08)
(0 -0 -7.16148e-09)
(0 -0 -2.58978e-09)
(0 -0 -2.91217e-09)
(0 -0 -2.17347e-09)
(0 -0 -1.72962e-09)
(0 -0 -1.29203e-09)
(0 -0 -9.31158e-10)
(0 -0 -6.33272e-10)
(0 -0 -3.99167e-10)
(0 -0 -2.21503e-10)
(0 -0 -8.03634e-11)
(0 -0 7.66313e-12)
(0 -0 6.74806e-12)
)
;
    }
    frontAndBack
    {
        type            empty;
    }
}


// ************************************************************************* //
