/*--------------------------------*- C++ -*----------------------------------*\
| =========                 |                                                 |
| \\      /  F ield         | OpenFOAM: The Open Source CFD Toolbox           |
|  \\    /   O peration     | Version:  2312                                  |
|   \\  /    A nd           | Website:  www.openfoam.com                      |
|    \\/     M anipulation  |                                                 |
\*---------------------------------------------------------------------------*/
FoamFile
{
    version     2.0;
    format      ascii;
    arch        "LSB;label=32;scalar=64";
    class       volScalarField;
    location    "3.375";
    object      zeroGradient(epsilon);
}
// * * * * * * * * * * * * * * * * * * * * * * * * * * * * * * * * * * * * * //

dimensions      [0 2 -3 0 0 0 0];

internalField   nonuniform List<scalar> 
400
(
4.81601e-05
4.81586e-05
4.81572e-05
4.81561e-05
4.81549e-05
4.81539e-05
4.81533e-05
4.81523e-05
4.81516e-05
4.81509e-05
4.81505e-05
4.81498e-05
4.81497e-05
4.81491e-05
4.81491e-05
4.81487e-05
4.81487e-05
4.81485e-05
4.81485e-05
4.81485e-05
8.09653e-05
7.73495e-05
7.76097e-05
7.7719e-05
7.79396e-05
7.8058e-05
7.82798e-05
7.84071e-05
7.86299e-05
7.87662e-05
7.89902e-05
7.91355e-05
7.93611e-05
7.95147e-05
7.97428e-05
7.99041e-05
8.01356e-05
8.03039e-05
8.0422e-05
8.06254e-05
0.000132911
0.000125635
0.000126147
0.000126363
0.000126798
0.000127033
0.000127471
0.000127724
0.000128164
0.000128436
0.000128878
0.000129169
0.000129615
0.000129923
0.000130373
0.000130697
0.000131155
0.000131493
0.000131727
0.000132132
0.000179391
0.000168265
0.000169025
0.000169347
0.000169998
0.000170351
0.000171007
0.000171389
0.00017205
0.000172462
0.000173128
0.000173571
0.000174243
0.000174714
0.000175395
0.000175892
0.000176586
0.000177107
0.000177463
0.000178082
0.000210901
0.000196938
0.000197875
0.000198273
0.000199078
0.000199515
0.000200328
0.000200804
0.000201623
0.000202138
0.000202964
0.000203519
0.000204354
0.000204946
0.000205794
0.00020642
0.000207285
0.000207942
0.000208386
0.000209164
0.00022956
0.000213851
0.000214894
0.000215337
0.000216236
0.000216725
0.000217631
0.000218164
0.000219079
0.000219658
0.000220581
0.000221204
0.000222139
0.000222804
0.000223755
0.000224459
0.000225429
0.00022617
0.000226668
0.000227543
0.000240364
0.000223628
0.000224733
0.000225203
0.000226155
0.000226674
0.000227636
0.000228202
0.000229173
0.000229788
0.000230769
0.000231432
0.000232425
0.000233133
0.000234144
0.000234894
0.000235926
0.000236716
0.000237246
0.000238177
0.000247071
0.000229694
0.000230837
0.000231323
0.000232309
0.000232847
0.000233843
0.00023443
0.000235436
0.000236073
0.00023709
0.000237777
0.000238807
0.000239542
0.00024059
0.000241369
0.000242439
0.00024326
0.00024381
0.000244777
0.000251862
0.000234027
0.000235197
0.000235695
0.000236705
0.000237256
0.000238276
0.000238878
0.000239909
0.000240563
0.000241605
0.00024231
0.000243366
0.00024412
0.000245195
0.000245994
0.000247092
0.000247934
0.000248498
0.000249491
0.000255876
0.000237657
0.00023885
0.000239358
0.000240388
0.00024095
0.000241991
0.000242605
0.000243656
0.000244324
0.000245387
0.000246107
0.000247185
0.000247955
0.000249052
0.000249869
0.000250989
0.00025185
0.000252426
0.00025344
0.000259715
0.000241127
0.000242343
0.000242859
0.000243909
0.000244481
0.000245542
0.000246168
0.000247239
0.00024792
0.000249003
0.000249738
0.000250836
0.000251622
0.00025274
0.000253573
0.000254716
0.000255594
0.000256182
0.000257216
0.000263723
0.000244751
0.000245987
0.000246515
0.000247584
0.000248168
0.000249249
0.000249887
0.000250979
0.000251674
0.000252778
0.000253528
0.000254648
0.00025545
0.00025659
0.000257441
0.000258606
0.000259503
0.000260102
0.000261158
0.000268126
0.000248731
0.000249994
0.000250531
0.000251623
0.000252219
0.000253322
0.000253974
0.000255089
0.000255799
0.000256927
0.000257693
0.000258837
0.000259657
0.000260821
0.000261691
0.000262882
0.000263799
0.000264412
0.000265491
0.000273122
0.00025324
0.000254531
0.000255081
0.000256198
0.000256808
0.000257937
0.000258604
0.000259745
0.000260472
0.000261627
0.000262411
0.000263583
0.000264423
0.000265616
0.000266507
0.000267727
0.000268667
0.000269295
0.000270401
0.000278902
0.000258456
0.00025978
0.000260344
0.00026149
0.000262117
0.000263275
0.000263961
0.000265133
0.000265879
0.000267065
0.000267871
0.000269075
0.000269938
0.000271164
0.000272081
0.000273334
0.000274302
0.000274946
0.000276084
0.000285727
0.00026461
0.000265973
0.000266554
0.000267735
0.00026838
0.000269574
0.000270281
0.000271489
0.000272259
0.000273482
0.000274314
0.000275555
0.000276446
0.000277711
0.000278658
0.000279952
0.000280951
0.000281617
0.000282791
0.0002939
0.000271973
0.000273383
0.000273984
0.000275206
0.000275875
0.000277111
0.000277844
0.000279095
0.000279894
0.000281161
0.000282024
0.000283311
0.000284236
0.000285547
0.000286531
0.000287873
0.000288911
0.000289601
0.000290821
0.00030341
0.000280551
0.000282013
0.000282637
0.000283907
0.000284602
0.000285886
0.000286649
0.00028795
0.000288782
0.000290099
0.000290999
0.000292338
0.000293303
0.000294668
0.000295695
0.000297092
0.000298176
0.000298896
0.000300168
0.000312795
0.00028966
0.000291098
0.000291713
0.000292969
0.000293665
0.00029494
0.000295713
0.000297008
0.000297861
0.000299177
0.000300108
0.000301451
0.000302457
0.000303834
0.000304912
0.00030633
0.000307475
0.00030821
0.000309531
0.00031585
0.000315834
0.000315823
0.000315814
0.00031581
0.000315799
0.000315798
0.000315788
0.000315788
0.000315781
0.000315781
0.000315776
0.000315777
0.000315774
0.000315774
0.000315773
0.000315773
0.000315773
0.000315773
0.000315773
)
;

boundaryField
{
    movingWall
    {
        type            zeroGradient;
    }
    fixedWalls
    {
        type            zeroGradient;
    }
    frontAndBack
    {
        type            empty;
    }
}


// ************************************************************************* //
