/*--------------------------------*- C++ -*----------------------------------*\
| =========                 |                                                 |
| \\      /  F ield         | OpenFOAM: The Open Source CFD Toolbox           |
|  \\    /   O peration     | Version:  2312                                  |
|   \\  /    A nd           | Website:  www.openfoam.com                      |
|    \\/     M anipulation  |                                                 |
\*---------------------------------------------------------------------------*/
FoamFile
{
    version     2.0;
    format      ascii;
    arch        "LSB;label=32;scalar=64";
    class       volVectorField;
    location    "3.625";
    object      diffU;
}
// * * * * * * * * * * * * * * * * * * * * * * * * * * * * * * * * * * * * * //

dimensions      [0 1 -1 0 0 0 0];

internalField   nonuniform List<vector> 
400
(
(0 0 0)
(-5.45348e-09 -2.24201e-07 0)
(-4.26805e-09 -1.72229e-07 0)
(-4.69128e-09 -1.84477e-07 0)
(-4.61468e-09 -1.81652e-07 0)
(-4.6423e-09 -1.82312e-07 0)
(-4.63662e-09 -1.82159e-07 0)
(-4.63826e-09 -1.82194e-07 0)
(-4.63794e-09 -1.82186e-07 0)
(-4.63809e-09 -1.82188e-07 0)
(-4.63811e-09 -1.82187e-07 0)
(-4.63816e-09 -1.82187e-07 0)
(-4.63819e-09 -1.82187e-07 0)
(-4.63822e-09 -1.82187e-07 0)
(-4.63825e-09 -1.82187e-07 0)
(-4.63827e-09 -1.82187e-07 0)
(-4.63828e-09 -1.82187e-07 0)
(-4.63831e-09 -1.82187e-07 0)
(-4.63833e-09 -1.82187e-07 0)
(-4.63831e-09 -1.82187e-07 0)
(-1.96566e-08 -3.65133e-07 0)
(-1.56713e-09 -1.39898e-07 0)
(-5.9969e-09 -1.92187e-07 0)
(-4.36829e-09 -1.79879e-07 0)
(-4.73806e-09 -1.82724e-07 0)
(-4.61174e-09 -1.82062e-07 0)
(-4.6449e-09 -1.82216e-07 0)
(-4.63581e-09 -1.82181e-07 0)
(-4.63859e-09 -1.82189e-07 0)
(-4.63792e-09 -1.82187e-07 0)
(-4.63817e-09 -1.82187e-07 0)
(-4.63815e-09 -1.82187e-07 0)
(-4.6382e-09 -1.82187e-07 0)
(-4.63822e-09 -1.82187e-07 0)
(-4.63825e-09 -1.82187e-07 0)
(-4.63827e-09 -1.82187e-07 0)
(-4.63829e-09 -1.82187e-07 0)
(-4.63831e-09 -1.82187e-07 0)
(-4.63832e-09 -1.82187e-07 0)
(-4.63831e-09 -1.82187e-07 0)
(1.8838e-08 2.21031e-09 0)
(-9.44735e-09 -2.24996e-07 0)
(-2.51921e-09 -1.7205e-07 0)
(-5.06458e-09 -1.84536e-07 0)
(-4.48001e-09 -1.81636e-07 0)
(-4.6797e-09 -1.82315e-07 0)
(-4.62677e-09 -1.82157e-07 0)
(-4.64155e-09 -1.82194e-07 0)
(-4.63717e-09 -1.82186e-07 0)
(-4.63837e-09 -1.82188e-07 0)
(-4.63807e-09 -1.82187e-07 0)
(-4.63819e-09 -1.82187e-07 0)
(-4.63819e-09 -1.82187e-07 0)
(-4.63823e-09 -1.82187e-07 0)
(-4.63825e-09 -1.82187e-07 0)
(-4.63827e-09 -1.82187e-07 0)
(-4.63828e-09 -1.82187e-07 0)
(-4.63831e-09 -1.82187e-07 0)
(-4.63833e-09 -1.82187e-07 0)
(-4.63831e-09 -1.82187e-07 0)
(-3.49522e-08 -3.68717e-07 0)
(1.54192e-09 -1.38697e-07 0)
(-7.36836e-09 -1.92488e-07 0)
(-4.09117e-09 -1.79788e-07 0)
(-4.84253e-09 -1.8275e-07 0)
(-4.58443e-09 -1.82055e-07 0)
(-4.65284e-09 -1.82218e-07 0)
(-4.63352e-09 -1.8218e-07 0)
(-4.63931e-09 -1.82189e-07 0)
(-4.63779e-09 -1.82187e-07 0)
(-4.63826e-09 -1.82187e-07 0)
(-4.63816e-09 -1.82187e-07 0)
(-4.63822e-09 -1.82187e-07 0)
(-4.63823e-09 -1.82187e-07 0)
(-4.63826e-09 -1.82187e-07 0)
(-4.63827e-09 -1.82187e-07 0)
(-4.63829e-09 -1.82187e-07 0)
(-4.63831e-09 -1.82187e-07 0)
(-4.63832e-09 -1.82187e-07 0)
(-4.63831e-09 -1.82187e-07 0)
(3.07839e-08 7.13262e-09 0)
(-1.18363e-08 -2.26532e-07 0)
(-1.45128e-09 -1.71679e-07 0)
(-5.27626e-09 -1.84647e-07 0)
(-4.39897e-09 -1.81607e-07 0)
(-4.70111e-09 -1.82323e-07 0)
(-4.62077e-09 -1.82155e-07 0)
(-4.64354e-09 -1.82195e-07 0)
(-4.63672e-09 -1.82185e-07 0)
(-4.63857e-09 -1.82188e-07 0)
(-4.63806e-09 -1.82187e-07 0)
(-4.63823e-09 -1.82187e-07 0)
(-4.63821e-09 -1.82187e-07 0)
(-4.63825e-09 -1.82187e-07 0)
(-4.63826e-09 -1.82187e-07 0)
(-4.63828e-09 -1.82187e-07 0)
(-4.63829e-09 -1.82187e-07 0)
(-4.63831e-09 -1.82187e-07 0)
(-4.63832e-09 -1.82187e-07 0)
(-4.63831e-09 -1.82187e-07 0)
(-4.32982e-08 -3.74868e-07 0)
(3.16005e-09 -1.36878e-07 0)
(-8.1065e-09 -1.92928e-07 0)
(-3.95123e-09 -1.79662e-07 0)
(-4.89709e-09 -1.82784e-07 0)
(-4.57024e-09 -1.82046e-07 0)
(-4.6568e-09 -1.8222e-07 0)
(-4.63227e-09 -1.82179e-07 0)
(-4.63967e-09 -1.82189e-07 0)
(-4.63771e-09 -1.82187e-07 0)
(-4.63831e-09 -1.82187e-07 0)
(-4.63817e-09 -1.82187e-07 0)
(-4.63824e-09 -1.82187e-07 0)
(-4.63825e-09 -1.82187e-07 0)
(-4.63827e-09 -1.82187e-07 0)
(-4.63828e-09 -1.82187e-07 0)
(-4.6383e-09 -1.82187e-07 0)
(-4.63831e-09 -1.82187e-07 0)
(-4.63832e-09 -1.82187e-07 0)
(-4.63831e-09 -1.82187e-07 0)
(3.61037e-08 1.43489e-08 0)
(-1.28219e-08 -2.2857e-07 0)
(-9.85132e-10 -1.71192e-07 0)
(-5.35772e-09 -1.84782e-07 0)
(-4.36505e-09 -1.81573e-07 0)
(-4.70931e-09 -1.82332e-07 0)
(-4.61833e-09 -1.82153e-07 0)
(-4.64427e-09 -1.82195e-07 0)
(-4.63653e-09 -1.82185e-07 0)
(-4.63864e-09 -1.82188e-07 0)
(-4.63806e-09 -1.82187e-07 0)
(-4.63826e-09 -1.82187e-07 0)
(-4.63823e-09 -1.82187e-07 0)
(-4.63826e-09 -1.82187e-07 0)
(-4.63827e-09 -1.82187e-07 0)
(-4.63829e-09 -1.82187e-07 0)
(-4.63829e-09 -1.82187e-07 0)
(-4.63831e-09 -1.82187e-07 0)
(-4.63832e-09 -1.82187e-07 0)
(-4.63831e-09 -1.82187e-07 0)
(-4.59858e-08 -3.82973e-07 0)
(3.60793e-09 -1.34662e-07 0)
(-8.3335e-09 -1.93454e-07 0)
(-3.91689e-09 -1.79519e-07 0)
(-4.91198e-09 -1.82819e-07 0)
(-4.56659e-09 -1.82037e-07 0)
(-4.65769e-09 -1.82222e-07 0)
(-4.63193e-09 -1.82179e-07 0)
(-4.63974e-09 -1.82189e-07 0)
(-4.6377e-09 -1.82187e-07 0)
(-4.63834e-09 -1.82187e-07 0)
(-4.63819e-09 -1.82187e-07 0)
(-4.63826e-09 -1.82187e-07 0)
(-4.63827e-09 -1.82187e-07 0)
(-4.63828e-09 -1.82187e-07 0)
(-4.63829e-09 -1.82187e-07 0)
(-4.6383e-09 -1.82187e-07 0)
(-4.63831e-09 -1.82187e-07 0)
(-4.63831e-09 -1.82187e-07 0)
(-4.63831e-09 -1.82187e-07 0)
(3.66699e-08 2.31074e-08 0)
(-1.28526e-08 -2.309e-07 0)
(-9.47264e-10 -1.70637e-07 0)
(-5.35565e-09 -1.84928e-07 0)
(-4.36403e-09 -1.81536e-07 0)
(-4.7091e-09 -1.82341e-07 0)
(-4.61836e-09 -1.8215e-07 0)
(-4.64423e-09 -1.82196e-07 0)
(-4.63654e-09 -1.82185e-07 0)
(-4.63865e-09 -1.82187e-07 0)
(-4.63808e-09 -1.82187e-07 0)
(-4.63828e-09 -1.82187e-07 0)
(-4.63825e-09 -1.82187e-07 0)
(-4.63828e-09 -1.82187e-07 0)
(-4.63829e-09 -1.82187e-07 0)
(-4.6383e-09 -1.82187e-07 0)
(-4.6383e-09 -1.82187e-07 0)
(-4.63831e-09 -1.82187e-07 0)
(-4.63831e-09 -1.82187e-07 0)
(-4.63831e-09 -1.82187e-07 0)
(-4.4741e-08 -3.92159e-07 0)
(3.29117e-09 -1.32258e-07 0)
(-8.21045e-09 -1.94024e-07 0)
(-3.94837e-09 -1.79371e-07 0)
(-4.90104e-09 -1.82855e-07 0)
(-4.56966e-09 -1.82028e-07 0)
(-4.65676e-09 -1.82225e-07 0)
(-4.63222e-09 -1.82178e-07 0)
(-4.63968e-09 -1.82189e-07 0)
(-4.63775e-09 -1.82186e-07 0)
(-4.63836e-09 -1.82187e-07 0)
(-4.63822e-09 -1.82187e-07 0)
(-4.63829e-09 -1.82187e-07 0)
(-4.63828e-09 -1.82187e-07 0)
(-4.63829e-09 -1.82187e-07 0)
(-4.6383e-09 -1.82187e-07 0)
(-4.63831e-09 -1.82187e-07 0)
(-4.63831e-09 -1.82187e-07 0)
(-4.63831e-09 -1.82187e-07 0)
(-4.63831e-09 -1.82187e-07 0)
(3.38572e-08 3.24517e-08 0)
(-1.22392e-08 -2.33311e-07 0)
(-1.20852e-09 -1.70065e-07 0)
(-5.29904e-09 -1.85074e-07 0)
(-4.38496e-09 -1.815e-07 0)
(-4.70351e-09 -1.8235e-07 0)
(-4.62e-09 -1.82148e-07 0)
(-4.64376e-09 -1.82196e-07 0)
(-4.63671e-09 -1.82185e-07 0)
(-4.63865e-09 -1.82187e-07 0)
(-4.63813e-09 -1.82187e-07 0)
(-4.63831e-09 -1.82187e-07 0)
(-4.63828e-09 -1.82187e-07 0)
(-4.6383e-09 -1.82187e-07 0)
(-4.6383e-09 -1.82187e-07 0)
(-4.6383e-09 -1.82187e-07 0)
(-4.63831e-09 -1.82187e-07 0)
(-4.63831e-09 -1.82187e-07 0)
(-4.63831e-09 -1.82187e-07 0)
(-4.63831e-09 -1.82187e-07 0)
(-4.05815e-08 -4.01431e-07 0)
(2.42568e-09 -1.29888e-07 0)
(-7.83175e-09 -1.94586e-07 0)
(-4.02606e-09 -1.79228e-07 0)
(-4.87194e-09 -1.8289e-07 0)
(-4.57744e-09 -1.82019e-07 0)
(-4.65466e-09 -1.82227e-07 0)
(-4.63297e-09 -1.82177e-07 0)
(-4.63956e-09 -1.82189e-07 0)
(-4.63786e-09 -1.82186e-07 0)
(-4.63839e-09 -1.82187e-07 0)
(-4.63826e-09 -1.82187e-07 0)
(-4.63831e-09 -1.82187e-07 0)
(-4.63831e-09 -1.82187e-07 0)
(-4.63831e-09 -1.82187e-07 0)
(-4.63831e-09 -1.82187e-07 0)
(-4.63831e-09 -1.82187e-07 0)
(-4.63831e-09 -1.82187e-07 0)
(-4.6383e-09 -1.82187e-07 0)
(-4.63831e-09 -1.82187e-07 0)
(2.85159e-08 4.14075e-08 0)
(-1.11523e-08 -2.35579e-07 0)
(-1.6912e-09 -1.69526e-07 0)
(-5.203e-09 -1.8521e-07 0)
(-4.42181e-09 -1.81467e-07 0)
(-4.69409e-09 -1.82358e-07 0)
(-4.62283e-09 -1.82146e-07 0)
(-4.64302e-09 -1.82196e-07 0)
(-4.63702e-09 -1.82184e-07 0)
(-4.63866e-09 -1.82187e-07 0)
(-4.63821e-09 -1.82187e-07 0)
(-4.63835e-09 -1.82187e-07 0)
(-4.63832e-09 -1.82187e-07 0)
(-4.63832e-09 -1.82187e-07 0)
(-4.63832e-09 -1.82187e-07 0)
(-4.63832e-09 -1.82187e-07 0)
(-4.63831e-09 -1.82187e-07 0)
(-4.63831e-09 -1.82187e-07 0)
(-4.6383e-09 -1.82187e-07 0)
(-4.63831e-09 -1.82187e-07 0)
(-3.42742e-08 -4.09877e-07 0)
(1.16059e-09 -1.27762e-07 0)
(-7.26615e-09 -1.9509e-07 0)
(-4.13702e-09 -1.79101e-07 0)
(-4.82978e-09 -1.8292e-07 0)
(-4.58863e-09 -1.82011e-07 0)
(-4.65176e-09 -1.82228e-07 0)
(-4.63408e-09 -1.82177e-07 0)
(-4.63943e-09 -1.82189e-07 0)
(-4.63803e-09 -1.82186e-07 0)
(-4.63844e-09 -1.82187e-07 0)
(-4.63833e-09 -1.82187e-07 0)
(-4.63835e-09 -1.82187e-07 0)
(-4.63834e-09 -1.82187e-07 0)
(-4.63833e-09 -1.82187e-07 0)
(-4.63832e-09 -1.82187e-07 0)
(-4.63832e-09 -1.82187e-07 0)
(-4.63831e-09 -1.82187e-07 0)
(-4.6383e-09 -1.82187e-07 0)
(-4.63831e-09 -1.82187e-07 0)
(2.1357e-08 4.91497e-08 0)
(-9.72744e-09 -2.37514e-07 0)
(-2.33195e-09 -1.69068e-07 0)
(-5.07907e-09 -1.85324e-07 0)
(-4.4699e-09 -1.81439e-07 0)
(-4.682e-09 -1.82364e-07 0)
(-4.6265e-09 -1.82144e-07 0)
(-4.64212e-09 -1.82197e-07 0)
(-4.63745e-09 -1.82184e-07 0)
(-4.63869e-09 -1.82187e-07 0)
(-4.63832e-09 -1.82187e-07 0)
(-4.63841e-09 -1.82187e-07 0)
(-4.63837e-09 -1.82187e-07 0)
(-4.63836e-09 -1.82187e-07 0)
(-4.63834e-09 -1.82187e-07 0)
(-4.63833e-09 -1.82187e-07 0)
(-4.63832e-09 -1.82187e-07 0)
(-4.63831e-09 -1.82187e-07 0)
(-4.6383e-09 -1.82187e-07 0)
(-4.6383e-09 -1.82187e-07 0)
(-2.65056e-08 -4.16765e-07 0)
(-3.73032e-10 -1.26051e-07 0)
(-6.57416e-09 -1.95495e-07 0)
(-4.27009e-09 -1.79e-07 0)
(-4.77895e-09 -1.82944e-07 0)
(-4.60213e-09 -1.82005e-07 0)
(-4.64838e-09 -1.8223e-07 0)
(-4.63545e-09 -1.82176e-07 0)
(-4.63931e-09 -1.82189e-07 0)
(-4.63825e-09 -1.82186e-07 0)
(-4.63852e-09 -1.82187e-07 0)
(-4.63841e-09 -1.82187e-07 0)
(-4.6384e-09 -1.82187e-07 0)
(-4.63837e-09 -1.82187e-07 0)
(-4.63835e-09 -1.82187e-07 0)
(-4.63833e-09 -1.82187e-07 0)
(-4.63833e-09 -1.82187e-07 0)
(-4.63831e-09 -1.82187e-07 0)
(-4.63829e-09 -1.82187e-07 0)
(-4.6383e-09 -1.82187e-07 0)
(1.30722e-08 5.50503e-08 0)
(-8.09844e-09 -2.38972e-07 0)
(-3.06951e-09 -1.68722e-07 0)
(-4.93872e-09 -1.85408e-07 0)
(-4.52482e-09 -1.81418e-07 0)
(-4.66841e-09 -1.82369e-07 0)
(-4.63071e-09 -1.82143e-07 0)
(-4.64117e-09 -1.82197e-07 0)
(-4.63796e-09 -1.82184e-07 0)
(-4.63875e-09 -1.82188e-07 0)
(-4.63845e-09 -1.82187e-07 0)
(-4.63848e-09 -1.82187e-07 0)
(-4.63842e-09 -1.82187e-07 0)
(-4.63839e-09 -1.82187e-07 0)
(-4.63836e-09 -1.82187e-07 0)
(-4.63834e-09 -1.82187e-07 0)
(-4.63833e-09 -1.82187e-07 0)
(-4.63831e-09 -1.82187e-07 0)
(-4.63829e-09 -1.82187e-07 0)
(-4.6383e-09 -1.82187e-07 0)
(-1.78683e-08 -4.21576e-07 0)
(-2.06524e-09 -1.24872e-07 0)
(-5.80641e-09 -1.95772e-07 0)
(-4.41612e-09 -1.78931e-07 0)
(-4.72324e-09 -1.82961e-07 0)
(-4.6171e-09 -1.82001e-07 0)
(-4.64484e-09 -1.82231e-07 0)
(-4.63699e-09 -1.82176e-07 0)
(-4.6392e-09 -1.82189e-07 0)
(-4.63849e-09 -1.82186e-07 0)
(-4.63859e-09 -1.82187e-07 0)
(-4.63848e-09 -1.82187e-07 0)
(-4.63845e-09 -1.82187e-07 0)
(-4.6384e-09 -1.82187e-07 0)
(-4.63837e-09 -1.82187e-07 0)
(-4.63834e-09 -1.82187e-07 0)
(-4.63833e-09 -1.82187e-07 0)
(-4.63831e-09 -1.82187e-07 0)
(-4.63829e-09 -1.82187e-07 0)
(-4.6383e-09 -1.82187e-07 0)
(4.53301e-09 5.87053e-08 0)
(-6.44712e-09 -2.39863e-07 0)
(-3.83471e-09 -1.68514e-07 0)
(-4.79659e-09 -1.85456e-07 0)
(-4.58281e-09 -1.81407e-07 0)
(-4.65454e-09 -1.82372e-07 0)
(-4.63528e-09 -1.82142e-07 0)
(-4.6402e-09 -1.82197e-07 0)
(-4.6385e-09 -1.82184e-07 0)
(-4.63878e-09 -1.82188e-07 0)
(-4.63857e-09 -1.82187e-07 0)
(-4.63853e-09 -1.82187e-07 0)
(-4.63846e-09 -1.82187e-07 0)
(-4.63842e-09 -1.82187e-07 0)
(-4.63838e-09 -1.82187e-07 0)
(-4.63835e-09 -1.82187e-07 0)
(-4.63834e-09 -1.82187e-07 0)
(-4.63831e-09 -1.82187e-07 0)
(-4.63829e-09 -1.82187e-07 0)
(-4.6383e-09 -1.82187e-07 0)
(-8.90392e-09 -4.24225e-07 0)
(-3.64445e-09 -1.24009e-07 0)
(-5.09109e-09 -1.95988e-07 0)
(-4.53525e-09 -1.78871e-07 0)
(-4.67837e-09 -1.82979e-07 0)
(-4.62898e-09 -1.81998e-07 0)
(-4.64247e-09 -1.82233e-07 0)
(-4.63811e-09 -1.82176e-07 0)
(-4.63914e-09 -1.8219e-07 0)
(-4.63865e-09 -1.82187e-07 0)
(-4.63865e-09 -1.82187e-07 0)
(-4.63854e-09 -1.82187e-07 0)
(-4.63849e-09 -1.82187e-07 0)
(-4.63843e-09 -1.82187e-07 0)
(-4.63839e-09 -1.82187e-07 0)
(-4.63837e-09 -1.82187e-07 0)
(-4.63835e-09 -1.82187e-07 0)
(-4.63831e-09 -1.82187e-07 0)
(-4.63828e-09 -1.82187e-07 0)
(-4.6383e-09 -1.82187e-07 0)
)
;

boundaryField
{
    movingWall
    {
        type            calculated;
        value           uniform (-4.63831e-09 -1.82187e-07 0);
    }
    fixedWalls
    {
        type            calculated;
        value           uniform (-4.63831e-09 -1.82187e-07 0);
    }
    frontAndBack
    {
        type            empty;
    }
}


// ************************************************************************* //
