/*--------------------------------*- C++ -*----------------------------------*\
| =========                 |                                                 |
| \\      /  F ield         | OpenFOAM: The Open Source CFD Toolbox           |
|  \\    /   O peration     | Version:  2312                                  |
|   \\  /    A nd           | Website:  www.openfoam.com                      |
|    \\/     M anipulation  |                                                 |
\*---------------------------------------------------------------------------*/
FoamFile
{
    version     2.0;
    format      ascii;
    arch        "LSB;label=32;scalar=64";
    class       volScalarField;
    location    "3.625";
    object      enstrophyField;
}
// * * * * * * * * * * * * * * * * * * * * * * * * * * * * * * * * * * * * * //

dimensions      [0 0 -2 0 0 0 0];

internalField   nonuniform List<scalar> 
400
(
1.13331e-10
1.52225e-10
8.28744e-12
4.64642e-13
2.51289e-14
1.4003e-15
7.51415e-17
4.39658e-18
1.9015e-19
2.12726e-20
1.00183e-24
7.68414e-22
2.33027e-22
1.64319e-22
7.88439e-23
3.64878e-23
1.10029e-23
2.36176e-25
1.98788e-24
4.15587e-25
1.27193e-10
1.56538e-10
8.70671e-12
4.83798e-13
2.68577e-14
1.48849e-15
8.2433e-17
4.54256e-18
2.52391e-19
1.36338e-20
7.81753e-22
4.05286e-23
3.12815e-24
6.3615e-26
7.26323e-25
9.80814e-26
7.1144e-26
1.43153e-24
1.28384e-23
1.49338e-25
1.23064e-10
1.57299e-10
8.74911e-12
4.86468e-13
2.70429e-14
1.5031e-15
8.34425e-17
4.64018e-18
2.55766e-19
1.42868e-20
7.95286e-22
3.74438e-23
2.21122e-24
1.51168e-24
1.17047e-24
2.84606e-25
2.0431e-25
3.70219e-24
3.46692e-23
4.58362e-25
1.20103e-10
1.59522e-10
8.88668e-12
4.94973e-13
2.75718e-14
1.53543e-15
8.55959e-17
4.75462e-18
2.66685e-19
1.46519e-20
8.13475e-22
5.37777e-23
2.70663e-24
6.5689e-25
2.73375e-24
4.3269e-25
2.94607e-25
7.5166e-24
6.3938e-23
7.94601e-25
1.17537e-10
1.62774e-10
9.08361e-12
5.06863e-13
2.82853e-14
1.57906e-15
8.80507e-17
4.93154e-18
2.72822e-19
1.54999e-20
8.61732e-22
4.04545e-23
1.96549e-24
3.4569e-24
3.64386e-24
7.9393e-25
4.21608e-25
1.15021e-23
9.62192e-23
1.31361e-24
1.16573e-10
1.6731e-10
9.35319e-12
5.22818e-13
2.92318e-14
1.63411e-15
9.15037e-17
5.09821e-18
2.88472e-19
1.57477e-20
9.00228e-22
5.7006e-23
4.39962e-24
2.35421e-24
6.42849e-24
1.27172e-24
4.15515e-25
1.60111e-23
1.31293e-22
1.86016e-24
1.16802e-10
1.72958e-10
9.68633e-12
5.42429e-13
3.0379e-14
1.70241e-15
9.52599e-17
5.36252e-18
2.96662e-19
1.71607e-20
9.20213e-22
4.89637e-23
1.02522e-24
7.64529e-24
8.00683e-24
2.07016e-24
3.66263e-25
2.07027e-23
1.62515e-22
2.52064e-24
1.18313e-10
1.79645e-10
1.0078e-11
5.65294e-13
3.17179e-14
1.77922e-15
1.00011e-16
5.58592e-18
3.1846e-19
1.71942e-20
1.05011e-21
5.2566e-23
9.26264e-24
6.24443e-24
1.2039e-23
2.86195e-24
2.58335e-25
2.48227e-23
1.8724e-22
2.81032e-24
1.20647e-10
1.87072e-10
1.05108e-11
5.905e-13
3.31778e-14
1.8654e-15
1.04694e-16
5.91895e-18
3.27155e-19
1.93247e-20
9.64894e-22
6.9508e-23
3.24182e-26
1.41003e-23
1.32026e-23
3.96302e-24
6.75111e-26
2.91905e-23
2.04086e-22
3.28772e-24
1.23606e-10
1.95073e-10
1.09754e-11
6.17409e-13
3.47419e-14
1.95437e-15
1.10186e-16
6.16747e-18
3.53772e-19
1.88644e-20
1.22305e-21
4.72276e-23
1.52769e-23
1.06295e-23
1.74208e-23
4.87445e-24
2.02803e-27
3.23455e-23
2.14342e-22
3.68424e-24
1.26971e-10
2.03316e-10
1.1452e-11
6.4497e-13
3.63271e-14
2.04752e-15
1.15183e-16
6.53078e-18
3.60965e-19
2.16067e-20
1.01972e-21
9.15875e-23
2.46652e-25
2.03467e-23
1.79226e-23
6.09644e-24
8.15104e-27
3.45752e-23
2.16134e-22
3.705e-24
1.30578e-10
2.11682e-10
1.19351e-11
6.72791e-13
3.79363e-14
2.13843e-15
1.20806e-16
6.77482e-18
3.89741e-19
2.06402e-20
1.40139e-21
4.28558e-23
2.20495e-23
1.38415e-23
2.08226e-23
6.04498e-24
4.50425e-26
3.38076e-23
2.10565e-22
3.63207e-24
1.34309e-10
2.19805e-10
1.24022e-11
6.99673e-13
3.94746e-14
2.22858e-15
1.25586e-16
7.13007e-18
3.94877e-19
2.37524e-20
1.09339e-21
1.11917e-22
8.23524e-25
2.27538e-23
1.89719e-23
6.55505e-24
1.33885e-25
3.24924e-23
1.96167e-22
3.32565e-24
1.37956e-10
2.27618e-10
1.28515e-11
7.25439e-13
4.09595e-14
2.312e-15
1.30757e-16
7.34673e-18
4.22536e-19
2.24909e-20
1.53644e-21
4.31099e-23
2.47207e-23
1.37055e-23
1.90631e-23
5.66989e-24
1.34064e-25
2.85324e-23
1.75281e-22
2.64496e-24
1.41526e-10
2.34759e-10
1.32604e-11
7.4888e-13
4.22956e-14
2.39011e-15
1.34867e-16
7.65638e-18
4.25743e-19
2.54059e-20
1.19347e-21
1.16562e-22
3.41382e-25
1.84884e-23
1.38383e-23
4.68277e-24
6.1351e-26
2.44194e-23
1.43622e-22
2.14765e-24
1.44767e-10
2.41212e-10
1.36303e-11
7.70015e-13
4.35095e-14
2.45803e-15
1.39075e-16
7.8289e-18
4.48954e-19
2.41517e-20
1.60277e-21
5.03792e-23
2.14062e-23
8.30312e-24
1.20514e-23
3.62597e-24
1.24834e-25
1.87812e-23
1.09027e-22
1.60093e-24
1.47603e-10
2.46599e-10
1.3937e-11
7.87507e-13
4.45009e-14
2.51579e-15
1.4207e-16
8.06034e-18
4.50039e-19
2.65874e-20
1.2901e-21
1.19314e-22
3.73697e-26
1.27524e-23
8.02566e-24
2.98672e-24
1.86181e-25
1.3772e-23
7.39518e-23
1.30441e-24
1.50571e-10
2.51222e-10
1.42015e-11
8.02581e-13
4.53642e-14
2.56393e-15
1.45046e-16
8.18115e-18
4.66656e-19
2.55964e-20
1.59819e-21
6.30978e-23
1.3341e-23
2.38695e-24
4.78896e-24
9.27518e-25
4.57514e-27
7.85332e-24
4.66848e-23
7.76464e-25
1.5182e-10
2.54566e-10
1.44139e-11
8.15943e-13
4.6192e-14
2.6158e-15
1.48061e-16
8.39599e-18
4.73878e-19
2.70596e-20
1.51522e-21
8.34998e-23
4.7789e-24
8.21896e-25
4.00746e-26
2.04133e-25
1.41153e-24
1.54773e-24
2.62366e-23
1.98888e-26
1.60121e-10
2.58603e-10
1.48574e-11
8.38975e-13
4.84061e-14
2.73459e-15
1.616e-16
8.47444e-18
6.4625e-19
1.31077e-20
7.59373e-21
5.51923e-22
7.41364e-22
2.86442e-22
1.3932e-22
5.67541e-23
1.98641e-23
8.30456e-25
2.34867e-24
8.29165e-25
)
;

boundaryField
{
    movingWall
    {
        type            calculated;
        value           nonuniform List<scalar> 
20
(
2.01846e-10
2.69612e-10
1.60592e-11
9.00619e-13
5.40266e-14
3.0714e-15
1.90722e-16
9.53109e-18
9.36607e-19
5.5612e-21
2.0031e-20
3.31061e-21
2.95149e-21
1.28416e-21
6.28173e-22
2.81336e-22
1.13846e-22
3.70781e-24
3.0407e-23
4.92902e-24
)
;
    }
    fixedWalls
    {
        type            calculated;
        value           nonuniform List<scalar> 
60
(
2.73156e-09
2.81716e-09
2.83419e-09
2.87332e-09
2.93091e-09
3.01122e-09
3.11128e-09
3.22974e-09
3.36146e-09
3.50347e-09
3.64997e-09
3.79874e-09
3.94336e-09
4.08247e-09
4.20976e-09
4.32475e-09
4.42094e-09
4.50317e-09
4.55636e-09
4.63919e-09
5.36407e-24
2.53002e-23
6.83149e-23
1.2399e-22
1.90617e-22
2.57827e-22
3.21377e-22
3.6993e-22
4.06313e-22
4.2839e-22
4.2966e-22
4.17157e-22
3.85524e-22
3.38662e-22
2.77518e-22
2.10709e-22
1.46344e-22
9.07837e-23
4.02648e-23
1.13285e-23
7.39573e-11
1.42752e-10
7.31259e-12
4.24213e-13
2.1449e-14
1.20379e-15
6.1533e-17
3.72552e-18
1.13689e-19
2.70079e-20
1.048e-21
2.31575e-21
1.04002e-21
6.29562e-22
3.14467e-22
1.46445e-22
4.94212e-23
3.34731e-25
1.90364e-23
1.64381e-24
)
;
    }
    frontAndBack
    {
        type            empty;
    }
}


// ************************************************************************* //
