/*--------------------------------*- C++ -*----------------------------------*\
| =========                 |                                                 |
| \\      /  F ield         | OpenFOAM: The Open Source CFD Toolbox           |
|  \\    /   O peration     | Version:  2312                                  |
|   \\  /    A nd           | Website:  www.openfoam.com                      |
|    \\/     M anipulation  |                                                 |
\*---------------------------------------------------------------------------*/
FoamFile
{
    version     2.0;
    format      ascii;
    arch        "LSB;label=32;scalar=64";
    class       volScalarField;
    location    "3.625";
    object      epsilonzeroGrad;
}
// * * * * * * * * * * * * * * * * * * * * * * * * * * * * * * * * * * * * * //

dimensions      [0 2 -3 0 0 0 0];

internalField   nonuniform List<scalar> 
400
(
3.53622e-05
3.53613e-05
3.53609e-05
3.53601e-05
3.53598e-05
3.53592e-05
3.53589e-05
3.53586e-05
3.53582e-05
3.53579e-05
3.53578e-05
3.53574e-05
3.53575e-05
3.53571e-05
3.53572e-05
3.53569e-05
3.5357e-05
3.53568e-05
3.53569e-05
3.53569e-05
5.28915e-05
5.08026e-05
5.09571e-05
5.10228e-05
5.11536e-05
5.12236e-05
5.13549e-05
5.14296e-05
5.15613e-05
5.16408e-05
5.1773e-05
5.18571e-05
5.19902e-05
5.20785e-05
5.2213e-05
5.23051e-05
5.24416e-05
5.25371e-05
5.26067e-05
5.27245e-05
7.84603e-05
7.48284e-05
7.50942e-05
7.52076e-05
7.54328e-05
7.55538e-05
7.57797e-05
7.59089e-05
7.61353e-05
7.62728e-05
7.64999e-05
7.66454e-05
7.68738e-05
7.70266e-05
7.72572e-05
7.74166e-05
7.76504e-05
7.78154e-05
7.79346e-05
7.81372e-05
0.000100522
9.53719e-05
9.57415e-05
9.58998e-05
9.62143e-05
9.63837e-05
9.66996e-05
9.68812e-05
9.71982e-05
9.73921e-05
9.77106e-05
9.79164e-05
9.82372e-05
9.84541e-05
9.87784e-05
9.90051e-05
9.93345e-05
9.95701e-05
9.97382e-05
0.000100026
0.000115285
0.000109045
0.000109488
0.000109677
0.000110055
0.000110258
0.000110638
0.000110857
0.000111238
0.000111472
0.000111855
0.000112104
0.00011249
0.000112753
0.000113144
0.000113419
0.000113817
0.000114103
0.000114306
0.000114655
0.00012401
0.000117105
0.000117591
0.0001178
0.000118215
0.000118439
0.000118857
0.000119098
0.000119518
0.000119777
0.000120199
0.000120474
0.000120901
0.000121191
0.000121623
0.000121927
0.000122367
0.000122684
0.000122908
0.000123293
0.000129036
0.000121743
0.000122254
0.000122474
0.000122911
0.000123148
0.000123587
0.000123842
0.000124284
0.000124557
0.000125002
0.000125293
0.000125742
0.000126049
0.000126504
0.000126826
0.000127289
0.000127624
0.000127861
0.000128268
0.000132116
0.000124583
0.00012511
0.000125337
0.000125787
0.000126031
0.000126485
0.000126747
0.000127203
0.000127485
0.000127944
0.000128244
0.000128707
0.000129024
0.000129494
0.000129826
0.000130304
0.000130651
0.000130895
0.000131315
0.000134273
0.000126573
0.000127111
0.000127342
0.000127802
0.000128051
0.000128514
0.000128783
0.000129248
0.000129536
0.000130004
0.000130311
0.000130784
0.000131108
0.000131588
0.000131928
0.000132416
0.000132771
0.00013302
0.00013345
0.000136048
0.00012821
0.000128757
0.000128992
0.000129459
0.000129713
0.000130183
0.000130456
0.00013093
0.000131222
0.000131699
0.000132011
0.000132492
0.000132822
0.00013331
0.000133656
0.000134153
0.000134514
0.000134768
0.000135205
0.00013772
0.000129753
0.000130309
0.000130547
0.000131022
0.000131279
0.000131757
0.000132035
0.000132516
0.000132813
0.000133297
0.000133614
0.000134103
0.000134439
0.000134934
0.000135287
0.000135791
0.000136158
0.000136416
0.000136861
0.000139452
0.00013135
0.000131914
0.000132156
0.000132639
0.0001329
0.000133386
0.000133667
0.000134156
0.000134458
0.00013495
0.000135273
0.00013577
0.000136111
0.000136615
0.000136973
0.000137485
0.000137859
0.000138121
0.000138573
0.000141341
0.000133093
0.000133667
0.000133913
0.000134404
0.00013467
0.000135164
0.00013545
0.000135947
0.000136255
0.000136756
0.000137084
0.00013759
0.000137937
0.000138449
0.000138814
0.000139336
0.000139716
0.000139983
0.000140443
0.000143473
0.000135058
0.000135642
0.000135893
0.000136393
0.000136664
0.000137168
0.00013746
0.000137967
0.000138281
0.000138791
0.000139126
0.000139641
0.000139995
0.000140518
0.00014089
0.000141422
0.00014181
0.000142083
0.000142552
0.00014593
0.000137321
0.000137918
0.000138174
0.000138685
0.000138962
0.000139476
0.000139775
0.000140293
0.000140614
0.000141135
0.000141477
0.000142004
0.000142367
0.000142901
0.000143282
0.000143826
0.000144223
0.000144502
0.000144982
0.000148811
0.000139974
0.000140585
0.000140848
0.000141372
0.000141656
0.000142183
0.000142489
0.00014302
0.000143349
0.000143884
0.000144235
0.000144775
0.000145147
0.000145695
0.000146086
0.000146644
0.000147052
0.000147338
0.000147831
0.00015221
0.000143103
0.000143732
0.000144002
0.000144541
0.000144833
0.000145375
0.000145691
0.000146237
0.000146576
0.000147126
0.000147488
0.000148044
0.000148427
0.000148992
0.000149394
0.000149969
0.00015039
0.000150684
0.000151192
0.000156053
0.000146645
0.000147292
0.00014757
0.000148125
0.000148427
0.000148986
0.000149311
0.000149875
0.000150225
0.000150793
0.000151166
0.00015174
0.000152136
0.000152719
0.000153135
0.000153729
0.000154164
0.000154468
0.000154993
0.000159722
0.000150269
0.000150902
0.000151176
0.000151723
0.000152023
0.000152575
0.000152903
0.00015346
0.000153816
0.00015438
0.000154764
0.000155336
0.000155745
0.000156329
0.000156762
0.00015736
0.000157815
0.000158123
0.000158663
0.000161059
0.000161054
0.00016105
0.000161049
0.000161045
0.000161045
0.000161041
0.000161041
0.000161039
0.000161039
0.000161038
0.000161037
0.000161037
0.000161036
0.000161036
0.000161036
0.000161036
0.000161035
0.000161035
0.000161035
)
;

boundaryField
{
    movingWall
    {
        type            zeroGradient;
    }
    fixedWalls
    {
        type            zeroGradient;
    }
    frontAndBack
    {
        type            empty;
    }
}


// ************************************************************************* //
