/*--------------------------------*- C++ -*----------------------------------*\
| =========                 |                                                 |
| \\      /  F ield         | OpenFOAM: The Open Source CFD Toolbox           |
|  \\    /   O peration     | Version:  2312                                  |
|   \\  /    A nd           | Website:  www.openfoam.com                      |
|    \\/     M anipulation  |                                                 |
\*---------------------------------------------------------------------------*/
FoamFile
{
    version     2.0;
    format      ascii;
    arch        "LSB;label=32;scalar=64";
    class       volScalarField;
    location    "3.625";
    object      flowTypeField;
}
// * * * * * * * * * * * * * * * * * * * * * * * * * * * * * * * * * * * * * //

dimensions      [0 0 0 0 0 0 0];

internalField   nonuniform List<scalar> 
400
(
-0.0736027
-0.0127826
-0.024686
-0.0223243
-0.0348743
-0.0435346
-0.0409745
-0.0926459
0.0150765
-0.389746
0.958762
-0.172977
0.122045
0.0491751
0.089114
0.134678
0.330115
0.850696
0.479426
0.681986
-0.129089
-0.0198366
-0.0410664
-0.0300277
-0.0547211
-0.0548004
-0.0597735
-0.0895348
-0.0569968
-0.136726
0.067253
0.109966
0.708773
0.938137
0.773563
0.892321
0.908185
0.654896
0.0267486
0.777942
-0.0970673
-0.0101521
-0.0276659
-0.00761928
-0.0309771
-0.0117015
-0.0144178
-0.011068
0.00832568
0.0594213
-0.0691675
0.454191
0.668255
0.743441
0.712022
0.813301
0.842867
0.515948
-0.0234956
0.646151
-0.0665556
-0.00123756
-0.016239
0.0112065
-0.0114394
0.0206658
0.0254307
0.0338841
0.0924573
0.075309
0.238095
-0.0390702
0.725492
0.792183
0.593768
0.773998
0.801738
0.324643
-0.0252738
0.512355
-0.0362101
0.00702265
-0.00517411
0.0276352
0.00682622
0.0483529
0.0579913
0.0773053
0.135287
0.171821
0.154706
0.492423
0.59238
0.619873
0.521418
0.676561
0.738985
0.258725
-0.026636
0.421018
-0.0123851
0.0128705
0.00290184
0.038323
0.0183469
0.0649844
0.0749293
0.0989906
0.163265
0.171163
0.299102
0.0966115
0.658507
0.605583
0.421677
0.602232
0.713038
0.132871
-0.0294802
0.270331
0.00672833
0.0169614
0.00915064
0.0450985
0.0271648
0.0753466
0.0873029
0.1135
0.175082
0.210734
0.214586
0.487695
0.638969
0.467516
0.347764
0.477376
0.671106
0.101982
-0.0318371
0.188626
0.0202593
0.0189073
0.0129382
0.0472577
0.0309632
0.0776799
0.088886
0.114084
0.178308
0.184095
0.304495
0.143954
0.53379
0.407903
0.280543
0.418885
0.677928
0.0326697
-0.0284742
0.113976
0.0305636
0.0198185
0.0156358
0.0475562
0.0335
0.0780708
0.0888551
0.115924
0.169263
0.208583
0.206891
0.436952
0.92113
0.342028
0.245408
0.319168
0.759466
0.0183237
-0.0260326
0.0757858
0.0378711
0.0195078
0.0170255
0.0451781
0.0335114
0.0733717
0.0840109
0.105598
0.165534
0.162094
0.287394
0.12251
0.451288
0.324821
0.215468
0.278291
0.942459
-0.00502565
-0.0267458
0.0350539
0.0432671
0.0187736
0.0179008
0.0422641
0.0330981
0.0691875
0.0778984
0.1032
0.143045
0.189262
0.162545
0.389927
0.822397
0.282617
0.203979
0.220757
0.835428
-0.00963889
-0.0253447
0.0499239
0.046915
0.0174153
0.0180844
0.0379202
0.0315708
0.0615398
0.0710859
0.0872965
0.140336
0.123858
0.258041
0.0971285
0.396875
0.329969
0.209318
0.246948
0.70293
0.0161696
-0.0282699
0.0840347
0.0492648
0.0159767
0.0180047
0.033766
0.0298268
0.0556748
0.0621182
0.0846337
0.10776
0.162412
0.0982205
0.352377
0.768999
0.305995
0.237968
0.25874
0.627978
0.0185319
-0.0264054
0.10458
0.050764
0.0143542
0.0176581
0.0291224
0.0279519
0.0475443
0.0559351
0.0661519
0.111261
0.0781267
0.229881
0.172389
0.418173
0.407873
0.27925
0.3152
0.726334
0.0750271
-0.0335724
0.228281
0.0511931
0.0128008
0.0171207
0.0249873
0.0257548
0.0418522
0.0459506
0.065852
0.0708591
0.13635
0.0368656
0.359209
0.889995
0.413697
0.369231
0.414232
0.85889
0.104949
-0.0210984
0.291063
0.0513111
0.011349
0.0165701
0.0210123
0.0241163
0.0345902
0.0421017
0.046327
0.0843789
0.037742
0.209566
0.311498
0.508571
0.578578
0.435014
0.490282
0.840792
0.197598
-0.0242064
0.402727
0.0510006
0.0101252
0.0160314
0.0178548
0.022132
0.030732
0.0323625
0.0505419
0.0407576
0.109436
0.0355534
0.365412
0.971149
0.52575
0.512236
0.547373
0.834159
0.247548
-0.0115161
0.446355
0.0486364
0.0087227
0.0150795
0.0145718
0.0209501
0.0245058
0.0321666
0.032154
0.0623892
0.0236643
0.18513
0.392175
0.621624
0.770941
0.616396
0.736422
0.974618
0.367507
-0.0458058
0.562512
0.0497529
0.00762511
0.013603
0.010897
0.0155917
0.0186195
0.0168775
0.0293667
0.0163243
0.0697312
0.0509731
0.459516
0.763783
0.87424
0.96127
0.883288
0.688236
0.684003
-0.0845802
0.926247
0.0268504
0.00371157
0.00652716
0.00475071
0.00538666
0.0103975
-0.00501149
0.0422845
-0.0970978
0.347761
-0.601298
0.331693
-0.0243183
0.109293
0.0896887
0.147978
0.33768
0.810299
0.589782
0.678133
)
;

boundaryField
{
    movingWall
    {
        type            calculated;
        value           nonuniform List<scalar> 
20
(
0.745705
0.263405
0.249706
0.254936
0.240965
0.243091
0.217491
0.266913
0.0774551
0.68022
-0.349602
0.177975
-0.0492316
0.0268114
0.00367576
0.0309174
0.119627
0.659531
0.2829
0.412184
)
;
    }
    fixedWalls
    {
        type            calculated;
        value           nonuniform List<scalar> 
60
(
-0.0139097
-0.0222149
-0.0124162
-0.00271102
0.00629421
0.012757
0.0173777
0.0197268
0.0209796
0.020894
0.0203378
0.0190729
0.0177039
0.0160966
0.0145541
0.0130813
0.0118358
0.0104204
0.0100173
0.00522148
0.158304
0.0742631
0.0256136
0.0185589
0.0105792
0.00838938
0.00439266
0.00641419
0.00489985
0.00282224
0.00469837
0.00323629
0.00461006
0.00685595
0.00904491
0.0112736
0.012334
0.0218106
0.0889718
0.169713
0.791101
0.272418
0.292092
0.273656
0.291956
0.282199
0.296588
0.254625
0.42277
-0.0964951
0.46167
-0.123637
0.0507208
0.000358786
0.0190237
0.0376091
0.128272
0.81761
0.223579
0.474934
)
;
    }
    frontAndBack
    {
        type            empty;
    }
}


// ************************************************************************* //
