/*--------------------------------*- C++ -*----------------------------------*\
| =========                 |                                                 |
| \\      /  F ield         | OpenFOAM: The Open Source CFD Toolbox           |
|  \\    /   O peration     | Version:  2312                                  |
|   \\  /    A nd           | Website:  www.openfoam.com                      |
|    \\/     M anipulation  |                                                 |
\*---------------------------------------------------------------------------*/
FoamFile
{
    version     2.0;
    format      ascii;
    arch        "LSB;label=32;scalar=64";
    class       surfaceScalarField;
    location    "3.625";
    object      fluxField;
}
// * * * * * * * * * * * * * * * * * * * * * * * * * * * * * * * * * * * * * //

dimensions      [0 3 -1 0 0 0 0];

oriented        oriented;

internalField   nonuniform List<scalar> 
760
(
-5e-05
-1.89606e-14
-5e-05
6.87405e-15
-5e-05
-1.04029e-15
-5e-05
4.58382e-16
-5e-05
-2.87643e-17
-5e-05
2.61916e-17
-5e-05
1.07829e-17
-5e-05
4.73118e-18
-5e-05
4.42897e-18
-5e-05
2.55975e-18
-5e-05
2.26966e-18
-5e-05
1.86832e-18
-5e-05
1.73329e-18
-5e-05
1.49057e-18
-5e-05
1.22521e-18
-5e-05
9.90805e-19
-5e-05
9.91391e-19
-5e-05
1.03043e-18
-5e-05
4.16886e-19
-6.05253e-19
-5e-05
3.62971e-14
-5e-05
-1.29907e-14
-5e-05
3.44299e-15
-5e-05
-1.01917e-15
-5e-05
3.61118e-16
-5e-05
-6.4734e-17
-5e-05
4.21153e-17
-5e-05
2.38929e-18
-5e-05
8.85337e-18
-5e-05
4.58939e-18
-5e-05
4.34591e-18
-5e-05
3.65814e-18
-5e-05
3.41683e-18
-5e-05
2.94871e-18
-5e-05
2.4254e-18
-5e-05
1.95318e-18
-5e-05
1.92954e-18
-5e-05
2.06499e-18
-5e-05
7.7882e-19
-1.18192e-18
-5e-05
-5.33139e-14
-5e-05
1.70372e-14
-5e-05
-4.08666e-15
-5e-05
1.25942e-15
-5e-05
-3.04374e-16
-5e-05
1.07903e-16
-5e-05
-1.01258e-17
-5e-05
1.77809e-17
-5e-05
6.7234e-18
-5e-05
7.39053e-18
-5e-05
5.74898e-18
-5e-05
5.33915e-18
-5e-05
4.95176e-18
-5e-05
4.321e-18
-5e-05
3.55966e-18
-5e-05
2.87959e-18
-5e-05
2.82e-18
-5e-05
3.01446e-18
-5e-05
1.12975e-18
-1.72493e-18
-5e-05
6.97438e-14
-5e-05
-2.13702e-14
-5e-05
5.1837e-15
-5e-05
-1.51136e-15
-5e-05
4.20158e-16
-5e-05
-9.47454e-17
-5e-05
4.41951e-17
-5e-05
2.84596e-18
-5e-05
1.17758e-17
-5e-05
7.49634e-18
-5e-05
7.42416e-18
-5e-05
6.65272e-18
-5e-05
6.35869e-18
-5e-05
5.55706e-18
-5e-05
4.60163e-18
-5e-05
3.7284e-18
-5e-05
3.64069e-18
-5e-05
3.88559e-18
-5e-05
1.43842e-18
-2.21979e-18
-5e-05
-8.40244e-14
-5e-05
2.41201e-14
-5e-05
-5.80399e-15
-5e-05
1.62418e-15
-5e-05
-4.10995e-16
-5e-05
1.21455e-16
-5e-05
-1.82861e-17
-5e-05
1.90893e-17
-5e-05
8.04447e-18
-5e-05
9.78732e-18
-5e-05
8.28641e-18
-5e-05
7.9995e-18
-5e-05
7.57545e-18
-5e-05
6.67615e-18
-5e-05
5.52859e-18
-5e-05
4.48142e-18
-5e-05
4.36762e-18
-5e-05
4.64074e-18
-5e-05
1.70642e-18
-2.65482e-18
-5e-05
9.63833e-14
-5e-05
-2.68212e-14
-5e-05
6.38097e-15
-5e-05
-1.75432e-15
-5e-05
4.52873e-16
-5e-05
-1.03529e-16
-5e-05
4.35276e-17
-5e-05
4.15186e-18
-5e-05
1.33579e-17
-5e-05
9.78995e-18
-5e-05
9.7703e-18
-5e-05
9.08712e-18
-5e-05
8.73247e-18
-5e-05
7.65997e-18
-5e-05
6.34506e-18
-5e-05
5.13294e-18
-5e-05
4.98365e-18
-5e-05
5.27665e-18
-5e-05
1.91961e-18
-3.01734e-18
-5e-05
-1.06238e-13
-5e-05
2.85713e-14
-5e-05
-6.7791e-15
-5e-05
1.81914e-15
-5e-05
-4.3718e-16
-5e-05
1.29191e-16
-5e-05
-1.54554e-17
-5e-05
2.13196e-17
-5e-05
1.07616e-17
-5e-05
1.22425e-17
-5e-05
1.07323e-17
-5e-05
1.02976e-17
-5e-05
9.74422e-18
-5e-05
8.536e-18
-5e-05
7.04289e-18
-5e-05
5.68542e-18
-5e-05
5.48885e-18
-5e-05
5.76738e-18
-5e-05
2.0848e-18
-3.29981e-18
-5e-05
1.12723e-13
-5e-05
-2.96973e-14
-5e-05
7.07297e-15
-5e-05
-1.82692e-15
-5e-05
4.75956e-16
-5e-05
-9.52528e-17
-5e-05
4.74797e-17
-5e-05
8.9344e-18
-5e-05
1.65812e-17
-5e-05
1.28393e-17
-5e-05
1.23089e-17
-5e-05
1.13414e-17
-5e-05
1.06981e-17
-5e-05
9.28549e-18
-5e-05
7.6332e-18
-5e-05
6.13714e-18
-5e-05
5.87724e-18
-5e-05
6.1241e-18
-5e-05
2.19202e-18
-3.50032e-18
-5e-05
-1.16929e-13
-5e-05
3.04062e-14
-5e-05
-7.17997e-15
-5e-05
1.8884e-15
-5e-05
-4.30304e-16
-5e-05
1.38064e-16
-5e-05
-7.30677e-18
-5e-05
2.63497e-17
-5e-05
1.51192e-17
-5e-05
1.55264e-17
-5e-05
1.34258e-17
-5e-05
1.24705e-17
-5e-05
1.15188e-17
-5e-05
9.92573e-18
-5e-05
8.10334e-18
-5e-05
6.48779e-18
-5e-05
6.15815e-18
-5e-05
6.33808e-18
-5e-05
2.25074e-18
-3.62464e-18
-5e-05
1.16681e-13
-5e-05
-2.98639e-14
-5e-05
7.13641e-15
-5e-05
-1.7699e-15
-5e-05
4.76442e-16
-5e-05
-7.9024e-17
-5e-05
5.35766e-17
-5e-05
1.56199e-17
-5e-05
2.10115e-17
-5e-05
1.64121e-17
-5e-05
1.49657e-17
-5e-05
1.33793e-17
-5e-05
1.22297e-17
-5e-05
1.04123e-17
-5e-05
8.43865e-18
-5e-05
6.71482e-18
-5e-05
6.31755e-18
-5e-05
6.43454e-18
-5e-05
2.26175e-18
-3.67511e-18
-5e-05
-1.15125e-13
-5e-05
2.93882e-14
-5e-05
-6.90652e-15
-5e-05
1.81135e-15
-5e-05
-3.88736e-16
-5e-05
1.41466e-16
-5e-05
3.51998e-18
-5e-05
3.20018e-17
-5e-05
1.99826e-17
-5e-05
1.89133e-17
-5e-05
1.59271e-17
-5e-05
1.42236e-17
-5e-05
1.27235e-17
-5e-05
1.07209e-17
-5e-05
8.61394e-18
-5e-05
6.81121e-18
-5e-05
6.35672e-18
-5e-05
6.4061e-18
-5e-05
2.24242e-18
-3.65097e-18
-5e-05
1.0877e-13
-5e-05
-2.73141e-14
-5e-05
6.55327e-15
-5e-05
-1.57072e-15
-5e-05
4.43308e-16
-5e-05
-5.56153e-17
-5e-05
5.80796e-17
-5e-05
2.25138e-17
-5e-05
2.50994e-17
-5e-05
1.95454e-17
-5e-05
1.70269e-17
-5e-05
1.47076e-17
-5e-05
1.29923e-17
-5e-05
1.08021e-17
-5e-05
8.60812e-18
-5e-05
6.7611e-18
-5e-05
6.25767e-18
-5e-05
6.25854e-18
-5e-05
2.18664e-18
-3.55262e-18
-5e-05
-1.02376e-13
-5e-05
2.5828e-14
-5e-05
-6.03777e-15
-5e-05
1.59367e-15
-5e-05
-3.17274e-16
-5e-05
1.36165e-16
-5e-05
1.48013e-17
-5e-05
3.61979e-17
-5e-05
2.38335e-17
-5e-05
2.12032e-17
-5e-05
1.73659e-17
-5e-05
1.49291e-17
-5e-05
1.29181e-17
-5e-05
1.06278e-17
-5e-05
8.39125e-18
-5e-05
6.55483e-18
-5e-05
6.02078e-18
-5e-05
5.97076e-18
-5e-05
2.09659e-18
-3.37732e-18
-5e-05
9.11778e-14
-5e-05
-2.25382e-14
-5e-05
5.43387e-15
-5e-05
-1.25388e-15
-5e-05
3.78838e-16
-5e-05
-2.79326e-17
-5e-05
5.8876e-17
-5e-05
2.77029e-17
-5e-05
2.71529e-17
-5e-05
2.09162e-17
-5e-05
1.74721e-17
-5e-05
1.46031e-17
-5e-05
1.2473e-17
-5e-05
1.01382e-17
-5e-05
7.94308e-18
-5e-05
6.16801e-18
-5e-05
5.6314e-18
-5e-05
5.55119e-18
-5e-05
1.9551e-18
-3.11598e-18
-5e-05
-8.10212e-14
-5e-05
2.0232e-14
-5e-05
-4.69085e-15
-5e-05
1.25985e-15
-5e-05
-2.21604e-16
-5e-05
1.21476e-16
-5e-05
2.44735e-17
-5e-05
3.6935e-17
-5e-05
2.49173e-17
-5e-05
2.09182e-17
-5e-05
1.66172e-17
-5e-05
1.37738e-17
-5e-05
1.15555e-17
-5e-05
9.28866e-18
-5e-05
7.22762e-18
-5e-05
5.58056e-18
-5e-05
5.07102e-18
-5e-05
4.96149e-18
-5e-05
1.74427e-18
-2.77073e-18
-5e-05
6.64936e-14
-5e-05
-1.62131e-14
-5e-05
3.93956e-15
-5e-05
-8.54821e-16
-5e-05
2.93708e-16
-5e-05
5.9601e-19
-5e-05
5.42474e-17
-5e-05
2.85755e-17
-5e-05
2.50474e-17
-5e-05
1.87583e-17
-5e-05
1.50249e-17
-5e-05
1.21394e-17
-5e-05
1.00608e-17
-5e-05
7.99582e-18
-5e-05
6.18023e-18
-5e-05
4.75719e-18
-5e-05
4.32e-18
-5e-05
4.21544e-18
-5e-05
1.47574e-18
-2.36076e-18
-5e-05
-5.37893e-14
-5e-05
1.3279e-14
-5e-05
-3.00576e-15
-5e-05
8.77409e-16
-5e-05
-1.1461e-16
-5e-05
1.00624e-16
-5e-05
2.68408e-17
-5e-05
3.12263e-17
-5e-05
2.01592e-17
-5e-05
1.61603e-17
-5e-05
1.23322e-17
-5e-05
9.93427e-18
-5e-05
8.10747e-18
-5e-05
6.41293e-18
-5e-05
4.9231e-18
-5e-05
3.79737e-18
-5e-05
3.45659e-18
-5e-05
3.3634e-18
-5e-05
1.18084e-18
-1.91651e-18
-5e-05
3.75869e-14
-5e-05
-9.0035e-15
-5e-05
2.21355e-15
-5e-05
-3.22596e-16
-5e-05
1.62722e-16
-5e-05
3.32583e-17
-5e-05
3.25295e-17
-5e-05
2.2272e-17
-5e-05
1.55974e-17
-5e-05
1.20312e-17
-5e-05
9.06323e-18
-5e-05
7.22771e-18
-5e-05
5.83557e-18
-5e-05
4.58826e-18
-5e-05
3.50514e-18
-5e-05
2.70024e-18
-5e-05
2.48413e-18
-5e-05
2.49329e-18
-5e-05
9.65397e-19
-1.42844e-18
-5e-05
-2.8617e-14
-5e-05
1.25702e-14
-5e-05
-3.17288e-15
-5e-05
1.18998e-15
-5e-05
-2.9437e-16
-5e-05
1.26068e-16
-5e-05
-1.27705e-17
-5e-05
2.1089e-17
-5e-05
6.14687e-18
-5e-05
7.21994e-18
-5e-05
4.65442e-18
-5e-05
3.8542e-18
-5e-05
3.01779e-18
-5e-05
2.35956e-18
-5e-05
1.78894e-18
-5e-05
1.36827e-18
-5e-05
1.31805e-18
-5e-05
1.46617e-18
-5e-05
6.64435e-19
-7.99067e-19
-5e-05
-5e-05
-5e-05
-5e-05
-5e-05
-5e-05
-5e-05
-5e-05
-5e-05
-5e-05
-5e-05
-5e-05
-5e-05
-5e-05
-5e-05
-5e-05
-5e-05
-5e-05
-5e-05
)
;

boundaryField
{
    movingWall
    {
        type            calculated;
        value           uniform -0;
    }
    fixedWalls
    {
        type            calculated;
        value           nonuniform List<scalar> 
60
(
5e-05
5e-05
5e-05
5e-05
5e-05
5e-05
5e-05
5e-05
5e-05
5e-05
5e-05
5e-05
5e-05
5e-05
5e-05
5e-05
5e-05
5e-05
5e-05
5e-05
-5e-05
-5e-05
-5e-05
-5e-05
-5e-05
-5e-05
-5e-05
-5e-05
-5e-05
-5e-05
-5e-05
-5e-05
-5e-05
-5e-05
-5e-05
-5e-05
-5e-05
-5e-05
-5e-05
-5e-05
0
0
0
0
0
0
0
0
0
0
0
0
0
0
0
0
0
0
0
0
)
;
    }
    frontAndBack
    {
        type            empty;
        value           nonuniform List<scalar> 0();
    }
}


// ************************************************************************* //
