/*--------------------------------*- C++ -*----------------------------------*\
| =========                 |                                                 |
| \\      /  F ield         | OpenFOAM: The Open Source CFD Toolbox           |
|  \\    /   O peration     | Version:  2312                                  |
|   \\  /    A nd           | Website:  www.openfoam.com                      |
|    \\/     M anipulation  |                                                 |
\*---------------------------------------------------------------------------*/
FoamFile
{
    version     2.0;
    format      ascii;
    arch        "LSB;label=32;scalar=64";
    class       volVectorField;
    location    "3.625";
    object      LambVectorField;
}
// * * * * * * * * * * * * * * * * * * * * * * * * * * * * * * * * * * * * * //

dimensions      [0 1 -2 0 0 0 0];

internalField   nonuniform List<vector> 
400
(
(-2.74289e-12 -1.50553e-05 -1.50553e-05)
(-7.3308e-13 1.74485e-05 -0)
(-4.0542e-14 -4.07123e-06 -4.07123e-06)
(-2.20751e-15 9.63994e-07 -0)
(-1.20004e-16 -2.24182e-07 -2.24182e-07)
(-6.57628e-18 5.29207e-08 -0)
(-3.51407e-19 -1.2259e-08 -1.2259e-08)
(-1.94975e-20 2.96533e-09 -0)
(-9.63437e-22 -6.16684e-10 -6.16684e-10)
(-6.5719e-23 2.06265e-10 -0)
(1.44253e-25 1.4155e-12 1.4155e-12)
(4.56657e-26 3.92024e-11 0)
(4.60317e-25 2.15883e-11 2.15883e-11)
(2.54681e-25 1.81284e-11 0)
(1.56046e-25 1.25574e-11 1.25574e-11)
(8.69346e-26 8.54258e-12 0)
(4.91829e-26 4.69103e-12 4.69103e-12)
(6.42258e-27 6.87278e-13 0)
(-9.90373e-27 -1.99393e-12 -1.99393e-12)
(5.67375e-27 -9.11688e-13 -0)
(-2.91789e-12 1.59495e-05 1.59495e-05)
(-7.48258e-13 -1.7694e-05 0)
(-4.17286e-14 4.17294e-06 4.17294e-06)
(-2.2706e-15 -9.83665e-07 0)
(-1.2433e-16 2.31766e-07 2.31766e-07)
(-6.83737e-18 -5.45618e-08 0)
(-3.62524e-19 1.284e-08 1.284e-08)
(-2.0389e-20 -3.01415e-09 0)
(-9.84105e-22 7.1048e-10 7.1048e-10)
(-6.95199e-23 -1.65129e-10 0)
(-4.39813e-25 3.95412e-11 3.95412e-11)
(-6.62347e-25 -9.00318e-12 0)
(1.20083e-25 2.50126e-12 2.50126e-12)
(1.62559e-26 3.56693e-13 0)
(4.40905e-26 1.20526e-12 1.20526e-12)
(1.30459e-26 4.42903e-13 0)
(-1.10037e-26 -3.77211e-13 -3.77211e-13)
(5.393e-26 1.69206e-12 0)
(5.93296e-26 5.06723e-12 5.06723e-12)
(9.82999e-27 -5.46512e-13 -0)
(-2.89292e-12 -1.56885e-05 -1.56885e-05)
(-7.5929e-13 1.77369e-05 -0)
(-4.24061e-14 -4.18309e-06 -4.18309e-06)
(-2.31706e-15 9.86375e-07 -0)
(-1.28117e-16 -2.32564e-07 -2.32564e-07)
(-7.0128e-18 5.48288e-08 -0)
(-3.865e-19 -1.29184e-08 -1.29184e-08)
(-2.03158e-20 3.04637e-09 -0)
(-1.24394e-21 -7.15214e-10 -7.15214e-10)
(-4.01342e-23 1.69037e-10 -0)
(-7.37654e-24 -3.9882e-11 -3.9882e-11)
(6.29627e-25 8.65376e-12 0)
(-1.86457e-25 -2.10296e-12 -2.10296e-12)
(1.25843e-25 1.73878e-12 0)
(9.24649e-26 1.53001e-12 1.53001e-12)
(3.67209e-26 7.54462e-13 0)
(-3.069e-26 -6.39234e-13 -6.39234e-13)
(1.38034e-25 2.7211e-12 0)
(1.61912e-25 8.32697e-12 8.32697e-12)
(2.80439e-26 -9.57457e-13 -0)
(-2.89096e-12 1.54986e-05 1.54986e-05)
(-7.7681e-13 -1.78618e-05 0)
(-4.34274e-14 4.21585e-06 4.21585e-06)
(-2.38735e-15 -9.9496e-07 0)
(-1.32223e-16 2.34827e-07 2.34827e-07)
(-7.32701e-18 -5.54153e-08 0)
(-3.96754e-19 1.3084e-08 1.3084e-08)
(-2.2758e-20 -3.08371e-09 0)
(-1.07381e-21 7.30321e-10 7.30321e-10)
(-9.12495e-23 -1.71184e-10 0)
(1.81509e-24 4.03355e-11 4.03355e-11)
(-1.46031e-24 -1.03709e-11 0)
(2.5455e-25 2.32664e-12 2.32664e-12)
(1.15154e-25 1.1462e-12 0)
(1.91627e-25 2.33827e-12 2.33827e-12)
(6.18734e-26 9.30258e-13 0)
(-4.97325e-26 -7.67602e-13 -7.67602e-13)
(2.70832e-25 3.87727e-12 0)
(2.91139e-25 1.13082e-11 1.13082e-11)
(5.00565e-26 -1.26064e-12 -0)
(-2.90267e-12 -1.53321e-05 -1.53321e-05)
(-8.00112e-13 1.8043e-05 -0)
(-4.47897e-14 -4.2623e-06 -4.2623e-06)
(-2.47673e-15 1.00684e-06 -0)
(-1.3792e-16 -2.37846e-07 -2.37846e-07)
(-7.64337e-18 5.61972e-08 -0)
(-4.25863e-19 -1.32703e-08 -1.32703e-08)
(-2.282e-20 3.14055e-09 -0)
(-1.43404e-21 -7.38677e-10 -7.38677e-10)
(-4.10584e-23 1.76068e-10 -0)
(-1.04603e-23 -4.15146e-11 -4.15146e-11)
(1.12707e-24 8.99495e-12 0)
(-2.8737e-25 -1.98267e-12 -1.98267e-12)
(3.20306e-25 2.62941e-12 0)
(2.75662e-25 2.69958e-12 2.69958e-12)
(1.04114e-25 1.2601e-12 0)
(-7.42311e-26 -9.18268e-13 -9.18268e-13)
(4.10428e-25 4.79627e-12 0)
(4.41015e-25 1.38722e-11 1.38722e-11)
(7.9559e-26 -1.62087e-12 -0)
(-2.94207e-12 1.52691e-05 1.52691e-05)
(-8.2883e-13 -1.82926e-05 0)
(-4.64536e-14 4.32509e-06 4.32509e-06)
(-2.58184e-15 -1.02256e-06 0)
(-1.44184e-16 2.41792e-07 2.41792e-07)
(-8.05318e-18 -5.71683e-08 0)
(-4.44028e-19 1.3528e-08 1.3528e-08)
(-2.56407e-20 -3.19318e-09 0)
(-1.23018e-21 7.59568e-10 7.59568e-10)
(-1.10863e-22 -1.77469e-10 0)
(3.37289e-24 4.24318e-11 4.24318e-11)
(-2.07872e-24 -1.06776e-11 0)
(4.68911e-25 2.96635e-12 2.96635e-12)
(3.15131e-25 2.16989e-12 0)
(4.26804e-25 3.58566e-12 3.58566e-12)
(1.54112e-25 1.59482e-12 0)
(-8.55697e-26 -9.11608e-13 -9.11608e-13)
(5.66205e-25 5.65882e-12 0)
(5.90904e-25 1.62045e-11 1.62045e-11)
(1.10152e-25 -1.92881e-12 -0)
(-3.00389e-12 -1.52841e-05 -1.52841e-05)
(-8.62659e-13 1.85988e-05 -0)
(-4.8397e-14 -4.40144e-06 -4.40144e-06)
(-2.7029e-15 1.04156e-06 -0)
(-1.51451e-16 -2.46491e-07 -2.46491e-07)
(-8.4614e-18 5.83508e-08 -0)
(-4.77082e-19 -1.38029e-08 -1.38029e-08)
(-2.57531e-20 3.27491e-09 -0)
(-1.65909e-21 -7.70275e-10 -7.70275e-10)
(-4.31826e-23 1.8526e-10 -0)
(-1.33558e-23 -4.29002e-11 -4.29002e-11)
(1.67047e-24 9.89582e-12 0)
(-2.73818e-25 -1.43194e-12 -1.43194e-12)
(6.30225e-25 3.91032e-12 0)
(5.39316e-25 4.00171e-12 4.00171e-12)
(2.21149e-25 2.03478e-12 0)
(-9.02771e-26 -8.55877e-13 -8.55877e-13)
(7.14311e-25 6.43471e-12 0)
(7.26892e-25 1.80286e-11 1.80286e-11)
(1.42766e-25 -2.24528e-12 -0)
(-3.08862e-12 1.53827e-05 1.53827e-05)
(-9.00839e-13 -1.89549e-05 0)
(-5.05831e-14 4.48953e-06 4.48953e-06)
(-2.83665e-15 -1.06329e-06 0)
(-1.59157e-16 2.51865e-07 2.51865e-07)
(-8.95844e-18 -5.96527e-08 0)
(-4.97578e-19 1.41429e-08 1.41429e-08)
(-2.91344e-20 -3.34243e-09 0)
(-1.37542e-21 7.98073e-10 7.98073e-10)
(-1.34035e-22 -1.85441e-10 0)
(5.40626e-24 4.58281e-11 4.58281e-11)
(-2.49258e-24 -1.02534e-11 0)
(8.54565e-25 4.3041e-12 4.3041e-12)
(6.37067e-25 3.53396e-12 0)
(7.21045e-25 4.90693e-12 4.90693e-12)
(2.84064e-25 2.39247e-12 0)
(-8.19967e-26 -7.18797e-13 -7.18797e-13)
(8.43303e-25 7.04594e-12 0)
(8.33532e-25 1.93515e-11 1.93515e-11)
(1.6218e-25 -2.37079e-12 -0)
(-3.18898e-12 -1.55337e-05 -1.55337e-05)
(-9.4225e-13 1.93428e-05 -0)
(-5.2955e-14 -4.58492e-06 -4.58492e-06)
(-2.97862e-15 1.08674e-06 -0)
(-1.67683e-16 -2.57596e-07 -2.57596e-07)
(-9.40555e-18 6.10803e-08 -0)
(-5.36576e-19 -1.44703e-08 -1.44703e-08)
(-2.87607e-20 3.44063e-09 -0)
(-1.93057e-21 -8.08895e-10 -8.08895e-10)
(-4.11314e-23 1.96594e-10 -0)
(-1.64466e-23 -4.39294e-11 -4.39294e-11)
(2.48259e-24 1.17905e-11 0)
(-5.84064e-26 -2.5463e-13 -2.5463e-13)
(1.01509e-24 5.31043e-12 0)
(8.13871e-25 5.1386e-12 5.1386e-12)
(3.56851e-25 2.81532e-12 0)
(-4.44674e-26 -3.67454e-13 -3.67454e-13)
(9.57215e-25 7.64075e-12 0)
(9.01217e-25 2.02033e-11 2.02033e-11)
(1.83615e-25 -2.56426e-12 -0)
(-3.30138e-12 1.5723e-05 1.5723e-05)
(-9.86213e-13 -1.97521e-05 0)
(-5.54585e-14 4.68517e-06 4.68517e-06)
(-3.12967e-15 -1.11122e-06 0)
(-1.76127e-16 2.63598e-07 2.63598e-07)
(-9.9725e-18 -6.25199e-08 0)
(-5.54809e-19 1.4845e-08 1.4845e-08)
(-3.306e-20 -3.51211e-09 0)
(-1.49887e-21 8.41156e-10 8.41156e-10)
(-1.61272e-22 -1.94239e-10 0)
(8.04412e-24 4.94581e-11 4.94581e-11)
(-2.80155e-24 -9.71881e-12 0)
(1.27892e-24 5.52754e-12 5.52754e-12)
(9.49259e-25 4.61074e-12 0)
(9.78367e-25 5.90267e-12 5.90267e-12)
(4.14515e-25 3.12232e-12 0)
(-7.9807e-27 -6.36872e-14 -6.36872e-14)
(1.03149e-24 8.04308e-12 0)
(9.40452e-25 2.07047e-11 2.07047e-11)
(1.9919e-25 -2.71449e-12 -0)
(-3.42039e-12 -1.59356e-05 -1.59356e-05)
(-1.03092e-12 2.01651e-05 -0)
(-5.80158e-14 -4.78581e-06 -4.78581e-06)
(-3.27917e-15 1.13576e-06 -0)
(-1.85237e-16 -2.69544e-07 -2.69544e-07)
(-1.04097e-17 6.39925e-08 -0)
(-5.99777e-19 -1.51778e-08 -1.51778e-08)
(-3.17618e-20 3.61408e-09 -0)
(-2.22814e-21 -8.49665e-10 -8.49665e-10)
(-3.61278e-23 2.07878e-10 -0)
(-1.96891e-23 -4.51603e-11 -4.51603e-11)
(3.34173e-24 1.35342e-11 0)
(1.81077e-25 7.02357e-13 7.02357e-13)
(1.34353e-24 6.37914e-12 0)
(1.02856e-24 5.98708e-12 5.98708e-12)
(4.74309e-25 3.49183e-12 0)
(1.62653e-26 1.2768e-13 1.2768e-13)
(1.07385e-24 8.31567e-12 0)
(9.36587e-25 2.0791e-11 2.0791e-11)
(2.00415e-25 -2.72213e-12 -0)
(-3.54305e-12 1.61603e-05 1.61603e-05)
(-1.07611e-12 -2.05758e-05 0)
(-6.05767e-14 4.88572e-06 4.88572e-06)
(-3.43319e-15 -1.15999e-06 0)
(-1.93579e-16 2.7545e-07 2.7545e-07)
(-1.10083e-17 -6.53977e-08 0)
(-6.12053e-19 1.55439e-08 1.55439e-08)
(-3.70617e-20 -3.68098e-09 0)
(-1.60956e-21 8.82883e-10 8.82883e-10)
(-1.89019e-22 -2.03176e-10 0)
(1.06465e-23 5.29413e-11 5.29413e-11)
(-2.98142e-24 -9.25806e-12 0)
(1.66765e-24 6.64071e-12 6.64071e-12)
(1.14818e-24 5.26147e-12 0)
(1.11488e-24 6.4533e-12 6.4533e-12)
(4.75016e-25 3.47706e-12 0)
(3.80813e-26 3.00142e-13 3.00142e-13)
(1.04519e-24 8.22284e-12 0)
(9.16268e-25 2.05214e-11 2.05214e-11)
(1.95172e-25 -2.69521e-12 -0)
(-3.66462e-12 -1.63895e-05 -1.63895e-05)
(-1.11947e-12 2.09669e-05 -0)
(-6.30561e-14 -4.9804e-06 -4.9804e-06)
(-3.57543e-15 1.18294e-06 -0)
(-2.02447e-16 -2.80979e-07 -2.80979e-07)
(-1.13865e-17 6.67619e-08 -0)
(-6.60865e-19 -1.58484e-08 -1.58484e-08)
(-3.46202e-20 3.77626e-09 -0)
(-2.51234e-21 -8.88681e-10 -8.88681e-10)
(-3.23682e-23 2.17956e-10 -0)
(-2.24452e-23 -4.6763e-11 -4.6763e-11)
(3.98363e-24 1.49611e-11 0)
(3.44672e-25 1.28337e-12 1.28337e-12)
(1.44268e-24 6.74592e-12 0)
(1.0568e-24 6.15985e-12 6.15985e-12)
(4.84568e-25 3.62079e-12 0)
(6.38702e-26 5.17464e-13 5.17464e-13)
(9.93427e-25 8.06131e-12 0)
(8.48077e-25 1.98074e-11 1.98074e-11)
(1.79733e-25 -2.57901e-12 -0)
(-3.78206e-12 1.66106e-05 1.66106e-05)
(-1.16123e-12 -2.13363e-05 0)
(-6.54127e-14 5.06982e-06 5.06982e-06)
(-3.71746e-15 -1.20452e-06 0)
(-2.09852e-16 2.86215e-07 2.86215e-07)
(-1.1968e-17 -6.8e-08 0)
(-6.64758e-19 1.61714e-08 1.61714e-08)
(-4.06925e-20 -3.8332e-09 0)
(-1.72246e-21 9.19278e-10 9.19278e-10)
(-2.11375e-22 -2.12089e-10 0)
(1.18994e-23 5.54335e-11 5.54335e-11)
(-3.07254e-24 -9.28547e-12 0)
(1.74489e-24 7.03146e-12 7.03146e-12)
(1.10602e-24 5.23555e-12 0)
(1.01318e-24 6.17464e-12 6.17464e-12)
(4.3226e-25 3.36746e-12 0)
(6.07918e-26 5.1781e-13 5.1781e-13)
(8.73229e-25 7.55413e-12 0)
(7.68542e-25 1.87233e-11 1.87233e-11)
(1.50424e-25 -2.29998e-12 -0)
(-3.89205e-12 -1.68242e-05 -1.68242e-05)
(-1.19884e-12 2.16684e-05 -0)
(-6.75644e-14 -5.14983e-06 -5.14983e-06)
(-3.83842e-15 1.22383e-06 -0)
(-2.17654e-16 -2.90846e-07 -2.90846e-07)
(-1.22457e-17 6.91391e-08 -0)
(-7.13803e-19 -1.64236e-08 -1.64236e-08)
(-3.72049e-20 3.91315e-09 -0)
(-2.7312e-21 -9.2276e-10 -9.2276e-10)
(-3.60632e-23 2.25415e-10 -0)
(-2.36573e-23 -4.88563e-11 -4.88563e-11)
(3.86634e-24 1.52684e-11 0)
(2.07207e-25 8.26296e-13 8.26296e-13)
(1.18136e-24 6.08086e-12 0)
(8.08259e-25 5.26086e-12 5.26086e-12)
(3.62209e-25 3.06032e-12 0)
(3.77801e-26 3.50289e-13 3.50289e-13)
(7.43931e-25 6.98847e-12 0)
(6.29738e-25 1.69483e-11 1.69483e-11)
(1.22769e-25 -2.07251e-12 -0)
(-3.99151e-12 1.70157e-05 1.70157e-05)
(-1.23298e-12 -2.19641e-05 0)
(-6.94799e-14 5.22117e-06 5.22117e-06)
(-3.95475e-15 -1.24098e-06 0)
(-2.2337e-16 2.9499e-07 2.9499e-07)
(-1.27592e-17 -7.01146e-08 0)
(-7.08525e-19 1.66778e-08 1.66778e-08)
(-4.34678e-20 -3.95699e-09 0)
(-1.86022e-21 9.4758e-10 9.4758e-10)
(-2.19058e-22 -2.1978e-10 0)
(1.02175e-23 5.66174e-11 5.66174e-11)
(-2.98852e-24 -1.00378e-11 0)
(1.38358e-24 6.54312e-12 6.54312e-12)
(7.22391e-25 4.07508e-12 0)
(6.65079e-25 4.90947e-12 4.90947e-12)
(2.82397e-25 2.69294e-12 0)
(4.74617e-26 4.99667e-13 4.99667e-13)
(5.63903e-25 6.12881e-12 0)
(4.81603e-25 1.47666e-11 1.47666e-11)
(9.23176e-26 -1.78937e-12 -0)
(-4.07611e-12 -1.71816e-05 -1.71816e-05)
(-1.26107e-12 2.2208e-05 -0)
(-7.10892e-14 -5.27958e-06 -5.27958e-06)
(-4.04232e-15 1.255e-06 -0)
(-2.29406e-16 -2.98332e-07 -2.98332e-07)
(-1.29066e-17 7.09336e-08 -0)
(-7.52692e-19 -1.68565e-08 -1.68565e-08)
(-3.95164e-20 4.01506e-09 -0)
(-2.81299e-21 -9.48724e-10 -9.48724e-10)
(-5.68145e-23 2.30597e-10 -0)
(-2.13612e-23 -5.07957e-11 -5.07957e-11)
(2.90184e-24 1.54476e-11 0)
(5.22095e-26 2.73385e-13 2.73385e-13)
(7.19971e-25 5.05022e-12 0)
(4.47679e-25 4.00641e-12 4.00641e-12)
(2.08776e-25 2.44406e-12 0)
(4.74829e-26 6.10215e-13 6.10215e-13)
(4.02064e-25 5.24824e-12 0)
(3.2125e-25 1.21616e-11 1.21616e-11)
(6.91912e-26 -1.61518e-12 -0)
(-4.15422e-12 1.73534e-05 1.73534e-05)
(-1.28475e-12 -2.24153e-05 0)
(-7.24014e-14 5.32944e-06 5.32944e-06)
(-4.1253e-15 -1.26695e-06 0)
(-2.33001e-16 3.01211e-07 3.01211e-07)
(-1.33177e-17 -7.16091e-08 0)
(-7.42248e-19 1.70321e-08 1.70321e-08)
(-4.48639e-20 -4.04503e-09 0)
(-2.08543e-21 9.66081e-10 9.66081e-10)
(-2.02002e-22 -2.26258e-10 0)
(4.1135e-24 5.65366e-11 5.65366e-11)
(-2.35368e-24 -1.12337e-11 0)
(6.88681e-25 5.16546e-12 5.16546e-12)
(2.48984e-25 2.18493e-12 0)
(2.63627e-25 3.09482e-12 3.09482e-12)
(9.05358e-26 1.362e-12 0)
(5.78248e-27 9.56571e-14 9.56571e-14)
(2.29573e-25 3.96316e-12 0)
(2.01165e-25 9.6628e-12 9.6628e-12)
(4.21481e-26 -1.24617e-12 -0)
(-4.19761e-12 -1.74252e-05 -1.74252e-05)
(-1.3014e-12 2.2564e-05 -0)
(-7.34163e-14 -5.36915e-06 -5.36915e-06)
(-4.17598e-15 1.27745e-06 -0)
(-2.37096e-16 -3.03947e-07 -3.03947e-07)
(-1.33555e-17 7.23298e-08 -0)
(-7.72313e-19 -1.72082e-08 -1.72082e-08)
(-4.17985e-20 4.0978e-09 -0)
(-2.70889e-21 -9.73528e-10 -9.73528e-10)
(-9.57399e-23 2.32635e-10 -0)
(-1.59517e-23 -5.50493e-11 -5.50493e-11)
(1.02851e-24 1.29228e-11 0)
(-3.09462e-25 -3.09157e-12 -3.09157e-12)
(8.9203e-26 1.2821e-12 0)
(1.55772e-26 2.83106e-13 2.83106e-13)
(-2.65402e-26 -6.38958e-13 0)
(-6.53848e-26 -1.6802e-12 -1.6802e-12)
(7.35506e-26 1.75939e-12 0)
(1.28922e-25 7.24384e-12 7.24384e-12)
(4.65011e-27 -1.99443e-13 -0)
(-4.33133e-12 1.78953e-05 1.78953e-05)
(-1.32311e-12 -2.27422e-05 0)
(-7.52289e-14 5.45112e-06 5.45112e-06)
(-4.29617e-15 -1.29536e-06 0)
(-2.46375e-16 3.11147e-07 3.11147e-07)
(-1.40283e-17 -7.3954e-08 0)
(-8.16036e-19 1.79778e-08 1.79778e-08)
(-4.54662e-20 -4.1169e-09 0)
(-2.8839e-21 1.13688e-09 1.13688e-09)
(-1.13394e-22 -1.61912e-10 0)
(-1.27667e-23 1.23237e-10 1.23237e-10)
(2.47785e-24 3.32242e-11 0)
(7.93728e-25 3.85062e-11 3.85062e-11)
(5.93756e-25 2.3935e-11 0)
(2.76012e-25 1.66925e-11 1.66925e-11)
(1.4057e-25 1.0654e-11 0)
(8.70272e-26 6.30303e-12 6.30303e-12)
(2.17057e-26 1.28876e-12 0)
(-1.90292e-26 -2.16734e-12 -2.16734e-12)
(1.11355e-26 -1.28776e-12 -0)
)
;

boundaryField
{
    movingWall
    {
        type            calculated;
        value           nonuniform List<vector> 
20
(
(0 2.00921e-05 -0)
(0 -2.32212e-05 -0)
(0 5.66732e-06 -0)
(0 -1.3421e-06 -0)
(0 3.28714e-07 -0)
(0 -7.8376e-08 -0)
(0 1.95306e-08 -0)
(0 -4.36603e-09 -0)
(0 1.36865e-09 -0)
(0 -1.05463e-10 -0)
(0 2.00155e-10 -0)
(0 8.13709e-11 -0)
(0 7.68309e-11 -0)
(0 5.06787e-11 -0)
(0 3.5445e-11 -0)
(0 2.37207e-11 -0)
(0 1.50895e-11 -0)
(0 2.72316e-12 -0)
(0 -7.79833e-12 -0)
(0 -3.13975e-12 -0)
)
;
    }
    fixedWalls
    {
        type            calculated;
        value           nonuniform List<vector> 
60
(
(0 -7.39129e-05 -0)
(0 7.50621e-05 -0)
(0 -7.52886e-05 -0)
(0 7.58066e-05 -0)
(0 -7.65626e-05 -0)
(0 7.76043e-05 -0)
(0 -7.88832e-05 -0)
(0 8.03709e-05 -0)
(0 -8.19934e-05 -0)
(0 8.37074e-05 -0)
(0 -8.54397e-05 -0)
(0 8.71635e-05 -0)
(0 -8.88072e-05 -0)
(0 9.03601e-05 -0)
(0 -9.17579e-05 -0)
(0 9.30026e-05 -0)
(0 -9.40313e-05 -0)
(0 9.49017e-05 -0)
(0 -9.54606e-05 -0)
(0 9.63243e-05 -0)
(0 -3.27538e-12 -0)
(0 -7.11339e-12 -0)
(0 -1.16889e-11 -0)
(0 -1.57474e-11 -0)
(0 -1.95252e-11 -0)
(0 -2.2708e-11 -0)
(0 -2.53526e-11 -0)
(0 -2.72004e-11 -0)
(0 -2.85066e-11 -0)
(0 -2.92708e-11 -0)
(0 -2.93142e-11 -0)
(0 -2.88845e-11 -0)
(0 -2.77678e-11 -0)
(0 -2.60255e-11 -0)
(0 -2.35592e-11 -0)
(0 -2.05285e-11 -0)
(0 -1.71081e-11 -0)
(0 -1.34747e-11 -0)
(0 -8.97383e-12 -0)
(0 -4.75993e-12 -0)
(0 -1.2162e-05 -0)
(0 1.68968e-05 -0)
(0 -3.82429e-06 -0)
(0 9.211e-07 -0)
(0 -2.07118e-07 -0)
(0 4.90671e-08 -0)
(0 -1.10935e-08 -0)
(0 2.72966e-09 -0)
(0 -4.76842e-10 -0)
(0 2.32413e-10 -0)
(0 4.57821e-11 -0)
(0 6.80551e-11 -0)
(0 4.56074e-11 -0)
(0 3.54841e-11 -0)
(0 2.50786e-11 -0)
(0 1.7114e-11 -0)
(0 9.94195e-12 -0)
(0 8.18207e-13 -0)
(0 -6.17032e-12 -0)
(0 -1.81318e-12 -0)
)
;
    }
    frontAndBack
    {
        type            empty;
    }
}


// ************************************************************************* //
