/*--------------------------------*- C++ -*----------------------------------*\
| =========                 |                                                 |
| \\      /  F ield         | OpenFOAM: The Open Source CFD Toolbox           |
|  \\    /   O peration     | Version:  2312                                  |
|   \\  /    A nd           | Website:  www.openfoam.com                      |
|    \\/     M anipulation  |                                                 |
\*---------------------------------------------------------------------------*/
FoamFile
{
    version     2.0;
    format      ascii;
    arch        "LSB;label=32;scalar=64";
    class       volScalarField;
    location    "3.625";
    object      Lambda2Field;
}
// * * * * * * * * * * * * * * * * * * * * * * * * * * * * * * * * * * * * * //

dimensions      [0 0 -2 0 0 0 0];

internalField   nonuniform List<scalar> 
400
(
0
-3.70334e-12
0
-1.92504e-14
0
-1.09561e-16
0
-6.73865e-19
5.89384e-21
-8.48027e-21
1.11123e-21
-1.91303e-22
7.00469e-23
1.55397e-23
1.45686e-23
1.21679e-23
1.70405e-23
1.69139e-23
5.76597e-24
5.46206e-24
0
-5.04137e-12
0
-1.94795e-14
0
-1.03297e-16
0
-4.86504e-19
0
-2.02656e-21
2.93164e-22
0
4.77474e-23
2.77003e-23
2.01752e-23
1.50396e-23
1.40849e-23
1.42895e-23
0
4.07418e-24
0
-8.56536e-13
0
0
0
0
4.91701e-18
0
5.49415e-20
0
5.09445e-23
5.46088e-23
1.59579e-23
3.31918e-23
1.76522e-23
1.227e-23
1.26996e-23
1.48111e-23
0
4.72866e-24
0
0
0
0
5.95699e-16
0
1.66112e-17
0
1.02516e-19
0
4.08047e-22
0
3.99134e-23
1.9414e-23
1.84034e-23
1.28766e-23
1.0779e-23
9.15787e-24
0
2.74665e-24
0
0
1.21169e-13
0
2.03994e-15
0
2.80523e-17
0
1.11756e-19
0
2.39675e-22
4.72968e-23
3.54581e-24
2.71189e-23
1.46664e-23
9.63954e-24
8.4819e-24
9.65571e-24
0
3.21561e-24
1.68449e-12
0
3.06263e-13
0
3.02296e-15
0
3.5231e-17
0
1.30577e-19
0
5.09821e-22
0
3.34037e-23
1.44171e-23
1.5572e-23
9.11059e-24
6.08463e-24
4.38189e-24
0
1.39722e-24
6.56492e-12
0
4.57749e-13
0
3.83982e-15
0
4.10904e-17
0
1.42937e-19
0
3.65978e-22
4.88349e-23
2.06507e-24
2.20713e-23
1.18521e-23
6.97605e-24
4.12186e-24
4.38287e-24
0
1.42419e-24
1.00891e-11
0
5.49242e-13
4.33047e-16
4.19561e-15
2.03526e-18
4.27276e-17
1.39719e-20
1.60812e-19
0
6.67544e-22
0
3.16213e-23
1.16901e-23
1.28566e-23
6.20482e-24
2.48332e-24
1.04612e-24
0
5.77314e-25
1.29013e-11
6.71507e-13
6.18607e-13
3.65138e-15
4.46325e-15
1.9713e-17
4.34266e-17
1.04911e-19
1.68582e-19
1.04822e-21
4.20485e-22
5.97017e-23
4.26783e-24
1.92589e-23
1.08497e-23
5.41114e-24
1.37223e-24
7.32601e-25
0
5.53969e-25
1.48527e-11
1.27346e-12
6.47196e-13
6.53675e-15
4.41625e-15
3.6035e-17
4.16e-17
1.69317e-19
1.92144e-19
5.47162e-23
9.06563e-22
0
3.80539e-23
1.37067e-23
1.22928e-23
4.55138e-24
6.39997e-25
-2.8419e-25
0
2.68102e-25
1.63461e-11
1.80893e-12
6.64332e-13
9.08976e-15
4.33948e-15
5.11797e-17
3.89333e-17
2.823e-19
1.90657e-19
2.45281e-21
3.94654e-22
8.771e-23
1.12433e-23
2.0642e-23
1.14417e-23
4.36128e-24
3.91715e-25
-6.51211e-25
0
3.96612e-25
1.7257e-11
2.29969e-12
6.54401e-13
1.14153e-14
4.06867e-15
6.3114e-17
3.52953e-17
2.80439e-19
2.23551e-19
0
1.19984e-21
0
5.1012e-23
2.02841e-23
1.39541e-23
5.13927e-24
6.65446e-25
3.48375e-25
0
3.80519e-25
1.78322e-11
2.71369e-12
6.38824e-13
1.34094e-14
3.79218e-15
7.65251e-17
3.07629e-17
4.34246e-19
2.01825e-19
3.97553e-21
3.29304e-22
1.31436e-22
2.12393e-23
2.86857e-23
1.56e-23
5.92866e-24
9.63039e-25
1.17549e-24
0
7.83065e-25
1.80858e-11
3.09779e-12
6.09602e-13
1.52113e-14
3.43926e-15
8.40946e-17
2.67239e-17
3.54742e-19
1.96889e-19
0
1.51004e-21
0
5.99748e-23
3.04958e-23
2.0258e-23
6.77995e-24
1.81827e-24
3.43746e-24
0
1.42286e-24
1.80443e-11
3.37589e-12
5.77227e-13
1.65642e-14
3.08079e-15
9.54937e-17
2.15606e-17
5.56529e-19
1.28474e-19
5.48217e-21
2.97064e-22
1.99575e-22
4.35185e-23
4.21908e-23
2.54912e-23
1.01495e-23
4.60032e-24
6.13875e-24
0
2.20647e-24
1.78819e-11
3.62575e-12
5.42401e-13
1.76855e-14
2.75269e-15
9.73245e-17
1.83068e-17
3.86071e-19
1.29548e-19
0
1.18151e-21
2.12343e-23
7.8315e-23
5.35181e-23
3.12777e-23
1.10471e-23
6.57145e-24
9.58168e-24
0
2.89496e-24
1.76171e-11
3.80061e-12
5.11071e-13
1.85877e-14
2.42396e-15
1.08612e-16
1.35269e-17
6.41023e-19
6.89516e-20
6.17723e-21
4.01379e-22
1.82933e-22
8.03367e-23
5.64105e-23
3.40931e-23
1.39751e-23
1.04686e-23
1.10583e-23
0
3.20222e-24
1.66833e-11
3.73667e-12
4.68934e-13
1.82321e-14
2.18433e-15
1.0136e-16
1.19386e-17
4.03213e-19
7.73231e-20
0
8.05751e-22
8.58523e-23
1.07206e-22
6.59278e-23
4.02503e-23
1.73549e-23
1.23124e-23
1.21136e-23
0
3.88179e-24
1.69662e-11
3.59571e-12
4.16425e-13
1.53967e-14
1.58564e-15
8.74498e-17
6.18288e-18
4.71512e-19
2.53226e-20
4.20256e-21
3.23559e-22
2.28696e-22
1.30629e-22
8.79019e-23
4.90338e-23
2.10475e-23
1.82964e-23
1.76235e-23
0
6.53227e-24
9.12661e-12
1.86255e-12
2.00397e-13
7.20736e-15
5.70387e-16
5.17515e-17
0
7.29502e-19
0
2.06385e-20
0
8.04621e-22
0
7.83593e-23
2.71497e-23
1.91565e-23
3.09449e-23
3.39993e-23
1.38582e-23
1.02334e-23
)
;

boundaryField
{
    movingWall
    {
        type            calculated;
        value           nonuniform List<scalar> 
20
(
0
0
0
0
0
0
0
0
0
3.59564e-20
0
1.43298e-21
0
6.74534e-23
5.37255e-24
1.5592e-23
3.41503e-23
4.01502e-23
2.82113e-23
1.15213e-23
)
;
    }
    fixedWalls
    {
        type            calculated;
        value           nonuniform List<scalar> 
60
(
0
-1.01765e-10
0
0
1.37554e-10
0
2.44457e-10
0
2.83241e-10
2.44969e-11
2.72815e-10
4.76437e-11
2.32283e-10
6.57995e-11
1.80008e-10
7.80856e-11
1.3215e-10
8.19013e-11
9.98358e-11
4.75077e-11
8.91052e-25
2.86485e-24
2.33705e-24
3.48571e-24
3.08321e-24
3.60075e-24
2.35215e-24
4.52105e-24
3.91329e-24
2.42753e-24
4.15092e-24
2.5101e-24
3.66132e-24
4.63826e-24
5.10647e-24
4.79336e-24
3.77964e-24
3.73305e-24
7.64272e-24
5.44146e-24
2.61529e-11
5.798e-12
5.94135e-13
2.11677e-14
2.07097e-15
8.56752e-17
8.11479e-18
0
9.33871e-20
0
2.52999e-21
-4.23818e-22
1.00993e-22
1.00299e-25
9.72031e-24
1.05031e-23
1.66038e-23
1.38255e-23
1.22679e-23
5.3488e-24
)
;
    }
    frontAndBack
    {
        type            empty;
    }
}


// ************************************************************************* //
