/*--------------------------------*- C++ -*----------------------------------*\
| =========                 |                                                 |
| \\      /  F ield         | OpenFOAM: The Open Source CFD Toolbox           |
|  \\    /   O peration     | Version:  2312                                  |
|   \\  /    A nd           | Website:  www.openfoam.com                      |
|    \\/     M anipulation  |                                                 |
\*---------------------------------------------------------------------------*/
FoamFile
{
    version     2.0;
    format      ascii;
    arch        "LSB;label=32;scalar=64";
    class       volScalarField;
    location    "3.625";
    object      pNear;
}
// * * * * * * * * * * * * * * * * * * * * * * * * * * * * * * * * * * * * * //

dimensions      [0 2 -2 0 0 0 0];

internalField   nonuniform List<scalar> 
400
(
0
4.62634e-10
1.24299e-10
1.21799e-10
1.00026e-10
1.01863e-10
1.02005e-10
1.02766e-10
1.03125e-10
1.03389e-10
1.03561e-10
1.03683e-10
1.03768e-10
1.03829e-10
1.03872e-10
1.03902e-10
1.03921e-10
1.0393e-10
1.03931e-10
1.03929e-10
4.18982e-10
0
7.31891e-11
1.50241e-11
1.07636e-10
9.81562e-11
1.03465e-10
1.02596e-10
1.03245e-10
1.03385e-10
1.03581e-10
1.0369e-10
1.03773e-10
1.03829e-10
1.0387e-10
1.03899e-10
1.03916e-10
1.03923e-10
1.03924e-10
1.03923e-10
0
1.96801e-09
1.28733e-10
2.26102e-10
8.79196e-11
1.06377e-10
1.00362e-10
1.03155e-10
1.03086e-10
1.03482e-10
1.03595e-10
1.0371e-10
1.03779e-10
1.0383e-10
1.03865e-10
1.0389e-10
1.03906e-10
1.03911e-10
1.03911e-10
1.03909e-10
6.50277e-10
0
5.45215e-11
0
1.16662e-10
9.53302e-11
1.05111e-10
1.02657e-10
1.03508e-10
1.03479e-10
1.0366e-10
1.0373e-10
1.03792e-10
1.0383e-10
1.03858e-10
1.03878e-10
1.03888e-10
1.03891e-10
1.03891e-10
1.0389e-10
0
2.93783e-09
1.54301e-10
2.9592e-10
8.34241e-11
1.10339e-10
1.00005e-10
1.03747e-10
1.03287e-10
1.0368e-10
1.037e-10
1.03774e-10
1.03805e-10
1.03832e-10
1.03848e-10
1.03861e-10
1.03867e-10
1.03867e-10
1.03865e-10
1.03863e-10
6.9315e-10
0
3.42146e-11
0
1.22541e-10
9.47892e-11
1.06705e-10
1.03142e-10
1.03935e-10
1.03707e-10
1.0381e-10
1.03811e-10
1.03829e-10
1.03833e-10
1.03838e-10
1.03841e-10
1.0384e-10
1.03836e-10
1.03834e-10
1.03832e-10
0
3.39359e-09
1.82567e-10
3.306e-10
8.38242e-11
1.13137e-10
1.00619e-10
1.04495e-10
1.0371e-10
1.03979e-10
1.03878e-10
1.03876e-10
1.03851e-10
1.03837e-10
1.03825e-10
1.03817e-10
1.03809e-10
1.03802e-10
1.03797e-10
1.03795e-10
6.34963e-10
0
1.86281e-11
0
1.25477e-10
9.59089e-11
1.08025e-10
1.03886e-10
1.04458e-10
1.04037e-10
1.04018e-10
1.03928e-10
1.03881e-10
1.03839e-10
1.03811e-10
1.03791e-10
1.03774e-10
1.03761e-10
1.03756e-10
1.03755e-10
0
3.46408e-09
2.00563e-10
3.37313e-10
8.64699e-11
1.1478e-10
1.01758e-10
1.0529e-10
1.04254e-10
1.04338e-10
1.04104e-10
1.04004e-10
1.03908e-10
1.03843e-10
1.03795e-10
1.03762e-10
1.03737e-10
1.0372e-10
1.03713e-10
1.03711e-10
5.49936e-10
0
1.47791e-11
0
1.26601e-10
9.79677e-11
1.09055e-10
1.04731e-10
1.05011e-10
1.04415e-10
1.04255e-10
1.04064e-10
1.03942e-10
1.03846e-10
1.03779e-10
1.03732e-10
1.03697e-10
1.03674e-10
1.03667e-10
1.03666e-10
0
3.25104e-09
2.06111e-10
3.24161e-10
9.03808e-11
1.15588e-10
1.03175e-10
1.06066e-10
1.04844e-10
1.04717e-10
1.04349e-10
1.04144e-10
1.03971e-10
1.0385e-10
1.03762e-10
1.03701e-10
1.03657e-10
1.03631e-10
1.03621e-10
1.0362e-10
4.62636e-10
0
2.17863e-11
0
1.26371e-10
1.00553e-10
1.09805e-10
1.05591e-10
1.05549e-10
1.04805e-10
1.04499e-10
1.04207e-10
1.04007e-10
1.03854e-10
1.03747e-10
1.03672e-10
1.03618e-10
1.03586e-10
1.03576e-10
1.03577e-10
0
2.82542e-09
2.00957e-10
2.96306e-10
9.50491e-11
1.15728e-10
1.04718e-10
1.06781e-10
1.05431e-10
1.05087e-10
1.04596e-10
1.04287e-10
1.0404e-10
1.03863e-10
1.03735e-10
1.03645e-10
1.03583e-10
1.03547e-10
1.03535e-10
1.03535e-10
3.79074e-10
0
3.74305e-11
0
1.25094e-10
1.03403e-10
1.10287e-10
1.06411e-10
1.06043e-10
1.05182e-10
1.04738e-10
1.04353e-10
1.04079e-10
1.03873e-10
1.03727e-10
1.03624e-10
1.03552e-10
1.03511e-10
1.03498e-10
1.03499e-10
0
2.24736e-09
1.87645e-10
2.57949e-10
1.00124e-10
1.15329e-10
1.06267e-10
1.07392e-10
1.05977e-10
1.05428e-10
1.04833e-10
1.04431e-10
1.04116e-10
1.03888e-10
1.03724e-10
1.03608e-10
1.03528e-10
1.03482e-10
1.03467e-10
1.03467e-10
3.01554e-10
0
5.94002e-11
0
1.2301e-10
1.06266e-10
1.10489e-10
1.07124e-10
1.06452e-10
1.05516e-10
1.04955e-10
1.04493e-10
1.04157e-10
1.03904e-10
1.03725e-10
1.03598e-10
1.03509e-10
1.03458e-10
1.03441e-10
1.0344e-10
0
1.57393e-09
1.68394e-10
2.12888e-10
1.05165e-10
1.14428e-10
1.07649e-10
1.07816e-10
1.06411e-10
1.05695e-10
1.0503e-10
1.04556e-10
1.0419e-10
1.03922e-10
1.03728e-10
1.0359e-10
1.03495e-10
1.03439e-10
1.0342e-10
1.03419e-10
2.27746e-10
0
8.59966e-11
4.6462e-11
1.20168e-10
1.08731e-10
1.10305e-10
1.07609e-10
1.06708e-10
1.05753e-10
1.05114e-10
1.04603e-10
1.04223e-10
1.03939e-10
1.03735e-10
1.03589e-10
1.03486e-10
1.03425e-10
1.03405e-10
1.03406e-10
5.86904e-11
8.53496e-10
1.46e-10
1.62014e-10
1.09566e-10
1.12704e-10
1.08719e-10
1.07988e-10
1.06712e-10
1.05876e-10
1.05178e-10
1.04658e-10
1.04259e-10
1.03963e-10
1.0375e-10
1.03595e-10
1.03484e-10
1.03421e-10
1.03402e-10
1.034e-10
1.55001e-10
0
1.26202e-10
9.05137e-11
1.17551e-10
1.09924e-10
1.09993e-10
1.07891e-10
1.06882e-10
1.05924e-10
1.05238e-10
1.04696e-10
1.0429e-10
1.03985e-10
1.03764e-10
1.03602e-10
1.03489e-10
1.03427e-10
1.03407e-10
1.03401e-10
)
;

boundaryField
{
    movingWall
    {
        type            zeroGradient;
    }
    fixedWalls
    {
        type            calculated;
        value           nonuniform List<scalar> 
60
(
6.28472e-11
2.93287e-10
1.60389e-10
4.55194e-10
2.01514e-10
4.85205e-10
1.99217e-10
4.44474e-10
1.77735e-10
3.84955e-10
1.51886e-10
3.23845e-10
1.26257e-10
2.65352e-10
1.02094e-10
2.11088e-10
7.9395e-11
1.68225e-10
9.84953e-11
1.40554e-10
1.03928e-10
1.03922e-10
1.03908e-10
1.03888e-10
1.03862e-10
1.03831e-10
1.03795e-10
1.03755e-10
1.03711e-10
1.03666e-10
1.03621e-10
1.03577e-10
1.03536e-10
1.035e-10
1.03468e-10
1.03441e-10
1.0342e-10
1.03407e-10
1.03401e-10
1.03401e-10
6.93951e-11
3.42488e-10
1.74674e-10
1.18908e-10
1.03568e-10
1.01609e-10
1.02098e-10
1.02706e-10
1.03111e-10
1.03375e-10
1.03554e-10
1.03678e-10
1.03765e-10
1.03826e-10
1.0387e-10
1.03901e-10
1.0392e-10
1.03929e-10
1.0393e-10
1.03929e-10
)
;
    }
    frontAndBack
    {
        type            empty;
    }
}


// ************************************************************************* //
