/*--------------------------------*- C++ -*----------------------------------*\
| =========                 |                                                 |
| \\      /  F ield         | OpenFOAM: The Open Source CFD Toolbox           |
|  \\    /   O peration     | Version:  2312                                  |
|   \\  /    A nd           | Website:  www.openfoam.com                      |
|    \\/     M anipulation  |                                                 |
\*---------------------------------------------------------------------------*/
FoamFile
{
    version     2.0;
    format      ascii;
    arch        "LSB;label=32;scalar=64";
    class       volScalarField;
    location    "3.625";
    object      QField;
}
// * * * * * * * * * * * * * * * * * * * * * * * * * * * * * * * * * * * * * //

dimensions      [0 0 -2 0 0 0 0];

internalField   nonuniform List<scalar> 
400
(
1.45209e-11
3.87377e-12
3.92286e-13
2.03884e-14
1.648e-15
1.14145e-16
5.78245e-18
6.88718e-19
-5.31648e-21
8.61369e-21
-1.12765e-21
1.93247e-22
-7.36361e-23
-1.77941e-23
-1.68073e-23
-1.30956e-23
-1.61697e-23
-1.80238e-23
-6.34151e-24
-5.61032e-24
2.62328e-11
6.79869e-12
6.94173e-13
3.45822e-14
2.90187e-15
1.86705e-16
1.13759e-17
8.7815e-19
4.45526e-20
4.15275e-21
-2.01531e-23
-1.71577e-24
-5.19429e-23
-3.10938e-23
-2.18656e-23
-1.51417e-23
-1.53262e-23
-1.56858e-23
-1.83185e-25
-4.67769e-24
2.09878e-11
5.16131e-12
5.41686e-13
2.47794e-14
2.21798e-15
1.32166e-16
8.83988e-18
5.79669e-19
4.36411e-20
1.11633e-21
3.76242e-22
-9.5603e-23
-2.45455e-23
-3.41567e-23
-1.99464e-23
-1.32618e-23
-1.39097e-23
-1.62402e-23
2.10802e-24
-4.73659e-24
1.58995e-11
3.78622e-12
4.17929e-13
1.78144e-14
1.69439e-15
9.86848e-17
6.4243e-18
4.91546e-19
2.26175e-20
3.02242e-21
-2.05053e-22
4.58214e-23
-5.00576e-23
-2.35545e-23
-1.9631e-23
-1.31286e-23
-1.19564e-23
-1.05895e-23
3.59274e-24
-3.3547e-24
1.03637e-11
2.30685e-12
2.80337e-13
1.01964e-14
1.0768e-15
5.85507e-17
3.65898e-18
2.74903e-19
1.74599e-20
-2.02516e-23
3.19569e-22
-1.02382e-22
-8.85923e-24
-2.95276e-23
-1.64385e-23
-1.02545e-23
-9.11627e-24
-1.07659e-23
5.18425e-24
-3.3005e-24
5.6128e-12
1.07623e-12
1.6478e-13
3.92625e-15
5.94811e-16
2.45426e-17
1.71045e-18
1.24931e-19
2.53053e-21
1.28631e-21
-2.97013e-22
5.36379e-23
-4.516e-23
-1.76534e-23
-1.61938e-23
-9.66533e-24
-7.08516e-24
-5.49984e-24
7.66799e-24
-1.81263e-24
1.39673e-12
9.21636e-15
6.01044e-14
-1.26579e-15
1.33765e-16
-2.44542e-18
-3.22656e-19
-1.5095e-20
-3.38118e-22
-1.31893e-21
2.57139e-22
-1.07809e-22
-4.19939e-24
-2.48942e-23
-1.29751e-23
-7.23244e-24
-4.51087e-24
-5.15867e-24
9.93799e-24
-1.44481e-24
-2.03134e-12
-8.19499e-13
-2.47071e-14
-5.21038e-15
-2.11751e-16
-2.40585e-17
-1.6884e-18
-1.00448e-19
-1.44891e-20
5.72866e-22
-4.11605e-22
4.98317e-23
-3.98381e-23
-1.38366e-23
-1.30488e-23
-7.005e-24
-3.22511e-24
-1.54516e-24
1.02896e-23
-7.38105e-25
-4.98924e-12
-1.51808e-12
-9.93086e-14
-8.50828e-15
-5.17352e-16
-4.25774e-17
-2.76876e-18
-2.26731e-19
-8.23155e-21
-2.58951e-21
2.49884e-22
-1.15446e-22
-4.52814e-24
-2.17937e-23
-1.13347e-23
-5.45876e-24
-1.72057e-24
-1.04399e-24
1.0184e-23
-5.81552e-25
-7.50794e-12
-2.09602e-12
-1.64545e-13
-1.11654e-14
-7.81485e-16
-5.64925e-17
-3.9949e-18
-2.40812e-19
-2.77498e-20
4.24125e-22
-5.47093e-22
4.67546e-23
-4.00568e-23
-1.46532e-23
-1.21966e-23
-5.0559e-24
-1.01015e-24
5.37665e-25
1.09445e-23
-1.78091e-25
-9.66595e-12
-2.58384e-12
-2.21659e-13
-1.34348e-14
-9.98969e-16
-7.11315e-17
-4.43337e-18
-3.87494e-19
-1.22595e-20
-3.77045e-21
2.62685e-22
-1.26379e-22
-9.07271e-24
-2.18619e-23
-1.15279e-23
-4.42163e-24
-4.43782e-25
6.84997e-25
1.04274e-23
-4.05609e-25
-1.15033e-11
-2.99104e-12
-2.72887e-13
-1.52364e-14
-1.21193e-15
-7.9621e-17
-5.67771e-18
-3.3631e-19
-3.82693e-20
4.48735e-22
-6.58428e-22
3.6189e-23
-4.33195e-23
-2.00203e-23
-1.39326e-23
-4.99042e-24
-5.32516e-25
-8.15914e-25
1.12722e-23
-5.88298e-25
-1.29852e-11
-3.31062e-12
-3.14849e-13
-1.67055e-14
-1.35703e-15
-9.13573e-17
-5.5664e-18
-5.08954e-19
-1.4161e-20
-4.71862e-21
2.6135e-22
-1.40115e-22
-2.1464e-23
-2.85459e-23
-1.55501e-23
-6.09839e-24
-1.16514e-24
-1.24807e-24
9.8379e-24
-8.61561e-25
-1.42493e-11
-3.58287e-12
-3.53264e-13
-1.78566e-14
-1.52548e-15
-9.53491e-17
-6.87131e-18
-3.95492e-19
-4.62545e-20
5.66642e-22
-7.54371e-22
8.11109e-24
-5.72857e-23
-3.17033e-23
-2.04883e-23
-7.37404e-24
-2.40432e-24
-4.71494e-24
1.1023e-23
-1.91681e-24
-1.51136e-11
-3.7519e-12
-3.79979e-13
-1.86128e-14
-1.59948e-15
-1.04495e-16
-6.20358e-18
-5.95608e-19
-1.42862e-20
-5.48286e-21
2.14601e-22
-1.73824e-22
-4.90778e-23
-4.42125e-23
-2.56867e-23
-1.11528e-23
-5.25332e-24
-6.39297e-24
5.87593e-24
-2.47034e-24
-1.58222e-11
-3.89506e-12
-4.03983e-13
-1.91325e-14
-1.71866e-15
-1.03404e-16
-7.60106e-18
-4.15308e-19
-5.13416e-20
4.82474e-22
-8.27023e-22
-5.38053e-23
-8.70223e-23
-5.41084e-23
-3.2776e-23
-1.32528e-23
-8.09471e-24
-1.13533e-23
5.1106e-24
-3.53944e-24
-1.6272e-11
-3.97711e-12
-4.20011e-13
-1.95481e-14
-1.73744e-15
-1.12688e-16
-6.40154e-18
-6.48598e-19
-1.51348e-20
-5.55714e-21
3.08243e-23
-2.01043e-22
-8.72527e-23
-5.9491e-23
-3.45638e-23
-1.58104e-23
-1.1285e-23
-1.20062e-23
1.79079e-24
-3.75326e-24
-1.59371e-11
-3.83623e-12
-4.18575e-13
-1.8729e-14
-1.80271e-15
-1.034e-16
-8.02982e-18
-4.22133e-19
-5.20776e-20
-3.03671e-22
-8.10234e-22
-1.26812e-22
-1.15366e-22
-7.00282e-23
-4.01351e-23
-1.95207e-23
-1.39333e-23
-1.42451e-23
3.93911e-24
-4.51543e-24
-1.66191e-11
-3.66047e-12
-3.92738e-13
-1.58127e-14
-1.40982e-15
-8.92595e-17
-4.38587e-18
-4.69965e-19
-1.05857e-20
-4.00724e-21
-1.45837e-22
-2.58754e-22
-1.30883e-22
-9.08964e-23
-5.15389e-23
-2.58632e-23
-1.9931e-23
-2.09003e-23
3.88471e-24
-6.81344e-24
-9.05702e-12
-1.8792e-12
-1.93592e-13
-7.38115e-15
-4.93579e-16
-5.33073e-17
1.97499e-18
-7.50468e-19
1.07402e-19
-2.12244e-20
3.59006e-21
-8.19339e-22
3.50251e-23
-7.89211e-23
-3.00652e-23
-2.28324e-23
-3.05845e-23
-3.7279e-23
-1.56234e-23
-1.08467e-23
)
;

boundaryField
{
    movingWall
    {
        type            calculated;
        value           nonuniform List<scalar> 
20
(
-3.0463e-13
2.00428e-13
5.0188e-13
-1.12791e-15
2.04214e-15
6.21479e-18
1.31861e-17
-1.12538e-18
2.90401e-19
-4.73128e-20
9.06742e-21
-1.65335e-21
2.6757e-22
-7.25597e-23
-4.64643e-24
-1.83515e-23
-3.51284e-23
-4.21609e-23
-3.11343e-23
-1.1761e-23
)
;
    }
    fixedWalls
    {
        type            calculated;
        value           nonuniform List<scalar> 
60
(
7.5503e-11
1.36525e-10
1.09453e-10
8.31621e-11
5.44882e-11
2.98417e-11
7.92012e-12
-9.93789e-12
-2.54009e-11
-3.86131e-11
-4.99888e-11
-5.97176e-11
-6.76117e-11
-7.43779e-11
-7.90492e-11
-8.28986e-11
-8.53724e-11
-8.37019e-11
-8.73492e-11
-4.76899e-11
-2.12881e-24
-4.06787e-24
-3.40424e-24
-4.43804e-24
-3.8288e-24
-4.12621e-24
-2.67028e-24
-4.66376e-24
-3.7934e-24
-2.34194e-24
-4.02978e-24
-2.65234e-24
-3.58286e-24
-4.70606e-24
-5.11246e-24
-4.85916e-24
-3.69994e-24
-4.1146e-24
-8.54081e-24
-5.57779e-24
1.85439e-12
1.55686e-12
-2.84721e-13
1.17846e-14
-9.98172e-16
2.81988e-17
-3.32092e-18
3.98867e-19
-8.26386e-20
1.48767e-20
-2.7551e-21
4.79894e-22
-1.14747e-22
-4.50107e-25
-1.22656e-23
-1.18298e-23
-1.66857e-23
-1.62665e-23
-1.29992e-23
-5.65818e-24
)
;
    }
    frontAndBack
    {
        type            empty;
    }
}


// ************************************************************************* //
