/*--------------------------------*- C++ -*----------------------------------*\
| =========                 |                                                 |
| \\      /  F ield         | OpenFOAM: The Open Source CFD Toolbox           |
|  \\    /   O peration     | Version:  2312                                  |
|   \\  /    A nd           | Website:  www.openfoam.com                      |
|    \\/     M anipulation  |                                                 |
\*---------------------------------------------------------------------------*/
FoamFile
{
    version     2.0;
    format      ascii;
    arch        "LSB;label=32;scalar=64";
    class       volVectorField;
    location    "3.625";
    object      UNear;
}
// * * * * * * * * * * * * * * * * * * * * * * * * * * * * * * * * * * * * * //

dimensions      [0 1 -1 0 0 0 0];

internalField   nonuniform List<vector> 
400
(
(-1 1.82187e-07 0)
(-1 -4.20139e-08 0)
(-1 9.95819e-09 0)
(-1 -2.28997e-09 0)
(-1 5.35297e-10 0)
(-1 -1.24267e-10 0)
(-1 2.86653e-11 0)
(-1 -6.57517e-12 0)
(-1 1.56229e-12 0)
(-1 -3.18614e-13 0)
(-1 1.01909e-13 0)
(-1 1.16487e-15 0)
(-1 2.13225e-14 0)
(-1 1.40487e-14 0)
(-1 1.24267e-14 0)
(-1 1.01766e-14 0)
(-1 1.04845e-14 0)
(-1 9.34495e-15 0)
(-1 4.96693e-15 0)
(-1 -6.22335e-15 0)
(-1 -1.82946e-07 0)
(-1 4.22889e-08 0)
(-1 -9.9998e-09 0)
(-1 2.3083e-09 0)
(-1 -5.36447e-10 0)
(-1 1.25314e-10 0)
(-1 -2.82339e-11 0)
(-1 6.76442e-12 0)
(-1 -1.38513e-12 0)
(-1 4.21004e-13 0)
(-1 -1.11229e-14 0)
(-1 7.35681e-14 0)
(-1 4.80092e-14 0)
(-1 4.55739e-14 0)
(-1 3.65818e-14 0)
(-1 2.94556e-14 0)
(-1 2.91712e-14 0)
(-1 3.18724e-14 0)
(-1 1.17085e-14 0)
(-1 -1.79868e-14 0)
(-1 1.84398e-07 0)
(-1 -4.28085e-08 0)
(-1 1.01375e-08 0)
(-1 -2.34907e-09 0)
(-1 5.50892e-10 0)
(-1 -1.27904e-10 0)
(-1 2.99185e-11 0)
(-1 -6.66885e-12 0)
(-1 1.73926e-12 0)
(-1 -2.37429e-13 0)
(-1 1.84959e-13 0)
(-1 7.27577e-14 0)
(-1 8.86639e-14 0)
(-1 7.23743e-14 0)
(-1 6.04341e-14 0)
(-1 4.86716e-14 0)
(-1 4.80106e-14 0)
(-1 5.07271e-14 0)
(-1 1.94443e-14 0)
(-1 -2.929e-14 0)
(-1 -1.8653e-07 0)
(-1 4.349e-08 0)
(-1 -1.0301e-08 0)
(-1 2.39945e-09 0)
(-1 -5.63067e-10 0)
(-1 1.3222e-10 0)
(-1 -3.03236e-11 0)
(-1 7.38008e-12 0)
(-1 -1.47033e-12 0)
(-1 5.3305e-13 0)
(-1 4.49999e-14 0)
(-1 1.40808e-13 0)
(-1 1.09407e-13 0)
(-1 1.00466e-13 0)
(-1 8.19525e-14 0)
(-1 6.65121e-14 0)
(-1 6.47895e-14 0)
(-1 6.98513e-14 0)
(-1 2.57457e-14 0)
(-1 -3.97073e-14 0)
(-1 1.8932e-07 0)
(-1 -4.43448e-08 0)
(-1 1.05083e-08 0)
(-1 -2.4599e-09 0)
(-1 5.79873e-10 0)
(-1 -1.3601e-10 0)
(-1 3.20914e-11 0)
(-1 -7.26625e-12 0)
(-1 1.94136e-12 0)
(-1 -2.33196e-13 0)
(-1 2.51967e-13 0)
(-1 1.253e-13 0)
(-1 1.44941e-13 0)
(-1 1.21817e-13 0)
(-1 1.02113e-13 0)
(-1 8.26238e-14 0)
(-1 8.08382e-14 0)
(-1 8.55723e-14 0)
(-1 3.17912e-14 0)
(-1 -4.90841e-14 0)
(-1 -1.92681e-07 0)
(-1 4.53096e-08 0)
(-1 -1.07405e-08 0)
(-1 2.52487e-09 0)
(-1 -5.96313e-10 0)
(-1 1.40868e-10 0)
(-1 -3.28228e-11 0)
(-1 8.02982e-12 0)
(-1 -1.61958e-12 0)
(-1 6.24689e-13 0)
(-1 7.94897e-14 0)
(-1 1.94679e-13 0)
(-1 1.58077e-13 0)
(-1 1.45229e-13 0)
(-1 1.19031e-13 0)
(-1 9.66331e-14 0)
(-1 9.38668e-14 0)
(-1 1.00057e-13 0)
(-1 3.64654e-14 0)
(-1 -5.71088e-14 0)
(-1 1.96536e-07 0)
(-1 -4.63824e-08 0)
(-1 1.09957e-08 0)
(-1 -2.59504e-09 0)
(-1 6.14428e-10 0)
(-1 -1.45009e-10 0)
(-1 3.45639e-11 0)
(-1 -7.86374e-12 0)
(-1 2.1539e-12 0)
(-1 -2.33091e-13 0)
(-1 3.11322e-13 0)
(-1 1.68805e-13 0)
(-1 1.91222e-13 0)
(-1 1.6117e-13 0)
(-1 1.34772e-13 0)
(-1 1.08684e-13 0)
(-1 1.05479e-13 0)
(-1 1.11009e-13 0)
(-1 4.03189e-14 0)
(-1 -6.35848e-14 0)
(-1 -2.00786e-07 0)
(-1 4.75253e-08 0)
(-1 -1.12669e-08 0)
(-1 2.66781e-09 0)
(-1 -6.31915e-10 0)
(-1 1.50177e-10 0)
(-1 -3.51821e-11 0)
(-1 8.71653e-12 0)
(-1 -1.72343e-12 0)
(-1 7.22792e-13 0)
(-1 1.17968e-13 0)
(-1 2.43098e-13 0)
(-1 1.98547e-13 0)
(-1 1.8027e-13 0)
(-1 1.46944e-13 0)
(-1 1.18732e-13 0)
(-1 1.14075e-13 0)
(-1 1.19686e-13 0)
(-1 4.30733e-14 0)
(-1 -6.84075e-14 0)
(-1 2.05295e-07 0)
(-1 -4.87132e-08 0)
(-1 1.15498e-08 0)
(-1 -2.74088e-09 0)
(-1 6.50953e-10 0)
(-1 -1.53987e-10 0)
(-1 3.70813e-11 0)
(-1 -8.35915e-12 0)
(-1 2.38668e-12 0)
(-1 -2.0922e-13 0)
(-1 3.74388e-13 0)
(-1 2.10558e-13 0)
(-1 2.29378e-13 0)
(-1 1.91149e-13 0)
(-1 1.58384e-13 0)
(-1 1.26753e-13 0)
(-1 1.21015e-13 0)
(-1 1.25278e-13 0)
(-1 4.46074e-14 0)
(-1 -7.16053e-14 0)
(-1 -2.09972e-07 0)
(-1 4.99294e-08 0)
(-1 -1.1837e-08 0)
(-1 2.81642e-09 0)
(-1 -6.68166e-10 0)
(-1 1.59509e-10 0)
(-1 -3.73736e-11 0)
(-1 9.41314e-12 0)
(-1 -1.78191e-12 0)
(-1 8.30275e-13 0)
(-1 1.62645e-13 0)
(-1 2.8826e-13 0)
(-1 2.31373e-13 0)
(-1 2.0588e-13 0)
(-1 1.6575e-13 0)
(-1 1.32759e-13 0)
(-1 1.25311e-13 0)
(-1 1.28245e-13 0)
(-1 4.54222e-14 0)
(-1 -7.33803e-14 0)
(-1 2.14639e-07 0)
(-1 -5.1124e-08 0)
(-1 1.21225e-08 0)
(-1 -2.88722e-09 0)
(-1 6.87223e-10 0)
(-1 -1.6267e-10 0)
(-1 3.95167e-11 0)
(-1 -8.78835e-12 0)
(-1 2.62237e-12 0)
(-1 -1.73793e-13 0)
(-1 4.35982e-13 0)
(-1 2.4691e-13 0)
(-1 2.57814e-13 0)
(-1 2.10613e-13 0)
(-1 1.71796e-13 0)
(-1 1.35834e-13 0)
(-1 1.27391e-13 0)
(-1 1.29136e-13 0)
(-1 4.50476e-14 0)
(-1 -7.36242e-14 0)
(-1 -2.19244e-07 0)
(-1 5.22995e-08 0)
(-1 -1.23987e-08 0)
(-1 2.95967e-09 0)
(-1 -7.02773e-10 0)
(-1 1.68329e-10 0)
(-1 -3.93759e-11 0)
(-1 1.00684e-11 0)
(-1 -1.82307e-12 0)
(-1 9.30324e-13 0)
(-1 2.011e-13 0)
(-1 3.22036e-13 0)
(-1 2.51126e-13 0)
(-1 2.18224e-13 0)
(-1 1.72761e-13 0)
(-1 1.36614e-13 0)
(-1 1.26878e-13 0)
(-1 1.27108e-13 0)
(-1 4.46493e-14 0)
(-1 -7.24145e-14 0)
(-1 2.23595e-07 0)
(-1 -5.33921e-08 0)
(-1 1.26609e-08 0)
(-1 -3.0225e-09 0)
(-1 7.20505e-10 0)
(-1 -1.70554e-10 0)
(-1 4.1699e-11 0)
(-1 -9.16787e-12 0)
(-1 2.82705e-12 0)
(-1 -1.48508e-13 0)
(-1 4.79977e-13 0)
(-1 2.66267e-13 0)
(-1 2.68567e-13 0)
(-1 2.13859e-13 0)
(-1 1.71563e-13 0)
(-1 1.3383e-13 0)
(-1 1.23429e-13 0)
(-1 1.23234e-13 0)
(-1 4.28161e-14 0)
(-1 -6.96904e-14 0)
(-1 -2.2769e-07 0)
(-1 5.44252e-08 0)
(-1 -1.29024e-08 0)
(-1 3.08625e-09 0)
(-1 -7.33196e-10 0)
(-1 1.76e-10 0)
(-1 -4.1107e-11 0)
(-1 1.06158e-11 0)
(-1 -1.8737e-12 0)
(-1 9.96635e-13 0)
(-1 2.14661e-13 0)
(-1 3.30898e-13 0)
(-1 2.48155e-13 0)
(-1 2.11252e-13 0)
(-1 1.64087e-13 0)
(-1 1.28364e-13 0)
(-1 1.17402e-13 0)
(-1 1.15596e-13 0)
(-1 4.10474e-14 0)
(-1 -6.54024e-14 0)
(-1 2.31337e-07 0)
(-1 -5.53267e-08 0)
(-1 1.31197e-08 0)
(-1 -3.1364e-09 0)
(-1 7.4835e-10 0)
(-1 -1.77117e-10 0)
(-1 4.3462e-11 0)
(-1 -9.50766e-12 0)
(-1 2.95982e-12 0)
(-1 -1.59986e-13 0)
(-1 4.84223e-13 0)
(-1 2.53225e-13 0)
(-1 2.50766e-13 0)
(-1 1.94276e-13 0)
(-1 1.53636e-13 0)
(-1 1.18357e-13 0)
(-1 1.07854e-13 0)
(-1 1.06451e-13 0)
(-1 3.71565e-14 0)
(-1 -5.92368e-14 0)
(-1 -2.34578e-07 0)
(-1 5.6136e-08 0)
(-1 -1.33074e-08 0)
(-1 3.1868e-09 0)
(-1 -7.57214e-10 0)
(-1 1.81976e-10 0)
(-1 -4.24831e-11 0)
(-1 1.09851e-11 0)
(-1 -1.96313e-12 0)
(-1 9.96714e-13 0)
(-1 1.80466e-13 0)
(-1 2.97725e-13 0)
(-1 2.11456e-13 0)
(-1 1.77271e-13 0)
(-1 1.35469e-13 0)
(-1 1.04866e-13 0)
(-1 9.49866e-14 0)
(-1 9.20085e-14 0)
(-1 3.26143e-14 0)
(-1 -5.15922e-14 0)
(-1 2.37238e-07 0)
(-1 -5.67845e-08 0)
(-1 1.34649e-08 0)
(-1 -3.22099e-09 0)
(-1 7.68962e-10 0)
(-1 -1.81953e-10 0)
(-1 4.4653e-11 0)
(-1 -9.84205e-12 0)
(-1 2.96502e-12 0)
(-1 -2.4638e-13 0)
(-1 4.20531e-13 0)
(-1 1.87851e-13 0)
(-1 1.90974e-13 0)
(-1 1.42562e-13 0)
(-1 1.11741e-13 0)
(-1 8.54219e-14 0)
(-1 7.78134e-14 0)
(-1 7.66092e-14 0)
(-1 2.64151e-14 0)
(-1 -4.2838e-14 0)
(-1 -2.39389e-07 0)
(-1 5.73157e-08 0)
(-1 -1.35852e-08 0)
(-1 3.25608e-09 0)
(-1 -7.73546e-10 0)
(-1 1.85978e-10 0)
(-1 -4.35794e-11 0)
(-1 1.10911e-11 0)
(-1 -2.15865e-12 0)
(-1 8.92793e-13 0)
(-1 7.27581e-14 0)
(-1 2.0952e-13 0)
(-1 1.33324e-13 0)
(-1 1.13955e-13 0)
(-1 8.51831e-14 0)
(-1 6.64728e-14 0)
(-1 6.04501e-14 0)
(-1 5.79268e-14 0)
(-1 2.08185e-14 0)
(-1 -3.38223e-14 0)
(-1 2.40893e-07 0)
(-1 -5.76758e-08 0)
(-1 1.36737e-08 0)
(-1 -3.26899e-09 0)
(-1 7.80055e-10 0)
(-1 -1.84647e-10 0)
(-1 4.48805e-11 0)
(-1 -1.02002e-11 0)
(-1 2.78255e-12 0)
(-1 -4.11545e-13 0)
(-1 2.89771e-13 0)
(-1 7.95884e-14 0)
(-1 1.00099e-13 0)
(-1 6.95755e-14 0)
(-1 5.50226e-14 0)
(-1 4.15367e-14 0)
(-1 3.8915e-14 0)
(-1 4.18046e-14 0)
(-1 1.77974e-14 0)
(-1 -2.33155e-14 0)
(-1 -2.42037e-07 0)
(-1 5.81786e-08 0)
(-1 -1.38006e-08 0)
(-1 3.31659e-09 0)
(-1 -7.9183e-10 0)
(-1 1.8969e-10 0)
(-1 -4.53914e-11 0)
(-1 1.10438e-11 0)
(-1 -2.53667e-12 0)
(-1 7.00342e-13 0)
(-1 -1.03594e-13 0)
(-1 7.45797e-14 0)
(-1 2.0613e-14 0)
(-1 2.48071e-14 0)
(-1 1.65351e-14 0)
(-1 1.31941e-14 0)
(-1 1.38072e-14 0)
(-1 1.68422e-14 0)
(-1 8.78002e-15 0)
(-1 -8.64721e-15 0)
)
;

boundaryField
{
    movingWall
    {
        type            fixedValue;
        value           uniform (-1 -0 -0);
    }
    fixedWalls
    {
        type            calculated;
        value           nonuniform List<vector> 
60
(
(-1 7.28749e-08 0)
(-1 -7.31783e-08 0)
(-1 7.3759e-08 0)
(-1 -7.46121e-08 0)
(-1 7.5728e-08 0)
(-1 -7.70723e-08 0)
(-1 7.86145e-08 0)
(-1 -8.03143e-08 0)
(-1 8.21179e-08 0)
(-1 -8.39887e-08 0)
(-1 8.58556e-08 0)
(-1 -8.76976e-08 0)
(-1 8.94379e-08 0)
(-1 -9.10759e-08 0)
(-1 9.25348e-08 0)
(-1 -9.38311e-08 0)
(-1 9.4895e-08 0)
(-1 -9.57557e-08 0)
(-1 9.6357e-08 0)
(-1 -9.68149e-08 0)
(-1 -2.48934e-15 0)
(-1 -7.19471e-15 0)
(-1 -1.1716e-14 0)
(-1 -1.58829e-14 0)
(-1 -1.96337e-14 0)
(-1 -2.28435e-14 0)
(-1 -2.54339e-14 0)
(-1 -2.7363e-14 0)
(-1 -2.86421e-14 0)
(-1 -2.93521e-14 0)
(-1 -2.94497e-14 0)
(-1 -2.89658e-14 0)
(-1 -2.78762e-14 0)
(-1 -2.6161e-14 0)
(-1 -2.36947e-14 0)
(-1 -2.06369e-14 0)
(-1 -1.71352e-14 0)
(-1 -1.35289e-14 0)
(-1 -9.32619e-15 0)
(-1 -3.45888e-15 0)
(-1 7.28749e-08 0)
(-1 -1.68056e-08 0)
(-1 3.98327e-09 0)
(-1 -9.15987e-10 0)
(-1 2.14119e-10 0)
(-1 -4.97067e-11 0)
(-1 1.14661e-11 0)
(-1 -2.63007e-12 0)
(-1 6.24914e-13 0)
(-1 -1.27446e-13 0)
(-1 4.07638e-14 0)
(-1 4.65948e-16 0)
(-1 8.52901e-15 0)
(-1 5.61949e-15 0)
(-1 4.97067e-15 0)
(-1 4.07065e-15 0)
(-1 4.19379e-15 0)
(-1 3.73798e-15 0)
(-1 1.98677e-15 0)
(-1 -2.48934e-15 0)
)
;
    }
    frontAndBack
    {
        type            empty;
    }
}


// ************************************************************************* //
