/*--------------------------------*- C++ -*----------------------------------*\
| =========                 |                                                 |
| \\      /  F ield         | OpenFOAM: The Open Source CFD Toolbox           |
|  \\    /   O peration     | Version:  2312                                  |
|   \\  /    A nd           | Website:  www.openfoam.com                      |
|    \\/     M anipulation  |                                                 |
\*---------------------------------------------------------------------------*/
FoamFile
{
    version     2.0;
    format      ascii;
    arch        "LSB;label=32;scalar=64";
    class       volVectorField;
    location    "3.625";
    object      vorticityField;
}
// * * * * * * * * * * * * * * * * * * * * * * * * * * * * * * * * * * * * * //

dimensions      [0 0 -1 0 0 0 0];

internalField   nonuniform List<vector> 
400
(
(0 -0 1.50553e-05)
(0 -0 -1.74485e-05)
(0 -0 4.07123e-06)
(0 -0 -9.63994e-07)
(0 -0 2.24182e-07)
(0 -0 -5.29207e-08)
(0 -0 1.2259e-08)
(0 -0 -2.96533e-09)
(0 -0 6.16684e-10)
(0 -0 -2.06265e-10)
(0 -0 -1.4155e-12)
(0 -0 -3.92024e-11)
(0 -0 -2.15883e-11)
(0 -0 -1.81284e-11)
(0 -0 -1.25574e-11)
(0 -0 -8.54258e-12)
(0 -0 -4.69103e-12)
(0 -0 -6.87278e-13)
(0 -0 1.99393e-12)
(0 -0 9.11688e-13)
(0 -0 -1.59495e-05)
(0 -0 1.7694e-05)
(0 -0 -4.17294e-06)
(0 -0 9.83665e-07)
(0 -0 -2.31766e-07)
(0 -0 5.45618e-08)
(0 -0 -1.284e-08)
(0 -0 3.01415e-09)
(0 -0 -7.1048e-10)
(0 -0 1.65129e-10)
(0 -0 -3.95412e-11)
(0 -0 9.00318e-12)
(0 -0 -2.50126e-12)
(0 -0 -3.56693e-13)
(0 -0 -1.20526e-12)
(0 -0 -4.42903e-13)
(0 -0 3.77211e-13)
(0 -0 -1.69206e-12)
(0 -0 -5.06723e-12)
(0 -0 5.46512e-13)
(0 -0 1.56885e-05)
(0 -0 -1.77369e-05)
(0 -0 4.18309e-06)
(0 -0 -9.86375e-07)
(0 -0 2.32564e-07)
(0 -0 -5.48288e-08)
(0 -0 1.29184e-08)
(0 -0 -3.04637e-09)
(0 -0 7.15214e-10)
(0 -0 -1.69037e-10)
(0 -0 3.9882e-11)
(0 -0 -8.65376e-12)
(0 -0 2.10296e-12)
(0 -0 -1.73878e-12)
(0 -0 -1.53001e-12)
(0 -0 -7.54462e-13)
(0 -0 6.39234e-13)
(0 -0 -2.7211e-12)
(0 -0 -8.32697e-12)
(0 -0 9.57457e-13)
(0 -0 -1.54986e-05)
(0 -0 1.78618e-05)
(0 -0 -4.21585e-06)
(0 -0 9.9496e-07)
(0 -0 -2.34827e-07)
(0 -0 5.54153e-08)
(0 -0 -1.3084e-08)
(0 -0 3.08371e-09)
(0 -0 -7.30321e-10)
(0 -0 1.71184e-10)
(0 -0 -4.03355e-11)
(0 -0 1.03709e-11)
(0 -0 -2.32664e-12)
(0 -0 -1.1462e-12)
(0 -0 -2.33827e-12)
(0 -0 -9.30258e-13)
(0 -0 7.67602e-13)
(0 -0 -3.87727e-12)
(0 -0 -1.13082e-11)
(0 -0 1.26064e-12)
(0 -0 1.53321e-05)
(0 -0 -1.8043e-05)
(0 -0 4.2623e-06)
(0 -0 -1.00684e-06)
(0 -0 2.37846e-07)
(0 -0 -5.61972e-08)
(0 -0 1.32703e-08)
(0 -0 -3.14055e-09)
(0 -0 7.38677e-10)
(0 -0 -1.76068e-10)
(0 -0 4.15146e-11)
(0 -0 -8.99495e-12)
(0 -0 1.98267e-12)
(0 -0 -2.62941e-12)
(0 -0 -2.69958e-12)
(0 -0 -1.2601e-12)
(0 -0 9.18268e-13)
(0 -0 -4.79627e-12)
(0 -0 -1.38722e-11)
(0 -0 1.62087e-12)
(0 -0 -1.52691e-05)
(0 -0 1.82926e-05)
(0 -0 -4.32509e-06)
(0 -0 1.02256e-06)
(0 -0 -2.41792e-07)
(0 -0 5.71683e-08)
(0 -0 -1.3528e-08)
(0 -0 3.19318e-09)
(0 -0 -7.59568e-10)
(0 -0 1.77469e-10)
(0 -0 -4.24318e-11)
(0 -0 1.06776e-11)
(0 -0 -2.96635e-12)
(0 -0 -2.16989e-12)
(0 -0 -3.58566e-12)
(0 -0 -1.59482e-12)
(0 -0 9.11608e-13)
(0 -0 -5.65882e-12)
(0 -0 -1.62045e-11)
(0 -0 1.92881e-12)
(0 -0 1.52841e-05)
(0 -0 -1.85988e-05)
(0 -0 4.40144e-06)
(0 -0 -1.04156e-06)
(0 -0 2.46491e-07)
(0 -0 -5.83508e-08)
(0 -0 1.38029e-08)
(0 -0 -3.27491e-09)
(0 -0 7.70275e-10)
(0 -0 -1.8526e-10)
(0 -0 4.29002e-11)
(0 -0 -9.89582e-12)
(0 -0 1.43194e-12)
(0 -0 -3.91032e-12)
(0 -0 -4.00171e-12)
(0 -0 -2.03478e-12)
(0 -0 8.55877e-13)
(0 -0 -6.43471e-12)
(0 -0 -1.80286e-11)
(0 -0 2.24528e-12)
(0 -0 -1.53827e-05)
(0 -0 1.89549e-05)
(0 -0 -4.48953e-06)
(0 -0 1.06329e-06)
(0 -0 -2.51865e-07)
(0 -0 5.96527e-08)
(0 -0 -1.41429e-08)
(0 -0 3.34243e-09)
(0 -0 -7.98073e-10)
(0 -0 1.85441e-10)
(0 -0 -4.58281e-11)
(0 -0 1.02534e-11)
(0 -0 -4.3041e-12)
(0 -0 -3.53396e-12)
(0 -0 -4.90693e-12)
(0 -0 -2.39247e-12)
(0 -0 7.18797e-13)
(0 -0 -7.04594e-12)
(0 -0 -1.93515e-11)
(0 -0 2.37079e-12)
(0 -0 1.55337e-05)
(0 -0 -1.93428e-05)
(0 -0 4.58492e-06)
(0 -0 -1.08674e-06)
(0 -0 2.57596e-07)
(0 -0 -6.10803e-08)
(0 -0 1.44703e-08)
(0 -0 -3.44063e-09)
(0 -0 8.08895e-10)
(0 -0 -1.96594e-10)
(0 -0 4.39294e-11)
(0 -0 -1.17905e-11)
(0 -0 2.5463e-13)
(0 -0 -5.31043e-12)
(0 -0 -5.1386e-12)
(0 -0 -2.81532e-12)
(0 -0 3.67454e-13)
(0 -0 -7.64075e-12)
(0 -0 -2.02033e-11)
(0 -0 2.56426e-12)
(0 -0 -1.5723e-05)
(0 -0 1.97521e-05)
(0 -0 -4.68517e-06)
(0 -0 1.11122e-06)
(0 -0 -2.63598e-07)
(0 -0 6.25199e-08)
(0 -0 -1.4845e-08)
(0 -0 3.51211e-09)
(0 -0 -8.41156e-10)
(0 -0 1.94239e-10)
(0 -0 -4.94581e-11)
(0 -0 9.71881e-12)
(0 -0 -5.52754e-12)
(0 -0 -4.61074e-12)
(0 -0 -5.90267e-12)
(0 -0 -3.12232e-12)
(0 -0 6.36872e-14)
(0 -0 -8.04308e-12)
(0 -0 -2.07047e-11)
(0 -0 2.71449e-12)
(0 -0 1.59356e-05)
(0 -0 -2.01651e-05)
(0 -0 4.78581e-06)
(0 -0 -1.13576e-06)
(0 -0 2.69544e-07)
(0 -0 -6.39925e-08)
(0 -0 1.51778e-08)
(0 -0 -3.61408e-09)
(0 -0 8.49665e-10)
(0 -0 -2.07878e-10)
(0 -0 4.51603e-11)
(0 -0 -1.35342e-11)
(0 -0 -7.02357e-13)
(0 -0 -6.37914e-12)
(0 -0 -5.98708e-12)
(0 -0 -3.49183e-12)
(0 -0 -1.2768e-13)
(0 -0 -8.31567e-12)
(0 -0 -2.0791e-11)
(0 -0 2.72213e-12)
(0 -0 -1.61603e-05)
(0 -0 2.05758e-05)
(0 -0 -4.88572e-06)
(0 -0 1.15999e-06)
(0 -0 -2.7545e-07)
(0 -0 6.53977e-08)
(0 -0 -1.55439e-08)
(0 -0 3.68098e-09)
(0 -0 -8.82883e-10)
(0 -0 2.03176e-10)
(0 -0 -5.29413e-11)
(0 -0 9.25806e-12)
(0 -0 -6.64071e-12)
(0 -0 -5.26147e-12)
(0 -0 -6.4533e-12)
(0 -0 -3.47706e-12)
(0 -0 -3.00142e-13)
(0 -0 -8.22284e-12)
(0 -0 -2.05214e-11)
(0 -0 2.69521e-12)
(0 -0 1.63895e-05)
(0 -0 -2.09669e-05)
(0 -0 4.9804e-06)
(0 -0 -1.18294e-06)
(0 -0 2.80979e-07)
(0 -0 -6.67619e-08)
(0 -0 1.58484e-08)
(0 -0 -3.77626e-09)
(0 -0 8.88681e-10)
(0 -0 -2.17956e-10)
(0 -0 4.6763e-11)
(0 -0 -1.49611e-11)
(0 -0 -1.28337e-12)
(0 -0 -6.74592e-12)
(0 -0 -6.15985e-12)
(0 -0 -3.62079e-12)
(0 -0 -5.17464e-13)
(0 -0 -8.06131e-12)
(0 -0 -1.98074e-11)
(0 -0 2.57901e-12)
(0 -0 -1.66106e-05)
(0 -0 2.13363e-05)
(0 -0 -5.06982e-06)
(0 -0 1.20452e-06)
(0 -0 -2.86215e-07)
(0 -0 6.8e-08)
(0 -0 -1.61714e-08)
(0 -0 3.8332e-09)
(0 -0 -9.19278e-10)
(0 -0 2.12089e-10)
(0 -0 -5.54335e-11)
(0 -0 9.28547e-12)
(0 -0 -7.03146e-12)
(0 -0 -5.23555e-12)
(0 -0 -6.17464e-12)
(0 -0 -3.36746e-12)
(0 -0 -5.1781e-13)
(0 -0 -7.55413e-12)
(0 -0 -1.87233e-11)
(0 -0 2.29998e-12)
(0 -0 1.68242e-05)
(0 -0 -2.16684e-05)
(0 -0 5.14983e-06)
(0 -0 -1.22383e-06)
(0 -0 2.90846e-07)
(0 -0 -6.91391e-08)
(0 -0 1.64236e-08)
(0 -0 -3.91315e-09)
(0 -0 9.2276e-10)
(0 -0 -2.25415e-10)
(0 -0 4.88563e-11)
(0 -0 -1.52684e-11)
(0 -0 -8.26296e-13)
(0 -0 -6.08086e-12)
(0 -0 -5.26086e-12)
(0 -0 -3.06032e-12)
(0 -0 -3.50289e-13)
(0 -0 -6.98847e-12)
(0 -0 -1.69483e-11)
(0 -0 2.07251e-12)
(0 -0 -1.70157e-05)
(0 -0 2.19641e-05)
(0 -0 -5.22117e-06)
(0 -0 1.24098e-06)
(0 -0 -2.9499e-07)
(0 -0 7.01146e-08)
(0 -0 -1.66778e-08)
(0 -0 3.95699e-09)
(0 -0 -9.4758e-10)
(0 -0 2.1978e-10)
(0 -0 -5.66174e-11)
(0 -0 1.00378e-11)
(0 -0 -6.54312e-12)
(0 -0 -4.07508e-12)
(0 -0 -4.90947e-12)
(0 -0 -2.69294e-12)
(0 -0 -4.99667e-13)
(0 -0 -6.12881e-12)
(0 -0 -1.47666e-11)
(0 -0 1.78937e-12)
(0 -0 1.71816e-05)
(0 -0 -2.2208e-05)
(0 -0 5.27958e-06)
(0 -0 -1.255e-06)
(0 -0 2.98332e-07)
(0 -0 -7.09336e-08)
(0 -0 1.68565e-08)
(0 -0 -4.01506e-09)
(0 -0 9.48724e-10)
(0 -0 -2.30597e-10)
(0 -0 5.07957e-11)
(0 -0 -1.54476e-11)
(0 -0 -2.73385e-13)
(0 -0 -5.05022e-12)
(0 -0 -4.00641e-12)
(0 -0 -2.44406e-12)
(0 -0 -6.10215e-13)
(0 -0 -5.24824e-12)
(0 -0 -1.21616e-11)
(0 -0 1.61518e-12)
(0 -0 -1.73534e-05)
(0 -0 2.24153e-05)
(0 -0 -5.32944e-06)
(0 -0 1.26695e-06)
(0 -0 -3.01211e-07)
(0 -0 7.16091e-08)
(0 -0 -1.70321e-08)
(0 -0 4.04503e-09)
(0 -0 -9.66081e-10)
(0 -0 2.26258e-10)
(0 -0 -5.65366e-11)
(0 -0 1.12337e-11)
(0 -0 -5.16546e-12)
(0 -0 -2.18493e-12)
(0 -0 -3.09482e-12)
(0 -0 -1.362e-12)
(0 -0 -9.56571e-14)
(0 -0 -3.96316e-12)
(0 -0 -9.6628e-12)
(0 -0 1.24617e-12)
(0 -0 1.74252e-05)
(0 -0 -2.2564e-05)
(0 -0 5.36915e-06)
(0 -0 -1.27745e-06)
(0 -0 3.03947e-07)
(0 -0 -7.23298e-08)
(0 -0 1.72082e-08)
(0 -0 -4.0978e-09)
(0 -0 9.73528e-10)
(0 -0 -2.32635e-10)
(0 -0 5.50493e-11)
(0 -0 -1.29228e-11)
(0 -0 3.09157e-12)
(0 -0 -1.2821e-12)
(0 -0 -2.83106e-13)
(0 -0 6.38958e-13)
(0 -0 1.6802e-12)
(0 -0 -1.75939e-12)
(0 -0 -7.24384e-12)
(0 -0 1.99443e-13)
(0 -0 -1.78953e-05)
(0 -0 2.27422e-05)
(0 -0 -5.45112e-06)
(0 -0 1.29536e-06)
(0 -0 -3.11147e-07)
(0 -0 7.3954e-08)
(0 -0 -1.79778e-08)
(0 -0 4.1169e-09)
(0 -0 -1.13688e-09)
(0 -0 1.61912e-10)
(0 -0 -1.23237e-10)
(0 -0 -3.32242e-11)
(0 -0 -3.85062e-11)
(0 -0 -2.3935e-11)
(0 -0 -1.66925e-11)
(0 -0 -1.0654e-11)
(0 -0 -6.30303e-12)
(0 -0 -1.28876e-12)
(0 -0 2.16734e-12)
(0 -0 1.28776e-12)
)
;

boundaryField
{
    movingWall
    {
        type            calculated;
        value           nonuniform List<vector> 
20
(
(0 -0 -2.00921e-05)
(0 -0 2.32212e-05)
(0 -0 -5.66732e-06)
(0 -0 1.3421e-06)
(0 -0 -3.28714e-07)
(0 -0 7.8376e-08)
(0 -0 -1.95306e-08)
(0 -0 4.36603e-09)
(0 -0 -1.36865e-09)
(0 -0 1.05463e-10)
(0 -0 -2.00155e-10)
(0 -0 -8.13709e-11)
(0 -0 -7.68309e-11)
(0 -0 -5.06787e-11)
(0 -0 -3.5445e-11)
(0 -0 -2.37207e-11)
(0 -0 -1.50895e-11)
(0 -0 -2.72316e-12)
(0 -0 7.79833e-12)
(0 -0 3.13975e-12)
)
;
    }
    fixedWalls
    {
        type            calculated;
        value           nonuniform List<vector> 
60
(
(0 -0 7.39129e-05)
(0 -0 -7.50621e-05)
(0 -0 7.52886e-05)
(0 -0 -7.58066e-05)
(0 -0 7.65626e-05)
(0 -0 -7.76043e-05)
(0 -0 7.88832e-05)
(0 -0 -8.03709e-05)
(0 -0 8.19934e-05)
(0 -0 -8.37074e-05)
(0 -0 8.54397e-05)
(0 -0 -8.71635e-05)
(0 -0 8.88072e-05)
(0 -0 -9.03601e-05)
(0 -0 9.17579e-05)
(0 -0 -9.30026e-05)
(0 -0 9.40313e-05)
(0 -0 -9.49017e-05)
(0 -0 9.54606e-05)
(0 -0 -9.63243e-05)
(0 -0 3.27538e-12)
(0 -0 7.11339e-12)
(0 -0 1.16889e-11)
(0 -0 1.57474e-11)
(0 -0 1.95252e-11)
(0 -0 2.2708e-11)
(0 -0 2.53526e-11)
(0 -0 2.72004e-11)
(0 -0 2.85066e-11)
(0 -0 2.92708e-11)
(0 -0 2.93142e-11)
(0 -0 2.88845e-11)
(0 -0 2.77678e-11)
(0 -0 2.60255e-11)
(0 -0 2.35592e-11)
(0 -0 2.05285e-11)
(0 -0 1.71081e-11)
(0 -0 1.34747e-11)
(0 -0 8.97383e-12)
(0 -0 4.75993e-12)
(0 -0 1.2162e-05)
(0 -0 -1.68968e-05)
(0 -0 3.82429e-06)
(0 -0 -9.211e-07)
(0 -0 2.07118e-07)
(0 -0 -4.90671e-08)
(0 -0 1.10935e-08)
(0 -0 -2.72966e-09)
(0 -0 4.76842e-10)
(0 -0 -2.32413e-10)
(0 -0 -4.57821e-11)
(0 -0 -6.80551e-11)
(0 -0 -4.56074e-11)
(0 -0 -3.54841e-11)
(0 -0 -2.50786e-11)
(0 -0 -1.7114e-11)
(0 -0 -9.94195e-12)
(0 -0 -8.18207e-13)
(0 -0 6.17032e-12)
(0 -0 1.81318e-12)
)
;
    }
    frontAndBack
    {
        type            empty;
    }
}


// ************************************************************************* //
