/*--------------------------------*- C++ -*----------------------------------*\
| =========                 |                                                 |
| \\      /  F ield         | OpenFOAM: The Open Source CFD Toolbox           |
|  \\    /   O peration     | Version:  2312                                  |
|   \\  /    A nd           | Website:  www.openfoam.com                      |
|    \\/     M anipulation  |                                                 |
\*---------------------------------------------------------------------------*/
FoamFile
{
    version     2.0;
    format      ascii;
    arch        "LSB;label=32;scalar=64";
    class       volScalarField;
    location    "100";
    object      k;
}
// * * * * * * * * * * * * * * * * * * * * * * * * * * * * * * * * * * * * * //

dimensions      [0 2 -2 0 0 0 0];

internalField   nonuniform List<scalar> 
12225
(
0.571465
0.98767
1.28116
1.45561
1.54171
1.57753
1.5758
1.56742
1.54737
1.52406
1.50086
1.47854
1.45855
1.43981
1.42425
1.40888
1.39828
1.38422
0.438464
0.496983
0.52182
0.535035
0.542694
0.547523
0.550012
0.552288
0.555746
0.559436
0.565237
0.570994
0.579127
0.586576
0.596171
0.604671
0.614414
0.623893
0.387563
0.417493
0.42419
0.421532
0.41498
0.405046
0.393744
0.382873
0.371888
0.362464
0.353217
0.346114
0.338965
0.334298
0.329092
0.326601
0.322968
0.322128
0.376178
0.384809
0.388127
0.387418
0.385424
0.381164
0.375661
0.369585
0.363103
0.356586
0.350106
0.34383
0.337826
0.332098
0.32679
0.321724
0.317182
0.31277
0.374177
0.37537
0.376398
0.375932
0.374797
0.37252
0.36961
0.366148
0.362484
0.358485
0.354561
0.350392
0.346533
0.342416
0.338815
0.334868
0.331642
0.327918
0.373737
0.372542
0.371997
0.371084
0.369916
0.368273
0.36634
0.364039
0.361644
0.358977
0.35638
0.353551
0.350928
0.348069
0.345541
0.342733
0.34038
0.337673
0.373769
0.371725
0.37023
0.368833
0.367464
0.365944
0.364347
0.362557
0.360738
0.358757
0.356821
0.354742
0.352781
0.350682
0.348766
0.346696
0.344878
0.342865
0.373818
0.371563
0.36962
0.367861
0.366251
0.364666
0.363124
0.361526
0.359949
0.358304
0.356702
0.355035
0.35344
0.351783
0.350229
0.348607
0.347125
0.345551
0.373832
0.371554
0.369457
0.367511
0.365723
0.364027
0.362431
0.360865
0.359359
0.357857
0.356408
0.354952
0.353551
0.352142
0.350799
0.349442
0.348168
0.346865
0.373832
0.37156
0.369425
0.36741
0.36553
0.363754
0.362089
0.360496
0.358985
0.357521
0.356122
0.354756
0.353447
0.352161
0.350932
0.34972
0.348567
0.347423
0.37383
0.371561
0.369417
0.367385
0.365469
0.363654
0.361944
0.36032
0.358783
0.357314
0.355918
0.354577
0.353297
0.352063
0.350883
0.349741
0.348648
0.347589
0.373828
0.371559
0.369412
0.367376
0.365449
0.363621
0.361891
0.36025
0.358694
0.357214
0.355808
0.354466
0.353188
0.351966
0.350799
0.349681
0.34861
0.347583
0.373827
0.371557
0.369407
0.367369
0.365437
0.363604
0.361866
0.360216
0.358649
0.35716
0.355744
0.354396
0.353114
0.351891
0.350724
0.349611
0.348547
0.347531
0.373827
0.371555
0.369403
0.367363
0.365428
0.363592
0.36185
0.360194
0.358622
0.357126
0.355704
0.35435
0.353062
0.351834
0.350664
0.349548
0.348482
0.347466
0.373826
0.371553
0.369399
0.367357
0.36542
0.363582
0.361836
0.360178
0.358602
0.357103
0.355676
0.354318
0.353025
0.351793
0.350618
0.349499
0.34843
0.347411
0.373826
0.371552
0.369396
0.367352
0.365413
0.363573
0.361825
0.360164
0.358585
0.357083
0.355654
0.354293
0.352997
0.351762
0.350584
0.349461
0.348389
0.347367
0.373825
0.371551
0.369394
0.367349
0.365408
0.363566
0.361816
0.360153
0.358572
0.357068
0.355636
0.354273
0.352974
0.351736
0.350556
0.349431
0.348357
0.347332
0.373825
0.371551
0.369393
0.367347
0.365405
0.363561
0.36181
0.360145
0.358563
0.357056
0.355623
0.354258
0.352957
0.351718
0.350536
0.349409
0.348333
0.347307
0.373825
0.371551
0.369393
0.367347
0.365404
0.36356
0.361808
0.360142
0.358559
0.357051
0.355617
0.354251
0.352949
0.351708
0.350526
0.349397
0.348321
0.347294
0.373826
0.371551
0.369394
0.367348
0.365406
0.363562
0.36181
0.360145
0.358562
0.357054
0.35562
0.354254
0.352953
0.351712
0.35053
0.349401
0.348326
0.347298
0.373826
0.371552
0.369396
0.367351
0.365409
0.363567
0.361816
0.360152
0.358569
0.357064
0.35563
0.354266
0.352966
0.351727
0.350546
0.34942
0.348345
0.347319
0.373826
0.371553
0.369398
0.367355
0.365415
0.363575
0.361827
0.360167
0.35859
0.35709
0.355662
0.354303
0.353009
0.351775
0.350599
0.349475
0.348404
0.347379
0.373826
0.371555
0.369401
0.367363
0.365431
0.363605
0.361875
0.360236
0.35868
0.357201
0.355792
0.354448
0.353164
0.351935
0.350758
0.34963
0.348548
0.347508
0.373827
0.371555
0.369413
0.367418
0.365544
0.363793
0.362137
0.360571
0.359069
0.35763
0.356238
0.354893
0.353585
0.352319
0.351086
0.34989
0.348724
0.347596
0.373819
0.371564
0.369582
0.367846
0.366223
0.364711
0.363218
0.361752
0.360265
0.358785
0.357286
0.355797
0.354303
0.35283
0.351357
0.34992
0.34849
0.347105
0.373767
0.371946
0.370917
0.369978
0.368912
0.367766
0.366326
0.364736
0.362932
0.361059
0.359057
0.35705
0.354967
0.35292
0.35084
0.348819
0.346786
0.344833
0.374093
0.3752
0.37726
0.377562
0.377092
0.375808
0.373489
0.370864
0.367803
0.364685
0.361328
0.358024
0.354601
0.351286
0.347919
0.344694
0.341468
0.338407
0.377677
0.394075
0.402941
0.402351
0.400305
0.396043
0.390666
0.385163
0.379135
0.373299
0.367224
0.361471
0.355722
0.350301
0.345132
0.340195
0.33573
0.331325
0.405778
0.438979
0.45119
0.455819
0.459119
0.46228
0.464993
0.467262
0.469263
0.470892
0.47255
0.473993
0.475622
0.477157
0.479302
0.480936
0.483776
0.485499
0.479012
0.684925
0.865147
0.9908
1.09436
1.1758
1.23934
1.28332
1.31494
1.3319
1.34305
1.34327
1.34113
1.33596
1.32747
1.31731
1.30635
1.29486
0.00955277
0.0196231
0.0293538
0.0375796
0.0442627
0.0496429
0.0539409
0.0574016
0.060663
0.0635906
0.0663647
0.0692139
0.0724022
0.0761505
0.0807435
0.0863596
0.0929229
0.100266
0.108359
0.117184
0.126808
0.137276
0.148732
0.161143
0.174472
0.188672
0.203745
0.21958
0.236123
0.25325
0.270897
0.288923
0.307279
0.32583
0.344542
0.363294
0.382075
0.400785
0.419434
0.437939
0.456329
0.474533
0.492591
0.510444
0.52814
0.545627
0.562959
0.580096
0.597092
0.613907
0.630589
0.647102
0.663488
0.679714
0.695814
0.71176
0.72758
0.743247
0.758783
0.774166
0.789408
0.804493
0.819426
0.834195
0.848795
0.863223
0.877456
0.891502
0.905324
0.918942
0.932317
0.945489
0.958405
0.971121
0.983571
0.995824
1.0078
1.01959
1.03111
1.04244
1.0535
1.06441
1.0751
1.08575
1.09631
1.10692
1.1172
1.12745
1.13785
1.1481
1.15848
1.16878
1.17903
1.18918
1.19904
1.20847
1.21679
1.2229
1.22237
1.23089
1.25061
1.25215
1.2702
1.27233
1.28744
1.28755
1.30112
1.2977
1.31479
1.31745
1.3236
1.32639
1.32564
1.3297
1.33905
1.33501
1.33765
1.3466
1.34421
1.34214
1.34547
1.34054
1.33721
1.33161
1.32475
1.31671
1.30743
1.29696
1.28524
1.27221
1.25782
1.24214
1.22516
1.20695
1.18753
1.16679
1.14483
1.1218
1.09777
1.07288
1.04727
1.02099
0.994078
0.967196
0.940254
0.912382
0.889333
0.871306
0.853896
0.836498
0.8191
0.801793
0.784612
0.767681
0.750862
0.734078
0.717638
0.701817
0.686304
0.670985
0.656011
0.641493
0.627528
0.614095
0.601161
0.588729
0.576826
0.56543
0.554531
0.544116
0.534171
0.524651
0.515565
0.50672
0.498423
0.48962
0.482224
0.471662
0.463786
0.437796
0.0275763
0.0540147
0.0754453
0.0917172
0.105163
0.116741
0.126928
0.136022
0.144306
0.152339
0.160615
0.169561
0.179525
0.190739
0.203318
0.217242
0.232465
0.248971
0.26673
0.285725
0.305971
0.327491
0.350311
0.374424
0.399815
0.426444
0.454267
0.483218
0.513216
0.544125
0.575828
0.608201
0.641138
0.674521
0.70825
0.742217
0.77634
0.81053
0.84473
0.878877
0.912932
0.94685
0.98061
1.01418
1.04756
1.08073
1.11369
1.14644
1.17898
1.21131
1.24345
1.27537
1.30711
1.33863
1.36996
1.40108
1.43199
1.46269
1.49316
1.52339
1.55337
1.58309
1.61253
1.64167
1.6705
1.699
1.72714
1.75492
1.78232
1.80926
1.83571
1.86164
1.88704
1.9119
1.93617
1.95988
1.98297
2.00547
2.02734
2.04863
2.0693
2.0894
2.10894
2.12799
2.14656
2.1648
2.18266
2.20012
2.21729
2.23427
2.25108
2.26771
2.28417
2.30046
2.31657
2.33247
2.34809
2.36338
2.37848
2.39473
2.41098
2.4256
2.44202
2.45541
2.47061
2.48321
2.49684
2.50854
2.52243
2.53392
2.54558
2.55621
2.56623
2.57602
2.58476
2.59194
2.59701
2.60886
2.61183
2.62029
2.62085
2.62236
2.62321
2.62333
2.61948
2.61367
2.6057
2.59548
2.58297
2.56805
2.55036
2.52989
2.5066
2.4805
2.45161
2.42
2.38569
2.34894
2.30989
2.26875
2.2257
2.18099
2.13476
2.08727
2.03916
1.9903
1.94089
1.89163
1.84234
1.79321
1.74449
1.69643
1.64919
1.60289
1.55712
1.5119
1.46781
1.42516
1.38399
1.34397
1.30515
1.26775
1.23187
1.19744
1.16435
1.13265
1.10235
1.07341
1.04577
1.01942
0.994299
0.970357
0.947533
0.92572
0.904954
0.884769
0.866167
0.846034
0.831127
0.790609
0.0446007
0.0857441
0.113841
0.134735
0.152199
0.167637
0.181778
0.195122
0.208114
0.221192
0.234785
0.249286
0.265022
0.282226
0.301031
0.321477
0.343551
0.367203
0.392379
0.419028
0.44712
0.476632
0.50755
0.539849
0.5735
0.608454
0.644656
0.682023
0.72044
0.759777
0.799926
0.840771
0.882205
0.924115
0.966399
1.00896
1.0517
1.09454
1.13743
1.18029
1.22309
1.26579
1.30836
1.35078
1.39303
1.43511
1.477
1.5187
1.56022
1.60154
1.64267
1.68361
1.72435
1.7649
1.80526
1.84541
1.88535
1.92507
1.96457
2.00381
2.0428
2.08151
2.11991
2.15798
2.1957
2.23303
2.26995
2.30642
2.3424
2.37786
2.41275
2.44704
2.48069
2.51368
2.54596
2.57751
2.60829
2.63828
2.66746
2.69582
2.72334
2.75004
2.77593
2.80105
2.82542
2.84907
2.87199
2.89416
2.91569
2.9366
2.95693
2.97667
2.99583
3.01443
3.03247
3.04997
3.06693
3.08337
3.09938
3.11514
3.13043
3.14524
3.1599
3.17347
3.18749
3.20036
3.21314
3.22579
3.23821
3.2497
3.26084
3.2714
3.2812
3.29043
3.29898
3.30689
3.31372
3.32103
3.32558
3.3291
3.32973
3.32912
3.32753
3.32405
3.31776
3.30894
3.29743
3.28304
3.26565
3.24507
3.22115
3.1938
3.16299
3.12871
3.091
3.04993
3.00563
2.95828
2.90809
2.85527
2.80006
2.74269
2.68341
2.62252
2.56069
2.49846
2.43604
2.37365
2.31135
2.24937
2.18798
2.12742
2.0679
2.00957
1.95241
1.89652
1.84209
1.78931
1.73824
1.68846
1.63998
1.59319
1.54824
1.50501
1.46334
1.42334
1.38507
1.34843
1.3134
1.27996
1.24806
1.21763
1.18861
1.16093
1.13457
1.10931
1.0857
1.06198
1.04458
1.00883
0.0598926
0.117312
0.151605
0.176685
0.197603
0.216218
0.233481
0.250021
0.266351
0.28293
0.300188
0.318506
0.338205
0.359517
0.382584
0.407457
0.434128
0.462546
0.492648
0.524372
0.557672
0.592506
0.628845
0.666651
0.70588
0.746472
0.788347
0.831402
0.875532
0.920642
0.966626
1.01337
1.06078
1.10873
1.15712
1.20586
1.25487
1.30405
1.35335
1.40271
1.45209
1.50144
1.55074
1.59995
1.64907
1.69806
1.74692
1.79564
1.84422
1.89264
1.94091
1.98903
2.03698
2.08477
2.1324
2.17984
2.22711
2.27418
2.32104
2.36767
2.41406
2.46019
2.50601
2.55151
2.59666
2.6414
2.68571
2.72955
2.77286
2.8156
2.85773
2.89919
2.93993
2.9799
3.01906
3.05735
3.09473
3.13115
3.16659
3.201
3.23436
3.26667
3.29792
3.32811
3.35725
3.38533
3.41234
3.4383
3.46323
3.48718
3.51016
3.53218
3.55326
3.57342
3.59267
3.61105
3.62858
3.64531
3.66129
3.67662
3.69127
3.70531
3.71874
3.73144
3.74381
3.7554
3.76654
3.77731
3.78749
3.79699
3.80592
3.81415
3.82164
3.82848
3.83454
3.83969
3.84379
3.84722
3.84846
3.84804
3.84615
3.84273
3.8375
3.83007
3.82003
3.80725
3.79152
3.77265
3.75044
3.72472
3.69533
3.66218
3.62521
3.58441
3.53982
3.49151
3.43962
3.38434
3.32586
3.26442
3.20028
3.13374
3.06523
2.99518
2.92417
2.85271
2.7811
2.70956
2.63826
2.56744
2.49736
2.42829
2.36044
2.29398
2.22899
2.1656
2.10392
2.04407
1.98612
1.92996
1.87557
1.82307
1.77256
1.72389
1.67674
1.63142
1.58802
1.54637
1.50647
1.46835
1.43193
1.39716
1.36399
1.33237
1.30228
1.27362
1.24674
1.22078
1.20016
1.16866
0.0735104
0.147201
0.18819
0.217688
0.242114
0.263801
0.283923
0.303237
0.322324
0.341676
0.361736
0.382888
0.405453
0.429672
0.455702
0.483615
0.513425
0.545097
0.57858
0.613815
0.650748
0.689331
0.729519
0.771262
0.814506
0.859182
0.905209
0.952499
1.00096
1.05049
1.10098
1.15232
1.20442
1.25716
1.31045
1.3642
1.41831
1.47273
1.52738
1.58221
1.63716
1.6922
1.74728
1.80238
1.85746
1.9125
1.96749
2.02242
2.07727
2.13203
2.1867
2.24126
2.29573
2.35008
2.40432
2.45843
2.5124
2.56623
2.6199
2.67338
2.72666
2.77971
2.8325
2.88499
2.93715
2.98892
3.04027
3.09114
3.14147
3.19122
3.2403
3.28867
3.33626
3.383
3.42881
3.47365
3.51743
3.5601
3.6016
3.64189
3.68091
3.71863
3.75503
3.79009
3.82378
3.85608
3.88697
3.91647
3.94458
3.97131
3.9967
4.02075
4.04349
4.06494
4.08512
4.10409
4.12187
4.13852
4.15411
4.1687
4.18232
4.19503
4.20683
4.21775
4.2279
4.2372
4.24573
4.25355
4.26059
4.26691
4.27247
4.27711
4.28083
4.28395
4.28616
4.28692
4.28632
4.28497
4.28205
4.27768
4.27171
4.264
4.2543
4.24235
4.22782
4.21052
4.19019
4.16664
4.13962
4.10897
4.07451
4.03612
3.99374
3.94732
3.89691
3.84256
3.78442
3.72264
3.65742
3.58904
3.51784
3.44421
3.36861
3.29153
3.21347
3.13491
3.05619
2.97759
2.89932
2.82166
2.74488
2.66923
2.59494
2.52219
2.45111
2.38184
2.31448
2.24912
2.18582
2.12455
2.0653
2.00813
1.95307
1.90007
1.84901
1.79994
1.7529
1.70762
1.66414
1.62255
1.58275
1.5447
1.50838
1.47375
1.44082
1.40955
1.38019
1.35242
1.32903
1.29856
0.0853196
0.175133
0.222909
0.256916
0.284891
0.309611
0.332462
0.354314
0.37581
0.39748
0.419781
0.443108
0.467791
0.494089
0.522181
0.552175
0.584115
0.617997
0.653792
0.691454
0.730931
0.772173
0.815127
0.859735
0.905936
0.953658
1.00282
1.05334
1.10513
1.15809
1.21212
1.26711
1.32298
1.37962
1.43694
1.49486
1.5533
1.61218
1.67144
1.73101
1.79085
1.85089
1.91111
1.97146
2.0319
2.09242
2.15298
2.21357
2.27418
2.33479
2.39539
2.45597
2.51652
2.57704
2.63752
2.69794
2.75831
2.8186
2.8788
2.93888
2.99883
3.05861
3.11819
3.17752
3.23657
3.29529
3.3536
3.41147
3.46881
3.52555
3.58163
3.63696
3.69145
3.74503
3.79761
3.84909
3.8994
3.94844
3.99615
4.04244
4.08725
4.13052
4.1722
4.21224
4.2506
4.28724
4.32212
4.35525
4.3866
4.4162
4.44406
4.47018
4.49458
4.5173
4.53837
4.55783
4.57574
4.59214
4.60711
4.62071
4.63298
4.64398
4.65373
4.66227
4.66969
4.67601
4.68121
4.68533
4.68842
4.6907
4.69201
4.692
4.69066
4.68861
4.6855
4.68109
4.67552
4.66876
4.6606
4.65098
4.63974
4.62673
4.61174
4.59452
4.57483
4.55242
4.52706
4.4985
4.46653
4.43093
4.39153
4.34819
4.30081
4.24934
4.19378
4.1342
4.07068
4.0034
3.93261
3.85861
3.78179
3.70258
3.62143
3.53881
3.45521
3.37107
3.28677
3.2026
3.11883
3.03576
2.95365
2.87277
2.79334
2.71557
2.63961
2.56559
2.49362
2.42379
2.35615
2.2907
2.22745
2.16642
2.10761
2.051
1.99652
1.94419
1.894
1.84583
1.79966
1.75548
1.71309
1.67249
1.63372
1.59671
1.56152
1.52816
1.49681
1.46744
1.44179
1.41134
0.0955505
0.200667
0.254978
0.293406
0.324872
0.352553
0.378021
0.402244
0.42592
0.44961
0.473787
0.498859
0.525171
0.553001
0.582558
0.613982
0.647356
0.682713
0.720049
0.759338
0.800541
0.843609
0.888488
0.935119
0.983436
1.03337
1.08484
1.13777
1.19207
1.24765
1.30441
1.36228
1.42115
1.48094
1.54157
1.60294
1.66499
1.72765
1.79083
1.85449
1.91856
1.98299
2.04774
2.11276
2.178
2.24345
2.30907
2.37484
2.44074
2.50675
2.57285
2.63905
2.70532
2.77167
2.83807
2.90452
2.97101
3.03752
3.10404
3.17054
3.237
3.30339
3.36966
3.43577
3.50168
3.56731
3.63262
3.69752
3.76194
3.82578
3.88898
3.95141
4.01299
4.07361
4.13316
4.19152
4.24861
4.30429
4.35847
4.41105
4.46194
4.51105
4.5583
4.60362
4.64694
4.6882
4.72736
4.76437
4.79923
4.83193
4.86246
4.89084
4.91708
4.94121
4.96326
4.98328
5.00133
5.01745
5.03171
5.04418
5.05492
5.06396
5.07138
5.07718
5.08147
5.08442
5.0858
5.08563
5.08401
5.0813
5.07731
5.0719
5.06519
5.0573
5.04816
5.03772
5.02599
5.01295
4.99851
4.98259
4.96508
4.94582
4.92467
4.9014
4.8758
4.84764
4.8167
4.78273
4.7455
4.70479
4.66042
4.61221
4.56005
4.50387
4.44363
4.37938
4.31123
4.23935
4.16401
4.08554
4.00432
3.92076
3.83531
3.74842
3.66053
3.57209
3.48346
3.39497
3.30694
3.21964
3.13336
3.04836
2.96488
2.88312
2.80327
2.72544
2.64976
2.57631
2.50514
2.43628
2.36973
2.30551
2.24361
2.184
2.12665
2.07154
2.01866
1.96796
1.9194
1.87293
1.82844
1.78588
1.74522
1.70633
1.66934
1.63427
1.6013
1.57051
1.54297
1.51212
0.105544
0.223584
0.283821
0.326368
0.36113
0.391623
0.41957
0.446018
0.471709
0.497224
0.523052
0.549609
0.577253
0.606279
0.636922
0.669355
0.703694
0.740006
0.778319
0.81863
0.860917
0.905141
0.951253
0.999197
1.04891
1.10033
1.15337
1.20797
1.26404
1.32151
1.38028
1.44029
1.50144
1.56366
1.62686
1.69098
1.75594
1.82167
1.8881
1.95517
2.02282
2.09099
2.15964
2.22871
2.29817
2.36798
2.43811
2.50853
2.57922
2.65015
2.72132
2.7927
2.8643
2.93609
3.00807
3.08023
3.15256
3.22503
3.29764
3.37036
3.44316
3.51601
3.58887
3.66168
3.73439
3.80694
3.87925
3.95123
4.02281
4.09387
4.16432
4.23403
4.30289
4.37077
4.43755
4.50308
4.56723
4.62987
4.69086
4.75009
4.80741
4.86273
4.91592
4.9669
5.01556
5.06182
5.10563
5.14691
5.18562
5.22176
5.2553
5.28624
5.31459
5.34038
5.36363
5.38438
5.4027
5.41863
5.43224
5.4436
5.45276
5.45978
5.46476
5.46762
5.46848
5.46744
5.46456
5.45984
5.45338
5.4453
5.43558
5.42423
5.41131
5.39691
5.38103
5.36369
5.34492
5.32471
5.30304
5.27986
5.2551
5.22868
5.20045
5.17027
5.13796
5.10332
5.06615
5.0262
4.98327
4.93713
4.88758
4.83443
4.77756
4.71685
4.65229
4.58389
4.51178
4.43613
4.3572
4.27529
4.19074
4.10396
4.01536
3.92534
3.83433
3.74275
3.65096
3.55932
3.46815
3.37773
3.28835
3.20027
3.11374
3.02897
2.94613
2.86538
2.78681
2.71052
2.63657
2.56499
2.4958
2.42901
2.3646
2.30255
2.24284
2.18543
2.13032
2.07748
2.02686
1.97842
1.93207
1.88777
1.84547
1.80512
1.76673
1.73029
1.69598
1.66394
1.63479
1.60333
0.116924
0.243871
0.309124
0.355273
0.392988
0.42605
0.45629
0.484811
0.51238
0.539588
0.566928
0.594822
0.623632
0.653664
0.68517
0.718348
0.753342
0.79025
0.829129
0.87
0.912861
0.957689
1.00445
1.05309
1.10356
1.1558
1.20975
1.26533
1.32248
1.38113
1.44121
1.50264
1.56535
1.62927
1.69434
1.76047
1.82762
1.8957
1.96466
2.03443
2.10496
2.17619
2.24806
2.32054
2.39358
2.46713
2.54117
2.61566
2.69058
2.76591
2.84164
2.91773
2.99419
3.07101
3.14817
3.22567
3.30349
3.38162
3.46004
3.53872
3.61765
3.69678
3.77606
3.85545
3.93489
4.01429
4.09358
4.17267
4.25145
4.32981
4.40763
4.48477
4.56109
4.63645
4.71069
4.78365
4.85517
4.92509
4.99323
5.05946
5.1236
5.18551
5.24506
5.3021
5.35653
5.40822
5.45708
5.50304
5.54602
5.58599
5.62293
5.6568
5.68761
5.71536
5.7401
5.76185
5.78067
5.79661
5.80974
5.82012
5.82781
5.83282
5.83516
5.83505
5.83248
5.82756
5.82033
5.81083
5.79917
5.78542
5.76964
5.75188
5.73221
5.71072
5.68747
5.66252
5.63593
5.60774
5.57797
5.54663
5.51371
5.47918
5.44295
5.40496
5.36505
5.3231
5.27892
5.23232
5.1831
5.13106
5.07598
5.01769
4.95603
4.89093
4.82233
4.75027
4.67483
4.59616
4.51449
4.43007
4.34321
4.25426
4.16358
4.07155
3.97855
3.88495
3.79114
3.69748
3.60428
3.51183
3.42041
3.33028
3.24168
3.15484
3.06993
2.9871
2.90647
2.82812
2.75212
2.67852
2.60733
2.53857
2.47222
2.40827
2.34671
2.28748
2.23059
2.17601
2.1237
2.07362
2.02571
1.97992
1.93621
1.89454
1.85494
1.81742
1.78204
1.74892
1.7184
1.68626
0.127078
0.260917
0.330403
0.379635
0.419927
0.455274
0.487591
0.518017
0.54733
0.576122
0.604882
0.634024
0.663908
0.694842
0.727087
0.760853
0.796305
0.833563
0.872709
0.913788
0.95682
1.0018
1.04871
1.09752
1.14818
1.20065
1.25488
1.31081
1.36838
1.42753
1.48822
1.55037
1.61393
1.67884
1.74503
1.81245
1.88104
1.95074
2.02149
2.09324
2.16592
2.23948
2.31388
2.38907
2.465
2.54164
2.61895
2.69689
2.77545
2.85459
2.93431
3.01459
3.09541
3.17677
3.25866
3.34107
3.42399
3.5074
3.5913
3.67564
3.76042
3.84558
3.93108
4.01687
4.10288
4.18904
4.27524
4.36139
4.44737
4.53305
4.6183
4.70297
4.78689
4.86989
4.95179
5.03241
5.11156
5.18903
5.26464
5.3382
5.40951
5.47839
5.54467
5.60819
5.66878
5.72632
5.78066
5.83171
5.87938
5.9236
5.96432
6.0015
6.03514
6.06523
6.09178
6.11484
6.13445
6.15066
6.16353
6.17315
6.17947
6.18255
6.1826
6.17963
6.17371
6.16491
6.15329
6.13893
6.12192
6.10233
6.08025
6.05576
6.02895
5.99994
5.96881
5.93567
5.9006
5.86371
5.82506
5.78473
5.74276
5.6992
5.65405
5.60729
5.55886
5.50869
5.45666
5.40262
5.34642
5.28791
5.22686
5.16312
5.09658
5.02713
4.95474
4.8794
4.80117
4.72015
4.63651
4.55045
4.46222
4.37211
4.28041
4.18745
4.09357
3.9991
3.90439
3.80984
3.71574
3.62236
3.52998
3.43883
3.34916
3.26121
3.17515
3.09114
3.00928
2.92966
2.85237
2.77744
2.70492
2.63481
2.56711
2.50181
2.4389
2.37834
2.32013
2.26422
2.21061
2.15925
2.11009
2.06309
2.01822
1.97545
1.93481
1.89633
1.86004
1.82602
1.79435
1.76156
0.135597
0.274458
0.347371
0.399158
0.441628
0.478952
0.513104
0.545243
0.57615
0.606412
0.636502
0.666823
0.69772
0.729494
0.762403
0.796661
0.832444
0.869885
0.909085
0.95011
0.993
1.03777
1.08442
1.13294
1.1833
1.23548
1.28942
1.34511
1.40248
1.46152
1.52216
1.58436
1.64808
1.71327
1.77987
1.84786
1.91716
1.98775
2.05955
2.13253
2.20663
2.2818
2.35801
2.4352
2.51333
2.59236
2.67227
2.75302
2.83458
2.91693
3.00006
3.08395
3.16859
3.25397
3.34008
3.42694
3.51451
3.60279
3.69177
3.78142
3.87171
3.9626
4.05405
4.146
4.23838
4.33109
4.42406
4.51716
4.61026
4.70323
4.79591
4.88812
4.97969
5.07043
5.16012
5.24856
5.33551
5.42076
5.50408
5.58524
5.66401
5.74018
5.81353
5.88386
5.95098
6.01473
6.07493
6.13145
6.18418
6.23302
6.2779
6.31877
6.35559
6.38835
6.41706
6.44175
6.46245
6.4792
6.49208
6.50114
6.50631
6.50785
6.50576
6.5001
6.49095
6.47836
6.46243
6.44322
6.42082
6.39532
6.36681
6.3354
6.3012
6.26434
6.22493
6.18312
6.13905
6.09283
6.04462
5.99454
5.94272
5.88928
5.8343
5.77785
5.71996
5.66065
5.59987
5.53755
5.47362
5.40801
5.34051
5.271
5.19939
5.12559
5.04955
4.97124
4.89066
4.80787
4.72296
4.63607
4.54737
4.45706
4.36539
4.27259
4.17895
4.08473
3.99026
3.89598
3.80213
3.70896
3.61671
3.52561
3.4359
3.34783
3.26159
3.1773
3.09509
3.01503
2.93722
2.86172
2.78855
2.71775
2.64931
2.58323
2.5195
2.45812
2.39904
2.34226
2.28775
2.23547
2.1854
2.1375
2.09175
2.04813
2.00665
1.96736
1.93029
1.89549
1.86287
1.82952
0.142368
0.284444
0.359959
0.413754
0.457983
0.496942
0.532651
0.566279
0.598603
0.630193
0.661505
0.69292
0.724763
0.75732
0.790835
0.825519
0.861545
0.899055
0.938159
0.978938
1.02145
1.06573
1.1118
1.15966
1.20931
1.26074
1.31393
1.36885
1.42549
1.48383
1.54383
1.60547
1.66872
1.73353
1.79988
1.86774
1.93707
2.00783
2.07998
2.15348
2.22829
2.30437
2.38168
2.46017
2.53982
2.62058
2.70243
2.78533
2.86927
2.95422
3.04016
3.12708
3.21497
3.30382
3.39364
3.48443
3.57619
3.66889
3.76251
3.85705
3.95247
4.04873
4.14579
4.24359
4.34205
4.44108
4.54058
4.64044
4.7405
4.84061
4.94061
5.04031
5.1395
5.23796
5.33547
5.43177
5.52663
5.61977
5.71094
5.79987
5.88629
5.96996
6.05061
6.12802
6.20194
6.27218
6.33853
6.40083
6.45892
6.5127
6.56205
6.6069
6.64721
6.68294
6.7141
6.74068
6.76274
6.7803
6.79342
6.80215
6.80653
6.8067
6.80268
6.79452
6.7823
6.76607
6.74593
6.72193
6.69417
6.66275
6.62776
6.58932
6.54756
6.50262
6.45466
6.40382
6.3503
6.29426
6.23591
6.17544
6.11304
6.04893
5.98329
5.91627
5.848
5.77866
5.70826
5.63683
5.56436
5.49061
5.41567
5.33962
5.26242
5.18399
5.10427
5.02318
4.94067
4.85673
4.77134
4.68457
4.59646
4.50714
4.41673
4.32541
4.23335
4.14077
4.04788
3.95507
3.86264
3.77084
3.67986
3.58991
3.50121
3.41407
3.32863
3.24504
3.16337
3.08374
3.00623
2.93092
2.85785
2.78704
2.7185
2.65224
2.58827
2.52657
2.46713
2.40993
2.35494
2.30216
2.25154
2.20307
2.15673
2.11252
2.07045
2.03055
1.99284
1.95738
1.92398
1.89019
0.147352
0.290927
0.368231
0.423479
0.46903
0.509261
0.546221
0.581078
0.6146
0.647339
0.679727
0.712118
0.744816
0.77808
0.812137
0.847183
0.883385
0.92088
0.959784
1.00019
1.04216
1.08575
1.13099
1.17792
1.22656
1.27689
1.32893
1.38268
1.43813
1.49529
1.55417
1.61475
1.67697
1.74083
1.80632
1.87344
1.94216
2.01246
2.08432
2.1577
2.23257
2.30891
2.38667
2.46583
2.54636
2.62822
2.71139
2.79584
2.88156
2.96852
3.05671
3.14611
3.23669
3.32844
3.42144
3.51567
3.61111
3.70775
3.80556
3.90454
4.00465
4.10587
4.20814
4.31141
4.41559
4.5206
4.62632
4.73263
4.83938
4.9464
5.05351
5.16049
5.26713
5.37318
5.4784
5.58249
5.6852
5.78621
5.88523
5.98196
6.0761
6.16734
6.25541
6.34
6.42087
6.49776
6.57043
6.63869
6.70234
6.76124
6.81527
6.86433
6.90833
6.94724
6.98104
7.00974
7.03335
7.05191
7.06547
7.07409
7.07783
7.07685
7.07109
7.0606
7.04545
7.02572
7.00146
6.97275
6.93968
6.90234
6.86084
6.8153
6.76586
6.71269
6.65594
6.5958
6.53248
6.4662
6.39722
6.3258
6.2522
6.17671
6.09967
6.0213
5.94181
5.86112
5.77957
5.69754
5.6153
5.53313
5.45121
5.36915
5.28687
5.20431
5.12138
5.03799
4.95401
4.86937
4.78398
4.69781
4.61084
4.52306
4.43454
4.34535
4.2556
4.16542
4.07502
3.98505
3.89548
3.80644
3.7181
3.63061
3.54417
3.45907
3.37549
3.29357
3.21341
3.1351
3.05874
2.98443
2.91221
2.84212
2.77416
2.70836
2.64473
2.58328
2.524
2.46686
2.41185
2.35897
2.3082
2.25952
2.21293
2.16842
2.12601
2.08572
2.04757
2.0116
1.97758
1.9435
0.150596
0.294087
0.372374
0.428495
0.474912
0.516035
0.553913
0.58971
0.624176
0.657845
0.691123
0.724338
0.757763
0.791633
0.826151
0.861491
0.897807
0.935227
0.973862
1.01381
1.05513
1.09791
1.14219
1.18802
1.23544
1.28449
1.33512
1.38738
1.4413
1.49692
1.55428
1.61344
1.67428
1.73682
1.80106
1.86702
1.93469
2.00406
2.07512
2.14785
2.22225
2.29828
2.37593
2.45517
2.53598
2.61835
2.70224
2.78765
2.87455
2.96293
3.05278
3.14409
3.23684
3.33102
3.42673
3.52392
3.62258
3.72268
3.82421
3.92712
4.03144
4.13715
4.24418
4.35246
4.46191
4.57245
4.68397
4.79631
4.90934
5.02288
5.13672
5.25064
5.3644
5.47774
5.59037
5.702
5.81232
5.921
6.0277
6.13208
6.2338
6.33252
6.42792
6.51965
6.60743
6.69095
6.76996
6.84419
6.91345
6.97754
7.0363
7.08962
7.13739
7.17956
7.2161
7.24699
7.27224
7.29189
7.30599
7.31459
7.31776
7.31577
7.30839
7.29567
7.27769
7.25451
7.22619
7.1928
7.15442
7.11115
7.06308
7.01035
6.95311
6.89153
6.82579
6.7561
6.68269
6.60581
6.52578
6.44296
6.35765
6.27019
6.18045
6.08925
5.99716
5.90495
5.81308
5.72143
5.63037
5.54039
5.45068
5.36176
5.27371
5.18654
5.10015
5.01442
4.92919
4.84429
4.75955
4.67481
4.58995
4.50483
4.4194
4.33363
4.24752
4.1611
4.07437
3.98792
3.90181
3.81616
3.73112
3.6468
3.56329
3.48137
3.40084
3.32177
3.24422
3.16829
3.094
3.02154
2.95098
2.88236
2.81569
2.751
2.68835
2.62773
2.56915
2.51258
2.45803
2.4055
2.35499
2.30648
2.25997
2.21548
2.17301
2.13259
2.09422
2.05792
2.02348
1.98929
0.152002
0.293813
0.372328
0.428848
0.475759
0.517426
0.555899
0.592334
0.627472
0.661826
0.69578
0.729636
0.763638
0.797993
0.832876
0.86844
0.904818
0.942124
0.98046
1.01991
1.06057
1.10249
1.14574
1.1904
1.23652
1.28419
1.33339
1.38415
1.43651
1.4905
1.54614
1.60341
1.66238
1.7231
1.78562
1.84994
1.91609
1.98409
2.05392
2.1256
2.19912
2.27447
2.35164
2.43062
2.51139
2.59393
2.67824
2.76429
2.85208
2.94159
3.0328
3.12571
3.22031
3.31656
3.41449
3.51412
3.61545
3.71847
3.82317
3.92952
4.03758
4.14727
4.25852
4.37124
4.4854
4.60089
4.71761
4.83542
4.95416
5.07363
5.19363
5.31392
5.43426
5.55435
5.67389
5.79257
5.91003
6.02593
6.13988
6.25151
6.36045
6.46631
6.56872
6.66731
6.76173
6.85165
6.93677
7.0168
7.09148
7.1606
7.22397
7.28144
7.33287
7.37821
7.41738
7.45038
7.47721
7.49789
7.51246
7.521
7.52346
7.52052
7.51151
7.49655
7.47571
7.44904
7.4166
7.37845
7.33468
7.28536
7.23061
7.17055
7.10534
7.03518
6.96025
6.88077
6.79702
6.70924
6.61744
6.52222
6.42412
6.32364
6.22208
6.11933
6.01603
5.91307
5.80985
5.7073
5.60597
5.50627
5.40829
5.31226
5.21836
5.1266
5.03692
4.94917
4.86312
4.77854
4.69515
4.61266
4.53082
4.44936
4.3681
4.28688
4.20559
4.1242
4.04274
3.96138
3.88026
3.79947
3.71915
3.63939
3.56024
3.48218
3.40529
3.32963
3.2553
3.18237
3.11092
3.04124
2.97326
2.90698
2.84241
2.77956
2.71853
2.65936
2.60205
2.5466
2.493
2.44129
2.39146
2.34352
2.29748
2.25333
2.2111
2.17082
2.13247
2.09605
2.06143
2.02735
0.152009
0.291217
0.369278
0.42567
0.472529
0.514245
0.552862
0.589526
0.62496
0.659659
0.693987
0.72822
0.762578
0.797242
0.832363
0.868071
0.904477
0.941682
0.979773
1.01883
1.05893
1.10014
1.14253
1.18615
1.23106
1.27727
1.3248
1.37377
1.42426
1.47632
1.53004
1.58546
1.64263
1.7016
1.76239
1.82507
1.88967
1.9562
2.02471
2.0952
2.16769
2.24218
2.31868
2.39718
2.47767
2.56016
2.64462
2.73105
2.81943
2.90975
3.00201
3.09619
3.19229
3.29029
3.39021
3.49206
3.59584
3.70154
3.80912
3.91857
4.02985
4.14295
4.25783
4.37442
4.49268
4.61249
4.73375
4.85633
4.98006
5.10475
5.23019
5.35614
5.48233
5.60846
5.73422
5.85925
5.98321
6.10568
6.22628
6.34459
6.46019
6.57265
6.68157
6.78654
6.88716
6.98307
7.07391
7.15935
7.23912
7.31294
7.3806
7.4419
7.49671
7.54491
7.58644
7.62127
7.64937
7.67078
7.68552
7.69366
7.69527
7.6911
7.68019
7.66271
7.63872
7.60825
7.57136
7.52811
7.47858
7.42284
7.36101
7.29322
7.21959
7.14017
7.0552
6.96497
6.86983
6.77019
6.66694
6.56015
6.45044
6.33875
6.2246
6.10908
5.993
5.87709
5.76183
5.64792
5.53603
5.42671
5.32031
5.21716
5.1175
5.02139
4.92877
4.83949
4.75325
4.66975
4.58857
4.50932
4.43155
4.3549
4.279
4.20358
4.1284
4.05334
3.97831
3.90337
3.82856
3.75395
3.67963
3.60569
3.53224
3.4595
3.38759
3.31664
3.24671
3.17789
3.11018
3.04388
2.97902
2.91562
2.8537
2.79329
2.73461
2.67758
2.6222
2.56846
2.51636
2.46595
2.41726
2.37031
2.3251
2.28165
2.23997
2.2001
2.16201
2.12576
2.09121
2.05747
0.150571
0.285268
0.362122
0.417884
0.464359
0.505849
0.544382
0.581085
0.616658
0.651577
0.68618
0.720718
0.755387
0.790338
0.825698
0.861568
0.898039
0.935189
0.973092
1.01182
1.05143
1.09201
1.13361
1.1763
1.22015
1.26524
1.31165
1.35942
1.40864
1.45938
1.51172
1.56574
1.62151
1.67909
1.73854
1.79991
1.86328
1.92867
1.99614
2.0657
2.1374
2.21124
2.28725
2.36542
2.44576
2.52826
2.61293
2.69974
2.78869
2.87976
2.97294
3.06822
3.16557
3.26501
3.36651
3.47009
3.57572
3.68341
3.79314
3.90487
4.01859
4.13427
4.25189
4.37137
4.4926
4.61553
4.74006
4.86608
4.99342
5.12191
5.25133
5.38145
5.51199
5.64266
5.77314
5.90306
6.03204
6.15967
6.28551
6.40913
6.53006
6.64786
6.76207
6.87224
6.97794
7.07875
7.1743
7.26421
7.34814
7.42581
7.49696
7.56135
7.61881
7.66921
7.71246
7.74851
7.77732
7.79891
7.81329
7.8205
7.82095
7.81516
7.80197
7.78161
7.7541
7.71949
7.6778
7.62906
7.57332
7.51069
7.44125
7.36515
7.28258
7.19395
7.09942
6.99922
6.89377
6.78376
6.6689
6.55002
6.4278
6.30294
6.17592
6.0476
5.91884
5.79054
5.66349
5.53853
5.41647
5.298
5.1837
5.074
4.96922
4.86947
4.77472
4.68476
4.59927
4.51783
4.43991