/*--------------------------------*- C++ -*----------------------------------*\
| =========                 |                                                 |
| \\      /  F ield         | OpenFOAM: The Open Source CFD Toolbox           |
|  \\    /   O peration     | Version:  2312                                  |
|   \\  /    A nd           | Website:  www.openfoam.com                      |
|    \\/     M anipulation  |                                                 |
\*---------------------------------------------------------------------------*/
FoamFile
{
    version     2.0;
    format      ascii;
    arch        "LSB;label=32;scalar=64";
    class       volScalarField;
    location    "100";
    object      nut;
}
// * * * * * * * * * * * * * * * * * * * * * * * * * * * * * * * * * * * * * //

dimensions      [0 2 -1 0 0 0 0];

internalField   nonuniform List<scalar> 
12225
(
2.70739e-05
3.55749e-05
4.05232e-05
4.3193e-05
4.44521e-05
4.49659e-05
4.49131e-05
4.48748e-05
4.45067e-05
4.41902e-05
4.3858e-05
4.35322e-05
4.32375e-05
4.29593e-05
4.2727e-05
4.24957e-05
4.23372e-05
4.2121e-05
0.000213068
8.46253e-05
5.59043e-05
4.40696e-05
3.83664e-05
3.53678e-05
3.38374e-05
3.30917e-05
3.2844e-05
3.28826e-05
3.32068e-05
3.36067e-05
3.42229e-05
3.47956e-05
3.55822e-05
3.62136e-05
3.714e-05
3.76286e-05
0.000657687
0.000306296
0.000194169
0.00014204
0.000113268
9.45162e-05
8.20497e-05
7.33446e-05
6.68264e-05
6.19977e-05
5.80747e-05
5.51538e-05
5.25772e-05
5.0764e-05
4.89491e-05
4.79183e-05
4.64197e-05
4.54878e-05
0.000863449
0.000609381
0.000451859
0.000350683
0.000289436
0.000246496
0.000216752
0.000194345
0.000177829
0.000164375
0.000154123
0.000145181
0.000138296
0.00013188
0.000127018
0.000122105
0.000118389
0.000114067
0.000877548
0.000776458
0.000691098
0.000591778
0.000517463
0.000458103
0.000413566
0.000377309
0.000349763
0.000326095
0.000308014
0.00029148
0.000279071
0.000266836
0.000258072
0.000248618
0.000242075
0.000234387
0.000858437
0.000835318
0.000807384
0.000753039
0.000699484
0.000648283
0.000604909
0.000565954
0.0005343
0.000505498
0.000482627
0.000460913
0.000444268
0.000427339
0.000415207
0.000401531
0.000392653
0.000380942
0.000854263
0.000849551
0.000840727
0.000823059
0.000798634
0.000768496
0.00073923
0.000709623
0.000683437
0.000657836
0.00063633
0.00061496
0.000597883
0.000580018
0.000566774
0.000551568
0.000541471
0.000527657
0.000852391
0.000851592
0.000849794
0.000844536
0.000835953
0.000824541
0.000810206
0.000793508
0.000777296
0.000760088
0.000744651
0.000728406
0.000714706
0.000699939
0.000688369
0.000675036
0.000665591
0.000652809
0.000851903
0.00085148
0.000851079
0.000849884
0.000847548
0.000843624
0.000838606
0.000831293
0.000823676
0.000815032
0.000806353
0.000796622
0.000787885
0.000778181
0.000769976
0.00076069
0.000753196
0.000744065
0.000851815
0.000851373
0.000851074
0.00085061
0.000850036
0.000848812
0.000847337
0.000844867
0.000842012
0.000838325
0.000834531
0.0008299
0.000825472
0.000820336
0.000815646
0.000810385
0.000805666
0.000799892
0.000851799
0.000851357
0.000851021
0.000850624
0.000850326
0.000849826
0.000849341
0.000848523
0.000847612
0.000846271
0.000844888
0.000843028
0.000841226
0.000838915
0.000836859
0.000834155
0.000832103
0.00082892
0.000851792
0.000851359
0.000851001
0.000850611
0.000850307
0.00084994
0.000849633
0.000849214
0.00084882
0.000848241
0.000847685
0.000846887
0.000846153
0.000845111
0.000844236
0.000842944
0.000842009
0.000840465
0.000851787
0.000851362
0.000850989
0.000850608
0.000850281
0.000849937
0.000849647
0.000849322
0.000849044
0.000848703
0.000848405
0.000848009
0.000847669
0.000847192
0.0008468
0.000846228
0.000845791
0.000845123
0.000851783
0.000851364
0.00085098
0.000850605
0.000850264
0.000849927
0.000849623
0.000849318
0.000849046
0.000848763
0.000848512
0.000848239
0.000847997
0.000847723
0.000847482
0.000847196
0.000846948
0.000846648
0.000851781
0.000851364
0.000850974
0.0008506
0.000850252
0.000849917
0.000849604
0.000849302
0.000849021
0.000848747
0.000848493
0.000848243
0.00084801
0.000847779
0.000847563
0.000847347
0.000847144
0.00084694
0.00085178
0.000851363
0.00085097
0.000850596
0.000850243
0.000849907
0.00084959
0.000849287
0.000849
0.000848726
0.000848466
0.000848217
0.00084798
0.000847752
0.000847536
0.000847327
0.000847128
0.000846936
0.000851779
0.000851362
0.000850967
0.000850592
0.000850237
0.000849899
0.000849579
0.000849274
0.000848985
0.000848708
0.000848445
0.000848194
0.000847954
0.000847724
0.000847504
0.000847294
0.000847092
0.000846899
0.000851779
0.000851362
0.000850965
0.00085059
0.000850233
0.000849894
0.000849572
0.000849266
0.000848974
0.000848696
0.00084843
0.000848177
0.000847935
0.000847703
0.000847481
0.000847269
0.000847065
0.000846871
0.000851779
0.000851362
0.000850965
0.000850589
0.000850232
0.000849892
0.000849569
0.000849262
0.000848969
0.00084869
0.000848423
0.000848169
0.000847925
0.000847692
0.000847469
0.000847256
0.000847051
0.000846856
0.000851779
0.000851363
0.000850966
0.000850591
0.000850234
0.000849895
0.000849572
0.000849265
0.000848973
0.000848694
0.000848427
0.000848172
0.000847927
0.000847694
0.00084747
0.000847255
0.000847048
0.000846851
0.000851779
0.000851364
0.000850968
0.000850595
0.000850238
0.000849901
0.000849578
0.000849273
0.000848977
0.000848698
0.000848424
0.000848165
0.000847907
0.000847663
0.000847416
0.000847183
0.000846942
0.000846718
0.000851778
0.000851368
0.000850969
0.000850603
0.000850243
0.00084991
0.000849572
0.000849253
0.000848914
0.000848585
0.00084822
0.000847861
0.000847452
0.000847054
0.000846589
0.000846153
0.000845629
0.000845162
0.000851779
0.000851381
0.000850972
0.000850624
0.000850209
0.000849788
0.000849232
0.000848613
0.0008478
0.000846891
0.000845762
0.000844552
0.000843115
0.000841651
0.000839944
0.000838315
0.000836365
0.000834676
0.000851856
0.000851467
0.000850932
0.000850394
0.000849126
0.000847456
0.000844944
0.000841933
0.000838064
0.000833833
0.000828944
0.000823904
0.000818425
0.000812958
0.000807231
0.000801676
0.000795779
0.000790712
0.000852785
0.000851379
0.00084919
0.000845092
0.00083688
0.000827809
0.000815737
0.000802802
0.000788346
0.00077433
0.000759615
0.000746019
0.000732051
0.000719605
0.000706734
0.00069575
0.00068399
0.000674594
0.000858212
0.000842298
0.000828961
0.000803005
0.000769247
0.00073545
0.000700771
0.000669657
0.00063944
0.000613521
0.00058853
0.000567649
0.000547212
0.000530545
0.000513748
0.000500485
0.000486443
0.000475942
0.000864341
0.000785611
0.000712708
0.000628284
0.000558257
0.000503051
0.000455703
0.000418808
0.000386559
0.000361516
0.000338682
0.000321135
0.000304321
0.000291669
0.000278811
0.000269442
0.000259268
0.000252201
0.000775968
0.000540051
0.000397932
0.000312941
0.000258133
0.000219603
0.000190474
0.000169527
0.000152514
0.000139948
0.000129053
0.000120969
0.000113482
0.000108025
0.000102587
9.87609e-05
9.4642e-05
9.18672e-05
0.000323584
0.000164836
0.00011141
8.60702e-05
7.08189e-05
6.13492e-05
5.50117e-05
5.08807e-05
4.79477e-05
4.60054e-05
4.45863e-05
4.36843e-05
4.3036e-05
4.26916e-05
4.24522e-05
4.24361e-05
4.24325e-05
4.26188e-05
3.26575e-05
3.90517e-05
4.38921e-05
4.69712e-05
4.93653e-05
5.11689e-05
5.25333e-05
5.34572e-05
5.41117e-05
5.44591e-05
5.46864e-05
5.46905e-05
5.46467e-05
5.45411e-05
5.43669e-05
5.4158e-05
5.39317e-05
5.36934e-05
5.7781e-06
1.74064e-05
2.11834e-05
2.39001e-05
2.588e-05
2.73625e-05
2.84766e-05
2.94148e-05
3.02663e-05
3.10171e-05
3.17307e-05
3.24842e-05
3.33172e-05
3.42972e-05
3.54709e-05
3.68427e-05
3.82846e-05
3.97974e-05
4.13604e-05
4.2999e-05
4.4694e-05
4.64719e-05
4.83186e-05
5.02427e-05
5.22019e-05
5.42092e-05
5.62376e-05
5.82875e-05
6.03316e-05
6.23764e-05
6.43963e-05
6.63972e-05
6.83599e-05
7.02898e-05
7.21731e-05
7.40159e-05
7.5808e-05
7.75565e-05
7.92542e-05
8.09085e-05
8.25138e-05
8.40775e-05
8.55955e-05
8.70746e-05
8.85117e-05
8.99133e-05
9.12765e-05
9.26075e-05
9.3905e-05
9.51746e-05
9.64136e-05
9.76273e-05
9.88129e-05
9.99749e-05
0.000101111
0.000102225
0.000103313
0.000104381
0.000105424
0.000106447
0.000107445
0.000108423
0.000109377
0.00011031
0.000111219
0.000112108
0.000112973
0.000113817
0.000114636
0.00011543
0.000116197
0.00011694
0.000117654
0.000118343
0.000119003
0.000119639
0.000120245
0.000120827
0.000121382
0.000121916
0.000122427
0.000122923
0.000123407
0.000123878
0.000124317
0.000124674
0.00012503
0.000125468
0.000125829
0.000126195
0.000126564
0.000126917
0.00012727
0.000127596
0.000127908
0.000128146
0.00012826
0.000128087
0.000126924
0.000128711
0.000131342
0.000128408
0.000131775
0.000129286
0.000131685
0.0001297
0.0001319
0.00012987
0.000133085
0.000132693
0.000132841
0.00013251
0.000130891
0.000131898
0.000133164
0.00013097
0.00013189
0.000133399
0.000132572
0.000131525
0.000132466
0.000131937
0.000131904
0.000131652
0.000131329
0.00013096
0.000130537
0.000130063
0.000129543
0.000128967
0.000128324
0.000127617
0.00012684
0.000125994
0.000125091
0.000124132
0.000123081
0.000121956
0.000120754
0.000119475
0.000118133
0.000116739
0.000115207
0.000113635
0.000112232
0.000109953
0.000107679
0.000106423
0.000105297
0.000104162
0.000102999
0.000101823
0.000100616
9.9429e-05
9.82583e-05
9.7032e-05
9.5766e-05
9.4572e-05
9.34019e-05
9.22075e-05
9.10051e-05
8.98068e-05
8.86311e-05
8.74856e-05
8.63629e-05
8.52625e-05
8.41901e-05
8.31473e-05
8.21322e-05
8.11467e-05
8.01903e-05
7.92618e-05
7.83608e-05
7.74777e-05
7.66278e-05
7.57534e-05
7.49334e-05
7.40623e-05
7.26433e-05
7.10433e-05
9.71838e-06
5.93579e-05
0.000121075
0.000168164
0.000200631
0.000223149
0.000238439
0.00024794
0.000252521
0.00025487
0.000256577
0.000258518
0.000261066
0.000264302
0.000268084
0.000272187
0.000276591
0.00028153
0.000287096
0.000293369
0.000300388
0.000308215
0.000316876
0.000326425
0.000336874
0.000348224
0.00036043
0.00037347
0.000387257
0.000401791
0.000416953
0.000432653
0.000448771
0.000465216
0.000481868
0.00049864
0.000515421
0.00053214
0.00054872
0.000565117
0.00058127
0.000597157
0.000612737
0.000628001
0.000642922
0.000657498
0.000671703
0.000685528
0.000699023
0.000712228
0.00072514
0.000737782
0.000750154
0.000762276
0.000774148
0.000785786
0.000797188
0.000808365
0.000819312
0.00083004
0.000840539
0.000850815
0.00086086
0.000870677
0.00088026
0.000889611
0.000898731
0.000907628
0.000916296
0.000924659
0.000932708
0.000940428
0.000947814
0.000954854
0.000961545
0.000967876
0.000973852
0.000979465
0.000984728
0.000989639
0.000994211
0.000998429
0.00100229
0.00100575
0.00100883
0.00101164
0.00101447
0.00101715
0.0010195
0.00102193
0.00102435
0.00102685
0.0010295
0.00103233
0.00103548
0.00103898
0.00104306
0.00104786
0.00105369
0.00106128
0.00106566
0.00106805
0.00107991
0.00107592
0.00108597
0.00108445
0.0010916
0.00109368
0.0011011
0.00110507
0.00110991
0.00111561
0.00112135
0.00112689
0.00112643
0.00113177
0.00113509
0.00113998
0.00114332
0.00114951
0.0011494
0.00115413
0.00115885
0.00116464
0.00116812
0.00117122
0.00117375
0.00117567
0.00117702
0.00117776
0.00117755
0.0011765
0.00117454
0.00117165
0.00116785
0.00116324
0.0011576
0.00115106
0.00114363
0.00113533
0.00112621
0.00111641
0.00110573
0.00109411
0.00108287
0.00106956
0.0010517
0.00103239
0.0010124
0.000992085
0.000971641
0.000951237
0.000930929
0.000910826
0.000890913
0.000871355
0.000852026
0.000833319
0.000815378
0.000797803
0.000780567
0.000763798
0.000747564
0.000731818
0.000716468
0.000701561
0.000687136
0.000673164
0.000659628
0.000646543
0.000633872
0.000621622
0.000609674
0.000598192
0.000586652
0.000575887
0.000563978
0.00055333
0.000533595
0.000482188
1.22773e-05
8.78907e-05
0.000184107
0.000264601
0.000327622
0.000375424
0.000411047
0.000437142
0.000455829
0.000469252
0.00047929
0.000487452
0.000494873
0.000502356
0.000510439
0.000519479
0.000529743
0.000541439
0.000554683
0.000569541
0.000586045
0.000604218
0.000624071
0.000645605
0.000668785
0.000693528
0.000719684
0.00074774
0.000777771
0.000808976
0.000841034
0.000873738
0.000906914
0.000940411
0.000974068
0.00100773
0.00104124
0.00107444
0.00110726
0.00113964
0.00117151
0.00120284
0.00123359
0.00126374
0.00129328
0.0013222
0.00135051
0.00137821
0.00140534
0.00143193
0.00145799
0.00148353
0.00150859
0.00153317
0.00155729
0.00158096
0.0016042
0.00162701
0.0016494
0.00167138
0.00169293
0.00171407
0.00173479
0.00175507
0.00177492
0.00179433
0.00181328
0.00183176
0.00184976
0.00186723
0.00188417
0.00190054
0.00191634
0.00193155
0.00194614
0.00196011
0.00197345
0.00198613
0.00199814
0.00200949
0.00202015
0.00203013
0.00203943
0.00204809
0.00205617
0.00206381
0.00207106
0.00207787
0.0020843
0.00209054
0.00209662
0.00210263
0.00210867
0.00211483
0.00212121
0.00212789
0.00213499
0.00214248
0.00215023
0.00215774
0.0021636
0.00216972
0.0021779
0.00218054
0.00218883
0.00219261
0.00219972
0.00220616
0.00221409
0.00222063
0.0022278
0.00223557
0.0022428
0.00224911
0.00225308
0.00226002
0.00226644
0.00227462
0.00228204
0.00228748
0.00229077
0.00229571
0.002301
0.0023062
0.0023098
0.00231235
0.00231374
0.00231385
0.0023126
0.00230991
0.0023056
0.00229964
0.00229198
0.00228255
0.00227137
0.00225848
0.0022438
0.00222738
0.00220928
0.00218957
0.00216833
0.00214571
0.00212168
0.00209624
0.00207016
0.00204232
0.00201085
0.00197722
0.00194239
0.00190694
0.0018712
0.00183544
0.00179981
0.00176447
0.00172964
0.00169558
0.00166214
0.00163009
0.00159953
0.00156936
0.00153964
0.00151083
0.00148306
0.00145615
0.00142977
0.00140413
0.00137935
0.0013553
0.00133196
0.00130936
0.00128743
0.00126614
0.00124535
0.00122518
0.001205
0.00118566
0.00116489
0.00114487
0.00112391
0.00104876
1.41553e-05
0.000115211
0.000237674
0.000341428
0.000424898
0.000490515
0.000541336
0.000580217
0.000609731
0.000632216
0.000649786
0.000664299
0.000677331
0.000690154
0.000703745
0.000718801
0.000735795
0.000755019
0.000776629
0.000800689
0.00082721
0.00085617
0.000887527
0.000921226
0.000957197
0.000995373
0.00103572
0.00107762
0.00112056
0.00116456
0.00120946
0.00125497
0.00130094
0.00134727
0.0013938
0.00144043
0.0014871
0.00153329
0.00157896
0.00162402
0.00166842
0.00171209
0.00175501
0.00179715
0.00183851
0.00187909
0.00191888
0.00195791
0.0019962
0.00203376
0.00207062
0.00210679
0.00214231
0.00217719
0.00221145
0.0022451
0.00227817
0.00231065
0.00234257
0.00237392
0.00240471
0.00243493
0.00246458
0.00249366
0.00252215
0.00255004
0.00257731
0.00260395
0.00262993
0.00265522
0.00267982
0.00270368
0.00272679
0.00274913
0.00277067
0.00279139
0.00281127
0.00283028
0.0028484
0.00286561
0.0028819
0.00289727
0.00291174
0.00292535
0.00293819
0.00295031
0.00296178
0.00297262
0.0029829
0.00299273
0.00300219
0.00301136
0.00302032
0.00302914
0.0030379
0.00304664
0.00305538
0.00306402
0.00307238
0.00308021
0.00308732
0.00309441
0.00310153
0.00310717
0.0031141
0.00311975
0.00312628
0.00313283
0.0031397
0.00314622
0.00315301
0.00315992
0.00316666
0.00317286
0.00317758
0.00318345
0.00319015
0.0031982
0.00320334
0.003207
0.00321048
0.00321433
0.00321772
0.00322039
0.00322172
0.00322173
0.00322028
0.00321723
0.00321245
0.00320582
0.0031972
0.00318651
0.00317375
0.00315882
0.00314165
0.00312224
0.00310057
0.00307668
0.00305063
0.0030225
0.00299241
0.00296047
0.0029268
0.00289149
0.00285487
0.00281649
0.00277552
0.00273255
0.00268829
0.00264328
0.00259789
0.00255241
0.00250706
0.00246202
0.00241754
0.00237385
0.00233097
0.00228926
0.00224893
0.00220964
0.0021721
0.00213606
0.00210154
0.0020682
0.00203521
0.00200325
0.00197249
0.0019426
0.00191357
0.00188551
0.00185826
0.00183176
0.00180591
0.00178071
0.00175568
0.00173127
0.00170595
0.00168032
0.0016579
0.00158501
1.56284e-05
0.000137875
0.000283821
0.000407608
0.000508151
0.000588471
0.000651914
0.000701752
0.000740862
0.000771818
0.000796935
0.000818279
0.000837657
0.000856579
0.000876254
0.000897582
0.000921189
0.000947467
0.000976629
0.00100876
0.00104384
0.00108183
0.0011226
0.00116602
0.00121193
0.00126012
0.00131033
0.00136223
0.0014155
0.00146993
0.00152532
0.00158147
0.00163814
0.00169504
0.00175197
0.00180872
0.00186507
0.00192092
0.00197618
0.00203077
0.00208462
0.00213768
0.0021899
0.00224127
0.00229176
0.00234138
0.00239012
0.002438
0.00248502
0.00253122
0.00257661
0.0026212
0.00266503
0.00270812
0.00275047
0.00279212
0.00283307
0.00287335
0.00291295
0.00295189
0.00299017
0.00302779
0.00306473
0.00310101
0.00313659
0.00317147
0.00320563
0.00323905
0.0032717
0.00330355
0.00333458
0.00336476
0.00339406
0.00342246
0.00344991
0.0034764
0.00350188
0.00352633
0.00354971
0.00357199
0.00359316
0.00361321
0.00363215
0.00365002
0.00366688
0.00368276
0.00369773
0.00371182
0.0037251
0.00373764
0.00374951
0.00376079
0.00377153
0.00378179
0.00379163
0.00380107
0.00381011
0.00381869
0.00382669
0.00383402
0.00384075
0.00384706
0.00385296
0.00385823
0.00386349
0.00386833
0.00387321
0.003878
0.00388272
0.00388741
0.00389219
0.00389652
0.00390126
0.00390681
0.00391082
0.00391436
0.00391765
0.00392139
0.00392402
0.003926
0.00392752
0.00392873
0.00392928
0.00392892
0.00392733
0.00392437
0.00391989
0.00391373
0.00390573
0.00389574
0.00388362
0.00386928
0.00385264
0.00383356
0.00381201
0.00378796
0.0037614
0.00373236
0.0037009
0.00366712
0.00363113
0.00359308
0.00355309
0.00351129
0.00346785
0.00342263
0.00337536
0.00332638
0.00327617
0.00322518
0.00317378
0.00312225
0.00307084
0.00301975
0.00296921
0.00291945
0.00287055
0.00282276
0.00277625
0.00273095
0.00268718
0.00264497
0.0026048
0.00256664
0.00252993
0.00249474
0.0024611
0.0024283
0.00239639
0.00236565
0.00233576
0.00230665
0.00227835
0.0022507
0.00222338
0.00219655
0.00216933
0.00214155
0.00211729
0.00205187
1.67972e-05
0.000157678
0.000324494
0.000466141
0.000581749
0.000675195
0.000750038
0.00080995
0.000858089
0.000897237
0.000929863
0.000958166
0.000984072
0.00100922
0.00103494
0.00106227
0.00109193
0.00112442
0.00116
0.00119878
0.00124077
0.00128588
0.00133395
0.0013848
0.0014382
0.0014939
0.00155161
0.00161105
0.00167191
0.00173395
0.0017969
0.00186053
0.0019246
0.00198886
0.0020531
0.00211713
0.00218078
0.00224392
0.00230646
0.00236829
0.00242935
0.00248959
0.00254896
0.00260744
0.002665
0.00272163
0.00277734
0.00283214
0.00288603
0.00293902
0.00299115
0.00304242
0.00309287
0.0031425
0.00319135
0.00323943
0.00328675
0.00333334
0.0033792
0.00342434
0.00346876
0.00351246
0.00355544
0.00359769
0.00363919
0.00367993
0.00371988
0.00375902
0.00379733
0.00383477
0.0038713
0.00390691
0.00394154
0.00397517
0.00400774
0.00403923
0.00406959
0.00409877
0.00412674
0.00415346
0.00417889
0.00420303
0.00422586
0.0042474
0.00426769
0.00428675
0.00430463
0.00432135
0.00433698
0.00435155
0.00436513
0.00437778
0.00438953
0.00440044
0.00441055
0.00441988
0.00442845
0.00443622
0.00444316
0.00444925
0.00445455
0.00445914
0.00446308
0.00446637
0.00446922
0.00447167
0.00447369
0.00447538
0.00447661
0.0044779
0.00447978
0.00448159
0.00448228
0.00448301
0.00448317
0.00448284
0.0044824
0.00448179
0.00448065
0.00447905
0.004477
0.0044745
0.00447134
0.00446733
0.00446225
0.00445594
0.00444824
0.00443897
0.00442797
0.00441507
0.00440011
0.00438297
0.00436352
0.00434165
0.00431729
0.00429039
0.00426091
0.00422889
0.00419437
0.00415744
0.00411822
0.00407682
0.00403338
0.00398802
0.00394089
0.00389201
0.00384139
0.00378928
0.00373603
0.00368201
0.00362754
0.00357289
0.00351831
0.00346402
0.00341024
0.00335715
0.00330491
0.00325369
0.00320365
0.00315484
0.00310744
0.00306153
0.00301737
0.00297504
0.00293494
0.002897
0.00286114
0.00282697
0.00279428
0.00276302
0.00273247
0.00270264
0.00267367
0.00264519
0.00261714
0.00258953
0.00256188
0.00253384
0.0025084
0.0024519
1.77586e-05
0.000174891
0.000359876
0.000517438
0.000646693
0.000752247
0.000837788
0.000907301
0.000964178
0.00101136
0.00105144
0.00108668
0.00111908
0.00115033
0.00118184
0.00121472
0.00124978
0.00128757
0.00132843
0.00137251
0.00141984
0.00147032
0.00152381
0.00158009
0.00163891
0.00170001
0.00176311
0.0018279
0.00189412
0.00196148
0.00202973
0.00209862
0.00216791
0.00223738
0.00230684
0.0023761
0.00244501
0.00251344
0.00258128
0.00264844
0.00271484
0.00278044
0.00284517
0.00290902
0.00297195
0.00303395
0.00309503
0.00315518
0.00321441
0.00327273
0.00333016
0.00338673
0.00344244
0.00349733
0.0035514
0.00360469
0.00365721
0.00370897
0.00375998
0.00381026
0.00385981
0.00390862
0.00395669
0.00400401
0.00405057
0.00409634
0.00414131
0.00418544
0.00422869
0.00427104
0.00431245
0.00435286
0.00439224
0.00443054
0.00446771
0.00450369
0.00453844
0.00457189
0.004604
0.00463471
0.00466398
0.00469178
0.00471808
0.00474288
0.00476618
0.00478799
0.00480833
0.00482722
0.0048447
0.00486079
0.00487555
0.004889
0.00490119
0.00491216
0.00492194
0.00493056
0.00493805
0.00494441
0.00494964
0.00495376
0.00495682
0.00495888
0.00496002
0.00496025
0.00495978
0.00495892
0.00495706
0.00495479
0.00495223
0.00494929
0.0049463
0.00494268
0.00493862
0.00493419
0.00492931
0.00492405
0.00491857
0.00491289
0.0049069
0.0049006
0.00489399
0.004887
0.00487952
0.00487139
0.00486246
0.00485256
0.00484154
0.00482923
0.00481545
0.00480003
0.00478279
0.00476358
0.00474225
0.00471867
0.00469274
0.00466437
0.00463352
0.00460019
0.00456442
0.00452626
0.00448582
0.0044432
0.0043985
0.00435185
0.00430336
0.00425314
0.00420133
0.00414815
0.0040939
0.00403887
0.00398336
0.00392762
0.00387189
0.00381639
0.00376131
0.00370684
0.00365316
0.00360042
0.00354876
0.00349827
0.0034491
0.00340134
0.00335515
0.00331064
0.00326803
0.00322769
0.00319007
0.00315486
0.00312169
0.00309027
0.0030601
0.00303096
0.00300265
0.00297465
0.00294714
0.00292001
0.00289302
0.00286591
0.00284033
0.00279226
1.87944e-05
0.00018879
0.000389179
0.00056099
0.000702802
0.000819707
0.000915431
0.000994196
0.00105957
0.00111464
0.00116204
0.00120411
0.00124286
0.00128
0.00131699
0.00135495
0.00139476
0.00143703
0.00148216
0.00153035
0.00158166
0.00163602
0.00169331
0.00175332
0.0018158
0.00188051
0.00194715
0.00201545
0.00208514
0.00215595
0.00222763
0.00229993
0.00237265
0.00244556
0.00251848
0.00259125
0.00266371
0.00273575
0.00280725
0.00287812
0.00294829
0.00301769
0.00308628
0.00315402
0.00322089
0.00328686
0.00335194
0.00341611
0.00347939
0.00354179
0.00360332
0.003664
0.00372384
0.00378288
0.00384112
0.00389859
0.00395532
0.00401131
0.00406658
0.00412113
0.00417497
0.0042281
0.00428052
0.00433221
0.00438315
0.00443333
0.00448272
0.00453127
0.00457896
0.00462574
0.00467156
0.00471637
0.00476012
0.00480273
0.00484416
0.00488433
0.00492318
0.00496063
0.00499663
0.0050311
0.00506398
0.00509522
0.00512478
0.00515261
0.00517871
0.00520306
0.00522565
0.00524648
0.00526557
0.00528294
0.00529861
0.0053126
0.00532495
0.00533568
0.00534484
0.00535245
0.00535855
0.00536316
0.00536631
0.00536804
0.00536839
0.0053674
0.00536524
0.0053617
0.00535703
0.00535195
0.00534618
0.00533941
0.0053318
0.00532361
0.00531491
0.0053056
0.00529575
0.00528544
0.0052747
0.00526362
0.00525231
0.00524084
0.00522922
0.00521747
0.00520558
0.00519352
0.00518123
0.0051686
0.00515551
0.00514183
0.00512742
0.00511211
0.00509573
0.00507809
0.005059
0.0050383
0.00501579
0.00499134
0.0049648
0.00493606
0.00490506
0.00487174
0.00483614
0.00479827
0.0047582
0.00471601
0.00467177
0.00462557
0.0045775
0.00452771
0.00447635
0.0044237
0.00437
0.00431551
0.00426049
0.00420517
0.00414978
0.00409453
0.00403961
0.00398521
0.0039315
0.00387863
0.00382675
0.00377596
0.00372639
0.00367813
0.00363131
0.00358605
0.0035425
0.0035009
0.00346191
0.00342606
0.00339274
0.00336148
0.00333182
0.00330344
0.0032761
0.00324948
0.00322343
0.00319759
0.00317199
0.00314646
0.00312163
0.00308062
1.98254e-05
0.000197498
0.000411019
0.000595984
0.000749572
0.000877216
0.000982647
0.00107029
0.00114388
0.00120658
0.0012611
0.00130978
0.00135465
0.00139742
0.00143952
0.00148211
0.0015261
0.00157215
0.00162069
0.00167198
0.00172613
0.00178313
0.00184286
0.00190516
0.00196982
0.00203658
0.0021052
0.00217542
0.00224698
0.00231962
0.00239312
0.00246726
0.00254181
0.00261661
0.00269146
0.00276623
0.00284076
0.00291493
0.00298864
0.0030618
0.00313434
0.00320617
0.00327727
0.00334759
0.00341709
0.00348577
0.00355362
0.00362062
0.00368678
0.00375212
0.00381663
0.00388035
0.00394329
0.00400548
0.00406693
0.00412767
0.00418771
0.00424708
0.0043058
0.00436386
0.00442127
0.00447804
0.00453416
0.00458962
0.00464439
0.00469846
0.00475179
0.00480435
0.00485609
0.00490695
0.00495688
0.00500582
0.00505369
0.00510043
0.00514595
0.00519018
0.00523303
0.0052744
0.00531423
0.00535242
0.00538889
0.00542356
0.00545636
0.00548725
0.00551616
0.00554306
0.00556792
0.00559072
0.00561146
0.00563011
0.00564671
0.00566125
0.00567376
0.00568425
0.00569277
0.00569935
0.00570401
0.00570682
0.0057078
0.00570701
0.0057045
0.00570018
0.00569402
0.00568655
0.00567813
0.00566882
0.00565801
0.00564603
0.00563299
0.00561905
0.00560431
0.00558882
0.00557266
0.00555595
0.00553878
0.00552127
0.00550356
0.00548574
0.0054679
0.00545011
0.0054324
0.00541479
0.00539726
0.00537978
0.00536225
0.00534459
0.00532666
0.00530833
0.00528942
0.00526976
0.00524914
0.00522735
0.00520421
0.00517954
0.00515317
0.00512495
0.00509476
0.00506252
0.00502822
0.00499185
0.00495343
0.004913
0.0048706
0.00482625
0.00478002
0.00473201
0.00468242
0.00463155
0.00457963
0.00452689
0.00447355
0.00441983
0.00436593
0.00431207
0.00425844
0.0042052
0.00415254
0.00410062
0.00404957
0.00399951
0.00395057
0.00390283
0.00385643
0.00381146
0.00376807
0.00372646
0.00368706
0.00365107
0.00361799
0.00358719
0.00355819
0.00353067
0.00350435
0.00347898
0.00345441
0.00343041
0.00340668
0.0033831
0.00335961
0.00332447
2.06584e-05
0.000203325
0.000427136
0.000623266
0.000787295
0.000924699
0.00103913
0.00113511
0.00121646
0.0012864
0.00134768
0.00140265
0.00145331
0.00150134
0.00154817
0.00159495
0.00164259
0.00169178
0.00174301
0.00179656
0.00185261
0.00191119
0.00197223
0.00203561
0.00210116
0.00216866
0.00223789
0.00230862
0.00238062
0.00245367
0.00252755
0.00260207
0.00267704
0.00275229
0.00282768
0.00290306
0.00297829
0.00305326
0.00312786
0.00320199
0.00327558
0.00334856
0.00342089
0.00349253
0.00356345
0.00363363
0.00370305
0.00377172
0.00383964
0.00390681
0.00397324
0.00403897
0.00410399
0.00416836
0.00423208
0.00429518
0.00435769
0.00441964
0.00448102
0.00454186
0.00460217
0.00466194
0.00472117
0.00477985
0.00483796
0.00489548
0.00495237
0.00500858
0.00506407
0.00511877
0.00517262
0.00522554
0.00527744
0.00532825
0.00537785
0.00542616
0.00547307
0.00551847
0.00556225
0.00560431
0.00564454
0.00568284
0.00571912
0.00575328
0.00578525
0.00581496
0.00584236
0.00586739
0.00589004
0.00591026
0.00592805
0.00594341
0.00595634
0.00596685
0.00597498
0.00598075
0.0059842
0.00598539
0.00598437
0.00598121
0.00597577
0.00596808
0.00595847
0.0059475
0.00593502
0.00592082
0.00590501
0.0058877
0.00586905
0.00584918
0.00582824
0.00580634
0.00578362
0.00576021
0.00573627
0.00571195
0.00568743
0.00566286
0.00563837
0.0056141
0.00559013
0.00556656
0.00554342
0.00552073
0.00549846
0.00547657
0.00545495
0.00543349
0.00541204
0.00539046
0.00536848
0.00534588
0.00532249
0.0052981
0.0052725
0.00524549
0.0052169
0.0051866
0.00515451
0.00512062
0.0050849
0.00504732
0.00500787
0.00496655
0.00492329
0.00487817
0.0048314
0.00478335
0.00473423
0.00468423
0.00463354
0.00458237
0.0045309
0.00447935
0.00442789
0.0043767
0.00432595
0.00427581
0.00422643
0.00417792
0.00413041
0.004084
0.0040388
0.00399494
0.00395256
0.00391183
0.00387312
0.00383769
0.0038053
0.00377525
0.00374709
0.0037205
0.00369523
0.00367106
0.00364785
0.00362545
0.00360366
0.0035822
0.00356038
0.0035301
2.13318e-05
0.000206984
0.000438351
0.000643393
0.000816262
0.000962024
0.00108462
0.00118817
0.00127662
0.00135323
0.00142075
0.00148151
0.00153748
0.00159031
0.0016414
0.00169187
0.00174263
0.00179439
0.00184764
0.00190273
0.00195986
0.00201911
0.00208049
0.0021439
0.00220922
0.00227628
0.0023449
0.00241487
0.002486
0.0025581
0.002631
0.00270452
0.00277851
0.00285287
0.00292746
0.00300214
0.0030768
0.0031513
0.0032255
0.00329933
0.00337271
0.00344558
0.00351788
0.0035896
0.0036607
0.00373116
0.00380097
0.00387014
0.00393866
0.00400655
0.00407381
0.00414048
0.00420657
0.00427211
0.00433715
0.00440171
0.00446583
0.00452952
0.00459281
0.0046557
0.00471822
0.00478037
0.00484215
0.00490355
0.00496455
0.00502512
0.00508522
0.00514482
0.00520384
0.00526222
0.00531989
0.00537675
0.0054327
0.00548765
0.00554147
0.00559404
0.00564524
0.00569493
0.00574299
0.00578927
0.00583364
0.00587597
0.00591615
0.00595404
0.00598954
0.00602255
0.00605298
0.00608076
0.00610583
0.00612814
0.00614765
0.00616433
0.00617819
0.00618922
0.00619744
0.00620287
0.00620556
0.00620556
0.00620293
0.00619772
0.00618971
0.00617935
0.00616673
0.00615218
0.00613557
0.00611689
0.00609625
0.00607377
0.0060496
0.00602389
0.00599682
0.00596853
0.00593921
0.00590903
0.00587819
0.00584689
0.00581534
0.00578376
0.00575234
0.00572127
0.00569072
0.00566084
0.00563174
0.00560351
0.00557619
0.0055498
0.00552425
0.00549948
0.00547535
0.00545187
0.0054286
0.00540534
0.00538194
0.00535817
0.00533379
0.00530853
0.00528216
0.00525447
0.00522532
0.0051947
0.00516251
0.00512868
0.00509314
0.00505585
0.00501652
0.00497521
0.00493209
0.00488775
0.0048423
0.00479588
0.00474868
0.00470085
0.0046526
0.00460412
0.0045556
0.00450718
0.00445907
0.00441141
0.00436438
0.00431811
0.00427269
0.00422825
0.00418491
0.00414281
0.00410211
0.00406298
0.00402582
0.00399176
0.0039605
0.00393149
0.00390435
0.00387879
0.00385459
0.00383159
0.00380965
0.00378866
0.0037685
0.003749
0.00372894
0.00370271
2.18562e-05
0.000208766
0.000445162
0.0006569
0.000836909
0.000989598
0.00111899
0.00122905
0.00132369
0.00140615
0.00147917
0.00154502
0.00160565
0.00166266
0.00171739
0.00177095
0.00182423
0.00187792
0.00193253
0.00198844
0.00204589
0.00210499
0.0021658
0.00222829
0.00229235
0.00235788
0.00242472
0.00249272
0.00256171
0.00263155
0.00270209
0.0027732
0.00284472
0.00291677
0.00298923
0.00306196
0.00313493
0.00320776
0.00328033
0.00335258
0.00342447
0.00349593
0.00356692
0.00363743
0.00370744
0.00377693
0.0038459
0.00391434
0.00398228
0.00404973
0.00411669
0.0041832
0.00424927
0.00431495
0.00438031
0.00444539
0.00451023
0.00457484
0.00463924
0.00470346
0.00476753
0.00483145
0.00489523
0.00495885
0.00502232