/*--------------------------------*- C++ -*----------------------------------*\
| =========                 |                                                 |
| \\      /  F ield         | OpenFOAM: The Open Source CFD Toolbox           |
|  \\    /   O peration     | Version:  2312                                  |
|   \\  /    A nd           | Website:  www.openfoam.com                      |
|    \\/     M anipulation  |                                                 |
\*---------------------------------------------------------------------------*/
FoamFile
{
    version     2.0;
    format      ascii;
    arch        "LSB;label=32;scalar=64";
    class       volVectorField;
    location    "100";
    object      U;
}
// * * * * * * * * * * * * * * * * * * * * * * * * * * * * * * * * * * * * * //

dimensions      [0 1 -1 0 0 0 0];

internalField   nonuniform List<vector> 
12225
(
(9.84122 -0.956293 0)
(9.59261 -0.8879 0)
(9.31778 -0.594485 0)
(9.01511 -0.37002 0)
(8.72639 -0.226013 0)
(8.46804 -0.13792 0)
(8.24126 -0.0845547 0)
(8.04339 -0.0517134 0)
(7.87189 -0.0313372 0)
(7.72345 -0.0187268 0)
(7.595 -0.0108131 0)
(7.48352 -0.00591067 0)
(7.38682 -0.00295723 0)
(7.30299 -0.00131419 0)
(7.23045 -0.000536049 0)
(7.17028 -0.0010194 0)
(7.11338 0.00157907 0)
(7.0892 -0.0180559 0)
(10.0721 0.255827 0)
(10.1868 0.418342 0)
(10.2285 0.384096 0)
(10.2298 0.310361 0)
(10.2116 0.245625 0)
(10.1797 0.195356 0)
(10.1339 0.157577 0)
(10.0766 0.129538 0)
(10.0115 0.108654 0)
(9.94221 0.0928712 0)
(9.871 0.0806381 0)
(9.79965 0.0709511 0)
(9.72928 0.063056 0)
(9.66103 0.0564624 0)
(9.59533 0.0505154 0)
(9.53315 0.0456107 0)
(9.47507 0.0386581 0)
(9.423 0.037947 0)
(10.0032 0.0599511 0)
(10.0309 0.0482509 0)
(10.0615 0.00995587 0)
(10.0899 -8.69574e-05 0)
(10.1154 0.00805495 0)
(10.138 0.0192782 0)
(10.1552 0.0288277 0)
(10.1664 0.036266 0)
(10.1724 0.041769 0)
(10.1742 0.045553 0)
(10.1726 0.047931 0)
(10.1681 0.049193 0)
(10.1615 0.0495626 0)
(10.1531 0.0491731 0)
(10.1436 0.0480361 0)
(10.1334 0.0461233 0)
(10.1235 0.0430605 0)
(10.1125 0.0374068 0)
(9.99715 0.0099014 0)
(10.009 0.0260563 0)
(10.0342 0.0382361 0)
(10.0555 0.053293 0)
(10.0724 0.064788 0)
(10.0879 0.0700883 0)
(10.102 0.0711892 0)
(10.1141 0.0703756 0)
(10.1246 0.0687266 0)
(10.1338 0.0666645 0)
(10.142 0.0643861 0)
(10.1492 0.0620058 0)
(10.1555 0.0595309 0)
(10.1613 0.0569237 0)
(10.1665 0.0540241 0)
(10.1714 0.0506543 0)
(10.176 0.0462589 0)
(10.1796 0.0396696 0)
(9.99907 0.00679322 0)
(10.0082 0.0342557 0)
(10.028 0.0482647 0)
(10.0438 0.0547676 0)
(10.0561 0.0581885 0)
(10.0682 0.0593153 0)
(10.0799 0.0590231 0)
(10.0905 0.0582087 0)
(10.1001 0.0572285 0)
(10.1089 0.0561123 0)
(10.1173 0.0548477 0)
(10.1251 0.0534213 0)
(10.1325 0.0517969 0)
(10.1397 0.0499015 0)
(10.1466 0.0475925 0)
(10.1534 0.0446777 0)
(10.1597 0.0407854 0)
(10.1654 0.0355295 0)
(10.0002 0.0092238 0)
(10.008 0.033347 0)
(10.0237 0.0439671 0)
(10.037 0.0482451 0)
(10.0481 0.0516496 0)
(10.0589 0.0539841 0)
(10.0696 0.0549433 0)
(10.0793 0.0550199 0)
(10.0881 0.0546038 0)
(10.0963 0.0538209 0)
(10.1041 0.0527198 0)
(10.1116 0.0513348 0)
(10.1187 0.0496644 0)
(10.1257 0.0476628 0)
(10.1325 0.0452231 0)
(10.139 0.0421967 0)
(10.1452 0.038382 0)
(10.1507 0.0336047 0)
(10.0003 0.00910189 0)
(10.007 0.028679 0)
(10.0202 0.0387616 0)
(10.0324 0.0438375 0)
(10.0428 0.0478748 0)
(10.0529 0.0506047 0)
(10.0628 0.0517635 0)
(10.0719 0.0518968 0)
(10.0802 0.0514656 0)
(10.088 0.0506393 0)
(10.0955 0.0494813 0)
(10.1026 0.0480286 0)
(10.1095 0.0462848 0)
(10.1161 0.0442086 0)
(10.1225 0.0417183 0)
(10.1286 0.0387044 0)
(10.1343 0.035059 0)
(10.1394 0.0307104 0)
(10.0004 0.0081166 0)
(10.006 0.024615 0)
(10.0172 0.0347263 0)
(10.0285 0.0403057 0)
(10.0384 0.0443095 0)
(10.0479 0.0469384 0)
(10.0572 0.0481189 0)
(10.0659 0.04832 0)
(10.074 0.0479511 0)
(10.0815 0.0471728 0)
(10.0887 0.046047 0)
(10.0956 0.0446081 0)
(10.1022 0.042864 0)
(10.1085 0.0407838 0)
(10.1146 0.0383125 0)
(10.1203 0.0353804 0)
(10.1256 0.0319417 0)
(10.1303 0.0279924 0)
(10.0004 0.00717714 0)
(10.0052 0.0214047 0)
(10.0147 0.0310848 0)
(10.0249 0.0366887 0)
(10.0343 0.0405014 0)
(10.0433 0.0430332 0)
(10.0521 0.0442866 0)
(10.0605 0.0446003 0)
(10.0683 0.0443179 0)
(10.0757 0.0435997 0)
(10.0827 0.0425131 0)
(10.0894 0.0410957 0)
(10.0958 0.0393627 0)
(10.1018 0.0372988 0)
(10.1076 0.0348738 0)
(10.113 0.0320532 0)
(10.118 0.0288314 0)
(10.1224 0.0252414 0)
(10.0004 0.00633397 0)
(10.0045 0.018614 0)
(10.0126 0.0275361 0)
(10.0218 0.0329904 0)
(10.0306 0.0366424 0)
(10.0391 0.0390879 0)
(10.0474 0.0403825 0)
(10.0555 0.0407732 0)
(10.063 0.0405514 0)
(10.0702 0.0398784 0)
(10.077 0.038827 0)
(10.0835 0.0374381 0)
(10.0897 0.0357335 0)
(10.0955 0.0337127 0)
(10.101 0.0313662 0)
(10.1062 0.0286867 0)
(10.1108 0.0256924 0)
(10.115 0.0224336 0)
(10.0004 0.00553988 0)
(10.0039 0.0160994 0)
(10.0108 0.024146 0)
(10.019 0.0293426 0)
(10.0272 0.0328142 0)
(10.0352 0.0351314 0)
(10.0431 0.0364049 0)
(10.0507 0.0368275 0)
(10.058 0.0366425 0)
(10.0649 0.0360036 0)
(10.0715 0.0349864 0)
(10.0778 0.0336345 0)
(10.0838 0.0319755 0)
(10.0894 0.0300214 0)
(10.0947 0.027779 0)
(10.0996 0.0252597 0)
(10.104 0.0224952 0)
(10.1079 0.0195424 0)
(10.0003 0.00483113 0)
(10.0034 0.0139847 0)
(10.0094 0.0211976 0)
(10.0168 0.0260631 0)
(10.0244 0.0293245 0)
(10.0319 0.0314876 0)
(10.0394 0.0326994 0)
(10.0467 0.0331196 0)
(10.0537 0.0329505 0)
(10.0604 0.0323339 0)
(10.0667 0.031346 0)
(10.0728 0.0300328 0)
(10.0786 0.0284268 0)
(10.084 0.0265498 0)
(10.089 0.0244192 0)
(10.0937 0.0220576 0)
(10.0979 0.0195023 0)
(10.1017 0.016811 0)
(10.0003 0.0041668 0)
(10.003 0.0120427 0)
(10.0082 0.0184102 0)
(10.0149 0.0228632 0)
(10.0219 0.0258756 0)
(10.029 0.0278619 0)
(10.036 0.0289832 0)
(10.043 0.0293764 0)
(10.0497 0.0292079 0)
(10.0561 0.0286059 0)
(10.0622 0.0276457 0)
(10.0681 0.0263747 0)
(10.0736 0.024829 0)
(10.0788 0.0230376 0)
(10.0836 0.021026 0)
(10.0881 0.0188234 0)
(10.0921 0.0164686 0)
(10.0958 0.0140162 0)
(10.0003 0.00347502 0)
(10.0026 0.0100184 0)
(10.0071 0.0154204 0)
(10.013 0.0193223 0)
(10.0194 0.0219913 0)
(10.026 0.0237363 0)
(10.0326 0.0247148 0)
(10.0391 0.0250434 0)
(10.0455 0.0248539 0)
(10.0516 0.0242569 0)
(10.0575 0.0233251 0)
(10.063 0.0221057 0)
(10.0683 0.020637 0)
(10.0733 0.0189518 0)
(10.0779 0.0170823 0)
(10.0821 0.015061 0)
(10.086 0.0129261 0)
(10.0895 0.010725 0)
(10.0002 0.00275192 0)
(10.0022 0.00790791 0)
(10.0061 0.0122385 0)
(10.0113 0.0154482 0)
(10.0171 0.0176613 0)
(10.0231 0.0190853 0)
(10.0292 0.019856 0)
(10.0353 0.0200713 0)
(10.0413 0.0198306 0)
(10.0471 0.0192242 0)
(10.0526 0.018318 0)
(10.0579 0.0171586 0)
(10.0629 0.0157827 0)
(10.0676 0.014225 0)
(10.0719 0.0125187 0)
(10.0759 0.0106984 0)
(10.0796 0.00879766 0)
(10.083 0.0068565 0)
(10.0002 0.00199807 0)
(10.0019 0.00571611 0)
(10.0052 0.0088778 0)
(10.0097 0.0112538 0)
(10.0149 0.0128842 0)
(10.0204 0.0138916 0)
(10.026 0.0143774 0)
(10.0317 0.0144184 0)
(10.0372 0.0140866 0)
(10.0426 0.0134492 0)
(10.0479 0.0125612 0)
(10.0528 0.0114653 0)
(10.0575 0.0101953 0)
(10.0619 0.00878262 0)
(10.0661 0.00725811 0)
(10.0699 0.00565276 0)
(10.0734 0.00399635 0)
(10.0766 0.00231831 0)
(10.0002 0.00121262 0)
(10.0016 0.00343428 0)
(10.0045 0.00532926 0)
(10.0084 0.0067325 0)
(10.0131 0.0076445 0)
(10.018 0.00812609 0)
(10.0232 0.00823947 0)
(10.0284 0.00803608 0)
(10.0336 0.0075635 0)
(10.0387 0.00686573 0)
(10.0436 0.00598283 0)
(10.0482 0.00494787 0)
(10.0527 0.00378936 0)
(10.0568 0.00253189 0)
(10.0607 0.00120042 0)
(10.0643 -0.000181406 0)
(10.0677 -0.0015897 0)
(10.0708 -0.0030049 0)
(10.0002 0.000381414 0)
(10.0014 0.00101643 0)
(10.004 0.001528 0)
(10.0075 0.00181384 0)
(10.0117 0.00186316 0)
(10.0163 0.00169627 0)
(10.0211 0.00133761 0)
(10.0259 0.000810328 0)
(10.0308 0.000137773 0)
(10.0356 -0.000658144 0)
(10.0402 -0.00155689 0)
(10.0446 -0.00253958 0)
(10.0488 -0.0035886 0)
(10.0527 -0.00468808 0)
(10.0564 -0.00582234 0)
(10.0599 -0.00697617 0)
(10.0631 -0.00813436 0)
(10.0661 -0.0092855 0)
(10.0001 -0.000537096 0)
(10.0013 -0.00165368 0)
(10.0037 -0.00269309 0)
(10.0071 -0.00368934 0)
(10.0111 -0.00464814 0)
(10.0155 -0.00558305 0)
(10.0201 -0.00650891 0)
(10.0247 -0.00743453 0)
(10.0294 -0.0083619 0)
(10.034 -0.00929304 0)
(10.0384 -0.0102289 0)
(10.0426 -0.0111698 0)
(10.0467 -0.012113 0)
(10.0505 -0.0130555 0)
(10.054 -0.0139928 0)
(10.0574 -0.0149204 0)
(10.0605 -0.0158323 0)
(10.0634 -0.016726 0)
(10.0002 -0.00140441 0)
(10.0014 -0.00417777 0)
(10.0039 -0.00669693 0)
(10.0074 -0.00890801 0)
(10.0116 -0.0108077 0)
(10.0161 -0.0124517 0)
(10.0208 -0.0138975 0)
(10.0255 -0.0151798 0)
(10.0302 -0.0163277 0)
(10.0348 -0.017369 0)
(10.0392 -0.0183291 0)
(10.0434 -0.0192248 0)
(10.0475 -0.0200686 0)
(10.0513 -0.0208677 0)
(10.0548 -0.0216293 0)
(10.0581 -0.022357 0)
(10.0613 -0.0230539 0)
(10.0641 -0.0237225 0)
(10.0002 -0.00213776 0)
(10.0015 -0.00634552 0)
(10.0043 -0.0101521 0)
(10.0082 -0.0133551 0)
(10.0127 -0.0159694 0)
(10.0175 -0.0181461 0)
(10.0224 -0.0199843 0)
(10.0273 -0.021524 0)
(10.0322 -0.0228105 0)
(10.0369 -0.0239002 0)
(10.0414 -0.0248433 0)
(10.0457 -0.0256738 0)
(10.0498 -0.0264161 0)
(10.0537 -0.0270873 0)
(10.0573 -0.0277021 0)
(10.0606 -0.0282711 0)
(10.0637 -0.0288023 0)
(10.0666 -0.0293027 0)
(10.0002 -0.00281478 0)
(10.0017 -0.00845038 0)
(10.0048 -0.0135738 0)
(10.0093 -0.017678 0)
(10.0143 -0.0208496 0)
(10.0195 -0.0234219 0)
(10.0247 -0.0255493 0)
(10.03 -0.0272737 0)
(10.0351 -0.0286537 0)
(10.04 -0.0297666 0)
(10.0447 -0.0306742 0)
(10.0491 -0.0314233 0)
(10.0533 -0.0320485 0)
(10.0572 -0.0325799 0)
(10.0608 -0.0330387 0)
(10.0642 -0.0334431 0)
(10.0674 -0.0338031 0)
(10.0703 -0.034128 0)
(10.0001 -0.00341673 0)
(10.0017 -0.0105317 0)
(10.0054 -0.0169822 0)
(10.0107 -0.0219003 0)
(10.0164 -0.025601 0)
(10.022 -0.0285395 0)
(10.0276 -0.0308444 0)
(10.0332 -0.0326024 0)
(10.0386 -0.0339571 0)
(10.0437 -0.0350252 0)
(10.0486 -0.0358712 0)
(10.0531 -0.0365389 0)
(10.0574 -0.037068 0)
(10.0614 -0.0374934 0)
(10.0651 -0.0378417 0)
(10.0686 -0.0381319 0)
(10.0718 -0.0383771 0)
(10.0748 -0.0385889 0)
(10.0001 -0.00389933 0)
(10.0016 -0.012998 0)
(10.006 -0.0204906 0)
(10.0123 -0.0256142 0)
(10.0186 -0.0297345 0)
(10.0247 -0.033263 0)
(10.0308 -0.035931 0)
(10.0367 -0.0377679 0)
(10.0424 -0.0390401 0)
(10.0477 -0.0399501 0)
(10.0528 -0.0405958 0)
(10.0575 -0.0410402 0)
(10.0619 -0.0413407 0)
(10.066 -0.0415442 0)
(10.0698 -0.0416849 0)
(10.0733 -0.0417838 0)
(10.0766 -0.0418545 0)
(10.0796 -0.0418965 0)
(9.9998 -0.00357111 0)
(10.0011 -0.0166338 0)
(10.0069 -0.0256555 0)
(10.014 -0.0298782 0)
(10.0205 -0.0332471 0)
(10.0269 -0.0367528 0)
(10.0337 -0.0397407 0)
(10.0403 -0.0419752 0)
(10.0465 -0.0436135 0)
(10.0523 -0.0448046 0)
(10.0577 -0.0456305 0)
(10.0627 -0.0461651 0)
(10.0674 -0.0464839 0)
(10.0717 -0.046651 0)
(10.0757 -0.0467139 0)
(10.0794 -0.0467062 0)
(10.0829 -0.0466528 0)
(10.0861 -0.0465668 0)
(9.99829 -1.63838e-05 0)
(9.99794 -0.0176826 0)
(10.0068 -0.0316051 0)
(10.0161 -0.0377301 0)
(10.0231 -0.0404658 0)
(10.0299 -0.0420548 0)
(10.0374 -0.0430529 0)
(10.0449 -0.0437947 0)
(10.0519 -0.0444432 0)
(10.0585 -0.0450045 0)
(10.0646 -0.0454468 0)
(10.0703 -0.0457814 0)
(10.0756 -0.0460319 0)
(10.0804 -0.0462256 0)
(10.0849 -0.0463758 0)
(10.089 -0.0464997 0)
(10.0928 -0.0466009 0)
(10.0962 -0.0466505 0)
(9.99413 0.0027646 0)
(9.98993 -0.00764592 0)
(10.0031 -0.0229333 0)
(10.0184 -0.0397805 0)
(10.03 -0.0532018 0)
(10.04 -0.0610036 0)
(10.0496 -0.0645691 0)
(10.0587 -0.0658496 0)
(10.067 -0.0659738 0)
(10.0747 -0.0653869 0)
(10.0819 -0.0643694 0)
(10.0885 -0.0631114 0)
(10.0945 -0.0617773 0)
(10.0999 -0.0604474 0)
(10.1049 -0.0591859 0)
(10.1093 -0.0580226 0)
(10.1134 -0.0569837 0)
(10.1171 -0.0560218 0)
(9.9942 -0.0305159 0)
(9.99523 -0.0134902 0)
(10.0085 0.0214596 0)
(10.0271 0.0319383 0)
(10.0468 0.0240417 0)
(10.0665 0.0114729 0)
(10.0846 -0.000271134 0)
(10.1002 -0.0105114 0)
(10.1133 -0.0191774 0)
(10.1243 -0.026278 0)
(10.1333 -0.0319067 0)
(10.1406 -0.0363074 0)
(10.1463 -0.039711 0)
(10.1504 -0.0423335 0)
(10.1533 -0.0443379 0)
(10.1549 -0.0458944 0)
(10.1557 -0.0471325 0)
(10.1555 -0.0481998 0)
(10.0368 -0.209418 0)
(10.1083 -0.365922 0)
(10.1423 -0.352779 0)
(10.1567 -0.298083 0)
(10.1695 -0.247681 0)
(10.1817 -0.206863 0)
(10.1881 -0.174444 0)
(10.1863 -0.149098 0)
(10.1768 -0.129397 0)
(10.1611 -0.113888 0)
(10.1404 -0.101508 0)
(10.1157 -0.0914985 0)
(10.088 -0.0833258 0)
(10.0582 -0.0765822 0)
(10.0269 -0.0709872 0)
(9.99482 -0.0663615 0)
(9.96234 -0.062553 0)
(9.93015 -0.0598679 0)
(9.92866 0.765527 0)
(9.83918 0.742056 0)
(9.70518 0.524414 0)
(9.52607 0.348754 0)
(9.3314 0.227653 0)
(9.13997 0.14694 0)
(8.95794 0.0935266 0)
(8.78779 0.057923 0)
(8.63092 0.0340509 0)
(8.48796 0.018028 0)
(8.35829 0.00735679 0)
(8.24108 0.000371017 0)
(8.13519 -0.00418564 0)
(8.03953 -0.00704649 0)
(7.953 -0.00873106 0)
(7.87461 -0.00967529 0)
(7.80304 -0.010162 0)
(7.73788 -0.0107796 0)
(0.00614629 -0.0101994 4.74e-17)
(0.0254131 -0.0293049 -3.16198e-17)
(0.0479006 -0.0370381 0)
(0.0708597 -0.036203 0)
(0.0903718 -0.0300191 0)
(0.104429 -0.0213087 1.60242e-17)
(0.112546 -0.0117202 0)
(0.11495 -0.00210261 0)
(0.111066 0.00687308 0)
(0.101761 0.0145902 0)
(0.0879333 0.020812 -1.54355e-17)
(0.0704752 0.0254921 0)
(0.0501667 0.0287893 0)
(0.0275803 0.0311081 0)
(0.00308914 0.0329372 0)
(-0.0230954 0.034339 -1.8747e-17)
(-0.0511135 0.0354417 0)
(-0.0812824 0.0366373 0)
(-0.113787 0.0381224 0)
(-0.148804 0.0399295 0)
(-0.186527 0.0419925 0)
(-0.227074 0.0442196 0)
(-0.270441 0.0465084 0)
(-0.316604 0.0488031 -8.09609e-18)
(-0.365472 0.0510232 7.40085e-18)
(-0.416832 0.0530781 -6.79154e-18)
(-0.470407 0.0548847 -6.25512e-18)
(-0.525859 0.0563794 0)
(-0.582812 0.0575058 0)
(-0.640862 0.0582378 5.00739e-18)
(-0.699588 0.0585582 4.68684e-18)
(-0.758575 0.0584797 0)
(-0.817441 0.0580235 0)
(-0.875843 0.0572308 3.93511e-18)
(-0.933491 0.056144 0)
(-0.990135 0.0548183 0)
(-1.04559 0.0533023 -3.41052e-18)
(-1.0997 0.0516522 0)
(-1.15238 0.0499118 -3.14727e-18)
(-1.20356 0.0481281 -6.07032e-18)
(-1.25324 0.046332 0)
(-1.30141 0.0445565 0)
(-1.34811 0.0428193 0)
(-1.39339 0.0411407 0)
(-1.43729 0.0395272 0)
(-1.47989 0.03799 -5.09114e-18)
(-1.52126 0.0365285 -4.97107e-18)
(-1.56147 0.0351484 -4.85986e-18)
(-1.6006 0.0338448 0)
(-1.6387 0.0326179 4.65945e-18)
(-1.67586 0.0314589 0)
(-1.71214 0.0303672 -4.48359e-18)
(-1.74759 0.0293342 -4.40327e-18)
(-1.78228 0.0283587 0)
(-1.81625 0.0274321 0)
(-1.84956 0.0265543 0)
(-1.88224 0.0257186 -4.12278e-18)
(-1.91434 0.0249258 0)
(-1.94588 0.0241692 0)
(-1.97692 0.0234509 0)
(-2.00747 0.0227668 0)
(-2.03757 0.0221199 0)
(-2.06725 0.0215063 0)
(-2.09653 0.0209295 0)
(-2.12545 0.0203873 0)
(-2.15404 0.0198834 3.65227e-18)
(-2.18232 0.0194163 0)
(-2.21031 0.018988 0)
(-2.23806 0.0185985 -3.52772e-18)
(-2.2656 0.0182492 -3.48881e-18)
(-2.29295 0.0179418 0)
(-2.32015 0.0176756 3.41443e-18)
(-2.34723 0.0174531 -3.3788e-18)
(-2.37424 0.0172716 0)
(-2.40122 0.0171365 3.3102e-18)
(-2.42821 0.017045 0)
(-2.45523 0.0170051 0)
(-2.48231 0.0170144 -3.21306e-18)
(-2.50949 0.0170781 0)
(-2.5368 0.0171885 3.15157e-18)
(-2.56425 0.0173519 0)
(-2.59185 0.0175567 -3.09228e-18)
(-2.61961 0.0178003 -3.06345e-18)
(-2.64753 0.0181387 -3.03507e-18)
(-2.67566 0.0186675 -6.01477e-18)
(-2.70402 0.0191009 5.96078e-18)
(-2.73257 0.0192577 0)
(-2.76119 0.0195617 0)
(-2.78987 0.0200697 0)
(-2.81863 0.0204027 5.75346e-18)
(-2.84747 0.0206018 5.70396e-18)
(-2.87628 0.0207391 -5.65548e-18)
(-2.90499 0.02076 0)
(-2.93344 0.0206394 5.56219e-18)
(-2.9615 0.0203936 5.51769e-18)
(-2.989 0.0200085 5.47504e-18)
(-3.01579 0.0194504 0)
(-3.04167 0.0187063 0)
(-3.06641 0.0176361 0)
(-3.08959 0.0156831 5.32835e-18)
(-3.11072 0.0141576 0)
(-3.12998 0.0145526 0)
(-3.1473 0.0132357 -5.24352e-18)
(-3.16172 0.0114515 0)
(-3.17311 0.0104376 0)
(-3.18087 0.00870001 -5.19864e-18)
(-3.18493 0.00729862 0)
(-3.18577 0.00640699 0)
(-3.18322 0.00467925 5.19524e-18)
(-3.17683 0.0023291 5.1995e-18)
(-3.16646 0.000528014 0)
(-3.15203 -0.00142017 -5.22669e-18)
(-3.13337 -0.00294551 0)
(-3.1103 -0.00513977 5.27043e-18)
(-3.08235 -0.00752862 0)
(-3.04969 -0.00903895 5.34868e-18)
(-3.01215 -0.0115413 5.39768e-18)
(-2.96931 -0.0146812 0)
(-2.92108 -0.0174278 0)
(-2.86764 -0.0200949 0)
(-2.80893 -0.0228029 0)
(-2.74487 -0.0259649 0)
(-2.67537 -0.0292106 0)
(-2.60048 -0.0325423 0)
(-2.52021 -0.0359483 6.13608e-18)
(-2.43466 -0.0394171 -6.28818e-18)
(-2.344 -0.0429136 0)
(-2.24842 -0.0464278 0)
(-2.14815 -0.0499128 0)
(-2.04345 -0.0533502 0)
(-1.9346 -0.0567 -1.47133e-17)
(-1.82195 -0.0599444 0)
(-1.70583 -0.0630489 1.59528e-17)
(-1.58663 -0.0660004 -1.66837e-17)
(-1.46473 -0.0687687 0)
(-1.34055 -0.0713527 0)
(-1.2145 -0.07376 0)
(-1.087 -0.075989 2.06256e-17)
(-0.958462 -0.0780519 2.19531e-17)
(-0.829277 -0.0799657 0)
(-0.699821 -0.0817497 2.52044e-17)
(-0.570456 -0.0833658 2.72143e-17)
(-0.441678 -0.0847754 -2.95618e-17)
(-0.313417 -0.0860542 0)
(-0.18693 -0.0873891 0)
(-0.0593395 -0.087163 -3.65041e-17)
(0.0711914 -0.0842226 0)
(0.199313 -0.0801832 0)
(0.324292 -0.0759787 0)
(0.445568 -0.0718453 0)
(0.562772 -0.0678491 2.62547e-17)
(0.675722 -0.0640092 2.50066e-17)
(0.784325 -0.0603193 0)
(0.888563 -0.0568041 2.29927e-17)
(0.988468 -0.053483 0)
(1.08408 -0.0503141 0)
(1.17549 -0.0472819 2.0815e-17)
(1.26282 -0.0444224 0)
(1.34619 -0.0417397 1.97323e-17)
(1.42571 -0.0392045 0)
(1.50152 -0.0368073 0)
(1.57373 -0.0345399 1.84956e-17)
(1.64249 -0.0324026 0)
(1.70796 -0.0303921 1.78556e-17)
(1.77025 -0.0284977 0)
(1.8295 -0.0267084 0)
(1.88582 -0.0250191 0)
(1.93931 -0.0234208 -1.68888e-17)
(1.99007 -0.021903 0)
(2.03817 -0.0204541 1.65235e-17)
(2.08365 -0.0190587 0)
(2.12648 -0.0176904 0)
(2.16655 -0.0163167 0)
(2.20362 -0.0148755 0)
(2.23724 -0.0132785 0)
(2.26609 -0.011315 0)
(2.28944 -0.00841527 0)
(2.29747 -0.00265415 -3.17453e-17)
(2.29221 0.0102343 0)
(2.18363 0.0287734 0)
(0.0154466 -0.0575712 -8.6497e-17)
(0.036183 -0.0731623 3.86613e-17)
(0.0467558 -0.066323 0)
(0.0535551 -0.0543042 -1.16492e-17)
(0.0561396 -0.0396033 0)
(0.0548017 -0.0235864 -4.56454e-18)
(0.0500362 -0.00725219 8.68837e-18)
(0.0420953 0.00874004 8.4372e-18)
(0.0311925 0.0237922 0)
(0.0170301 0.0373612 8.31417e-18)
(-0.000520465 0.0491367 4.17451e-18)
(-0.0215186 0.0590839 0)
(-0.0459788 0.067416 0)
(-0.0739034 0.0744981 0)
(-0.105299 0.0807756 0)
(-0.14002 0.086649 3.63838e-18)
(-0.177738 0.0924402 0)
(-0.218293 0.0983734 -6.72588e-18)
(-0.261629 0.104542 0)
(-0.307612 0.110912 0)
(-0.35607 0.117349 5.89577e-18)
(-0.406784 0.123667 0)
(-0.459487 0.12966 -5.36766e-18)
(-0.513859 0.13514 2.55873e-18)
(-0.569535 0.139922 -2.43951e-18)
(-0.626124 0.143853 2.32665e-18)
(-0.683232 0.146823 2.22047e-18)
(-0.740472 0.148779 0)
(-0.797491 0.149696 0)
(-0.853962 0.149574 -1.94238e-18)
(-0.909606 0.148471 1.86301e-18)
(-0.964199 0.14649 0)
(-1.01757 0.143756 0)
(-1.06959 0.140409 -1.65938e-18)
(-1.12017 0.136584 0)
(-1.16929 0.132414 0)
(-1.21691 0.128016 1.50122e-18)
(-1.26305 0.123499 0)
(-1.30775 0.118952 -1.41608e-18)
(-1.35104 0.114455 2.75632e-18)
(-1.39298 0.110061 0)
(-1.43365 0.105818 0)
(-1.4731 0.101752 5.12583e-18)
(-1.51141 0.0978855 5.01518e-18)
(-1.54866 0.0942257 4.91229e-18)
(-1.5849 0.0907788 -2.40843e-18)
(-1.6202 0.0875395 2.36338e-18)
(-1.65464 0.0845049 6.96515e-18)
(-1.68826 0.0816633 -4.56509e-18)
(-1.72112 0.0790068 -2.24546e-18)
(-1.75327 0.0765201 0)
(-1.78477 0.0741935 2.17772e-18)
(-1.81566 0.0720118 -2.14683e-18)
(-1.84597 0.069966 0)
(-1.87576 0.0680418 0)
(-1.90505 0.066232 0)
(-1.93387 0.0645251 2.03648e-18)
(-1.96226 0.0629163 0)
(-1.99025 0.0613953 -3.97777e-18)
(-2.01786 0.0599588 0)
(-2.04511 0.0585994 -3.89034e-18)
(-2.07203 0.0573158 0)
(-2.09865 0.0561022 3.80992e-18)
(-2.12499 0.0549581 0)
(-2.15107 0.0538797 -3.73565e-18)
(-2.17691 0.0528677 1.85037e-18)
(-2.20254 0.0519204 0)
(-2.22798 0.0510388 3.63419e-18)
(-2.25326 0.0502232 1.80136e-18)
(-2.2784 0.0494736 1.78632e-18)
(-2.30342 0.0487912 0)
(-2.32836 0.0481738 1.75811e-18)
(-2.35323 0.0476221 1.7446e-18)
(-2.37806 0.0471304 0)
(-2.40288 0.0466984 -1.71937e-18)
(-2.4277 0.0463179 3.41505e-18)
(-2.45254 0.0459902 0)
(-2.47742 0.0457054 1.68492e-18)
(-2.50233 0.0454615 0)
(-2.5273 0.0452432 -4.99202e-18)
(-2.55231 0.0450503 0)
(-2.57736 0.0448669 4.93338e-18)
(-2.60247 0.0446917 1.63516e-18)
(-2.62761 0.0445104 -1.62652e-18)
(-2.65275 0.0443372 -3.23637e-18)
(-2.67787 0.0441644 3.22059e-18)
(-2.70292 0.043972 0)
(-2.72782 0.0437165 0)
(-2.75249 0.0434156 0)
(-2.77683 0.0430476 -9.47645e-18)
(-2.80078 0.0425538 -3.14395e-18)
(-2.82429 0.0418979 3.12944e-18)
(-2.84721 0.0410618 0)
(-2.86941 0.0400308 3.10159e-18)
(-2.89073 0.0387809 -3.0869e-18)
(-2.91102 0.0372944 -3.07304e-18)
(-2.93009 0.0355426 0)
(-2.94777 0.0335049 0)
(-2.96386 0.0311582 0)
(-2.97833 0.0284894 -3.01702e-18)
(-2.99112 0.0254642 0)
(-3.00188 0.0221038 5.98257e-18)
(-3.01049 0.0184827 8.9477e-18)
(-3.01705 0.0144767 -5.93876e-18)
(-3.02138 0.0102314 0)
(-3.0235 0.00594825 -2.95844e-18)
(-3.02337 0.00146034 0)
(-3.01999 -0.00309283 -5.89299e-18)
(-3.01302 -0.00766478 2.94448e-18)
(-3.00251 -0.0124626 2.93797e-18)
(-2.98813 -0.0174829 0)
(-2.96958 -0.0226611 8.80143e-18)
(-2.94665 -0.0280096 -5.86284e-18)
(-2.91913 -0.0336074 -2.92937e-18)
(-2.88701 -0.0393519 0)
(-2.84984 -0.0450952 -2.94452e-18)
(-2.80749 -0.0509034 -8.85263e-18)
(-2.76006 -0.0568073 0)
(-2.70736 -0.06271 -5.93672e-18)
(-2.64926 -0.0686448 -5.9659e-18)
(-2.58562 -0.0745445 -6.00007e-18)
(-2.51648 -0.0804204 0)
(-2.44184 -0.0862005 0)
(-2.36167 -0.0918604 0)
(-2.276 -0.0973013 3.09455e-18)
(-2.18492 -0.102527 3.1287e-18)
(-2.08859 -0.107488 0)
(-1.98721 -0.112173 6.41517e-18)
(-1.88101 -0.116539 6.50836e-18)
(-1.77027 -0.12057 0)
(-1.65529 -0.124222 6.72884e-18)
(-1.53644 -0.127481 1.37067e-17)
(-1.41408 -0.130318 -6.99464e-18)
(-1.28864 -0.132725 -7.14175e-18)
(-1.16052 -0.134691 0)
(-1.03019 -0.136222 0)
(-0.898089 -0.137322 0)
(-0.764672 -0.138019 -7.90115e-18)
(-0.630393 -0.138336 8.12404e-18)
(-0.495683 -0.138311 1.67497e-17)
(-0.360925 -0.137975 -8.64503e-18)
(-0.226539 -0.137392 8.92595e-18)
(-0.0923452 -0.136671 9.09832e-18)
(0.0416641 -0.135995 0)
(0.174219 -0.135448 0)
(0.303516 -0.133827 -8.7918e-18)
(0.4287 -0.130288 0)
(0.550093 -0.125597 0)
(0.668207 -0.12042 1.72084e-17)
(0.782964 -0.115055 0)
(0.89418 -0.109645 8.52108e-18)
(1.00172 -0.104282 -8.49532e-18)
(1.10548 -0.0990115 0)
(1.20542 -0.0938754 8.44469e-18)
(1.30154 -0.0889056 0)
(1.39385 -0.0841157 0)
(1.4824 -0.0795084 -8.40852e-18)
(1.56726 -0.0751067 1.67921e-17)
(1.64849 -0.0709116 -8.38905e-18)
(1.72617 -0.0669069 0)
(1.80042 -0.0630934 0)
(1.87137 -0.0594736 8.37782e-18)
(1.93912 -0.0560499 0)
(2.00379 -0.0528121 8.37947e-18)
(2.0655 -0.0497409 0)
(2.12436 -0.0468258 0)
(2.18046 -0.0440604 0)
(2.23392 -0.0414293 8.4008e-18)
(2.2848 -0.038913 0)
(2.33317 -0.0364905 -8.41606e-18)
(2.37907 -0.0341265 0)
(2.42246 -0.031768 0)
(2.46325 -0.0293325 1.68969e-17)
(2.50121 -0.0266989 -1.69284e-17)
(2.53594 -0.023622 0)
(2.56653 -0.0197033 0)
(2.59207 -0.0137209 0)
(2.60908 -0.00337026 5.17785e-17)
(2.62591 0.0178355 0)
(2.61499 0.0565775 -3.54025e-17)
(0.00898072 -0.102499 -7.86619e-22)
(0.0199881 -0.0971185 -3.81921e-17)
(0.0205832 -0.0744954 0)
(0.0183227 -0.0522438 1.58811e-17)
(0.0125779 -0.0302867 0)
(0.00389803 -0.00855306 0)
(-0.00725768 0.012757 7.97921e-23)
(-0.0207093 0.0333778 -5.02053e-18)
(-0.0364744 0.0530658 -4.78151e-18)
(-0.0546706 0.0715642 -4.6114e-18)
(-0.0754612 0.0886434 0)
(-0.0990304 0.104192 0)
(-0.125544 0.118263 4.26934e-18)
(-0.155117 0.131062 8.33648e-18)
(-0.187777 0.14289 -8.12732e-18)
(-0.223438 0.154076 0)
(-0.261906 0.164877 -7.67752e-18)
(-0.302932 0.175416 3.71863e-18)
(-0.346239 0.185708 0)
(-0.391525 0.195655 -6.93889e-18)
(-0.438471 0.205075 -3.34311e-18)
(-0.486748 0.213738 6.43613e-18)
(-0.536025 0.221409 3.09497e-18)
(-0.585972 0.227876 0)
(-0.636274 0.232967 -5.71944e-18)
(-0.686638 0.236565 -5.49762e-18)
(-0.736803 0.238613 0)
(-0.786539 0.23911 -5.08335e-18)
(-0.835631 0.23812 0)
(-0.883921 0.235756 -4.70723e-18)
(-0.931308 0.232173 -2.26815e-18)
(-0.977718 0.22755 0)
(-1.0231 0.22208 0)
(-1.06742 0.215957 0)
(-1.11067 0.209365 0)
(-1.15284 0.202472 0)
(-1.19394 0.195423 0)
(-1.234 0.188344 -3.63514e-18)
(-1.27302 0.181338 5.31122e-18)
(-1.31105 0.17449 0)
(-1.34811 0.167862 0)
(-1.38423 0.1615 0)
(-1.41945 0.155432 2.05902e-22)
(-1.45381 0.149676 -3.16023e-18)
(-1.48735 0.144238 -6.19794e-18)
(-1.52011 0.139118 6.08312e-18)
(-1.55212 0.134306 2.98784e-18)
(-1.58342 0.129792 -2.93712e-18)
(-1.61405 0.12556 -1.82682e-22)
(-1.64405 0.121595 -2.84486e-18)
(-1.67344 0.117879 0)
(-1.70228 0.114393 -2.76231e-18)
(-1.73058 0.111121 -1.63888e-22)
(-1.75838 0.108045 0)
(-1.7857 0.105151 0)
(-1.81258 0.102424 2.62095e-18)
(-1.83904 0.0998517 0)
(-1.8651 0.0974229 0)
(-1.89079 0.0951271 -2.53147e-18)
(-1.91613 0.0929566 -5.0081e-18)
(-1.94114 0.0909037 2.47779e-18)
(-1.96583 0.0889633 0)
(-1.99023 0.0871301 -2.42873e-18)
(-2.01436 0.0854008 0)
(-2.03823 0.0837724 -2.38378e-18)
(-2.06187 0.0822432 -2.36233e-18)
(-2.08529 0.0808124 4.68405e-18)
(-2.10852 0.0794793 2.32254e-18)
(-2.13157 0.0782438 0)
(-2.15447 0.0771049 -4.57127e-18)
(-2.17723 0.0760621 0)
(-2.19987 0.0751129 -6.7553e-18)
(-2.22242 0.0742556 -4.47186e-18)
(-2.24489 0.0734843 -4.44145e-18)
(-2.26731 0.0727951 4.41233e-18)
(-2.28969 0.0721798 -6.57658e-18)
(-2.31205 0.071633 0)
(-2.3344 0.0711428 0)
(-2.35674 0.0706989 4.30784e-18)
(-2.37908 0.0702851 6.42672e-18)
(-2.40144 0.0698913 0)
(-2.42379 0.0695014 -2.1205e-18)
(-2.44615 0.0691075 0)
(-2.46849 0.0687003 6.30329e-18)
(-2.49078 0.0682785 -2.56543e-22)
(-2.513 0.0677988 2.69812e-22)
(-2.53511 0.0672117 -4.1504e-18)
(-2.55706 0.0665118 0)
(-2.57877 0.0657055 4.11824e-18)
(-2.60016 0.0647345 -3.3411e-22)
(-2.62118 0.0635462 0)
(-2.64178 0.0621092 0)
(-2.66185 0.0603977 0)
(-2.68127 0.0583864 -4.04292e-18)
(-2.69993 0.056054 0)
(-2.7177 0.0533736 0)
(-2.73443 0.0503157 0)
(-2.75 0.0468539 0)
(-2.76426 0.0429625 0)
(-2.77712 0.0386243 -3.95487e-18)
(-2.78844 0.0339189 0)
(-2.79796 0.0289504 -3.92933e-18)
(-2.80548 0.0235686 -3.91893e-18)
(-2.81097 0.0177277 3.90719e-18)
(-2.81407 0.0115922 0)
(-2.81469 0.00514421 3.88769e-18)
(-2.81249 -0.00173912 0)
(-2.80706 -0.0089253 3.86893e-18)
(-2.79824 -0.0164125 -3.86009e-18)
(-2.78584 -0.0242877 -1.15486e-17)
(-2.7696 -0.0324764 0)
(-2.74924 -0.0409321 -1.1503e-17)
(-2.72458 -0.0496317 -3.82674e-18)
(-2.69541 -0.0586411 0)
(-2.66158 -0.0678907 -7.63047e-18)
(-2.62277 -0.077211 -7.63402e-18)
(-2.57898 -0.0866315 1.14468e-17)
(-2.53001 -0.0961792 0)
(-2.47583 -0.105727 3.81833e-18)
(-2.4162 -0.115288 3.82516e-18)
(-2.35111 -0.124763 1.1501e-17)
(-2.28052 -0.134147 0)
(-2.20447 -0.143343 0)
(-2.12289 -0.152286 0)
(-2.03586 -0.160879 3.89112e-18)
(-1.94346 -0.169068 0)
(-1.84586 -0.176791 0)
(-1.74326 -0.183997 -3.97415e-18)
(-1.63591 -0.190628 -4.00984e-18)
(-1.52409 -0.196638 0)
(-1.40815 -0.201972 0)
(-1.28844 -0.206594 -8.29209e-18)
(-1.16538 -0.210468 0)
(-1.03938 -0.213574 8.52627e-18)
(-0.910896 -0.215898 8.6569e-18)
(-0.780394 -0.217447 0)
(-0.64834 -0.218235 0)
(-0.515202 -0.218298 -9.13086e-18)
(-0.381437 -0.217676 -3.99624e-21)
(-0.247482 -0.216434 -4.15557e-21)
(-0.113632 -0.214679 0)
(0.0198032 -0.212511 -1.93787e-17)
(0.152104 -0.209814 0)
(0.2825 -0.206421 0)
(0.410407 -0.202372 0)
(0.535211 -0.19773 9.59363e-18)
(0.656533 -0.192315 0)
(0.774412 -0.186092 -1.92465e-17)
(0.888926 -0.17932 -9.65585e-18)
(0.999997 -0.172228 0)
(1.10751 -0.164973 -9.7296e-18)
(1.21137 -0.157669 0)
(1.31152 -0.150397 0)
(1.40794 -0.143222 -2.95965e-17)
(1.50063 -0.136199 1.9829e-17)
(1.58961 -0.12936 0)
(1.67493 -0.122722 2.00337e-17)
(1.75667 -0.116316 -1.00674e-17)
(1.8349 -0.110166 0)
(1.90972 -0.104273 0)
(1.98126 -0.0986366 0)
(2.04963 -0.0932564 -3.07839e-17)
(2.11495 -0.0881374 0)
(2.17731 -0.0832701 -1.03561e-17)
(2.23684 -0.0786371 0)
(2.29365 -0.0742251 0)
(2.34785 -0.0700231 0)
(2.39953 -0.0660099 0)
(2.44876 -0.0621598 0)
(2.49562 -0.0584399 0)
(2.54013 -0.0547966 -2.13425e-17)
(2.58228 -0.0511482 0)
(2.62198 -0.0473738 -1.07608e-17)
(2.65905 -0.0432846 3.24205e-17)
(2.69317 -0.0385461 0)
(2.72368 -0.0325785 0)
(2.75004 -0.0241138 -2.19831e-17)
(2.76989 -0.0110063 -2.21888e-17)
(2.78807 0.0122896 2.23019e-17)
(2.7937 0.0554201 2.27333e-17)
(-0.000578398 -0.119299 1.19043e-16)
(-0.000153983 -0.0951416 4.75119e-17)
(-0.0071087 -0.0646508 1.76523e-17)
(-0.0159392 -0.036444 6.29419e-18)
(-0.0270699 -0.00954286 0)
(-0.0401676 0.0165528 -8.86711e-18)
(-0.0550652 0.0419605 4.00042e-18)
(-0.071733 0.0666336 0)
(-0.0902394 0.0904443 3.52052e-18)
(-0.110702 0.113224 0)
(-0.133263 0.134812 -6.54408e-18)
(-0.158074 0.1551 0)
(-0.18527 0.174069 -3.10621e-18)
(-0.214932 0.191788 -6.06384e-18)
(-0.247059 0.208382 5.91427e-18)
(-0.281559 0.223994 0)
(-0.318252 0.238725 5.59737e-18)
(-0.356892 0.252607 0)
(-0.397187 0.265589 0)
(-0.438823 0.277547 5.07848e-18)
(-0.481484 0.288307 0)
(-0.524863 0.297673 7.00217e-23)
(-0.568673 0.30546 0)
(-0.612656 0.311515 0)
(-0.656586 0.315739 -6.58151e-23)
(-0.700271 0.318092 4.06284e-18)
(-0.743555 0.318592 3.91247e-18)
(-0.786316 0.317313 3.76965e-18)
(-0.828473 0.314384 0)
(-0.869967 0.309991 7.01819e-18)
(-0.910759 0.30434 0)
(-0.95082 0.297644 3.28023e-18)
(-0.990136 0.290119 0)
(-1.02869 0.281967 0)
(-1.06649 0.27338 -2.98992e-18)
(-1.10351 0.264531 0)
(-1.13977 0.255568 2.82668e-18)
(-1.17526 0.246622 -8.34393e-23)
(-1.20998 0.237799 -5.36959e-18)
(-1.24395 0.229184 5.24223e-18)
(-1.27718 0.220843 0)
(-1.30968 0.212822 0)
(-1.34146 0.205153 2.45448e-18)
(-1.37255 0.197855 0)
(-1.40295 0.190935 2.36036e-18)
(-1.4327 0.184394 -2.3177e-18)
(-1.46182 0.178222 -2.27759e-18)
(-1.49032 0.17241 0)
(-1.51824 0.16694 2.20421e-18)
(-1.5456 0.161795 2.17055e-18)
(-1.57242 0.156956 -4.27755e-18)
(-1.59874 0.152402 2.10851e-18)
(-1.62456 0.148113 2.07985e-18)
(-1.64992 0.144072 0)
(-1.67485 0.140259 0)
(-1.69935 0.136657 -2.00191e-18)
(-1.72345 0.133252 0)
(-1.74717 0.13003 0)