/*--------------------------------*- C++ -*----------------------------------*\
| =========                 |                                                 |
| \\      /  F ield         | OpenFOAM: The Open Source CFD Toolbox           |
|  \\    /   O peration     | Version:  2312                                  |
|   \\  /    A nd           | Website:  www.openfoam.com                      |
|    \\/     M anipulation  |                                                 |
\*---------------------------------------------------------------------------*/
FoamFile
{
    version     2.0;
    format      ascii;
    arch        "LSB;label=32;scalar=64";
    class       volScalarField;
    location    "7.125";
    object      divU;
}
// * * * * * * * * * * * * * * * * * * * * * * * * * * * * * * * * * * * * * //

dimensions      [0 0 -1 0 0 0 0];

internalField   nonuniform List<scalar> 
400
(
1.66154e-11
-2.19688e-12
4.5672e-13
-1.7079e-13
-3.46769e-15
7.33772e-15
-1.91713e-14
-6.42926e-16
3.011e-14
-1.78158e-14
1.15973e-14
1.63244e-14
-2.01278e-14
-1.83255e-14
5.99976e-15
-3.32433e-14
1.57004e-14
2.97813e-14
-7.82282e-15
0
-3.0954e-11
3.95712e-12
-8.30562e-13
3.62364e-13
-5.62374e-14
2.77662e-14
-1.48423e-14
4.87675e-14
-5.03213e-14
1.37592e-14
-1.27855e-14
-2.01375e-14
1.81049e-14
4.85612e-14
1.16612e-14
-4.8015e-14
-8.59491e-15
4.12621e-14
-7.9689e-14
5.42101e-14
1.39049e-11
-1.92028e-12
3.45123e-13
-1.55814e-13
-1.77628e-14
2.73212e-14
5.18903e-14
-2.12284e-14
-4.95105e-15
7.25939e-15
4.04522e-14
-3.92368e-14
-4.57874e-14
-9.16444e-15
4.61467e-14
-4.22192e-14
-5.14724e-15
-2.63023e-14
3.02891e-14
-2.71051e-14
9.18861e-12
-2.80395e-13
6.26957e-14
-2.80961e-14
-7.6977e-15
9.38283e-15
6.91146e-15
-8.78879e-16
3.18217e-14
-6.17696e-14
3.2953e-14
1.54995e-14
1.53495e-14
-2.28958e-14
3.12804e-14
-3.50909e-14
2.01414e-15
4.95462e-14
-4.45508e-15
0
-2.09793e-11
1.90505e-12
-3.70751e-13
1.69238e-13
-2.84215e-14
2.65651e-14
2.01678e-14
-1.72723e-14
2.93475e-14
5.36587e-15
1.1779e-14
-7.76956e-14
2.27949e-14
-4.58114e-15
-1.17777e-15
-3.37579e-14
-1.21051e-14
-1.38317e-15
2.59053e-14
0
1.73201e-11
-1.35216e-12
2.91485e-13
-1.68489e-13
1.76289e-14
7.8793e-14
-7.15235e-15
5.34237e-15
4.70395e-14
-3.8422e-14
3.45742e-14
-1.5515e-14
-2.37147e-14
2.8808e-14
5.44127e-15
-1.50916e-14
-1.21506e-14
6.60256e-15
9.23684e-15
-2.71051e-14
2.41235e-12
-9.36676e-13
1.53803e-13
-6.45395e-14
3.202e-14
-3.53979e-14
-2.2665e-14
-2.94382e-15
-6.89521e-14
2.27104e-14
-5.19925e-15
3.94333e-15
6.15557e-14
1.13492e-14
-3.53971e-14
4.22692e-14
-1.05414e-14
-1.479e-14
1.75892e-14
0
-2.05456e-11
3.41683e-12
-7.34666e-13
3.02796e-13
-8.76924e-14
3.90015e-14
2.56104e-14
7.53115e-15
1.04056e-14
-2.53036e-14
2.82646e-14
8.58318e-15
-4.22668e-14
9.36072e-15
4.28837e-14
2.94286e-15
4.05302e-16
1.58066e-14
2.29779e-14
-2.71051e-14
1.87025e-11
-3.66107e-12
7.06804e-13
-3.29537e-13
7.16175e-14
9.47912e-15
-2.23508e-14
1.07614e-14
-3.90576e-14
-5.47059e-14
7.42033e-14
4.24234e-14
1.91614e-14
1.07412e-14
-1.03049e-14
-5.02356e-14
-6.06617e-15
-9.34471e-15
5.3618e-15
0
-6.09864e-12
1.59919e-12
-2.03498e-13
1.12323e-13
-4.33098e-14
9.36792e-15
7.71705e-15
1.29648e-14
-1.79837e-14
2.9571e-14
-1.65217e-14
-5.9489e-14
-3.5921e-14
1.92044e-14
-5.99824e-15
6.44177e-14
-1.37437e-14
2.93421e-14
-1.72435e-14
0
-1.65341e-12
4.92106e-13
-9.24083e-14
3.30367e-14
2.71471e-15
3.10978e-14
1.42764e-14
1.8789e-15
1.23776e-15
2.08652e-14
5.58502e-15
5.06712e-14
4.45725e-14
-5.05902e-14
-4.06851e-15
-1.26697e-14
8.0032e-16
-4.05578e-14
5.7556e-14
0
7.99599e-12
-2.51453e-12
4.55226e-13
-1.75265e-13
5.31039e-14
-2.95287e-16
6.58478e-15
-7.79963e-15
3.28265e-14
-4.80765e-14
1.61519e-16
-5.0987e-14
-6.32513e-14
4.3204e-14
3.64653e-14
-1.42014e-14
2.01389e-14
2.83809e-14
-4.6092e-15
0
-1.73201e-11
3.74534e-12
-7.22943e-13
2.64324e-13
-6.55098e-14
3.15953e-14
-2.75961e-14
-9.34769e-15
4.43479e-14
-7.36081e-16
2.05737e-14
5.36099e-15
-1.24132e-14
2.34093e-14
-5.43739e-14
6.09544e-14
-2.54462e-15
-7.76843e-16
-7.60451e-15
0
1.9597e-11
-3.21868e-12
6.49551e-13
-2.59453e-13
3.32212e-14
-1.04442e-14
3.58139e-14
-2.31243e-14
-1.09249e-14
-2.05307e-14
-7.31734e-16
1.86192e-15
-3.58739e-14
2.91537e-15
3.47245e-14
-5.44446e-15
-1.44554e-14
1.07307e-14
3.1619e-14
-5.42101e-14
-5.66496e-12
1.76042e-12
-3.82045e-13
1.3275e-13
-1.62163e-14
-3.98006e-14
3.18122e-14
2.24722e-16
-1.0808e-14
-1.7156e-15
1.69771e-14
2.06094e-15
2.68567e-15
5.48557e-16
2.56479e-14
-4.75861e-14
5.14632e-14
5.30649e-14
-1.72673e-14
0
-1.61546e-11
1.55283e-12
-3.07252e-13
9.12292e-14
4.40815e-14
2.48803e-14
-1.27724e-14
-7.94547e-14
1.55895e-15
5.64881e-15
3.32848e-14
9.42524e-15
3.41337e-15
-2.36635e-14
-2.01225e-14
1.37036e-14
-5.38352e-14
-7.04833e-15
5.05959e-14
-2.71051e-14
2.28496e-11
-2.58615e-12
4.90675e-13
-2.00538e-13
9.58981e-15
-6.97807e-14
-9.02981e-15
1.10639e-13
-2.9183e-14
-1.00636e-14
2.16857e-14
-4.19557e-14
-2.58059e-15
3.63428e-14
4.48661e-14
-2.39884e-14
7.92518e-15
1.10351e-14
-2.49757e-14
-2.71051e-14
-4.63496e-12
1.29598e-12
-2.48096e-13
1.24439e-13
-1.55577e-15
4.35514e-14
-2.59352e-14
-5.23733e-14
-1.97803e-14
1.44073e-14
-1.52948e-15
4.82206e-14
2.15924e-14
-1.71611e-14
-1.66781e-14
-1.455e-14
-6.13776e-15
7.23117e-15
7.48843e-15
0
-1.88109e-11
1.43325e-12
-3.19691e-13
1.31741e-13
-8.39054e-14
-1.36569e-14
2.77635e-14
1.55657e-14
4.71674e-15
-1.83691e-14
-8.42062e-15
-3.7793e-14
-4.99678e-15
4.48434e-14
-1.6894e-14
3.39974e-14
-3.98954e-14
1.47623e-14
5.0265e-14
0
1.32544e-11
-1.57209e-12
3.79471e-13
-1.35525e-13
2.71051e-14
0
-2.71051e-14
0
0
2.71051e-14
0
-2.71051e-14
0
0
2.71051e-14
2.71051e-14
-2.71051e-14
0
0
0
)
;

boundaryField
{
    movingWall
    {
        type            extrapolatedCalculated;
        value           nonuniform List<scalar> 
20
(
1.32544e-11
-1.57209e-12
3.79471e-13
-1.35525e-13
2.71051e-14
0
-2.71051e-14
0
0
2.71051e-14
0
-2.71051e-14
0
0
2.71051e-14
2.71051e-14
-2.71051e-14
0
0
0
)
;
    }
    fixedWalls
    {
        type            extrapolatedCalculated;
        value           nonuniform List<scalar> 
60
(
1.66154e-11
-3.0954e-11
1.39049e-11
9.18861e-12
-2.09793e-11
1.73201e-11
2.41235e-12
-2.05456e-11
1.87025e-11
-6.09864e-12
-1.65341e-12
7.99599e-12
-1.73201e-11
1.9597e-11
-5.66496e-12
-1.61546e-11
2.28496e-11
-4.63496e-12
-1.88109e-11
1.32544e-11
0
5.42101e-14
-2.71051e-14
0
0
-2.71051e-14
0
-2.71051e-14
0
0
0
0
0
-5.42101e-14
0
-2.71051e-14
-2.71051e-14
0
0
0
1.66154e-11
-2.19688e-12
4.5672e-13
-1.7079e-13
-3.46769e-15
7.33772e-15
-1.91713e-14
-6.42926e-16
3.011e-14
-1.78158e-14
1.15973e-14
1.63244e-14
-2.01278e-14
-1.83255e-14
5.99976e-15
-3.32433e-14
1.57004e-14
2.97813e-14
-7.82282e-15
0
)
;
    }
    frontAndBack
    {
        type            empty;
    }
}


// ************************************************************************* //
