/*--------------------------------*- C++ -*----------------------------------*\
| =========                 |                                                 |
| \\      /  F ield         | OpenFOAM: The Open Source CFD Toolbox           |
|  \\    /   O peration     | Version:  2312                                  |
|   \\  /    A nd           | Website:  www.openfoam.com                      |
|    \\/     M anipulation  |                                                 |
\*---------------------------------------------------------------------------*/
FoamFile
{
    version     2.0;
    format      ascii;
    arch        "LSB;label=32;scalar=64";
    class       volScalarField;
    location    "7.125";
    object      flowTypeField;
}
// * * * * * * * * * * * * * * * * * * * * * * * * * * * * * * * * * * * * * //

dimensions      [0 0 0 0 0 0 0];

internalField   nonuniform List<scalar> 
400
(
0.404233
0.0505562
0.0449178
-0.0625377
0.439657
-0.775756
0.0884058
-0.137677
0.282685
0.429307
0.244987
0.420694
0.974533
0.630312
0.0152822
0.508146
0.123409
0.273334
0.31633
0.245971
0.975179
0.864499
0.959498
0.470186
0.093118
-0.0262055
0.0672885
0.0252706
0.21161
0.105455
0.177284
-0.208184
-0.143481
0.359041
0.0120382
0.481832
-0.451709
-0.0159942
0.143654
0.156712
0.634914
0.1255
0.0899906
-0.0455232
0.391241
-0.134215
0.269191
-0.169726
0.0788409
0.228169
0.520538
0.782643
0.739832
0.949512
0.835852
0.491531
-0.16856
0.514718
0.887351
0.172672
0.569804
0.115653
0.0818049
-0.0543466
0.576505
-0.348836
0.0668203
0.158146
0.235581
0.26904
0.68666
0.897137
-0.116892
-0.259915
0.51639
0.206103
-0.102109
0.295192
0.103713
0.011948
0.881089
0.469046
0.464507
0.597129
0.23439
0.0889274
-0.130386
-0.0520501
-0.0800396
-0.179131
-0.121945
0.212506
0.626231
0.121596
0.516008
0.343601
-0.012744
-0.307957
0.400525
0.281388
0.748543
0.207893
0.178581
0.185375
0.62112
0.404484
0.00728378
0.2719
0.364547
0.390908
0.388239
0.347693
0.655086
0.338643
0.130876
0.15007
4.92969e-05
0.279265
-0.236221
0.630911
0.353579
0.0800897
0.0252771
0.141781
-0.120542
0.122356
-0.073534
0.244181
0.259515
0.111596
0.304987
0.191855
0.849557
-0.104247
0.280566
0.337692
0.270242
0.236088
0.25379
-0.199851
0.715852
0.210637
0.139168
0.222516
0.0600694
0.66034
0.275198
0.944765
0.182797
0.802372
0.31769
-0.159946
0.522104
0.232738
0.877588
0.860459
0.121957
0.646599
0.702841
0.357991
0.820288
0.264614
0.227661
0.470936
-0.280749
-0.04771
0.0981578
0.207092
0.897639
0.138959
0.490807
-0.0211038
0.066412
0.0942567
-0.297106
0.743181
-0.385868
0.0831251
0.276773
0.141267
0.136225
0.0295727
-0.0758158
0.0109251
-0.179541
5.08339e-06
0.371873
0.419031
-0.239343
0.0559471
0.742256
0.350789
0.185832
0.862181
0.258485
0.885348
0.0616805
0.473018
0.622737
-0.325287
-0.167705
-0.0097498
-0.117531
0.0014948
-0.617195
0.226371
0.0923744
0.160162
0.865844
-0.124759
-0.022833
0.297383
0.479379
0.243677
0.010229
0.908919
0.404129
0.184374
0.811668
0.4678
0.251137
0.0402188
-0.0489304
0.0404334
-0.289221
0.438677
-0.155399
-0.0548075
0.123589
0.501134
0.564744
0.70114
0.100871
0.138111
0.904681
-0.0735249
0.0128227
0.85287
-0.284195
-0.129334
0.939763
0.334692
0.373573
0.18604
0.524445
0.954341
0.247959
0.521537
0.61035
0.0427372
-0.157348
-0.218412
-0.186615
-0.00783223
0.160861
0.100192
0.111479
0.145585
0.582635
0.314623
0.716475
0.199047
0.186408
0.115245
0.167738
0.0674264
0.076697
-0.164373
-0.194778
0.211974
0.125919
-0.312126
-0.0296529
-0.0797696
0.582578
0.404417
0.108381
0.221599
0.136433
0.827673
0.335974
0.0751108
0.0113019
0.0745034
0.00780077
0.213092
0.567923
-0.0742488
3.4152e-05
0.66673
0.823832
0.00995886
0.286896
0.513886
-0.0566234
0.145002
0.854027
0.868201
0.0557247
0.711899
0.573831
0.127979
0.0495176
0.149446
0.172407
0.934345
-0.154333
0.827966
-0.0847069
0.223337
0.175433
-0.199874
-0.160462
0.191034
0.862119
-0.231012
0.312598
0.178817
0.674261
0.135982
0.899431
0.788401
0.87413
0.616055
0.573567
0.675889
0.404984
0.530415
-0.132856
-0.0648554
0.217994
0.43921
0.272976
0.979233
0.720308
-0.101117
0.25858
-0.139137
0.82544
0.874509
0.613449
0.136966
0.0545249
0.141163
0.00289615
0.770016
-0.119993
0.493849
-0.320471
0.395454
0.917559
0.77389
0.449471
0.677216
-0.140894
-0.0987091
-0.165266
-0.0532714
0.129047
0.0615432
0.766342
0.312471
0.254752
0.501322
-0.125495
0.310898
-0.128427
-0.1803
-0.0942495
0.0902533
0.155176
0.720939
0.0755613
0.783906
0.717428
0.271607
0.203545
0.703996
0.904761
0.648047
0.641568
0.115474
0.147913
-0.0137493
0.672318
0.260746
0.467092
0.141602
0.280764
0.574784
0.0209064
0.0777364
0.403712
0.313501
-0.0400354
0.125826
0.908885
0.0435641
0.0912759
0.0216108
)
;

boundaryField
{
    movingWall
    {
        type            calculated;
        value           nonuniform List<scalar> 
20
(
0.602991
0.111219
0.365555
-0.151017
0.386985
-0.0574123
0.0474377
0.0177139
0.00139437
-0.0728613
0.00405915
0.184936
0.0344378
0.225884
0.293657
0.170844
0.173296
0.928038
0.501783
0.0558833
)
;
    }
    fixedWalls
    {
        type            calculated;
        value           nonuniform List<scalar> 
60
(
0.0529913
0.889521
0.121928
0.110816
0.477649
0.207489
0.0684137
0.202658
0.272305
0.00540673
-0.0359146
0.025541
0.366296
0.198231
0.0618136
0.112087
0.818643
0.120069
0.303804
0.131951
0.58128
0.406869
0.0731596
0.0048933
0.0169237
0.591364
-0.00688446
0.433434
0.563003
-0.557917
0.944115
-0.417077
0.729514
0.823575
0.743643
0.0160843
0.0882685
0.731739
0.248617
0.10031
0.669392
0.173621
0.295298
0.0607756
0.901009
-0.247193
0.00454212
-0.0249671
0.0876615
0.147542
0.122517
0.10498
0.51345
0.690862
0.374367
0.332895
0.684026
0.639511
0.100213
0.161754
)
;
    }
    frontAndBack
    {
        type            empty;
    }
}


// ************************************************************************* //
