/*--------------------------------*- C++ -*----------------------------------*\
| =========                 |                                                 |
| \\      /  F ield         | OpenFOAM: The Open Source CFD Toolbox           |
|  \\    /   O peration     | Version:  2312                                  |
|   \\  /    A nd           | Website:  www.openfoam.com                      |
|    \\/     M anipulation  |                                                 |
\*---------------------------------------------------------------------------*/
FoamFile
{
    version     2.0;
    format      ascii;
    arch        "LSB;label=32;scalar=64";
    class       surfaceScalarField;
    location    "7.125";
    object      fluxField;
}
// * * * * * * * * * * * * * * * * * * * * * * * * * * * * * * * * * * * * * //

dimensions      [0 3 -1 0 0 0 0];

oriented        oriented;

internalField   nonuniform List<scalar> 
760
(
-5e-05
4.43188e-18
-5e-05
-9.62572e-19
-5e-05
2.226e-19
-5e-05
-4.94738e-20
-5e-05
1.26856e-20
-5e-05
1.83443e-21
-5e-05
1.98343e-21
-5e-05
-1.60731e-22
-5e-05
7.51233e-22
-5e-05
2.32231e-21
-5e-05
2.89932e-21
-5e-05
4.08111e-21
-5e-05
8.52057e-21
-5e-05
8.97115e-21
-5e-05
1.49994e-21
-5e-05
-8.31082e-21
-5e-05
-9.62744e-21
-5e-05
6.69062e-22
-5e-05
4.82056e-21
1.21533e-21
-5e-05
-3.9137e-18
-5e-05
8.53755e-19
-5e-05
-2.0764e-19
-5e-05
4.31571e-20
-5e-05
-7.28309e-21
-5e-05
6.94155e-21
-5e-05
3.0657e-21
-5e-05
5.4156e-21
-5e-05
7.74847e-21
-5e-05
3.43981e-21
-5e-05
3.5799e-21
-5e-05
1.74188e-21
-5e-05
4.52623e-21
-5e-05
5.36403e-21
-5e-05
2.91531e-21
-5e-05
-5.22749e-21
-5e-05
-8.92499e-21
-5e-05
-3.23699e-21
-5e-05
4.0653e-22
-1.44083e-21
-5e-05
-1.59586e-19
-5e-05
1.45961e-20
-5e-05
-8.58691e-21
-5e-05
1.70409e-21
-5e-05
2.33555e-21
-5e-05
5.40395e-23
-5e-05
-5.79943e-22
-5e-05
1.46916e-21
-5e-05
5.5385e-21
-5e-05
1.81485e-21
-5e-05
3.33678e-21
-5e-05
3.74333e-21
-5e-05
2.10567e-21
-5e-05
-2.29111e-21
-5e-05
-2.01585e-21
-5e-05
-3.77854e-21
-5e-05
-8.06307e-21
-5e-05
-6.57557e-21
-5e-05
-5.98025e-21
-4.1606e-21
-5e-05
2.58966e-18
-5e-05
-5.78318e-19
-5e-05
1.37647e-19
-5e-05
-2.73528e-20
-5e-05
1.16281e-20
-5e-05
2.34571e-21
-5e-05
1.72786e-21
-5e-05
-2.1972e-22
-5e-05
1.17917e-21
-5e-05
-1.88988e-21
-5e-05
-5.31429e-21
-5e-05
-2.90139e-21
-5e-05
-2.93889e-21
-5e-05
-5.72394e-21
-5e-05
-5.73242e-21
-5e-05
-1.99646e-21
-5e-05
-6.27273e-21
-5e-05
-7.94224e-21
-5e-05
-7.89003e-21
-5.17812e-21
-5e-05
-3.28251e-18
-5e-05
7.20209e-19
-5e-05
-1.67227e-19
-5e-05
3.55332e-20
-5e-05
-7.10537e-21
-5e-05
6.64128e-21
-5e-05
5.04196e-21
-5e-05
2.45819e-21
-5e-05
5.6061e-22
-5e-05
1.34147e-21
-5e-05
-3.8315e-21
-5e-05
-5.87137e-21
-5e-05
-7.85379e-21
-5e-05
-7.92155e-21
-5e-05
-7.07071e-21
-5e-05
-1.6632e-21
-5e-05
-3.02627e-21
-5e-05
-7.12206e-21
-5e-05
-7.0762e-21
-3.18405e-21
-5e-05
1.65774e-18
-5e-05
-3.71921e-19
-5e-05
7.96476e-20
-5e-05
-2.85697e-20
-5e-05
-2.36903e-21
-5e-05
-6.3053e-22
-5e-05
4.98818e-21
-5e-05
1.33559e-21
-5e-05
-1.79265e-21
-5e-05
3.94702e-21
-5e-05
1.86728e-21
-5e-05
-3.87876e-21
-5e-05
-5.92868e-21
-5e-05
-6.35053e-21
-5e-05
-5.41595e-21
-5e-05
-3.77291e-21
-5e-05
-3.03764e-21
-5e-05
-5.12562e-21
-5e-05
-4.46705e-21
-5.5965e-22
-5e-05
2.16499e-18
-5e-05
-4.91667e-19
-5e-05
9.94372e-20
-5e-05
-3.64637e-20
-5e-05
1.22874e-21
-5e-05
-2.07322e-21
-5e-05
1.11002e-21
-5e-05
-7.35956e-22
-5e-05
-3.6855e-21
-5e-05
-1.09867e-21
-5e-05
-1.29981e-21
-5e-05
-5.79043e-21
-5e-05
-4.93987e-21
-5e-05
-3.93896e-21
-5e-05
-2.07301e-21
-5e-05
-2.98523e-21
-5e-05
-2.63536e-21
-5e-05
-3.69749e-21
-5e-05
-2.37897e-21
-3.89637e-23
-5e-05
-3.14586e-18
-5e-05
6.71248e-19
-5e-05
-1.7689e-19
-5e-05
2.8265e-20
-5e-05
-8.37056e-21
-5e-05
-3.80216e-21
-5e-05
-7.14994e-21
-5e-05
-4.89348e-21
-5e-05
-4.17487e-21
-5e-05
-6.3259e-21
-5e-05
-6.48638e-21
-5e-05
-4.63047e-21
-5e-05
-3.79044e-21
-5e-05
-4.43608e-21
-5e-05
-2.83161e-21
-5e-05
7.35716e-22
-5e-05
1.01325e-22
-5e-05
-2.82462e-21
-5e-05
-1.03179e-21
9.50712e-22
-5e-05
1.48153e-18
-5e-05
-3.18956e-19
-5e-05
6.82808e-20
-5e-05
-1.46216e-20
-5e-05
4.35186e-21
-5e-05
-4.40648e-21
-5e-05
-5.58769e-21
-5e-05
-4.08592e-21
-5e-05
-2.98813e-21
-5e-05
-6.90022e-21
-5e-05
-8.55424e-21
-5e-05
-2.94669e-21
-5e-05
-1.98591e-21
-5e-05
-4.09096e-21
-5e-05
-2.57622e-21
-5e-05
9.93617e-22
-5e-05
-1.51654e-21
-5e-05
-2.33618e-21
-5e-05
1.34045e-21
2.0367e-21
-5e-05
6.69109e-20
-5e-05
-6.7782e-21
-5e-05
1.0112e-20
-5e-05
9.75623e-22
-5e-05
-4.05119e-21
-5e-05
-4.43428e-21
-5e-05
-4.847e-21
-5e-05
-3.53506e-21
-5e-05
-4.49592e-21
-5e-05
-6.15979e-21
-5e-05
-4.13041e-21
-5e-05
-1.31972e-21
-5e-05
-2.20398e-21
-5e-05
-1.97516e-21
-5e-05
-1.49956e-21
-5e-05
-4.22436e-21
-5e-05
-3.43591e-21
-5e-05
5.59251e-22
-5e-05
2.46539e-21
8.80477e-22
-5e-05
-2.96165e-19
-5e-05
5.52637e-20
-5e-05
-9.54955e-21
-5e-05
1.4829e-21
-5e-05
-6.09759e-21
-5e-05
-5.77808e-21
-5e-05
-3.20717e-21
-5e-05
4.69726e-22
-5e-05
3.09441e-22
-5e-05
-1.55995e-21
-5e-05
1.39625e-21
-5e-05
-8.84735e-22
-5e-05
-2.40941e-21
-5e-05
9.04974e-22
-5e-05
-1.01713e-21
-5e-05
-3.16743e-21
-5e-05
2.0008e-22
-5e-05
3.41307e-21
-5e-05
8.36481e-22
-9.63223e-22
-5e-05
1.41766e-18
-5e-05
-3.10148e-19
-5e-05
7.31488e-20
-5e-05
-9.93487e-21
-5e-05
6.4997e-21
-5e-05
-7.38218e-23
-5e-05
1.64619e-21
-5e-05
4.82636e-21
-5e-05
8.20664e-21
-5e-05
8.30968e-21
-5e-05
6.81664e-21
-5e-05
8.05781e-22
-5e-05
-2.26031e-21
-5e-05
-2.75153e-21
-5e-05
-4.43621e-21
-5e-05
-3.55035e-21
-5e-05
-1.74154e-21
-5e-05
3.18968e-22
-5e-05
-1.1523e-21
-2.04772e-21
-5e-05
-2.84453e-18
-5e-05
6.31403e-19
-5e-05
-1.46854e-19
-5e-05
3.8976e-20
-5e-05
-2.82491e-21
-5e-05
7.89882e-21
-5e-05
6.6535e-21
-5e-05
4.43934e-21
-5e-05
4.3107e-21
-5e-05
6.59224e-21
-5e-05
5.14343e-21
-5e-05
1.34025e-21
-5e-05
-3.10331e-21
-5e-05
-7.70021e-21
-5e-05
-6.81722e-21
-5e-05
-5.09019e-21
-5e-05
-6.36154e-22
-5e-05
-1.94211e-22
-5e-05
-1.90113e-21
-2.00042e-21
-5e-05
2.25993e-18
-5e-05
-4.99738e-19
-5e-05
1.14954e-19
-5e-05
-2.42056e-20
-5e-05
8.30531e-21
-5e-05
4.16521e-21
-5e-05
8.95347e-21
-5e-05
7.77146e-21
-5e-05
4.04504e-21
-5e-05
1.64359e-21
-5e-05
-1.82933e-22
-5e-05
4.65479e-22
-5e-05
-2.1922e-21
-5e-05
-6.04742e-21
-5e-05
-4.8714e-21
-5e-05
-1.36111e-21
-5e-05
3.16242e-21
-5e-05
2.68269e-21
-5e-05
1.1285e-21
1.52198e-21
-5e-05
1.03599e-18
-5e-05
-2.51073e-19
-5e-05
5.35667e-20
-5e-05
-1.42463e-20
-5e-05
2.72218e-21
-5e-05
-3.17389e-21
-5e-05
1.17679e-21
-5e-05
6.83244e-21
-5e-05
4.07427e-21
-5e-05
-4.289e-22
-5e-05
-2.53198e-21
-5e-05
5.15234e-22
-5e-05
6.71416e-22
-5e-05
1.37139e-22
-5e-05
-3.643e-22
-5e-05
1.65601e-21
-5e-05
-6.86732e-22
-5e-05
-2.86309e-22
-5e-05
2.45944e-21
4.28013e-21
-5e-05
-3.47025e-18
-5e-05
7.47351e-19
-5e-05
-1.78457e-19
-5e-05
3.63598e-20
-5e-05
-9.30842e-21
-5e-05
-5.5619e-22
-5e-05
-3.19311e-21
-5e-05
4.65112e-22
-5e-05
3.89738e-22
-5e-05
1.4122e-21
-5e-05
1.54494e-21
-5e-05
2.35631e-21
-5e-05
8.53343e-22
-5e-05
8.60393e-22
-5e-05
1.74563e-21
-5e-05
3.42591e-21
-5e-05
9.37243e-23
-5e-05
-1.76208e-21
-5e-05
-9.03557e-22
2.78672e-21
-5e-05
2.73129e-18
-5e-05
-5.85551e-19
-5e-05
1.42997e-19
-5e-05
-2.98058e-20
-5e-05
9.17372e-21
-5e-05
2.88361e-21
-5e-05
-2.25745e-21
-5e-05
-6.22165e-21
-5e-05
-5.19496e-22
-5e-05
4.26036e-21
-5e-05
5.42143e-21
-5e-05
3.06359e-21
-5e-05
-6.45147e-22
-5e-05
-4.46682e-21
-5e-05
-2.33601e-21
-5e-05
7.79163e-22
-5e-05
1.98129e-21
-5e-05
2.75876e-21
-5e-05
5.32347e-22
1.34025e-21
-5e-05
1.74562e-18
-5e-05
-4.01066e-19
-5e-05
9.383e-20
-5e-05
-2.31003e-20
-5e-05
6.38732e-21
-5e-05
4.11158e-21
-5e-05
2.92466e-22
-5e-05
-6.31706e-21
-5e-05
-4.94508e-21
-5e-05
-3.17444e-21
-5e-05
-3.8237e-22
-5e-05
-1.49737e-21
-5e-05
-1.37816e-21
-5e-05
-4.29026e-21
-5e-05
-4.16952e-21
-5e-05
-3.63749e-21
-5e-05
-1.53444e-21
-5e-05
1.80779e-21
-5e-05
1.87211e-21
4.21747e-22
-5e-05
-3.53896e-18
-5e-05
7.31007e-19
-5e-05
-1.81567e-19
-5e-05
3.29351e-20
-5e-05
-7.42383e-21
-5e-05
3.36205e-21
-5e-05
1.6461e-22
-5e-05
-2.88483e-21
-5e-05
-5.59708e-21
-5e-05
-4.59227e-21
-5e-05
-2.10516e-21
-5e-05
-2.67198e-21
-5e-05
-1.24919e-21
-5e-05
-2.34167e-21
-5e-05
-4.22349e-21
-5e-05
-5.05318e-21
-5e-05
-3.19758e-21
-5e-05
-3.0857e-21
-5e-05
-9.86278e-22
-2.70638e-22
-5e-05
-5e-05
-5e-05
-5e-05
-5e-05
-5e-05
-5e-05
-5e-05
-5e-05
-5e-05
-5e-05
-5e-05
-5e-05
-5e-05
-5e-05
-5e-05
-5e-05
-5e-05
-5e-05
)
;

boundaryField
{
    movingWall
    {
        type            calculated;
        value           uniform -0;
    }
    fixedWalls
    {
        type            calculated;
        value           nonuniform List<scalar> 
60
(
5e-05
5e-05
5e-05
5e-05
5e-05
5e-05
5e-05
5e-05
5e-05
5e-05
5e-05
5e-05
5e-05
5e-05
5e-05
5e-05
5e-05
5e-05
5e-05
5e-05
-5e-05
-5e-05
-5e-05
-5e-05
-5e-05
-5e-05
-5e-05
-5e-05
-5e-05
-5e-05
-5e-05
-5e-05
-5e-05
-5e-05
-5e-05
-5e-05
-5e-05
-5e-05
-5e-05
-5e-05
0
0
0
0
0
0
0
0
0
0
0
0
0
0
0
0
0
0
0
0
)
;
    }
    frontAndBack
    {
        type            empty;
        value           nonuniform List<scalar> 0();
    }
}


// ************************************************************************* //
