/*--------------------------------*- C++ -*----------------------------------*\
| =========                 |                                                 |
| \\      /  F ield         | OpenFOAM: The Open Source CFD Toolbox           |
|  \\    /   O peration     | Version:  2312                                  |
|   \\  /    A nd           | Website:  www.openfoam.com                      |
|    \\/     M anipulation  |                                                 |
\*---------------------------------------------------------------------------*/
FoamFile
{
    version     2.0;
    format      ascii;
    arch        "LSB;label=32;scalar=64";
    class       volTensorField;
    location    "7.125";
    object      gradU;
}
// * * * * * * * * * * * * * * * * * * * * * * * * * * * * * * * * * * * * * //

dimensions      [0 0 -1 0 0 0 0];

internalField   nonuniform List<tensor> 
400
(
(-1.11131e-12 1.44443e-11 0 1.76183e-12 1.77275e-11 0 0 0 0)
(1.65341e-12 -1.75223e-11 0 -4.33681e-13 -3.85029e-12 0 0 0 0)
(-4.33681e-13 3.8171e-12 0 5.42101e-14 8.90401e-13 0 0 0 0)
(2.71051e-14 -8.94729e-13 0 8.13152e-14 -1.97895e-13 0 0 0 0)
(-5.42101e-14 1.9647e-13 0 8.13152e-14 5.07424e-14 0 0 0 0)
(0 -4.76979e-14 0 5.42101e-14 7.33772e-15 0 0 0 0)
(-2.71051e-14 -1.2392e-15 0 5.42101e-14 7.93372e-15 0 0 0 0)
(0 -7.56587e-15 0 5.42101e-14 -6.42926e-16 0 0 0 0)
(2.71051e-14 1.17785e-14 0 5.42101e-14 3.00493e-15 0 0 0 0)
(-2.71051e-14 1.71427e-14 0 0 9.28924e-15 0 0 0 0)
(0 1.20718e-14 0 0 1.15973e-14 0 0 0 0)
(0 9.80949e-15 0 0 1.63244e-14 0 0 0 0)
(-5.42101e-14 -4.69993e-16 0 0 3.40823e-14 0 0 0 0)
(-5.42101e-14 -2.08297e-14 0 0 3.58846e-14 0 0 0 0)
(0 -3.34367e-14 0 0 5.99976e-15 0 0 0 0)
(0 -1.5687e-14 0 0 -3.32433e-14 0 0 0 0)
(5.42101e-14 2.29591e-14 0 -5.42101e-14 -3.85097e-14 0 0 0 0)
(2.71051e-14 2.63199e-14 0 0 2.67625e-15 0 0 0 0)
(-2.71051e-14 -5.99165e-16 0 2.71051e-14 1.92822e-14 0 0 0 0)
(0 -1.33766e-14 0 -5.42101e-14 4.86132e-15 0 0 0 0)
(2.43945e-12 -5.67077e-13 0 2.71051e-14 -3.33823e-11 0 0 0 0)
(-3.30682e-12 6.85206e-13 0 -1.35525e-13 7.26531e-12 0 0 0 0)
(8.94467e-13 -1.64703e-13 0 -1.0842e-13 -1.72096e-12 0 0 0 0)
(0 5.50704e-14 0 -1.35525e-13 3.70524e-13 0 0 0 0)
(2.71051e-14 8.76244e-15 0 -1.35525e-13 -7.98748e-14 0 0 0 0)
(0 4.88924e-15 0 -1.0842e-13 2.04285e-14 0 0 0 0)
(-2.71051e-14 -6.74145e-15 0 -1.35525e-13 4.32907e-15 0 0 0 0)
(2.71051e-14 2.63708e-15 0 -1.0842e-13 2.23053e-14 0 0 0 0)
(-8.13152e-14 -1.84631e-15 0 -1.0842e-13 2.79889e-14 0 0 0 0)
(0 -8.55035e-15 0 -8.13152e-14 4.46999e-15 0 0 0 0)
(-2.71051e-14 -5.03656e-15 0 -5.42101e-14 2.7223e-15 0 0 0 0)
(0 1.26755e-14 0 -5.42101e-14 -9.35692e-15 0 0 0 0)
(2.71051e-14 2.00302e-14 0 -8.13152e-14 -1.59774e-14 0 0 0 0)
(5.42101e-14 -7.25276e-15 0 -5.42101e-14 -1.44285e-14 0 0 0 0)
(0 -3.56912e-14 0 0 5.66146e-15 0 0 0 0)
(-5.42101e-14 -2.88225e-14 0 0 1.23333e-14 0 0 0 0)
(0 1.29605e-14 0 -2.71051e-14 2.80978e-15 0 0 0 0)
(5.42101e-14 3.1472e-14 0 -5.42101e-14 -1.56242e-14 0 0 0 0)
(-5.42101e-14 2.78424e-15 0 -8.13152e-14 -1.76561e-14 0 0 0 0)
(5.42101e-14 -1.0767e-14 0 5.42101e-14 -1.06246e-14 0 0 0 0)
(-1.11131e-12 -1.16727e-11 0 -5.55654e-12 1.50165e-11 0 0 0 0)
(1.43657e-12 1.41391e-11 0 1.40946e-12 -3.35664e-12 0 0 0 0)
(-4.60786e-13 -3.07769e-12 0 -1.6263e-13 7.96214e-13 0 0 0 0)
(0 7.46359e-13 0 -5.42101e-14 -1.65812e-13 0 0 0 0)
(-5.42101e-14 -1.53625e-13 0 -5.42101e-14 3.84746e-14 0 0 0 0)
(5.42101e-14 3.65059e-14 0 -1.35525e-13 -2.755e-14 0 0 0 0)
(5.42101e-14 6.37648e-16 0 -5.42101e-14 -1.45826e-14 0 0 0 0)
(0 1.6094e-14 0 -8.13152e-14 -1.57858e-14 0 0 0 0)
(0 -6.05687e-15 0 -8.13152e-14 -8.83987e-15 0 0 0 0)
(2.71051e-14 -8.12393e-15 0 -5.42101e-14 -6.49983e-15 0 0 0 0)
(5.42101e-14 -1.75515e-15 0 -2.71051e-14 -9.72473e-16 0 0 0 0)
(-5.42101e-14 -8.89018e-15 0 0 8.0058e-15 0 0 0 0)
(-2.71051e-14 -5.54159e-15 0 0 -9.68221e-15 0 0 0 0)
(2.71051e-14 8.09086e-16 0 0 -3.06205e-14 0 0 0 0)
(5.42101e-14 -6.67491e-15 0 0 -1.97246e-14 0 0 0 0)
(-5.42101e-14 -1.85387e-14 0 -5.42101e-14 5.79581e-15 0 0 0 0)
(0 -4.99845e-15 0 2.71051e-14 3.44767e-15 0 0 0 0)
(0 5.85405e-15 0 0 -1.33543e-14 0 0 0 0)
(5.42101e-14 4.40042e-15 0 0 -2.55471e-14 0 0 0 0)
(0 1.49042e-14 0 0 -1.08791e-14 0 0 0 0)
(-1.81604e-12 1.10928e-11 0 4.93312e-12 1.0997e-11 0 0 0 0)
(2.08709e-12 -1.35351e-11 0 -1.27394e-12 -2.37166e-12 0 0 0 0)
(-5.14996e-13 3.02612e-12 0 1.6263e-13 5.84934e-13 0 0 0 0)
(8.13152e-14 -7.02669e-13 0 5.42101e-14 -1.16228e-13 0 0 0 0)
(-5.42101e-14 1.47024e-13 0 8.13152e-14 3.71702e-14 0 0 0 0)
(0 -4.81679e-14 0 1.35525e-13 9.16667e-15 0 0 0 0)
(0 5.02283e-15 0 8.13152e-14 9.23123e-15 0 0 0 0)
(0 8.37977e-15 0 5.42101e-14 -6.75552e-15 0 0 0 0)
(5.42101e-14 7.43962e-15 0 8.13152e-14 -1.74373e-14 0 0 0 0)
(-5.42101e-14 -6.82949e-16 0 5.42101e-14 -1.48189e-14 0 0 0 0)
(5.42101e-14 9.46907e-15 0 2.71051e-14 -3.46043e-14 0 0 0 0)
(5.42101e-14 3.96575e-15 0 0 -2.65789e-14 0 0 0 0)
(2.71051e-14 -1.85962e-14 0 8.13152e-14 -2.01782e-14 0 0 0 0)
(0 -1.72952e-14 0 5.42101e-14 -1.37313e-14 0 0 0 0)
(5.42101e-14 7.25181e-16 0 2.71051e-14 -1.48663e-14 0 0 0 0)
(-5.42101e-14 -5.65022e-15 0 5.42101e-14 7.12834e-15 0 0 0 0)
(0 -6.18968e-15 0 5.42101e-14 7.16137e-15 0 0 0 0)
(5.42101e-14 2.47724e-15 0 5.42101e-14 -5.46665e-15 0 0 0 0)
(0 5.25947e-15 0 5.42101e-14 -7.63913e-15 0 0 0 0)
(0 2.56593e-14 0 0 -4.07006e-15 0 0 0 0)
(2.49366e-12 -3.0474e-12 0 -9.21572e-13 -2.34887e-11 0 0 0 0)
(-3.27971e-12 3.72701e-12 0 2.71051e-13 5.19411e-12 0 0 0 0)
(8.40257e-13 -8.22259e-13 0 0 -1.21949e-12 0 0 0 0)
(-8.13152e-14 1.98595e-13 0 8.13152e-14 2.51544e-13 0 0 0 0)
(5.42101e-14 -2.82303e-14 0 5.42101e-14 -7.49339e-14 0 0 0 0)
(0 8.56695e-15 0 1.0842e-13 1.71823e-14 0 0 0 0)
(0 -1.52845e-14 0 1.0842e-13 1.32564e-14 0 0 0 0)
(-2.71051e-14 -1.05745e-14 0 1.35525e-13 1.07116e-14 0 0 0 0)
(2.71051e-14 -1.41203e-14 0 1.35525e-13 -2.47424e-15 0 0 0 0)
(0 -2.52909e-14 0 1.35525e-13 1.29254e-14 0 0 0 0)
(0 -1.35151e-14 0 1.0842e-13 5.93114e-15 0 0 0 0)
(-5.42101e-14 5.53586e-15 0 8.13152e-14 -1.18799e-14 0 0 0 0)
(5.42101e-14 7.30595e-15 0 2.71051e-14 -1.96596e-14 0 0 0 0)
(0 6.12104e-15 0 5.42101e-14 -8.79044e-15 0 0 0 0)
(0 1.41847e-14 0 2.71051e-14 -5.35317e-15 0 0 0 0)
(-2.71051e-14 3.48896e-15 0 2.71051e-14 1.33303e-15 0 0 0 0)
(-2.71051e-14 -1.75934e-14 0 2.71051e-14 1.29859e-14 0 0 0 0)
(0 -8.94645e-15 0 2.71051e-14 3.28072e-15 0 0 0 0)
(2.71051e-14 5.79701e-15 0 2.71051e-14 3.25534e-15 0 0 0 0)
(-2.71051e-14 2.66134e-14 0 0 7.97628e-15 0 0 0 0)
(-2.43945e-12 -7.20179e-12 0 -2.90024e-12 1.9761e-11 0 0 0 0)
(3.00866e-12 8.73411e-12 0 7.86047e-13 -4.36852e-12 0 0 0 0)
(-7.04731e-13 -1.91644e-12 0 -8.13152e-14 9.87497e-13 0 0 0 0)
(8.13152e-14 4.41891e-13 0 2.71051e-14 -2.56412e-13 0 0 0 0)
(0 -8.73374e-14 0 -5.42101e-14 1.89454e-14 0 0 0 0)
(1.0842e-13 4.00224e-14 0 -2.71051e-14 -2.90872e-14 0 0 0 0)
(0 -1.44781e-15 0 0 -2.15135e-16 0 0 0 0)
(0 -7.35085e-15 0 -2.71051e-14 -4.49039e-15 0 0 0 0)
(5.42101e-14 9.65337e-15 0 -2.71051e-14 -9.41305e-15 0 0 0 0)
(-5.42101e-14 7.72243e-15 0 -2.71051e-14 1.04222e-14 0 0 0 0)
(0 -1.53362e-14 0 0 2.27951e-14 0 0 0 0)
(-2.71051e-14 -2.1625e-14 0 0 7.97045e-15 0 0 0 0)
(-2.71051e-14 -1.55067e-14 0 -2.71051e-14 7.70043e-15 0 0 0 0)
(2.71051e-14 -2.98871e-15 0 -2.71051e-14 6.28408e-15 0 0 0 0)
(0 1.08487e-14 0 0 6.61904e-15 0 0 0 0)
(0 1.26888e-14 0 0 -8.43884e-15 0 0 0 0)
(0 -4.24199e-15 0 0 -4.54983e-17 0 0 0 0)
(0 -7.25328e-15 0 0 7.98573e-15 0 0 0 0)
(0 9.95502e-15 0 -2.71051e-14 1.04366e-14 0 0 0 0)
(-2.71051e-14 1.44276e-14 0 2.71051e-14 1.04976e-14 0 0 0 0)
(4.06576e-13 1.23451e-11 0 4.2826e-12 2.029e-12 0 0 0 0)
(-4.60786e-13 -1.50465e-11 0 -1.19262e-12 -4.78983e-13 0 0 0 0)
(8.13152e-14 3.28985e-12 0 8.13152e-14 7.91586e-14 0 0 0 0)
(-2.71051e-14 -7.69957e-13 0 -1.0842e-13 -3.1576e-14 0 0 0 0)
(2.71051e-14 1.99094e-13 0 -2.71051e-14 1.43911e-14 0 0 0 0)
(-2.71051e-14 -1.05935e-14 0 -1.0842e-13 -5.77075e-15 0 0 0 0)
(0 9.3123e-15 0 -1.0842e-13 -1.55126e-14 0 0 0 0)
(0 -1.97725e-14 0 -8.13152e-14 -8.28619e-15 0 0 0 0)
(-5.42101e-14 7.92324e-16 0 -5.42101e-14 -7.5714e-15 0 0 0 0)
(5.42101e-14 6.91729e-15 0 -8.13152e-14 -2.01827e-14 0 0 0 0)
(0 -1.59668e-14 0 -5.42101e-14 -1.26684e-14 0 0 0 0)
(0 -9.55884e-15 0 0 -7.6467e-15 0 0 0 0)
(5.42101e-14 5.61958e-15 0 0 3.95524e-15 0 0 0 0)
(0 5.03966e-15 0 -2.71051e-14 9.64627e-15 0 0 0 0)
(-5.42101e-14 -5.38182e-16 0 -5.42101e-14 1.33717e-14 0 0 0 0)
(2.71051e-14 -3.17558e-15 0 -2.71051e-14 3.15073e-15 0 0 0 0)
(0 -1.16886e-15 0 0 1.60912e-15 0 0 0 0)
(-2.71051e-14 1.53563e-15 0 -2.71051e-14 5.71252e-15 0 0 0 0)
(0 8.30887e-15 0 0 8.35234e-15 0 0 0 0)
(0 5.67918e-15 0 -2.71051e-14 2.08275e-15 0 0 0 0)
(6.77626e-13 -5.65177e-12 0 -5.69206e-13 -2.12434e-11 0 0 0 0)
(-1.24683e-12 6.78427e-12 0 3.52366e-13 4.65166e-12 0 0 0 0)
(3.79471e-13 -1.46904e-12 0 1.35525e-13 -1.10531e-12 0 0 0 0)
(5.42101e-14 3.77123e-13 0 2.71051e-14 2.58915e-13 0 0 0 0)
(-5.42101e-14 -6.15322e-14 0 2.71051e-14 -3.83972e-14 0 0 0 0)
(5.42101e-14 1.01186e-14 0 2.71051e-14 -6.91577e-15 0 0 0 0)
(5.42101e-14 -3.96326e-15 0 5.42101e-14 -3.30398e-14 0 0 0 0)
(2.71051e-14 5.90381e-16 0 0 -1.66301e-14 0 0 0 0)
(0 -2.24316e-15 0 0 -1.95747e-15 0 0 0 0)
(0 2.62546e-15 0 0 -2.09089e-14 0 0 0 0)
(5.42101e-14 -2.80022e-15 0 -5.42101e-14 -2.07463e-14 0 0 0 0)
(0 -5.0014e-15 0 2.71051e-14 4.63986e-15 0 0 0 0)
(-5.42101e-14 1.7863e-15 0 2.71051e-14 4.59773e-15 0 0 0 0)
(0 6.42778e-15 0 2.71051e-14 -1.98848e-15 0 0 0 0)
(5.42101e-14 4.35312e-15 0 0 -3.03438e-15 0 0 0 0)
(0 9.26189e-16 0 0 1.48838e-14 0 0 0 0)
(0 -1.6802e-15 0 -2.71051e-14 1.09467e-14 0 0 0 0)
(0 -5.1005e-16 0 0 3.49149e-15 0 0 0 0)
(2.71051e-14 6.32525e-15 0 0 5.3887e-15 0 0 0 0)
(-2.71051e-14 3.99254e-15 0 2.71051e-14 3.9587e-15 0 0 0 0)
(1.89735e-13 -4.2467e-12 0 -1.5992e-12 1.85096e-11 0 0 0 0)
(2.98156e-13 5.09163e-12 0 4.87891e-13 -3.96081e-12 0 0 0 0)
(-2.71051e-13 -1.1029e-12 0 2.71051e-14 9.80684e-13 0 0 0 0)
(-1.6263e-13 2.96956e-13 0 1.0842e-13 -1.71547e-13 0 0 0 0)
(2.71051e-14 -6.67366e-14 0 8.13152e-14 5.08897e-14 0 0 0 0)
(0 -5.23612e-15 0 1.0842e-13 -2.4173e-15 0 0 0 0)
(-2.71051e-14 -4.02014e-16 0 5.42101e-14 6.24899e-15 0 0 0 0)
(0 1.13099e-14 0 5.42101e-14 3.23022e-15 0 0 0 0)
(-5.42101e-14 -3.48652e-15 0 0 4.74696e-15 0 0 0 0)
(-5.42101e-14 -1.18715e-14 0 5.42101e-14 -2.2973e-15 0 0 0 0)
(8.13152e-14 9.58194e-15 0 5.42101e-14 -8.27144e-15 0 0 0 0)
(2.71051e-14 1.57852e-14 0 -2.71051e-14 6.73513e-15 0 0 0 0)
(0 -1.00876e-15 0 -2.71051e-14 7.21814e-15 0 0 0 0)
(0 -2.59245e-15 0 -2.71051e-14 1.38047e-15 0 0 0 0)
(0 1.63341e-14 0 -5.42101e-14 1.02156e-15 0 0 0 0)
(-5.42101e-14 1.08056e-14 0 0 1.0316e-15 0 0 0 0)
(0 -1.25611e-14 0 2.71051e-14 -6.47147e-15 0 0 0 0)
(0 -4.02242e-15 0 0 1.95377e-15 0 0 0 0)
(0 8.77608e-15 0 0 9.48897e-15 0 0 0 0)
(0 -3.66822e-15 0 -2.71051e-14 4.34394e-15 0 0 0 0)
(-4.33681e-13 8.89701e-12 0 -1.35525e-13 -5.65849e-12 0 0 0 0)
(3.52366e-13 -1.07446e-11 0 -2.43945e-13 1.24871e-12 0 0 0 0)
(2.71051e-14 2.32023e-12 0 -1.89735e-13 -2.32675e-13 0 0 0 0)
(5.42101e-14 -5.52671e-13 0 0 6.23889e-14 0 0 0 0)
(0 1.07597e-13 0 -2.71051e-14 -3.36122e-14 0 0 0 0)
(0 -3.45221e-14 0 0 -1.11197e-16 0 0 0 0)
(0 1.68426e-15 0 0 2.96274e-15 0 0 0 0)
(0 -9.11654e-16 0 0 2.20344e-15 0 0 0 0)
(0 -7.77068e-15 0 2.71051e-14 -6.03116e-15 0 0 0 0)
(2.71051e-14 -1.03929e-14 0 2.71051e-14 2.96174e-15 0 0 0 0)
(-2.71051e-14 6.23221e-15 0 0 1.76953e-14 0 0 0 0)
(-5.42101e-14 1.04882e-14 0 -2.71051e-14 6.50785e-15 0 0 0 0)
(-2.71051e-14 -3.56836e-15 0 2.71051e-14 -8.72289e-16 0 0 0 0)
(0 2.312e-16 0 0 8.46323e-15 0 0 0 0)
(0 4.00425e-15 0 0 4.30664e-15 0 0 0 0)
(8.13152e-14 -6.56684e-15 0 0 -2.08719e-14 0 0 0 0)
(0 -7.58032e-16 0 -2.71051e-14 -7.67749e-15 0 0 0 0)
(2.71051e-14 1.54504e-14 0 0 1.15817e-14 0 0 0 0)
(-2.71051e-14 8.71541e-15 0 0 4.49978e-15 0 0 0 0)
(0 -9.84037e-15 0 2.71051e-14 -4.62488e-15 0 0 0 0)
(-1.89735e-13 -8.65648e-12 0 1.6263e-12 -1.4523e-12 0 0 0 0)
(2.43945e-13 1.05174e-11 0 -1.0842e-13 2.48168e-13 0 0 0 0)
(-2.71051e-14 -2.28922e-12 0 2.71051e-13 -7.8646e-14 0 0 0 0)
(2.71051e-14 4.96019e-13 0 0 2.02911e-15 0 0 0 0)
(0 -1.29237e-13 0 8.13152e-14 -8.18559e-15 0 0 0 0)
(2.71051e-14 3.13388e-14 0 0 -5.3752e-15 0 0 0 0)
(0 1.91262e-15 0 2.71051e-14 6.55933e-15 0 0 0 0)
(-2.71051e-14 2.31597e-15 0 5.42101e-14 1.60192e-14 0 0 0 0)
(-2.71051e-14 -2.72822e-15 0 0 1.92215e-14 0 0 0 0)
(0 1.1855e-14 0 -2.71051e-14 1.83993e-14 0 0 0 0)
(-2.71051e-14 1.31281e-14 0 -5.42101e-14 2.21067e-14 0 0 0 0)
(5.42101e-14 -2.78244e-15 0 -5.42101e-14 1.73995e-15 0 0 0 0)
(5.42101e-14 9.46619e-16 0 -2.71051e-14 -8.21706e-16 0 0 0 0)
(-5.42101e-14 2.58648e-15 0 -5.42101e-14 1.15205e-14 0 0 0 0)
(0 -1.30011e-14 0 0 1.92973e-15 0 0 0 0)
(-2.71051e-14 -1.17858e-15 0 0 4.22771e-15 0 0 0 0)
(-2.71051e-14 1.98925e-14 0 0 1.4544e-14 0 0 0 0)
(-5.42101e-14 8.15484e-15 0 -5.42101e-14 1.14153e-14 0 0 0 0)
(5.42101e-14 -7.43051e-15 0 0 -6.51565e-15 0 0 0 0)
(0 -3.54311e-15 0 0 -7.3748e-15 0 0 0 0)
(1.13841e-12 7.69288e-12 0 1.6263e-13 6.85528e-12 0 0 0 0)
(-1.0571e-12 -9.37099e-12 0 -2.1684e-13 -1.46165e-12 0 0 0 0)
(1.35525e-13 2.07409e-12 0 -1.35525e-13 3.30793e-13 0 0 0 0)
(-1.35525e-13 -4.82211e-13 0 0 -4.56711e-14 0 0 0 0)
(0 1.00193e-13 0 -5.42101e-14 5.03891e-14 0 0 0 0)
(-2.71051e-14 -1.97771e-14 0 -5.42101e-14 2.2817e-14 0 0 0 0)
(0 2.30786e-14 0 -1.35525e-13 1.94135e-14 0 0 0 0)
(-2.71051e-14 1.17505e-14 0 -1.35525e-13 1.74265e-14 0 0 0 0)
(0 -5.39049e-15 0 -8.13152e-14 3.15888e-14 0 0 0 0)
(-8.13152e-14 -7.50772e-15 0 -5.42101e-14 3.94785e-14 0 0 0 0)
(-2.71051e-14 -1.04272e-14 0 -2.71051e-14 2.16816e-14 0 0 0 0)
(-5.42101e-14 -1.24402e-14 0 -2.71051e-14 6.76207e-15 0 0 0 0)
(-5.42101e-14 6.21222e-15 0 -8.13152e-14 5.96388e-16 0 0 0 0)
(5.42101e-14 2.98263e-15 0 -8.13152e-14 -1.4626e-14 0 0 0 0)
(5.42101e-14 -3.28857e-15 0 0 -1.36763e-14 0 0 0 0)
(0 6.04741e-15 0 -8.13152e-14 -1.53169e-15 0 0 0 0)
(2.71051e-14 6.42953e-15 0 -5.42101e-14 -7.76646e-15 0 0 0 0)
(5.42101e-14 -5.60924e-15 0 0 -1.23764e-14 0 0 0 0)
(0 -1.00747e-14 0 2.71051e-14 -7.95512e-15 0 0 0 0)
(0 4.05008e-15 0 -2.71051e-14 -4.33798e-15 0 0 0 0)
(-2.71051e-13 -3.26285e-12 0 -2.49366e-12 -1.70487e-11 0 0 0 0)
(-2.71051e-14 3.99296e-12 0 5.14996e-13 3.7662e-12 0 0 0 0)
(1.6263e-13 -8.73241e-13 0 -1.35525e-13 -8.80013e-13 0 0 0 0)
(8.13152e-14 2.15614e-13 0 -2.71051e-14 1.95644e-13 0 0 0 0)
(-2.71051e-14 -6.07485e-14 0 -2.71051e-14 -3.72984e-14 0 0 0 0)
(0 3.6312e-16 0 0 3.18906e-14 0 0 0 0)
(-5.42101e-14 -3.4779e-15 0 5.42101e-14 2.00292e-14 0 0 0 0)
(0 1.44913e-14 0 2.71051e-14 -1.54806e-15 0 0 0 0)
(5.42101e-14 1.93238e-14 0 0 -1.55837e-14 0 0 0 0)
(0 1.94775e-15 0 5.42101e-14 -6.86973e-15 0 0 0 0)
(2.71051e-14 -1.95884e-14 0 8.13152e-14 -6.69284e-15 0 0 0 0)
(0 -2.38676e-14 0 1.0842e-13 2.13786e-15 0 0 0 0)
(0 -2.04415e-14 0 1.0842e-13 -3.372e-15 0 0 0 0)
(5.42101e-14 -1.16862e-14 0 1.6263e-13 -1.97947e-14 0 0 0 0)
(-5.42101e-14 9.32803e-17 0 8.13152e-14 -9.52407e-15 0 0 0 0)
(5.42101e-14 4.73127e-15 0 1.35525e-13 -6.15935e-15 0 0 0 0)
(0 9.04775e-15 0 8.13152e-14 4.42152e-15 0 0 0 0)
(0 7.96618e-15 0 5.42101e-14 -2.05271e-15 0 0 0 0)
(0 6.07913e-16 0 0 -2.99531e-15 0 0 0 0)
(0 8.74999e-15 0 2.71051e-14 1.89197e-16 0 0 0 0)
(-8.40257e-13 -5.58967e-12 0 -7.04731e-13 2.04179e-11 0 0 0 0)
(1.30104e-12 6.79775e-12 0 2.98156e-13 -4.52456e-12 0 0 0 0)
(-4.06576e-13 -1.49647e-12 0 0 1.04723e-12 0 0 0 0)
(0 3.60504e-13 0 -2.71051e-14 -2.52727e-13 0 0 0 0)
(0 -6.35603e-14 0 0 4.45209e-14 0 0 0 0)
(0 3.75505e-14 0 0 -1.49345e-14 0 0 0 0)
(2.71051e-14 -1.036e-14 0 2.71051e-14 9.1999e-15 0 0 0 0)
(-2.71051e-14 -2.38625e-14 0 1.0842e-13 1.33285e-14 0 0 0 0)
(0 -1.07122e-14 0 5.42101e-14 -1.06267e-15 0 0 0 0)
(0 1.38317e-15 0 2.71051e-14 -1.97946e-14 0 0 0 0)
(2.71051e-14 -1.41959e-15 0 5.42101e-14 -2.13055e-14 0 0 0 0)
(0 -9.11936e-15 0 2.71051e-14 -3.49907e-15 0 0 0 0)
(-2.71051e-14 -1.57204e-14 0 2.71051e-14 3.64443e-15 0 0 0 0)
(0 -3.16943e-15 0 2.71051e-14 6.61114e-15 0 0 0 0)
(2.71051e-14 1.03468e-14 0 0 7.7833e-15 0 0 0 0)
(-2.71051e-14 1.9993e-14 0 0 1.49163e-14 0 0 0 0)
(-2.71051e-14 1.05362e-14 0 -2.71051e-14 1.51943e-14 0 0 0 0)
(0 -1.30261e-14 0 0 1.15076e-14 0 0 0 0)
(2.71051e-14 -7.83275e-15 0 2.71051e-14 1.21185e-14 0 0 0 0)
(-5.42101e-14 6.85619e-15 0 0 1.40896e-14 0 0 0 0)
(-7.58942e-13 1.26305e-11 0 3.7676e-12 -4.89579e-12 0 0 0 0)
(7.58942e-13 -1.53777e-11 0 -1.11131e-12 9.94659e-13 0 0 0 0)
(-1.35525e-13 3.3986e-12 0 2.71051e-14 -2.45549e-13 0 0 0 0)
(8.13152e-14 -7.87098e-13 0 -5.42101e-14 3.98372e-14 0 0 0 0)
(0 1.77044e-13 0 0 -2.23325e-14 0 0 0 0)
(0 -3.49579e-14 0 0 -2.93564e-14 0 0 0 0)
(5.42101e-14 2.4785e-14 0 0 -3.11067e-14 0 0 0 0)
(0 4.22873e-15 0 -5.42101e-14 -3.75608e-15 0 0 0 0)
(0 -1.37993e-14 0 0 1.16936e-16 0 0 0 0)
(0 -1.8295e-14 0 -2.71051e-14 -8.28996e-15 0 0 0 0)
(2.71051e-14 -3.29285e-15 0 0 -9.3962e-15 0 0 0 0)
(0 1.08229e-15 0 0 1.99021e-16 0 0 0 0)
(0 -1.03313e-14 0 0 1.14545e-14 0 0 0 0)
(-2.71051e-14 -7.54735e-15 0 -2.71051e-14 2.47382e-14 0 0 0 0)
(0 8.39844e-15 0 -2.71051e-14 1.80284e-14 0 0 0 0)
(-5.42101e-14 1.21423e-14 0 -5.42101e-14 1.20685e-14 0 0 0 0)
(5.42101e-14 5.63904e-15 0 0 -1.53966e-14 0 0 0 0)
(5.42101e-14 4.89039e-15 0 0 -1.1876e-14 0 0 0 0)
(-2.71051e-14 3.1899e-15 0 -5.42101e-14 5.32376e-15 0 0 0 0)
(-2.71051e-14 -1.74581e-14 0 -2.71051e-14 1.10326e-14 0 0 0 0)
(1.87025e-12 -9.4908e-12 0 -1.89735e-12 -1.80249e-11 0 0 0 0)
(-2.43945e-12 1.1448e-11 0 7.31836e-13 3.9937e-12 0 0 0 0)
(6.23416e-13 -2.45129e-12 0 1.0842e-13 -9.28095e-13 0 0 0 0)
(-1.0842e-13 5.8372e-13 0 5.42101e-14 2.02425e-13 0 0 0 0)
(8.13152e-14 -1.32754e-13 0 0 -4.81224e-14 0 0 0 0)
(2.71051e-14 2.87763e-14 0 2.71051e-14 1.04708e-14 0 0 0 0)
(0 1.52403e-14 0 -8.13152e-14 -1.74796e-14 0 0 0 0)
(-5.42101e-14 7.36119e-15 0 0 -2.54693e-14 0 0 0 0)
(2.71051e-14 -1.5246e-14 0 5.42101e-14 -1.47381e-14 0 0 0 0)
(0 -8.12996e-15 0 0 7.36441e-15 0 0 0 0)
(2.71051e-14 7.06939e-15 0 -2.71051e-14 1.63077e-14 0 0 0 0)
(0 1.17313e-14 0 -5.42101e-14 7.36431e-15 0 0 0 0)
(0 8.81887e-15 0 -5.42101e-14 7.27707e-16 0 0 0 0)
(-2.71051e-14 3.40449e-15 0 -2.71051e-14 2.89302e-15 0 0 0 0)
(-2.71051e-14 -2.32295e-15 0 0 8.43971e-15 0 0 0 0)
(0 -1.3432e-14 0 5.42101e-14 7.0796e-15 0 0 0 0)
(-5.42101e-14 -1.34083e-14 0 2.71051e-14 3.12183e-15 0 0 0 0)
(0 7.69429e-15 0 0 -5.9031e-15 0 0 0 0)
(5.42101e-14 1.50759e-14 0 0 -1.3452e-14 0 0 0 0)
(0 -9.5002e-15 0 0 -5.97366e-15 0 0 0 0)
(-1.95156e-12 -1.40079e-12 0 -3.27971e-12 2.48062e-11 0 0 0 0)
(2.73761e-12 1.71918e-12 0 6.77626e-13 -5.33161e-12 0 0 0 0)
(-7.86047e-13 -3.92676e-13 0 -2.43945e-13 1.28582e-12 0 0 0 0)
(5.42101e-14 9.28746e-14 0 0 -2.64662e-13 0 0 0 0)
(-5.42101e-14 -1.49102e-14 0 -5.42101e-14 7.39285e-14 0 0 0 0)
(-8.13152e-14 -4.31506e-15 0 -2.71051e-14 1.37592e-14 0 0 0 0)
(0 -1.11551e-14 0 -2.71051e-14 3.74264e-15 0 0 0 0)
(1.35525e-13 6.97021e-15 0 -5.42101e-14 -2.6747e-14 0 0 0 0)
(-2.71051e-14 1.90344e-14 0 -1.0842e-13 -3.63694e-15 0 0 0 0)
(-2.71051e-14 1.27508e-14 0 -5.42101e-14 1.13926e-14 0 0 0 0)
(0 -3.29296e-15 0 -2.71051e-14 1.5506e-14 0 0 0 0)
(-5.42101e-14 -1.44977e-14 0 -5.42101e-14 2.82912e-15 0 0 0 0)
(0 -1.48025e-14 0 -5.42101e-14 -5.99396e-15 0 0 0 0)
(5.42101e-14 1.64648e-16 0 0 -2.13089e-14 0 0 0 0)
(5.42101e-14 1.2585e-14 0 0 -1.63266e-14 0 0 0 0)
(0 6.82439e-15 0 -5.42101e-14 -1.0587e-14 0 0 0 0)
(0 -7.34366e-15 0 0 7.55028e-15 0 0 0 0)
(0 -1.16834e-14 0 5.42101e-14 1.80834e-14 0 0 0 0)
(-2.71051e-14 3.11934e-15 0 0 5.74362e-15 0 0 0 0)
(-2.71051e-14 1.96755e-15 0 0 -5.78588e-15 0 0 0 0)
(-7.04731e-13 9.98376e-12 0 5.93601e-12 -3.94267e-12 0 0 0 0)
(5.69206e-13 -1.20724e-11 0 -1.6263e-12 7.3794e-13 0 0 0 0)
(-5.42101e-14 2.61566e-12 0 1.35525e-13 -1.9667e-13 0 0 0 0)
(1.0842e-13 -6.28169e-13 0 -8.13152e-14 2.68219e-14 0 0 0 0)
(0 1.45668e-13 0 0 -1.11456e-14 0 0 0 0)
(2.71051e-14 -4.14096e-14 0 -5.42101e-14 4.91186e-15 0 0 0 0)
(-2.71051e-14 -2.5266e-14 0 2.71051e-14 1.01997e-14 0 0 0 0)
(-5.42101e-14 -1.83817e-17 0 -2.71051e-14 -3.81645e-16 0 0 0 0)
(0 2.28936e-14 0 -2.71051e-14 -1.77023e-14 0 0 0 0)
(5.42101e-14 1.10129e-14 0 -2.71051e-14 -2.97392e-14 0 0 0 0)
(2.71051e-14 -1.4941e-15 0 0 -2.32152e-14 0 0 0 0)
(5.42101e-14 -9.76862e-15 0 0 -1.82438e-14 0 0 0 0)
(2.71051e-14 -1.53191e-14 0 0 -2.93207e-15 0 0 0 0)
(-2.71051e-14 -6.92811e-15 0 0 7.06224e-16 0 0 0 0)
(0 8.39891e-15 0 -5.42101e-14 -7.33403e-15 0 0 0 0)
(0 1.04448e-14 0 -8.13152e-14 -1.76666e-14 0 0 0 0)
(0 1.52621e-14 0 -8.13152e-14 -1.40629e-14 0 0 0 0)
(0 5.88763e-15 0 -1.0842e-13 -3.80388e-15 0 0 0 0)
(0 -8.7934e-15 0 0 5.35904e-15 0 0 0 0)
(0 -9.45793e-15 0 0 -3.67401e-15 0 0 0 0)
(2.33103e-12 -4.60552e-12 0 -5.69206e-13 -2.11383e-11 0 0 0 0)
(-3.08998e-12 5.46518e-12 0 3.79471e-13 4.52829e-12 0 0 0 0)
(7.86047e-13 -1.10379e-12 0 1.6263e-13 -1.10159e-12 0 0 0 0)
(-8.13152e-14 2.78399e-13 0 1.0842e-13 2.24142e-13 0 0 0 0)
(-2.71051e-14 -3.68202e-14 0 1.0842e-13 -5.52446e-14 0 0 0 0)
(0 1.70302e-14 0 5.42101e-14 -2.99811e-15 0 0 0 0)
(2.71051e-14 -1.64486e-14 0 8.13152e-14 -5.11422e-16 0 0 0 0)
(0 -2.09318e-14 0 1.0842e-13 1.37289e-14 0 0 0 0)
(0 -1.03231e-14 0 1.0842e-13 -2.60799e-15 0 0 0 0)
(0 7.2379e-15 0 8.13152e-14 -5.67133e-15 0 0 0 0)
(0 8.20239e-15 0 5.42101e-14 -6.89114e-15 0 0 0 0)
(-2.71051e-14 5.78545e-15 0 0 -4.69846e-15 0 0 0 0)
(0 4.14751e-15 0 5.42101e-14 5.15876e-16 0 0 0 0)
(2.71051e-14 -4.23732e-15 0 0 7.79438e-15 0 0 0 0)
(-2.71051e-14 -5.78781e-15 0 0 -2.15887e-16 0 0 0 0)
(2.71051e-14 9.54841e-17 0 2.71051e-14 -5.66274e-15 0 0 0 0)
(-2.71051e-14 6.51908e-15 0 5.42101e-14 -6.65255e-15 0 0 0 0)
(2.71051e-14 7.73856e-15 0 0 -1.9574e-14 0 0 0 0)
(5.42101e-14 3.24921e-15 0 0 -1.14335e-14 0 0 0 0)
(0 2.82519e-16 0 0 -2.76954e-15 0 0 0 0)
(-8.94467e-13 -6.62629e-12 0 -1.87025e-12 1.41558e-11 0 0 0 0)
(1.35525e-12 7.9644e-12 0 4.06576e-13 -2.92403e-12 0 0 0 0)
(-3.52366e-13 -1.6885e-12 0 -1.0842e-13 7.26267e-13 0 0 0 0)
(0 4.18173e-13 0 -2.71051e-14 -1.31741e-13 0 0 0 0)
(0 -8.14721e-14 0 -5.42101e-14 2.96953e-14 0 0 0 0)
(0 1.33236e-14 0 0 -1.34482e-14 0 0 0 0)
(-2.71051e-14 -8.53893e-15 0 -2.71051e-14 -6.58442e-16 0 0 0 0)
(0 -2.11495e-15 0 -2.71051e-14 1.15393e-14 0 0 0 0)
(-2.71051e-14 3.49336e-15 0 -2.71051e-14 2.23883e-14 0 0 0 0)
(0 6.72979e-15 0 0 1.83691e-14 0 0 0 0)
(0 -5.21227e-16 0 -5.42101e-14 8.42062e-15 0 0 0 0)
(-2.71051e-14 -2.3616e-15 0 5.42101e-14 1.06879e-14 0 0 0 0)
(0 -2.82626e-15 0 0 4.99678e-15 0 0 0 0)
(0 -7.65988e-15 0 0 9.36667e-15 0 0 0 0)
(0 -5.05821e-15 0 5.42101e-14 1.6894e-14 0 0 0 0)
(0 4.00818e-15 0 5.42101e-14 2.02127e-14 0 0 0 0)
(-2.71051e-14 1.35084e-15 0 0 1.27903e-14 0 0 0 0)
(0 1.10663e-15 0 5.42101e-14 1.23428e-14 0 0 0 0)
(0 8.01102e-15 0 0 3.94511e-15 0 0 0 0)
(0 4.74515e-15 0 0 1.08255e-15 0 0 0 0)
)
;

boundaryField
{
    movingWall
    {
        type            extrapolatedCalculated;
        value           nonuniform List<tensor> 
20
(
(-8.94467e-13 -6.62629e-12 0 5.15143e-12 3.35996e-11 0 0 0 0)
(1.35525e-12 7.9644e-12 0 -1.64313e-12 -7.09442e-12 0 0 0 0)
(-3.52366e-13 -1.6885e-12 0 -2.22045e-13 1.74199e-12 0 0 0 0)
(0 4.18173e-13 0 -2.66454e-13 -3.40437e-13 0 0 0 0)
(0 -8.14721e-14 0 -2.22045e-13 6.9299e-14 0 0 0 0)
(0 1.33236e-14 0 -2.22045e-13 -1.45491e-14 0 0 0 0)
(-2.71051e-14 -8.53893e-15 0 -2.22045e-13 1.60047e-14 0 0 0 0)
(0 -2.11495e-15 0 -1.77636e-13 1.96066e-14 0 0 0 0)
(-2.71051e-14 3.49336e-15 0 -1.77636e-13 2.44645e-14 0 0 0 0)
(0 6.72979e-15 0 -8.88178e-14 5.63322e-15 0 0 0 0)
(0 -5.21227e-16 0 -1.33227e-13 -2.45466e-15 0 0 0 0)
(-2.71051e-14 -2.3616e-15 0 -4.44089e-14 7.71813e-15 0 0 0 0)
(0 -2.82626e-15 0 -8.88178e-14 6.99175e-15 0 0 0 0)
(0 -7.65988e-15 0 -4.44089e-14 1.90232e-14 0 0 0 0)
(0 -5.05821e-15 0 -4.44089e-14 3.76313e-14 0 0 0 0)
(0 4.00818e-15 0 -4.44089e-14 3.9256e-14 0 0 0 0)
(-2.71051e-14 1.35084e-15 0 -4.44089e-14 2.15985e-14 0 0 0 0)
(0 1.10663e-15 0 0 3.38527e-14 0 0 0 0)
(0 8.01102e-15 0 0 1.7172e-14 0 0 0 0)
(0 4.74515e-15 0 0 1.80861e-15 0 0 0 0)
)
;
    }
    fixedWalls
    {
        type            extrapolatedCalculated;
        value           nonuniform List<tensor> 
60
(
(-6.30607e-12 7.38592e-11 0 1.76183e-12 1.77275e-11 0 0 0 0)
(1.33227e-11 -2.94916e-12 0 2.71051e-14 -3.33823e-11 0 0 0 0)
(-6.12843e-12 -5.96701e-11 0 -5.55654e-12 1.50165e-11 0 0 0 0)
(-8.88178e-12 5.71167e-11 0 4.93312e-12 1.0997e-11 0 0 0 0)
(1.35003e-11 -1.56822e-11 0 -9.21572e-13 -2.34887e-11 0 0 0 0)
(-1.25233e-11 -3.68379e-11 0 -2.90024e-12 1.9761e-11 0 0 0 0)
(1.86517e-12 6.33617e-11 0 4.2826e-12 2.029e-12 0 0 0 0)
(4.61853e-12 -2.87219e-11 0 -5.69206e-13 -2.12434e-11 0 0 0 0)
(-4.44089e-13 -2.16119e-11 0 -1.5992e-12 1.85096e-11 0 0 0 0)
(-1.68754e-12 4.53165e-11 0 -1.35525e-13 -5.65849e-12 0 0 0 0)
(-9.76996e-13 -4.42459e-11 0 1.6263e-12 -1.4523e-12 0 0 0 0)
(4.84057e-12 3.95073e-11 0 1.6263e-13 6.85528e-12 0 0 0 0)
(-3.55271e-13 -1.68248e-11 0 -2.49366e-12 -1.70487e-11 0 0 0 0)
(-5.06262e-12 -2.86877e-11 0 -7.04731e-13 2.04179e-11 0 0 0 0)
(-3.37508e-12 6.48467e-11 0 3.7676e-12 -4.89579e-12 0 0 0 0)
(1.01696e-11 -4.82709e-11 0 -1.89735e-12 -1.80249e-11 0 0 0 0)
(-1.11022e-11 -7.25311e-12 0 -3.27971e-12 2.48062e-11 0 0 0 0)
(-2.84217e-12 5.09538e-11 0 5.93601e-12 -3.94267e-12 0 0 0 0)
(1.26121e-11 -2.30238e-11 0 -5.69206e-13 -2.11383e-11 0 0 0 0)
(-5.15143e-12 -3.35996e-11 0 -1.87025e-12 1.41558e-11 0 0 0 0)
(8.88178e-14 -1.65158e-14 0 -5.42101e-14 4.86132e-15 0 0 0 0)
(8.88178e-14 -2.92951e-15 0 5.42101e-14 -1.06246e-14 0 0 0 0)
(0 2.59827e-14 0 0 -1.08791e-14 0 0 0 0)
(0 4.05869e-14 0 0 -4.07006e-15 0 0 0 0)
(0 4.2263e-14 0 0 7.97628e-15 0 0 0 0)
(-4.44089e-14 8.68179e-15 0 2.71051e-14 1.04976e-14 0 0 0 0)
(0 2.72616e-16 0 -2.71051e-14 2.08275e-15 0 0 0 0)
(-4.44089e-14 3.50802e-16 0 2.71051e-14 3.9587e-15 0 0 0 0)
(0 -1.55622e-14 0 -2.71051e-14 4.34394e-15 0 0 0 0)
(0 -1.7025e-14 0 2.71051e-14 -4.62488e-15 0 0 0 0)
(-8.88178e-14 2.93733e-15 0 0 -7.3748e-15 0 0 0 0)
(0 1.24742e-14 0 -2.71051e-14 -4.33798e-15 0 0 0 0)
(0 2.02893e-14 0 2.71051e-14 1.89197e-16 0 0 0 0)
(-8.88178e-14 1.17175e-14 0 0 1.40896e-14 0 0 0 0)
(0 -3.60691e-14 0 -2.71051e-14 1.10326e-14 0 0 0 0)
(0 -3.24131e-14 0 0 -5.97366e-15 0 0 0 0)
(0 -1.21744e-14 0 0 -5.78588e-15 0 0 0 0)
(-4.44089e-14 -9.26955e-15 0 0 -3.67401e-15 0 0 0 0)
(0 2.52161e-15 0 0 -2.76954e-15 0 0 0 0)
(0 1.80861e-15 0 0 1.08255e-15 0 0 0 0)
(-1.11131e-12 1.44443e-11 0 -6.30607e-12 7.38592e-11 0 0 0 0)
(1.65341e-12 -1.75223e-11 0 1.95399e-12 -1.6082e-11 0 0 0 0)
(-4.33681e-13 3.8171e-12 0 1.77636e-13 3.76994e-12 0 0 0 0)
(2.71051e-14 -8.94729e-13 0 2.66454e-13 -8.13623e-13 0 0 0 0)
(-5.42101e-14 1.9647e-13 0 2.22045e-13 1.91024e-13 0 0 0 0)
(0 -4.76979e-14 0 1.77636e-13 -2.77411e-14 0 0 0 0)
(-2.71051e-14 -1.2392e-15 0 1.77636e-13 2.3245e-16 0 0 0 0)
(0 -7.56587e-15 0 1.33227e-13 -3.26979e-14 0 0 0 0)
(2.71051e-14 1.17785e-14 0 1.77636e-13 -3.0031e-14 0 0 0 0)
(-2.71051e-14 1.71427e-14 0 1.33227e-13 1.4416e-14 0 0 0 0)
(0 1.20718e-14 0 1.33227e-13 3.85398e-14 0 0 0 0)
(0 9.80949e-15 0 1.77636e-13 6.2703e-14 0 0 0 0)
(-5.42101e-14 -4.69993e-16 0 4.44089e-14 7.77777e-14 0 0 0 0)
(-5.42101e-14 -2.08297e-14 0 0 6.08231e-14 0 0 0 0)
(0 -3.34367e-14 0 -8.88178e-14 -5.54124e-15 0 0 0 0)
(0 -1.5687e-14 0 -8.88178e-14 -7.29239e-14 0 0 0 0)
(5.42101e-14 2.29591e-14 0 0 -6.82892e-14 0 0 0 0)
(2.71051e-14 2.63199e-14 0 4.44089e-14 1.89124e-14 0 0 0 0)
(-2.71051e-14 -5.99165e-16 0 8.88178e-14 3.69905e-14 0 0 0 0)
(0 -1.33766e-14 0 -8.88178e-14 1.65158e-14 0 0 0 0)
)
;
    }
    frontAndBack
    {
        type            empty;
    }
}


// ************************************************************************* //
