/*--------------------------------*- C++ -*----------------------------------*\
| =========                 |                                                 |
| \\      /  F ield         | OpenFOAM: The Open Source CFD Toolbox           |
|  \\    /   O peration     | Version:  2312                                  |
|   \\  /    A nd           | Website:  www.openfoam.com                      |
|    \\/     M anipulation  |                                                 |
\*---------------------------------------------------------------------------*/
FoamFile
{
    version     2.0;
    format      ascii;
    arch        "LSB;label=32;scalar=64";
    class       volVectorField;
    location    "7.125";
    object      LambVectorField;
}
// * * * * * * * * * * * * * * * * * * * * * * * * * * * * * * * * * * * * * //

dimensions      [0 1 -2 0 0 0 0];

internalField   nonuniform List<vector> 
400
(
(-2.34179e-24 -1.26825e-11 -1.26825e-11)
(-6.87049e-25 1.70886e-11 -0)
(-3.54646e-26 -3.76289e-12 -3.76289e-12)
(-1.98533e-27 9.76044e-13 -0)
(-5.49936e-29 -1.15155e-13 -1.15155e-13)
(-7.0676e-30 1.01908e-13 -0)
(3.22229e-32 5.54493e-14 5.54493e-14)
(-5.04986e-30 6.1776e-14 -0)
(-3.18567e-30 4.24316e-14 4.24316e-14)
(-6.17824e-31 -1.71427e-14 0)
(-1.16311e-30 -1.20718e-14 -1.20718e-14)
(-1.53771e-30 -9.80949e-15 0)
(9.13875e-32 4.69993e-16 4.69993e-16)
(3.16732e-30 2.08297e-14 0)
(-4.63202e-31 3.34367e-14 3.34367e-14)
(-2.85989e-30 1.5687e-14 -0)
(1.31746e-29 -7.71692e-14 -7.71692e-14)
(-1.24444e-30 -2.63199e-14 0)
(2.56199e-30 2.77042e-14 2.77042e-14)
(-1.68599e-30 -4.08335e-14 0)
(-4.38084e-27 5.94182e-13 5.94182e-13)
(-1.39699e-27 -8.20731e-13 0)
(-2.93141e-29 5.62824e-14 5.62824e-14)
(-1.05029e-29 -1.90596e-13 0)
(-4.30897e-30 -1.44288e-13 -1.44288e-13)
(-1.61727e-29 -1.13309e-13 0)
(-1.01425e-29 -1.28784e-13 -1.28784e-13)
(-8.36433e-30 -1.11057e-13 0)
(-1.12038e-29 -1.06574e-13 -1.06574e-13)
(-4.13685e-30 -7.27648e-14 0)
(-9.64955e-31 -4.91735e-14 -4.91735e-14)
(-4.33869e-31 -6.68856e-14 0)
(-1.48348e-29 -1.01345e-13 -1.01345e-13)
(-9.71024e-30 -4.69573e-14 0)
(2.63582e-30 3.56912e-14 3.56912e-14)
(-4.32693e-30 2.88225e-14 -0)
(8.58902e-30 -4.00655e-14 -4.00655e-14)
(1.75808e-30 -8.56821e-14 -0)
(-8.43904e-30 -8.40994e-14 -8.40994e-14)
(4.75878e-31 6.49771e-14 0)
(-9.12384e-25 6.11619e-12 6.11619e-12)
(-4.13051e-25 -1.27296e-11 0)
(-2.26931e-26 2.91506e-12 2.91506e-12)
(-1.33789e-27 -8.00569e-13 0)
(-3.19307e-29 9.94146e-14 9.94146e-14)
(-2.32125e-29 -1.72031e-13 0)
(-2.40627e-30 -5.48478e-14 -5.48478e-14)
(-1.37647e-29 -9.74092e-14 0)
(-1.54138e-29 -7.52583e-14 -7.52583e-14)
(-3.72099e-30 -4.60862e-14 0)
(-3.13255e-30 -2.53499e-14 -2.53499e-14)
(5.61756e-31 8.89018e-15 0)
(1.9213e-31 5.54159e-15 5.54159e-15)
(-6.28862e-33 -8.09086e-16 0)
(2.85429e-31 6.67491e-15 6.67491e-15)
(2.10378e-30 -3.56714e-14 -0)
(-4.57877e-30 3.21035e-14 3.21035e-14)
(6.37864e-31 -5.85405e-15 -0)
(3.70009e-31 -4.40042e-15 -4.40042e-15)
(9.68127e-31 -1.49042e-14 -0)
(-8.79547e-25 -6.15964e-12 -6.15964e-12)
(-3.90691e-25 1.22611e-11 -0)
(-2.13081e-26 -2.86349e-12 -2.86349e-12)
(-1.21329e-27 7.56879e-13 -0)
(-2.72437e-29 -6.57093e-14 -6.57093e-14)
(-2.4389e-29 1.83693e-13 -0)
(-5.11689e-30 7.62923e-14 7.62923e-14)
(-3.78294e-30 4.58303e-14 -0)
(1.23581e-30 7.38755e-14 7.38755e-14)
(-4.47158e-31 5.48931e-14 -0)
(1.74574e-31 1.7636e-14 1.7636e-14)
(-3.43215e-31 -3.96575e-15 0)
(4.95123e-30 9.99113e-14 9.99113e-14)
(-7.10883e-30 7.15053e-14 -0)
(-3.25515e-30 2.63799e-14 2.63799e-14)
(-5.51703e-30 5.98603e-14 -0)
(-1.08658e-29 6.03998e-14 6.03998e-14)
(-7.97006e-30 5.17329e-14 -0)
(-7.59348e-30 4.89506e-14 4.89506e-14)
(2.60357e-30 -2.56593e-14 -0)
(-8.33444e-26 2.12583e-12 2.12583e-12)
(-3.01757e-26 -3.45596e-12 0)
(-1.59143e-27 8.22259e-13 8.22259e-13)
(-5.96839e-29 -1.1728e-13 0)
(4.16445e-30 8.24405e-14 8.24405e-14)
(2.26266e-29 9.98533e-14 0)
(1.68466e-29 1.23705e-13 1.23705e-13)
(1.07754e-29 1.461e-13 0)
(4.555e-30 1.49646e-13 1.49646e-13)
(-1.08469e-29 1.60816e-13 -0)
(-2.7127e-29 1.21935e-13 1.21935e-13)
(-1.53529e-29 7.57793e-14 -0)
(-3.30866e-30 1.97991e-14 1.97991e-14)
(-6.22949e-30 4.80891e-14 -0)
(-1.36828e-30 1.29203e-14 1.29203e-14)
(2.90638e-31 2.36161e-14 0)
(-3.17411e-30 4.46985e-14 4.46985e-14)
(-5.89902e-30 3.60515e-14 -0)
(-3.41943e-30 2.1308e-14 2.1308e-14)
(2.8119e-30 -2.66134e-14 -0)
(-3.9615e-25 4.30155e-12 4.30155e-12)
(-1.59572e-25 -7.94807e-12 0)
(-8.72353e-27 1.83513e-12 1.83513e-12)
(-3.78461e-28 -4.14786e-13 0)
(-1.10887e-29 3.31273e-14 3.31273e-14)
(-2.62148e-30 -6.71274e-14 0)
(9.48235e-32 1.44781e-15 1.44781e-15)
(-4.85442e-31 -1.97542e-14 0)
(2.9459e-31 -3.67584e-14 -3.67584e-14)
(-4.21788e-30 -3.48275e-14 0)
(1.06142e-30 1.53362e-14 1.53362e-14)
(-6.97506e-31 2.1625e-14 -0)
(1.70543e-30 -1.15984e-14 -1.15984e-14)
(4.51751e-30 -2.41163e-14 -0)
(1.91942e-30 -1.08487e-14 -1.08487e-14)
(1.00032e-30 -1.26888e-14 -0)
(-2.12265e-31 4.24199e-15 4.24199e-15)
(-8.79494e-31 7.25328e-15 -0)
(4.54252e-30 -3.70601e-14 -3.70601e-14)
(-2.75157e-31 1.26774e-14 -0)
(-1.27713e-24 -8.06245e-12 -8.06245e-12)
(-4.84243e-25 1.38538e-11 -0)
(-2.54743e-26 -3.20853e-12 -3.20853e-12)
(-1.3596e-27 6.61537e-13 -0)
(-5.42806e-29 -2.26199e-13 -2.26199e-13)
(6.28766e-30 -9.78267e-14 -0)
(-1.578e-29 -1.17733e-13 -1.17733e-13)
(-1.77548e-30 -6.15427e-14 0)
(3.50321e-30 -5.50024e-14 -5.50024e-14)
(-3.24455e-30 -8.82325e-14 0)
(-2.09612e-31 -3.82433e-14 -3.82433e-14)
(-1.17474e-30 9.55884e-15 -0)
(5.06366e-31 -5.61958e-15 -5.61958e-15)
(2.14405e-30 -3.21447e-14 -0)
(2.13135e-30 -5.36719e-14 -5.36719e-14)
(1.72488e-30 -2.39295e-14 -0)
(-8.35346e-32 1.16886e-15 1.16886e-15)
(2.39924e-30 -2.86407e-14 -0)
(4.66213e-31 -8.30887e-15 -8.30887e-15)
(2.23438e-32 -3.27842e-14 -0)
(-3.64952e-25 5.08256e-12 5.08256e-12)
(-9.83247e-26 -6.4319e-12 0)
(-6.35735e-27 1.60456e-12 1.60456e-12)
(-2.08844e-28 -3.50018e-13 0)
(-1.69136e-29 8.86373e-14 8.86373e-14)
(-3.16885e-31 1.69864e-14 -0)
(-5.21419e-30 5.81734e-14 5.81734e-14)
(3.4412e-32 -5.90381e-16 -0)
(-1.87816e-31 2.24316e-15 2.24316e-15)
(2.11926e-31 -2.62546e-15 -0)
(2.95471e-30 -5.14099e-14 -5.14099e-14)
(-3.49067e-30 3.21065e-14 -0)
(-2.72145e-30 2.53188e-14 2.53188e-14)
(-1.87871e-30 2.06773e-14 -0)
(1.88097e-31 -4.35312e-15 -4.35312e-15)
(4.38342e-32 -9.26189e-16 -0)
(8.6312e-31 -2.54249e-14 -2.54249e-14)
(-3.27092e-32 5.1005e-16 -0)
(2.46991e-31 -6.32525e-15 -6.32525e-15)
(-2.02698e-32 2.31125e-14 -0)
(-1.43044e-25 2.6475e-12 2.6475e-12)
(-5.32325e-26 -4.60374e-12 0)
(-3.51832e-27 1.13e-12 1.13e-12)
(-1.00666e-28 -1.88535e-13 0)
(-2.13201e-29 1.48052e-13 1.48052e-13)
(-1.51653e-29 1.13656e-13 -0)
(-1.07239e-29 5.46121e-14 5.46121e-14)
(-5.89669e-30 4.29002e-14 -0)
(-2.90311e-31 3.48652e-15 3.48652e-15)
(-1.13869e-29 6.60816e-14 -0)
(-9.01407e-30 4.46282e-14 4.46282e-14)
(3.28097e-30 -4.28902e-14 -0)
(1.15163e-30 -2.60963e-14 -2.60963e-14)
(2.12242e-30 -2.45126e-14 -0)
(4.94195e-30 -7.05442e-14 -7.05442e-14)
(-8.29392e-31 -1.08056e-14 0)
(1.50735e-30 3.96662e-14 3.96662e-14)
(-1.96517e-31 4.02242e-15 -0)
(1.9512e-32 -8.77608e-15 -8.77608e-15)
(-9.11822e-31 -2.34368e-14 0)
(-1.02331e-24 -9.03254e-12 -9.03254e-12)
(-2.55389e-25 1.05007e-11 -0)
(-1.46702e-26 -2.50997e-12 -2.50997e-12)
(-6.18327e-28 5.52671e-13 -0)
(-4.28458e-29 -1.34702e-13 -1.34702e-13)
(-1.47852e-30 3.45221e-14 -0)
(4.57142e-32 -1.68426e-15 -1.68426e-15)
(-2.36899e-32 9.11654e-16 -0)
(-1.26455e-30 3.48757e-14 3.48757e-14)
(-3.88826e-30 3.7498e-14 -0)
(8.7368e-31 -6.23221e-15 -6.23221e-15)
(1.55525e-30 -3.75932e-14 -0)
(-1.08296e-30 3.06734e-14 3.06734e-14)
(1.78149e-32 -2.312e-16 -0)
(1.32117e-31 -4.00425e-15 -4.00425e-15)
(-2.43048e-31 6.56684e-15 -0)
(2.59947e-30 -2.6347e-14 -2.6347e-14)
(6.8896e-31 -1.54504e-14 -0)
(-4.8668e-31 -8.71541e-15 -8.71541e-15)
(1.57249e-30 3.69454e-14 0)
(-1.13743e-24 1.02828e-11 1.02828e-11)
(-2.55552e-25 -1.06259e-11 0)
(-1.39286e-26 2.56027e-12 2.56027e-12)
(-5.74302e-28 -4.96019e-13 0)
(-1.01091e-28 2.10552e-13 2.10552e-13)
(4.21642e-30 -3.13388e-14 -0)
(-4.20054e-30 2.51924e-14 2.51924e-14)
(-5.98946e-30 5.18941e-14 -0)
(-3.91713e-31 2.72822e-15 2.72822e-15)
(5.55956e-30 -3.896e-14 -0)
(1.68538e-30 -6.73382e-14 -6.73382e-14)
(5.8723e-31 -5.14277e-14 -0)
(1.48261e-30 -2.80517e-14 -2.80517e-14)
(1.10888e-31 -5.67966e-14 -0)
(-3.50875e-31 1.30011e-14 1.30011e-14)
(-1.55528e-31 1.17858e-15 -0)
(7.7131e-31 -1.98925e-14 -1.98925e-14)
(-4.17607e-30 -6.23649e-14 0)
(3.17836e-31 7.43051e-15 7.43051e-15)
(-2.60182e-32 3.54311e-15 -0)
(-7.43749e-25 -7.53025e-12 -7.53025e-12)
(-1.99921e-25 9.15415e-12 -0)
(-1.1177e-26 -2.20962e-12 -2.20962e-12)
(-5.29712e-28 4.82211e-13 -0)
(-3.64734e-29 -1.54403e-13 -1.54403e-13)
(3.32554e-30 -3.4433e-14 -0)
(-6.09851e-30 -1.58604e-13 -1.58604e-13)
(-1.97653e-29 -1.47276e-13 0)
(-1.18409e-29 -7.59247e-14 -7.59247e-14)
(-3.75025e-30 -4.67024e-14 0)
(-1.34888e-30 -1.66779e-14 -1.66779e-14)
(3.51529e-31 -1.46649e-14 -0)
(3.80948e-30 -8.75274e-14 -8.75274e-14)
(-3.21607e-30 -8.42978e-14 0)
(-4.50432e-32 3.28857e-15 3.28857e-15)
(-4.60022e-31 -8.73626e-14 0)
(-2.83655e-30 -6.06396e-14 -6.06396e-14)
(3.90184e-31 5.60924e-15 0)
(-3.46337e-31 3.71797e-14 3.71797e-14)
(9.71592e-31 -3.11551e-14 -0)
(-3.23533e-26 7.69181e-13 7.69181e-13)
(-3.28095e-26 -3.47796e-12 0)
(-1.57309e-27 7.37716e-13 7.37716e-13)
(-1.70173e-28 -2.42719e-13 0)
(7.99548e-31 3.36434e-14 3.36434e-14)
(-3.39979e-32 -3.6312e-16 0)
(1.58045e-30 5.7688e-14 5.7688e-14)
(7.42298e-31 1.26138e-14 0)
(-3.32967e-30 -1.93238e-14 -1.93238e-14)
(1.31746e-29 5.22624e-14 0)
(1.9352e-29 1.00904e-13 1.00904e-13)
(7.43485e-30 1.32288e-13 0)
(-6.04221e-30 1.28862e-13 1.28862e-13)
(-2.58359e-29 1.74317e-13 -0)
(-1.33002e-29 8.12219e-14 8.12219e-14)
(-1.92633e-29 1.30794e-13 -0)
(-8.41471e-30 7.22674e-14 7.22674e-14)
(-2.62676e-30 4.62439e-14 -0)
(2.23571e-32 -6.07913e-16 -6.07913e-16)
(-9.31026e-31 1.83551e-14 -0)
(-3.50344e-25 4.88494e-12 4.88494e-12)
(-1.0284e-25 -6.49959e-12 0)
(-5.59947e-27 1.49647e-12 1.49647e-12)
(-3.3254e-28 -3.87609e-13 0)
(-8.69262e-30 6.35603e-14 6.35603e-14)
(-8.34844e-30 -3.75505e-14 0)
(8.94454e-30 3.74651e-14 3.74651e-14)
(1.57053e-29 1.32283e-13 0)
(7.70218e-33 6.49223e-14 6.49223e-14)
(2.98469e-31 2.57219e-14 0)
(7.76054e-31 5.56297e-14 5.56297e-14)
(-9.3901e-32 3.62244e-14 -0)
(-3.30798e-30 4.28254e-14 4.28254e-14)
(-4.83773e-30 3.02745e-14 -0)
(1.12715e-30 -1.03468e-14 -1.03468e-14)
(1.12616e-30 -1.9993e-14 -0)
(-3.42507e-30 -3.76412e-14 -3.76412e-14)
(6.38718e-31 1.30261e-14 0)
(-1.37195e-30 3.49378e-14 3.49378e-14)
(2.00843e-31 -6.85619e-15 -0)
(-1.43682e-24 -8.86285e-12 -8.86285e-12)
(-5.10909e-25 1.42664e-11 -0)
(-2.81181e-26 -3.37149e-12 -3.37149e-12)
(-1.33837e-27 7.32887e-13 -0)
(-8.30289e-29 -1.77044e-13 -1.77044e-13)
(-1.94776e-30 3.49579e-14 -0)
(-2.95922e-30 -2.4785e-14 -2.4785e-14)
(-1.1228e-29 -5.84388e-14 0)
(2.23111e-30 1.37993e-14 1.37993e-14)
(-4.76973e-31 -8.81001e-15 0)
(-7.00314e-32 3.29285e-15 3.29285e-15)
(-2.29568e-32 -1.08229e-15 0)
(-1.07908e-31 1.03313e-14 1.03313e-14)
(1.60571e-30 -1.95577e-14 -0)
(3.0504e-30 -3.55035e-14 -3.55035e-14)
(-1.24956e-31 -6.63524e-14 0)
(-2.00211e-31 -5.63904e-15 -5.63904e-15)
(-2.84981e-31 -4.89039e-15 0)
(-4.84503e-30 -5.74e-14 -5.74e-14)
(-8.69892e-31 -9.64696e-15 0)
(-9.16356e-25 7.59345e-12 7.59345e-12)
(-2.76147e-25 -1.07162e-11 0)
(-1.58632e-26 2.55971e-12 2.55971e-12)
(-6.65223e-28 -5.2951e-13 0)
(-4.78029e-29 1.32754e-13 1.32754e-13)
(1.19056e-31 -1.67124e-15 -0)
(6.98327e-30 -9.65554e-14 -9.65554e-14)
(-5.97468e-31 -7.36119e-15 0)
(8.94592e-32 6.94562e-14 6.94562e-14)
(-5.79633e-31 8.12996e-15 -0)
(2.73435e-30 -3.41744e-14 -3.41744e-14)
(3.96961e-32 -6.59414e-14 -0)
(-2.35107e-30 -6.3029e-14 -6.3029e-14)
(-2.67223e-30 -3.05095e-14 0)
(1.65734e-31 2.32295e-15 2.32295e-15)
(4.35326e-30 6.76421e-14 0)
(-2.55128e-30 4.05134e-14 4.05134e-14)
(5.36492e-31 -7.69429e-15 -0)
(-2.10599e-31 -1.50759e-14 -1.50759e-14)
(7.69827e-31 9.5002e-15 0)
(3.407e-26 -1.87892e-12 -1.87892e-12)
(-4.29625e-27 -1.04155e-12 0)
(-1.39955e-28 1.48731e-13 1.48731e-13)
(-1.83978e-29 -9.28746e-14 0)
(4.81421e-31 -3.92999e-14 -3.92999e-14)
(-1.1165e-30 -2.279e-14 0)
(8.83638e-31 -1.595e-14 -1.595e-14)
(3.82744e-30 -6.11803e-14 -0)
(-1.8228e-30 -1.27455e-13 -1.27455e-13)
(-8.55653e-30 -6.69609e-14 0)
(-3.37678e-30 -2.38121e-14 -2.38121e-14)
(-3.7669e-30 -3.97124e-14 0)
(1.24833e-31 -3.94076e-14 -3.94076e-14)
(8.7545e-33 -1.64648e-16 -0)
(1.91451e-32 -1.2585e-14 -1.2585e-14)
(-4.43594e-30 -6.10345e-14 0)
(4.89988e-31 7.34366e-15 7.34366e-15)
(-4.99035e-32 6.58935e-14 -0)
(1.56315e-31 -3.11934e-15 -3.11934e-15)
(-5.98846e-32 -1.96755e-15 0)
(-5.1562e-25 -4.04775e-12 -4.04775e-12)
(-2.87756e-25 1.04461e-11 -0)
(-1.65199e-26 -2.48013e-12 -2.48013e-12)
(-7.60304e-28 5.46854e-13 -0)
(-5.5237e-29 -1.45668e-13 -1.45668e-13)
(-8.49361e-31 -1.28005e-14 0)
(-1.82762e-30 5.2371e-14 5.2371e-14)
(5.04641e-30 -2.70867e-14 -0)
(1.75402e-30 -4.99987e-14 -4.99987e-14)
(-1.62498e-30 -3.8118e-14 0)
(1.12129e-31 1.4941e-15 1.4941e-15)
(2.70486e-31 9.76862e-15 0)
(-3.46796e-31 1.53191e-14 1.53191e-14)
(-8.69491e-31 6.92811e-15 -0)
(5.75498e-30 -6.2609e-14 -6.2609e-14)
(3.80921e-30 -9.176e-14 -0)
(-1.21003e-30 -9.65772e-14 -9.65772e-14)
(-1.27005e-29 -1.14308e-13 0)
(6.27897e-31 8.7934e-15 8.7934e-15)
(2.19177e-31 9.45793e-15 0)
(-2.32328e-25 4.03632e-12 4.03632e-12)
(-5.85073e-26 -5.08571e-12 0)
(-3.68237e-27 1.26642e-12 1.26642e-12)
(-7.92629e-29 -1.69978e-13 0)
(-1.79671e-29 1.4524e-13 1.4524e-13)
(3.64769e-30 3.71799e-14 0)
(4.55542e-30 9.77637e-14 9.77637e-14)
(-8.58594e-30 1.29352e-13 -0)
(-1.93221e-29 1.18743e-13 1.18743e-13)
(-1.25641e-29 7.40773e-14 -0)
(-4.15647e-30 4.60077e-14 4.60077e-14)
(5.06712e-31 -5.78545e-15 -0)
(-1.62645e-30 5.00626e-14 5.00626e-14)
(-1.95378e-31 4.23732e-15 -0)
(-4.33285e-31 5.78781e-15 5.78781e-15)
(-2.80864e-30 2.70096e-14 -0)
(-3.52469e-30 4.7691e-14 4.7691e-14)
(3.00226e-31 -7.73856e-15 -0)
(-1.13034e-32 -3.24921e-15 -3.24921e-15)
(1.78101e-33 -2.82519e-16 -0)
(-3.99503e-25 4.75604e-12 4.75604e-12)
(-1.34046e-25 -7.55782e-12 0)
(-6.88119e-27 1.58008e-12 1.58008e-12)
(-3.78973e-28 -4.45278e-13 0)
(-4.72307e-30 2.7262e-14 2.7262e-14)
(-4.84614e-31 -1.33236e-14 0)
(7.42864e-31 -1.85661e-14 -1.85661e-14)
(1.22493e-30 -2.49901e-14 -0)
(1.87144e-30 -3.05984e-14 -3.05984e-14)
(9.4776e-32 -6.72979e-15 -0)
(-3.2947e-31 -5.36889e-14 -5.36889e-14)
(-1.09157e-30 5.65717e-14 -0)
(-4.94013e-32 2.82626e-15 2.82626e-15)
(-3.64288e-31 7.65988e-15 -0)
(-5.57585e-30 5.92683e-14 5.92683e-14)
(-4.92682e-30 5.02019e-14 -0)
(7.29401e-32 -1.35084e-15 -1.35084e-15)
(-4.49424e-30 5.31035e-14 -0)
(3.43913e-31 -8.01102e-15 -8.01102e-15)
(2.14553e-32 -4.74515e-15 -0)
)
;

boundaryField
{
    movingWall
    {
        type            calculated;
        value           nonuniform List<vector> 
20
(
(0 1.17777e-11 -0)
(0 -9.60753e-12 -0)
(0 1.46645e-12 -0)
(0 -6.84627e-13 -0)
(0 -1.40573e-13 -0)
(0 -2.35368e-13 -0)
(0 -2.13506e-13 -0)
(0 -1.75521e-13 -0)
(0 -1.81129e-13 -0)
(0 -9.55476e-14 -0)
(0 -1.32706e-13 -0)
(0 -4.20473e-14 -0)
(0 -8.59916e-14 -0)
(0 -3.6749e-14 -0)
(0 -3.93507e-14 -0)
(0 -4.84171e-14 -0)
(0 -4.57598e-14 -0)
(0 -1.10663e-15 -0)
(0 -8.01102e-15 -0)
(0 -4.74515e-15 -0)
)
;
    }
    fixedWalls
    {
        type            calculated;
        value           nonuniform List<vector> 
60
(
(0 -7.20974e-11 -0)
(0 2.97626e-12 -0)
(0 5.41136e-11 -0)
(0 -5.21836e-11 -0)
(0 1.47606e-11 -0)
(0 3.39377e-11 -0)
(0 -5.90791e-11 -0)
(0 2.81527e-11 -0)
(0 2.00127e-11 -0)
(0 -4.5452e-11 -0)
(0 4.58722e-11 -0)
(0 -3.93447e-11 -0)
(0 1.43311e-11 -0)
(0 2.7983e-11 -0)
(0 -6.10791e-11 -0)
(0 4.63735e-11 -0)
(0 3.9734e-12 -0)
(0 -4.50178e-11 -0)
(0 2.24546e-11 -0)
(0 3.17293e-11 -0)
(0 -3.76943e-14 -0)
(0 5.71396e-14 -0)
(0 -2.59827e-14 -0)
(0 -4.05869e-14 -0)
(0 -4.2263e-14 -0)
(0 1.84233e-14 -0)
(0 -2.73777e-14 -0)
(0 2.67543e-14 -0)
(0 -1.15429e-14 -0)
(0 4.413e-14 -0)
(0 -2.93733e-15 -0)
(0 -3.95793e-14 -0)
(0 6.8158e-15 -0)
(0 -1.17175e-14 -0)
(0 8.96402e-15 -0)
(0 3.24131e-14 -0)
(0 1.21744e-14 -0)
(0 9.26955e-15 -0)
(0 -2.52161e-15 -0)
(0 -1.80861e-15 -0)
(0 -2.07504e-11 -0)
(0 1.94763e-11 -0)
(0 -3.63946e-12 -0)
(0 1.16118e-12 -0)
(0 2.55741e-14 -0)
(0 2.25334e-13 -0)
(0 1.78875e-13 -0)
(0 1.40793e-13 -0)
(0 1.65857e-13 -0)
(0 1.16084e-13 -0)
(0 1.21155e-13 -0)
(0 1.67826e-13 -0)
(0 4.48789e-14 -0)
(0 2.08297e-14 -0)
(0 -5.53811e-14 -0)
(0 -7.31308e-14 -0)
(0 -2.29591e-14 -0)
(0 1.8089e-14 -0)
(0 8.9417e-14 -0)
(0 -7.54413e-14 -0)
)
;
    }
    frontAndBack
    {
        type            empty;
    }
}


// ************************************************************************* //
