/*--------------------------------*- C++ -*----------------------------------*\
| =========                 |                                                 |
| \\      /  F ield         | OpenFOAM: The Open Source CFD Toolbox           |
|  \\    /   O peration     | Version:  2312                                  |
|   \\  /    A nd           | Website:  www.openfoam.com                      |
|    \\/     M anipulation  |                                                 |
\*---------------------------------------------------------------------------*/
FoamFile
{
    version     2.0;
    format      ascii;
    arch        "LSB;label=32;scalar=64";
    class       volScalarField;
    location    "7.125";
    object      Lambda2Field;
}
// * * * * * * * * * * * * * * * * * * * * * * * * * * * * * * * * * * * * * //

dimensions      [0 0 -2 0 0 0 0];

internalField   nonuniform List<scalar> 
400
(
2.66834e-23
1.03329e-23
3.95004e-25
-3.35925e-26
1.89148e-26
-2.53187e-27
6.67507e-28
-4.09733e-28
1.09765e-27
8.62899e-29
0
0
1.16166e-27
1.28771e-27
0
0
1.69412e-27
7.16229e-30
5.47445e-28
7.25146e-28
5.93557e-24
1.08422e-23
8.17928e-25
0
0
-1.12769e-28
1.64832e-27
2.11614e-28
3.82306e-27
6.95273e-28
8.84953e-28
-5.99588e-28
0
6.01355e-28
0
1.52111e-28
0
0
1.85351e-27
0
6.60949e-23
2.19922e-23
7.12849e-25
-1.29666e-26
1.12667e-26
-2.00874e-27
9.30153e-28
-1.0595e-27
4.92515e-28
4.82647e-28
2.09174e-28
6.40928e-29
1.01423e-28
7.34684e-28
4.00199e-28
1.03858e-27
0
0
6.57497e-28
0
5.80199e-23
2.15988e-23
7.5736e-25
-2.45829e-26
1.44164e-26
-6.44394e-27
4.08432e-28
4.54268e-28
2.27341e-27
1.82577e-28
1.53187e-27
7.06436e-28
0
-7.49024e-28
4.14637e-28
0
0
1.64175e-28
2.85116e-28
0
9.02677e-24
1.17667e-23
7.06031e-25
2.27609e-26
1.40837e-27
9.2883e-28
0
-6.98434e-28
0
-3.26049e-27
0
5.91282e-28
6.8253e-28
3.31822e-28
3.84478e-28
9.63455e-29
1.9125e-28
-2.31731e-28
2.81234e-28
6.3621e-29
2.68379e-23
1.59175e-23
6.52482e-25
1.85896e-26
4.73457e-27
0
0
1.99245e-28
1.64746e-28
0
0
6.35281e-29
5.13236e-28
1.20499e-28
0
0
0
0
0
5.01261e-28
5.30342e-23
1.81571e-23
2.74127e-25
8.42136e-26
0
1.18186e-27
0
1.6078e-27
7.70691e-28
0
8.65564e-28
0
2.35389e-29
-4.35499e-29
9.28147e-28
9.60013e-29
0
0
0
-1.49597e-28
3.6762e-24
3.94514e-24
0
1.31607e-26
1.2709e-27
3.22094e-28
1.72282e-27
2.7656e-28
0
0
1.24295e-27
-1.14035e-28
2.29817e-28
1.74225e-28
1.39449e-29
0
4.55419e-29
0
3.90402e-29
1.23889e-28
6.82731e-24
2.57306e-24
4.35744e-26
5.86446e-26
0
-5.61858e-28
7.12891e-28
6.1311e-28
2.55725e-29
0
1.08577e-27
0
2.73425e-29
7.02686e-29
0
1.06421e-30
0
0
0
9.94273e-29
0
2.74527e-24
0
2.93874e-27
0
0
0
0
0
0
3.22834e-28
0
1.39255e-28
0
0
4.35636e-28
2.05465e-29
1.34136e-28
3.92376e-29
-2.45334e-28
0
-1.07872e-24
0
4.11729e-30
0
2.88928e-29
5.18418e-29
3.82162e-28
3.71325e-28
0
2.30107e-29
1.53864e-28
1.71741e-28
0
0
1.78735e-29
3.10455e-28
0
5.62568e-29
0
2.54708e-24
3.14946e-24
0
2.08585e-27
0
1.59274e-27
0
-8.57801e-28
4.38328e-28
1.96555e-27
8.22257e-28
3.82918e-28
1.41047e-27
0
1.89745e-28
-4.894e-28
3.86138e-28
1.53175e-28
0
-9.09596e-29
8.20991e-24
2.05709e-24
1.44795e-25
7.67919e-28
2.38128e-27
0
1.04461e-27
3.92787e-28
3.36205e-28
1.05588e-28
0
-2.58316e-27
0
0
1.74754e-27
6.79145e-28
7.3572e-28
4.31847e-28
0
2.37169e-28
4.64525e-24
3.7195e-24
1.65304e-25
0
0
0
1.54737e-28
-1.85249e-27
0
3.74909e-29
6.57728e-28
-2.34937e-28
4.56847e-29
-4.22003e-29
8.73437e-29
2.22496e-28
2.99499e-28
0
2.39714e-28
1.98516e-28
4.81625e-23
1.76653e-23
1.10486e-25
4.42557e-26
0
0
1.1212e-27
-2.15132e-28
0
4.95888e-28
9.09993e-29
0
0
8.16552e-28
0
0
2.45005e-28
1.41039e-28
5.61759e-28
5.94922e-28
2.15052e-23
1.4329e-23
1.22879e-25
4.33984e-26
6.61216e-27
8.89621e-28
0
6.48687e-28
0
0
3.66298e-28
-5.81723e-28
0
0
7.25777e-29
-6.78029e-28
5.66459e-29
0
2.37776e-28
0
8.40279e-24
8.65947e-24
7.13661e-25
2.93874e-27
3.74702e-27
3.06276e-28
3.02359e-28
3.37549e-28
0
0
8.9256e-29
7.93926e-28
8.02447e-28
4.54067e-28
3.06152e-28
-2.57866e-28
0
-3.06351e-28
3.54217e-29
3.34764e-29
5.97603e-23
1.99573e-23
3.57426e-25
5.17991e-26
0
2.26895e-27
4.98485e-29
6.43891e-31
0
5.85912e-28
5.39504e-28
3.32837e-28
6.72657e-29
4.98752e-31
0
-5.37215e-28
0
-6.23869e-28
0
0
8.05522e-24
1.16218e-23
4.38359e-25
3.67962e-26
0
9.23209e-28
0
-2.08095e-27
0
5.88551e-28
4.44652e-28
2.20755e-29
2.24837e-28
6.07524e-29
8.4213e-30
3.46547e-29
9.66265e-28
3.8314e-28
1.33365e-28
0
1.31929e-23
5.07484e-24
3.07229e-25
0
4.41661e-27
0
3.18057e-28
5.73258e-29
6.39996e-28
0
2.82558e-29
0
0
0
0
2.17284e-28
1.64048e-28
5.99907e-29
0
0
)
;

boundaryField
{
    movingWall
    {
        type            calculated;
        value           nonuniform List<scalar> 
20
(
0
0
4.99083e-25
0
1.80904e-26
-2.74675e-27
2.63071e-27
3.75691e-28
1.14139e-28
-5.65993e-28
6.94414e-29
1.64446e-28
2.51023e-28
3.40167e-28
2.2463e-28
0
6.74695e-28
0
0
0
)
;
    }
    fixedWalls
    {
        type            calculated;
        value           nonuniform List<scalar> 
60
(
1.69894e-22
1.77414e-22
3.69117e-22
3.6065e-22
1.96711e-22
2.63672e-22
2.74832e-22
3.76795e-23
3.4759e-23
0
0
2.98562e-23
4.20816e-23
4.58472e-23
2.55708e-22
1.95009e-22
1.47048e-22
3.1054e-22
1.72171e-22
8.93769e-23
1.27417e-27
0
0
0
0
3.4552e-28
0
2.51799e-29
4.21814e-28
-4.40073e-28
5.65447e-29
-3.19297e-28
5.49941e-28
1.98516e-28
9.77654e-28
0
0
1.34983e-29
0
0
0
0
8.66132e-25
0
4.65639e-26
-7.70329e-27
5.14557e-28
0
2.82696e-27
2.49169e-27
1.60828e-27
1.74251e-27
2.91786e-27
2.93874e-27
2.96978e-27
1.39329e-27
2.93874e-27
1.52652e-27
6.81467e-28
1.18808e-27
)
;
    }
    frontAndBack
    {
        type            empty;
    }
}


// ************************************************************************* //
