/*--------------------------------*- C++ -*----------------------------------*\
| =========                 |                                                 |
| \\      /  F ield         | OpenFOAM: The Open Source CFD Toolbox           |
|  \\    /   O peration     | Version:  2312                                  |
|   \\  /    A nd           | Website:  www.openfoam.com                      |
|    \\/     M anipulation  |                                                 |
\*---------------------------------------------------------------------------*/
FoamFile
{
    version     2.0;
    format      ascii;
    arch        "LSB;label=32;scalar=64";
    class       volScalarField;
    location    "7.125";
    object      p;
}
// * * * * * * * * * * * * * * * * * * * * * * * * * * * * * * * * * * * * * //

dimensions      [0 2 -2 0 0 0 0];

internalField   nonuniform List<scalar> 
400
(
6.25053e-16
3.11413e-15
6.02984e-16
6.51904e-16
6.31173e-16
5.75997e-16
3.83278e-16
2.59297e-16
4.66347e-16
6.26534e-16
6.19349e-16
6.37163e-16
7.69638e-16
7.75536e-16
7.42773e-16
8.08728e-16
5.29983e-16
7.96826e-16
1.06805e-15
9.38218e-16
2.45499e-15
0
7.85366e-16
3.1412e-16
6.62275e-16
4.58616e-16
4.10882e-16
2.84624e-16
5.80783e-16
5.36252e-16
6.0819e-16
6.96649e-16
6.55363e-16
5.73483e-16
6.91855e-16
9.18495e-16
7.64937e-16
7.80484e-16
1.10384e-15
8.0839e-16
1.22399e-15
2.60917e-15
9.9271e-16
7.89234e-16
6.93222e-16
4.44015e-16
3.8631e-16
4.78202e-16
5.48537e-16
5.30596e-16
4.00173e-16
6.64683e-16
6.4614e-16
5.45056e-16
5.77371e-16
9.29933e-16
8.46687e-16
8.74787e-16
9.08959e-16
9.28074e-16
1.0068e-15
1.29351e-15
9.75794e-16
7.68338e-16
7.82708e-16
5.32804e-16
4.6936e-16
5.71904e-16
4.72525e-16
6.21339e-16
4.03953e-16
4.73357e-16
5.39965e-16
6.31796e-16
6.32174e-16
9.83073e-16
8.43717e-16
6.60081e-16
9.57187e-16
1.06688e-15
1.3961e-15
0
6.9674e-16
6.4966e-16
7.66422e-16
5.88091e-16
5.51499e-16
5.26087e-16
3.71198e-16
4.95979e-16
4.76725e-16
7.02813e-16
5.62918e-16
6.41546e-16
6.92129e-16
8.20261e-16
9.16812e-16
7.34352e-16
9.33089e-16
1.31543e-15
3.07978e-16
1.87177e-15
3.85934e-16
7.47808e-16
7.42009e-16
3.89717e-16
4.87497e-16
4.64736e-16
3.58292e-16
5.30207e-16
4.08569e-16
5.93135e-16
7.53961e-16
6.38063e-16
7.49271e-16
8.60354e-16
9.07223e-16
8.20116e-16
1.02823e-15
1.40145e-15
5.10508e-16
1.06957e-15
1.84747e-16
5.42782e-16
6.15166e-16
4.31659e-16
3.51327e-16
5.44063e-16
6.02367e-16
3.53536e-16
4.08421e-16
6.46943e-16
8.75812e-16
8.83284e-16
9.76805e-16
8.52932e-16
8.88015e-16
1.0678e-15
1.16113e-15
1.31581e-15
8.40855e-16
0
1.59712e-16
3.07882e-16
4.84586e-16
1.87814e-16
2.68627e-16
4.57241e-16
5.66593e-16
3.7005e-16
4.33425e-16
8.43346e-16
1.09671e-15
1.00898e-15
8.81669e-16
9.3637e-16
9.60737e-16
1.02488e-15
1.20613e-15
1.38492e-15
0
3.3607e-15
1.78497e-16
6.01917e-16
1.16883e-16
1.53361e-16
2.12313e-16
4.83084e-16
6.06926e-16
4.65395e-16
4.59071e-16
8.60935e-16
1.04585e-15
1.06197e-15
1.02414e-15
1.0907e-15
1.00825e-15
1.01175e-15
1.19063e-15
1.36036e-15
0
0
3.4952e-16
2.55417e-16
5.4219e-17
1.34688e-16
3.58e-16
5.38606e-16
6.29421e-16
4.77545e-16
6.70874e-16
9.93461e-16
1.01635e-15
9.97459e-16
9.96322e-16
8.61039e-16
9.97074e-16
1.08904e-15
1.1813e-15
1.23309e-15
0
0
1.14837e-16
2.67944e-16
1.90261e-16
8.27726e-17
4.54649e-16
5.91323e-16
5.36117e-16
4.62263e-16
6.96774e-16
8.86664e-16
1.01518e-15
1.15494e-15
1.01259e-15
9.53964e-16
1.18395e-15
1.19166e-15
1.01541e-15
1.15763e-15
0
1.8719e-15
0
3.96786e-16
2.18603e-16
1.41145e-16
3.82147e-16
4.80493e-16
4.36962e-16
6.70733e-16
7.74686e-16
1.07811e-15
1.18829e-15
9.26865e-16
8.63457e-16
8.72024e-16
9.90641e-16
1.08335e-15
1.23106e-15
1.22444e-15
1.24231e-16
0
8.67941e-17
0
3.29912e-16
3.05333e-16
4.59965e-16
2.85034e-16
3.03131e-16
5.66751e-16
6.84945e-16
9.31708e-16
1.061e-15
9.19324e-16
9.97608e-16
7.7046e-16
9.71513e-16
1.07531e-15
1.20501e-15
1.28462e-15
0
2.44312e-15
0
3.06121e-17
1.42738e-16
3.40965e-16
2.4215e-16
2.52461e-16
3.27901e-16
5.49431e-16
5.2665e-16
8.65747e-16
9.27884e-16
8.67127e-16
8.12055e-16
8.76719e-16
9.32982e-16
9.51477e-16
1.09302e-15
1.42444e-15
2.61984e-16
0
1.65816e-16
0
0
1.67049e-16
1.0112e-16
1.94699e-16
3.79181e-16
5.75356e-16
5.54049e-16
7.28069e-16
7.57253e-16
8.22162e-16
7.85089e-16
9.33248e-16
7.7116e-16
7.82072e-16
1.00586e-15
1.35077e-15
2.90012e-16
0
7.45001e-17
0
5.84738e-18
9.08351e-17
1.58016e-16
1.744e-16
2.22054e-16
4.52319e-16
5.64251e-16
6.80703e-16
7.5615e-16
8.44219e-16
8.31478e-16
8.40027e-16
9.17942e-16
7.55719e-16
8.24638e-16
1.07711e-15
0
2.32296e-15
2.07605e-17
1.05095e-16
3.90454e-17
2.58337e-16
1.96933e-16
0
2.66452e-16
4.48646e-16
5.80752e-16
7.31386e-16
6.7936e-16
6.22414e-16
6.28686e-16
7.74334e-16
8.21095e-16
7.9417e-16
8.64624e-16
1.05602e-15
2.97282e-16
0
2.88424e-17
0
0
0
4.13831e-16
3.81716e-16
4.01375e-16
4.27663e-16
5.45549e-16
6.16626e-16
6.20792e-16
6.95894e-16
6.93502e-16
8.07323e-16
8.27456e-16
7.52963e-16
8.18683e-16
9.53882e-16
4.58626e-16
0
0
0
8.65226e-17
3.175e-17
1.33084e-16
2.26871e-16
3.79189e-16
5.57023e-16
6.53441e-16
7.57598e-16
7.06427e-16
7.21889e-16
8.99947e-16
8.54122e-16
8.77357e-16
5.89621e-16
7.39736e-16
9.86999e-16
0
1.49213e-15
0
9.52031e-18
0
2.87036e-17
1.03599e-16
1.48994e-16
3.89004e-16
6.38833e-16
6.97979e-16
8.01682e-16
6.7696e-16
7.95284e-16
9.87032e-16
9.93376e-16
8.66508e-16
7.28785e-16
7.30283e-16
9.94961e-16
)
;

boundaryField
{
    movingWall
    {
        type            zeroGradient;
    }
    fixedWalls
    {
        type            zeroGradient;
    }
    frontAndBack
    {
        type            empty;
    }
}


// ************************************************************************* //
