/*--------------------------------*- C++ -*----------------------------------*\
| =========                 |                                                 |
| \\      /  F ield         | OpenFOAM: The Open Source CFD Toolbox           |
|  \\    /   O peration     | Version:  2312                                  |
|   \\  /    A nd           | Website:  www.openfoam.com                      |
|    \\/     M anipulation  |                                                 |
\*---------------------------------------------------------------------------*/
FoamFile
{
    version     2.0;
    format      ascii;
    arch        "LSB;label=32;scalar=64";
    class       volScalarField;
    location    "7.125";
    object      Uy;
}
// * * * * * * * * * * * * * * * * * * * * * * * * * * * * * * * * * * * * * //

dimensions      [0 1 -1 0 0 0 0];

internalField   nonuniform List<scalar> 
400
(
1.84648e-13
-4.0205e-14
9.42485e-15
-2.03406e-15
4.7756e-16
-6.93527e-17
5.81124e-19
-8.17447e-17
-7.50776e-17
3.604e-17
9.63495e-17
1.56758e-16
1.94444e-16
1.52058e-16
-1.38531e-17
-1.8231e-16
-1.70723e-16
4.72811e-17
9.24763e-17
4.12894e-17
-7.3729e-15
1.70213e-15
-5.2084e-16
5.51056e-17
2.98637e-17
1.4273e-16
7.87561e-17
7.53155e-17
1.05127e-16
5.68523e-17
1.96234e-17
6.48673e-18
1.46378e-16
2.06789e-16
7.38507e-17
-1.50123e-16
-2.14374e-16
-2.05186e-17
1.00346e-16
7.32378e-18
-1.49175e-13
3.24481e-14
-7.78478e-15
1.67118e-15
-3.21187e-16
1.34932e-16
4.38718e-17
1.41309e-16
2.04812e-16
8.07399e-17
1.23572e-16
6.31884e-17
3.46706e-17
7.7725e-18
4.27615e-17
-5.89766e-17
-1.42625e-16
-1.08961e-16
-8.40848e-17
-6.49568e-17
1.42792e-13
-3.18642e-14
7.4413e-15
-1.60302e-15
4.14609e-16
-1.32771e-16
-6.70695e-17
-8.25422e-17
1.67282e-17
-8.14599e-18
9.89872e-18
8.65447e-17
4.95562e-17
-9.94169e-17
-1.23395e-16
-9.21651e-17
-1.79898e-16
-1.54062e-16
-1.55125e-16
-1.01467e-16
-3.92055e-14
8.73149e-15
-1.93543e-15
5.08902e-16
5.05146e-17
2.26599e-16
1.36184e-16
7.37534e-17
3.04386e-17
-6.74492e-17
-2.2247e-16
-2.026e-16
-1.67112e-16
-1.29541e-16
-1.05901e-16
1.23068e-17
-7.10116e-17
-1.63628e-16
-1.60476e-16
-1.05657e-16
-9.20948e-14
2.00769e-14
-4.75364e-15
9.12427e-16
-3.34729e-16
3.90523e-17
6.54943e-17
2.45741e-17
-8.01422e-18
1.21108e-16
6.92101e-17
-3.22546e-17
-1.4704e-16
-1.87321e-16
-1.76927e-16
-7.88348e-17
-5.00391e-17
-1.21255e-16
-1.22572e-16
-2.17045e-17
1.58404e-13
-3.49537e-14
7.93954e-15
-2.05521e-15
2.39968e-16
-6.42735e-17
1.34033e-16
2.88495e-17
-6.36919e-17
3.67728e-17
5.48101e-18
-1.22896e-16
-9.01074e-17
-6.66998e-17
-3.97108e-17
-7.20816e-17
-7.14665e-17
-8.37703e-17
-5.61103e-17
-6.81541e-19
-7.18047e-14
1.5287e-14
-3.96205e-15
5.96667e-16
-1.90818e-16
-1.86552e-17
-8.9632e-17
-5.82878e-17
-8.37282e-17
-8.07194e-17
-5.74735e-17
-1.08722e-16
-1.07488e-16
-9.08587e-17
-4.32098e-17
-4.73275e-17
-3.39479e-17
-6.41295e-17
-3.90484e-17
-8.77006e-19
-5.40299e-14
1.15629e-14
-3.11356e-15
5.33935e-16
-1.44004e-16
-1.33431e-16
-1.96365e-16
-1.37451e-16
-8.32666e-17
-1.72316e-16
-2.01982e-16
-7.64971e-17
-4.41301e-17
-8.65846e-17
-7.00546e-17
7.67561e-17
3.80009e-17
-4.88553e-17
-2.22332e-18
3.89055e-17
1.13291e-13
-2.43211e-14
5.84479e-15
-1.1188e-15
3.18079e-16
-4.28282e-17
-2.71421e-17
-2.59856e-17
-3.62586e-17
-1.03692e-16
-1.40188e-16
-4.13704e-17
-3.53062e-17
-7.70539e-17
-3.29942e-17
-3.70114e-17
-9.86626e-17
-4.45917e-17
5.58413e-17
4.25624e-17
-1.10615e-13
2.405e-14
-5.44031e-15
1.15782e-15
-4.80126e-16
-1.34543e-16
-1.66738e-16
-1.15417e-16
-1.43578e-16
-1.42699e-16
-2.50286e-17
-1.14186e-17
-5.2853e-17
-1.95237e-18
-2.69882e-17
-1.31963e-16
-3.8774e-17
6.69618e-17
4.27744e-17
-7.34333e-18
9.87682e-14
-2.18394e-14
5.05833e-15
-1.09851e-15
2.36223e-16
-9.65802e-17
3.84512e-17
1.34206e-16
1.55956e-16
8.03011e-17
8.08787e-17
-2.39709e-17
-4.35232e-17
3.81513e-17
-1.36969e-17
5.26566e-18
4.67772e-17
6.9561e-17
-9.31521e-18
-3.11856e-17
-4.2062e-14
9.43352e-15
-2.13238e-15
7.01112e-16
2.37653e-17
9.36273e-17
2.73965e-17
5.88483e-17
1.7231e-16
2.52086e-16
1.91787e-16
5.62021e-17
-4.68891e-17
-1.48213e-16
-1.63751e-16
-1.4728e-16
-1.16439e-16
-5.68023e-17
-3.67768e-17
-5.07231e-17
-7.17193e-14
1.58226e-14
-3.7418e-15
8.57928e-16
-1.36762e-16
2.22326e-16
2.38743e-16
1.18725e-16
1.18637e-19
1.16037e-17
1.39503e-17
-2.5922e-18
-7.72433e-17
-1.59796e-16
-1.08938e-16
-5.63278e-17
9.09924e-17
4.90338e-17
-3.92683e-17
-2.92936e-17
1.62117e-13
-3.58121e-14
8.33995e-15
-1.82615e-15
4.68974e-16
-5.57173e-17
1.19396e-16
1.92133e-16
1.61683e-16
5.41399e-17
-2.12677e-17
2.12114e-17
-1.04448e-17
-8.21012e-17
-8.59183e-17
1.88322e-18
3.55044e-17
5.82736e-17
8.44082e-17
9.01727e-17
-1.20677e-13
2.57692e-14
-6.19728e-15
1.2563e-15
-3.60087e-16
-7.12382e-17
-7.23239e-17
8.11646e-17
1.28799e-18
-7.12959e-17
-8.00116e-17
-6.01991e-19
3.73015e-17
8.75867e-17
7.13463e-17
6.43572e-17
-6.29737e-17
-6.9726e-17
1.39693e-17
8.10327e-17
-1.81328e-14
4.12485e-15
-9.40996e-16
1.98092e-16
-1.22499e-17
4.89906e-17
-5.54006e-17
-6.25601e-17
1.43015e-17
1.27784e-16
1.41809e-16
9.48544e-17
-3.16774e-18
-5.3171e-17
-1.52126e-18
7.26792e-17
6.67226e-17
-7.57335e-19
-5.01116e-17
3.04361e-17
1.27384e-13
-2.75469e-14
6.66089e-15
-1.39032e-15
3.79199e-16
6.63538e-17
-3.48976e-17
-1.86306e-16
-3.50814e-17
4.26302e-17
7.5048e-17
2.76892e-17
-2.26381e-17
-1.25502e-16
-9.19193e-17
-4.15127e-17
1.25292e-17
1.11108e-16
7.14055e-17
2.31739e-17
-5.75595e-14
1.15043e-14
-2.90769e-15
4.66312e-16
-1.23706e-16
9.81092e-17
4.65962e-17
-6.63765e-17
-1.62722e-16
-1.69608e-16
-9.03429e-17
-8.75839e-17
-3.24884e-17
-4.61088e-17
-7.48616e-17
-1.03987e-16
-7.39068e-17
-3.87961e-17
3.47883e-18
-6.30402e-18
-8.3999e-14
1.7736e-14
-4.35498e-15
8.51094e-16
-1.73248e-16
3.63727e-17
-4.00118e-17
-4.90166e-17
-6.11613e-17
-1.4083e-17
6.13666e-18
-1.92953e-17
-1.74794e-17
-4.7558e-17
-9.40781e-17
-9.81401e-17
-5.39963e-17
-8.46318e-17
-4.293e-17
-4.52152e-18
)
;

boundaryField
{
    movingWall
    {
        type            calculated;
        value           uniform -0;
    }
    fixedWalls
    {
        type            calculated;
        value           uniform -0;
    }
    frontAndBack
    {
        type            empty;
    }
}


// ************************************************************************* //
