/*--------------------------------*- C++ -*----------------------------------*\
| =========                 |                                                 |
| \\      /  F ield         | OpenFOAM: The Open Source CFD Toolbox           |
|  \\    /   O peration     | Version:  2312                                  |
|   \\  /    A nd           | Website:  www.openfoam.com                      |
|    \\/     M anipulation  |                                                 |
\*---------------------------------------------------------------------------*/
FoamFile
{
    version     2.0;
    format      ascii;
    arch        "LSB;label=32;scalar=64";
    class       volVectorField;
    location    "9.625";
    object      diffU;
}
// * * * * * * * * * * * * * * * * * * * * * * * * * * * * * * * * * * * * * //

dimensions      [0 1 -1 0 0 0 0];

internalField   nonuniform List<vector> 
400
(
(0 0 0)
(1.67644e-14 -1.80227e-13 0)
(1.29896e-14 -1.40877e-13 0)
(1.28786e-14 -1.5009e-13 0)
(1.27676e-14 -1.48139e-13 0)
(1.27676e-14 -1.48543e-13 0)
(1.26565e-14 -1.48425e-13 0)
(1.24345e-14 -1.48541e-13 0)
(1.25455e-14 -1.48579e-13 0)
(1.25455e-14 -1.48536e-13 0)
(1.27676e-14 -1.4844e-13 0)
(1.26565e-14 -1.48431e-13 0)
(1.24345e-14 -1.48457e-13 0)
(1.24345e-14 -1.48476e-13 0)
(1.24345e-14 -1.48465e-13 0)
(1.22125e-14 -1.4849e-13 0)
(1.19904e-14 -1.48551e-13 0)
(1.22125e-14 -1.48599e-13 0)
(1.24345e-14 -1.4855e-13 0)
(1.19904e-14 -1.48499e-13 0)
(3.95239e-14 -1.33904e-13 0)
(3.33067e-15 -1.5123e-13 0)
(1.19904e-14 -1.4779e-13 0)
(1.15463e-14 -1.48569e-13 0)
(1.17684e-14 -1.4848e-13 0)
(1.17684e-14 -1.48509e-13 0)
(1.19904e-14 -1.48456e-13 0)
(1.17684e-14 -1.48505e-13 0)
(1.15463e-14 -1.48538e-13 0)
(1.15463e-14 -1.48573e-13 0)
(1.13243e-14 -1.48591e-13 0)
(1.13243e-14 -1.48615e-13 0)
(1.17684e-14 -1.48607e-13 0)
(1.17684e-14 -1.48589e-13 0)
(1.19904e-14 -1.48464e-13 0)
(1.22125e-14 -1.48394e-13 0)
(1.22125e-14 -1.48456e-13 0)
(1.22125e-14 -1.48542e-13 0)
(1.19904e-14 -1.48584e-13 0)
(1.19904e-14 -1.48556e-13 0)
(7.54952e-15 -2.83263e-13 0)
(1.43219e-14 -1.19448e-13 0)
(1.22125e-14 -1.5566e-13 0)
(1.24345e-14 -1.47132e-13 0)
(1.24345e-14 -1.48893e-13 0)
(1.24345e-14 -1.48476e-13 0)
(1.26565e-14 -1.48507e-13 0)
(1.24345e-14 -1.48337e-13 0)
(1.24345e-14 -1.48275e-13 0)
(1.25455e-14 -1.48384e-13 0)
(1.25455e-14 -1.48571e-13 0)
(1.23235e-14 -1.48631e-13 0)
(1.22125e-14 -1.48652e-13 0)
(1.19904e-14 -1.48647e-13 0)
(1.17684e-14 -1.48633e-13 0)
(1.17684e-14 -1.48606e-13 0)
(1.19904e-14 -1.48547e-13 0)
(1.22125e-14 -1.48493e-13 0)
(1.22125e-14 -1.48621e-13 0)
(1.22125e-14 -1.4866e-13 0)
(-1.37668e-14 -6.08771e-14 0)
(1.85407e-14 -1.67756e-13 0)
(1.11022e-14 -1.44148e-13 0)
(1.19904e-14 -1.49604e-13 0)
(1.15463e-14 -1.48373e-13 0)
(1.19904e-14 -1.48614e-13 0)
(1.19904e-14 -1.48496e-13 0)
(1.17684e-14 -1.48452e-13 0)
(1.22125e-14 -1.48479e-13 0)
(1.23235e-14 -1.48457e-13 0)
(1.23235e-14 -1.48432e-13 0)
(1.23235e-14 -1.48419e-13 0)
(1.23235e-14 -1.48494e-13 0)
(1.22125e-14 -1.48544e-13 0)
(1.24345e-14 -1.48612e-13 0)
(1.23235e-14 -1.48671e-13 0)
(1.22125e-14 -1.48629e-13 0)
(1.23235e-14 -1.48589e-13 0)
(1.23235e-14 -1.48577e-13 0)
(1.24345e-14 -1.48595e-13 0)
(4.45199e-14 -1.2622e-13 0)
(4.21885e-15 -1.5361e-13 0)
(1.37668e-14 -1.47402e-13 0)
(1.23235e-14 -1.48793e-13 0)
(1.26565e-14 -1.48506e-13 0)
(1.25455e-14 -1.48627e-13 0)
(1.24345e-14 -1.48557e-13 0)
(1.25455e-14 -1.48575e-13 0)
(1.25455e-14 -1.48619e-13 0)
(1.25455e-14 -1.48538e-13 0)
(1.25455e-14 -1.48343e-13 0)
(1.23235e-14 -1.48365e-13 0)
(1.25455e-14 -1.48434e-13 0)
(1.24345e-14 -1.48502e-13 0)
(1.23235e-14 -1.48629e-13 0)
(1.23235e-14 -1.4863e-13 0)
(1.22125e-14 -1.4858e-13 0)
(1.23235e-14 -1.48524e-13 0)
(1.22125e-14 -1.48521e-13 0)
(1.23235e-14 -1.48555e-13 0)
(-1.17684e-14 -2.76008e-13 0)
(1.82077e-14 -1.20582e-13 0)
(1.13243e-14 -1.55149e-13 0)
(1.27676e-14 -1.47146e-13 0)
(1.23235e-14 -1.48834e-13 0)
(1.24345e-14 -1.48413e-13 0)
(1.19904e-14 -1.4847e-13 0)
(1.17684e-14 -1.48436e-13 0)
(1.19904e-14 -1.48472e-13 0)
(1.13243e-14 -1.48469e-13 0)
(1.19904e-14 -1.48486e-13 0)
(1.19904e-14 -1.48557e-13 0)
(1.23235e-14 -1.48576e-13 0)
(1.22125e-14 -1.4856e-13 0)
(1.24345e-14 -1.48655e-13 0)
(1.23235e-14 -1.48618e-13 0)
(1.22125e-14 -1.48584e-13 0)
(1.19904e-14 -1.48454e-13 0)
(1.25455e-14 -1.48483e-13 0)
(1.23235e-14 -1.48522e-13 0)
(1.5099e-14 -2.18042e-15 0)
(1.26565e-14 -1.80492e-13 0)
(1.33227e-14 -1.40994e-13 0)
(1.22125e-14 -1.50121e-13 0)
(1.25455e-14 -1.47973e-13 0)
(1.24345e-14 -1.48345e-13 0)
(1.26565e-14 -1.48253e-13 0)
(1.24345e-14 -1.48273e-13 0)
(1.27676e-14 -1.48356e-13 0)
(1.24345e-14 -1.48523e-13 0)
(1.24345e-14 -1.48735e-13 0)
(1.24345e-14 -1.48749e-13 0)
(1.24345e-14 -1.48703e-13 0)
(1.24345e-14 -1.48568e-13 0)
(1.22125e-14 -1.48449e-13 0)
(1.22125e-14 -1.48444e-13 0)
(1.22125e-14 -1.48524e-13 0)
(1.22125e-14 -1.48557e-13 0)
(1.22125e-14 -1.48499e-13 0)
(1.22125e-14 -1.48461e-13 0)
(2.45359e-14 -1.77979e-13 0)
(7.10543e-15 -1.42197e-13 0)
(1.13243e-14 -1.50241e-13 0)
(1.19904e-14 -1.48246e-13 0)
(1.17684e-14 -1.48624e-13 0)
(1.17684e-14 -1.48481e-13 0)
(1.17684e-14 -1.48469e-13 0)
(1.19904e-14 -1.48403e-13 0)
(1.24345e-14 -1.48384e-13 0)
(1.23235e-14 -1.48464e-13 0)
(1.23235e-14 -1.4854e-13 0)
(1.23235e-14 -1.48482e-13 0)
(1.22125e-14 -1.4849e-13 0)
(1.19904e-14 -1.48477e-13 0)
(1.19904e-14 -1.48471e-13 0)
(1.19904e-14 -1.486e-13 0)
(1.19904e-14 -1.48671e-13 0)
(1.24345e-14 -1.48581e-13 0)
(1.22125e-14 -1.48454e-13 0)
(1.22125e-14 -1.48463e-13 0)
(-3.55271e-15 -2.6097e-13 0)
(1.79856e-14 -1.24525e-13 0)
(1.27676e-14 -1.5432e-13 0)
(1.27676e-14 -1.47235e-13 0)
(1.26565e-14 -1.4863e-13 0)
(1.26565e-14 -1.48263e-13 0)
(1.22125e-14 -1.48485e-13 0)
(1.23235e-14 -1.48637e-13 0)
(1.23235e-14 -1.48614e-13 0)
(1.23235e-14 -1.48527e-13 0)
(1.23235e-14 -1.48485e-13 0)
(1.22125e-14 -1.4845e-13 0)
(1.22125e-14 -1.48452e-13 0)
(1.22125e-14 -1.48505e-13 0)
(1.22125e-14 -1.48561e-13 0)
(1.23235e-14 -1.48584e-13 0)
(1.19904e-14 -1.48675e-13 0)
(1.17684e-14 -1.48634e-13 0)
(1.22125e-14 -1.48489e-13 0)
(1.23235e-14 -1.4847e-13 0)
(1.74305e-14 2.51989e-14 0)
(1.06581e-14 -1.86809e-13 0)
(1.19904e-14 -1.39494e-13 0)
(1.15463e-14 -1.5035e-13 0)
(1.13243e-14 -1.4796e-13 0)
(1.15463e-14 -1.48641e-13 0)
(1.23235e-14 -1.48598e-13 0)
(1.25455e-14 -1.48644e-13 0)
(1.25455e-14 -1.48487e-13 0)
(1.25455e-14 -1.48381e-13 0)
(1.25455e-14 -1.48315e-13 0)
(1.23235e-14 -1.4838e-13 0)
(1.25455e-14 -1.48378e-13 0)
(1.23235e-14 -1.48354e-13 0)
(1.24345e-14 -1.48489e-13 0)
(1.23235e-14 -1.48464e-13 0)
(1.24345e-14 -1.48506e-13 0)
(1.23235e-14 -1.48613e-13 0)
(1.19904e-14 -1.48649e-13 0)
(1.22125e-14 -1.48518e-13 0)
(8.21565e-15 -2.9259e-13 0)
(1.17684e-14 -1.16916e-13 0)
(1.11022e-14 -1.55855e-13 0)
(1.19904e-14 -1.46847e-13 0)
(1.22125e-14 -1.49089e-13 0)
(1.22125e-14 -1.48773e-13 0)
(1.19904e-14 -1.48777e-13 0)
(1.17684e-14 -1.486e-13 0)
(1.13243e-14 -1.48564e-13 0)
(1.15463e-14 -1.48595e-13 0)
(1.15463e-14 -1.48533e-13 0)
(1.23235e-14 -1.48464e-13 0)
(1.17684e-14 -1.48451e-13 0)
(1.24345e-14 -1.48522e-13 0)
(1.22125e-14 -1.4853e-13 0)
(1.23235e-14 -1.48576e-13 0)
(1.23235e-14 -1.48564e-13 0)
(1.23235e-14 -1.48514e-13 0)
(1.24345e-14 -1.48534e-13 0)
(1.22125e-14 -1.48529e-13 0)
(1.72085e-14 -7.79429e-14 0)
(1.34337e-14 -1.64626e-13 0)
(1.40998e-14 -1.44842e-13 0)
(1.23235e-14 -1.49405e-13 0)
(1.29896e-14 -1.48393e-13 0)
(1.27676e-14 -1.4856e-13 0)
(1.26565e-14 -1.48438e-13 0)
(1.25455e-14 -1.48432e-13 0)
(1.26565e-14 -1.48482e-13 0)
(1.28786e-14 -1.48539e-13 0)
(1.25455e-14 -1.48639e-13 0)
(1.25455e-14 -1.48528e-13 0)
(1.26565e-14 -1.48463e-13 0)
(1.26565e-14 -1.48597e-13 0)
(1.23235e-14 -1.48521e-13 0)
(1.23235e-14 -1.48556e-13 0)
(1.25455e-14 -1.4852e-13 0)
(1.19904e-14 -1.48484e-13 0)
(1.23235e-14 -1.48443e-13 0)
(1.23235e-14 -1.48443e-13 0)
(9.76996e-15 -1.21505e-13 0)
(9.76996e-15 -1.54578e-13 0)
(1.02141e-14 -1.47152e-13 0)
(1.13243e-14 -1.49031e-13 0)
(1.13243e-14 -1.48621e-13 0)
(1.13243e-14 -1.48601e-13 0)
(1.08802e-14 -1.48537e-13 0)
(1.13243e-14 -1.48547e-13 0)
(1.11022e-14 -1.48576e-13 0)
(1.15463e-14 -1.48585e-13 0)
(1.15463e-14 -1.486e-13 0)
(1.15463e-14 -1.48563e-13 0)
(1.15463e-14 -1.48538e-13 0)
(1.17684e-14 -1.48559e-13 0)
(1.17684e-14 -1.48551e-13 0)
(1.19904e-14 -1.48494e-13 0)
(1.17684e-14 -1.48476e-13 0)
(1.17684e-14 -1.48567e-13 0)
(1.19904e-14 -1.4862e-13 0)
(1.19904e-14 -1.4851e-13 0)
(2.06501e-14 -2.64626e-13 0)
(1.17684e-14 -1.22567e-13 0)
(1.39888e-14 -1.54494e-13 0)
(1.24345e-14 -1.47148e-13 0)
(1.25455e-14 -1.48846e-13 0)
(1.23235e-14 -1.48489e-13 0)
(1.24345e-14 -1.48635e-13 0)
(1.23235e-14 -1.48576e-13 0)
(1.25455e-14 -1.48632e-13 0)
(1.23235e-14 -1.48657e-13 0)
(1.19904e-14 -1.48613e-13 0)
(1.22125e-14 -1.48693e-13 0)
(1.19904e-14 -1.48737e-13 0)
(1.22125e-14 -1.48694e-13 0)
(1.23235e-14 -1.48652e-13 0)
(1.22125e-14 -1.48563e-13 0)
(1.23235e-14 -1.48547e-13 0)
(1.24345e-14 -1.48613e-13 0)
(1.22125e-14 -1.48688e-13 0)
(1.23235e-14 -1.48598e-13 0)
(-7.99361e-15 4.14633e-15 0)
(1.62093e-14 -1.81394e-13 0)
(1.04361e-14 -1.40941e-13 0)
(1.22125e-14 -1.50297e-13 0)
(1.17684e-14 -1.48295e-13 0)
(1.23235e-14 -1.48736e-13 0)
(1.22125e-14 -1.485e-13 0)
(1.19904e-14 -1.48469e-13 0)
(1.22125e-14 -1.48495e-13 0)
(1.23235e-14 -1.48422e-13 0)
(1.25455e-14 -1.48469e-13 0)
(1.27676e-14 -1.48633e-13 0)
(1.24345e-14 -1.48731e-13 0)
(1.23235e-14 -1.48739e-13 0)
(1.23235e-14 -1.48696e-13 0)
(1.24345e-14 -1.48598e-13 0)
(1.23235e-14 -1.4847e-13 0)
(1.23235e-14 -1.48455e-13 0)
(1.23235e-14 -1.4853e-13 0)
(1.23235e-14 -1.48533e-13 0)
(3.67484e-14 -2.29533e-13 0)
(6.21725e-15 -1.31321e-13 0)
(1.33227e-14 -1.52666e-13 0)
(1.23235e-14 -1.47817e-13 0)
(1.22125e-14 -1.48896e-13 0)
(1.19904e-14 -1.48615e-13 0)
(1.17684e-14 -1.4859e-13 0)
(1.22125e-14 -1.48709e-13 0)
(1.23235e-14 -1.48761e-13 0)
(1.23235e-14 -1.48755e-13 0)
(1.24345e-14 -1.48754e-13 0)
(1.27676e-14 -1.48633e-13 0)
(1.26565e-14 -1.48489e-13 0)
(1.26565e-14 -1.48537e-13 0)
(1.22125e-14 -1.48601e-13 0)
(1.19904e-14 -1.48576e-13 0)
(1.19904e-14 -1.48546e-13 0)
(1.19904e-14 -1.48512e-13 0)
(1.22125e-14 -1.48516e-13 0)
(1.22125e-14 -1.48551e-13 0)
(-1.06581e-14 -1.98874e-13 0)
(1.92069e-14 -1.37898e-13 0)
(1.22125e-14 -1.5083e-13 0)
(1.27676e-14 -1.47896e-13 0)
(1.25455e-14 -1.48488e-13 0)
(1.24345e-14 -1.48453e-13 0)
(1.25455e-14 -1.48655e-13 0)
(1.27676e-14 -1.48765e-13 0)
(1.25455e-14 -1.48763e-13 0)
(1.24345e-14 -1.48767e-13 0)
(1.23235e-14 -1.48766e-13 0)
(1.19904e-14 -1.48712e-13 0)
(1.19904e-14 -1.48628e-13 0)
(1.24345e-14 -1.48468e-13 0)
(1.25455e-14 -1.48363e-13 0)
(1.24345e-14 -1.484e-13 0)
(1.22125e-14 -1.48565e-13 0)
(1.23235e-14 -1.48537e-13 0)
(1.22125e-14 -1.48544e-13 0)
(1.24345e-14 -1.48536e-13 0)
(1.08802e-14 -1.68605e-14 0)
(1.15463e-14 -1.76416e-13 0)
(1.19904e-14 -1.41977e-13 0)
(1.19904e-14 -1.50098e-13 0)
(1.22125e-14 -1.48263e-13 0)
(1.24345e-14 -1.48556e-13 0)
(1.25455e-14 -1.4854e-13 0)
(1.22125e-14 -1.48603e-13 0)
(1.19904e-14 -1.48613e-13 0)
(1.19904e-14 -1.48553e-13 0)
(1.19904e-14 -1.48494e-13 0)
(1.22125e-14 -1.48561e-13 0)
(1.17684e-14 -1.48672e-13 0)
(1.17684e-14 -1.48579e-13 0)
(1.17684e-14 -1.48465e-13 0)
(1.22125e-14 -1.48464e-13 0)
(1.19904e-14 -1.48475e-13 0)
(1.22125e-14 -1.48496e-13 0)
(1.19904e-14 -1.48537e-13 0)
(1.23235e-14 -1.48524e-13 0)
(3.64153e-14 -1.8821e-13 0)
(5.77316e-15 -1.40196e-13 0)
(1.25455e-14 -1.50638e-13 0)
(1.22125e-14 -1.48196e-13 0)
(1.15463e-14 -1.48785e-13 0)
(1.15463e-14 -1.48606e-13 0)
(1.15463e-14 -1.4862e-13 0)
(1.17684e-14 -1.48647e-13 0)
(1.17684e-14 -1.48624e-13 0)
(1.17684e-14 -1.48602e-13 0)
(1.15463e-14 -1.48567e-13 0)
(1.17684e-14 -1.48525e-13 0)
(1.19904e-14 -1.48475e-13 0)
(1.19904e-14 -1.48509e-13 0)
(1.17684e-14 -1.48633e-13 0)
(1.19904e-14 -1.48638e-13 0)
(1.19904e-14 -1.48583e-13 0)
(1.19904e-14 -1.48652e-13 0)
(1.22125e-14 -1.48601e-13 0)
(1.22125e-14 -1.48562e-13 0)
(1.55431e-15 -2.53513e-13 0)
(1.58762e-14 -1.26646e-13 0)
(1.32117e-14 -1.53657e-13 0)
(1.28786e-14 -1.47302e-13 0)
(1.29896e-14 -1.48734e-13 0)
(1.29896e-14 -1.48546e-13 0)
(1.31006e-14 -1.48622e-13 0)
(1.28786e-14 -1.48628e-13 0)
(1.27676e-14 -1.48614e-13 0)
(1.27676e-14 -1.48629e-13 0)
(1.25455e-14 -1.48642e-13 0)
(1.26565e-14 -1.48653e-13 0)
(1.24345e-14 -1.48614e-13 0)
(1.27676e-14 -1.48563e-13 0)
(1.26565e-14 -1.4858e-13 0)
(1.24345e-14 -1.48553e-13 0)
(1.24345e-14 -1.48599e-13 0)
(1.22125e-14 -1.48647e-13 0)
(1.22125e-14 -1.48575e-13 0)
(1.22125e-14 -1.48546e-13 0)
)
;

boundaryField
{
    movingWall
    {
        type            calculated;
        value           uniform (1.22125e-14 -1.48548e-13 0);
    }
    fixedWalls
    {
        type            calculated;
        value           uniform (1.22125e-14 -1.48548e-13 0);
    }
    frontAndBack
    {
        type            empty;
    }
}


// ************************************************************************* //
