/*--------------------------------*- C++ -*----------------------------------*\
| =========                 |                                                 |
| \\      /  F ield         | OpenFOAM: The Open Source CFD Toolbox           |
|  \\    /   O peration     | Version:  2312                                  |
|   \\  /    A nd           | Website:  www.openfoam.com                      |
|    \\/     M anipulation  |                                                 |
\*---------------------------------------------------------------------------*/
FoamFile
{
    version     2.0;
    format      ascii;
    arch        "LSB;label=32;scalar=64";
    class       volScalarField;
    location    "9.625";
    object      divU;
}
// * * * * * * * * * * * * * * * * * * * * * * * * * * * * * * * * * * * * * //

dimensions      [0 0 -1 0 0 0 0];

internalField   nonuniform List<scalar> 
400
(
1.55583e-11
-2.1351e-12
4.36358e-13
-1.56234e-13
2.06072e-14
-2.26713e-14
-5.60398e-15
5.01967e-15
-2.10442e-15
2.578e-14
3.36007e-14
-4.92049e-14
3.17998e-15
3.10985e-15
-1.0399e-14
-5.94087e-15
-4.52736e-14
7.68535e-14
-3.09389e-14
0
-2.64545e-11
3.31938e-12
-6.35352e-13
3.02183e-13
-8.1875e-14
1.11097e-14
1.32953e-14
-1.6168e-15
-2.59126e-14
-4.04044e-14
-6.59115e-15
3.9229e-14
3.78912e-14
1.30987e-14
2.70051e-14
-1.75707e-14
9.31874e-15
-4.80741e-14
-1.08948e-14
5.42101e-14
7.02021e-12
-1.15211e-12
1.62516e-13
-7.23824e-14
1.00621e-14
5.76195e-16
9.25134e-15
3.66037e-15
7.14254e-15
-1.66591e-15
9.34808e-15
4.57272e-15
-4.97068e-15
-3.66156e-14
-4.19483e-14
9.00935e-15
4.62294e-14
1.45676e-15
-1.02091e-14
-2.71051e-14
1.37423e-11
-9.09131e-13
1.48064e-13
-1.03009e-13
4.87837e-14
1.26121e-14
4.33415e-15
-2.01522e-14
2.69026e-14
1.00767e-14
3.2141e-14
3.11238e-14
1.67852e-14
5.02282e-15
3.97195e-14
-2.04618e-14
-3.84529e-14
2.54148e-14
2.69044e-14
-2.71051e-14
-1.91091e-11
1.61277e-12
-2.20187e-13
1.15712e-13
-2.43605e-14
5.57642e-15
6.93333e-15
8.50336e-15
4.55208e-16
8.93272e-15
-3.44782e-16
-9.72744e-15
-1.85071e-14
-2.36769e-14
8.28583e-15
1.18648e-14
-6.85238e-15
-1.53696e-14
9.22086e-15
0
1.05981e-11
-3.70675e-13
6.8243e-14
-1.70957e-14
5.60089e-14
-2.0382e-14
-1.69118e-14
1.15931e-14
2.6788e-14
-4.38136e-14
4.1705e-14
6.16863e-15
-1.82726e-14
2.39488e-14
2.62629e-14
3.04205e-14
-2.82668e-14
8.43139e-15
6.56312e-14
-5.42101e-14
1.01102e-11
-2.31543e-12
4.23504e-13
-1.81373e-13
4.99007e-14
-8.41417e-17
1.02559e-14
4.20716e-14
-1.86378e-14
1.0877e-14
-1.79044e-14
1.36731e-14
1.74094e-14
-2.19325e-14
-9.555e-15
5.1852e-15
-9.90603e-15
-4.22519e-15
1.43125e-14
2.71051e-14
-2.51264e-11
4.22995e-12
-8.54909e-13
3.78346e-13
-9.71455e-14
8.08622e-15
-1.29709e-14
3.27498e-14
9.73679e-15
1.05693e-14
3.42129e-14
-1.07085e-14
-3.87477e-14
1.1471e-14
-2.0656e-14
-8.75753e-15
2.91342e-14
1.52531e-14
-3.89389e-14
0
1.92717e-11
-2.77907e-12
5.45051e-13
-2.11485e-13
5.0556e-14
-3.50318e-14
-8.00093e-14
8.65341e-15
-5.44223e-16
1.88719e-14
2.43223e-15
-5.80881e-16
-4.42859e-16
2.3715e-14
4.6106e-15
4.79416e-15
-6.2754e-14
1.20332e-14
2.28853e-14
-2.71051e-14
-2.79182e-12
2.31619e-13
-4.2142e-14
-6.43393e-14
4.66095e-15
2.23923e-14
8.0548e-14
1.23812e-14
4.46197e-15
-1.51279e-14
-2.31695e-15
-1.92971e-15
-3.8988e-16
-3.22408e-14
3.47769e-14
5.59041e-15
2.56138e-15
-3.02169e-14
-8.72636e-15
0
-1.07607e-11
2.50415e-12
-5.22712e-13
1.65654e-13
1.55695e-14
3.46846e-15
-3.89661e-14
-4.77825e-14
5.01014e-15
-3.86913e-15
4.66384e-14
-1.6647e-14
-8.95292e-15
5.19202e-14
-2.25993e-14
2.35066e-14
1.17322e-15
3.69306e-14
-1.51672e-14
-2.71051e-14
1.77267e-11
-4.08107e-12
7.54195e-13
-3.23809e-13
8.95514e-14
-3.35265e-14
1.2171e-14
1.16816e-14
3.09542e-14
-2.9922e-14
-4.13499e-14
2.76778e-14
-1.76517e-14
-3.30935e-14
-2.47013e-14
3.1653e-14
-1.70835e-14
-2.26087e-14
3.04747e-14
0
-1.91362e-11
4.27185e-12
-8.07362e-13
3.08461e-13
-3.70797e-14
-2.64377e-14
-7.53907e-15
2.4375e-14
-1.11966e-14
3.96396e-14
1.54275e-14
-1.59496e-14
3.63356e-14
-1.57114e-14
1.64421e-14
-2.32339e-14
7.36316e-15
1.86476e-14
-2.11669e-14
2.71051e-14
1.33357e-11
-3.34282e-12
6.81094e-13
-2.51725e-13
2.25665e-14
-4.00214e-14
-3.82821e-15
3.21587e-14
-3.07919e-15
-2.54201e-14
1.36483e-15
4.11524e-15
-1.01055e-14
-6.63835e-15
-2.5209e-14
2.06455e-14
7.93337e-15
2.75289e-15
1.4905e-14
-2.71051e-14
1.87025e-12
9.85955e-13
-2.20239e-13
6.0876e-14
-9.51556e-15
5.57979e-14
-8.06391e-14
-8.19873e-15
3.82062e-14
4.60744e-14
1.43486e-14
1.00543e-14
-3.95926e-14
9.01642e-15
6.96245e-15
1.93736e-14
-1.91205e-14
1.28652e-14
5.01963e-15
-2.71051e-14
-1.84314e-11
2.00162e-12
-3.68882e-13
1.38285e-13
-5.58753e-14
-5.14158e-14
1.226e-14
4.35881e-14
-1.56849e-14
-4.2596e-14
1.17497e-14
2.92155e-14
-2.92623e-14
9.07069e-15
-1.39228e-14
-4.21776e-14
-1.48152e-15
5.89437e-14
3.59998e-15
0
1.96512e-11
-2.23684e-12
4.5598e-13
-1.98201e-13
3.45065e-14
8.67936e-15
4.43049e-14
-7.8286e-17
-8.42798e-16
3.18423e-14
-1.63931e-14
-4.48426e-14
3.38154e-14
5.91489e-14
2.68179e-14
-3.9138e-15
-2.15089e-14
6.37358e-15
2.85801e-14
-2.71051e-14
8.94467e-13
-1.08466e-13
4.14444e-14
-3.84221e-14
5.90143e-14
2.05063e-14
-3.35433e-14
-1.54407e-14
-4.11905e-14
2.12585e-14
3.06172e-14
2.80841e-14
-5.04647e-15
7.88065e-16
-2.03865e-16
2.64678e-14
-5.04729e-14
4.90826e-14
-4.15645e-15
0
-2.19009e-11
2.56462e-12
-5.03089e-13
1.3277e-13
-9.65146e-14
-5.6373e-15
3.96153e-14
9.15821e-15
1.29468e-14
-1.3463e-14
-1.12737e-14
-8.2207e-15
2.78003e-14
2.36733e-15
-1.16923e-14
-9.51225e-15
-8.66194e-15
3.39677e-14
-7.948e-15
0
1.37694e-11
-1.87025e-12
4.60786e-13
-1.89735e-13
5.42101e-14
0
2.71051e-14
-2.71051e-14
2.71051e-14
-2.71051e-14
0
-2.71051e-14
2.71051e-14
0
-2.71051e-14
0
-2.71051e-14
0
0
0
)
;

boundaryField
{
    movingWall
    {
        type            extrapolatedCalculated;
        value           nonuniform List<scalar> 
20
(
1.37694e-11
-1.87025e-12
4.60786e-13
-1.89735e-13
5.42101e-14
0
2.71051e-14
-2.71051e-14
2.71051e-14
-2.71051e-14
0
-2.71051e-14
2.71051e-14
0
-2.71051e-14
0
-2.71051e-14
0
0
0
)
;
    }
    fixedWalls
    {
        type            extrapolatedCalculated;
        value           nonuniform List<scalar> 
60
(
1.55583e-11
-2.64545e-11
7.02021e-12
1.37423e-11
-1.91091e-11
1.05981e-11
1.01102e-11
-2.51264e-11
1.92717e-11
-2.79182e-12
-1.07607e-11
1.77267e-11
-1.91362e-11
1.33357e-11
1.87025e-12
-1.84314e-11
1.96512e-11
8.94467e-13
-2.19009e-11
1.37694e-11
0
5.42101e-14
-2.71051e-14
-2.71051e-14
0
-5.42101e-14
2.71051e-14
0
-2.71051e-14
0
-2.71051e-14
0
2.71051e-14
-2.71051e-14
-2.71051e-14
0
-2.71051e-14
0
0
0
1.55583e-11
-2.1351e-12
4.36358e-13
-1.56234e-13
2.06072e-14
-2.26713e-14
-5.60398e-15
5.01967e-15
-2.10442e-15
2.578e-14
3.36007e-14
-4.92049e-14
3.17998e-15
3.10985e-15
-1.0399e-14
-5.94087e-15
-4.52736e-14
7.68535e-14
-3.09389e-14
0
)
;
    }
    frontAndBack
    {
        type            empty;
    }
}


// ************************************************************************* //
