/*--------------------------------*- C++ -*----------------------------------*\
| =========                 |                                                 |
| \\      /  F ield         | OpenFOAM: The Open Source CFD Toolbox           |
|  \\    /   O peration     | Version:  2312                                  |
|   \\  /    A nd           | Website:  www.openfoam.com                      |
|    \\/     M anipulation  |                                                 |
\*---------------------------------------------------------------------------*/
FoamFile
{
    version     2.0;
    format      ascii;
    arch        "LSB;label=32;scalar=64";
    class       volScalarField;
    location    "9.625";
    object      enstrophyField;
}
// * * * * * * * * * * * * * * * * * * * * * * * * * * * * * * * * * * * * * //

dimensions      [0 0 -2 0 0 0 0];

internalField   nonuniform List<scalar> 
400
(
5.1704e-23
9.28462e-23
4.37956e-24
2.83761e-25
5.04348e-27
1.55257e-27
3.62113e-28
1.17789e-28
1.49895e-27
2.31954e-27
2.09171e-27
1.3776e-27
1.0077e-29
2.96145e-31
9.81575e-31
3.69025e-29
9.38443e-28
1.78566e-33
5.0223e-29
1.22408e-27
9.56047e-26
6.55116e-25
7.01414e-26
1.0917e-28
3.81403e-27
3.50474e-27
7.69686e-32
1.05585e-27
2.37201e-29
1.4048e-29
8.56588e-30
3.25366e-28
1.61335e-27
2.34652e-27
2.71331e-27
1.51423e-27
2.37698e-27
8.23054e-29
9.79138e-31
1.24034e-27
1.36338e-23
6.31962e-23
3.61001e-24
1.9373e-25
9.04067e-27
1.22578e-28
9.78074e-29
2.70493e-28
3.70747e-27
9.52314e-27
8.85355e-27
6.79223e-27
1.55846e-27
1.8495e-30
8.34451e-30
3.69564e-29
2.14844e-27
2.72578e-29
1.40414e-28
3.69175e-29
4.99292e-24
2.66238e-23
1.32103e-24
8.9275e-26
1.0033e-27
7.51339e-29
9.37793e-28
1.37671e-27
1.41199e-31
1.09912e-29
7.14936e-30
1.91369e-29
2.22273e-27
4.33483e-27
7.33146e-27
3.44865e-27
1.05791e-27
2.40899e-28
3.84496e-28
1.89764e-28
1.18088e-24
2.24328e-24
1.1603e-25
1.35498e-26
7.06661e-28
1.75802e-27
1.37436e-29
1.96798e-29
4.731e-28
9.25822e-27
9.84381e-28
1.60848e-28
9.29815e-29
1.89736e-28
8.21024e-29
1.18953e-29
5.57515e-29
5.47709e-28
4.53693e-28
3.12897e-28
2.44645e-23
6.32328e-23
3.45662e-24
1.99394e-25
8.03293e-27
6.61751e-28
4.32796e-28
1.45831e-27
1.64945e-27
3.31666e-28
1.67157e-28
4.04385e-29
3.58918e-28
3.14993e-29
2.25799e-28
2.51289e-29
1.34747e-28
2.06669e-27
2.26359e-29
4.15956e-29
3.00781e-23
8.18832e-23
4.61197e-24
2.07194e-25
2.68853e-26
3.43867e-28
5.87936e-28
2.08116e-27
3.14397e-28
1.07111e-26
1.23093e-27
1.29971e-27
1.63674e-28
1.37669e-27
4.38433e-27
1.93968e-28
6.38485e-29
3.10578e-27
2.03887e-27
9.0516e-29
8.43242e-26
2.61263e-24
1.37062e-25
5.77781e-27
2.75909e-28
1.19285e-28
1.92664e-27
3.62719e-29
1.872e-29
1.20643e-28
1.6143e-30
5.14826e-28
3.81342e-28
1.76347e-30
7.58082e-29
2.00944e-28
1.57361e-27
1.19179e-27
6.95989e-29
1.5989e-28
3.30903e-23
5.28957e-23
2.83068e-24
1.94165e-25
1.18162e-27
1.05397e-28
4.19723e-27
2.25287e-27
6.09773e-29
1.00829e-28
1.89754e-28
5.68336e-30
1.7789e-27
5.93111e-29
3.98103e-27
7.44316e-28
1.75199e-27
2.65286e-27
1.33248e-28
8.30887e-28
7.6335e-23
1.25546e-22
7.35605e-24
2.92835e-25
1.95943e-26
1.53936e-28
2.39296e-32
2.13039e-27
9.07211e-27
7.88734e-27
5.88053e-27
1.95096e-29
1.61529e-27
2.13664e-27
6.0561e-29
1.40578e-30
2.38684e-27
4.57171e-27
4.48461e-29
5.86913e-28
6.2572e-23
9.01769e-23
5.06548e-24
1.77164e-25
5.3815e-26
5.43815e-27
4.79452e-29
2.26199e-28
8.85122e-32
1.30362e-27
8.67247e-29
1.792e-28
1.70183e-29
3.10717e-29
1.44363e-29
5.89521e-30
1.90927e-29
4.53709e-28
4.0832e-28
4.6274e-28
1.38496e-23
2.1126e-23
1.24229e-24
3.74868e-26
9.62988e-27
5.40426e-27
7.34129e-27
1.2406e-27
1.34277e-28
1.2373e-28
6.69481e-31
7.93428e-27
2.39008e-29
1.17355e-27
3.64487e-27
3.70091e-28
1.88834e-27
1.9193e-27
4.8458e-28
1.86286e-29
1.57703e-24
2.88485e-24
1.85387e-25
1.07876e-26
4.73293e-27
6.29981e-28
1.43193e-29
2.68696e-28
7.14834e-30
1.34406e-27
4.30348e-28
5.52881e-28
3.33482e-27
1.40047e-27
2.09407e-29
2.82498e-29
1.10046e-27
2.35355e-27
1.62778e-29
5.79062e-30
2.60697e-23
5.36921e-23
3.15587e-24
1.04142e-25
1.77183e-26
3.80807e-27
6.86431e-27
3.2845e-27
6.78375e-27
3.1548e-27
3.60628e-27
1.09328e-26
3.31539e-27
1.0448e-27
2.32591e-27
1.37706e-28
3.72795e-27
2.33532e-27
1.20699e-30
3.3156e-29
5.36495e-23
9.75331e-23
5.09145e-24
2.50868e-25
2.20952e-26
2.22158e-29
5.83569e-27
1.16747e-31
1.10012e-29
3.2815e-30
2.83303e-27
3.23534e-27
2.10271e-27
1.28557e-27
8.51935e-28
1.23693e-27
8.54909e-28
1.16203e-27
3.02343e-29
2.83527e-28
1.88001e-23
2.74965e-23
1.69155e-24
5.20823e-26
1.77074e-26
4.69128e-28
2.02315e-27
2.54708e-27
5.03482e-28
3.48993e-28
7.37874e-29
3.25702e-27
6.73678e-28
6.22598e-29
1.6835e-27
1.50935e-29
2.01724e-29
4.61057e-30
7.54527e-30
4.51107e-28
8.95681e-25
8.96849e-24
3.50426e-25
2.74263e-26
4.09498e-28
2.51453e-27
3.64069e-27
5.81221e-29
3.60832e-28
1.45012e-27
1.77986e-27
7.46935e-27
5.59462e-27
3.25693e-27
1.85975e-27
1.1169e-27
9.31711e-29
3.14007e-28
6.66203e-35
4.09943e-28
1.60497e-23
6.22331e-23
3.25265e-24
1.35281e-25
3.44803e-26
3.2574e-27
5.37461e-27
5.1166e-27
3.73005e-27
4.34555e-27
3.23949e-27
1.58516e-28
1.59788e-30
5.205e-27
4.30499e-27
3.22015e-27
1.3027e-27
2.8237e-27
3.97742e-30
1.28519e-27
2.44066e-24
5.52265e-24
4.12606e-25
2.95981e-27
1.11699e-26
7.12401e-28
3.64788e-27
3.33756e-27
2.94742e-27
5.2771e-27
1.89276e-28
1.01085e-27
1.38409e-27
1.14605e-26
4.43827e-27
1.21058e-27
1.54198e-27
1.56452e-27
3.99205e-29
2.23119e-29
2.41588e-23
4.71865e-23
1.86248e-24
1.49318e-25
4.73974e-27
6.32379e-29
1.78522e-28
3.89983e-28
3.65895e-28
2.95317e-28
1.60271e-27
3.70516e-30
4.0422e-29
1.66431e-27
5.20817e-31
1.94918e-30
4.4245e-29
2.98063e-30
5.05692e-29
3.1706e-30
)
;

boundaryField
{
    movingWall
    {
        type            calculated;
        value           nonuniform List<scalar> 
20
(
7.89973e-23
6.55641e-23
1.38754e-24
2.87827e-25
1.73715e-26
5.1877e-26
6.0226e-26
3.57183e-26
2.464e-26
2.40336e-26
8.55698e-27
1.62645e-26
4.78332e-27
2.54316e-26
1.5959e-26
3.77089e-27
3.15305e-27
2.98063e-30
5.05692e-29
3.1706e-30
)
;
    }
    fixedWalls
    {
        type            calculated;
        value           nonuniform List<scalar> 
60
(
1.67628e-21
1.29985e-23
1.17837e-21
4.92418e-22
3.82061e-23
1.15342e-21
1.50485e-21
4.87572e-23
9.79647e-22
2.33286e-21
1.65673e-21
3.93465e-22
5.50394e-23
9.96462e-22
1.76724e-21
5.16817e-22
1.53146e-22
1.15002e-21
1.11648e-22
8.25432e-22
5.93791e-28
1.30591e-27
1.59775e-28
3.5102e-29
4.41457e-28
5.58179e-29
2.98715e-29
5.79565e-28
1.6903e-27
1.16267e-28
6.05408e-28
1.08385e-28
1.13784e-28
2.61194e-29
2.2273e-28
3.36012e-28
5.03348e-28
9.93454e-28
1.61622e-29
2.34177e-31
1.37313e-22
1.26539e-22
3.65291e-24
4.92715e-25
2.27143e-27
3.1416e-26
1.57428e-26
5.42532e-27
8.8025e-27
7.11936e-27
2.23821e-26
1.60842e-26
4.35311e-27
4.01296e-27
4.06973e-27
3.69025e-29
3.0366e-27
1.78566e-33
3.10437e-27
3.53529e-27
)
;
    }
    frontAndBack
    {
        type            empty;
    }
}


// ************************************************************************* //
