/*--------------------------------*- C++ -*----------------------------------*\
| =========                 |                                                 |
| \\      /  F ield         | OpenFOAM: The Open Source CFD Toolbox           |
|  \\    /   O peration     | Version:  2312                                  |
|   \\  /    A nd           | Website:  www.openfoam.com                      |
|    \\/     M anipulation  |                                                 |
\*---------------------------------------------------------------------------*/
FoamFile
{
    version     2.0;
    format      ascii;
    arch        "LSB;label=32;scalar=64";
    class       volScalarField;
    location    "9.625";
    object      epsilonzeroGrad;
}
// * * * * * * * * * * * * * * * * * * * * * * * * * * * * * * * * * * * * * //

dimensions      [0 2 -3 0 0 0 0];

internalField   nonuniform List<scalar> 
400
(
6.72866e-07
6.72865e-07
6.72865e-07
6.72865e-07
6.72865e-07
6.72865e-07
6.72865e-07
6.72864e-07
6.72864e-07
6.72864e-07
6.72864e-07
6.72864e-07
6.72864e-07
6.72864e-07
6.72864e-07
6.72864e-07
6.72864e-07
6.72864e-07
6.72864e-07
6.72864e-07
6.85548e-07
6.78934e-07
6.79503e-07
6.79734e-07
6.80202e-07
6.80442e-07
6.8091e-07
6.81155e-07
6.81624e-07
6.81875e-07
6.82345e-07
6.82601e-07
6.83072e-07
6.83333e-07
6.83806e-07
6.84073e-07
6.84545e-07
6.8482e-07
6.85056e-07
6.85431e-07
7.06407e-07
6.99402e-07
7.00015e-07
7.00263e-07
7.00765e-07
7.01021e-07
7.01521e-07
7.01781e-07
7.02282e-07
7.02545e-07
7.03046e-07
7.03312e-07
7.03814e-07
7.04084e-07
7.04586e-07
7.04861e-07
7.0536e-07
7.05641e-07
7.0589e-07
7.0628e-07
7.29588e-07
7.22277e-07
7.22917e-07
7.23176e-07
7.237e-07
7.23967e-07
7.24489e-07
7.2476e-07
7.25282e-07
7.25557e-07
7.2608e-07
7.26358e-07
7.26882e-07
7.27164e-07
7.27687e-07
7.27974e-07
7.28495e-07
7.28788e-07
7.29048e-07
7.29456e-07
7.50363e-07
7.42771e-07
7.43435e-07
7.43703e-07
7.44248e-07
7.44524e-07
7.45066e-07
7.45348e-07
7.4589e-07
7.46176e-07
7.46719e-07
7.47007e-07
7.47551e-07
7.47843e-07
7.48387e-07
7.48685e-07
7.49226e-07
7.4953e-07
7.498e-07
7.50223e-07
7.66488e-07
7.58675e-07
7.59358e-07
7.59634e-07
7.60194e-07
7.60479e-07
7.61036e-07
7.61327e-07
7.61884e-07
7.62178e-07
7.62737e-07
7.63034e-07
7.63593e-07
7.63894e-07
7.64453e-07
7.6476e-07
7.65317e-07
7.6563e-07
7.65908e-07
7.66343e-07
7.77841e-07
7.69871e-07
7.70568e-07
7.7085e-07
7.71421e-07
7.71711e-07
7.7228e-07
7.72576e-07
7.73145e-07
7.73444e-07
7.74014e-07
7.74317e-07
7.74888e-07
7.75195e-07
7.75765e-07
7.76078e-07
7.76646e-07
7.76966e-07
7.77249e-07
7.77693e-07
7.854e-07
7.77324e-07
7.7803e-07
7.78315e-07
7.78894e-07
7.79188e-07
7.79764e-07
7.80064e-07
7.8064e-07
7.80944e-07
7.81521e-07
7.81828e-07
7.82406e-07
7.82718e-07
7.83295e-07
7.83612e-07
7.84188e-07
7.84512e-07
7.84799e-07
7.85249e-07
7.90387e-07
7.82242e-07
7.82953e-07
7.83241e-07
7.83825e-07
7.84122e-07
7.84703e-07
7.85005e-07
7.85586e-07
7.85893e-07
7.86475e-07
7.86784e-07
7.87368e-07
7.87681e-07
7.88264e-07
7.88584e-07
7.89164e-07
7.89491e-07
7.89781e-07
7.90234e-07
7.93839e-07
7.85646e-07
7.86361e-07
7.86651e-07
7.87238e-07
7.87537e-07
7.88121e-07
7.88425e-07
7.8901e-07
7.89318e-07
7.89904e-07
7.90215e-07
7.90802e-07
7.91117e-07
7.91703e-07
7.92025e-07
7.92609e-07
7.92938e-07
7.93229e-07
7.93685e-07
7.96486e-07
7.88256e-07
7.88975e-07
7.89266e-07
7.89855e-07
7.90155e-07
7.90742e-07
7.91048e-07
7.91635e-07
7.91945e-07
7.92533e-07
7.92846e-07
7.93435e-07
7.93752e-07
7.94341e-07
7.94664e-07
7.9525e-07
7.95581e-07
7.95873e-07
7.96331e-07
7.98792e-07
7.9053e-07
7.91252e-07
7.91544e-07
7.92135e-07
7.92436e-07
7.93026e-07
7.93333e-07
7.93922e-07
7.94233e-07
7.94823e-07
7.95137e-07
7.95729e-07
7.96047e-07
7.96638e-07
7.96962e-07
7.97551e-07
7.97883e-07
7.98176e-07
7.98637e-07
8.01031e-07
7.92738e-07
7.93463e-07
7.93756e-07
7.9435e-07
7.94652e-07
7.95244e-07
7.95552e-07
7.96143e-07
7.96455e-07
7.97048e-07
7.97363e-07
7.97957e-07
7.98276e-07
7.98869e-07
7.99195e-07
7.99786e-07
8.00119e-07
8.00413e-07
8.00875e-07
8.03355e-07
7.95029e-07
7.95757e-07
7.96051e-07
7.96647e-07
7.96951e-07
7.97545e-07
7.97854e-07
7.98447e-07
7.9876e-07
7.99355e-07
7.99672e-07
8.00268e-07
8.00589e-07
8.01184e-07
8.01511e-07
8.02104e-07
8.02438e-07
8.02734e-07
8.03198e-07
8.05818e-07
7.97459e-07
7.98189e-07
7.98485e-07
7.99084e-07
7.99388e-07
7.99985e-07
8.00295e-07
8.00891e-07
8.01205e-07
8.01803e-07
8.02121e-07
8.02719e-07
8.03041e-07
8.03639e-07
8.03967e-07
8.04563e-07
8.04898e-07
8.05195e-07
8.05661e-07
8.08392e-07
7.99997e-07
8.0073e-07
8.01027e-07
8.01628e-07
8.01934e-07
8.02533e-07
8.02845e-07
8.03444e-07
8.03759e-07
8.04359e-07
8.04678e-07
8.05279e-07
8.05603e-07
8.06203e-07
8.06533e-07
8.07131e-07
8.07468e-07
8.07766e-07
8.08234e-07
8.10947e-07
8.02517e-07
8.03253e-07
8.03551e-07
8.04155e-07
8.04462e-07
8.05063e-07
8.05376e-07
8.05977e-07
8.06294e-07
8.06897e-07
8.07217e-07
8.07821e-07
8.08146e-07
8.08748e-07
8.09079e-07
8.0968e-07
8.10018e-07
8.10318e-07
8.10788e-07
8.13257e-07
8.04798e-07
8.05536e-07
8.05836e-07
8.06441e-07
8.06749e-07
8.07353e-07
8.07667e-07
8.0827e-07
8.08588e-07
8.09193e-07
8.09514e-07
8.1012e-07
8.10446e-07
8.11051e-07
8.11383e-07
8.11986e-07
8.12326e-07
8.12626e-07
8.13098e-07
8.15034e-07
8.06709e-07
8.07424e-07
8.07713e-07
8.08301e-07
8.08602e-07
8.0919e-07
8.09498e-07
8.10088e-07
8.10402e-07
8.10994e-07
8.11315e-07
8.1191e-07
8.12237e-07
8.12832e-07
8.13168e-07
8.13763e-07
8.14109e-07
8.14406e-07
8.14878e-07
8.15855e-07
8.15854e-07
8.15854e-07
8.15854e-07
8.15853e-07
8.15853e-07
8.15853e-07
8.15853e-07
8.15853e-07
8.15853e-07
8.15853e-07
8.15852e-07
8.15852e-07
8.15852e-07
8.15852e-07
8.15852e-07
8.15852e-07
8.15852e-07
8.15852e-07
8.15852e-07
)
;

boundaryField
{
    movingWall
    {
        type            zeroGradient;
    }
    fixedWalls
    {
        type            zeroGradient;
    }
    frontAndBack
    {
        type            empty;
    }
}


// ************************************************************************* //
