/*--------------------------------*- C++ -*----------------------------------*\
| =========                 |                                                 |
| \\      /  F ield         | OpenFOAM: The Open Source CFD Toolbox           |
|  \\    /   O peration     | Version:  2312                                  |
|   \\  /    A nd           | Website:  www.openfoam.com                      |
|    \\/     M anipulation  |                                                 |
\*---------------------------------------------------------------------------*/
FoamFile
{
    version     2.0;
    format      ascii;
    arch        "LSB;label=32;scalar=64";
    class       volScalarField;
    location    "9.625";
    object      flowTypeField;
}
// * * * * * * * * * * * * * * * * * * * * * * * * * * * * * * * * * * * * * //

dimensions      [0 0 0 0 0 0 0];

internalField   nonuniform List<scalar> 
400
(
0.447022
0.0626495
0.0605689
-0.0135268
0.37693
-0.17553
0.345175
0.0463914
-0.00912873
-0.0994826
-0.0463937
0.286261
0.152153
0.555786
0.91191
0.686889
0.397269
0.986851
0.58273
0.088582
0.978442
0.786494
0.730603
0.931529
0.196884
-0.0258323
0.947469
0.260342
0.842545
0.861072
0.604685
0.538143
0.256316
-0.0621795
0.0848999
0.00741816
-0.26834
0.710146
0.673335
0.328284
0.568167
0.126016
0.0395246
0.0904366
0.00308445
0.705204
0.0368423
0.0237878
-0.0554902
-0.261318
-0.209352
-0.0248395
0.0901137
0.934477
0.805688
0.715551
0.162064
0.135283
0.000802
0.667611
0.773426
0.206934
0.213894
0.0733216
0.564398
0.562062
-0.52689
0.107626
0.973303
0.78594
0.761573
0.698015
-0.123513
-0.123441
-0.079557
0.0309189
0.226857
0.38484
0.269293
0.620452
0.904541
0.592199
0.617426
0.41681
0.4627
0.0710131
0.088835
0.0259647
-0.131053
-0.253325
-0.548442
0.383754
0.129096
0.368674
0.0487915
0.262339
0.0726818
0.177662
-0.0439534
0.103835
0.516274
0.104521
0.0565465
0.0343263
0.0750837
0.436316
0.506652
0.18643
0.0467303
0.514322
0.7507
0.814733
0.267322
0.651364
0.316913
0.563056
0.432057
-0.180918
0.825385
0.778815
0.451483
0.0883055
0.012875
0.093487
-0.271189
0.512089
-0.258369
-0.048532
0.302698
-0.347678
-0.679098
0.0669963
0.0893627
-0.131176
-0.0591744
0.267724
0.185006
0.0415423
-0.173665
0.498349
0.977922
0.586507
0.603722
0.629967
0.62239
0.106327
-0.0438036
0.864574
0.775615
0.000187624
0.870361
0.306971
0.518442
0.58289
0.226807
0.162806
0.256342
-0.0955338
0.531129
0.00135122
0.576798
0.114268
0.0726228
-0.023489
0.583722
0.514809
-0.0637612
-0.00950038
0.234886
0.479765
0.505023
0.581681
-0.0744791
0.291948
-0.0961936
-0.214043
0.362291
-0.16049
0.66216
-0.436362
0.11007
0.0393389
-0.0505607
0.103468
-0.0602847
0.832263
0.988457
-0.197976
-0.239093
-0.154656
0.000693725
0.0200651
-0.0478539
-0.0616561
0.554101
0.0671198
-0.236973
0.0379315
0.0872104
-0.221288
0.245284
0.0304405
-0.0458687
0.13301
-0.484426
0.230415
0.795445
0.693482
0.169783
0.0922385
0.800403
0.359331
0.367705
0.867396
0.734205
0.817859
0.0216191
0.232755
0.307581
0.203638
0.650535
0.145425
0.0987211
0.339671
-0.134058
0.14198
-0.087659
0.0840054
0.523011
0.439038
0.911364
-0.116128
0.320762
0.18908
0.00525279
0.274073
0.00357622
-0.0100886
0.192952
0.802822
0.874434
0.462916
0.414483
0.430141
-0.196928
0.103097
0.655261
0.387137
0.665141
0.29918
-0.0751782
-0.0282415
0.180718
0.0381178
0.718091
0.65738
0.133763
-0.0809766
0.696691
0.90283
0.485018
0.0854478
0.00949377
0.225451
-0.341037
0.218549
-0.0794892
0.056317
-0.0706425
0.183465
-0.0304696
-0.0890111
0.0252298
0.191451
0.171038
0.530243
-0.0613268
-0.223666
0.7128
0.745581
0.172423
0.0465844
-0.0155429
0.0556675
-0.344879
0.889783
0.081991
0.884689
0.87308
0.920202
-0.158618
-0.461227
0.186258
0.0974951
-0.460947
-0.123668
-0.0110319
0.122663
0.511813
0.342571
0.656595
0.176577
0.0905023
0.276345
-0.544118
0.602325
-0.0053876
0.281416
0.159533
0.353629
0.747496
-0.245482
0.0954277
0.650863
0.277495
0.860163
0.374863
0.908726
0.0504715
-0.105318
0.916861
0.357033
0.429891
0.261345
0.628446
-0.293455
-0.30325
0.249016
0.309273
0.0663631
0.241229
-6.00831e-05
-0.0335435
0.00622585
-0.0861326
-0.0576719
0.495937
0.0750558
0.963956
0.23079
0.456277
0.108479
0.0309628
0.173091
-0.334165
0.276864
0.0707708
0.0967954
0.119
-0.119107
0.0375499
0.275728
0.894489
-0.250383
-0.0242687
0.186903
0.301858
0.218039
0.443757
0.0649136
0.877278
0.454994
0.381719
0.74414
-0.101122
0.299872
0.122317
-0.00423371
0.0553183
0.0543079
0.343529
0.178253
0.127441
-0.116419
-0.144008
0.10189
0.00163899
0.258027
0.0715155
0.0459577
0.530203
0.072565
0.119733
-0.0499111
0.250603
0.0960137
0.359532
0.49881
0.107542
0.35815
-0.0215168
0.845127
0.610431
-0.0623759
0.921812
0.684249
0.612104
0.878336
0.189267
0.0797177
)
;

boundaryField
{
    movingWall
    {
        type            calculated;
        value           nonuniform List<scalar> 
20
(
0.651281
0.138281
0.392343
-0.0115519
0.411364
-0.0360923
0.0263326
0.02351
0.00710293
0.0295346
0.0532208
0.0223648
-0.00827989
-0.0152664
0.00815814
0.022275
0.157479
0.912168
0.275341
0.0270863
)
;
    }
    fixedWalls
    {
        type            calculated;
        value           nonuniform List<scalar> 
60
(
0.0617758
0.789898
0.106976
0.199483
0.614778
0.0967501
0.0751753
0.601477
0.105379
0.0185919
0.016802
0.143338
0.464426
0.0724023
0.0363001
0.173319
0.389934
0.0897482
0.454713
0.0862649
0.61302
0.461597
0.594201
0.874102
0.387482
0.707303
0.764466
0.000380384
0.0428631
0.43507
-0.217384
0.717981
0.781988
0.817885
0.53501
0.0425583
0.596581
0.332228
0.0603697
0.303316
0.671461
0.156116
0.340669
-0.00346365
0.734207
-0.118981
0.0461764
-0.170786
0.00825268
0.120431
0.0698623
0.0615478
0.0283004
0.0395284
0.081882
0.696116
0.233272
0.98722
0.146184
0.0739496
)
;
    }
    frontAndBack
    {
        type            empty;
    }
}


// ************************************************************************* //
