/*--------------------------------*- C++ -*----------------------------------*\
| =========                 |                                                 |
| \\      /  F ield         | OpenFOAM: The Open Source CFD Toolbox           |
|  \\    /   O peration     | Version:  2312                                  |
|   \\  /    A nd           | Website:  www.openfoam.com                      |
|    \\/     M anipulation  |                                                 |
\*---------------------------------------------------------------------------*/
FoamFile
{
    version     2.0;
    format      ascii;
    arch        "LSB;label=32;scalar=64";
    class       surfaceScalarField;
    location    "9.625";
    object      fluxField;
}
// * * * * * * * * * * * * * * * * * * * * * * * * * * * * * * * * * * * * * //

dimensions      [0 3 -1 0 0 0 0];

oriented        oriented;

internalField   nonuniform List<scalar> 
760
(
-5e-05
4.0798e-18
-5e-05
-8.59037e-19
-5e-05
2.10733e-19
-5e-05
-3.90585e-20
-5e-05
1.19281e-20
-5e-05
1.10843e-21
-5e-05
5.37527e-21
-5e-05
1.25492e-21
-5e-05
-5.26105e-22
-5e-05
-3.3127e-22
-5e-05
1.62391e-21
-5e-05
1.25129e-21
-5e-05
7.94994e-22
-5e-05
7.77463e-22
-5e-05
4.17652e-21
-5e-05
5.29105e-21
-5e-05
2.23413e-21
-5e-05
-1.11543e-21
-5e-05
-9.58449e-22
1.0403e-21
-5e-05
-3.00177e-18
-5e-05
6.60439e-19
-5e-05
-1.58838e-19
-5e-05
3.48882e-20
-5e-05
-6.91622e-21
-5e-05
2.77742e-21
-5e-05
3.32382e-21
-5e-05
6.37206e-21
-5e-05
7.07437e-21
-5e-05
3.45142e-21
-5e-05
-1.64779e-21
-5e-05
-3.74529e-21
-5e-05
-4.07973e-21
-5e-05
-3.50158e-21
-5e-05
-2.49814e-23
-5e-05
2.38359e-21
-5e-05
2.32968e-21
-5e-05
1.53401e-21
-5e-05
-2.7237e-21
-3.00532e-21
-5e-05
-1.1761e-18
-5e-05
2.47297e-19
-5e-05
-6.77912e-20
-5e-05
9.00945e-21
-5e-05
-4.26074e-21
-5e-05
1.44049e-22
-5e-05
2.31283e-21
-5e-05
7.69136e-21
-5e-05
8.5619e-21
-5e-05
6.35979e-21
-5e-05
2.33702e-21
-5e-05
1.14318e-21
-5e-05
-1.24267e-21
-5e-05
-2.37765e-21
-5e-05
-3.7108e-21
-5e-05
-4.52393e-21
-5e-05
-1.99519e-21
-5e-05
3.6419e-22
-5e-05
-2.55227e-21
-3.98171e-21
-5e-05
2.74997e-18
-5e-05
-6.06753e-19
-5e-05
1.3866e-19
-5e-05
-3.25286e-20
-5e-05
5.41966e-21
-5e-05
-3.62325e-21
-5e-05
1.08354e-21
-5e-05
1.7382e-21
-5e-05
-5.061e-23
-5e-05
2.51918e-21
-5e-05
8.03524e-21
-5e-05
7.78094e-21
-5e-05
4.19631e-21
-5e-05
1.2557e-21
-5e-05
-3.62265e-21
-5e-05
-5.11544e-21
-5e-05
-2.83695e-21
-5e-05
-4.22576e-22
-5e-05
-5.01552e-23
-1.33344e-21
-5e-05
-2.62831e-18
-5e-05
5.72599e-19
-5e-05
-1.36362e-19
-5e-05
2.89279e-20
-5e-05
-6.09013e-21
-5e-05
1.3941e-21
-5e-05
1.73333e-21
-5e-05
2.12584e-21
-5e-05
1.13802e-22
-5e-05
2.23318e-21
-5e-05
6.69007e-21
-5e-05
4.3444e-21
-5e-05
2.14949e-21
-5e-05
8.57049e-22
-5e-05
-4.70481e-21
-5e-05
-3.81007e-21
-5e-05
-1.71309e-21
-5e-05
2.93387e-21
-5e-05
2.30521e-21
4.97311e-22
-5e-05
4.72682e-19
-5e-05
-9.94451e-20
-5e-05
2.3837e-20
-5e-05
-4.27393e-21
-5e-05
7.22595e-21
-5e-05
8.45703e-21
-5e-05
9.32459e-21
-5e-05
9.67454e-21
-5e-05
6.69701e-21
-5e-05
2.59912e-21
-5e-05
-3.12628e-21
-5e-05
-5.23411e-21
-5e-05
-4.56815e-21
-5e-05
-7.89059e-22
-5e-05
-2.10529e-22
-5e-05
8.28865e-22
-5e-05
-2.90448e-22
-5e-05
2.10785e-21
-5e-05
2.85528e-21
2.83751e-21
-5e-05
2.92342e-18
-5e-05
-6.39844e-19
-5e-05
1.46533e-19
-5e-05
-3.17908e-20
-5e-05
1.24752e-20
-5e-05
6.75523e-21
-5e-05
9.34024e-21
-5e-05
1.05179e-20
-5e-05
8.89308e-21
-5e-05
2.71925e-21
-5e-05
-4.4761e-21
-5e-05
-3.35798e-21
-5e-05
-2.4239e-21
-5e-05
1.29314e-21
-5e-05
4.38751e-21
-5e-05
1.2963e-21
-5e-05
-2.47651e-21
-5e-05
-1.0563e-21
-5e-05
3.57814e-21
4.30503e-21
-5e-05
-3.54631e-18
-5e-05
7.59333e-19
-5e-05
-1.86622e-19
-5e-05
4.03763e-20
-5e-05
-3.95758e-21
-5e-05
8.79782e-21
-5e-05
3.53354e-21
-5e-05
1.41119e-21
-5e-05
2.4342e-21
-5e-05
2.64232e-21
-5e-05
1.77695e-21
-5e-05
4.09913e-21
-5e-05
3.86559e-21
-5e-05
2.86774e-21
-5e-05
1.61225e-21
-5e-05
-2.18938e-21
-5e-05
-6.26897e-21
-5e-05
-2.96298e-21
-5e-05
3.81781e-21
4.06775e-21
-5e-05
1.53313e-18
-5e-05
-3.55953e-19
-5e-05
8.20527e-20
-5e-05
-1.22137e-20
-5e-05
1.2639e-20
-5e-05
4.79459e-21
-5e-05
3.26473e-22
-5e-05
-4.61291e-21
-5e-05
-1.36056e-22
-5e-05
4.71798e-21
-5e-05
7.38432e-21
-5e-05
6.63104e-21
-5e-05
6.66555e-21
-5e-05
5.92874e-21
-5e-05
1.15265e-21
-5e-05
1.19854e-21
-5e-05
-2.13598e-21
-5e-05
-3.76796e-21
-5e-05
-1.05494e-21
2.68087e-21
-5e-05
7.42613e-19
-5e-05
-1.65712e-19
-5e-05
4.36746e-20
-5e-05
-2.5323e-21
-5e-05
1.16524e-21
-5e-05
-7.95444e-21
-5e-05
-6.96805e-21
-5e-05
-3.68096e-21
-5e-05
1.11549e-21
-5e-05
2.99429e-21
-5e-05
6.19703e-21
-5e-05
6.29384e-21
-5e-05
6.67879e-21
-5e-05
5.49232e-21
-5e-05
1.91797e-21
-5e-05
1.3976e-21
-5e-05
6.40344e-22
-5e-05
-7.77954e-22
-5e-05
-2.18159e-21
1.22173e-21
-5e-05
-1.83593e-18
-5e-05
3.88869e-19
-5e-05
-9.00203e-20
-5e-05
2.10847e-20
-5e-05
-9.66015e-21
-5e-05
-5.90915e-21
-5e-05
-2.96526e-21
-5e-05
1.60689e-21
-5e-05
1.25253e-21
-5e-05
-9.67282e-22
-5e-05
-1.89293e-21
-5e-05
2.61451e-21
-5e-05
4.53803e-21
-5e-05
-5.72484e-22
-5e-05
1.12643e-21
-5e-05
-8.99609e-22
-5e-05
2.93306e-22
-5e-05
2.45639e-21
-5e-05
2.98446e-21
3.09499e-21
-5e-05
2.4412e-18
-5e-05
-5.52705e-19
-5e-05
1.27562e-19
-5e-05
-3.35183e-20
-5e-05
2.05906e-21
-5e-05
-1.60536e-21
-5e-05
3.04274e-21
-5e-05
2.92039e-21
-5e-05
9.62285e-22
-5e-05
-7.04246e-22
-5e-05
-3.56121e-21
-5e-05
1.43181e-22
-5e-05
2.36333e-21
-5e-05
-1.49711e-21
-5e-05
6.00936e-22
-5e-05
1.13699e-21
-5e-05
2.50539e-21
-5e-05
1.12409e-21
-5e-05
8.42422e-22
3.55709e-21
-5e-05
-2.22588e-18
-5e-05
4.98757e-19
-5e-05
-1.13749e-19
-5e-05
2.29053e-20
-5e-05
-9.26992e-21
-5e-05
1.66845e-22
-5e-05
-1.88477e-21
-5e-05
-6.82519e-22
-5e-05
-2.79915e-21
-5e-05
-3.64263e-21
-5e-05
-2.91938e-21
-5e-05
-3.9874e-21
-5e-05
-4.46863e-21
-5e-05
-3.92784e-21
-5e-05
-2.66574e-21
-5e-05
9.67784e-22
-5e-05
1.84079e-21
-5e-05
-2.11437e-21
-5e-05
-5.29173e-21
-2.99505e-22
-5e-05
9.15414e-19
-5e-05
-1.71632e-19
-5e-05
4.15245e-20
-5e-05
-8.72125e-21
-5e-05
-1.13464e-21
-5e-05
-3.22909e-21
-5e-05
-9.57052e-22
-5e-05
1.26342e-21
-5e-05
-7.69797e-22
-5e-05
4.21243e-22
-5e-05
3.41207e-22
-5e-05
-5.74745e-21
-5e-05
-9.30264e-21
-5e-05
-8.43585e-21
-5e-05
-6.30225e-21
-5e-05
-1.61489e-21
-5e-05
1.98334e-21
-5e-05
6.88222e-22
-5e-05
-3.05002e-21
-8.67393e-22
-5e-05
1.79273e-18
-5e-05
-3.9048e-19
-5e-05
8.72417e-20
-5e-05
-2.54386e-20
-5e-05
-2.37889e-21
-5e-05
-6.37931e-21
-5e-05
1.69016e-22
-5e-05
-2.04968e-21
-5e-05
-4.00099e-21
-5e-05
-2.03392e-21
-5e-05
-3.18912e-21
-5e-05
-4.2627e-21
-5e-05
-3.12188e-21
-5e-05
-4.52216e-21
-5e-05
-5.03565e-21
-5e-05
-1.93286e-21
-5e-05
1.99613e-21
-5e-05
3.2163e-21
-5e-05
1.25491e-21
3.01093e-22
-5e-05
-3.28278e-18
-5e-05
6.96918e-19
-5e-05
-1.59983e-19
-5e-05
3.45713e-20
-5e-05
-7.19256e-21
-5e-05
6.98569e-22
-5e-05
-3.71126e-21
-5e-05
-9.43178e-21
-5e-05
-1.06975e-20
-5e-05
-1.0649e-20
-5e-05
-1.06151e-20
-5e-05
-6.24866e-21
-5e-05
-5.39322e-22
-5e-05
2.26767e-21
-5e-05
3.29555e-21
-5e-05
3.00813e-21
-5e-05
-3.70379e-22
-5e-05
1.18339e-21
-5e-05
8.99994e-22
2.15111e-22
-5e-05
2.03404e-18
-5e-05
-4.30461e-19
-5e-05
1.07219e-19
-5e-05
-2.24452e-20
-5e-05
8.62663e-21
-5e-05
2.16984e-21
-5e-05
-2.4763e-21
-5e-05
-6.79584e-21
-5e-05
-6.98696e-21
-5e-05
-5.59196e-21
-5e-05
-4.09827e-21
-5e-05
-4.43439e-21
-5e-05
-5.09869e-21
-5e-05
1.23471e-21
-5e-05
6.70447e-21
-5e-05
5.79781e-21
-5e-05
1.39905e-21
-5e-05
1.5934e-21
-5e-05
3.68757e-22
8.91174e-22
-5e-05
2.30065e-18
-5e-05
-4.87902e-19
-5e-05
1.12005e-19
-5e-05
-2.99343e-20
-5e-05
1.20104e-21
-5e-05
-1.6497e-21
-5e-05
-1.60956e-21
-5e-05
-3.86017e-21
-5e-05
-3.52135e-21
-5e-05
-1.46165e-21
-5e-05
8.78039e-22
-5e-05
2.44757e-22
-5e-05
-1.26162e-21
-5e-05
1.97016e-22
-5e-05
-5.09664e-23
-5e-05
-1.59318e-22
-5e-05
9.34299e-22
-5e-05
-1.28187e-21
-5e-05
-1.03911e-21
2.4687e-22
-5e-05
-3.61567e-18
-5e-05
7.56351e-19
-5e-05
-1.79982e-19
-5e-05
3.99688e-20
-5e-05
-1.05761e-20
-5e-05
-1.40933e-21
-5e-05
-3.6487e-21
-5e-05
-4.48671e-21
-5e-05
-3.53955e-21
-5e-05
-3.36574e-21
-5e-05
-2.81842e-21
-5e-05
-2.05518e-21
-5e-05
1.73821e-22
-5e-05
5.91833e-22
-5e-05
-2.92307e-21
-5e-05
-2.37806e-21
-5e-05
-2.16549e-21
-5e-05
-5.0606e-21
-5e-05
-1.987e-21
-3.12568e-22
-5e-05
-5e-05
-5e-05
-5e-05
-5e-05
-5e-05
-5e-05
-5e-05
-5e-05
-5e-05
-5e-05
-5e-05
-5e-05
-5e-05
-5e-05
-5e-05
-5e-05
-5e-05
-5e-05
)
;

boundaryField
{
    movingWall
    {
        type            calculated;
        value           uniform -0;
    }
    fixedWalls
    {
        type            calculated;
        value           nonuniform List<scalar> 
60
(
5e-05
5e-05
5e-05
5e-05
5e-05
5e-05
5e-05
5e-05
5e-05
5e-05
5e-05
5e-05
5e-05
5e-05
5e-05
5e-05
5e-05
5e-05
5e-05
5e-05
-5e-05
-5e-05
-5e-05
-5e-05
-5e-05
-5e-05
-5e-05
-5e-05
-5e-05
-5e-05
-5e-05
-5e-05
-5e-05
-5e-05
-5e-05
-5e-05
-5e-05
-5e-05
-5e-05
-5e-05
0
0
0
0
0
0
0
0
0
0
0
0
0
0
0
0
0
0
0
0
)
;
    }
    frontAndBack
    {
        type            empty;
        value           nonuniform List<scalar> 0();
    }
}


// ************************************************************************* //
