/*--------------------------------*- C++ -*----------------------------------*\
| =========                 |                                                 |
| \\      /  F ield         | OpenFOAM: The Open Source CFD Toolbox           |
|  \\    /   O peration     | Version:  2312                                  |
|   \\  /    A nd           | Website:  www.openfoam.com                      |
|    \\/     M anipulation  |                                                 |
\*---------------------------------------------------------------------------*/
FoamFile
{
    version     2.0;
    format      ascii;
    arch        "LSB;label=32;scalar=64";
    class       volTensorField;
    location    "9.625";
    object      gradU;
}
// * * * * * * * * * * * * * * * * * * * * * * * * * * * * * * * * * * * * * //

dimensions      [0 0 -1 0 0 0 0];

internalField   nonuniform List<tensor> 
400
(
(-7.58942e-13 1.16869e-11 0 1.51788e-12 1.63192e-11 0 0 0 0)
(1.30104e-12 -1.40877e-11 0 -4.60786e-13 -3.43615e-12 0 0 0 0)
(-4.06576e-13 3.01379e-12 0 5.42101e-14 8.42934e-13 0 0 0 0)
(0 -7.26235e-13 0 2.71051e-14 -1.56234e-13 0 0 0 0)
(-2.71051e-14 1.54644e-13 0 5.42101e-14 4.77122e-14 0 0 0 0)
(-2.71051e-14 -2.86187e-14 0 2.71051e-14 4.43371e-15 0 0 0 0)
(-2.71051e-14 1.9362e-16 0 2.71051e-14 2.15011e-14 0 0 0 0)
(0 -1.53486e-14 0 0 5.01967e-15 0 0 0 0)
(0 5.42929e-16 0 -5.42101e-14 -2.10442e-15 0 0 0 0)
(2.71051e-14 1.39006e-14 0 -5.42101e-14 -1.32508e-15 0 0 0 0)
(2.71051e-14 1.04693e-14 0 -5.42101e-14 6.49564e-15 0 0 0 0)
(-5.42101e-14 -1.72007e-15 0 -5.42101e-14 5.00516e-15 0 0 0 0)
(0 -4.48933e-15 0 0 3.17998e-15 0 0 0 0)
(0 -7.69604e-16 0 0 3.10985e-15 0 0 0 0)
(-2.71051e-14 -1.40112e-15 0 0 1.67061e-14 0 0 0 0)
(-2.71051e-14 -8.59098e-15 0 0 2.11642e-14 0 0 0 0)
(-5.42101e-14 -1.08871e-14 0 -5.42101e-14 8.93652e-15 0 0 0 0)
(8.13152e-14 5.97604e-17 0 0 -4.46171e-15 0 0 0 0)
(-2.71051e-14 1.00223e-14 0 0 -3.8338e-15 0 0 0 0)
(0 -4.73113e-15 0 -5.42101e-14 4.16118e-15 0 0 0 0)
(1.87025e-12 1.19622e-12 0 7.58942e-13 -2.83263e-11 0 0 0 0)
(-2.76472e-12 -1.3886e-12 0 -2.43945e-13 6.0779e-12 0 0 0 0)
(8.40257e-13 2.66123e-13 0 -1.0842e-13 -1.47829e-12 0 0 0 0)
(0 -6.89864e-14 0 -5.42101e-14 2.95787e-13 0 0 0 0)
(0 6.0236e-15 0 -8.13152e-14 -7.53771e-14 0 0 0 0)
(0 2.4075e-15 0 -8.13152e-14 6.67596e-15 0 0 0 0)
(2.71051e-14 3.92348e-16 0 0 -8.20579e-15 0 0 0 0)
(-2.71051e-14 -8.25692e-15 0 -5.42101e-14 2.04686e-14 0 0 0 0)
(-5.42101e-14 -6.88768e-15 0 0 3.04019e-14 0 0 0 0)
(-5.42101e-14 -5.30057e-15 0 0 1.51308e-14 0 0 0 0)
(0 -4.13905e-15 0 0 -1.30868e-14 0 0 0 0)
(5.42101e-14 -1.5956e-15 0 -2.71051e-14 -1.99863e-14 0 0 0 0)
(5.42101e-14 2.59402e-15 0 -5.42101e-14 -1.94989e-14 0 0 0 0)
(2.71051e-14 1.42957e-14 0 -5.42101e-14 -1.71162e-14 0 0 0 0)
(5.42101e-14 1.94555e-14 0 -5.42101e-14 -1.6806e-14 0 0 0 0)
(0 8.21409e-16 0 -5.42101e-14 -1.16298e-14 0 0 0 0)
(0 -1.47388e-14 0 5.42101e-14 3.82221e-16 0 0 0 0)
(-5.42101e-14 -1.28301e-14 0 0 1.05977e-14 0 0 0 0)
(0 -1.39938e-15 0 0 -7.061e-15 0 0 0 0)
(5.42101e-14 4.40375e-15 0 5.42101e-14 -1.61825e-14 0 0 0 0)
(-2.71051e-13 -1.05615e-11 0 -5.3397e-12 7.30268e-12 0 0 0 0)
(4.87891e-13 1.27603e-11 0 1.51788e-12 -1.65257e-12 0 0 0 0)
(-1.89735e-13 -2.76833e-12 0 -8.13152e-14 3.64187e-13 0 0 0 0)
(2.71051e-14 6.76674e-13 0 5.42101e-14 -1.03515e-13 0 0 0 0)
(0 -1.34467e-13 0 0 1.06219e-14 0 0 0 0)
(0 3.85527e-14 0 5.42101e-14 -1.05335e-14 0 0 0 0)
(0 1.39862e-14 0 0 -4.04395e-15 0 0 0 0)
(0 2.32591e-14 0 0 5.27717e-15 0 0 0 0)
(0 -4.79487e-15 0 8.13152e-14 5.95011e-15 0 0 0 0)
(0 -2.95881e-14 0 1.0842e-13 1.16334e-14 0 0 0 0)
(0 -2.46478e-14 0 1.0842e-13 1.59392e-14 0 0 0 0)
(-2.71051e-14 -8.13217e-15 0 1.0842e-13 1.95539e-14 0 0 0 0)
(-2.71051e-14 -1.61921e-15 0 5.42101e-14 1.13482e-14 0 0 0 0)
(-5.42101e-14 1.92328e-15 0 0 4.49574e-15 0 0 0 0)
(-2.71051e-14 4.08522e-15 0 0 -1.47433e-14 0 0 0 0)
(2.71051e-14 8.59725e-15 0 0 -2.76301e-14 0 0 0 0)
(5.42101e-14 1.13405e-14 0 -5.42101e-14 -1.72995e-14 0 0 0 0)
(0 -7.38346e-15 0 0 -4.67927e-15 0 0 0 0)
(0 -1.67579e-14 0 0 6.85729e-16 0 0 0 0)
(0 1.85123e-14 0 2.71051e-14 -3.90555e-15 0 0 0 0)
(-1.97867e-12 6.84633e-12 0 3.68629e-12 1.57043e-11 0 0 0 0)
(2.49366e-12 -8.32709e-12 0 -1.02999e-12 -3.4162e-12 0 0 0 0)
(-6.77626e-13 1.81517e-12 0 1.89735e-13 8.25805e-13 0 0 0 0)
(5.42101e-14 -4.22552e-13 0 0 -1.66152e-13 0 0 0 0)
(0 9.90053e-14 0 5.42101e-14 3.87216e-14 0 0 0 0)
(2.71051e-14 -1.22584e-14 0 0 -1.50692e-14 0 0 0 0)
(0 1.6203e-14 0 -2.71051e-14 -4.91718e-15 0 0 0 0)
(0 1.73713e-15 0 5.42101e-14 -2.38126e-14 0 0 0 0)
(5.42101e-14 -5.31411e-16 0 0 -3.445e-14 0 0 0 0)
(2.71051e-14 4.68855e-15 0 0 -1.53624e-14 0 0 0 0)
(0 3.78136e-15 0 0 2.27929e-14 0 0 0 0)
(0 -6.18658e-15 0 0 2.6551e-14 0 0 0 0)
(0 -1.24641e-14 0 5.42101e-14 2.17559e-14 0 0 0 0)
(0 -1.17958e-14 0 8.13152e-14 1.45334e-14 0 0 0 0)
(2.71051e-14 -1.26703e-14 0 1.0842e-13 3.52636e-16 0 0 0 0)
(-2.71051e-14 -1.7348e-15 0 8.13152e-14 -2.36605e-15 0 0 0 0)
(-2.71051e-14 8.21196e-15 0 5.42101e-14 -3.36705e-15 0 0 0 0)
(2.71051e-14 5.15515e-15 0 2.71051e-14 -3.14706e-15 0 0 0 0)
(2.71051e-14 -6.25667e-16 0 2.71051e-14 1.00084e-14 0 0 0 0)
(-5.42101e-14 7.62357e-15 0 2.71051e-14 1.05931e-14 0 0 0 0)
(2.41235e-12 1.72654e-12 0 1.89735e-13 -2.15131e-11 0 0 0 0)
(-3.11708e-12 -2.11815e-12 0 0 4.71741e-12 0 0 0 0)
(8.67362e-13 4.81725e-13 0 0 -1.10009e-12 0 0 0 0)
(-1.35525e-13 -1.1041e-13 0 5.42101e-14 2.45826e-13 0 0 0 0)
(2.71051e-14 1.66159e-14 0 5.42101e-14 -4.60392e-14 0 0 0 0)
(-2.71051e-14 -5.08611e-15 0 5.42101e-14 2.00694e-14 0 0 0 0)
(0 5.24283e-15 0 0 2.59917e-15 0 0 0 0)
(0 -6.27373e-15 0 0 1.55054e-15 0 0 0 0)
(0 3.6553e-15 0 -2.71051e-14 6.57648e-16 0 0 0 0)
(0 2.76549e-14 0 -1.0842e-13 -1.14398e-15 0 0 0 0)
(0 1.72657e-14 0 -2.71051e-14 -5.38071e-15 0 0 0 0)
(0 -9.16915e-15 0 -2.71051e-14 -1.37461e-14 0 0 0 0)
(0 -1.36368e-14 0 0 -8.18729e-15 0 0 0 0)
(-2.71051e-14 -1.948e-14 0 0 -1.59462e-15 0 0 0 0)
(0 -1.28142e-14 0 0 -4.32864e-15 0 0 0 0)
(0 4.87757e-15 0 0 5.22149e-15 0 0 0 0)
(0 1.05595e-14 0 0 4.49543e-15 0 0 0 0)
(-2.71051e-14 5.99204e-15 0 -2.71051e-14 1.34258e-14 0 0 0 0)
(0 -3.0178e-15 0 2.71051e-14 9.42148e-15 0 0 0 0)
(0 -2.08918e-15 0 -2.71051e-14 7.32301e-15 0 0 0 0)
(-1.81604e-12 -9.94938e-12 0 -2.95445e-12 1.2404e-11 0 0 0 0)
(2.33103e-12 1.20859e-11 0 8.40257e-13 -2.68818e-12 0 0 0 0)
(-5.69206e-13 -2.65641e-12 0 -2.71051e-14 6.40795e-13 0 0 0 0)
(1.0842e-13 6.31496e-13 0 0 -1.32807e-13 0 0 0 0)
(0 -1.26751e-13 0 0 5.32643e-14 0 0 0 0)
(-5.42101e-14 3.638e-14 0 0 2.82517e-14 0 0 0 0)
(-5.42101e-14 -2.31588e-15 0 2.71051e-14 3.0365e-14 0 0 0 0)
(-2.71051e-14 -2.0439e-16 0 -5.42101e-14 3.01948e-14 0 0 0 0)
(0 -3.22593e-15 0 5.42101e-14 2.63328e-14 0 0 0 0)
(-5.42101e-14 -1.34981e-15 0 -2.71051e-14 1.46375e-15 0 0 0 0)
(8.13152e-14 -8.82078e-15 0 -2.71051e-14 -3.92654e-14 0 0 0 0)
(5.42101e-14 -8.99316e-15 0 0 -3.8314e-14 0 0 0 0)
(0 -3.12597e-16 0 -2.71051e-14 -2.68706e-14 0 0 0 0)
(2.71051e-14 -7.93717e-15 0 0 -6.58443e-15 0 0 0 0)
(0 -5.85421e-15 0 -2.71051e-14 1.79771e-14 0 0 0 0)
(0 7.08928e-15 0 0 1.85557e-14 0 0 0 0)
(-2.71051e-14 1.64162e-14 0 0 5.69059e-15 0 0 0 0)
(0 1.00812e-14 0 -5.42101e-14 -3.30408e-15 0 0 0 0)
(5.42101e-14 -6.72843e-15 0 0 2.20026e-15 0 0 0 0)
(-5.42101e-14 -9.12092e-15 0 0 9.36081e-15 0 0 0 0)
(3.25261e-13 1.14423e-11 0 3.68629e-12 9.80296e-12 0 0 0 0)
(-1.6263e-13 -1.38813e-11 0 -1.0842e-12 -2.16159e-12 0 0 0 0)
(-5.42101e-14 3.0371e-12 0 0 4.90786e-13 0 0 0 0)
(-8.13152e-14 -6.9794e-13 0 -5.42101e-14 -1.10068e-13 0 0 0 0)
(2.71051e-14 1.77675e-13 0 -5.42101e-14 2.09969e-14 0 0 0 0)
(0 -2.79854e-14 0 -5.42101e-14 -6.80719e-15 0 0 0 0)
(0 7.18592e-15 0 -2.71051e-14 6.26326e-17 0 0 0 0)
(2.71051e-14 -1.03059e-14 0 5.42101e-14 3.37342e-15 0 0 0 0)
(-2.71051e-14 -2.50757e-14 0 0 8.78429e-15 0 0 0 0)
(0 -3.79433e-14 0 1.0842e-13 4.80535e-16 0 0 0 0)
(0 -2.25121e-14 0 2.71051e-14 -5.3993e-15 0 0 0 0)
(0 3.22567e-15 0 5.42101e-14 7.50449e-15 0 0 0 0)
(0 1.80928e-14 0 0 8.577e-15 0 0 0 0)
(-2.71051e-14 2.53677e-14 0 -2.71051e-14 8.32878e-15 0 0 0 0)
(-2.71051e-14 1.23259e-14 0 -8.13152e-14 1.83922e-14 0 0 0 0)
(0 -7.40895e-15 0 -2.71051e-14 1.86974e-15 0 0 0 0)
(0 -1.13003e-14 0 0 -8.74424e-15 0 0 0 0)
(0 2.50171e-15 0 8.13152e-14 -1.26566e-14 0 0 0 0)
(0 9.64709e-15 0 -5.42101e-14 2.89142e-15 0 0 0 0)
(0 -1.36502e-14 0 -2.71051e-14 5.87005e-15 0 0 0 0)
(7.31836e-13 -2.30802e-12 0 -1.89735e-12 -2.58789e-11 0 0 0 0)
(-1.35525e-12 2.77378e-12 0 4.87891e-13 5.5967e-12 0 0 0 0)
(4.87891e-13 -6.04884e-13 0 -8.13152e-14 -1.33262e-12 0 0 0 0)
(8.13152e-14 1.61707e-13 0 5.42101e-14 2.88669e-13 0 0 0 0)
(-2.71051e-14 -2.34908e-14 0 0 -6.5731e-14 0 0 0 0)
(0 1.54457e-14 0 0 8.17036e-15 0 0 0 0)
(0 7.86473e-15 0 -5.42101e-14 -2.32268e-14 0 0 0 0)
(8.13152e-14 8.51727e-15 0 0 -3.64268e-14 0 0 0 0)
(2.71051e-14 -6.11882e-15 0 0 -2.58355e-14 0 0 0 0)
(0 -1.55334e-14 0 0 -3.07734e-16 0 0 0 0)
(0 -1.79683e-15 0 0 2.50122e-14 0 0 0 0)
(-2.71051e-14 4.98313e-15 0 -2.71051e-14 2.98285e-14 0 0 0 0)
(-5.42101e-14 5.11696e-16 0 -2.71051e-14 2.5158e-14 0 0 0 0)
(0 1.87801e-15 0 0 6.29843e-15 0 0 0 0)
(0 -1.23133e-14 0 0 -1.11011e-14 0 0 0 0)
(0 -2.00471e-14 0 0 -1.39427e-14 0 0 0 0)
(5.42101e-14 1.88992e-15 0 -5.42101e-14 -1.51698e-14 0 0 0 0)
(2.71051e-14 2.17169e-14 0 -2.71051e-14 -7.62674e-15 0 0 0 0)
(-2.71051e-14 1.17982e-14 0 0 9.58688e-16 0 0 0 0)
(0 -1.78824e-14 0 0 -9.49124e-16 0 0 0 0)
(-1.02999e-12 -8.83988e-12 0 -7.04731e-13 2.03178e-11 0 0 0 0)
(1.68051e-12 1.0665e-11 0 3.79471e-13 -4.46114e-12 0 0 0 0)
(-5.42101e-13 -2.27094e-12 0 1.0842e-13 1.0747e-12 0 0 0 0)
(0 5.68952e-13 0 -5.42101e-14 -2.1036e-13 0 0 0 0)
(-2.71051e-14 -1.02823e-13 0 -5.42101e-14 6.63863e-14 0 0 0 0)
(-2.71051e-14 1.45188e-14 0 0 -1.60129e-14 0 0 0 0)
(-5.42101e-14 -3.74112e-14 0 5.42101e-14 -1.28283e-14 0 0 0 0)
(2.71051e-14 -1.29146e-14 0 5.42101e-14 -2.40964e-14 0 0 0 0)
(0 1.10433e-14 0 0 -1.0281e-14 0 0 0 0)
(0 1.29044e-14 0 2.71051e-14 8.30265e-15 0 0 0 0)
(-2.71051e-14 7.6241e-15 0 2.71051e-14 2.24295e-14 0 0 0 0)
(0 3.37146e-15 0 0 1.01276e-14 0 0 0 0)
(0 -5.43725e-15 0 5.42101e-14 1.11998e-14 0 0 0 0)
(0 -1.08914e-14 0 0 1.2244e-14 0 0 0 0)
(0 -7.91525e-15 0 8.13152e-14 -1.83841e-15 0 0 0 0)
(0 -1.14777e-14 0 2.71051e-14 1.35517e-14 0 0 0 0)
(-8.13152e-14 -4.98432e-15 0 5.42101e-14 1.6532e-14 0 0 0 0)
(2.71051e-14 1.86302e-14 0 -5.42101e-14 -3.21989e-15 0 0 0 0)
(5.42101e-14 1.63247e-14 0 0 -1.9491e-14 0 0 0 0)
(0 -1.36598e-14 0 2.71051e-14 -5.54751e-15 0 0 0 0)
(3.52366e-13 1.35486e-11 0 1.19262e-12 -3.16207e-12 0 0 0 0)
(-5.42101e-13 -1.64693e-11 0 -6.23416e-13 7.60965e-13 0 0 0 0)
(1.0842e-13 3.6459e-12 0 -1.89735e-13 -1.53512e-13 0 0 0 0)
(-1.0842e-13 -8.46606e-13 0 -8.13152e-14 3.87254e-14 0 0 0 0)
(5.42101e-14 1.70856e-13 0 -2.71051e-14 -4.58951e-14 0 0 0 0)
(8.13152e-14 -6.37689e-14 0 -8.13152e-14 -5.09961e-14 0 0 0 0)
(1.0842e-13 -2.18768e-16 0 0 -2.91781e-14 0 0 0 0)
(0 1.10645e-14 0 -5.42101e-14 3.72781e-15 0 0 0 0)
(0 2.62803e-14 0 -1.0842e-13 5.00619e-15 0 0 0 0)
(0 1.71771e-14 0 -1.0842e-13 -6.89475e-15 0 0 0 0)
(0 2.81659e-17 0 -1.0842e-13 -4.74918e-15 0 0 0 0)
(0 -6.24654e-15 0 0 -1.34883e-15 0 0 0 0)
(0 2.62803e-15 0 -5.42101e-14 5.29783e-17 0 0 0 0)
(-2.71051e-14 -1.11602e-14 0 5.42101e-14 -1.74566e-15 0 0 0 0)
(2.71051e-14 -1.10055e-14 0 0 3.06126e-15 0 0 0 0)
(0 -1.67677e-15 0 0 7.96257e-16 0 0 0 0)
(0 -1.48817e-14 0 5.42101e-14 1.11053e-14 0 0 0 0)
(-5.42101e-14 -1.43061e-14 0 8.13152e-14 1.196e-14 0 0 0 0)
(0 9.47059e-15 0 0 -4.50662e-15 0 0 0 0)
(0 7.15608e-15 0 -2.71051e-14 -5.83655e-15 0 0 0 0)
(-4.33681e-13 -1.1241e-11 0 -5.42101e-14 -1.03142e-11 0 0 0 0)
(2.98156e-13 1.36735e-11 0 2.43945e-13 2.21832e-12 0 0 0 0)
(0 -2.99318e-12 0 1.89735e-13 -5.3478e-13 0 0 0 0)
(8.13152e-14 6.76569e-13 0 8.13152e-14 9.44679e-14 0 0 0 0)
(5.42101e-14 -1.92545e-13 0 1.35525e-13 -4.33016e-14 0 0 0 0)
(0 3.12357e-14 0 1.35525e-13 8.18117e-15 0 0 0 0)
(-5.42101e-14 1.73127e-14 0 2.71051e-14 1.60112e-14 0 0 0 0)
(-8.13152e-14 2.12696e-14 0 0 2.11514e-14 0 0 0 0)
(0 4.20743e-16 0 0 5.48169e-16 0 0 0 0)
(0 3.14904e-15 0 5.42101e-14 -1.58463e-14 0 0 0 0)
(8.13152e-14 1.317e-14 0 0 -3.23598e-14 0 0 0 0)
(0 8.17361e-15 0 2.71051e-14 -1.47173e-14 0 0 0 0)
(0 -5.83408e-15 0 0 -8.56304e-15 0 0 0 0)
(8.13152e-14 -7.8831e-15 0 0 -2.42592e-14 0 0 0 0)
(-2.71051e-14 -5.37333e-15 0 0 -3.16614e-15 0 0 0 0)
(2.71051e-14 -3.43372e-15 0 0 -9.18885e-15 0 0 0 0)
(0 6.17943e-15 0 0 -1.38815e-15 0 0 0 0)
(2.71051e-14 3.01833e-15 0 -2.71051e-14 1.29374e-14 0 0 0 0)
(-2.71051e-14 -1.47185e-15 0 2.71051e-14 2.06642e-14 0 0 0 0)
(-2.71051e-14 -3.31664e-15 0 2.71051e-14 7.49305e-15 0 0 0 0)
(6.23416e-13 5.45274e-12 0 1.89735e-13 1.71085e-11 0 0 0 0)
(-3.25261e-13 -6.68988e-12 0 -1.89735e-13 -3.76629e-12 0 0 0 0)
(-1.0842e-13 1.52204e-12 0 -5.42101e-14 8.70331e-13 0 0 0 0)
(-1.0842e-13 -3.55128e-13 0 -8.13152e-14 -2.18412e-13 0 0 0 0)
(5.42101e-14 8.45694e-14 0 -5.42101e-14 4.68768e-14 0 0 0 0)
(-5.42101e-14 -4.45616e-15 0 -1.0842e-13 1.72152e-14 0 0 0 0)
(0 1.27515e-14 0 -1.0842e-13 2.4032e-14 0 0 0 0)
(0 -4.39849e-15 0 -5.42101e-14 5.25398e-15 0 0 0 0)
(2.71051e-14 -1.07174e-14 0 -2.71051e-14 -1.161e-15 0 0 0 0)
(-2.71051e-14 -1.57309e-14 0 0 1.05215e-15 0 0 0 0)
(-2.71051e-14 1.15713e-15 0 0 -6.67314e-15 0 0 0 0)
(2.71051e-14 1.75502e-14 0 -1.0842e-13 -9.8853e-15 0 0 0 0)
(0 -6.91387e-15 0 0 -8.69882e-15 0 0 0 0)
(-2.71051e-14 -5.76331e-15 0 -5.42101e-14 -3.6985e-15 0 0 0 0)
(-2.71051e-14 4.06483e-15 0 -8.13152e-14 -2.10198e-15 0 0 0 0)
(2.71051e-14 1.01216e-16 0 -2.71051e-14 8.14641e-15 0 0 0 0)
(-2.71051e-14 7.24456e-15 0 -5.42101e-14 8.84835e-15 0 0 0 0)
(-2.71051e-14 7.74629e-15 0 -5.42101e-14 -5.3292e-15 0 0 0 0)
(2.71051e-14 4.02628e-15 0 -2.71051e-14 -8.56816e-15 0 0 0 0)
(-2.71051e-14 -2.10012e-14 0 -2.71051e-14 1.8484e-15 0 0 0 0)
(-4.87891e-13 2.10123e-12 0 3.25261e-13 -1.86683e-11 0 0 0 0)
(5.42101e-14 -2.56465e-12 0 -1.6263e-13 4.20585e-12 0 0 0 0)
(1.6263e-13 5.54702e-13 0 -5.42101e-14 -9.65246e-13 0 0 0 0)
(8.13152e-14 -1.46885e-13 0 0 2.25694e-13 0 0 0 0)
(0 4.30825e-14 0 -5.42101e-14 -4.53159e-14 0 0 0 0)
(-2.71051e-14 8.3909e-15 0 -2.71051e-14 7.08881e-15 0 0 0 0)
(0 5.35151e-15 0 0 -1.971e-14 0 0 0 0)
(2.71051e-14 -3.92334e-15 0 -2.71051e-14 -1.44116e-14 0 0 0 0)
(0 -3.78109e-15 0 0 -1.50457e-14 0 0 0 0)
(5.42101e-14 -2.36311e-15 0 -5.42101e-14 -1.17535e-14 0 0 0 0)
(0 2.23257e-15 0 -2.71051e-14 2.56731e-15 0 0 0 0)
(0 6.14793e-15 0 -2.71051e-14 -1.65223e-14 0 0 0 0)
(5.42101e-14 3.52712e-16 0 -8.13152e-14 -2.73279e-14 0 0 0 0)
(0 -1.28627e-15 0 -5.42101e-14 -9.72292e-15 0 0 0 0)
(2.71051e-14 6.47158e-15 0 0 -1.30667e-14 0 0 0 0)
(-2.71051e-14 7.51662e-15 0 0 -6.76835e-16 0 0 0 0)
(0 -7.29618e-15 0 -5.42101e-14 -2.65841e-15 0 0 0 0)
(2.71051e-14 -1.43982e-14 0 5.42101e-14 -1.29538e-14 0 0 0 0)
(0 5.70575e-15 0 0 -2.45366e-14 0 0 0 0)
(5.42101e-14 3.40312e-15 0 0 -1.54264e-14 0 0 0 0)
(7.86047e-13 -9.0097e-12 0 -1.78893e-12 1.25652e-11 0 0 0 0)
(-6.50521e-13 1.10132e-11 0 6.50521e-13 -2.68156e-12 0 0 0 0)
(5.42101e-14 -2.45811e-12 0 5.42101e-14 6.21094e-13 0 0 0 0)
(-1.35525e-13 5.64801e-13 0 1.0842e-13 -1.26506e-13 0 0 0 0)
(0 -1.34036e-13 0 5.42101e-14 3.25411e-14 0 0 0 0)
(-2.71051e-14 2.11497e-14 0 1.0842e-13 -1.35837e-14 0 0 0 0)
(0 -8.74896e-15 0 1.0842e-13 3.71087e-15 0 0 0 0)
(2.71051e-14 2.65807e-16 0 8.13152e-14 7.78374e-15 0 0 0 0)
(0 -8.05935e-15 0 1.0842e-13 8.11742e-15 0 0 0 0)
(-5.42101e-14 1.88218e-15 0 8.13152e-14 1.62555e-14 0 0 0 0)
(0 -3.61165e-15 0 8.13152e-14 1.30424e-14 0 0 0 0)
(0 -1.23449e-14 0 1.35525e-13 -7.04021e-15 0 0 0 0)
(0 -1.1447e-16 0 8.13152e-14 -1.9336e-14 0 0 0 0)
(0 8.49786e-15 0 5.42101e-14 -1.8032e-14 0 0 0 0)
(0 1.31109e-14 0 8.13152e-14 -1.4546e-14 0 0 0 0)
(2.71051e-14 1.05095e-14 0 2.71051e-14 -1.03307e-14 0 0 0 0)
(0 -5.03242e-15 0 8.13152e-14 5.70208e-16 0 0 0 0)
(0 -1.41319e-14 0 5.42101e-14 1.12104e-14 0 0 0 0)
(0 1.5537e-15 0 0 8.96685e-15 0 0 0 0)
(-2.71051e-14 1.89618e-14 0 2.71051e-14 -2.27155e-15 0 0 0 0)
(-1.65341e-12 1.19848e-11 0 1.6263e-12 3.50925e-12 0 0 0 0)
(1.87025e-12 -1.45087e-11 0 -5.42101e-13 -8.75393e-13 0 0 0 0)
(-4.06576e-13 3.10975e-12 0 -8.13152e-14 1.82869e-13 0 0 0 0)
(1.35525e-13 -7.35438e-13 0 -2.71051e-14 -6.68693e-14 0 0 0 0)
(0 1.56005e-13 0 -5.42101e-14 -4.97699e-15 0 0 0 0)
(8.13152e-14 -2.04393e-14 0 -2.71051e-14 -1.26009e-14 0 0 0 0)
(-8.13152e-14 2.6719e-14 0 -8.13152e-14 4.50427e-15 0 0 0 0)
(0 4.83212e-16 0 0 -1.32524e-14 0 0 0 0)
(5.42101e-14 4.69067e-15 0 0 -1.29248e-14 0 0 0 0)
(5.42101e-14 2.56183e-15 0 0 -9.82067e-15 0 0 0 0)
(2.71051e-14 -2.10631e-14 0 5.42101e-14 -1.41213e-14 0 0 0 0)
(0 -2.62305e-14 0 5.42101e-14 5.93902e-15 0 0 0 0)
(-5.42101e-14 -1.06391e-14 0 5.42101e-14 2.47231e-14 0 0 0 0)
(0 3.50373e-15 0 5.42101e-14 1.56548e-14 0 0 0 0)
(0 1.41729e-14 0 -2.71051e-14 5.06638e-15 0 0 0 0)
(2.71051e-14 2.26329e-14 0 -2.71051e-14 -1.27189e-15 0 0 0 0)
(-2.71051e-14 1.42449e-14 0 -2.71051e-14 5.11633e-17 0 0 0 0)
(0 -6.00154e-15 0 -5.42101e-14 1.01123e-14 0 0 0 0)
(0 -7.77616e-15 0 0 1.72197e-14 0 0 0 0)
(-2.71051e-14 -3.29218e-15 0 -2.71051e-14 4.67394e-15 0 0 0 0)
(1.87025e-12 -6.37585e-12 0 -2.43945e-13 -2.0302e-11 0 0 0 0)
(-2.35814e-12 7.68678e-12 0 2.71051e-13 4.34959e-12 0 0 0 0)
(6.23416e-13 -1.64959e-12 0 1.89735e-13 -9.88899e-13 0 0 0 0)
(-1.0842e-13 3.76956e-13 0 5.42101e-14 2.4004e-13 0 0 0 0)
(-2.71051e-14 -7.97678e-14 0 1.0842e-13 -1.92547e-14 0 0 0 0)
(-8.13152e-14 3.0631e-14 0 0 2.83115e-14 0 0 0 0)
(2.71051e-14 -9.40045e-15 0 5.42101e-14 -1.55211e-14 0 0 0 0)
(8.13152e-14 -1.71632e-14 0 5.42101e-14 -2.95284e-14 0 0 0 0)
(0 -4.62764e-15 0 2.71051e-14 -2.6786e-14 0 0 0 0)
(0 6.85635e-16 0 2.71051e-14 -3.44603e-14 0 0 0 0)
(5.42101e-14 1.2148e-14 0 0 -2.9704e-14 0 0 0 0)
(2.71051e-14 2.64994e-14 0 -5.42101e-14 -7.94386e-15 0 0 0 0)
(-2.71051e-14 9.60128e-15 0 -2.71051e-14 1.03302e-14 0 0 0 0)
(-2.71051e-14 -1.11588e-14 0 0 2.71593e-14 0 0 0 0)
(-5.42101e-14 -3.81574e-15 0 5.42101e-14 3.33248e-14 0 0 0 0)
(-5.42101e-14 5.49427e-15 0 0 1.9764e-14 0 0 0 0)
(0 6.35176e-15 0 0 -9.46605e-15 0 0 0 0)
(5.42101e-14 3.03663e-15 0 0 -8.13163e-15 0 0 0 0)
(0 -3.88466e-15 0 0 -1.41965e-15 0 0 0 0)
(0 -2.93182e-15 0 2.71051e-14 -3.43929e-16 0 0 0 0)
(-1.5992e-12 -3.96761e-12 0 -2.62919e-12 2.12673e-11 0 0 0 0)
(2.27682e-12 4.80441e-12 0 5.69206e-13 -4.50951e-12 0 0 0 0)
(-6.23416e-13 -9.99799e-13 0 -1.6263e-13 1.06881e-12 0 0 0 0)
(2.71051e-14 2.34206e-13 0 0 -2.28066e-13 0 0 0 0)
(-2.71051e-14 -5.57232e-14 0 -2.71051e-14 6.32767e-14 0 0 0 0)
(0 -1.67058e-14 0 5.42101e-14 5.88508e-15 0 0 0 0)
(2.71051e-14 -3.11209e-14 0 5.42101e-14 4.93983e-15 0 0 0 0)
(0 -1.07817e-14 0 0 1.05438e-14 0 0 0 0)
(-2.71051e-14 -2.41266e-16 0 -2.71051e-14 1.48421e-14 0 0 0 0)
(0 -3.56169e-16 0 -5.42101e-14 2.02282e-14 0 0 0 0)
(-5.42101e-14 5.45331e-15 0 -5.42101e-14 2.60674e-14 0 0 0 0)
(-5.42101e-14 1.38037e-14 0 -1.0842e-13 7.2571e-15 0 0 0 0)
(5.42101e-14 2.44641e-14 0 -8.13152e-14 -1.82375e-14 0 0 0 0)
(5.42101e-14 2.64983e-14 0 -5.42101e-14 -4.13185e-15 0 0 0 0)
(0 6.77757e-15 0 -5.42101e-14 1.36357e-14 0 0 0 0)
(-2.71051e-14 -2.0158e-14 0 2.71051e-14 1.11587e-14 0 0 0 0)
(-2.71051e-14 -1.36507e-14 0 0 7.0777e-15 0 0 0 0)
(0 2.04486e-15 0 2.71051e-14 1.64003e-15 0 0 0 0)
(2.71051e-14 1.1543e-17 0 0 -2.12495e-15 0 0 0 0)
(-2.71051e-14 -1.52859e-15 0 2.71051e-14 2.70425e-15 0 0 0 0)
(-1.89735e-13 1.03819e-11 0 4.71628e-12 1.06643e-12 0 0 0 0)
(1.0842e-13 -1.25117e-11 0 -1.35525e-12 -2.29765e-13 0 0 0 0)
(2.71051e-14 2.63186e-12 0 8.13152e-14 1.91449e-14 0 0 0 0)
(0 -6.28575e-13 0 -1.0842e-13 -2.99566e-14 0 0 0 0)
(8.13152e-14 1.54183e-13 0 -1.0842e-13 -2.97024e-14 0 0 0 0)
(2.71051e-14 -2.77059e-14 0 -1.0842e-13 -1.52781e-14 0 0 0 0)
(-2.71051e-14 -4.74178e-15 0 -1.0842e-13 3.46699e-15 0 0 0 0)
(-2.71051e-14 -7.26098e-15 0 -1.0842e-13 1.17427e-14 0 0 0 0)
(-5.42101e-14 5.05676e-15 0 -8.13152e-14 1.38624e-14 0 0 0 0)
(0 1.19109e-14 0 -8.13152e-14 1.65212e-14 0 0 0 0)
(0 -8.23024e-16 0 -8.13152e-14 1.99052e-14 0 0 0 0)
(0 -1.78054e-14 0 0 1.87166e-14 0 0 0 0)
(-2.71051e-14 -1.78767e-15 0 0 1.53483e-14 0 0 0 0)
(0 2.07143e-14 0 -8.13152e-14 -4.15077e-15 0 0 0 0)
(2.71051e-14 1.14748e-14 0 -8.13152e-14 -2.70217e-14 0 0 0 0)
(5.42101e-14 -1.06369e-15 0 -8.13152e-14 -2.38285e-14 0 0 0 0)
(-5.42101e-14 -3.16695e-15 0 -5.42101e-14 -1.85899e-15 0 0 0 0)
(5.42101e-14 -6.16602e-15 0 -8.13152e-14 -1.15011e-14 0 0 0 0)
(0 -2.82043e-15 0 0 -5.63148e-15 0 0 0 0)
(0 -3.51113e-15 0 -5.42101e-14 -2.57722e-15 0 0 0 0)
(1.78893e-12 -3.13094e-12 0 -9.21572e-13 -2.36653e-11 0 0 0 0)
(-2.41235e-12 3.75713e-12 0 4.33681e-13 4.97701e-12 0 0 0 0)
(6.77626e-13 -7.99991e-13 0 1.0842e-13 -1.16795e-12 0 0 0 0)
(-1.35525e-13 1.85359e-13 0 1.0842e-13 2.79612e-13 0 0 0 0)
(-5.42101e-14 -4.10447e-14 0 1.0842e-13 -4.71087e-14 0 0 0 0)
(0 1.64636e-14 0 5.42101e-14 9.6148e-16 0 0 0 0)
(5.42101e-14 -4.10011e-15 0 8.13152e-14 -8.15658e-15 0 0 0 0)
(0 -3.86209e-16 0 8.13152e-14 -2.50618e-15 0 0 0 0)
(0 4.5373e-15 0 8.13152e-14 -7.28019e-17 0 0 0 0)
(0 5.68662e-15 0 1.0842e-13 -7.61636e-15 0 0 0 0)
(0 7.64865e-15 0 2.71051e-14 -1.47858e-14 0 0 0 0)
(0 9.24678e-15 0 5.42101e-14 -9.19973e-15 0 0 0 0)
(2.71051e-14 1.59671e-15 0 5.42101e-14 5.74176e-15 0 0 0 0)
(0 -1.58717e-14 0 1.35525e-13 1.57927e-15 0 0 0 0)
(0 -1.29002e-14 0 8.13152e-14 -1.14884e-14 0 0 0 0)
(0 5.00475e-15 0 5.42101e-14 -8.87498e-15 0 0 0 0)
(0 -1.32325e-15 0 5.42101e-14 -1.23991e-14 0 0 0 0)
(5.42101e-14 -1.72763e-15 0 5.42101e-14 -1.51149e-14 0 0 0 0)
(0 8.93538e-15 0 0 -3.79155e-15 0 0 0 0)
(0 6.6801e-15 0 0 -2.23775e-15 0 0 0 0)
(-7.04731e-13 -8.30633e-12 0 -1.35525e-12 1.44627e-11 0 0 0 0)
(1.16552e-12 9.98562e-12 0 2.71051e-13 -3.02541e-12 0 0 0 0)
(-2.71051e-13 -2.06554e-12 0 -1.35525e-13 7.19929e-13 0 0 0 0)
(-2.71051e-14 4.92265e-13 0 -5.42101e-14 -1.59875e-13 0 0 0 0)
(0 -1.24468e-13 0 -2.71051e-14 4.23045e-14 0 0 0 0)
(0 1.12461e-14 0 0 5.6373e-15 0 0 0 0)
(0 -8.20943e-15 0 -2.71051e-14 1.45948e-14 0 0 0 0)
(-5.42101e-14 8.22802e-16 0 -2.71051e-14 1.79468e-14 0 0 0 0)
(0 -5.34194e-17 0 -2.71051e-14 1.41582e-14 0 0 0 0)
(-2.71051e-14 -2.80209e-15 0 -2.71051e-14 1.3463e-14 0 0 0 0)
(0 -2.4064e-15 0 5.42101e-14 1.12737e-14 0 0 0 0)
(-2.71051e-14 2.72219e-15 0 0 8.2207e-15 0 0 0 0)
(2.71051e-14 8.99133e-15 0 0 -6.95283e-16 0 0 0 0)
(0 3.48414e-15 0 -5.42101e-14 -2.36733e-15 0 0 0 0)
(-2.71051e-14 1.0206e-15 0 0 1.16923e-14 0 0 0 0)
(0 -1.97443e-15 0 0 9.51225e-15 0 0 0 0)
(-2.71051e-14 -9.40691e-15 0 0 8.66194e-15 0 0 0 0)
(-2.71051e-14 2.44157e-15 0 0 2.02424e-14 0 0 0 0)
(0 1.00568e-14 0 0 7.948e-15 0 0 0 0)
(0 2.51817e-15 0 0 1.25027e-15 0 0 0 0)
)
;

boundaryField
{
    movingWall
    {
        type            extrapolatedCalculated;
        value           nonuniform List<tensor> 
20
(
(-7.04731e-13 -8.30633e-12 0 4.26326e-12 4.19861e-11 0 0 0 0)
(1.16552e-12 9.98562e-12 0 -1.46549e-12 -8.76074e-12 0 0 0 0)
(-2.71051e-13 -2.06554e-12 0 -3.9968e-13 2.04358e-12 0 0 0 0)
(-2.71051e-14 4.92265e-13 0 -2.66454e-13 -4.98585e-13 0 0 0 0)
(0 -1.24468e-13 0 -3.10862e-13 7.45184e-14 0 0 0 0)
(0 1.12461e-14 0 -3.10862e-13 -7.14254e-16 0 0 0 0)
(0 -8.20943e-15 0 -3.55271e-13 2.95338e-14 0 0 0 0)
(-5.42101e-14 8.22802e-16 0 -2.66454e-13 3.21235e-14 0 0 0 0)
(0 -5.34194e-17 0 -2.22045e-13 2.62426e-14 0 0 0 0)
(-2.71051e-14 -2.80209e-15 0 -2.22045e-13 3.23372e-14 0 0 0 0)
(0 -2.4064e-15 0 -1.33227e-13 3.74509e-14 0 0 0 0)
(-2.71051e-14 2.72219e-15 0 -1.77636e-13 4.19627e-14 0 0 0 0)
(2.71051e-14 8.99133e-15 0 -8.88178e-14 2.65622e-14 0 0 0 0)
(0 3.48414e-15 0 -2.22045e-13 5.99742e-15 0 0 0 0)
(-2.71051e-14 1.0206e-15 0 -1.77636e-13 1.26256e-14 0 0 0 0)
(0 -1.97443e-15 0 -8.88178e-14 1.91501e-15 0 0 0 0)
(-2.71051e-14 -9.40691e-15 0 -8.88178e-14 2.05233e-14 0 0 0 0)
(-2.71051e-14 2.44157e-15 0 0 3.95427e-14 0 0 0 0)
(0 1.00568e-14 0 0 1.07571e-14 0 0 0 0)
(0 2.51817e-15 0 0 -6.84364e-16 0 0 0 0)
)
;
    }
    fixedWalls
    {
        type            extrapolatedCalculated;
        value           nonuniform List<tensor> 
60
(
(-4.88498e-12 5.94192e-11 0 1.51788e-12 1.63192e-11 0 0 0 0)
(1.09246e-11 5.85766e-12 0 7.58942e-13 -2.83263e-11 0 0 0 0)
(-1.86517e-12 -5.3886e-11 0 -5.3397e-12 7.30268e-12 0 0 0 0)
(-1.03917e-11 3.50684e-11 0 3.68629e-12 1.57043e-11 0 0 0 0)
(1.2923e-11 8.93115e-12 0 1.89735e-13 -2.15131e-11 0 0 0 0)
(-9.59233e-12 -5.09841e-11 0 -2.95445e-12 1.2404e-11 0 0 0 0)
(1.15463e-12 5.8547e-11 0 3.68629e-12 9.80296e-12 0 0 0 0)
(4.92939e-12 -1.17723e-11 0 -1.89735e-12 -2.58789e-11 0 0 0 0)
(-6.30607e-12 -4.49686e-11 0 -7.04731e-13 2.03178e-11 0 0 0 0)
(2.08722e-12 6.94987e-11 0 1.19262e-12 -3.16207e-12 0 0 0 0)
(-1.59872e-12 -5.76169e-11 0 -5.42101e-14 -1.03142e-11 0 0 0 0)
(1.9984e-12 2.8242e-11 0 1.89735e-13 1.71085e-11 0 0 0 0)
(-9.76996e-13 1.08171e-11 0 3.25261e-13 -1.86683e-11 0 0 0 0)
(3.37508e-12 -4.64311e-11 0 -1.78893e-12 1.25652e-11 0 0 0 0)
(-8.08242e-12 6.10777e-11 0 1.6263e-12 3.50925e-12 0 0 0 0)
(9.81437e-12 -3.23941e-11 0 -2.43945e-13 -2.0302e-11 0 0 0 0)
(-9.14824e-12 -2.01304e-11 0 -2.62919e-12 2.12673e-11 0 0 0 0)
(-5.32907e-13 5.2675e-11 0 4.71628e-12 1.06643e-12 0 0 0 0)
(9.68114e-12 -1.58647e-11 0 -9.21572e-13 -2.36653e-11 0 0 0 0)
(-4.26326e-12 -4.19861e-11 0 -1.35525e-12 1.44627e-11 0 0 0 0)
(8.88178e-14 -1.97488e-14 0 -5.42101e-14 4.16118e-15 0 0 0 0)
(8.88178e-14 3.10406e-15 0 5.42101e-14 -1.61825e-14 0 0 0 0)
(0 4.4981e-14 0 2.71051e-14 -3.90555e-15 0 0 0 0)
(-8.88178e-14 1.87263e-14 0 2.71051e-14 1.05931e-14 0 0 0 0)
(-4.44089e-14 2.6088e-15 0 -2.71051e-14 7.32301e-15 0 0 0 0)
(-4.44089e-14 -1.05658e-14 0 0 9.36081e-15 0 0 0 0)
(0 -3.48344e-14 0 -2.71051e-14 5.87005e-15 0 0 0 0)
(0 -3.4046e-14 0 0 -9.49124e-16 0 0 0 0)
(-4.44089e-14 -3.10379e-14 0 2.71051e-14 -5.54751e-15 0 0 0 0)
(0 -1.1856e-14 0 -2.71051e-14 -5.83655e-15 0 0 0 0)
(0 -7.69172e-15 0 2.71051e-14 7.49305e-15 0 0 0 0)
(-4.44089e-14 -4.18282e-14 0 -2.71051e-14 1.8484e-15 0 0 0 0)
(8.88178e-14 -1.50853e-14 0 0 -1.54264e-14 0 0 0 0)
(-4.44089e-14 1.98774e-14 0 2.71051e-14 -2.27155e-15 0 0 0 0)
(-4.44089e-14 -5.99912e-15 0 -2.71051e-14 4.67394e-15 0 0 0 0)
(0 1.18164e-15 0 2.71051e-14 -3.43929e-16 0 0 0 0)
(-8.88178e-14 -4.62341e-15 0 2.71051e-14 2.70425e-15 0 0 0 0)
(-4.44089e-14 -9.63537e-15 0 -5.42101e-14 -2.57722e-15 0 0 0 0)
(0 5.68546e-15 0 0 -2.23775e-15 0 0 0 0)
(0 -6.84364e-16 0 0 1.25027e-15 0 0 0 0)
(-7.58942e-13 1.16869e-11 0 -4.88498e-12 5.94192e-11 0 0 0 0)
(1.30104e-12 -1.40877e-11 0 1.82077e-12 -1.26718e-11 0 0 0 0)
(-4.06576e-13 3.01379e-12 0 3.10862e-13 3.06847e-12 0 0 0 0)
(0 -7.26235e-13 0 2.66454e-13 -6.16629e-13 0 0 0 0)
(-2.71051e-14 1.54644e-13 0 2.22045e-13 1.63526e-13 0 0 0 0)
(-2.71051e-14 -2.86187e-14 0 2.22045e-13 1.9464e-15 0 0 0 0)
(-2.71051e-14 1.9362e-16 0 1.77636e-13 4.90511e-14 0 0 0 0)
(0 -1.53486e-14 0 8.88178e-14 2.72088e-15 0 0 0 0)
(0 5.42929e-16 0 1.33227e-13 -1.23432e-14 0 0 0 0)
(2.71051e-14 1.39006e-14 0 1.33227e-13 4.8926e-15 0 0 0 0)
(2.71051e-14 1.04693e-14 0 2.22045e-13 4.32593e-14 0 0 0 0)
(-5.42101e-14 -1.72007e-15 0 1.77636e-13 4.67698e-14 0 0 0 0)
(0 -4.48933e-15 0 8.88178e-14 3.6379e-14 0 0 0 0)
(0 -7.69604e-16 0 8.88178e-14 2.88125e-14 0 0 0 0)
(-2.71051e-14 -1.40112e-15 0 8.88178e-14 3.33006e-14 0 0 0 0)
(-2.71051e-14 -8.59098e-15 0 0 2.3208e-14 0 0 0 0)
(-5.42101e-14 -1.08871e-14 0 -8.88178e-14 -1.06331e-15 0 0 0 0)
(8.13152e-14 5.97604e-17 0 0 -2.03403e-14 0 0 0 0)
(-2.71051e-14 1.00223e-14 0 8.88178e-14 -8.24264e-16 0 0 0 0)
(0 -4.73113e-15 0 -8.88178e-14 1.97488e-14 0 0 0 0)
)
;
    }
    frontAndBack
    {
        type            empty;
    }
}


// ************************************************************************* //
