/*--------------------------------*- C++ -*----------------------------------*\
| =========                 |                                                 |
| \\      /  F ield         | OpenFOAM: The Open Source CFD Toolbox           |
|  \\    /   O peration     | Version:  2312                                  |
|   \\  /    A nd           | Website:  www.openfoam.com                      |
|    \\/     M anipulation  |                                                 |
\*---------------------------------------------------------------------------*/
FoamFile
{
    version     2.0;
    format      ascii;
    arch        "LSB;label=32;scalar=64";
    class       volVectorField;
    location    "9.625";
    object      LambVectorField;
}
// * * * * * * * * * * * * * * * * * * * * * * * * * * * * * * * * * * * * * //

dimensions      [0 1 -2 0 0 0 0];

internalField   nonuniform List<vector> 
400
(
(-1.51058e-24 -1.0169e-11 -1.0169e-11)
(-4.31693e-25 1.36269e-11 -0)
(-2.27034e-26 -2.95958e-12 -2.95958e-12)
(-1.16133e-27 7.5334e-13 -0)
(-4.10588e-29 -1.00434e-13 -1.00434e-13)
(2.71152e-31 5.57237e-14 0)
(3.30009e-30 2.69114e-14 2.69114e-14)
(1.04404e-31 1.53486e-14 0)
(1.68957e-30 -5.4753e-14 -5.4753e-14)
(-8.33096e-31 -6.81107e-14 0)
(-6.99497e-30 -6.46794e-14 -6.46794e-14)
(-6.13737e-30 -5.249e-14 0)
(4.08294e-31 4.48933e-15 4.48933e-15)
(5.54354e-32 7.69604e-16 0)
(1.16646e-31 1.40112e-15 1.40112e-15)
(4.98448e-31 8.59098e-15 0)
(1.15164e-31 -4.3323e-14 -4.3323e-14)
(3.03887e-33 -5.97604e-17 -0)
(2.06525e-32 -1.00223e-14 -1.00223e-14)
(-2.44287e-30 -4.9479e-14 0)
(-6.40353e-27 -4.37275e-13 -4.37275e-13)
(-3.06996e-27 1.14465e-12 -0)
(-2.83968e-28 -3.74543e-13 -3.74543e-13)
(-3.0683e-31 1.47763e-14 -0)
(-5.96595e-30 -8.73388e-14 -8.73388e-14)
(-3.30462e-30 -8.37227e-14 0)
(-3.62463e-32 -3.92348e-16 -3.92348e-16)
(-1.99412e-30 -4.59532e-14 0)
(6.75949e-32 6.88768e-15 6.88768e-15)
(-1.35071e-31 5.30057e-15 -0)
(-1.78773e-31 4.13905e-15 4.13905e-15)
(1.70589e-30 -2.55095e-14 -0)
(3.35984e-30 -5.68041e-14 -5.68041e-14)
(2.80413e-30 -6.85058e-14 -0)
(-6.17386e-30 -7.36656e-14 -7.36656e-14)
(-8.45405e-30 -5.50315e-14 0)
(6.34492e-30 6.89489e-14 6.89489e-14)
(7.99787e-32 1.28301e-14 0)
(-5.07659e-32 1.39938e-15 1.39938e-15)
(-3.86505e-31 4.98064e-14 -0)
(-7.03459e-25 5.22184e-12 5.22184e-12)
(-3.2715e-25 -1.12424e-11 0)
(-1.91092e-26 2.68701e-12 2.68701e-12)
(-8.81591e-28 -6.22463e-13 0)
(-4.63853e-29 1.34467e-13 1.34467e-13)
(1.12147e-30 1.56574e-14 0)
(-5.67419e-31 -1.39862e-14 -1.39862e-14)
(-4.91902e-30 -2.32591e-14 0)
(2.35219e-29 8.611e-14 8.611e-14)
(2.25698e-29 1.38008e-13 0)
(-3.02326e-30 1.33068e-13 1.33068e-13)
(-9.66669e-30 1.16552e-13 -0)
(-5.80856e-30 5.58293e-14 5.58293e-14)
(1.90656e-31 -1.92328e-15 -0)
(3.46462e-31 -4.08522e-15 -4.08522e-15)
(5.01035e-31 -8.59725e-15 -0)
(-7.62973e-32 -6.55506e-14 -6.55506e-14)
(4.07025e-31 7.38346e-15 0)
(-1.21781e-30 1.67579e-14 1.67579e-14)
(-9.66274e-31 8.59273e-15 -0)
(-2.77044e-25 -3.16004e-12 -3.16004e-12)
(-1.4016e-25 7.2971e-12 -0)
(-7.152e-27 -1.62544e-12 -1.62544e-12)
(-4.46179e-28 4.22552e-13 -0)
(-7.81798e-30 -4.47952e-14 -4.47952e-14)
(-8.07382e-31 1.22584e-14 -0)
(-2.24958e-30 -4.3308e-14 -4.3308e-14)
(5.04613e-30 5.2473e-14 0)
(3.68347e-32 5.31411e-16 5.31411e-16)
(-4.25964e-31 -4.68855e-15 0)
(-4.39396e-31 -3.78136e-15 -3.78136e-15)
(7.96002e-31 6.18658e-15 0)
(3.62271e-30 6.66742e-14 6.66742e-14)
(3.74746e-31 9.3111e-14 0)
(-7.70421e-30 1.21091e-13 1.21091e-13)
(-1.01885e-29 8.305e-14 -0)
(-3.72454e-30 4.59981e-14 4.59981e-14)
(-8.90266e-31 2.19499e-14 -0)
(-8.15838e-31 2.77307e-14 2.77307e-14)
(-9.12039e-31 1.94815e-14 -0)
(-3.43135e-26 -1.5368e-12 -1.5368e-12)
(-1.07231e-26 2.11815e-12 -0)
(-5.52228e-28 -4.81725e-13 -4.81725e-13)
(-4.0369e-29 1.6462e-13 -0)
(1.58869e-30 3.75942e-14 3.75942e-14)
(-4.68833e-30 5.92962e-14 -0)
(4.50991e-32 -5.24283e-15 -5.24283e-15)
(-1.6712e-31 6.27373e-15 -0)
(2.19442e-30 -3.07604e-14 -3.07604e-14)
(-1.34917e-30 -1.36075e-13 0)
(-9.10529e-30 -4.43707e-14 -4.43707e-14)
(-3.27459e-30 -1.79359e-14 0)
(1.54802e-30 1.36368e-14 1.36368e-14)
(9.00044e-31 1.948e-14 0)
(-1.04157e-30 1.28142e-14 1.28142e-14)
(3.99663e-31 -4.87757e-15 -0)
(3.43253e-31 -1.05595e-14 -1.05595e-14)
(-7.82944e-31 -3.30971e-14 0)
(8.25782e-31 3.01229e-14 3.01229e-14)
(1.63154e-31 -2.50159e-14 -0)
(-8.91576e-25 6.99493e-12 6.99493e-12)
(-3.14502e-25 -1.12457e-11 0)
(-1.73556e-26 2.62931e-12 2.62931e-12)
(-8.85574e-28 -6.31496e-13 0)
(-3.62336e-29 1.26751e-13 1.26751e-13)
(-4.90513e-30 -3.638e-14 0)
(2.29293e-30 2.94209e-14 2.94209e-14)
(-6.03091e-30 -5.40057e-14 0)
(4.3589e-30 5.7436e-14 5.7436e-14)
(-2.04528e-30 -2.57552e-14 0)
(-1.14082e-30 -1.82843e-14 -1.82843e-14)
(-7.90998e-32 8.99316e-15 -0)
(7.37819e-31 -2.67925e-14 -2.67925e-14)
(-9.46231e-32 7.93717e-15 -0)
(2.27193e-30 -2.12508e-14 -2.12508e-14)
(4.99536e-31 -7.08928e-15 -0)
(5.91267e-31 -1.64162e-14 -1.64162e-14)
(-6.02402e-30 -6.42913e-14 0)
(4.35967e-31 6.72843e-15 6.72843e-15)
(2.40924e-31 9.12092e-15 0)
(-1.13523e-24 -7.75604e-12 -7.75604e-12)
(-4.08795e-25 1.27971e-11 -0)
(-2.29431e-26 -3.0371e-12 -3.0371e-12)
(-1.01278e-27 6.4373e-13 -0)
(-1.33311e-28 -2.31885e-13 -2.31885e-13)
(-5.33543e-30 -2.62247e-14 0)
(-1.01175e-29 -3.4291e-14 -3.4291e-14)
(1.77619e-29 6.4516e-14 0)
(4.81426e-30 2.50757e-14 2.50757e-14)
(3.59357e-30 1.46364e-13 0)
(-9.30046e-30 4.96172e-14 4.96172e-14)
(-1.02259e-29 5.09844e-14 -0)
(2.80778e-30 -1.80928e-14 -1.80928e-14)
(1.03061e-30 -5.24727e-14 -0)
(-9.2226e-30 -9.36411e-14 -9.36411e-14)
(-2.04088e-30 -1.96961e-14 0)
(2.7572e-31 1.13003e-14 1.13003e-14)
(-7.39651e-31 7.88135e-14 -0)
(-3.15559e-30 -6.38572e-14 -6.38572e-14)
(-1.17173e-30 -1.34548e-14 0)
(-1.20863e-26 4.10668e-13 4.10668e-13)
(-1.45165e-26 -2.28588e-12 0)
(-8.86384e-28 5.23569e-13 5.23569e-13)
(-3.24283e-29 -1.07497e-13 0)
(-1.78285e-30 2.34908e-14 2.34908e-14)
(-1.03113e-30 -1.54457e-14 0)
(-4.8767e-30 -6.20748e-14 -6.20748e-14)
(-1.23846e-30 -8.51727e-15 0)
(1.00186e-30 6.11882e-15 6.11882e-15)
(1.30819e-30 1.55334e-14 0)
(1.5094e-32 1.79683e-15 1.79683e-15)
(-2.12582e-30 -3.20882e-14 0)
(-1.60817e-30 -2.76168e-14 -2.76168e-14)
(-1.34027e-31 -1.87801e-15 0)
(9.48266e-31 1.23133e-14 1.23133e-14)
(-1.03777e-30 2.00471e-14 -0)
(6.92609e-30 -5.61e-14 -5.61e-14)
(1.60463e-30 -4.88219e-14 -0)
(-1.1056e-30 -1.17982e-14 -1.17982e-14)
(1.52206e-30 1.78824e-14 0)
(-9.14566e-25 8.13515e-12 8.13515e-12)
(-2.47086e-25 -1.02855e-11 0)
(-1.37335e-26 2.37936e-12 2.37936e-12)
(-8.18452e-28 -6.23162e-13 0)
(-4.00609e-30 4.86131e-14 4.86131e-14)
(-4.14008e-30 -1.45188e-14 0)
(5.75197e-30 9.16213e-14 9.16213e-14)
(-5.97128e-30 6.71247e-14 -0)
(7.32905e-31 -1.10433e-14 -1.10433e-14)
(3.04959e-31 1.42007e-14 0)
(1.22102e-30 1.9481e-14 1.9481e-14)
(-3.29445e-31 -3.37146e-15 0)
(5.74954e-30 5.96474e-14 5.96474e-14)
(4.7207e-31 1.08914e-14 0)
(-1.11732e-30 8.92304e-14 8.92304e-14)
(-1.38161e-30 3.85828e-14 -0)
(-7.5354e-30 5.91944e-14 5.91944e-14)
(6.23894e-30 -7.28404e-14 -0)
(-9.63211e-31 -1.63247e-14 -1.63247e-14)
(3.16314e-30 4.07649e-14 0)
(-2.14681e-24 -1.2356e-11 -1.2356e-11)
(-6.06278e-25 1.58459e-11 -0)
(-3.4728e-26 -3.83563e-12 -3.83563e-12)
(-1.379e-27 7.65291e-13 -0)
(-1.16395e-28 -1.97961e-13 -1.97961e-13)
(1.63831e-30 -1.75463e-14 -0)
(-1.08773e-32 2.18768e-16 2.18768e-16)
(6.23754e-30 -6.52746e-14 -0)
(-8.20652e-30 -1.347e-13 -1.347e-13)
(-2.10054e-29 -1.25597e-13 0)
(-2.52354e-29 -1.08448e-13 -1.08448e-13)
(1.04646e-30 6.24654e-15 0)
(-9.67554e-30 -5.68381e-14 -5.68381e-14)
(1.26692e-29 6.53703e-14 0)
(6.4523e-31 1.10055e-14 1.10055e-14)
(1.4043e-31 1.67677e-15 0)
(2.89218e-30 6.90918e-14 6.90918e-14)
(-6.22169e-30 9.56212e-14 -0)
(9.58431e-31 -9.47059e-15 -9.47059e-15)
(-1.0155e-30 -3.42611e-14 0)
(-1.61137e-24 1.11868e-11 1.11868e-11)
(-4.24811e-25 -1.34296e-11 0)
(-2.32577e-26 3.18292e-12 3.18292e-12)
(-1.01231e-27 -5.95254e-13 0)
(-1.77603e-28 3.2807e-13 3.2807e-13)
(-2.3445e-29 1.0429e-13 -0)
(-2.24246e-30 9.79236e-15 9.79236e-15)
(1.09921e-30 -2.12696e-14 -0)
(6.86001e-33 -4.20743e-16 -4.20743e-16)
(-2.424e-30 5.10611e-14 -0)
(-1.99998e-31 -1.317e-14 -1.317e-14)
(1.59455e-30 1.89314e-14 0)
(5.65451e-31 5.83408e-15 5.83408e-15)
(2.04068e-31 7.8831e-15 0)
(9.72084e-32 5.37333e-15 5.37333e-15)
(-9.56169e-32 3.43372e-15 -0)
(1.00393e-31 -6.17943e-15 -6.17943e-15)
(-1.02262e-30 -3.01234e-14 0)
(3.98278e-31 2.85769e-14 2.85769e-14)
(5.84988e-31 3.04217e-14 0)
(-3.71594e-25 -5.263e-12 -5.263e-12)
(-1.04507e-25 6.50015e-12 -0)
(-5.84197e-27 -1.57625e-12 -1.57625e-12)
(-2.34727e-28 2.73813e-13 -0)
(-2.15042e-29 -1.3878e-13 -1.3878e-13)
(1.20173e-30 -1.03964e-13 -0)
(-1.33762e-29 -1.21172e-13 -1.21172e-13)
(-5.77594e-30 -4.98116e-14 0)
(-1.08823e-30 -1.63876e-14 -1.63876e-14)
(1.38136e-31 1.57309e-14 0)
(1.05187e-31 -1.15713e-15 -1.15713e-15)
(-2.56382e-30 -1.2597e-13 0)
(5.8491e-31 6.91387e-15 6.91387e-15)
(2.36353e-30 -4.84468e-14 -0)
(-2.30239e-30 -8.538e-14 -8.538e-14)
(2.21402e-31 -2.72063e-14 -0)
(-1.71941e-30 -6.14547e-14 -6.14547e-14)
(-3.98427e-30 -6.19564e-14 0)
(-3.28253e-30 -3.11313e-14 -3.11313e-14)
(-6.38284e-31 -6.10387e-15 0)
(-4.8027e-26 -1.77596e-12 -1.77596e-12)
(-1.44854e-26 2.40202e-12 -0)
(-8.502e-28 -6.08912e-13 -6.08912e-13)
(-7.1016e-29 1.46885e-13 -0)
(7.06248e-30 -9.72926e-14 -9.72926e-14)
(1.86905e-30 -3.5496e-14 -0)
(-6.05731e-32 -5.35151e-15 -5.35151e-15)
(-1.99339e-32 -2.31817e-14 0)
(-1.05547e-31 3.78109e-15 3.78109e-15)
(1.9158e-30 -5.1847e-14 -0)
(1.51222e-30 -2.93376e-14 -2.93376e-14)
(4.86335e-31 -3.3253e-14 -0)
(-8.11268e-31 -8.16679e-14 -8.16679e-14)
(5.87358e-31 -5.29238e-14 -0)
(1.89548e-32 -6.47158e-15 -6.47158e-15)
(-4.03023e-31 -7.51662e-15 0)
(-3.38893e-30 -4.69139e-14 -4.69139e-14)
(-1.32717e-30 6.86083e-14 -0)
(4.09356e-31 -5.70575e-15 -5.70575e-15)
(-1.28343e-31 -3.40312e-15 0)
(-8.3817e-25 7.22077e-12 7.22077e-12)
(-2.69229e-25 -1.03626e-11 0)
(-1.49388e-26 2.51232e-12 2.51232e-12)
(-6.38793e-28 -4.56381e-13 0)
(-5.61363e-29 1.88246e-13 1.88246e-13)
(5.17767e-30 8.72705e-14 0)
(-1.01597e-29 1.17169e-13 1.17169e-13)
(-2.2824e-30 8.10494e-14 -0)
(-9.79029e-30 1.1648e-13 1.1648e-13)
(-8.63867e-30 7.9433e-14 -0)
(-5.53975e-30 8.49268e-14 8.49268e-14)
(-2.14221e-29 1.4787e-13 -0)
(-1.53641e-29 8.14296e-14 8.14296e-14)
(-6.67469e-30 4.57122e-14 -0)
(-7.07281e-30 6.82043e-14 6.82043e-14)
(-2.47378e-31 1.65956e-14 -0)
(1.204e-31 8.63476e-14 8.63476e-14)
(-4.45799e-30 6.8342e-14 -0)
(2.17401e-31 -1.5537e-15 -1.5537e-15)
(-4.04665e-31 8.14322e-15 -0)
(-1.58169e-24 -1.03585e-11 -1.03585e-11)
(-4.58748e-25 1.39666e-11 -0)
(-2.42751e-26 -3.19107e-12 -3.19107e-12)
(-1.23855e-27 7.08333e-13 -0)
(-5.31467e-29 -2.10215e-13 -2.10215e-13)
(1.25644e-30 -6.66571e-15 -0)
(-5.23183e-30 -1.08034e-13 -1.08034e-13)
(-3.80275e-32 -4.83212e-16 0)
(-2.49823e-31 -4.69067e-15 -4.69067e-15)
(-3.21776e-31 -2.56183e-15 0)
(5.9374e-30 7.52732e-14 7.52732e-14)
(-6.83966e-30 8.04406e-14 -0)
(-1.18951e-29 6.48492e-14 6.48492e-14)
(-9.70614e-30 5.07064e-14 -0)
(6.12521e-30 -4.1278e-14 -4.1278e-14)
(2.47145e-30 -4.97379e-14 -0)
(-3.22279e-30 -4.13499e-14 -4.13499e-14)
(-4.4718e-30 -4.82086e-14 0)
(1.39379e-31 7.77616e-15 7.77616e-15)
(-3.57141e-31 -2.38129e-14 0)
(-4.96594e-25 6.1319e-12 6.1319e-12)
(-1.2775e-25 -7.41573e-12 0)
(-7.57346e-27 1.83932e-12 1.83932e-12)
(-2.35926e-28 -3.22745e-13 0)
(-6.5485e-29 1.88188e-13 1.88188e-13)
(2.04247e-30 -3.0631e-14 -0)
(-2.65046e-30 6.36106e-14 6.36106e-14)
(-1.14686e-29 7.13733e-14 -0)
(-6.76856e-30 3.17327e-14 3.17327e-14)
(-5.46779e-30 2.64194e-14 -0)
(2.50788e-30 -1.2148e-14 -1.2148e-14)
(6.89909e-30 -8.07095e-14 -0)
(-2.14922e-30 -3.67063e-14 -3.67063e-14)
(1.17528e-31 1.11588e-14 0)
(-3.0775e-30 5.80259e-14 5.80259e-14)
(1.5178e-31 -5.49427e-15 -0)
(-1.21064e-32 -6.35176e-15 -6.35176e-15)
(-1.08992e-31 -3.03663e-15 0)
(1.25367e-31 3.88466e-15 3.88466e-15)
(-8.87317e-32 3.00369e-14 -0)
(-6.73571e-26 1.33842e-12 1.33842e-12)
(-4.51043e-26 -4.23521e-12 0)
(-1.91024e-27 8.37169e-13 8.37169e-13)
(-1.52669e-28 -2.34206e-13 0)
(1.72494e-30 2.86181e-14 2.86181e-14)
(6.71026e-30 7.09159e-14 0)
(-9.11195e-30 8.5331e-14 8.5331e-14)
(-2.33516e-30 1.07817e-14 -0)
(5.76497e-30 -2.68638e-14 -2.68638e-14)
(1.1794e-29 -5.38539e-14 -0)
(1.30163e-29 -5.96634e-14 -5.96634e-14)
(2.01017e-29 -1.22224e-13 -0)
(8.47551e-30 -1.05779e-13 -1.05779e-13)
(-6.47077e-30 -8.07085e-14 0)
(-1.12741e-29 -6.09877e-14 -6.09877e-14)
(6.99258e-30 4.72631e-14 0)
(-2.28256e-31 1.36507e-14 1.36507e-14)
(2.86766e-31 2.50602e-14 0)
(-4.30257e-35 -1.1543e-17 -1.1543e-17)
(3.30962e-31 2.86336e-14 0)
(-7.46093e-25 -5.66564e-12 -5.66564e-12)
(-3.10911e-25 1.11564e-11 -0)
(-1.67585e-26 -2.55055e-12 -2.55055e-12)
(-8.06064e-28 5.20155e-13 -0)
(-7.4787e-29 -2.62603e-13 -2.62603e-13)
(6.31926e-31 -8.07143e-14 -0)
(-8.01576e-31 -1.03678e-13 -1.03678e-13)
(5.58874e-30 -1.01159e-13 -0)
(5.60367e-30 -8.63719e-14 -8.63719e-14)
(4.36234e-31 -9.32261e-14 -0)
(-4.36517e-30 -8.04921e-14 -8.04921e-14)
(-2.2986e-31 1.78054e-14 -0)
(-2.21354e-31 1.78767e-15 1.78767e-15)
(3.1411e-30 -1.02029e-13 -0)
(-7.73126e-30 -9.279e-14 -9.279e-14)
(-6.73809e-30 -8.02515e-14 0)
(-3.70997e-30 -5.10432e-14 -5.10432e-14)
(-3.92976e-30 -7.51491e-14 0)
(3.10892e-32 2.82043e-15 2.82043e-15)
(-1.22126e-30 -5.0699e-14 0)
(-8.76272e-26 2.20937e-12 2.20937e-12)
(-2.77581e-26 -3.32345e-12 0)
(-1.89889e-27 9.08411e-13 9.08411e-13)
(-2.71047e-29 -7.6939e-14 0)
(-3.53857e-29 1.49465e-13 1.49465e-13)
(-2.19529e-30 3.77466e-14 -0)
(-6.1596e-30 8.54153e-14 8.54153e-14)
(-8.10149e-30 8.17014e-14 -0)
(-5.83325e-30 7.67779e-14 7.67779e-14)
(-5.5257e-30 1.02734e-13 -0)
(-3.71801e-31 1.94564e-14 1.94564e-14)
(1.02066e-30 4.49633e-14 0)
(3.85963e-30 5.26134e-14 5.26134e-14)
(5.85405e-30 1.51397e-13 0)
(-8.04209e-30 9.42153e-14 9.42153e-14)
(-4.44496e-30 4.92054e-14 -0)
(-1.96094e-30 5.55334e-14 5.55334e-14)
(-5.79333e-30 5.59377e-14 -0)
(4.69888e-31 -8.93538e-15 -8.93538e-15)
(9.49486e-32 -6.6801e-15 -0)
(-7.29622e-25 6.95108e-12 6.95108e-12)
(-2.12767e-25 -9.71457e-12 0)
(-9.86034e-27 1.93001e-12 1.93001e-12)
(-6.81161e-28 -5.46475e-13 0)
(-1.81383e-29 9.73627e-14 9.73627e-14)
(-2.00815e-32 -1.12461e-14 0)
(1.39515e-30 -1.88956e-14 -1.88956e-14)
(2.24285e-30 -2.79279e-14 -0)
(1.77476e-30 -2.70516e-14 -2.70516e-14)
(1.96472e-30 -2.4303e-14 -0)
(-5.30085e-30 5.66165e-14 5.66165e-14)
(2.85576e-31 -2.72219e-15 -0)
(5.97073e-31 -8.99133e-15 -8.99133e-15)
(8.65042e-31 -5.76942e-14 -0)
(3.22145e-32 -1.0206e-15 -1.0206e-15)
(-9.45259e-33 1.97443e-15 -0)
(-4.82653e-31 9.40691e-15 9.40691e-15)
(2.41366e-31 -2.44157e-15 -0)
(2.70453e-31 -1.00568e-14 -1.00568e-14)
(-4.30837e-33 -2.51817e-15 0)
)
;

boundaryField
{
    movingWall
    {
        type            calculated;
        value           nonuniform List<vector> 
20
(
(0 1.25696e-11 -0)
(0 -1.14511e-11 -0)
(0 1.66586e-12 -0)
(0 -7.58719e-13 -0)
(0 -1.86395e-13 -0)
(0 -3.22109e-13 -0)
(0 -3.47062e-13 -0)
(0 -2.67276e-13 -0)
(0 -2.21991e-13 -0)
(0 -2.19243e-13 -0)
(0 -1.3082e-13 -0)
(0 -1.80358e-13 -0)
(0 -9.78092e-14 -0)
(0 -2.25529e-13 -0)
(0 -1.78656e-13 -0)
(0 -8.68434e-14 -0)
(0 -7.94109e-14 -0)
(0 -2.44157e-15 -0)
(0 -1.00568e-14 -0)
(0 -2.51817e-15 -0)
)
;
    }
    fixedWalls
    {
        type            calculated;
        value           nonuniform List<vector> 
60
(
(0 -5.79013e-11 -0)
(0 -5.09872e-12 -0)
(0 4.85463e-11 -0)
(0 -3.13821e-11 -0)
(0 -8.74141e-12 -0)
(0 4.80297e-11 -0)
(0 -5.48607e-11 -0)
(0 9.87494e-12 -0)
(0 4.42639e-11 -0)
(0 -6.83061e-11 -0)
(0 5.75627e-11 -0)
(0 -2.80523e-11 -0)
(0 -1.04918e-11 -0)
(0 4.46422e-11 -0)
(0 -5.94514e-11 -0)
(0 3.21502e-11 -0)
(0 1.75012e-11 -0)
(0 -4.79587e-11 -0)
(0 1.49431e-11 -0)
(0 4.06308e-11 -0)
(0 -3.44613e-14 -0)
(0 5.1106e-14 -0)
(0 -1.7876e-14 -0)
(0 8.37879e-15 -0)
(0 -2.97139e-14 -0)
(0 1.05658e-14 -0)
(0 7.72936e-15 -0)
(0 3.4046e-14 -0)
(0 5.8143e-14 -0)
(0 -1.52491e-14 -0)
(0 3.47968e-14 -0)
(0 1.47231e-14 -0)
(0 1.50853e-14 -0)
(0 7.22765e-15 -0)
(0 -2.11059e-14 -0)
(0 2.59234e-14 -0)
(0 3.17285e-14 -0)
(0 -4.45747e-14 -0)
(0 -5.68546e-15 -0)
(0 6.84364e-16 -0)
(0 -1.65718e-11 -0)
(0 1.59084e-11 -0)
(0 -2.70293e-12 -0)
(0 9.92689e-13 -0)
(0 6.74007e-14 -0)
(0 2.50663e-13 -0)
(0 1.77442e-13 -0)
(0 1.04166e-13 -0)
(0 1.32684e-13 -0)
(0 1.19326e-13 -0)
(0 2.11575e-13 -0)
(0 1.79356e-13 -0)
(0 9.33072e-14 -0)
(0 8.95874e-14 -0)
(0 9.0219e-14 -0)
(0 8.59098e-15 -0)
(0 -7.79308e-14 -0)
(0 -5.97604e-17 -0)
(0 7.87956e-14 -0)
(0 -8.40867e-14 -0)
)
;
    }
    frontAndBack
    {
        type            empty;
    }
}


// ************************************************************************* //
