/*--------------------------------*- C++ -*----------------------------------*\
| =========                 |                                                 |
| \\      /  F ield         | OpenFOAM: The Open Source CFD Toolbox           |
|  \\    /   O peration     | Version:  2312                                  |
|   \\  /    A nd           | Website:  www.openfoam.com                      |
|    \\/     M anipulation  |                                                 |
\*---------------------------------------------------------------------------*/
FoamFile
{
    version     2.0;
    format      ascii;
    arch        "LSB;label=32;scalar=64";
    class       volScalarField;
    location    "9.625";
    object      QField;
}
// * * * * * * * * * * * * * * * * * * * * * * * * * * * * * * * * * * * * * //

dimensions      [0 0 -2 0 0 0 0];

internalField   nonuniform List<scalar> 
400
(
-3.01246e-23
-1.0962e-23
-5.06094e-25
1.96846e-26
-9.67651e-27
6.55535e-28
-5.88036e-28
0
2.94322e-29
7.17638e-28
7.43606e-28
-3.64575e-28
0
0
-4.52819e-28
-5.73656e-28
-1.07464e-27
-3.62805e-28
1.03915e-28
-2.56475e-28
-5.38851e-23
-1.71424e-23
-1.21329e-24
-3.73976e-27
4.8981e-28
1.95766e-28
-2.22418e-28
-1.00241e-27
-1.64809e-27
-8.20241e-28
0
-1.12671e-27
-9.16415e-28
3.11037e-28
1.43626e-28
4.45287e-29
7.98993e-28
-5.74505e-28
0
-1.11598e-27
-5.83748e-23
-2.01749e-23
-2.94206e-25
-3.94883e-26
0
-2.08994e-27
0
0
3.89896e-28
3.20794e-27
2.67232e-27
3.51683e-28
-2.19817e-28
-2.43714e-28
3.99618e-28
-7.48914e-28
-3.23037e-28
0
0
-5.01778e-28
-5.63111e-23
-1.70957e-23
-9.0399e-25
-9.00712e-27
-5.36709e-27
-4.08451e-28
4.39183e-28
-9.41703e-29
-1.86754e-27
-4.164e-28
0
0
6.7568e-28
9.59178e-28
1.38328e-27
2.05197e-28
-3.53907e-28
-2.25032e-28
2.88238e-28
-7.80888e-28
-5.22248e-23
-1.47046e-23
-9.54174e-25
-2.73303e-26
-2.14865e-27
-2.68264e-28
0
0
9.9077e-29
2.99835e-27
4.67987e-28
-2.4853e-28
0
4.32224e-29
0
0
0
-2.01492e-28
8.17976e-29
-5.66274e-29
-5.19211e-23
-1.64215e-23
-4.36747e-25
-1.4399e-26
0
-1.53153e-27
-1.58332e-27
-8.29511e-28
1.74878e-28
-1.15936e-28
-3.43196e-27
-2.07701e-27
-8.47295e-30
-1.78471e-28
-1.58679e-28
0
-1.54244e-28
5.46503e-28
1.19276e-28
-5.0745e-28
-3.89912e-23
-1.46986e-23
-2.66056e-26
-2.88853e-26
1.02009e-26
-1.51709e-27
1.94775e-28
6.50122e-28
-2.38099e-28
4.11382e-27
6.10192e-28
-1.74864e-28
0
4.6184e-28
5.03763e-28
-2.0082e-28
0
-2.03427e-28
5.2297e-28
-3.69991e-28
-2.33183e-23
-8.93825e-24
-6.99361e-25
1.4707e-26
1.78164e-27
0
4.26348e-28
-2.96205e-27
-7.00273e-28
0
0
-6.73434e-28
-1.34995e-27
0
0
0
-7.19906e-28
3.81914e-28
-2.59853e-29
0
-2.71569e-23
-1.15441e-23
-3.3638e-25
3.08429e-26
-7.37346e-27
4.34031e-28
2.72349e-27
4.69684e-29
0
-3.49775e-28
-8.14604e-28
0
2.94754e-28
0
6.4363e-28
3.11105e-28
-1.0741e-27
9.22672e-28
-1.05661e-27
3.7025e-28
-1.72726e-23
-1.06797e-23
6.75112e-25
-7.30406e-26
2.14309e-27
-9.33213e-27
-3.16349e-27
5.99808e-28
2.84931e-27
1.86235e-27
3.05376e-30
0
1.42466e-28
6.52312e-28
8.29756e-29
0
8.06736e-28
5.14947e-28
0
1.93966e-28
3.86369e-24
-2.67419e-24
5.67912e-25
-4.73336e-26
2.37473e-26
-4.23323e-27
-1.33723e-27
-1.71993e-27
0
-1.7071e-28
-2.63134e-27
-2.21546e-28
0
-1.97264e-27
8.58183e-29
-2.49064e-28
0
4.3248e-28
-5.2021e-28
-1.13202e-28
9.63115e-24
-4.42799e-26
-1.18513e-26
-5.19702e-27
7.12572e-27
-1.41637e-27
1.38252e-27
-2.38442e-28
-3.21966e-28
-2.85184e-29
1.80876e-28
1.63486e-27
0
-2.12182e-28
3.87506e-28
2.23552e-28
1.52893e-28
5.64375e-28
-1.23108e-28
-6.19339e-28
8.42464e-24
-1.8909e-25
-1.26908e-25
1.83524e-26
2.33551e-27
3.52932e-29
0
-4.9697e-28
0
-7.65265e-28
6.05141e-29
1.6664e-28
-1.45277e-27
-6.97287e-29
-3.54173e-28
1.83457e-29
-3.95526e-28
4.29413e-28
0
-8.36267e-28
-6.24095e-24
-5.41988e-24
1.66924e-25
-4.40911e-26
7.26612e-27
-1.92487e-27
9.48565e-28
1.89364e-28
8.73797e-28
-1.03426e-27
2.93682e-28
1.67305e-27
9.30817e-30
-4.6067e-28
-1.06612e-27
-5.64875e-28
4.09212e-28
7.66093e-28
0
-4.52391e-28
-2.52932e-23
-9.50239e-24
1.7852e-25
-2.89966e-26
8.45704e-27
-1.57865e-27
1.80639e-27
0
-7.00653e-28
-5.3238e-28
7.59076e-28
1.42196e-27
-7.63493e-28
-1.89938e-28
3.84158e-28
5.7899e-28
3.84722e-28
-3.25344e-28
0
-2.15922e-28
-3.95252e-23
-1.23404e-23
-3.03511e-25
-4.64599e-26
9.17034e-27
-2.30216e-27
8.88992e-29
-1.47068e-27
1.25432e-28
-1.85842e-29
-1.61026e-27
1.22122e-27
-1.97579e-29
-7.36155e-28
-1.59969e-27
-1.07141e-27
0
-4.40817e-28
0
7.94672e-29
-4.44422e-23
-1.30021e-23
-8.2891e-25
-6.18174e-27
-3.2255e-27
9.05623e-28
1.82096e-27
0
-4.08835e-28
-1.9308e-29
-1.11749e-27
1.1032e-27
1.00064e-27
1.21249e-27
3.67413e-28
2.43926e-28
-1.91842e-28
-5.5426e-29
-5.75968e-29
-3.18663e-29
-4.91664e-23
-1.69814e-23
-2.13491e-25
-6.81503e-26
1.43013e-26
-3.418e-27
-6.08077e-28
-1.10552e-27
-3.40293e-28
9.6854e-28
-6.69243e-29
0
-4.16016e-28
1.68439e-27
2.00653e-28
-1.37824e-27
-7.09045e-29
-1.12486e-27
0
-1.90339e-28
-4.5221e-23
-1.36357e-23
-7.04698e-25
-5.79912e-26
7.00384e-27
-8.92491e-28
-1.08768e-28
3.14046e-29
-3.68952e-28
-6.16545e-28
-2.07317e-28
-5.01269e-28
6.9073e-29
2.15101e-27
1.04898e-27
-2.71308e-28
7.17335e-29
-7.25728e-28
0
0
-2.14495e-23
-6.23277e-24
-4.7507e-25
3.10192e-26
-3.3737e-27
0
-2.22517e-28
-9.50598e-28
-1.44794e-30
-4.40865e-28
1.30451e-28
-2.22823e-28
-1.88457e-29
1.88875e-28
-3.1692e-28
0
-2.34782e-28
-5.48672e-28
0
0
)
;

boundaryField
{
    movingWall
    {
        type            calculated;
        value           nonuniform List<scalar> 
20
(
5.82312e-24
4.42308e-24
-1.37947e-24
1.4468e-25
-3.86923e-26
3.496e-27
-2.91658e-27
-1.52218e-27
-1.18615e-29
-1.49869e-27
-3.20597e-28
-6.53845e-28
1.51856e-27
7.73634e-28
-1.60923e-28
-1.75364e-28
-1.39179e-27
-1.07181e-27
0
0
)
;
    }
    fixedWalls
    {
        type            calculated;
        value           nonuniform List<scalar> 
60
(
-1.6991e-22
-3.13899e-22
-3.01355e-22
-2.92466e-22
-2.79709e-22
-2.69613e-22
-2.04502e-22
-1.49903e-22
-1.59816e-22
-8.94857e-23
1.33661e-23
2.88312e-23
1.47205e-23
-4.06538e-23
-1.27694e-22
-2.07154e-22
-2.47485e-22
-2.48998e-22
-2.43727e-22
-1.1856e-22
-7.00997e-28
-1.60556e-27
-1.21921e-27
-1.44843e-27
-2.54495e-28
-4.15703e-28
-9.44189e-28
0
1.08764e-27
-3.21357e-28
2.08485e-28
-1.21584e-27
-1.37014e-27
-4.37901e-28
-3.70171e-28
-3.20283e-29
-1.14868e-28
-4.07883e-28
0
0
1.19944e-23
9.16383e-24
-2.18444e-24
1.93508e-25
-3.87702e-26
6.30186e-27
-1.36393e-27
1.36323e-27
-7.23327e-29
-1.71932e-27
-1.1521e-27
-2.22985e-27
3.98733e-28
6.83545e-29
-7.7817e-28
-6.29053e-28
-9.09324e-28
-1.65398e-27
-8.67815e-28
-4.20209e-28
)
;
    }
    frontAndBack
    {
        type            empty;
    }
}


// ************************************************************************* //
