/*--------------------------------*- C++ -*----------------------------------*\
| =========                 |                                                 |
| \\      /  F ield         | OpenFOAM: The Open Source CFD Toolbox           |
|  \\    /   O peration     | Version:  2312                                  |
|   \\  /    A nd           | Website:  www.openfoam.com                      |
|    \\/     M anipulation  |                                                 |
\*---------------------------------------------------------------------------*/
FoamFile
{
    version     2.0;
    format      ascii;
    arch        "LSB;label=32;scalar=64";
    class       volVectorField;
    location    "9.625";
    object      U;
}
// * * * * * * * * * * * * * * * * * * * * * * * * * * * * * * * * * * * * * //

dimensions      [0 1 -1 0 0 0 0];

internalField   nonuniform List<vector> 
400
(
(-1 1.48548e-13 0)
(-1 -3.16795e-14 0)
(-1 7.67117e-15 0)
(-1 -1.54157e-15 0)
(-1 4.08814e-16 0)
(-1 4.866e-18 0)
(-1 1.22628e-16 0)
(-1 6.80221e-18 0)
(-1 -3.08581e-17 0)
(-1 1.22315e-17 0)
(-1 1.08148e-16 0)
(-1 1.16924e-16 0)
(-1 9.09476e-17 0)
(-1 7.20312e-17 0)
(-1 8.32516e-17 0)
(-1 5.80199e-17 0)
(-1 -2.65826e-18 0)
(-1 -5.08508e-17 0)
(-1 -2.06066e-18 0)
(-1 4.9372e-17 0)
(-1 1.46442e-14 0)
(-1 -2.682e-15 0)
(-1 7.58172e-16 0)
(-1 -2.0765e-17 0)
(-1 6.83081e-17 0)
(-1 3.94711e-17 0)
(-1 9.23831e-17 0)
(-1 4.33945e-17 0)
(-1 9.81388e-18 0)
(-1 -2.54823e-17 0)
(-1 -4.31918e-17 0)
(-1 -6.68728e-17 0)
(-1 -5.91478e-17 0)
(-1 -4.09327e-17 0)
(-1 8.38093e-17 0)
(-1 1.53622e-16 0)
(-1 9.20234e-17 0)
(-1 6.23369e-18 0)
(-1 -3.62773e-17 0)
(-1 -7.76015e-18 0)
(-1 -1.34715e-13 0)
(-1 2.90996e-14 0)
(-1 -7.11169e-15 0)
(-1 1.41629e-15 0)
(-1 -3.44957e-16 0)
(-1 7.16256e-17 0)
(-1 4.05698e-17 0)
(-1 2.11488e-16 0)
(-1 2.73161e-16 0)
(-1 1.63539e-16 0)
(-1 -2.27196e-17 0)
(-1 -8.29386e-17 0)
(-1 -1.04041e-16 0)
(-1 -9.91307e-17 0)
(-1 -8.48086e-17 0)
(-1 -5.82785e-17 0)
(-1 1.16395e-18 0)
(-1 5.51266e-17 0)
(-1 -7.26707e-17 0)
(-1 -1.12453e-16 0)
(-1 8.76709e-14 0)
(-1 -1.92077e-14 0)
(-1 4.40004e-15 0)
(-1 -1.05592e-15 0)
(-1 1.74527e-16 0)
(-1 -6.58637e-17 0)
(-1 5.19436e-17 0)
(-1 9.61662e-17 0)
(-1 6.93149e-17 0)
(-1 9.08521e-17 0)
(-1 1.162e-16 0)
(-1 1.28666e-16 0)
(-1 5.43346e-17 0)
(-1 4.02473e-18 0)
(-1 -6.36236e-17 0)
(-1 -1.22679e-16 0)
(-1 -8.09715e-17 0)
(-1 -4.0559e-17 0)
(-1 -2.942e-17 0)
(-1 -4.68157e-17 0)
(-1 2.23279e-14 0)
(-1 -5.06248e-15 0)
(-1 1.14635e-15 0)
(-1 -2.45226e-16 0)
(-1 4.2259e-17 0)
(-1 -7.90663e-17 0)
(-1 -8.60205e-18 0)
(-1 -2.66381e-17 0)
(-1 -7.13393e-17 0)
(-1 9.91489e-18 0)
(-1 2.05209e-16 0)
(-1 1.82572e-16 0)
(-1 1.13518e-16 0)
(-1 4.62035e-17 0)
(-1 -8.12822e-17 0)
(-1 -8.1939e-17 0)
(-1 -3.25066e-17 0)
(-1 2.3656e-17 0)
(-1 2.74138e-17 0)
(-1 -6.52201e-18 0)
(-1 -1.2746e-13 0)
(-1 2.79664e-14 0)
(-1 -6.60083e-15 0)
(-1 1.40234e-15 0)
(-1 -2.85864e-16 0)
(-1 1.3483e-16 0)
(-1 7.79353e-17 0)
(-1 1.11672e-16 0)
(-1 7.58914e-17 0)
(-1 7.94123e-17 0)
(-1 6.23933e-17 0)
(-1 -8.79555e-18 0)
(-1 -2.75383e-17 0)
(-1 -1.19215e-17 0)
(-1 -1.0691e-16 0)
(-1 -7.04637e-17 0)
(-1 -3.60172e-17 0)
(-1 9.36988e-17 0)
(-1 6.47948e-17 0)
(-1 2.64145e-17 0)
(-1 1.46368e-13 0)
(-1 -3.19443e-14 0)
(-1 7.55431e-15 0)
(-1 -1.5733e-15 0)
(-1 5.74902e-16 0)
(-1 2.03451e-16 0)
(-1 2.95048e-16 0)
(-1 2.7531e-16 0)
(-1 1.91989e-16 0)
(-1 2.45524e-17 0)
(-1 -1.87444e-16 0)
(-1 -2.00569e-16 0)
(-1 -1.55188e-16 0)
(-1 -1.96408e-17 0)
(-1 9.84888e-17 0)
(-1 1.03618e-16 0)
(-1 2.43993e-17 0)
(-1 -9.38483e-18 0)
(-1 4.94164e-17 0)
(-1 8.7086e-17 0)
(-1 -2.94307e-14 0)
(-1 6.3505e-15 0)
(-1 -1.69297e-15 0)
(-1 3.01667e-16 0)
(-1 -7.58954e-17 0)
(-1 6.67585e-17 0)
(-1 7.85616e-17 0)
(-1 1.45406e-16 0)
(-1 1.63734e-16 0)
(-1 8.42176e-17 0)
(-1 8.40036e-18 0)
(-1 6.62493e-17 0)
(-1 5.82316e-17 0)
(-1 7.13663e-17 0)
(-1 7.70118e-17 0)
(-1 -5.17663e-17 0)
(-1 -1.2346e-16 0)
(-1 -3.28671e-17 0)
(-1 9.3709e-17 0)
(-1 8.5115e-17 0)
(-1 -1.12422e-13 0)
(-1 2.40228e-14 0)
(-1 -5.77192e-15 0)
(-1 1.31339e-15 0)
(-1 -8.24077e-17 0)
(-1 2.85154e-16 0)
(-1 6.27798e-17 0)
(-1 -8.8958e-17 0)
(-1 -6.63664e-17 0)
(-1 2.1475e-17 0)
(-1 6.26776e-17 0)
(-1 9.7716e-17 0)
(-1 9.63922e-17 0)
(-1 4.33435e-17 0)
(-1 -1.25217e-17 0)
(-1 -3.5809e-17 0)
(-1 -1.27299e-16 0)
(-1 -8.56523e-17 0)
(-1 5.90033e-17 0)
(-1 7.75948e-17 0)
(-1 1.73747e-13 0)
(-1 -3.82609e-14 0)
(-1 9.05403e-15 0)
(-1 -1.80193e-15 0)
(-1 5.87968e-16 0)
(-1 -9.33708e-17 0)
(-1 -4.97209e-17 0)
(-1 -9.55584e-17 0)
(-1 6.09242e-17 0)
(-1 1.67244e-16 0)
(-1 2.32695e-16 0)
(-1 1.67526e-16 0)
(-1 1.7023e-16 0)
(-1 1.93806e-16 0)
(-1 5.86277e-17 0)
(-1 8.37506e-17 0)
(-1 4.186e-17 0)
(-1 -6.5066e-17 0)
(-1 -1.01201e-16 0)
(-1 2.96399e-17 0)
(-1 -1.44042e-13 0)
(-1 3.16324e-14 0)
(-1 -7.30705e-15 0)
(-1 1.70064e-15 0)
(-1 -5.41358e-16 0)
(-1 -2.24807e-16 0)
(-1 -2.29001e-16 0)
(-1 -5.16799e-17 0)
(-1 -1.63045e-17 0)
(-1 -4.74725e-17 0)
(-1 1.51858e-17 0)
(-1 8.42277e-17 0)
(-1 9.69219e-17 0)
(-1 2.58868e-17 0)
(-1 1.80909e-17 0)
(-1 -2.78465e-17 0)
(-1 -1.62463e-17 0)
(-1 3.39478e-17 0)
(-1 1.39371e-17 0)
(-1 1.92293e-17 0)
(-1 7.06051e-14 0)
(-1 -1.60777e-14 0)
(-1 3.70623e-15 0)
(-1 -8.57253e-16 0)
(-1 1.54952e-16 0)
(-1 -1.15591e-17 0)
(-1 1.10391e-16 0)
(-1 1.15956e-16 0)
(-1 6.64059e-17 0)
(-1 8.7812e-18 0)
(-1 -9.09029e-17 0)
(-1 2.03526e-17 0)
(-1 8.45994e-17 0)
(-1 -4.87862e-17 0)
(-1 2.69664e-17 0)
(-1 -8.13792e-18 0)
(-1 2.79785e-17 0)
(-1 6.43077e-17 0)
(-1 1.05441e-16 0)
(-1 1.0457e-16 0)
(-1 2.70428e-14 0)
(-1 -6.0305e-15 0)
(-1 1.39626e-15 0)
(-1 -4.8348e-16 0)
(-1 -7.25901e-17 0)
(-1 -5.26552e-17 0)
(-1 1.13189e-17 0)
(-1 8.59899e-19 0)
(-1 -2.79145e-17 0)
(-1 -3.6951e-17 0)
(-1 -5.15456e-17 0)
(-1 -1.46253e-17 0)
(-1 9.93374e-18 0)
(-1 -1.10982e-17 0)
(-1 -2.92893e-18 0)
(-1 5.36176e-17 0)
(-1 7.22372e-17 0)
(-1 -1.93441e-17 0)
(-1 -7.17445e-17 0)
(-1 3.77133e-17 0)
(-1 -1.16078e-13 0)
(-1 2.59808e-14 0)
(-1 -5.94622e-15 0)
(-1 1.39969e-15 0)
(-1 -2.98207e-16 0)
(-1 5.9329e-17 0)
(-1 -8.67096e-17 0)
(-1 -2.81607e-17 0)
(-1 -8.40516e-17 0)
(-1 -1.08754e-16 0)
(-1 -6.52297e-17 0)
(-1 -1.44871e-16 0)
(-1 -1.88679e-16 0)
(-1 -1.46015e-16 0)
(-1 -1.037e-16 0)
(-1 -1.49063e-17 0)
(-1 1.39436e-18 0)
(-1 -6.52305e-17 0)
(-1 -1.39925e-16 0)
(-1 -4.96935e-17 0)
(-1 1.52694e-13 0)
(-1 -3.28461e-14 0)
(-1 7.6072e-15 0)
(-1 -1.74854e-15 0)
(-1 2.52821e-16 0)
(-1 -1.88493e-16 0)
(-1 4.84275e-17 0)
(-1 7.86973e-17 0)
(-1 5.32597e-17 0)
(-1 1.25604e-16 0)
(-1 7.8878e-17 0)
(-1 -8.50274e-17 0)
(-1 -1.83427e-16 0)
(-1 -1.91419e-16 0)
(-1 -1.48389e-16 0)
(-1 -4.96895e-17 0)
(-1 7.79393e-17 0)
(-1 9.27594e-17 0)
(-1 1.79239e-17 0)
(-1 1.49978e-17 0)
(-1 -8.09853e-14 0)
(-1 1.72269e-14 0)
(-1 -4.11753e-15 0)
(-1 7.30998e-16 0)
(-1 -3.47977e-16 0)
(-1 -6.668e-17 0)
(-1 -4.16669e-17 0)
(-1 -1.60685e-16 0)
(-1 -2.13299e-16 0)
(-1 -2.06961e-16 0)
(-1 -2.06443e-16 0)
(-1 -8.54805e-17 0)
(-1 5.85516e-17 0)
(-1 1.05323e-17 0)
(-1 -5.30367e-17 0)
(-1 -2.76251e-17 0)
(-1 1.906e-18 0)
(-1 3.58925e-17 0)
(-1 3.22723e-17 0)
(-1 -2.95409e-18 0)
(-1 -5.03259e-14 0)
(-1 1.06498e-14 0)
(-1 -2.28179e-15 0)
(-1 6.51854e-16 0)
(-1 6.02744e-17 0)
(-1 9.46228e-17 0)
(-1 -1.06783e-16 0)
(-1 -2.16586e-16 0)
(-1 -2.146e-16 0)
(-1 -2.18999e-16 0)
(-1 -2.18162e-16 0)
(-1 -1.64466e-16 0)
(-1 -8.01245e-17 0)
(-1 8.01746e-17 0)
(-1 1.84859e-16 0)
(-1 1.4795e-16 0)
(-1 -1.67212e-17 0)
(-1 1.14431e-17 0)
(-1 3.72743e-18 0)
(-1 1.15585e-17 0)
(-1 1.31687e-13 0)
(-1 -2.78683e-14 0)
(-1 6.57054e-15 0)
(-1 -1.54966e-15 0)
(-1 2.84791e-16 0)
(-1 -7.82917e-18 0)
(-1 7.73137e-18 0)
(-1 -5.52469e-17 0)
(-1 -6.48784e-17 0)
(-1 -4.67931e-18 0)
(-1 5.4231e-17 0)
(-1 -1.29095e-17 0)
(-1 -1.23823e-16 0)
(-1 -3.07862e-17 0)
(-1 8.33199e-17 0)
(-1 8.39622e-17 0)
(-1 7.2683e-17 0)
(-1 5.22927e-17 0)
(-1 1.10229e-17 0)
(-1 2.40884e-17 0)
(-1 -3.96616e-14 0)
(-1 8.3522e-15 0)
(-1 -2.09034e-15 0)
(-1 3.52288e-16 0)
(-1 -2.36749e-16 0)
(-1 -5.81587e-17 0)
(-1 -7.21136e-17 0)
(-1 -9.91598e-17 0)
(-1 -7.59757e-17 0)
(-1 -5.37867e-17 0)
(-1 -1.91095e-17 0)
(-1 2.26998e-17 0)
(-1 7.33583e-17 0)
(-1 3.86669e-17 0)
(-1 -8.53586e-17 0)
(-1 -9.0335e-17 0)
(-1 -3.53111e-17 0)
(-1 -1.03567e-16 0)
(-1 -5.25874e-17 0)
(-1 -1.42136e-17 0)
(-1 -1.04965e-13 0)
(-1 2.19019e-14 0)
(-1 -5.10895e-15 0)
(-1 1.24646e-15 0)
(-1 -1.86296e-16 0)
(-1 1.78564e-18 0)
(-1 -7.38345e-17 0)
(-1 -8.03087e-17 0)
(-1 -6.56064e-17 0)
(-1 -8.08429e-17 0)
(-1 -9.36273e-17 0)
(-1 -1.04907e-16 0)
(-1 -6.64055e-17 0)
(-1 -1.49936e-17 0)
(-1 -3.15641e-17 0)
(-1 -4.78751e-18 0)
(-1 -5.13084e-17 0)
(-1 -9.88567e-17 0)
(-1 -2.68926e-17 0)
(-1 1.71091e-18 0)
)
;

boundaryField
{
    movingWall
    {
        type            fixedValue;
        value           uniform (-1 -0 -0);
    }
    fixedWalls
    {
        type            noSlip;
    }
    frontAndBack
    {
        type            empty;
    }
}


// ************************************************************************* //
