/*--------------------------------*- C++ -*----------------------------------*\
| =========                 |                                                 |
| \\      /  F ield         | OpenFOAM: The Open Source CFD Toolbox           |
|  \\    /   O peration     | Version:  2312                                  |
|   \\  /    A nd           | Website:  www.openfoam.com                      |
|    \\/     M anipulation  |                                                 |
\*---------------------------------------------------------------------------*/
FoamFile
{
    version     2.0;
    format      ascii;
    arch        "LSB;label=32;scalar=64";
    class       volVectorField;
    location    "9.625";
    object      vorticityField;
}
// * * * * * * * * * * * * * * * * * * * * * * * * * * * * * * * * * * * * * //

dimensions      [0 0 -1 0 0 0 0];

internalField   nonuniform List<vector> 
400
(
(0 -0 1.0169e-11)
(0 -0 -1.36269e-11)
(0 -0 2.95958e-12)
(0 -0 -7.5334e-13)
(0 -0 1.00434e-13)
(0 -0 -5.57237e-14)
(0 -0 -2.69114e-14)
(0 -0 -1.53486e-14)
(0 -0 5.4753e-14)
(0 -0 6.81107e-14)
(0 -0 6.46794e-14)
(0 -0 5.249e-14)
(0 -0 -4.48933e-15)
(0 -0 -7.69604e-16)
(0 -0 -1.40112e-15)
(0 -0 -8.59098e-15)
(0 -0 4.3323e-14)
(0 -0 5.97604e-17)
(0 -0 1.00223e-14)
(0 -0 4.9479e-14)
(0 -0 4.37275e-13)
(0 -0 -1.14465e-12)
(0 -0 3.74543e-13)
(0 -0 -1.47763e-14)
(0 -0 8.73388e-14)
(0 -0 8.37227e-14)
(0 -0 3.92348e-16)
(0 -0 4.59532e-14)
(0 -0 -6.88768e-15)
(0 -0 -5.30057e-15)
(0 -0 -4.13905e-15)
(0 -0 2.55095e-14)
(0 -0 5.68041e-14)
(0 -0 6.85058e-14)
(0 -0 7.36656e-14)
(0 -0 5.50315e-14)
(0 -0 -6.89489e-14)
(0 -0 -1.28301e-14)
(0 -0 -1.39938e-15)
(0 -0 -4.98064e-14)
(0 -0 -5.22184e-12)
(0 -0 1.12424e-11)
(0 -0 -2.68701e-12)
(0 -0 6.22463e-13)
(0 -0 -1.34467e-13)
(0 -0 -1.56574e-14)
(0 -0 1.39862e-14)
(0 -0 2.32591e-14)
(0 -0 -8.611e-14)
(0 -0 -1.38008e-13)
(0 -0 -1.33068e-13)
(0 -0 -1.16552e-13)
(0 -0 -5.58293e-14)
(0 -0 1.92328e-15)
(0 -0 4.08522e-15)
(0 -0 8.59725e-15)
(0 -0 6.55506e-14)
(0 -0 -7.38346e-15)
(0 -0 -1.67579e-14)
(0 -0 -8.59273e-15)
(0 -0 3.16004e-12)
(0 -0 -7.2971e-12)
(0 -0 1.62544e-12)
(0 -0 -4.22552e-13)
(0 -0 4.47952e-14)
(0 -0 -1.22584e-14)
(0 -0 4.3308e-14)
(0 -0 -5.2473e-14)
(0 -0 -5.31411e-16)
(0 -0 4.68855e-15)
(0 -0 3.78136e-15)
(0 -0 -6.18658e-15)
(0 -0 -6.66742e-14)
(0 -0 -9.3111e-14)
(0 -0 -1.21091e-13)
(0 -0 -8.305e-14)
(0 -0 -4.59981e-14)
(0 -0 -2.19499e-14)
(0 -0 -2.77307e-14)
(0 -0 -1.94815e-14)
(0 -0 1.5368e-12)
(0 -0 -2.11815e-12)
(0 -0 4.81725e-13)
(0 -0 -1.6462e-13)
(0 -0 -3.75942e-14)
(0 -0 -5.92962e-14)
(0 -0 5.24283e-15)
(0 -0 -6.27373e-15)
(0 -0 3.07604e-14)
(0 -0 1.36075e-13)
(0 -0 4.43707e-14)
(0 -0 1.79359e-14)
(0 -0 -1.36368e-14)
(0 -0 -1.948e-14)
(0 -0 -1.28142e-14)
(0 -0 4.87757e-15)
(0 -0 1.05595e-14)
(0 -0 3.30971e-14)
(0 -0 -3.01229e-14)
(0 -0 2.50159e-14)
(0 -0 -6.99493e-12)
(0 -0 1.12457e-11)
(0 -0 -2.62931e-12)
(0 -0 6.31496e-13)
(0 -0 -1.26751e-13)
(0 -0 3.638e-14)
(0 -0 -2.94209e-14)
(0 -0 5.40057e-14)
(0 -0 -5.7436e-14)
(0 -0 2.57552e-14)
(0 -0 1.82843e-14)
(0 -0 -8.99316e-15)
(0 -0 2.67925e-14)
(0 -0 -7.93717e-15)
(0 -0 2.12508e-14)
(0 -0 7.08928e-15)
(0 -0 1.64162e-14)
(0 -0 6.42913e-14)
(0 -0 -6.72843e-15)
(0 -0 -9.12092e-15)
(0 -0 7.75604e-12)
(0 -0 -1.27971e-11)
(0 -0 3.0371e-12)
(0 -0 -6.4373e-13)
(0 -0 2.31885e-13)
(0 -0 2.62247e-14)
(0 -0 3.4291e-14)
(0 -0 -6.4516e-14)
(0 -0 -2.50757e-14)
(0 -0 -1.46364e-13)
(0 -0 -4.96172e-14)
(0 -0 -5.09844e-14)
(0 -0 1.80928e-14)
(0 -0 5.24727e-14)
(0 -0 9.36411e-14)
(0 -0 1.96961e-14)
(0 -0 -1.13003e-14)
(0 -0 -7.88135e-14)
(0 -0 6.38572e-14)
(0 -0 1.34548e-14)
(0 -0 -4.10668e-13)
(0 -0 2.28588e-12)
(0 -0 -5.23569e-13)
(0 -0 1.07497e-13)
(0 -0 -2.34908e-14)
(0 -0 1.54457e-14)
(0 -0 6.20748e-14)
(0 -0 8.51727e-15)
(0 -0 -6.11882e-15)
(0 -0 -1.55334e-14)
(0 -0 -1.79683e-15)
(0 -0 3.20882e-14)
(0 -0 2.76168e-14)
(0 -0 1.87801e-15)
(0 -0 -1.23133e-14)
(0 -0 -2.00471e-14)
(0 -0 5.61e-14)
(0 -0 4.88219e-14)
(0 -0 1.17982e-14)
(0 -0 -1.78824e-14)
(0 -0 -8.13515e-12)
(0 -0 1.02855e-11)
(0 -0 -2.37936e-12)
(0 -0 6.23162e-13)
(0 -0 -4.86131e-14)
(0 -0 1.45188e-14)
(0 -0 -9.16213e-14)
(0 -0 -6.71247e-14)
(0 -0 1.10433e-14)
(0 -0 -1.42007e-14)
(0 -0 -1.9481e-14)
(0 -0 3.37146e-15)
(0 -0 -5.96474e-14)
(0 -0 -1.08914e-14)
(0 -0 -8.92304e-14)
(0 -0 -3.85828e-14)
(0 -0 -5.91944e-14)
(0 -0 7.28404e-14)
(0 -0 1.63247e-14)
(0 -0 -4.07649e-14)
(0 -0 1.2356e-11)
(0 -0 -1.58459e-11)
(0 -0 3.83563e-12)
(0 -0 -7.65291e-13)
(0 -0 1.97961e-13)
(0 -0 1.75463e-14)
(0 -0 -2.18768e-16)
(0 -0 6.52746e-14)
(0 -0 1.347e-13)
(0 -0 1.25597e-13)
(0 -0 1.08448e-13)
(0 -0 -6.24654e-15)
(0 -0 5.68381e-14)
(0 -0 -6.53703e-14)
(0 -0 -1.10055e-14)
(0 -0 -1.67677e-15)
(0 -0 -6.90918e-14)
(0 -0 -9.56212e-14)
(0 -0 9.47059e-15)
(0 -0 3.42611e-14)
(0 -0 -1.11868e-11)
(0 -0 1.34296e-11)
(0 -0 -3.18292e-12)
(0 -0 5.95254e-13)
(0 -0 -3.2807e-13)
(0 -0 -1.0429e-13)
(0 -0 -9.79236e-15)
(0 -0 2.12696e-14)
(0 -0 4.20743e-16)
(0 -0 -5.10611e-14)
(0 -0 1.317e-14)
(0 -0 -1.89314e-14)
(0 -0 -5.83408e-15)
(0 -0 -7.8831e-15)
(0 -0 -5.37333e-15)
(0 -0 -3.43372e-15)
(0 -0 6.17943e-15)
(0 -0 3.01234e-14)
(0 -0 -2.85769e-14)
(0 -0 -3.04217e-14)
(0 -0 5.263e-12)
(0 -0 -6.50015e-12)
(0 -0 1.57625e-12)
(0 -0 -2.73813e-13)
(0 -0 1.3878e-13)
(0 -0 1.03964e-13)
(0 -0 1.21172e-13)
(0 -0 4.98116e-14)
(0 -0 1.63876e-14)
(0 -0 -1.57309e-14)
(0 -0 1.15713e-15)
(0 -0 1.2597e-13)
(0 -0 -6.91387e-15)
(0 -0 4.84468e-14)
(0 -0 8.538e-14)
(0 -0 2.72063e-14)
(0 -0 6.14547e-14)
(0 -0 6.19564e-14)
(0 -0 3.11313e-14)
(0 -0 6.10387e-15)
(0 -0 1.77596e-12)
(0 -0 -2.40202e-12)
(0 -0 6.08912e-13)
(0 -0 -1.46885e-13)
(0 -0 9.72926e-14)
(0 -0 3.5496e-14)
(0 -0 5.35151e-15)
(0 -0 2.31817e-14)
(0 -0 -3.78109e-15)
(0 -0 5.1847e-14)
(0 -0 2.93376e-14)
(0 -0 3.3253e-14)
(0 -0 8.16679e-14)
(0 -0 5.29238e-14)
(0 -0 6.47158e-15)
(0 -0 7.51662e-15)
(0 -0 4.69139e-14)
(0 -0 -6.86083e-14)
(0 -0 5.70575e-15)
(0 -0 3.40312e-15)
(0 -0 -7.22077e-12)
(0 -0 1.03626e-11)
(0 -0 -2.51232e-12)
(0 -0 4.56381e-13)
(0 -0 -1.88246e-13)
(0 -0 -8.72705e-14)
(0 -0 -1.17169e-13)
(0 -0 -8.10494e-14)
(0 -0 -1.1648e-13)
(0 -0 -7.9433e-14)
(0 -0 -8.49268e-14)
(0 -0 -1.4787e-13)
(0 -0 -8.14296e-14)
(0 -0 -4.57122e-14)
(0 -0 -6.82043e-14)
(0 -0 -1.65956e-14)
(0 -0 -8.63476e-14)
(0 -0 -6.8342e-14)
(0 -0 1.5537e-15)
(0 -0 -8.14322e-15)
(0 -0 1.03585e-11)
(0 -0 -1.39666e-11)
(0 -0 3.19107e-12)
(0 -0 -7.08333e-13)
(0 -0 2.10215e-13)
(0 -0 6.66571e-15)
(0 -0 1.08034e-13)
(0 -0 4.83212e-16)
(0 -0 4.69067e-15)
(0 -0 2.56183e-15)
(0 -0 -7.52732e-14)
(0 -0 -8.04406e-14)
(0 -0 -6.48492e-14)
(0 -0 -5.07064e-14)
(0 -0 4.1278e-14)
(0 -0 4.97379e-14)
(0 -0 4.13499e-14)
(0 -0 4.82086e-14)
(0 -0 -7.77616e-15)
(0 -0 2.38129e-14)
(0 -0 -6.1319e-12)
(0 -0 7.41573e-12)
(0 -0 -1.83932e-12)
(0 -0 3.22745e-13)
(0 -0 -1.88188e-13)
(0 -0 3.0631e-14)
(0 -0 -6.36106e-14)
(0 -0 -7.13733e-14)
(0 -0 -3.17327e-14)
(0 -0 -2.64194e-14)
(0 -0 1.2148e-14)
(0 -0 8.07095e-14)
(0 -0 3.67063e-14)
(0 -0 -1.11588e-14)
(0 -0 -5.80259e-14)
(0 -0 5.49427e-15)
(0 -0 6.35176e-15)
(0 -0 3.03663e-15)
(0 -0 -3.88466e-15)
(0 -0 -3.00369e-14)
(0 -0 -1.33842e-12)
(0 -0 4.23521e-12)
(0 -0 -8.37169e-13)
(0 -0 2.34206e-13)
(0 -0 -2.86181e-14)
(0 -0 -7.09159e-14)
(0 -0 -8.5331e-14)
(0 -0 -1.07817e-14)
(0 -0 2.68638e-14)
(0 -0 5.38539e-14)
(0 -0 5.96634e-14)
(0 -0 1.22224e-13)
(0 -0 1.05779e-13)
(0 -0 8.07085e-14)
(0 -0 6.09877e-14)
(0 -0 -4.72631e-14)
(0 -0 -1.36507e-14)
(0 -0 -2.50602e-14)
(0 -0 1.1543e-17)
(0 -0 -2.86336e-14)
(0 -0 5.66564e-12)
(0 -0 -1.11564e-11)
(0 -0 2.55055e-12)
(0 -0 -5.20155e-13)
(0 -0 2.62603e-13)
(0 -0 8.07143e-14)
(0 -0 1.03678e-13)
(0 -0 1.01159e-13)
(0 -0 8.63719e-14)
(0 -0 9.32261e-14)
(0 -0 8.04921e-14)
(0 -0 -1.78054e-14)
(0 -0 -1.78767e-15)
(0 -0 1.02029e-13)
(0 -0 9.279e-14)
(0 -0 8.02515e-14)
(0 -0 5.10432e-14)
(0 -0 7.51491e-14)
(0 -0 -2.82043e-15)
(0 -0 5.0699e-14)
(0 -0 -2.20937e-12)
(0 -0 3.32345e-12)
(0 -0 -9.08411e-13)
(0 -0 7.6939e-14)
(0 -0 -1.49465e-13)
(0 -0 -3.77466e-14)
(0 -0 -8.54153e-14)
(0 -0 -8.17014e-14)
(0 -0 -7.67779e-14)
(0 -0 -1.02734e-13)
(0 -0 -1.94564e-14)
(0 -0 -4.49633e-14)
(0 -0 -5.26134e-14)
(0 -0 -1.51397e-13)
(0 -0 -9.42153e-14)
(0 -0 -4.92054e-14)
(0 -0 -5.55334e-14)
(0 -0 -5.59377e-14)
(0 -0 8.93538e-15)
(0 -0 6.6801e-15)
(0 -0 -6.95108e-12)
(0 -0 9.71457e-12)
(0 -0 -1.93001e-12)
(0 -0 5.46475e-13)
(0 -0 -9.73627e-14)
(0 -0 1.12461e-14)
(0 -0 1.88956e-14)
(0 -0 2.79279e-14)
(0 -0 2.70516e-14)
(0 -0 2.4303e-14)
(0 -0 -5.66165e-14)
(0 -0 2.72219e-15)
(0 -0 8.99133e-15)
(0 -0 5.76942e-14)
(0 -0 1.0206e-15)
(0 -0 -1.97443e-15)
(0 -0 -9.40691e-15)
(0 -0 2.44157e-15)
(0 -0 1.00568e-14)
(0 -0 2.51817e-15)
)
;

boundaryField
{
    movingWall
    {
        type            calculated;
        value           nonuniform List<vector> 
20
(
(0 -0 -1.25696e-11)
(0 -0 1.14511e-11)
(0 -0 -1.66586e-12)
(0 -0 7.58719e-13)
(0 -0 1.86395e-13)
(0 -0 3.22109e-13)
(0 -0 3.47062e-13)
(0 -0 2.67276e-13)
(0 -0 2.21991e-13)
(0 -0 2.19243e-13)
(0 -0 1.3082e-13)
(0 -0 1.80358e-13)
(0 -0 9.78092e-14)
(0 -0 2.25529e-13)
(0 -0 1.78656e-13)
(0 -0 8.68434e-14)
(0 -0 7.94109e-14)
(0 -0 2.44157e-15)
(0 -0 1.00568e-14)
(0 -0 2.51817e-15)
)
;
    }
    fixedWalls
    {
        type            calculated;
        value           nonuniform List<vector> 
60
(
(0 -0 5.79013e-11)
(0 -0 5.09872e-12)
(0 -0 -4.85463e-11)
(0 -0 3.13821e-11)
(0 -0 8.74141e-12)
(0 -0 -4.80297e-11)
(0 -0 5.48607e-11)
(0 -0 -9.87494e-12)
(0 -0 -4.42639e-11)
(0 -0 6.83061e-11)
(0 -0 -5.75627e-11)
(0 -0 2.80523e-11)
(0 -0 1.04918e-11)
(0 -0 -4.46422e-11)
(0 -0 5.94514e-11)
(0 -0 -3.21502e-11)
(0 -0 -1.75012e-11)
(0 -0 4.79587e-11)
(0 -0 -1.49431e-11)
(0 -0 -4.06308e-11)
(0 -0 3.44613e-14)
(0 -0 -5.1106e-14)
(0 -0 1.7876e-14)
(0 -0 -8.37879e-15)
(0 -0 2.97139e-14)
(0 -0 -1.05658e-14)
(0 -0 -7.72936e-15)
(0 -0 -3.4046e-14)
(0 -0 -5.8143e-14)
(0 -0 1.52491e-14)
(0 -0 -3.47968e-14)
(0 -0 -1.47231e-14)
(0 -0 -1.50853e-14)
(0 -0 -7.22765e-15)
(0 -0 2.11059e-14)
(0 -0 -2.59234e-14)
(0 -0 -3.17285e-14)
(0 -0 4.45747e-14)
(0 -0 5.68546e-15)
(0 -0 -6.84364e-16)
(0 -0 1.65718e-11)
(0 -0 -1.59084e-11)
(0 -0 2.70293e-12)
(0 -0 -9.92689e-13)
(0 -0 -6.74007e-14)
(0 -0 -2.50663e-13)
(0 -0 -1.77442e-13)
(0 -0 -1.04166e-13)
(0 -0 -1.32684e-13)
(0 -0 -1.19326e-13)
(0 -0 -2.11575e-13)
(0 -0 -1.79356e-13)
(0 -0 -9.33072e-14)
(0 -0 -8.95874e-14)
(0 -0 -9.0219e-14)
(0 -0 -8.59098e-15)
(0 -0 7.79308e-14)
(0 -0 5.97604e-17)
(0 -0 -7.87956e-14)
(0 -0 8.40867e-14)
)
;
    }
    frontAndBack
    {
        type            empty;
    }
}


// ************************************************************************* //
