/*--------------------------------*- C++ -*----------------------------------*\
| =========                 |                                                 |
| \\      /  F ield         | OpenFOAM: The Open Source CFD Toolbox           |
|  \\    /   O peration     | Version:  2312                                  |
|   \\  /    A nd           | Website:  www.openfoam.com                      |
|    \\/     M anipulation  |                                                 |
\*---------------------------------------------------------------------------*/
FoamFile
{
    version     2.0;
    format      ascii;
    arch        "LSB;label=32;scalar=64";
    class       volScalarField;
    location    "9.625";
    object      zeroGradient(p);
}
// * * * * * * * * * * * * * * * * * * * * * * * * * * * * * * * * * * * * * //

dimensions      [0 2 -2 0 0 0 0];

internalField   nonuniform List<scalar> 
400
(
0
3.01713e-15
1.17335e-15
1.40288e-15
1.09505e-15
1.11065e-15
1.46982e-15
1.38554e-15
1.37532e-15
1.27653e-15
1.2472e-15
1.19803e-15
9.68438e-16
8.51021e-16
9.20746e-16
9.95393e-16
1.05704e-15
1.1275e-15
1.28829e-15
1.14971e-15
2.0623e-15
0
1.01373e-15
9.44193e-16
1.21061e-15
1.15519e-15
1.21379e-15
1.35002e-15
1.44994e-15
1.43095e-15
1.29946e-15
1.19998e-15
8.57321e-16
7.0682e-16
8.3596e-16
9.50418e-16
1.10075e-15
1.26986e-15
1.22125e-15
1.01114e-15
1.08974e-15
1.99443e-15
1.1073e-15
1.05034e-15
1.09492e-15
1.13416e-15
1.19663e-15
1.30975e-15
1.32817e-15
1.30533e-15
1.19038e-15
1.12868e-15
8.96309e-16
9.49883e-16
1.00748e-15
9.48706e-16
9.39663e-16
1.11316e-15
1.20916e-15
1.20739e-15
6.6986e-16
2.02749e-15
1.25617e-15
1.16207e-15
9.88353e-16
1.09502e-15
1.27293e-15
1.30302e-15
1.18465e-15
1.14752e-15
1.0115e-15
9.25846e-16
8.68264e-16
9.25305e-16
9.48215e-16
1.01366e-15
9.83117e-16
9.36641e-16
1.10596e-15
1.40186e-15
1.28401e-15
0
1.17908e-15
9.96769e-16
1.07051e-15
1.09812e-15
1.15918e-15
1.17172e-15
1.14424e-15
1.08595e-15
9.43738e-16
8.21859e-16
8.24266e-16
9.0299e-16
8.78386e-16
9.38884e-16
1.01485e-15
1.02016e-15
1.02365e-15
1.34739e-15
5.333e-16
1.45591e-15
1.2489e-15
1.15628e-15
9.18866e-16
1.10637e-15
1.1158e-15
9.24457e-16
8.61219e-16
1.0103e-15
7.60138e-16
6.90941e-16
7.9723e-16
7.17461e-16
8.29373e-16
9.96419e-16
9.64102e-16
8.63437e-16
9.45044e-16
1.34434e-15
7.32696e-16
2.76913e-15
1.08037e-15
1.14376e-15
9.04238e-16
9.7252e-16
8.91e-16
7.04993e-16
7.974e-16
7.95456e-16
6.89581e-16
6.52488e-16
7.15426e-16
7.76138e-16
9.49236e-16
9.37501e-16
9.33968e-16
8.97011e-16
8.9918e-16
1.19579e-15
1.72991e-15
0
1.00007e-15
7.96107e-16
9.07493e-16
7.9254e-16
7.87289e-16
4.45289e-16
4.09979e-16
5.77628e-16
6.36996e-16
6.07378e-16
6.93264e-16
7.18218e-16
8.11624e-16
8.93095e-16
8.46303e-16
8.33359e-16
8.45658e-16
1.07151e-15
3.25177e-16
3.23005e-15
8.10652e-16
1.00122e-15
6.27505e-16
5.99306e-16
5.83675e-16
4.27972e-16
3.70584e-16
4.80655e-16
6.33763e-16
5.96279e-16
5.36414e-16
5.55109e-16
6.20447e-16
8.00231e-16
9.61253e-16
6.88326e-16
5.78719e-16
9.00711e-16
7.09094e-16
5.58523e-16
9.02947e-16
9.46674e-16
6.43141e-16
2.26772e-16
2.75203e-16
5.04882e-16
4.81879e-16
5.45998e-16
5.36803e-16
4.85463e-16
3.50544e-16
3.33835e-16
5.09215e-16
5.78571e-16
7.27167e-16
7.44153e-16
4.65251e-16
7.7956e-16
1.06921e-15
0
6.12481e-16
5.26023e-16
4.41635e-16
4.06671e-16
5.5424e-16
6.22975e-16
4.66387e-16
5.048e-16
4.27996e-16
3.38741e-16
1.69364e-16
0
3.79814e-16
4.72259e-16
4.68784e-16
4.0602e-16
4.60925e-16
7.00377e-16
4.09757e-16
3.90945e-15
2.67503e-16
4.63628e-16
3.27794e-16
4.89831e-16
6.38261e-16
4.83817e-16
3.13702e-16
4.76607e-16
4.42896e-16
2.81166e-16
4.35391e-17
6.58393e-17
1.2687e-16
2.47194e-16
4.05844e-16
3.33489e-16
2.83164e-16
5.88269e-16
9.54974e-16
0
3.2785e-16
1.08609e-16
4.20405e-16
5.47058e-16
4.89344e-16
3.01539e-16
2.15636e-16
2.13039e-16
4.39231e-16
2.35189e-16
0
5.15618e-17
9.90728e-17
2.51474e-16
2.40685e-16
2.23546e-16
3.14529e-16
2.36436e-16
1.67529e-16
3.12975e-15
0
3.97229e-16
3.01264e-16
3.55839e-16
2.85697e-16
6.66216e-17
7.14361e-17
2.21599e-16
2.92222e-16
9.04505e-17
0
0
5.10093e-17
9.13719e-17
1.44754e-16
8.73792e-17
2.05891e-16
3.51441e-16
4.4086e-16
0
3.1789e-16
2.01399e-16
2.74865e-16
1.09571e-16
2.92476e-16
7.12933e-17
0
0
5.12005e-17
0
0
0
0
1.15169e-16
1.28179e-16
0
1.61198e-16
3.39578e-16
5.91997e-16
0
2.79655e-16
1.97025e-16
3.05117e-16
2.73086e-16
0
0
0
0
0
0
0
0
0
8.24185e-17
4.70305e-17
0
6.21812e-17
2.33689e-16
0
2.2406e-15
2.74738e-16
4.11781e-16
1.1927e-16
7.62293e-17
0
0
3.43128e-17
0
0
0
0
0
0
0
2.53265e-17
0
0
2.99385e-16
8.94508e-17
1.59989e-17
0
9.28388e-17
0
0
7.21893e-17
6.17986e-17
9.39073e-17
0
0
0
0
0
0
0
5.0361e-18
0
0
1.45842e-16
7.43123e-16
0
0
2.37565e-17
1.94293e-16
0
0
7.62895e-17
0
0
0
0
0
0
0
0
0
0
0
1.83808e-16
0
1.63809e-15
0
7.51243e-17
0
0
0
9.43645e-17
3.2413e-17
0
0
0
0
0
0
0
0
0
0
2.12914e-16
)
;

boundaryField
{
    movingWall
    {
        type            zeroGradient;
    }
    fixedWalls
    {
        type            zeroGradient;
    }
    frontAndBack
    {
        type            empty;
    }
}


// ************************************************************************* //
