/*--------------------------------*- C++ -*----------------------------------*\
| =========                 |                                                 |
| \\      /  F ield         | OpenFOAM: The Open Source CFD Toolbox           |
|  \\    /   O peration     | Version:  2312                                  |
|   \\  /    A nd           | Website:  www.openfoam.com                      |
|    \\/     M anipulation  |                                                 |
\*---------------------------------------------------------------------------*/
FoamFile
{
    version     2.0;
    format      ascii;
    arch        "LSB;label=32;scalar=64";
    class       volScalarField;
    location    "250";
    object      p;
}
// * * * * * * * * * * * * * * * * * * * * * * * * * * * * * * * * * * * * * //

dimensions      [0 2 -2 0 0 0 0];

internalField   nonuniform List<scalar> 
12225
(
498.218
496.06
494.968
494.654
494.477
494.298
494.15
494.039
493.947
493.864
493.787
493.714
493.644
493.575
493.504
493.432
493.345
493.292
495.087
494.3
494.095
494.183
494.208
494.144
494.06
493.986
493.917
493.847
493.779
493.712
493.646
493.58
493.512
493.44
493.361
493.258
494.707
494.774
494.654
494.567
494.459
494.316
494.181
494.071
493.977
493.891
493.811
493.737
493.665
493.596
493.526
493.455
493.377
493.294
494.835
494.922
494.663
494.471
494.348
494.227
494.113
494.019
493.938
493.863
493.791
493.723
493.657
493.592
493.526
493.46
493.391
493.325
494.843
494.829
494.582
494.417
494.324
494.225
494.123
494.032
493.952
493.877
493.805
493.737
493.67
493.605
493.541
493.477
493.413
493.355
494.782
494.737
494.551
494.411
494.32
494.224
494.124
494.033
493.953
493.878
493.807
493.739
493.674
493.61
493.548
493.488
493.429
493.376
494.72
494.677
494.533
494.403
494.309
494.215
494.119
494.031
493.953
493.879
493.81
493.743
493.68
493.618
493.559
493.501
493.447
493.399
494.664
494.627
494.509
494.388
494.295
494.206
494.115
494.031
493.954
493.882
493.814
493.749
493.687
493.627
493.57
493.516
493.465
493.42
494.612
494.578
494.481
494.372
494.282
494.197
494.112
494.03
493.956
493.885
493.819
493.755
493.695
493.637
493.583
493.531
493.484
493.441
494.563
494.533
494.451
494.354
494.269
494.188
494.108
494.03
493.957
493.889
493.824
493.762
493.704
493.648
493.596
493.547
493.502
493.462
494.517
494.49
494.421
494.336
494.256
494.179
494.103
494.029
493.959
493.893
493.83
493.77
493.713
493.66
493.609
493.563
493.52
493.482
494.477
494.453
494.394
494.318
494.243
494.171
494.098
494.028
493.96
493.896
493.835
493.777
493.722
493.671
493.622
493.577
493.536
493.499
494.441
494.42
494.368
494.301
494.231
494.162
494.094
494.026
493.961
493.9
493.841
493.785
493.732
493.682
493.635
493.592
493.552
493.516
494.403
494.384
494.341
494.281
494.217
494.153
494.089
494.025
493.963
493.904
493.847
493.793
493.742
493.694
493.649
493.608
493.569
493.535
494.366
494.349
494.312
494.26
494.202
494.143
494.083
494.023
493.965
493.908
493.854
493.803
493.754
493.708
493.665
493.625
493.588
493.555
494.33
494.316
494.284
494.239
494.187
494.133
494.078
494.022
493.967
493.914
493.863
493.814
493.767
493.723
493.682
493.644
493.608
493.576
494.301
494.289
494.261
494.221
494.175
494.126
494.075
494.023
493.971
493.921
493.872
493.826
493.781
493.74
493.7
493.663
493.629
493.597
494.282
494.271
494.247
494.211
494.169
494.123
494.075
494.027
493.978
493.93
493.884
493.839
493.797
493.757
493.719
493.683
493.65
493.619
494.281
494.271
494.248
494.214
494.174
494.13
494.084
494.037
493.989
493.943
493.898
493.855
493.814
493.775
493.737
493.703
493.67
493.639
494.306
494.295
494.271
494.235
494.193
494.147
494.1
494.052
494.004
493.957
493.912
493.869
493.827
493.788
493.751
493.716
493.684
493.653
494.34
494.328
494.302
494.262
494.216
494.167
494.118
494.068
494.018
493.97
493.923
493.879
493.837
493.797
493.76
493.725
493.692
493.66
494.382
494.37
494.339
494.293
494.241
494.189
494.136
494.083
494.031
493.98
493.933
493.887
493.844
493.803
493.765
493.73
493.696
493.665
494.429
494.418
494.383
494.326
494.267
494.21
494.154
494.098
494.043
493.99
493.94
493.893
493.849
493.807
493.768
493.732
493.698
493.666
494.478
494.469
494.428
494.36
494.293
494.232
494.171
494.109
494.051
493.997
493.946
493.898
493.853
493.81
493.771
493.735
493.7
493.669
494.529
494.528
494.465
494.383
494.319
494.258
494.191
494.123
494.06
494.002
493.948
493.898
493.851
493.808
493.767
493.73
493.696
493.663
494.576
494.624
494.508
494.386
494.324
494.271
494.206
494.139
494.077
494.019
493.964
493.913
493.865
493.82
493.779
493.741
493.705
493.673
494.558
494.756
494.623
494.445
494.339
494.258
494.179
494.106
494.043
493.985
493.932
493.882
493.837
493.795
493.756
493.721
493.687
493.655
494.418
494.665
494.688
494.633
494.55
494.441
494.33
494.232
494.147
494.07
494
493.938
493.881
493.831
493.785
493.744
493.706
493.67
494.69
494.059
493.94
494.08
494.167
494.16
494.118
494.073
494.027
493.979
493.93
493.882
493.838
493.796
493.758
493.722
493.69
493.659
497.744
495.977
494.964
494.682
494.555
494.413
494.283
494.182
494.1
494.026
493.96
493.901
493.848
493.801
493.759
493.721
493.689
493.662
492.876
492.876
492.876
492.876
492.875
492.873
492.872
492.87
492.868
492.866
492.865
492.863
492.86
492.858
492.856
492.853
492.85
492.847
492.843
492.839
492.835
492.83
492.825
492.819
492.812
492.805
492.797
492.788
492.779
492.768
492.757
492.744
492.73
492.715
492.699
492.682
492.664
492.645
492.624
492.603
492.58
492.557
492.533
492.508
492.482
492.455
492.428
492.401
492.373
492.345
492.316
492.287
492.259
492.23
492.201
492.172
492.143
492.115
492.086
492.059
492.031
492.005
491.979
491.953
491.929
491.906
491.884
491.864
491.845
491.828
491.813
491.799
491.788
491.78
491.774
491.77
491.77
491.773
491.779
491.789
491.803
491.821
491.843
491.869
491.901
491.937
491.978
492.025
492.077
492.134
492.198
492.268
492.343
492.426
492.515
492.61
492.712
492.821
492.938
493.06
493.19
493.327
493.472
493.625
493.784
493.952
494.126
494.307
494.496
494.692
494.894
495.104
495.32
495.543
495.772
496.007
496.248
496.495
496.747
497.005
497.267
497.534
497.805
498.08
498.358
498.64
498.925
499.213
499.503
499.795
500.089
500.384
500.68
500.977
501.274
501.571
501.868
502.165
502.461
502.755
503.049
503.341
503.632
503.92
504.207
504.491
504.773
505.053
505.33
505.604
505.875
506.143
506.408
506.669
506.928
507.183
507.435
507.683
507.928
508.169
508.406
508.64
508.87
509.096
509.318
509.536
509.75
509.96
510.165
510.365
510.561
510.752
510.937
511.118
511.293
511.464
511.63
511.793
511.964
512.139
492.876
492.876
492.876
492.875
492.874
492.873
492.872
492.871
492.869
492.868
492.867
492.865
492.864
492.862
492.86
492.858
492.855
492.853
492.85
492.846
492.842
492.838
492.834
492.828
492.822
492.816
492.808
492.8
492.791
492.781
492.77
492.757
492.744
492.729
492.714
492.697
492.678
492.659
492.639
492.618
492.595
492.572
492.548
492.524
492.498
492.472
492.445
492.418
492.391
492.363
492.335
492.306
492.278
492.249
492.221
492.192
492.163
492.135
492.107
492.08
492.052
492.026
492
491.975
491.951
491.928
491.906
491.886
491.867
491.849
491.834
491.82
491.809
491.8
491.794
491.79
491.789
491.792
491.797
491.807
491.82
491.837
491.858
491.884
491.914
491.949
491.99
492.035
492.086
492.142
492.205
492.273
492.348
492.428
492.516
492.61
492.71
492.818
492.932
493.054
493.183
493.32
493.463
493.614
493.772
493.937
494.11
494.289
494.476
494.67
494.871
495.079
495.293
495.514
495.742
495.975
496.215
496.46
496.711
496.966
497.227
497.493
497.762
498.036
498.314
498.595
498.879
499.165
499.455
499.746
500.039
500.333
500.628
500.925
501.221
501.518
501.815
502.111
502.407
502.702
502.995
503.287
503.578
503.867
504.153
504.438
504.72
505
505.277
505.551
505.823
506.091
506.357
506.619
506.878
507.133
507.386
507.635
507.88
508.122
508.36
508.594
508.825
509.051
509.274
509.493
509.707
509.916
510.121
510.322
510.517
510.708
510.894
511.075
511.251
511.422
511.59
511.755
511.93
512.1
492.877
492.877
492.877
492.876
492.875
492.874
492.873
492.872
492.872
492.871
492.87
492.869
492.868
492.867
492.866
492.864
492.862
492.86
492.858
492.855
492.852
492.848
492.843
492.838
492.832
492.826
492.818
492.81
492.8
492.79
492.778
492.766
492.752
492.737
492.721
492.705
492.687
492.668
492.648
492.627
492.605
492.582
492.559
492.535
492.51
492.485
492.459
492.432
492.406
492.378
492.351
492.323
492.295
492.267
492.239
492.211
492.183
492.156
492.128
492.101
492.074
492.048
492.023
491.998
491.974
491.951
491.93
491.909
491.89
491.873
491.858
491.844
491.833
491.823
491.817
491.813
491.812
491.814
491.819
491.828
491.84
491.857
491.877
491.902
491.932
491.966
492.005
492.049
492.099
492.154
492.215
492.282
492.355
492.435
492.52
492.613
492.712
492.817
492.93
493.05
493.177
493.311
493.453
493.601
493.757
493.921
494.091
494.269
494.453
494.645
494.844
495.049
495.262
495.481
495.706
495.937
496.175
496.418
496.667
496.921
497.18
497.443
497.711
497.983
498.259
498.539
498.821
499.106
499.394
499.684
499.976
500.269
500.563
500.859
501.154
501.45
501.746
502.042
502.337
502.631
502.924
503.216
503.506
503.795
504.081
504.366
504.648
504.927
505.204
505.478
505.75
506.018
506.284
506.546
506.805
507.061
507.313
507.562
507.807
508.049
508.287
508.521
508.752
508.979
509.202
509.421
509.635
509.846
510.052
510.253
510.449
510.641
510.828
511.01
511.188
511.361
511.531
511.698
511.876
512.034
492.882
492.881
492.88
492.878
492.877
492.876
492.875
492.875
492.874
492.874
492.873
492.873
492.872
492.871
492.87
492.869
492.867
492.865
492.863
492.86
492.856
492.852
492.848
492.842
492.836
492.829
492.821
492.813
492.803
492.792
492.781
492.768
492.754
492.739
492.723
492.707
492.689
492.67
492.651
492.63
492.609
492.587
492.564
492.54
492.516
492.491
492.466
492.44
492.414
492.388
492.361
492.334
492.306
492.279
492.251
492.224
492.196
492.169
492.142
492.115
492.088
492.062
492.037
492.013
491.989
491.966
491.945
491.924
491.905
491.888
491.872
491.859
491.847
491.838
491.831
491.826
491.825
491.827
491.831
491.84
491.852
491.867
491.887
491.911
491.94
491.974
492.012
492.055
492.104
492.158
492.218
492.284
492.356
492.434
492.519
492.61
492.707
492.812
492.923
493.042
493.167
493.3
493.44
493.587
493.741
493.903
494.072
494.248
494.431
494.621
494.818
495.022
495.233
495.45
495.674
495.904
496.14
496.381
496.629
496.881
497.139
497.401
497.668
497.938
498.213
498.491
498.773
499.057
499.344
499.633
499.923
500.216
500.509
500.804
501.099
501.394
501.69
501.985
502.279
502.573
502.866
503.157
503.447
503.736
504.022
504.306
504.588
504.867
505.144
505.418
505.69
505.958
506.224
506.486
506.745
507.001
507.253
507.502
507.747
507.989
508.227
508.462
508.693
508.92
509.142
509.361
509.576
509.787
509.993
510.195
510.392
510.584
510.772
510.955
511.133
511.307
511.478
511.645
511.822
511.967
492.888
492.886
492.884
492.882
492.88
492.879
492.878
492.878
492.877
492.877
492.876
492.876
492.875
492.874
492.873
492.871
492.869
492.867
492.865
492.861
492.858
492.853
492.848
492.843
492.836
492.829
492.82
492.811
492.801
492.79
492.778
492.765
492.751
492.736
492.72
492.704
492.686
492.668
492.648
492.628
492.607
492.585
492.563
492.54
492.516
492.492
492.467
492.442
492.416
492.39
492.364
492.337
492.31
492.283
492.256
492.229
492.201
492.174
492.147
492.121
492.095
492.069
492.044
492.019
491.996
491.973
491.951
491.931
491.912
491.895
491.879
491.865
491.853
491.844
491.837
491.832
491.83
491.832
491.836
491.844
491.855
491.871
491.89
491.914
491.942
491.974
492.012
492.055
492.103
492.156
492.216
492.281
492.352
492.429
492.513
492.603
492.699
492.803
492.914
493.031
493.156
493.287
493.426
493.572
493.725
493.886
494.054
494.228
494.41
494.6
494.796
494.998
495.208
495.424
495.647
495.876
496.111
496.351
496.598
496.849
497.106
497.367
497.633
497.903
498.177
498.454
498.735
499.019
499.305
499.593
499.883
500.175
500.468
500.762
501.057
501.352
501.647
501.941
502.236
502.529
502.822
503.113
503.403
503.691
503.977
504.261
504.543
504.822
505.099
505.373
505.644
505.913
506.178
506.441
506.7
506.956
507.208
507.457
507.703
507.945
508.183
508.417
508.648
508.875
509.098
509.317
509.532
509.743
509.949
510.151
510.348
510.54
510.728
510.911
511.09
511.264
511.435
511.601
511.774
511.907
492.896
492.893
492.89
492.887
492.885
492.883
492.882
492.881
492.88
492.879
492.879
492.878
492.877
492.876
492.874
492.873
492.87
492.868
492.865
492.861
492.857
492.852
492.847
492.84
492.833
492.825
492.817
492.807
492.796
492.785
492.773
492.76
492.745
492.73
492.715
492.698
492.68
492.662
492.643
492.623
492.602
492.581
492.559
492.536
492.513
492.489
492.465
492.44
492.414
492.389
492.363
492.336
492.31
492.283
492.256
492.229
492.202
492.175
492.148
492.122
492.096
492.07
492.045
492.021
491.997
491.974
491.953
491.932
491.913
491.896
491.88
491.866
491.854
491.844
491.837
491.832
491.83
491.831
491.835
491.842
491.853
491.868
491.887
491.91
491.938
491.97
492.007
492.05
492.097
492.15
492.209
492.273
492.344
492.42
492.503
492.593
492.689
492.792
492.902
493.019
493.142
493.273
493.411
493.557
493.709
493.869
494.036
494.21
494.392
494.58
494.775
494.977
495.186
495.402
495.624
495.852
496.086
496.327
496.572
496.823
497.079
497.34
497.605
497.875
498.148
498.425
498.705
498.988
499.274
499.562
499.852
500.143
500.436
500.729
501.023
501.318
501.613
501.907
502.201
502.495
502.787
503.078
503.367
503.655
503.941
504.225
504.506
504.786
505.062
505.336
505.608
505.876
506.141
506.404
506.663
506.919
507.171
507.42
507.666
507.908
508.146
508.381
508.612
508.839
509.062
509.28
509.495
509.706
509.912
510.114
510.311
510.504
510.692
510.875
511.054
511.228
511.398
511.562
511.732
511.854
492.903
492.9
492.896
492.892
492.889
492.886
492.885
492.883
492.882
492.881
492.88
492.879
492.878
492.877
492.875
492.873
492.87
492.867
492.863
492.859
492.854
492.849
492.843
492.836
492.828
492.82
492.811
492.801
492.79
492.778
492.766
492.752
492.738
492.723
492.707
492.69
492.673
492.655
492.636
492.616
492.595
492.574
492.553
492.53
492.507
492.484
492.459
492.435
492.41
492.384
492.358
492.332
492.306
492.279
492.252
492.226
492.199
492.172
492.145
492.119
492.093
492.067
492.042
492.018
491.994
491.971
491.949
491.929
491.91
491.892
491.876
491.862
491.85
491.84
491.832
491.827
491.825
491.825
491.829
491.836
491.847
491.862
491.88
491.903
491.93
491.962
491.999
492.041
492.088
492.141
492.199
492.263
492.333
492.409
492.492
492.581
492.677
492.779
492.889
493.005
493.128
493.259
493.397
493.541
493.694
493.853
494.019
494.193
494.374
494.562
494.757
494.959
495.167
495.383
495.604
495.832
496.066
496.306
496.551
496.802
497.057
497.318
497.583
497.852
498.125
498.402
498.681
498.964
499.249
499.537
499.826
500.118
500.41
500.703
500.997
501.292
501.586
501.88
502.174
502.467
502.759
503.049
503.339
503.626
503.912
504.196
504.477
504.756
505.033
505.306
505.577
505.846
506.111
506.373
506.632
506.888
507.14
507.389
507.634
507.876
508.115
508.349
508.58
508.807
509.03
509.249
509.464
509.674
509.881
510.082
510.28
510.472
510.661
510.844
511.022
511.196
511.366
511.528
511.695
511.807
492.91
492.907
492.901
492.896
492.892
492.889
492.887
492.886
492.884
492.883
492.881
492.88
492.878
492.876
492.874
492.871
492.868
492.865
492.86
492.856
492.85
492.845
492.838
492.831
492.822
492.814
492.804
492.794
492.782
492.77
492.758
492.744
492.73
492.715
492.699
492.682
492.665
492.646
492.627
492.608
492.587
492.567
492.545
492.523
492.5
492.476
492.452
492.428
492.403
492.378
492.352
492.326
492.3
492.273
492.246
492.22
492.193
492.166
492.139
492.113
492.087
492.061
492.036
492.011
491.988
491.965
491.943
491.922
491.903
491.885
491.869
491.854
491.842
491.831
491.824
491.818
491.816
491.816
491.82
491.827
491.837
491.852
491.87
491.893
491.92
491.951
491.988
492.029
492.076
492.129
492.187
492.251
492.32
492.397
492.479
492.568
492.663
492.766
492.875
492.991
493.114
493.244
493.382
493.526
493.678
493.838
494.004
494.177
494.358
494.546
494.741
494.942
495.151
495.366
495.587
495.815
496.049
496.288
496.533
496.784
497.039
497.3
497.565
497.834
498.106
498.383
498.663
498.945
499.23
499.518
499.807
500.098
500.39
500.683
500.977
501.271
501.565
501.859
502.152
502.445
502.737
503.027
503.316
503.603
503.889
504.172
504.453
504.732
505.008
505.282
505.552
505.82
506.085
506.347
506.606
506.861
507.113
507.362
507.608
507.849
508.087
508.322
508.553
508.78
509.003
509.221
509.436
509.647
509.853
510.055
510.252
510.445
510.633
510.816
510.995
511.168
511.337
511.497
511.661
511.765
492.915
492.911
492.905
492.899
492.895
492.891
492.889
492.887
492.885
492.883
492.881
492.879
492.877
492.875
492.872
492.869
492.865
492.861
492.857
492.851
492.846
492.839
492.832
492.824
492.816
492.807
492.797
492.786
492.775
492.762
492.75
492.736
492.721
492.706
492.69
492.673
492.656
492.638
492.619
492.599
492.579
492.558
492.537
492.514
492.492
492.468
492.444
492.42
492.395
492.37
492.344
492.318
492.292
492.265
492.239
492.212
492.185
492.158
492.131
492.105
492.079
492.053
492.027
492.003
491.979
491.956
491.934
491.913
491.893
491.875
491.859
491.844
491.831
491.821
491.813
491.807
491.804
491.805
491.808
491.815
491.825
491.839
491.858
491.88
491.907
491.939
491.975
492.017
492.063
492.116
492.174
492.237
492.307
492.383
492.465
492.554
492.65
492.752
492.861
492.977
493.1
493.231
493.368
493.513
493.664
493.824
493.99
494.164
494.344
494.532
494.727
494.928
495.137
495.352
495.573
495.801
496.035
496.274
496.52
496.77
497.026
497.286
497.551
497.82
498.092
498.369
498.648
498.931
499.216
499.503
499.792
500.083
500.374
500.667
500.961
501.255
501.549
501.842
502.135
502.428
502.719
503.009
503.298
503.585
503.87
504.153
504.434
504.712
504.988
505.261
505.532
505.799
506.064
506.325
506.584
506.839
507.091
507.34
507.585
507.826
508.064
508.299
508.529
508.756
508.979
509.198
509.413
509.623
509.829
510.031
510.229
510.421
510.609
510.793
510.971
511.143
511.311
511.469
511.631
511.728
492.917
492.913
492.907
492.9
492.896
492.892
492.889
492.886
492.884
492.882
492.88
492.877
492.875
492.872
492.869
492.865
492.862
492.857
492.852
492.847
492.84
492.834
492.826
492.818
492.809
492.8
492.79
492.779
492.767
492.755
492.741
492.728
492.713
492.698
492.682
492.665
492.647
492.629
492.61
492.591
492.57
492.55
492.528
492.506
492.483
492.46
492.436
492.412
492.387
492.361
492.336
492.31
492.283
492.257
492.23
492.203
492.176
492.149
492.122
492.095
492.069
492.043
492.017
491.992
491.968
491.945
491.923
491.902
491.882
491.863
491.847
491.832
491.819
491.809
491.8
491.795
491.792
491.792
491.795
491.802
491.812
491.826
491.844
491.867
491.894
491.925
491.962
492.003
492.05
492.102
492.16
492.224
492.294
492.37
492.453
492.541
492.637
492.739
492.849
492.965
493.088
493.218
493.356
493.501
493.653
493.812
493.978
494.152
494.333
494.521
494.716
494.918
495.126
495.341
495.563
495.791
496.024
496.264
496.509
496.76
497.015
497.276
497.541
497.809
498.082
498.359
498.638
498.92
499.205
499.492
499.781
500.072
500.363
500.656
500.949
501.243
501.536
501.83
502.123
502.415
502.706
502.995
503.284
503.57
503.855
504.137
504.418
504.696
504.971
505.244
505.514
505.782
506.046
506.307
506.565
506.82
507.072
507.32
507.565
507.806
508.044
508.278
508.509
508.736
508.958
509.177
509.392
509.602
509.809
510.011
510.208
510.401
510.589
510.772
510.949
511.121
511.287
511.443
511.603
511.695
492.918
492.914
492.907
492.9
492.896
492.892
492.888
492.885
492.883
492.88
492.878
492.875
492.872
492.869
492.866
492.862
492.857
492.853
492.847
492.841
492.835
492.828
492.82
492.812
492.803
492.793
492.783
492.772
492.76
492.747
492.734
492.72
492.705
492.69
492.674
492.657
492.639
492.621
492.602
492.583
492.562
492.541
492.52
492.498
492.475
492.451
492.428
492.403
492.378
492.353
492.327
492.301
492.274
492.247
492.22
492.193
492.166
492.139
492.112
492.085
492.058
492.032
492.006
491.981
491.957
491.933
491.911
491.89
491.87
491.851
491.834
491.819
491.806
491.796
491.787
491.782
491.779
491.779
491.782
491.789
491.799
491.813
491.832
491.854
491.881
491.913
491.949
491.991
492.038
492.09
492.148
492.212
492.282
492.359
492.441
492.53
492.626
492.729
492.838
492.955
493.078
493.209
493.346
493.491
493.644
493.803
493.97
494.144
494.325
494.513
494.708
494.91
495.119
495.334
495.556
495.784
496.018
496.258
496.503
496.754
497.009
497.27
497.534
497.803
498.076
498.352
498.632
498.914
499.199
499.486
499.774
500.065
500.356
500.649
500.942
501.235
501.528
501.821
502.114
502.405
502.696
502.985
503.273
503.559
503.843
504.125
504.405
504.683
504.958
505.231
505.5
505.767
506.031
506.292
506.55
506.804
507.055
507.303
507.548
507.789
508.027
508.261
508.491
508.718
508.94
509.159
509.374
509.584
509.79
509.992
510.19
510.382
510.57
510.753
510.93
511.101
511.267
511.421
511.579
511.665
492.916
492.912
492.905
492.899
492.894
492.89
492.886
492.883
492.88
492.877
492.875
492.872
492.869
492.865
492.862
492.858
492.853
492.848
492.842
492.836
492.83
492.822
492.815
492.806
492.797
492.787
492.776
492.765
492.753
492.741
492.727
492.713
492.699
492.683
492.667
492.65
492.632
492.614
492.595
492.575
492.555
492.534
492.512
492.49
492.467
492.444
492.42
492.395
492.37
492.344
492.318
492.292
492.265
492.238
492.211
492.184
492.156
492.129
492.102
492.075
492.048
492.021
491.995
491.97
491.945
491.922
491.899
491.878
491.858
491.839
491.822
491.807
491.794
491.784
491.775
491.77
491.767
491.767
491.77
491.777
491.788
491.802
491.82
491.843
491.87
491.902
491.939
491.981
492.028
492.081
492.139
492.203
492.274
492.35
492.433
492.523
492.619
492.721
492.831
492.948
493.072
493.202
493.34
493.486
493.638
493.798
493.965
494.139
494.321
494.509
494.704
494.907
495.116
495.331
495.553
495.781
496.015
496.255
496.501
496.752
497.007
497.268
497.533
497.802
498.074
498.351
498.63
498.912
499.197
499.483
499.772
500.062
500.353
500.645
500.938
501.231
501.523
501.816
502.108
502.399
502.689
502.978
503.265
503.551
503.835
504.116
504.396
504.673
504.947
505.219
505.489
505.755
506.018
506.279
506.536
506.79
507.041
507.289
507.533
507.774
508.012
508.245
508.476
508.702
508.925
509.143
509.358
509.568
509.774
509.976
510.174
510.366
510.554
510.736
510.913
511.084
511.248
511.4
511.556
511.639
492.912
492.908
492.902
492.896
492.891
492.887
492.883
492.88
492.877
492.874
492.871
492.868
492.865
492.861
492.858
492.853
492.849
492.844
492.838
492.832
492.825
492.818
492.81
492.801
492.792
492.782
492.771
492.76
492.748
492.735
492.722
492.708
492.693
492.677
492.661
492.644
492.626
492.608
492.589
492.569
492.549
492.527
492.506
492.483
492.46
492.437
492.412
492.388
492.362
492.336
492.31
492.284
492.257
492.23
492.202
492.175
492.147
492.12
492.092
492.065
492.038
492.011
491.985
491.96
491.935
491.912
491.889
491.867
491.847
491.829
491.812
491.797
491.784
491.774
491.766
491.76
491.757
491.758
491.761
491.768
491.779
491.794
491.812
491.835
491.863
491.895
491.932
491.974
492.022
492.075
492.134
492.199
492.269
492.346
492.429
492.519
492.616
492.719
492.829
492.946
493.07
493.201
493.339
493.485
493.638
493.798
493.965
494.14
494.321
494.51
494.706
494.908
495.117
495.333
495.555
495.783
496.018
496.258
496.503
496.754
497.01
497.27
497.535
497.804
498.077
498.353
498.632
498.914
499.198
499.485
499.773
500.063
500.353
500.645
500.937
501.23
501.522
501.814
502.106
502.396
502.686
502.974
503.261
503.546
503.829
504.11
504.389
504.665
504.939
505.211
505.479
505.745
506.008
506.268
506.525
506.779
507.029
507.277
507.521
507.761
507.998
508.232
508.462
508.688
508.911
509.129
509.344
509.554
509.76
509.962
510.16
510.352
510.54
510.722
510.898
511.068
511.231
511.382
511.536
511.616
492.907
492.903
492.898
492.892
492.887
492.883
492.88
492.876
492.873
492.871
492.868
492.865
492.861
492.858
492.854
492.85
492.845
492.84
492.834
492.828
492.821
492.814
492.806
492.797
492.788
492.778
492.767
492.756
492.744
492.731
492.717
492.703
492.688
492.673
492.656
492.639
492.622
492.603
492.584
492.564
492.543
492.522
492.5
492.478
492.454
492.431
492.406
492.381
492.356
492.33
492.304
492.277
492.25
492.222
492.195
492.167
492.14
492.112
492.084
492.057
492.03
492.004
491.977
491.952
491.928
491.904
491.881
491.86
491.84
491.822
491.805
491.791
491.778
491.768
491.76
491.755
491.752
491.753
491.757
491.764
491.775
491.79
491.81
491.833
491.861
491.894
491.931
491.974
492.022
492.075
492.134
492.199
492.271
492.348
492.431
492.522
492.618
492.722
492.832
492.95
493.074
493.206
493.344
493.49
493.643
493.804
493.971
494.146
494.328
494.517
494.713
494.915
495.125
495.34
495.563
495.791
496.026
496.266
496.511
496.762
497.018
497.278
497.543
497.812
498.084
498.36
498.639
498.921
499.205
499.491
499.778
500.068
500.358
500.649
500.941
501.233
501.524
501.816
502.107
502.397
502.685
502.973
503.259
503.543
503.826
504.106
504.384
504.66
504.934
505.204
505.472
505.738
506
506.259
506.516
506.769
507.019
507.266
507.51
507.75
507.987
508.22
508.45
508.676
508.899
509.117
509.332
509.542
509.748
509.95
510.147
510.34
510.527
510.709
510.885
511.054
511.216
511.365
511.518
511.596
492.9
492.897
492.892
492.887
492.882
492.879
492.875
492.872
492.87
492.867
492.864
492.861
492.858
492.854
492.85
492.846
492.842
492.836
492.831
492.825
492.818
492.81
492.802
492.794
492.785
492.775
492.764
492.753
492.741
492.728
492.715
492.7
492.685
492.67
492.653
492.636
492.619
492.6
492.581
492.561
492.54
492.519
492.497
492.474
492.451
492.427
492.402
492.377
492.351
492.325
492.299
492.272
492.245
492.218
492.19
492.163
492.135
492.108
492.08
492.053
492.026
492
491.974
491.949
491.924
491.901
491.879
491.858
491.838
491.82
491.804
491.79
491.778
491.768
491.76
491.756
491.754
491.755
491.759
491.767
491.779
491.794
491.814
491.838
491.866
491.899
491.937
491.98
492.029
492.083
492.142
492.208
492.279
492.357
492.441
492.532
492.629
492.733
492.843
492.961
493.086
493.217
493.356
493.503
493.656
493.816
493.984
494.159
494.341
494.53
494.726
494.929
495.138
495.354
495.576
495.805
496.039
496.279
496.525
496.775
497.031
497.291
497.556
497.824
498.096
498.372
498.65
498.932
499.215
499.501
499.788
500.076
500.366
500.657
500.948
501.239
501.53
501.821
502.111
502.4
502.688
502.975
503.26
503.544
503.825
504.105
504.382
504.657
504.93
505.2
505.467
505.732
505.994
506.253
506.508
506.761
507.011
507.258
507.501
507.741
507.977
508.211
508.44
508.666
508.888
509.107
509.321
509.532
509.738
509.94
510.137
510.329
510.517
510.698
510.874
511.042
511.203
511.351
511.502
511.578
492.892
492.89
492.885
492.881
492.877
492.873
492.871
492.868
492.865
492.863
492.86
492.858
492.855
492.851
492.848
492.844
492.839
492.834
492.828
492.822
492.816
492.808
492.801
492.792
492.783
492.773
492.763
492.751
492.739
492.727
492.713
492.699
492.684
492.669
492.652
492.635
492.618
492.599
492.58
492.56
492.539
492.518
492.496
492.473
492.45
492.426
492.401
492.376
492.351
492.325
492.299
492.272
492.245
492.218
492.191
492.164
492.136
492.109
492.082
492.055
492.029
492.003
491.977
491.953
491.929
491.906
491.884
491.864
491.845
491.827
491.812
491.798
491.786
491.777
491.77
491.766
491.765
491.766
491.771
491.78
491.792
491.808
491.828
491.852
491.881
491.915
491.953
491.997
492.046
492.1
492.16
492.226
492.298
492.376
492.46
492.551
492.648
492.752
492.863
492.981
493.106
493.238
493.377
493.523
493.677
493.838
494.005
494.18
494.362
494.551
494.747
494.95
495.159
495.375
495.597
495.826
496.06
496.299
496.545
496.795
497.05
497.31
497.574
497.842
498.114
498.389
498.667
498.947
499.23
499.515
499.802
500.09
500.379
500.668
500.958
501.249
501.539
501.829
502.118
502.406
502.693
502.979
503.263
503.546
503.827
504.106
504.382
504.656
504.928
505.197
505.464
505.728
505.989
506.247
506.503
506.755
507.004
507.25
507.493
507.733
507.969
508.202
508.432
508.657
508.88
509.098
509.312
509.523
509.729
509.931
510.128
510.32
510.507
510.689
510.864
511.031
511.191
511.338
511.488
511.563
492.884
492.882
492.878
492.874
492.871
492.868
492.866
492.864
492.862
492.86
492.858
492.855
492.852
492.849
492.846
492.842
492.838
492.833
492.828
492.822
492.815
492.808
492.8
492.792
492.783
492.773
492.763
492.752
492.74
492.728
492.715
492.701
492.686
492.671
492.654
492.638
492.62
492.602
492.582
492.563
492.542
492.521
492.499
492.477
492.454
492.43
492.406
492.382
492.357
492.331
492.306
492.279
492.253
492.227
492.2
492.173
492.146
492.119
492.093
492.067
492.041
492.016
491.991
491.967
491.944
491.922
491.901
491.881
491.863
491.846
491.831
491.818
491.807
491.798
491.792
491.788
491.788
491.79
491.796
491.805
491.817
491.834
491.854
491.879
491.908
491.942
491.981
492.025
492.074
492.129
492.189
492.255
492.327
492.406
492.49
492.581
492.679
492.783
492.894
493.012
493.137
493.269
493.408
493.554
493.707
493.868
494.036
494.21
494.392
494.581
494.777
494.979
495.188
495.404
495.626
495.854
496.087
496.327
496.571
496.821
497.076
497.335
497.599
497.866
498.137
498.411
498.689
498.968
499.25
499.534
499.82
500.107
500.395
500.684
500.973
501.262
501.551
501.84
502.128
502.415
502.702
502.986
503.27
503.551
503.831
504.109
504.384
504.658
504.929
505.197
505.463
505.726
505.986
506.244
506.499
506.75
506.999
507.245
507.487
507.727
507.963
508.195
508.425
508.65
508.872
509.091
509.305
509.516
509.722
509.924
510.121
510.313
510.5
510.681
510.856
511.023
511.182
511.328
511.476
511.551
492.876
492.873
492.87
492.867
492.864
492.862
492.861
492.86
492.858
492.857
492.856
492.854
492.851
492.849
492.846
492.842
492.838
492.833
492.828
492.823
492.816
492.81
492.802
492.794
492.786
492.776
492.766
492.756
492.744
492.732
492.72
492.706
492.692
492.677
492.661
492.645
492.627
492.61
492.591
492.572
492.552
492.531
492.51
492.488
492.466
492.443
492.419
492.396
492.371
492.347
492.321
492.296
492.27
492.244
492.218
492.192
492.166
492.14
492.115
492.089
492.064
492.04
492.016
491.992
491.97
491.949
491.928
491.909
491.892
491.876
491.861
491.849
491.839
491.83
491.825
491.822
491.821
491.824
491.83
491.84
491.853
491.87
491.891
491.916
491.945
491.98
492.019
492.063
492.112
492.167
492.227
492.294
492.366
492.444
492.529