/*--------------------------------*- C++ -*----------------------------------*\
| =========                 |                                                 |
| \\      /  F ield         | OpenFOAM: The Open Source CFD Toolbox           |
|  \\    /   O peration     | Version:  2312                                  |
|   \\  /    A nd           | Website:  www.openfoam.com                      |
|    \\/     M anipulation  |                                                 |
\*---------------------------------------------------------------------------*/
FoamFile
{
    version     2.0;
    format      ascii;
    arch        "LSB;label=32;scalar=64";
    class       surfaceScalarField;
    location    "250";
    object      phi;
}
// * * * * * * * * * * * * * * * * * * * * * * * * * * * * * * * * * * * * * //

dimensions      [0 3 -1 0 0 0 0];

oriented        oriented;

internalField   nonuniform List<scalar> 
24170
(
3.11512e-06
7.32903e-08
3.01296e-06
1.02153e-07
2.91749e-06
9.54725e-08
2.82631e-06
9.11805e-08
2.7403e-06
8.60066e-08
2.66278e-06
7.75224e-08
2.59488e-06
6.79021e-08
2.53596e-06
5.89178e-08
2.48491e-06
5.10474e-08
2.44064e-06
4.42683e-08
2.40219e-06
3.84503e-08
2.36874e-06
3.34465e-08
2.33963e-06
2.91102e-08
2.31431e-06
2.53198e-08
2.29248e-06
2.18343e-08
2.27364e-06
1.88356e-08
2.2576e-06
1.60407e-08
1.2702e-08
2.2449e-06
3.46865e-06
2.18863e-08
3.48678e-06
8.40286e-08
3.49345e-06
8.8798e-08
3.49232e-06
9.23104e-08
3.48432e-06
9.40017e-08
3.47071e-06
9.1135e-08
3.45278e-06
8.58334e-08
3.43174e-06
7.99588e-08
3.40869e-06
7.40956e-08
3.38455e-06
6.84018e-08
3.36004e-06
6.29679e-08
3.33564e-06
5.78425e-08
3.31174e-06
5.30096e-08
3.2886e-06
4.84566e-08
3.26642e-06
4.40151e-08
3.24542e-06
3.9833e-08
3.22636e-06
3.5101e-08
2.88622e-08
3.2102e-06
3.66801e-06
1.63929e-08
3.68031e-06
7.17286e-08
3.69e-06
7.9103e-08
3.70002e-06
8.2291e-08
3.70913e-06
8.48932e-08
3.71622e-06
8.40445e-08
3.72118e-06
8.08705e-08
3.72423e-06
7.6916e-08
3.72559e-06
7.27372e-08
3.72551e-06
6.8476e-08
3.72426e-06
6.42219e-08
3.72205e-06
6.00438e-08
3.71911e-06
5.59563e-08
3.71562e-06
5.19477e-08
3.71172e-06
4.79132e-08
3.70776e-06
4.37911e-08
3.70377e-06
3.90886e-08
3.3236e-08
3.6994e-06
3.92495e-06
1.68285e-08
3.93556e-06
6.11189e-08
3.94312e-06
7.15452e-08
3.95014e-06
7.52683e-08
3.95682e-06
7.8212e-08
3.96261e-06
7.82532e-08
3.96757e-06
7.59102e-08
3.9719e-06
7.25902e-08
3.97568e-06
6.89507e-08
3.97899e-06
6.51735e-08
3.98186e-06
6.13463e-08
3.98437e-06
5.7536e-08
3.98656e-06
5.37602e-08
3.98851e-06
5.00001e-08
3.99026e-06
4.6166e-08
3.9919e-06
4.21524e-08
3.99328e-06
3.77079e-08
3.25307e-08
3.99398e-06
4.20772e-06
1.62322e-08
4.21609e-06
5.27539e-08
4.22226e-06
6.53751e-08
4.22774e-06
6.97845e-08
4.23318e-06
7.27699e-08
4.23821e-06
7.32264e-08
4.24274e-06
7.13849e-08
4.24686e-06
6.84687e-08
4.25065e-06
6.51618e-08
4.25415e-06
6.16722e-08
4.2574e-06
5.80902e-08
4.26046e-06
5.44823e-08
4.26334e-06
5.08714e-08
4.26611e-06
4.72394e-08
4.26876e-06
4.35159e-08
4.27129e-06
3.96123e-08
4.27361e-06
3.53896e-08
3.07155e-08
4.27543e-06
4.51042e-06
1.48966e-08
4.51713e-06
4.605e-08
4.52283e-06
5.96682e-08
4.52796e-06
6.46526e-08
4.5331e-06
6.76339e-08
4.53796e-06
6.83697e-08
4.54238e-06
6.69583e-08
4.54643e-06
6.44184e-08
4.55018e-06
6.14122e-08
4.55368e-06
5.81695e-08
4.55698e-06
5.47911e-08
4.56012e-06
5.13471e-08
4.56312e-06
4.78682e-08
4.56602e-06
4.43438e-08
4.56881e-06
4.0726e-08
4.57147e-06
3.6953e-08
4.5739e-06
3.29542e-08
2.86986e-08
4.57592e-06
4.83415e-06
1.34688e-08
4.83991e-06
4.02898e-08
4.84554e-06
5.40328e-08
4.85066e-06
5.95357e-08
4.85572e-06
6.25745e-08
4.86055e-06
6.35425e-08
4.86499e-06
6.25147e-08
4.86908e-06
6.03283e-08
4.87289e-06
5.76068e-08
4.87646e-06
5.45979e-08
4.87983e-06
5.14143e-08
4.88305e-06
4.81308e-08
4.88613e-06
4.4787e-08
4.88909e-06
4.13824e-08
4.89193e-06
3.78917e-08
4.8946e-06
3.42801e-08
4.89703e-06
3.05251e-08
2.66522e-08
4.89907e-06
5.18096e-06
1.20933e-08
5.18606e-06
3.5191e-08
5.19158e-06
4.85053e-08
5.19671e-06
5.44037e-08
5.20177e-06
5.75178e-08
5.20665e-06
5.86662e-08
5.21119e-06
5.79722e-08
5.2154e-06
5.61158e-08
5.21934e-06
5.36705e-08
5.22304e-06
5.08946e-08
5.22654e-06
4.79108e-08
5.22988e-06
4.47989e-08
5.23306e-06
4.16064e-08
5.23609e-06
3.83454e-08
5.23897e-06
3.50104e-08
5.24166e-06
3.15906e-08
5.24409e-06
2.80939e-08
2.45687e-08
5.24618e-06
5.55268e-06
1.07548e-08
5.55721e-06
3.06609e-08
5.56252e-06
4.31905e-08
5.56764e-06
4.92852e-08
5.57271e-06
5.24443e-08
5.57766e-06
5.37145e-08
5.58234e-06
5.33005e-08
5.5867e-06
5.17481e-08
5.5908e-06
4.95698e-08
5.59467e-06
4.70278e-08
5.59833e-06
4.42521e-08
5.6018e-06
4.13265e-08
5.6051e-06
3.83058e-08
5.60823e-06
3.52143e-08
5.61118e-06
3.20629e-08
5.61391e-06
2.88601e-08
5.61637e-06
2.56303e-08
2.2431e-08
5.61851e-06
5.95107e-06
9.45951e-09
5.95511e-06
2.66198e-08
5.96017e-06
3.8137e-08
5.96524e-06
4.42119e-08
5.97032e-06
4.73662e-08
5.97533e-06
4.87036e-08
5.98012e-06
4.85114e-08
5.98464e-06
4.7229e-08
5.9889e-06
4.53027e-08
5.99294e-06
4.29911e-08
5.99676e-06
4.04289e-08
6.00039e-06
3.77029e-08
6.00382e-06
3.48733e-08
6.00706e-06
3.19752e-08
6.01009e-06
2.90317e-08
6.01288e-06
2.6065e-08
6.01541e-06
2.31072e-08
2.02176e-08
6.01762e-06
6.37804e-06
8.22788e-09
6.38168e-06
2.29863e-08
6.38646e-06
3.33557e-08
6.39146e-06
3.92118e-08
6.39652e-06
4.23028e-08
6.40157e-06
4.36592e-08
6.40645e-06
4.36298e-08
6.4111e-06
4.2578e-08
6.41552e-06
4.08843e-08
6.41971e-06
3.87955e-08
6.42369e-06
3.64487e-08
6.42746e-06
3.39321e-08
6.43103e-06
3.13096e-08
6.43438e-06
2.8624e-08
6.4375e-06
2.59071e-08
6.44038e-06
2.31894e-08
6.44298e-06
2.05055e-08
1.79118e-08
6.44528e-06
5.74182e-06
7.23853e-09
5.74462e-06
2.0185e-08
5.74846e-06
2.95241e-08
5.75261e-06
3.50571e-08
5.75687e-06
3.80447e-08
5.76114e-06
3.93855e-08
5.76532e-06
3.94504e-08
5.76934e-06
3.85611e-08
5.77317e-06
3.70478e-08
5.77683e-06
3.51407e-08
5.7803e-06
3.29756e-08
5.78359e-06
3.06414e-08
5.7867e-06
2.82033e-08
5.78961e-06
2.57083e-08
5.79233e-06
2.31933e-08
5.79483e-06
2.0692e-08
5.79709e-06
1.82385e-08
1.58869e-08
5.79912e-06
6.99922e-06
6.17732e-09
7.00219e-06
1.72091e-08
7.00635e-06
2.53645e-08
7.01099e-06
3.04141e-08
7.01583e-06
3.32082e-08
7.02073e-06
3.44859e-08
7.02557e-06
3.46155e-08
7.03025e-06
3.3878e-08
7.03474e-06
3.25512e-08
7.03904e-06
3.08431e-08
7.04313e-06
2.88848e-08
7.04701e-06
2.67638e-08
7.05067e-06
2.45453e-08
7.0541e-06
2.22785e-08
7.05729e-06
2.00027e-08
7.06023e-06
1.77532e-08
7.0629e-06
1.55615e-08
1.34774e-08
7.06531e-06
8.53197e-06
5.05327e-09
8.53509e-06
1.40862e-08
8.53955e-06
2.09068e-08
8.54467e-06
2.52934e-08
8.5501e-06
2.77775e-08
8.55566e-06
2.89254e-08
8.5612e-06
2.90746e-08
8.56662e-06
2.84658e-08
8.57184e-06
2.73242e-08
8.57686e-06
2.58294e-08
8.58164e-06
2.41029e-08
8.58617e-06
2.22277e-08
8.59045e-06
2.02663e-08
8.59446e-06
1.82675e-08
8.5982e-06
1.62703e-08
8.60164e-06
1.43086e-08
8.60479e-06
1.24101e-08
1.06188e-08
8.60765e-06
1.04004e-05
3.87772e-09
1.04036e-05
1.08379e-08
1.04084e-05
1.61763e-08
1.0414e-05
1.9709e-08
1.042e-05
2.17422e-08
1.04262e-05
2.26728e-08
1.04325e-05
2.27805e-08
1.04387e-05
2.22633e-08
1.04448e-05
2.12958e-08
1.04506e-05
2.00234e-08
1.04561e-05
1.85513e-08
1.04614e-05
1.6954e-08
1.04664e-05
1.52879e-08
1.0471e-05
1.35973e-08
1.04754e-05
1.19182e-08
1.04794e-05
1.02804e-08
1.04831e-05
8.70656e-09
7.23397e-09
1.04865e-05
1.2678e-05
2.65822e-09
1.26814e-05
7.46224e-09
1.26864e-05
1.1175e-08
1.26924e-05
1.36615e-08
1.26991e-05
1.50826e-08
1.27061e-05
1.56868e-08
1.27132e-05
1.56769e-08
1.27202e-05
1.52013e-08
1.27272e-05
1.4386e-08
1.27338e-05
1.33377e-08
1.27403e-05
1.21385e-08
1.27464e-05
1.08487e-08
1.27521e-05
9.514e-09
1.27576e-05
8.17083e-09
1.27626e-05
6.84813e-09
1.27673e-05
5.56986e-09
1.27717e-05
4.35226e-09
3.22577e-09
1.27757e-05
1.54545e-05
1.3864e-09
1.5458e-05
3.91605e-09
1.54633e-05
5.84793e-09
1.54699e-05
7.09519e-09
1.54772e-05
7.7301e-09
1.5485e-05
7.8815e-09
1.54931e-05
7.66597e-09
1.55011e-05
7.17363e-09
1.5509e-05
6.48055e-09
1.55167e-05
5.65207e-09
1.55241e-05
4.74025e-09
1.55311e-05
3.78456e-09
1.55378e-05
2.81544e-09
1.55442e-05
1.85704e-09
1.55501e-05
9.28565e-10
1.55556e-05
4.55929e-11
1.55607e-05
-7.82452e-10
-1.53277e-09
1.55655e-05
1.8839e-05
2.30641e-11
1.88428e-05
7.50709e-11
1.88487e-05
1.8294e-11
1.8856e-05
-1.86469e-10
1.88642e-05
-5.20848e-10
1.8873e-05
-9.55918e-10
1.88822e-05
-1.46737e-09
1.88914e-05
-2.03302e-09
1.89005e-05
-2.63057e-09
1.89094e-05
-3.24041e-09
1.8918e-05
-3.84707e-09
1.89262e-05
-4.43832e-09
1.8934e-05
-5.00412e-09
1.89414e-05
-5.5362e-09
1.89484e-05
-6.02797e-09
1.89549e-05
-6.47392e-09
1.8961e-05
-6.87217e-09
-7.20809e-09
1.89666e-05
2.29649e-05
-1.53295e-09
2.29693e-05
-4.3549e-09
2.29761e-05
-6.74935e-09
2.29846e-05
-8.68773e-09
2.29943e-05
-1.01868e-08
2.30046e-05
-1.13329e-08
2.30154e-05
-1.22154e-08
2.30262e-05
-1.28887e-08
2.3037e-05
-1.33895e-08
2.30475e-05
-1.37532e-08
2.30577e-05
-1.40103e-08
2.30674e-05
-1.41828e-08
2.30767e-05
-1.42861e-08
2.30855e-05
-1.43311e-08
2.30938e-05
-1.43265e-08
2.31016e-05
-1.42783e-08
2.31089e-05
-1.41926e-08
-1.40635e-08
2.31158e-05
1.68119e-05
-2.73648e-09
1.68153e-05
-7.76137e-09
1.68205e-05
-1.19693e-08
1.68271e-05
-1.52068e-08
1.68344e-05
-1.75175e-08
1.68422e-05
-1.91349e-08
1.68502e-05
-2.02527e-08
1.68583e-05
-2.09709e-08
1.68663e-05
-2.13671e-08
1.6874e-05
-2.15213e-08
1.68815e-05
-2.14991e-08
1.68887e-05
-2.1347e-08
1.68955e-05
-2.10981e-08
1.6902e-05
-2.0778e-08
1.6908e-05
-2.04057e-08
1.69138e-05
-1.99947e-08
1.69191e-05
-1.95559e-08
-1.90887e-08
1.69241e-05
1.46357e-05
-3.87069e-09
1.4639e-05
-1.10264e-08
1.4644e-05
-1.70142e-08
1.46502e-05
-2.14106e-08
1.46571e-05
-2.43598e-08
1.46643e-05
-2.63348e-08
1.46716e-05
-2.76111e-08
1.4679e-05
-2.83079e-08
1.46861e-05
-2.85524e-08
1.46931e-05
-2.84754e-08
1.46998e-05
-2.81726e-08
1.47061e-05
-2.77077e-08
1.47122e-05
-2.71283e-08
1.47178e-05
-2.64721e-08
1.47232e-05
-2.57667e-08
1.47282e-05
-2.50316e-08
1.4733e-05
-2.42814e-08
-2.35193e-08
1.47374e-05
1.27412e-05
-4.89599e-09
1.27444e-05
-1.42724e-08
1.27495e-05
-2.21364e-08
1.27556e-05
-2.74644e-08
1.2762e-05
-3.08305e-08
1.27688e-05
-3.30807e-08
1.27756e-05
-3.446e-08
1.27824e-05
-3.50688e-08
1.2789e-05
-3.51082e-08
1.27953e-05
-3.47696e-08
1.28013e-05
-3.4172e-08
1.28069e-05
-3.33923e-08
1.28123e-05
-3.24911e-08
1.28173e-05
-3.15162e-08
1.28221e-05
-3.05013e-08
1.28265e-05
-2.94687e-08
1.28307e-05
-2.8434e-08
-2.74005e-08
1.28345e-05
1.10917e-05
-5.67867e-09
1.1095e-05
-1.75425e-08
1.11004e-05
-2.75429e-08
1.11064e-05
-3.34568e-08
1.11125e-05
-3.69877e-08
1.11189e-05
-3.94267e-08
1.11253e-05
-4.08326e-08
1.11315e-05
-4.12905e-08
1.11375e-05
-4.10967e-08
1.11432e-05
-4.04878e-08
1.11486e-05
-3.95926e-08
1.11537e-05
-3.85008e-08
1.11585e-05
-3.72868e-08
1.1163e-05
-3.60085e-08
1.11672e-05
-3.47044e-08
1.11711e-05
-3.34002e-08
1.11748e-05
-3.21145e-08
-3.08552e-08
1.11783e-05
9.65564e-06
-6.105e-09
9.65905e-06
-2.09494e-08
9.66465e-06
-3.31452e-08
9.67045e-06
-3.92573e-08
9.67637e-06
-4.29105e-08
9.68244e-06
-4.54907e-08
9.68839e-06
-4.67867e-08
9.6941e-06
-4.69983e-08
9.69954e-06
-4.65398e-08
9.70471e-06
-4.56585e-08
9.70959e-06
-4.44746e-08
9.71418e-06
-4.30863e-08
9.71847e-06
-4.15803e-08
9.72249e-06
-4.00223e-08
9.72623e-06
-3.84541e-08
9.72974e-06
-3.69023e-08
9.733e-06
-3.538e-08
-3.38811e-08
9.73603e-06
8.40494e-06
-5.69729e-09
8.40933e-06
-2.53306e-08
8.41475e-06
-3.85707e-08
8.41987e-06
-4.4375e-08
8.42545e-06
-4.84906e-08
8.43132e-06
-5.13632e-08
8.43705e-06
-5.25154e-08
8.44249e-06
-5.24369e-08
8.44763e-06
-5.16826e-08
8.45247e-06
-5.05015e-08
8.45701e-06
-4.901e-08
8.46124e-06
-4.73173e-08
8.46518e-06
-4.55198e-08
8.46884e-06
-4.36886e-08
8.47226e-06
-4.18681e-08
8.47544e-06
-4.00872e-08
8.47843e-06
-3.83703e-08
-3.67272e-08
8.48128e-06
7.31365e-06
-2.06018e-09
7.32071e-06
-3.23948e-08
7.32652e-06
-4.43787e-08
7.33133e-06
-4.91902e-08
7.33672e-06
-5.38776e-08
7.34239e-06
-5.70328e-08
7.34793e-06
-5.80583e-08
7.35325e-06
-5.77562e-08
7.35832e-06
-5.67529e-08
7.3631e-06
-5.52811e-08
7.36757e-06
-5.34744e-08
7.37171e-06
-5.14631e-08
7.37555e-06
-4.93601e-08
7.3791e-06
-4.72411e-08
7.38239e-06
-4.5156e-08
7.38544e-06
-4.31345e-08
7.38826e-06
-4.11873e-08
-3.92634e-08
7.39079e-06
6.36047e-06
7.53662e-09
6.3703e-06
-4.22262e-08
6.37819e-06
-5.2268e-08
6.38526e-06
-5.62597e-08
6.39239e-06
-6.10057e-08
6.39901e-06
-6.36538e-08
6.405e-06
-6.40545e-08
6.41056e-06
-6.33119e-08
6.41577e-06
-6.19612e-08
6.42062e-06
-6.01371e-08
6.42511e-06
-5.79657e-08
6.42924e-06
-5.55883e-08
6.43301e-06
-5.31332e-08
6.43645e-06
-5.06775e-08
6.43957e-06
-4.82789e-08
6.44242e-06
-4.59787e-08
6.44504e-06
-4.38082e-08
-4.17947e-08
6.44757e-06
5.53917e-06
1.38306e-08
5.54752e-06
-5.05791e-08
5.55587e-06
-6.06149e-08
5.56613e-06
-6.65175e-08
5.57733e-06
-7.22108e-08
5.58783e-06
-7.41549e-08
5.59706e-06
-7.32772e-08
5.60502e-06
-7.12762e-08
5.61179e-06
-6.87369e-08
5.61746e-06
-6.57998e-08
5.62208e-06
-6.25883e-08
5.62575e-06
-5.92576e-08
5.62856e-06
-5.59428e-08
5.6306e-06
-5.27187e-08
5.63196e-06
-4.96367e-08
5.63274e-06
-4.6766e-08
5.63305e-06
-4.41166e-08
-4.17813e-08
5.63304e-06
4.87157e-06
-3.01344e-08
4.88648e-06
-6.54848e-08
4.89722e-06
-7.13577e-08
4.906e-06
-7.52955e-08
4.91305e-06
-7.92591e-08
4.91733e-06
-7.84384e-08
4.91817e-06
-7.41139e-08
4.91544e-06
-6.85475e-08
4.90946e-06
-6.2756e-08
4.90074e-06
-5.70806e-08
4.88984e-06
-5.16918e-08
4.87727e-06
-4.66892e-08
4.86348e-06
-4.21541e-08
4.84884e-06
-3.80789e-08
4.83365e-06
-3.44497e-08
4.81818e-06
-3.12899e-08
4.80268e-06
-2.86147e-08
-2.69194e-08
4.78781e-06
4.17254e-06
4.10706e-06
4.0357e-06
3.9604e-06
3.88114e-06
3.80271e-06
3.72859e-06
3.66004e-06
3.59729e-06
3.54021e-06
3.48852e-06
3.44183e-06
3.39967e-06
3.36159e-06
3.32714e-06
3.29585e-06
3.26724e-06
3.24032e-06
7.56474e-09
-7.56934e-09
2.10398e-08
-1.34821e-08
3.55761e-08
-1.45425e-08
4.87686e-08
-1.31981e-08
5.93683e-08
-1.06051e-08
6.68529e-08
-7.48974e-09
7.11382e-08
-4.29044e-09
7.23857e-08
-1.2528e-09
7.09335e-08
1.4468e-09
6.72548e-08
3.67306e-09
6.1844e-08
5.40511e-09
5.51112e-08
6.72673e-09
4.734e-08
7.76514e-09
3.86823e-08
8.65124e-09
2.91847e-08
9.49126e-09
1.88198e-08
1.03582e-08
7.5378e-09
1.12755e-08
-4.76028e-09
1.2291e-08
-1.82792e-08
1.35123e-08
-3.31994e-08
1.4913e-08
-4.9647e-08
1.64412e-08
-6.77689e-08
1.81142e-08
-8.77036e-08
1.99281e-08
-1.0958e-07
2.18681e-08
-1.33496e-07
2.39097e-08
-1.59525e-07
2.60198e-08
-1.87685e-07
2.81545e-08
-2.17963e-07
3.027e-08
-2.50295e-07
3.23258e-08
-2.84587e-07
3.42855e-08
-3.2071e-07
3.61185e-08
-3.58517e-07
3.78005e-08
-3.97835e-07
3.93145e-08
-4.38488e-07
4.06475e-08
-4.8028e-07
4.17895e-08
-5.23023e-07
4.27392e-08
-5.66528e-07
4.35028e-08
-6.10623e-07
4.40918e-08
-6.55145e-07
4.45204e-08
-6.99954e-07
4.48048e-08
-7.44918e-07
4.49623e-08
-7.89931e-07
4.50098e-08
-8.34896e-07
4.4964e-08
-8.79741e-07
4.48421e-08
-9.24407e-07
4.46648e-08
-9.68869e-07
4.44596e-08
-1.01313e-06
4.42614e-08
-1.05721e-06
4.40802e-08
-1.10112e-06
4.39047e-08
-1.14486e-06
4.3735e-08
-1.18843e-06
4.35679e-08
-1.23183e-06
4.34026e-08
-1.27507e-06
4.32373e-08
-1.31815e-06
4.30709e-08
-1.36105e-06
4.29015e-08
-1.40378e-06
4.27272e-08
-1.44633e-06
4.25458e-08
-1.48869e-06
4.23552e-08
-1.53085e-06
4.21529e-08
-1.57279e-06
4.19362e-08
-1.61449e-06
4.17026e-08
-1.65595e-06
4.14496e-08
-1.69712e-06
4.11746e-08
-1.738e-06
4.0875e-08
-1.77855e-06
4.05484e-08
-1.81875e-06
4.01923e-08
-1.85855e-06
3.98044e-08
-1.89794e-06
3.93827e-08
-1.93686e-06
3.89252e-08
-1.9753e-06
3.843e-08
-2.01319e-06
3.78955e-08
-2.05052e-06
3.73201e-08
-2.08722e-06
3.67025e-08
-2.12326e-06
3.60415e-08
-2.1586e-06
3.5336e-08
-2.19319e-06
3.45851e-08
-2.22698e-06
3.37882e-08
-2.25993e-06
3.29449e-08
-2.29198e-06
3.20548e-08
-2.3231e-06
3.11173e-08
-2.35324e-06
3.01327e-08
-2.38234e-06
2.91006e-08
-2.41036e-06
2.80216e-08
-2.43726e-06
2.68955e-08
-2.46298e-06
2.57227e-08
-2.48748e-06
2.45033e-08
-2.51072e-06
2.32378e-08
-2.53265e-06
2.19265e-08
-2.55321e-06
2.05698e-08
-2.57238e-06
1.91678e-08
-2.59009e-06
1.77194e-08
-2.60632e-06
1.62234e-08
-2.62099e-06
1.46776e-08
-2.63407e-06
1.30783e-08
-2.64549e-06
1.142e-08
-2.65519e-06
9.69529e-09
-2.66309e-06
7.89447e-09
-2.66909e-06
6.00312e-09
-2.6731e-06
4.00424e-09
-2.67501e-06
1.90411e-09
-2.67481e-06
-1.98441e-10
-2.67271e-06
-2.1037e-09
-2.66889e-06
-3.82431e-09
-2.66339e-06
-5.5092e-09
-2.65621e-06
-7.18544e-09
-2.64734e-06
-8.86535e-09
-2.6368e-06
-1.05495e-08
-2.62456e-06
-1.22371e-08
-2.61064e-06
-1.39257e-08
-2.59502e-06
-1.5613e-08
-2.57773e-06
-1.7296e-08
-2.55875e-06
-1.89721e-08
-2.53811e-06
-2.06382e-08
-2.51582e-06
-2.22917e-08
-2.49188e-06
-2.39296e-08
-2.46633e-06
-2.55492e-08
-2.43918e-06
-2.71475e-08
-2.41045e-06
-2.87216e-08
-2.38018e-06
-3.02686e-08
-2.34839e-06
-3.17858e-08
-2.31511e-06
-3.32709e-08
-2.28039e-06
-3.47212e-08
-2.24425e-06
-3.61343e-08
-2.20674e-06
-3.75074e-08
-2.1679e-06
-3.88385e-08
-2.12777e-06
-4.0125e-08
-2.0864e-06
-4.13658e-08
-2.04384e-06
-4.25588e-08
-2.00014e-06
-4.37035e-08
-1.95534e-06
-4.47999e-08
-1.9095e-06
-4.58475e-08
-1.86265e-06
-4.68494e-08
-1.81484e-06
-4.78073e-08
-1.76613e-06
-4.87113e-08
-1.71658e-06
-4.95547e-08
-1.66623e-06
-5.0346e-08
-1.61514e-06
-5.1089e-08
-1.56335e-06
-5.17822e-08
-1.51091e-06
-5.24236e-08
-1.45787e-06
-5.30157e-08
-1.40428e-06
-5.35603e-08
-1.35019e-06
-5.406e-08
-1.29565e-06
-5.45166e-08
-1.24068e-06
-5.49314e-08
-1.18534e-06
-5.53061e-08
-1.12966e-06
-5.56428e-08
-1.07367e-06
-5.59437e-08
-1.01742e-06
-5.62111e-08
-9.6093e-07
-5.64476e-08
-9.04228e-07
-5.66556e-08
-8.47343e-07
-5.68379e-08
-7.90295e-07
-5.69974e-08
-7.33108e-07
-5.71366e-08
-6.75796e-07
-5.72584e-08
-6.18376e-07
-5.73657e-08
-5.60859e-07
-5.74606e-08
-5.03257e-07
-5.75456e-08
-4.45576e-07
-5.76228e-08
-3.87824e-07
-5.76939e-08
-3.30002e-07
-5.77619e-08
-2.72119e-07
-5.7825e-08
-2.14172e-07
-5.78865e-08
-1.56168e-07
-5.79462e-08
-9.81282e-08
-5.79804e-08
-4.01469e-08
-5.79246e-08
1.76625e-08
-5.77523e-08
7.53618e-08
-5.76468e-08
1.33059e-07
-5.76467e-08
1.90767e-07
-5.76616e-08
2.48528e-07
-5.77177e-08
3.06359e-07
-5.77919e-08
3.64245e-07
-5.78493e-08
4.22117e-07
-5.78409e-08
4.79829e-07
-5.76842e-08
5.3709e-07
-5.72383e-08
5.93315e-07
-5.62068e-08
6.47277e-07
-5.39493e-08
6.95994e-07
-4.87063e-08
7.32416e-07
-3.64151e-08
7.51623e-09
7.2491e-07
1.23053e-08
-1.98792e-08
2.35675e-08
-2.47505e-08
3.08297e-08
-2.18087e-08
3.46627e-08
-1.70345e-08
3.57833e-08
-1.17285e-08
3.46301e-08
-6.3395e-09
3.14683e-08
-1.13132e-09
2.64851e-08
3.7275e-09
1.97945e-08
8.13465e-09
1.14222e-08
1.20424e-08
1.36348e-09
1.54609e-08
-1.03768e-08
1.84639e-08
-2.37845e-08
2.11699e-08
-3.88495e-08
2.37133e-08
-5.55816e-08
2.62207e-08
-7.4019e-08
2.87927e-08
-9.42421e-08
3.14961e-08
-1.16325e-07
3.43711e-08
-1.40258e-07
3.74429e-08
-1.66065e-07
4.07169e-08
-1.93806e-07
4.41803e-08
-2.235e-07
4.78049e-08
-2.5512e-07
5.15454e-08
-2.88599e-07
5.53439e-08
-3.23828e-07
5.91359e-08
-3.6067e-07
6.2858e-08
-3.98967e-07
6.64491e-08
-4.3855e-07
6.98496e-08
-4.79234e-07
7.30073e-08
-5.20832e-07
7.58802e-08
-5.63154e-07
7.84376e-08
-6.06018e-07
8.06614e-08
-6.49252e-07
8.25462e-08
-6.92701e-07
8.40943e-08
-7.36228e-07
8.53151e-08
-7.7972e-07
8.62293e-08
-8.23084e-07
8.68647e-08
-8.66246e-07
8.72525e-08
-9.09153e-07
8.74254e-08
-9.51766e-07
8.74163e-08
-9.94062e-07
8.72568e-08
-1.03603e-06
8.69768e-08
-1.07767e-06
8.66039e-08
-1.119e-06
8.6165e-08
-1.16002e-06
8.5686e-08
-1.20075e-06
8.51917e-08
-1.24119e-06
8.47009e-08
-1.28133e-06
8.42202e-08
-1.32118e-06
8.37484e-08
-1.36073e-06
8.32854e-08
-1.39999e-06
8.28289e-08
-1.43897e-06
8.23766e-08
-1.47766e-06
8.19252e-08
-1.51606e-06
8.14712e-08
-1.55417e-06
8.10104e-08
-1.59198e-06
8.05388e-08
-1.62949e-06
8.00516e-08
-1.66668e-06
7.95444e-08
-1.70355e-06
7.90121e-08
-1.74006e-06
7.84502e-08
-1.77621e-06
7.78536e-08
-1.81199e-06
7.72179e-08
-1.84735e-06
7.65382e-08
-1.88229e-06
7.58103e-08
-1.91677e-06
7.50298e-08
-1.95077e-06
7.41927e-08
-1.98426e-06
7.32952e-08
-2.01722e-06
7.23339e-08
-2.0496e-06
7.13054e-08
-2.08138e-06
7.02068e-08
-2.11252e-06
6.90353e-08
-2.14299e-06
6.77886e-08
-2.17275e-06
6.64646e-08
-2.20177e-06
6.50612e-08
-2.23001e-06
6.35771e-08
-2.25744e-06
6.20108e-08
-2.28401e-06
6.03614e-08
-2.3097e-06
5.86283e-08
-2.33446e-06
5.68108e-08
-2.35825e-06
5.49086e-08
-2.38104e-06
5.29218e-08
-2.40279e-06
5.08505e-08
-2.42346e-06
4.8695e-08
-2.44302e-06
4.64559e-08
-2.46144e-06
4.41337e-08
-2.47866e-06
4.17293e-08
-2.49467e-06
3.92435e-08
-2.50942e-06
3.66776e-08
-2.52288e-06
3.40327e-08
-2.53502e-06
3.13093e-08
-2.5458e-06
2.85078e-08
-2.55521e-06
2.56287e-08
-2.5632e-06
2.26725e-08
-2.56977e-06
1.96396e-08
-2.57488e-06
1.65309e-08
-2.57853e-06
1.33484e-08
-2.58074e-06
1.00962e-08
-2.58152e-06
6.78341e-09
-2.58095e-06
3.43094e-09
-2.57913e-06
8.19502e-11
-2.57611e-06
-3.21792e-09
-2.57173e-06
-6.48668e-09
-2.56579e-06
-9.76691e-09
-2.55824e-06
-1.30627e-08
-2.54906e-06
-1.63727e-08
-2.53823e-06
-1.96971e-08
-2.52575e-06
-2.30327e-08
-2.51161e-06
-2.63754e-08
-2.49581e-06
-2.97203e-08
-2.47836e-06
-3.30622e-08
-2.45926e-06
-3.63955e-08
-2.43852e-06
-3.97145e-08
-2.41614e-06
-4.30136e-08
-2.39215e-06
-4.62871e-08
-2.36654e-06
-4.95293e-08
-2.33936e-06
-5.27348e-08
-2.3106e-06
-5.58976e-08
-2.28031e-06
-5.9012e-08
-2.2485e-06
-6.20725e-08
-2.21521e-06
-6.50738e-08
-2.18047e-06
-6.8011e-08
-2.14431e-06
-7.08789e-08
-2.10677e-06
-7.36727e-08
-2.06788e-06
-7.63874e-08
-2.0277e-06
-7.90186e-08
-1.98626e-06
-8.15621e-08
-1.94361e-06
-8.40146e-08
-1.8998e-06
-8.63727e-08
-1.85487e-06
-8.86349e-08
-1.80887e-06
-9.08003e-08
-1.76185e-06
-9.28701e-08
-1.71385e-06
-9.48479e-08
-1.66492e-06
-9.67352e-08
-1.61512e-06
-9.85187e-08
-1.56448e-06
-1.00188e-07
-1.51307e-06
-1.01756e-07
-1.46093e-06
-1.03227e-07
-1.40811e-06
-1.04598e-07
-1.35465e-06
-1.0587e-07
-1.30061e-06
-1.07045e-07
-1.24603e-06
-1.08128e-07
-1.19095e-06
-1.09122e-07
-1.13541e-06
-1.10032e-07
-1.07947e-06
-1.1086e-07
-1.02314e-06
-1.1161e-07
-9.66477e-07
-1.12286e-07
-9.09504e-07
-1.12894e-07
-8.52255e-07
-1.13436e-07
-7.94759e-07
-1.1392e-07
-7.37041e-07
-1.14348e-07
-6.79124e-07
-1.14728e-07
-6.2103e-07
-1.15064e-07
-5.62775e-07
-1.15363e-07
-5.04375e-07
-1.15629e-07
-4.45843e-07
-1.15869e-07
-3.87188e-07
-1.16085e-07
-3.28419e-07
-1.16285e-07
-2.6954e-07
-1.16471e-07
-2.10555e-07
-1.16648e-07
-1.51468e-07
-1.16818e-07
-9.22791e-08
-1.16983e-07
-3.30021e-08
-1.17133e-07
2.63469e-08
-1.17266e-07
8.57786e-08
-1.17383e-07
1.45344e-07
-1.17463e-07
2.05103e-07
-1.17485e-07
2.64989e-07
-1.17508e-07
3.24944e-07
-1.17577e-07
3.84992e-07
-1.17687e-07
4.45133e-07
-1.17837e-07
5.05353e-07
-1.17992e-07
5.65609e-07
-1.18087e-07
6.25811e-07
-1.18027e-07
6.85796e-07
-1.17655e-07
7.45256e-07
-1.16687e-07
8.03652e-07
-1.14594e-07
8.59909e-07
-1.102e-07
9.12371e-07
-1.01165e-07
9.57084e-07
-8.11253e-08
-3.09069e-08
9.9551e-07
8.42185e-09
-2.83048e-08
1.21386e-08
-2.84717e-08
1.2004e-08
-2.1677e-08
9.18427e-09
-1.42171e-08
4.35034e-09
-6.89646e-09
-2.13369e-09
1.42619e-10
-1.00948e-08
6.82803e-09
-1.9472e-08
1.31029e-08
-3.02756e-08
1.89366e-08
-4.25628e-08
2.43277e-08
-5.64132e-08
2.93096e-08
-7.19046e-08
3.39534e-08
-8.90962e-08
3.83599e-08
-1.08027e-07
4.26424e-08
-1.28716e-07
4.69086e-08
-1.51171e-07
5.12454e-08
-1.75386e-07
5.57103e-08
-2.01346e-07
6.03295e-08
-2.29008e-07
6.51031e-08
-2.58302e-07
7.0009e-08
-2.8913e-07
7.50069e-08
-3.21367e-07
8.00408e-08
-3.54867e-07
8.50436e-08
-3.89468e-07
8.99429e-08
-4.25e-07
9.46666e-08
-4.61291e-07
9.91476e-08
-4.98171e-07
1.03327e-07
-5.35479e-07
1.07156e-07
-5.7307e-07
1.10597e-07
-6.10819e-07
1.13627e-07
-6.48618e-07
1.16235e-07
-6.86376e-07
1.18418e-07
-7.24017e-07
1.20186e-07
-7.61487e-07
1.21562e-07
-7.98756e-07
1.22583e-07
-8.35812e-07
1.23284e-07
-8.7265e-07
1.23702e-07
-9.09273e-07
1.23874e-07
-9.45687e-07
1.23839e-07
-9.81904e-07
1.23632e-07
-1.01794e-06
1.23287e-07
-1.0538e-06
1.22836e-07
-1.0895e-06
1.22306e-07
-1.12506e-06
1.21721e-07
-1.16047e-06
1.21103e-07
-1.19575e-06
1.20471e-07
-1.23089e-06
1.19836e-07
-1.26587e-06
1.19203e-07
-1.3007e-06
1.18576e-07
-1.33537e-06
1.17954e-07
-1.36988e-06
1.17334e-07
-1.40421e-06
1.16713e-07
-1.43838e-06
1.16087e-07
-1.47236e-06
1.15452e-07
-1.50615e-06
1.14801e-07
-1.53974e-06
1.14128e-07
-1.57312e-06
1.13428e-07
-1.60627e-06
1.12694e-07
-1.63918e-06
1.1192e-07
-1.67183e-06
1.11098e-07
-1.7042e-06
1.10223e-07
-1.73627e-06
1.09287e-07
-1.76802e-06
1.08286e-07
-1.79942e-06
1.07212e-07
-1.83046e-06
1.06061e-07
-1.86109e-06
1.04826e-07
-1.8913e-06
1.03502e-07
-1.92105e-06
1.02085e-07
-1.95031e-06
1.0057e-07
-1.97906e-06
9.89532e-08
-2.00726e-06
9.72309e-08
-2.03487e-06
9.53997e-08
-2.06186e-06
9.34565e-08
-2.0882e-06
9.13989e-08
-2.11385e-06
8.92246e-08
-2.13877e-06
8.69319e-08
-2.16293e-06
8.45192e-08
-2.18629e-06
8.19857e-08
-2.20881e-06
7.93305e-08
-2.23045e-06
7.65533e-08
-2.25119e-06
7.3654e-08
-2.27097e-06
7.0633e-08
-2.28976e-06
6.74907e-08
-2.30754e-06
6.42281e-08
-2.32425e-06
6.08462e-08
-2.33987e-06
5.73465e-08
-2.35435e-06
5.37307e-08
-2.36768e-06
5.00008e-08
-2.3798e-06
4.6159e-08
-2.3907e-06
4.22075e-08
-2.40034e-06
3.81485e-08
-2.4087e-06
3.39847e-08
-2.41574e-06
2.97197e-08
-2.42146e-06
2.53577e-08
-2.42584e-06
2.09046e-08
-2.42886e-06
1.6368e-08
-2.43052e-06
1.17584e-08
-2.43083e-06
7.0899e-09
-2.42978e-06
2.38255e-09
-2.42736e-06
-2.34113e-09
-2.42351e-06
-7.07399e-09
-2.41816e-06
-1.18385e-08
-2.41128e-06
-1.66509e-08
-2.40284e-06
-2.15044e-08
-2.39282e-06
-2.6391e-08
-2.38122e-06
-3.13038e-08
-2.36801e-06
-3.62358e-08
-2.35321e-06
-4.11792e-08
-2.33681e-06
-4.61263e-08
-2.3188e-06
-5.1069e-08
-2.29919e-06
-5.59991e-08
-2.278e-06
-6.0908e-08
-2.25522e-06
-6.57874e-08
-2.23088e-06
-7.06288e-08
-2.20498e-06
-7.54237e-08
-2.17755e-06
-8.01638e-08
-2.14861e-06
-8.48406e-08
-2.11817e-06
-8.94457e-08
-2.08627e-06
-9.3971e-08
-2.05294e-06
-9.84086e-08
-2.01819e-06
-1.02751e-07
-1.98208e-06
-1.06991e-07
-1.94463e-06
-1.11121e-07
-1.90588e-06
-1.15134e-07
-1.86587e-06
-1.19024e-07
-1.82465e-06
-1.22784e-07
-1.78226e-06
-1.2641e-07
-1.73873e-06
-1.29897e-07
-1.69412e-06
-1.33242e-07
-1.64848e-06
-1.36444e-07
-1.60185e-06
-1.39504e-07
-1.55427e-06
-1.42426e-07
-1.5058e-06
-1.45211e-07
-1.45647e-06
-1.47846e-07
-1.40634e-06
-1.50321e-07
-1.35545e-06
-1.52646e-07
-1.30385e-06
-1.54827e-07
-1.25158e-06
-1.56861e-07
-1.19869e-06
-1.5875e-07
-1.14523e-06
-1.60498e-07
-1.09124e-06
-1.6211e-07
-1.03676e-06
-1.63593e-07
-9.8183e-07
-1.64952e-07
-9.26487e-07
-1.66192e-07
-8.70768e-07
-1.67319e-07
-8.14706e-07
-1.68338e-07
-7.58332e-07
-1.69257e-07
-7.01675e-07
-1.70082e-07
-6.44761e-07
-1.70822e-07
-5.87615e-07
-1.71483e-07
-5.30258e-07
-1.72074e-07
-4.72709e-07
-1.72602e-07
-4.14984e-07
-1.73077e-07
-3.57097e-07
-1.73505e-07
-2.99058e-07
-1.73895e-07
-2.40877e-07
-1.74254e-07
-1.82561e-07
-1.74589e-07
-1.24115e-07
-1.74906e-07
-6.55406e-08
-1.7521e-07
-6.84466e-09
-1.75503e-07
5.19687e-08
-1.75785e-07
1.10906e-07
-1.76059e-07
1.69976e-07
-1.76327e-07
2.29188e-07
-1.76585e-07
2.88559e-07
-1.76825e-07
3.48122e-07
-1.77039e-07
4.07872e-07
-1.77249e-07
4.67779e-07
-1.77477e-07
5.27831e-07
-1.77731e-07
5.88004e-07
-1.78003e-07
6.48266e-07
-1.78246e-07
7.0856e-07
-1.78375e-07
7.68791e-07
-1.78252e-07
8.28795e-07
-1.77653e-07
8.88296e-07
-1.76183e-07
9.46838e-07
-1.73133e-07
1.00371e-06
-1.67068e-07
1.05793e-06
-1.55379e-07
1.10874e-06
-1.31934e-07
-8.31879e-08
1.16102e-06
1.46431e-09
-2.97722e-08
-2.15181e-09
-2.48591e-08
-8.22e-09
-1.5611e-08
-1.59163e-08
-6.52253e-09
-2.49327e-08
2.11842e-09
-3.51331e-08
1.03416e-08
-4.6478e-08
1.81716e-08
-5.89903e-08
2.56139e-08
-7.27304e-08
3.26753e-08
-8.77803e-08
3.93761e-08
-1.04228e-07
4.57562e-08
-1.22153e-07
5.18767e-08
-1.41609e-07
5.78147e-08
-1.6262e-07
6.36523e-08
-1.85178e-07
6.94644e-08
-2.09241e-07
7.53073e-08
-2.34744e-07
8.12121e-08
-2.61598e-07
8.71826e-08
-2.89693e-07
9.31974e-08
-3.189e-07
9.92144e-08
-3.49071e-07
1.05177e-07
-3.8005e-07
1.11019e-07
-4.11679e-07
1.16672e-07
-4.43805e-07
1.22068e-07
-4.76284e-07
1.27145e-07
-5.08987e-07
1.31849e-07
-5.418e-07
1.36139e-07
-5.74631e-07
1.39984e-07
-6.07404e-07
1.43369e-07
-6.40065e-07
1.46287e-07
-6.72578e-07
1.48747e-07
-7.04925e-07
1.50763e-07
-7.37104e-07
1.52364e-07
-7.69127e-07
1.53583e-07
-8.01005e-07
1.5446e-07
-8.32756e-07
1.55034e-07
-8.64399e-07
1.55343e-07
-8.95953e-07
1.55427e-07
-9.27436e-07
1.55321e-07
-9.58867e-07
1.55061e-07
-9.90256e-07
1.54676e-07
-1.02161e-06
1.54194e-07
-1.05295e-06
1.53641e-07
-1.08427e-06
1.53036e-07
-1.11556e-06
1.52397e-07
-1.14683e-06
1.51737e-07
-1.17806e-06
1.51065e-07
-1.20924e-06
1.50388e-07
-1.24038e-06
1.49708e-07
-1.27145e-06
1.49023e-07
-1.30244e-06
1.48331e-07
-1.33336e-06
1.47629e-07
-1.36419e-06
1.46912e-07
-1.39491e-06
1.46172e-07
-1.42551e-06
1.45405e-07
-1.45599e-06
1.44603e-07
-1.48632e-06
1.43759e-07
-1.51649e-06
1.42863e-07
-1.54648e-06
1.4191e-07
-1.57627e-06
1.4089e-07
-1.60585e-06
1.39796e-07
-1.63518e-06
1.38621e-07
-1.66425e-06
1.37355e-07
-1.69304e-06
1.35993e-07
-1.7215e-06
1.34527e-07
-1.74963e-06
1.3295e-07
-1.77738e-06
1.31256e-07
-1.80474e-06
1.29439e-07
-1.83166e-06
1.27493e-07
-1.85812e-06
1.25413e-07
-1.88409e-06
1.23195e-07
-1.90952e-06
1.20834e-07
-1.93439e-06
1.18327e-07
-1.95867e-06
1.15671e-07
-1.9823e-06
1.12861e-07
-2.00527e-06
1.09898e-07
-2.02753e-06
1.06777e-07
-2.04904e-06
1.03499e-07
-2.06977e-06
1.00062e-07
-2.08969e-06
9.64657e-08
-2.10874e-06
9.27103e-08
-2.12691e-06
8.87961e-08
-2.14414e-06
8.4724e-08
-2.16041e-06
8.04952e-08
-2.17567e-06
7.61115e-08
-2.1899e-06
7.15748e-08
-2.20306e-06
6.68878e-08
-2.21511e-06
6.20533e-08
-2.22603e-06
5.70748e-08
-2.23577e-06
5.19559e-08
-2.24433e-06
4.67006e-08
-2.25165e-06
4.13136e-08
-2.25774e-06
3.58007e-08
-2.26255e-06
3.01686e-08
-2.26607e-06
2.44256e-08
-2.26828e-06
1.85812e-08
-2.26917e-06
1.2647e-08
-2.26872e-06
6.63613e-09
-2.2669e-06
5.62775e-10
-2.26368e-06
-5.56189e-09
-2.25902e-06
-1.17375e-08
-2.25289e-06
-1.79749e-08
-2.24526e-06
-2.4278e-08
-2.23613e-06
-3.06385e-08
-2.22548e-06
-3.70463e-08
-2.21329e-06
-4.34908e-08
-2.19957e-06
-4.99617e-08
-2.1843e-06