/*--------------------------------*- C++ -*----------------------------------*\
| =========                 |                                                 |
| \\      /  F ield         | OpenFOAM: The Open Source CFD Toolbox           |
|  \\    /   O peration     | Version:  2312                                  |
|   \\  /    A nd           | Website:  www.openfoam.com                      |
|    \\/     M anipulation  |                                                 |
\*---------------------------------------------------------------------------*/
FoamFile
{
    version     2.0;
    format      ascii;
    arch        "LSB;label=32;scalar=64";
    class       volVectorField;
    location    "250";
    object      U;
}
// * * * * * * * * * * * * * * * * * * * * * * * * * * * * * * * * * * * * * //

dimensions      [0 1 -1 0 0 0 0];

internalField   nonuniform List<vector> 
12225
(
(9.84118 -0.956371 0)
(9.59253 -0.887947 0)
(9.31755 -0.59449 0)
(9.0147 -0.370009 0)
(8.72576 -0.225974 0)
(8.4671 -0.137865 0)
(8.23999 -0.0844803 0)
(8.04167 -0.0516234 0)
(7.86969 -0.0312267 0)
(7.72064 -0.0185923 0)
(7.5915 -0.0106504 0)
(7.47916 -0.00571143 0)
(7.38142 -0.00270866 0)
(7.29634 -0.000996073 0)
(7.22221 -0.000111439 0)
(7.16003 -0.000478599 0)
(7.10022 0.00264709 0)
(7.07199 -0.0177837 0)
(10.0722 0.255857 0)
(10.1867 0.418359 0)
(10.2285 0.384146 0)
(10.2296 0.310413 0)
(10.2114 0.24569 0)
(10.1794 0.195445 0)
(10.1334 0.157688 0)
(10.0759 0.129681 0)
(10.0105 0.108834 0)
(9.94084 0.093103 0)
(9.86923 0.0809307 0)
(9.79741 0.0713205 0)
(9.72646 0.0635264 0)
(9.65752 0.0570746 0)
(9.59098 0.0513239 0)
(9.52779 0.0467275 0)
(9.46855 0.0402596 0)
(9.41521 0.0403916 0)
(10.0032 0.0599592 0)
(10.0309 0.0483015 0)
(10.0614 0.0100106 0)
(10.0898 1.07758e-05 0)
(10.1151 0.00817846 0)
(10.1376 0.019436 0)
(10.1547 0.0290273 0)
(10.1657 0.0365135 0)
(10.1714 0.0420749 0)
(10.173 0.0459313 0)
(10.1711 0.0483966 0)
(10.1662 0.0497665 0)
(10.1591 0.050278 0)
(10.1502 0.0500816 0)
(10.14 0.0492148 0)
(10.1291 0.0476885 0)
(10.1182 0.0452241 0)
(10.1062 0.0404683 0)
(9.99715 0.00991968 0)
(10.009 0.026101 0)
(10.0342 0.038313 0)
(10.0554 0.0534021 0)
(10.0721 0.0649332 0)
(10.0875 0.070275 0)
(10.1015 0.0714281 0)
(10.1134 0.0706735 0)
(10.1236 0.069096 0)
(10.1325 0.0671225 0)
(10.1404 0.0649524 0)
(10.1472 0.0627088 0)
(10.1532 0.0604126 0)
(10.1584 0.0580438 0)
(10.1631 0.0554677 0)
(10.1674 0.0525467 0)
(10.1712 0.0488035 0)
(10.1742 0.0431317 0)
(9.99907 0.00681206 0)
(10.0082 0.0343105 0)
(10.0279 0.0483636 0)
(10.0436 0.0549077 0)
(10.0558 0.0583758 0)
(10.0678 0.0595578 0)
(10.0793 0.0593277 0)
(10.0897 0.0585856 0)
(10.0991 0.0576927 0)
(10.1077 0.0566836 0)
(10.1157 0.0555504 0)
(10.1232 0.0542882 0)
(10.1302 0.0528742 0)
(10.1369 0.0512522 0)
(10.1433 0.0493053 0)
(10.1495 0.0468782 0)
(10.1553 0.0436497 0)
(10.1604 0.0393128 0)
(10.0002 0.00924617 0)
(10.008 0.0334174 0)
(10.0236 0.0440863 0)
(10.0369 0.0484157 0)
(10.0478 0.0518776 0)
(10.0585 0.0542756 0)
(10.069 0.0553079 0)
(10.0785 0.0554715 0)
(10.0871 0.0551594 0)
(10.0951 0.0545023 0)
(10.1026 0.0535544 0)
(10.1097 0.0523586 0)
(10.1165 0.0509261 0)
(10.123 0.0492283 0)
(10.1293 0.0471814 0)
(10.1354 0.0446681 0)
(10.1411 0.04152 0)
(10.1462 0.037616 0)
(10.0003 0.00912855 0)
(10.007 0.0287656 0)
(10.0201 0.0389053 0)
(10.0322 0.0440416 0)
(10.0425 0.048145 0)
(10.0525 0.0509487 0)
(10.0622 0.0521942 0)
(10.0711 0.0524295 0)
(10.0793 0.0521182 0)
(10.0868 0.0514355 0)
(10.094 0.0504513 0)
(10.1008 0.0492111 0)
(10.1073 0.0477305 0)
(10.1136 0.0459843 0)
(10.1196 0.04391 0)
(10.1253 0.041422 0)
(10.1306 0.0384312 0)
(10.1354 0.0348998 0)
(10.0004 0.00814766 0)
(10.006 0.0247188 0)
(10.0171 0.0348958 0)
(10.0283 0.0405444 0)
(10.0381 0.044624 0)
(10.0475 0.0473391 0)
(10.0566 0.0486192 0)
(10.0652 0.0489359 0)
(10.073 0.0487022 0)
(10.0804 0.0480849 0)
(10.0873 0.0471525 0)
(10.0939 0.0459474 0)
(10.1002 0.0444884 0)
(10.1062 0.0427584 0)
(10.1119 0.0407173 0)
(10.1173 0.0383121 0)
(10.1223 0.0355058 0)
(10.1267 0.0323157 0)
(10.0004 0.00721274 0)
(10.0052 0.0215259 0)
(10.0146 0.0312809 0)
(10.0248 0.0369636 0)
(10.0341 0.0408631 0)
(10.0429 0.0434929 0)
(10.0516 0.0448578 0)
(10.0598 0.0453002 0)
(10.0675 0.0451685 0)
(10.0746 0.0446284 0)
(10.0814 0.0437533 0)
(10.0878 0.0425882 0)
(10.0939 0.0411578 0)
(10.0997 0.0394579 0)
(10.1052 0.0374693 0)
(10.1103 0.0351679 0)
(10.115 0.03255 0)
(10.1192 0.0296624 0)
(10.0004 0.00637421 0)
(10.0045 0.0187528 0)
(10.0125 0.0277595 0)
(10.0216 0.0333026 0)
(10.0303 0.0370519 0)
(10.0387 0.0396065 0)
(10.0469 0.0410247 0)
(10.0548 0.0415575 0)
(10.0622 0.0415015 0)
(10.0692 0.0410224 0)
(10.0758 0.0401981 0)
(10.082 0.0390765 0)
(10.088 0.0376873 0)
(10.0936 0.0360385 0)
(10.0989 0.0341276 0)
(10.1038 0.0319531 0)
(10.1082 0.0295305 0)
(10.1123 0.0269195 0)
(10.0004 0.0055848 0)
(10.0039 0.0162561 0)
(10.0107 0.0243977 0)
(10.0189 0.0296929 0)
(10.0269 0.0332718 0)
(10.0348 0.0357091 0)
(10.0426 0.0371186 0)
(10.0501 0.0376965 0)
(10.0573 0.0376907 0)
(10.064 0.0372593 0)
(10.0704 0.0364827 0)
(10.0765 0.0354099 0)
(10.0822 0.0340748 0)
(10.0877 0.0324954 0)
(10.0928 0.0306823 0)
(10.0975 0.0286493 0)
(10.1018 0.0264225 0)
(10.1057 0.0240651 0)
(10.0003 0.00488041 0)
(10.0034 0.0141562 0)
(10.0093 0.0214734 0)
(10.0167 0.0264463 0)
(10.0242 0.0298243 0)
(10.0316 0.0321171 0)
(10.039 0.0334753 0)
(10.0461 0.0340617 0)
(10.053 0.0340824 0)
(10.0595 0.0336836 0)
(10.0657 0.0329459 0)
(10.0716 0.0319195 0)
(10.0772 0.0306414 0)
(10.0825 0.0291366 0)
(10.0874 0.0274249 0)
(10.0919 0.0255287 0)
(10.0961 0.0234784 0)
(10.0999 0.021337 0)
(10.0003 0.00421982 0)
(10.003 0.0122311 0)
(10.0082 0.0187115 0)
(10.0148 0.0232803 0)
(10.0217 0.0264183 0)
(10.0287 0.0285434 0)
(10.0357 0.0298202 0)
(10.0425 0.0303892 0)
(10.0491 0.0304202 0)
(10.0554 0.0300446 0)
(10.0614 0.0293415 0)
(10.0671 0.028362 0)
(10.0724 0.0271452 0)
(10.0775 0.025721 0)
(10.0823 0.0241151 0)
(10.0866 0.0223555 0)
(10.0907 0.0204734 0)
(10.0943 0.0185305 0)
(10.0003 0.00353162 0)
(10.0026 0.0102243 0)
(10.0071 0.0157483 0)
(10.0129 0.0197746 0)
(10.0193 0.0225781 0)
(10.0258 0.0244711 0)
(10.0323 0.0256139 0)
(10.0387 0.0261272 0)
(10.045 0.0261459 0)
(10.051 0.0257825 0)
(10.0567 0.0251119 0)
(10.0622 0.024185 0)
(10.0674 0.0230414 0)
(10.0722 0.0217142 0)
(10.0768 0.0202327 0)
(10.081 0.0186275 0)
(10.0849 0.0169285 0)
(10.0884 0.0151938 0)
(10.0002 0.00281205 0)
(10.0022 0.00813206 0)
(10.006 0.0125941 0)
(10.0112 0.0159372 0)
(10.0169 0.0182936 0)
(10.0229 0.0198744 0)
(10.0289 0.0208178 0)
(10.035 0.0212249 0)
(10.0409 0.0211987 0)
(10.0466 0.0208303 0)
(10.0521 0.0201866 0)
(10.0573 0.0193157 0)
(10.0622 0.0182562 0)
(10.0669 0.0170414 0)
(10.0712 0.0157013 0)
(10.0752 0.0142659 0)
(10.0789 0.0127624 0)
(10.0824 0.0112423 0)
(10.0002 0.00206141 0)
(10.0019 0.00595717 0)
(10.0052 0.00925954 0)
(10.0097 0.0117768 0)
(10.0148 0.0135576 0)
(10.0202 0.0147286 0)
(10.0258 0.0153935 0)
(10.0314 0.0156306 0)
(10.037 0.0155147 0)
(10.0424 0.0151148 0)
(10.0475 0.0144855 0)
(10.0525 0.013669 0)
(10.0572 0.0126998 0)
(10.0616 0.0116082 0)
(10.0657 0.0104218 0)
(10.0696 0.0091672 0)
(10.0732 0.00786663 0)
(10.0765 0.00656452 0)
(10.0002 0.0012782 0)
(10.0016 0.00368795 0)
(10.0045 0.00573057 0)
(10.0084 0.00728034 0)
(10.013 0.00834699 0)
(10.018 0.00899531 0)
(10.0231 0.00928953 0)
(10.0283 0.00928194 0)
(10.0335 0.0090214 0)
(10.0386 0.00855395 0)
(10.0435 0.0079188 0)
(10.0482 0.00714789 0)
(10.0526 0.00626819 0)
(10.0568 0.00530378 0)
(10.0608 0.00427648 0)
(10.0645 0.00320718 0)
(10.068 0.0021119 0)
(10.0712 0.00102678 0)
(10.0002 0.000447011 0)
(10.0014 0.00127371 0)
(10.004 0.00193493 0)
(10.0075 0.0023674 0)
(10.0117 0.00257041 0)
(10.0163 0.00256742 0)
(10.0211 0.00238462 0)
(10.026 0.00204575 0)
(10.0309 0.00157443 0)
(10.0357 0.000993506 0)
(10.0404 0.000323235 0)
(10.0448 -0.00041887 0)
(10.0491 -0.00121715 0)
(10.0531 -0.00205707 0)
(10.0569 -0.00292513 0)
(10.0605 -0.00380822 0)
(10.0639 -0.00469714 0)
(10.067 -0.00556462 0)
(10.0001 -0.000475062 0)
(10.0014 -0.00140833 0)
(10.0038 -0.002305 0)
(10.0071 -0.00316275 0)
(10.0112 -0.00397772 0)
(10.0156 -0.00476064 0)
(10.0202 -0.00552556 0)
(10.025 -0.00628 0)
(10.0297 -0.00702656 0)
(10.0343 -0.00776716 0)
(10.0389 -0.00850363 0)
(10.0432 -0.00923661 0)
(10.0474 -0.00996535 0)
(10.0513 -0.010688 0)
(10.055 -0.011402 0)
(10.0585 -0.0121038 0)
(10.0618 -0.0127921 0)
(10.0649 -0.0134496 0)
(10.0002 -0.00134829 0)
(10.0014 -0.00395792 0)
(10.004 -0.00634842 0)
(10.0075 -0.00843569 0)
(10.0117 -0.0102072 0)
(10.0163 -0.0117175 0)
(10.021 -0.0130226 0)
(10.0259 -0.0141571 0)
(10.0307 -0.0151491 0)
(10.0354 -0.016028 0)
(10.0399 -0.0168188 0)
(10.0443 -0.0175396 0)
(10.0484 -0.0182036 0)
(10.0524 -0.0188205 0)
(10.0561 -0.0193979 0)
(10.0596 -0.0199406 0)
(10.0629 -0.0204536 0)
(10.066 -0.0209278 0)
(10.0002 -0.00208846 0)
(10.0016 -0.00615393 0)
(10.0043 -0.0098478 0)
(10.0083 -0.0129426 0)
(10.0129 -0.0154452 0)
(10.0177 -0.0175057 0)
(10.0227 -0.0192221 0)
(10.0278 -0.0206343 0)
(10.0328 -0.0217876 0)
(10.0376 -0.0227395 0)
(10.0423 -0.0235391 0)
(10.0467 -0.024221 0)
(10.051 -0.0248105 0)
(10.055 -0.0253276 0)
(10.0588 -0.0257876 0)
(10.0623 -0.0262014 0)
(10.0656 -0.0265782 0)
(10.0688 -0.0269149 0)
(10.0002 -0.00277263 0)
(10.0017 -0.00828774 0)
(10.0049 -0.0133152 0)
(10.0094 -0.0173267 0)
(10.0145 -0.0204036 0)
(10.0198 -0.0228775 0)
(10.0251 -0.0249019 0)
(10.0305 -0.0265171 0)
(10.0357 -0.0277836 0)
(10.0408 -0.0287798 0)
(10.0456 -0.029568 0)
(10.0502 -0.030193 0)
(10.0546 -0.0306914 0)
(10.0586 -0.0310937 0)
(10.0625 -0.0314234 0)
(10.0661 -0.0316974 0)
(10.0695 -0.0319284 0)
(10.0726 -0.0321163 0)
(10.0001 -0.00338146 0)
(10.0017 -0.0103971 0)
(10.0055 -0.0167673 0)
(10.0109 -0.021608 0)
(10.0166 -0.0252288 0)
(10.0223 -0.0280856 0)
(10.028 -0.0303058 0)
(10.0337 -0.031974 0)
(10.0393 -0.0332341 0)
(10.0445 -0.034204 0)
(10.0496 -0.0349491 0)
(10.0543 -0.0355136 0)
(10.0588 -0.0359381 0)
(10.063 -0.0362579 0)
(10.0669 -0.0364995 0)
(10.0706 -0.0366815 0)
(10.074 -0.0368188 0)
(10.0772 -0.0369167 0)
(10.0001 -0.00387049 0)
(10.0016 -0.0128894 0)
(10.0061 -0.0203164 0)
(10.0124 -0.0253769 0)
(10.0188 -0.0294322 0)
(10.025 -0.0328925 0)
(10.0312 -0.0354898 0)
(10.0373 -0.0372544 0)
(10.0431 -0.0384516 0)
(10.0486 -0.0392823 0)
(10.0538 -0.0398444 0)
(10.0587 -0.0402032 0)
(10.0633 -0.0404172 0)
(10.0676 -0.0405344 0)
(10.0716 -0.0405872 0)
(10.0754 -0.0405975 0)
(10.0789 -0.0405783 0)
(10.0821 -0.0405266 0)
(9.9998 -0.00354823 0)
(10.0012 -0.0165487 0)
(10.007 -0.0255177 0)
(10.0141 -0.0296895 0)
(10.0207 -0.0330086 0)
(10.0273 -0.0364609 0)
(10.0342 -0.03939 0)
(10.0409 -0.0415638 0)
(10.0473 -0.0431416 0)
(10.0532 -0.0442704 0)
(10.0588 -0.0450307 0)
(10.064 -0.045497 0)
(10.0689 -0.0457461 0)
(10.0734 -0.0458426 0)
(10.0776 -0.045834 0)
(10.0815 -0.0457538 0)
(10.0852 -0.0456276 0)
(10.0886 -0.0454652 0)
(9.99829 8.77613e-07 0)
(9.99797 -0.0176182 0)
(10.0068 -0.0315007 0)
(10.0162 -0.037584 0)
(10.0234 -0.0402792 0)
(10.0303 -0.0418282 0)
(10.0379 -0.0427816 0)
(10.0455 -0.0434737 0)
(10.0527 -0.0440711 0)
(10.0594 -0.0445818 0)
(10.0657 -0.0449725 0)
(10.0716 -0.0452548 0)
(10.0771 -0.0454509 0)
(10.0821 -0.0455885 0)
(10.0868 -0.045682 0)
(10.0911 -0.0457478 0)
(10.0951 -0.045791 0)
(10.0987 -0.0457795 0)
(9.99413 0.00277693 0)
(9.98996 -0.00759973 0)
(10.0032 -0.022858 0)
(10.0185 -0.0396774 0)
(10.0302 -0.053067 0)
(10.0403 -0.0608366 0)
(10.0501 -0.064371 0)
(10.0593 -0.0656168 0)
(10.0678 -0.0657022 0)
(10.0756 -0.0650748 0)
(10.083 -0.0640171 0)
(10.0897 -0.062719 0)
(10.0959 -0.0613434 0)
(10.1016 -0.0599707 0)
(10.1067 -0.058666 0)
(10.1114 -0.0574586 0)
(10.1157 -0.0563742 0)
(10.1196 -0.0553654 0)
(9.9942 -0.0305071 0)
(9.99526 -0.0134565 0)
(10.0086 0.0215206 0)
(10.0272 0.0320196 0)
(10.047 0.0241461 0)
(10.0668 0.0116052 0)
(10.085 -0.000111472 0)
(10.1007 -0.0103259 0)
(10.1139 -0.0189643 0)
(10.1251 -0.0260355 0)
(10.1343 -0.0316345 0)
(10.1418 -0.0360041 0)
(10.1476 -0.0393755 0)
(10.152 -0.0419663 0)
(10.155 -0.0439399 0)
(10.1569 -0.0454654 0)
(10.1579 -0.0466722 0)
(10.1579 -0.0477056 0)
(10.0368 -0.209412 0)
(10.1083 -0.365899 0)
(10.1423 -0.352746 0)
(10.1567 -0.298034 0)
(10.1697 -0.247622 0)
(10.182 -0.206789 0)
(10.1884 -0.174352 0)
(10.1867 -0.148988 0)
(10.1774 -0.129269 0)
(10.1619 -0.113744 0)
(10.1414 -0.101346 0)
(10.1169 -0.0913148 0)
(10.0894 -0.0831198 0)
(10.0598 -0.0763552 0)
(10.0288 -0.0707402 0)
(9.99693 -0.0660951 0)
(9.96472 -0.0622693 0)
(9.93284 -0.059564 0)
(9.92866 0.765531 0)
(9.83924 0.742069 0)
(9.70534 0.524432 0)
(9.52636 0.348784 0)
(9.33186 0.227692 0)
(9.14063 0.146988 0)
(8.95883 0.0935851 0)
(8.78893 0.0579915 0)
(8.63234 0.034127 0)
(8.48968 0.0181105 0)
(8.36032 0.00744625 0)
(8.24346 0.000468671 0)
(8.13793 -0.00407868 0)
(8.04264 -0.00693178 0)
(7.9565 -0.00860921 0)
(7.87853 -0.00954667 0)
(7.80737 -0.0100279 0)
(7.74264 -0.0106386 0)
(0.00320844 -0.00594027 5.73864e-17)
(0.0128097 -0.0139123 -4.91042e-17)
(0.0250207 -0.0179766 0)
(0.0376519 -0.0183417 0)
(0.048471 -0.0161325 0)
(0.0566164 -0.0125717 2.82675e-17)
(0.0618913 -0.00854293 0)
(0.0644212 -0.00457504 0)
(0.06429 -0.00101532 0)
(0.0619015 0.00188142 0)
(0.0577909 0.00404153 -2.66242e-17)
(0.0523451 0.00557811 0)
(0.0458655 0.00668827 0)
(0.0385467 0.00757505 0)
(0.0304734 0.00840741 0)
(0.0216491 0.00929588 -3.0927e-17)
(0.0120197 0.0102602 0)
(0.00150206 0.0112003 0)
(-0.0100209 0.0120177 0)
(-0.0227116 0.0127983 0)
(-0.0367173 0.0136685 0)
(-0.0521696 0.0146842 0)
(-0.0692005 0.0158683 0)
(-0.0879351 0.0172299 -1.98133e-17)
(-0.108483 0.0187633 1.80843e-17)
(-0.130927 0.0204408 -1.65179e-17)
(-0.155308 0.0222114 -1.51058e-17)
(-0.181632 0.0240262 0)
(-0.209866 0.0258371 0)
(-0.239944 0.0275997 1.16861e-17)
(-0.271765 0.0292749 1.07806e-17)
(-0.305206 0.0308282 0)
(-0.340126 0.03223 0)
(-0.37637 0.033457 8.61421e-18)
(-0.413771 0.0344937 0)
(-0.452155 0.0353315 0)
(-0.491355 0.0359734 -7.07551e-18)
(-0.53121 0.0364285 0)
(-0.571569 0.0367087 -6.2985e-18)
(-0.612295 0.0368285 -1.19346e-17)
(-0.653264 0.0368035 0)
(-0.694369 0.0366521 0)
(-0.735526 0.0363959 0)
(-0.776665 0.0360623 0)
(-0.81773 0.0356834 0)
(-0.858665 0.0352946 -9.06636e-18)
(-0.899415 0.0349298 -8.71763e-18)
(-0.94009 0.0345907 -8.39562e-18)
(-0.980656 0.0342591 0)
(-1.02112 0.0339385 7.82028e-18)
(-1.06149 0.0336244 0)
(-1.10177 0.033317 -7.32103e-18)
(-1.14196 0.0330146 -7.09532e-18)
(-1.18205 0.0327167 0)
(-1.22206 0.0324215 0)
(-1.26196 0.0321278 0)
(-1.30176 0.0318338 -6.32025e-18)
(-1.34146 0.031538 0)
(-1.38104 0.0312382 0)
(-1.42049 0.0309328 0)
(-1.45979 0.0306198 0)
(-1.49894 0.0302975 0)
(-1.53791 0.0299638 0)
(-1.57668 0.0296171 0)
(-1.61522 0.0292557 0)
(-1.65352 0.0288781 5.09281e-18)
(-1.69155 0.0284826 0)
(-1.72926 0.0280683 0)
(-1.76664 0.0276338 -4.79222e-18)
(-1.80364 0.0271782 -4.70124e-18)
(-1.84024 0.0267006 0)
(-1.87639 0.0262003 4.53175e-18)
(-1.91206 0.0256766 -4.45286e-18)
(-1.94721 0.0251292 0)
(-1.98179 0.0245576 4.30592e-18)
(-2.01576 0.0239617 0)
(-2.04908 0.0233415 0)
(-2.08171 0.0226971 -4.11046e-18)
(-2.1136 0.0220285 0)
(-2.1447 0.021336 3.99531e-18)
(-2.17498 0.0206198 0)
(-2.20438 0.0198803 -3.89131e-18)
(-2.23286 0.0191177 -3.84327e-18)
(-2.26038 0.0183325 -3.79774e-18)
(-2.28688 0.017525 -7.50934e-18)
(-2.31233 0.0166956 7.42796e-18)
(-2.33668 0.0158446 0)
(-2.35988 0.0149724 0)
(-2.38188 0.0140784 0)
(-2.40265 0.0131612 7.14772e-18)
(-2.42214 0.0122189 7.08847e-18)
(-2.44029 0.0112487 -7.03338e-18)
(-2.45707 0.0102472 0)
(-2.47242 0.00920955 6.93549e-18)
(-2.48629 0.00812881 6.89264e-18)
(-2.4986 0.00699661 6.85387e-18)
(-2.5093 0.00580437 0)
(-2.51829 0.00454825 0)
(-2.52549 0.00324184 0)
(-2.53082 0.00193784 6.7415e-18)
(-2.53412 0.00073019 0)
(-2.5354 -0.000310541 0)
(-2.53515 -0.00124633 -6.69656e-18)
(-2.53329 -0.00216062 0)
(-2.52985 -0.003065 0)
(-2.52482 -0.00396579 -6.68127e-18)
(-2.5182 -0.00486316 0)
(-2.50998 -0.00575684 0)
(-2.50014 -0.00664581 6.69655e-18)
(-2.48869 -0.007529 6.70854e-18)
(-2.47562 -0.00840521 0)
(-2.46093 -0.0092732 -6.74306e-18)
(-2.44463 -0.0101318 0)
(-2.42672 -0.0109796 6.79197e-18)
(-2.4072 -0.0118156 0)
(-2.38609 -0.0126383 6.85572e-18)
(-2.36341 -0.0134465 6.89332e-18)
(-2.33916 -0.0142387 0)
(-2.31337 -0.0150139 0)
(-2.28606 -0.015771 0)
(-2.25726 -0.0165091 0)
(-2.22698 -0.0172271 0)
(-2.19526 -0.0179238 0)
(-2.16213 -0.018598 0)
(-2.12763 -0.0192492 7.34315e-18)
(-2.09179 -0.0198762 -7.41963e-18)
(-2.05465 -0.0204789 0)
(-2.01625 -0.0210567 0)
(-1.97663 -0.0216101 0)
(-1.93583 -0.0221394 0)
(-1.8939 -0.0226431 -1.57584e-17)
(-1.85087 -0.0231234 0)
(-1.80679 -0.023581 1.62045e-17)
(-1.76169 -0.0240124 -1.64468e-17)
(-1.71563 -0.024418 0)
(-1.66865 -0.0247978 0)
(-1.62081 -0.0251547 0)
(-1.57214 -0.0254896 1.7554e-17)
(-1.52268 -0.0258013 1.78684e-17)
(-1.47248 -0.0260917 0)
(-1.42159 -0.0263627 1.85476e-17)
(-1.37005 -0.0266159 1.89142e-17)
(-1.3179 -0.0268528 -1.93e-17)
(-1.26518 -0.0270747 0)
(-1.21192 -0.027283 0)
(-1.15816 -0.0274796 -2.0585e-17)
(-1.10393 -0.0276666 0)
(-1.04926 -0.0278459 0)
(-0.994191 -0.0280197 0)
(-0.938737 -0.0281904 0)
(-0.882926 -0.0283603 2.32391e-17)
(-0.826777 -0.028532 2.38639e-17)
(-0.77031 -0.0287081 0)
(-0.713539 -0.0288912 2.52277e-17)
(-0.656478 -0.0290838 0)
(-0.599137 -0.0292883 0)
(-0.541524 -0.029507 2.76114e-17)
(-0.483644 -0.0297421 0)
(-0.425502 -0.0299959 2.94784e-17)
(-0.367098 -0.0302703 0)
(-0.308434 -0.0305654 0)
(-0.249509 -0.0308845 3.28212e-17)
(-0.190322 -0.0312433 0)
(-0.130884 -0.0316497 3.55173e-17)
(-0.0712261 -0.032051 0)
(-0.0114471 -0.0322083 0)
(0.0482708 -0.031792 0)
(0.10815 -0.0310563 -3.58097e-17)
(0.168318 -0.0303653 0)
(0.228755 -0.0297401 3.28852e-17)
(0.289489 -0.0291651 0)
(0.350528 -0.0286216 0)
(0.411838 -0.0280854 0)
(0.47331 -0.0275212 0)
(0.534769 -0.0268689 0)
(0.595633 -0.0260159 0)
(0.655638 -0.024695 0)
(0.710088 -0.0222886 -5.02226e-17)
(0.76492 -0.0173911 0)
(0.768544 2.65093e-05 0)
(0.00600994 -0.0271352 -1.3737e-16)
(0.017148 -0.0393967 8.33622e-17)
(0.0248446 -0.0379236 0)
(0.0295118 -0.0318518 -2.64827e-17)
(0.0317123 -0.0240227 0)
(0.0317052 -0.0156676 -1.03328e-17)
(0.0297716 -0.00750633 1.9672e-17)
(0.0261223 3.36112e-05 1.90866e-17)
(0.0209474 0.00667577 0)
(0.014271 0.0122672 1.86706e-17)
(0.00606874 0.0168297 9.33923e-18)
(-0.00364615 0.0205366 0)
(-0.014861 0.0236429 0)
(-0.0275608 0.0264187 0)
(-0.0417459 0.0290947 0)
(-0.0574434 0.0318413 7.97461e-18)
(-0.0747155 0.0347577 0)
(-0.0936344 0.0378807 -1.48006e-17)
(-0.114227 0.0412219 0)
(-0.136504 0.0448048 0)
(-0.160512 0.0486416 1.31925e-17)
(-0.186291 0.0527102 0)
(-0.213843 0.0569585 -1.21476e-17)
(-0.24313 0.061313 5.81518e-18)
(-0.274074 0.0656917 -5.55898e-18)
(-0.306562 0.0700152 5.30671e-18)
(-0.340466 0.0742004 5.0613e-18)
(-0.375642 0.0781606 0)
(-0.411931 0.0818213 0)
(-0.449166 0.0851231 -4.38535e-18)
(-0.487177 0.0880227 4.18371e-18)
(-0.5258 0.090496 0)
(-0.564875 0.0925359 0)
(-0.604257 0.0941397 -3.65027e-18)
(-0.64381 0.0953112 0)
(-0.683424 0.0960767 0)
(-0.723007 0.0964713 3.21722e-18)
(-0.762486 0.0965368 0)
(-0.801804 0.0963165 -2.97737e-18)
(-0.84092 0.0958542 5.73958e-18)
(-0.879806 0.0951914 0)
(-0.918446 0.0943667 0)
(-0.956839 0.0934161 1.03602e-17)
(-0.994991 0.092375 1.00361e-17)
(-1.03292 0.0912808 9.73304e-18)
(-1.07062 0.090172 -4.72456e-18)
(-1.10812 0.0890831 4.59063e-18)
(-1.1454 0.0880247 1.3394e-17)
(-1.18246 0.0869897 -8.69128e-18)
(-1.21931 0.0859765 -4.2328e-18)
(-1.25594 0.0849816 0)
(-1.29237 0.0840023 4.02453e-18)
(-1.32859 0.0830353 -3.92835e-18)
(-1.3646 0.0820772 0)
(-1.40041 0.0811241 0)
(-1.436 0.0801723 0)
(-1.47138 0.0792174 3.58506e-18)
(-1.50652 0.0782554 0)
(-1.54143 0.077282 -6.87098e-18)
(-1.57609 0.0762931 0)
(-1.61048 0.0752845 -6.59591e-18)
(-1.64458 0.0742525 0)
(-1.67838 0.0731932 6.34248e-18)
(-1.71186 0.0721034 0)
(-1.74499 0.0709797 -6.10842e-18)
(-1.77774 0.0698195 2.99916e-18)
(-1.8101 0.0686198 0)
(-1.84204 0.0673787 5.78963e-18)
(-1.87352 0.066094 2.84548e-18)
(-1.90452 0.0647644 2.7981e-18)
(-1.93501 0.0633882 0)
(-1.96495 0.0619647 2.70877e-18)
(-1.99431 0.0604929 2.66619e-18)
(-2.02306 0.0589726 0)
(-2.05117 0.0574033 -2.58617e-18)
(-2.07859 0.0557853 5.09695e-18)
(-2.1053 0.0541189 0)
(-2.13125 0.0524048 2.47693e-18)
(-2.15642 0.0506436 0)
(-2.18076 0.0488364 -7.23248e-18)
(-2.20424 0.0469841 0)
(-2.22682 0.0450883 7.04886e-18)
(-2.24848 0.0431501 2.32074e-18)
(-2.26916 0.0411712 -2.2932e-18)
(-2.28883 0.0391528 -4.5332e-18)
(-2.30747 0.0370967 4.48217e-18)
(-2.32503 0.0350046 0)
(-2.34147 0.0328784 0)
(-2.35677 0.03072 0)
(-2.37089 0.0285304 -1.2895e-17)
(-2.3838 0.0263103 -4.25724e-18)
(-2.39546 0.0240599 4.21805e-18)
(-2.40585 0.0217792 0)
(-2.41493 0.0194673 4.14514e-18)
(-2.42269 0.017123 -4.11119e-18)
(-2.42912 0.0147444 -4.07905e-18)
(-2.43419 0.0123281 0)
(-2.43793 0.00987003 0)
(-2.44038 0.00737195 0)
(-2.4416 0.0048632 -3.96815e-18)
(-2.4417 0.00241935 0)
(-2.44073 0.00011839 7.83795e-18)
(-2.43829 -0.00207451 1.16898e-17)
(-2.43436 -0.00422784 -7.75135e-18)
(-2.42889 -0.00635347 0)
(-2.42187 -0.00845779 -3.83826e-18)
(-2.41329 -0.0105404 0)
(-2.40312 -0.0125996 -7.61386e-18)
(-2.39137 -0.0146327 3.79319e-18)
(-2.37804 -0.0166367 3.78102e-18)
(-2.36311 -0.0186089 0)
(-2.34659 -0.020546 1.12835e-17)
(-2.32848 -0.0224454 -7.50621e-18)
(-2.30878 -0.024304 -3.74674e-18)
(-2.28752 -0.0261193 0)
(-2.26469 -0.0278886 -3.73762e-18)
(-2.24031 -0.0296093 -1.12047e-17)
(-2.21439 -0.0312788 0)
(-2.18696 -0.0328946 -7.4674e-18)
(-2.15804 -0.0344547 -7.47027e-18)
(-2.12764 -0.0359573 -7.47577e-18)
(-2.09581 -0.0374005 0)
(-2.06256 -0.0387827 0)
(-2.02792 -0.0401019 0)
(-1.99194 -0.0413571 3.76153e-18)
(-1.95464 -0.0425467 3.77154e-18)
(-1.91606 -0.0436705 0)
(-1.87625 -0.0447276 7.58683e-18)
(-1.83524 -0.0457188 7.61286e-18)
(-1.79307 -0.0466448 0)
(-1.74979 -0.0475081 7.67332e-18)
(-1.70544 -0.0483121 1.54116e-17)
(-1.66005 -0.0490592 -7.74216e-18)
(-1.61366 -0.0497405 -7.77885e-18)
(-1.56633 -0.0503509 0)
(-1.5181 -0.0509015 0)
(-1.46901 -0.0513967 0)
(-1.4191 -0.051835 -7.96007e-18)
(-1.36842 -0.0522173 8.00891e-18)
(-1.317 -0.0525461 1.61263e-17)
(-1.2649 -0.052825 -8.11985e-18)
(-1.21215 -0.0530569 8.17588e-18)
(-1.15879 -0.0532453 8.23838e-18)
(-1.10485 -0.0533922 0)
(-1.05037 -0.0535006 0)
(-0.99539 -0.053573 -8.43206e-18)
(-0.939931 -0.0536132 0)
(-0.884025 -0.0536235 0)
(-0.827696 -0.0536079 1.73002e-17)
(-0.77097 -0.0535689 0)
(-0.713867 -0.0535106 8.80549e-18)
(-0.656405 -0.0534357 -8.88931e-18)
(-0.598601 -0.053348 0)
(-0.540466 -0.0532502 9.0579e-18)
(-0.482011 -0.0531462 0)
(-0.423245 -0.0530378 0)
(-0.364172 -0.0529287 -9.33414e-18)
(-0.304795 -0.0528206 1.8859e-17)
(-0.245115 -0.0527162 -9.5295e-18)
(-0.185131 -0.052618 0)
(-0.124843 -0.0525278 0)
(-0.0642475 -0.0524443 9.84065e-18)
(-0.00336584 -0.0523554 0)
(0.0577955 -0.0522428 9.82269e-18)
(0.119289 -0.0521006 0)
(0.181186 -0.0518832 0)
(0.243471 -0.0515185 0)
(0.306085 -0.0510776 9.36183e-18)
(0.369013 -0.050663 0)
(0.432279 -0.0502829 -9.1777e-18)
(0.495883 -0.0499224 0)
(0.559801 -0.0495543 0)
(0.623976 -0.0491381 1.78433e-17)
(0.688282 -0.04861 -1.76853e-17)
(0.752514 -0.0478556 0)
(0.816169 -0.0466654 0)
(0.878834 -0.0445269 0)
(0.937559 -0.0405055 5.15898e-17)
(0.995607 -0.0314386 0)
(1.02924 -0.00828137 -3.49506e-17)
(0.00473914 -0.0485015 -4.46802e-22)
(0.0101203 -0.0537924 -8.51708e-17)
(0.0112529 -0.0435498 0)
(0.00977043 -0.0312906 3.69837e-17)
(0.00635224 -0.01908 0)
(0.00131402 -0.00738719 0)
(-0.00511757 0.0035535 3.97759e-23)
(-0.0128286 0.01359 -1.1663e-17)
(-0.0217992 0.0226527 -1.10984e-17)
(-0.0320665 0.0307395 -1.06783e-17)
(-0.0436991 0.0379159 0)
(-0.0567719 0.0443245 0)
(-0.0713495 0.0501686 9.7459e-18)
(-0.087477 0.055675 1.8936e-17)
(-0.105182 0.0610566 -1.83893e-17)
(-0.124477 0.0664846 0)
(-0.145368 0.0720745 -1.73196e-17)
(-0.167851 0.0778891 8.39849e-18)
(-0.191901 0.0839478 0)
(-0.217471 0.0902289 -1.57683e-17)
(-0.244491 0.0966786 -7.6272e-18)
(-0.272861 0.103218 1.474e-17)
(-0.302462 0.109746 7.113e-18)
(-0.333156 0.116147 0)
(-0.364793 0.122307 -1.32152e-17)
(-0.397223 0.128115 -1.27255e-17)
(-0.430292 0.133476 0)
(-0.46385 0.138313 -1.17871e-17)
(-0.497762 0.142564 0)
(-0.531906 0.146189 -1.09147e-17)
(-0.566177 0.149167 -5.25336e-18)
(-0.60049 0.151495 0)
(-0.634771 0.153188 0)
(-0.668953 0.154286 0)
(-0.703002 0.154839 0)
(-0.736906 0.154903 0)
(-0.770656 0.154539 0)
(-0.804251 0.153808 -8.15867e-18)
(-0.837696 0.152771 1.1843e-17)
(-0.871 0.151488 0)
(-0.904174 0.150013 0)
(-0.93723 0.148395 0)
(-0.970182 0.146678 1.00396e-22)
(-1.00304 0.1449 -6.79162e-18)
(-1.03582 0.143095 -1.3213e-17)
(-1.06852 0.141292 1.28622e-17)
(-1.10113 0.13951 6.26471e-18)
(-1.13366 0.137757 -6.10635e-18)
(-1.16609 0.136035 -1.35087e-22)
(-1.19843 0.134342 -5.8123e-18)
(-1.23067 0.132675 0)
(-1.26281 0.131031 -5.54431e-18)
(-1.29484 0.129405 -1.51131e-22)
(-1.32675 0.127789 0)
(-1.35855 0.126179 0)
(-1.39021 0.124568 5.07347e-18)
(-1.42174 0.12295 0)
(-1.45312 0.121317 0)
(-1.48434 0.119664 -4.76733e-18)
(-1.51538 0.117985 -9.34528e-18)
(-1.54622 0.116272 4.58139e-18)
(-1.57685 0.114522 0)
(-1.60725 0.112727 -4.40886e-18)
(-1.63739 0.110885 0)
(-1.66726 0.108989 -4.24852e-18)
(-1.69683 0.107036 -4.17196e-18)
(-1.72607 0.105023 8.19693e-18)
(-1.75496 0.102947 4.02743e-18)
(-1.78346 0.100804 0)
(-1.81156 0.0985928 -7.78388e-18)
(-1.83922 0.0963118 0)
(-1.86641 0.0939596 -1.12961e-17)
(-1.89309 0.0915355 -7.41054e-18)
(-1.91924 0.0890389 -7.29421e-18)
(-1.94482 0.0864699 7.18172e-18)
(-1.9698 0.0838289 -1.06093e-17)
(-1.99414 0.0811166 0)
(-2.0178 0.0783341 0)
(-2.04076 0.0754828 6.76778e-18)
(-2.06297 0.0725642 1.00091e-17)
(-2.0844 0.0695802 0)
(-2.10501 0.0665331 -3.24604e-18)
(-2.12477 0.063425 0)
(-2.14363 0.0602585 9.48574e-18)
(-2.16157 0.0570362 -1.67014e-22)
(-2.17855 0.0537609 1.54099e-22)
(-2.19454 0.0504354 -6.09261e-18)
(-2.20949 0.0470629 0)
(-2.22338 0.0436465 5.95179e-18)
(-2.23617 0.040189 -9.84314e-23)
(-2.24783 0.0366933 0)
(-2.25834 0.0331623 0)
(-2.26766 0.0295995 0)
(-2.27578 0.0260087 -5.64276e-18)
(-2.28266 0.0223951 0)
(-2.28831 0.0187659 0)
(-2.2927 0.0151316 0)
(-2.29583 0.0115072 0)
(-2.29771 0.00791338 0)
(-2.29832 0.004373 -5.34659e-18)
(-2.29763 0.000892553 0)
(-2.29558 -0.00255574 -5.25799e-18)
(-2.29208 -0.00598898 -5.21684e-18)
(-2.28713 -0.00939801 5.17762e-18)
(-2.2807 -0.0127784 0)
(-2.27276 -0.0161266 5.10481e-18)
(-2.2633 -0.0194386 0)
(-2.25232 -0.0227098 5.03929e-18)
(-2.2398 -0.0259355 -5.00918e-18)
(-2.22574 -0.0291107 -1.49419e-17)
(-2.21014 -0.0322307 0)
(-2.193 -0.0352904 -1.47869e-17)
(-2.17431 -0.0382853 -4.90524e-18)
(-2.1541 -0.0412106 0)
(-2.13235 -0.0440621 -9.72743e-18)
(-2.10909 -0.0468356 -9.69037e-18)
(-2.08432 -0.0495268 1.4485e-17)
(-2.05806 -0.0521317 0)
(-2.03034 -0.0546468 4.79927e-18)
(-2.00117 -0.0570685 4.78685e-18)
(-1.97057 -0.0593941 1.43268e-17)
(-1.93857 -0.0616207 0)
(-1.90519 -0.0637455 0)
(-1.87048 -0.0657661 0)
(-1.83445 -0.0676807 4.74535e-18)
(-1.79715 -0.0694875 0)
(-1.75861 -0.0711856 0)
(-1.71886 -0.0727743 -4.73849e-18)
(-1.67795 -0.0742543 -4.73846e-18)
(-1.63592 -0.0756269 0)
(-1.5928 -0.0768954 0)
(-1.54864 -0.0780645 -9.49128e-18)
(-1.50348 -0.0791367 0)
(-1.45734 -0.0801054 9.51202e-18)
(-1.41029 -0.0809651 9.52575e-18)
(-1.36235 -0.0817256 0)
(-1.31357 -0.0823933 0)
(-1.26399 -0.0829682 -9.58231e-18)
(-1.21365 -0.0834526 -1.23338e-21)
(-1.16259 -0.0838505 -1.24042e-21)
(-1.11085 -0.0841669 0)
(-1.05847 -0.0844067 -1.93749e-17)
(-1.00549 -0.0845747 0)
(-0.951933 -0.0846748 0)
(-0.897838 -0.0847117 0)
(-0.843234 -0.0846895 9.8228e-18)
(-0.78815 -0.0846133 0)
(-0.732612 -0.0844876 -1.97982e-17)
(-0.676644 -0.0843178 -9.94152e-18)
(-0.620268 -0.084108 0)
(-0.563502 -0.083864 -1.00283e-17)
(-0.506363 -0.0835901 0)
(-0.448865 -0.0832914 0)
(-0.39102 -0.082972 -3.0504e-17)
(-0.332836 -0.0826372 2.04341e-17)
(-0.274319 -0.0822899 0)
(-0.215474 -0.0819347 2.06395e-17)
(-0.156303 -0.0815743 -1.03741e-17)
(-0.0968058 -0.0812116 0)
(-0.0369799 -0.0808486 0)
(0.0231653 -0.0804823 0)
(0.0836397 -0.0801112 -3.12131e-17)
(0.144457 -0.0797375 0)
(0.205629 -0.0793599 -1.02495e-17)
(0.267173 -0.0789746 0)
(0.329122 -0.0785762 0)
(0.391502 -0.0781814 0)
(0.454294 -0.077805 0)
(0.517476 -0.0774515 0)
(0.58104 -0.0771185 0)
(0.644963 -0.0767846 -1.96818e-17)
(0.709207 -0.0764124 0)
(0.773703 -0.0759439 -9.75256e-18)
(0.838322 -0.0752847 2.91308e-17)
(0.902866 -0.0742698 0)
(0.966903 -0.072596 0)
(1.0301 -0.0696319 -1.92217e-17)
(1.09046 -0.0641797 -1.92008e-17)
(1.15105 -0.0532759 1.92534e-17)
(1.19824 -0.0294664 1.95069e-17)
(0.00105992 -0.0578447 2.09405e-16)
(-7.41524e-05 -0.0527563 1.05966e-16)
(-0.00434433 -0.0369987 4.06064e-17)
(-0.0104324 -0.0210735 1.44867e-17)
(-0.0178681 -0.00599634 0)
(-0.0264192 0.00815379 -2.04538e-17)
(-0.036001 0.0213693 9.26541e-18)
(-0.0466107 0.0336411 0)
(-0.0582893 0.0449794 8.21402e-18)
(-0.0711047 0.0554303 0)
(-0.0851382 0.0650847 -1.52749e-17)
(-0.100469 0.0740795 0)
(-0.117161 0.0825848 -7.20958e-18)
(-0.135251 0.0907801 -1.40249e-17)
(-0.154748 0.0988282 1.36375e-17)
(-0.175631 0.106854 0)
(-0.197854 0.114931 1.28698e-17)
(-0.221351 0.123084 0)
(-0.246035 0.131289 0)
(-0.2718 0.139487 1.17283e-17)
(-0.298523 0.147591 0)
(-0.326068 0.155495 6.47697e-23)
(-0.354295 0.163088 0)
(-0.383064 0.170259 0)
(-0.412242 0.176907 -3.85951e-23)
(-0.441707 0.182946 9.53736e-18)
(-0.47135 0.188307 9.20022e-18)
(-0.50108 0.192943 8.87412e-18)
(-0.53082 0.196829 0)
(-0.560514 0.199959 1.65156e-17)
(-0.590123 0.20235 0)
(-0.619621 0.204029 7.69117e-18)
(-0.648998 0.20504 0)
(-0.678264 0.205444 0)
(-0.70743 0.205315 -6.94579e-18)
(-0.73651 0.204722 0)
(-0.765519 0.203732 6.51371e-18)
(-0.794476 0.202411 7.00669e-24)
(-0.823399 0.200819 -1.22536e-17)
(-0.852303 0.199014 1.18976e-17)
(-0.881204 0.197046 0)
(-0.910112 0.19496 0)
(-0.939036 0.192795 5.46809e-18)
(-0.96798 0.190584 0)
(-0.996946 0.188354 5.18585e-18)
(-1.02593 0.186126 -5.05451e-18)