/*--------------------------------*- C++ -*----------------------------------*\
| =========                 |                                                 |
| \\      /  F ield         | OpenFOAM: The Open Source CFD Toolbox           |
|  \\    /   O peration     | Version:  2312                                  |
|   \\  /    A nd           | Website:  www.openfoam.com                      |
|    \\/     M anipulation  |                                                 |
\*---------------------------------------------------------------------------*/
FoamFile
{
    version     2.0;
    format      ascii;
    arch        "LSB;label=32;scalar=64";
    class       volScalarField;
    location    "1.5";
    object      blendingFactorField;
}
// * * * * * * * * * * * * * * * * * * * * * * * * * * * * * * * * * * * * * //

dimensions      [0 0 0 0 0 0 0];

internalField   nonuniform List<scalar> 
400
(
0
0
0
0.0133141
0.109166
0.207309
0.306088
0.402212
0.489071
0.556386
0.592708
0.592708
0.587295
0.528808
0.417285
0.264014
0.0932444
0
0
0
0
0
0.00468397
0.117147
0.235074
0.355711
0.475424
0.588291
0.685631
0.75697
0.791118
0.791118
0.777729
0.710104
0.585356
0.413526
0.218071
0.0313337
0
0
0
0.00198546
0.044289
0.160106
0.28237
0.408908
0.536124
0.658055
0.766347
0.851431
0.903048
0.911993
0.911993
0.863099
0.74481
0.556654
0.334733
0.204123
0.0127401
0
0.020484
0.108459
0.154364
0.186037
0.302157
0.432394
0.567331
0.70265
0.83241
0.95074
1
1
1
1
1
0.915548
0.706486
0.523221
0.169119
0
0.118714
0.215822
0.264139
0.301417
0.333319
0.438706
0.583259
0.737686
0.90202
1
1
1
1
1
1
1
1
1
0.581516
0
0.213363
0.319897
0.370739
0.41388
0.455746
0.495732
0.580049
0.757482
0.971779
1
1
1
1
1
1
1
1
1
1
0.184056
0.300204
0.416824
0.470618
0.519755
0.572377
0.628622
0.685755
0.742646
0.99917
1
1
1
1
1
1
1
1
1
1
0.937113
0.375743
0.502918
0.559736
0.614177
0.676713
0.749046
0.831684
0.930658
1
1
1
1
1
1
1
1
1
1
1
1
0.437125
0.574848
0.634121
0.69201
0.76155
0.84619
0.949338
1
1
1
1
1
1
1
1
1
1
1
1
1
0.482446
0.630072
0.690586
0.749004
0.820869
0.911
1
1
1
1
1
1
1
0.696748
0.696748
1
1
1
1
1
0.511122
0.667356
0.727336
0.782733
0.851321
0.938673
1
1
1
1
1
1
1
0.1438
0.530398
1
1
1
1
1
0.524233
0.687121
0.744191
0.792829
0.852577
0.938673
1
1
1
1
1
1
1
0.549144
0.511164
1
1
1
1
1
0.524982
0.691418
0.744191
0.792829
0.852577
0.929442
1
1
1
1
1
1
1
1
1
1
1
1
1
1
0.524982
0.691418
0.742508
0.780539
0.827049
0.887751
0.963983
1
1
1
1
1
1
1
1
1
1
1
1
1
0.519121
0.683956
0.725144
0.748824
0.777966
0.818981
0.872147
0.934142
0.998318
1
1
1
1
1
1
1
1
1
1
1
0.526419
0.670451
0.695125
0.700054
0.70877
0.728222
0.758204
0.794283
0.828161
0.846446
0.912501
1
1
1
1
1
0.909012
1
1
1
0.582085
0.655474
0.656803
0.636486
0.622168
0.619248
0.626911
0.640695
0.65279
0.760799
0.951492
1
1
1
1
1
0.98063
1
1
1
0.698966
0.647109
0.60221
0.55477
0.517031
0.49231
0.479069
0.473845
0.669775
0.87387
1
1
1
1
1
1
1
0.986993
1
1
0.904084
0.614233
0.520848
0.455007
0.3945
0.599047
0.839817
1
1
1
1
1
1
1
1
1
1
1
1
1
0.904084
1
1
1
1
1
1
1
1
1
1
1
1
1
1
1
1
1
1
1
)
;

boundaryField
{
    movingWall
    {
        type            zeroGradient;
    }
    fixedWalls
    {
        type            zeroGradient;
    }
    frontAndBack
    {
        type            empty;
    }
}


// ************************************************************************* //
