/*--------------------------------*- C++ -*----------------------------------*\
| =========                 |                                                 |
| \\      /  F ield         | OpenFOAM: The Open Source CFD Toolbox           |
|  \\    /   O peration     | Version:  2312                                  |
|   \\  /    A nd           | Website:  www.openfoam.com                      |
|    \\/     M anipulation  |                                                 |
\*---------------------------------------------------------------------------*/
FoamFile
{
    version     2.0;
    format      ascii;
    arch        "LSB;label=32;scalar=64";
    class       volScalarField;
    location    "1.5";
    object      CourantNumberField;
}
// * * * * * * * * * * * * * * * * * * * * * * * * * * * * * * * * * * * * * //

dimensions      [0 0 0 0 0 0 0];

internalField   nonuniform List<scalar> 
400
(
0.00110788
0.00357659
0.00686788
0.0105326
0.0143666
0.0182924
0.0222435
0.0260885
0.0295628
0.0322554
0.0337083
0.0337083
0.0334918
0.0311523
0.0266914
0.0205606
0.0137298
0.00738513
0.00261156
0.000168233
0.00357441
0.0085106
0.0134786
0.0183505
0.023237
0.0281542
0.0329681
0.0373766
0.0408996
0.0429714
0.0430976
0.0418612
0.0434487
0.0428651
0.0395451
0.0333718
0.0250675
0.0160269
0.00775672
0.00166149
0.00697785
0.0134829
0.0192083
0.0245674
0.0298459
0.0351076
0.0401846
0.0446819
0.0480218
0.0496034
0.0489408
0.046874
0.0515242
0.0539748
0.0527964
0.0469151
0.0365922
0.0239164
0.012015
0.00316685
0.0108194
0.0181799
0.024275
0.0299471
0.035528
0.0411085
0.0465215
0.0513429
0.054996
0.0569791
0.0569588
0.05503
0.0620302
0.0703268
0.0743467
0.070759
0.0578344
0.0377398
0.0173206
0.00372269
0.0147485
0.022562
0.0287892
0.0346714
0.0405626
0.0465705
0.0525561
0.0581571
0.0629708
0.06693
0.0703643
0.073167
0.0794318
0.0959422
0.111374
0.115967
0.104048
0.0743432
0.0350772
0.00553927
0.0185345
0.0265818
0.0327785
0.0387682
0.0449413
0.0514378
0.0582099
0.065126
0.0723346
0.080868
0.0921818
0.105078
0.113011
0.122365
0.151359
0.169074
0.167097
0.137629
0.079568
0.0173622
0.0220082
0.0301466
0.0361754
0.0421361
0.0484759
0.055391
0.0629919
0.0715411
0.0820021
0.0965904
0.116464
0.135953
0.143204
0.133107
0.165571
0.197578
0.214063
0.202291
0.14514
0.0474845
0.0250297
0.0331383
0.0388547
0.0445971
0.0508754
0.0579422
0.0660647
0.0758608
0.0888909
0.107658
0.130859
0.148143
0.146373
0.1223
0.146063
0.185773
0.218682
0.235461
0.207068
0.0965236
0.027485
0.0354492
0.0406974
0.0459883
0.0518832
0.0586623
0.0666739
0.0766761
0.0902439
0.109285
0.129683
0.13919
0.125771
0.0904128
0.106523
0.146331
0.184568
0.22361
0.238251
0.151403
0.0292979
0.0370157
0.0416452
0.0462406
0.0513949
0.0573729
0.0644914
0.0733761
0.0851267
0.10063
0.114357
0.115152
0.0932285
0.0523946
0.0682473
0.106912
0.141425
0.184965
0.234412
0.198068
0.0304449
0.0378413
0.0417318
0.0454177
0.0495104
0.0542225
0.0597456
0.0664036
0.0746085
0.0843703
0.0906745
0.0846236
0.058507
0.0168506
0.0331662
0.0739072
0.107375
0.146674
0.210462
0.228903
0.0309693
0.0380093
0.0410827
0.0437024
0.0464962
0.049621
0.0531126
0.0576241
0.0657243
0.0787412
0.0924892
0.097749
0.0834783
0.0477177
0.0531591
0.0819686
0.100827
0.123959
0.184572
0.245543
0.0309993
0.0376867
0.0399022
0.0417132
0.0444602
0.0485559
0.0540844
0.0613384
0.0709039
0.0834054
0.0969218
0.104115
0.0963588
0.0694341
0.0670252
0.09028
0.104464
0.118287
0.167932
0.253717
0.0309993
0.0378912
0.0402333
0.042449
0.045578
0.0499695
0.0557695
0.0630832
0.0720699
0.082814
0.0940368
0.100781
0.0966106
0.077283
0.0685426
0.0872457
0.0986688
0.110065
0.154284
0.258044
0.0307649
0.0375063
0.039694
0.041842
0.0449585
0.0493669
0.0551239
0.0621615
0.0703229
0.0792795
0.0879464
0.0932944
0.0909391
0.0774654
0.0639086
0.0783917
0.0875666
0.0979318
0.138954
0.260945
0.0310568
0.036818
0.0379641
0.0396941
0.0425855
0.0468276
0.0523859
0.0590808
0.0665794
0.0743256
0.081284
0.0855679
0.0844687
0.0754219
0.0603113
0.0689399
0.0758798
0.0868264
0.121743
0.260945
0.0332834
0.038111
0.0362721
0.0357511
0.038447
0.0425357
0.0479197
0.0543848
0.0615426
0.0687952
0.0752159
0.0794691
0.079881
0.0746495
0.0627386
0.0623513
0.0669894
0.0798448
0.109219
0.260826
0.0379586
0.0392445
0.0341941
0.0321908
0.0345661
0.0384784
0.0438429
0.0503727
0.057658
0.0651543
0.0721111
0.0775189
0.0801798
0.078807
0.0723765
0.0648395
0.067244
0.0798708
0.0991435
0.25428
0.0461633
0.0399462
0.0308339
0.0320508
0.0399273
0.0479832
0.0563858
0.0651144
0.0740221
0.0828956
0.0913636
0.0988741
0.10478
0.108335
0.108869
0.104355
0.103506
0.109559
0.100122
0.238311
0.0461633
0.0779048
0.0995113
0.117415
0.133157
0.147179
0.159972
0.171931
0.183257
0.194023
0.204194
0.213619
0.222041
0.229044
0.234163
0.236326
0.236326
0.235012
0.22079
0.199836
)
;

boundaryField
{
    movingWall
    {
        type            zeroGradient;
    }
    fixedWalls
    {
        type            zeroGradient;
    }
    frontAndBack
    {
        type            empty;
    }
}


// ************************************************************************* //
