/*--------------------------------*- C++ -*----------------------------------*\
| =========                 |                                                 |
| \\      /  F ield         | OpenFOAM: The Open Source CFD Toolbox           |
|  \\    /   O peration     | Version:  2312                                  |
|   \\  /    A nd           | Website:  www.openfoam.com                      |
|    \\/     M anipulation  |                                                 |
\*---------------------------------------------------------------------------*/
FoamFile
{
    version     2.0;
    format      ascii;
    arch        "LSB;label=32;scalar=64";
    class       volVectorField;
    location    "1.5";
    object      ddtU;
}
// * * * * * * * * * * * * * * * * * * * * * * * * * * * * * * * * * * * * * //

dimensions      [0 1 -2 0 0 0 0];

internalField   nonuniform List<vector> 
400
(
(-0.000144109 0.000160568 0)
(-0.00162452 0.000671794 0)
(-0.00442348 0.000986412 0)
(-0.00777253 0.00113568 0)
(-0.011492 0.00129938 0)
(-0.0157102 0.00159171 0)
(-0.0205577 0.00202246 0)
(-0.0259223 0.00246471 0)
(-0.0313845 0.00262722 0)
(-0.0358131 0.00228405 0)
(-0.0376734 0.00139248 0)
(-0.0373601 -0.000633057 0)
(-0.0327196 -0.00278261 0)
(-0.0256387 -0.00449799 0)
(-0.016945 -0.00524198 0)
(-0.00832161 -0.00461385 0)
(-0.00121114 -0.00301919 0)
(0.00333553 -0.000881441 0)
(0.0036786 0.000835716 0)
(0.00169611 0.00146048 0)
(-0.000783073 0.00168271 0)
(-0.00382566 0.0040211 0)
(-0.00833373 0.00538634 0)
(-0.0136722 0.00612887 0)
(-0.0196269 0.00681659 0)
(-0.0261334 0.00763215 0)
(-0.0330281 0.00834327 0)
(-0.0397524 0.00838625 0)
(-0.0452984 0.00707199 0)
(-0.0485724 0.00417448 0)
(-0.0491 0.000139904 0)
(-0.0472182 -0.00438816 0)
(-0.0428689 -0.00864505 0)
(-0.036085 -0.0118036 0)
(-0.0272088 -0.0132856 0)
(-0.0166422 -0.0123052 0)
(-0.00602799 -0.00903629 0)
(0.00179376 -0.00392414 0)
(0.00447636 0.0014685 0)
(0.00206283 0.00369848 0)
(-0.00163342 0.00477456 0)
(-0.00564172 0.0084438 0)
(-0.0105766 0.010747 0)
(-0.0164401 0.0123068 0)
(-0.0230649 0.0136652 0)
(-0.0302727 0.0149284 0)
(-0.0377773 0.015579 0)
(-0.0448586 0.0146368 0)
(-0.0505413 0.0113054 0)
(-0.0543537 0.00596281 0)
(-0.0569164 -1.14541e-05 0)
(-0.0592852 -0.00583659 0)
(-0.0612435 -0.0118851 0)
(-0.0608101 -0.0181592 0)
(-0.0557735 -0.0228354 0)
(-0.0433935 -0.0241061 0)
(-0.0240232 -0.0201835 0)
(-0.0044448 -0.00952275 0)
(0.00541812 0.00127846 0)
(0.00310137 0.00726195 0)
(-0.00212886 0.00869166 0)
(-0.00669346 0.0132188 0)
(-0.0117376 0.0161592 0)
(-0.0175483 0.0184653 0)
(-0.0241594 0.0205292 0)
(-0.0314538 0.022259 0)
(-0.0391457 0.022848 0)
(-0.04663 0.0210732 0)
(-0.0534427 0.016588 0)
(-0.0604354 0.0109392 0)
(-0.0704271 0.00592603 0)
(-0.0869815 0.00107812 0)
(-0.109945 -0.00559046 0)
(-0.132788 -0.0131547 0)
(-0.145025 -0.0239283 0)
(-0.13579 -0.036565 0)
(-0.103991 -0.0443084 0)
(-0.0525373 -0.0339986 0)
(-0.00448703 -0.00648316 0)
(0.00438677 0.011564 0)
(-0.00224085 0.013044 0)
(-0.0069202 0.0181941 0)
(-0.011774 0.0215509 0)
(-0.0172496 0.0245039 0)
(-0.0235139 0.0273154 0)
(-0.0305296 0.0296239 0)
(-0.0381682 0.0304223 0)
(-0.0462765 0.0286673 0)
(-0.0555298 0.0250662 0)
(-0.0700347 0.0232029 0)
(-0.0986396 0.0274505 0)
(-0.147162 0.0377454 0)
(-0.203637 0.0443652 0)
(-0.246511 0.0252527 0)
(-0.26173 -0.0193095 0)
(-0.249024 -0.0663781 0)
(-0.21836 -0.100536 0)
(-0.163766 -0.102576 0)
(-0.0624531 -0.0541548 0)
(0.00156742 0.00739649 0)
(-0.00204449 0.0173176 0)
(-0.00639384 0.0229491 0)
(-0.0107634 0.0265968 0)
(-0.0155992 0.0301233 0)
(-0.0211323 0.0336693 0)
(-0.0274262 0.0367224 0)
(-0.0347527 0.0384294 0)
(-0.043811 0.0388046 0)
(-0.057286 0.0415015 0)
(-0.0851693 0.0551933 0)
(-0.13766 0.0839104 0)
(-0.206537 0.105142 0)
(-0.246759 0.0791217 0)
(-0.224176 0.014105 0)
(-0.193013 -0.046198 0)
(-0.197402 -0.0984424 0)
(-0.202486 -0.149483 0)
(-0.191239 -0.189105 0)
(-0.152209 -0.170931 0)
(-0.0158832 -0.0437948 0)
(-0.00161357 0.021075 0)
(-0.00525802 0.0270946 0)
(-0.00882379 0.0309232 0)
(-0.0126604 0.0348743 0)
(-0.0169907 0.0390631 0)
(-0.0219495 0.0430373 0)
(-0.0281586 0.0466126 0)
(-0.0368052 0.0518109 0)
(-0.0506111 0.066263 0)
(-0.0808063 0.0991542 0)
(-0.124756 0.134065 0)
(-0.141337 0.121328 0)
(-0.0987306 0.0567869 0)
(-0.0463616 -0.0169889 0)
(-0.0146002 -0.0553328 0)
(-0.00726966 -0.0763795 0)
(-0.049544 -0.118801 0)
(-0.104203 -0.194009 0)
(-0.126768 -0.241298 0)
(-0.0851768 -0.130153 0)
(-0.00101154 0.0239499 0)
(-0.00364552 0.0302952 0)
(-0.00611121 0.0341774 0)
(-0.00860426 0.0383254 0)
(-0.0112731 0.0429208 0)
(-0.0142321 0.0477286 0)
(-0.018145 0.0533926 0)
(-0.0236797 0.063511 0)
(-0.0323809 0.0864414 0)
(-0.0521484 0.124999 0)
(-0.0642688 0.139206 0)
(-0.0318605 0.0837741 0)
(0.044788 -0.00976781 0)
(0.125092 -0.0609881 0)
(0.182122 -0.0545282 0)
(0.187146 -0.02437 0)
(0.147725 -0.020627 0)
(0.0613967 -0.0950211 0)
(-0.0335395 -0.237689 0)
(-0.07502 -0.265821 0)
(-0.000306237 0.0256695 0)
(-0.00171436 0.0322819 0)
(-0.00287183 0.0360704 0)
(-0.00381159 0.0401279 0)
(-0.00455034 0.0447375 0)
(-0.00507213 0.0498776 0)
(-0.00568384 0.0567104 0)
(-0.00603862 0.0691439 0)
(-0.00532515 0.0939221 0)
(-0.00494292 0.124821 0)
(0.0104684 0.109139 0)
(0.0615038 0.0261735 0)
(0.136075 -0.0727809 0)
(0.200417 -0.116399 0)
(0.219122 -0.091438 0)
(0.228076 -0.0290287 0)
(0.226475 0.0327261 0)
(0.17704 0.0280688 0)
(0.0810512 -0.112651 0)
(-0.00317348 -0.26926 0)
(0.000424805 0.0260792 0)
(0.000340751 0.032888 0)
(0.000555818 0.0364562 0)
(0.00117664 0.0401475 0)
(0.00231154 0.044341 0)
(0.00414152 0.0491037 0)
(0.0067858 0.0555784 0)
(0.0116231 0.0663731 0)
(0.021136 0.0859981 0)
(0.0349657 0.106167 0)
(0.0658041 0.0632943 0)
(0.102332 -0.0231869 0)
(0.147669 -0.114605 0)
(0.162335 -0.146767 0)
(0.151504 -0.121543 0)
(0.146012 -0.0638325 0)
(0.160154 0.00550873 0)
(0.166771 0.0685101 0)
(0.12547 0.0177927 0)
(0.0422664 -0.214748 0)
(0.00112078 0.0251404 0)
(0.00233636 0.032104 0)
(0.00386359 0.0353752 0)
(0.00588538 0.0384956 0)
(0.0086085 0.0419395 0)
(0.0123143 0.0456455 0)
(0.0175325 0.0502416 0)
(0.0257165 0.0569641 0)
(0.0400566 0.0687659 0)
(0.0616455 0.0742966 0)
(0.088361 0.0360469 0)
(0.114475 -0.0427044 0)
(0.139391 -0.130285 0)
(0.12826 -0.150443 0)
(0.102442 -0.107 0)
(0.0852958 -0.0482413 0)
(0.0825436 -0.00546318 0)
(0.0947362 0.0392425 0)
(0.100654 0.054117 0)
(0.050662 -0.105861 0)
(0.00171367 0.0229734 0)
(0.00410916 0.0300349 0)
(0.00679106 0.03299 0)
(0.00996415 0.0354412 0)
(0.0138632 0.0380396 0)
(0.0187108 0.0404189 0)
(0.0250563 0.0427507 0)
(0.0349951 0.0455437 0)
(0.0501083 0.0489454 0)
(0.0712248 0.0473031 0)
(0.09355 0.012608 0)
(0.106501 -0.0487807 0)
(0.111267 -0.121181 0)
(0.0938268 -0.137792 0)
(0.0702053 -0.088072 0)
(0.0477337 -0.0324651 0)
(0.0434033 0.00602021 0)
(0.0411842 0.0271174 0)
(0.0566903 0.0421993 0)
(0.0295227 -0.0366675 0)
(0.00226801 0.0196004 0)
(0.00555925 0.0268728 0)
(0.00918777 0.0295506 0)
(0.0132726 0.0315155 0)
(0.0179451 0.0331921 0)
(0.0232837 0.0343387 0)
(0.0300177 0.0346672 0)
(0.0388492 0.0343025 0)
(0.0511365 0.0317043 0)
(0.068431 0.0244324 0)
(0.0840116 -0.0036284 0)
(0.0881887 -0.0536448 0)
(0.0800057 -0.10272 0)
(0.0540514 -0.112765 0)
(0.0256543 -0.0798177 0)
(0.0112542 -0.0285166 0)
(0.0128455 0.00868522 0)
(0.0137445 0.0308849 0)
(0.0236211 0.0316119 0)
(0.0111969 -0.00806017 0)
(0.00235172 0.0155626 0)
(0.00671586 0.0225341 0)
(0.0111523 0.0252501 0)
(0.0157631 0.0269474 0)
(0.020761 0.0279685 0)
(0.0262125 0.0282282 0)
(0.0324197 0.0272311 0)
(0.0396879 0.0244301 0)
(0.0484099 0.0193245 0)
(0.0595471 0.00952125 0)
(0.0690065 -0.0117395 0)
(0.0679739 -0.0469019 0)
(0.0514276 -0.0787661 0)
(0.0256782 -0.0836439 0)
(0.000866682 -0.0598841 0)
(-0.0120448 -0.0244246 0)
(-0.00937525 0.00744983 0)
(-0.00367485 0.0268772 0)
(0.00497603 0.0263064 0)
(0.00288805 0.0027075 0)
(0.00245646 0.0109831 0)
(0.00761865 0.0177937 0)
(0.0125428 0.0203812 0)
(0.0175173 0.0218663 0)
(0.0226062 0.0226981 0)
(0.0278482 0.0225669 0)
(0.0332988 0.0210295 0)
(0.0389399 0.0175171 0)
(0.0447828 0.0115178 0)
(0.050555 0.00198971 0)
(0.0545059 -0.0135497 0)
(0.0504696 -0.0348787 0)
(0.0344473 -0.0539757 0)
(0.0121037 -0.0578109 0)
(-0.00766694 -0.0441871 0)
(-0.0181303 -0.0201037 0)
(-0.017445 0.00469561 0)
(-0.0115585 0.0221456 0)
(-0.00323687 0.0179814 0)
(0.000595943 0.00491202 0)
(0.00254365 0.00601771 0)
(0.00768432 0.0128133 0)
(0.0133184 0.0151528 0)
(0.0182804 0.0168456 0)
(0.0232748 0.017549 0)
(0.028289 0.0173957 0)
(0.0331431 0.0159538 0)
(0.0375998 0.0127612 0)
(0.0413316 0.00740647 0)
(0.0437206 -0.000483618 0)
(0.0437043 -0.0115629 0)
(0.0383501 -0.0242073 0)
(0.0254341 -0.0354006 0)
(0.00902886 -0.0379123 0)
(-0.00738651 -0.0307655 0)
(-0.0161883 -0.0152525 0)
(-0.018119 0.00245067 0)
(-0.013653 0.0158888 0)
(-0.0044457 0.0125889 0)
(0.000239049 0.00233416 0)
(0.00233913 0.00102615 0)
(0.00642681 0.00620016 0)
(0.0119399 0.00900884 0)
(0.016983 0.0111942 0)
(0.0219735 0.0124175 0)
(0.0271707 0.0126134 0)
(0.0318833 0.0116562 0)
(0.035745 0.00929821 0)
(0.0383185 0.00534958 0)
(0.0390451 -0.000378832 0)
(0.0370271 -0.00786058 0)
(0.0312483 -0.0156626 0)
(0.0211736 -0.0225483 0)
(0.00819168 -0.024067 0)
(-0.00483116 -0.0199827 0)
(-0.0130956 -0.0107066 0)
(-0.0166764 0.00144673 0)
(-0.0114505 0.00908935 0)
(-0.00330364 0.00656142 0)
(0.000506146 0.000862528 0)
(0.00110369 -0.00181277 0)
(0.00426208 0.00394071 0)
(0.00853037 0.00609827 0)
(0.0127659 0.00672767 0)
(0.0168838 0.00714885 0)
(0.0221656 0.00752767 0)
(0.0270338 0.00742 0)
(0.0310441 0.00640602 0)
(0.0336012 0.00423724 0)
(0.0341676 0.000844629 0)
(0.0320831 -0.00351258 0)
(0.0269732 -0.00802861 0)
(0.0185887 -0.0112299 0)
(0.00801123 -0.0125959 0)
(-0.00208192 -0.00982502 0)
(-0.00931293 -0.00472151 0)
(-0.0128013 0.00111636 0)
(-0.00740752 0.00281277 0)
(-0.00217734 0.00222502 0)
(0.000883098 0.000133001 0)
(-0.000809291 -0.00383025 0)
(-0.00163837 -0.00131921 0)
(0.00158189 0.00106627 0)
(0.00566635 0.00189235 0)
(0.00885472 0.00227724 0)
(0.0123827 0.00277128 0)
(0.0158835 0.00306355 0)
(0.0191008 0.00304077 0)
(0.0215779 0.00262462 0)
(0.022797 0.0016411 0)
(0.0221359 0.000122587 0)
(0.0193814 -0.00164987 0)
(0.014705 -0.0031008 0)
(0.00882475 -0.00373084 0)
(0.00316175 -0.00308394 0)
(-0.000891144 -0.00144194 0)
(-0.00295941 0.000229439 0)
(-0.00119319 0.000641482 0)
(-0.000244419 0.000567619 0)
(0.000778214 1.33908e-05 0)
(-0.000364359 0.00063559 0)
(-0.00199974 -0.000350284 0)
(-0.00174224 -0.000703275 0)
(-0.00138344 -0.000931801 0)
(-0.000501793 -0.000837603 0)
(0.000717567 -0.000629076 0)
(0.00214385 -0.000429001 0)
(0.00370995 -0.000285528 0)
(0.00522888 -0.000165261 0)
(0.00642614 -6.4866e-05 0)
(0.0070144 -1.92613e-05 0)
(0.00677714 1.04401e-05 0)
(0.00565622 1.02704e-05 0)
(0.00383836 -2.05017e-06 0)
(0.00182655 -1.35575e-05 0)
(0.000272547 -0.000101395 0)
(-0.000406949 -0.000135484 0)
(-0.000120878 -0.000312352 0)
(-6.79562e-05 -0.00045448 0)
(0.000112409 -3.21879e-05 0)
)
;

boundaryField
{
    movingWall
    {
        type            calculated;
        value           uniform (0 0 0);
    }
    fixedWalls
    {
        type            calculated;
        value           uniform (0 0 0);
    }
    frontAndBack
    {
        type            empty;
    }
}


// ************************************************************************* //
