/*--------------------------------*- C++ -*----------------------------------*\
| =========                 |                                                 |
| \\      /  F ield         | OpenFOAM: The Open Source CFD Toolbox           |
|  \\    /   O peration     | Version:  2312                                  |
|   \\  /    A nd           | Website:  www.openfoam.com                      |
|    \\/     M anipulation  |                                                 |
\*---------------------------------------------------------------------------*/
FoamFile
{
    version     2.0;
    format      ascii;
    arch        "LSB;label=32;scalar=64";
    class       volScalarField;
    location    "1.5";
    object      diffP;
}
// * * * * * * * * * * * * * * * * * * * * * * * * * * * * * * * * * * * * * //

dimensions      [0 2 -2 0 0 0 0];

internalField   nonuniform List<scalar> 
400
(
-3
-3
-3
-3.00003
-3.0001
-3.0002
-3.00033
-3.00051
-3.00074
-3.00105
-3.00144
-3.00195
-3.00255
-3.00319
-3.00377
-3.0042
-3.00443
-3.00448
-3.00442
-3.00435
-3.00001
-3
-3
-3.00004
-3.00011
-3.0002
-3.00033
-3.00049
-3.0007
-3.00097
-3.00133
-3.00179
-3.00236
-3.00299
-3.00359
-3.00405
-3.00431
-3.00439
-3.00436
-3.00429
-3
-3
-3
-3
-3.00003
-3.00011
-3.00022
-3.00035
-3.00053
-3.00076
-3.00107
-3.0015
-3.00207
-3.00274
-3.00342
-3.00396
-3.00427
-3.00436
-3.0043
-3.00421
-3
-3
-3
-3
-3
-3
-3
-3.00006
-3.00019
-3.00037
-3.00065
-3.00106
-3.00163
-3.00238
-3.00322
-3.0039
-3.00427
-3.00432
-3.00422
-3.00409
-3
-3
-3
-3
-3
-3
-3
-3
-3
-3
-3
-3.00025
-3.00071
-3.00144
-3.00237
-3.00331
-3.00398
-3.00417
-3.00412
-3.0039
-3
-3
-3
-3
-3
-3
-3
-3
-3
-3
-3
-3
-3
-3
-3
-3.00007
-3.00198
-3.00351
-3.00399
-3.00362
-3
-3
-3
-3
-3
-3
-3
-3
-3
-3
-3
-3
-3
-3
-3
-3
-3
-3.00041
-3.00346
-3.00377
-3
-3
-3
-3
-3
-3
-3
-3
-3
-3
-3
-3
-3
-3
-3
-3
-3
-3
-3.00111
-3.0034
-3
-3
-3
-3
-3
-3
-3
-3
-3
-3
-3
-3
-3
-3
-3
-3
-3
-3
-3
-3.00096
-3
-3
-3
-3
-3
-3
-3
-3
-3
-3
-3
-3
-3
-3
-3
-3
-3
-3
-3
-3
-3
-3
-3
-3
-3
-3
-3
-3
-3
-3
-3
-3
-3
-3
-3
-3
-3
-3
-3
-3
-3
-3
-3
-3
-3
-3
-3
-3
-3
-3
-3
-3
-3
-3
-3
-3
-3
-3
-3
-3
-3
-3
-3
-3
-3
-3
-3
-3
-3
-3
-3
-3
-3
-3
-3
-3
-3
-3
-3
-3
-3
-3
-3
-3
-3
-3
-3
-3
-3
-3
-3
-3
-3
-3
-3
-3
-3
-3
-3
-3
-3
-3
-3
-3
-3
-3
-3
-3
-3
-3
-3
-3
-3
-3
-3
-3
-3
-3
-3
-3
-3
-3
-3
-3
-3
-3
-3
-3
-3
-3
-3
-3
-3
-3
-3
-3
-3
-3
-3
-3
-3
-3
-3
-3
-3
-3
-3
-3
-3
-3
-3
-3
-3
-3
-3
-3
-3
-3
-3
-3
-3
-3
-3
-3
-3
-3
-3
-3
-3
-3
-3
-3
-3
-3
-3
-3
-3
-3
-3
-3
-3
-3
-3
-3
-3
-3
-3
-3
-3
-3
-3
-3
-3
-3
-3
-3
-3
-3.0006
-3.00371
-3.02925
-3
-3.00242
-3.00094
-3
-3
-3
-3
-3
-3
-3
-3
-3
-3
-3
-3
-3
-3
-3.00574
-3.00901
-3.11406
)
;

boundaryField
{
    movingWall
    {
        type            calculated;
        value           nonuniform List<scalar> 
20
(
-3
-3.00242
-3.00094
-3
-3
-3
-3
-3
-3
-3
-3
-3
-3
-3
-3
-3
-3
-3.00574
-3.00901
-3.11406
)
;
    }
    fixedWalls
    {
        type            calculated;
        value           nonuniform List<scalar> 
60
(
-3
-3.00001
-3
-3
-3
-3
-3
-3
-3
-3
-3
-3
-3
-3
-3
-3
-3
-3
-3
-3
-3.00435
-3.00429
-3.00421
-3.00409
-3.0039
-3.00362
-3.00377
-3.0034
-3.00096
-3
-3
-3
-3
-3
-3
-3
-3
-3
-3.02925
-3.11406
-3
-3
-3
-3.00003
-3.0001
-3.0002
-3.00033
-3.00051
-3.00074
-3.00105
-3.00144
-3.00195
-3.00255
-3.00319
-3.00377
-3.0042
-3.00443
-3.00448
-3.00442
-3.00435
)
;
    }
    frontAndBack
    {
        type            empty;
    }
}


// ************************************************************************* //
