/*--------------------------------*- C++ -*----------------------------------*\
| =========                 |                                                 |
| \\      /  F ield         | OpenFOAM: The Open Source CFD Toolbox           |
|  \\    /   O peration     | Version:  2312                                  |
|   \\  /    A nd           | Website:  www.openfoam.com                      |
|    \\/     M anipulation  |                                                 |
\*---------------------------------------------------------------------------*/
FoamFile
{
    version     2.0;
    format      ascii;
    arch        "LSB;label=32;scalar=64";
    class       volVectorField;
    location    "1.5";
    object      diffU;
}
// * * * * * * * * * * * * * * * * * * * * * * * * * * * * * * * * * * * * * //

dimensions      [0 1 -1 0 0 0 0];

internalField   nonuniform List<vector> 
400
(
(0 0 0)
(-0.00172336 0.000730168 0)
(-0.00479464 0.00122199 0)
(-0.00833915 0.00142361 0)
(-0.0121205 0.00149945 0)
(-0.0160208 0.0015426 0)
(-0.0199888 0.00157619 0)
(-0.0239299 0.00157609 0)
(-0.0276659 0.0014665 0)
(-0.0309057 0.00115068 0)
(-0.0330278 0.00060445 0)
(-0.0336655 -0.000171225 0)
(-0.0323883 -0.00140312 0)
(-0.0288201 -0.0026065 0)
(-0.0233895 -0.00359412 0)
(-0.0167965 -0.00401553 0)
(-0.010123 -0.00372032 0)
(-0.00439278 -0.0027451 0)
(-0.000485089 -0.0013127 0)
(0.000693322 -8.60839e-05 0)
(-0.000763378 0.00176655 0)
(-0.00374991 0.00383787 0)
(-0.00767367 0.00503866 0)
(-0.0120485 0.00561115 0)
(-0.0166943 0.00588403 0)
(-0.0214991 0.00602156 0)
(-0.0263558 0.00602445 0)
(-0.0310831 0.00578269 0)
(-0.0353931 0.00510285 0)
(-0.0388832 0.00379252 0)
(-0.0410769 0.00177632 0)
(-0.0415461 -0.000907417 0)
(-0.0399189 -0.00411363 0)
(-0.0359537 -0.00734037 0)
(-0.0298791 -0.00986324 0)
(-0.0223426 -0.0109262 0)
(-0.0145035 -0.0102059 0)
(-0.00767418 -0.00787838 0)
(-0.00262167 -0.00443527 0)
(-2.51717e-06 -0.000941158 0)
(-0.00140916 0.00489088 0)
(-0.00504897 0.00771295 0)
(-0.00917665 0.00928759 0)
(-0.0136817 0.0101862 0)
(-0.0184771 0.0107068 0)
(-0.0234848 0.0109812 0)
(-0.02861 0.0109606 0)
(-0.0336726 0.0104402 0)
(-0.0383799 0.00912332 0)
(-0.0423491 0.00676065 0)
(-0.0451784 0.00327677 0)
(-0.0464826 -0.00123214 0)
(-0.0457623 -0.00653088 0)
(-0.0423952 -0.0120754 0)
(-0.0361748 -0.0166713 0)
(-0.0274463 -0.018923 0)
(-0.0174825 -0.0179314 0)
(-0.00862401 -0.0140043 0)
(-0.00263492 -0.00855268 0)
(-1.95259e-05 -0.00286072 0)
(-0.00170918 0.00855786 0)
(-0.00567978 0.0118643 0)
(-0.00989958 0.0136347 0)
(-0.014415 0.014787 0)
(-0.0192221 0.0155705 0)
(-0.0243123 0.0160551 0)
(-0.0296546 0.016124 0)
(-0.0351247 0.0154772 0)
(-0.0405018 0.0137322 0)
(-0.0455247 0.010616 0)
(-0.0499666 0.00604324 0)
(-0.0535896 -1.59243e-05 0)
(-0.055872 -0.00756113 0)
(-0.0555372 -0.0161526 0)
(-0.0509503 -0.0240274 0)
(-0.0412485 -0.028987 0)
(-0.0270626 -0.028778 0)
(-0.0119396 -0.0224677 0)
(-0.00152563 -0.0129283 0)
(0.000855131 -0.00392647 0)
(-0.00176751 0.0124599 0)
(-0.00582146 0.0161676 0)
(-0.0100337 0.0180528 0)
(-0.0145 0.0194275 0)
(-0.0192846 0.0205178 0)
(-0.024442 0.0213346 0)
(-0.0300286 0.02169 0)
(-0.0360335 0.0212103 0)
(-0.0423986 0.0194706 0)
(-0.0491707 0.0162409 0)
(-0.0567309 0.0114883 0)
(-0.0655929 0.0050285 0)
(-0.0752536 -0.00368748 0)
(-0.0826884 -0.0152419 0)
(-0.0835281 -0.0290462 0)
(-0.0746564 -0.041238 0)
(-0.0560635 -0.046017 0)
(-0.0307745 -0.0392211 0)
(-0.005522 -0.0212849 0)
(0.00205099 -0.00395001 0)
(-0.00167992 0.0163302 0)
(-0.0056182 0.0204212 0)
(-0.00970454 0.0224069 0)
(-0.0140315 0.0240128 0)
(-0.0187106 0.0254751 0)
(-0.0238548 0.0267685 0)
(-0.0296256 0.0276752 0)
(-0.036192 0.0278282 0)
(-0.0437978 0.0269222 0)
(-0.0532106 0.0251064 0)
(-0.066073 0.0227881 0)
(-0.0835356 0.0190538 0)
(-0.102853 0.00993586 0)
(-0.117222 -0.00806387 0)
(-0.12164 -0.0328229 0)
(-0.114958 -0.0571628 0)
(-0.0963961 -0.0727414 0)
(-0.0655616 -0.0706264 0)
(-0.026676 -0.0451795 0)
(0.00178551 -0.00881741 0)
(-0.00149281 0.0199775 0)
(-0.00515367 0.0244672 0)
(-0.00897744 0.0265674 0)
(-0.0130289 0.0284161 0)
(-0.0174458 0.0303027 0)
(-0.0223836 0.0322087 0)
(-0.0281028 0.0339633 0)
(-0.0349704 0.0353706 0)
(-0.0435466 0.0365718 0)
(-0.0553015 0.0384513 0)
(-0.0726717 0.0411785 0)
(-0.0954973 0.0402703 0)
(-0.117177 0.0277609 0)
(-0.130667 0.000933521 0)
(-0.135535 -0.0345389 0)
(-0.133473 -0.0703595 0)
(-0.12203 -0.0993282 0)
(-0.0969616 -0.110902 0)
(-0.0559627 -0.0888568 0)
(-0.0068852 -0.0248151 0)
(-0.00122849 0.0232466 0)
(-0.00447025 0.0281573 0)
(-0.00788482 0.0303836 0)
(-0.0114916 0.0324681 0)
(-0.0154261 0.034785 0)
(-0.019852 0.0373659 0)
(-0.0250718 0.0401596 0)
(-0.0315392 0.0432649 0)
(-0.0398499 0.0473651 0)
(-0.0516781 0.0537737 0)
(-0.0688338 0.0609899 0)
(-0.08912 0.060521 0)
(-0.105614 0.0430822 0)
(-0.11448 0.00917743 0)
(-0.116518 -0.032221 0)
(-0.115877 -0.0733649 0)
(-0.114318 -0.111789 0)
(-0.104051 -0.141445 0)
(-0.0745495 -0.139403 0)
(-0.0262284 -0.0676853 0)
(-0.000905066 0.0260091 0)
(-0.00360643 0.0313486 0)
(-0.00647127 0.0336915 0)
(-0.00946046 0.0359625 0)
(-0.0126759 0.0386371 0)
(-0.0162477 0.0418196 0)
(-0.0204363 0.0455956 0)
(-0.0256188 0.0503301 0)
(-0.0321789 0.0570757 0)
(-0.0411106 0.0671555 0)
(-0.0533709 0.0767264 0)
(-0.0669346 0.0748536 0)
(-0.0761891 0.0528674 0)
(-0.0779834 0.0139736 0)
(-0.0756278 -0.0294672 0)
(-0.0745691 -0.0698315 0)
(-0.0778572 -0.107918 0)
(-0.082024 -0.14957 0)
(-0.0721233 -0.179038 0)
(-0.0350292 -0.125289 0)
(-0.000546572 0.0281643 0)
(-0.00261913 0.0339197 0)
(-0.00482267 0.0363406 0)
(-0.00705308 0.0387007 0)
(-0.00935396 0.041578 0)
(-0.0117878 0.0451448 0)
(-0.0145074 0.0495827 0)
(-0.017696 0.0553668 0)
(-0.0213375 0.0635259 0)
(-0.0255924 0.0751464 0)
(-0.0304052 0.0848837 0)
(-0.0360777 0.0820725 0)
(-0.0394116 0.0570403 0)
(-0.038096 0.0144336 0)
(-0.0358204 -0.031038 0)
(-0.0349491 -0.0697154 0)
(-0.0378131 -0.101198 0)
(-0.0466161 -0.139744 0)
(-0.0527225 -0.192383 0)
(-0.0322482 -0.179624 0)
(-0.000186253 0.0296638 0)
(-0.00158791 0.0357849 0)
(-0.00307015 0.0382253 0)
(-0.0044622 0.0405413 0)
(-0.00573841 0.0434077 0)
(-0.00688183 0.0470406 0)
(-0.0079118 0.0516364 0)
(-0.00879577 0.0576009 0)
(-0.00921018 0.0656874 0)
(-0.00842169 0.076648 0)
(-0.00653063 0.0854588 0)
(-0.0039321 0.0827908 0)
(-0.00198233 0.0580244 0)
(-0.0007117 0.015417 0)
(-0.00150807 -0.0309758 0)
(-0.00409821 -0.0693074 0)
(-0.00911944 -0.0978413 0)
(-0.0171053 -0.127911 0)
(-0.0295228 -0.185178 0)
(-0.0236437 -0.219533 0)
(0.000141175 0.0305095 0)
(-0.000615691 0.0369298 0)
(-0.00137701 0.0393024 0)
(-0.00192011 0.0414225 0)
(-0.00215706 0.0440434 0)
(-0.00200597 0.0474011 0)
(-0.00138566 0.0516399 0)
(-0.000133534 0.0569988 0)
(0.00223311 0.0638802 0)
(0.00685238 0.072516 0)
(0.0137916 0.0795816 0)
(0.0227666 0.0764965 0)
(0.0291587 0.056201 0)
(0.0323107 0.0183009 0)
(0.0298234 -0.025383 0)
(0.0217341 -0.0624328 0)
(0.011566 -0.0905407 0)
(0.00123594 -0.118741 0)
(-0.01202 -0.173504 0)
(-0.0158741 -0.240419 0)
(0.000389845 0.0307685 0)
(0.000175406 0.0374006 0)
(7.4461e-05 0.0395947 0)
(0.000325576 0.0413668 0)
(0.0010614 0.0435376 0)
(0.00239133 0.0463423 0)
(0.0044298 0.049857 0)
(0.00739597 0.0541248 0)
(0.0117259 0.059228 0)
(0.0183966 0.0649525 0)
(0.0278509 0.0691212 0)
(0.0394169 0.0654803 0)
(0.0489241 0.048906 0)
(0.0536558 0.0187551 0)
(0.0510226 -0.0175732 0)
(0.0402668 -0.0514344 0)
(0.0265916 -0.0788262 0)
(0.0127108 -0.10618 0)
(-0.0015533 -0.161285 0)
(-0.0124209 -0.251168 0)
(0.000480922 0.0306385 0)
(0.000644878 0.0373024 0)
(0.00108799 0.0391958 0)
(0.00204389 0.0404663 0)
(0.00364064 0.0420142 0)
(0.00597737 0.0440788 0)
(0.00915342 0.0466855 0)
(0.013342 0.0497392 0)
(0.0188362 0.053046 0)
(0.0262044 0.0561418 0)
(0.0359434 0.0574903 0)
(0.0472792 0.0533557 0)
(0.057106 0.0401125 0)
(0.0619191 0.017121 0)
(0.0593898 -0.0113636 0)
(0.0493253 -0.0395079 0)
(0.0350966 -0.0646843 0)
(0.0192503 -0.0912638 0)
(0.00390648 -0.146978 0)
(-0.0118066 -0.256451 0)
(0.00035698 0.0303016 0)
(0.000604231 0.0368097 0)
(0.00145771 0.0381953 0)
(0.00301295 0.0388056 0)
(0.00535915 0.0395913 0)
(0.00854649 0.0408153 0)
(0.0126203 0.0424753 0)
(0.0176575 0.0444019 0)
(0.0237994 0.0462659 0)
(0.0312409 0.0475134 0)
(0.0401802 0.0470219 0)
(0.0499927 0.0428002 0)
(0.058456 0.0326337 0)
(0.0626211 0.0158497 0)
(0.0606382 -0.00536343 0)
(0.0521068 -0.0280056 0)
(0.0388632 -0.0500451 0)
(0.0227204 -0.0754839 0)
(0.00732023 -0.130392 0)
(-0.0120189 -0.258566 0)
(-0.000118347 0.0309371 0)
(-4.30343e-05 0.0364644 0)
(0.00102461 0.0368877 0)
(0.00307978 0.0365965 0)
(0.00608411 0.0364756 0)
(0.00999688 0.0367897 0)
(0.014798 0.0375201 0)
(0.0204859 0.0384763 0)
(0.0270578 0.039313 0)
(0.0344716 0.0395051 0)
(0.0425685 0.0382392 0)
(0.0507802 0.0344256 0)
(0.0576995 0.0269066 0)
(0.0612409 0.0150368 0)
(0.0597497 -0.000390042 0)
(0.0528635 -0.0178752 0)
(0.0409719 -0.0362146 0)
(0.0263347 -0.0608027 0)
(0.0125598 -0.112375 0)
(-0.0112637 -0.260405 0)
(-0.00123002 0.0283018 0)
(-0.00229123 0.0334212 0)
(-0.000752829 0.0337 0)
(0.00202528 0.0330081 0)
(0.00578218 0.0323315 0)
(0.0104296 0.0319769 0)
(0.015934 0.0319715 0)
(0.022237 0.0321779 0)
(0.0292424 0.0323278 0)
(0.0367841 0.0320125 0)
(0.0445336 0.0306715 0)
(0.0519127 0.0276322 0)
(0.0579288 0.0222837 0)
(0.0613397 0.0141488 0)
(0.0603925 0.00353268 0)
(0.0549475 -0.00945835 0)
(0.043701 -0.0240662 0)
(0.034449 -0.0491359 0)
(0.0201193 -0.0957381 0)
(-0.00778206 -0.265624 0)
(-0.00335473 0.0446556 0)
(-0.00452012 0.044328 0)
(-0.00169347 0.0390304 0)
(0.00203592 0.0341703 0)
(0.00650209 0.0308162 0)
(0.01188 0.0285982 0)
(0.0182109 0.0272101 0)
(0.025311 0.0263629 0)
(0.0330129 0.0257385 0)
(0.0410985 0.0249967 0)
(0.0492099 0.0237474 0)
(0.0567896 0.0215749 0)
(0.0630387 0.0181699 0)
(0.0667922 0.0133543 0)
(0.0669797 0.00702913 0)
(0.0636713 -0.00162887 0)
(0.0524753 -0.0131216 0)
(0.0537083 -0.0384189 0)
(0.0235348 -0.0760743 0)
(0.00520915 -0.267165 0)
(-0.00589536 0.0163747 0)
(-0.00904097 0.00951747 0)
(-0.000296991 0.0102993 0)
(0.00934176 0.0135606 0)
(0.0192893 0.0145214 0)
(0.0292871 0.0142598 0)
(0.0390695 0.0139063 0)
(0.0486843 0.0137155 0)
(0.0582223 0.013591 0)
(0.067702 0.0133934 0)
(0.0769734 0.0129902 0)
(0.085703 0.0122125 0)
(0.0933733 0.0109218 0)
(0.0995037 0.00893703 0)
(0.10287 0.00623394 0)
(0.105083 0.00169112 0)
(0.0955345 -0.00406142 0)
(0.105875 -0.0215103 0)
(0.0299225 -0.0420286 0)
(0.0712002 -0.225536 0)
(0.0409621 0.0924743 0)
(0.0622166 0.0696628 0)
(0.0876521 0.0437092 0)
(0.109586 0.029037 0)
(0.126627 0.0213056 0)
(0.141 0.0167476 0)
(0.154137 0.0137322 0)
(0.166451 0.0115779 0)
(0.178059 0.00995462 0)
(0.189069 0.00870148 0)
(0.199518 0.00767567 0)
(0.209332 0.00679641 0)
(0.218263 0.00599695 0)
(0.226174 0.00520675 0)
(0.231839 0.00433249 0)
(0.237503 0.00308163 0)
(0.230646 0.00167527 0)
(0.251501 -0.00344839 0)
(0.12484 0.00329482 0)
(0.378188 -0.0983051 0)
)
;

boundaryField
{
    movingWall
    {
        type            calculated;
        value           uniform (1.00032 -0.000312007 0);
    }
    fixedWalls
    {
        type            calculated;
        value           uniform (0.000318251 -0.000312007 0);
    }
    frontAndBack
    {
        type            empty;
    }
}


// ************************************************************************* //
