/*--------------------------------*- C++ -*----------------------------------*\
| =========                 |                                                 |
| \\      /  F ield         | OpenFOAM: The Open Source CFD Toolbox           |
|  \\    /   O peration     | Version:  2312                                  |
|   \\  /    A nd           | Website:  www.openfoam.com                      |
|    \\/     M anipulation  |                                                 |
\*---------------------------------------------------------------------------*/
FoamFile
{
    version     2.0;
    format      ascii;
    arch        "LSB;label=32;scalar=64";
    class       volScalarField;
    location    "1.5";
    object      divPhi;
}
// * * * * * * * * * * * * * * * * * * * * * * * * * * * * * * * * * * * * * //

dimensions      [0 0 -1 0 0 0 0];

internalField   nonuniform List<scalar> 
400
(
-2.06279e-05
-6.71982e-07
-8.77219e-07
-7.66699e-07
-5.76684e-07
-4.17652e-07
-2.95043e-07
-2.08798e-07
-1.40089e-07
-8.70435e-08
-3.80546e-08
1.59219e-10
3.82756e-08
6.62522e-08
9.18896e-08
1.05812e-07
1.17681e-07
1.1341e-07
9.27738e-08
5.31936e-08
-8.62429e-08
-3.90324e-07
-5.72062e-07
-5.32132e-07
-4.3283e-07
-3.12618e-07
-2.23785e-07
-1.43081e-07
-8.62803e-08
-3.18662e-08
8.31813e-09
4.89191e-08
7.85954e-08
1.0808e-07
1.28946e-07
1.48533e-07
1.53092e-07
1.4466e-07
1.40541e-07
1.03754e-07
7.4052e-07
1.5224e-07
-1.21167e-07
-2.02598e-07
-1.78581e-07
-1.29461e-07
-7.06347e-08
-2.11619e-08
2.53478e-08
6.2258e-08
9.68774e-08
1.24129e-07
1.51308e-07
1.72634e-07
1.93083e-07
2.07436e-07
2.13188e-07
2.12835e-07
2.34785e-07
1.06993e-07
5.12989e-07
3.32945e-07
1.44322e-07
5.85085e-08
3.53519e-08
5.12682e-08
7.6294e-08
1.07234e-07
1.33644e-07
1.59335e-07
1.79586e-07
1.99827e-07
2.16379e-07
2.33343e-07
2.4595e-07
2.54633e-07
2.64613e-07
2.66275e-07
2.33237e-07
1.87652e-07
7.5115e-07
4.91577e-07
3.37027e-07
2.50438e-07
2.16255e-07
2.04751e-07
2.09391e-07
2.16234e-07
2.26851e-07
2.34983e-07
2.44599e-07
2.52247e-07
2.61483e-07
2.68944e-07
2.72725e-07
2.76045e-07
2.65161e-07
2.64107e-07
3.69594e-07
1.16691e-07
5.57875e-07
5.1582e-07
4.3257e-07
3.73131e-07
3.33129e-07
3.12339e-07
2.98485e-07
2.92237e-07
2.86505e-07
2.84699e-07
2.82807e-07
2.82841e-07
2.83883e-07
2.85798e-07
2.83154e-07
2.68728e-07
2.713e-07
2.96711e-07
2.09619e-07
2.26988e-07
6.04286e-07
5.32323e-07
4.76678e-07
4.308e-07
3.97953e-07
3.70609e-07
3.51105e-07
3.33958e-07
3.21616e-07
3.10377e-07
3.0214e-07
2.96217e-07
2.97241e-07
2.97074e-07
2.86317e-07
2.74052e-07
2.39239e-07
2.10382e-07
3.98915e-07
8.06019e-08
5.44601e-07
5.20948e-07
4.82874e-07
4.48983e-07
4.16323e-07
3.88908e-07
3.63723e-07
3.43834e-07
3.26544e-07
3.13445e-07
3.01969e-07
2.96675e-07
2.93441e-07
2.95609e-07
2.84755e-07
2.49745e-07
2.41302e-07
2.79573e-07
1.19192e-07
2.10096e-07
4.66816e-07
4.70662e-07
4.5071e-07
4.23001e-07
3.95472e-07
3.67598e-07
3.43578e-07
3.23623e-07
3.08852e-07
2.95615e-07
2.85154e-07
2.78047e-07
2.82095e-07
2.82839e-07
2.65084e-07
2.46916e-07
2.01505e-07
1.40314e-07
3.69916e-07
3.15537e-08
4.837e-07
4.36943e-07
4.04e-07
3.76188e-07
3.48131e-07
3.22326e-07
2.98777e-07
2.80859e-07
2.66598e-07
2.54794e-07
2.46775e-07
2.45157e-07
2.39277e-07
2.39553e-07
2.26286e-07
1.90091e-07
1.85015e-07
2.41386e-07
2.00986e-08
1.51308e-07
3.08965e-07
3.37173e-07
3.25367e-07
3.02264e-07
2.77738e-07
2.52354e-07
2.30689e-07
2.1247e-07
1.98446e-07
1.86746e-07
1.77636e-07
1.67431e-07
1.66872e-07
1.61581e-07
1.45145e-07
1.36422e-07
1.0006e-07
2.59158e-08
2.70065e-07
-3.39146e-08
3.39587e-07
2.80369e-07
2.47924e-07
2.22716e-07
1.97321e-07
1.7439e-07
1.51879e-07
1.33595e-07
1.16727e-07
1.03015e-07
9.05634e-08
8.10495e-08
6.70335e-08
5.73606e-08
4.87375e-08
2.86903e-08
3.70134e-08
1.11005e-07
-1.23056e-07
5.23956e-08
1.3131e-07
1.62132e-07
1.53657e-07
1.33846e-07
1.13078e-07
8.9805e-08
6.90785e-08
4.76936e-08
2.96152e-08
1.19039e-08
-4.62545e-09
-2.32569e-08
-3.81358e-08
-5.31689e-08
-6.39529e-08
-5.98364e-08
-7.81891e-08
-1.48663e-07
6.96564e-08
-1.1138e-07
1.49249e-07
9.75094e-08
7.32733e-08
5.25858e-08
3.23722e-08
1.08804e-08
-1.03907e-08
-3.24003e-08
-5.32809e-08
-7.44621e-08
-9.28718e-08
-1.13021e-07
-1.34854e-07
-1.53692e-07
-1.61431e-07
-1.69385e-07
-1.52131e-07
-8.15661e-08
-2.78787e-07
-5.72795e-08
-1.93044e-08
1.96064e-09
-7.69369e-09
-2.0436e-08
-4.09936e-08
-5.86126e-08
-8.21999e-08
-1.01731e-07
-1.25689e-07
-1.44526e-07
-1.67774e-07
-1.8842e-07
-2.11946e-07
-2.28776e-07
-2.40989e-07
-2.33396e-07
-2.36624e-07
-2.97143e-07
-1.43873e-07
-1.59908e-07
-2.42658e-08
-5.25889e-08
-6.6961e-08
-8.18701e-08
-9.91984e-08
-1.17796e-07
-1.38593e-07
-1.59249e-07
-1.81107e-07
-2.01515e-07
-2.21994e-07
-2.43104e-07
-2.64737e-07
-2.81922e-07
-2.92315e-07
-2.96295e-07
-2.79907e-07
-2.28317e-07
-3.59395e-07
-1.32837e-07
-1.16753e-07
-1.20538e-07
-1.23642e-07
-1.41295e-07
-1.5118e-07
-1.74419e-07
-1.869e-07
-2.11645e-07
-2.25257e-07
-2.47644e-07
-2.61539e-07
-2.82825e-07
-2.97533e-07
-3.13903e-07
-3.23171e-07
-3.16492e-07
-3.06598e-07
-3.50134e-07
-2.88402e-07
-1.71003e-07
-1.52323e-07
-1.62921e-07
-1.7509e-07
-1.82456e-07
-1.99782e-07
-2.10799e-07
-2.29345e-07
-2.41545e-07
-2.59106e-07
-2.71013e-07
-2.86278e-07
-2.98427e-07
-3.12212e-07
-3.22382e-07
-3.28071e-07
-3.23257e-07
-3.09191e-07
-2.92665e-07
-3.56036e-07
-1.59005e-07
-1.7126e-07
-1.75244e-07
-1.84802e-07
-1.90377e-07
-2.02819e-07
-2.10578e-07
-2.2373e-07
-2.32271e-07
-2.45552e-07
-2.5504e-07
-2.67287e-07
-2.75745e-07
-2.85183e-07
-2.92334e-07
-2.95766e-07
-2.84247e-07
-2.65617e-07
-2.94857e-07
-3.20858e-07
-1.52811e-07
-8.31434e-08
-8.55465e-08
-8.52147e-08
-9.00814e-08
-9.18059e-08
-9.79469e-08
-1.00879e-07
-1.07096e-07
-1.10573e-07
-1.16216e-07
-1.19549e-07
-1.23833e-07
-1.27098e-07
-1.30212e-07
-1.27316e-07
-1.17033e-07
-1.15281e-07
-1.42412e-07
-1.54064e-07
0
)
;

boundaryField
{
    movingWall
    {
        type            extrapolatedCalculated;
        value           nonuniform List<scalar> 
20
(
-8.31434e-08
-8.55465e-08
-8.52147e-08
-9.00814e-08
-9.18059e-08
-9.79469e-08
-1.00879e-07
-1.07096e-07
-1.10573e-07
-1.16216e-07
-1.19549e-07
-1.23833e-07
-1.27098e-07
-1.30212e-07
-1.27316e-07
-1.17033e-07
-1.15281e-07
-1.42412e-07
-1.54064e-07
0
)
;
    }
    fixedWalls
    {
        type            extrapolatedCalculated;
        value           nonuniform List<scalar> 
60
(
-2.06279e-05
-8.62429e-08
7.4052e-07
5.12989e-07
7.5115e-07
5.57875e-07
6.04286e-07
5.44601e-07
4.66816e-07
4.837e-07
3.08965e-07
3.39587e-07
1.3131e-07
1.49249e-07
-1.93044e-08
-2.42658e-08
-1.16753e-07
-1.52323e-07
-1.7126e-07
-8.31434e-08
5.31936e-08
1.03754e-07
1.06993e-07
1.87652e-07
1.16691e-07
2.26988e-07
8.06019e-08
2.10096e-07
3.15537e-08
1.51308e-07
-3.39146e-08
5.23956e-08
-1.1138e-07
-5.72795e-08
-1.59908e-07
-1.32837e-07
-1.71003e-07
-1.59005e-07
-1.52811e-07
0
-2.06279e-05
-6.71982e-07
-8.77219e-07
-7.66699e-07
-5.76684e-07
-4.17652e-07
-2.95043e-07
-2.08798e-07
-1.40089e-07
-8.70435e-08
-3.80546e-08
1.59219e-10
3.82756e-08
6.62522e-08
9.18896e-08
1.05812e-07
1.17681e-07
1.1341e-07
9.27738e-08
5.31936e-08
)
;
    }
    frontAndBack
    {
        type            empty;
    }
}


// ************************************************************************* //
