/*--------------------------------*- C++ -*----------------------------------*\
| =========                 |                                                 |
| \\      /  F ield         | OpenFOAM: The Open Source CFD Toolbox           |
|  \\    /   O peration     | Version:  2312                                  |
|   \\  /    A nd           | Website:  www.openfoam.com                      |
|    \\/     M anipulation  |                                                 |
\*---------------------------------------------------------------------------*/
FoamFile
{
    version     2.0;
    format      ascii;
    arch        "LSB;label=32;scalar=64";
    class       volScalarField;
    location    "1.5";
    object      divU;
}
// * * * * * * * * * * * * * * * * * * * * * * * * * * * * * * * * * * * * * //

dimensions      [0 0 -1 0 0 0 0];

internalField   nonuniform List<scalar> 
400
(
0.00306967
0.0397414
0.026887
0.0332945
0.0325817
0.0319857
0.0315585
0.0305701
0.0217522
0.0205273
0.0244996
0.0184878
-0.00473038
-0.0324013
-0.0809786
-0.105128
-0.0898405
-0.0361521
-0.00378591
0.00250408
-0.0258903
0.00724933
-0.0233026
-0.0257972
-0.0243224
-0.0222977
-0.0199591
-0.01732
-0.0143322
-0.00738394
0.000944386
0.00971168
0.0464676
0.0570907
0.0533906
0.0468245
0.0457334
0.0622578
0.0431684
0.048605
-0.0303319
0.0258912
-0.00366541
-0.0124589
-0.0116698
-0.00994047
-0.00882672
-0.00753838
-0.00470387
0.00250378
0.0133383
0.0307661
0.0639909
0.0775242
0.0784627
0.0631436
0.0250176
0.0258218
0.0111445
0.0305633
-0.0456422
0.0264285
0.00300072
-0.00812962
-0.00862588
-0.0079085
-0.00829944
-0.00771388
-0.0052723
0.00155009
0.0146579
0.0355263
0.0895786
0.175516
0.191388
0.157263
0.122327
0.0320202
0.00625498
0.021771
-0.0453104
0.0290746
0.00936538
-0.00251961
-0.00374059
-0.00305039
-0.0040218
-0.00191188
0.0052662
0.0158018
0.0322634
0.0547107
0.0401515
-0.0185788
-0.0763467
-0.0711152
-0.00815409
0.238282
0.0574265
-0.078343
-0.041704
0.0274925
0.0101275
-0.00174562
-0.0038437
-0.00408808
-0.00639615
-0.00118956
0.00826018
-0.00648627
-0.0634741
-0.153824
-0.223859
-0.261107
-0.322802
-0.387799
-0.391502
-0.19613
-0.022483
0.466195
-0.0366594
0.0251434
0.0101436
-0.00129984
-0.00448222
-0.00595864
-0.0102435
-0.000708155
0.0111946
-0.0457852
-0.199398
-0.303769
-0.20232
-0.111755
-0.220395
-0.269654
-0.253659
-0.475187
-0.414659
0.461652
-0.0303668
0.0225079
0.0102793
0.000514081
-0.00259643
-0.00347491
-0.00549522
0.0181477
0.0364957
-0.027969
-0.189399
-0.219735
-0.0253309
0.213665
0.367453
0.272788
0.323613
0.110044
-1.23579
0.0940712
-0.0230332
0.0196235
0.010294
0.00279556
0.000584842
0.0018497
0.00519429
0.0359381
0.0669063
0.0180734
-0.193029
-0.126672
0.290927
0.581745
0.459739
0.142019
0.313636
0.743484
-0.598557
-0.41501
-0.0147505
0.0160173
0.00998323
0.00474289
0.00359087
0.00675344
0.013266
0.044068
0.071533
0.0424781
-0.175293
-0.106911
0.313874
0.503462
0.163822
-0.146856
-0.15906
0.674992
0.822798
-0.863742
-0.00654228
0.012619
0.00875398
0.00535226
0.00457941
0.00828946
0.0143229
0.0333568
0.072834
0.00490905
-0.0812539
-0.102772
0.238104
0.434154
0.226847
-0.0328813
-0.234992
0.0600605
1.23405
-0.699214
-0.000630664
0.00975078
0.00649559
0.00454659
0.00440562
0.00730859
0.00930223
0.0142668
0.052649
-0.013707
-0.0423309
-0.194343
0.0425595
0.400284
0.282608
-0.0384403
-0.148306
-0.185518
0.678234
-0.310408
0.00576806
0.00572018
0.00435461
0.00307343
0.00365744
0.00460924
0.00502944
0.00365072
0.016648
-0.0249093
-0.107099
-0.206759
-0.18495
0.0918511
0.0630279
-0.15061
-0.169957
-0.0668088
0.139402
-0.142065
0.00224255
0.00162307
-3.63952e-05
-0.000849979
-0.00128193
-0.00141587
-0.00170163
-0.00402435
-0.00996692
-0.0331854
-0.102455
-0.151747
-0.163236
-0.0621657
-0.0383973
-0.0864349
-0.129387
-0.0493751
-0.0164131
0.113911
0.0623352
0.0262761
0.0100608
0.00317437
-0.000512883
-0.00279391
-0.00544417
-0.00838638
-0.0149654
-0.0255918
-0.0499265
-0.0654149
-0.0577583
0.00980919
0.0459353
-0.0142324
-0.0916758
-0.108181
-0.0135625
0.138146
-0.279766
-0.22456
-0.137245
-0.0738015
-0.0342672
-0.0124579
-0.00148197
0.00358935
0.00475895
0.000984296
-0.00418121
-0.00370865
0.0110623
0.0349386
0.0518718
-0.0230638
-0.0549964
-0.206407
-0.294398
-0.771796
0.956079
0.834078
0.645921
0.410879
0.274498
0.196027
0.149737
0.119502
0.0972697
0.0782793
0.0636714
0.0544345
0.0690309
0.0781228
0.102698
-0.0445237
0.259445
-0.119796
-0.593069
-1.84608
-2.04385
-2.22424
-1.68446
-1.12519
-0.796601
-0.600832
-0.463413
-0.366034
-0.294931
-0.242214
-0.199023
-0.159083
-0.135927
-0.127077
-0.0419629
-0.335497
1.00417
-0.131485
0.521035
1.19807
3.22458
3.09332
2.30615
1.4453
1.04347
0.792963
0.591943
0.436789
0.323382
0.245588
0.192924
0.162145
0.162775
0.134961
0.288279
-0.262548
1.55887
-3.06415
4.46944
6.83734
-0.693087
-3.31142
-0.726293
-0.424642
-0.503767
-0.412165
-0.281078
-0.199543
-0.155191
-0.125961
-0.102703
-0.0888626
-0.0700961
-0.119119
0.0138776
-0.658983
1.57598
-8.14717
16.4797
-17.9175
)
;

boundaryField
{
    movingWall
    {
        type            extrapolatedCalculated;
        value           nonuniform List<scalar> 
20
(
-0.693087
-3.31142
-0.726293
-0.424642
-0.503767
-0.412165
-0.281078
-0.199543
-0.155191
-0.125961
-0.102703
-0.0888626
-0.0700961
-0.119119
0.0138776
-0.658983
1.57598
-8.14717
16.4797
-17.9175
)
;
    }
    fixedWalls
    {
        type            extrapolatedCalculated;
        value           nonuniform List<scalar> 
60
(
0.00306967
-0.0258903
-0.0303319
-0.0456422
-0.0453104
-0.041704
-0.0366594
-0.0303668
-0.0230332
-0.0147505
-0.00654228
-0.000630664
0.00576806
0.00224255
0.0623352
-0.279766
0.956079
-2.04385
3.22458
-0.693087
0.00250408
0.048605
0.0305633
0.021771
-0.078343
0.466195
0.461652
0.0940712
-0.41501
-0.863742
-0.699214
-0.310408
-0.142065
0.113911
0.138146
-0.771796
-1.84608
1.19807
6.83734
-17.9175
0.00306967
0.0397414
0.026887
0.0332945
0.0325817
0.0319857
0.0315585
0.0305701
0.0217522
0.0205273
0.0244996
0.0184878
-0.00473038
-0.0324013
-0.0809786
-0.105128
-0.0898405
-0.0361521
-0.00378591
0.00250408
)
;
    }
    frontAndBack
    {
        type            empty;
    }
}


// ************************************************************************* //
