/*--------------------------------*- C++ -*----------------------------------*\
| =========                 |                                                 |
| \\      /  F ield         | OpenFOAM: The Open Source CFD Toolbox           |
|  \\    /   O peration     | Version:  2312                                  |
|   \\  /    A nd           | Website:  www.openfoam.com                      |
|    \\/     M anipulation  |                                                 |
\*---------------------------------------------------------------------------*/
FoamFile
{
    version     2.0;
    format      ascii;
    arch        "LSB;label=32;scalar=64";
    class       volScalarField;
    location    "1.5";
    object      flowTypeField;
}
// * * * * * * * * * * * * * * * * * * * * * * * * * * * * * * * * * * * * * //

dimensions      [0 0 0 0 0 0 0];

internalField   nonuniform List<scalar> 
400
(
0.266054
0.205553
0.141334
0.0915383
0.0588182
0.0388948
0.0271978
0.020955
0.0185984
0.0180493
0.0191203
0.026519
0.0375186
0.05119
0.0720488
0.100604
0.140032
0.189467
0.231873
0.239586
0.186536
0.35604
0.458348
0.495542
0.486392
0.458021
0.428197
0.405163
0.392747
0.392226
0.406928
0.462296
0.528909
0.556518
0.545856
0.515265
0.474519
0.397523
0.26582
0.142298
0.133492
0.432951
0.571431
0.660279
0.70967
0.737804
0.764351
0.804391
0.862834
0.917522
0.909196
0.814752
0.689866
0.574727
0.478681
0.407588
0.371819
0.373013
0.353331
0.142549
0.0952443
0.492334
0.646778
0.742018
0.80949
0.864517
0.925183
0.997213
0.928024
0.92986
0.935255
0.727505
0.549152
0.413034
0.312208
0.241854
0.186313
0.147447
0.165774
0.13178
0.0662532
0.524834
0.706078
0.799629
0.869509
0.935718
0.986843
0.911691
0.88565
0.982094
0.795507
0.598103
0.477992
0.418288
0.3742
0.304379
0.216026
0.135274
0.0430782
0.0671803
0.0462607
0.531161
0.747604
0.841523
0.91291
0.987315
0.932488
0.87953
0.912348
0.916198
0.732059
0.661741
0.730197
0.898147
0.944266
0.712966
0.424311
0.219877
0.0934708
0.0165751
0.0332334
0.51667
0.775857
0.875765
0.950354
0.970168
0.899228
0.87891
0.958941
0.899528
0.889654
0.836694
0.373955
0.0323768
-0.0709069
0.0609577
0.61721
0.48125
0.168529
0.0276049
0.0247431
0.484221
0.793839
0.906925
0.98683
0.934354
0.877026
0.881377
0.963462
0.982477
0.721265
0.216738
-0.283715
-0.589952
-0.713416
-0.737604
-0.560617
0.302513
0.328833
0.0689668
0.0190168
0.434921
0.801542
0.936966
0.976485
0.902664
0.857525
0.872771
0.931325
0.813246
0.376523
-0.182885
-0.663225
-0.886436
-0.929835
-0.921215
-0.787239
-0.777554
0.956444
0.088703
0.0148954
0.370665
0.795877
0.965692
0.941646
0.873935
0.835516
0.843171
0.869886
0.669058
0.177355
-0.39882
-0.86557
-0.86348
-0.868068
-0.959174
-0.728036
-0.548408
-0.574894
0.0804688
0.0116745
0.296967
0.769593
0.991541
0.908447
0.845468
0.807232
0.800839
0.808114
0.611002
0.148141
-0.446464
-0.93102
-0.783077
-0.752501
-0.745118
-0.617841
-0.405236
-0.388811
0.0584549
0.00872451
0.220736
0.714397
0.990364
0.879255
0.81981
0.780355
0.762358
0.755224
0.626826
0.24489
-0.270138
-0.689645
-0.662098
-0.564217
-0.44861
-0.347247
-0.234934
-0.186931
0.0321346
0.00494096
0.143966
0.62175
0.994837
0.866821
0.809335
0.766496
0.736835
0.717141
0.644273
0.385236
-0.00288536
-0.352879
-0.443675
-0.341124
-0.209057
-0.11692
-0.0826603
-0.072988
0.0112327
-0.000430639
0.0545041
0.499812
0.965714
0.884362
0.824875
0.777682
0.735091
0.696943
0.642802
0.490579
0.227232
-0.0563832
-0.170524
-0.109615
-0.0149915
0.0508321
0.0152314
-0.0172957
0.00138995
-0.00882562
-0.0694753
0.424593
0.915298
0.929854
0.868276
0.817336
0.763166
0.705339
0.640099
0.540889
0.368551
0.14533
0.0208728
0.0463768
0.107274
0.143744
0.0466332
-0.0106171
0.00154385
-0.0228052
-0.199089
0.54764
0.900314
0.968129
0.909991
0.859782
0.801572
0.733101
0.651271
0.551881
0.410733
0.208611
0.0512414
0.0674386
0.125978
0.151862
-0.0191645
-0.0292943
0.011562
-0.024151
0.0619325
0.529832
0.938006
0.816452
0.783826
0.749787
0.706398
0.648736
0.569757
0.458859
0.293497
0.0282739
-0.273707
-0.179574
-0.0190129
0.00763531
-0.216075
-0.0164827
0.0463038
-0.037641
0.939542
0.541776
0.315672
0.22017
0.19983
0.200334
0.198614
0.187015
0.158756
0.104918
0.0162562
-0.115359
-0.266428
-0.34304
-0.27921
-0.43373
-0.402766
0.00652164
0.236818
0.698749
-0.0133363
0.0650133
0.0551131
0.0220043
0.0108377
0.0107703
0.0121058
0.0119502
0.00975826
0.00490464
-0.0030232
-0.0138758
-0.0261651
-0.0431817
-0.057814
-0.125764
-0.104078
-0.312713
0.736121
0.0852598
-0.0238582
-0.0204895
-0.0114166
-0.0062852
-0.00387336
-0.0026377
-0.00191986
-0.00145378
-0.00114589
-0.000959362
-0.000857385
-0.000837354
-0.00092188
-0.00122984
-0.00159704
-0.00386402
0.00315439
-0.0485576
0.118838
)
;

boundaryField
{
    movingWall
    {
        type            calculated;
        value           nonuniform List<scalar> 
20
(
0.0469954
-0.010078
-0.00985605
-0.00567841
-0.00316781
-0.00197332
-0.00136092
-0.00100492
-0.000772795
-0.000618602
-0.000524913
-0.000472594
-0.000461091
-0.000502459
-0.000666251
-0.000860868
-0.00210731
0.0011719
-0.0263883
0.0665653
)
;
    }
    fixedWalls
    {
        type            calculated;
        value           nonuniform List<scalar> 
60
(
0.182888
0.0850374
0.051758
0.0353666
0.0242857
0.0172474
0.0129815
0.0103544
0.00861068
0.00727243
0.00606476
0.00472897
0.00273598
-0.000244532
-0.00489
-0.0124651
-0.0192877
-0.0201743
0.714501
0.19219
0.42176
0.183845
0.124168
0.153375
0.179615
-0.0405589
-0.0407764
0.0327464
0.0470173
0.0390878
0.0266141
0.0144214
0.00545523
0.00153525
0.00167013
0.0050767
0.0159932
0.074746
0.439754
0.432288
0.179438
0.094848
0.0531873
0.0317919
0.0192702
0.0121831
0.00849751
0.00720646
0.00770121
0.00888531
0.0104899
0.0147877
0.0198086
0.0245865
0.0313977
0.0406737
0.0561781
0.0890026
0.219222
0.573769
)
;
    }
    frontAndBack
    {
        type            empty;
    }
}


// ************************************************************************* //
