/*--------------------------------*- C++ -*----------------------------------*\
| =========                 |                                                 |
| \\      /  F ield         | OpenFOAM: The Open Source CFD Toolbox           |
|  \\    /   O peration     | Version:  2312                                  |
|   \\  /    A nd           | Website:  www.openfoam.com                      |
|    \\/     M anipulation  |                                                 |
\*---------------------------------------------------------------------------*/
FoamFile
{
    version     2.0;
    format      ascii;
    arch        "LSB;label=32;scalar=64";
    class       surfaceScalarField;
    location    "1.5";
    object      fluxField;
}
// * * * * * * * * * * * * * * * * * * * * * * * * * * * * * * * * * * * * * //

dimensions      [0 3 -1 0 0 0 0];

oriented        oriented;

internalField   nonuniform List<scalar> 
760
(
-5.89966e-08
5.9764e-08
-1.78863e-07
1.29801e-07
-3.44257e-07
1.72117e-07
-5.27403e-07
1.91469e-07
-7.19445e-07
2.00187e-07
-9.16153e-07
2.04704e-07
-1.11388e-06
2.05616e-07
-1.30581e-06
1.9957e-07
-1.4802e-06
1.79834e-07
-1.61425e-06
1.3918e-07
-1.68325e-06
7.51197e-08
-1.66726e-06
-1.13657e-08
-1.54612e-06
-1.22318e-07
-1.32115e-06
-2.33071e-07
-1.02056e-06
-3.20834e-07
-6.88902e-07
-3.57943e-07
-3.78808e-07
-3.32554e-07
-1.37859e-07
-2.49986e-07
-1.07067e-08
-1.28099e-07
-1.00807e-08
-1.28745e-07
1.82036e-07
-3.01502e-07
3.04371e-07
-5.08968e-07
3.73757e-07
-7.34483e-07
4.10535e-07
-9.70746e-07
4.3037e-07
-1.21229e-06
4.40669e-07
-1.45189e-06
4.40227e-07
-1.67782e-06
4.21172e-07
-1.87282e-06
3.71255e-07
-2.01492e-06
2.7943e-07
-2.08149e-06
1.41928e-07
-2.05254e-06
-3.78886e-08
-1.91273e-06
-2.50512e-07
-1.66173e-06
-4.69793e-07
-1.32146e-06
-6.47763e-07
-9.37064e-07
-7.30629e-07
-5.70353e-07
-6.87832e-07
-2.73309e-07
-5.31467e-07
-8.15171e-08
-3.09098e-07
-7.94466e-08
-1.77366e-07
3.51819e-07
-3.71553e-07
5.05031e-07
-5.8737e-07
5.88657e-07
-8.19882e-07
6.39932e-07
-1.06496e-06
6.72532e-07
-1.31828e-06
6.91506e-07
-1.57298e-06
6.92716e-07
-1.81723e-06
6.63536e-07
-2.03414e-06
5.86989e-07
-2.2041e-06
4.50018e-07
-2.30744e-06
2.48601e-07
-2.32203e-06
-1.56013e-08
-2.21985e-06
-3.367e-07
-1.98016e-06
-6.90099e-07
-1.60644e-06
-1.00187e-06
-1.13913e-06
-1.18215e-06
-6.68575e-07
-1.15214e-06
-2.97386e-07
-8.962e-07
-8.22737e-08
-5.21424e-07
-1.54079e-07
-2.00636e-07
5.41045e-07
-4.05396e-07
7.16398e-07
-6.23777e-07
8.07788e-07
-8.5684e-07
8.70963e-07
-1.10427e-06
9.17809e-07
-1.36508e-06
9.50341e-07
-1.63539e-06
9.6095e-07
-1.90657e-06
9.32788e-07
-2.16658e-06
8.45671e-07
-2.40319e-06
6.87025e-07
-2.60482e-06
4.53889e-07
-2.75245e-06
1.40915e-07
-2.80114e-06
-2.65615e-07
-2.6781e-06
-7.69262e-07
-2.32088e-06
-1.31124e-06
-1.72369e-06
-1.74003e-06
-9.90968e-07
-1.85428e-06
-3.52543e-07
-1.52662e-06
-3.26751e-08
-8.39729e-07
-1.81312e-07
-2.05637e-07
7.35354e-07
-4.12291e-07
9.30321e-07
-6.29256e-07
1.02709e-06
-8.60529e-07
1.10161e-06
-1.10908e-06
1.16542e-06
-1.37768e-06
1.21818e-06
-1.66746e-06
1.24973e-06
-1.97672e-06
1.24156e-06
-2.30515e-06
1.17542e-06
-2.66345e-06
1.04928e-06
-3.07401e-06
8.72509e-07
-3.53708e-06
6.17659e-07
-3.96446e-06
1.7181e-07
-4.17133e-06
-5.67043e-07
-3.97053e-06
-1.53113e-06
-3.28391e-06
-2.44442e-06
-2.18686e-06
-2.95336e-06
-9.23325e-07
-2.73059e-06
-1.02688e-07
-1.64601e-06
-3.03585e-07
-1.98365e-07
9.23293e-07
-3.98981e-07
1.13781e-06
-6.09313e-07
1.23996e-06
-8.34464e-07
1.32632e-06
-1.08005e-06
1.41004e-06
-1.35292e-06
1.49003e-06
-1.66135e-06
1.55656e-06
-2.01566e-06
1.59557e-06
-2.44112e-06
1.60295e-06
-2.998e-06
1.60454e-06
-3.75613e-06
1.61476e-06
-4.67563e-06
1.4987e-06
-5.5178e-06
9.58019e-07
-5.98746e-06
-1.62658e-07
-5.93085e-06
-1.66844e-06
-5.29976e-06
-3.17246e-06
-4.06486e-06
-4.28614e-06
-2.32185e-06
-4.52262e-06
-6.38175e-07
-3.33531e-06
-8.25212e-07
-1.82075e-07
1.0962e-06
-3.6919e-07
1.33121e-06
-5.66072e-07
1.43938e-06
-7.77781e-07
1.53771e-06
-1.01165e-06
1.64279e-06
-1.27807e-06
1.75496e-06
-1.59274e-06
1.86867e-06
-1.97884e-06
1.98149e-06
-2.48711e-06
2.11402e-06
-3.21524e-06
2.32122e-06
-4.22014e-06
2.56981e-06
-5.33276e-06
2.53538e-06
-6.212e-06
1.78668e-06
-6.67097e-06
2.68374e-07
-6.74112e-06
-1.6534e-06
-6.40348e-06
-3.57751e-06
-5.4907e-06
-5.26233e-06
-3.83902e-06
-6.2931e-06
-1.58711e-06
-5.69088e-06
-2.29691e-06
-1.58381e-07
1.24699e-06
-3.24789e-07
1.50325e-06
-5.00323e-07
1.61748e-06
-6.88856e-07
1.72637e-06
-8.97865e-07
1.85115e-06
-1.13901e-06
1.99524e-06
-1.43119e-06
2.15948e-06
-1.80064e-06
2.35548e-06
-2.30411e-06
2.62662e-06
-3.02871e-06
3.03883e-06
-3.96476e-06
3.45851e-06
-4.88427e-06
3.39996e-06
-5.51827e-06
2.41434e-06
-5.79085e-06
5.94376e-07
-5.82578e-06
-1.52661e-06
-5.77078e-06
-3.56431e-06
-5.47514e-06
-5.47707e-06
-4.48094e-06
-7.2598e-06
-2.53536e-06
-7.94541e-06
-4.80875e-06
-1.287e-07
1.36993e-06
-2.67855e-07
1.64731e-06
-4.14206e-07
1.7664e-06
-5.69321e-07
1.88218e-06
-7.39001e-07
2.02098e-06
-9.33012e-07
2.18971e-06
-1.16729e-06
2.39506e-06
-1.46086e-06
2.65802e-06
-1.84815e-06
3.03064e-06
-2.37795e-06
3.57315e-06
-3.02355e-06
4.05585e-06
-3.59401e-06
3.93875e-06
-3.87023e-06
2.76329e-06
-3.85619e-06
7.2578e-07
-3.77084e-06
-1.49703e-06
-3.82657e-06
-3.47307e-06
-4.01294e-06
-5.21229e-06
-3.86959e-06
-7.21727e-06
-2.69473e-06
-9.26992e-06
-7.60723e-06
-9.5055e-08
1.4613e-06
-2.01957e-07
1.75821e-06
-3.12806e-07
1.87975e-06
-4.26089e-07
1.99665e-06
-5.44456e-07
2.14024e-06
-6.73291e-07
2.32024e-06
-8.20996e-07
2.54608e-06
-9.91748e-07
2.83979e-06
-1.18916e-06
3.24593e-06
-1.41585e-06
3.81046e-06
-1.67799e-06
4.27416e-06
-1.90315e-06
4.13718e-06
-1.9536e-06
2.89222e-06
-1.86382e-06
7.61865e-07
-1.78515e-06
-1.53474e-06
-1.83497e-06
-3.45997e-06
-2.12664e-06
-4.96038e-06
-2.49938e-06
-6.67579e-06
-2.14018e-06
-9.42341e-06
-9.96334e-06
-6.02666e-08
1.51993e-06
-1.32364e-07
1.83347e-06
-2.04221e-07
1.95379e-06
-2.70928e-07
2.06469e-06
-3.31418e-07
2.20188e-06
-3.85753e-07
2.37664e-06
-4.33602e-07
2.59751e-06
-4.66061e-07
2.88059e-06
-4.56709e-07
3.25479e-06
-3.89721e-07
3.7447e-06
-2.77481e-07
4.14161e-06
-1.63773e-07
3.99778e-06
-8.32634e-08
2.87123e-06
-7.14068e-08
8.58547e-07
-1.5607e-07
-1.39337e-06
-3.46354e-07
-3.2779e-06
-6.71532e-07
-4.69395e-06
-1.18161e-06
-6.15069e-06
-1.34507e-06
-8.95144e-06
-1.14832e-05
-2.77754e-08
1.54755e-06
-6.57301e-08
1.87386e-06
-9.83407e-08
1.98803e-06
-1.17842e-07
2.08533e-06
-1.19988e-07
2.20513e-06
-1.00703e-07
2.35918e-06
-5.38923e-08
2.55302e-06
3.65768e-08
2.79369e-06
2.11225e-07
3.0933e-06
5.00187e-07
3.45231e-06
8.98044e-07
3.73317e-06
1.28222e-06
3.56502e-06
1.52082e-06
2.64327e-06
1.53744e-06
9.41999e-07
1.27303e-06
-1.0583e-06
8.1659e-07
-2.83108e-06
3.04136e-07
-4.21857e-06
-2.85514e-07
-5.60742e-06
-7.13264e-07
-8.35413e-06
-1.22741e-05
-1.78126e-09
1.55077e-06
-9.66585e-09
1.88317e-06
-5.91161e-09
1.98536e-06
1.8762e-08
2.06143e-06
7.04059e-08
2.1544e-06
1.54616e-07
2.27613e-06
2.79732e-07
2.42916e-06
4.62134e-07
2.6122e-06
7.3715e-07
2.82245e-06
1.14028e-06
3.04296e-06
1.66578e-06
3.18089e-06
2.19261e-06
2.9865e-06
2.54859e-06
2.24106e-06
2.60105e-06
9.12502e-07
2.26632e-06
-7.0782e-07
1.65555e-06
-2.25796e-06
9.66646e-07
-3.57216e-06
2.63024e-07
-4.9205e-06
-3.65267e-07
-7.69099e-06
-1.26749e-05
1.22325e-08
1.5391e-06
2.74091e-08
1.8684e-06
6.23843e-08
1.95038e-06
1.26201e-07
1.9974e-06
2.24538e-07
2.05574e-06
3.62357e-07
2.13795e-06
5.46474e-07
2.24462e-06
7.88542e-07
2.36913e-06
1.1101e-06
2.4984e-06
1.53778e-06
2.60698e-06
2.06465e-06
2.62841e-06
2.59372e-06
2.4195e-06
2.95972e-06
1.83426e-06
3.01681e-06
8.39867e-07
2.70197e-06
-4.02576e-07
2.09464e-06
-1.67224e-06
1.34276e-06
-2.85263e-06
5.63007e-07
-4.15309e-06
-2.13417e-07
-6.91867e-06
-1.28598e-05
8.11773e-09
1.54657e-06
3.56359e-08
1.84745e-06
9.58539e-08
1.89268e-06
1.9339e-07
1.90065e-06
3.31729e-07
1.91727e-06
5.13258e-07
1.95573e-06
7.41034e-07
2.01548e-06
1.02051e-06
2.08755e-06
1.36009e-06
2.15507e-06
1.76961e-06
2.19106e-06
2.23841e-06
2.14713e-06
2.69531e-06
1.94625e-06
3.01102e-06
1.50411e-06
3.06557e-06
7.87764e-07
2.80271e-06
-1.28237e-07
2.25834e-06
-1.13142e-06
1.52368e-06
-2.14089e-06
7.35103e-07
-3.39156e-06
-1.3338e-07
-6.05358e-06
-1.29587e-05
-1.99471e-08
1.49657e-06
8.62675e-09
1.76274e-06
8.66971e-08
1.78029e-06
2.13185e-07
1.75572e-06
3.86112e-07
1.73578e-06
6.03959e-07
1.73476e-06
8.66185e-07
1.75289e-06
1.17268e-06
1.78196e-06
1.52232e-06
1.80662e-06
1.91009e-06
1.80354e-06
2.31781e-06
1.73837e-06
2.69608e-06
1.56705e-06
2.9576e-06
1.24536e-06
3.00885e-06
7.45242e-07
2.79942e-06
9.41664e-08
2.32997e-06
-6.67737e-07
1.66675e-06
-1.49142e-06
9.5645e-07
-2.73286e-06
1.649e-08
-5.18722e-06
-1.31351e-05
-1.03944e-07
1.83954e-06
-9.20139e-08
1.95933e-06
1.58987e-08
1.83386e-06
1.79274e-07
1.69506e-06
3.89382e-07
1.59429e-06
6.43176e-07
1.52998e-06
9.3836e-07
1.49514e-06
1.27107e-06
1.47912e-06
1.63475e-06
1.46726e-06
2.01703e-06
1.44083e-06
2.39524e-06
1.37607e-06
2.73012e-06
1.24578e-06
2.9658e-06
1.02694e-06
3.02739e-06
7.03178e-07
2.86759e-06
2.79646e-07
2.4503e-06
-2.6158e-07
1.93784e-06
-9.14095e-07
1.34829e-06
-2.17327e-06
2.92519e-07
-4.27971e-06
-1.33041e-05
-2.12784e-07
1.54136e-06
-1.71252e-07
1.36174e-06
-7.3513e-09
1.24884e-06
1.97538e-07
1.20887e-06
4.4364e-07
1.14904e-06
7.36359e-07
1.08705e-06
1.07213e-06
1.04351e-06
1.44219e-06
1.01756e-06
1.83687e-06
9.98837e-07
2.2418e-06
9.75353e-07
2.63407e-06
9.34041e-07
2.97979e-06
8.60285e-07
3.22986e-06
7.42893e-07
3.32838e-06
5.72883e-07
3.25036e-06
3.47177e-07
2.88775e-06
1.71567e-08
2.63868e-06
-4.13976e-07
1.91516e-06
-1.48263e-06
7.02687e-07
-2.93697e-06
-1.23019e-05
-3.89321e-07
2.73683e-06
-2.49362e-07
1.99511e-06
2.10207e-07
1.36581e-06
6.99863e-07
1.08054e-06
1.1985e-06
9.11276e-07
1.693e-06
7.90785e-07
2.17793e-06
7.06564e-07
2.65675e-06
6.47936e-07
3.1322e-06
6.04241e-07
3.60097e-06
5.67973e-07
4.051e-06
5.32247e-07
4.461e-06
4.90823e-07
4.80601e-06
4.3857e-07
5.04344e-06
3.69195e-07
5.18293e-06
2.79761e-07
4.99953e-06
1.34919e-07
5.01932e-06
-4.40534e-08
3.37902e-06
-6.08367e-07
2.51215e-06
-9.52745e-07
-8.08042e-06
2.56355e-06
3.73081e-06
4.91505e-06
5.88943e-06
6.67476e-06
7.3625e-06
7.9988e-06
8.59685e-06
9.16229e-06
9.69878e-06
1.02053e-05
1.0674e-05
1.1095e-05
1.14344e-05
1.17176e-05
1.16878e-05
1.20378e-05
9.3926e-06
1.25598e-05
)
;

boundaryField
{
    movingWall
    {
        type            calculated;
        value           uniform 0;
    }
    fixedWalls
    {
        type            calculated;
        value           uniform 0;
    }
    frontAndBack
    {
        type            empty;
        value           nonuniform List<scalar> 0();
    }
}


// ************************************************************************* //
