/*--------------------------------*- C++ -*----------------------------------*\
| =========                 |                                                 |
| \\      /  F ield         | OpenFOAM: The Open Source CFD Toolbox           |
|  \\    /   O peration     | Version:  2312                                  |
|   \\  /    A nd           | Website:  www.openfoam.com                      |
|    \\/     M anipulation  |                                                 |
\*---------------------------------------------------------------------------*/
FoamFile
{
    version     2.0;
    format      ascii;
    arch        "LSB;label=32;scalar=64";
    class       volVectorField;
    location    "1.5";
    object      gradPhi;
}
// * * * * * * * * * * * * * * * * * * * * * * * * * * * * * * * * * * * * * //

dimensions      [0 2 -1 0 0 0 0];

internalField   nonuniform List<vector> 
400
(
(-1.10793e-05 1.10783e-05 0)
(-2.46866e-05 2.46866e-05 0)
(-3.29129e-05 3.29128e-05 0)
(-3.66468e-05 3.66468e-05 0)
(-3.83406e-05 3.83406e-05 0)
(-3.92574e-05 3.92573e-05 0)
(-3.95116e-05 3.95116e-05 0)
(-3.84496e-05 3.84496e-05 0)
(-3.47436e-05 3.47436e-05 0)
(-2.69258e-05 2.69258e-05 0)
(-1.45287e-05 1.45287e-05 0)
(2.16504e-06 -2.16504e-06 0)
(2.33949e-05 -2.33949e-05 0)
(4.46092e-05 -4.46092e-05 0)
(6.13081e-05 -6.13081e-05 0)
(6.8308e-05 -6.8308e-05 0)
(6.34465e-05 -6.34465e-05 0)
(4.77357e-05 -4.77357e-05 0)
(2.44332e-05 -2.44332e-05 0)
(1.68233e-06 -1.68233e-06 0)
(-2.46658e-05 2.46658e-05 0)
(-3.57536e-05 3.57536e-05 0)
(-4.14542e-05 4.14541e-05 0)
(-4.49851e-05 4.49851e-05 0)
(-4.71708e-05 4.71707e-05 0)
(-4.82551e-05 4.82551e-05 0)
(-4.78849e-05 4.78849e-05 0)
(-4.51469e-05 4.51469e-05 0)
(-3.89359e-05 3.89359e-05 0)
(-2.85355e-05 2.85355e-05 0)
(-1.36596e-05 1.36596e-05 0)
(5.35564e-06 -5.35564e-06 0)
(2.70502e-05 -2.70502e-05 0)
(4.9899e-05 -4.9899e-05 0)
(6.87323e-05 -6.87323e-05 0)
(7.81817e-05 -7.81817e-05 0)
(7.46951e-05 -7.4695e-05 0)
(5.93995e-05 -5.93995e-05 0)
(3.82015e-05 -3.82014e-05 0)
(1.49325e-05 -1.49325e-05 0)
(-3.40344e-05 3.40344e-05 0)
(-4.0354e-05 4.0354e-05 0)
(-4.33272e-05 4.33272e-05 0)
(-4.6327e-05 4.6327e-05 0)
(-4.89055e-05 4.89055e-05 0)
(-5.06153e-05 5.06153e-05 0)
(-5.08865e-05 5.08865e-05 0)
(-4.87722e-05 4.87722e-05 0)
(-4.3317e-05 4.3317e-05 0)
(-3.40336e-05 3.40336e-05 0)
(-2.06467e-05 2.06467e-05 0)
(-3.57792e-06 3.57793e-06 0)
(1.95575e-05 -1.95575e-05 0)
(4.73157e-05 -4.73157e-05 0)
(7.52622e-05 -7.52622e-05 0)
(9.48811e-05 -9.4881e-05 0)
(9.57517e-05 -9.57517e-05 0)
(7.45139e-05 -7.45139e-05 0)
(4.24614e-05 -4.24614e-05 0)
(1.50536e-05 -1.50536e-05 0)
(-3.84151e-05 3.84151e-05 0)
(-4.25894e-05 4.25894e-05 0)
(-4.40516e-05 4.40516e-05 0)
(-4.6456e-05 4.6456e-05 0)
(-4.93507e-05 4.93507e-05 0)
(-5.2095e-05 5.2095e-05 0)
(-5.39745e-05 5.39745e-05 0)
(-5.41276e-05 5.41276e-05 0)
(-5.1904e-05 5.1904e-05 0)
(-4.73319e-05 4.73319e-05 0)
(-4.04576e-05 4.04576e-05 0)
(-2.95461e-05 2.95461e-05 0)
(-1.11449e-05 1.11449e-05 0)
(2.328e-05 -2.328e-05 0)
(7.19452e-05 -7.19452e-05 0)
(0.000121768 -0.000121768 0)
(0.000148701 -0.000148701 0)
(0.000127639 -0.000127639 0)
(6.25517e-05 -6.25517e-05 0)
(5.55841e-06 -5.5584e-06 0)
(-3.92918e-05 3.92919e-05 0)
(-4.2945e-05 4.2945e-05 0)
(-4.39099e-05 4.39099e-05 0)
(-4.61521e-05 4.61521e-05 0)
(-4.95599e-05 4.95599e-05 0)
(-5.36236e-05 5.36236e-05 0)
(-5.78214e-05 5.78214e-05 0)
(-6.17706e-05 6.17706e-05 0)
(-6.57335e-05 6.57335e-05 0)
(-7.16656e-05 7.16657e-05 0)
(-8.1877e-05 8.1877e-05 0)
(-9.17163e-05 9.17163e-05 0)
(-8.82515e-05 8.82515e-05 0)
(-4.21769e-05 4.2177e-05 0)
(3.99685e-05 -3.99685e-05 0)
(0.000138646 -0.000138646 0)
(0.000223737 -0.000223737 0)
(0.000251019 -0.000251019 0)
(0.000164959 -0.000164959 0)
(1.81659e-05 -1.81659e-05 0)
(-3.78597e-05 3.78597e-05 0)
(-4.16301e-05 4.16301e-05 0)
(-4.264e-05 4.264e-05 0)
(-4.49849e-05 4.4985e-05 0)
(-4.89709e-05 4.89709e-05 0)
(-5.44463e-05 5.44463e-05 0)
(-6.14878e-05 6.14878e-05 0)
(-7.09732e-05 7.09732e-05 0)
(-8.57186e-05 8.57186e-05 0)
(-0.000111476 0.000111476 0)
(-0.000150461 0.000150461 0)
(-0.000182816 0.000182816 0)
(-0.000167257 0.000167257 0)
(-9.56543e-05 9.56543e-05 0)
(7.42038e-06 -7.42037e-06 0)
(0.000124319 -0.000124319 0)
(0.000248655 -0.000248655 0)
(0.000352907 -0.000352907 0)
(0.000344844 -0.000344844 0)
(0.00011823 -0.00011823 0)
(-3.47365e-05 3.47366e-05 0)
(-3.87707e-05 3.87708e-05 0)
(-3.99515e-05 3.99515e-05 0)
(-4.23501e-05 4.23501e-05 0)
(-4.66523e-05 4.66523e-05 0)
(-5.31562e-05 5.31562e-05 0)
(-6.27354e-05 6.27354e-05 0)
(-7.78182e-05 7.78182e-05 0)
(-0.000103497 0.000103497 0)
(-0.000146268 0.000146268 0)
(-0.000197068 0.000197068 0)
(-0.000216394 0.000216394 0)
(-0.00017599 0.00017599 0)
(-9.56812e-05 9.56812e-05 0)
(-1.86027e-05 1.86027e-05 0)
(6.40248e-05 -6.40248e-05 0)
(0.000175952 -0.000175952 0)
(0.000335748 -0.000335748 0)
(0.000472724 -0.000472724 0)
(0.000301223 -0.000301223 0)
(-3.02153e-05 3.02153e-05 0)
(-3.44377e-05 3.44377e-05 0)
(-3.56472e-05 3.56472e-05 0)
(-3.77687e-05 3.77687e-05 0)
(-4.17347e-05 4.17348e-05 0)
(-4.81694e-05 4.81695e-05 0)
(-5.83716e-05 5.83717e-05 0)
(-7.52048e-05 7.52049e-05 0)
(-0.00010351 0.00010351 0)
(-0.000145282 0.000145282 0)
(-0.000179551 0.000179551 0)
(-0.000175005 0.000175005 0)
(-0.000126187 0.000126187 0)
(-6.35108e-05 6.35108e-05 0)
(-1.30082e-05 1.30082e-05 0)
(1.17202e-05 -1.17202e-05 0)
(5.02359e-05 -5.02358e-05 0)
(0.000185141 -0.000185141 0)
(0.000430116 -0.000430116 0)
(0.000490391 -0.000490391 0)
(-2.45529e-05 2.4553e-05 0)
(-2.8772e-05 2.87721e-05 0)
(-2.97542e-05 2.97543e-05 0)
(-3.11332e-05 3.11332e-05 0)
(-3.39344e-05 3.39344e-05 0)
(-3.88575e-05 3.88575e-05 0)
(-4.70613e-05 4.70614e-05 0)
(-6.0432e-05 6.0432e-05 0)
(-8.05821e-05 8.05821e-05 0)
(-0.000106248 0.000106248 0)
(-0.00011725 0.00011725 0)
(-0.000101789 0.000101789 0)
(-5.85149e-05 5.85149e-05 0)
(-1.33269e-05 1.33269e-05 0)
(1.07481e-05 -1.07481e-05 0)
(-3.04008e-06 3.04009e-06 0)
(-3.74987e-05 3.74987e-05 0)
(-2.18641e-07 2.18648e-07 0)
(0.000253427 -0.000253427 0)
(0.000548791 -0.000548791 0)
(-1.81285e-05 1.81285e-05 0)
(-2.20896e-05 2.20896e-05 0)
(-2.25858e-05 2.25858e-05 0)
(-2.27978e-05 2.27978e-05 0)
(-2.37276e-05 2.37276e-05 0)
(-2.59242e-05 2.59242e-05 0)
(-2.99257e-05 2.99257e-05 0)
(-3.5887e-05 3.5887e-05 0)
(-4.22592e-05 4.22592e-05 0)
(-4.521e-05 4.521e-05 0)
(-3.95396e-05 3.95396e-05 0)
(-3.01262e-05 3.01262e-05 0)
(-1.67411e-05 1.67412e-05 0)
(-3.75694e-06 3.75695e-06 0)
(8.38532e-06 -8.38531e-06 0)
(-2.59658e-07 2.59667e-07 0)
(-4.51908e-05 4.51908e-05 0)
(-9.46348e-05 9.46348e-05 0)
(4.37496e-05 -4.37496e-05 0)
(0.00046665 -0.00046665 0)
(-1.14702e-05 1.14702e-05 0)
(-1.49136e-05 1.49136e-05 0)
(-1.46999e-05 1.47e-05 0)
(-1.34916e-05 1.34916e-05 0)
(-1.21808e-05 1.21809e-05 0)
(-1.10692e-05 1.10692e-05 0)
(-9.96959e-06 9.9696e-06 0)
(-7.65873e-06 7.65874e-06 0)
(-4.30472e-07 4.30482e-07 0)
(1.5158e-05 -1.5158e-05 0)
(2.90202e-05 -2.90202e-05 0)
(2.89195e-05 -2.89195e-05 0)
(1.18007e-05 -1.18007e-05 0)
(-8.51666e-06 8.51667e-06 0)
(-2.10199e-05 2.10199e-05 0)
(-3.47448e-05 3.47448e-05 0)
(-5.22241e-05 5.22241e-05 0)
(-9.96641e-05 9.96641e-05 0)
(-8.11957e-05 8.11957e-05 0)
(0.000308351 -0.000308351 0)
(-5.24435e-06 5.24437e-06 0)
(-7.9059e-06 7.90591e-06 0)
(-6.74211e-06 6.74212e-06 0)
(-4.03838e-06 4.03839e-06 0)
(-5.0257e-07 5.0258e-07 0)
(3.69255e-06 -3.69254e-06 0)
(9.24489e-06 -9.24489e-06 0)
(1.81079e-05 -1.81079e-05 0)
(3.29811e-05 -3.29811e-05 0)
(5.928e-05 -5.928e-05 0)
(8.40862e-05 -8.40862e-05 0)
(8.95401e-05 -8.95401e-05 0)
(4.71579e-05 -4.71579e-05 0)
(-1.51918e-05 1.51918e-05 0)
(-6.40139e-05 6.40139e-05 0)
(-8.457e-05 8.457e-05 0)
(-9.38738e-05 9.38738e-05 0)
(-0.00011146 0.00011146 0)
(-0.000116951 0.000116951 0)
(0.000166404 -0.000166404 0)
(-2.99814e-07 2.99821e-07 0)
(-1.71893e-06 1.71894e-06 0)
(6.73485e-07 -6.73477e-07 0)
(4.9162e-06 -4.91619e-06 0)
(1.02114e-05 -1.02114e-05 0)
(1.66763e-05 -1.66763e-05 0)
(2.47925e-05 -2.47925e-05 0)
(3.61376e-05 -3.61376e-05 0)
(5.41262e-05 -5.41262e-05 0)
(8.17704e-05 -8.17704e-05 0)
(0.000108875 -0.000108875 0)
(0.000112302 -0.000112302 0)
(7.31673e-05 -7.31673e-05 0)
(-1.13672e-06 1.13672e-06 0)
(-7.73661e-05 7.73661e-05 0)
(-0.000119561 0.000119561 0)
(-0.000131317 0.000131317 0)
(-0.000137506 0.000137506 0)
(-0.000136479 0.000136479 0)
(8.17364e-05 -8.17364e-05 0)
(2.34436e-06 -2.34435e-06 0)
(2.98513e-06 -2.98512e-06 0)
(6.94542e-06 -6.94542e-06 0)
(1.2686e-05 -1.2686e-05 0)
(1.96332e-05 -1.96332e-05 0)
(2.75079e-05 -2.75079e-05 0)
(3.6734e-05 -3.6734e-05 0)
(4.83387e-05 -4.83387e-05 0)
(6.41969e-05 -6.41969e-05 0)
(8.59382e-05 -8.59382e-05 0)
(0.000107811 -0.000107811 0)
(0.000109027 -0.000109027 0)
(7.48335e-05 -7.48335e-05 0)
(5.48258e-06 -5.48259e-06 0)
(-6.87967e-05 6.87967e-05 0)
(-0.000122884 0.000122884 0)
(-0.000147166 0.000147166 0)
(-0.000155586 0.000155586 0)
(-0.000153305 0.000153305 0)
(4.32736e-05 -4.32736e-05 0)
(1.48076e-06 -1.48076e-06 0)
(5.40178e-06 -5.40178e-06 0)
(1.20077e-05 -1.20077e-05 0)
(1.95081e-05 -1.95081e-05 0)
(2.76783e-05 -2.76783e-05 0)
(3.63039e-05 -3.63039e-05 0)
(4.55773e-05 -4.55773e-05 0)
(5.59438e-05 -5.59438e-05 0)
(6.8063e-05 -6.8063e-05 0)
(8.22518e-05 -8.22518e-05 0)
(9.50665e-05 -9.50665e-05 0)
(9.29831e-05 -9.29831e-05 0)
(6.40223e-05 -6.40223e-05 0)
(8.29159e-06 -8.2916e-06 0)
(-5.64562e-05 5.64561e-05 0)
(-0.000110996 0.000110996 0)
(-0.000145367 0.000145367 0)
(-0.000157478 0.000157478 0)
(-0.000173292 0.000173292 0)
(2.90093e-05 -2.90093e-05 0)
(-4.39987e-06 4.39987e-06 0)
(5.99091e-06 -5.99091e-06 0)
(1.53286e-05 -1.53286e-05 0)
(2.54271e-05 -2.54271e-05 0)
(3.46409e-05 -3.46409e-05 0)
(4.35896e-05 -4.35896e-05 0)
(5.25174e-05 -5.25174e-05 0)
(6.1435e-05 -6.1435e-05 0)
(7.01481e-05 -7.01481e-05 0)
(7.79817e-05 -7.79817e-05 0)
(8.23412e-05 -8.23412e-05 0)
(7.65833e-05 -7.65833e-05 0)
(5.25609e-05 -5.25609e-05 0)
(8.96787e-06 -8.96788e-06 0)
(-4.49749e-05 4.49749e-05 0)
(-9.45327e-05 9.45327e-05 0)
(-0.000133345 0.000133345 0)
(-0.000139553 0.000139553 0)
(-0.000189515 0.000189515 0)
(-1.19162e-06 1.19161e-06 0)
(-2.22664e-05 2.22663e-05 0)
(3.34592e-06 -3.34593e-06 0)
(2.18373e-05 -2.18373e-05 0)
(3.26864e-05 -3.26864e-05 0)
(4.20546e-05 -4.20546e-05 0)
(5.07753e-05 -5.07753e-05 0)
(5.91368e-05 -5.91368e-05 0)
(6.67401e-05 -6.67401e-05 0)
(7.30457e-05 -7.30457e-05 0)
(7.69637e-05 -7.69637e-05 0)
(7.62771e-05 -7.62771e-05 0)
(6.76718e-05 -6.76718e-05 0)
(4.712e-05 -4.712e-05 0)
(1.15291e-05 -1.15291e-05 0)
(-3.50022e-05 3.50022e-05 0)
(-7.96635e-05 7.96634e-05 0)
(-0.00011755 0.00011755 0)
(-0.000114257 0.000114257 0)
(-0.00019498 0.00019498 0)
(-6.54637e-05 6.54637e-05 0)
(-4.67524e-05 4.67524e-05 0)
(1.31506e-05 -1.31506e-05 0)
(3.2545e-05 -3.2545e-05 0)
(3.9905e-05 -3.9905e-05 0)
(4.90124e-05 -4.90124e-05 0)
(5.89406e-05 -5.89406e-05 0)
(6.73877e-05 -6.73877e-05 0)
(7.43204e-05 -7.43205e-05 0)
(7.94008e-05 -7.94008e-05 0)
(8.16377e-05 -8.16377e-05 0)
(7.92187e-05 -7.92187e-05 0)
(6.96101e-05 -6.96102e-05 0)
(5.01157e-05 -5.01157e-05 0)
(1.9802e-05 -1.9802e-05 0)
(-1.98998e-05 1.98998e-05 0)
(-5.76406e-05 5.76405e-05 0)
(-9.59566e-05 9.59566e-05 0)
(-0.000119837 0.000119837 0)
(-0.000215273 0.000215273 0)
(-0.000159688 0.000159688 0)
(-8.20471e-05 8.20471e-05 0)
(2.82781e-05 -2.82781e-05 0)
(9.22741e-05 -9.22741e-05 0)
(0.000102968 -0.000102968 0)
(0.000100375 -0.000100375 0)
(9.77702e-05 -9.77702e-05 0)
(9.63082e-05 -9.63082e-05 0)
(9.56248e-05 -9.56248e-05 0)
(9.54091e-05 -9.54091e-05 0)
(9.4331e-05 -9.43311e-05 0)
(9.06363e-05 -9.06363e-05 0)
(8.25626e-05 -8.25626e-05 0)
(6.90884e-05 -6.90884e-05 0)
(4.97415e-05 -4.97415e-05 0)
(2.41843e-05 -2.41843e-05 0)
(-1.55863e-05 1.55863e-05 0)
(-6.85483e-05 6.85483e-05 0)
(-0.000161692 0.000161692 0)
(-0.000406928 0.000406928 0)
(-0.00038475 0.00038475 0)
(0.000461633 -0.000461633 0)
(0.000317415 -0.000317415 0)
(0.000216065 -0.000216065 0)
(0.000179035 -0.000179035 0)
(0.000157425 -0.000157425 0)
(0.000140213 -0.000140213 0)
(0.000127932 -0.000127932 0)
(0.000119593 -0.000119593 0)
(0.000113261 -0.000113261 0)
(0.000107664 -0.000107664 0)
(0.000101708 -0.000101708 0)
(9.42502e-05 -9.42502e-05 0)
(8.42177e-05 -8.42177e-05 0)
(7.00339e-05 -7.00339e-05 0)
(5.11861e-05 -5.11862e-05 0)
(2.16294e-05 -2.16294e-05 0)
(-1.31375e-05 1.31375e-05 0)
(-0.000142218 0.000142218 0)
(-0.000209546 0.000209546 0)
(-0.00199836 0.00199836 0)
)
;

boundaryField
{
    movingWall
    {
        type            extrapolatedCalculated;
        value           nonuniform List<vector> 
20
(
(0.000461633 -0.000461633 0)
(0.000317415 -0.000317415 0)
(0.000216065 -0.000216065 0)
(0.000179035 -0.000179035 0)
(0.000157425 -0.000157425 0)
(0.000140213 -0.000140213 0)
(0.000127932 -0.000127932 0)
(0.000119593 -0.000119593 0)
(0.000113261 -0.000113261 0)
(0.000107664 -0.000107664 0)
(0.000101708 -0.000101708 0)
(9.42502e-05 -9.42502e-05 0)
(8.42177e-05 -8.42177e-05 0)
(7.00339e-05 -7.00339e-05 0)
(5.11861e-05 -5.11862e-05 0)
(2.16294e-05 -2.16294e-05 0)
(-1.31375e-05 1.31375e-05 0)
(-0.000142218 0.000142218 0)
(-0.000209546 0.000209546 0)
(-0.00199836 0.00199836 0)
)
;
    }
    fixedWalls
    {
        type            extrapolatedCalculated;
        value           nonuniform List<vector> 
60
(
(-1.10793e-05 1.10783e-05 0)
(-2.46658e-05 2.46658e-05 0)
(-3.40344e-05 3.40344e-05 0)
(-3.84151e-05 3.84151e-05 0)
(-3.92918e-05 3.92919e-05 0)
(-3.78597e-05 3.78597e-05 0)
(-3.47365e-05 3.47366e-05 0)
(-3.02153e-05 3.02153e-05 0)
(-2.45529e-05 2.4553e-05 0)
(-1.81285e-05 1.81285e-05 0)
(-1.14702e-05 1.14702e-05 0)
(-5.24435e-06 5.24437e-06 0)
(-2.99814e-07 2.99821e-07 0)
(2.34436e-06 -2.34435e-06 0)
(1.48076e-06 -1.48076e-06 0)
(-4.39987e-06 4.39987e-06 0)
(-2.22664e-05 2.22663e-05 0)
(-4.67524e-05 4.67524e-05 0)
(-8.20471e-05 8.20471e-05 0)
(0.000461633 -0.000461633 0)
(1.68233e-06 -1.68233e-06 0)
(1.49325e-05 -1.49325e-05 0)
(1.50536e-05 -1.50536e-05 0)
(5.55841e-06 -5.5584e-06 0)
(1.81659e-05 -1.81659e-05 0)
(0.00011823 -0.00011823 0)
(0.000301223 -0.000301223 0)
(0.000490391 -0.000490391 0)
(0.000548791 -0.000548791 0)
(0.00046665 -0.00046665 0)
(0.000308351 -0.000308351 0)
(0.000166404 -0.000166404 0)
(8.17364e-05 -8.17364e-05 0)
(4.32736e-05 -4.32736e-05 0)
(2.90093e-05 -2.90093e-05 0)
(-1.19162e-06 1.19161e-06 0)
(-6.54637e-05 6.54637e-05 0)
(-0.000159688 0.000159688 0)
(-0.00038475 0.00038475 0)
(-0.00199836 0.00199836 0)
(-1.10793e-05 1.10783e-05 0)
(-2.46866e-05 2.46866e-05 0)
(-3.29129e-05 3.29128e-05 0)
(-3.66468e-05 3.66468e-05 0)
(-3.83406e-05 3.83406e-05 0)
(-3.92574e-05 3.92573e-05 0)
(-3.95116e-05 3.95116e-05 0)
(-3.84496e-05 3.84496e-05 0)
(-3.47436e-05 3.47436e-05 0)
(-2.69258e-05 2.69258e-05 0)
(-1.45287e-05 1.45287e-05 0)
(2.16504e-06 -2.16504e-06 0)
(2.33949e-05 -2.33949e-05 0)
(4.46092e-05 -4.46092e-05 0)
(6.13081e-05 -6.13081e-05 0)
(6.8308e-05 -6.8308e-05 0)
(6.34465e-05 -6.34465e-05 0)
(4.77357e-05 -4.77357e-05 0)
(2.44332e-05 -2.44332e-05 0)
(1.68233e-06 -1.68233e-06 0)
)
;
    }
    frontAndBack
    {
        type            empty;
    }
}


// ************************************************************************* //
