/*--------------------------------*- C++ -*----------------------------------*\
| =========                 |                                                 |
| \\      /  F ield         | OpenFOAM: The Open Source CFD Toolbox           |
|  \\    /   O peration     | Version:  2312                                  |
|   \\  /    A nd           | Website:  www.openfoam.com                      |
|    \\/     M anipulation  |                                                 |
\*---------------------------------------------------------------------------*/
FoamFile
{
    version     2.0;
    format      ascii;
    arch        "LSB;label=32;scalar=64";
    class       volScalarField;
    location    "1.5";
    object      initialResidual:Uy;
}
// * * * * * * * * * * * * * * * * * * * * * * * * * * * * * * * * * * * * * //

dimensions      [0 0 0 0 0 0 0];

internalField   nonuniform List<scalar> 
400
(
4.09721e-11
1.67375e-10
2.44523e-10
2.80374e-10
3.19394e-10
3.89894e-10
4.94684e-10
6.03325e-10
6.44111e-10
5.6037e-10
3.45347e-10
-1.6842e-10
-7.05569e-10
-1.13487e-09
-1.31731e-09
-1.1527e-09
-7.47291e-10
-2.11266e-10
2.15279e-10
3.70335e-10
4.21792e-10
1.00514e-09
1.34477e-09
1.52734e-09
1.6954e-09
1.89533e-09
2.07118e-09
2.08442e-09
1.76053e-09
1.03504e-09
1.37515e-11
-1.14138e-09
-2.22308e-09
-3.00835e-09
-3.35212e-09
-3.06971e-09
-2.22666e-09
-9.5037e-10
3.90856e-10
9.39858e-10
1.19223e-09
2.1071e-09
2.68111e-09
3.06757e-09
3.40278e-09
3.71598e-09
3.88214e-09
3.65691e-09
2.82872e-09
1.47329e-09
-6.52561e-11
-1.57146e-09
-3.12699e-09
-4.71856e-09
-5.85402e-09
-6.05984e-09
-4.95784e-09
-2.26954e-09
3.83456e-10
1.84074e-09
2.16591e-09
3.29253e-09
4.02427e-09
4.59628e-09
5.10759e-09
5.53944e-09
5.69506e-09
5.26225e-09
4.13165e-09
2.66966e-09
1.31706e-09
-2.6126e-11
-1.85074e-09
-3.87553e-09
-6.53945e-09
-9.34099e-09
-1.08138e-08
-8.06722e-09
-1.37545e-09
2.94848e-09
3.24655e-09
4.5276e-09
5.3615e-09
6.09339e-09
6.79134e-09
7.36867e-09
7.57449e-09
7.13026e-09
6.16791e-09
5.51418e-09
6.26595e-09
8.47795e-09
1.00239e-08
5.42934e-09
-5.67391e-09
-1.73879e-08
-2.55737e-08
-2.48427e-08
-1.26514e-08
2.09037e-09
4.30823e-09
5.70879e-09
6.61441e-09
7.48897e-09
8.37e-09
9.1301e-09
9.54441e-09
9.56771e-09
1.00131e-08
1.30383e-08
2.00009e-08
2.56393e-08
1.92595e-08
2.49863e-09
-1.28564e-08
-2.64668e-08
-3.97661e-08
-4.90785e-08
-4.20543e-08
-1.05098e-08
5.24309e-09
6.74056e-09
7.69165e-09
8.67268e-09
9.71379e-09
1.06966e-08
1.15487e-08
1.2701e-08
1.5978e-08
2.40265e-08
3.32294e-08
3.06131e-08
1.46159e-08
-4.55062e-09
-1.41851e-08
-1.95243e-08
-3.16094e-08
-5.29045e-08
-6.27106e-08
-3.12389e-08
5.96066e-09
7.5402e-09
8.50599e-09
9.53757e-09
1.06806e-08
1.18666e-08
1.32272e-08
1.5604e-08
2.10897e-08
3.10446e-08
3.55254e-08
2.2044e-08
-1.76731e-09
-1.43392e-08
-1.19718e-08
-3.58375e-09
-2.85871e-09
-2.52435e-08
-6.65115e-08
-6.79363e-08
6.39272e-09
8.04022e-09
8.98438e-09
9.99598e-09
1.1144e-08
1.24144e-08
1.40778e-08
1.70868e-08
2.32354e-08
3.14752e-08
2.82539e-08
7.87132e-09
-1.66737e-08
-2.72407e-08
-2.08339e-08
-4.77518e-09
1.202e-08
1.05481e-08
-3.25809e-08
-7.14988e-08
6.49966e-09
8.19749e-09
9.08853e-09
1.00113e-08
1.10581e-08
1.22395e-08
1.38388e-08
1.64747e-08
2.13837e-08
2.70425e-08
1.61395e-08
-4.63193e-09
-2.71768e-08
-3.53934e-08
-2.91682e-08
-1.52081e-08
2.81377e-09
2.13616e-08
7.54431e-09
-6.04312e-08
6.27026e-09
8.00816e-09
8.82661e-09
9.60906e-09
1.04704e-08
1.13913e-08
1.25241e-08
1.41594e-08
1.71352e-08
1.86514e-08
9.4663e-09
-9.76022e-09
-3.16171e-08
-3.65527e-08
-2.59379e-08
-1.14662e-08
-9.63402e-10
1.13979e-08
1.77931e-08
-3.00181e-08
5.73186e-09
7.49634e-09
8.23703e-09
8.85483e-09
9.50733e-09
1.01016e-08
1.06739e-08
1.13527e-08
1.21713e-08
1.18828e-08
3.38457e-09
-1.15836e-08
-2.97921e-08
-3.36546e-08
-2.14051e-08
-7.66708e-09
1.8427e-09
7.06432e-09
1.26105e-08
-9.59043e-09
4.89923e-09
6.71442e-09
7.38442e-09
7.87992e-09
8.30281e-09
8.59217e-09
8.66739e-09
8.56835e-09
7.87476e-09
6.10706e-09
-7.51975e-10
-1.32075e-08
-2.55272e-08
-2.82608e-08
-1.99613e-08
-6.92237e-09
2.32441e-09
7.93434e-09
8.47153e-09
-1.72923e-09
3.88342e-09
5.63451e-09
6.31263e-09
6.74014e-09
7.00086e-09
7.06754e-09
6.81465e-09
6.09078e-09
4.80612e-09
2.35649e-09
-2.84363e-09
-1.16277e-08
-1.97654e-08
-2.12119e-08
-1.51949e-08
-6.15102e-09
1.89892e-09
6.69392e-09
6.76008e-09
8.61187e-10
2.73627e-09
4.44039e-09
5.09398e-09
5.46872e-09
5.68503e-09
5.65575e-09
5.27e-09
4.38008e-09
2.86164e-09
4.77304e-10
-3.35309e-09
-8.63429e-09
-1.35446e-08
-1.47051e-08
-1.12705e-08
-5.14901e-09
1.13585e-09
5.4757e-09
4.36748e-09
1.31951e-09
1.48989e-09
3.20898e-09
3.78962e-09
4.21584e-09
4.39734e-09
4.36592e-09
4.0076e-09
3.20589e-09
1.85924e-09
-1.14605e-10
-2.873e-09
-6.00773e-09
-8.88618e-09
-9.56273e-09
-7.86464e-09
-3.9205e-09
5.55668e-10
3.90868e-09
3.03905e-09
4.69298e-10
2.49218e-10
1.52301e-09
2.23915e-09
2.78956e-09
3.11544e-09
3.17591e-09
2.94158e-09
2.35183e-09
1.36222e-09
-7.27739e-11
-1.94672e-09
-3.90066e-09
-5.6797e-09
-6.10524e-09
-5.10969e-09
-2.76242e-09
3.4074e-10
2.21829e-09
1.55923e-09
9.97488e-11
-4.53272e-10
1.02174e-09
1.55544e-09
1.70135e-09
1.81216e-09
1.90932e-09
1.88584e-09
1.63322e-09
1.08759e-09
2.3248e-10
-8.6749e-10
-2.01805e-09
-2.82658e-09
-3.20305e-09
-2.4988e-09
-1.21324e-09
2.7988e-10
6.63078e-10
5.31604e-10
-1.61898e-11
-9.95942e-10
-3.7706e-10
2.35438e-10
4.72767e-10
5.63451e-10
6.92306e-10
7.69716e-10
7.67239e-10
6.65235e-10
4.17454e-10
3.15763e-11
-4.24924e-10
-7.98164e-10
-9.61633e-10
-7.90955e-10
-3.60967e-10
7.82622e-11
1.81626e-10
1.61811e-10
6.61653e-12
2.07777e-10
-1.10819e-10
-2.09667e-10
-2.66455e-10
-2.35761e-10
-1.7599e-10
-1.20305e-10
-8.19672e-11
-4.82128e-11
-1.81428e-11
-4.01322e-12
6.58293e-12
7.12502e-12
5.55457e-12
2.41531e-12
-2.47221e-11
-3.63031e-11
-7.86999e-11
-1.15781e-10
1.96735e-11
)
;

boundaryField
{
    movingWall
    {
        type            zeroGradient;
    }
    fixedWalls
    {
        type            zeroGradient;
    }
    frontAndBack
    {
        type            empty;
    }
}


// ************************************************************************* //
