/*--------------------------------*- C++ -*----------------------------------*\
| =========                 |                                                 |
| \\      /  F ield         | OpenFOAM: The Open Source CFD Toolbox           |
|  \\    /   O peration     | Version:  2312                                  |
|   \\  /    A nd           | Website:  www.openfoam.com                      |
|    \\/     M anipulation  |                                                 |
\*---------------------------------------------------------------------------*/
FoamFile
{
    version     2.0;
    format      ascii;
    arch        "LSB;label=32;scalar=64";
    class       volScalarField;
    location    "1.5";
    object      initialResidual:Ux;
}
// * * * * * * * * * * * * * * * * * * * * * * * * * * * * * * * * * * * * * //

dimensions      [0 0 0 0 0 0 0];

internalField   nonuniform List<scalar> 
400
(
-3.60252e-11
-4.08143e-10
-1.11123e-09
-1.95276e-09
-2.88632e-09
-3.94339e-09
-5.15613e-09
-6.4976e-09
-7.86633e-09
-8.97872e-09
-9.43754e-09
-9.3533e-09
-8.16104e-09
-6.3599e-09
-4.17101e-09
-2.01835e-09
-2.58061e-10
8.61448e-10
9.34448e-10
4.29972e-10
-1.94402e-10
-9.55258e-10
-2.08452e-09
-3.42104e-09
-4.91183e-09
-6.54027e-09
-8.26758e-09
-9.95803e-09
-1.13598e-08
-1.2189e-08
-1.23098e-08
-1.17982e-08
-1.06463e-08
-8.88759e-09
-6.6305e-09
-3.99461e-09
-1.39435e-09
4.94708e-10
1.1318e-09
5.16948e-10
-4.07252e-10
-1.4103e-09
-2.64271e-09
-4.1084e-09
-5.7659e-09
-7.57053e-09
-9.45451e-09
-1.12404e-08
-1.26761e-08
-1.36216e-08
-1.42134e-08
-1.47119e-08
-1.5072e-08
-1.48033e-08
-1.33858e-08
-1.02339e-08
-5.50333e-09
-8.64546e-10
1.39718e-09
7.7112e-10
-5.31333e-10
-1.67535e-09
-2.93442e-09
-4.3855e-09
-6.03934e-09
-7.86727e-09
-9.79953e-09
-1.16803e-08
-1.33737e-08
-1.50612e-08
-1.74212e-08
-2.13627e-08
-2.68906e-08
-3.24371e-08
-3.54062e-08
-3.29334e-08
-2.49354e-08
-1.23307e-08
-8.6951e-10
1.09688e-09
-5.59868e-10
-1.73504e-09
-2.94707e-09
-4.31454e-09
-5.88305e-09
-7.64252e-09
-9.55593e-09
-1.15673e-08
-1.38018e-08
-1.72379e-08
-2.41401e-08
-3.6126e-08
-5.04373e-08
-6.17495e-08
-6.62528e-08
-6.30879e-08
-5.49083e-08
-4.05348e-08
-1.49586e-08
4.33243e-10
-5.1161e-10
-1.60643e-09
-2.69955e-09
-3.90866e-09
-5.29633e-09
-6.87447e-09
-8.6984e-09
-1.09108e-08
-1.41135e-08
-2.093e-08
-3.41907e-08
-5.23959e-08
-6.37298e-08
-5.78085e-08
-4.94348e-08
-5.1448e-08
-5.28792e-08
-4.91704e-08
-3.8478e-08
-3.61866e-09
-4.0467e-10
-1.32497e-09
-2.22019e-09
-3.1822e-09
-4.2721e-09
-5.51812e-09
-7.06543e-09
-9.20183e-09
-1.25678e-08
-2.04111e-08
-3.25579e-08
-3.81332e-08
-2.7044e-08
-1.31064e-08
-4.67827e-09
-2.59745e-09
-1.41186e-08
-2.85377e-08
-3.32685e-08
-2.1205e-08
-2.5473e-10
-9.23243e-10
-1.54643e-09
-2.17538e-09
-2.8528e-09
-3.60346e-09
-4.5927e-09
-6.00979e-09
-8.30307e-09
-1.39511e-08
-1.80623e-08
-1.02591e-08
9.59576e-09
3.08402e-08
4.63342e-08
4.83107e-08
3.80316e-08
1.49704e-08
-1.04537e-08
-1.98003e-08
-7.86434e-11
-4.4027e-10
-7.38303e-10
-9.81191e-10
-1.17774e-09
-1.32362e-09
-1.50325e-09
-1.66829e-09
-1.70569e-09
-2.09797e-09
1.33258e-09
1.47544e-08
3.49496e-08
5.20422e-08
5.65395e-08
5.90697e-08
5.89623e-08
4.59793e-08
2.04193e-08
-1.44821e-09
1.04161e-10
7.53566e-11
1.19868e-10
2.66223e-10
5.37781e-10
9.7833e-10
1.60743e-09
2.75228e-09
4.96485e-09
8.05196e-09
1.6266e-08
2.59068e-08
3.83948e-08
4.25713e-08
3.96386e-08
3.75944e-08
4.11737e-08
4.31625e-08
3.27134e-08
1.02519e-08
2.78436e-10
5.77465e-10
9.50987e-10
1.4473e-09
2.1164e-09
3.02827e-09
4.31522e-09
6.30944e-09
9.80973e-09
1.5135e-08
2.20303e-08
2.91062e-08
3.59915e-08
3.39249e-08
2.73098e-08
2.20203e-08
2.0837e-08
2.40678e-08
2.58044e-08
1.28389e-08
4.26861e-10
1.02426e-09
1.68921e-09
2.47308e-09
3.43599e-09
4.63392e-09
6.20067e-09
8.67725e-09
1.24056e-08
1.76637e-08
2.33455e-08
2.69133e-08
2.88178e-08
2.4873e-08
1.86644e-08
1.23912e-08
1.10208e-08
1.02849e-08
1.42771e-08
7.36709e-09
5.67311e-10
1.3911e-09
2.29694e-09
3.30881e-09
4.46606e-09
5.78875e-09
7.46461e-09
9.64525e-09
1.26729e-08
1.69999e-08
2.09216e-08
2.2191e-08
2.06083e-08
1.42458e-08
6.79352e-09
2.89639e-09
3.2959e-09
3.44801e-09
5.85042e-09
2.63854e-09
5.8773e-10
1.68433e-09
2.79136e-09
3.93648e-09
5.1767e-09
6.53047e-09
8.07131e-09
9.87013e-09
1.20146e-08
1.4774e-08
1.71827e-08
1.70632e-08
1.29932e-08
6.68027e-09
3.2971e-10
-3.13472e-09
-2.43015e-09
-9.8257e-10
1.16874e-09
5.87798e-10
6.16093e-10
1.91872e-09
3.14278e-09
4.38083e-09
5.64401e-09
6.94438e-09
8.29484e-09
9.68861e-09
1.11291e-08
1.25387e-08
1.35543e-08
1.26258e-08
8.67538e-09
3.11123e-09
-1.90755e-09
-4.6417e-09
-4.47799e-09
-2.98539e-09
-9.35244e-10
8.28517e-11
6.47271e-10
1.93813e-09
3.34491e-09
4.57375e-09
5.81121e-09
7.05355e-09
8.25542e-09
9.35873e-09
1.02801e-08
1.08639e-08
1.08785e-08
9.60357e-09
6.4155e-09
2.35014e-09
-1.87354e-09
-4.13108e-09
-4.64975e-09
-3.55212e-09
-1.20291e-09
2.71374e-11
5.96281e-10
1.61468e-09
2.98003e-09
4.23845e-09
5.47662e-09
6.76899e-09
7.93677e-09
8.89411e-09
9.53379e-09
9.72162e-09
9.23779e-09
7.83423e-09
5.36362e-09
2.10634e-09
-1.23008e-09
-3.35165e-09
-4.31409e-09
-2.96402e-09
-8.67592e-10
1.0685e-10
2.7385e-10
1.07709e-09
2.10765e-09
3.15522e-09
4.19123e-09
5.49458e-09
6.7008e-09
7.69934e-09
8.3433e-09
8.50414e-09
8.01804e-09
6.77574e-09
4.69586e-09
2.03365e-09
-5.27926e-10
-2.40087e-09
-3.35108e-09
-1.91284e-09
-5.71732e-10
2.4211e-10
-1.94231e-10
-4.37111e-10
3.51569e-10
1.38316e-09
2.16999e-09
3.02913e-09
3.88831e-09
4.68862e-09
5.31775e-09
5.64403e-09
5.5103e-09
4.8589e-09
3.71921e-09
2.26025e-09
8.27798e-10
-2.26077e-10
-8.07552e-10
-3.17141e-10
-7.5159e-11
2.32923e-10
-5.96231e-11
-4.87424e-10
-4.28227e-10
-3.76644e-10
-1.65737e-10
1.27225e-10
4.69921e-10
8.5514e-10
1.24051e-09
1.55832e-09
1.73675e-09
1.71621e-09
1.46863e-09
1.026e-09
5.03058e-10
6.66369e-11
-1.44476e-10
-6.30742e-11
-5.6451e-11
2.16697e-11
)
;

boundaryField
{
    movingWall
    {
        type            zeroGradient;
    }
    fixedWalls
    {
        type            zeroGradient;
    }
    frontAndBack
    {
        type            empty;
    }
}


// ************************************************************************* //
