/*--------------------------------*- C++ -*----------------------------------*\
| =========                 |                                                 |
| \\      /  F ield         | OpenFOAM: The Open Source CFD Toolbox           |
|  \\    /   O peration     | Version:  2312                                  |
|   \\  /    A nd           | Website:  www.openfoam.com                      |
|    \\/     M anipulation  |                                                 |
\*---------------------------------------------------------------------------*/
FoamFile
{
    version     2.0;
    format      ascii;
    arch        "LSB;label=32;scalar=64";
    class       volScalarField;
    location    "1.5";
    object      initialResidual:k;
}
// * * * * * * * * * * * * * * * * * * * * * * * * * * * * * * * * * * * * * //

dimensions      [0 0 0 0 0 0 0];

internalField   nonuniform List<scalar> 
400
(
-1.6479e-11
-2.02323e-11
-1.91045e-11
-1.37528e-11
-5.04913e-12
6.55669e-12
2.04883e-11
3.54485e-11
4.9494e-11
5.78006e-11
5.72546e-11
5.54712e-11
4.39031e-11
2.85665e-11
1.33402e-11
-4.57237e-12
-1.90086e-11
-2.69792e-11
-2.61484e-11
-1.86739e-11
-2.23419e-11
-4.54991e-11
-5.6425e-11
-6.20005e-11
-6.32898e-11
-6.04663e-11
-5.3344e-11
-4.00817e-11
-2.46994e-11
-1.13943e-11
8.86754e-14
1.22628e-11
1.92397e-11
2.28838e-11
2.46441e-11
5.24371e-12
-1.84443e-11
-3.64687e-11
-3.97401e-11
-3.16e-11
-2.27247e-11
-5.31356e-11
-6.63705e-11
-7.31836e-11
-7.4419e-11
-7.04247e-11
-6.151e-11
-5.02309e-11
-3.46666e-11
-1.42623e-11
9.49485e-12
3.26882e-11
5.62323e-11
6.9342e-11
9.07453e-11
7.45648e-11
4.10852e-11
-8.09732e-12
-4.08007e-11
-4.10704e-11
-1.94211e-11
-5.44788e-11
-6.74394e-11
-7.25764e-11
-7.08088e-11
-6.23922e-11
-4.83411e-11
-3.02483e-11
-8.92475e-12
1.74654e-11
5.2185e-11
9.60512e-11
1.45e-10
2.31595e-10
3.09341e-10
3.38439e-10
3.16955e-10
1.90791e-10
5.55407e-12
-4.56451e-11
-1.39285e-11
-5.31211e-11
-6.5183e-11
-6.78222e-11
-6.14739e-11
-4.67977e-11
-2.56604e-11
-1.86954e-13
3.18939e-11
7.91203e-11
1.46666e-10
2.13071e-10
2.64639e-10
3.13469e-10
4.06761e-10
4.77186e-10
6.81527e-10
7.54479e-10
2.98684e-10
7.14193e-13
-7.37423e-12
-5.10085e-11
-6.18051e-11
-6.12071e-11
-4.96345e-11
-2.80836e-11
1.27418e-12
3.83267e-11
9.04982e-11
1.61212e-10
2.37697e-10
9.4051e-11
-2.60723e-11
-2.06301e-11
-2.41946e-11
5.58209e-11
1.49363e-11
5.45917e-10
1.17333e-09
3.74823e-10
-6.87754e-13
-4.93164e-11
-5.89117e-11
-5.50134e-11
-3.8398e-11
-1.02942e-11
2.7784e-11
7.85924e-11
1.63866e-10
7.03061e-11
-1.16597e-10
-3.29058e-10
-3.6044e-10
-4.27828e-10
-4.79918e-10
-3.63634e-10
-3.39908e-10
1.60149e-10
5.70439e-10
1.19386e-09
5.35009e-12
-4.8752e-11
-5.77219e-11
-5.12191e-11
-3.08266e-11
1.61301e-12
4.38182e-11
9.17764e-11
1.08608e-10
-1.00642e-10
-3.23311e-10
-5.20384e-10
-5.65779e-10
-4.96095e-10
-4.31994e-10
-3.64819e-10
-3.68783e-10
-1.70884e-10
-1.27915e-12
1.40015e-09
1.00773e-11
-4.96608e-11
-5.88467e-11
-5.08791e-11
-2.8509e-11
5.25631e-12
4.61907e-11
9.19392e-11
-6.86185e-12
-1.79133e-10
-4.18949e-10
-6.33687e-10
-3.98905e-10
-3.03191e-10
-2.53001e-10
-1.58557e-10
-1.45254e-10
-1.62364e-10
-2.10109e-10
6.98302e-10
1.29522e-11
-5.19874e-11
-6.22028e-11
-5.3898e-11
-3.10477e-11
2.21337e-12
3.9511e-11
6.87752e-11
-5.68055e-11
-2.38463e-10
-4.82088e-10
-5.56698e-10
-3.0519e-10
-2.0861e-10
-1.29677e-10
-4.75838e-11
-3.86034e-11
-1.03305e-10
-2.05978e-10
2.57388e-10
1.34331e-11
-5.68982e-11
-6.87425e-11
-6.08773e-11
-3.8911e-11
-8.48423e-12
2.12677e-11
3.36467e-11
-5.86235e-11
-2.14692e-10
-4.50224e-10
-5.16575e-10
-2.41238e-10
-1.57783e-10
-6.44666e-11
2.28999e-11
4.5996e-11
-6.30268e-11
-1.30489e-10
1.04052e-10
1.15325e-11
-5.97937e-11
-7.23571e-11
-6.5043e-11
-4.38642e-11
-1.50299e-11
1.22755e-11
2.15989e-11
-3.84052e-11
-1.65918e-10
-3.24853e-10
-4.26123e-10
-2.17197e-10
-9.93795e-11
9.95181e-12
1.82371e-10
2.7482e-10
1.00154e-10
-3.433e-11
-2.45787e-12
6.99396e-12
-6.58006e-11
-7.93357e-11
-7.26305e-11
-5.27545e-11
-2.65333e-11
-3.00188e-12
6.09616e-12
-1.73146e-11
-1.16074e-10
-2.08544e-10
-2.59393e-10
-1.67152e-10
-1.02676e-11
6.41249e-11
2.32883e-10
1.32374e-10
1.63168e-11
-4.89659e-11
-2.88384e-12
-4.45113e-13
-7.27695e-11
-8.58017e-11
-7.90012e-11
-5.98065e-11
-3.5281e-11
-1.37242e-11
-4.36813e-12
-1.84018e-11
-8.38687e-11
-1.58459e-10
-1.68623e-10
-1.60463e-10
2.86849e-11
8.5688e-11
1.27693e-10
4.23948e-11
-1.56003e-11
-6.87062e-11
-2.02298e-11
-8.32598e-12
-8.01205e-11
-9.21527e-11
-8.43984e-11
-6.49268e-11
-4.10395e-11
-2.04768e-11
-1.14233e-11
-2.03097e-11
-4.92026e-11
-1.29457e-10
-1.45045e-10
-1.53112e-10
-6.80077e-11
-3.16284e-11
1.27275e-11
-8.31594e-13
-1.03213e-10
-7.33758e-11
-6.83565e-12
-2.2302e-11
-8.56863e-11
-9.5335e-11
-8.65698e-11
-6.74894e-11
-4.46801e-11
-2.52303e-11
-1.61995e-11
-2.32178e-11
-4.9579e-11
-1.0349e-10
-1.42439e-10
-1.44939e-10
-1.33186e-10
-8.32235e-11
-7.99572e-11
-1.02165e-10
-1.25419e-10
-7.94966e-11
-2.00235e-12
-3.04319e-11
-9.07068e-11
-1.00845e-10
-9.09022e-11
-7.23421e-11
-5.12811e-11
-3.35066e-11
-2.52801e-11
-3.10628e-11
-5.25248e-11
-8.49178e-11
-1.34914e-10
-1.44058e-10
-1.49894e-10
-1.23893e-10
-9.62512e-11
-1.08238e-10
-1.24061e-10
-9.48647e-11
-1.02835e-12
-3.90094e-11
-9.47854e-11
-1.01281e-10
-9.38158e-11
-7.89522e-11
-6.1474e-11
-4.61684e-11
-3.82462e-11
-4.28259e-11
-6.48263e-11
-9.31595e-11
-1.35829e-10
-1.43893e-10
-1.49558e-10
-1.45568e-10
-1.11473e-10
-1.09408e-10
-9.74425e-11
-6.7872e-11
7.5583e-14
-3.87048e-11
-9.71453e-11
-1.07959e-10
-1.14348e-10
-1.14158e-10
-1.126e-10
-1.11464e-10
-1.10536e-10
-1.1237e-10
-1.14781e-10
-1.2355e-10
-1.35337e-10
-1.4119e-10
-1.35023e-10
-1.22279e-10
-9.36821e-11
-8.17983e-11
-5.5057e-11
-3.69322e-11
-5.40134e-13
-8.46358e-12
-9.05691e-13
-1.06089e-11
-2.64615e-11
-4.14893e-11
-5.61991e-11
-7.22658e-11
-8.26652e-11
-9.43375e-11
-9.40069e-11
-9.07096e-11
-7.90658e-11
-5.64646e-11
-4.05959e-11
-1.2576e-11
-9.7428e-12
-2.02172e-12
-2.21377e-12
3.88051e-13
1.01209e-12
)
;

boundaryField
{
    movingWall
    {
        type            zeroGradient;
    }
    fixedWalls
    {
        type            zeroGradient;
    }
    frontAndBack
    {
        type            empty;
    }
}


// ************************************************************************* //
