/*--------------------------------*- C++ -*----------------------------------*\
| =========                 |                                                 |
| \\      /  F ield         | OpenFOAM: The Open Source CFD Toolbox           |
|  \\    /   O peration     | Version:  2312                                  |
|   \\  /    A nd           | Website:  www.openfoam.com                      |
|    \\/     M anipulation  |                                                 |
\*---------------------------------------------------------------------------*/
FoamFile
{
    version     2.0;
    format      ascii;
    arch        "LSB;label=32;scalar=64";
    class       volScalarField;
    location    "1.5";
    object      initialResidual:p;
}
// * * * * * * * * * * * * * * * * * * * * * * * * * * * * * * * * * * * * * //

dimensions      [0 0 0 0 0 0 0];

internalField   nonuniform List<scalar> 
400
(
7.21197e-13
-4.223e-13
-3.70693e-12
-7.18097e-12
-9.53928e-12
-1.15912e-11
-1.40596e-11
-1.75275e-11
-1.78684e-11
-1.35391e-11
-1.59739e-11
-2.13072e-11
-2.79674e-11
-5.12406e-11
-5.97568e-11
-4.6487e-11
-2.88053e-11
-6.86108e-12
8.80441e-12
-1.52305e-12
-6.58217e-12
-7.92377e-12
-1.19761e-11
-1.50517e-11
-1.72672e-11
-1.93005e-11
-2.10983e-11
-2.14915e-11
-1.92499e-11
-1.35565e-11
-5.11329e-12
7.12154e-12
-6.91653e-12
-3.89576e-11
-5.36299e-11
-4.70458e-11
-3.62438e-11
-9.20114e-12
9.77135e-12
3.8157e-12
-1.618e-11
-1.17108e-11
-1.59863e-11
-2.13064e-11
-2.55869e-11
-2.92933e-11
-3.18562e-11
-3.00369e-11
-2.04511e-11
-8.33221e-12
-1.43554e-11
-2.79164e-11
-7.93465e-11
-1.22457e-10
-1.6854e-10
-1.52709e-10
-1.2492e-10
-8.84395e-11
1.53101e-12
7.49271e-12
-2.50365e-11
-1.58787e-11
-1.91026e-11
-2.68441e-11
-3.44351e-11
-4.10928e-11
-4.43401e-11
-3.98107e-11
-3.36294e-11
-5.34404e-11
-1.10827e-10
-1.66105e-10
-1.75277e-10
-5.4515e-10
-8.68479e-10
-8.37285e-10
-5.80802e-10
-1.49981e-10
-6.31461e-11
4.12113e-11
-2.98898e-11
-1.74669e-11
-1.77791e-11
-2.60592e-11
-3.53291e-11
-4.22576e-11
-4.27666e-11
-3.91436e-11
-7.24465e-11
-2.02222e-10
-3.90161e-10
-8.79835e-10
-2.04118e-09
-1.87486e-09
-1.16568e-09
-1.19899e-09
-1.46513e-09
-9.82051e-10
-4.22175e-10
2.31011e-10
-3.02578e-11
-1.72319e-11
-1.45745e-11
-2.15111e-11
-3.08829e-11
-3.76459e-11
-3.85209e-11
-6.39357e-11
-2.445e-10
-6.33547e-10
-1.12547e-09
-8.64074e-10
8.78476e-10
1.08826e-09
8.21729e-10
5.2924e-10
-1.8565e-10
-2.04591e-09
-1.36428e-09
-2.58441e-10
-2.60984e-11
-1.53885e-11
-1.08838e-11
-1.62265e-11
-2.47965e-11
-3.1978e-11
-3.69889e-11
-8.79024e-11
-3.72964e-10
-6.87622e-10
-4.03213e-10
7.01848e-10
1.96698e-09
3.21909e-09
4.31798e-09
4.20461e-09
3.15493e-09
8.55798e-10
-3.01335e-09
-1.32619e-09
-1.87153e-11
-1.22638e-11
-7.08888e-12
-1.06279e-11
-1.81748e-11
-2.52919e-11
-3.15564e-11
-1.32446e-10
-4.64523e-10
-5.15893e-10
3.96223e-10
2.14875e-09
3.61147e-09
4.18558e-09
2.51807e-09
1.6659e-09
2.71549e-09
3.60536e-09
4.36526e-11
-2.44191e-09
-9.73815e-12
-8.83091e-12
-3.91035e-12
-5.75001e-12
-1.14942e-11
-1.82018e-11
-2.72123e-11
-1.26043e-10
-3.54138e-10
-2.22478e-10
7.3223e-10
2.76558e-09
2.82366e-09
-4.97648e-10
-2.17301e-09
-2.1516e-09
-1.14421e-09
2.18795e-09
4.87561e-09
-1.48575e-09
-1.22983e-12
-5.71094e-12
-2.40282e-12
-3.58496e-12
-8.45898e-12
-1.76469e-11
-2.71353e-11
-9.98861e-11
-2.9602e-10
-1.26746e-10
9.26816e-10
1.88535e-09
8.96594e-10
-1.52229e-09
-2.09906e-09
-2.10798e-09
-2.00435e-09
-1.32322e-09
3.21039e-09
1.32636e-09
5.72615e-12
-3.2383e-12
-2.37406e-12
-3.41882e-12
-7.46143e-12
-1.33863e-11
-2.94578e-11
-5.88848e-11
-1.90199e-10
-2.11673e-10
6.2357e-10
5.50667e-10
5.37618e-10
1.0102e-09
-2.39065e-09
-1.75815e-09
-1.2452e-09
-1.87177e-09
-9.7157e-10
3.09361e-09
6.76599e-12
-1.6284e-12
-3.30485e-12
-5.80667e-12
-8.28129e-12
-8.40906e-12
4.94431e-12
-7.62726e-11
-1.16899e-10
-6.18008e-11
1.80989e-10
8.50555e-10
6.43458e-10
-1.27143e-09
-1.69016e-09
-1.47737e-09
-7.19898e-10
-7.9435e-10
-2.19277e-09
1.69619e-09
1.93805e-11
6.11035e-12
6.94192e-12
-3.04227e-11
-4.43666e-12
-1.99956e-11
-2.00138e-11
-2.42542e-11
-7.26968e-11
-1.27911e-10
-6.59726e-12
2.28143e-10
2.25265e-10
-9.27112e-10
-1.09626e-09
-9.1789e-10
-4.49286e-10
-3.53689e-10
-1.27443e-09
4.34728e-10
1.43562e-11
-1.02788e-11
-9.54523e-12
-1.14975e-11
-1.59916e-11
-2.02719e-11
-2.40663e-11
-3.66695e-11
-4.55683e-11
-9.16174e-11
-4.43076e-11
5.39568e-11
8.74287e-11
-1.49218e-10
-2.82672e-10
-4.13084e-10
-1.98014e-10
-1.18922e-10
-4.13578e-10
-6.50524e-11
1.04943e-11
-5.898e-12
-1.13596e-11
-1.55329e-11
-1.68798e-11
-1.85997e-11
-2.05383e-11
-2.50437e-11
-2.74917e-11
-3.37049e-11
-8.69032e-12
7.13158e-11
9.99076e-11
4.64064e-11
-8.81578e-11
-1.43207e-10
-7.58914e-11
1.16884e-11
-3.64755e-11
-2.22098e-11
5.48924e-11
-1.83004e-11
-9.12909e-12
-2.46917e-11
-1.87366e-11
-1.48966e-11
-1.18758e-11
-8.11993e-12
-5.92768e-12
3.90135e-12
2.64934e-11
5.82697e-11
8.56323e-11
4.56038e-11
-1.03849e-10
-6.45876e-11
-2.78942e-11
6.91078e-11
1.82101e-10
5.39778e-11
4.50005e-11
-2.28289e-11
-1.97897e-11
-6.2116e-12
-1.42602e-11
-1.58193e-11
-1.05184e-11
-1.69859e-12
1.00285e-11
2.30812e-11
4.15722e-11
5.59601e-11
5.85599e-11
-1.51797e-11
-2.05536e-11
-4.79234e-11
4.42907e-12
1.04341e-10
2.02753e-10
1.1002e-10
1.64967e-11
2.33103e-11
-6.38295e-11
8.66896e-11
-2.77899e-11
-2.83131e-11
-3.30198e-11
-2.75571e-11
-1.07519e-11
1.54654e-11
4.76023e-11
4.46853e-11
4.83972e-11
1.22595e-11
-3.07221e-11
-7.60765e-11
-2.79909e-12
1.43621e-10
1.70655e-10
9.38998e-11
-8.10464e-12
-1.22049e-10
-8.75817e-11
-9.86852e-11
-1.13883e-10
-9.84189e-11
-7.46137e-11
-4.89962e-11
-1.73713e-11
1.94857e-11
5.24849e-11
7.49455e-11
7.38941e-11
7.67651e-11
3.25811e-11
1.41857e-11
-5.89839e-11
3.85323e-11
2.72182e-11
2.79417e-11
6.87063e-11
3.09979e-11
4.61554e-12
-6.43059e-12
-3.26331e-12
-1.07706e-11
-1.6669e-11
-1.04349e-11
5.85256e-12
2.87705e-11
5.5418e-11
7.5884e-11
7.30523e-11
4.03053e-11
-2.54377e-11
-8.82596e-11
-7.86487e-11
-3.86734e-11
2.15815e-13
2.02884e-11
)
;

boundaryField
{
    movingWall
    {
        type            zeroGradient;
    }
    fixedWalls
    {
        type            zeroGradient;
    }
    frontAndBack
    {
        type            empty;
    }
}


// ************************************************************************* //
