/*--------------------------------*- C++ -*----------------------------------*\
| =========                 |                                                 |
| \\      /  F ield         | OpenFOAM: The Open Source CFD Toolbox           |
|  \\    /   O peration     | Version:  2312                                  |
|   \\  /    A nd           | Website:  www.openfoam.com                      |
|    \\/     M anipulation  |                                                 |
\*---------------------------------------------------------------------------*/
FoamFile
{
    version     2.0;
    format      ascii;
    arch        "LSB;label=32;scalar=64";
    class       volScalarField;
    location    "1.5";
    object      initialResidual:epsilon;
}
// * * * * * * * * * * * * * * * * * * * * * * * * * * * * * * * * * * * * * //

dimensions      [0 0 0 0 0 0 0];

internalField   nonuniform List<scalar> 
400
(
0
0
0
0
0
0
0
0
0
0
0
0
0
0
0
0
0
0
0
0
0
-5.9129e-11
-5.96243e-11
-5.45232e-11
-4.29286e-11
-2.5838e-11
-5.0196e-12
1.52359e-11
2.89201e-11
4.01602e-11
4.97912e-11
8.21936e-11
1.32955e-10
1.58606e-10
1.76535e-10
1.44143e-10
6.74053e-11
-1.21059e-11
-5.84546e-11
0
0
-6.82695e-11
-6.56826e-11
-5.98554e-11
-5.37628e-11
-4.39055e-11
-3.06528e-11
-1.35943e-11
1.23817e-11
5.90692e-11
1.40152e-10
2.69816e-10
4.61231e-10
6.48097e-10
7.28766e-10
7.28473e-10
5.29857e-10
2.19039e-10
-1.04492e-11
0
0
-7.30311e-11
-7.13476e-11
-6.66293e-11
-5.7548e-11
-4.4344e-11
-2.36418e-11
9.83977e-12
7.385e-11
2.0034e-10
4.34503e-10
8.16309e-10
1.31719e-09
1.80398e-09
2.1737e-09
2.14246e-09
1.97081e-09
1.22665e-09
2.78848e-10
0
0
-7.4217e-11
-7.37238e-11
-6.69422e-11
-5.40448e-11
-3.27354e-11
4.64883e-12
7.8648e-11
2.30861e-10
5.38389e-10
1.10138e-09
1.91458e-09
2.66137e-09
2.88669e-09
2.92712e-09
3.12409e-09
4.56677e-09
3.90082e-09
1.74202e-09
0
0
-7.32453e-11
-7.40551e-11
-6.48775e-11
-4.52624e-11
-8.43089e-12
6.28412e-11
2.10201e-10
5.22503e-10
1.13334e-09
2.02539e-09
2.45594e-09
1.42368e-09
2.31368e-10
9.70535e-11
-5.75245e-10
1.88008e-09
5.75303e-09
6.17168e-09
0
0
-7.10273e-11
-7.36967e-11
-6.1816e-11
-3.39156e-11
2.20415e-11
1.3595e-10
3.74206e-10
8.47999e-10
1.53958e-09
1.85322e-09
-4.03503e-10
-1.68663e-09
-1.99112e-09
-2.3586e-09
-2.34816e-09
-2.69255e-09
1.49237e-09
7.38263e-09
0
0
-6.85077e-11
-7.36825e-11
-5.95316e-11
-2.41038e-11
4.84167e-11
1.947e-10
4.8426e-10
9.85063e-10
1.491e-09
-6.32464e-11
-1.06625e-09
-2.41807e-09
-2.71836e-09
-3.0373e-09
-3.16993e-09
-3.07373e-09
-4.48973e-09
4.10952e-09
0
0
-6.64052e-11
-7.46566e-11
-5.9473e-11
-1.96728e-11
6.09574e-11
2.16409e-10
4.92185e-10
8.48108e-10
7.43295e-10
-4.99757e-10
-1.99039e-09
-2.16248e-09
-1.84088e-09
-1.69906e-09
-1.68446e-09
-2.89722e-09
-3.40072e-09
-1.27691e-09
0
0
-6.5136e-11
-7.67625e-11
-6.25898e-11
-2.3319e-11
5.40885e-11
1.91483e-10
4.04608e-10
6.89667e-10
3.65487e-10
-8.78305e-10
-1.69477e-09
-1.58261e-09
-1.038e-09
-7.86439e-10
-6.31001e-10
-1.16213e-09
-2.45052e-09
-3.85312e-09
0
0
-6.52533e-11
-8.00464e-11
-6.70992e-11
-3.00055e-11
3.99374e-11
1.60725e-10
3.40643e-10
5.28463e-10
7.27844e-11
-6.77075e-10
-1.35843e-09
-1.0599e-09
-6.67513e-10
-4.1852e-10
-2.57469e-10
-3.0939e-10
-1.13304e-09
-2.58197e-09
0
0
-6.6407e-11
-8.35576e-11
-7.23973e-11
-4.09838e-11
1.7257e-11
1.07611e-10
2.29676e-10
3.33685e-10
1.81937e-10
-4.68811e-10
-8.46656e-10
-9.32282e-10
-5.31041e-10
-1.42695e-10
2.88141e-12
8.28521e-12
-4.20766e-10
-1.53558e-09
0
0
-6.96012e-11
-8.61536e-11
-7.81423e-11
-5.28017e-11
-8.08815e-12
5.84164e-11
1.43558e-10
2.15077e-10
1.51914e-10
-2.52913e-10
-5.32615e-10
-6.52487e-10
-3.33864e-10
-1.10483e-10
6.65593e-11
-2.97321e-11
-1.91639e-10
-9.4415e-10
0
0
-6.91872e-11
-8.9646e-11
-8.37188e-11
-6.39e-11
-2.83991e-11
1.89835e-11
7.37395e-11
1.17622e-10
9.09939e-11
-1.05269e-10
-3.96206e-10
-4.2733e-10
-3.34401e-10
-2.11503e-10
-1.12535e-10
-1.08787e-10
-1.68405e-10
-1.23164e-10
0
0
-7.80046e-11
-9.27151e-11
-8.77676e-11
-7.47557e-11
-4.85829e-11
-1.62563e-11
1.88346e-11
4.28107e-11
2.54805e-11
-8.28566e-11
-2.74343e-10
-3.88933e-10
-3.32318e-10
-2.87062e-10
-2.2652e-10
-2.3446e-10
-3.24255e-10
-1.32844e-10
0
0
-9.56923e-11
-1.0069e-10
-9.58124e-11
-8.35916e-11
-6.12832e-11
-3.51065e-11
-1.85722e-11
-1.50235e-11
-3.70815e-11
-1.06344e-10
-2.26233e-10
-3.12379e-10
-3.15253e-10
-2.92112e-10
-2.61404e-10
-2.66461e-10
-3.37659e-10
-3.14608e-10
0
0
-1.20371e-10
-1.23325e-10
-1.20978e-10
-1.11046e-10
-9.43567e-11
-7.55792e-11
-5.82785e-11
-5.73023e-11
-7.90334e-11
-1.33027e-10
-2.23881e-10
-2.89904e-10
-2.93918e-10
-2.74624e-10
-2.25679e-10
-2.29051e-10
-3.24359e-10
-4.59823e-10
0
0
-1.71201e-10
-1.94563e-10
-2.1052e-10
-2.12603e-10
-2.06947e-10
-1.99089e-10
-1.93288e-10
-1.98428e-10
-2.23582e-10
-2.64347e-10
-3.21816e-10
-3.48032e-10
-3.31703e-10
-2.94315e-10
-2.44624e-10
-2.46855e-10
-3.18331e-10
-4.44031e-10
0
0
-3.47213e-10
-5.07675e-10
-6.47687e-10
-7.32284e-10
-8.04307e-10
-8.72105e-10
-9.18103e-10
-9.55639e-10
-9.51526e-10
-9.47253e-10
-9.10707e-10
-8.47379e-10
-7.16648e-10
-5.75077e-10
-3.91778e-10
-3.86449e-10
-3.50079e-10
-3.00782e-10
0
0
0
0
0
0
0
0
0
0
0
0
0
0
0
0
0
0
0
0
0
)
;

boundaryField
{
    movingWall
    {
        type            zeroGradient;
    }
    fixedWalls
    {
        type            zeroGradient;
    }
    frontAndBack
    {
        type            empty;
    }
}


// ************************************************************************* //
