/*--------------------------------*- C++ -*----------------------------------*\
| =========                 |                                                 |
| \\      /  F ield         | OpenFOAM: The Open Source CFD Toolbox           |
|  \\    /   O peration     | Version:  2312                                  |
|   \\  /    A nd           | Website:  www.openfoam.com                      |
|    \\/     M anipulation  |                                                 |
\*---------------------------------------------------------------------------*/
FoamFile
{
    version     2.0;
    format      ascii;
    arch        "LSB;label=32;scalar=64";
    class       volScalarField;
    location    "1.5";
    object      L_P;
}
// * * * * * * * * * * * * * * * * * * * * * * * * * * * * * * * * * * * * * //

dimensions      [0 0 0 0 0 0 0];

internalField   nonuniform List<scalar> 
400
(
-149.301
-142.38
-137.133
-133.544
-130.835
-128.611
-126.686
-125.001
-123.574
-122.468
-121.953
-121.813
-122.069
-123.032
-124.617
-127.119
-130.677
-135.592
-142.55
-149.055
-142.8
-137.076
-133.208
-130.851
-129.285
-128.114
-127.12
-126.199
-125.328
-124.551
-123.869
-123.213
-122.636
-122.394
-122.591
-123.893
-126.522
-130.667
-136.605
-142.677
-136.746
-132.368
-129.203
-127.193
-125.886
-124.965
-124.211
-123.505
-122.769
-121.936
-120.951
-119.806
-118.616
-117.732
-117.497
-118.405
-121.024
-125.634
-132.103
-137.749
-132.678
-129.274
-126.548
-124.735
-123.496
-122.563
-121.749
-120.924
-119.968
-118.756
-117.203
-115.373
-113.534
-112.047
-111.26
-111.57
-113.712
-118.76
-127.547
-134.769
-129.723
-127.158
-124.686
-122.932
-121.653
-120.605
-119.601
-118.475
-117.065
-115.22
-112.918
-110.42
-108.191
-106.337
-104.937
-104.315
-105.004
-108.77
-119.257
-131.852
-127.463
-125.663
-123.338
-121.587
-120.214
-118.983
-117.685
-116.122
-114.098
-111.519
-108.648
-106.301
-104.978
-104.202
-103.085
-101.672
-100.548
-100.248
-106.393
-122.719
-125.69
-124.586
-122.366
-120.586
-119.088
-117.64
-116.005
-113.953
-111.309
-108.329
-106.176
-105.463
-105.533
-105.398
-104.496
-102.545
-99.8281
-97.4946
-96.6108
-106.249
-124.289
-123.819
-121.691
-119.871
-118.247
-116.587
-114.646
-112.221
-109.295
-106.794
-105.725
-106.513
-108.066
-108.847
-108.713
-105.919
-101.951
-97.0445
-93.5009
-93.7694
-123.19
-123.296
-121.262
-119.411
-117.682
-115.857
-113.704
-111.088
-108.282
-106.299
-106.275
-108.729
-111.539
-112.853
-113.045
-110.075
-105.032
-99.1827
-92.4499
-87.6707
-122.348
-122.966
-121.037
-119.181
-117.388
-115.463
-113.214
-110.578
-107.986
-106.378
-107.067
-110.572
-114.058
-115.69
-115.888
-112.75
-107.115
-100.328
-92.6428
-85.1758
-121.73
-122.795
-120.988
-119.16
-117.351
-115.4
-113.152
-110.583
-108.065
-106.55
-107.264
-110.751
-114.858
-116.997
-116.855
-113.697
-108.109
-101.319
-92.9204
-83.6855
-121.301
-122.73
-121.033
-119.246
-117.459
-115.531
-113.34
-110.892
-108.478
-106.853
-107.128
-109.94
-113.987
-116.274
-115.898
-113.022
-107.599
-101.418
-92.7471
-82.6102
-121.036
-122.736
-121.16
-119.437
-117.697
-115.826
-113.739
-111.446
-109.139
-107.382
-106.944
-108.31
-111.534
-113.919
-113.193
-110.371
-106.076
-101.22
-92.3675
-81.5643
-120.849
-122.791
-121.319
-119.663
-117.989
-116.198
-114.23
-112.105
-109.954
-108.102
-107.161
-107.387
-108.784
-110.414
-109.993
-108.28
-105.544
-101.246
-92.0285
-80.4233
-120.75
-122.869
-121.449
-119.826
-118.207
-116.501
-114.669
-112.729
-110.77
-108.994
-107.832
-107.48
-107.838
-108.673
-108.515
-107.657
-105.674
-102.272
-91.8106
-79.1057
-120.393
-122.849
-121.44
-119.823
-118.243
-116.616
-114.903
-113.122
-111.384
-109.813
-108.618
-108.134
-108.157
-108.579
-108.628
-108.105
-106.808
-103.862
-91.6958
-77.5213
-120.326
-122.57
-120.974
-119.3
-117.727
-116.183
-114.621
-113.045
-111.51
-110.123
-109.022
-108.435
-108.348
-108.609
-108.868
-108.532
-107.395
-104.01
-90.5623
-75.6211
-118.49
-120.311
-117.481
-115.506
-113.887
-112.398
-110.986
-109.637
-108.373
-107.258
-106.359
-105.769
-105.623
-105.619
-105.728
-105.611
-104.602
-100.066
-87.6419
-73.1104
-112.512
-107.459
-102.47
-99.822
-98.1535
-96.8806
-95.866
-95.0336
-94.3585
-93.7691
-93.27
-92.8131
-92.4721
-92.0934
-91.711
-90.9506
-89.8115
-85.498
-80.6014
-69.6825
-82.1143
-74.4846
-70.0762
-67.9678
-66.8616
-66.2228
-65.8699
-65.6846
-65.6573
-65.6856
-65.7568
-65.8728
-65.977
-66.083
-66.1025
-66.059
-65.8558
-65.7888
-64.8013
-66.4557
)
;

boundaryField
{
    movingWall
    {
        type            calculated;
        value           nonuniform List<scalar> 
20
(
-82.1143
-74.4846
-70.0762
-67.9678
-66.8616
-66.2228
-65.8699
-65.6846
-65.6573
-65.6856
-65.7568
-65.8728
-65.977
-66.083
-66.1025
-66.059
-65.8558
-65.7888
-64.8013
-66.4557
)
;
    }
    fixedWalls
    {
        type            calculated;
        value           nonuniform List<scalar> 
60
(
-149.301
-142.8
-136.746
-132.678
-129.723
-127.463
-125.69
-124.289
-123.19
-122.348
-121.73
-121.301
-121.036
-120.849
-120.75
-120.393
-120.326
-118.49
-112.512
-82.1143
-149.055
-142.677
-137.749
-134.769
-131.852
-122.719
-106.249
-93.7694
-87.6707
-85.1758
-83.6855
-82.6102
-81.5643
-80.4233
-79.1057
-77.5213
-75.6211
-73.1104
-69.6825
-66.4557
-149.301
-142.38
-137.133
-133.544
-130.835
-128.611
-126.686
-125.001
-123.574
-122.468
-121.953
-121.813
-122.069
-123.032
-124.617
-127.119
-130.677
-135.592
-142.55
-149.055
)
;
    }
    frontAndBack
    {
        type            empty;
    }
}


// ************************************************************************* //
