/*--------------------------------*- C++ -*----------------------------------*\
| =========                 |                                                 |
| \\      /  F ield         | OpenFOAM: The Open Source CFD Toolbox           |
|  \\    /   O peration     | Version:  2312                                  |
|   \\  /    A nd           | Website:  www.openfoam.com                      |
|    \\/     M anipulation  |                                                 |
\*---------------------------------------------------------------------------*/
FoamFile
{
    version     2.0;
    format      ascii;
    arch        "LSB;label=32;scalar=64";
    class       volScalarField;
    location    "1.5";
    object      Lambda2Field;
}
// * * * * * * * * * * * * * * * * * * * * * * * * * * * * * * * * * * * * * //

dimensions      [0 0 -2 0 0 0 0];

internalField   nonuniform List<scalar> 
400
(
0.0367326
0.152976
0.34627
0.460684
0.554017
0.549409
0.608817
0.585832
0.757106
0.831801
1.06353
1.45381
2.01114
2.15914
2.19813
1.7002
1.21177
0.618464
0.15915
0.00204665
0.177111
0.368703
0.610805
0.721952
0.866289
0.878875
0.938565
0.872967
0.821159
0.692688
0.641975
0.758104
1.1504
1.65441
2.28991
2.25428
1.92663
1.02337
0.438657
0.0401263
0.377477
0.51824
0.69018
0.808367
0.940726
0.999487
1.05453
1.01377
0.936698
0.849881
0.874947
1.15317
1.81927
2.69823
3.63951
3.48385
2.92493
1.72788
0.862309
0.171029
0.56659
0.630886
0.737988
0.83815
0.963093
1.06663
1.16111
1.21622
1.26723
1.41996
1.87087
2.90818
4.72268
6.30291
7.99144
7.03895
6.06612
2.84744
1.10173
0.330442
0.683011
0.685397
0.759469
0.86057
0.995556
1.15313
1.33433
1.54913
1.88944
2.66452
4.49188
7.91759
12.4364
16.2298
18.9952
19.8717
17.8577
9.88136
1.90422
0.326863
0.730428
0.682685
0.745601
0.853036
1.01007
1.22767
1.52856
1.99714
2.92749
5.18607
9.99496
16.173
21.3648
22.3184
24.0846
28.7196
33.0641
30.3157
14.1795
0
0.732458
0.633515
0.69175
0.809728
0.991635
1.26918
1.7067
2.50426
4.25481
8.28801
14.596
17.913
13.3667
1.07519
0
1.84778
20.433
39.5509
39.9127
2.36996
0.706173
0.550629
0.600503
0.725722
0.927944
1.25294
1.81116
2.85385
5.24041
10.1639
14.2747
6.83638
0
-37.8758
0
-46.5602
0
10.8217
48.3372
42.5251
0.659848
0.448626
0.48316
0.604043
0.816195
1.16283
1.77614
2.94843
5.46306
9.59906
9.4976
-7.39326
0
-62.5302
0
-63.3515
0
-40.1389
27.0828
94.7846
0.595092
0.344128
0.358081
0.466017
0.670114
1.01195
1.62291
2.76867
5.06951
7.72192
4.28368
-16.6128
0
-67.7073
0
-49.4025
0
-54.2194
0
105.073
0.512481
0.250779
0.245291
0.335535
0.524442
0.846302
1.41314
2.43649
4.35914
6.4724
2.9052
-15.7151
0
-62.1759
0
-37.3171
0
-37.3331
0
83.8838
0.404455
0.174255
0.157431
0.231242
0.40455
0.703657
1.21449
2.0869
3.64206
5.52957
3.8985
-7.08414
0
-43.7499
0
-25.5632
0
-18.9459
0
48.8029
0.233739
0.10956
0.0976578
0.164489
0.329261
0.612779
1.06929
1.78752
2.99861
4.50075
4.52644
0
0
-19.4845
0
-10.8508
0
-6.83457
0
16.141
0
0.0395484
0.0633365
0.1408
0.30987
0.591121
1.00592
1.589
2.42664
3.49064
4.0956
2.63674
0
-4.41355
0
-0.344601
2.68694
1.10324
0
0
0
-0.0349291
0.0565971
0.164148
0.355307
0.642952
1.03225
1.51945
2.10023
2.74426
3.20401
2.83124
1.43199
0.284138
0.945636
3.08718
5.84066
3.4029
0
0
0
-0.0469905
0.092903
0.259724
0.479257
0.778835
1.15607
1.5762
2.01193
2.34324
2.43857
2.07161
1.19635
0.334916
0.779992
2.40796
4.95899
-0.552524
0
1.49205
0
0
0.0145441
0.0665965
0.321035
0.66361
1.09323
1.48143
1.92217
1.99356
1.99736
1.14708
0.16774
-0.942374
0
-0.187783
0
-13.9511
0
25.5159
0
0.0917072
0.261009
0.0698655
0.184666
0.579237
1.21215
1.64931
2.04733
1.88129
1.33069
0
0
-3.85701
0
-7.76731
0
-36.5849
0.877239
257.007
9.20004
0
1.37542
0
3.64093
0
2.66579
0
3.04378
0.336568
1.4289
0
0
-5.63808
0
-15.364
0
-18.525
0
951.331
3303.66
-591.873
0
-365.118
0
-92.2489
0
-43.4457
0
-23.8864
0
-17.3756
0
-15.8995
0
0
0
0
0
1599.08
)
;

boundaryField
{
    movingWall
    {
        type            calculated;
        value           nonuniform List<scalar> 
20
(
5545.59
0
0
0
0
0
0
0
0
0
0
0
0
0
0
0
0
0
0
2869.94
)
;
    }
    fixedWalls
    {
        type            calculated;
        value           nonuniform List<scalar> 
60
(
0
0.0635375
0.280479
0.384171
0.707702
0.621847
0.890058
0.852872
0.957386
0.833176
0.864258
0.473334
0.421457
0
0
0
0
0
29.1377
6862.58
0.000405677
0
0.0797773
0.0602996
0
0
0
21.9305
160.611
73.5992
221.908
0
54.3276
0
9.28379
0
178.313
735.208
3517.26
2147.54
0.0155833
0.0665533
0.293745
0.341944
0.528977
0.383746
0.597061
0.624984
0.962618
1.083
1.83085
1.90315
3.41827
3.27217
2.76907
1.49018
0.995447
0.472355
0.160294
0.00114542
)
;
    }
    frontAndBack
    {
        type            empty;
    }
}


// ************************************************************************* //
