/*--------------------------------*- C++ -*----------------------------------*\
| =========                 |                                                 |
| \\      /  F ield         | OpenFOAM: The Open Source CFD Toolbox           |
|  \\    /   O peration     | Version:  2312                                  |
|   \\  /    A nd           | Website:  www.openfoam.com                      |
|    \\/     M anipulation  |                                                 |
\*---------------------------------------------------------------------------*/
FoamFile
{
    version     2.0;
    format      ascii;
    arch        "LSB;label=32;scalar=64";
    class       volScalarField;
    location    "1.5";
    object      logk;
}
// * * * * * * * * * * * * * * * * * * * * * * * * * * * * * * * * * * * * * //

dimensions      [0 2 -2 0 0 0 0];

internalField   nonuniform List<scalar> 
400
(
-6.90776
-6.90776
-6.90776
-6.90776
-6.90776
-6.90776
-6.90776
-6.90776
-6.90776
-6.90776
-6.90776
-6.90776
-6.90776
-6.90776
-6.90776
-6.90776
-6.90776
-6.90776
-6.90776
-6.90776
-6.90776
-6.90776
-6.90776
-6.90776
-6.90776
-6.90776
-6.90776
-6.90776
-6.90776
-6.90776
-6.90776
-6.90776
-6.90776
-6.90776
-6.90776
-6.90776
-6.90776
-6.90776
-6.90776
-6.90776
-6.90776
-6.90776
-6.90776
-6.90776
-6.90776
-6.90776
-6.90776
-6.90776
-6.90776
-6.90776
-6.90776
-6.90776
-6.90776
-6.90776
-6.90776
-6.90776
-6.90776
-6.90776
-6.90776
-6.90776
-6.90776
-6.90776
-6.90776
-6.90776
-6.90776
-6.90776
-6.90776
-6.90776
-6.90776
-6.90776
-6.90776
-6.90776
-6.90776
-6.90776
-6.90776
-6.90776
-6.90776
-6.90776
-6.90776
-6.90776
-6.90776
-6.90776
-6.90776
-6.90776
-6.90776
-6.90776
-6.90776
-6.90776
-6.90776
-6.90776
-6.88358
-6.80706
-6.74585
-6.69057
-6.63679
-6.61134
-6.66469
-6.90236
-6.90776
-6.90776
-6.90776
-6.90776
-6.90776
-6.90776
-6.90776
-6.90776
-6.90776
-6.90776
-6.87646
-6.78325
-6.69019
-6.63234
-6.61395
-6.59546
-6.54556
-6.48137
-6.43467
-6.43056
-6.819
-6.90776
-6.90776
-6.90776
-6.90776
-6.90776
-6.90776
-6.90776
-6.90776
-6.84198
-6.73631
-6.63392
-6.60061
-6.62528
-6.66047
-6.6713
-6.63525
-6.53774
-6.39958
-6.29161
-6.25315
-6.85623
-6.90776
-6.90776
-6.90776
-6.90776
-6.90776
-6.90776
-6.85731
-6.7503
-6.63676
-6.57889
-6.59172
-6.68944
-6.81314
-6.85908
-6.85599
-6.70472
-6.51265
-6.2678
-6.09313
-6.14164
-6.90776
-6.90776
-6.90776
-6.90776
-6.90776
-6.90776
-6.80317
-6.68911
-6.58809
-6.55956
-6.61924
-6.82487
-6.90776
-6.90776
-6.90776
-6.86828
-6.61853
-6.35302
-6.03633
-5.79366
-6.90776
-6.90776
-6.90776
-6.90776
-6.90776
-6.8852
-6.77234
-6.65586
-6.56583
-6.55367
-6.65529
-6.90776
-6.90776
-6.90776
-6.90776
-6.90776
-6.67439
-6.37686
-6.03923
-5.6511
-6.90776
-6.90776
-6.90776
-6.90776
-6.90776
-6.87792
-6.76364
-6.6491
-6.55881
-6.54263
-6.64255
-6.90398
-6.90776
-6.90776
-6.90776
-6.90776
-6.6924
-6.38354
-6.03524
-5.56559
-6.90776
-6.90776
-6.90776
-6.90776
-6.90776
-6.88298
-6.76938
-6.65667
-6.56267
-6.52875
-6.60189
-6.82141
-6.90776
-6.90776
-6.90776
-6.90776
-6.63226
-6.35723
-6.00729
-5.50387
-6.90776
-6.90776
-6.90776
-6.90776
-6.90776
-6.89636
-6.78454
-6.67448
-6.57707
-6.52514
-6.552
-6.66565
-6.90641
-6.90776
-6.90776
-6.78816
-6.52141
-6.32873
-5.97168
-5.44365
-6.90776
-6.90776
-6.90776
-6.90776
-6.90776
-6.90776
-6.80625
-6.69931
-6.60188
-6.5318
-6.52243
-6.56334
-6.67341
-6.78243
-6.74947
-6.63078
-6.48117
-6.32665
-5.95731
-5.37799
-6.90776
-6.90776
-6.90776
-6.90776
-6.90776
-6.90776
-6.82964
-6.7264
-6.63129
-6.55446
-6.52156
-6.53021
-6.56813
-6.63165
-6.62325
-6.57591
-6.48183
-6.3948
-5.95418
-5.30212
-6.90776
-6.90776
-6.90776
-6.90776
-6.90776
-6.90776
-6.85706
-6.75972
-6.66911
-6.59329
-6.54381
-6.54009
-6.55807
-6.59804
-6.61061
-6.59604
-6.56585
-6.52182
-5.95906
-5.21091
-6.90776
-6.90776
-6.90776
-6.90776
-6.90776
-6.90776
-6.89979
-6.81052
-6.72686
-6.65517
-6.60311
-6.58475
-6.59395
-6.6226
-6.65727
-6.6615
-6.64939
-6.58179
-5.91616
-5.10152
-6.90776
-6.90776
-6.90776
-6.90776
-6.90776
-6.90776
-6.88704
-6.805
-6.72721
-6.6595
-6.60708
-6.57774
-6.58047
-6.59449
-6.62295
-6.64766
-6.63961
-6.46622
-5.77092
-4.95699
-6.90776
-6.90776
-6.6834
-6.53212
-6.434
-6.3567
-6.29284
-6.23868
-6.1929
-6.15198
-6.11709
-6.08532
-6.06312
-6.03976
-6.01803
-5.97301
-5.90974
-5.6725
-5.38333
-4.75967
-5.47531
-5.0361
-4.78234
-4.66098
-4.59731
-4.56054
-4.54024
-4.52958
-4.52802
-4.52965
-4.53374
-4.54042
-4.5464
-4.55249
-4.5536
-4.55109
-4.53939
-4.53553
-4.47868
-4.57392
)
;

boundaryField
{
    movingWall
    {
        type            calculated;
        value           nonuniform List<scalar> 
20
(
-5.47531
-5.0361
-4.78234
-4.66098
-4.59731
-4.56054
-4.54024
-4.52958
-4.52802
-4.52965
-4.53374
-4.54042
-4.5464
-4.55249
-4.5536
-4.55109
-4.53939
-4.53553
-4.47868
-4.57392
)
;
    }
    fixedWalls
    {
        type            calculated;
        value           nonuniform List<scalar> 
60
(
-6.90776
-6.90776
-6.90776
-6.90776
-6.90776
-6.90776
-6.90776
-6.90776
-6.90776
-6.90776
-6.90776
-6.90776
-6.90776
-6.90776
-6.90776
-6.90776
-6.90776
-6.90776
-6.90776
-5.47531
-6.90776
-6.90776
-6.90776
-6.90776
-6.90776
-6.90776
-6.85623
-6.14164
-5.79366
-5.6511
-5.56559
-5.50387
-5.44365
-5.37799
-5.30212
-5.21091
-5.10152
-4.95699
-4.75967
-4.57392
-6.90776
-6.90776
-6.90776
-6.90776
-6.90776
-6.90776
-6.90776
-6.90776
-6.90776
-6.90776
-6.90776
-6.90776
-6.90776
-6.90776
-6.90776
-6.90776
-6.90776
-6.90776
-6.90776
-6.90776
)
;
    }
    frontAndBack
    {
        type            empty;
    }
}


// ************************************************************************* //
