/*--------------------------------*- C++ -*----------------------------------*\
| =========                 |                                                 |
| \\      /  F ield         | OpenFOAM: The Open Source CFD Toolbox           |
|  \\    /   O peration     | Version:  2312                                  |
|   \\  /    A nd           | Website:  www.openfoam.com                      |
|    \\/     M anipulation  |                                                 |
\*---------------------------------------------------------------------------*/
FoamFile
{
    version     2.0;
    format      ascii;
    arch        "LSB;label=32;scalar=64";
    class       volScalarField;
    location    "1.5";
    object      magSqrU;
}
// * * * * * * * * * * * * * * * * * * * * * * * * * * * * * * * * * * * * * //

dimensions      [0 2 -2 0 0 0 0];

internalField   nonuniform List<scalar> 
400
(
1.98632e-07
5.25431e-06
2.84948e-05
7.7963e-05
0.000158003
0.000270405
0.000415941
0.000591538
0.000786275
0.000977077
0.0011128
0.00115492
0.00107091
0.000854308
0.000572828
0.000306632
0.000120637
2.81137e-05
1.64674e-06
1.9172e-07
5.4903e-06
3.37714e-05
9.25004e-05
0.000188021
0.000327817
0.00051611
0.000751658
0.00102319
0.00130462
0.0015536
0.00171792
0.00175298
0.00163348
0.00136505
0.00100311
0.000626176
0.000317572
0.000121129
2.56445e-05
4.98722e-07
3.0054e-05
9.3207e-05
0.000182305
0.000306211
0.000474679
0.000694123
0.000963916
0.00127099
0.00158657
0.00187052
0.00208283
0.00219117
0.00216209
0.00196281
0.00159937
0.00111724
0.00062731
0.000267443
7.66299e-05
6.61003e-06
8.2785e-05
0.000184238
0.000298915
0.000445049
0.00063408
0.000874545
0.00116851
0.0015055
0.00186352
0.002221
0.00256896
0.00290615
0.00320989
0.00337076
0.00319089
0.00255005
0.00156003
0.000641131
0.000162571
1.33526e-05
0.000167472
0.000309275
0.000444429
0.000609229
0.000818155
0.00108165
0.00140502
0.00178466
0.00221608
0.00272316
0.00339386
0.0043728
0.0057225
0.007113
0.00785587
0.00729613
0.00526785
0.00248068
0.000473969
1.62375e-05
0.000280957
0.000465107
0.000616606
0.000797609
0.00102707
0.00131769
0.00167992
0.00212487
0.00268793
0.00351143
0.00494141
0.0074065
0.0107493
0.0138759
0.0159307
0.0165206
0.0145997
0.00928427
0.00274179
7.44948e-05
0.000414944
0.00064395
0.00080891
0.00100345
0.00125282
0.00157297
0.00198255
0.00251854
0.00328454
0.00459615
0.007049
0.0108276
0.0145931
0.0171587
0.0196277
0.0228067
0.0247733
0.0216936
0.0110077
0.00065229
0.000557401
0.000833429
0.00100951
0.00121401
0.00147968
0.00182646
0.00228261
0.00291384
0.00388659
0.00562888
0.00853994
0.0116998
0.0131048
0.0132687
0.0146688
0.0188381
0.0255686
0.0308117
0.0249514
0.00524388
0.000694296
0.0010178
0.00120234
0.00141147
0.00168588
0.0020495
0.00253826
0.00323736
0.00434941
0.00626821
0.00881744
0.0101728
0.00868143
0.00633523
0.00661783
0.0104411
0.0176904
0.0290583
0.0371907
0.0168686
0.000811647
0.00118044
0.00136984
0.00157633
0.00184833
0.00221288
0.00270928
0.00342465
0.00454425
0.00636534
0.00820224
0.00811187
0.00486775
0.00169309
0.00225008
0.00606062
0.011632
0.0216442
0.0397045
0.0332135
0.000898802
0.00130662
0.0014966
0.00169184
0.00194809
0.00229411
0.00276637
0.00343697
0.00444671
0.00599924
0.00740354
0.00692414
0.00340843
0.000248462
0.000943606
0.00477987
0.00960104
0.0165851
0.0350658
0.0486322
0.000949998
0.00138782
0.00157218
0.00174678
0.00197353
0.00228194
0.0027019
0.00328473
0.0041243
0.00534661
0.00656452
0.00640347
0.00402548
0.00136995
0.00149911
0.00431763
0.00826773
0.0140262
0.0301477
0.0579138
0.000966002
0.00142226
0.0015926
0.00173712
0.00192334
0.00218092
0.00253383
0.00301346
0.00367514
0.00458628
0.00557902
0.00585733
0.00478494
0.00320845
0.00286888
0.00420938
0.00685477
0.0113617
0.0259159
0.063091
0.000957958
0.00141495
0.00156146
0.00166584
0.00180255
0.00200257
0.00228683
0.00267474
0.00318999
0.00385713
0.00461026
0.00508555
0.00485899
0.00409857
0.00361158
0.00393801
0.00535333
0.00863065
0.0215239
0.0657541
0.000937195
0.0013781
0.00148411
0.00153745
0.00161768
0.00175916
0.0019821
0.00229998
0.00272087
0.00324348
0.00382947
0.00432622
0.00446542
0.00414284
0.00366402
0.00344899
0.00395909
0.00615267
0.01697
0.0668471
0.000976697
0.00135264
0.00138432
0.00136987
0.00138657
0.00147021
0.00164093
0.00191127
0.00228514
0.00275186
0.00327128
0.00375311
0.00403346
0.00394716
0.00353211
0.00306947
0.00294171
0.00433598
0.0127079
0.0677823
0.000821149
0.00114474
0.00115797
0.00111314
0.00109545
0.00114481
0.00128607
0.00153603
0.00190197
0.00237464
0.00291498
0.00344286
0.00382953
0.00393273
0.0036237
0.00306801
0.00244633
0.00354868
0.00949822
0.0704561
0.00203558
0.00201614
0.00155187
0.00119198
0.00100721
0.000969474
0.00107761
0.00133619
0.00174757
0.00230356
0.00296925
0.00366805
0.00427543
0.00460555
0.00449764
0.00401534
0.00288444
0.00430263
0.00627894
0.0712342
0.000317056
0.000184214
0.000112979
0.000273873
0.00057993
0.00105153
0.00170382
0.00253605
0.00354618
0.00472841
0.00605296
0.00744742
0.00878545
0.0099233
0.0105598
0.0109797
0.00908019
0.0115916
0.00261668
0.05575
0.0102612
0.00872788
0.00956507
0.0128008
0.0164213
0.0200823
0.0238575
0.0277416
0.0316972
0.0357081
0.0397445
0.0437372
0.0475396
0.0510411
0.0536236
0.0562681
0.053055
0.0631024
0.0155187
0.152388
)
;

boundaryField
{
    movingWall
    {
        type            calculated;
        value           uniform 1;
    }
    fixedWalls
    {
        type            calculated;
        value           uniform 0;
    }
    frontAndBack
    {
        type            empty;
    }
}


// ************************************************************************* //
