/*--------------------------------*- C++ -*----------------------------------*\
| =========                 |                                                 |
| \\      /  F ield         | OpenFOAM: The Open Source CFD Toolbox           |
|  \\    /   O peration     | Version:  2312                                  |
|   \\  /    A nd           | Website:  www.openfoam.com                      |
|    \\/     M anipulation  |                                                 |
\*---------------------------------------------------------------------------*/
FoamFile
{
    version     2.0;
    format      ascii;
    arch        "LSB;label=32;scalar=64";
    class       volScalarField;
    location    "1.5";
    object      magSqrP;
}
// * * * * * * * * * * * * * * * * * * * * * * * * * * * * * * * * * * * * * //

dimensions      [0 4 -4 0 0 0 0];

internalField   nonuniform List<scalar> 
400
(
2.79483e-15
0
0
2.86594e-10
2.55941e-09
9.89006e-09
2.75987e-08
6.50691e-08
1.38387e-07
2.73913e-07
5.19374e-07
9.46174e-07
1.62106e-06
2.5407e-06
3.55986e-06
4.41078e-06
4.90224e-06
5.01073e-06
4.8886e-06
4.72654e-06
4.73946e-11
0
2.00967e-12
4.85436e-10
3.08927e-09
1.04547e-08
2.69192e-08
5.98662e-08
1.22067e-07
2.36157e-07
4.4284e-07
8.03456e-07
1.38803e-06
2.23051e-06
3.21467e-06
4.09222e-06
4.64892e-06
4.82586e-06
4.75283e-06
4.59227e-06
0
0
0
0
2.30071e-10
3.21623e-09
1.20479e-08
3.13299e-08
6.9517e-08
1.43722e-07
2.88174e-07
5.62103e-07
1.06666e-06
1.87816e-06
2.92492e-06
3.92295e-06
4.56848e-06
4.75205e-06
4.62315e-06
4.43043e-06
0
0
0
0
0
0
0
9.55482e-10
8.97965e-09
3.51662e-08
1.06688e-07
2.81268e-07
6.63199e-07
1.42059e-06
2.5876e-06
3.80432e-06
4.55253e-06
4.67209e-06
4.44887e-06
4.17501e-06
0
0
0
0
0
0
0
0
0
0
0
1.51827e-08
1.2472e-07
5.1975e-07
1.40487e-06
2.7426e-06
3.95984e-06
4.33962e-06
4.24173e-06
3.79569e-06
0
0
0
0
0
0
0
0
0
0
0
0
0
0
0
1.3468e-09
9.78578e-07
3.08784e-06
3.98971e-06
3.27609e-06
0
0
0
0
0
0
0
0
0
0
0
0
0
0
0
0
0
4.18683e-08
2.99508e-06
3.55916e-06
0
0
0
0
0
0
0
0
0
0
0
0
0
0
0
0
0
0
3.08834e-07
2.88181e-06
0
0
0
0
0
0
0
0
0
0
0
0
0
0
0
0
0
0
0
2.31868e-07
0
0
0
0
0
0
0
0
0
0
0
0
0
0
0
0
0
0
0
0
0
0
0
0
0
0
0
0
0
0
0
0
0
0
0
0
0
0
0
0
0
0
0
0
0
0
0
0
0
0
0
0
0
0
0
0
0
0
0
0
0
0
0
0
0
0
0
0
0
0
0
0
0
0
0
0
0
0
0
0
0
0
0
0
0
0
0
0
0
0
0
0
0
0
0
0
0
0
0
0
0
0
0
0
0
0
0
0
0
0
0
0
0
0
0
0
0
0
0
0
0
0
0
0
0
0
0
0
0
0
0
0
0
0
0
0
0
0
0
0
0
0
0
0
0
0
0
0
0
0
0
0
0
0
0
0
0
0
0
0
0
0
0
0
0
0
0
0
0
0
0
0
0
0
0
0
0
0
0
0
0
0
0
0
0
0
0
0
0
0
0
0
0
0
0
0
0
8.9868e-08
3.43883e-06
0.000213866
0
1.46779e-06
2.21921e-07
0
0
0
0
0
0
0
0
0
0
0
0
0
0
8.22686e-06
2.03075e-05
0.00325261
)
;

boundaryField
{
    movingWall
    {
        type            calculated;
        value           nonuniform List<scalar> 
20
(
0
1.46779e-06
2.21921e-07
0
0
0
0
0
0
0
0
0
0
0
0
0
0
8.22686e-06
2.03075e-05
0.00325261
)
;
    }
    fixedWalls
    {
        type            calculated;
        value           nonuniform List<scalar> 
60
(
2.79483e-15
4.73946e-11
0
0
0
0
0
0
0
0
0
0
0
0
0
0
0
0
0
0
4.72654e-06
4.59227e-06
4.43043e-06
4.17501e-06
3.79569e-06
3.27609e-06
3.55916e-06
2.88181e-06
2.31868e-07
0
0
0
0
0
0
0
0
0
0.000213866
0.00325261
2.79483e-15
0
0
2.86594e-10
2.55941e-09
9.89006e-09
2.75987e-08
6.50691e-08
1.38387e-07
2.73913e-07
5.19374e-07
9.46174e-07
1.62106e-06
2.5407e-06
3.55986e-06
4.41078e-06
4.90224e-06
5.01073e-06
4.8886e-06
4.72654e-06
)
;
    }
    frontAndBack
    {
        type            empty;
    }
}


// ************************************************************************* //
