/*--------------------------------*- C++ -*----------------------------------*\
| =========                 |                                                 |
| \\      /  F ield         | OpenFOAM: The Open Source CFD Toolbox           |
|  \\    /   O peration     | Version:  2312                                  |
|   \\  /    A nd           | Website:  www.openfoam.com                      |
|    \\/     M anipulation  |                                                 |
\*---------------------------------------------------------------------------*/
FoamFile
{
    version     2.0;
    format      ascii;
    arch        "LSB;label=32;scalar=64";
    class       volScalarField;
    location    "1.5";
    object      magU;
}
// * * * * * * * * * * * * * * * * * * * * * * * * * * * * * * * * * * * * * //

dimensions      [0 1 -1 0 0 0 0];

internalField   nonuniform List<scalar> 
400
(
0.000445681
0.00229223
0.00533805
0.00882967
0.0125699
0.016444
0.0203946
0.0243215
0.0280406
0.0312582
0.0333587
0.0339841
0.0327248
0.0292286
0.0239338
0.0175109
0.0109835
0.00530224
0.00128325
0.000437858
0.00234314
0.00581132
0.00961771
0.0137121
0.0181057
0.0227181
0.0274164
0.0319874
0.0361196
0.0394158
0.0414478
0.0418686
0.0404163
0.0369466
0.0316719
0.0250235
0.0178205
0.0110059
0.00506404
0.000706203
0.00548216
0.00965438
0.0135021
0.0174989
0.0217871
0.0263462
0.031047
0.0356509
0.0398318
0.0432495
0.045638
0.0468099
0.0464982
0.0443037
0.0399921
0.0334251
0.0250462
0.0163537
0.00875385
0.002571
0.00909863
0.0135734
0.0172891
0.0210962
0.025181
0.0295727
0.0341835
0.0388008
0.0431685
0.0471274
0.0506849
0.0539087
0.0566559
0.0580582
0.0564879
0.050498
0.0394972
0.0253206
0.0127503
0.00365412
0.0129411
0.0175862
0.0210815
0.0246826
0.0286034
0.0328884
0.0374836
0.0422452
0.0470753
0.0521839
0.0582568
0.0661272
0.0756472
0.0843386
0.0886333
0.0854174
0.0725799
0.0498064
0.0217708
0.00402957
0.0167618
0.0215663
0.0248315
0.028242
0.032048
0.0363
0.0409868
0.0460963
0.0518452
0.0592574
0.0702952
0.086061
0.103679
0.117796
0.126217
0.128532
0.120829
0.0963549
0.0523621
0.00863104
0.0203702
0.0253762
0.0284413
0.0316773
0.0353952
0.0396607
0.0445259
0.0501851
0.0573109
0.0677949
0.0839583
0.104056
0.120802
0.130991
0.140099
0.151019
0.157395
0.147288
0.104918
0.02554
0.0236093
0.0288692
0.0317728
0.0348426
0.0384666
0.0427371
0.0477766
0.05398
0.0623425
0.0750259
0.0924118
0.108166
0.114476
0.11519
0.121115
0.137252
0.159902
0.175533
0.15796
0.0724146
0.0263495
0.0319029
0.0346747
0.0375695
0.0410594
0.0452715
0.0503811
0.0568978
0.06595
0.079172
0.0939012
0.10086
0.0931742
0.0795942
0.0813501
0.102182
0.133005
0.170465
0.192849
0.129879
0.0284894
0.0343575
0.0370114
0.039703
0.0429922
0.0470413
0.0520508
0.0585205
0.067411
0.0797831
0.0905662
0.0900659
0.0697692
0.0411471
0.047435
0.07785
0.107852
0.14712
0.19926
0.182246
0.02998
0.0361472
0.038686
0.041132
0.0441372
0.0478968
0.0525963
0.0586257
0.0666837
0.0774547
0.0860438
0.0832114
0.0583818
0.0157627
0.0307182
0.0691366
0.0979849
0.128783
0.187259
0.220527
0.030822
0.0372535
0.0396507
0.0417945
0.0444244
0.0477697
0.0519798
0.0573126
0.0642207
0.0731205
0.0810217
0.0800217
0.0634467
0.0370129
0.0387183
0.0657087
0.0909271
0.118432
0.173631
0.240653
0.0310806
0.0377128
0.0399074
0.0416788
0.0438559
0.0467003
0.0503372
0.054895
0.060623
0.0677221
0.0746929
0.0765332
0.0691733
0.0566432
0.0535619
0.0648798
0.0827935
0.106591
0.160984
0.251179
0.0309509
0.0376158
0.0395153
0.0408148
0.0424564
0.0447501
0.0478208
0.0517179
0.05648
0.0621058
0.0678989
0.071313
0.0697065
0.0640201
0.0600965
0.0627536
0.0731664
0.0929013
0.14671
0.256426
0.0306136
0.0371228
0.0385242
0.0392103
0.0402204
0.0419423
0.0445207
0.0479581
0.0521619
0.0569516
0.0618827
0.065774
0.0668238
0.0643649
0.0605311
0.0587281
0.0629213
0.0784389
0.130269
0.258548
0.0312522
0.0367782
0.0372064
0.0370117
0.0372367
0.0383434
0.0405084
0.0437181
0.0478032
0.0524581
0.0571951
0.0612627
0.0635095
0.0628264
0.0594315
0.0554028
0.0542375
0.0658481
0.112729
0.26035
0.0286557
0.033834
0.0340289
0.0333638
0.0330976
0.033835
0.0358619
0.0391922
0.0436115
0.0487302
0.0539905
0.0586759
0.0618832
0.0627115
0.0601972
0.0553896
0.0494603
0.0595708
0.0974588
0.265436
0.0451174
0.0449014
0.0393938
0.0345251
0.0317365
0.0311364
0.032827
0.0365539
0.0418039
0.0479954
0.0544908
0.0605644
0.0653868
0.0678642
0.0670645
0.0633667
0.053707
0.0655944
0.0792398
0.266897
0.0178061
0.0135725
0.0106292
0.0165491
0.0240817
0.0324273
0.0412773
0.0503592
0.0595498
0.0687634
0.0778008
0.0862984
0.0937307
0.0996158
0.102761
0.104784
0.09529
0.107664
0.0511535
0.236114
0.101298
0.0934231
0.0978012
0.113141
0.128146
0.141712
0.154459
0.166558
0.178037
0.188966
0.19936
0.209134
0.218036
0.225923
0.231568
0.237209
0.230337
0.251202
0.124574
0.390369
)
;

boundaryField
{
    movingWall
    {
        type            calculated;
        value           uniform 1;
    }
    fixedWalls
    {
        type            calculated;
        value           uniform 0;
    }
    frontAndBack
    {
        type            empty;
    }
}


// ************************************************************************* //
