/*--------------------------------*- C++ -*----------------------------------*\
| =========                 |                                                 |
| \\      /  F ield         | OpenFOAM: The Open Source CFD Toolbox           |
|  \\    /   O peration     | Version:  2312                                  |
|   \\  /    A nd           | Website:  www.openfoam.com                      |
|    \\/     M anipulation  |                                                 |
\*---------------------------------------------------------------------------*/
FoamFile
{
    version     2.0;
    format      ascii;
    arch        "LSB;label=32;scalar=64";
    class       volVectorField;
    location    "1.5";
    object      momentum1:momentum;
}
// * * * * * * * * * * * * * * * * * * * * * * * * * * * * * * * * * * * * * //

dimensions      [1 1 -1 0 0 0 0];

internalField   nonuniform List<vector> 
400
(
(-7.95627e-11 7.80018e-11 0)
(-5.10403e-10 2.60544e-10 0)
(-1.27822e-09 3.83499e-10 0)
(-2.16435e-09 4.33904e-10 0)
(-3.10968e-09 4.52865e-10 0)
(-4.08477e-09 4.63652e-10 0)
(-5.07676e-09 4.7205e-10 0)
(-6.06204e-09 4.72024e-10 0)
(-6.99603e-09 4.44627e-10 0)
(-7.806e-09 3.65671e-10 0)
(-8.33652e-09 2.29114e-10 0)
(-8.49595e-09 3.51956e-11 0)
(-8.17664e-09 -2.72778e-10 0)
(-7.28459e-09 -5.73623e-10 0)
(-5.92693e-09 -8.20528e-10 0)
(-4.2787e-09 -9.25882e-10 0)
(-2.61032e-09 -8.52079e-10 0)
(-1.17776e-09 -6.08272e-10 0)
(-2.00835e-10 -2.50174e-10 0)
(9.37678e-11 5.64808e-11 0)
(-2.70407e-10 5.19638e-10 0)
(-1.01704e-09 1.03747e-09 0)
(-1.99798e-09 1.33767e-09 0)
(-3.0917e-09 1.48079e-09 0)
(-4.25313e-09 1.54901e-09 0)
(-5.45433e-09 1.58339e-09 0)
(-6.66852e-09 1.58411e-09 0)
(-7.85034e-09 1.52368e-09 0)
(-8.92784e-09 1.35372e-09 0)
(-9.80037e-09 1.02613e-09 0)
(-1.03488e-08 5.22082e-10 0)
(-1.04661e-08 -1.48852e-10 0)
(-1.00593e-08 -9.50405e-10 0)
(-9.06798e-09 -1.75709e-09 0)
(-7.54935e-09 -2.38781e-09 0)
(-5.66521e-09 -2.65355e-09 0)
(-3.70543e-09 -2.47346e-09 0)
(-1.99811e-09 -1.89159e-09 0)
(-7.34979e-10 -1.03082e-09 0)
(-8.0192e-11 -1.57288e-10 0)
(-4.31853e-10 1.30072e-09 0)
(-1.34181e-09 2.00624e-09 0)
(-2.37372e-09 2.3999e-09 0)
(-3.49998e-09 2.62456e-09 0)
(-4.69884e-09 2.75469e-09 0)
(-5.95077e-09 2.8233e-09 0)
(-7.23206e-09 2.81816e-09 0)
(-8.49772e-09 2.68805e-09 0)
(-9.67455e-09 2.35883e-09 0)
(-1.06668e-08 1.76816e-09 0)
(-1.13742e-08 8.97194e-10 0)
(-1.17002e-08 -2.30034e-10 0)
(-1.15201e-08 -1.55472e-09 0)
(-1.06784e-08 -2.94084e-09 0)
(-9.12325e-09 -4.08982e-09 0)
(-6.94115e-09 -4.65274e-09 0)
(-4.45018e-09 -4.40485e-09 0)
(-2.23556e-09 -3.42308e-09 0)
(-7.38293e-10 -2.06017e-09 0)
(-8.44441e-11 -6.37178e-10 0)
(-5.06857e-10 2.21747e-09 0)
(-1.49951e-09 3.04407e-09 0)
(-2.55446e-09 3.48668e-09 0)
(-3.68331e-09 3.77476e-09 0)
(-4.88509e-09 3.97063e-09 0)
(-6.15764e-09 4.09177e-09 0)
(-7.49321e-09 4.109e-09 0)
(-8.86073e-09 3.94731e-09 0)
(-1.0205e-08 3.51106e-09 0)
(-1.14607e-08 2.73201e-09 0)
(-1.25712e-08 1.58881e-09 0)
(-1.3477e-08 7.40207e-11 0)
(-1.40476e-08 -1.81228e-09 0)
(-1.39639e-08 -3.96016e-09 0)
(-1.28171e-08 -5.92886e-09 0)
(-1.03917e-08 -7.16876e-09 0)
(-6.84521e-09 -7.11651e-09 0)
(-3.06446e-09 -5.53893e-09 0)
(-4.60971e-10 -3.15408e-09 0)
(1.3422e-10 -9.03616e-10 0)
(-5.2144e-10 3.19298e-09 0)
(-1.53493e-09 4.11991e-09 0)
(-2.58799e-09 4.5912e-09 0)
(-3.70457e-09 4.93487e-09 0)
(-4.90072e-09 5.20746e-09 0)
(-6.19007e-09 5.41164e-09 0)
(-7.58671e-09 5.5005e-09 0)
(-9.08793e-09 5.38057e-09 0)
(-1.06792e-08 4.94565e-09 0)
(-1.23722e-08 4.13824e-09 0)
(-1.42623e-08 2.95007e-09 0)
(-1.64778e-08 1.33513e-09 0)
(-1.8893e-08 -8.43869e-10 0)
(-2.07517e-08 -3.73246e-09 0)
(-2.09616e-08 -7.18354e-09 0)
(-1.87437e-08 -1.02315e-08 0)
(-1.40954e-08 -1.14263e-08 0)
(-7.77319e-09 -9.72727e-09 0)
(-1.46006e-09 -5.24321e-09 0)
(4.33184e-10 -9.09502e-10 0)
(-4.99542e-10 4.16056e-09 0)
(-1.48411e-09 5.1833e-09 0)
(-2.5057e-09 5.67973e-09 0)
(-3.58743e-09 6.08119e-09 0)
(-4.75721e-09 6.44678e-09 0)
(-6.04325e-09 6.77012e-09 0)
(-7.48596e-09 6.9968e-09 0)
(-9.12758e-09 7.03505e-09 0)
(-1.1029e-08 6.80854e-09 0)
(-1.33822e-08 6.35459e-09 0)
(-1.65978e-08 5.77502e-09 0)
(-2.09635e-08 4.84146e-09 0)
(-2.57928e-08 2.56197e-09 0)
(-2.93852e-08 -1.93797e-09 0)
(-3.04894e-08 -8.12773e-09 0)
(-2.8819e-08 -1.42127e-08 0)
(-2.41786e-08 -1.81074e-08 0)
(-1.647e-08 -1.75786e-08 0)
(-6.74857e-09 -1.12169e-08 0)
(3.66815e-10 -2.12635e-09 0)
(-4.52765e-10 5.07238e-09 0)
(-1.36798e-09 6.1948e-09 0)
(-2.32392e-09 6.71984e-09 0)
(-3.3368e-09 7.18202e-09 0)
(-4.44101e-09 7.65367e-09 0)
(-5.67547e-09 8.13017e-09 0)
(-7.10526e-09 8.56883e-09 0)
(-8.82217e-09 8.92065e-09 0)
(-1.09662e-08 9.22095e-09 0)
(-1.39049e-08 9.69082e-09 0)
(-1.82475e-08 1.03726e-08 0)
(-2.39539e-08 1.01456e-08 0)
(-2.93737e-08 7.01822e-09 0)
(-3.27463e-08 3.11382e-10 0)
(-3.39634e-08 -8.55671e-09 0)
(-3.34478e-08 -1.75119e-08 0)
(-3.0587e-08 -2.47541e-08 0)
(-2.432e-08 -2.76476e-08 0)
(-1.40702e-08 -2.21362e-08 0)
(-1.80086e-09 -6.12577e-09 0)
(-3.86685e-10 5.88966e-09 0)
(-1.19713e-09 7.11732e-09 0)
(-2.05077e-09 7.67391e-09 0)
(-2.95247e-09 8.19503e-09 0)
(-3.93609e-09 8.77424e-09 0)
(-5.04256e-09 9.41948e-09 0)
(-6.34752e-09 1.01179e-08 0)
(-7.96435e-09 1.08942e-08 0)
(-1.0042e-08 1.19193e-08 0)
(-1.29991e-08 1.35214e-08 0)
(-1.7288e-08 1.53255e-08 0)
(-2.23596e-08 1.52082e-08 0)
(-2.64832e-08 1.08486e-08 0)
(-2.86995e-08 2.37236e-09 0)
(-2.9209e-08 -7.97725e-09 0)
(-2.90488e-08 -1.82632e-08 0)
(-2.8659e-08 -2.78693e-08 0)
(-2.60924e-08 -3.52834e-08 0)
(-1.87169e-08 -3.47726e-08 0)
(-6.63667e-09 -1.68433e-08 0)
(-3.05829e-10 6.58027e-09 0)
(-9.81171e-10 7.91515e-09 0)
(-1.69738e-09 8.50088e-09 0)
(-2.44468e-09 9.06863e-09 0)
(-3.24853e-09 9.73727e-09 0)
(-4.14148e-09 1.05329e-08 0)
(-5.18864e-09 1.14769e-08 0)
(-6.48427e-09 1.26605e-08 0)
(-8.12428e-09 1.43469e-08 0)
(-1.03572e-08 1.68669e-08 0)
(-1.34223e-08 1.92596e-08 0)
(-1.68132e-08 1.87914e-08 0)
(-1.91268e-08 1.32949e-08 0)
(-1.95754e-08 3.5714e-09 0)
(-1.89865e-08 -7.2888e-09 0)
(-1.87218e-08 -1.73799e-08 0)
(-1.95439e-08 -2.69014e-08 0)
(-2.05856e-08 -3.73146e-08 0)
(-1.81104e-08 -4.46814e-08 0)
(-8.83687e-09 -3.12442e-08 0)
(-2.16206e-10 7.11907e-09 0)
(-7.34345e-10 8.55793e-09 0)
(-1.28523e-09 9.16315e-09 0)
(-1.84283e-09 9.75317e-09 0)
(-2.41805e-09 1.04725e-08 0)
(-3.02651e-09 1.13642e-08 0)
(-3.70641e-09 1.24737e-08 0)
(-4.50355e-09 1.39197e-08 0)
(-5.41393e-09 1.59595e-08 0)
(-6.47766e-09 1.88646e-08 0)
(-7.68087e-09 2.12989e-08 0)
(-9.099e-09 2.05961e-08 0)
(-9.93246e-09 1.43381e-08 0)
(-9.60356e-09 3.6864e-09 0)
(-9.03465e-09 -7.68149e-09 0)
(-8.81685e-09 -1.73508e-08 0)
(-9.53283e-09 -2.52215e-08 0)
(-1.17336e-08 -3.48581e-08 0)
(-1.32602e-08 -4.80177e-08 0)
(-8.14161e-09 -4.48281e-08 0)
(-1.26126e-10 7.49394e-09 0)
(-4.7654e-10 9.02422e-09 0)
(-8.47099e-10 9.63432e-09 0)
(-1.19511e-09 1.02133e-08 0)
(-1.51417e-09 1.09299e-08 0)
(-1.80002e-09 1.18381e-08 0)
(-2.05751e-09 1.29871e-08 0)
(-2.27851e-09 1.44782e-08 0)
(-2.38211e-09 1.64999e-08 0)
(-2.18499e-09 1.924e-08 0)
(-1.71222e-09 2.14427e-08 0)
(-1.06259e-09 2.07757e-08 0)
(-5.75146e-10 1.45841e-08 0)
(-2.57488e-10 3.93225e-09 0)
(-4.5658e-10 -7.66596e-09 0)
(-1.10412e-09 -1.72488e-08 0)
(-2.35942e-09 -2.43823e-08 0)
(-4.35589e-09 -3.18998e-08 0)
(-7.46025e-09 -4.62164e-08 0)
(-5.99048e-09 -5.48053e-08 0)
(-4.4269e-11 7.70538e-09 0)
(-2.33485e-10 9.31045e-09 0)
(-4.23816e-10 9.90361e-09 0)
(-5.59591e-10 1.04336e-08 0)
(-6.18828e-10 1.10889e-08 0)
(-5.81056e-10 1.19283e-08 0)
(-4.25977e-10 1.2988e-08 0)
(-1.12946e-10 1.43277e-08 0)
(4.78714e-10 1.6048e-08 0)
(1.63353e-09 1.8207e-08 0)
(3.36834e-09 1.99734e-08 0)
(5.6121e-09 1.92021e-08 0)
(7.2101e-09 1.41282e-08 0)
(7.99811e-09 4.65322e-09 0)
(7.37629e-09 -6.26774e-09 0)
(5.35397e-09 -1.55302e-08 0)
(2.81193e-09 -2.25572e-08 0)
(2.29423e-10 -2.96071e-08 0)
(-3.08456e-09 -4.3298e-08 0)
(-4.04808e-09 -6.00269e-08 0)
(1.78986e-11 7.77012e-09 0)
(-3.57111e-11 9.42814e-09 0)
(-6.09474e-11 9.97667e-09 0)
(1.83128e-12 1.04197e-08 0)
(1.85789e-10 1.09624e-08 0)
(5.1827e-10 1.16636e-08 0)
(1.02789e-09 1.25422e-08 0)
(1.76943e-09 1.36092e-08 0)
(2.85191e-09 1.4885e-08 0)
(4.5196e-09 1.63161e-08 0)
(6.88317e-09 1.73583e-08 0)
(9.77466e-09 1.64481e-08 0)
(1.21515e-08 1.23045e-08 0)
(1.33344e-08 4.76678e-09 0)
(1.26761e-08 -4.3153e-09 0)
(9.98713e-09 -1.27806e-08 0)
(6.56833e-09 -1.96286e-08 0)
(3.09813e-09 -2.64671e-08 0)
(-4.67889e-10 -4.02433e-08 0)
(-3.18478e-09 -6.2714e-08 0)
(4.06679e-11 7.73762e-09 0)
(8.16569e-11 9.4036e-09 0)
(1.92434e-10 9.87695e-09 0)
(4.3141e-10 1.01946e-08 0)
(8.30596e-10 1.05816e-08 0)
(1.41478e-09 1.10977e-08 0)
(2.20879e-09 1.17494e-08 0)
(3.25594e-09 1.25128e-08 0)
(4.62948e-09 1.33395e-08 0)
(6.47154e-09 1.41135e-08 0)
(8.90628e-09 1.44506e-08 0)
(1.17402e-08 1.34169e-08 0)
(1.41969e-08 1.01061e-08 0)
(1.54002e-08 4.35824e-09 0)
(1.47679e-08 -2.7629e-09 0)
(1.22518e-08 -9.79898e-09 0)
(8.69459e-09 -1.60931e-08 0)
(4.73301e-09 -2.27379e-08 0)
(8.97056e-10 -3.66666e-08 0)
(-3.03122e-09 -6.40347e-08 0)
(9.6823e-12 7.6534e-09 0)
(7.1495e-11 9.28043e-09 0)
(2.84864e-10 9.62683e-09 0)
(6.73675e-10 9.77941e-09 0)
(1.26023e-09 9.97583e-09 0)
(2.05706e-09 1.02818e-08 0)
(3.07552e-09 1.06968e-08 0)
(4.33482e-09 1.11785e-08 0)
(5.87028e-09 1.16445e-08 0)
(7.73066e-09 1.19564e-08 0)
(9.96548e-09 1.18335e-08 0)
(1.24186e-08 1.07781e-08 0)
(1.45344e-08 8.23644e-09 0)
(1.55757e-08 4.04043e-09 0)
(1.508e-08 -1.26286e-09 0)
(1.29471e-08 -6.92339e-09 0)
(9.63623e-09 -1.24333e-08 0)
(5.60053e-09 -1.8793e-08 0)
(1.7505e-09 -3.25201e-08 0)
(-3.0843e-09 -6.45634e-08 0)
(-1.09149e-10 7.81228e-09 0)
(-9.03212e-11 9.1941e-09 0)
(1.76589e-10 9.29993e-09 0)
(6.90382e-10 9.22714e-09 0)
(1.44146e-09 9.19689e-09 0)
(2.41966e-09 9.27543e-09 0)
(3.61993e-09 9.45802e-09 0)
(5.04192e-09 9.69708e-09 0)
(6.68489e-09 9.90624e-09 0)
(8.53834e-09 9.95428e-09 0)
(1.05626e-08 9.63781e-09 0)
(1.26155e-08 8.68441e-09 0)
(1.43453e-08 6.80464e-09 0)
(1.52307e-08 3.83721e-09 0)
(1.48579e-08 -1.95086e-11 0)
(1.31363e-08 -4.39079e-09 0)
(1.01634e-08 -8.97564e-09 0)
(6.50411e-09 -1.51227e-08 0)
(3.06039e-09 -2.80157e-08 0)
(-2.89549e-09 -6.50231e-08 0)
(-3.87068e-10 7.15346e-09 0)
(-6.5237e-10 8.43329e-09 0)
(-2.6777e-10 8.50301e-09 0)
(4.26756e-10 8.33003e-09 0)
(1.36598e-09 8.16088e-09 0)
(2.52783e-09 8.07221e-09 0)
(3.90393e-09 8.07087e-09 0)
(5.47968e-09 8.12249e-09 0)
(7.23105e-09 8.15995e-09 0)
(9.11647e-09 8.08113e-09 0)
(1.10538e-08 7.74588e-09 0)
(1.28986e-08 6.98604e-09 0)
(1.44026e-08 5.64892e-09 0)
(1.52554e-08 3.61521e-09 0)
(1.50186e-08 9.61172e-10 0)
(1.36573e-08 -2.28659e-09 0)
(1.08457e-08 -5.93855e-09 0)
(8.53268e-09 -1.2206e-08 0)
(4.95026e-09 -2.38565e-08 0)
(-2.02508e-09 -6.6328e-08 0)
(-9.18245e-10 1.12419e-08 0)
(-1.20959e-09 1.116e-08 0)
(-5.02931e-10 9.8356e-09 0)
(4.29418e-10 8.62058e-09 0)
(1.54596e-09 7.78206e-09 0)
(2.89044e-09 7.22755e-09 0)
(4.47315e-09 6.88052e-09 0)
(6.24819e-09 6.66871e-09 0)
(8.17366e-09 6.51262e-09 0)
(1.01951e-08 6.32718e-09 0)
(1.22229e-08 6.01486e-09 0)
(1.41178e-08 5.47172e-09 0)
(1.56801e-08 4.62048e-09 0)
(1.66185e-08 3.41657e-09 0)
(1.66654e-08 1.83528e-09 0)
(1.58383e-08 -3.29214e-10 0)
(1.30393e-08 -3.20241e-09 0)
(1.33475e-08 -9.52673e-09 0)
(5.80414e-09 -1.89406e-08 0)
(1.22272e-09 -6.67131e-08 0)
(-1.5534e-09 4.17168e-09 0)
(-2.33981e-09 2.45737e-09 0)
(-1.5381e-10 2.65284e-09 0)
(2.25588e-09 3.46816e-09 0)
(4.74276e-09 3.70835e-09 0)
(7.2422e-09 3.64294e-09 0)
(9.6878e-09 3.55459e-09 0)
(1.20915e-08 3.50689e-09 0)
(1.4476e-08 3.47575e-09 0)
(1.68459e-08 3.42636e-09 0)
(1.91638e-08 3.32555e-09 0)
(2.13462e-08 3.13113e-09 0)
(2.32638e-08 2.80846e-09 0)
(2.47964e-08 2.31226e-09 0)
(2.5638e-08 1.63649e-09 0)
(2.61912e-08 5.00782e-10 0)
(2.38041e-08 -9.37354e-10 0)
(2.63892e-08 -5.29957e-09 0)
(7.40105e-09 -1.04292e-08 0)
(1.77205e-08 -5.63059e-08 0)
(1.0161e-08 2.31966e-08 0)
(1.54746e-08 1.74937e-08 0)
(2.18335e-08 1.10053e-08 0)
(2.7317e-08 7.33726e-09 0)
(3.15773e-08 5.4044e-09 0)
(3.51703e-08 4.26491e-09 0)
(3.84547e-08 3.51106e-09 0)
(4.15333e-08 2.97248e-09 0)
(4.44352e-08 2.56666e-09 0)
(4.71877e-08 2.25337e-09 0)
(4.98001e-08 1.99692e-09 0)
(5.22534e-08 1.7771e-09 0)
(5.44861e-08 1.57724e-09 0)
(5.64639e-08 1.37969e-09 0)
(5.78803e-08 1.16112e-09 0)
(5.92962e-08 8.4841e-10 0)
(5.7582e-08 4.9682e-10 0)
(6.27956e-08 -7.84096e-10 0)
(3.11304e-08 9.01706e-10 0)
(9.44675e-08 -2.44983e-08 0)
)
;

boundaryField
{
    movingWall
    {
        type            calculated;
        value           uniform (0 0 0);
    }
    fixedWalls
    {
        type            calculated;
        value           uniform (0 0 0);
    }
    frontAndBack
    {
        type            empty;
    }
}


// ************************************************************************* //
