/*--------------------------------*- C++ -*----------------------------------*\
| =========                 |                                                 |
| \\      /  F ield         | OpenFOAM: The Open Source CFD Toolbox           |
|  \\    /   O peration     | Version:  2312                                  |
|   \\  /    A nd           | Website:  www.openfoam.com                      |
|    \\/     M anipulation  |                                                 |
\*---------------------------------------------------------------------------*/
FoamFile
{
    version     2.0;
    format      ascii;
    arch        "LSB;label=32;scalar=64";
    class       volVectorField;
    location    "1.5";
    object      norm_U_L1;
}
// * * * * * * * * * * * * * * * * * * * * * * * * * * * * * * * * * * * * * //

dimensions      [0 0 0 0 0 0 0];

internalField   nonuniform List<vector> 
400
(
(-1.19639e-05 1.17292e-05 0)
(-7.67497e-05 3.91782e-05 0)
(-0.000192207 5.7667e-05 0)
(-0.000325455 6.52465e-05 0)
(-0.000467605 6.80976e-05 0)
(-0.00061423 6.97197e-05 0)
(-0.000763396 7.09825e-05 0)
(-0.000911553 7.09786e-05 0)
(-0.001052 6.68589e-05 0)
(-0.00117379 5.49863e-05 0)
(-0.00125357 3.44521e-05 0)
(-0.00127754 5.29239e-06 0)
(-0.00122953 -4.10178e-05 0)
(-0.00109539 -8.62562e-05 0)
(-0.000891237 -0.000123383 0)
(-0.000643392 -0.000139226 0)
(-0.000392516 -0.000128128 0)
(-0.0001771 -9.14664e-05 0)
(-3.01997e-05 -3.76188e-05 0)
(1.40999e-05 8.49307e-06 0)
(-4.06613e-05 7.81384e-05 0)
(-0.000152933 0.000156005 0)
(-0.000300438 0.000201146 0)
(-0.000464901 0.000222667 0)
(-0.000639547 0.000232926 0)
(-0.000820172 0.000238096 0)
(-0.00100275 0.000238205 0)
(-0.00118046 0.000229116 0)
(-0.00134249 0.000203559 0)
(-0.00147369 0.0001543 0)
(-0.00155616 7.85059e-05 0)
(-0.00157379 -2.23831e-05 0)
(-0.00151262 -0.000142913 0)
(-0.00136356 -0.000264215 0)
(-0.0011352 -0.000359057 0)
(-0.000851883 -0.000399016 0)
(-0.000557188 -0.000371937 0)
(-0.000300457 -0.00028444 0)
(-0.000110519 -0.000155005 0)
(-1.20585e-05 -2.36515e-05 0)
(-6.49381e-05 0.000195591 0)
(-0.000201768 0.00030168 0)
(-0.000356939 0.000360875 0)
(-0.000526294 0.000394658 0)
(-0.000706568 0.000414225 0)
(-0.000894822 0.000424541 0)
(-0.00108749 0.000423769 0)
(-0.00127781 0.000404204 0)
(-0.00145477 0.000354699 0)
(-0.00160398 0.00026588 0)
(-0.00171034 0.000134912 0)
(-0.00175937 -3.45904e-05 0)
(-0.00173229 -0.000233784 0)
(-0.00160571 -0.000442216 0)
(-0.00137187 -0.00061499 0)
(-0.00104375 -0.000699636 0)
(-0.000669178 -0.000662361 0)
(-0.000336164 -0.000514731 0)
(-0.000111018 -0.000309789 0)
(-1.26979e-05 -9.5813e-05 0)
(-7.62164e-05 0.000333442 0)
(-0.000225482 0.000457739 0)
(-0.000384116 0.000524294 0)
(-0.000553862 0.000567613 0)
(-0.000734575 0.000597066 0)
(-0.000925929 0.000615282 0)
(-0.00112676 0.000617873 0)
(-0.0013324 0.00059356 0)
(-0.00153454 0.000527961 0)
(-0.00172336 0.000410815 0)
(-0.00189034 0.000238911 0)
(-0.00202654 1.11306e-05 0)
(-0.00211234 -0.000272514 0)
(-0.00209976 -0.000595492 0)
(-0.00192732 -0.000891527 0)
(-0.00156261 -0.00107797 0)
(-0.00102932 -0.00107011 0)
(-0.000460806 -0.000832893 0)
(-6.93166e-05 -0.000474281 0)
(2.01828e-05 -0.000135877 0)
(-7.84094e-05 0.000480131 0)
(-0.000230808 0.000619514 0)
(-0.000389157 0.000690383 0)
(-0.000557059 0.000742061 0)
(-0.000736925 0.00078305 0)
(-0.000930806 0.000813753 0)
(-0.00114082 0.000827115 0)
(-0.00136656 0.000809081 0)
(-0.00160584 0.000743682 0)
(-0.00186042 0.00062227 0)
(-0.00214463 0.000443605 0)
(-0.00247778 0.000200764 0)
(-0.00284095 -0.000126893 0)
(-0.00312044 -0.000561254 0)
(-0.00315201 -0.00108019 0)
(-0.0028185 -0.00153852 0)
(-0.00211954 -0.00171817 0)
(-0.00116886 -0.0014627 0)
(-0.000219551 -0.000788426 0)
(6.51382e-05 -0.000136763 0)
(-7.51165e-05 0.000625627 0)
(-0.000223167 0.000779417 0)
(-0.000376784 0.000854066 0)
(-0.000539445 0.000914434 0)
(-0.000715346 0.000969407 0)
(-0.000908729 0.00101803 0)
(-0.00112567 0.00105212 0)
(-0.00137252 0.00105787 0)
(-0.00165844 0.00102381 0)
(-0.0020123 0.000955545 0)
(-0.00249583 0.000868394 0)
(-0.00315229 0.000728015 0)
(-0.00387849 0.000385245 0)
(-0.00441867 -0.000291414 0)
(-0.00458472 -0.00122217 0)
(-0.00433354 -0.00213718 0)
(-0.00363575 -0.00272282 0)
(-0.0024766 -0.00264331 0)
(-0.00101479 -0.00168669 0)
(5.51583e-05 -0.000319741 0)
(-6.80826e-05 0.000762737 0)
(-0.000205704 0.000931517 0)
(-0.00034945 0.00101047 0)
(-0.000501757 0.00107997 0)
(-0.000667798 0.00115089 0)
(-0.000853425 0.00122254 0)
(-0.00106842 0.0012885 0)
(-0.0013266 0.00134141 0)
(-0.001649 0.00138656 0)
(-0.0020909 0.00145722 0)
(-0.00274389 0.00155974 0)
(-0.00360197 0.0015256 0)
(-0.00441695 0.00105534 0)
(-0.00492409 4.68228e-05 0)
(-0.00510711 -0.00128668 0)
(-0.00502957 -0.00263327 0)
(-0.0045994 -0.00372229 0)
(-0.00365701 -0.00415739 0)
(-0.00211575 -0.00332864 0)
(-0.000270797 -0.000921136 0)
(-5.81461e-05 0.000885632 0)
(-0.000180013 0.00107024 0)
(-0.000308376 0.00115393 0)
(-0.000443965 0.00123229 0)
(-0.000591873 0.00131939 0)
(-0.000758254 0.00141641 0)
(-0.000954482 0.00152144 0)
(-0.00119761 0.00163817 0)
(-0.00151003 0.00179231 0)
(-0.00195468 0.00203323 0)
(-0.00259961 0.00230451 0)
(-0.00336222 0.00228688 0)
(-0.00398229 0.00163131 0)
(-0.00431557 0.000356734 0)
(-0.00439218 -0.00119955 0)
(-0.00436809 -0.00274626 0)
(-0.00430948 -0.00419073 0)
(-0.00392354 -0.00530559 0)
(-0.00281448 -0.00522879 0)
(-0.000997962 -0.00253274 0)
(-4.59878e-05 0.00098948 0)
(-0.000147539 0.00119021 0)
(-0.000255236 0.00127828 0)
(-0.000367608 0.00136366 0)
(-0.000488484 0.0014642 0)
(-0.000622757 0.00158384 0)
(-0.00078022 0.00172579 0)
(-0.000975046 0.00190378 0)
(-0.00122165 0.00215736 0)
(-0.00155742 0.00253629 0)
(-0.00201832 0.00289608 0)
(-0.00252822 0.00282568 0)
(-0.00287612 0.00199916 0)
(-0.00294357 0.000537034 0)
(-0.00285502 -0.00109602 0)
(-0.00281522 -0.00261343 0)
(-0.00293883 -0.00404519 0)
(-0.00309547 -0.00561103 0)
(-0.00272327 -0.00671878 0)
(-0.00132881 -0.00469821 0)
(-3.2511e-05 0.0010705 0)
(-0.000110424 0.00128686 0)
(-0.000193261 0.00137787 0)
(-0.000277108 0.00146659 0)
(-0.000363605 0.00157476 0)
(-0.000455098 0.00170885 0)
(-0.000557335 0.00187568 0)
(-0.000677203 0.00209312 0)
(-0.000814097 0.00239984 0)
(-0.00097405 0.00283669 0)
(-0.00115498 0.00320274 0)
(-0.00136822 0.00309705 0)
(-0.00149355 0.00215603 0)
(-0.0014441 0.000554327 0)
(-0.00135855 -0.00115507 0)
(-0.0013258 -0.00260906 0)
(-0.00143346 -0.00379257 0)
(-0.00176439 -0.00524164 0)
(-0.00199395 -0.00722046 0)
(-0.00122426 -0.00674084 0)
(-1.89657e-05 0.00112687 0)
(-7.16577e-05 0.00135698 0)
(-0.000127379 0.00144872 0)
(-0.00017971 0.00153578 0)
(-0.000227686 0.00164354 0)
(-0.00027067 0.00178011 0)
(-0.00030939 0.00195288 0)
(-0.000342621 0.0021771 0)
(-0.000358199 0.0024811 0)
(-0.000328558 0.00289314 0)
(-0.000257468 0.00322436 0)
(-0.000159782 0.00312406 0)
(-8.64852e-05 0.00219302 0)
(-3.87186e-05 0.000591296 0)
(-6.86563e-05 -0.00115274 0)
(-0.000166027 -0.00259372 0)
(-0.000354788 -0.00366639 0)
(-0.000654999 -0.00479679 0)
(-0.0011218 -0.0069496 0)
(-0.000900793 -0.00824112 0)
(-6.65676e-06 0.00115866 0)
(-3.51094e-05 0.00140002 0)
(-6.37295e-05 0.00148921 0)
(-8.41462e-05 0.00156891 0)
(-9.30537e-05 0.00166744 0)
(-8.73738e-05 0.00179367 0)
(-6.40545e-05 0.00195301 0)
(-1.69838e-05 0.00215447 0)
(7.19846e-05 0.00241316 0)
(0.000245636 0.0027378 0)
(0.0005065 0.00300342 0)
(0.000843896 0.00288744 0)
(0.00108419 0.00212447 0)
(0.00120268 0.000699708 0)
(0.00110918 -0.000942485 0)
(0.000805081 -0.00233529 0)
(0.000422833 -0.00339194 0)
(3.44985e-05 -0.00445205 0)
(-0.000463828 -0.00651075 0)
(-0.000608713 -0.00902629 0)
(2.69142e-06 0.0011684 0)
(-5.36991e-06 0.00141772 0)
(-9.16471e-06 0.0015002 0)
(2.75371e-07 0.00156682 0)
(2.79372e-05 0.00164843 0)
(7.79327e-05 0.00175386 0)
(0.000154564 0.00188599 0)
(0.000266071 0.00204643 0)
(0.000428844 0.00223827 0)
(0.000679615 0.00245347 0)
(0.00103503 0.00261018 0)
(0.00146982 0.00247331 0)
(0.00182723 0.00185024 0)
(0.0020051 0.000716784 0)
(0.00190611 -0.000648895 0)
(0.00150177 -0.00192183 0)
(0.000987685 -0.00295156 0)
(0.000465868 -0.00397987 0)
(-7.03568e-05 -0.00605142 0)
(-0.000478898 -0.00943036 0)
(6.11526e-06 0.00116351 0)
(1.22788e-05 0.00141403 0)
(2.89364e-05 0.00148521 0)
(6.48714e-05 0.00153296 0)
(0.000124897 0.00159116 0)
(0.000212742 0.00166877 0)
(0.000332138 0.00176676 0)
(0.000489599 0.00188156 0)
(0.000696138 0.00200587 0)
(0.000973131 0.00212225 0)
(0.00133925 0.00217295 0)
(0.00176539 0.00201751 0)
(0.00213481 0.00151967 0)
(0.00231574 0.000655352 0)
(0.00222066 -0.00041546 0)
(0.00184231 -0.00147348 0)
(0.00130741 -0.00241993 0)
(0.000711707 -0.00341912 0)
(0.000134891 -0.00551358 0)
(-0.000455808 -0.00962895 0)
(1.45594e-06 0.00115085 0)
(1.07508e-05 0.00139551 0)
(4.28352e-05 0.00144759 0)
(0.000101301 0.00147054 0)
(0.000189501 0.00150007 0)
(0.000309322 0.00154609 0)
(0.000462468 0.00160849 0)
(0.00065183 0.00168091 0)
(0.000882718 0.00175099 0)
(0.00116247 0.00179789 0)
(0.00149852 0.00177941 0)
(0.0018674 0.0016207 0)
(0.00218556 0.00123852 0)
(0.00234213 0.000607562 0)
(0.00226759 -0.000189897 0)
(0.00194687 -0.00104108 0)
(0.00144901 -0.0018696 0)
(0.000842156 -0.00282591 0)
(0.000263223 -0.00489008 0)
(-0.000463788 -0.00970845 0)
(-1.64129e-05 0.00117474 0)
(-1.35817e-05 0.00138252 0)
(2.65538e-05 0.00139844 0)
(0.000103813 0.00138749 0)
(0.000216754 0.00138294 0)
(0.000363846 0.00139475 0)
(0.000544332 0.00142221 0)
(0.000758157 0.00145816 0)
(0.00100521 0.00148961 0)
(0.00128392 0.00149683 0)
(0.0015883 0.00144925 0)
(0.001897 0.00130588 0)
(0.00215712 0.00102322 0)
(0.00229025 0.000577004 0)
(0.00223419 -2.93352e-06 0)
(0.00197532 -0.000660246 0)
(0.00152828 -0.00134967 0)
(0.000978028 -0.00227401 0)
(0.000460193 -0.00421274 0)
(-0.000435397 -0.00977758 0)
(-5.82037e-05 0.00107567 0)
(-9.80973e-05 0.00126812 0)
(-4.02648e-05 0.0012786 0)
(6.41717e-05 0.00125259 0)
(0.000205404 0.00122716 0)
(0.000380113 0.00121383 0)
(0.000587037 0.00121362 0)
(0.000823983 0.00122138 0)
(0.00108734 0.00122702 0)
(0.00137085 0.00121517 0)
(0.00166218 0.00116475 0)
(0.00193957 0.0010505 0)
(0.00216573 0.000849433 0)
(0.00229396 0.000543622 0)
(0.00225835 0.000144532 0)
(0.00205366 -0.000343836 0)
(0.00163087 -0.000892984 0)
(0.00128307 -0.00183542 0)
(0.000744375 -0.00358732 0)
(-0.000304512 -0.00997379 0)
(-0.000138077 0.00169046 0)
(-0.000181888 0.00167814 0)
(-7.56261e-05 0.00147899 0)
(6.45719e-05 0.00129628 0)
(0.000232467 0.00117019 0)
(0.000434638 0.00108681 0)
(0.000672631 0.00103463 0)
(0.000939545 0.00100278 0)
(0.00122908 0.000979308 0)
(0.00153304 0.000951423 0)
(0.00183797 0.000904459 0)
(0.00212291 0.000822787 0)
(0.00235783 0.000694785 0)
(0.00249894 0.000513752 0)
(0.00250598 0.000275973 0)
(0.00238161 -4.95042e-05 0)
(0.00196072 -0.000481548 0)
(0.00200707 -0.00143254 0)
(0.000872773 -0.00284811 0)
(0.000183862 -0.0100317 0)
(-0.000233586 0.0006273 0)
(-0.000351838 0.000369516 0)
(-2.31286e-05 0.000398909 0)
(0.000339218 0.00052151 0)
(0.000713172 0.000557628 0)
(0.00108902 0.000547793 0)
(0.00145676 0.000534506 0)
(0.00181821 0.000527334 0)
(0.00217677 0.000522652 0)
(0.00253314 0.000515224 0)
(0.00288167 0.000500065 0)
(0.00320984 0.000470831 0)
(0.00349819 0.00042231 0)
(0.00372865 0.000347696 0)
(0.00385521 0.00024608 0)
(0.0039384 7.5303e-05 0)
(0.00357943 -0.000140951 0)
(0.00396816 -0.000796901 0)
(0.0011129 -0.00156824 0)
(0.00266464 -0.00846677 0)
(0.00152791 0.00348809 0)
(0.00232693 0.00263054 0)
(0.00328312 0.00165487 0)
(0.00410768 0.00110331 0)
(0.0047483 0.000812664 0)
(0.00528859 0.000641318 0)
(0.00578247 0.00052796 0)
(0.00624539 0.000446973 0)
(0.00668176 0.00038595 0)
(0.00709565 0.000338841 0)
(0.00748848 0.000300278 0)
(0.00785739 0.000267225 0)
(0.00819312 0.000237171 0)
(0.00849052 0.000207465 0)
(0.00870351 0.000174599 0)
(0.00891641 0.000127576 0)
(0.00865866 7.47073e-05 0)
(0.00944262 -0.000117905 0)
(0.00468111 0.00013559 0)
(0.0142052 -0.00368382 0)
)
;

boundaryField
{
    movingWall
    {
        type            calculated;
        value           uniform (0.0375927 0 0);
    }
    fixedWalls
    {
        type            calculated;
        value           uniform (0 0 0);
    }
    frontAndBack
    {
        type            empty;
    }
}


// ************************************************************************* //
