/*--------------------------------*- C++ -*----------------------------------*\
| =========                 |                                                 |
| \\      /  F ield         | OpenFOAM: The Open Source CFD Toolbox           |
|  \\    /   O peration     | Version:  2312                                  |
|   \\  /    A nd           | Website:  www.openfoam.com                      |
|    \\/     M anipulation  |                                                 |
\*---------------------------------------------------------------------------*/
FoamFile
{
    version     2.0;
    format      ascii;
    arch        "LSB;label=32;scalar=64";
    class       volVectorField;
    location    "1.5";
    object      norm_U_max;
}
// * * * * * * * * * * * * * * * * * * * * * * * * * * * * * * * * * * * * * //

dimensions      [0 0 0 0 0 0 0];

internalField   nonuniform List<vector> 
400
(
(-0.000318251 0.000312007 0)
(-0.00204161 0.00104217 0)
(-0.00511289 0.00153399 0)
(-0.0086574 0.00173562 0)
(-0.0124387 0.00181146 0)
(-0.0163391 0.00185461 0)
(-0.020307 0.0018882 0)
(-0.0242481 0.00188809 0)
(-0.0279841 0.00177851 0)
(-0.031224 0.00146269 0)
(-0.0333461 0.000916457 0)
(-0.0339838 0.000140782 0)
(-0.0327066 -0.00109111 0)
(-0.0291384 -0.00229449 0)
(-0.0237077 -0.00328211 0)
(-0.0171148 -0.00370353 0)
(-0.0104413 -0.00340831 0)
(-0.00471103 -0.00243309 0)
(-0.000803339 -0.00100069 0)
(0.000375071 0.000225923 0)
(-0.00108163 0.00207855 0)
(-0.00406816 0.00414988 0)
(-0.00799192 0.00535067 0)
(-0.0123668 0.00592315 0)
(-0.0170125 0.00619603 0)
(-0.0218173 0.00633357 0)
(-0.0266741 0.00633646 0)
(-0.0314014 0.0060947 0)
(-0.0357114 0.00541486 0)
(-0.0392015 0.00410453 0)
(-0.0413952 0.00208833 0)
(-0.0418644 -0.00059541 0)
(-0.0402371 -0.00380162 0)
(-0.0362719 -0.00702837 0)
(-0.0301974 -0.00955123 0)
(-0.0226609 -0.0106142 0)
(-0.0148217 -0.00989386 0)
(-0.00799243 -0.00756637 0)
(-0.00293992 -0.00412327 0)
(-0.000320768 -0.00062915 0)
(-0.00172741 0.00520289 0)
(-0.00536722 0.00802496 0)
(-0.0094949 0.0095996 0)
(-0.0139999 0.0104983 0)
(-0.0187954 0.0110188 0)
(-0.0238031 0.0112932 0)
(-0.0289283 0.0112726 0)
(-0.0339909 0.0107522 0)
(-0.0386982 0.00943533 0)
(-0.0426673 0.00707265 0)
(-0.0454967 0.00358877 0)
(-0.0468008 -0.000920135 0)
(-0.0460805 -0.00621888 0)
(-0.0427134 -0.0117633 0)
(-0.036493 -0.0163593 0)
(-0.0277646 -0.018611 0)
(-0.0178007 -0.0176194 0)
(-0.00894226 -0.0136923 0)
(-0.00295317 -0.00824067 0)
(-0.000337777 -0.00254871 0)
(-0.00202743 0.00886987 0)
(-0.00599803 0.0121763 0)
(-0.0102178 0.0139467 0)
(-0.0147332 0.015099 0)
(-0.0195404 0.0158825 0)
(-0.0246306 0.0163671 0)
(-0.0299728 0.016436 0)
(-0.0354429 0.0157892 0)
(-0.0408201 0.0140442 0)
(-0.0458429 0.0109281 0)
(-0.0502849 0.00635525 0)
(-0.0539079 0.000296083 0)
(-0.0561902 -0.00724912 0)
(-0.0558555 -0.0158406 0)
(-0.0512686 -0.0237154 0)
(-0.0415667 -0.028675 0)
(-0.0273809 -0.028466 0)
(-0.0122579 -0.0221557 0)
(-0.00184388 -0.0126163 0)
(0.00053688 -0.00361446 0)
(-0.00208576 0.0127719 0)
(-0.00613971 0.0164796 0)
(-0.0103519 0.0183648 0)
(-0.0148183 0.0197395 0)
(-0.0196029 0.0208298 0)
(-0.0247603 0.0216466 0)
(-0.0303468 0.022002 0)
(-0.0363517 0.0215223 0)
(-0.0427169 0.0197826 0)
(-0.049489 0.0165529 0)
(-0.0570492 0.0118003 0)
(-0.0659112 0.00534051 0)
(-0.0755718 -0.00337548 0)
(-0.0830066 -0.0149299 0)
(-0.0838464 -0.0287342 0)
(-0.0749746 -0.040926 0)
(-0.0563817 -0.045705 0)
(-0.0310928 -0.0389091 0)
(-0.00584025 -0.0209729 0)
(0.00173274 -0.00363801 0)
(-0.00199817 0.0166422 0)
(-0.00593645 0.0207332 0)
(-0.0100228 0.0227189 0)
(-0.0143497 0.0243248 0)
(-0.0190288 0.0257871 0)
(-0.024173 0.0270805 0)
(-0.0299438 0.0279872 0)
(-0.0365103 0.0281402 0)
(-0.0441161 0.0272342 0)
(-0.0535289 0.0254184 0)
(-0.0663913 0.0231001 0)
(-0.0838538 0.0193658 0)
(-0.103171 0.0102479 0)
(-0.117541 -0.00775187 0)
(-0.121958 -0.0325109 0)
(-0.115276 -0.0568508 0)
(-0.0967144 -0.0724294 0)
(-0.0658799 -0.0703144 0)
(-0.0269943 -0.0448675 0)
(0.00146726 -0.00850541 0)
(-0.00181106 0.0202895 0)
(-0.00547192 0.0247792 0)
(-0.00929569 0.0268794 0)
(-0.0133472 0.0287281 0)
(-0.017764 0.0306147 0)
(-0.0227019 0.0325207 0)
(-0.028421 0.0342753 0)
(-0.0352887 0.0356826 0)
(-0.0438648 0.0368838 0)
(-0.0556197 0.0387633 0)
(-0.07299 0.0414905 0)
(-0.0958156 0.0405823 0)
(-0.117495 0.0280729 0)
(-0.130985 0.00124553 0)
(-0.135854 -0.0342268 0)
(-0.133791 -0.0700475 0)
(-0.122348 -0.0990162 0)
(-0.0972799 -0.11059 0)
(-0.0562809 -0.0885448 0)
(-0.00720345 -0.0245031 0)
(-0.00154674 0.0235586 0)
(-0.00478851 0.0284693 0)
(-0.00820307 0.0306956 0)
(-0.0118099 0.0327801 0)
(-0.0157444 0.035097 0)
(-0.0201702 0.0376779 0)
(-0.0253901 0.0404716 0)
(-0.0318574 0.0435769 0)
(-0.0401682 0.0476771 0)
(-0.0519963 0.0540857 0)
(-0.0691521 0.061302 0)
(-0.0894382 0.060833 0)
(-0.105933 0.0433942 0)
(-0.114798 0.00948944 0)
(-0.116836 -0.031909 0)
(-0.116195 -0.0730529 0)
(-0.114636 -0.111477 0)
(-0.10437 -0.141133 0)
(-0.0748677 -0.139091 0)
(-0.0265467 -0.0673732 0)
(-0.00122332 0.0263211 0)
(-0.00392468 0.0316606 0)
(-0.00678952 0.0340035 0)
(-0.00977871 0.0362745 0)
(-0.0129941 0.0389491 0)
(-0.0165659 0.0421316 0)
(-0.0207546 0.0459076 0)
(-0.0259371 0.0506422 0)
(-0.0324971 0.0573877 0)
(-0.0414288 0.0674675 0)
(-0.0536892 0.0770384 0)
(-0.0672529 0.0751656 0)
(-0.0765074 0.0531794 0)
(-0.0783017 0.0142856 0)
(-0.0759461 -0.0291552 0)
(-0.0748873 -0.0695195 0)
(-0.0781755 -0.107606 0)
(-0.0823422 -0.149258 0)
(-0.0724416 -0.178726 0)
(-0.0353475 -0.124977 0)
(-0.000864822 0.0284763 0)
(-0.00293738 0.0342317 0)
(-0.00514092 0.0366526 0)
(-0.00737133 0.0390127 0)
(-0.00967221 0.04189 0)
(-0.012106 0.0454568 0)
(-0.0148256 0.0498947 0)
(-0.0180142 0.0556788 0)
(-0.0216557 0.0638379 0)
(-0.0259106 0.0754584 0)
(-0.0307235 0.0851957 0)
(-0.036396 0.0823845 0)
(-0.0397298 0.0573523 0)
(-0.0384142 0.0147456 0)
(-0.0361386 -0.0307259 0)
(-0.0352674 -0.0694034 0)
(-0.0381313 -0.100886 0)
(-0.0469343 -0.139432 0)
(-0.0530408 -0.192071 0)
(-0.0325664 -0.179312 0)
(-0.000504504 0.0299758 0)
(-0.00190616 0.0360969 0)
(-0.0033884 0.0385373 0)
(-0.00478046 0.0408533 0)
(-0.00605666 0.0437197 0)
(-0.00720008 0.0473526 0)
(-0.00823005 0.0519484 0)
(-0.00911402 0.0579129 0)
(-0.00952843 0.0659994 0)
(-0.00873995 0.0769601 0)
(-0.00684888 0.0857708 0)
(-0.00425035 0.0831028 0)
(-0.00230059 0.0583364 0)
(-0.00102995 0.015729 0)
(-0.00182632 -0.0306638 0)
(-0.00441646 -0.0689954 0)
(-0.00943769 -0.0975293 0)
(-0.0174236 -0.127599 0)
(-0.029841 -0.184866 0)
(-0.0239619 -0.219221 0)
(-0.000177076 0.0308215 0)
(-0.000933941 0.0372418 0)
(-0.00169526 0.0396144 0)
(-0.00223836 0.0417345 0)
(-0.00247531 0.0443554 0)
(-0.00232422 0.0477131 0)
(-0.00170391 0.0519519 0)
(-0.000451784 0.0573108 0)
(0.00191486 0.0641922 0)
(0.00653413 0.072828 0)
(0.0134733 0.0798936 0)
(0.0224484 0.0768085 0)
(0.0288404 0.056513 0)
(0.0319924 0.0186129 0)
(0.0295051 -0.025071 0)
(0.0214159 -0.0621208 0)
(0.0112477 -0.0902287 0)
(0.000917691 -0.118429 0)
(-0.0123382 -0.173192 0)
(-0.0161923 -0.240107 0)
(7.15942e-05 0.0310805 0)
(-0.000142844 0.0377126 0)
(-0.00024379 0.0399067 0)
(7.32512e-06 0.0416788 0)
(0.000743154 0.0438496 0)
(0.00207308 0.0466543 0)
(0.00411155 0.050169 0)
(0.00707772 0.0544368 0)
(0.0114076 0.05954 0)
(0.0180784 0.0652645 0)
(0.0275327 0.0694332 0)
(0.0390986 0.0657923 0)
(0.0486059 0.049218 0)
(0.0533376 0.0190671 0)
(0.0507043 -0.0172612 0)
(0.0399485 -0.0511224 0)
(0.0262733 -0.0785142 0)
(0.0123925 -0.105868 0)
(-0.00187155 -0.160973 0)
(-0.0127391 -0.250856 0)
(0.000162671 0.0309505 0)
(0.000326628 0.0376144 0)
(0.000769735 0.0395078 0)
(0.00172564 0.0407783 0)
(0.00332238 0.0423263 0)
(0.00565912 0.0443908 0)
(0.00883517 0.0469975 0)
(0.0130238 0.0500512 0)
(0.0185179 0.053358 0)
(0.0258862 0.0564538 0)
(0.0356251 0.0578023 0)
(0.0469609 0.0536677 0)
(0.0567878 0.0404245 0)
(0.0616008 0.017433 0)
(0.0590715 -0.0110516 0)
(0.0490071 -0.0391959 0)
(0.0347784 -0.0643723 0)
(0.018932 -0.0909518 0)
(0.00358822 -0.146666 0)
(-0.0121249 -0.256139 0)
(3.87292e-05 0.0306136 0)
(0.00028598 0.0371217 0)
(0.00113946 0.0385073 0)
(0.0026947 0.0391176 0)
(0.0050409 0.0399033 0)
(0.00822824 0.0411273 0)
(0.0123021 0.0427873 0)
(0.0173393 0.0447139 0)
(0.0234811 0.0465779 0)
(0.0309226 0.0478254 0)
(0.0398619 0.0473339 0)
(0.0496745 0.0431122 0)
(0.0581378 0.0329457 0)
(0.0623028 0.0161617 0)
(0.06032 -0.00505143 0)
(0.0517886 -0.0276936 0)
(0.0385449 -0.049733 0)
(0.0224021 -0.0751719 0)
(0.00700198 -0.13008 0)
(-0.0123372 -0.258254 0)
(-0.000436597 0.0312491 0)
(-0.000361285 0.0367764 0)
(0.000706355 0.0371997 0)
(0.00276153 0.0369086 0)
(0.00576586 0.0367876 0)
(0.00967863 0.0371017 0)
(0.0144797 0.0378321 0)
(0.0201677 0.0387883 0)
(0.0267395 0.039625 0)
(0.0341534 0.0398171 0)
(0.0422503 0.0385513 0)
(0.050462 0.0347377 0)
(0.0573812 0.0272186 0)
(0.0609226 0.0153488 0)
(0.0594315 -7.80344e-05 0)
(0.0525452 -0.0175632 0)
(0.0406536 -0.0359026 0)
(0.0260164 -0.0604907 0)
(0.0122416 -0.112063 0)
(-0.011582 -0.260093 0)
(-0.00154827 0.0286138 0)
(-0.00260948 0.0337332 0)
(-0.00107108 0.034012 0)
(0.00170703 0.0333201 0)
(0.00546392 0.0326435 0)
(0.0101113 0.0322889 0)
(0.0156157 0.0322835 0)
(0.0219187 0.0324899 0)
(0.0289242 0.0326398 0)
(0.0364659 0.0323245 0)
(0.0442154 0.0309835 0)
(0.0515944 0.0279442 0)
(0.0576105 0.0225957 0)
(0.0610214 0.0144608 0)
(0.0600743 0.00384469 0)
(0.0546292 -0.00914634 0)
(0.0433828 -0.0237542 0)
(0.0341307 -0.0488239 0)
(0.019801 -0.0954261 0)
(-0.00810031 -0.265312 0)
(-0.00367298 0.0449676 0)
(-0.00483838 0.04464 0)
(-0.00201172 0.0393424 0)
(0.00171767 0.0344823 0)
(0.00618384 0.0311282 0)
(0.0115618 0.0289102 0)
(0.0178926 0.0275221 0)
(0.0249928 0.0266749 0)
(0.0326946 0.0260505 0)
(0.0407802 0.0253087 0)
(0.0488916 0.0240594 0)
(0.0564714 0.0218869 0)
(0.0627204 0.0184819 0)
(0.0664739 0.0136663 0)
(0.0666615 0.00734114 0)
(0.0633531 -0.00131686 0)
(0.052157 -0.0128096 0)
(0.05339 -0.0381069 0)
(0.0232166 -0.0757623 0)
(0.0048909 -0.266853 0)
(-0.00621361 0.0166867 0)
(-0.00935922 0.00982947 0)
(-0.000615241 0.0106113 0)
(0.0090235 0.0138726 0)
(0.018971 0.0148334 0)
(0.0289688 0.0145718 0)
(0.0387512 0.0142184 0)
(0.0483661 0.0140276 0)
(0.0579041 0.013903 0)
(0.0673838 0.0137054 0)
(0.0766552 0.0133022 0)
(0.0853848 0.0125245 0)
(0.0930551 0.0112338 0)
(0.0991855 0.00924904 0)
(0.102552 0.00654595 0)
(0.104765 0.00200313 0)
(0.0952162 -0.00374942 0)
(0.105557 -0.0211983 0)
(0.0296042 -0.0417166 0)
(0.0708819 -0.225224 0)
(0.0406438 0.0927863 0)
(0.0618983 0.0699748 0)
(0.0873339 0.0440212 0)
(0.109268 0.029349 0)
(0.126309 0.0216176 0)
(0.140681 0.0170596 0)
(0.153819 0.0140442 0)
(0.166133 0.0118899 0)
(0.177741 0.0102666 0)
(0.188751 0.00901349 0)
(0.1992 0.00798768 0)
(0.209014 0.00710842 0)
(0.217945 0.00630896 0)
(0.225855 0.00551876 0)
(0.231521 0.0046445 0)
(0.237185 0.00339364 0)
(0.230328 0.00198728 0)
(0.251182 -0.00313638 0)
(0.124522 0.00360683 0)
(0.37787 -0.0979931 0)
)
;

boundaryField
{
    movingWall
    {
        type            calculated;
        value           uniform (1 0 0);
    }
    fixedWalls
    {
        type            calculated;
        value           uniform (0 0 0);
    }
    frontAndBack
    {
        type            empty;
    }
}


// ************************************************************************* //
