/*--------------------------------*- C++ -*----------------------------------*\
| =========                 |                                                 |
| \\      /  F ield         | OpenFOAM: The Open Source CFD Toolbox           |
|  \\    /   O peration     | Version:  2312                                  |
|   \\  /    A nd           | Website:  www.openfoam.com                      |
|    \\/     M anipulation  |                                                 |
\*---------------------------------------------------------------------------*/
FoamFile
{
    version     2.0;
    format      ascii;
    arch        "LSB;label=32;scalar=64";
    class       volScalarField;
    location    "1.5";
    object      norm_k_field;
}
// * * * * * * * * * * * * * * * * * * * * * * * * * * * * * * * * * * * * * //

dimensions      [0 0 0 0 0 0 0];

internalField   nonuniform List<scalar> 
400
(
1654.41
1.30308e+11
1.76313e+11
12.8095
5.01141
2.89837
1.93893
1.39177
1.0363
0.785071
0.587263
0.438612
0.330128
0.249406
0.19228
0.149514
0.115508
0.0860528
0.05834
0.0407984
18.4723
2.16217e+11
196.966
14.5969
6.32942
3.67465
2.42478
1.72159
1.28047
0.978665
0.75723
0.59237
0.46588
0.372304
0.305867
0.249242
0.198893
0.151142
0.100284
0.0597343
1.80259e+11
3.08768e+11
3.92708e+11
4.47473e+11
32.0094
9.07359
4.92161
3.19917
2.25683
1.65574
1.23622
0.934318
0.706875
0.541894
0.431883
0.344119
0.269728
0.201705
0.13282
0.0807704
2.2789e+11
3.79704e+11
4.79798e+11
5.45842e+11
5.93115e+11
6.30427e+11
6.64271e+11
22.6153
7.78324
4.16653
2.54321
1.66472
1.14208
0.805
0.605121
0.477808
0.377774
0.276828
0.167669
0.098786
2.70229e+11
4.35043e+11
5.48063e+11
6.24186e+11
6.81203e+11
7.29217e+11
7.75494e+11
8.24921e+11
8.81026e+11
9.4706e+11
1.02447e+12
8.97544
3.32924
1.72356
1.10627
0.812177
0.640799
0.482635
0.256235
0.122764
3.07834e+11
4.77788e+11
6.01424e+11
6.87372e+11
7.55042e+11
8.15922e+11
8.78352e+11
9.48438e+11
1.03179e+12
1.13259e+12
1.24304e+12
1.31708e+12
1.34153e+12
1.36656e+12
1.43647e+12
41.7375
1.6224
0.917103
0.54711
0.225113
3.40953e+11
5.0996e+11
6.42096e+11
7.37327e+11
8.16059e+11
8.91112e+11
9.72318e+11
1.06799e+12
1.18702e+12
1.315e+12
1.35954e+12
1.32641e+12
1.28054e+12
1.26675e+12
1.31325e+12
1.44776e+12
1.66225e+12
9.04998
1.11196
0.558089
3.69632e+11
5.33003e+11
6.71323e+11
7.74628e+11
8.63715e+11
9.52416e+11
1.05174e+12
1.17053e+12
1.31127e+12
1.38938e+12
1.37168e+12
1.24398e+12
1.09924e+12
1.04988e+12
1.05312e+12
1.22511e+12
1.48455e+12
1.8964e+12
4.06374
1.26732
3.93805e+11
5.48072e+11
6.90054e+11
7.99478e+11
8.96966e+11
9.96813e+11
1.11025e+12
1.24439e+12
1.37666e+12
1.41652e+12
1.33445e+12
1.08642e+12
9.20467e+11
8.70292e+11
8.7231e+11
1.04026e+12
1.33539e+12
1.74148e+12
2.39031e+12
6.32737
4.13381e+11
5.56311e+11
6.99417e+11
8.12493e+11
9.15543e+11
1.02281e+12
1.14502e+12
1.28646e+12
1.40766e+12
1.42487e+12
1.28719e+12
9.82863e+11
8.08939e+11
7.60579e+11
7.6753e+11
9.35774e+11
1.26285e+12
1.70046e+12
2.3834e+12
3.51365e+12
4.28357e+11
5.58654e+11
7.00265e+11
8.14378e+11
9.19826e+11
1.03028e+12
1.15502e+12
1.29518e+12
1.41757e+12
1.4407e+12
1.3037e+12
1.00378e+12
7.82858e+11
7.08306e+11
7.33248e+11
9.01218e+11
1.2403e+12
1.68913e+12
2.39292e+12
3.82731e+12
4.39048e+11
5.57239e+11
6.96891e+11
8.10138e+11
9.15138e+11
1.02508e+12
1.14841e+12
1.28542e+12
1.41211e+12
1.46083e+12
1.35779e+12
1.09018e+12
8.34546e+11
7.40044e+11
7.7673e+11
9.48534e+11
1.31718e+12
1.73416e+12
2.46075e+12
4.07101e+12
4.45777e+11
5.53553e+11
6.89396e+11
8.00441e+11
9.03658e+11
1.01146e+12
1.13113e+12
1.26273e+12
1.39193e+12
1.46612e+12
1.42726e+12
1.27393e+12
1.00134e+12
8.71334e+11
9.24713e+11
1.12704e+12
1.47159e+12
1.7843e+12
2.54996e+12
4.32369e+12
4.50537e+11
5.48071e+11
6.8018e+11
7.88255e+11
8.88421e+11
9.92428e+11
1.10683e+12
1.23176e+12
1.35782e+12
1.45639e+12
1.4701e+12
1.41116e+12
1.26408e+12
1.13351e+12
1.1715e+12
1.31914e+12
1.53202e+12
1.78802e+12
2.58687e+12
4.61711e+12
4.53071e+11
5.43112e+11
6.71686e+11
7.76646e+11
8.73277e+11
9.72774e+11
1.08125e+12
1.19884e+12
1.31847e+12
1.42376e+12
1.47138e+12
1.45869e+12
1.40442e+12
1.31799e+12
1.32911e+12
1.39354e+12
1.531e+12
1.67022e+12
2.59498e+12
4.98104e+12
4.62369e+11
5.41406e+11
6.66698e+11
7.68016e+11
8.59506e+11
9.52157e+11
1.052e+12
1.15955e+12
1.26953e+12
1.36953e+12
1.439e+12
1.44436e+12
1.41861e+12
1.36304e+12
1.34602e+12
1.36576e+12
1.40762e+12
1.471e+12
2.58233e+12
5.45671e+12
4.64096e+11
5.44055e+11
6.63877e+11
7.55739e+11
8.37822e+11
9.20126e+11
1.00799e+12
1.10212e+12
1.19829e+12
1.28734e+12
1.35615e+12
1.38127e+12
1.36862e+12
1.32996e+12
1.28465e+12
1.27923e+12
1.29481e+12
1.38537e+12
2.69553e+12
6.08746e+12
5.1578e+11
5.74043e+11
7.00914e+11
7.86494e+11
8.62124e+11
9.39041e+11
1.02093e+12
1.10822e+12
1.19788e+12
1.28179e+12
1.35077e+12
1.39099e+12
1.38719e+12
1.36789e+12
1.32951e+12
1.29705e+12
1.30753e+12
1.5551e+12
3.11688e+12
7.03406e+12
7.27766e+11
9.45155e+11
1.25151e+12
1.45592e+12
1.60601e+12
1.73509e+12
1.8495e+12
1.95243e+12
2.04389e+12
2.12926e+12
2.20487e+12
2.27605e+12
2.32712e+12
2.38212e+12
2.43446e+12
2.54657e+12
2.7129e+12
11.4726
2.47652
0.58591
4.18891e+12
5.36434
17.7811
9.4572e+12
1.00789e+13
1.04564e+13
1.06708e+13
1.07852e+13
1.08021e+13
1.07844e+13
1.07404e+13
1.0669e+13
1.06053e+13
1.05409e+13
1.05293e+13
1.05557e+13
1.06799e+13
3.73789
2.51828
0.180907
)
;

boundaryField
{
    movingWall
    {
        type            calculated;
        value           nonuniform List<scalar> 
20
(
4.18891e+12
5.36434
17.7811
9.4572e+12
1.00789e+13
1.04564e+13
1.06708e+13
1.07852e+13
1.08021e+13
1.07844e+13
1.07404e+13
1.0669e+13
1.06053e+13
1.05409e+13
1.05293e+13
1.05557e+13
1.06799e+13
3.73789
2.51828
0.180907
)
;
    }
    fixedWalls
    {
        type            calculated;
        value           nonuniform List<scalar> 
60
(
1654.41
18.4723
1.80259e+11
2.2789e+11
2.70229e+11
3.07834e+11
3.40953e+11
3.69632e+11
3.93805e+11
4.13381e+11
4.28357e+11
4.39048e+11
4.45777e+11
4.50537e+11
4.53071e+11
4.62369e+11
4.64096e+11
5.1578e+11
7.27766e+11
4.18891e+12
0.0407984
0.0597343
0.0807704
0.098786
0.122764
0.225113
0.558089
1.26732
6.32737
3.51365e+12
3.82731e+12
4.07101e+12
4.32369e+12
4.61711e+12
4.98104e+12
5.45671e+12
6.08746e+12
7.03406e+12
0.58591
0.180907
1654.41
1.30308e+11
1.76313e+11
12.8095
5.01141
2.89837
1.93893
1.39177
1.0363
0.785071
0.587263
0.438612
0.330128
0.249406
0.19228
0.149514
0.115508
0.0860528
0.05834
0.0407984
)
;
    }
    frontAndBack
    {
        type            empty;
    }
}


// ************************************************************************* //
