/*--------------------------------*- C++ -*----------------------------------*\
| =========                 |                                                 |
| \\      /  F ield         | OpenFOAM: The Open Source CFD Toolbox           |
|  \\    /   O peration     | Version:  2312                                  |
|   \\  /    A nd           | Website:  www.openfoam.com                      |
|    \\/     M anipulation  |                                                 |
\*---------------------------------------------------------------------------*/
FoamFile
{
    version     2.0;
    format      ascii;
    arch        "LSB;label=32;scalar=64";
    class       volVectorField;
    location    "1.5";
    object      norm_U_composite;
}
// * * * * * * * * * * * * * * * * * * * * * * * * * * * * * * * * * * * * * //

dimensions      [0 0 0 0 0 0 0];

internalField   nonuniform List<vector> 
400
(
(-0.000159125 0.000156004 0)
(-0.00102081 0.000521087 0)
(-0.00255645 0.000766997 0)
(-0.0043287 0.000867809 0)
(-0.00621936 0.000905729 0)
(-0.00816954 0.000927303 0)
(-0.0101535 0.0009441 0)
(-0.0121241 0.000944047 0)
(-0.0139921 0.000889253 0)
(-0.015612 0.000731343 0)
(-0.016673 0.000458229 0)
(-0.0169919 7.03912e-05 0)
(-0.0163533 -0.000545556 0)
(-0.0145692 -0.00114725 0)
(-0.0118539 -0.00164106 0)
(-0.0085574 -0.00185176 0)
(-0.00522064 -0.00170416 0)
(-0.00235552 -0.00121654 0)
(-0.00040167 -0.000500347 0)
(0.000187536 0.000112962 0)
(-0.000540814 0.00103928 0)
(-0.00203408 0.00207494 0)
(-0.00399596 0.00267533 0)
(-0.00618339 0.00296158 0)
(-0.00850626 0.00309802 0)
(-0.0109087 0.00316678 0)
(-0.013337 0.00316823 0)
(-0.0157007 0.00304735 0)
(-0.0178557 0.00270743 0)
(-0.0196007 0.00205226 0)
(-0.0206976 0.00104416 0)
(-0.0209322 -0.000297705 0)
(-0.0201186 -0.00190081 0)
(-0.018136 -0.00351418 0)
(-0.0150987 -0.00477562 0)
(-0.0113304 -0.0053071 0)
(-0.00741086 -0.00494693 0)
(-0.00399621 -0.00378318 0)
(-0.00146996 -0.00206163 0)
(-0.000160384 -0.000314575 0)
(-0.000863707 0.00260145 0)
(-0.00268361 0.00401248 0)
(-0.00474745 0.0047998 0)
(-0.00699995 0.00524913 0)
(-0.00939768 0.00550939 0)
(-0.0119015 0.00564659 0)
(-0.0144641 0.00563632 0)
(-0.0169954 0.00537609 0)
(-0.0193491 0.00471766 0)
(-0.0213337 0.00353633 0)
(-0.0227483 0.00179439 0)
(-0.0234004 -0.000460068 0)
(-0.0230403 -0.00310944 0)
(-0.0213567 -0.00588167 0)
(-0.0182465 -0.00817964 0)
(-0.0138823 -0.00930548 0)
(-0.00890037 -0.0088097 0)
(-0.00447113 -0.00684615 0)
(-0.00147659 -0.00412033 0)
(-0.000168888 -0.00127436 0)
(-0.00101371 0.00443493 0)
(-0.00299901 0.00608814 0)
(-0.00510892 0.00697335 0)
(-0.00736662 0.00754951 0)
(-0.00977019 0.00794126 0)
(-0.0123153 0.00818353 0)
(-0.0149864 0.00821799 0)
(-0.0177215 0.00789462 0)
(-0.02041 0.00702212 0)
(-0.0229215 0.00546403 0)
(-0.0251424 0.00317763 0)
(-0.0269539 0.000148041 0)
(-0.0280951 -0.00362456 0)
(-0.0279277 -0.00792031 0)
(-0.0256343 -0.0118577 0)
(-0.0207834 -0.0143375 0)
(-0.0136904 -0.014233 0)
(-0.00612893 -0.0110779 0)
(-0.000921942 -0.00630815 0)
(0.00026844 -0.00180723 0)
(-0.00104288 0.00638596 0)
(-0.00306986 0.00823982 0)
(-0.00517597 0.00918241 0)
(-0.00740914 0.00986975 0)
(-0.00980144 0.0104149 0)
(-0.0123801 0.0108233 0)
(-0.0151734 0.011001 0)
(-0.0181759 0.0107611 0)
(-0.0213584 0.00989131 0)
(-0.0247445 0.00827647 0)
(-0.0285246 0.00590015 0)
(-0.0329556 0.00267025 0)
(-0.0377859 -0.00168774 0)
(-0.0415033 -0.00746493 0)
(-0.0419232 -0.0143671 0)
(-0.0374873 -0.020463 0)
(-0.0281909 -0.0228525 0)
(-0.0155464 -0.0194545 0)
(-0.00292012 -0.0104864 0)
(0.000866368 -0.001819 0)
(-0.000999084 0.00832112 0)
(-0.00296823 0.0103666 0)
(-0.00501139 0.0113595 0)
(-0.00717486 0.0121624 0)
(-0.00951442 0.0128936 0)
(-0.0120865 0.0135402 0)
(-0.0149719 0.0139936 0)
(-0.0182552 0.0140701 0)
(-0.022058 0.0136171 0)
(-0.0267644 0.0127092 0)
(-0.0331956 0.01155 0)
(-0.0419269 0.00968292 0)
(-0.0515857 0.00512393 0)
(-0.0587704 -0.00387593 0)
(-0.0609789 -0.0162555 0)
(-0.057638 -0.0284254 0)
(-0.0483572 -0.0362147 0)
(-0.0329399 -0.0351572 0)
(-0.0134971 -0.0224338 0)
(0.000733631 -0.0042527 0)
(-0.00090553 0.0101448 0)
(-0.00273596 0.0123896 0)
(-0.00464785 0.0134397 0)
(-0.0066736 0.014364 0)
(-0.00888202 0.0153073 0)
(-0.0113509 0.0162603 0)
(-0.0142105 0.0171377 0)
(-0.0176443 0.0178413 0)
(-0.0219324 0.0184419 0)
(-0.0278099 0.0193816 0)
(-0.036495 0.0207452 0)
(-0.0479078 0.0202912 0)
(-0.0587474 0.0140364 0)
(-0.0654926 0.000622764 0)
(-0.0679268 -0.0171134 0)
(-0.0668955 -0.0350237 0)
(-0.0611741 -0.0495081 0)
(-0.0486399 -0.0552952 0)
(-0.0281405 -0.0442724 0)
(-0.00360172 -0.0122515 0)
(-0.00077337 0.0117793 0)
(-0.00239425 0.0142346 0)
(-0.00410154 0.0153478 0)
(-0.00590493 0.0163901 0)
(-0.00787218 0.0175485 0)
(-0.0100851 0.018839 0)
(-0.012695 0.0202358 0)
(-0.0159287 0.0217885 0)
(-0.0200841 0.0238386 0)
(-0.0259982 0.0270428 0)
(-0.034576 0.030651 0)
(-0.0447191 0.0304165 0)
(-0.0529663 0.0216971 0)
(-0.0573991 0.00474472 0)
(-0.058418 -0.0159545 0)
(-0.0580976 -0.0365265 0)
(-0.0573181 -0.0557386 0)
(-0.0521848 -0.0705667 0)
(-0.0374339 -0.0695453 0)
(-0.0132733 -0.0336866 0)
(-0.000611658 0.0131605 0)
(-0.00196234 0.0158303 0)
(-0.00339476 0.0170018 0)
(-0.00488935 0.0181373 0)
(-0.00649706 0.0194745 0)
(-0.00828295 0.0210658 0)
(-0.0103773 0.0229538 0)
(-0.0129685 0.0253211 0)
(-0.0162486 0.0286938 0)
(-0.0207144 0.0337338 0)
(-0.0268446 0.0385192 0)
(-0.0336264 0.0375828 0)
(-0.0382537 0.0265897 0)
(-0.0391508 0.0071428 0)
(-0.037973 -0.0145776 0)
(-0.0374437 -0.0347598 0)
(-0.0390877 -0.0538028 0)
(-0.0411711 -0.0746292 0)
(-0.0362208 -0.0893629 0)
(-0.0176737 -0.0624884 0)
(-0.000432411 0.0142381 0)
(-0.00146869 0.0171159 0)
(-0.00257046 0.0183263 0)
(-0.00368566 0.0195063 0)
(-0.00483611 0.020945 0)
(-0.00605302 0.0227284 0)
(-0.00741281 0.0249474 0)
(-0.0090071 0.0278394 0)
(-0.0108279 0.031919 0)
(-0.0129553 0.0377292 0)
(-0.0153617 0.0425979 0)
(-0.018198 0.0411922 0)
(-0.0198649 0.0286762 0)
(-0.0192071 0.0073728 0)
(-0.0180693 -0.015363 0)
(-0.0176337 -0.0347017 0)
(-0.0190657 -0.050443 0)
(-0.0234672 -0.0697162 0)
(-0.0265204 -0.0960354 0)
(-0.0162832 -0.0896562 0)
(-0.000252252 0.0149879 0)
(-0.00095308 0.0180484 0)
(-0.0016942 0.0192686 0)
(-0.00239023 0.0204266 0)
(-0.00302833 0.0218598 0)
(-0.00360004 0.0236763 0)
(-0.00411503 0.0259742 0)
(-0.00455701 0.0289565 0)
(-0.00476422 0.0329997 0)
(-0.00436997 0.03848 0)
(-0.00342444 0.0428854 0)
(-0.00212517 0.0415514 0)
(-0.00115029 0.0291682 0)
(-0.000514975 0.0078645 0)
(-0.000913161 -0.0153319 0)
(-0.00220823 -0.0344977 0)
(-0.00471885 -0.0487647 0)
(-0.00871179 -0.0637995 0)
(-0.0149205 -0.0924328 0)
(-0.011981 -0.109611 0)
(-8.85379e-05 0.0154108 0)
(-0.000466971 0.0186209 0)
(-0.000847631 0.0198072 0)
(-0.00111918 0.0208672 0)
(-0.00123766 0.0221777 0)
(-0.00116211 0.0238566 0)
(-0.000851954 0.0259759 0)
(-0.000225892 0.0286554 0)
(0.000957429 0.0320961 0)
(0.00326706 0.036414 0)
(0.00673667 0.0399468 0)
(0.0112242 0.0384042 0)
(0.0144202 0.0282565 0)
(0.0159962 0.00930643 0)
(0.0147526 -0.0125355 0)
(0.0107079 -0.0310604 0)
(0.00562387 -0.0451144 0)
(0.000458845 -0.0592143 0)
(-0.00616912 -0.086596 0)
(-0.00809616 -0.120054 0)
(3.57971e-05 0.0155402 0)
(-7.14222e-05 0.0188563 0)
(-0.000121895 0.0199533 0)
(3.66256e-06 0.0208394 0)
(0.000371577 0.0219248 0)
(0.00103654 0.0233271 0)
(0.00205578 0.0250845 0)
(0.00353886 0.0272184 0)
(0.00570382 0.02977 0)
(0.00903919 0.0326322 0)
(0.0137663 0.0347166 0)
(0.0195493 0.0328962 0)
(0.0243029 0.024609 0)
(0.0266688 0.00953355 0)
(0.0253522 -0.0086306 0)
(0.0199743 -0.0255612 0)
(0.0131367 -0.0392571 0)
(0.00619626 -0.0529341 0)
(-0.000935777 -0.0804867 0)
(-0.00636956 -0.125428 0)
(8.13357e-05 0.0154752 0)
(0.000163314 0.0188072 0)
(0.000384868 0.0197539 0)
(0.000862819 0.0203891 0)
(0.00166119 0.0211631 0)
(0.00282956 0.0221954 0)
(0.00441759 0.0234988 0)
(0.00651189 0.0250256 0)
(0.00925895 0.026679 0)
(0.0129431 0.0282269 0)
(0.0178126 0.0289012 0)
(0.0234805 0.0268338 0)
(0.0283939 0.0202123 0)
(0.0308004 0.00871648 0)
(0.0295358 -0.00552581 0)
(0.0245035 -0.019598 0)
(0.0173892 -0.0321861 0)
(0.00946602 -0.0454759 0)
(0.00179411 -0.0733332 0)
(-0.00606245 -0.128069 0)
(1.93646e-05 0.0153068 0)
(0.00014299 0.0185609 0)
(0.000569728 0.0192537 0)
(0.00134735 0.0195588 0)
(0.00252045 0.0199517 0)
(0.00411412 0.0205637 0)
(0.00615104 0.0213937 0)
(0.00866964 0.0223569 0)
(0.0117406 0.023289 0)
(0.0154613 0.0239127 0)
(0.019931 0.023667 0)
(0.0248372 0.0215561 0)
(0.0290689 0.0164729 0)
(0.0311514 0.00808085 0)
(0.03016 -0.00252571 0)
(0.0258943 -0.0138468 0)
(0.0192725 -0.0248665 0)
(0.0112011 -0.0375859 0)
(0.00350099 -0.0650402 0)
(-0.00616859 -0.129127 0)
(-0.000218299 0.0156246 0)
(-0.000180642 0.0183882 0)
(0.000353177 0.0185999 0)
(0.00138076 0.0184543 0)
(0.00288293 0.0183938 0)
(0.00483932 0.0185509 0)
(0.00723987 0.018916 0)
(0.0100838 0.0193942 0)
(0.0133698 0.0198125 0)
(0.0170767 0.0199086 0)
(0.0211251 0.0192756 0)
(0.025231 0.0173688 0)
(0.0286906 0.0136093 0)
(0.0304613 0.00767442 0)
(0.0297157 -3.90172e-05 0)
(0.0262726 -0.00878158 0)
(0.0203268 -0.0179513 0)
(0.0130082 -0.0302453 0)
(0.00612078 -0.0560313 0)
(-0.00579098 -0.130046 0)
(-0.000774135 0.0143069 0)
(-0.00130474 0.0168666 0)
(-0.00053554 0.017006 0)
(0.000853513 0.0166601 0)
(0.00273196 0.0163218 0)
(0.00505567 0.0161444 0)
(0.00780785 0.0161417 0)
(0.0109594 0.016245 0)
(0.0144621 0.0163199 0)
(0.0182329 0.0161623 0)
(0.0221077 0.0154918 0)
(0.0257972 0.0139721 0)
(0.0288053 0.0112978 0)
(0.0305107 0.00723042 0)
(0.0300371 0.00192234 0)
(0.0273146 -0.00457317 0)
(0.0216914 -0.0118771 0)
(0.0170654 -0.0244119 0)
(0.00990052 -0.047713 0)
(-0.00405015 -0.132656 0)
(-0.00183649 0.0224838 0)
(-0.00241919 0.02232 0)
(-0.00100586 0.0196712 0)
(0.000858836 0.0172412 0)
(0.00309192 0.0155641 0)
(0.00578089 0.0144551 0)
(0.0089463 0.013761 0)
(0.0124964 0.0133374 0)
(0.0163473 0.0130252 0)
(0.0203901 0.0126544 0)
(0.0244458 0.0120297 0)
(0.0282357 0.0109434 0)
(0.0313602 0.00924095 0)
(0.033237 0.00683314 0)
(0.0333307 0.00367057 0)
(0.0316765 -0.000658429 0)
(0.0260785 -0.00640481 0)
(0.026695 -0.0190535 0)
(0.0116083 -0.0378812 0)
(0.00244545 -0.133426 0)
(-0.0031068 0.00834337 0)
(-0.00467961 0.00491474 0)
(-0.000307621 0.00530567 0)
(0.00451175 0.00693631 0)
(0.00948551 0.00741671 0)
(0.0144844 0.00728589 0)
(0.0193756 0.00710918 0)
(0.024183 0.00701378 0)
(0.028952 0.00695151 0)
(0.0336919 0.00685271 0)
(0.0383276 0.0066511 0)
(0.0426924 0.00626226 0)
(0.0465275 0.00561691 0)
(0.0495927 0.00462452 0)
(0.0512761 0.00327298 0)
(0.0523824 0.00100156 0)
(0.0476081 -0.00187471 0)
(0.0527784 -0.0105991 0)
(0.0148021 -0.0208583 0)
(0.035441 -0.112612 0)
(0.0203219 0.0463931 0)
(0.0309492 0.0349874 0)
(0.0436669 0.0220106 0)
(0.054634 0.0146745 0)
(0.0631546 0.0108088 0)
(0.0703406 0.00852982 0)
(0.0769095 0.00702211 0)
(0.0830665 0.00594495 0)
(0.0888705 0.00513331 0)
(0.0943754 0.00450675 0)
(0.0996001 0.00399384 0)
(0.104507 0.00355421 0)
(0.108972 0.00315448 0)
(0.112928 0.00275938 0)
(0.115761 0.00232225 0)
(0.118592 0.00169682 0)
(0.115164 0.000993641 0)
(0.125591 -0.00156819 0)
(0.0622609 0.00180341 0)
(0.188935 -0.0489965 0)
)
;

boundaryField
{
    movingWall
    {
        type            calculated;
        value           uniform (0.5 0 0);
    }
    fixedWalls
    {
        type            calculated;
        value           uniform (0 0 0);
    }
    frontAndBack
    {
        type            empty;
    }
}


// ************************************************************************* //
