/*--------------------------------*- C++ -*----------------------------------*\
| =========                 |                                                 |
| \\      /  F ield         | OpenFOAM: The Open Source CFD Toolbox           |
|  \\    /   O peration     | Version:  2312                                  |
|   \\  /    A nd           | Website:  www.openfoam.com                      |
|    \\/     M anipulation  |                                                 |
\*---------------------------------------------------------------------------*/
FoamFile
{
    version     2.0;
    format      ascii;
    arch        "LSB;label=32;scalar=64";
    class       volVectorField;
    location    "1.5";
    object      norm_U_Lp;
}
// * * * * * * * * * * * * * * * * * * * * * * * * * * * * * * * * * * * * * //

dimensions      [0 0 0 0 0 0 0];

internalField   nonuniform List<vector> 
400
(
(-0.714076 0.700068 0)
(-0.890667 0.454656 0)
(-0.95782 0.28737 0)
(-0.98049 0.196567 0)
(-0.989562 0.14411 0)
(-0.99362 0.112783 0)
(-0.995705 0.0925831 0)
(-0.996982 0.0776306 0)
(-0.997987 0.0634261 0)
(-0.998905 0.0467936 0)
(-0.999623 0.0274728 0)
(-0.999991 0.0041426 0)
(-0.999444 -0.0333421 0)
(-0.996914 -0.0785018 0)
(-0.990553 -0.137133 0)
(-0.977378 -0.211498 0)
(-0.950635 -0.310313 0)
(-0.888498 -0.45888 0)
(-0.626017 -0.779809 0)
(0.856604 0.515974 0)
(-0.461615 0.88708 0)
(-0.700041 0.714103 0)
(-0.830958 0.556335 0)
(-0.90189 0.431966 0)
(-0.939622 0.342214 0)
(-0.960352 0.27879 0)
(-0.972925 0.231119 0)
(-0.98168 0.190535 0)
(-0.988699 0.149915 0)
(-0.994563 0.104134 0)
(-0.99873 0.0503845 0)
(-0.999899 -0.0142209 0)
(-0.995566 -0.0940615 0)
(-0.981739 -0.19023 0)
(-0.953445 -0.301568 0)
(-0.905583 -0.424169 0)
(-0.831721 -0.555194 0)
(-0.726198 -0.687486 0)
(-0.580548 -0.814226 0)
(-0.454215 -0.890892 0)
(-0.315097 0.949059 0)
(-0.555936 0.831225 0)
(-0.703219 0.710973 0)
(-0.800046 0.599939 0)
(-0.862682 0.505747 0)
(-0.903473 0.428646 0)
(-0.931757 0.363083 0)
(-0.953436 0.301596 0)
(-0.971539 0.236879 0)
(-0.986538 0.163531 0)
(-0.996903 0.0786357 0)
(-0.999807 -0.0196569 0)
(-0.991016 -0.133744 0)
(-0.964106 -0.265516 0)
(-0.912506 -0.409063 0)
(-0.83065 -0.556795 0)
(-0.710717 -0.703478 0)
(-0.546804 -0.837261 0)
(-0.337357 -0.941377 0)
(-0.13138 -0.991332 0)
(-0.222828 0.974858 0)
(-0.441895 0.897067 0)
(-0.590997 0.806674 0)
(-0.698384 0.715723 0)
(-0.775998 0.630735 0)
(-0.832881 0.553452 0)
(-0.876821 0.480816 0)
(-0.913459 0.406931 0)
(-0.945599 0.325336 0)
(-0.972744 0.231883 0)
(-0.992108 0.125388 0)
(-0.999985 0.0054923 0)
(-0.991781 -0.12795 0)
(-0.962059 -0.27284 0)
(-0.907602 -0.419832 0)
(-0.823136 -0.567845 0)
(-0.693236 -0.720711 0)
(-0.484107 -0.875009 0)
(-0.144615 -0.989488 0)
(0.146925 -0.989148 0)
(-0.161173 0.986926 0)
(-0.349121 0.937078 0)
(-0.491044 0.871135 0)
(-0.600354 0.799734 0)
(-0.685334 0.728229 0)
(-0.752858 0.658183 0)
(-0.809603 0.586977 0)
(-0.860494 0.509461 0)
(-0.907416 0.420233 0)
(-0.948357 0.317204 0)
(-0.979271 0.202556 0)
(-0.996733 0.0807612 0)
(-0.999004 -0.0446213 0)
(-0.984207 -0.177023 0)
(-0.945992 -0.324191 0)
(-0.877744 -0.47913 0)
(-0.776823 -0.629719 0)
(-0.624273 -0.781207 0)
(-0.26826 -0.963346 0)
(0.430004 -0.902827 0)
(-0.11921 0.992869 0)
(-0.275265 0.961368 0)
(-0.403631 0.914922 0)
(-0.508099 0.861299 0)
(-0.593761 0.804641 0)
(-0.665924 0.74602 0)
(-0.730573 0.682835 0)
(-0.792043 0.610465 0)
(-0.850919 0.525297 0)
(-0.903329 0.428949 0)
(-0.944464 0.328615 0)
(-0.974353 0.225025 0)
(-0.995103 0.0988422 0)
(-0.997832 -0.0658075 0)
(-0.966257 -0.25758 0)
(-0.896864 -0.442307 0)
(-0.800422 -0.599437 0)
(-0.683721 -0.729744 0)
(-0.515531 -0.856871 0)
(0.169998 -0.985444 0)
(-0.0889074 0.99604 0)
(-0.215632 0.976475 0)
(-0.326837 0.945081 0)
(-0.421349 0.906899 0)
(-0.501877 0.864939 0)
(-0.572403 0.819973 0)
(-0.638304 0.769785 0)
(-0.703171 0.711021 0)
(-0.765384 0.643574 0)
(-0.820412 0.571773 0)
(-0.86936 0.494179 0)
(-0.920812 0.390007 0)
(-0.972623 0.232388 0)
(-0.999955 0.00950849 0)
(-0.969698 -0.244305 0)
(-0.885923 -0.463833 0)
(-0.77733 -0.629093 0)
(-0.660476 -0.750847 0)
(-0.536429 -0.843945 0)
(-0.282046 -0.959401 0)
(-0.0655139 0.997852 0)
(-0.165869 0.986148 0)
(-0.258179 0.966097 0)
(-0.338949 0.940805 0)
(-0.409299 0.9124 0)
(-0.47196 0.88162 0)
(-0.531433 0.8471 0)
(-0.590171 0.807279 0)
(-0.644314 0.764761 0)
(-0.693046 0.720894 0)
(-0.748303 0.663357 0)
(-0.826862 0.562405 0)
(-0.925369 0.379068 0)
(-0.996601 0.082381 0)
(-0.96467 -0.26346 0)
(-0.846584 -0.532255 0)
(-0.716916 -0.69716 0)
(-0.594589 -0.80403 0)
(-0.473966 -0.880543 0)
(-0.366593 -0.930381 0)
(-0.0464266 0.998922 0)
(-0.123019 0.992404 0)
(-0.195806 0.980643 0)
(-0.260283 0.965532 0)
(-0.316471 0.948602 0)
(-0.365924 0.930645 0)
(-0.411951 0.911206 0)
(-0.455854 0.890055 0)
(-0.492754 0.870169 0)
(-0.523276 0.852163 0)
(-0.571762 0.820419 0)
(-0.666792 0.745244 0)
(-0.821122 0.570753 0)
(-0.983762 0.17948 0)
(-0.933571 -0.358392 0)
(-0.732885 -0.680353 0)
(-0.587762 -0.809034 0)
(-0.483045 -0.875596 0)
(-0.375639 -0.926766 0)
(-0.272156 -0.962253 0)
(-0.0303559 0.999539 0)
(-0.0854945 0.996339 0)
(-0.138901 0.990306 0)
(-0.185662 0.982614 0)
(-0.224976 0.974364 0)
(-0.257349 0.966318 0)
(-0.28483 0.958578 0)
(-0.307827 0.951442 0)
(-0.321249 0.946995 0)
(-0.324763 0.945795 0)
(-0.339238 0.940701 0)
(-0.404104 0.914713 0)
(-0.569446 0.822029 0)
(-0.933582 0.358363 0)
(-0.761855 -0.647748 0)
(-0.453018 -0.891502 0)
(-0.353554 -0.935414 0)
(-0.319021 -0.947748 0)
(-0.266189 -0.963921 0)
(-0.178695 -0.983904 0)
(-0.016828 0.999858 0)
(-0.0527333 0.998609 0)
(-0.0875872 0.996157 0)
(-0.116222 0.993223 0)
(-0.137223 0.99054 0)
(-0.150325 0.988637 0)
(-0.156476 0.987682 0)
(-0.155461 0.987842 0)
(-0.14289 0.989739 0)
(-0.112839 0.993613 0)
(-0.0795975 0.996827 0)
(-0.0510789 0.998695 0)
(-0.0394059 0.999223 0)
(-0.0653411 0.997863 0)
(-0.0594541 -0.998231 0)
(-0.0638803 -0.997958 0)
(-0.0963178 -0.995351 0)
(-0.135294 -0.990806 0)
(-0.159357 -0.987221 0)
(-0.108658 -0.994079 0)
(-0.00574511 0.999983 0)
(-0.0250699 0.999686 0)
(-0.0427549 0.999086 0)
(-0.0535565 0.998565 0)
(-0.0557196 0.998446 0)
(-0.0486547 0.998816 0)
(-0.0327802 0.999463 0)
(-0.00788281 0.999969 0)
(0.0298168 0.999555 0)
(0.0893611 0.995999 0)
(0.166293 0.986076 0)
(0.280529 0.959846 0)
(0.454561 0.890716 0)
(0.864359 0.502875 0)
(0.762047 -0.647522 0)
(0.325921 -0.945397 0)
(0.123701 -0.99232 0)
(0.00774867 -0.99997 0)
(-0.0710601 -0.997472 0)
(-0.067285 -0.997734 0)
(0.0023035 0.999997 0)
(-0.00378769 0.999993 0)
(-0.00610888 0.999981 0)
(0.000175752 1 0)
(0.0169454 0.999856 0)
(0.0443912 0.999014 0)
(0.0816802 0.996659 0)
(0.128932 0.991653 0)
(0.188173 0.982136 0)
(0.26695 0.963711 0)
(0.368612 0.929583 0)
(0.510871 0.859657 0)
(0.702668 0.711517 0)
(0.941641 0.336618 0)
(0.946649 -0.322266 0)
(0.615732 -0.787956 0)
(0.317335 -0.948313 0)
(0.116262 -0.993219 0)
(-0.0116257 -0.999932 0)
(-0.0507172 -0.998713 0)
(0.00525579 0.999986 0)
(0.00868325 0.999962 0)
(0.0194794 0.99981 0)
(0.0422798 0.999106 0)
(0.078254 0.996933 0)
(0.126461 0.991972 0)
(0.184756 0.982784 0)
(0.251823 0.967773 0)
(0.327867 0.944724 0)
(0.416808 0.908995 0)
(0.524679 0.8513 0)
(0.658518 0.752565 0)
(0.81467 0.579925 0)
(0.962211 0.272305 0)
(0.982945 -0.183898 0)
(0.780945 -0.6246 0)
(0.475332 -0.879806 0)
(0.203787 -0.979015 0)
(0.0244579 -0.999701 0)
(-0.0472843 -0.998881 0)
(0.0012651 0.999999 0)
(0.00770361 0.99997 0)
(0.0295777 0.999562 0)
(0.0687242 0.997636 0)
(0.125332 0.992115 0)
(0.19618 0.980568 0)
(0.276322 0.961065 0)
(0.361551 0.932352 0)
(0.450158 0.892949 0)
(0.542964 0.839756 0)
(0.644152 0.764897 0)
(0.75523 0.65546 0)
(0.870016 0.493024 0)
(0.967962 0.251095 0)
(0.996512 -0.0834517 0)
(0.881836 -0.471555 0)
(0.61259 -0.790401 0)
(0.2856 -0.958349 0)
(0.0537503 -0.998554 0)
(-0.0477172 -0.998861 0)
(-0.0139701 0.999902 0)
(-0.00982335 0.999952 0)
(0.0189848 0.99982 0)
(0.0746123 0.997213 0)
(0.154843 0.987939 0)
(0.25242 0.967618 0)
(0.35745 0.933932 0)
(0.461312 0.887238 0)
(0.559368 0.82892 0)
(0.65106 0.759026 0)
(0.738704 0.67403 0)
(0.823698 0.567028 0)
(0.903506 0.428575 0)
(0.969698 0.244306 0)
(0.999999 -0.00131301 0)
(0.948423 -0.317009 0)
(0.749548 -0.66195 0)
(0.395098 -0.918639 0)
(0.108593 -0.994086 0)
(-0.0444861 -0.99901 0)
(-0.0540301 0.998539 0)
(-0.077126 0.997021 0)
(-0.0314756 0.999505 0)
(0.051164 0.99869 0)
(0.165085 0.986279 0)
(0.298842 0.954303 0)
(0.435441 0.900217 0)
(0.559262 0.828991 0)
(0.663223 0.748422 0)
(0.748322 0.663336 0)
(0.818947 0.57387 0)
(0.879312 0.476246 0)
(0.930955 0.365134 0)
(0.97305 0.230593 0)
(0.997958 0.0638682 0)
(0.986272 -0.165127 0)
(0.877122 -0.480268 0)
(0.572944 -0.819595 0)
(0.203174 -0.979143 0)
(-0.030517 -0.999534 0)
(-0.0814094 0.996681 0)
(-0.107755 0.994177 0)
(-0.051067 0.998695 0)
(0.0497514 0.998762 0)
(0.194849 0.980833 0)
(0.371327 0.928502 0)
(0.545058 0.838398 0)
(0.683724 0.729741 0)
(0.782095 0.623159 0)
(0.84967 0.527315 0)
(0.897245 0.441532 0)
(0.932418 0.361382 0)
(0.959222 0.282655 0)
(0.979514 0.201377 0)
(0.993991 0.109464 0)
(0.999784 -0.0207815 0)
(0.97114 -0.238509 0)
(0.813941 -0.580947 0)
(0.292991 -0.956115 0)
(0.018325 -0.999832 0)
(-0.34896 0.937138 0)
(-0.689571 0.724218 0)
(-0.0578823 0.998323 0)
(0.545256 0.83827 0)
(0.787776 0.615961 0)
(0.893347 0.449368 0)
(0.938801 0.344459 0)
(0.960422 0.27855 0)
(0.972364 0.233469 0)
(0.979936 0.199313 0)
(0.985275 0.170978 0)
(0.989413 0.14513 0)
(0.992792 0.119852 0)
(0.99568 0.0928471 0)
(0.997969 0.0637008 0)
(0.999817 0.0191167 0)
(0.999226 -0.0393474 0)
(0.980425 -0.196893 0)
(0.578732 -0.815518 0)
(0.300202 -0.953876 0)
(0.401232 0.915977 0)
(0.662559 0.749009 0)
(0.892974 0.450109 0)
(0.965769 0.259403 0)
(0.985668 0.168696 0)
(0.992728 0.120383 0)
(0.995858 0.0909254 0)
(0.997449 0.0713859 0)
(0.998336 0.0576656 0)
(0.998862 0.047699 0)
(0.999197 0.0400665 0)
(0.999422 0.0339897 0)
(0.999581 0.0289354 0)
(0.999702 0.0244276 0)
(0.999799 0.0200568 0)
(0.999898 0.0143065 0)
(0.999963 0.00862772 0)
(0.999922 -0.0124855 0)
(0.999581 0.0289533 0)
(0.96798 -0.251026 0)
)
;

boundaryField
{
    movingWall
    {
        type            calculated;
        value           uniform (1 0 0);
    }
    fixedWalls
    {
        type            calculated;
        value           uniform (0 0 0);
    }
    frontAndBack
    {
        type            empty;
    }
}


// ************************************************************************* //
