/*--------------------------------*- C++ -*----------------------------------*\
| =========                 |                                                 |
| \\      /  F ield         | OpenFOAM: The Open Source CFD Toolbox           |
|  \\    /   O peration     | Version:  2312                                  |
|   \\  /    A nd           | Website:  www.openfoam.com                      |
|    \\/     M anipulation  |                                                 |
\*---------------------------------------------------------------------------*/
FoamFile
{
    version     2.0;
    format      ascii;
    arch        "LSB;label=32;scalar=64";
    class       volScalarField;
    location    "1.5";
    object      P_A;
}
// * * * * * * * * * * * * * * * * * * * * * * * * * * * * * * * * * * * * * //

dimensions      [1 -1 -3 0 0 0 0];

internalField   nonuniform List<scalar> 
400
(
1.17451e-27
5.78141e-27
1.93502e-26
4.4221e-26
8.25128e-26
1.37678e-25
2.14465e-25
3.16137e-25
4.39176e-25
5.66512e-25
6.37834e-25
6.58793e-25
6.21076e-25
4.97468e-25
3.45364e-25
1.94129e-25
8.55728e-26
2.75935e-26
5.55891e-27
1.24315e-27
5.24749e-27
1.96045e-26
4.77723e-26
8.21991e-26
1.17889e-25
1.544e-25
1.94077e-25
2.39956e-25
2.93243e-25
3.50675e-25
4.10252e-25
4.77199e-25
5.45063e-25
5.76282e-25
5.50668e-25
4.08024e-25
2.2275e-25
8.57594e-26
2.18504e-26
5.39848e-27
2.11525e-26
5.79678e-26
1.20157e-25
1.90861e-25
2.57869e-25
3.18805e-25
3.79225e-25
4.46181e-25
5.28512e-25
6.40279e-25
8.03431e-25
1.04578e-24
1.37525e-24
1.6859e-24
1.77935e-24
1.44365e-24
7.90034e-25
2.73294e-25
6.16101e-26
1.67937e-26
5.397e-26
1.18203e-25
2.21401e-25
3.36102e-25
4.47058e-25
5.54251e-25
6.68423e-25
8.08304e-25
1.00743e-24
1.3317e-24
1.90398e-24
2.90221e-24
4.43168e-24
6.24192e-24
7.481e-24
6.96583e-24
4.25401e-24
1.33052e-24
1.75912e-25
3.33509e-26
1.06598e-25
1.924e-25
3.39959e-25
5.09138e-25
6.83505e-25
8.69981e-25
1.09634e-24
1.42065e-24
1.96577e-24
3.00616e-24
5.10736e-24
9.07802e-24
1.51663e-23
2.32429e-23
3.20846e-23
3.70266e-23
3.15906e-23
1.32747e-23
1.18668e-24
6.52765e-26
1.79364e-25
2.7148e-25
4.63673e-25
6.93881e-25
9.51971e-25
1.26377e-24
1.7041e-24
2.44241e-24
3.89263e-24
7.04809e-24
1.36519e-23
2.34389e-23
3.17801e-23
3.80044e-23
4.91429e-23
6.80509e-23
8.81489e-23
9.44558e-23
2.2948e-23
5.34696e-25
2.6975e-25
3.47872e-25
5.79946e-25
8.73861e-25
1.23355e-24
1.72167e-24
2.50927e-24
4.02437e-24
7.39799e-24
1.46926e-23
2.41209e-23
2.84244e-23
2.79719e-23
2.88534e-23
3.55165e-23
5.56545e-23
1.04037e-22
1.78048e-22
2.18233e-22
2.3717e-23
3.72438e-25
4.15021e-25
6.7748e-25
1.03022e-24
1.49742e-24
2.1942e-24
3.43076e-24
5.9963e-24
1.17613e-23
2.09208e-23
2.67591e-23
2.23187e-23
1.56098e-23
1.3041e-23
1.34504e-23
2.5593e-23
6.38127e-23
1.9749e-22
4.46596e-22
4.19821e-22
4.79685e-25
4.68194e-25
7.47895e-25
1.14512e-24
1.70511e-24
2.59621e-24
4.26186e-24
7.78382e-24
1.48538e-23
2.34482e-23
2.35798e-23
1.34004e-23
7.01684e-24
5.18431e-24
4.96001e-24
9.82847e-24
3.13905e-23
1.20707e-22
5.68867e-22
1.70974e-21
5.82318e-25
5.05154e-25
7.87642e-25
1.20753e-24
1.8246e-24
2.8424e-24
4.77138e-24
8.75448e-24
1.59015e-23
2.30257e-23
1.96462e-23
8.76501e-24
3.92867e-24
2.69803e-24
2.5776e-24
5.30866e-24
1.94328e-23
9.27159e-23
5.44151e-22
3.0368e-21
6.71392e-25
5.25437e-25
7.9648e-25
1.21327e-24
1.84056e-24
2.884e-24
4.83946e-24
8.74335e-24
1.56138e-23
2.21286e-23
1.8775e-23
8.4116e-24
3.26736e-24
1.99649e-24
2.063e-24
4.26895e-24
1.54565e-23
7.38037e-23
5.10464e-22
4.2801e-21
7.4108e-25
5.33337e-25
7.8823e-25
1.18949e-24
1.7953e-24
2.79855e-24
4.63435e-24
8.14356e-24
1.41965e-23
2.06393e-23
1.93722e-23
1.01398e-23
3.99313e-24
2.35832e-24
2.57188e-24
4.9864e-24
1.73832e-23
7.21369e-23
5.31238e-22
5.48249e-21
7.87805e-25
5.32549e-25
7.65657e-25
1.13846e-24
1.69957e-24
2.61428e-24
4.22809e-24
7.1684e-24
1.21927e-23
1.82736e-23
2.02109e-23
1.47586e-23
7.02427e-24
4.0556e-24
4.79409e-24
9.18072e-24
2.46828e-23
7.55163e-23
5.79763e-22
6.97538e-21
8.22395e-25
5.25887e-25
7.38063e-25
1.08066e-24
1.58884e-24
2.40014e-24
3.77562e-24
6.15946e-24
1.01074e-23
1.54795e-23
1.92253e-23
1.82502e-23
1.32312e-23
9.08995e-24
1.00159e-23
1.48603e-23
2.79008e-23
7.50533e-23
6.26833e-22
9.07136e-21
8.41485e-25
5.16493e-25
7.16327e-25
1.04092e-24
1.51125e-24
2.23845e-24
3.41293e-24
5.33499e-24
8.37552e-24
1.26066e-23
1.6474e-23
1.78651e-23
1.64501e-23
1.3574e-23
1.40759e-23
1.71523e-23
2.70772e-23
5.9265e-23
6.59083e-22
1.22866e-20
9.13504e-25
5.18876e-25
7.17829e-25
1.04164e-24
1.49848e-24
2.17948e-24
3.23373e-24
4.87317e-24
7.27113e-24
1.04391e-23
1.37464e-23
1.53665e-23
1.52845e-23
1.38719e-23
1.3716e-23
1.54691e-23
2.08553e-23
4.10964e-23
6.76731e-22
1.76956e-20
9.27724e-25
5.53298e-25
7.99155e-25
1.17483e-24
1.68768e-24
2.4084e-24
3.45084e-24
4.9606e-24
7.06369e-24
9.71977e-24
1.25255e-23
1.43386e-23
1.46269e-23
1.37766e-23
1.29779e-23
1.4022e-23
1.82161e-23
3.97162e-23
8.78567e-22
2.74086e-20
1.41569e-24
9.30871e-25
1.78613e-24
2.81432e-24
4.08572e-24
5.75655e-24
7.96961e-24
1.08725e-23
1.45434e-23
1.88017e-23
2.3124e-23
2.6492e-23
2.7399e-23
2.74238e-23
2.67416e-23
2.74695e-23
3.46548e-23
9.84835e-23
1.72111e-21
4.88612e-20
5.60777e-24
1.7952e-23
5.66292e-23
1.04183e-22
1.52987e-22
2.05089e-22
2.59062e-22
3.13794e-22
3.66568e-22
4.19842e-22
4.70977e-22
5.23228e-22
5.6597e-22
6.17533e-22
6.74374e-22
8.03412e-22
1.04437e-21
2.81966e-21
8.70692e-21
1.07585e-19
6.14571e-21
3.56073e-20
9.82618e-20
1.5967e-19
2.05989e-19
2.3863e-19
2.58828e-19
2.70111e-19
2.71814e-19
2.70044e-19
2.65656e-19
2.58655e-19
2.52521e-19
2.46434e-19
2.45331e-19
2.47801e-19
2.59668e-19
2.63705e-19
3.31033e-19
2.26165e-19
)
;

boundaryField
{
    movingWall
    {
        type            calculated;
        value           nonuniform List<scalar> 
20
(
6.14571e-21
3.56073e-20
9.82618e-20
1.5967e-19
2.05989e-19
2.3863e-19
2.58828e-19
2.70111e-19
2.71814e-19
2.70044e-19
2.65656e-19
2.58655e-19
2.52521e-19
2.46434e-19
2.45331e-19
2.47801e-19
2.59668e-19
2.63705e-19
3.31033e-19
2.26165e-19
)
;
    }
    fixedWalls
    {
        type            calculated;
        value           nonuniform List<scalar> 
60
(
1.17451e-27
5.24749e-27
2.11525e-26
5.397e-26
1.06598e-25
1.79364e-25
2.6975e-25
3.72438e-25
4.79685e-25
5.82318e-25
6.71392e-25
7.4108e-25
7.87805e-25
8.22395e-25
8.41485e-25
9.13504e-25
9.27724e-25
1.41569e-24
5.60777e-24
6.14571e-21
1.24315e-27
5.39848e-27
1.67937e-26
3.33509e-26
6.52765e-26
5.34696e-25
2.3717e-23
4.19821e-22
1.70974e-21
3.0368e-21
4.2801e-21
5.48249e-21
6.97538e-21
9.07136e-21
1.22866e-20
1.76956e-20
2.74086e-20
4.88612e-20
1.07585e-19
2.26165e-19
1.17451e-27
5.78141e-27
1.93502e-26
4.4221e-26
8.25128e-26
1.37678e-25
2.14465e-25
3.16137e-25
4.39176e-25
5.66512e-25
6.37834e-25
6.58793e-25
6.21076e-25
4.97468e-25
3.45364e-25
1.94129e-25
8.55728e-26
2.75935e-26
5.55891e-27
1.24315e-27
)
;
    }
    frontAndBack
    {
        type            empty;
    }
}


// ************************************************************************* //
