/*--------------------------------*- C++ -*----------------------------------*\
| =========                 |                                                 |
| \\      /  F ield         | OpenFOAM: The Open Source CFD Toolbox           |
|  \\    /   O peration     | Version:  2312                                  |
|   \\  /    A nd           | Website:  www.openfoam.com                      |
|    \\/     M anipulation  |                                                 |
\*---------------------------------------------------------------------------*/
FoamFile
{
    version     2.0;
    format      ascii;
    arch        "LSB;label=32;scalar=64";
    class       surfaceScalarField;
    location    "1.5";
    object      PecletNoField;
}
// * * * * * * * * * * * * * * * * * * * * * * * * * * * * * * * * * * * * * //

dimensions      [0 0 0 0 0 0 0];

oriented        oriented;

internalField   nonuniform List<scalar> 
760
(
0.35061
0.35148
1.05786
0.551688
1.92474
0.642128
2.83244
0.673589
3.73435
0.68173
4.61548
0.681875
5.46467
0.670339
6.26011
0.632567
6.95729
0.547662
7.49732
0.401409
7.79635
0.204262
7.75534
0.0290029
7.28501
0.310864
6.36695
0.594446
5.05812
0.83067
3.52929
0.978694
2.01131
0.988419
0.765909
0.841981
0.0532515
0.559603
0.0533061
0.552225
1.05729
0.971473
0.872888
1.45578
0.847212
1.99917
0.850817
2.57534
0.850757
3.15135
0.841969
3.67201
0.814239
4.06202
0.748941
4.25159
0.628605
4.23168
0.448285
4.06127
0.218149
3.85201
0.0572834
3.57119
0.399565
3.12495
0.794717
2.578
1.14029
1.96912
1.41425
1.33703
1.48775
0.801916
1.32149
0.342259
1.08424
0.49488
0.582954
1.94031
0.784468
1.12909
1.03491
0.959179
1.33371
0.920996
1.64937
0.90366
1.96118
0.884956
2.24715
0.850383
2.48303
0.78336
2.65879
0.671541
2.79283
0.509292
2.91978
0.286505
3.08184
0.0249568
3.235
0.499163
3.15725
1.16042
2.81381
1.81854
2.24744
2.39518
1.47095
2.62246
0.792426
2.31267
0.315508
1.77579
0.899887
0.574643
2.87231
0.691478
1.40697
0.845582
1.09015
1.04145
1.01047
1.25688
0.979172
1.481
0.958155
1.70584
0.928492
1.93515
0.877905
2.19733
0.79925
2.54901
0.68435
3.05479
0.501301
3.73323
0.169435
4.4978
0.4667
4.93378
1.5339
4.70942
2.79097
3.88723
3.88932
2.51039
4.49819
1.04549
4.19329
0.119121
3.01728
1.01683
0.540267
3.77615
0.617708
1.6858
0.728817
1.23029
0.880876
1.11409
1.05404
1.074
1.24491
1.05746
1.46287
1.04665
1.74163
1.03778
2.1511
1.03484
2.80789
1.0408
3.86966
1.02839
5.43884
0.878044
7.29235
0.266633
8.54472
1.24769
8.50007
3.3682
7.32505
5.46626
5.37058
6.9473
2.85357
7.05045
0.399148
5.55774
1.37293
0.492589
4.60966
0.54989
1.96161
0.635911
1.37361
0.760888
1.22136
0.91036
1.17527
1.0898
1.1709
1.32638
1.19627
1.68531
1.26329
2.2962
1.40261
3.38839
1.67753
5.3125
2.17894
8.18574
2.573
11.025
1.9592
12.619
0.291367
12.8858
3.5752
11.9273
7.02478
9.49811
9.79224
6.16257
10.8759
2.16219
9.16568
3.43819
0.43661
5.34658
0.482281
2.23201
0.550423
1.51501
0.654682
1.3277
0.785977
1.27761
0.957499
1.29121
1.21123
1.36578
1.63719
1.53661
2.42204
1.87879
4.00666
2.63273
6.85602
3.8877
10.2868
4.83441
13.1234
3.99427
14.8561
0.765053
15.3963
3.50713
14.7469
7.8266
12.9987
11.9341
9.35449
14.9038
4.31989
14.0429
7.26507
0.372543
5.96703
0.410892
2.49181
0.464274
1.65017
0.549228
1.42822
0.660878
1.37398
0.816288
1.40604
1.06202
1.53043
1.49391
1.804
2.36804
2.36986
4.08809
3.66603
6.73358
5.37322
9.93179
6.86041
12.3183
5.5718
13.259
1.45922
13.3021
3.18897
13.2278
7.19237
13.0355
11.4599
11.0944
16.3734
6.32477
19.1662
12.4234
0.300511
6.45589
0.33371
2.73432
0.373775
1.77469
0.438553
1.51753
0.525462
1.45569
0.650113
1.49897
0.851527
1.65594
1.21543
1.99132
1.94397
2.70991
3.26414
4.26913
5.27641
6.21466
7.51664
8.28121
8.30673
6.22615
8.11046
1.5304
7.48777
3.02476
7.31275
6.20764
8.25837
9.18745
9.21358
14.7367
6.64299
21.8615
17.9153
0.222339
6.80484
0.251135
2.9531
0.278752
1.88536
0.322017
1.5908
0.378904
1.51502
0.459147
1.55578
0.585044
1.71809
0.80572
2.0636
1.21952
2.79156
1.89961
4.27389
2.8886
6.1769
3.88762
8.21406
4.02877
6.324
3.78227
1.55333
3.32694
2.99254
3.0468
5.74978
3.65396
7.53374
5.42344
11.9082
5.44025
21.4206
22.4848
0.142088
7.0146
0.166336
3.13852
0.182232
1.97406
0.203563
1.64301
0.228076
1.54787
0.258929
1.57406
0.302913
1.71742
0.368693
2.02566
0.452471
2.63364
0.489091
3.79024
0.413322
5.3397
0.230426
6.94597
0.117322
5.89623
0.194805
1.63462
0.353919
2.72825
0.568484
5.18581
0.971619
6.27325
2.14292
9.58713
3.42764
19.1965
25.2733
0.0658903
7.09802
0.0841167
3.27948
0.0888003
2.03614
0.0893186
1.6698
0.0831138
1.54972
0.0682118
1.55078
0.0386805
1.65481
0.0242538
1.8862
0.170341
2.3164
0.5289
3.08788
1.27071
4.13655
2.45801
4.93306
3.2588
4.67986
2.95698
1.63276
2.00009
1.95518
1.06444
4.07525
0.416376
4.95306
0.423149
7.94271
1.7668
16.8556
26.4786
0.00382709
7.08158
0.0131706
3.37758
0.00608424
2.07264
0.0134008
1.6709
0.0467467
1.5217
0.098706
1.49047
0.179896
1.54601
0.315214
1.69371
0.565792
1.95964
1.05518
2.40051
1.88548
2.99609
3.15546
3.24165
4.42953
2.9937
4.37461
1.28278
3.20919
1.03932
1.92847
2.71933
1.1637
3.83004
0.438657
6.69084
0.832526
15.129
26.6908
0.0304761
7.01446
0.0355873
3.42738
0.0565295
2.08286
0.0947826
1.6541
0.151874
1.47703
0.231948
1.41364
0.345333
1.42159
0.513919
1.49327
0.781839
1.63362
1.23586
1.84629
1.92327
2.1294
2.78295
2.19925
3.62157
1.87129
3.7629
0.940879
3.06004
0.443168
2.17801
1.72806
1.55223
2.93471
0.878569
5.77256
0.437736
13.8971
26.3945
0.0195007
6.95866
0.0469763
3.43569
0.0892454
2.07547
0.149657
1.63191
0.230042
1.43596
0.33309
1.34834
0.465605
1.3213
0.643191
1.33981
0.892826
1.39374
1.26461
1.47394
1.7918
1.565
2.3808
1.56855
2.89065
1.31133
3.05764
0.750226
2.75571
0.117283
2.2253
1.10085
1.78458
2.27821
1.20836
5.24854
0.293337
12.579
25.8125
0.0584872
7.03825
0.0111414
3.46396
0.083203
2.13608
0.174004
1.69457
0.285099
1.48874
0.418597
1.38221
0.578506
1.32823
0.771013
1.3089
1.00762
1.30911
1.30898
1.31919
1.70204
1.31747
2.14537
1.27507
2.53078
1.08335
2.72507
0.700413
2.63863
0.100995
2.41106
0.692013
2.22992
1.82945
1.79271
4.998
0.0120503
11.1149
24.776
0.30312
7.43056
0.143814
3.87087
0.0166006
2.61691
0.177818
2.17131
0.359774
1.92748
0.564323
1.77225
0.791195
1.66421
1.04285
1.58744
1.32629
1.53129
1.65005
1.48343
2.02652
1.42388
2.43504
1.33361
2.80529
1.15687
3.07942
0.842296
3.16283
0.364887
3.10073
0.373576
3.09936
1.52628
2.78138
4.98989
0.662854
9.31798
22.9313
0.730061
7.93396
0.367618
5.18819
0.010279
3.99095
0.362356
3.4745
0.79249
3.0686
1.27446
2.7352
1.77667
2.47583
2.27792
2.27315
2.77664
2.10731
3.28411
1.96281
3.82209
1.81987
4.41739
1.66061
5.01496
1.46826
5.5394
1.18093
5.93142
0.780785
6.16952
0.0662774
6.1531
0.967334
4.65528
3.8544
1.57498
6.62167
20.0172
1.62679
6.46049
1.02444
3.93952
0.69239
2.43995
2.44062
1.92445
4.02053
1.64184
5.44332
1.43036
6.73837
1.28254
7.9283
1.18152
9.02995
1.10549
10.0575
1.03921
10.9986
0.972613
11.8587
0.894255
12.5914
0.795884
13.1068
0.659766
13.2342
0.481066
12.7948
0.20162
11.5033
0.12132
8.66149
1.28428
3.47365
1.76681
15.4919
4.544
6.67916
7.89945
8.96649
9.95523
10.8712
11.7389
12.5839
13.4133
14.2187
14.9982
15.7324
16.3941
16.9364
17.309
17.4157
17.2615
16.0066
14.6044
)
;

boundaryField
{
    movingWall
    {
        type            calculated;
        value           uniform 0;
    }
    fixedWalls
    {
        type            calculated;
        value           uniform 0;
    }
    frontAndBack
    {
        type            empty;
        value           nonuniform List<scalar> 0();
    }
}


// ************************************************************************* //
