/*--------------------------------*- C++ -*----------------------------------*\
| =========                 |                                                 |
| \\      /  F ield         | OpenFOAM: The Open Source CFD Toolbox           |
|  \\    /   O peration     | Version:  2312                                  |
|   \\  /    A nd           | Website:  www.openfoam.com                      |
|    \\/     M anipulation  |                                                 |
\*---------------------------------------------------------------------------*/
FoamFile
{
    version     2.0;
    format      ascii;
    arch        "LSB;label=32;scalar=64";
    class       surfaceScalarField;
    location    "1.5";
    object      phi;
}
// * * * * * * * * * * * * * * * * * * * * * * * * * * * * * * * * * * * * * //

dimensions      [0 3 -1 0 0 0 0];

oriented        oriented;

internalField   nonuniform List<scalar> 
760
(
-5.53967e-08
5.53916e-08
-1.7883e-07
1.23433e-07
-3.43394e-07
1.64564e-07
-5.26628e-07
1.83234e-07
-7.18331e-07
1.91703e-07
-9.14618e-07
1.96287e-07
-1.11218e-06
1.97558e-07
-1.30442e-06
1.92248e-07
-1.47814e-06
1.73718e-07
-1.61277e-06
1.34629e-07
-1.68542e-06
7.26437e-08
-1.67459e-06
-1.08252e-08
-1.55762e-06
-1.16975e-07
-1.33457e-06
-2.23046e-07
-1.02803e-06
-3.06541e-07
-6.86489e-07
-3.4154e-07
-3.69256e-07
-3.17232e-07
-1.30578e-07
-2.38679e-07
-8.41167e-09
-1.22166e-07
-8.41165e-09
-1.23329e-07
1.78721e-07
-3.02097e-07
3.02201e-07
-5.09368e-07
3.71835e-07
-7.34294e-07
4.08159e-07
-9.70147e-07
4.27557e-07
-1.21142e-06
4.37562e-07
-1.45085e-06
4.36982e-07
-1.67658e-06
4.17983e-07
-1.87126e-06
3.68398e-07
-2.01394e-06
2.77307e-07
-2.08224e-06
1.40942e-07
-2.05546e-06
-3.76034e-08
-1.92021e-06
-2.52226e-07
-1.67071e-06
-4.72541e-07
-1.32705e-06
-6.50202e-07
-9.36143e-07
-7.32449e-07
-5.62667e-07
-6.90708e-07
-2.6567e-07
-5.35676e-07
-7.46627e-08
-3.13173e-07
-8.30743e-08
-1.70172e-07
3.48893e-07
-3.71942e-07
5.03971e-07
-5.88578e-07
5.88471e-07
-8.20213e-07
6.39794e-07
-1.06474e-06
6.72084e-07
-1.31782e-06
6.90638e-07
-1.57225e-06
6.91415e-07
-1.81611e-06
6.61844e-07
-2.03269e-06
5.84983e-07
-2.20286e-06
4.47475e-07
-2.3061e-06
2.44175e-07
-2.32399e-06
-1.97138e-08
-2.2262e-06
-3.50013e-07
-1.98962e-06
-7.09119e-07
-1.61331e-06
-1.02651e-06
-1.1389e-06
-1.20685e-06
-6.60145e-07
-1.16947e-06
-2.87575e-07
-9.08246e-07
-7.5268e-08
-5.2548e-07
-1.58342e-07
-1.92075e-07
5.40968e-07
-4.05022e-07
7.16918e-07
-6.2528e-07
8.08729e-07
-8.5756e-07
8.72074e-07
-1.10431e-06
9.18837e-07
-1.36479e-06
9.51114e-07
-1.63466e-06
9.61287e-07
-1.9053e-06
9.32482e-07
-2.16482e-06
8.44503e-07
-2.40148e-06
6.84134e-07
-2.60377e-06
4.46463e-07
-2.7515e-06
1.28017e-07
-2.80722e-06
-2.94289e-07
-2.69082e-06
-8.25519e-07
-2.3311e-06
-1.38624e-06
-1.72225e-06
-1.8157e-06
-9.78747e-07
-1.91297e-06
-3.40551e-07
-1.54644e-06
-2.77921e-08
-8.38239e-07
-1.86134e-07
-1.96459e-07
7.37427e-07
-4.11184e-07
9.31643e-07
-6.30734e-07
1.02828e-06
-8.61494e-07
1.10283e-06
-1.10929e-06
1.16664e-06
-1.37741e-06
1.21923e-06
-1.66652e-06
1.25039e-06
-1.97537e-06
1.24133e-06
-2.30404e-06
1.17317e-06
-2.66237e-06
1.04246e-06
-3.07175e-06
8.55848e-07
-3.53033e-06
5.86598e-07
-3.97159e-06
1.46968e-07
-4.18248e-06
-6.14634e-07
-3.98263e-06
-1.58608e-06
-3.2894e-06
-2.50892e-06
-2.17072e-06
-3.03166e-06
-9.15622e-07
-2.80154e-06
-9.08293e-08
-1.66303e-06
-2.76964e-07
-1.89299e-07
9.26726e-07
-3.97449e-07
1.13979e-06
-6.10649e-07
1.24148e-06
-8.35574e-07
1.32776e-06
-1.08043e-06
1.41149e-06
-1.35266e-06
1.49146e-06
-1.6601e-06
1.55783e-06
-2.01496e-06
1.5962e-06
-2.44356e-06
1.60176e-06
-3.00094e-06
1.59984e-06
-3.75324e-06
1.60815e-06
-4.66732e-06
1.50068e-06
-5.5036e-06
9.83255e-07
-5.98188e-06
-1.36363e-07
-5.94477e-06
-1.62318e-06
-5.32318e-06
-3.13052e-06
-4.0799e-06
-4.27494e-06
-2.31537e-06
-4.56607e-06
-5.91148e-07
-3.38725e-06
-8.68111e-07
-1.73683e-07
1.10041e-06
-3.67536e-07
1.33365e-06
-5.67294e-07
1.44124e-06
-7.79044e-07
1.53951e-06
-1.01231e-06
1.64475e-06
-1.27809e-06
1.75724e-06
-1.59176e-06
1.87151e-06
-1.98085e-06
1.98529e-06
-2.49834e-06
2.11925e-06
-3.22968e-06
2.33118e-06
-4.21502e-06
2.59349e-06
-5.29699e-06
2.58265e-06
-6.17694e-06
1.8632e-06
-6.65535e-06
3.42043e-07
-6.74836e-06
-1.53017e-06
-6.42824e-06
-3.45065e-06
-5.54848e-06
-5.1547e-06
-3.86973e-06
-6.24481e-06
-1.50611e-06
-5.75087e-06
-2.37423e-06
-1.51076e-07
1.25149e-06
-3.23265e-07
1.50584e-06
-5.01501e-07
1.61947e-06
-6.90344e-07
1.72835e-06
-8.99018e-07
1.85343e-06
-1.13986e-06
1.99809e-06
-1.43172e-06
2.16337e-06
-1.80775e-06
2.36132e-06
-2.3253e-06
2.6368e-06
-3.05171e-06
3.05759e-06
-3.94946e-06
3.49125e-06
-4.82449e-06
3.45767e-06
-5.45542e-06
2.49414e-06
-5.77298e-06
6.59597e-07
-5.83802e-06
-1.46513e-06
-5.77942e-06
-3.50925e-06
-5.52824e-06
-5.40588e-06
-4.60253e-06
-7.17052e-06
-2.45195e-06
-7.90145e-06
-4.82618e-06
-1.22765e-07
1.37425e-06
-2.66625e-07
1.6497e-06
-4.15396e-07
1.76824e-06
-5.71062e-07
1.88402e-06
-7.40734e-07
2.0231e-06
-9.35021e-07
2.19238e-06
-1.17033e-06
2.39868e-06
-1.47249e-06
2.66348e-06
-1.8754e-06
3.03971e-06
-2.40664e-06
3.58883e-06
-2.99289e-06
4.0775e-06
-3.50184e-06
3.96662e-06
-3.79441e-06
2.78672e-06
-3.86104e-06
7.26232e-07
-3.8073e-06
-1.51887e-06
-3.8225e-06
-3.49405e-06
-4.01e-06
-5.21838e-06
-4.01109e-06
-7.16942e-06
-2.74395e-06
-9.16859e-06
-7.57013e-06
-9.06423e-08
1.46489e-06
-2.0109e-07
1.76014e-06
-3.14019e-07
1.88117e-06
-4.28008e-07
1.99801e-06
-5.46646e-07
2.14174e-06
-6.76267e-07
2.322e-06
-8.25896e-07
2.5483e-06
-1.00533e-06
2.84291e-06
-1.21663e-06
3.251e-06
-1.44268e-06
3.81488e-06
-1.64037e-06
4.2752e-06
-1.79101e-06
4.11725e-06
-1.87471e-06
2.87042e-06
-1.8935e-06
7.45016e-07
-1.85157e-06
-1.5608e-06
-1.85287e-06
-3.49275e-06
-2.07882e-06
-4.99243e-06
-2.552e-06
-6.69625e-06
-2.33325e-06
-9.38733e-06
-9.90338e-06
-5.73508e-08
1.52224e-06
-1.31919e-07
1.83471e-06
-2.05419e-07
1.95467e-06
-2.72877e-07
2.06547e-06
-3.33781e-07
2.20264e-06
-3.89127e-07
2.37735e-06
-4.38975e-07
2.59815e-06
-4.77269e-07
2.88121e-06
-4.79421e-07
3.25316e-06
-4.03631e-07
3.73909e-06
-2.5853e-07
4.1301e-06
-1.13932e-07
3.97265e-06
-5.49289e-08
2.81142e-06
-9.75122e-08
7.876e-07
-2.02612e-07
-1.4557e-06
-3.76336e-07
-3.31902e-06
-6.37456e-07
-4.73131e-06
-1.13578e-06
-6.19793e-06
-1.54176e-06
-8.98136e-06
-1.14451e-05
-2.62218e-08
1.54847e-06
-6.57512e-08
1.87424e-06
-9.94618e-08
1.98838e-06
-1.19654e-07
2.08566e-06
-1.22167e-07
2.20515e-06
-1.03704e-07
2.35888e-06
-5.74793e-08
2.55193e-06
3.30603e-08
2.79067e-06
1.97966e-07
3.08825e-06
4.94366e-07
3.44269e-06
9.14797e-07
3.70966e-06
1.3625e-06
3.52495e-06
1.59829e-06
2.57563e-06
1.52233e-06
8.63559e-07
1.20226e-06
-1.13563e-06
7.79408e-07
-2.89617e-06
3.10039e-07
-4.26194e-06
-2.4726e-07
-5.64063e-06
-8.32018e-07
-8.3966e-06
-1.22772e-05
-1.49907e-09
1.54996e-06
-1.00937e-08
1.88284e-06
-6.72631e-09
1.98502e-06
1.78547e-08
2.06108e-06
6.89119e-08
2.1541e-06
1.52293e-07
2.2755e-06
2.76256e-07
2.42797e-06
4.56944e-07
2.60998e-06
7.27575e-07
2.81762e-06
1.13643e-06
3.03384e-06
1.6808e-06
3.16529e-06
2.24231e-06
2.96344e-06
2.60815e-06
2.20979e-06
2.60246e-06
8.69243e-07
2.21563e-06
-7.48796e-07
1.61783e-06
-2.29837e-06
9.6124e-07
-3.60535e-06
2.73713e-07
-4.9531e-06
-4.08682e-07
-7.7142e-06
-1.26858e-05
1.17218e-08
1.53824e-06
2.66474e-08
1.86791e-06
6.13746e-08
1.95029e-06
1.24804e-07
1.99765e-06
2.22971e-07
2.05593e-06
3.6051e-07
2.13796e-06
5.4418e-07
2.24429e-06
7.85874e-07
2.36828e-06
1.10686e-06
2.49664e-06
1.53655e-06
2.60415e-06
2.0756e-06
2.62624e-06
2.62074e-06
2.41831e-06
2.99491e-06
1.83562e-06
3.02232e-06
8.4183e-07
2.67834e-06
-4.04813e-07
2.06392e-06
-1.68395e-06
1.32809e-06
-2.86952e-06
5.50158e-07
-4.17517e-06
-2.16368e-07
-6.94768e-06
-1.29022e-05
7.40381e-09
1.53084e-06
3.44127e-08
1.8409e-06
9.44513e-08
1.89025e-06
1.91992e-07
1.90011e-06
3.30383e-07
1.91754e-06
5.11903e-07
1.95644e-06
7.39789e-07
2.01641e-06
1.01951e-06
2.08857e-06
1.35982e-06
2.15632e-06
1.77108e-06
2.19289e-06
2.24641e-06
2.15091e-06
2.71133e-06
1.95339e-06
3.03144e-06
1.51551e-06
3.0729e-06
8.00372e-07
2.79062e-06
-1.22532e-07
2.23564e-06
-1.12897e-06
1.5088e-06
-2.14269e-06
7.21415e-07
-3.38778e-06
-1.45047e-07
-6.08122e-06
-1.30473e-05
-2.19993e-08
1.55284e-06
7.9552e-09
1.81095e-06
8.45981e-08
1.81361e-06
2.11734e-07
1.77297e-06
3.84938e-07
1.74434e-06
6.02886e-07
1.7385e-06
8.65473e-07
1.75382e-06
1.17265e-06
1.78139e-06
1.52339e-06
1.80558e-06
1.9133e-06
1.80298e-06
2.325e-06
1.7392e-06
2.70792e-06
1.57047e-06
2.97072e-06
1.25271e-06
3.01556e-06
7.55532e-07
2.79069e-06
1.02343e-07
2.31802e-06
-6.56304e-07
1.6513e-06
-1.47596e-06
9.53535e-07
-2.69002e-06
5.95808e-09
-5.13364e-06
-1.30413e-05
-1.11332e-07
1.66417e-06
-9.46022e-08
1.79422e-06
1.45841e-08
1.70442e-06
1.78016e-07
1.60954e-06
3.88289e-07
1.53406e-06
6.42166e-07
1.48462e-06
9.3785e-07
1.45814e-06
1.27155e-06
1.44769e-06
1.63678e-06
1.44035e-06
2.0216e-06
1.41816e-06
2.40298e-06
1.35781e-06
2.74134e-06
1.23211e-06
2.97694e-06
1.01711e-06
3.03459e-06
6.97887e-07
2.85958e-06
2.77354e-07
2.46126e-06
-2.57987e-07
1.87351e-06
-8.88212e-07
1.30222e-06
-2.11874e-06
3.27318e-07
-4.15874e-06
-1.2714e-05
-2.33762e-07
1.89793e-06
-1.68009e-07
1.72847e-06
-5.28398e-09
1.5417e-06
1.94241e-07
1.41001e-06
4.39303e-07
1.289e-06
7.34006e-07
1.18992e-06
1.07094e-06
1.1212e-06
1.44255e-06
1.07609e-06
1.83955e-06
1.04335e-06
2.24774e-06
1.00998e-06
2.64383e-06
9.6172e-07
2.99188e-06
8.84064e-07
3.24246e-06
7.6653e-07
3.34147e-06
5.98877e-07
3.24197e-06
3.76852e-07
2.95377e-06
3.02156e-08
2.47399e-06
-4.08429e-07
1.8748e-06
-1.51955e-06
7.98438e-07
-3.08237e-06
-1.19155e-05
-4.10235e-07
2.30817e-06
-2.68845e-07
1.58707e-06
1.92526e-07
1.08032e-06
7.07367e-07
8.95173e-07
1.20924e-06
7.87124e-07
1.69809e-06
7.01065e-07
2.17963e-06
6.39658e-07
2.65776e-06
5.97963e-07
3.1348e-06
5.66303e-07
3.60646e-06
5.38321e-07
4.05964e-06
5.08539e-07
4.47245e-06
4.71251e-07
4.8179e-06
4.21089e-07
5.0666e-06
3.50169e-07
5.18752e-06
2.55931e-07
5.10959e-06
1.08147e-07
4.76685e-06
-6.56876e-08
3.95839e-06
-7.11092e-07
1.92375e-06
-1.04773e-06
-9.99179e-06
2.30817e-06
3.89524e-06
4.97557e-06
5.87074e-06
6.65786e-06
7.35893e-06
7.99859e-06
8.59655e-06
9.16285e-06
9.70117e-06
1.02097e-05
1.0681e-05
1.11021e-05
1.14522e-05
1.17082e-05
1.18163e-05
1.17506e-05
1.10395e-05
9.99179e-06
)
;

boundaryField
{
    movingWall
    {
        type            calculated;
        value           uniform 0;
    }
    fixedWalls
    {
        type            calculated;
        value           uniform 0;
    }
    frontAndBack
    {
        type            empty;
        value           nonuniform List<scalar> 0();
    }
}


// ************************************************************************* //
