/*--------------------------------*- C++ -*----------------------------------*\
| =========                 |                                                 |
| \\      /  F ield         | OpenFOAM: The Open Source CFD Toolbox           |
|  \\    /   O peration     | Version:  2312                                  |
|   \\  /    A nd           | Website:  www.openfoam.com                      |
|    \\/     M anipulation  |                                                 |
\*---------------------------------------------------------------------------*/
FoamFile
{
    version     2.0;
    format      ascii;
    arch        "LSB;label=32;scalar=64";
    class       volScalarField;
    location    "1.5";
    object      pNear;
}
// * * * * * * * * * * * * * * * * * * * * * * * * * * * * * * * * * * * * * //

dimensions      [0 2 -2 0 0 0 0];

internalField   nonuniform List<scalar> 
400
(
5.28662e-08
0
0
1.69291e-05
5.05906e-05
9.94488e-05
0.000166129
0.000255087
0.000372005
0.000523367
0.000720676
0.000972715
0.00127321
0.00159396
0.00188676
0.00210019
0.0022141
0.00223847
0.00221102
0.00217406
6.88437e-06
0
1.41763e-06
2.20326e-05
5.55812e-05
0.000102248
0.000164071
0.000244676
0.000349381
0.00048596
0.000665462
0.000896357
0.00117815
0.00149349
0.00179295
0.00202292
0.00215614
0.00219678
0.0021801
0.00214296
0
0
0
0
1.51681e-05
5.67118e-05
0.000109763
0.000177003
0.000263661
0.000379107
0.000536818
0.000749736
0.00103279
0.00137046
0.00171024
0.00198064
0.0021374
0.00217992
0.00215015
0.00210486
0
0
0
0
0
0
0
3.09109e-05
9.4761e-05
0.000187527
0.000326631
0.000530347
0.00081437
0.00119189
0.0016086
0.00195047
0.00213367
0.0021615
0.00210923
0.00204328
0
0
0
0
0
0
0
0
0
0
0
0.000123218
0.000353158
0.000720937
0.00118527
0.00165608
0.00198993
0.00208318
0.00205955
0.00194825
0
0
0
0
0
0
0
0
0
0
0
0
0
0
0
3.66987e-05
0.000989231
0.00175722
0.00199742
0.00181
0
0
0
0
0
0
0
0
0
0
0
0
0
0
0
0
0
0.000204617
0.00173063
0.00188657
0
0
0
0
0
0
0
0
0
0
0
0
0
0
0
0
0
0
0.000555728
0.00169759
0
0
0
0
0
0
0
0
0
0
0
0
0
0
0
0
0
0
0
0.000481527
0
0
0
0
0
0
0
0
0
0
0
0
0
0
0
0
0
0
0
0
0
0
0
0
0
0
0
0
0
0
0
0
0
0
0
0
0
0
0
0
0
0
0
0
0
0
0
0
0
0
0
0
0
0
0
0
0
0
0
0
0
0
0
0
0
0
0
0
0
0
0
0
0
0
0
0
0
0
0
0
0
0
0
0
0
0
0
0
0
0
0
0
0
0
0
0
0
0
0
0
0
0
0
0
0
0
0
0
0
0
0
0
0
0
0
0
0
0
0
0
0
0
0
0
0
0
0
0
0
0
0
0
0
0
0
0
0
0
0
0
0
0
0
0
0
0
0
0
0
0
0
0
0
0
0
0
0
0
0
0
0
0
0
0
0
0
0
0
0
0
0
0
0
0
0
0
0
0
0
0
0
0
0
0
0
0
0
0
0
0
0
0
0
0
0
0
0
0.00029978
0.00185441
0.0146242
0
0.00121152
0.000471085
0
0
0
0
0
0
0
0
0
0
0
0
0
0
0.00286825
0.00450638
0.0570317
)
;

boundaryField
{
    movingWall
    {
        type            zeroGradient;
    }
    fixedWalls
    {
        type            calculated;
        value           nonuniform List<scalar> 
60
(
1.07759e-06
4.82699e-06
1.03266e-06
0
0
0
0
0
0
0
0
0
0
0
0
0
0
0
0
0
0.00216939
0.00214191
0.00210134
0.00203827
0.00194177
0.00184222
0.00184674
0.00154353
0.000591707
7.22291e-05
0
0
0
0
0
0
0
0.00219363
0.0187917
0.0506706
4.49363e-08
7.92993e-09
2.53936e-06
1.94389e-05
5.28701e-05
0.000102122
0.00016947
0.000259281
0.000377171
0.000530259
0.000728885
0.000979983
0.00127625
0.00158977
0.00187485
0.00208526
0.00220067
0.00223069
0.00220959
0.0021796
)
;
    }
    frontAndBack
    {
        type            empty;
    }
}


// ************************************************************************* //
