/*--------------------------------*- C++ -*----------------------------------*\
| =========                 |                                                 |
| \\      /  F ield         | OpenFOAM: The Open Source CFD Toolbox           |
|  \\    /   O peration     | Version:  2312                                  |
|   \\  /    A nd           | Website:  www.openfoam.com                      |
|    \\/     M anipulation  |                                                 |
\*---------------------------------------------------------------------------*/
FoamFile
{
    version     2.0;
    format      ascii;
    arch        "LSB;label=32;scalar=64";
    class       volScalarField;
    location    "1.5";
    object      powk;
}
// * * * * * * * * * * * * * * * * * * * * * * * * * * * * * * * * * * * * * //

dimensions      [0 0.5 -0.5 0 0 0 0];

internalField   nonuniform List<scalar> 
400
(
2.54835
2.55342
2.55762
2.56068
2.56309
2.56515
2.56698
2.56863
2.57006
2.57119
2.57172
2.57186
2.57159
2.5706
2.56901
2.56656
2.56323
2.5589
2.55329
2.54852
2.5531
2.56063
2.56463
2.56696
2.56848
2.56961
2.57061
2.57163
2.57272
2.57384
2.57491
2.5759
2.57653
2.57678
2.57651
2.57492
2.57195
2.56749
2.5608
2.55318
2.55794
2.56628
2.57039
2.57272
2.57422
2.57531
2.57623
2.57713
2.57809
2.57914
2.58025
2.58134
2.58219
2.58254
2.58243
2.58079
2.57748
2.5724
2.565
2.55709
2.56143
2.5698
2.574
2.57643
2.57803
2.57923
2.58027
2.5813
2.5824
2.58359
2.58488
2.58619
2.58732
2.588
2.58832
2.58736
2.58425
2.5782
2.56857
2.5596
2.56411
2.57221
2.5765
2.57903
2.58078
2.58216
2.58344
2.58474
2.58614
2.58771
2.58945
2.59118
2.59259
2.59388
2.59515
2.59575
2.59448
2.58903
2.57578
2.56218
2.56623
2.57392
2.5783
2.58096
2.58288
2.5845
2.58608
2.58774
2.58961
2.59173
2.59388
2.59525
2.59569
2.59613
2.59734
2.59892
2.60008
2.60018
2.59091
2.57104
2.56794
2.57514
2.57959
2.58239
2.58451
2.58639
2.58829
2.59039
2.59281
2.59521
2.59601
2.59542
2.59458
2.59433
2.59518
2.59753
2.60096
2.60372
2.60472
2.59007
2.56933
2.57597
2.58048
2.58341
2.58572
2.58784
2.59004
2.59248
2.59515
2.59653
2.59622
2.5939
2.59104
2.59
2.59007
2.59354
2.59815
2.60434
2.609
2.60768
2.57044
2.5765
2.58104
2.58408
2.58653
2.58884
2.59127
2.59391
2.59631
2.597
2.59556
2.59078
2.58709
2.58588
2.58593
2.5898
2.59558
2.60214
2.61056
2.61747
2.57129
2.57679
2.58131
2.58442
2.58697
2.58942
2.59198
2.59469
2.59685
2.59714
2.59471
2.58853
2.58432
2.58303
2.58322
2.58745
2.59426
2.60153
2.61048
2.62173
2.57193
2.57687
2.58134
2.58446
2.58708
2.58958
2.59218
2.59485
2.59702
2.59741
2.59501
2.589
2.58364
2.58157
2.58228
2.58663
2.59383
2.60136
2.61059
2.62436
2.57238
2.57682
2.58124
2.58435
2.58696
2.58947
2.59204
2.59467
2.59693
2.59775
2.59598
2.59085
2.58498
2.58247
2.58347
2.58775
2.59525
2.60203
2.61136
2.6263
2.57265
2.57669
2.58102
2.5841
2.58669
2.58917
2.5917
2.59425
2.59658
2.59784
2.59718
2.59446
2.58894
2.5859
2.58719
2.59161
2.59793
2.60276
2.61236
2.62821
2.57285
2.5765
2.58075
2.58378
2.58632
2.58875
2.5912
2.59367
2.59598
2.59768
2.59791
2.59691
2.59428
2.59174
2.5925
2.59529
2.59892
2.60282
2.61276
2.63034
2.57295
2.57633
2.58049
2.58347
2.58595
2.5883
2.59067
2.59304
2.59528
2.59712
2.59793
2.59771
2.59679
2.59527
2.59547
2.5966
2.5989
2.60108
2.61285
2.63283
2.57332
2.57627
2.58034
2.58324
2.58561
2.58783
2.59005
2.59227
2.59438
2.59619
2.59738
2.59747
2.59704
2.59607
2.59577
2.59612
2.59685
2.59792
2.61271
2.63589
2.57339
2.57636
2.58026
2.5829
2.58507
2.58708
2.58909
2.5911
2.59303
2.59471
2.59595
2.59639
2.59617
2.59548
2.59466
2.59456
2.59485
2.59646
2.61393
2.63966
2.57535
2.57739
2.58136
2.58373
2.58568
2.58753
2.58938
2.59123
2.59302
2.59461
2.59586
2.59656
2.59649
2.59616
2.59548
2.59489
2.59508
2.59929
2.61814
2.6448
2.58212
2.58767
2.59404
2.59767
2.60009
2.60205
2.60369
2.6051
2.60631
2.60741
2.60835
2.60921
2.60982
2.61046
2.61106
2.61232
2.61411
2.62108
2.63016
2.65212
2.6272
2.64197
2.65126
2.65592
2.65842
2.65989
2.6607
2.66113
2.66119
2.66113
2.66096
2.66069
2.66045
2.66021
2.66017
2.66027
2.66074
2.66089
2.66319
2.65935
)
;

boundaryField
{
    movingWall
    {
        type            calculated;
        value           nonuniform List<scalar> 
20
(
2.6272
2.64197
2.65126
2.65592
2.65842
2.65989
2.6607
2.66113
2.66119
2.66113
2.66096
2.66069
2.66045
2.66021
2.66017
2.66027
2.66074
2.66089
2.66319
2.65935
)
;
    }
    fixedWalls
    {
        type            calculated;
        value           nonuniform List<scalar> 
60
(
2.54835
2.5531
2.55794
2.56143
2.56411
2.56623
2.56794
2.56933
2.57044
2.57129
2.57193
2.57238
2.57265
2.57285
2.57295
2.57332
2.57339
2.57535
2.58212
2.6272
2.54852
2.55318
2.55709
2.5596
2.56218
2.57104
2.59007
2.60768
2.61747
2.62173
2.62436
2.6263
2.62821
2.63034
2.63283
2.63589
2.63966
2.6448
2.65212
2.65935
2.54835
2.55342
2.55762
2.56068
2.56309
2.56515
2.56698
2.56863
2.57006
2.57119
2.57172
2.57186
2.57159
2.5706
2.56901
2.56656
2.56323
2.5589
2.55329
2.54852
)
;
    }
    frontAndBack
    {
        type            empty;
    }
}


// ************************************************************************* //
