/*--------------------------------*- C++ -*----------------------------------*\
| =========                 |                                                 |
| \\      /  F ield         | OpenFOAM: The Open Source CFD Toolbox           |
|  \\    /   O peration     | Version:  2312                                  |
|   \\  /    A nd           | Website:  www.openfoam.com                      |
|    \\/     M anipulation  |                                                 |
\*---------------------------------------------------------------------------*/
FoamFile
{
    version     2.0;
    format      ascii;
    arch        "LSB;label=32;scalar=64";
    class       volScalarField;
    location    "1.5";
    object      QField;
}
// * * * * * * * * * * * * * * * * * * * * * * * * * * * * * * * * * * * * * //

dimensions      [0 0 -2 0 0 0 0];

internalField   nonuniform List<scalar> 
400
(
-0.037457
-0.17428
-0.3646
-0.502734
-0.580066
-0.61499
-0.634761
-0.67389
-0.772765
-0.905613
-1.07093
-1.52561
-2.01345
-2.27209
-2.30257
-1.94965
-1.32902
-0.65789
-0.161076
-0.00214762
-0.164101
-0.373713
-0.59163
-0.745279
-0.844052
-0.901433
-0.920001
-0.890862
-0.810471
-0.699525
-0.642231
-0.767204
-1.14711
-1.73116
-2.2384
-2.32861
-1.86024
-1.09363
-0.406288
-0.0565947
-0.35671
-0.538599
-0.687015
-0.819814
-0.929488
-1.00954
-1.04677
-1.02141
-0.936698
-0.852191
-0.886908
-1.18639
-1.87074
-2.83073
-3.56026
-3.61422
-2.87798
-1.76612
-0.852919
-0.19078
-0.532031
-0.653255
-0.740611
-0.845676
-0.960793
-1.07481
-1.16829
-1.22473
-1.27148
-1.42181
-1.89051
-2.96955
-4.81431
-6.79065
-7.84574
-7.57331
-5.71635
-2.92881
-1.09375
-0.350297
-0.647873
-0.710775
-0.767662
-0.862922
-0.99447
-1.15641
-1.33892
-1.55151
-1.89658
-2.69031
-4.55578
-8.07675
-12.5144
-16.3119
-19.083
-20.2475
-17.8935
-11.0782
-1.71581
-0.429871
-0.699162
-0.706587
-0.754288
-0.854654
-1.01187
-1.2322
-1.53461
-1.99882
-2.94162
-5.20085
-9.96834
-16.8054
-21.9625
-23.5538
-25.6594
-30.8299
-35.2151
-31.7339
-14.3309
-0.556721
-0.707172
-0.654664
-0.700047
-0.8109
-0.995475
-1.27589
-1.71537
-2.50538
-4.27789
-8.42
-15.3054
-19.2042
-12.7436
-1.45665
3.63455
-2.78369
-21.5228
-42.7578
-43.6597
-5.70269
-0.687905
-0.568476
-0.60825
-0.72616
-0.930407
-1.25683
-1.81173
-2.88457
-5.32386
-10.2531
-14.6121
-7.60498
14.6774
38.2505
49.3783
46.8802
29.0572
-11.2528
-58.2614
-43.7876
-0.648548
-0.462961
-0.490008
-0.606217
-0.81671
-1.16483
-1.78215
-3.01029
-5.61836
-9.65536
-9.1286
7.73765
38.7621
62.9199
67.669
63.4069
60.2145
40.9456
-30.1979
-102.376
-0.589712
-0.35474
-0.363632
-0.469255
-0.672936
-1.01876
-1.63716
-2.84227
-5.22314
-7.84239
-4.1598
16.8272
50.0886
68.1114
62.3235
49.4319
46.9609
55.9667
16.1069
-122.964
-0.510948
-0.258332
-0.249021
-0.338635
-0.527403
-0.853955
-1.42507
-2.48889
-4.48819
-6.48527
-2.95295
15.89
46.1713
62.6805
55.4248
37.3473
27.5518
37.5067
36.0582
-98.8752
-0.404385
-0.179576
-0.159139
-0.233428
-0.406649
-0.709819
-1.21782
-2.10771
-3.69994
-5.56269
-3.96856
7.47515
28.7551
44.3774
40.9924
25.6441
16.2103
19.611
29.9449
-55.4094
-0.233814
-0.112435
-0.0979272
-0.165735
-0.330382
-0.616407
-1.06816
-1.79246
-2.98955
-4.55489
-4.76056
0.0787668
10.7676
19.6587
18.8754
11.2997
5.75705
7.12117
16.4251
-19.0932
0.0202494
-0.0402827
-0.0633416
-0.141119
-0.310486
-0.592214
-1.00725
-1.59413
-2.44025
-3.55419
-4.31387
-2.96186
1.07161
4.5486
3.90758
0.6216
-2.30468
-1.33694
5.06357
-2.2505
0.406886
0.045078
-0.0543309
-0.165435
-0.355591
-0.645197
-1.03751
-1.52988
-2.12123
-2.78773
-3.29768
-2.95589
-1.50776
-0.303174
-0.995934
-3.12964
-5.57678
-3.91621
3.8216
-2.31932
1.09552
0.133568
-0.137458
-0.297396
-0.502983
-0.789842
-1.15764
-1.58073
-2.00534
-2.34478
-2.44539
-2.07749
-1.18492
-0.384658
-0.826127
-2.46513
-4.81511
1.4465
12.5177
-15.7212
1.44741
0.279207
0.0812627
-0.172839
-0.471318
-0.824804
-1.2242
-1.62931
-1.96486
-2.10875
-1.90149
-1.21732
-0.103702
0.999469
1.23255
0.271078
-0.16944
14.3407
8.42958
-58.6329
5.19566
-0.776791
-1.48786
-0.992844
-1.00061
-1.39442
-1.90917
-2.34361
-2.56216
-2.40014
-1.66436
-0.247685
1.77727
4.04637
6.28022
8.48555
17.0765
36.9696
-3.62432
-281.873
-19.1979
5.47285
-2.7523
-5.54627
-2.73678
-1.54989
-1.8746
-2.38668
-2.53447
-2.16649
-1.11808
0.731475
3.40439
6.69783
11.7951
17.551
41.4554
52.1513
179.167
-1165.31
-3311.44
912.421
751.406
404.724
216.483
129.918
86.2461
61.2491
45.2835
34.8664
28.5323
24.9523
23.8948
25.874
34.1352
44.1224
109.589
-52.361
1799.22
-3087.98
)
;

boundaryField
{
    movingWall
    {
        type            calculated;
        value           nonuniform List<scalar> 
20
(
-6626.41
1699.18
1399.7
752.467
402.322
241.546
160.683
114.623
85.3178
66.2148
54.5491
47.7842
45.4778
48.5442
63.2197
81.2405
199.926
-61.7837
3303.52
-4318.06
)
;
    }
    fixedWalls
    {
        type            calculated;
        value           nonuniform List<scalar> 
60
(
-0.012961
-0.0944441
-0.272421
-0.486687
-0.6634
-0.78372
-0.86741
-0.927028
-0.958586
-0.945191
-0.871957
-0.718074
-0.422011
0.0376496
0.734294
2.01862
2.85461
10.1439
-41.4652
-7473.09
0.00654029
-0.017661
-0.127771
-0.275959
0.203599
4.26482
10.495
-30.8436
-128.178
-204.431
-201.853
-128.277
-48.9826
-7.70578
-7.55966
-47.3492
-177.008
-850.907
-3838.91
-10965.8
-0.012213
-0.100081
-0.264124
-0.412508
-0.497398
-0.533551
-0.570154
-0.686197
-0.972451
-1.39038
-1.86438
-2.72539
-3.39746
-3.3796
-2.91471
-2.0517
-1.16044
-0.484303
-0.118142
-0.00775354
)
;
    }
    frontAndBack
    {
        type            empty;
    }
}


// ************************************************************************* //
