/*--------------------------------*- C++ -*----------------------------------*\
| =========                 |                                                 |
| \\      /  F ield         | OpenFOAM: The Open Source CFD Toolbox           |
|  \\    /   O peration     | Version:  2312                                  |
|   \\  /    A nd           | Website:  www.openfoam.com                      |
|    \\/     M anipulation  |                                                 |
\*---------------------------------------------------------------------------*/
FoamFile
{
    version     2.0;
    format      ascii;
    arch        "LSB;label=32;scalar=64";
    class       volScalarField;
    location    "1.5";
    object      staticCoeffP;
}
// * * * * * * * * * * * * * * * * * * * * * * * * * * * * * * * * * * * * * //

dimensions      [0 0 0 0 0 0 0];

internalField   nonuniform List<scalar> 
400
(
1.05732e-07
0
0
3.38582e-05
0.000101181
0.000198898
0.000332257
0.000510173
0.000744009
0.00104673
0.00144135
0.00194543
0.00254642
0.00318791
0.00377352
0.00420037
0.0044282
0.00447693
0.00442204
0.00434812
1.37687e-05
0
2.83526e-06
4.40652e-05
0.000111162
0.000204497
0.000328141
0.000489351
0.000698762
0.000971921
0.00133092
0.00179271
0.0023563
0.00298698
0.0035859
0.00404585
0.00431227
0.00439357
0.0043602
0.00428592
0
0
0
0
3.03362e-05
0.000113424
0.000219526
0.000354005
0.000527321
0.000758214
0.00107364
0.00149947
0.00206558
0.00274092
0.00342048
0.00396129
0.0042748
0.00435984
0.0043003
0.00420972
0
0
0
0
0
0
0
6.18217e-05
0.000189522
0.000375053
0.000653262
0.00106069
0.00162874
0.00238377
0.0032172
0.00390094
0.00426733
0.004323
0.00421847
0.00408657
0
0
0
0
0
0
0
0
0
0
0
0.000246436
0.000706316
0.00144187
0.00237055
0.00331216
0.00397987
0.00416635
0.00411909
0.00389651
0
0
0
0
0
0
0
0
0
0
0
0
0
0
0
7.33974e-05
0.00197846
0.00351445
0.00399485
0.00361999
0
0
0
0
0
0
0
0
0
0
0
0
0
0
0
0
0
0.000409235
0.00346126
0.00377314
0
0
0
0
0
0
0
0
0
0
0
0
0
0
0
0
0
0
0.00111146
0.00339518
0
0
0
0
0
0
0
0
0
0
0
0
0
0
0
0
0
0
0
0.000963054
0
0
0
0
0
0
0
0
0
0
0
0
0
0
0
0
0
0
0
0
0
0
0
0
0
0
0
0
0
0
0
0
0
0
0
0
0
0
0
0
0
0
0
0
0
0
0
0
0
0
0
0
0
0
0
0
0
0
0
0
0
0
0
0
0
0
0
0
0
0
0
0
0
0
0
0
0
0
0
0
0
0
0
0
0
0
0
0
0
0
0
0
0
0
0
0
0
0
0
0
0
0
0
0
0
0
0
0
0
0
0
0
0
0
0
0
0
0
0
0
0
0
0
0
0
0
0
0
0
0
0
0
0
0
0
0
0
0
0
0
0
0
0
0
0
0
0
0
0
0
0
0
0
0
0
0
0
0
0
0
0
0
0
0
0
0
0
0
0
0
0
0
0
0
0
0
0
0
0
0
0
0
0
0
0
0
0
0
0
0
0
0
0
0
0
0
0
0.00059956
0.00370882
0.0292483
0
0.00242305
0.00094217
0
0
0
0
0
0
0
0
0
0
0
0
0
0
0.0057365
0.00901277
0.114063
)
;

boundaryField
{
    movingWall
    {
        type            calculated;
        value           nonuniform List<scalar> 
20
(
0
0.00242305
0.00094217
0
0
0
0
0
0
0
0
0
0
0
0
0
0
0.0057365
0.00901277
0.114063
)
;
    }
    fixedWalls
    {
        type            calculated;
        value           nonuniform List<scalar> 
60
(
1.05732e-07
1.37687e-05
0
0
0
0
0
0
0
0
0
0
0
0
0
0
0
0
0
0
0.00434812
0.00428592
0.00420972
0.00408657
0.00389651
0.00361999
0.00377314
0.00339518
0.000963054
0
0
0
0
0
0
0
0
0
0.0292483
0.114063
1.05732e-07
0
0
3.38582e-05
0.000101181
0.000198898
0.000332257
0.000510173
0.000744009
0.00104673
0.00144135
0.00194543
0.00254642
0.00318791
0.00377352
0.00420037
0.0044282
0.00447693
0.00442204
0.00434812
)
;
    }
    frontAndBack
    {
        type            empty;
    }
}


// ************************************************************************* //
