/*--------------------------------*- C++ -*----------------------------------*\
| =========                 |                                                 |
| \\      /  F ield         | OpenFOAM: The Open Source CFD Toolbox           |
|  \\    /   O peration     | Version:  2312                                  |
|   \\  /    A nd           | Website:  www.openfoam.com                      |
|    \\/     M anipulation  |                                                 |
\*---------------------------------------------------------------------------*/
FoamFile
{
    version     2.0;
    format      ascii;
    arch        "LSB;label=32;scalar=64";
    class       volScalarField;
    location    "1.5";
    object      staticP;
}
// * * * * * * * * * * * * * * * * * * * * * * * * * * * * * * * * * * * * * //

dimensions      [1 -1 -2 0 0 0 0];

internalField   nonuniform List<scalar> 
400
(
1
1
1
1.00002
1.00005
1.0001
1.00017
1.00026
1.00037
1.00052
1.00072
1.00097
1.00127
1.00159
1.00189
1.0021
1.00221
1.00224
1.00221
1.00217
1.00001
1
1
1.00002
1.00006
1.0001
1.00016
1.00024
1.00035
1.00049
1.00067
1.0009
1.00118
1.00149
1.00179
1.00202
1.00216
1.0022
1.00218
1.00214
1
1
1
1
1.00002
1.00006
1.00011
1.00018
1.00026
1.00038
1.00054
1.00075
1.00103
1.00137
1.00171
1.00198
1.00214
1.00218
1.00215
1.0021
1
1
1
1
1
1
1
1.00003
1.00009
1.00019
1.00033
1.00053
1.00081
1.00119
1.00161
1.00195
1.00213
1.00216
1.00211
1.00204
1
1
1
1
1
1
1
1
1
1
1
1.00012
1.00035
1.00072
1.00119
1.00166
1.00199
1.00208
1.00206
1.00195
1
1
1
1
1
1
1
1
1
1
1
1
1
1
1
1.00004
1.00099
1.00176
1.002
1.00181
1
1
1
1
1
1
1
1
1
1
1
1
1
1
1
1
1
1.0002
1.00173
1.00189
1
1
1
1
1
1
1
1
1
1
1
1
1
1
1
1
1
1
1.00056
1.0017
1
1
1
1
1
1
1
1
1
1
1
1
1
1
1
1
1
1
1
1.00048
1
1
1
1
1
1
1
1
1
1
1
1
1
1
1
1
1
1
1
1
1
1
1
1
1
1
1
1
1
1
1
1
1
1
1
1
1
1
1
1
1
1
1
1
1
1
1
1
1
1
1
1
1
1
1
1
1
1
1
1
1
1
1
1
1
1
1
1
1
1
1
1
1
1
1
1
1
1
1
1
1
1
1
1
1
1
1
1
1
1
1
1
1
1
1
1
1
1
1
1
1
1
1
1
1
1
1
1
1
1
1
1
1
1
1
1
1
1
1
1
1
1
1
1
1
1
1
1
1
1
1
1
1
1
1
1
1
1
1
1
1
1
1
1
1
1
1
1
1
1
1
1
1
1
1
1
1
1
1
1
1
1
1
1
1
1
1
1
1
1
1
1
1
1
1
1
1
1
1
1
1
1
1
1
1
1
1
1
1
1
1
1
1
1
1
1
1
1.0003
1.00185
1.01462
1
1.00121
1.00047
1
1
1
1
1
1
1
1
1
1
1
1
1
1
1.00287
1.00451
1.05703
)
;

boundaryField
{
    movingWall
    {
        type            calculated;
        value           nonuniform List<scalar> 
20
(
1
1.00121
1.00047
1
1
1
1
1
1
1
1
1
1
1
1
1
1
1.00287
1.00451
1.05703
)
;
    }
    fixedWalls
    {
        type            calculated;
        value           nonuniform List<scalar> 
60
(
1
1.00001
1
1
1
1
1
1
1
1
1
1
1
1
1
1
1
1
1
1
1.00217
1.00214
1.0021
1.00204
1.00195
1.00181
1.00189
1.0017
1.00048
1
1
1
1
1
1
1
1
1
1.01462
1.05703
1
1
1
1.00002
1.00005
1.0001
1.00017
1.00026
1.00037
1.00052
1.00072
1.00097
1.00127
1.00159
1.00189
1.0021
1.00221
1.00224
1.00221
1.00217
)
;
    }
    frontAndBack
    {
        type            empty;
    }
}


// ************************************************************************* //
