/*--------------------------------*- C++ -*----------------------------------*\
| =========                 |                                                 |
| \\      /  F ield         | OpenFOAM: The Open Source CFD Toolbox           |
|  \\    /   O peration     | Version:  2312                                  |
|   \\  /    A nd           | Website:  www.openfoam.com                      |
|    \\/     M anipulation  |                                                 |
\*---------------------------------------------------------------------------*/
FoamFile
{
    version     2.0;
    format      ascii;
    arch        "LSB;label=32;scalar=64";
    class       pointScalarField;
    location    "1.5";
    object      streamFunc;
}
// * * * * * * * * * * * * * * * * * * * * * * * * * * * * * * * * * * * * * //

dimensions      [0 3 -1 0 0 0 0];

internalField   nonuniform List<scalar> 
882
(
0
0
0
0
0
0
0
0
0
0
0
0
0
0
0
0
0
0
0
0
0
0
-5.53928e-06
-1.78826e-05
-3.43391e-05
-5.26625e-05
-7.18329e-05
-9.14616e-05
-0.000111217
-0.000130442
-0.000147814
-0.000161277
-0.000168541
-0.000167459
-0.000155761
-0.000133457
-0.000102803
-6.86488e-05
-3.69256e-05
-1.30578e-05
-8.41158e-07
0
0
-1.78722e-05
-4.80924e-05
-8.52759e-05
-0.000126092
-0.000168848
-0.000212604
-0.000256302
-0.0002981
-0.00033494
-0.000362671
-0.000376765
-0.000373005
-0.000347782
-0.000300528
-0.000235508
-0.000162263
-9.31923e-05
-3.96248e-05
-8.30743e-06
0
0
-3.48894e-05
-8.52865e-05
-0.000144134
-0.000208113
-0.000275322
-0.000344386
-0.000413527
-0.000479711
-0.00053821
-0.000582957
-0.000607375
-0.000605403
-0.000570402
-0.00049949
-0.000396839
-0.000276153
-0.000159207
-6.83822e-05
-1.58342e-05
0
0
-5.40969e-05
-0.000125789
-0.000206662
-0.000293869
-0.000385753
-0.000480864
-0.000576993
-0.000670241
-0.000754692
-0.000823105
-0.000867751
-0.000880553
-0.000851124
-0.000768572
-0.000629948
-0.000448379
-0.000257081
-0.000102437
-1.86134e-05
0
0
-7.37428e-05
-0.000166907
-0.000269735
-0.000380019
-0.000496682
-0.000618606
-0.000743645
-0.000867779
-0.000985096
-0.00108934
-0.00117493
-0.00123359
-0.00124828
-0.00118682
-0.00102821
-0.000777319
-0.000474153
-0.000194
-2.76964e-05
0
0
-9.26727e-05
-0.000206652
-0.0003308
-0.000463576
-0.000604725
-0.000753872
-0.000909655
-0.00106927
-0.00122945
-0.00138944
-0.00155025
-0.00170032
-0.00179864
-0.00178501
-0.00162269
-0.00130964
-0.000882143
-0.000425536
-8.68112e-05
0
0
-0.000110041
-0.000243406
-0.000387529
-0.00054148
-0.000705956
-0.00088168
-0.00106883
-0.00126736
-0.00147929
-0.0017124
-0.00197175
-0.00223002
-0.00241634
-0.00245054
-0.00229753
-0.00195246
-0.00143699
-0.00081251
-0.000237423
0
0
-0.000125149
-0.000275732
-0.000437679
-0.000610515
-0.000795858
-0.000995667
-0.001212
-0.00144814
-0.00171181
-0.00201757
-0.0023667
-0.00271247
-0.00296188
-0.00302784
-0.00288133
-0.0025304
-0.00198981
-0.00127276
-0.000482618
0
0
-0.000137425
-0.000302395
-0.000479219
-0.000667621
-0.000869931
-0.00108917
-0.00132904
-0.00159538
-0.00189935
-0.00225824
-0.00266599
-0.00306265
-0.00334132
-0.00341394
-0.00326206
-0.00291265
-0.00239081
-0.00167387
-0.000757013
0
0
-0.000146489
-0.000322504
-0.000510621
-0.000710422
-0.000924596
-0.0011568
-0.00141163
-0.00169592
-0.00202102
-0.00240251
-0.00283003
-0.00324175
-0.00352879
-0.00360329
-0.00344721
-0.00309794
-0.0025987
-0.00192907
-0.000990338
0
0
-0.000152224
-0.000335696
-0.000531163
-0.000737709
-0.000957974
-0.00119571
-0.00145552
-0.00174364
-0.00206896
-0.00244287
-0.00285588
-0.00325314
-0.00353429
-0.00361305
-0.00346748
-0.00313557
-0.00266244
-0.00204265
-0.00114451
0
0
-0.000154847
-0.000342271
-0.000541109
-0.000749675
-0.00097019
-0.00120608
-0.00146127
-0.00174034
-0.00204916
-0.00239343
-0.0027644
-0.00311689
-0.00337446
-0.00346081
-0.00334725
-0.00305763
-0.00263144
-0.00206738
-0.00122772
0
0
-0.000154996
-0.00034328
-0.000541782
-0.000747889
-0.000963299
-0.00119085
-0.00143365
-0.00169464
-0.00197641
-0.00227979
-0.00259632
-0.00289266
-0.00311364
-0.00320057
-0.00312569
-0.00289585
-0.00253531
-0.00204
-0.00126858
0
0
-0.000153824
-0.000340615
-0.000535644
-0.000735409
-0.000941002
-0.0011548
-0.00137923
-0.00161606
-0.00186572
-0.00212613
-0.00238876
-0.00263059
-0.00281415
-0.00289833
-0.00285785
-0.00268946
-0.00240251
-0.00198499
-0.00129022
0
0
-0.000153084
-0.000337174
-0.000526199
-0.00071621
-0.000907964
-0.00110361
-0.00130525
-0.00151411
-0.00172974
-0.00194903
-0.00216412
-0.00235946
-0.00251101
-0.00259104
-0.00257879
-0.00246589
-0.00225163
-0.00191285
-0.00130473
0
0
-0.000155284
-0.000336379
-0.000517739
-0.000695036
-0.00086947
-0.00104332
-0.0012187
-0.00139684
-0.0015774
-0.0017577
-0.00193162
-0.00208866
-0.00221393
-0.00228949
-0.00229972
-0.00223409
-0.0020865
-0.00181749
-0.00130413
0
0
-0.000166417
-0.000345839
-0.000516281
-0.000677235
-0.000830641
-0.000979103
-0.00112492
-0.00126969
-0.00141372
-0.00155554
-0.00169132
-0.00181453
-0.00191624
-0.00198603
-0.00201376
-0.00198797
-0.00189914
-0.00168727
-0.0012714
0
0
-0.000189793
-0.00036264
-0.000516809
-0.000657811
-0.000786711
-0.000905702
-0.00101782
-0.00112543
-0.00122977
-0.00133076
-0.00142694
-0.00151534
-0.00159199
-0.00165188
-0.00168957
-0.00169259
-0.00165175
-0.00149979
-0.00119155
0
0
-0.000230817
-0.000389524
-0.000497557
-0.000587074
-0.000665786
-0.000735893
-0.000799859
-0.000859655
-0.000916285
-0.000970117
-0.00102097
-0.0010681
-0.00111021
-0.00114522
-0.00117082
-0.00118163
-0.00117506
-0.00110395
-0.000999179
0
0
0
0
0
0
0
0
0
0
0
0
0
0
0
0
0
0
0
0
0
0
0
0
0
0
0
0
0
0
0
0
0
0
0
0
0
0
0
0
0
0
0
0
-5.53928e-06
-1.78826e-05
-3.43391e-05
-5.26625e-05
-7.18329e-05
-9.14616e-05
-0.000111217
-0.000130442
-0.000147814
-0.000161277
-0.000168541
-0.000167459
-0.000155761
-0.000133457
-0.000102803
-6.86488e-05
-3.69256e-05
-1.30578e-05
-8.41158e-07
0
0
-1.78722e-05
-4.80924e-05
-8.52759e-05
-0.000126092
-0.000168848
-0.000212604
-0.000256302
-0.0002981
-0.00033494
-0.000362671
-0.000376765
-0.000373005
-0.000347782
-0.000300528
-0.000235508
-0.000162263
-9.31923e-05
-3.96248e-05
-8.30743e-06
0
0
-3.48894e-05
-8.52865e-05
-0.000144134
-0.000208113
-0.000275322
-0.000344386
-0.000413527
-0.000479711
-0.00053821
-0.000582957
-0.000607375
-0.000605403
-0.000570402
-0.00049949
-0.000396839
-0.000276153
-0.000159207
-6.83822e-05
-1.58342e-05
0
0
-5.40969e-05
-0.000125789
-0.000206662
-0.000293869
-0.000385753
-0.000480864
-0.000576993
-0.000670241
-0.000754692
-0.000823105
-0.000867751
-0.000880553
-0.000851124
-0.000768572
-0.000629948
-0.000448379
-0.000257081
-0.000102437
-1.86134e-05
0
0
-7.37428e-05
-0.000166907
-0.000269735
-0.000380019
-0.000496682
-0.000618606
-0.000743645
-0.000867779
-0.000985096
-0.00108934
-0.00117493
-0.00123359
-0.00124828
-0.00118682
-0.00102821
-0.000777319
-0.000474153
-0.000194
-2.76964e-05
0
0
-9.26727e-05
-0.000206652
-0.0003308
-0.000463576
-0.000604725
-0.000753872
-0.000909655
-0.00106927
-0.00122945
-0.00138944
-0.00155025
-0.00170032
-0.00179864
-0.00178501
-0.00162269
-0.00130964
-0.000882143
-0.000425536
-8.68112e-05
0
0
-0.000110041
-0.000243406
-0.000387529
-0.00054148
-0.000705956
-0.00088168
-0.00106883
-0.00126736
-0.00147929
-0.0017124
-0.00197175
-0.00223002
-0.00241634
-0.00245054
-0.00229753
-0.00195246
-0.00143699
-0.00081251
-0.000237423
0
0
-0.000125149
-0.000275732
-0.000437679
-0.000610515
-0.000795858
-0.000995667
-0.001212
-0.00144814
-0.00171181
-0.00201757
-0.0023667
-0.00271247
-0.00296188
-0.00302784
-0.00288133
-0.0025304
-0.00198981
-0.00127276
-0.000482618
0
0
-0.000137425
-0.000302395
-0.000479219
-0.000667621
-0.000869931
-0.00108917
-0.00132904
-0.00159538
-0.00189935
-0.00225824
-0.00266599
-0.00306265
-0.00334132
-0.00341394
-0.00326206
-0.00291265
-0.00239081
-0.00167387
-0.000757013
0
0
-0.000146489
-0.000322504
-0.000510621
-0.000710422
-0.000924596
-0.0011568
-0.00141163
-0.00169592
-0.00202102
-0.00240251
-0.00283003
-0.00324175
-0.00352879
-0.00360329
-0.00344721
-0.00309794
-0.0025987
-0.00192907
-0.000990338
0
0
-0.000152224
-0.000335696
-0.000531163
-0.000737709
-0.000957974
-0.00119571
-0.00145552
-0.00174364
-0.00206896
-0.00244287
-0.00285588
-0.00325314
-0.00353429
-0.00361305
-0.00346748
-0.00313557
-0.00266244
-0.00204265
-0.00114451
0
0
-0.000154847
-0.000342271
-0.000541109
-0.000749675
-0.00097019
-0.00120608
-0.00146127
-0.00174034
-0.00204916
-0.00239343
-0.0027644
-0.00311689
-0.00337446
-0.00346081
-0.00334725
-0.00305763
-0.00263144
-0.00206738
-0.00122772
0
0
-0.000154996
-0.00034328
-0.000541782
-0.000747889
-0.000963299
-0.00119085
-0.00143365
-0.00169464
-0.00197641
-0.00227979
-0.00259632
-0.00289266
-0.00311364
-0.00320057
-0.00312569
-0.00289585
-0.00253531
-0.00204
-0.00126858
0
0
-0.000153824
-0.000340615
-0.000535644
-0.000735409
-0.000941002
-0.0011548
-0.00137923
-0.00161606
-0.00186572
-0.00212613
-0.00238876
-0.00263059
-0.00281415
-0.00289833
-0.00285785
-0.00268946
-0.00240251
-0.00198499
-0.00129022
0
0
-0.000153084
-0.000337174
-0.000526199
-0.00071621
-0.000907964
-0.00110361
-0.00130525
-0.00151411
-0.00172974
-0.00194903
-0.00216412
-0.00235946
-0.00251101
-0.00259104
-0.00257879
-0.00246589
-0.00225163
-0.00191285
-0.00130473
0
0
-0.000155284
-0.000336379
-0.000517739
-0.000695036
-0.00086947
-0.00104332
-0.0012187
-0.00139684
-0.0015774
-0.0017577
-0.00193162
-0.00208866
-0.00221393
-0.00228949
-0.00229972
-0.00223409
-0.0020865
-0.00181749
-0.00130413
0
0
-0.000166417
-0.000345839
-0.000516281
-0.000677235
-0.000830641
-0.000979103
-0.00112492
-0.00126969
-0.00141372
-0.00155554
-0.00169132
-0.00181453
-0.00191624
-0.00198603
-0.00201376
-0.00198797
-0.00189914
-0.00168727
-0.0012714
0
0
-0.000189793
-0.00036264
-0.000516809
-0.000657811
-0.000786711
-0.000905702
-0.00101782
-0.00112543
-0.00122977
-0.00133076
-0.00142694
-0.00151534
-0.00159199
-0.00165188
-0.00168957
-0.00169259
-0.00165175
-0.00149979
-0.00119155
0
0
-0.000230817
-0.000389524
-0.000497557
-0.000587074
-0.000665786
-0.000735893
-0.000799859
-0.000859655
-0.000916285
-0.000970117
-0.00102097
-0.0010681
-0.00111021
-0.00114522
-0.00117082
-0.00118163
-0.00117506
-0.00110395
-0.000999179
0
0
0
0
0
0
0
0
0
0
0
0
0
0
0
0
0
0
0
0
0
0
)
;

boundaryField
{
    movingWall
    {
        type            calculated;
    }
    fixedWalls
    {
        type            calculated;
    }
    frontAndBack
    {
        type            empty;
    }
}


// ************************************************************************* //
