/*--------------------------------*- C++ -*----------------------------------*\
| =========                 |                                                 |
| \\      /  F ield         | OpenFOAM: The Open Source CFD Toolbox           |
|  \\    /   O peration     | Version:  2312                                  |
|   \\  /    A nd           | Website:  www.openfoam.com                      |
|    \\/     M anipulation  |                                                 |
\*---------------------------------------------------------------------------*/
FoamFile
{
    version     2.0;
    format      ascii;
    arch        "LSB;label=32;scalar=64";
    class       surfaceScalarField;
    location    "1.5";
    object      surfaceDivU;
}
// * * * * * * * * * * * * * * * * * * * * * * * * * * * * * * * * * * * * * //

dimensions      [0 0 -1 0 0 0 0];

internalField   nonuniform List<scalar> 
760
(
0.0214056
-0.0114103
0.0333142
0.0234954
0.0300907
0.0017922
0.0329381
0.00374864
0.0322837
0.00412962
0.0317721
0.00484404
0.0310643
0.00579973
0.0261611
0.00662504
0.0211398
0.00371
0.0225135
0.0065717
0.0214937
0.012722
0.00687873
0.0140998
-0.0185659
0.0208686
-0.05669
0.0123447
-0.0930532
-0.013794
-0.0974842
-0.0291517
-0.0629963
-0.0220536
-0.019969
0.0130528
-0.000640915
0.0196912
0.0255545
-0.0093205
-0.0281111
-0.00802663
0.0165703
-0.0245499
-0.013484
-0.0250598
-0.019128
-0.0233101
-0.0179961
-0.0211284
-0.0161191
-0.0186396
-0.0143929
-0.0158261
-0.0124292
-0.0108581
-0.00951803
-0.00321977
-0.00244008
0.00532803
0.00714132
0.0280896
0.0202389
0.0517791
0.0552292
0.0552406
0.0673075
0.0501075
0.0659266
0.0462789
0.054984
0.0539956
0.0353755
0.0527131
0.0440398
0.0458867
0.0271565
0.0395841
-0.00222037
-0.0379871
0.0111129
0.0261599
-0.00806215
-0.000332346
-0.0120644
-0.0102943
-0.0108052
-0.0101479
-0.00938359
-0.00892448
-0.00818255
-0.00856308
-0.00612113
-0.00762613
-0.00110005
-0.00498809
0.00792102
0.00202693
0.0220522
0.0139981
0.0473785
0.0331462
0.0707576
0.0767847
0.0779934
0.12652
0.0708031
0.134925
0.0440806
0.110203
0.0254197
0.0736724
0.0184832
0.028921
0.0208539
0.00869976
0.0261671
-0.00960685
-0.0454763
0.0147146
0.0277516
-0.00256445
0.00618305
-0.00837775
-0.00532461
-0.00826719
-0.00618324
-0.00810397
-0.00547945
-0.00800666
-0.00616062
-0.00649309
-0.00481288
-0.00186111
-3.04855e-06
0.00810397
0.00867593
0.0250921
0.0234606
0.0625524
0.0451185
0.132547
0.064865
0.183452
0.0784686
0.174325
0.0575206
0.139795
0.0430739
0.0771737
0.0570865
0.0191376
0.135151
0.014013
0.0318408
-0.028286
-0.0081179
-0.0435072
0.01922
0.0282835
0.00342289
0.00974646
-0.0031301
-0.00213261
-0.00339549
-0.00379215
-0.0035361
-0.00356923
-0.00296684
-0.00520898
0.00167716
-0.00155072
0.010534
0.00676319
0.0240326
0.00465776
0.043487
-0.0156054
0.0474311
-0.0495566
0.0107863
-0.091854
-0.0474627
-0.139843
-0.0737309
-0.199574
-0.0396346
-0.229457
0.115064
-0.199828
0.147854
0.0210762
-0.0104582
0.0174718
0.193926
-0.00710578
-0.0391817
0.01881
0.0263179
0.00419096
0.0101356
-0.00279466
-0.00152273
-0.00396589
-0.00416296
-0.00524212
-0.00502336
-0.00379286
-0.0083198
0.00353531
-0.000948857
0.000886958
0.0097274
-0.0349802
-0.0261357
-0.108649
-0.131436
-0.188842
-0.228796
-0.242483
-0.21309
-0.291954
-0.186431
-0.3553
-0.271598
-0.389651
-0.328726
-0.293816
-0.322581
-0.109306
-0.335658
0.221856
-0.218571
0.463923
-0.00575802
-0.0335131
0.0176435
0.0238256
0.00442187
0.0102115
-0.00289103
-0.000392878
-0.00522043
-0.00353933
-0.00810105
-0.00471678
-0.0054758
-0.00786933
0.00524323
0.0087198
-0.0172953
0.0238451
-0.122591
-0.0368771
-0.251583
-0.194398
-0.253044
-0.261752
-0.157037
-0.113825
-0.166075
0.0509548
-0.245024
0.0735289
-0.261656
0.00156736
-0.364423
0.0349769
-0.444923
-0.182572
0.0234963
-0.825227
0.277862
-0.00392947
-0.0267
0.0163936
0.0210657
0.0053967
0.0102866
-0.00104118
0.00165482
-0.00303567
-0.0010058
-0.00448506
-0.000812609
0.00632627
-0.000150463
0.0273217
0.0270429
0.00426333
0.051701
-0.108684
-0.0049478
-0.204567
-0.191214
-0.122533
-0.173204
0.0941669
0.132798
0.290559
0.397705
0.32012
0.413596
0.298201
0.207404
0.216828
0.318625
-0.562876
0.426764
-0.570862
-0.917176
-0.160469
-0.00170486
-0.0188919
0.0149587
0.0178204
0.00654477
0.0101386
0.0016902
0.00376922
0.00121727
0.00208786
0.00352199
0.00430157
0.0205662
0.00923013
0.0514222
0.0400031
0.0424899
0.0692196
-0.0874776
0.0302758
-0.159851
-0.184161
0.0821271
-0.116792
0.436336
0.302401
0.520742
0.542603
0.300879
0.311781
0.227828
-0.00241847
0.52856
0.077288
0.0724634
0.709238
-0.506784
0.11212
-0.639376
0.000633389
-0.0106464
0.0130003
0.0143182
0.00736306
0.0093686
0.00416688
0.00504757
0.00517216
0.00408514
0.0100097
0.00752145
0.028667
0.0137944
0.0578005
0.0387124
0.0570056
0.0721835
-0.0664076
0.0236936
-0.141102
-0.128274
0.103482
-0.104842
0.408668
0.275989
0.333642
0.468808
0.00848336
0.195335
-0.152958
-0.0898685
0.257966
-0.197026
0.748895
0.367526
-0.020472
1.02843
-0.781478
0.00303837
-0.00358647
0.0106865
0.0111849
0.00705312
0.00762478
0.00496583
0.00494942
0.00643443
0.00449251
0.0113062
0.00779902
0.0238399
0.0118126
0.0530954
0.0238118
0.0388715
0.0627415
-0.0381724
-0.00439896
-0.0920132
-0.0617924
0.0676656
-0.148558
0.336129
0.140332
0.330501
0.417219
0.0969831
0.254727
-0.133937
-0.0356608
-0.0874658
-0.191649
0.647058
-0.0627287
0.267421
0.956144
-0.504811
0.00456006
0.0025687
0.00812319
0.00773548
0.00552109
0.0054251
0.0044761
0.00381001
0.0058571
0.00403153
0.00830541
0.00595891
0.0117845
0.00716584
0.0334579
0.00895874
0.019471
0.0346485
-0.0280189
-0.0193081
-0.118337
-0.0747149
-0.0758918
-0.200551
0.221422
-0.0711951
0.341446
0.246068
0.122084
0.172818
-0.0933732
-0.0945251
-0.166912
-0.159131
0.246358
-0.126163
0.183913
0.408818
-0.226237
0.00574412
0.00400531
0.0050374
0.00367163
0.00371402
0.00215911
0.00336543
0.00111172
0.00413334
0.00118775
0.00481934
0.00159668
0.00434008
0.00166391
0.0101494
-0.000186811
-0.00413063
0.00334056
-0.0660041
-0.0290473
-0.156929
-0.104777
-0.195854
-0.179253
-0.0465493
-0.174093
0.0774395
0.0148427
-0.043791
0.0123153
-0.160283
-0.118522
-0.118383
-0.149672
0.0362965
-0.0580919
-0.00133161
0.0614944
-0.0140773
0.00193281
0.0322889
0.00079334
0.0139496
-0.000443187
0.00501219
-0.00106596
0.00116219
-0.0013489
-0.000897409
-0.00155875
-0.00210489
-0.00286299
-0.0035729
-0.00699564
-0.00620537
-0.0215761
-0.0124662
-0.06782
-0.0293886
-0.127101
-0.0761906
-0.157492
-0.108581
-0.112701
-0.110497
-0.0502815
-0.0261783
-0.0624161
0.00376902
-0.107911
-0.0503337
-0.0893811
-0.110531
-0.0328941
-0.0787781
0.0487487
-0.0149878
0.126028
0.0443057
-0.108715
0.0181684
-0.0991421
0.00661757
-0.063592
0.00133074
-0.0353136
-0.0016534
-0.0173901
-0.00411904
-0.00762589
-0.00691528
-0.00346307
-0.0116759
-0.00239852
-0.0202786
-0.00510325
-0.0377592
-0.0123038
-0.0576707
-0.0270539
-0.0615866
-0.0345617
-0.0239746
-0.023348
0.0278723
0.0223739
0.0158514
0.0489036
-0.0529541
-0.0186481
-0.0999285
-0.0733361
-0.0608718
-0.157294
0.0622915
-0.15398
-0.316825
-0.252163
0.338157
-0.180903
0.304759
-0.105523
0.254338
-0.0540344
0.168539
-0.0233626
0.120115
-0.00696991
0.0917844
0.00105369
0.0741273
0.00417415
0.0615455
0.00287162
0.0510143
-0.00159846
0.0396318
-0.00394493
0.0297451
0.00367685
0.0253629
0.0230005
0.0400466
0.0434052
0.0565307
0.014404
0.0772848
-0.0390301
-0.0337937
-0.130702
0.102224
-0.250402
-0.163101
-0.533097
-0.443734
-1.30894
0.895078
-0.543883
0.739999
-0.695084
0.5284
-0.519272
0.342688
-0.357157
0.235262
-0.261051
0.172882
-0.202403
0.134619
-0.156838
0.108386
-0.123266
0.0877745
-0.0988305
0.0709754
-0.0819674
0.0590529
-0.0676757
0.0617327
-0.0523244
0.0735769
-0.0334479
0.0904104
-0.024477
0.0290871
0.0303675
0.107461
-0.19001
0.0698246
0.631809
-0.356432
-0.12564
-1.21957
-0.0360172
-0.324
-2.13405
0.590368
-1.95435
0.434536
-1.40483
0.310841
-0.960896
0.160052
-0.698716
0.123434
-0.532123
0.0960655
-0.414724
0.0642647
-0.330482
0.0353778
-0.268572
0.0142256
-0.220618
0.00168685
-0.179053
-0.00304927
-0.147505
0.00153083
-0.131502
0.013424
-0.0845198
0.00394189
-0.18873
0.123158
0.334339
-0.299022
0.436344
1.28152
0.194775
-1.59782
0.859555
2.49524
4.01771
3.15895
1.26575
2.69973
-0.109052
1.87572
0.789927
1.24438
0.510327
0.918215
0.26985
0.692453
0.190399
0.514366
0.155432
0.380086
0.118623
0.284485
0.0840955
0.219256
0.0598136
0.177535
0.0451104
0.16246
0.0366411
0.148868
0.0463394
0.21162
0.00792098
0.0128655
0.151078
0.648162
-0.460765
-0.752638
1.56742
0.702644
-5.60566
5.65339
10.4746
-5.54008
-2.00225
-2.01886
-0.575467
-0.464204
-0.457966
-0.346622
-0.240311
-0.177367
-0.140576
-0.114332
-0.095783
-0.0794794
-0.0946073
-0.0526205
-0.322553
0.458497
-3.2856
4.16629
-0.718874
)
;

boundaryField
{
    movingWall
    {
        type            calculated;
        value           nonuniform List<scalar> 
20
(
-0.693087
-3.31142
-0.726293
-0.424642
-0.503767
-0.412165
-0.281078
-0.199543
-0.155191
-0.125961
-0.102703
-0.0888626
-0.0700961
-0.119119
0.0138776
-0.658983
1.57598
-8.14717
16.4797
-17.9175
)
;
    }
    fixedWalls
    {
        type            calculated;
        value           nonuniform List<scalar> 
60
(
0.00306967
-0.0258903
-0.0303319
-0.0456422
-0.0453104
-0.041704
-0.0366594
-0.0303668
-0.0230332
-0.0147505
-0.00654228
-0.000630664
0.00576806
0.00224255
0.0623352
-0.279766
0.956079
-2.04385
3.22458
-0.693087
0.00250408
0.048605
0.0305633
0.021771
-0.078343
0.466195
0.461652
0.0940712
-0.41501
-0.863742
-0.699214
-0.310408
-0.142065
0.113911
0.138146
-0.771796
-1.84608
1.19807
6.83734
-17.9175
0.00306967
0.0397414
0.026887
0.0332945
0.0325817
0.0319857
0.0315585
0.0305701
0.0217522
0.0205273
0.0244996
0.0184878
-0.00473038
-0.0324013
-0.0809786
-0.105128
-0.0898405
-0.0361521
-0.00378591
0.00250408
)
;
    }
    frontAndBack
    {
        type            empty;
        value           nonuniform List<scalar> 0();
    }
}


// ************************************************************************* //
