/*--------------------------------*- C++ -*----------------------------------*\
| =========                 |                                                 |
| \\      /  F ield         | OpenFOAM: The Open Source CFD Toolbox           |
|  \\    /   O peration     | Version:  2312                                  |
|   \\  /    A nd           | Website:  www.openfoam.com                      |
|    \\/     M anipulation  |                                                 |
\*---------------------------------------------------------------------------*/
FoamFile
{
    version     2.0;
    format      ascii;
    arch        "LSB;label=32;scalar=64";
    class       surfaceScalarField;
    location    "1.5";
    object      surfaceK;
}
// * * * * * * * * * * * * * * * * * * * * * * * * * * * * * * * * * * * * * //

dimensions      [0 2 -2 0 0 0 0];

internalField   nonuniform List<scalar> 
760
(
0.000108885
0.000107316
0.000153311
0.000173262
0.000196583
0.000227769
0.000235192
0.000269231
0.000270885
0.000302664
0.000305176
0.000331983
0.000338567
0.000359974
0.000370265
0.000388126
0.000398195
0.000416442
0.000417054
0.000443237
0.000424935
0.000463567
0.000423483
0.000478809
0.000408932
0.000484598
0.000380164
0.000476787
0.000338396
0.000455595
0.000284877
0.000409102
0.000224186
0.000342293
0.000160809
0.000262327
0.000108844
0.00017381
0.000108353
0.000171693
0.000153714
0.000247721
0.000262493
0.000300417
0.000335966
0.000336703
0.000384541
0.000363762
0.000418659
0.000386781
0.000445153
0.000409533
0.000469023
0.000434302
0.000493747
0.000461483
0.000521205
0.00048975
0.000551647
0.000517442
0.000583767
0.000539925
0.000615733
0.000552453
0.000639465
0.000552218
0.000649338
0.000526301
0.000643514
0.000466519
0.000592888
0.000380433
0.000502679
0.000275328
0.000385864
0.000173318
0.000252106
0.000149009
0.000244514
0.000204074
0.000350738
0.000344236
0.000420091
0.000436253
0.000466497
0.000496657
0.00050005
0.000539318
0.000527395
0.000572503
0.000553237
0.000602241
0.00058065
0.00063266
0.000611369
0.000666292
0.000645663
0.000704518
0.000682058
0.000747158
0.000715273
0.000791686
0.00073635
0.000830067
0.000740634
0.000851056
0.000710101
0.000856011
0.000629048
0.000806763
0.000508109
0.00069128
0.000362642
0.000519032
0.000227797
0.000319619
0.000185929
0.000303797
0.000249059
0.000429751
0.000407373
0.00051282
0.000513931
0.000569478
0.000585014
0.000611771
0.000637159
0.000647349
0.000679822
0.000681664
0.000719883
0.000718303
0.000761989
0.000759442
0.000809287
0.000806013
0.000864198
0.000856786
0.000927583
0.00090648
0.000994409
0.000944774
0.00105291
0.000966433
0.00110102
0.000952673
0.00114231
0.000868996
0.00113849
0.000702203
0.0010406
0.000476008
0.000801888
0.000277751
0.000440691
0.000220511
0.000352636
0.000289032
0.000491553
0.000456416
0.000586125
0.000574744
0.000652694
0.000655779
0.00070521
0.000718122
0.000752356
0.00077257
0.000800208
0.000826923
0.000852973
0.000886679
0.000914043
0.000956408
0.000985767
0.00103983
0.00106521
0.00113376
0.00114084
0.00121151
0.00120916
0.00125864
0.0012769
0.00130457
0.00132813
0.00137385
0.00131009
0.00143837
0.00114028
0.00144004
0.000766571
0.00130848
0.000383451
0.000810269
0.000323314
0.000392811
0.000324393
0.000539606
0.000493874
0.000644398
0.00062176
0.000721207
0.00071235
0.000785482
0.00078555
0.000847137
0.000853517
0.000913395
0.000925335
0.000990114
0.00100821
0.00108219
0.00110941
0.00118782
0.0012238
0.00128006
0.00130129
0.0013293
0.00132174
0.00135404
0.00131103
0.00140151
0.00131665
0.00148409
0.00137486
0.00156832
0.00148974
0.00160824
0.00163359
0.00135218
0.00173167
0.000750132
0.0015086
0.000730164
0.000425456
0.000355292
0.000576028
0.000521481
0.000689712
0.00065671
0.000776693
0.000755978
0.000853585
0.000839887
0.000931715
0.000921764
0.00102015
0.00101203
0.0011275
0.00111926
0.00125101
0.00124914
0.00133727
0.00135219
0.00134297
0.00136561
0.00130347
0.00128519
0.00127365
0.00118989
0.00129
0.00115832
0.00138051
0.00118319
0.001555
0.00133644
0.00175702
0.0015734
0.00188809
0.00187409
0.00148863
0.00209136
0.00160213
0.000451317
0.000381719
0.000602163
0.000540537
0.000722976
0.000680688
0.000819172
0.000787053
0.000908065
0.000880341
0.00100208
0.000974614
0.00111113
0.00108099
0.0012409
0.00120746
0.00135033
0.00134396
0.00138053
0.00140295
0.00130783
0.00135306
0.00117161
0.0011652
0.00107456
0.00100985
0.0010515
0.000960088
0.00113912
0.000962717
0.00135483
0.00113269
0.00169047
0.00140997
0.00207737
0.00181894
0.00220486
0.00232432
0.00259909
0.000470938
0.000403593
0.000619063
0.000552192
0.000744766
0.000694735
0.000848222
0.000805985
0.00094689
0.000906255
0.00105353
0.00100981
0.00117732
0.00112763
0.00131052
0.00126542
0.00139659
0.00139216
0.00137548
0.00142069
0.00121043
0.00131082
0.00100344
0.00103464
0.000895379
0.000864703
0.000871301
0.000815436
0.000956287
0.00081992
0.00118783
0.000988019
0.00153844
0.00129912
0.0020659
0.00172097
0.00271856
0.00238686
0.00328023
0.000484846
0.000420869
0.000627864
0.000557483
0.000755955
0.000699841
0.000864018
0.000813436
0.000969177
0.000917685
0.00108391
0.00102655
0.00121574
0.00115002
0.00134706
0.00129082
0.00141627
0.00141261
0.00135603
0.00143278
0.00113503
0.00129545
0.000895901
0.000993323
0.000784759
0.000795898
0.000764054
0.000734442
0.000851652
0.000750389
0.00109931
0.000918496
0.00148165
0.00125157
0.00204193
0.00169479
0.00294853
0.00238816
0.00367048
0.000493505
0.000433702
0.00062946
0.000557946
0.000757321
0.000698578
0.000867102
0.000812258
0.000975055
0.000917482
0.00109265
0.00102768
0.0012251
0.00115171
0.00135637
0.0012903
0.00142913
0.00141484
0.0013722
0.00145076
0.00115374
0.00133075
0.000893321
0.00104698
0.000745582
0.000808702
0.000720777
0.000724175
0.000817233
0.000754989
0.00107076
0.000924876
0.00146471
0.00127874
0.00204102
0.00171164
0.00311011
0.00242683
0.00394916
0.000498143
0.000442413
0.000627065
0.000555396
0.000753514
0.000693143
0.000862638
0.00080529
0.00097011
0.000909398
0.00108674
0.00101827
0.00121691
0.00113977
0.00134876
0.00127408
0.00143647
0.00140202
0.00140931
0.00146347
0.00122399
0.00139253
0.000962365
0.00118205
0.000787295
0.000917944
0.000758387
0.000805689
0.000862632
0.000850722
0.00113286
0.00103779
0.00152567
0.00139439
0.00209746
0.00175923
0.00326588
0.00250536
0.00419735
0.000499665
0.000448157
0.000621474
0.000550812
0.000744919
0.000684788
0.000852049
0.000794348
0.000957558
0.000896039
0.00107129
0.00100194
0.00119693
0.00111898
0.00132733
0.00124725
0.00142902
0.00137487
0.00144669
0.00146125
0.0013506
0.00144868
0.00113763
0.00134254
0.000936338
0.00113271
0.000898023
0.00100242
0.00102588
0.00104811
0.00129932
0.00122309
0.00162795
0.00150181
0.00216713
0.00178616
0.00343682
0.00256841
0.0044704
0.000499304
0.000451804
0.000614125
0.000545591
0.000734218
0.000675933
0.000838338
0.000782451
0.000940425
0.000880849
0.00104963
0.000982601
0.0011693
0.00109404
0.00129479
0.0012153
0.0014071
0.00133814
0.00146324
0.00144007
0.00144063
0.00147074
0.00133762
0.00143493
0.00119879
0.00133425
0.00115251
0.00122575
0.00124532
0.00125031
0.00142558
0.00135634
0.00166002
0.00153151
0.00218744
0.00172912
0.00360199
0.00259092
0.00479907
0.000498091
0.00045772
0.000607399
0.000542259
0.000724166
0.000669192
0.000824962
0.000772331
0.000923025
0.000866392
0.00102701
0.000962465
0.00114005
0.00106663
0.00125865
0.0011792
0.00137111
0.001294
0.00144757
0.00139664
0.00146503
0.00145519
0.00143156
0.00145153
0.00136121
0.00141152
0.00132355
0.00134051
0.00136132
0.00133756
0.00146227
0.00137965
0.00160061
0.00146931
0.0021326
0.00157061
0.00378801
0.00258866
0.00521887
0.000501887
0.000463232
0.000604052
0.00054273
0.000717357
0.000665287
0.000813761
0.000761878
0.000905832
0.000848664
0.00100208
0.000936141
0.00110578
0.00103
0.00121454
0.00113084
0.00131953
0.00123391
0.00140427
0.00132844
0.00144168
0.00139758
0.00143149
0.00141282
0.00139083
0.00139362
0.00135453
0.0013465
0.00135589
0.00131533
0.00138669
0.00132249
0.00143931
0.00135122
0.00202666
0.00142818
0.00401952
0.00263893
0.00577208
0.000504075
0.000489938
0.000603966
0.000559049
0.000709808
0.000682395
0.000796781
0.000771116
0.000878974
0.000849973
0.000964059
0.000929583
0.00105506
0.00101446
0.00115021
0.00110517
0.00124282
0.00119808
0.00132175
0.00128457
0.00136871
0.00135346
0.00137494
0.00138613
0.00134929
0.00137791
0.00130731
0.00134893
0.00128194
0.00130708
0.00128702
0.00128814
0.00134009
0.00130117
0.00204045
0.00147023
0.00439149
0.0029062
0.00656076
0.000544912
0.000621773
0.000637479
0.000759599
0.000743704
0.000976213
0.000824309
0.0011212
0.000900582
0.00123407
0.000979987
0.00133706
0.00106458
0.00143522
0.00115305
0.00153032
0.00123983
0.00162088
0.00131628
0.00170552
0.00137088
0.00177782
0.00138909
0.00183352
0.00137754
0.00185716
0.0013487
0.001875
0.00131328
0.00188198
0.00130229
0.00192181
0.00143132
0.00201021
0.00233599
0.00249718
0.00507547
0.00385468
0.00780126
0.00083646
0.00245834
0.00109833
0.00372209
0.00135371
0.00481395
0.00153096
0.00545656
0.00167055
0.00584246
0.00179229
0.00609573
0.00190096
0.00626016
0.00199816
0.00636881
0.00208657
0.00642298
0.00216706
0.00645685
0.00224046
0.00647263
0.00230158
0.00647251
0.00235462
0.0064662
0.00240829
0.0064615
0.00249052
0.00648186
0.00262973
0.00655114
0.00307608
0.00669642
0.00401587
0.00708024
0.00658047
0.00797042
0.00944295
0.00534397
0.00743771
0.0089168
0.00976806
0.0102676
0.0105636
0.010728
0.0107936
0.0107933
0.0107624
0.0107047
0.0106371
0.0105731
0.0105351
0.0105425
0.0106178
0.0107006
0.0110348
0.0108329
)
;

boundaryField
{
    movingWall
    {
        type            calculated;
        value           nonuniform List<scalar> 
20
(
0.00418891
0.00649902
0.00837639
0.0094572
0.0100789
0.0104564
0.0106708
0.0107852
0.0108021
0.0107844
0.0107404
0.010669
0.0106053
0.0105409
0.0105293
0.0105557
0.0106799
0.0107212
0.0113484
0.0103174
)
;
    }
    fixedWalls
    {
        type            calculated;
        value           nonuniform List<scalar> 
60
(
8.74623e-05
0.00012717
0.000180259
0.00022789
0.000270229
0.000307834
0.000340953
0.000369632
0.000393805
0.000413381
0.000428357
0.000439048
0.000445777
0.000450537
0.000453071
0.000462369
0.000464096
0.00051578
0.000727766
0.00418891
8.86982e-05
0.000128008
0.00017001
0.000201848
0.000239175
0.000407454
0.00105287
0.00215139
0.0030468
0.00351365
0.00382731
0.00407101
0.00432369
0.00461711
0.00498104
0.00545671
0.00608746
0.00703406
0.00856845
0.0103174
8.74623e-05
0.000130308
0.000176313
0.000216853
0.00025353
0.000288239
0.000322113
0.000355021
0.00038551
0.000410881
0.000423226
0.000426644
0.000420322
0.000397542
0.000362786
0.000314007
0.000255746
0.000192626
0.000128991
8.86982e-05
)
;
    }
    frontAndBack
    {
        type            empty;
        value           nonuniform List<scalar> 0();
    }
}


// ************************************************************************* //
