/*--------------------------------*- C++ -*----------------------------------*\
| =========                 |                                                 |
| \\      /  F ield         | OpenFOAM: The Open Source CFD Toolbox           |
|  \\    /   O peration     | Version:  2312                                  |
|   \\  /    A nd           | Website:  www.openfoam.com                      |
|    \\/     M anipulation  |                                                 |
\*---------------------------------------------------------------------------*/
FoamFile
{
    version     2.0;
    format      ascii;
    arch        "LSB;label=32;scalar=64";
    class       surfaceScalarField;
    location    "1.5";
    object      surfaceP;
}
// * * * * * * * * * * * * * * * * * * * * * * * * * * * * * * * * * * * * * //

dimensions      [0 2 -2 0 0 0 0];

internalField   nonuniform List<scalar> 
760
(
2.64331e-08
3.46862e-06
0
0
8.46454e-06
7.08814e-07
3.37598e-05
1.94809e-05
7.50197e-05
5.30859e-05
0.000132789
0.000100849
0.000210608
0.0001651
0.000313546
0.000249881
0.000447686
0.000360693
0.000622022
0.000504664
0.000846695
0.000693069
0.00112296
0.000934536
0.00143358
0.00122568
0.00174036
0.00154372
0.00199347
0.00183986
0.00215714
0.00206155
0.00222628
0.00218512
0.00222474
0.00221763
0.00219254
0.00219556
0.00215851
3.44219e-06
3.44219e-06
7.08814e-07
0
1.17251e-05
7.08814e-07
3.88069e-05
1.10163e-05
7.89148e-05
3.53747e-05
0.000133159
7.94801e-05
0.000204373
0.000136917
0.000297028
0.000210839
0.000417671
0.000306521
0.000575711
0.000432534
0.00078091
0.00060114
0.00103725
0.000823046
0.00133582
0.00110547
0.00164322
0.00143197
0.00190794
0.00175159
0.00208953
0.00200178
0.00217646
0.00214677
0.00218844
0.00218835
0.00216153
0.00216512
0.00212391
0
0
0
0
0
0
7.58404e-06
0
3.59399e-05
7.58404e-06
8.32375e-05
2.83559e-05
0.000143383
5.48816e-05
0.000220332
0.000103957
0.000321384
0.000179211
0.000457963
0.000283317
0.000643277
0.000431725
0.000891264
0.000640041
0.00120163
0.000923581
0.00154035
0.00128117
0.00184544
0.00165942
0.00205902
0.00196556
0.00215866
0.00213553
0.00216503
0.00217071
0.0021275
0.00212969
0.00207407
0
0
0
0
0
0
0
0
0
0
0
0
1.54554e-05
0
6.28359e-05
1.54554e-05
0.000141144
4.73805e-05
0.000257079
9.37633e-05
0.000428489
0.000163315
0.000672358
0.000326782
0.00100313
0.000583764
0.00140024
0.000956411
0.00177953
0.00139694
0.00204207
0.00180327
0.00214758
0.0020618
0.00213537
0.00212234
0.00207626
0.00208439
0.00199577
0
0
0
0
0
0
0
0
0
0
0
0
0
0
0
0
0
0
0
0
6.1609e-05
0
0.000238188
6.1609e-05
0.000537047
0.000176579
0.000953105
0.000360468
0.00142068
0.000592637
0.00182301
0.000846389
0.00203655
0.00148958
0.00207136
0.0019202
0.0020039
0.00202849
0.00187912
0
0
0
0
0
0
0
0
0
0
0
0
0
0
0
0
0
0
0
0
0
0
0
0
0
0
0
0
1.83494e-05
0
0.000512965
1.83494e-05
0.00137323
0.000494616
0.00187732
0.000980921
0.00190371
0.00186403
0.00184828
0
0
0
0
0
0
0
0
0
0
0
0
0
0
0
0
0
0
0
0
0
0
0
0
0
0
0
0
0
0
0
0
0.000102309
0
0.000967624
0.000102309
0.0018086
0.00114318
0.00179208
0
0
0
0
0
0
0
0
0
0
0
0
0
0
0
0
0
0
0
0
0
0
0
0
0
0
0
0
0
0
0
0
0
0
0.000277864
0
0.00112666
0.000277864
0.00108956
0
0
0
0
0
0
0
0
0
0
0
0
0
0
0
0
0
0
0
0
0
0
0
0
0
0
0
0
0
0
0
0
0
0
0
0
0.000240764
0
0.000240764
0
0
0
0
0
0
0
0
0
0
0
0
0
0
0
0
0
0
0
0
0
0
0
0
0
0
0
0
0
0
0
0
0
0
0
0
0
0
0
0
0
0
0
0
0
0
0
0
0
0
0
0
0
0
0
0
0
0
0
0
0
0
0
0
0
0
0
0
0
0
0
0
0
0
0
0
0
0
0
0
0
0
0
0
0
0
0
0
0
0
0
0
0
0
0
0
0
0
0
0
0
0
0
0
0
0
0
0
0
0
0
0
0
0
0
0
0
0
0
0
0
0
0
0
0
0
0
0
0
0
0
0
0
0
0
0
0
0
0
0
0
0
0
0
0
0
0
0
0
0
0
0
0
0
0
0
0
0
0
0
0
0
0
0
0
0
0
0
0
0
0
0
0
0
0
0
0
0
0
0
0
0
0
0
0
0
0
0
0
0
0
0
0
0
0
0
0
0
0
0
0
0
0
0
0
0
0
0
0
0
0
0
0
0
0
0
0
0
0
0
0
0
0
0
0
0
0
0
0
0
0
0
0
0
0
0
0
0
0
0
0
0
0
0
0
0
0
0
0
0
0
0
0
0
0
0
0
0
0
0
0
0
0
0
0
0
0
0
0
0
0
0
0
0
0
0
0
0
0
0
0
0
0
0
0
0
0
0
0
0
0
0
0
0
0
0
0
0
0
0
0
0
0
0
0
0
0
0
0
0
0
0
0
0
0
0
0
0
0
0
0
0
0
0
0
0
0
0
0
0
0
0
0
0
0
0
0
0
0
0
0
0
0
0
0
0
0
0.00014989
0
0.000927204
0.00731209
0
0
0
0.000605762
0
0.000235542
0
0
0
0
0
0
0
0
0
0
0
0
0
0
0
0
0
0
0
0
0
0
0
0
0
0
0.00014989
0
0.00107709
0.00158402
0.00823929
0.0031804
0.0358279
0.000605762
0.000841304
0.000235542
0
0
0
0
0
0
0
0
0
0
0
0
0
0.00143413
0.00368732
0.030769
)
;

boundaryField
{
    movingWall
    {
        type            calculated;
        value           nonuniform List<scalar> 
20
(
0
0.00121152
0.000471085
0
0
0
0
0
0
0
0
0
0
0
0
0
0
0.00286825
0.00450638
0.0570317
)
;
    }
    fixedWalls
    {
        type            calculated;
        value           nonuniform List<scalar> 
60
(
5.28662e-08
6.88437e-06
0
0
0
0
0
0
0
0
0
0
0
0
0
0
0
0
0
0
0.00217406
0.00214296
0.00210486
0.00204328
0.00194825
0.00181
0.00188657
0.00169759
0.000481527
0
0
0
0
0
0
0
0
0
0.0146242
0.0570317
5.28662e-08
0
0
1.69291e-05
5.05906e-05
9.94488e-05
0.000166129
0.000255087
0.000372005
0.000523367
0.000720676
0.000972715
0.00127321
0.00159396
0.00188676
0.00210019
0.0022141
0.00223847
0.00221102
0.00217406
)
;
    }
    frontAndBack
    {
        type            empty;
        value           nonuniform List<scalar> 0();
    }
}


// ************************************************************************* //
