/*--------------------------------*- C++ -*----------------------------------*\
| =========                 |                                                 |
| \\      /  F ield         | OpenFOAM: The Open Source CFD Toolbox           |
|  \\    /   O peration     | Version:  2312                                  |
|   \\  /    A nd           | Website:  www.openfoam.com                      |
|    \\/     M anipulation  |                                                 |
\*---------------------------------------------------------------------------*/
FoamFile
{
    version     2.0;
    format      ascii;
    arch        "LSB;label=32;scalar=64";
    class       surfaceVectorField;
    location    "1.5";
    object      surfaceU;
}
// * * * * * * * * * * * * * * * * * * * * * * * * * * * * * * * * * * * * * //

dimensions      [0 1 -1 0 0 0 0];

internalField   nonuniform List<vector> 
760
(
(-0.00117993 0.000677091 0)
(-0.00069994 0.00119528 0)
(-0.00357725 0.00128808 0)
(-0.00305489 0.00259603 0)
(-0.00688515 0.00163481 0)
(-0.00655241 0.00344233 0)
(-0.0105481 0.00177354 0)
(-0.0105121 0.00382939 0)
(-0.0143889 0.00183303 0)
(-0.0147256 0.00400375 0)
(-0.0183231 0.0018714 0)
(-0.0190782 0.00409409 0)
(-0.0222776 0.00188815 0)
(-0.0234906 0.00411233 0)
(-0.0261161 0.0018333 0)
(-0.0278248 0.0039914 0)
(-0.0296041 0.0016206 0)
(-0.0318478 0.00359668 0)
(-0.032285 0.00118957 0)
(-0.0352127 0.00278361 0)
(-0.0336649 0.00052862 0)
(-0.0373706 0.00150239 0)
(-0.0333452 -0.000475164 0)
(-0.0379241 -0.000227314 0)
(-0.0309225 -0.0016928 0)
(-0.0364719 -0.00244637 0)
(-0.026423 -0.0027883 0)
(-0.0327051 -0.00466143 0)
(-0.0204113 -0.00349282 0)
(-0.0269526 -0.00641667 0)
(-0.013778 -0.00355592 0)
(-0.0198878 -0.00715886 0)
(-0.00757615 -0.0029207 0)
(-0.0126315 -0.00665109 0)
(-0.00275719 -0.00171689 0)
(-0.00635173 -0.00499973 0)
(-0.000214134 -0.000387385 0)
(-0.00187163 -0.00256198 0)
(2.71517e-05 -0.000201614 0)
(-0.00257489 0.00311422 0)
(-0.00140452 0.00364072 0)
(-0.00603004 0.00475027 0)
(-0.00471769 0.00608742 0)
(-0.0101794 0.00563691 0)
(-0.00874341 0.00747513 0)
(-0.0146897 0.00605959 0)
(-0.0131833 0.0082107 0)
(-0.0194149 0.0062648 0)
(-0.0179039 0.0086074 0)
(-0.0242457 0.00633501 0)
(-0.0228102 0.00881338 0)
(-0.0290377 0.00621558 0)
(-0.0278012 0.00880455 0)
(-0.0335564 0.00575478 0)
(-0.0326961 0.00842344 0)
(-0.0374564 0.00475969 0)
(-0.0372048 0.00742509 0)
(-0.0402983 0.00309643 0)
(-0.0409344 0.00558859 0)
(-0.0416298 0.00074646 0)
(-0.0434459 0.00283855 0)
(-0.0410508 -0.00219851 0)
(-0.0443326 -0.000757773 0)
(-0.0382545 -0.00541499 0)
(-0.0431588 -0.00501025 0)
(-0.0332347 -0.0082898 0)
(-0.0394927 -0.00939586 0)
(-0.0264291 -0.0100827 0)
(-0.0333452 -0.0129553 0)
(-0.0187413 -0.010254 0)
(-0.0252127 -0.0146126 0)
(-0.0114071 -0.00873011 0)
(-0.0163112 -0.0137566 0)
(-0.00546617 -0.00584482 0)
(-0.00846734 -0.0106293 0)
(-0.00163034 -0.00237621 0)
(-0.00294654 -0.00618197 0)
(-0.000329272 -0.00158893 0)
(-0.00354732 0.00661393 0)
(-0.00187742 0.00703638 0)
(-0.00743106 0.00881228 0)
(-0.00568262 0.0101006 0)
(-0.0117474 0.0100489 0)
(-0.00985637 0.0117731 0)
(-0.0163976 0.0107585 0)
(-0.0143666 0.0127986 0)
(-0.0212992 0.011156 0)
(-0.0191679 0.0134506 0)
(-0.0263657 0.0112829 0)
(-0.0242168 0.0138301 0)
(-0.0314596 0.0110124 0)
(-0.0294505 0.0138543 0)
(-0.0363445 0.0100938 0)
(-0.0347169 0.0132707 0)
(-0.0406827 0.00825399 0)
(-0.0397591 0.0117398 0)
(-0.044082 0.00533071 0)
(-0.0442551 0.00900035 0)
(-0.0461488 0.00133432 0)
(-0.0478908 0.00497201 0)
(-0.0464407 -0.00356951 0)
(-0.0503544 -0.000312026 0)
(-0.044397 -0.00899111 0)
(-0.0511354 -0.006734 0)
(-0.0396032 -0.0140613 0)
(-0.0492845 -0.013802 0)
(-0.0321288 -0.0174851 0)
(-0.0438808 -0.0200374 0)
(-0.0227827 -0.0181152 0)
(-0.0346657 -0.023643 0)
(-0.0133715 -0.0156559 0)
(-0.0225908 -0.0230427 0)
(-0.00594771 -0.0109665 0)
(-0.0106001 -0.017924 0)
(-0.00164547 -0.00539469 0)
(-0.00239853 -0.0104285 0)
(9.95517e-05 -0.00308159 0)
(-0.00401273 0.0105231 0)
(-0.00205659 0.0108209 0)
(-0.00810793 0.0130615 0)
(-0.00606887 0.014328 0)
(-0.0124755 0.0145229 0)
(-0.0102849 0.0161558 0)
(-0.0171368 0.0154908 0)
(-0.0147758 0.0174193 0)
(-0.0220855 0.0161248 0)
(-0.0195716 0.0183562 0)
(-0.0273017 0.0164015 0)
(-0.0246954 0.0190068 0)
(-0.0327079 0.0161126 0)
(-0.0301598 0.019219 0)
(-0.0381315 0.0149167 0)
(-0.0358973 0.0186558 0)
(-0.0433315 0.0124861 0)
(-0.0417685 0.0169134 0)
(-0.0480639 0.00864165 0)
(-0.047666 0.0137405 0)
(-0.0520964 0.00332567 0)
(-0.053667 0.00907777 0)
(-0.0550491 -0.00347652 0)
(-0.0599095 0.00281829 0)
(-0.0560229 -0.0115449 0)
(-0.065881 -0.0053123 0)
(-0.053562 -0.019778 0)
(-0.0694311 -0.0153852 0)
(-0.0464176 -0.0261952 0)
(-0.0675575 -0.0262248 0)
(-0.0344738 -0.0285705 0)
(-0.0582707 -0.0348005 0)
(-0.0198194 -0.0253109 0)
(-0.0418813 -0.0370855 0)
(-0.00705087 -0.017386 0)
(-0.0216753 -0.0305324 0)
(-0.000653502 -0.00811538 0)
(-0.00384207 -0.0167946 0)
(0.00113481 -0.00362624 0)
(-0.00411274 0.0146258 0)
(-0.00204196 0.0147071 0)
(-0.00824583 0.0174222 0)
(-0.00603808 0.0186064 0)
(-0.0125851 0.0190522 0)
(-0.0101874 0.0205419 0)
(-0.0172106 0.0202847 0)
(-0.014584 0.0220321 0)
(-0.0221816 0.0212382 0)
(-0.0193159 0.0233085 0)
(-0.0275536 0.0218243 0)
(-0.0244666 0.0243635 0)
(-0.0333493 0.0217621 0)
(-0.0301453 0.0249946 0)
(-0.0395343 0.0206525 0)
(-0.036431 0.0248312 0)
(-0.0461029 0.0181678 0)
(-0.0434165 0.0235084 0)
(-0.0532691 0.0141766 0)
(-0.0515089 0.0209857 0)
(-0.0614802 0.0085704 0)
(-0.0617202 0.0174502 0)
(-0.0707415 0.000982515 0)
(-0.0748825 0.0123532 0)
(-0.0792892 -0.00915267 0)
(-0.0893716 0.0034362 0)
(-0.0834265 -0.021832 0)
(-0.100274 -0.0113409 0)
(-0.0794105 -0.0348301 0)
(-0.102902 -0.0306225 0)
(-0.0656782 -0.0433155 0)
(-0.0951254 -0.0488884 0)
(-0.0437372 -0.042307 0)
(-0.0765481 -0.0590672 0)
(-0.0184665 -0.029941 0)
(-0.0484863 -0.0546117 0)
(-0.00205376 -0.0123054 0)
(-0.0164173 -0.0329202 0)
(0.0016 -0.00607171 0)
(-0.00396731 0.0186877 0)
(-0.00190461 0.0184659 0)
(-0.00797962 0.0217261 0)
(-0.00570419 0.0227562 0)
(-0.0121863 0.0235218 0)
(-0.00965924 0.0247991 0)
(-0.0166893 0.0250559 0)
(-0.0138485 0.0265264 0)
(-0.0216009 0.0264338 0)
(-0.0183964 0.0282009 0)
(-0.0270584 0.0275339 0)
(-0.0234374 0.0298006 0)
(-0.0332271 0.0280637 0)
(-0.0291824 0.0311313 0)
(-0.0403132 0.0276872 0)
(-0.0358995 0.0319114 0)
(-0.0488225 0.0263263 0)
(-0.0439904 0.032059 0)
(-0.0599601 0.0242592 0)
(-0.0545743 0.0320908 0)
(-0.0751225 0.021233 0)
(-0.0696906 0.0322953 0)
(-0.0935126 0.0148069 0)
(-0.0898347 0.0299741 0)
(-0.110356 0.001248 0)
(-0.110333 0.0191604 0)
(-0.119749 -0.0201314 0)
(-0.124263 -0.00325317 0)
(-0.118617 -0.0446809 0)
(-0.128906 -0.0333689 0)
(-0.105995 -0.0646401 0)
(-0.124534 -0.0634491 0)
(-0.0812971 -0.0713719 0)
(-0.109531 -0.0857228 0)
(-0.0464371 -0.057591 0)
(-0.0815799 -0.0904524 0)
(-0.0127635 -0.0266865 0)
(-0.0416376 -0.0667062 0)
(-0.00286809 -0.0165042 0)
(-0.00364149 0.0225343 0)
(-0.0016789 0.0219241 0)
(-0.00738381 0.0258293 0)
(-0.00513021 0.0266242 0)
(-0.0113214 0.0278037 0)
(-0.00874938 0.0287875 0)
(-0.0155556 0.0296714 0)
(-0.0125785 0.0307541 0)
(-0.020233 0.0315677 0)
(-0.0167542 0.0328558 0)
(-0.0255615 0.033398 0)
(-0.0214361 0.0350993 0)
(-0.0318549 0.034979 0)
(-0.0269056 0.0373735 0)
(-0.0395768 0.0362832 0)
(-0.0335731 0.0396298 0)
(-0.0497423 0.0378235 0)
(-0.0420165 0.0422805 0)
(-0.0643049 0.0401269 0)
(-0.053808 0.0464245 0)
(-0.0844028 0.0410364 0)
(-0.071071 0.0513962 0)
(-0.106655 0.0343276 0)
(-0.0926269 0.0507077 0)
(-0.12424 0.0146592 0)
(-0.111714 0.0357336 0)
(-0.133419 -0.0164907 0)
(-0.122892 0.00536748 0)
(-0.134822 -0.0521372 0)
(-0.126345 -0.0330679 0)
(-0.12807 -0.0845319 0)
(-0.124993 -0.0715502 0)
(-0.109814 -0.104803 0)
(-0.118492 -0.105247 0)
(-0.0767804 -0.0995676 0)
(-0.100825 -0.125862 0)
(-0.0317422 -0.0565239 0)
(-0.0655743 -0.113818 0)
(-0.0168751 -0.0459382 0)
(-0.00316762 0.0260139 0)
(-0.00138503 0.0249399 0)
(-0.00649579 0.0295825 0)
(-0.00435659 0.0300649 0)
(-0.0100065 0.0317379 0)
(-0.0074963 0.0323496 0)
(-0.0137771 0.0339385 0)
(-0.0107943 0.0345273 0)
(-0.0179573 0.0363874 0)
(-0.0143692 0.037023 0)
(-0.0227802 0.0390747 0)
(-0.0183681 0.0399048 0)
(-0.0286237 0.0420242 0)
(-0.0230723 0.0431896 0)
(-0.0360128 0.045627 0)
(-0.0288973 0.0471095 0)
(-0.0460822 0.0508814 0)
(-0.0363326 0.0525324 0)
(-0.0605742 0.0576938 0)
(-0.0467126 0.0607766 0)
(-0.0792951 0.0610675 0)
(-0.0614206 0.0691702 0)
(-0.0976854 0.0521136 0)
(-0.0783455 0.0679993 0)
(-0.110365 0.0264418 0)
(-0.09122 0.0482868 0)
(-0.115817 -0.0112098 0)
(-0.0965499 0.0118875 0)
(-0.116516 -0.052481 0)
(-0.0963911 -0.0305321 0)
(-0.115416 -0.092265 0)
(-0.0955413 -0.0712862 0)
(-0.109503 -0.126305 0)
(-0.0964058 -0.109541 0)
(-0.0896187 -0.140112 0)
(-0.0933559 -0.145196 0)
(-0.0507072 -0.103232 0)
(-0.0736547 -0.158908 0)
(-0.0309471 -0.096175 0)
(-0.002574 0.0289908 0)
(-0.00104407 0.0273987 0)
(-0.0053571 0.0328321 0)
(-0.00343103 0.0329462 0)
(-0.00828412 0.035139 0)
(-0.00596522 0.0353281 0)
(-0.0113864 0.0376118 0)
(-0.00857502 0.0376436 0)
(-0.01478 0.0405404 0)
(-0.0113332 0.0404195 0)
(-0.0186602 0.0440196 0)
(-0.014336 0.0437942 0)
(-0.0233458 0.0482749 0)
(-0.0177901 0.0479011 0)
(-0.0292171 0.0540149 0)
(-0.0219757 0.0531605 0)
(-0.036963 0.0624276 0)
(-0.0270764 0.0606128 0)
(-0.047559 0.0722529 0)
(-0.0336697 0.071463 0)
(-0.060471 0.076102 0)
(-0.0422063 0.0811171 0)
(-0.0718801 0.0641725 0)
(-0.0518244 0.078775 0)
(-0.0774045 0.0337325 0)
(-0.0581186 0.0552659 0)
(-0.0771239 -0.00743481 0)
(-0.058358 0.0145156 0)
(-0.0754167 -0.0493374 0)
(-0.0560423 -0.0299406 0)
(-0.0765314 -0.0885626 0)
(-0.0550774 -0.0694614 0)
(-0.0802588 -0.128432 0)
(-0.0581534 -0.104246 0)
(-0.0773919 -0.163992 0)
(-0.0646383 -0.144345 0)
(-0.0538945 -0.151851 0)
(-0.0627412 -0.185398 0)
(-0.033957 -0.152145 0)
(-0.0019011 0.031354 0)
(-0.000684663 0.029226 0)
(-0.00403915 0.0354422 0)
(-0.00242177 0.0351643 0)
(-0.00625612 0.0378326 0)
(-0.00426466 0.037595 0)
(-0.00852177 0.0404513 0)
(-0.00607589 0.039933 0)
(-0.0108891 0.0436734 0)
(-0.00786444 0.0428049 0)
(-0.0134658 0.0476758 0)
(-0.00965305 0.0464047 0)
(-0.0164199 0.0527868 0)
(-0.0115278 0.0509216 0)
(-0.019835 0.0597584 0)
(-0.0135641 0.0567959 0)
(-0.0237832 0.0696482 0)
(-0.0155921 0.0649187 0)
(-0.0283171 0.0803271 0)
(-0.0173253 0.0762093 0)
(-0.0335597 0.0837901 0)
(-0.0187862 0.0854833 0)
(-0.0380629 0.0698684 0)
(-0.0203232 0.0827436 0)
(-0.039072 0.036049 0)
(-0.0210152 0.0578444 0)
(-0.0372764 -0.00799018 0)
(-0.0197221 0.0152373 0)
(-0.035703 -0.0500647 0)
(-0.0189825 -0.0306949 0)
(-0.0366994 -0.0851446 0)
(-0.0198419 -0.0691994 0)
(-0.0425328 -0.120159 0)
(-0.0237845 -0.0992076 0)
(-0.0499875 -0.165752 0)
(-0.0321789 -0.133516 0)
(-0.0428036 -0.185692 0)
(-0.0414409 -0.188468 0)
(-0.0282642 -0.199267 0)
(-0.00120533 0.0330363 0)
(-0.00034079 0.0303987 0)
(-0.00264728 0.0373171 0)
(-0.00142005 0.0366693 0)
(-0.00408443 0.0396953 0)
(-0.00254183 0.0390759 0)
(-0.00541856 0.0422865 0)
(-0.00350941 0.0412939 0)
(-0.00662837 0.0455361 0)
(-0.00426599 0.0440376 0)
(-0.00771506 0.0496505 0)
(-0.00476215 0.0475329 0)
(-0.00867204 0.0549307 0)
(-0.00496698 0.0519502 0)
(-0.00932123 0.0619562 0)
(-0.0047829 0.0576119 0)
(-0.00913419 0.0714797 0)
(-0.00380679 0.0650958 0)
(-0.00779441 0.0813654 0)
(-0.00110291 0.074894 0)
(-0.00554961 0.0844368 0)
(0.00331224 0.0828322 0)
(-0.00327547 0.0707196 0)
(0.00909903 0.0799556 0)
(-0.00166527 0.0370327 0)
(0.0132699 0.0574247 0)
(-0.00142814 -0.00746741 0)
(0.0154812 0.0171709 0)
(-0.00312139 -0.0498296 0)
(0.0138394 -0.0278674 0)
(-0.00692708 -0.0832624 0)
(0.00849971 -0.0655581 0)
(-0.0134306 -0.112564 0)
(0.000905024 -0.093879 0)
(-0.0236323 -0.156232 0)
(-0.00825294 -0.123014 0)
(-0.0269015 -0.202044 0)
(-0.0210896 -0.179029 0)
(-0.0200771 -0.229664 0)
(-0.000555509 0.0340317 0)
(-5.27408e-05 0.030951 0)
(-0.0013146 0.0384281 0)
(-0.000538393 0.0374772 0)
(-0.00196681 0.0406745 0)
(-0.000969526 0.0397606 0)
(-0.00235684 0.043045 0)
(-0.00111552 0.0417066 0)
(-0.00239977 0.0460343 0)
(-0.000866079 0.0441025 0)
(-0.00201407 0.0498325 0)
(-0.000125571 0.0471837 0)
(-0.00107785 0.0546313 0)
(0.00120382 0.0510604 0)
(0.000731536 0.0607515 0)
(0.00331297 0.0558738 0)
(0.00422449 0.0685101 0)
(0.00666125 0.0618661 0)
(0.0100037 0.0763608 0)
(0.0123063 0.0690462 0)
(0.0179609 0.078351 0)
(0.020503 0.0746634 0)
(0.0256444 0.0666607 0)
(0.0307735 0.0713004 0)
(0.0304164 0.0375629 0)
(0.0387231 0.0528655 0)
(0.0307488 -0.00322905 0)
(0.042665 0.01884 0)
(0.0254605 -0.0435959 0)
(0.0401047 -0.0211661 0)
(0.0163318 -0.0761748 0)
(0.0306822 -0.0566216 0)
(0.00608272 -0.104329 0)
(0.0187605 -0.0843715 0)
(-0.00571027 -0.14581 0)
(0.0066551 -0.112148 0)
(-0.0142653 -0.20665 0)
(-0.0071049 -0.167083 0)
(-0.0144657 -0.245482 0)
(-3.56251e-05 0.0343965 0)
(0.000117133 0.0310155 0)
(-0.000193317 0.0388096 0)
(9.18915e-05 0.0376635 0)
(-0.000118232 0.0407927 0)
(0.000262973 0.0397072 0)
(0.00037524 0.0427642 0)
(0.000866482 0.0412285 0)
(0.00140812 0.0452519 0)
(0.00203277 0.0430879 0)
(0.00309232 0.0484116 0)
(0.0038661 0.0455225 0)
(0.00559464 0.0523029 0)
(0.00647336 0.0485833 0)
(0.00924268 0.0569884 0)
(0.0100508 0.052244 0)
(0.014743 0.0624022 0)
(0.0149628 0.056449 0)
(0.0228055 0.0673489 0)
(0.0219823 0.0608592 0)
(0.0333157 0.0676128 0)
(0.0315789 0.0636178 0)
(0.0438523 0.0575052 0)
(0.0430298 0.05973 0)
(0.0509717 0.0341426 0)
(0.0526968 0.0448212 0)
(0.052021 0.000902954 0)
(0.0574692 0.01825 0)
(0.0453264 -0.0341918 0)
(0.0548879 -0.0141564 0)
(0.0331109 -0.0648183 0)
(0.0444778 -0.0451591 0)
(0.0193329 -0.0921912 0)
(0.0305258 -0.0714432 0)
(0.00526048 -0.133421 0)
(0.0156623 -0.09841 0)
(-0.00730533 -0.205915 0)
(0.000858335 -0.15382 0)
(-0.012432 -0.253497 0)
(0.000244649 0.0342824 0)
(0.0001007 0.030782 0)
(0.000548181 0.0385611 0)
(0.000306304 0.0373681 0)
(0.00124769 0.040143 0)
(0.000954596 0.0390076 0)
(0.00252401 0.0415523 0)
(0.00221017 0.0399479 0)
(0.00449075 0.0433585 0)
(0.00418164 0.0411148 0)
(0.00724715 0.0456942 0)
(0.00694368 0.0427591 0)
(0.0109295 0.0485244 0)
(0.0105686 0.0448924 0)
(0.0157708 0.0517046 0)
(0.0151815 0.0473825 0)
(0.022202 0.0549059 0)
(0.0209995 0.049968 0)
(0.0307557 0.0571281 0)
(0.0284044 0.0521396 0)
(0.041293 0.055735 0)
(0.0377435 0.0525681 0)
(0.0518744 0.0470461 0)
(0.0483177 0.0483899 0)
(0.0591943 0.0289287 0)
(0.0574628 0.0366851 0)
(0.0603362 0.00319067 0)
(0.0619518 0.0167973 0)
(0.0540393 -0.0251238 0)
(0.0596958 -0.00805152 0)
(0.0418927 -0.0517841 0)
(0.0503978 -0.0334447 0)
(0.0268552 -0.077662 0)
(0.0366616 -0.0570527 0)
(0.0112601 -0.118809 0)
(0.0206671 -0.0830618 0)
(-0.00426834 -0.201403 0)
(0.0052951 -0.138373 0)
(-0.012231 -0.257196 0)
(0.000162355 0.0338677 0)
(-0.000198934 0.0309314 0)
(0.000712718 0.0378145 0)
(-3.76525e-05 0.0369491 0)
(0.00191708 0.0388125 0)
(0.000922906 0.0378535 0)
(0.0038678 0.0395105 0)
(0.00272811 0.0380131 0)
(0.00663457 0.0405153 0)
(0.00540338 0.0383454 0)
(0.0102652 0.0419573 0)
(0.00895344 0.0391145 0)
(0.0148207 0.0437506 0)
(0.0133909 0.0403097 0)
(0.0204102 0.0456459 0)
(0.0187535 0.0417511 0)
(0.0272019 0.0472017 0)
(0.0251103 0.0431015 0)
(0.0353923 0.0475797 0)
(0.032538 0.0438213 0)
(0.0447682 0.0452231 0)
(0.0410561 0.0429426 0)
(0.0539061 0.038029 0)
(0.0500682 0.0389249 0)
(0.0602203 0.0245537 0)
(0.0577595 0.0300822 0)
(0.0613114 0.00555514 0)
(0.0616127 0.0157553 0)
(0.0560543 -0.0163725 0)
(0.0598757 -0.00256473 0)
(0.0451668 -0.0387133 0)
(0.0521669 -0.0226284 0)
(0.0304735 -0.0624525 0)
(0.0395993 -0.0428178 0)
(0.0147021 -0.102626 0)
(0.0242093 -0.0678313 0)
(-0.0026676 -0.194167 0)
(0.00962177 -0.121072 0)
(-0.0119596 -0.259173 0)
(-0.000398941 0.0340128 0)
(-0.000992434 0.0299315 0)
(0.000172535 0.0369881 0)
(-0.00148538 0.0352548 0)
(0.00173394 0.0370541 0)
(-0.000182362 0.0356059 0)
(0.00426369 0.0368481 0)
(0.00223428 0.0351143 0)
(0.00772224 0.0369446 0)
(0.00561489 0.0347156 0)
(0.0120792 0.0374669 0)
(0.00989499 0.0346953 0)
(0.0173237 0.0383102 0)
(0.0150477 0.0350578 0)
(0.0234536 0.0392066 0)
(0.0210432 0.0356391 0)
(0.0304465 0.039721 0)
(0.0278319 0.0361324 0)
(0.0382018 0.0391842 0)
(0.0353096 0.0360708 0)
(0.0463561 0.0366445 0)
(0.0432328 0.0347674 0)
(0.0539216 0.0309781 0)
(0.0510282 0.0313409 0)
(0.0591519 0.0212837 0)
(0.0574959 0.0249071 0)
(0.0601771 0.0076354 0)
(0.060972 0.0149048 0)
(0.0559884 -0.0088206 0)
(0.0597529 0.00188333 0)
(0.0465994 -0.0267329 0)
(0.0535872 -0.0133547 0)
(0.033335 -0.0481966 0)
(0.0420182 -0.0298284 0)
(0.019129 -0.0862767 0)
(0.0300736 -0.0546573 0)
(0.000329799 -0.186078 0)
(0.0160213 -0.103744 0)
(-0.00984114 -0.262702 0)
(-0.00207887 0.0311735 0)
(-0.00261063 0.0367907 0)
(-0.00184028 0.0338726 0)
(-0.00372393 0.0391866 0)
(0.000317973 0.0336661 0)
(-0.0015414 0.0366772 0)
(0.00358548 0.0329818 0)
(0.00171235 0.0339012 0)
(0.00778763 0.0324662 0)
(0.00582388 0.0318859 0)
(0.0128635 0.0322862 0)
(0.0108366 0.0305995 0)
(0.0187672 0.0323867 0)
(0.0167542 0.0299028 0)
(0.0254214 0.0325649 0)
(0.0234557 0.0295824 0)
(0.032695 0.0324822 0)
(0.0308094 0.0293451 0)
(0.0403406 0.031654 0)
(0.0386231 0.0288166 0)
(0.0479049 0.0294638 0)
(0.0465535 0.0275215 0)
(0.0546025 0.0252699 0)
(0.0540329 0.0249155 0)
(0.059316 0.0185283 0)
(0.0601655 0.0205388 0)
(0.0605478 0.00915276 0)
(0.0637477 0.0140636 0)
(0.0573517 -0.00265083 0)
(0.0633679 0.00559291 0)
(0.049006 -0.0164503 0)
(0.0589911 -0.0052316 0)
(0.0387567 -0.036289 0)
(0.0477699 -0.0182819 0)
(0.0269659 -0.072125 0)
(0.0437604 -0.0434654 0)
(0.00585037 -0.180369 0)
(0.0215088 -0.0855942 0)
(-0.0016047 -0.266082 0)
(-0.00425568 0.0448038 0)
(-0.00494329 0.0308272 0)
(-0.00342505 0.0419912 0)
(-0.0070988 0.0272347 0)
(-0.000147026 0.0369124 0)
(-0.00131348 0.0249769 0)
(0.00395076 0.0328053 0)
(0.00537059 0.0241775 0)
(0.00887281 0.0300192 0)
(0.0125774 0.0229808 0)
(0.0147272 0.0282161 0)
(0.0202653 0.021741 0)
(0.0214427 0.0270985 0)
(0.0283219 0.0208702 0)
(0.0288437 0.0263627 0)
(0.0366794 0.0203512 0)
(0.0367374 0.0256796 0)
(0.0452994 0.0199767 0)
(0.0448359 0.0246841 0)
(0.054082 0.0195071 0)
(0.0526815 0.0229732 0)
(0.0627734 0.0186808 0)
(0.0595959 0.0201844 0)
(0.0709281 0.0172057 0)
(0.0645972 0.0160741 0)
(0.0778877 0.0148579 0)
(0.0665677 0.0105037 0)
(0.0828297 0.0114577 0)
(0.0650073 0.00301214 0)
(0.0846068 0.00694354 0)
(0.057755 -0.00706324 0)
(0.084059 0.000343135 0)
(0.0527735 -0.0254583 0)
(0.0736866 -0.00827952 0)
(0.0383033 -0.0569346 0)
(0.0794734 -0.0296526 0)
(0.0140537 -0.171307 0)
(0.0264104 -0.0587395 0)
(0.0378864 -0.246038 0)
(-0.00778641 0.0132581 0)
(0.0172151 0.0547365 0)
(-0.00498723 0.0102204 0)
(0.0262696 0.0399021 0)
(0.00420413 0.012242 0)
(0.0433593 0.0273163 0)
(0.0139973 0.014353 0)
(0.0591457 0.0216108 0)
(0.0239699 0.0147026 0)
(0.0726401 0.0182255 0)
(0.03386 0.0143951 0)
(0.084825 0.0158157 0)
(0.0435587 0.014123 0)
(0.0962851 0.0141313 0)
(0.0531351 0.0139653 0)
(0.10725 0.0129587 0)
(0.0626439 0.0138042 0)
(0.117823 0.0120848 0)
(0.0720195 0.0135038 0)
(0.128067 0.0113595 0)
(0.08102 0.0129134 0)
(0.137928 0.0106449 0)
(0.0892199 0.0118792 0)
(0.147199 0.00981647 0)
(0.0961203 0.0102414 0)
(0.1555 0.00877139 0)
(0.100869 0.00789749 0)
(0.16252 0.0073839 0)
(0.103659 0.00427454 0)
(0.167037 0.00559522 0)
(0.0999906 -0.000873145 0)
(0.170975 0.00269838 0)
(0.100386 -0.0124739 0)
(0.162772 -0.000881068 0)
(0.0675805 -0.0314574 0)
(0.17837 -0.0121673 0)
(0.0502431 -0.13347 0)
(0.077063 -0.0190549 0)
(0.224376 -0.161608 0)
(0.0512711 0.0813805 0)
(0.0746161 0.056998 0)
(0.0983009 0.0366851 0)
(0.117789 0.0254833 0)
(0.133495 0.0193386 0)
(0.14725 0.0155519 0)
(0.159976 0.0129671 0)
(0.171937 0.0110783 0)
(0.183246 0.00964006 0)
(0.193976 0.00850058 0)
(0.204107 0.00754805 0)
(0.213479 0.00670869 0)
(0.2219 0.00591386 0)
(0.228688 0.00508163 0)
(0.234353 0.00401907 0)
(0.233756 0.00269046 0)
(0.240755 -0.000574552 0)
(0.187852 0.00023522 0)
(0.251196 -0.0471931 0)
)
;

boundaryField
{
    movingWall
    {
        type            calculated;
        value           uniform (1 0 0);
    }
    fixedWalls
    {
        type            calculated;
        value           uniform (0 0 0);
    }
    frontAndBack
    {
        type            empty;
        value           nonuniform List<vector> 0();
    }
}


// ************************************************************************* //
