/*--------------------------------*- C++ -*----------------------------------*\
| =========                 |                                                 |
| \\      /  F ield         | OpenFOAM: The Open Source CFD Toolbox           |
|  \\    /   O peration     | Version:  2312                                  |
|   \\  /    A nd           | Website:  www.openfoam.com                      |
|    \\/     M anipulation  |                                                 |
\*---------------------------------------------------------------------------*/
FoamFile
{
    version     2.0;
    format      ascii;
    arch        "LSB;label=32;scalar=64";
    class       volScalarField;
    location    "1.5";
    object      totalP;
}
// * * * * * * * * * * * * * * * * * * * * * * * * * * * * * * * * * * * * * //

dimensions      [1 -1 -2 0 0 0 0];

internalField   nonuniform List<scalar> 
400
(
1
1
1.00001
1.00006
1.00013
1.00023
1.00037
1.00055
1.00077
1.00101
1.00128
1.00155
1.00181
1.00202
1.00217
1.00225
1.00227
1.00225
1.00221
1.00217
1.00001
1.00002
1.00005
1.00012
1.00022
1.00036
1.00054
1.00076
1.001
1.00126
1.00152
1.00177
1.00199
1.00218
1.00229
1.00234
1.00231
1.00226
1.00219
1.00214
1.00002
1.00005
1.00009
1.00015
1.00025
1.0004
1.00059
1.00081
1.00106
1.00131
1.00158
1.00185
1.00211
1.00235
1.00251
1.00254
1.00245
1.00231
1.00219
1.00211
1.00004
1.00009
1.00015
1.00022
1.00032
1.00044
1.00058
1.00078
1.00103
1.0013
1.00161
1.00198
1.00242
1.00288
1.0032
1.00323
1.00291
1.00248
1.00219
1.00205
1.00008
1.00015
1.00022
1.0003
1.00041
1.00054
1.0007
1.00089
1.00111
1.00136
1.0017
1.00231
1.00321
1.00428
1.00511
1.0053
1.00462
1.00332
1.0023
1.00196
1.00014
1.00023
1.00031
1.0004
1.00051
1.00066
1.00084
1.00106
1.00134
1.00176
1.00247
1.0037
1.00537
1.00694
1.00797
1.0083
1.00829
1.0064
1.00337
1.00185
1.00021
1.00032
1.0004
1.0005
1.00063
1.00079
1.00099
1.00126
1.00164
1.0023
1.00352
1.00541
1.0073
1.00858
1.00981
1.0114
1.01239
1.01105
1.00723
1.00221
1.00028
1.00042
1.0005
1.00061
1.00074
1.00091
1.00114
1.00146
1.00194
1.00281
1.00427
1.00585
1.00655
1.00663
1.00733
1.00942
1.01278
1.01541
1.01303
1.00432
1.00035
1.00051
1.0006
1.00071
1.00084
1.00102
1.00127
1.00162
1.00217
1.00313
1.00441
1.00509
1.00434
1.00317
1.00331
1.00522
1.00885
1.01453
1.0186
1.00892
1.00041
1.00059
1.00068
1.00079
1.00092
1.00111
1.00135
1.00171
1.00227
1.00318
1.0041
1.00406
1.00243
1.00085
1.00113
1.00303
1.00582
1.01082
1.01985
1.01661
1.00045
1.00065
1.00075
1.00085
1.00097
1.00115
1.00138
1.00172
1.00222
1.003
1.0037
1.00346
1.0017
1.00012
1.00047
1.00239
1.0048
1.00829
1.01753
1.02432
1.00047
1.00069
1.00079
1.00087
1.00099
1.00114
1.00135
1.00164
1.00206
1.00267
1.00328
1.0032
1.00201
1.00068
1.00075
1.00216
1.00413
1.00701
1.01507
1.02896
1.00048
1.00071
1.0008
1.00087
1.00096
1.00109
1.00127
1.00151
1.00184
1.00229
1.00279
1.00293
1.00239
1.0016
1.00143
1.0021
1.00343
1.00568
1.01296
1.03155
1.00048
1.00071
1.00078
1.00083
1.0009
1.001
1.00114
1.00134
1.00159
1.00193
1.00231
1.00254
1.00243
1.00205
1.00181
1.00197
1.00268
1.00432
1.01076
1.03288
1.00047
1.00069
1.00074
1.00077
1.00081
1.00088
1.00099
1.00115
1.00136
1.00162
1.00191
1.00216
1.00223
1.00207
1.00183
1.00172
1.00198
1.00308
1.00848
1.03342
1.00049
1.00068
1.00069
1.00068
1.00069
1.00074
1.00082
1.00096
1.00114
1.00138
1.00164
1.00188
1.00202
1.00197
1.00177
1.00153
1.00147
1.00217
1.00635
1.03389
1.00041
1.00057
1.00058
1.00056
1.00055
1.00057
1.00064
1.00077
1.00095
1.00119
1.00146
1.00172
1.00191
1.00197
1.00181
1.00153
1.00122
1.00177
1.00475
1.03523
1.00102
1.00101
1.00078
1.0006
1.0005
1.00048
1.00054
1.00067
1.00087
1.00115
1.00148
1.00183
1.00214
1.0023
1.00225
1.00201
1.00144
1.00215
1.00314
1.03562
1.00016
1.00009
1.00006
1.00014
1.00029
1.00053
1.00085
1.00127
1.00177
1.00236
1.00303
1.00372
1.00439
1.00496
1.00528
1.00549
1.00454
1.0061
1.00316
1.0425
1.00513
1.00558
1.00525
1.0064
1.00821
1.01004
1.01193
1.01387
1.01585
1.01785
1.01987
1.02187
1.02377
1.02552
1.02681
1.02813
1.02653
1.03442
1.01227
1.13323
)
;

boundaryField
{
    movingWall
    {
        type            calculated;
        value           nonuniform List<scalar> 
20
(
1.5
1.50121
1.50047
1.5
1.5
1.5
1.5
1.5
1.5
1.5
1.5
1.5
1.5
1.5
1.5
1.5
1.5
1.50287
1.50451
1.55703
)
;
    }
    fixedWalls
    {
        type            calculated;
        value           nonuniform List<scalar> 
60
(
1
1.00001
1
1
1
1
1
1
1
1
1
1
1
1
1
1
1
1
1
1
1.00217
1.00214
1.0021
1.00204
1.00195
1.00181
1.00189
1.0017
1.00048
1
1
1
1
1
1
1
1
1
1.01462
1.05703
1
1
1
1.00002
1.00005
1.0001
1.00017
1.00026
1.00037
1.00052
1.00072
1.00097
1.00127
1.00159
1.00189
1.0021
1.00221
1.00224
1.00221
1.00217
)
;
    }
    frontAndBack
    {
        type            empty;
    }
}


// ************************************************************************* //
