/*--------------------------------*- C++ -*----------------------------------*\
| =========                 |                                                 |
| \\      /  F ield         | OpenFOAM: The Open Source CFD Toolbox           |
|  \\    /   O peration     | Version:  2312                                  |
|   \\  /    A nd           | Website:  www.openfoam.com                      |
|    \\/     M anipulation  |                                                 |
\*---------------------------------------------------------------------------*/
FoamFile
{
    version     2.0;
    format      ascii;
    arch        "LSB;label=32;scalar=64";
    class       volScalarField;
    location    "1.5";
    object      totalCoeffP;
}
// * * * * * * * * * * * * * * * * * * * * * * * * * * * * * * * * * * * * * //

dimensions      [0 0 0 0 0 0 0];

internalField   nonuniform List<scalar> 
400
(
3.04364e-07
5.25431e-06
2.84948e-05
0.000111821
0.000259184
0.000469303
0.000748198
0.00110171
0.00153028
0.00202381
0.00255415
0.00310035
0.00361733
0.00404222
0.00434635
0.004507
0.00454884
0.00450505
0.00442368
0.00434831
1.9259e-05
3.37714e-05
9.53357e-05
0.000232086
0.000438979
0.000720607
0.0010798
0.00151254
0.00200338
0.00252553
0.00304885
0.00354569
0.00398978
0.00435203
0.00458901
0.00467202
0.00462984
0.0045147
0.00438584
0.00428642
3.0054e-05
9.3207e-05
0.000182305
0.000306211
0.000505015
0.000807547
0.00118344
0.00162499
0.0021139
0.00262874
0.00315646
0.00369064
0.00422767
0.00470374
0.00501984
0.00507853
0.00490211
0.00462728
0.00437693
0.00421633
8.2785e-05
0.000184238
0.000298915
0.000445049
0.00063408
0.000874545
0.00116851
0.00156732
0.00205304
0.00259605
0.00322222
0.00396684
0.00483863
0.00575453
0.00640809
0.00645098
0.00582736
0.00496413
0.00438104
0.00409992
0.000167472
0.000309275
0.000444429
0.000609229
0.000818155
0.00108165
0.00140502
0.00178466
0.00221608
0.00272316
0.00339386
0.00461924
0.00642881
0.00855488
0.0102264
0.0106083
0.00924772
0.00664703
0.00459306
0.00391274
0.000280957
0.000465107
0.000616606
0.000797609
0.00102707
0.00131769
0.00167992
0.00212487
0.00268793
0.00351143
0.00494141
0.0074065
0.0107493
0.0138759
0.0159307
0.016594
0.0165782
0.0127987
0.00673664
0.00369449
0.000414944
0.00064395
0.00080891
0.00100345
0.00125282
0.00157297
0.00198255
0.00251854
0.00328454
0.00459615
0.007049
0.0108276
0.0145931
0.0171587
0.0196277
0.0228067
0.0247733
0.0221029
0.014469
0.00442543
0.000557401
0.000833429
0.00100951
0.00121401
0.00147968
0.00182646
0.00228261
0.00291384
0.00388659
0.00562888
0.00853994
0.0116998
0.0131048
0.0132687
0.0146688
0.0188381
0.0255686
0.0308117
0.0260628
0.00863906
0.000694296
0.0010178
0.00120234
0.00141147
0.00168588
0.0020495
0.00253826
0.00323736
0.00434941
0.00626821
0.00881744
0.0101728
0.00868143
0.00633523
0.00661783
0.0104411
0.0176904
0.0290583
0.0371907
0.0178317
0.000811647
0.00118044
0.00136984
0.00157633
0.00184833
0.00221288
0.00270928
0.00342465
0.00454425
0.00636534
0.00820224
0.00811187
0.00486775
0.00169309
0.00225008
0.00606062
0.011632
0.0216442
0.0397045
0.0332135
0.000898802
0.00130662
0.0014966
0.00169184
0.00194809
0.00229411
0.00276637
0.00343697
0.00444671
0.00599924
0.00740354
0.00692414
0.00340843
0.000248462
0.000943606
0.00477987
0.00960104
0.0165851
0.0350658
0.0486322
0.000949998
0.00138782
0.00157218
0.00174678
0.00197353
0.00228194
0.0027019
0.00328473
0.0041243
0.00534661
0.00656452
0.00640347
0.00402548
0.00136995
0.00149911
0.00431763
0.00826773
0.0140262
0.0301477
0.0579138
0.000966002
0.00142226
0.0015926
0.00173712
0.00192334
0.00218092
0.00253383
0.00301346
0.00367514
0.00458628
0.00557902
0.00585733
0.00478494
0.00320845
0.00286888
0.00420938
0.00685477
0.0113617
0.0259159
0.063091
0.000957958
0.00141495
0.00156146
0.00166584
0.00180255
0.00200257
0.00228683
0.00267474
0.00318999
0.00385713
0.00461026
0.00508555
0.00485899
0.00409857
0.00361158
0.00393801
0.00535333
0.00863065
0.0215239
0.0657541
0.000937195
0.0013781
0.00148411
0.00153745
0.00161768
0.00175916
0.0019821
0.00229998
0.00272087
0.00324348
0.00382947
0.00432622
0.00446542
0.00414284
0.00366402
0.00344899
0.00395909
0.00615267
0.01697
0.0668471
0.000976697
0.00135264
0.00138432
0.00136987
0.00138657
0.00147021
0.00164093
0.00191127
0.00228514
0.00275186
0.00327128
0.00375311
0.00403346
0.00394716
0.00353211
0.00306947
0.00294171
0.00433598
0.0127079
0.0677823
0.000821149
0.00114474
0.00115797
0.00111314
0.00109545
0.00114481
0.00128607
0.00153603
0.00190197
0.00237464
0.00291498
0.00344286
0.00382953
0.00393273
0.0036237
0.00306801
0.00244633
0.00354868
0.00949822
0.0704561
0.00203558
0.00201614
0.00155187
0.00119198
0.00100721
0.000969474
0.00107761
0.00133619
0.00174757
0.00230356
0.00296925
0.00366805
0.00427543
0.00460555
0.00449764
0.00401534
0.00288444
0.00430263
0.00627894
0.0712342
0.000317056
0.000184214
0.000112979
0.000273873
0.00057993
0.00105153
0.00170382
0.00253605
0.00354618
0.00472841
0.00605296
0.00744742
0.00878545
0.0099233
0.0105598
0.0109797
0.00908019
0.0121911
0.0063255
0.0849983
0.0102612
0.0111509
0.0105072
0.0128008
0.0164213
0.0200823
0.0238575
0.0277416
0.0316972
0.0357081
0.0397445
0.0437372
0.0475396
0.0510411
0.0536236
0.0562681
0.053055
0.0688389
0.0245314
0.266452
)
;

boundaryField
{
    movingWall
    {
        type            calculated;
        value           nonuniform List<scalar> 
20
(
1
1.00242
1.00094
1
1
1
1
1
1
1
1
1
1
1
1
1
1
1.00574
1.00901
1.11406
)
;
    }
    fixedWalls
    {
        type            calculated;
        value           nonuniform List<scalar> 
60
(
1.05732e-07
1.37687e-05
0
0
0
0
0
0
0
0
0
0
0
0
0
0
0
0
0
0
0.00434812
0.00428592
0.00420972
0.00408657
0.00389651
0.00361999
0.00377314
0.00339518
0.000963054
0
0
0
0
0
0
0
0
0
0.0292483
0.114063
1.05732e-07
0
0
3.38582e-05
0.000101181
0.000198898
0.000332257
0.000510173
0.000744009
0.00104673
0.00144135
0.00194543
0.00254642
0.00318791
0.00377352
0.00420037
0.0044282
0.00447693
0.00442204
0.00434812
)
;
    }
    frontAndBack
    {
        type            empty;
    }
}


// ************************************************************************* //
