/*--------------------------------*- C++ -*----------------------------------*\
| =========                 |                                                 |
| \\      /  F ield         | OpenFOAM: The Open Source CFD Toolbox           |
|  \\    /   O peration     | Version:  2312                                  |
|   \\  /    A nd           | Website:  www.openfoam.com                      |
|    \\/     M anipulation  |                                                 |
\*---------------------------------------------------------------------------*/
FoamFile
{
    version     2.0;
    format      ascii;
    arch        "LSB;label=32;scalar=64";
    class       volScalarField;
    location    "1.5";
    object      turbulenceProperties:nut;
}
// * * * * * * * * * * * * * * * * * * * * * * * * * * * * * * * * * * * * * //

dimensions      [0 2 -1 0 0 0 0];

internalField   nonuniform List<scalar> 
400
(
5.22106e-06
6.3791e-06
7.43055e-06
8.25166e-06
8.93376e-06
9.53776e-06
1.00949e-05
1.06094e-05
1.10648e-05
1.14271e-05
1.15956e-05
1.16404e-05
1.1545e-05
1.12172e-05
1.07046e-05
9.94399e-06
8.95838e-06
7.75954e-06
6.33792e-06
5.25431e-06
6.29799e-06
1.83683e-05
2.38253e-05
2.61536e-05
2.73064e-05
2.80349e-05
2.88479e-05
3.01741e-05
3.23751e-05
3.56513e-05
3.95325e-05
4.30087e-05
4.37127e-05
4.38262e-05
4.31009e-05
3.9851e-05
3.52315e-05
2.8935e-05
1.73238e-05
6.30551e-06
7.50921e-06
3.08733e-05
4.39531e-05
4.97917e-05
5.32057e-05
5.59029e-05
5.84873e-05
6.14456e-05
6.4836e-05
6.80678e-05
6.96833e-05
6.82803e-05
6.25376e-05
5.50943e-05
5.09408e-05
4.373e-05
3.76213e-05
3.21366e-05
2.04443e-05
7.268e-06
8.45343e-06
3.83969e-05
5.87499e-05
6.91436e-05
7.55415e-05
8.01814e-05
8.41251e-05
8.753e-05
8.93849e-05
8.76564e-05
8.07677e-05
6.97033e-05
5.77025e-05
4.7124e-05
4.19536e-05
3.70436e-05
3.15673e-05
2.64085e-05
1.87383e-05
7.92361e-06
9.21442e-06
4.35123e-05
6.96199e-05
8.34644e-05
9.21349e-05
9.83488e-05
0.000102939
0.000104903
0.000101939
9.22805e-05
7.7354e-05
6.1407e-05
4.84124e-05
4.05124e-05
3.73837e-05
3.63246e-05
3.34879e-05
2.73495e-05
1.68243e-05
8.68727e-06
9.84269e-06
4.70159e-05
7.754e-05
9.45149e-05
0.000105116
0.000112247
0.000115994
0.000114326
0.000104795
8.80399e-05
6.90907e-05
5.22078e-05
4.18276e-05
3.80113e-05
3.67961e-05
3.54722e-05
3.3788e-05
3.21217e-05
2.30213e-05
1.16592e-05
1.03653e-05
4.91943e-05
8.32215e-05
0.000102909
0.000115083
0.000122509
0.000124455
0.000118379
0.000103603
8.26974e-05
5.8518e-05
4.44402e-05
3.85456e-05
3.55909e-05
3.40063e-05
3.36558e-05
3.35248e-05
3.1845e-05
3.08903e-05
1.8839e-05
1.07977e-05
5.03077e-05
8.704e-05
0.000108997
0.00012239
0.000129678
0.000129602
0.00012002
0.000101995
7.43951e-05
5.49023e-05
4.24042e-05
3.47483e-05
3.38259e-05
3.32542e-05
3.45215e-05
3.28615e-05
3.19564e-05
3.10139e-05
2.65211e-05
1.11489e-05
5.05551e-05
8.92391e-05
0.000113031
0.000127398
0.000134538
0.000133111
0.000121766
0.000100533
7.24117e-05
5.50476e-05
3.83965e-05
3.4779e-05
3.65784e-05
3.8633e-05
4.30609e-05
4.14826e-05
3.56309e-05
3.14382e-05
3.11738e-05
1.14246e-05
5.01106e-05
9.00342e-05
0.00011527
0.00013056
0.000137981
0.000136595
0.000125742
0.000103807
7.57179e-05
5.61743e-05
3.74014e-05
3.47375e-05
3.83287e-05
4.17962e-05
4.95115e-05
5.21155e-05
4.16692e-05
3.24407e-05
3.33366e-05
1.16298e-05
4.90959e-05
8.95218e-05
0.000115926
0.000132175
0.000140518
0.000140048
0.000129788
0.00010911
8.28026e-05
6.22511e-05
4.28474e-05
3.60412e-05
3.75966e-05
4.25161e-05
5.198e-05
6.04197e-05
5.07955e-05
3.52072e-05
3.4753e-05
1.17723e-05
4.78197e-05
8.85137e-05
0.000115499
0.000132427
0.000141547
0.000142517
0.000134683
0.000117936
9.44984e-05
7.24428e-05
5.15397e-05
3.93221e-05
3.87685e-05
4.41966e-05
5.6024e-05
7.04211e-05
5.85014e-05
3.83654e-05
3.58181e-05
1.18586e-05
4.64815e-05
8.67954e-05
0.000114311
0.00013216
0.000142671
0.000145908
0.00014122
0.000128706
0.000108482
8.69176e-05
7.13716e-05
5.07509e-05
4.70108e-05
5.19694e-05
6.61109e-05
8.16723e-05
6.35315e-05
4.12642e-05
3.69146e-05
1.19159e-05
4.50087e-05
8.47494e-05
0.000112392
0.000130957
0.00014267
0.000148185
0.000146977
0.000138859
0.000124284
0.000104377
9.1464e-05
7.68785e-05
6.8514e-05
7.21237e-05
8.29284e-05
8.65948e-05
6.45247e-05
4.0715e-05
3.8143e-05
1.19433e-05
4.39906e-05
8.25204e-05
0.000109146
0.00012743
0.000139807
0.000147559
0.000150217
0.000146799
0.000137812
0.000122287
0.000108457
9.931e-05
9.04314e-05
9.05665e-05
9.19669e-05
8.89625e-05
6.01312e-05
3.92725e-05
3.96215e-05
1.20548e-05
4.3173e-05
7.96312e-05
0.000103722
0.000119644
0.000130394
0.000137657
0.000141553
0.000142631
0.000139743
0.00013259
0.000120613
0.000111831
0.000102937
9.83836e-05
9.31419e-05
7.91403e-05
4.89632e-05
3.74162e-05
4.1471e-05
1.20709e-05
4.13863e-05
7.01755e-05
8.55306e-05
9.46926e-05
0.00010116
0.000106428
0.000110643
0.000113218
0.000113604
0.000111432
0.000105722
9.94353e-05
9.28024e-05
8.42859e-05
7.65378e-05
6.22155e-05
3.86807e-05
3.49578e-05
4.38024e-05
1.27217e-05
3.13173e-05
4.00868e-05
4.27245e-05
4.44854e-05
4.63812e-05
4.88061e-05
5.17501e-05
5.49048e-05
5.7597e-05
5.92887e-05
5.9056e-05
5.64033e-05
5.29082e-05
4.77356e-05
4.15797e-05
3.41739e-05
2.62404e-05
3.43048e-05
4.70853e-05
1.51215e-05
1.53134e-05
1.71728e-05
1.84392e-05
1.9527e-05
2.06265e-05
2.17654e-05
2.29279e-05
2.4117e-05
2.53143e-05
2.64026e-05
2.74186e-05
2.80101e-05
2.85167e-05
2.87961e-05
2.95996e-05
3.02704e-05
3.26073e-05
3.87947e-05
5.19677e-05
3.63334e-05
4.52585e-05
5.13801e-05
5.45923e-05
5.63562e-05
5.73999e-05
5.79834e-05
5.82918e-05
5.83356e-05
5.82879e-05
5.8169e-05
5.79766e-05
5.78064e-05
5.76328e-05
5.76055e-05
5.76786e-05
5.80182e-05
5.81304e-05
5.98068e-05
5.70258e-05
)
;

boundaryField
{
    movingWall
    {
        type            nutkWallFunction;
        blending        stepwise;
        value           nonuniform List<scalar> 
20
(
0
0
6.80851e-07
1.20766e-06
1.49507e-06
1.6646e-06
1.75936e-06
1.80945e-06
1.81681e-06
1.80912e-06
1.78986e-06
1.75855e-06
1.73052e-06
1.70208e-06
1.69694e-06
1.70864e-06
1.76336e-06
1.78147e-06
2.05172e-06
1.60262e-06
)
;
    }
    fixedWalls
    {
        type            nutkWallFunction;
        blending        stepwise;
        value           nonuniform List<scalar> 
60
(
0
0
0
0
0
0
0
0
0
0
0
0
0
0
0
0
0
0
0
0
0
0
0
0
0
0
0
0
0
0
0
0
0
0
0
0
0
0
7.77213e-07
1.60262e-06
0
0
0
0
0
0
0
0
0
0
0
0
0
0
0
0
0
0
0
0
)
;
    }
    frontAndBack
    {
        type            empty;
    }
}


// ************************************************************************* //
