/*--------------------------------*- C++ -*----------------------------------*\
| =========                 |                                                 |
| \\      /  F ield         | OpenFOAM: The Open Source CFD Toolbox           |
|  \\    /   O peration     | Version:  2312                                  |
|   \\  /    A nd           | Website:  www.openfoam.com                      |
|    \\/     M anipulation  |                                                 |
\*---------------------------------------------------------------------------*/
FoamFile
{
    version     2.0;
    format      ascii;
    arch        "LSB;label=32;scalar=64";
    class       volScalarField;
    location    "1.5";
    object      turbulenceProperties:I;
}
// * * * * * * * * * * * * * * * * * * * * * * * * * * * * * * * * * * * * * //

dimensions      [0 0 0 0 0 0 0];

internalField   nonuniform List<scalar> 
400
(
1
1
1
1
1
0.842992
0.718526
0.632543
0.571722
0.529478
0.503538
0.496263
0.511527
0.556979
0.649781
0.826257
1
1
1
1
1
1
1
1
0.845833
0.696657
0.594013
0.523885
0.478131
0.451753
0.44221
0.449369
0.473297
0.52111
0.603714
0.732667
0.948814
1
1
1
1
1
1
0.987024
0.825769
0.703011
0.611247
0.544995
0.50003
0.472987
0.460882
0.461656
0.474455
0.502233
0.554871
0.637733
0.782744
1
1
1
1
1
1
0.90424
0.789681
0.693235
0.615617
0.556379
0.513668
0.484283
0.464297
0.450035
0.43951
0.435618
0.450966
0.493601
0.586905
0.788794
1
1
1
0.968385
0.90671
0.826459
0.745032
0.67041
0.606601
0.555115
0.51482
0.481511
0.448599
0.41062
0.3701
0.341263
0.333577
0.350569
0.401715
0.519806
0.861558
1
0.85466
0.827553
0.806382
0.757976
0.700067
0.642499
0.590398
0.545497
0.505873
0.463712
0.409517
0.344313
0.288445
0.256234
0.245181
0.248617
0.270714
0.340176
0.515478
1
0.740128
0.726601
0.727452
0.699901
0.658978
0.614554
0.571802
0.531696
0.490847
0.436738
0.35858
0.285777
0.241867
0.22185
0.2112
0.205718
0.2115
0.238552
0.341391
1
0.664898
0.652957
0.665831
0.652214
0.623814
0.589606
0.554233
0.517502
0.474259
0.405653
0.32723
0.266238
0.236475
0.229674
0.218774
0.208221
0.196742
0.202564
0.245641
0.522982
0.614926
0.599159
0.618561
0.614501
0.595565
0.569425
0.540004
0.506217
0.45936
0.388144
0.317639
0.266829
0.265866
0.302626
0.296437
0.257723
0.224332
0.199884
0.206997
0.347005
0.582702
0.560521
0.583428
0.586194
0.574652
0.555103
0.530803
0.500432
0.454436
0.386306
0.323452
0.284211
0.33285
0.547251
0.476873
0.320835
0.269032
0.228858
0.200047
0.265568
0.56367
0.53389
0.558511
0.566484
0.561051
0.547175
0.527587
0.501224
0.461006
0.400122
0.342629
0.310879
0.391308
1
0.719755
0.354537
0.293466
0.260571
0.213293
0.229055
0.555072
0.517378
0.543608
0.556052
0.556001
0.547244
0.532314
0.510772
0.477764
0.42679
0.371338
0.336896
0.371767
0.600109
0.587724
0.3827
0.3259
0.287097
0.233271
0.216478
0.554657
0.509383
0.537199
0.554248
0.559665
0.556043
0.545533
0.528538
0.502488
0.461645
0.412979
0.380782
0.373514
0.425499
0.463556
0.422488
0.378314
0.323569
0.256117
0.213746
0.559946
0.508162
0.538891
0.561656
0.573218
0.574791
0.568039
0.554085
0.532698
0.50172
0.461067
0.430104
0.416455
0.429389
0.465026
0.472564
0.436792
0.371637
0.283062
0.21636
0.567705
0.512576
0.549294
0.580317
0.599906
0.607166
0.603053
0.589486
0.568376
0.540962
0.506112
0.474113
0.457901
0.460533
0.491763
0.519
0.507744
0.425411
0.319287
0.222881
0.561783
0.516566
0.566632
0.611364
0.642847
0.65708
0.65376
0.635973
0.608582
0.576006
0.541534
0.50652
0.484226
0.479807
0.504037
0.544641
0.564804
0.475572
0.368064
0.231666
0.613829
0.562889
0.61823
0.672767
0.714057
0.732
0.722854
0.691624
0.648087
0.601178
0.556917
0.517171
0.488115
0.474818
0.486151
0.52723
0.59402
0.510156
0.434966
0.240001
0.411001
0.435679
0.54873
0.663234
0.755405
0.803579
0.794735
0.743591
0.675995
0.609064
0.550708
0.502804
0.465085
0.444978
0.443922
0.464057
0.54973
0.49087
0.57527
0.256574
1
1
1
1
1
1
0.850688
0.716412
0.619873
0.547912
0.49279
0.45138
0.420225
0.400044
0.392038
0.393221
0.446297
0.444749
1
0.320098
0.521682
0.70457
0.76408
0.701805
0.639672
0.589167
0.546061
0.5091
0.476647
0.448714
0.424449
0.403264
0.385645
0.37105
0.361806
0.353645
0.366333
0.336553
0.698222
0.212454
)
;

boundaryField
{
    movingWall
    {
        type            calculated;
        value           nonuniform List<scalar> 
20
(
0.0528451
0.0658231
0.0747279
0.0794028
0.0819712
0.083492
0.0843438
0.0847947
0.084861
0.0847917
0.0846183
0.0843365
0.0840844
0.0838287
0.0837825
0.0838877
0.0843799
0.0845428
0.0869803
0.0829355
)
;
    }
    fixedWalls
    {
        type            calculated;
        value           uniform 1;
    }
    frontAndBack
    {
        type            empty;
    }
}


// ************************************************************************* //
