/*--------------------------------*- C++ -*----------------------------------*\
| =========                 |                                                 |
| \\      /  F ield         | OpenFOAM: The Open Source CFD Toolbox           |
|  \\    /   O peration     | Version:  2312                                  |
|   \\  /    A nd           | Website:  www.openfoam.com                      |
|    \\/     M anipulation  |                                                 |
\*---------------------------------------------------------------------------*/
FoamFile
{
    version     2.0;
    format      ascii;
    arch        "LSB;label=32;scalar=64";
    class       volSymmTensorField;
    location    "1.5";
    object      turbulenceProperties:devReff;
}
// * * * * * * * * * * * * * * * * * * * * * * * * * * * * * * * * * * * * * //

dimensions      [0 2 -2 0 0 0 0];

internalField   nonuniform List<symmTensor> 
400
(
(7.21507e-06 6.95559e-08 -0 -7.24622e-06 -0 3.11491e-08)
(1.61403e-05 8.00575e-06 -0 -1.65743e-05 -0 4.33953e-07)
(2.33758e-05 2.16337e-05 -0 -2.36883e-05 -0 3.12437e-07)
(2.71468e-05 3.78662e-05 -0 -2.75519e-05 -0 4.05119e-07)
(2.94999e-05 5.5537e-05 -0 -2.99111e-05 -0 4.11263e-07)
(3.11625e-05 7.43991e-05 -0 -3.15791e-05 -0 4.1662e-07)
(3.22091e-05 9.43406e-05 -0 -3.26319e-05 -0 4.22776e-07)
(3.20641e-05 0.000114916 -0 -3.24841e-05 -0 4.20021e-07)
(2.96945e-05 0.00013507 -0 -2.99999e-05 -0 3.05471e-07)
(2.32714e-05 0.000152748 -0 -2.35646e-05 -0 2.93227e-07)
(1.22726e-05 0.000164263 -0 -1.26253e-05 -0 3.52722e-07)
(-2.50111e-06 0.000168483 -0 2.23439e-06 -0 2.66723e-07)
(-2.09469e-05 0.000162404 -0 2.10149e-05 -0 -6.79441e-08)
(-3.86443e-05 0.000143431 -0 3.91026e-05 -0 -4.58309e-07)
(-5.09064e-05 0.000114526 -0 5.20242e-05 -0 -1.11776e-06)
(-5.43149e-05 7.95802e-05 -0 5.57127e-05 -0 -1.39778e-06)
(-4.81665e-05 4.5486e-05 -0 4.9302e-05 -0 -1.13549e-06)
(-3.46611e-05 1.82849e-05 -0 3.50891e-05 -0 -4.2803e-07)
(-1.66605e-05 1.77143e-06 -0 1.67017e-05 -0 -4.1236e-08)
(-1.28112e-06 -1.2647e-06 -0 1.25566e-06 -0 2.54654e-08)
(1.65049e-05 -7.85444e-06 -0 -1.62236e-05 -0 -2.81307e-07)
(3.93437e-05 1.51753e-07 -0 -3.94808e-05 -0 1.37101e-07)
(5.56153e-05 8.82413e-06 -0 -5.50898e-05 -0 -5.25479e-07)
(6.46037e-05 1.62588e-05 -0 -6.39819e-05 -0 -6.21774e-07)
(6.99082e-05 2.21832e-05 -0 -6.93033e-05 -0 -6.04922e-07)
(7.29299e-05 2.78552e-05 -0 -7.23645e-05 -0 -5.65393e-07)
(7.3947e-05 3.44196e-05 -0 -7.34301e-05 -0 -5.16912e-07)
(7.21491e-05 4.2843e-05 -0 -7.16852e-05 -0 -4.63878e-07)
(6.57015e-05 5.38343e-05 -0 -6.52966e-05 -0 -4.04885e-07)
(5.16699e-05 6.74263e-05 -0 -5.14452e-05 -0 -2.24724e-07)
(2.6411e-05 8.34649e-05 -0 -2.64421e-05 -0 3.11852e-08)
(-1.1934e-05 9.91634e-05 -0 1.15908e-05 -0 3.43202e-07)
(-5.84131e-05 0.000106388 -0 5.67492e-05 -0 1.66393e-06)
(-0.000106032 0.000104017 -0 0.000103983 -0 2.04865e-06)
(-0.000142662 8.69321e-05 -0 0.000140772 -0 1.89006e-06)
(-0.000151743 5.47984e-05 -0 0.000150186 -0 1.55617e-06)
(-0.000131316 1.95022e-05 -0 0.000129937 -0 1.37906e-06)
(-9.09075e-05 -5.99351e-06 -0 8.92915e-05 -0 1.616e-06)
(-4.11375e-05 -1.3081e-05 -0 4.03511e-05 -0 7.8635e-07)
(-1.01051e-05 -6.58673e-06 -0 9.57672e-06 -0 5.28353e-07)
(2.44902e-05 -2.15049e-05 -0 -2.41362e-05 -0 -3.54059e-07)
(6.42021e-05 -1.00828e-05 -0 -6.49076e-05 -0 7.05506e-07)
(9.30203e-05 -1.33471e-06 -0 -9.28885e-05 -0 -1.3184e-07)
(0.000110721 5.66393e-06 -0 -0.000110225 -0 -4.96626e-07)
(0.000123432 1.0953e-05 -0 -0.00012294 -0 -4.91734e-07)
(0.000133121 1.6867e-05 -0 -0.000132684 -0 -4.36737e-07)
(0.000139144 2.62974e-05 -0 -0.000138741 -0 -4.03012e-07)
(0.000139245 4.2002e-05 -0 -0.000138886 -0 -3.59056e-07)
(0.000129627 6.57676e-05 -0 -0.000129392 -0 -2.3468e-07)
(0.000106279 9.74909e-05 -0 -0.000106409 -0 1.3031e-07)
(6.65833e-05 0.000134525 -0 -6.72919e-05 -0 7.08557e-07)
(1.07461e-05 0.000171051 -0 -1.23517e-05 -0 1.60559e-06)
(-5.62037e-05 0.000194374 -0 5.31092e-05 -0 3.0945e-06)
(-0.000121454 0.000193486 -0 0.00011809 -0 3.36426e-06)
(-0.000179011 0.000170139 -0 0.000175823 -0 3.18772e-06)
(-0.000198605 0.000108352 -0 0.000196344 -0 2.2618e-06)
(-0.000178474 3.6385e-05 -0 0.00017768 -0 7.94247e-07)
(-0.0001244 -2.15458e-05 -0 0.000123674 -0 7.25363e-07)
(-5.21653e-05 -3.72627e-05 -0 5.19391e-05 -0 2.26192e-07)
(-1.10138e-05 -2.01121e-05 -0 1.06619e-05 -0 3.51844e-07)
(2.90579e-05 -3.81761e-05 -0 -2.84964e-05 -0 -5.61504e-07)
(8.01308e-05 -2.08317e-05 -0 -8.09835e-05 -0 8.52706e-07)
(0.000120247 -1.42017e-05 -0 -0.000120384 -0 1.37533e-07)
(0.000147135 -8.84377e-06 -0 -0.000146706 -0 -4.28938e-07)
(0.000168834 -3.9393e-06 -0 -0.000168343 -0 -4.91914e-07)
(0.000187687 3.64085e-06 -0 -0.000187212 -0 -4.75466e-07)
(0.000203022 1.8791e-05 -0 -0.000202501 -0 -5.20791e-07)
(0.000211085 4.6352e-05 -0 -0.000210583 -0 -5.01557e-07)
(0.000206371 8.82529e-05 -0 -0.000206022 -0 -3.49325e-07)
(0.00018496 0.000141706 -0 -0.000185061 -0 1.00917e-07)
(0.000147294 0.000201363 -0 -0.000148181 -0 8.86973e-07)
(9.60234e-05 0.000260747 -0 -9.79111e-05 -0 1.88771e-06)
(3.04148e-05 0.000308913 -0 -3.44579e-05 -0 4.04313e-06)
(-4.95449e-05 0.000324233 -0 4.28608e-05 -0 6.68411e-06)
(-0.000141842 0.000312697 -0 0.000135213 -0 6.62886e-06)
(-0.000219821 0.000244441 -0 0.000214889 -0 4.93214e-06)
(-0.000240268 0.000133272 -0 0.000236878 -0 3.38987e-06)
(-0.000185175 2.29402e-05 -0 0.000184398 -0 7.77204e-07)
(-7.342e-05 -4.49875e-05 -0 7.33002e-05 -0 1.19839e-07)
(-4.4251e-06 -3.28025e-05 -0 4.16496e-06 -0 2.60143e-07)
(3.10291e-05 -5.62614e-05 -0 -3.04487e-05 -0 -5.80409e-07)
(8.95058e-05 -3.02584e-05 -0 -9.0543e-05 -0 1.03723e-06)
(0.000138694 -2.75078e-05 -0 -0.000139192 -0 4.97113e-07)
(0.00017277 -2.66236e-05 -0 -0.000172613 -0 -1.56996e-07)
(0.00020283 -2.47023e-05 -0 -0.000202576 -0 -2.54696e-07)
(0.000232598 -1.76579e-05 -0 -0.000232378 -0 -2.20337e-07)
(0.000261522 1.07618e-06 -0 -0.00026122 -0 -3.02812e-07)
(0.000284126 3.77661e-05 -0 -0.00028398 -0 -1.46455e-07)
(0.000294506 9.25211e-05 -0 -0.000294899 -0 3.92995e-07)
(0.00029426 0.000160256 -0 -0.000295338 -0 1.07748e-06)
(0.000288787 0.000238641 -0 -0.000290666 -0 1.87889e-06)
(0.000267134 0.000322201 -0 -0.000269739 -0 2.60449e-06)
(0.000201281 0.000392832 -0 -0.000202845 -0 1.56356e-06)
(8.29678e-05 0.00043968 -0 -8.23422e-05 -0 -6.2564e-07)
(-7.85291e-05 0.000458131 -0 8.09408e-05 -0 -2.41173e-06)
(-0.000256654 0.000420072 -0 0.00025885 -0 -2.19626e-06)
(-0.000381903 0.000292746 -0 0.000382139 -0 -2.36403e-07)
(-0.000371606 0.000107902 -0 0.000365673 -0 5.93314e-06)
(-0.000175077 -2.7148e-05 -0 0.00017405 -0 1.02695e-06)
(-1.63276e-05 -4.77296e-05 -0 1.73037e-05 -0 -9.76011e-07)
(3.09372e-05 -7.4708e-05 -0 -3.03855e-05 -0 -5.5168e-07)
(9.25512e-05 -3.84543e-05 -0 -9.35963e-05 -0 1.04501e-06)
(0.000147891 -4.06869e-05 -0 -0.000148482 -0 5.91043e-07)
(0.000188132 -4.74421e-05 -0 -0.00018801 -0 -1.21629e-07)
(0.000225869 -5.2891e-05 -0 -0.000225574 -0 -2.94982e-07)
(0.000266531 -5.20588e-05 -0 -0.000266198 -0 -3.33169e-07)
(0.000310348 -3.76154e-05 -0 -0.000309811 -0 -5.37252e-07)
(0.000352295 -3.85391e-06 -0 -0.000352197 -0 -9.85952e-08)
(0.000391361 4.4423e-05 -0 -0.000391993 -0 6.32151e-07)
(0.000436348 0.000100636 -0 -0.000435924 -0 -4.23942e-07)
(0.000476337 0.000173947 -0 -0.00047299 -0 -3.34681e-06)
(0.000451222 0.000265979 -0 -0.000444843 -0 -6.37936e-06)
(0.000341448 0.000357821 -0 -0.000333713 -0 -7.73473e-06)
(0.000172035 0.000435641 -0 -0.000163678 -0 -8.35737e-06)
(-3.1266e-05 0.000473137 -0 4.13366e-05 -0 -1.00706e-05)
(-0.000241331 0.000448969 -0 0.000253087 -0 -1.1756e-05)
(-0.000444021 0.000347808 -0 0.00045545 -0 -1.14287e-05)
(-0.000592853 0.000162696 -0 0.000598361 -0 -5.50755e-06)
(-0.000445273 -3.75396e-05 -0 0.000445768 -0 -4.94945e-07)
(-0.000103847 -9.62466e-05 -0 9.71158e-05 -0 6.73161e-06)
(2.91664e-05 -9.27033e-05 -0 -2.86686e-05 -0 -4.97721e-07)
(8.96017e-05 -4.58034e-05 -0 -9.05939e-05 -0 9.92229e-07)
(0.000147459 -5.37759e-05 -0 -0.00014809 -0 6.304e-07)
(0.000191132 -7.08522e-05 -0 -0.000191034 -0 -9.7842e-08)
(0.000233649 -8.85219e-05 -0 -0.000233275 -0 -3.73766e-07)
(0.000281903 -0.000101547 -0 -0.000281376 -0 -5.26381e-07)
(0.000337554 -0.000103741 -0 -0.000336636 -0 -9.18189e-07)
(0.000396471 -9.32204e-05 -0 -0.000396411 -0 -6.06082e-08)
(0.000462781 -7.98469e-05 -0 -0.000463629 -0 8.47828e-07)
(0.000537136 -5.69091e-05 -0 -0.000534307 -0 -2.82945e-06)
(0.00054172 6.45254e-06 -0 -0.000532612 -0 -9.10822e-06)
(0.000473545 0.000103447 -0 -0.00046252 -0 -1.10248e-05)
(0.000334918 0.000204368 -0 -0.00032837 -0 -6.54783e-06)
(0.000164003 0.000271526 -0 -0.000160606 -0 -3.39668e-06)
(1.82294e-05 0.000291195 -0 -1.17636e-05 -0 -6.46584e-06)
(-0.000125767 0.000286856 -0 0.000133615 -0 -7.84796e-06)
(-0.000325188 0.000254467 -0 0.000332548 -0 -7.36031e-06)
(-0.000566173 0.000117243 -0 0.000579429 -0 -1.32561e-05)
(-0.000747954 -0.000156258 -0 0.000759258 -0 -1.13037e-05)
(-0.000357289 -0.000245229 -0 0.000348414 -0 8.87572e-06)
(2.59307e-05 -0.000109429 -0 -2.55097e-05 -0 -4.21041e-07)
(8.11906e-05 -5.23728e-05 -0 -8.20955e-05 -0 9.04933e-07)
(0.000136936 -6.61523e-05 -0 -0.000137601 -0 6.65004e-07)
(0.000179519 -9.48383e-05 -0 -0.00017956 -0 4.07827e-08)
(0.000221137 -0.000127991 -0 -0.000220908 -0 -2.29162e-07)
(0.000269135 -0.000160777 -0 -0.000268811 -0 -3.23579e-07)
(0.0003258 -0.000189377 -0 -0.000325289 -0 -5.1143e-07)
(0.000385863 -0.000215276 -0 -0.000387436 -0 1.57305e-06)
(0.000453815 -0.000245005 -0 -0.00045654 -0 2.72488e-06)
(0.000487646 -0.000234751 -0 -0.000486073 -0 -1.57363e-06)
(0.000477818 -0.000169058 -0 -0.000469623 -0 -8.19494e-06)
(0.000377814 -5.58367e-05 -0 -0.000370138 -0 -7.67668e-06)
(0.000226206 4.63418e-05 -0 -0.000225451 -0 -7.55676e-07)
(0.000101813 9.91331e-05 -0 -0.000108056 -0 6.24269e-06)
(2.26821e-05 9.79048e-05 -0 -3.3278e-05 -0 1.05959e-05)
(-1.14925e-05 9.20013e-05 -0 3.39583e-06 -0 8.09664e-06)
(-9.21251e-05 0.000102473 -0 8.28781e-05 -0 9.24703e-06)
(-0.00033063 5.31828e-05 -0 0.000327552 -0 3.07802e-06)
(-0.000672154 -0.000236238 -0 0.000705944 -0 -3.37898e-05)
(-0.000738462 -0.000651243 -0 0.000736172 -0 2.29039e-06)
(2.14502e-05 -0.000124067 -0 -2.11254e-05 -0 -3.24752e-07)
(6.82046e-05 -5.77306e-05 -0 -6.89968e-05 -0 7.92202e-07)
(0.000116871 -7.61768e-05 -0 -0.000117552 -0 6.81043e-07)
(0.000152902 -0.000115454 -0 -0.000153131 -0 2.29294e-07)
(0.000186564 -0.000163906 -0 -0.000186617 -0 5.3571e-08)
(0.000224514 -0.000217135 -0 -0.000224692 -0 1.78234e-07)
(0.00026872 -0.000272984 -0 -0.000269215 -0 4.95573e-07)
(0.000312612 -0.000333676 -0 -0.000315769 -0 3.15696e-06)
(0.0003474 -0.000390599 -0 -0.00035233 -0 4.93024e-06)
(0.000350288 -0.000376922 -0 -0.000351281 -0 9.92975e-07)
(0.000327588 -0.000300043 -0 -0.000319217 -0 -8.3707e-06)
(0.000216778 -0.000141237 -0 -0.000212691 -0 -4.08701e-06)
(0.000107636 -2.38351e-05 -0 -0.000116321 -0 8.68494e-06)
(1.28356e-05 2.77178e-05 -0 -3.09002e-05 -0 1.80645e-05)
(-1.83042e-05 1.51136e-05 -0 3.39856e-06 -0 1.49057e-05)
(2.86823e-05 -1.31452e-05 -0 -3.3706e-05 -0 5.02376e-06)
(8.75237e-05 1.665e-05 -0 -9.82883e-05 -0 1.07645e-05)
(-2.97111e-05 6.24447e-05 -0 7.0939e-06 -0 2.26172e-05)
(-0.000406011 -0.000191066 -0 0.000422546 -0 -1.65354e-05)
(-0.000899008 -0.00122567 -0 0.0009104 -0 -1.13917e-05)
(1.60815e-05 -0.00013589 -0 -1.58708e-05 -0 -2.10683e-07)
(5.20496e-05 -6.12818e-05 -0 -5.26915e-05 -0 6.41873e-07)
(8.93751e-05 -8.18489e-05 -0 -9.00408e-05 -0 6.65776e-07)
(0.000113923 -0.000128222 -0 -0.000114319 -0 3.96094e-07)
(0.000133438 -0.000188092 -0 -0.000133775 -0 3.36488e-07)
(0.000153187 -0.000257051 -0 -0.000153854 -0 6.66254e-07)
(0.000174518 -0.000333452 -0 -0.000175815 -0 1.29648e-06)
(0.000189413 -0.000417626 -0 -0.000193401 -0 3.98791e-06)
(0.000185161 -0.000486506 -0 -0.000190588 -0 5.42731e-06)
(0.000157881 -0.000463277 -0 -0.000160309 -0 2.42742e-06)
(0.000131039 -0.000355795 -0 -0.000123306 -0 -7.73328e-06)
(8.20042e-05 -0.000166659 -0 -7.86257e-05 -0 -3.37848e-06)
(2.74195e-05 -2.93832e-05 -0 -3.67808e-05 -0 9.3613e-06)
(-1.84906e-05 5.22266e-05 -0 2.26946e-06 -0 1.62211e-05)
(-2.6942e-05 5.19474e-05 -0 2.12851e-05 -0 5.65692e-06)
(1.78916e-05 -1.85024e-06 -0 -1.20652e-05 -0 -5.8264e-06)
(0.000138352 8.02135e-06 -0 -0.000131766 -0 -6.58674e-06)
(0.000177322 0.000135716 -0 -0.000200573 -0 2.32509e-05)
(-9.86765e-05 -1.15467e-05 -0 7.53964e-05 -0 2.32801e-05)
(-0.000766939 -0.00165879 -0 0.000791893 -0 -2.49544e-05)
(1.03341e-05 -0.000144401 -0 -1.02398e-05 -0 -9.43387e-08)
(3.45824e-05 -6.24346e-05 -0 -3.50796e-05 -0 4.97155e-07)
(5.77918e-05 -8.16282e-05 -0 -5.83726e-05 -0 5.80807e-07)
(6.76501e-05 -0.000129897 -0 -6.80995e-05 -0 4.49326e-07)
(6.9236e-05 -0.000194726 -0 -6.96701e-05 -0 4.34051e-07)
(6.62588e-05 -0.000271091 -0 -6.70906e-05 -0 8.3181e-07)
(5.88695e-05 -0.000355345 -0 -6.03022e-05 -0 1.43275e-06)
(3.94081e-05 -0.000441916 -0 -4.25166e-05 -0 3.10858e-06)
(-3.12774e-06 -0.000507618 -0 -2.65576e-06 -0 5.7835e-06)
(-4.94302e-05 -0.000484579 -0 4.91265e-05 -0 3.03715e-07)
(-6.87895e-05 -0.000363709 -0 7.27033e-05 -0 -3.91379e-06)
(-5.16939e-05 -0.000165994 -0 5.53148e-05 -0 -3.62084e-06)
(-2.23458e-05 -5.50844e-06 -0 1.50374e-05 -0 7.30839e-06)
(9.2615e-06 8.84992e-05 -0 -2.30377e-05 -0 1.37762e-05)
(4.35114e-05 0.000100204 -0 -5.14535e-05 -0 7.94209e-06)
(9.29918e-05 6.31095e-05 -0 -9.16332e-05 -0 -1.35865e-06)
(0.000172159 6.49595e-05 -0 -0.000161127 -0 -1.1032e-05)
(0.00025052 0.000240047 -0 -0.000252955 -0 2.43427e-06)
(9.63082e-05 0.000230194 -0 -0.0001335 -0 3.71921e-05)
(-0.000502429 -0.00188169 -0 0.000523291 -0 -2.08613e-05)
(4.82874e-06 -0.000149444 -0 -4.81958e-06 -0 -9.15403e-09)
(1.79321e-05 -6.10358e-05 -0 -1.8308e-05 -0 3.75858e-07)
(2.61273e-05 -7.52376e-05 -0 -2.65539e-05 -0 4.26603e-07)
(1.99594e-05 -0.000119585 -0 -2.03398e-05 -0 3.80393e-07)
(2.86402e-06 -0.000182 -0 -3.28234e-06 -0 4.1832e-07)
(-2.26424e-05 -0.000255654 -0 2.1904e-05 -0 7.38397e-07)
(-5.61699e-05 -0.000334611 -0 5.52241e-05 -0 9.45833e-07)
(-0.000103339 -0.000411364 -0 0.000101963 -0 1.37611e-06)
(-0.00017426 -0.00046637 -0 0.000169769 -0 4.49047e-06)
(-0.000242524 -0.000444325 -0 0.000243479 -0 -9.54905e-07)
(-0.00026473 -0.000316268 -0 0.000267057 -0 -2.32659e-06)
(-0.00019711 -0.000122885 -0 0.000205083 -0 -7.97322e-06)
(-9.27469e-05 3.59514e-05 -0 9.13475e-05 -0 1.39942e-06)
(6.53054e-06 0.00013273 -0 -1.95447e-05 -0 1.30142e-05)
(0.000124854 0.000152851 -0 -0.000135064 -0 1.02109e-05)
(0.000239393 0.000137282 -0 -0.000237701 -0 -1.69199e-06)
(0.000321746 0.000165641 -0 -0.000313795 -0 -7.95129e-06)
(0.000314662 0.000364065 -0 -0.00030619 -0 -8.47215e-06)
(0.000187375 0.000453229 -0 -0.000209244 -0 2.18687e-05)
(-0.000270925 -0.00194508 -0 0.000280407 -0 -9.48155e-06)
(3.9554e-07 -0.000151115 -0 -4.79595e-07 -0 8.40545e-08)
(3.77806e-06 -5.69715e-05 -0 -3.99345e-06 -0 2.1539e-07)
(-2.62614e-06 -6.22511e-05 -0 2.34513e-06 -0 2.81004e-07)
(-2.42828e-05 -9.82916e-05 -0 2.40281e-05 -0 2.54706e-07)
(-5.8387e-05 -0.000153152 -0 5.80404e-05 -0 3.46628e-07)
(-0.000102382 -0.000218361 -0 0.000101913 -0 4.69131e-07)
(-0.00015553 -0.00028565 -0 0.000155008 -0 5.22755e-07)
(-0.000220295 -0.000345486 -0 0.000219927 -0 3.68042e-07)
(-0.000303632 -0.00038048 -0 0.000302093 -0 1.53946e-06)
(-0.000384074 -0.000346505 -0 0.000386042 -0 -1.96754e-06)
(-0.000414366 -0.000219805 -0 0.000421286 -0 -6.91984e-06)
(-0.000354168 -3.49678e-05 -0 0.000365384 -0 -1.12162e-05)
(-0.000180497 0.000114077 -0 0.000187987 -0 -7.49058e-06)
(-2.04355e-05 0.000210203 -0 1.69445e-05 -0 3.491e-06)
(0.000168546 0.000251739 -0 -0.00017115 -0 2.60387e-06)
(0.000364251 0.000256203 -0 -0.000356609 -0 -7.64204e-06)
(0.000494838 0.000286157 -0 -0.000484451 -0 -1.03869e-05)
(0.000410632 0.000473872 -0 -0.000407357 -0 -3.27503e-06)
(0.000262435 0.000661623 -0 -0.000267199 -0 4.76422e-06)
(-0.000141534 -0.00195116 -0 0.000145977 -0 -4.44329e-06)
(-2.11192e-06 -0.000150194 -0 2.07916e-06 -0 3.27651e-08)
(-6.61923e-06 -4.94318e-05 -0 6.55971e-06 -0 5.95221e-08)
(-2.65134e-05 -4.30837e-05 -0 2.65157e-05 -0 -2.29895e-09)
(-6.25542e-05 -6.73868e-05 -0 6.26235e-05 -0 -6.93538e-08)
(-0.000111011 -0.000111501 -0 0.000111131 -0 -1.20465e-07)
(-0.000168471 -0.000165287 -0 0.000168615 -0 -1.44107e-07)
(-0.000233175 -0.000219101 -0 0.000233355 -0 -1.79448e-07)
(-0.000304415 -0.000260927 -0 0.000304836 -0 -4.21154e-07)
(-0.000383924 -0.000275032 -0 0.000384913 -0 -9.89108e-07)
(-0.000462416 -0.000232158 -0 0.000465387 -0 -2.97084e-06)
(-0.000489908 -0.000109151 -0 0.00049772 -0 -7.81232e-06)
(-0.000439714 6.90158e-05 -0 0.000449979 -0 -1.02646e-05)
(-0.000263833 0.00023199 -0 0.000273287 -0 -9.45449e-06)
(-3.91151e-05 0.00033377 -0 4.23691e-05 -0 -3.25392e-06)
(0.000204747 0.00038609 -0 -0.000202645 -0 -2.10222e-06)
(0.00044615 0.000385473 -0 -0.000440795 -0 -5.35484e-06)
(0.000572686 0.000381398 -0 -0.000564354 -0 -8.33208e-06)
(0.000462434 0.000538698 -0 -0.000459981 -0 -2.45311e-06)
(0.000314455 0.000792743 -0 -0.0003139 -0 -5.54925e-07)
(-7.85402e-05 -0.00194116 -0 7.48842e-05 -0 3.656e-06)
(-5.13143e-07 -0.000147318 -0 -3.98749e-07 -0 9.11892e-07)
(-1.094e-05 -3.89044e-05 -0 9.99423e-06 -0 9.45775e-07)
(-4.39506e-05 -1.78797e-05 -0 4.333e-05 -0 6.20551e-07)
(-9.27164e-05 -2.8975e-05 -0 9.24642e-05 -0 2.52143e-07)
(-0.000152142 -6.11999e-05 -0 0.000152189 -0 -4.69904e-08)
(-0.000217834 -0.00010342 -0 0.000218113 -0 -2.79031e-07)
(-0.000287677 -0.000145444 -0 0.000288249 -0 -5.71851e-07)
(-0.000359109 -0.000175189 -0 0.000360005 -0 -8.95759e-07)
(-0.000427536 -0.000177703 -0 0.0004291 -0 -1.56438e-06)
(-0.000486777 -0.000133374 -0 0.000489299 -0 -2.52185e-06)
(-0.000500527 -2.52923e-05 -0 0.00050493 -0 -4.40308e-06)
(-0.000438145 0.000128966 -0 0.000443311 -0 -5.16588e-06)
(-0.00028029 0.000288109 -0 0.000284499 -0 -4.20904e-06)
(-4.31757e-05 0.000388422 -0 4.25189e-05 -0 6.56767e-07)
(0.000214556 0.000437417 -0 -0.000217635 -0 3.0797e-06)
(0.0004431 0.000419527 -0 -0.000442132 -0 -9.67491e-07)
(0.000575583 0.000411714 -0 -0.000569535 -0 -6.04831e-06)
(0.000437371 0.000513803 -0 -0.000432313 -0 -5.05792e-06)
(0.000341893 0.000859452 -0 -0.000341447 -0 -4.45504e-07)
(-4.83782e-05 -0.00192967 -0 4.38082e-05 -0 4.56999e-06)
(-5.94023e-07 -0.000146529 -0 4.70747e-06 -0 -4.11345e-06)
(-2.01152e-05 -1.62451e-05 -0 2.80756e-05 -0 -7.96037e-06)
(-6.41813e-05 1.86289e-05 -0 7.23822e-05 -0 -8.20095e-06)
(-0.000120671 1.59188e-05 -0 0.000126266 -0 -5.59526e-06)
(-0.000182314 -7.98844e-06 -0 0.000185276 -0 -2.9617e-06)
(-0.000245841 -4.11016e-05 -0 0.000247007 -0 -1.16601e-06)
(-0.000309901 -7.38318e-05 -0 0.000310047 -0 -1.45881e-07)
(-0.00037124 -9.65745e-05 -0 0.000370877 -0 3.62651e-07)
(-0.000426446 -9.87806e-05 -0 0.000425961 -0 4.84241e-07)
(-0.000464428 -6.69283e-05 -0 0.000464329 -0 9.82612e-08)
(-0.000465486 1.03519e-05 -0 0.000465883 -0 -3.97465e-07)
(-0.000395582 0.000122942 -0 0.000395905 -0 -3.22931e-07)
(-0.000253988 0.000242639 -0 0.000253089 -0 8.98489e-07)
(-4.36792e-05 0.000322751 -0 4.10487e-05 -0 2.63057e-06)
(0.000185343 0.000359375 -0 -0.000189091 -0 3.74803e-06)
(0.000385771 0.000340202 -0 -0.000384185 -0 -1.5859e-06)
(0.000469689 0.000339533 -0 -0.000466421 -0 -3.26827e-06)
(0.00032694 0.000379909 -0 -0.000318826 -0 -8.11362e-06)
(0.000347249 0.000885748 -0 -0.000337942 -0 -9.30615e-06)
(-1.96934e-05 -0.00193733 -0 4.61768e-05 -0 -2.64834e-05)
(3.24207e-05 -0.000130462 -0 -4.64884e-05 -0 1.40677e-05)
(2.36692e-05 -4.73327e-06 -0 -5.22426e-05 -0 2.85734e-05)
(-3.46909e-05 2.51041e-05 -0 1.66167e-07 -0 3.45247e-05)
(-9.86909e-05 2.30455e-05 -0 7.25232e-05 -0 2.61677e-05)
(-0.000156815 6.42046e-06 -0 0.000137657 -0 1.91586e-05)
(-0.000211167 -1.69305e-05 -0 0.00019664 -0 1.45268e-05)
(-0.00026332 -4.20766e-05 -0 0.000251697 -0 1.16224e-05)
(-0.000311504 -6.25106e-05 -0 0.000301893 -0 9.61138e-06)
(-0.000350504 -7.13392e-05 -0 0.000342514 -0 7.99023e-06)
(-0.000371559 -6.14382e-05 -0 0.000365108 -0 6.4504e-06)
(-0.000362263 -2.74554e-05 -0 0.000357108 -0 5.15449e-06)
(-0.000305824 2.7524e-05 -0 0.000301624 -0 4.19953e-06)
(-0.000201292 8.91255e-05 -0 0.000196256 -0 5.03628e-06)
(-4.53025e-05 0.000135696 -0 3.99484e-05 -0 5.35414e-06)
(0.000126994 0.000154414 -0 -0.000133449 -0 6.45531e-06)
(0.000286321 0.000145306 -0 -0.000283753 -0 -2.56865e-06)
(0.000308553 0.000203461 -0 -0.000321043 -0 1.24906e-05)
(0.000225707 0.000215647 -0 -0.000221819 -0 -3.88783e-06)
(0.000361947 0.000923941 -0 -0.000344172 -0 -1.77754e-05)
(5.96901e-05 -0.00202949 -0 6.52547e-06 -0 -6.62156e-05)
(7.71873e-06 -0.000193003 -0 2.3241e-05 -0 -3.09598e-05)
(-7.49943e-05 5.11301e-05 -0 0.000136261 -0 -6.12666e-05)
(-0.000121921 4.85933e-05 -0 0.000178167 -0 -5.62463e-05)
(-0.000125972 4.733e-06 -0 0.000165522 -0 -3.95501e-05)
(-0.000136207 -4.3234e-05 -0 0.000165143 -0 -2.89354e-05)
(-0.000154614 -8.59886e-05 -0 0.000177198 -0 -2.25837e-05)
(-0.000176132 -0.000122906 -0 0.0001943 -0 -1.81677e-05)
(-0.000197874 -0.000154226 -0 0.000212942 -0 -1.50684e-05)
(-0.000217698 -0.000179226 -0 0.00023046 -0 -1.27616e-05)
(-0.000229888 -0.000195537 -0 0.000240804 -0 -1.09153e-05)
(-0.000226637 -0.000201062 -0 0.00023583 -0 -9.19336e-06)
(-0.000198316 -0.000194826 -0 0.00020564 -0 -7.32377e-06)
(-0.000138858 -0.000180776 -0 0.000144876 -0 -6.01732e-06)
(-5.49141e-05 -0.000169999 -0 6.02436e-05 -0 -5.32945e-06)
(3.44222e-05 -0.000158743 -0 -3.2807e-05 -0 -1.61517e-06)
(0.00013809 -0.000154661 -0 -0.000126554 -0 -1.15365e-05)
(0.000117594 -6.64526e-05 -0 -0.000147166 -0 2.95722e-05)
(0.000206586 -3.07075e-05 -0 -0.000203409 -0 -3.17672e-06)
(0.000445138 0.00097002 -0 -0.000460528 -0 1.53896e-05)
(0.0003665 -0.0024067 -0 -0.000412095 -0 4.5595e-05)
(0.000132247 -0.000177943 -0 -0.000186251 -0 5.40043e-05)
(2.38589e-05 -0.000153555 -0 -7.60605e-05 -0 5.22016e-05)
(-5.81256e-05 -0.000253763 -0 1.63494e-05 -0 4.17763e-05)
(-8.40014e-05 -0.000317871 -0 5.65994e-05 -0 2.7402e-05)
(-9.72446e-05 -0.000356758 -0 7.67043e-05 -0 2.05403e-05)
(-0.000104969 -0.000393564 -0 8.87787e-05 -0 1.61905e-05)
(-0.000110697 -0.000430046 -0 9.81613e-05 -0 1.25355e-05)
(-0.000116544 -0.000463707 -0 0.000106956 -0 9.58836e-06)
(-0.00012241 -0.000493756 -0 0.000115055 -0 7.35522e-06)
(-0.000126654 -0.000520425 -0 0.000120873 -0 5.78184e-06)
(-0.000126375 -0.000542863 -0 0.000121693 -0 4.68196e-06)
(-0.000118688 -0.000563053 -0 0.000114643 -0 4.04483e-06)
(-0.000100788 -0.000577559 -0 9.66637e-05 -0 4.12473e-06)
(-6.96942e-05 -0.000595829 -0 6.62287e-05 -0 3.46549e-06)
(-3.58359e-05 -0.00061148 -0 2.83799e-05 -0 7.45606e-06)
(5.11692e-05 -0.000647597 -0 -4.4238e-05 -0 -6.9312e-06)
(3.54736e-05 -0.000624069 -0 -7.73245e-05 -0 4.18509e-05)
(0.000472074 -0.000680972 -0 -0.000385037 -0 -8.70368e-05)
(0.000483779 0.000501221 -0 -0.000629169 -0 0.00014539)
(0.00152784 -0.00396544 -0 -0.0018103 -0 0.000282463)
(-0.000971634 -0.00986128 -0 0.000993042 -0 -2.14087e-05)
(-0.000637994 -0.0104919 -0 0.000759984 -0 -0.000121989)
(-0.00061123 -0.0114944 -0 0.00064095 -0 -2.972e-05)
(-0.000521786 -0.0120097 -0 0.000540071 -0 -1.82857e-05)
(-0.00043918 -0.0122257 -0 0.000461465 -0 -2.22854e-05)
(-0.000389351 -0.0122855 -0 0.000407871 -0 -1.85199e-05)
(-0.000358799 -0.0122524 -0 0.000371538 -0 -1.27391e-05)
(-0.000335821 -0.0121677 -0 0.000344905 -0 -9.08475e-06)
(-0.000316189 -0.0120372 -0 0.000323259 -0 -7.07004e-06)
(-0.000298817 -0.0118929 -0 0.000304551 -0 -5.7344e-06)
(-0.000280927 -0.0117403 -0 0.000285594 -0 -4.66746e-06)
(-0.000258862 -0.0115827 -0 0.000262889 -0 -4.02705e-06)
(-0.000231565 -0.0114417 -0 0.000234734 -0 -3.16864e-06)
(-0.000189016 -0.011317 -0 0.000194387 -0 -5.37088e-06)
(-0.000152558 -0.0112482 -0 0.000151933 -0 6.25466e-07)
(-1.35838e-05 -0.0112035 -0 4.33164e-05 -0 -2.97327e-05)
(-0.000118955 -0.0113449 -0 4.74919e-05 -0 7.14633e-05)
(0.00107168 -0.0112066 -0 -0.000701632 -0 -0.000370046)
(-0.0010018 -0.0122233 -0 0.000234868 -0 0.000766932)
(0.00593402 -0.01103 -0 -0.0051334 -0 -0.000800623)
)
;

boundaryField
{
    movingWall
    {
        type            calculated;
        value           nonuniform List<symmTensor> 
20
(
(-0.000384153 -0.00400019 -0 0.000563222 -0 -0.000179069)
(-0.000248853 -0.00370364 -0 0.000404326 -0 -0.000155473)
(-0.000192842 -0.00385583 -0 0.000284494 -0 -9.16524e-05)
(-0.000145959 -0.0039681 -0 0.000204553 -0 -5.85943e-05)
(-0.000114412 -0.00400313 -0 0.000156604 -0 -4.21923e-05)
(-9.58504e-05 -0.00400061 -0 0.000127523 -0 -3.16723e-05)
(-8.39465e-05 -0.00397414 -0 0.000108034 -0 -2.40872e-05)
(-7.5111e-05 -0.00393454 -0 9.37208e-05 -0 -1.86098e-05)
(-6.79876e-05 -0.00388319 -0 8.25213e-05 -0 -1.45337e-05)
(-6.21731e-05 -0.00382936 -0 7.36631e-05 -0 -1.149e-05)
(-5.69657e-05 -0.00377428 -0 6.61523e-05 -0 -9.18656e-06)
(-5.16767e-05 -0.00371837 -0 5.92722e-05 -0 -7.59552e-06)
(-4.60771e-05 -0.0036677 -0 5.26415e-05 -0 -6.5644e-06)
(-3.84049e-05 -0.00362169 -0 4.50348e-05 -0 -6.62996e-06)
(-3.2156e-05 -0.00359305 -0 3.78086e-05 -0 -5.65256e-06)
(-8.73343e-06 -0.0035695 -0 2.02607e-05 -0 -1.15272e-05)
(-2.81884e-05 -0.00361389 -0 2.34451e-05 -0 4.74338e-06)
(0.000176061 -0.00353078 -0 -0.000102811 -0 -7.32499e-05)
(-0.000215165 -0.00410609 -0 0.00012497 -0 9.01953e-05)
(0.0010804 -0.00299685 -0 -0.000994991 -0 -8.54103e-05)
)
;
    }
    fixedWalls
    {
        type            calculated;
        value           nonuniform List<symmTensor> 
60
(
(3.29104e-06 1.5185e-07 -0 -4.03608e-06 -0 7.45038e-07)
(9.02928e-06 -6.90505e-06 -0 -9.40552e-06 -0 3.76247e-07)
(1.37404e-05 -1.98658e-05 -0 -1.36615e-05 -0 -7.88923e-08)
(1.5859e-05 -3.51211e-05 -0 -1.54985e-05 -0 -3.60451e-07)
(1.63056e-05 -5.11169e-05 -0 -1.59252e-05 -0 -3.80448e-07)
(1.56686e-05 -6.68436e-05 -0 -1.53519e-05 -0 -3.16726e-07)
(1.42699e-05 -8.16094e-05 -0 -1.40513e-05 -0 -2.18568e-07)
(1.22703e-05 -9.48222e-05 -0 -1.21667e-05 -0 -1.03586e-07)
(9.8028e-06 -0.000105966 -0 -9.81907e-06 -0 1.62669e-08)
(7.04885e-06 -0.000114624 -0 -7.17912e-06 -0 1.30271e-07)
(4.25418e-06 -0.000120591 -0 -4.47233e-06 -0 2.18151e-07)
(1.68088e-06 -0.000123862 -0 -1.94515e-06 -0 2.64271e-07)
(-2.95882e-07 -0.000124662 -0 1.901e-08 -0 2.76872e-07)
(-1.17883e-06 -0.000123769 -0 1.05629e-06 -0 1.22542e-07)
(-7.46023e-09 -0.000121855 -0 -2.94913e-07 -0 3.02373e-07)
(9.95336e-07 -0.000123409 -0 1.50211e-06 -0 -2.49744e-06)
(1.74031e-05 -0.000111219 -0 -2.24201e-05 -0 5.01697e-06)
(1.16378e-05 -0.000175205 -0 6.10818e-06 -0 -1.7746e-05)
(6.50183e-05 -0.000111064 -0 -8.03278e-05 -0 1.53095e-05)
(-0.000289749 -0.00233671 -0 0.000254348 -0 3.54015e-05)
(1.73156e-06 8.4939e-07 -0 -4.62554e-07 -0 -1.26901e-06)
(-3.56052e-06 -1.80375e-06 -0 4.5549e-06 -0 -9.94376e-07)
(-3.79168e-06 -1.10525e-05 -0 4.88116e-06 -0 -1.08947e-06)
(2.13716e-06 -1.65284e-05 -0 2.07135e-08 -0 -2.15788e-06)
(5.98063e-06 -1.54824e-05 -0 1.90063e-06 -0 -7.88126e-06)
(-6.08464e-06 -2.50854e-05 -0 2.39074e-05 -0 -1.78227e-05)
(-7.76636e-05 -6.99983e-05 -0 9.76996e-05 -0 -2.0036e-05)
(-0.000208565 -0.000241349 -0 0.000204756 -0 3.8087e-06)
(-0.000263146 -0.000493887 -0 0.000243512 -0 1.96338e-05)
(-0.000236517 -0.000728635 -0 0.000212503 -0 2.40141e-05)
(-0.000168327 -0.00089326 -0 0.000144959 -0 2.33684e-05)
(-0.000107449 -0.000971653 -0 8.53591e-05 -0 2.20898e-05)
(-7.86295e-05 -0.00100749 -0 5.53461e-05 -0 2.32834e-05)
(-6.95978e-05 -0.00102496 -0 4.21965e-05 -0 2.74013e-05)
(-6.84341e-05 -0.00103356 -0 3.81708e-05 -0 3.02633e-05)
(-6.64761e-05 -0.00104461 -0 4.02964e-05 -0 2.61797e-05)
(-4.77083e-05 -0.00107772 -0 3.06142e-05 -0 1.70941e-05)
(5.28103e-05 -0.00114639 -0 -6.64933e-05 -0 1.36831e-05)
(0.000528741 -0.00137288 -0 -0.000446354 -0 -8.23869e-05)
(0.00258829 -0.00225464 -0 -0.00166916 -0 -0.000919131)
(3.9785e-06 -8.11795e-08 -0 -3.23728e-06 -0 -7.41223e-07)
(9.17199e-06 6.94446e-06 -0 -8.75469e-06 -0 -4.17295e-07)
(1.29117e-05 1.97581e-05 -0 -1.25918e-05 -0 -3.19876e-07)
(1.43961e-05 3.43521e-05 -0 -1.41405e-05 -0 -2.55572e-07)
(1.50728e-05 4.96359e-05 -0 -1.47822e-05 -0 -2.9056e-07)
(1.54367e-05 6.52796e-05 -0 -1.51368e-05 -0 -2.99928e-07)
(1.55806e-05 8.11947e-05 -0 -1.53431e-05 -0 -2.37516e-07)
(1.5271e-05 9.71023e-05 -0 -1.51879e-05 -0 -8.31431e-08)
(1.40438e-05 0.000112362 -0 -1.41359e-05 -0 9.21203e-08)
(1.10497e-05 0.000125758 -0 -1.13756e-05 -0 3.2587e-07)
(6.12361e-06 0.000134706 -0 -6.72763e-06 -0 6.04026e-07)
(-4.77255e-07 0.000137943 -0 -3.24502e-07 -0 8.01757e-07)
(-9.3702e-06 0.000133262 -0 9.04954e-06 -0 3.20655e-07)
(-1.81171e-05 0.000118744 -0 1.82365e-05 -0 -1.19418e-07)
(-2.47837e-05 9.62399e-05 -0 2.55203e-05 -0 -7.36593e-07)
(-2.75647e-05 6.85854e-05 -0 2.85964e-05 -0 -1.03178e-06)
(-2.56272e-05 4.04947e-05 -0 2.64469e-05 -0 -8.19659e-07)
(-1.93388e-05 1.64365e-05 -0 1.94018e-05 -0 -6.29459e-08)
(-9.44999e-06 5.54345e-07 -0 8.72777e-06 -0 7.22218e-07)
(3.14383e-08 -2.27506e-06 -0 -9.19413e-07 -0 8.87974e-07)
)
;
    }
    frontAndBack
    {
        type            empty;
    }
}


// ************************************************************************* //
