/*--------------------------------*- C++ -*----------------------------------*\
| =========                 |                                                 |
| \\      /  F ield         | OpenFOAM: The Open Source CFD Toolbox           |
|  \\    /   O peration     | Version:  2312                                  |
|   \\  /    A nd           | Website:  www.openfoam.com                      |
|    \\/     M anipulation  |                                                 |
\*---------------------------------------------------------------------------*/
FoamFile
{
    version     2.0;
    format      ascii;
    arch        "LSB;label=32;scalar=64";
    class       volSymmTensorField;
    location    "1.5";
    object      turbulenceProperties:R;
}
// * * * * * * * * * * * * * * * * * * * * * * * * * * * * * * * * * * * * * //

dimensions      [0 2 -2 0 0 0 0];

internalField   nonuniform List<symmTensor> 
400
(
(6.07831e-05 2.38587e-08 -0 5.58226e-05 -0 5.83189e-05)
(9.31581e-05 3.11797e-06 -0 8.04169e-05 -0 8.7041e-05)
(0.000127507 9.22233e-06 -0 0.000107444 -0 0.000117675)
(0.000156842 1.71195e-05 -0 0.000132113 -0 0.000144752)
(0.000182939 2.62047e-05 -0 0.000154907 -0 0.000169214)
(0.000207372 3.63195e-05 -0 0.000176743 -0 0.000192363)
(0.000230922 4.7393e-05 -0 0.000198349 -0 0.000214954)
(0.000253187 5.91571e-05 -0 0.000219958 -0 0.000236897)
(0.000272604 7.09486e-05 -0 0.000241248 -0 0.000257167)
(0.000286331 8.14608e-05 -0 0.000261354 -0 0.000274077)
(0.00028874 8.81995e-05 -0 0.000275372 -0 0.00028234)
(0.000283084 9.06274e-05 -0 0.000285631 -0 0.000284573)
(0.00026899 8.70253e-05 -0 0.000291475 -0 0.000280178)
(0.000244598 7.58294e-05 -0 0.000285701 -0 0.000264786)
(0.000215538 5.92118e-05 -0 0.000268755 -0 0.000241279)
(0.000182257 3.96784e-05 -0 0.000237116 -0 0.000208641)
(0.000147737 2.14934e-05 -0 0.000193794 -0 0.000169961)
(0.000113273 7.98909e-06 -0 0.000143749 -0 0.000128231)
(7.95308e-05 6.87186e-07 -0 9.24729e-05 -0 8.59778e-05)
(5.86908e-05 -4.35621e-07 -0 5.95646e-05 -0 5.91409e-05)
(9.1158e-05 -3.03517e-06 -0 7.85107e-05 -0 8.46713e-05)
(0.000169619 9.82591e-08 -0 0.000118581 -0 0.000144233)
(0.000225323 6.2154e-06 -0 0.000147346 -0 0.00018578)
(0.00026114 1.17616e-05 -0 0.000168121 -0 0.000213956)
(0.000285701 1.6237e-05 -0 0.000183805 -0 0.000234089)
(0.00030424 2.05316e-05 -0 0.000197146 -0 0.000250068)
(0.000320136 2.55595e-05 -0 0.000210696 -0 0.00026484)
(0.000335011 3.21786e-05 -0 0.000226979 -0 0.000280472)
(0.000348446 4.11301e-05 -0 0.000248362 -0 0.00029794)
(0.000357413 5.26564e-05 -0 0.000276886 -0 0.000316886)
(0.000357018 6.66144e-05 -0 0.000314835 -0 0.000335964)
(0.000344301 8.04564e-05 -0 0.000363387 -0 0.000354262)
(0.000318379 8.65813e-05 -0 0.000412101 -0 0.000367271)
(0.000284354 8.46928e-05 -0 0.000455352 -0 0.000372355)
(0.000249807 7.0561e-05 -0 0.000479865 -0 0.000367137)
(0.000214828 4.3806e-05 -0 0.000456191 -0 0.000337376)
(0.000183609 1.51905e-05 -0 0.000387103 -0 0.000286967)
(0.000153793 -4.45415e-06 -0 0.00028771 -0 0.000222553)
(0.00011967 -8.29359e-06 -0 0.000171336 -0 0.000146251)
(8.1431e-05 -2.54716e-06 -0 8.90422e-05 -0 8.55431e-05)
(0.000130676 -9.22285e-06 -0 0.000109821 -0 0.000120021)
(0.00025434 -7.61596e-06 -0 0.000156818 -0 0.000206378)
(0.000337585 -1.08732e-06 -0 0.000186133 -0 0.000261698)
(0.000390519 4.71665e-06 -0 0.000206525 -0 0.000297902)
(0.000427584 9.22006e-06 -0 0.000220191 -0 0.000323267)
(0.000455974 1.43076e-05 -0 0.000230502 -0 0.000342683)
(0.000478968 2.24577e-05 -0 0.000241658 -0 0.000359797)
(0.000497263 3.61231e-05 -0 0.000258062 -0 0.000377199)
(0.000508997 5.69794e-05 -0 0.000284589 -0 0.000396488)
(0.000511133 8.50029e-05 -0 0.000325689 -0 0.000418581)
(0.000500644 0.000117643 -0 0.00038357 -0 0.000443037)
(0.000476367 0.0001492 -0 0.00045622 -0 0.000468395)
(0.000438248 0.000167578 -0 0.000532491 -0 0.000489371)
(0.0003923 0.000163762 -0 0.000595045 -0 0.000497944)
(0.000342779 0.000142221 -0 0.000639388 -0 0.00049508)
(0.000292743 8.8186e-05 -0 0.000614186 -0 0.000456226)
(0.000243348 2.87445e-05 -0 0.000524714 -0 0.000384972)
(0.000198257 -1.64324e-05 -0 0.000387457 -0 0.000293687)
(0.000155359 -2.50231e-05 -0 0.000225268 -0 0.000190541)
(0.000108705 -8.46507e-06 -0 0.000117828 -0 0.000113488)
(0.000165238 -1.74883e-05 -0 0.000138873 -0 0.000151669)
(0.00031671 -1.65273e-05 -0 0.000188886 -0 0.000253812)
(0.000422622 -1.2136e-05 -0 0.000216992 -0 0.000319983)
(0.000492438 -7.72634e-06 -0 0.000235725 -0 0.00036352)
(0.000544508 -3.47878e-06 -0 0.000246747 -0 0.000394976)
(0.00058716 3.23712e-06 -0 0.000253833 -0 0.000419862)
(0.0006243 1.67946e-05 -0 0.00026186 -0 0.000442382)
(0.00065548 4.15994e-05 -0 0.000277047 -0 0.000465588)
(0.000677305 7.9373e-05 -0 0.000306406 -0 0.000491384)
(0.000686911 0.000127195 -0 0.000354779 -0 0.000520981)
(0.00068486 0.000179179 -0 0.000421938 -0 0.000554583)
(0.000672563 0.000228032 -0 0.000502961 -0 0.000590238)
(0.000645975 0.000263285 -0 0.000590685 -0 0.000623499)
(0.000598774 0.000267473 -0 0.000675003 -0 0.000645159)
(0.000534392 0.00025251 -0 0.000758119 -0 0.000654285)
(0.000448205 0.000192481 -0 0.000790509 -0 0.000625183)
(0.000354896 0.00010121 -0 0.000717254 -0 0.000539936)
(0.000264594 1.66394e-05 -0 0.00053266 -0 0.000399473)
(0.000187897 -2.93333e-05 -0 0.000283563 -0 0.000235847)
(0.000132609 -1.45012e-05 -0 0.000136406 -0 0.00013468)
(0.000195033 -2.69806e-05 -0 0.000165551 -0 0.000179874)
(0.000362808 -2.46039e-05 -0 0.000216406 -0 0.000290872)
(0.00048665 -2.40529e-05 -0 0.000243666 -0 0.00036581)
(0.000570409 -2.37751e-05 -0 0.00026198 -0 0.000415984)
(0.000637106 -2.22837e-05 -0 0.000271393 -0 0.000453905)
(0.000697275 -1.60282e-05 -0 0.000275214 -0 0.000485945)
(0.000755363 9.80888e-07 -0 0.000278906 -0 0.00051672)
(0.000809346 3.44793e-05 -0 0.000290682 -0 0.000549813)
(0.000855547 8.42557e-05 -0 0.000318796 -0 0.000587708)
(0.000896864 0.000144588 -0 0.000364911 -0 0.000632345)
(0.000938711 0.000211322 -0 0.000425591 -0 0.000684647)
(0.000967015 0.000277079 -0 0.000505327 -0 0.000739531)
(0.000950654 0.00032558 -0 0.000615714 -0 0.000785128)
(0.000894928 0.000352636 -0 0.000762344 -0 0.000827883)
(0.000812197 0.000361446 -0 0.000938012 -0 0.000872251)
(0.000695435 0.000329392 -0 0.00109966 -0 0.000894964)
(0.000556015 0.000225429 -0 0.00114437 -0 0.000849917)
(0.000398163 7.90123e-05 -0 0.000938043 -0 0.00067462)
(0.00024201 -1.70273e-05 -0 0.000460984 -0 0.000352463)
(0.000151859 -2.21884e-05 -0 0.000167494 -0 0.000158996)
(0.000220569 -3.70579e-05 -0 0.000190151 -0 0.000204949)
(0.000394844 -3.17098e-05 -0 0.000241345 -0 0.000319387)
(0.000531946 -3.60391e-05 -0 0.00026943 -0 0.000401473)
(0.000628379 -4.29028e-05 -0 0.000288227 -0 0.000458138)
(0.000709609 -4.82964e-05 -0 0.000297383 -0 0.000503092)
(0.000788677 -4.78003e-05 -0 0.000299526 -0 0.000543642)
(0.000871284 -3.46299e-05 -0 0.000300346 -0 0.000585073)
(0.000956251 -3.54393e-06 -0 0.000308423 -0 0.000632201)
(0.00104513 4.05532e-05 -0 0.000330014 -0 0.000688437)
(0.0011469 9.03715e-05 -0 0.0003636 -0 0.00075468)
(0.00124481 0.000151953 -0 0.00041551 -0 0.000825773)
(0.00125674 0.000223223 -0 0.000504717 -0 0.000872697)
(0.00116992 0.00028878 -0 0.000625026 -0 0.000888108)
(0.00104724 0.000344904 -0 0.000781451 -0 0.000904421)
(0.000933064 0.000372031 -0 0.000990152 -0 0.00094973)
(0.000832884 0.000350234 -0 0.00121857 -0 0.00101197)
(0.000727337 0.000268378 -0 0.00142139 -0 0.00106114)
(0.000622265 0.000124071 -0 0.00153068 -0 0.00107017)
(0.000418112 -2.61713e-05 -0 0.00103931 -0 0.000728195)
(0.000215735 -5.18098e-05 -0 0.000323914 -0 0.00027526)
(0.000242147 -4.71832e-05 -0 0.00021271 -0 0.000227048)
(0.000414438 -3.80656e-05 -0 0.000264684 -0 0.000340798)
(0.000559705 -4.80073e-05 -0 0.00029586 -0 0.000428627)
(0.000665756 -6.4577e-05 -0 0.000317436 -0 0.000491462)
(0.000759008 -8.14449e-05 -0 0.000329414 -0 0.000543695)
(0.000854703 -9.38837e-05 -0 0.000333933 -0 0.000593588)
(0.00096066 -9.60257e-05 -0 0.000336613 -0 0.000647362)
(0.00107758 -8.5959e-05 -0 0.00034646 -0 0.000711936)
(0.00121339 -7.28183e-05 -0 0.00036853 -0 0.00079212)
(0.00135586 -5.07698e-05 -0 0.000400001 -0 0.000874143)
(0.00136902 5.51082e-06 -0 0.000451479 -0 0.000898579)
(0.00127083 8.44454e-05 -0 0.00050671 -0 0.000875271)
(0.00111962 0.00016227 -0 0.000592967 -0 0.000848497)
(0.000972532 0.000211969 -0 0.000719123 -0 0.00084185)
(0.000889588 0.000225024 -0 0.000866411 -0 0.000870505)
(0.000868216 0.000221147 -0 0.00106818 -0 0.000959124)
(0.00085769 0.000196002 -0 0.00136431 -0 0.0011025)
(0.000803652 8.92246e-05 -0 0.00167548 -0 0.00122443)
(0.00071789 -0.000118044 -0 0.0018565 -0 0.00127439)
(0.000468518 -0.000160196 -0 0.000929517 -0 0.000707714)
(0.000259884 -5.6813e-05 -0 0.000233177 -0 0.000246203)
(0.000423063 -4.36885e-05 -0 0.000286852 -0 0.00035609)
(0.000570373 -5.93353e-05 -0 0.000324128 -0 0.000448145)
(0.000680851 -8.68685e-05 -0 0.000351949 -0 0.000516456)
(0.000780244 -0.000118323 -0 0.000371589 -0 0.000575598)
(0.00088481 -0.000149267 -0 0.000385378 -0 0.000634643)
(0.00100362 -0.000175812 -0 0.00039917 -0 0.000700683)
(0.00113654 -0.000198719 -0 0.000422713 -0 0.000781803)
(0.00128747 -0.000223129 -0 0.000458402 -0 0.000876659)
(0.00135612 -0.000206936 -0 0.000497778 -0 0.000924869)
(0.00131865 -0.00014301 -0 0.000517189 -0 0.000907522)
(0.00113504 -4.51817e-05 -0 0.000529811 -0 0.000823106)
(0.000908479 3.59857e-05 -0 0.000557755 -0 0.000732237)
(0.000778504 7.65133e-05 -0 0.000616523 -0 0.000704741)
(0.000719521 7.52701e-05 -0 0.000676499 -0 0.000710229)
(0.000807829 7.13369e-05 -0 0.000819373 -0 0.000823018)
(0.000919066 7.85649e-05 -0 0.00105324 -0 0.000996787)
(0.00101244 4.05071e-05 -0 0.00151375 -0 0.00126661)
(0.000997287 -0.000178639 -0 0.00203938 -0 0.00148001)
(0.000897997 -0.000472923 -0 0.00196885 -0 0.00143592)
(0.000273844 -6.54035e-05 -0 0.0002514 -0 0.000262365)
(0.000422322 -4.8197e-05 -0 0.000307778 -0 0.000366042)
(0.00056513 -6.85007e-05 -0 0.000354329 -0 0.000460648)
(0.000673459 -0.00010607 -0 0.000392301 -0 0.000533196)
(0.000770963 -0.000151977 -0 0.000424942 -0 0.000598027)
(0.000873523 -0.000202112 -0 0.000455396 -0 0.000664708)
(0.000990108 -0.000253909 -0 0.000489762 -0 0.000740626)
(0.00111848 -0.000308353 -0 0.000537786 -0 0.000832508)
(0.00123375 -0.000355262 -0 0.000597321 -0 0.00092226)
(0.00125213 -0.000331185 -0 0.000635688 -0 0.000945216)
(0.00116686 -0.000253916 -0 0.000619489 -0 0.000882548)
(0.000896264 -0.000112054 -0 0.000555536 -0 0.000721036)
(0.000697243 -1.85123e-05 -0 0.0005233 -0 0.00062039)
(0.000590275 2.1767e-05 -0 0.000555929 -0 0.000594381)
(0.000566999 1.20059e-05 -0 0.00058424 -0 0.000593381)
(0.000716786 -1.06679e-05 -0 0.000666156 -0 0.000697586)
(0.000960786 1.34159e-05 -0 0.000811066 -0 0.000898936)
(0.00113779 4.876e-05 -0 0.00116653 -0 0.00117865)
(0.00128551 -0.000144957 -0 0.00191412 -0 0.001581)
(0.00135054 -0.00092799 -0 0.00272049 -0 0.00202257)
(0.000284163 -7.24628e-05 -0 0.000267125 -0 0.000275475)
(0.000414265 -5.1087e-05 -0 0.000326949 -0 0.000371409)
(0.000546719 -7.36668e-05 -0 0.000385238 -0 0.000466877)
(0.000646491 -0.000117986 -0 0.000436469 -0 0.000542027)
(0.000734307 -0.00017471 -0 0.000486105 -0 0.000610675)
(0.00082471 -0.00023968 -0 0.000538418 -0 0.000682496)
(0.000925959 -0.000310706 -0 0.000599524 -0 0.000764553)
(0.0010331 -0.00038686 -0 0.000678488 -0 0.000861335)
(0.00110733 -0.000443757 -0 0.000764599 -0 0.000943391)
(0.00108938 -0.00040923 -0 0.000808306 -0 0.000952057)
(0.000969364 -0.000302028 -0 0.000753455 -0 0.000851562)
(0.000719946 -0.0001315 -0 0.000593203 -0 0.000652576)
(0.000560583 -2.28153e-05 -0 0.000510733 -0 0.000546561)
(0.000492388 4.14201e-05 -0 0.000508852 -0 0.000519917)
(0.000489946 4.19182e-05 -0 0.000528862 -0 0.000516251)
(0.000638734 -1.53934e-06 -0 0.000613811 -0 0.000619002)
(0.000957977 6.72999e-06 -0 0.000731346 -0 0.000836372)
(0.00127664 0.00010945 -0 0.000971884 -0 0.00115239)
(0.00151351 -8.82601e-06 -0 0.00164656 -0 0.00160673)
(0.00175247 -0.00127602 -0 0.0029516 -0 0.00232324)
(0.000291128 -7.7641e-05 -0 0.000280065 -0 0.00028552)
(0.000401167 -5.18697e-05 -0 0.000343293 -0 0.000372849)
(0.000518828 -7.34262e-05 -0 0.000414336 -0 0.000467366)
(0.000605197 -0.000119582 -0 0.000480227 -0 0.000543332)
(0.000677584 -0.00018103 -0 0.000548448 -0 0.000613621)
(0.000748713 -0.000253081 -0 0.000624223 -0 0.000687632)
(0.000824959 -0.000331663 -0 0.000713729 -0 0.00077135)
(0.000900043 -0.000410303 -0 0.000823979 -0 0.00086634)
(0.00094218 -0.000465001 -0 0.000942613 -0 0.000950344)
(0.00091636 -0.000432363 -0 0.0010043 -0 0.000960735)
(0.000809867 -0.00031337 -0 0.000931777 -0 0.000865764)
(0.000627277 -0.000134584 -0 0.000714037 -0 0.000666253)
(0.000504413 -4.31203e-06 -0 0.000533677 -0 0.000527626)
(0.000479519 6.99056e-05 -0 0.000454006 -0 0.000483086)
(0.000524058 8.11233e-05 -0 0.000447176 -0 0.000495262)
(0.0006788 5.29272e-05 -0 0.000523963 -0 0.000599672)
(0.000974577 5.57349e-05 -0 0.000688619 -0 0.000817399)
(0.0013354 0.000200563 -0 0.000914738 -0 0.00112812)
(0.00167028 0.000179275 -0 0.00149131 -0 0.00162424)
(0.00216138 -0.00146123 -0 0.0029579 -0 0.00253534)
(0.00029531 -8.08047e-05 -0 0.000290093 -0 0.000292694)
(0.000386323 -5.04796e-05 -0 0.000356351 -0 0.000371803)
(0.000488069 -6.76004e-05 -0 0.000440735 -0 0.000464977)
(0.000558461 -0.000110056 -0 0.000521373 -0 0.000540442)
(0.000612755 -0.000169222 -0 0.00060704 -0 0.000610481)
(0.000662239 -0.000238785 -0 0.000703846 -0 0.000684077)
(0.000713118 -0.000312672 -0 0.000817208 -0 0.000766489)
(0.000760751 -0.000382932 -0 0.000951863 -0 0.000858229)
(0.000780766 -0.000429916 -0 0.0010979 -0 0.000945545)
(0.00075457 -0.000401805 -0 0.00119406 -0 0.000973022)
(0.000672576 -0.000277906 -0 0.00113986 -0 0.000903151)
(0.000561708 -0.000102916 -0 0.000898547 -0 0.000720111)
(0.000482422 2.86623e-05 -0 0.000629191 -0 0.00055748)
(0.000498554 0.000105514 -0 0.000477826 -0 0.000503708)
(0.000619636 0.000124648 -0 0.000407677 -0 0.000526147)
(0.000835491 0.000116489 -0 0.000430657 -0 0.00063092)
(0.00115986 0.000145045 -0 0.000603347 -0 0.00087116)
(0.00142483 0.000310918 -0 0.000894615 -0 0.00114887)
(0.00178914 0.00035952 -0 0.00147452 -0 0.00165785)
(0.00250221 -0.00152056 -0 0.00293321 -0 0.00270659)
(0.000297399 -8.19817e-05 -0 0.000296924 -0 0.00029723)
(0.000372145 -4.68847e-05 -0 0.000365749 -0 0.000369213)
(0.000457242 -5.58199e-05 -0 0.0004617 -0 0.000459849)
(0.000511298 -9.03846e-05 -0 0.000555723 -0 0.000533862)
(0.000548158 -0.000142379 -0 0.000656396 -0 0.000602761)
(0.000578629 -0.000204059 -0 0.000769543 -0 0.000674744)
(0.00060853 -0.000267328 -0 0.00089915 -0 0.000754574)
(0.000636092 -0.00032264 -0 0.0010472 -0 0.000842163)
(0.00064621 -0.00035305 -0 0.00120826 -0 0.00092938)
(0.000625754 -0.00031726 -0 0.00133087 -0 0.000975611)
(0.000579898 -0.000197126 -0 0.00132933 -0 0.000945304)
(0.00053864 -3.06705e-05 -0 0.00116976 -0 0.000839446)
(0.000516776 9.52992e-05 -0 0.000824605 -0 0.000661304)
(0.000564038 0.000173333 -0 0.000594862 -0 0.000583768)
(0.000757823 0.000211116 -0 0.000472944 -0 0.000618659)
(0.00106775 0.000222541 -0 0.000441605 -0 0.000744722)
(0.00142192 0.000254942 -0 0.000549458 -0 0.000971809)
(0.00154432 0.000409427 -0 0.000837576 -0 0.0011867)
(0.00191122 0.000532561 -0 0.0014849 -0 0.00170381)
(0.00277109 -0.00153527 -0 0.00299732 -0 0.00287896)
(0.000299209 -8.16622e-05 -0 0.000301488 -0 0.000300376)
(0.000359965 -4.04456e-05 -0 0.000370748 -0 0.000365429)
(0.000429738 -3.85366e-05 -0 0.00047717 -0 0.000453451)
(0.00046806 -6.1881e-05 -0 0.000583011 -0 0.00052544)
(0.000489145 -0.000103591 -0 0.000695528 -0 0.000592169)
(0.000504183 -0.000154461 -0 0.000819189 -0 0.000661484)
(0.000519454 -0.00020525 -0 0.000956491 -0 0.000737721)
(0.000536152 -0.000244305 -0 0.00110659 -0 0.00082078)
(0.00054708 -0.000256556 -0 0.00126427 -0 0.00090429)
(0.000542946 -0.00021487 -0 0.00140166 -0 0.000968177)
(0.000532989 -9.96079e-05 -0 0.00143427 -0 0.000972935)
(0.000544397 6.22138e-05 -0 0.0013464 -0 0.000931521)
(0.000609253 0.000205287 -0 0.00108455 -0 0.000834352)
(0.000721542 0.000291259 -0 0.000792647 -0 0.000752835)
(0.000960817 0.000339077 -0 0.000603033 -0 0.000779156)
(0.00127757 0.000343992 -0 0.000486064 -0 0.000874647)
(0.00153474 0.000341913 -0 0.000515415 -0 0.00101387)
(0.00159239 0.000466413 -0 0.000793752 -0 0.00118989)
(0.00197703 0.00063643 -0 0.00147257 -0 0.00172413)
(0.00301584 -0.00153795 -0 0.0031374 -0 0.00308097)
(0.000301768 -8.01824e-05 -0 0.00030183 -0 0.000302543)
(0.000353161 -3.16987e-05 -0 0.000370218 -0 0.000362845)
(0.000408591 -1.59472e-05 -0 0.000486438 -0 0.000448344)
(0.00043283 -2.65431e-05 -0 0.000602468 -0 0.000517995)
(0.000441113 -5.67467e-05 -0 0.0007233 -0 0.000582141)
(0.000445223 -9.6516e-05 -0 0.000852069 -0 0.000648255)
(0.000451416 -0.000136213 -0 0.000990788 -0 0.000720299)
(0.000462533 -0.000164254 -0 0.00113676 -0 0.000798388)
(0.000478709 -0.00016637 -0 0.00128071 -0 0.000877514)
(0.000495327 -0.00012435 -0 0.00140537 -0 0.000946821)
(0.000518227 -2.33804e-05 -0 0.00144768 -0 0.000976847)
(0.000571305 0.000118079 -0 0.00137835 -0 0.000967732)
(0.000681633 0.000261752 -0 0.00119475 -0 0.000932457)
(0.000839783 0.000349747 -0 0.000916945 -0 0.000879251)
(0.00107929 0.000393922 -0 0.000690078 -0 0.000888846)
(0.00132867 0.000378384 -0 0.000530252 -0 0.000928152)
(0.00153809 0.000370111 -0 0.000508682 -0 0.00101523)
(0.00148848 0.00044054 -0 0.000742807 -0 0.00110914)
(0.00200249 0.000685023 -0 0.00145784 -0 0.00172963)
(0.00328206 -0.00154079 -0 0.00335567 -0 0.00332434)
(0.000307921 -8.00904e-05 -0 0.000310819 -0 0.000305997)
(0.000344605 -1.319e-05 -0 0.000383733 -0 0.000354474)
(0.000387445 1.65505e-05 -0 0.000508772 -0 0.000437179)
(0.000401951 1.4519e-05 -0 0.000627174 -0 0.000506907)
(0.000404753 -7.37226e-06 -0 0.000743989 -0 0.000570271)
(0.000406441 -3.8174e-05 -0 0.000864185 -0 0.000633688)
(0.000412423 -6.88316e-05 -0 0.000990385 -0 0.0007012)
(0.000426291 -9.02022e-05 -0 0.00111944 -0 0.000773374)
(0.000447847 -9.23087e-05 -0 0.00124441 -0 0.000846805)
(0.000479607 -6.24588e-05 -0 0.00134634 -0 0.000913112)
(0.000526494 9.62594e-06 -0 0.00139255 -0 0.000958965)
(0.000597614 0.00011353 -0 0.0013285 -0 0.000962611)
(0.000712603 0.000222723 -0 0.00117806 -0 0.000946567)
(0.00086888 0.000294173 -0 0.000946106 -0 0.000911089)
(0.00106559 0.000326217 -0 0.0007257 -0 0.000900746)
(0.00125888 0.000307219 -0 0.00056357 -0 0.000909075)
(0.00135541 0.000301443 -0 0.00052432 -0 0.000935515)
(0.00125215 0.000315477 -0 0.00071591 -0 0.000973926)
(0.00199557 0.000698945 -0 0.00145488 -0 0.00171421)
(0.00362194 -0.00156094 -0 0.00367501 -0 0.00361647)
(0.000327129 -7.13518e-05 -0 0.000283972 -0 0.000317091)
(0.000381766 -3.81215e-06 -0 0.000320627 -0 0.000385716)
(0.00041222 2.19729e-05 -0 0.00044273 -0 0.000472803)
(0.000415466 2.06332e-05 -0 0.000568758 -0 0.000527255)
(0.000416711 5.80719e-06 -0 0.000683056 -0 0.000575876)
(0.000421247 -1.54075e-05 -0 0.000792367 -0 0.000626637)
(0.000431292 -3.84626e-05 -0 0.000902075 -0 0.000682619)
(0.000449065 -5.73292e-05 -0 0.00101162 -0 0.000743564)
(0.0004768 -6.55495e-05 -0 0.00111357 -0 0.000806199)
(0.000516731 -5.64677e-05 -0 0.0011938 -0 0.000864158)
(0.000571668 -2.51945e-05 -0 0.0012318 -0 0.000908829)
(0.00064145 2.51455e-05 -0 0.00119641 -0 0.000924683)
(0.000729513 8.09814e-05 -0 0.00109073 -0 0.000916988)
(0.000845747 0.000122496 -0 0.000922705 -0 0.000891476)
(0.000969961 0.000138037 -0 0.00073714 -0 0.000862206)
(0.00110605 0.000128515 -0 0.000601854 -0 0.000850545)
(0.00112903 0.000175287 -0 0.000586622 -0 0.000873969)
(0.00110292 0.000171349 -0 0.000747324 -0 0.000920488)
(0.00207846 0.000718428 -0 0.0015294 -0 0.0017832)
(0.0041069 -0.00165228 -0 0.00406362 -0 0.0040044)
(0.000348175 -0.000108061 -0 0.000356866 -0 0.000326519)
(0.000325852 3.87551e-05 -0 0.000485977 -0 0.000336257)
(0.000369697 3.88915e-05 -0 0.000609871 -0 0.000422259)
(0.00042225 3.83532e-06 -0 0.000658457 -0 0.00049228)
(0.000463541 -3.5299e-05 -0 0.000709582 -0 0.000551124)
(0.000498836 -7.07373e-05 -0 0.000771797 -0 0.000607449)
(0.000534441 -0.000102006 -0 0.000841882 -0 0.000665544)
(0.000572984 -0.00012925 -0 0.000917272 -0 0.000726186)
(0.000614427 -0.000151613 -0 0.000993537 -0 0.000787789)
(0.000658646 -0.00016661 -0 0.00105971 -0 0.000845225)
(0.000706583 -0.000172044 -0 0.00110231 -0 0.000892645)
(0.000757728 -0.000166614 -0 0.00110319 -0 0.000921063)
(0.000806848 -0.000153552 -0 0.00104785 -0 0.000919684)
(0.000865741 -0.000142975 -0 0.000962593 -0 0.000907443)
(0.000914798 -0.000131248 -0 0.000859213 -0 0.000885002)
(0.000976019 -0.000124676 -0 0.000762683 -0 0.000855402)
(0.000962661 -5.14092e-05 -0 0.000757837 -0 0.000894566)
(0.00118631 -2.22342e-05 -0 0.000889451 -0 0.00103443)
(0.00242259 0.000751078 -0 0.00172134 -0 0.00208984)
(0.00499167 -0.0019851 -0 0.00434947 -0 0.00472698)
(0.000564781 -0.00010711 -0 0.000373066 -0 0.000517684)
(0.000644537 -9.28933e-05 -0 0.00058409 -0 0.000661683)
(0.000797607 -0.000160374 -0 0.000844674 -0 0.000860743)
(0.000916147 -0.000206099 -0 0.00100731 -0 0.000988377)
(0.00100636 -0.000235933 -0 0.0011214 -0 0.00108426)
(0.00108603 -0.00026506 -0 0.00121652 -0 0.00116763)
(0.00115715 -0.000294664 -0 0.00130026 -0 0.00124159)
(0.00122047 -0.000322882 -0 0.00137609 -0 0.00130829)
(0.00127606 -0.000349032 -0 0.00144392 -0 0.00136779)
(0.00132872 -0.000373056 -0 0.00150615 -0 0.00142365)
(0.00137825 -0.000393736 -0 0.00155818 -0 0.00147331)
(0.00143039 -0.000412579 -0 0.00160137 -0 0.00152033)
(0.00147714 -0.00042561 -0 0.00162265 -0 0.00155445)
(0.00153648 -0.000441136 -0 0.00163711 -0 0.00159065)
(0.00159637 -0.000453866 -0 0.00164404 -0 0.00162851)
(0.00173596 -0.000484061 -0 0.00166465 -0 0.00169253)
(0.00183526 -0.000469099 -0 0.00175047 -0 0.00184006)
(0.00265411 -0.000521147 -0 0.00199817 -0 0.00222623)
(0.00344629 0.0003985 -0 0.00256143 -0 0.00317725)
(0.00699359 -0.00332552 -0 0.00419413 -0 0.00594918)
(0.00203068 -0.00773295 -0 0.00357132 -0 0.00277582)
(0.00381014 -0.00859321 -0 0.00495513 -0 0.00423277)
(0.00507261 -0.00962173 -0 0.00612079 -0 0.00555938)
(0.0058638 -0.0101504 -0 0.00676126 -0 0.00628934)
(0.00634628 -0.0103832 -0 0.0071112 -0 0.00670035)
(0.00663933 -0.0104627 -0 0.00731827 -0 0.00695514)
(0.00680786 -0.0104501 -0 0.00743077 -0 0.00710302)
(0.00690349 -0.010386 -0 0.00748453 -0 0.00718238)
(0.00693146 -0.0102757 -0 0.00747734 -0 0.00719535)
(0.00693457 -0.0101513 -0 0.00744959 -0 0.00718474)
(0.00692054 -0.0100181 -0 0.00740395 -0 0.00715627)
(0.00689187 -0.00987877 -0 0.00733686 -0 0.00710921)
(0.00687277 -0.00975432 -0 0.00727031 -0 0.00706749)
(0.00686619 -0.00964367 -0 0.0071929 -0 0.00702268)
(0.00688952 -0.00958441 -0 0.00714897 -0 0.00702005)
(0.00702557 -0.00954807 -0 0.00707406 -0 0.0070118)
(0.00701849 -0.009677 -0 0.00716047 -0 0.00718092)
(0.00806186 -0.00956175 -0 0.00654883 -0 0.00683175)
(0.00670728 -0.0104723 -0 0.00776679 -0 0.00822264)
(0.011927 -0.00938436 -0 0.00251078 -0 0.00619712)
)
;

boundaryField
{
    movingWall
    {
        type            kqRWallFunction;
        value           nonuniform List<symmTensor> 
20
(
(0.00279261 -0 -0 0.00279261 -0 0.00279261)
(0.00433268 -0 -0 0.00433268 -0 0.00433268)
(0.00557197 -0.00024579 -0 0.0056024 -0 0.00557842)
(0.00628907 -0.000427574 -0 0.00632684 -0 0.00629849)
(0.0067044 -0.000520654 -0 0.00673965 -0 0.00671379)
(0.00695723 -0.000570908 -0 0.00698911 -0 0.00696639)
(0.00710132 -0.000594585 -0 0.00713005 -0 0.00711028)
(0.00717863 -0.000602852 -0 0.00720449 -0 0.00718728)
(0.00719093 -0.000597034 -0 0.00721407 -0 0.00719915)
(0.00718011 -0.000586647 -0 0.00720092 -0 0.00718787)
(0.00715161 -0.000572986 -0 0.0071703 -0 0.00715886)
(0.00710492 -0.000556099 -0 0.00712151 -0 0.00711151)
(0.00706339 -0.000541069 -0 0.00707796 -0 0.00706922)
(0.00702167 -0.000526779 -0 0.00703381 -0 0.00702629)
(0.00701485 -0.000521264 -0 0.007025 -0 0.00701869)
(0.00703587 -0.000520896 -0 0.0070401 -0 0.00703546)
(0.00711573 -0.000541733 -0 0.00712347 -0 0.00712067)
(0.0071741 -0.000533886 -0 0.00713193 -0 0.0071364)
(0.00752894 -0.000699033 -0 0.00758685 -0 0.00758093)
(0.00702752 -0.000413942 -0 0.00674086 -0 0.0068665)
)
;
    }
    fixedWalls
    {
        type            kqRWallFunction;
        value           nonuniform List<symmTensor> 
60
(
(5.83082e-05 0 -0 5.83082e-05 -0 5.83082e-05)
(8.478e-05 -0 -0 8.478e-05 -0 8.478e-05)
(0.000120173 -0 -0 0.000120173 -0 0.000120173)
(0.000151927 -0 -0 0.000151927 -0 0.000151927)
(0.000180153 -0 -0 0.000180153 -0 0.000180153)
(0.000205223 -0 -0 0.000205223 -0 0.000205223)
(0.000227302 -0 -0 0.000227302 -0 0.000227302)
(0.000246421 -0 -0 0.000246421 -0 0.000246421)
(0.000262537 -0 -0 0.000262537 -0 0.000262537)
(0.000275588 -0 -0 0.000275588 -0 0.000275588)
(0.000285571 -0 -0 0.000285571 -0 0.000285571)
(0.000292699 -0 -0 0.000292699 -0 0.000292699)
(0.000297185 -0 -0 0.000297185 -0 0.000297185)
(0.000300358 -0 -0 0.000300358 -0 0.000300358)
(0.000302047 -0 -0 0.000302047 -0 0.000302047)
(0.000308246 -0 -0 0.000308246 -0 0.000308246)
(0.000309397 -0 -0 0.000309397 -0 0.000309397)
(0.000343853 -0 -0 0.000343853 -0 0.000343853)
(0.000485177 -0 -0 0.000485177 -0 0.000485177)
(0.00279261 -0 -0 0.00279261 -0 0.00279261)
(5.91321e-05 0 -0 5.91321e-05 -0 5.91321e-05)
(8.53388e-05 -0 -0 8.53388e-05 -0 8.53388e-05)
(0.00011334 -0 -0 0.00011334 -0 0.00011334)
(0.000134565 -0 -0 0.000134565 -0 0.000134565)
(0.00015945 -0 -0 0.00015945 -0 0.00015945)
(0.000271636 -0 -0 0.000271636 -0 0.000271636)
(0.000701916 -0 -0 0.000701916 -0 0.000701916)
(0.00143426 -0 -0 0.00143426 -0 0.00143426)
(0.0020312 -0 -0 0.0020312 -0 0.0020312)
(0.00234243 -0 -0 0.00234243 -0 0.00234243)
(0.00255154 -0 -0 0.00255154 -0 0.00255154)
(0.002714 -0 -0 0.002714 -0 0.002714)
(0.00288246 -0 -0 0.00288246 -0 0.00288246)
(0.00307807 -0 -0 0.00307807 -0 0.00307807)
(0.00332069 -0 -0 0.00332069 -0 0.00332069)
(0.0036378 -0 -0 0.0036378 -0 0.0036378)
(0.00405831 -0 -0 0.00405831 -0 0.00405831)
(0.00468937 -0 -0 0.00468937 -0 0.00468937)
(0.00575043 -9.90072e-05 -0 0.00568011 -0 0.00570636)
(0.0072358 -0.000311424 -0 0.00664774 -0 0.00675134)
(5.83082e-05 -0 -0 5.83082e-05 -0 5.83082e-05)
(8.6872e-05 0 -0 8.6872e-05 -0 8.6872e-05)
(0.000117542 0 -0 0.000117542 -0 0.000117542)
(0.000144569 0 -0 0.000144569 -0 0.000144569)
(0.00016902 0 -0 0.00016902 -0 0.00016902)
(0.000192159 0 -0 0.000192159 -0 0.000192159)
(0.000214742 0 -0 0.000214742 -0 0.000214742)
(0.000236681 0 -0 0.000236681 -0 0.000236681)
(0.000257007 0 -0 0.000257007 -0 0.000257007)
(0.000273921 0 -0 0.000273921 -0 0.000273921)
(0.000282151 0 -0 0.000282151 -0 0.000282151)
(0.000284429 0 -0 0.000284429 -0 0.000284429)
(0.000280214 0 -0 0.000280214 -0 0.000280214)
(0.000265028 0 -0 0.000265028 -0 0.000265028)
(0.000241857 0 -0 0.000241857 -0 0.000241857)
(0.000209338 0 -0 0.000209338 -0 0.000209338)
(0.000170498 0 -0 0.000170498 -0 0.000170498)
(0.000128418 0 -0 0.000128418 -0 0.000128418)
(8.59938e-05 0 -0 8.59938e-05 -0 8.59938e-05)
(5.91321e-05 -0 -0 5.91321e-05 -0 5.91321e-05)
)
;
    }
    frontAndBack
    {
        type            empty;
    }
}


// ************************************************************************* //
