/*--------------------------------*- C++ -*----------------------------------*\
| =========                 |                                                 |
| \\      /  F ield         | OpenFOAM: The Open Source CFD Toolbox           |
|  \\    /   O peration     | Version:  2312                                  |
|   \\  /    A nd           | Website:  www.openfoam.com                      |
|    \\/     M anipulation  |                                                 |
\*---------------------------------------------------------------------------*/
FoamFile
{
    version     2.0;
    format      ascii;
    arch        "LSB;label=32;scalar=64";
    class       volScalarField;
    location    "1.5";
    object      turbulenceProperties:omega;
}
// * * * * * * * * * * * * * * * * * * * * * * * * * * * * * * * * * * * * * //

dimensions      [0 0 -1 0 0 0 0];

internalField   nonuniform List<scalar> 
400
(
16.7518
20.4273
23.7282
26.28
28.3789
30.2208
31.9086
33.4629
34.841
35.9568
36.499
36.6519
36.4071
35.4406
33.8905
31.5776
28.5483
24.8245
20.3522
16.881
20.1922
11.7712
11.7197
12.2969
12.8833
13.4021
13.7908
13.96
13.8184
13.3401
12.7467
12.3458
12.5564
12.6872
12.7237
12.6521
12.172
11.4749
12.6201
20.301
24.005
10.0011
8.9347
8.9869
9.12535
9.20488
9.23638
9.21567
9.17757
9.22171
9.52346
10.2591
11.6738
13.4795
14.4996
15.586
15.3242
13.6822
13.9689
23.3916
26.9583
9.88891
8.1668
7.89432
7.85152
7.86252
7.89623
7.98649
8.25137
8.91361
10.2849
12.6663
16.1185
20.3605
23.2017
25.1581
25.5341
22.658
18.8733
25.4742
29.3267
9.99815
7.87222
7.47847
7.39353
7.4146
7.53353
7.86363
8.6427
10.2628
13.244
18.0099
24.2861
30.6715
35.0749
37.028
38.0779
36.7617
31.367
27.5316
31.2754
10.1623
7.75632
7.27263
7.18293
7.26902
7.57238
8.29593
9.8458
12.8645
17.9915
25.2276
32.0728
35.9513
39.0388
43.1807
47.5001
50.1703
47.4696
34.9469
32.8935
10.3662
7.71551
7.16486
7.09105
7.27387
7.8126
9.02177
11.4574
15.9014
23.2328
29.847
33.2215
35.592
38.6179
43.0167
49.5826
58.1499
62.2975
55.888
34.2323
10.5948
7.71281
7.10689
7.05707
7.34448
8.1151
9.75274
12.8562
18.6757
24.984
29.3362
31.6343
31.0379
31.669
35.4883
45.1758
59.3432
72.8169
81.1199
35.3223
10.8411
7.73264
7.07305
7.04064
7.40916
8.34077
10.2194
13.6936
19.562
24.2417
28.2947
26.4662
23.7925
22.5794
24.158
32.1916
48.8756
76.0321
97.736
36.1834
11.1017
7.76835
7.04863
7.01244
7.41271
8.38258
10.231
13.5604
18.8181
22.9142
26.2787
23.2872
19.8436
18.3636
18.9001
24.2317
40.8085
73.4695
105.399
36.8327
11.3788
7.82229
7.02498
6.95915
7.33202
8.2473
9.97925
12.9921
17.3992
20.9427
23.4269
21.7212
18.8396
17.2464
17.3378
20.528
33.2535
67.9666
110.129
37.2949
11.6529
7.87325
7.01427
6.91051
7.24197
8.05804
9.54403
11.9735
15.4588
18.743
21.1523
21.2234
19.0888
17.5744
16.9309
18.7044
29.6431
64.1399
113.658
37.5911
11.9091
7.94277
7.00234
6.83759
7.08944
7.75231
8.94156
10.8148
13.5148
16.4209
17.8492
19.7305
18.5347
17.7934
17.0477
18.0183
28.0853
61.7959
117.127
37.8096
12.177
8.02578
7.01344
6.78408
6.95613
7.46926
8.38063
9.77843
11.7182
14.0844
15.4286
16.4425
16.5442
16.243
15.907
17.6918
27.7106
63.536
121.047
37.9352
12.3461
8.13964
7.11565
6.85299
6.95798
7.3276
7.98075
8.98145
10.3312
12.0322
13.4496
14.1418
14.5745
14.6755
15.1526
17.2095
27.7762
66.0764
125.715
38.3555
12.5404
8.37232
7.40453
7.18385
7.30215
7.64223
8.19164
8.90081
9.80031
10.853
11.9752
12.6854
13.2415
13.6813
14.6632
17.7864
30.0429
69.0163
131.579
38.4475
13.1458
9.46024
8.8359
8.84781
9.09578
9.4711
9.96105
10.5839
11.3319
12.1702
13.0651
13.7639
14.3311
15.2416
16.7136
20.8117
35.8154
77.108
138.975
40.5433
18.3299
17.4849
18.4085
19.3799
20.2462
20.9182
21.4148
21.8173
22.2544
22.7828
23.5537
24.5942
25.854
27.8514
31.1944
38.2611
59.2636
90.8585
149.39
48.1278
61.7206
72.8778
78.9578
82.2457
84.1193
84.9745
85.1551
84.7487
84.113
83.5096
83.0109
83.0815
83.5342
84.5414
86.034
89.6222
105.475
118.379
164.88
115.291
143.598
163.028
173.233
178.843
182.167
184.032
185.021
185.171
185.02
184.641
184.022
183.462
182.897
182.783
183.009
184.079
184.434
189.75
180.926
)
;

boundaryField
{
    movingWall
    {
        type            calculated;
        value           nonuniform List<scalar> 
20
(
115.291
143.598
163.028
173.233
178.843
182.167
184.032
185.021
185.171
185.02
184.641
184.022
183.462
182.897
182.783
183.009
184.079
184.434
189.75
180.926
)
;
    }
    fixedWalls
    {
        type            calculated;
        value           nonuniform List<scalar> 
60
(
16.7518
20.1922
24.005
26.9583
29.3267
31.2754
32.8935
34.2323
35.3223
36.1834
36.8327
37.2949
37.5911
37.8096
37.9352
38.3555
38.4475
40.5433
48.1278
115.291
16.881
20.301
23.3916
25.4742
27.5316
34.9469
55.888
81.1199
97.736
105.399
110.129
113.658
117.127
121.047
125.715
131.579
138.975
149.39
164.88
180.926
16.7518
20.4273
23.7282
26.28
28.3789
30.2208
31.9086
33.4629
34.841
35.9568
36.499
36.6519
36.4071
35.4406
33.8905
31.5776
28.5483
24.8245
20.3522
16.881
)
;
    }
    frontAndBack
    {
        type            empty;
    }
}


// ************************************************************************* //
