/*--------------------------------*- C++ -*----------------------------------*\
| =========                 |                                                 |
| \\      /  F ield         | OpenFOAM: The Open Source CFD Toolbox           |
|  \\    /   O peration     | Version:  2312                                  |
|   \\  /    A nd           | Website:  www.openfoam.com                      |
|    \\/     M anipulation  |                                                 |
\*---------------------------------------------------------------------------*/
FoamFile
{
    version     2.0;
    format      ascii;
    arch        "LSB;label=32;scalar=64";
    class       volScalarField;
    location    "1.5";
    object      turbulenceProperties:k;
}
// * * * * * * * * * * * * * * * * * * * * * * * * * * * * * * * * * * * * * //

dimensions      [0 2 -2 0 0 0 0];

internalField   nonuniform List<scalar> 
400
(
8.74623e-05
0.000130308
0.000176313
0.000216853
0.00025353
0.000288239
0.000322113
0.000355021
0.00038551
0.000410881
0.000423226
0.000426644
0.000420322
0.000397542
0.000362786
0.000314007
0.000255746
0.000192626
0.000128991
8.86982e-05
0.00012717
0.000216217
0.000279225
0.000321609
0.000351797
0.000375727
0.000397836
0.000421231
0.000447373
0.000475592
0.000503908
0.000530975
0.000548875
0.000556031
0.000548404
0.000504197
0.00042884
0.000332027
0.000218628
0.000128008
0.000180259
0.000308768
0.000392708
0.000447473
0.000485521
0.00051458
0.000540211
0.000566262
0.000595037
0.000627701
0.000663626
0.000700491
0.000730055
0.000742644
0.000738623
0.000681578
0.000576517
0.000439701
0.000285584
0.00017001
0.00022789
0.000379704
0.000479798
0.000545842
0.000593115
0.000630427
0.000664271
0.000699058
0.000737548
0.000781335
0.00083069
0.000882881
0.000930079
0.000959468
0.000973398
0.000931948
0.000806043
0.000598363
0.000353654
0.000201848
0.000270229
0.000435043
0.000548063
0.000624186
0.000681203
0.000729217
0.000775494
0.000824921
0.000881026
0.00094706
0.00102447
0.00110594
0.00117575
0.00124258
0.00131123
0.00134503
0.00127515
0.00100541
0.000527728
0.000239175
0.000307834
0.000477788
0.000601424
0.000687372
0.000755042
0.000815922
0.000878352
0.000948438
0.00103179
0.00113259
0.00124304
0.00131708
0.00134153
0.00136656
0.00143647
0.00153171
0.00160493
0.00161156
0.00109281
0.000407454
0.000340953
0.00050996
0.000642096
0.000737327
0.000816059
0.000891112
0.000972318
0.00106799
0.00118702
0.001315
0.00135954
0.00132641
0.00128054
0.00126675
0.00131325
0.00144776
0.00166225
0.00185178
0.00192439
0.00105287
0.000369632
0.000533003
0.000671323
0.000774628
0.000863715
0.000952416
0.00105174
0.00117053
0.00131127
0.00138938
0.00137168
0.00124398
0.00109924
0.00104988
0.00105312
0.00122511
0.00148455
0.0018964
0.00225834
0.00215139
0.000393805
0.000548072
0.000690054
0.000799478
0.000896966
0.000996813
0.00111025
0.00124439
0.00137666
0.00141652
0.00133445
0.00108642
0.000920467
0.000870292
0.00087231
0.00104026
0.00133539
0.00174148
0.00239031
0.0030468
0.000413381
0.000556311
0.000699417
0.000812493
0.000915543
0.00102281
0.00114502
0.00128646
0.00140766
0.00142487
0.00128719
0.000982863
0.000808939
0.000760579
0.00076753
0.000935774
0.00126285
0.00170046
0.0023834
0.00351365
0.000428357
0.000558654
0.000700265
0.000814378
0.000919826
0.00103028
0.00115502
0.00129518
0.00141757
0.0014407
0.0013037
0.00100378
0.000782858
0.000708306
0.000733248
0.000901218
0.0012403
0.00168913
0.00239292
0.00382731
0.000439048
0.000557239
0.000696891
0.000810138
0.000915138
0.00102508
0.00114841
0.00128542
0.00141211
0.00146083
0.00135779
0.00109018
0.000834546
0.000740044
0.00077673
0.000948534
0.00131718
0.00173416
0.00246075
0.00407101
0.000445777
0.000553553
0.000689396
0.000800441
0.000903658
0.00101146
0.00113113
0.00126273
0.00139193
0.00146612
0.00142726
0.00127393
0.00100134
0.000871334
0.000924713
0.00112704
0.00147159
0.0017843
0.00254996
0.00432369
0.000450537
0.000548071
0.00068018
0.000788255
0.000888421
0.000992428
0.00110683
0.00123176
0.00135782
0.00145639
0.0014701
0.00141116
0.00126408
0.00113351
0.0011715
0.00131914
0.00153202
0.00178802
0.00258687
0.00461711
0.000453071
0.000543112
0.000671686
0.000776646
0.000873277
0.000972774
0.00108125
0.00119884
0.00131847
0.00142376
0.00147138
0.00145869
0.00140442
0.00131799
0.00132911
0.00139354
0.001531
0.00167022
0.00259498
0.00498104
0.000462369
0.000541406
0.000666698
0.000768016
0.000859506
0.000952157
0.001052
0.00115955
0.00126953
0.00136953
0.001439
0.00144436
0.00141861
0.00136304
0.00134602
0.00136576
0.00140762
0.001471
0.00258233
0.00545671
0.000464096
0.000544055
0.000663877
0.000755739
0.000837822
0.000920126
0.00100799
0.00110212
0.00119829
0.00128734
0.00135615
0.00138127
0.00136862
0.00132996
0.00128465
0.00127923
0.00129481
0.00138537
0.00269553
0.00608746
0.00051578
0.000574043
0.000700914
0.000786494
0.000862124
0.000939041
0.00102093
0.00110822
0.00119788
0.00128179
0.00135077
0.00139099
0.00138719
0.00136789
0.00132951
0.00129705
0.00130753
0.0015551
0.00311688
0.00703406
0.000727766
0.000945155
0.00125151
0.00145592
0.00160601
0.00173509
0.0018495
0.00195243
0.00204389
0.00212926
0.00220487
0.00227605
0.00232712
0.00238212
0.00243446
0.00254657
0.0027129
0.00343925
0.00459248
0.00856845
0.00418891
0.00649902
0.00837639
0.0094572
0.0100789
0.0104564
0.0106708
0.0107852
0.0108021
0.0107844
0.0107404
0.010669
0.0106053
0.0105409
0.0105293
0.0105557
0.0106799
0.0107212
0.0113484
0.0103174
)
;

boundaryField
{
    movingWall
    {
        type            kqRWallFunction;
        value           nonuniform List<scalar> 
20
(
0.00418891
0.00649902
0.00837639
0.0094572
0.0100789
0.0104564
0.0106708
0.0107852
0.0108021
0.0107844
0.0107404
0.010669
0.0106053
0.0105409
0.0105293
0.0105557
0.0106799
0.0107212
0.0113484
0.0103174
)
;
    }
    fixedWalls
    {
        type            kqRWallFunction;
        value           nonuniform List<scalar> 
60
(
8.74623e-05
0.00012717
0.000180259
0.00022789
0.000270229
0.000307834
0.000340953
0.000369632
0.000393805
0.000413381
0.000428357
0.000439048
0.000445777
0.000450537
0.000453071
0.000462369
0.000464096
0.00051578
0.000727766
0.00418891
8.86982e-05
0.000128008
0.00017001
0.000201848
0.000239175
0.000407454
0.00105287
0.00215139
0.0030468
0.00351365
0.00382731
0.00407101
0.00432369
0.00461711
0.00498104
0.00545671
0.00608746
0.00703406
0.00856845
0.0103174
8.74623e-05
0.000130308
0.000176313
0.000216853
0.00025353
0.000288239
0.000322113
0.000355021
0.00038551
0.000410881
0.000423226
0.000426644
0.000420322
0.000397542
0.000362786
0.000314007
0.000255746
0.000192626
0.000128991
8.86982e-05
)
;
    }
    frontAndBack
    {
        type            empty;
    }
}


// ************************************************************************* //
