/*--------------------------------*- C++ -*----------------------------------*\
| =========                 |                                                 |
| \\      /  F ield         | OpenFOAM: The Open Source CFD Toolbox           |
|  \\    /   O peration     | Version:  2312                                  |
|   \\  /    A nd           | Website:  www.openfoam.com                      |
|    \\/     M anipulation  |                                                 |
\*---------------------------------------------------------------------------*/
FoamFile
{
    version     2.0;
    format      ascii;
    arch        "LSB;label=32;scalar=64";
    class       volScalarField;
    location    "1.5";
    object      turbulenceProperties:L;
}
// * * * * * * * * * * * * * * * * * * * * * * * * * * * * * * * * * * * * * //

dimensions      [0 1 0 0 0 0 0];

internalField   nonuniform List<scalar> 
400
(
0.00101927
0.00102027
0.00102169
0.00102305
0.00102437
0.00102567
0.00102692
0.00102802
0.00102888
0.00102924
0.00102907
0.00102891
0.00102812
0.00102714
0.00102609
0.00102454
0.00102274
0.00102075
0.00101884
0.00101859
0.00101965
0.00228067
0.00260316
0.0026626
0.00265802
0.0026406
0.00264059
0.00268419
0.00279457
0.00298468
0.00321527
0.00340768
0.00340651
0.00339331
0.00336028
0.00324025
0.00310615
0.00289918
0.00213909
0.00101752
0.00102114
0.00320779
0.00404943
0.00429747
0.00440853
0.00449933
0.0045943
0.00471434
0.0048527
0.00496026
0.00493863
0.00471014
0.00422574
0.0036911
0.00342211
0.00305817
0.00286066
0.00279808
0.00220874
0.00101769
0.00102237
0.0035976
0.00489685
0.00540328
0.00566311
0.00583036
0.00595926
0.00604421
0.00600909
0.00572538
0.00511632
0.00428294
0.00345441
0.00277758
0.00245507
0.00221542
0.00203001
0.00197106
0.0018192
0.00101824
0.00102339
0.00380878
0.00542947
0.00609935
0.00644504
0.00664936
0.00674885
0.00666841
0.00627024
0.0054747
0.00441237
0.00337126
0.00257774
0.00209829
0.00188487
0.00180832
0.00171217
0.00157477
0.00133712
0.00102557
0.00102422
0.00392705
0.00577264
0.00658178
0.00698431
0.00717444
0.00714564
0.00677765
0.0059564
0.0047762
0.0035778
0.00262645
0.00208498
0.00187732
0.00177252
0.00165477
0.00153983
0.00146088
0.00127144
0.00105456
0.00102489
0.00397728
0.00599618
0.00691929
0.00735512
0.00749273
0.00728698
0.0066135
0.00549013
0.00416359
0.00289757
0.0022278
0.00196661
0.00182571
0.00171327
0.00161492
0.00150127
0.00135109
0.00128563
0.00106001
0.00102539
0.00397841
0.00613327
0.00715001
0.00760327
0.0076717
0.00729623
0.00640477
0.00514247
0.00364395
0.00270647
0.00219504
0.00191349
0.00190598
0.00187088
0.0018007
0.00155715
0.00133978
0.00119152
0.00104393
0.00102572
0.00394263
0.00620231
0.00729853
0.00776632
0.00777996
0.00729362
0.00630216
0.00494692
0.00351267
0.00275123
0.00212683
0.00209292
0.00226377
0.00238815
0.00243753
0.00207253
0.00155886
0.001174
0.00103111
0.0010259
0.00387892
0.00621554
0.0073832
0.00787788
0.00787699
0.00737
0.00640059
0.00505146
0.00366227
0.00285861
0.00217812
0.00222987
0.00253742
0.00275441
0.00295502
0.00267751
0.00184489
0.0012132
0.00102679
0.00102591
0.00379239
0.00617642
0.00741664
0.00795675
0.00799271
0.00752354
0.00658426
0.00529092
0.00398288
0.00314773
0.00246913
0.00235178
0.00257916
0.0028666
0.00316126
0.00313224
0.00225649
0.00131404
0.00102561
0.00102576
0.0036985
0.00612163
0.0074086
0.00799232
0.00807164
0.00767818
0.00685852
0.00572998
0.00451403
0.00358937
0.00284992
0.00248514
0.00260189
0.0028953
0.00332114
0.00354258
0.00256484
0.00141203
0.00102492
0.00102545
0.00360694
0.00603534
0.00737668
0.00802672
0.00819033
0.00792071
0.00725573
0.00629839
0.00517266
0.00420044
0.00365084
0.00292814
0.00290767
0.00312021
0.00359536
0.00388705
0.00274596
0.00149192
0.00102497
0.00102495
0.00351008
0.00593286
0.00730873
0.00802154
0.00826839
0.0081321
0.00764585
0.00688004
0.00594587
0.00497019
0.0044453
0.00394782
0.0037154
0.00384721
0.00416867
0.00403924
0.00278599
0.00146153
0.00102487
0.00102442
0.00344631
0.00581323
0.0071505
0.00787291
0.00818393
0.00819297
0.00792094
0.00738121
0.00666819
0.00582046
0.00518458
0.0048382
0.00454781
0.00453552
0.00449792
0.00415106
0.00268629
0.00140754
0.00102497
0.00102354
0.00338759
0.00563065
0.00683324
0.00745086
0.00771512
0.00774868
0.00758951
0.00730855
0.00689422
0.00638145
0.00579421
0.00542086
0.00509045
0.00489595
0.00460148
0.00385118
0.00233079
0.00134429
0.00102499
0.001023
0.00323947
0.00497257
0.00568035
0.00597282
0.00608868
0.00612023
0.00608485
0.00597136
0.00578075
0.00552453
0.00519358
0.00490726
0.00464599
0.0042934
0.00390699
0.00315671
0.00189737
0.00122931
0.00102499
0.00102271
0.00238645
0.00276445
0.00278143
0.00276613
0.00276337
0.00278878
0.00283817
0.0028963
0.00293718
0.00294525
0.00289096
0.00276487
0.00261178
0.00239021
0.00210786
0.00172547
0.00121487
0.00112185
0.001025
0.00102339
0.000909412
0.000886262
0.000882292
0.000889611
0.000904075
0.000924013
0.000947361
0.000973946
0.00100159
0.00102658
0.00104929
0.00106009
0.00106674
0.00106554
0.0010709
0.00106106
0.00101513
0.00104517
0.001025
0.00102493
0.00102498
0.00102496
0.00102492
0.00102488
0.00102485
0.00102481
0.00102479
0.00102475
0.00102475
0.00102476
0.00102478
0.00102484
0.00102487
0.00102495
0.00102497
0.00102499
0.00102499
0.001025
0.001025
)
;

boundaryField
{
    movingWall
    {
        type            calculated;
        value           nonuniform List<scalar> 
20
(
0.00102493
0.00102498
0.00102496
0.00102492
0.00102488
0.00102485
0.00102481
0.00102479
0.00102475
0.00102475
0.00102476
0.00102478
0.00102484
0.00102487
0.00102495
0.00102497
0.00102499
0.00102499
0.001025
0.001025
)
;
    }
    fixedWalls
    {
        type            calculated;
        value           nonuniform List<scalar> 
60
(
0.00101927
0.00101965
0.00102114
0.00102237
0.00102339
0.00102422
0.00102489
0.00102539
0.00102572
0.0010259
0.00102591
0.00102576
0.00102545
0.00102495
0.00102442
0.00102354
0.001023
0.00102271
0.00102339
0.00102493
0.00101859
0.00101752
0.00101769
0.00101824
0.00102557
0.00105456
0.00106001
0.00104393
0.00103111
0.00102679
0.00102561
0.00102492
0.00102497
0.00102487
0.00102497
0.00102499
0.00102499
0.001025
0.001025
0.001025
0.00101927
0.00102027
0.00102169
0.00102305
0.00102437
0.00102567
0.00102692
0.00102802
0.00102888
0.00102924
0.00102907
0.00102891
0.00102812
0.00102714
0.00102609
0.00102454
0.00102274
0.00102075
0.00101884
0.00101859
)
;
    }
    frontAndBack
    {
        type            empty;
    }
}


// ************************************************************************* //
