/*--------------------------------*- C++ -*----------------------------------*\
| =========                 |                                                 |
| \\      /  F ield         | OpenFOAM: The Open Source CFD Toolbox           |
|  \\    /   O peration     | Version:  2312                                  |
|   \\  /    A nd           | Website:  www.openfoam.com                      |
|    \\/     M anipulation  |                                                 |
\*---------------------------------------------------------------------------*/
FoamFile
{
    version     2.0;
    format      ascii;
    arch        "LSB;label=32;scalar=64";
    class       volScalarField;
    location    "1.5";
    object      turbulenceProperties:nuEff;
}
// * * * * * * * * * * * * * * * * * * * * * * * * * * * * * * * * * * * * * //

dimensions      [0 2 -1 0 0 0 0];

internalField   nonuniform List<scalar> 
400
(
1.52211e-05
1.63791e-05
1.74306e-05
1.82517e-05
1.89338e-05
1.95378e-05
2.00949e-05
2.06094e-05
2.10648e-05
2.14271e-05
2.15956e-05
2.16404e-05
2.1545e-05
2.12172e-05
2.07046e-05
1.9944e-05
1.89584e-05
1.77595e-05
1.63379e-05
1.52543e-05
1.6298e-05
2.83683e-05
3.38253e-05
3.61536e-05
3.73064e-05
3.80349e-05
3.88479e-05
4.01741e-05
4.23751e-05
4.56513e-05
4.95325e-05
5.30087e-05
5.37127e-05
5.38262e-05
5.31009e-05
4.9851e-05
4.52315e-05
3.8935e-05
2.73238e-05
1.63055e-05
1.75092e-05
4.08733e-05
5.39531e-05
5.97917e-05
6.32057e-05
6.59029e-05
6.84873e-05
7.14456e-05
7.4836e-05
7.80678e-05
7.96833e-05
7.82803e-05
7.25376e-05
6.50943e-05
6.09408e-05
5.373e-05
4.76213e-05
4.21366e-05
3.04443e-05
1.7268e-05
1.84534e-05
4.83969e-05
6.87499e-05
7.91436e-05
8.55415e-05
9.01814e-05
9.41251e-05
9.753e-05
9.93849e-05
9.76564e-05
9.07677e-05
7.97033e-05
6.77025e-05
5.7124e-05
5.19536e-05
4.70436e-05
4.15673e-05
3.64085e-05
2.87383e-05
1.79236e-05
1.92144e-05
5.35123e-05
7.96199e-05
9.34644e-05
0.000102135
0.000108349
0.000112939
0.000114903
0.000111939
0.000102281
8.7354e-05
7.1407e-05
5.84124e-05
5.05124e-05
4.73837e-05
4.63246e-05
4.34879e-05
3.73495e-05
2.68243e-05
1.86873e-05
1.98427e-05
5.70159e-05
8.754e-05
0.000104515
0.000115116
0.000122247
0.000125994
0.000124326
0.000114795
9.80399e-05
7.90907e-05
6.22078e-05
5.18276e-05
4.80113e-05
4.67961e-05
4.54722e-05
4.3788e-05
4.21217e-05
3.30213e-05
2.16592e-05
2.03653e-05
5.91943e-05
9.32215e-05
0.000112909
0.000125083
0.000132509
0.000134455
0.000128379
0.000113603
9.26974e-05
6.8518e-05
5.44402e-05
4.85456e-05
4.55909e-05
4.40063e-05
4.36558e-05
4.35248e-05
4.1845e-05
4.08903e-05
2.8839e-05
2.07977e-05
6.03077e-05
9.704e-05
0.000118997
0.00013239
0.000139678
0.000139602
0.00013002
0.000111995
8.43951e-05
6.49023e-05
5.24042e-05
4.47483e-05
4.38259e-05
4.32542e-05
4.45215e-05
4.28615e-05
4.19564e-05
4.10139e-05
3.65211e-05
2.11489e-05
6.05551e-05
9.92391e-05
0.000123031
0.000137398
0.000144538
0.000143111
0.000131766
0.000110533
8.24117e-05
6.50476e-05
4.83965e-05
4.4779e-05
4.65784e-05
4.8633e-05
5.30609e-05
5.14826e-05
4.56309e-05
4.14382e-05
4.11738e-05
2.14246e-05
6.01106e-05
0.000100034
0.00012527
0.00014056
0.000147981
0.000146595
0.000135742
0.000113807
8.57179e-05
6.61743e-05
4.74014e-05
4.47375e-05
4.83287e-05
5.17962e-05
5.95115e-05
6.21155e-05
5.16692e-05
4.24407e-05
4.33366e-05
2.16298e-05
5.90959e-05
9.95218e-05
0.000125926
0.000142175
0.000150518
0.000150048
0.000139788
0.00011911
9.28026e-05
7.22511e-05
5.28474e-05
4.60412e-05
4.75966e-05
5.25161e-05
6.198e-05
7.04197e-05
6.07955e-05
4.52072e-05
4.4753e-05
2.17723e-05
5.78197e-05
9.85137e-05
0.000125499
0.000142427
0.000151547
0.000152517
0.000144683
0.000127936
0.000104498
8.24428e-05
6.15397e-05
4.93221e-05
4.87685e-05
5.41966e-05
6.6024e-05
8.04211e-05
6.85014e-05
4.83654e-05
4.58181e-05
2.18586e-05
5.64815e-05
9.67954e-05
0.000124311
0.00014216
0.000152671
0.000155908
0.00015122
0.000138706
0.000118482
9.69176e-05
8.13716e-05
6.07509e-05
5.70108e-05
6.19694e-05
7.61109e-05
9.16723e-05
7.35315e-05
5.12642e-05
4.69146e-05
2.19159e-05
5.50087e-05
9.47494e-05
0.000122392
0.000140957
0.00015267
0.000158185
0.000156977
0.000148859
0.000134284
0.000114377
0.000101464
8.68785e-05
7.8514e-05
8.21237e-05
9.29284e-05
9.65948e-05
7.45247e-05
5.0715e-05
4.8143e-05
2.19433e-05
5.39906e-05
9.25204e-05
0.000119146
0.00013743
0.000149807
0.000157559
0.000160217
0.000156799
0.000147812
0.000132287
0.000118457
0.00010931
0.000100431
0.000100566
0.000101967
9.89625e-05
7.01312e-05
4.92725e-05
4.96215e-05
2.20548e-05
5.3173e-05
8.96312e-05
0.000113722
0.000129644
0.000140394
0.000147657
0.000151553
0.000152631
0.000149743
0.00014259
0.000130613
0.000121831
0.000112937
0.000108384
0.000103142
8.91403e-05
5.89632e-05
4.74162e-05
5.1471e-05
2.20709e-05
5.13863e-05
8.01755e-05
9.55306e-05
0.000104693
0.00011116
0.000116428
0.000120643
0.000123218
0.000123604
0.000121432
0.000115722
0.000109435
0.000102802
9.42859e-05
8.65378e-05
7.22155e-05
4.86807e-05
4.49578e-05
5.38024e-05
2.27217e-05
4.13173e-05
5.00868e-05
5.27245e-05
5.44854e-05
5.63812e-05
5.88061e-05
6.17501e-05
6.49048e-05
6.7597e-05
6.92887e-05
6.9056e-05
6.64033e-05
6.29082e-05
5.77356e-05
5.15797e-05
4.41739e-05
3.62404e-05
4.43048e-05
5.70853e-05
2.51215e-05
2.53134e-05
2.71728e-05
2.84392e-05
2.9527e-05
3.06265e-05
3.17654e-05
3.29279e-05
3.4117e-05
3.53143e-05
3.64026e-05
3.74186e-05
3.80101e-05
3.85167e-05
3.87961e-05
3.95996e-05
4.02704e-05
4.26073e-05
4.87947e-05
6.19677e-05
4.63334e-05
5.52585e-05
6.13801e-05
6.45923e-05
6.63562e-05
6.73999e-05
6.79834e-05
6.82918e-05
6.83356e-05
6.82879e-05
6.8169e-05
6.79766e-05
6.78064e-05
6.76328e-05
6.76055e-05
6.76786e-05
6.80182e-05
6.81304e-05
6.98068e-05
6.70258e-05
)
;

boundaryField
{
    movingWall
    {
        type            calculated;
        value           nonuniform List<scalar> 
20
(
1e-05
1e-05
1.06809e-05
1.12077e-05
1.14951e-05
1.16646e-05
1.17594e-05
1.18094e-05
1.18168e-05
1.18091e-05
1.17899e-05
1.17585e-05
1.17305e-05
1.17021e-05
1.16969e-05
1.17086e-05
1.17634e-05
1.17815e-05
1.20517e-05
1.16026e-05
)
;
    }
    fixedWalls
    {
        type            calculated;
        value           nonuniform List<scalar> 
60
(
1e-05
1e-05
1e-05
1e-05
1e-05
1e-05
1e-05
1e-05
1e-05
1e-05
1e-05
1e-05
1e-05
1e-05
1e-05
1e-05
1e-05
1e-05
1e-05
1e-05
1e-05
1e-05
1e-05
1e-05
1e-05
1e-05
1e-05
1e-05
1e-05
1e-05
1e-05
1e-05
1e-05
1e-05
1e-05
1e-05
1e-05
1e-05
1.07772e-05
1.16026e-05
1e-05
1e-05
1e-05
1e-05
1e-05
1e-05
1e-05
1e-05
1e-05
1e-05
1e-05
1e-05
1e-05
1e-05
1e-05
1e-05
1e-05
1e-05
1e-05
1e-05
)
;
    }
    frontAndBack
    {
        type            empty;
    }
}


// ************************************************************************* //
