/*--------------------------------*- C++ -*----------------------------------*\
| =========                 |                                                 |
| \\      /  F ield         | OpenFOAM: The Open Source CFD Toolbox           |
|  \\    /   O peration     | Version:  2312                                  |
|   \\  /    A nd           | Website:  www.openfoam.com                      |
|    \\/     M anipulation  |                                                 |
\*---------------------------------------------------------------------------*/
FoamFile
{
    version     2.0;
    format      ascii;
    arch        "LSB;label=32;scalar=64";
    class       volVectorField;
    location    "1.5";
    object      UMean;
}
// * * * * * * * * * * * * * * * * * * * * * * * * * * * * * * * * * * * * * //

dimensions      [0 1 -1 0 0 0 0];

internalField   nonuniform List<vector> 
400
(
(-0.000184368 0.000184226 0)
(-0.000986125 0.000533639 0)
(-0.00235808 0.000747567 0)
(-0.00388241 0.000814529 0)
(-0.00545002 0.00081151 0)
(-0.00699108 0.000781568 0)
(-0.00846862 0.000738002 0)
(-0.00984747 0.000679388 0)
(-0.0110798 0.000593199 0)
(-0.0121032 0.000459556 0)
(-0.0127996 0.000270782 0)
(-0.0130398 4.55181e-05 0)
(-0.0127746 -0.000296117 0)
(-0.0118351 -0.000654889 0)
(-0.0102704 -0.000999032 0)
(-0.00817968 -0.00125106 0)
(-0.00579522 -0.00133724 0)
(-0.00342056 -0.00119327 0)
(-0.00135691 -0.000776849 0)
(-0.000221546 -0.000242033 0)
(-0.000536593 0.000993379 0)
(-0.00180946 0.00183142 0)
(-0.00340994 0.00227562 0)
(-0.00513337 0.00244145 0)
(-0.00690018 0.00245578 0)
(-0.00865568 0.00238862 0)
(-0.0103537 0.0022615 0)
(-0.0119409 0.00206556 0)
(-0.0133502 0.00177138 0)
(-0.0144959 0.00134023 0)
(-0.015269 0.000745259 0)
(-0.0155475 -1.783e-05 0)
(-0.0152236 -0.00094116 0)
(-0.0142072 -0.00194383 0)
(-0.0124992 -0.00287119 0)
(-0.0102095 -0.0035332 0)
(-0.00757874 -0.00376449 0)
(-0.00492744 -0.00347106 0)
(-0.00250113 -0.00262465 0)
(-0.000670667 -0.00131035 0)
(-0.000787677 0.0023691 0)
(-0.00229379 0.00342263 0)
(-0.00395397 0.00394265 0)
(-0.00570047 0.00416715 0)
(-0.00748632 0.00420553 0)
(-0.00927689 0.00411797 0)
(-0.0110346 0.00391936 0)
(-0.0127088 0.00358925 0)
(-0.0142323 0.0030818 0)
(-0.0155175 0.00234162 0)
(-0.0164547 0.00132681 0)
(-0.0169171 2.48814e-05 0)
(-0.016765 -0.00153561 0)
(-0.0158565 -0.00323909 0)
(-0.0141233 -0.00484033 0)
(-0.011639 -0.0060104 0)
(-0.00867359 -0.00645813 0)
(-0.00567303 -0.00608513 0)
(-0.00297685 -0.00496797 0)
(-0.000875439 -0.00309678 0)
(-0.0008951 0.00393656 0)
(-0.00252937 0.0051325 0)
(-0.00424703 0.00567264 0)
(-0.0060232 0.00592778 0)
(-0.00783197 0.00598965 0)
(-0.00965886 0.00590012 0)
(-0.0114857 0.00566104 0)
(-0.0132773 0.00523697 0)
(-0.0149792 0.00456254 0)
(-0.0165132 0.00356031 0)
(-0.0177742 0.00216441 0)
(-0.0186258 0.000336429 0)
(-0.0188869 -0.0019154 0)
(-0.0183044 -0.00447878 0)
(-0.0166305 -0.00699773 0)
(-0.0138102 -0.00893236 0)
(-0.0100967 -0.00972569 0)
(-0.00620647 -0.00915992 0)
(-0.0029382 -0.00753709 0)
(-0.000798562 -0.00493706 0)
(-0.000924968 0.00559793 0)
(-0.00262187 0.00692369 0)
(-0.00438992 0.00746356 0)
(-0.00620626 0.00773626 0)
(-0.00805756 0.00782724 0)
(-0.00994532 0.0077624 0)
(-0.0118738 0.00752922 0)
(-0.0138326 0.00707598 0)
(-0.0157927 0.00631576 0)
(-0.0177035 0.00514482 0)
(-0.0194937 0.0034645 0)
(-0.0210632 0.00118469 0)
(-0.0222237 -0.00176356 0)
(-0.0225501 -0.00532124 0)
(-0.0214303 -0.00915241 0)
(-0.018421 -0.0124246 0)
(-0.0135963 -0.0140442 0)
(-0.0078624 -0.013274 0)
(-0.00286114 -0.0104748 0)
(-0.000502321 -0.00656531 0)
(-0.000920945 0.00728462 0)
(-0.002639 0.00875528 0)
(-0.00444203 0.00929775 0)
(-0.00629528 0.00958892 0)
(-0.00819337 0.00972248 0)
(-0.0101511 0.00971597 0)
(-0.0121966 0.00954797 0)
(-0.0143527 0.00915598 0)
(-0.0166337 0.00843841 0)
(-0.0190525 0.00727692 0)
(-0.0216492 0.00555954 0)
(-0.0244479 0.00313753 0)
(-0.0272376 -0.000277437 0)
(-0.0293109 -0.00498817 0)
(-0.0295242 -0.0108326 0)
(-0.0268368 -0.0165568 0)
(-0.0210385 -0.020163 0)
(-0.0128517 -0.0197534 0)
(-0.00431124 -0.0149352 0)
(-9.59768e-05 -0.00811992 0)
(-0.000901517 0.00896059 0)
(-0.00261381 0.0106026 0)
(-0.00443233 0.0111614 0)
(-0.00630652 0.011479 0)
(-0.00823599 0.0116712 0)
(-0.0102464 0.0117588 0)
(-0.0123897 0.0117226 0)
(-0.0147281 0.011505 0)
(-0.0173359 0.011017 0)
(-0.0203251 0.0101703 0)
(-0.023913 0.00887007 0)
(-0.0282971 0.00679696 0)
(-0.0331396 0.00313212 0)
(-0.0372509 -0.00300807 0)
(-0.0391441 -0.0115539 0)
(-0.037606 -0.0209345 0)
(-0.0317583 -0.0281684 0)
(-0.0217028 -0.0297528 0)
(-0.00914177 -0.0231938 0)
(-0.000128278 -0.0106652 0)
(-0.000873885 0.0106047 0)
(-0.00256108 0.0124442 0)
(-0.00437339 0.0130333 0)
(-0.00624234 0.0133846 0)
(-0.00816875 0.0136471 0)
(-0.0101848 0.0138571 0)
(-0.0123612 0.014012 0)
(-0.0147957 0.0140817 0)
(-0.0176165 0.0140275 0)
(-0.0210236 0.0138377 0)
(-0.0253833 0.0134179 0)
(-0.0309916 0.0121165 0)
(-0.0374302 0.00843167 0)
(-0.0432891 0.000853415 0)
(-0.0468755 -0.0107236 0)
(-0.0469668 -0.0243654 0)
(-0.0424371 -0.0366625 0)
(-0.0323094 -0.0426457 0)
(-0.0169135 -0.0365717 0)
(-0.00208923 -0.0165303 0)
(-0.00084252 0.0122038 0)
(-0.00249098 0.0142608 0)
(-0.00427542 0.0148872 0)
(-0.00610646 0.0152694 0)
(-0.00798045 0.015599 0)
(-0.00992935 0.0159382 0)
(-0.0120323 0.0163137 0)
(-0.0144057 0.0167393 0)
(-0.0172045 0.0172495 0)
(-0.0206534 0.017932 0)
(-0.0251506 0.0186614 0)
(-0.031089 0.018377 0)
(-0.0381609 0.0149331 0)
(-0.0449628 0.006223 0)
(-0.0496924 -0.00796103 0)
(-0.0513369 -0.0256677 0)
(-0.0490503 -0.0434007 0)
(-0.0409615 -0.0558928 0)
(-0.0253722 -0.0544233 0)
(-0.00598628 -0.0285747 0)
(-0.000813472 0.0137523 0)
(-0.00241802 0.0160378 0)
(-0.00415722 0.0166954 0)
(-0.00591683 0.0170888 0)
(-0.00768199 0.0174587 0)
(-0.00947669 0.0179003 0)
(-0.0113758 0.0184757 0)
(-0.0134909 0.0192459 0)
(-0.0159651 0.0203082 0)
(-0.0189757 0.0218289 0)
(-0.0228129 0.023691 0)
(-0.0279339 0.0245734 0)
(-0.0344574 0.0217205 0)
(-0.0412365 0.0124942 0)
(-0.0467464 -0.00367639 0)
(-0.0497526 -0.0248565 0)
(-0.0496793 -0.0471864 0)
(-0.044817 -0.0665656 0)
(-0.0317189 -0.0736326 0)
(-0.0102739 -0.0470838 0)
(-0.000797383 0.0152575 0)
(-0.00236694 0.0177688 0)
(-0.00405395 0.0184355 0)
(-0.00571437 0.0187979 0)
(-0.00731672 0.0191525 0)
(-0.00887177 0.0196312 0)
(-0.0104402 0.0203297 0)
(-0.0121099 0.0213436 0)
(-0.0139849 0.0228031 0)
(-0.0161529 0.0249073 0)
(-0.0187585 0.0275838 0)
(-0.0221119 0.0295331 0)
(-0.0269614 0.0278233 0)
(-0.0330505 0.0188253 0)
(-0.0389329 0.00138421 0)
(-0.0431552 -0.0223115 0)
(-0.0450619 -0.0483074 0)
(-0.0434495 -0.0733538 0)
(-0.0344799 -0.0906366 0)
(-0.0137289 -0.0706192 0)
(-0.000810752 0.0167512 0)
(-0.0023777 0.0194666 0)
(-0.00402114 0.0200957 0)
(-0.00556441 0.0203589 0)
(-0.00695864 0.0206137 0)
(-0.00820193 0.0210297 0)
(-0.00933906 0.021729 0)
(-0.0104288 0.0228228 0)
(-0.0115285 0.0244404 0)
(-0.0126436 0.0267529 0)
(-0.0137634 0.0297706 0)
(-0.0149981 0.0324296 0)
(-0.0171849 0.0321184 0)
(-0.0212867 0.0247032 0)
(-0.026891 0.00753722 0)
(-0.0324345 -0.0175062 0)
(-0.0365677 -0.0466974 0)
(-0.0380487 -0.0763647 0)
(-0.0338729 -0.10366 0)
(-0.0159354 -0.0965549 0)
(-0.000881563 0.0182809 0)
(-0.00251412 0.0211641 0)
(-0.00413703 0.0216778 0)
(-0.00555338 0.0217438 0)
(-0.00670289 0.0217894 0)
(-0.00757993 0.0220207 0)
(-0.00822087 0.0225776 0)
(-0.00866319 0.0235695 0)
(-0.0089256 0.0250984 0)
(-0.00896965 0.0272737 0)
(-0.00868357 0.0301026 0)
(-0.00803071 0.0329048 0)
(-0.00751996 0.0335457 0)
(-0.0086654 0.0285206 0)
(-0.0126618 0.0138269 0)
(-0.0188806 -0.0109339 0)
(-0.0253692 -0.0419094 0)
(-0.0299477 -0.0755079 0)
(-0.0308857 -0.112151 0)
(-0.0173056 -0.122689 0)
(-0.00105359 0.0200254 0)
(-0.00285252 0.0229413 0)
(-0.00449302 0.0232021 0)
(-0.00577197 0.0229341 0)
(-0.00664071 0.0226391 0)
(-0.00710935 0.0225559 0)
(-0.00722004 0.022831 0)
(-0.00700272 0.0235591 0)
(-0.00645692 0.0248029 0)
(-0.00553365 0.026597 0)
(-0.00410394 0.028892 0)
(-0.00205793 0.0312581 0)
(0.000367231 0.032285 0)
(0.00196062 0.0291734 0)
(0.000444112 0.0183403 0)
(-0.00494105 -0.00343969 0)
(-0.0129125 -0.0340784 0)
(-0.0202621 -0.0704958 0)
(-0.0263954 -0.115359 0)
(-0.0183463 -0.147146 0)
(-0.00140667 0.0219148 0)
(-0.00353755 0.0248157 0)
(-0.00519317 0.024643 0)
(-0.00628863 0.0238755 0)
(-0.00681713 0.023107 0)
(-0.0068325 0.0225929 0)
(-0.00639638 0.0224729 0)
(-0.00554223 0.0228169 0)
(-0.00426223 0.0236481 0)
(-0.00251063 0.0249423 0)
(-0.000194217 0.0265914 0)
(0.00279103 0.0282735 0)
(0.00633824 0.0291498 0)
(0.00970431 0.0273896 0)
(0.0108693 0.0199983 0)
(0.00759811 0.00337017 0)
(-0.000260957 -0.0242439 0)
(-0.00969034 -0.0617117 0)
(-0.0203827 -0.112271 0)
(-0.0190934 -0.168348 0)
(-0.00197757 0.0252322 0)
(-0.00455503 0.0271231 0)
(-0.00622208 0.0260233 0)
(-0.00703715 0.0245096 0)
(-0.00712481 0.0231383 0)
(-0.00663086 0.022113 0)
(-0.00563922 0.0215304 0)
(-0.00418494 0.0214204 0)
(-0.00225531 0.0217683 0)
(0.000191186 0.0225177 0)
(0.00321465 0.0235395 0)
(0.00686119 0.0245644 0)
(0.011065 0.0250783 0)
(0.0153858 0.0240145 0)
(0.0184766 0.0192152 0)
(0.0179638 0.00751681 0)
(0.0113708 -0.0146782 0)
(0.00213107 -0.0504511 0)
(-0.0116844 -0.103093 0)
(-0.0191291 -0.18715 0)
(-0.00332981 0.0256859 0)
(-0.00666961 0.0277527 0)
(-0.00765826 0.0261944 0)
(-0.00770618 0.0242404 0)
(-0.00709725 0.0224364 0)
(-0.00598607 0.0209877 0)
(-0.00438701 0.0199891 0)
(-0.00233081 0.0194447 0)
(0.000200761 0.0193163 0)
(0.00325374 0.0195348 0)
(0.00687627 0.0199809 0)
(0.0110763 0.0204454 0)
(0.0157644 0.0205808 0)
(0.0206813 0.0197596 0)
(0.0249325 0.0167478 0)
(0.0269659 0.00887887 0)
(0.0224007 -0.00680415 0)
(0.01659 -0.03885 0)
(-0.000551921 -0.0899345 0)
(-0.0178997 -0.207531 0)
(-0.00474987 0.0435726 0)
(-0.00771251 0.0389391 0)
(-0.00734772 0.0323363 0)
(-0.00611586 0.0271025 0)
(-0.00448599 0.0234886 0)
(-0.00236652 0.0208455 0)
(0.000247536 0.0189473 0)
(0.00326768 0.0176616 0)
(0.00668207 0.0168464 0)
(0.0105338 0.0163866 0)
(0.0148684 0.0161709 0)
(0.0196889 0.0160475 0)
(0.0248893 0.0157915 0)
(0.0302702 0.0150316 0)
(0.0350727 0.0131515 0)
(0.0389771 0.00824486 0)
(0.0358143 -0.00183651 0)
(0.0391594 -0.027571 0)
(0.00821355 -0.0707711 0)
(-0.00985282 -0.225732 0)
(-0.00667818 0.01745 0)
(-0.0089256 0.0104045 0)
(-0.00262171 0.00961235 0)
(0.00429216 0.0116967 0)
(0.0117221 0.0120486 0)
(0.0187891 0.0113467 0)
(0.0253573 0.0106463 0)
(0.0315182 0.010157 0)
(0.0374288 0.00980003 0)
(0.0432478 0.00952539 0)
(0.0490934 0.00931609 0)
(0.0550308 0.00913215 0)
(0.0610077 0.00889744 0)
(0.0670229 0.0083997 0)
(0.0722115 0.00745715 0)
(0.0779731 0.00485189 0)
(0.0739596 0.0009482 0)
(0.0880288 -0.0137953 0)
(0.019234 -0.0350453 0)
(0.0484443 -0.202585 0)
(0.0398114 0.0912036 0)
(0.0607278 0.0656777 0)
(0.0842696 0.0396769 0)
(0.10367 0.0255991 0)
(0.117915 0.0183577 0)
(0.12945 0.014168 0)
(0.139699 0.0114411 0)
(0.149039 0.00953294 0)
(0.157614 0.00811925 0)
(0.165582 0.00703462 0)
(0.17308 0.00617898 0)
(0.180206 0.00547834 0)
(0.186948 0.00488483 0)
(0.193408 0.00434095 0)
(0.198706 0.00377242 0)
(0.20491 0.00298807 0)
(0.200663 0.001996 0)
(0.22393 -0.00160695 0)
(0.10902 0.00715863 0)
(0.351675 -0.0942628 0)
)
;

boundaryField
{
    movingWall
    {
        type            calculated;
        value           uniform (1 0 0);
    }
    fixedWalls
    {
        type            calculated;
        value           uniform (0 0 0);
    }
    frontAndBack
    {
        type            empty;
    }
}


// ************************************************************************* //
