/*--------------------------------*- C++ -*----------------------------------*\
| =========                 |                                                 |
| \\      /  F ield         | OpenFOAM: The Open Source CFD Toolbox           |
|  \\    /   O peration     | Version:  2312                                  |
|   \\  /    A nd           | Website:  www.openfoam.com                      |
|    \\/     M anipulation  |                                                 |
\*---------------------------------------------------------------------------*/
FoamFile
{
    version     2.0;
    format      ascii;
    arch        "LSB;label=32;scalar=64";
    class       volSymmTensorField;
    location    "1.5";
    object      UPrime2Mean;
}
// * * * * * * * * * * * * * * * * * * * * * * * * * * * * * * * * * * * * * //

dimensions      [0 2 -2 0 0 0 0];

internalField   nonuniform List<symmTensor> 
400
(
(4.2857e-09 -4.17987e-09 0 4.0777e-09 0 0)
(2.55224e-07 -1.3508e-07 0 7.2519e-08 0 0)
(1.78473e-06 -5.60116e-07 0 1.77182e-07 0 0)
(5.36283e-06 -1.13272e-06 0 2.40578e-07 0 0)
(1.14062e-05 -1.75586e-06 0 2.7119e-07 0 0)
(2.00813e-05 -2.4055e-06 0 2.88658e-07 0 0)
(3.14481e-05 -3.06626e-06 0 2.99451e-07 0 0)
(4.52951e-05 -3.67096e-06 0 2.98461e-07 0 0)
(6.08475e-05 -4.02689e-06 0 2.68038e-07 0 0)
(7.65825e-05 -3.79291e-06 0 1.89418e-07 0 0)
(8.90514e-05 -2.70011e-06 0 8.29111e-08 0 0)
(9.42997e-05 -9.30537e-07 0 1.09009e-08 0 0)
(9.05356e-05 2.19772e-06 0 6.18249e-08 0 0)
(7.51497e-05 4.87613e-06 0 3.41398e-07 0 0)
(5.28835e-05 6.21206e-06 0 7.80396e-07 0 0)
(3.00755e-05 5.56074e-06 0 1.09873e-06 0 0)
(1.293e-05 3.53839e-06 0 1.03958e-06 0 0)
(3.66847e-06 1.44489e-06 0 6.24098e-07 0 0)
(4.83963e-07 2.60663e-07 0 1.70323e-07 0 0)
(4.20302e-08 3.47825e-08 0 2.95528e-08 0 0)
(7.54792e-08 -1.40565e-07 0 2.64313e-07 0 0)
(1.15947e-06 -1.19075e-06 0 1.22293e-06 0 0)
(4.60167e-06 -3.13745e-06 0 2.13964e-06 0 0)
(1.11751e-05 -5.50142e-06 0 2.70946e-06 0 0)
(2.13808e-05 -8.04796e-06 0 3.03102e-06 0 0)
(3.54958e-05 -1.0669e-05 0 3.20972e-06 0 0)
(5.35265e-05 -1.31753e-05 0 3.24895e-06 0 0)
(7.49023e-05 -1.51288e-05 0 3.06534e-06 0 0)
(9.81035e-05 -1.57299e-05 0 2.53339e-06 0 0)
(0.000120322 -1.39136e-05 0 1.61917e-06 0 0)
(0.000137341 -8.86306e-06 0 5.85964e-07 0 0)
(0.000144367 -6.09274e-07 0 4.30216e-08 0 0)
(0.000137776 9.71958e-06 0 8.016e-07 0 0)
(0.000116556 1.90127e-05 0 3.35256e-06 0 0)
(8.5093e-05 2.34833e-05 0 6.89407e-06 0 0)
(5.17348e-05 2.13239e-05 0 9.30194e-06 0 0)
(2.51018e-05 1.45061e-05 0 8.86484e-06 0 0)
(9.11601e-06 7.14922e-06 0 5.92221e-06 0 0)
(1.95225e-06 2.13097e-06 0 2.42962e-06 0 0)
(1.20599e-07 2.32942e-07 0 4.50959e-07 0 0)
(2.06377e-07 -6.09516e-07 0 1.80469e-06 0 0)
(2.0613e-06 -3.0948e-06 0 4.64664e-06 0 0)
(6.53274e-06 -6.69159e-06 0 6.85501e-06 0 0)
(1.4288e-05 -1.09395e-05 0 8.37798e-06 0 0)
(2.58959e-05 -1.55898e-05 0 9.39085e-06 0 0)
(4.18104e-05 -2.04472e-05 0 1.00115e-05 0 0)
(6.22608e-05 -2.51144e-05 0 1.01522e-05 0 0)
(8.69008e-05 -2.87279e-05 0 9.52753e-06 0 0)
(0.00011436 -2.98089e-05 0 7.80306e-06 0 0)
(0.000141809 -2.64711e-05 0 4.97502e-06 0 0)
(0.000164858 -1.71647e-05 0 1.84403e-06 0 0)
(0.000178073 -1.63756e-06 0 1.566e-07 0 0)
(0.000175813 1.81662e-05 0 2.20452e-06 0 0)
(0.000154164 3.70078e-05 0 9.54208e-06 0 0)
(0.000115706 4.70953e-05 0 2.02658e-05 0 0)
(7.09028e-05 4.34626e-05 0 2.8172e-05 0 0)
(3.36646e-05 2.93679e-05 0 2.74667e-05 0 0)
(1.20019e-05 1.4446e-05 0 1.9221e-05 0 0)
(2.81787e-06 4.81257e-06 0 9.42887e-06 0 0)
(2.27316e-07 7.37384e-07 0 2.61875e-06 0 0)
(2.86048e-07 -1.24048e-06 0 5.38571e-06 0 0)
(2.55956e-06 -5.23988e-06 0 1.07277e-05 0 0)
(7.49208e-06 -1.03866e-05 0 1.44025e-05 0 0)
(1.56594e-05 -1.63984e-05 0 1.71813e-05 0 0)
(2.76983e-05 -2.3119e-05 0 1.9317e-05 0 0)
(4.4319e-05 -3.03729e-05 0 2.08538e-05 0 0)
(6.62456e-05 -3.76842e-05 0 2.14983e-05 0 0)
(9.38238e-05 -4.38738e-05 0 2.0595e-05 0 0)
(0.000126537 -4.67976e-05 0 1.73889e-05 0 0)
(0.000162435 -4.35261e-05 0 1.17456e-05 0 0)
(0.000197746 -3.11317e-05 0 5.02111e-06 0 0)
(0.000226599 -7.74633e-06 0 5.05334e-07 0 0)
(0.000240565 2.59044e-05 0 3.2778e-06 0 0)
(0.000228241 6.33641e-05 0 1.8528e-05 0 0)
(0.000182801 8.85553e-05 0 4.44788e-05 0 0)
(0.000114584 8.59292e-05 0 6.69366e-05 0 0)
(4.9817e-05 5.62604e-05 0 6.75515e-05 0 0)
(1.37297e-05 2.30309e-05 0 4.58172e-05 0 0)
(3.02054e-06 5.98162e-06 0 2.1893e-05 0 0)
(3.71506e-07 1.15904e-06 0 6.98881e-06 0 0)
(2.98454e-07 -1.83216e-06 0 1.12581e-05 0 0)
(2.63532e-06 -7.18562e-06 0 1.95973e-05 0 0)
(7.55568e-06 -1.36927e-05 0 2.4832e-05 0 0)
(1.55858e-05 -2.13062e-05 0 2.91676e-05 0 0)
(2.74834e-05 -3.00841e-05 0 3.30081e-05 0 0)
(4.42751e-05 -4.00243e-05 0 3.63076e-05 0 0)
(6.73457e-05 -5.07867e-05 0 3.84771e-05 0 0)
(9.81593e-05 -6.11451e-05 0 3.82978e-05 0 0)
(0.000137873 -6.85091e-05 0 3.42464e-05 0 0)
(0.000186915 -6.89013e-05 0 2.55783e-05 0 0)
(0.000245035 -5.74622e-05 0 1.36525e-05 0 0)
(0.000311113 -2.8575e-05 0 2.85311e-06 0 0)
(0.000379102 2.35327e-05 0 1.8667e-06 0 0)
(0.00042397 9.75036e-05 0 2.34803e-05 0 0)
(0.000403471 0.000171401 0 7.56545e-05 0 0)
(0.000297789 0.000198338 0 0.000138228 0 0)
(0.000147763 0.000147879 0 0.000159149 0 0)
(3.61605e-05 5.78288e-05 0 0.000109971 0 0)
(3.52323e-06 6.20472e-06 0 4.2602e-05 0 0)
(9.78024e-07 1.59867e-06 0 1.32201e-05 0 0)
(2.65608e-07 -2.24959e-06 0 1.90956e-05 0 0)
(2.39615e-06 -8.58952e-06 0 3.08275e-05 0 0)
(6.90292e-06 -1.61197e-05 0 3.77342e-05 0 0)
(1.42905e-05 -2.50261e-05 0 4.40004e-05 0 0)
(2.54319e-05 -3.56821e-05 0 5.03432e-05 0 0)
(4.16654e-05 -4.84351e-05 0 5.6712e-05 0 0)
(6.509e-05 -6.34058e-05 0 6.22935e-05 0 0)
(9.86279e-05 -7.98855e-05 0 6.52976e-05 0 0)
(0.000146152 -9.57087e-05 0 6.32418e-05 0 0)
(0.00021345 -0.000107258 0 5.43706e-05 0 0)
(0.000312128 -0.00011009 0 3.92368e-05 0 0)
(0.000461873 -9.574e-05 0 2.04981e-05 0 0)
(0.000671202 -4.00726e-05 0 4.07883e-06 0 0)
(0.000888359 9.40225e-05 0 1.34034e-05 0 0)
(0.000987993 0.000299401 0 9.68687e-05 0 0)
(0.000864584 0.000462032 0 0.000258466 0 0)
(0.000556064 0.000446594 0 0.000381411 0 0)
(0.000214067 0.00024252 0 0.000314303 0 0)
(2.44057e-05 3.67207e-05 0 0.000109271 0 0)
(2.14137e-06 1.71293e-06 0 1.98271e-05 0 0)
(2.07499e-07 -2.40754e-06 0 2.81727e-05 0 0)
(1.95111e-06 -9.20223e-06 0 4.36361e-05 0 0)
(5.72051e-06 -1.72402e-05 0 5.23823e-05 0 0)
(1.19837e-05 -2.68864e-05 0 6.0996e-05 0 0)
(2.16495e-05 -3.88702e-05 0 7.07608e-05 0 0)
(3.62275e-05 -5.40282e-05 0 8.18841e-05 0 0)
(5.83414e-05 -7.32937e-05 0 9.36998e-05 0 0)
(9.23079e-05 -9.73284e-05 0 0.000104437 0 0)
(0.000145248 -0.00012628 0 0.000111656 0 0)
(0.000230731 -0.000161004 0 0.000114324 0 0)
(0.000380341 -0.000205206 0 0.000113371 0 0)
(0.000649712 -0.000250471 0 0.000100733 0 0)
(0.00105995 -0.000226604 0 5.35587e-05 0 0)
(0.00149411 -1.46406e-05 0 4.51549e-06 0 0)
(0.00175914 0.000398654 0 9.44451e-05 0 0)
(0.00172605 0.000840869 0 0.000417152 0 0)
(0.0013375 0.00102675 0 0.000807497 0 0)
(0.000719332 0.000771825 0 0.000872862 0 0)
(0.000185148 0.000253735 0 0.000422002 0 0)
(4.48882e-06 3.29256e-06 0 3.20405e-05 0 0)
(1.40267e-07 -2.25364e-06 0 3.74823e-05 0 0)
(1.40243e-06 -8.83484e-06 0 5.68927e-05 0 0)
(4.22347e-06 -1.66727e-05 0 6.76294e-05 0 0)
(8.98636e-06 -2.6203e-05 0 7.89336e-05 0 0)
(1.64937e-05 -3.84365e-05 0 9.29304e-05 0 0)
(2.81496e-05 -5.46716e-05 0 0.000110473 0 0)
(4.65771e-05 -7.67641e-05 0 0.000131729 0 0)
(7.65578e-05 -0.000107278 0 0.000156331 0 0)
(0.000126749 -0.000150103 0 0.000184721 0 0)
(0.000215035 -0.000213813 0 0.000221697 0 0)
(0.00038441 -0.000314907 0 0.000270974 0 0)
(0.000705451 -0.000442978 0 0.000293973 0 0)
(0.00120292 -0.000478298 0 0.000202524 0 0)
(0.00175409 -0.000228661 0 3.48014e-05 0 0)
(0.00214912 0.000356174 0 6.47938e-05 0 0)
(0.00225806 0.00107735 0 0.000528161 0 0)
(0.00200363 0.00160913 0 0.00131381 0 0)
(0.00135926 0.00156396 0 0.00184311 0 0)
(0.000536635 0.000816637 0 0.0013337 0 0)
(4.31281e-05 7.12352e-05 0 0.000170341 0 0)
(8.02572e-08 -1.77952e-06 0 4.58701e-05 0 0)
(8.6689e-07 -7.40548e-06 0 6.91983e-05 0 0)
(2.70734e-06 -1.41929e-05 0 8.1932e-05 0 0)
(5.85424e-06 -2.24932e-05 0 9.59794e-05 0 0)
(1.08657e-05 -3.33834e-05 0 0.000114503 0 0)
(1.87534e-05 -4.83475e-05 0 0.000139352 0 0)
(3.15091e-05 -6.97692e-05 0 0.000172214 0 0)
(5.29731e-05 -0.000101511 0 0.000215551 0 0)
(9.0353e-05 -0.000150107 0 0.000275607 0 0)
(0.000158119 -0.000228746 0 0.00036822 0 0)
(0.00029028 -0.00036016 0 0.000499392 0 0)
(0.000547899 -0.000536704 0 0.000581819 0 0)
(0.000969765 -0.000632371 0 0.00044897 0 0)
(0.00148363 -0.000435133 0 0.000137421 0 0)
(0.00191267 0.000139296 0 3.35898e-05 0 0)
(0.00213025 0.00095966 0 0.000515983 0 0)
(0.00208034 0.00176099 0 0.00160865 0 0)
(0.00165924 0.00211953 0 0.00283285 0 0)
(0.00086985 0.00155818 0 0.00296135 0 0)
(0.000145218 0.000333794 0 0.000888877 0 0)
(4.4241e-08 -1.03732e-06 0 5.2206e-05 0 0)
(4.77493e-07 -5.00921e-06 0 7.9082e-05 0 0)
(1.54718e-06 -9.89203e-06 0 9.35574e-05 0 0)
(3.37258e-06 -1.57863e-05 0 0.000109921 0 0)
(6.22184e-06 -2.35336e-05 0 0.000132391 0 0)
(1.06008e-05 -3.43376e-05 0 0.000163898 0 0)
(1.75688e-05 -5.02811e-05 0 0.00020786 0 0)
(2.92363e-05 -7.4863e-05 0 0.000269858 0 0)
(4.96275e-05 -0.000113711 0 0.000361738 0 0)
(8.62191e-05 -0.000176385 0 0.000508866 0 0)
(0.00015485 -0.00027924 0 0.00072057 0 0)
(0.000292121 -0.00043065 0 0.000875097 0 0)
(0.000555423 -0.000565571 0 0.000733922 0 0)
(0.000956765 -0.000517941 0 0.00031992 0 0)
(0.00140876 -0.000150644 0 6.5254e-05 0 0)
(0.00173006 0.000560087 0 0.000441097 0 0)
(0.00180491 0.00143102 0 0.00160012 0 0)
(0.00156076 0.00210147 0 0.00334806 0 0)
(0.00096544 0.00200101 0 0.00469641 0 0)
(0.000229363 0.000707874 0 0.0025892 0 0)
(4.62574e-08 -1.48004e-07 0 5.56424e-05 0 0)
(3.60642e-07 -1.95131e-06 0 8.52547e-05 0 0)
(1.12396e-06 -4.2761e-06 0 0.000100946 0 0)
(2.37555e-06 -6.83503e-06 0 0.000118691 0 0)
(4.18146e-06 -9.96629e-06 0 0.000143576 0 0)
(6.69977e-06 -1.4161e-05 0 0.000179351 0 0)
(1.0332e-05 -2.03997e-05 0 0.000230621 0 0)
(1.59672e-05 -3.02369e-05 0 0.000304743 0 0)
(2.55643e-05 -4.55557e-05 0 0.000415657 0 0)
(4.34537e-05 -6.69056e-05 0 0.000590733 0 0)
(7.80152e-05 -9.82739e-05 0 0.000841509 0 0)
(0.000147092 -0.000158977 0 0.00105073 0 0)
(0.000295938 -0.000290145 0 0.000970719 0 0)
(0.000601454 -0.000430632 0 0.000539716 0 0)
(0.00105312 -0.000391622 0 0.000183602 0 0)
(0.00145552 2.98211e-05 0 0.000393836 0 0)
(0.00159689 0.000827655 0 0.00141444 0 0)
(0.0014064 0.00166142 0 0.00332294 0 0)
(0.000901761 0.00195002 0 0.00577264 0 0)
(0.000247492 0.00096084 0 0.00509002 0 0)
(9.4555e-08 7.29815e-07 0 5.58168e-05 0 0)
(6.04191e-07 1.27011e-06 0 8.70172e-05 0 0)
(1.71241e-06 1.77531e-06 0 0.000103131 0 0)
(3.46777e-06 2.9571e-06 0 0.000120965 0 0)
(5.90972e-06 5.10059e-06 0 0.000146088 0 0)
(9.18553e-06 8.61148e-06 0 0.000182556 0 0)
(1.36816e-05 1.38929e-05 0 0.000235185 0 0)
(2.03247e-05 2.1681e-05 0 0.00031107 0 0)
(3.13833e-05 3.39155e-05 0 0.000422193 0 0)
(5.34005e-05 5.69744e-05 0 0.00058922 0 0)
(9.99049e-05 9.82155e-05 0 0.00082583 0 0)
(0.000193004 0.00013575 0 0.00104787 0 0)
(0.000340841 7.20255e-05 0 0.00106252 0 0)
(0.000604459 -0.000190743 0 0.000744884 0 0)
(0.00101354 -0.000507057 0 0.000371795 0 0)
(0.00143237 -0.000472499 0 0.000387228 0 0)
(0.0015838 0.000149144 0 0.00113642 0 0)
(0.00138099 0.00105305 0 0.00293556 0 0)
(0.000852649 0.00159821 0 0.00603402 0 0)
(0.000229255 0.000981365 0 0.00762625 0 0)
(1.90924e-07 1.40691e-06 0 5.28642e-05 0 0)
(1.23286e-06 4.04269e-06 0 8.43876e-05 0 0)
(3.38922e-06 7.17057e-06 0 0.00010003 0 0)
(6.79493e-06 1.18321e-05 0 0.000116597 0 0)
(1.1633e-05 1.8874e-05 0 0.00013971 0 0)
(1.83625e-05 2.9472e-05 0 0.000173218 0 0)
(2.79173e-05 4.51139e-05 0 0.000221334 0 0)
(4.21901e-05 6.80224e-05 0 0.0002895 0 0)
(6.52094e-05 0.000102039 0 0.000385529 0 0)
(0.00010678 0.000154792 0 0.000520809 0 0)
(0.000188212 0.000236116 0 0.000702691 0 0)
(0.000340841 0.000328575 0 0.000890106 0 0)
(0.000572977 0.000333555 0 0.000963255 0 0)
(0.000865361 8.71298e-05 0 0.000831322 0 0)
(0.0012484 -0.000414802 0 0.000550608 0 0)
(0.00162058 -0.000752075 0 0.000417715 0 0)
(0.00172384 -0.000419409 0 0.000820972 0 0)
(0.00145473 0.000443402 0 0.00231893 0 0)
(0.000869742 0.00116385 0 0.00565782 0 0)
(0.00021233 0.000855139 0 0.00955949 0 0)
(3.30131e-07 1.69745e-06 0 4.80798e-05 0 0)
(2.20369e-06 5.83363e-06 0 7.83744e-05 0 0)
(5.98713e-06 1.08899e-05 0 9.26445e-05 0 0)
(1.19313e-05 1.81566e-05 0 0.000106758 0 0)
(2.04518e-05 2.88112e-05 0 0.000126018 0 0)
(3.24932e-05 4.44799e-05 0 0.000153768 0 0)
(4.97766e-05 6.71765e-05 0 0.000193239 0 0)
(7.53298e-05 9.95445e-05 0 0.000247954 0 0)
(0.000114672 0.000145217 0 0.000321814 0 0)
(0.000178633 0.00020921 0 0.000418698 0 0)
(0.000289402 0.000296246 0 0.000538963 0 0)
(0.000479538 0.00039253 0 0.000665177 0 0)
(0.000764647 0.000424373 0 0.000750814 0 0)
(0.00109881 0.000253812 0 0.00075048 0 0)
(0.0014478 -0.000214563 0 0.000659084 0 0)
(0.00179565 -0.000743815 0 0.000480995 0 0)
(0.00188382 -0.0007458 0 0.00055709 0 0)
(0.00154926 -4.9092e-05 0 0.0016 0 0)
(0.000909536 0.000749307 0 0.00479837 0 0)
(0.000203248 0.000674893 0 0.0106506 0 0)
(5.2242e-07 1.4842e-06 0 4.17919e-05 0 0)
(3.42266e-06 6.15996e-06 0 7.02027e-05 0 0)
(9.04919e-06 1.21685e-05 0 8.25021e-05 0 0)
(1.78393e-05 2.08191e-05 0 9.33863e-05 0 0)
(3.03914e-05 3.32964e-05 0 0.000107725 0 0)
(4.81581e-05 5.13119e-05 0 0.00012821 0 0)
(7.36016e-05 7.69149e-05 0 0.000157135 0 0)
(0.000110597 0.000112483 0 0.000196544 0 0)
(0.000165191 0.000160542 0 0.000247905 0 0)
(0.000247182 0.000223019 0 0.000311278 0 0)
(0.000373095 0.000298776 0 0.000383725 0 0)
(0.000567026 0.000374712 0 0.000456976 0 0)
(0.000841913 0.000405038 0 0.000520562 0 0)
(0.00116089 0.000301318 0 0.000574381 0 0)
(0.00145328 -2.40395e-05 0 0.000609755 0 0)
(0.00172687 -0.000521157 0 0.000545842 0 0)
(0.00187091 -0.000781143 0 0.000415633 0 0)
(0.00158502 -0.000370746 0 0.00094812 0 0)
(0.000923832 0.000365768 0 0.00361911 0 0)
(0.000195059 0.00043742 0 0.010904 0 0)
(6.50437e-07 7.0891e-07 0 4.01396e-05 0 0)
(4.56426e-06 5.33923e-06 0 6.39285e-05 0 0)
(1.184e-05 1.12761e-05 0 7.26448e-05 0 0)
(2.28499e-05 1.99799e-05 0 7.96123e-05 0 0)
(3.84502e-05 3.23794e-05 0 8.86013e-05 0 0)
(6.05165e-05 4.99276e-05 0 0.000101533 0 0)
(9.2118e-05 7.44087e-05 0 0.000119853 0 0)
(0.000137685 0.00010774 0 0.000144681 0 0)
(0.000203227 0.000151531 0 0.000176465 0 0)
(0.000296714 0.000205875 0 0.000214249 0 0)
(0.000428057 0.000266946 0 0.000254935 0 0)
(0.000608711 0.000322436 0 0.000293696 0 0)
(0.000843521 0.000344938 0 0.000329553 0 0)
(0.00110741 0.000285921 0 0.000375478 0 0)
(0.00133833 9.10129e-05 0 0.000440688 0 0)
(0.00152275 -0.000261346 0 0.000477672 0 0)
(0.00168106 -0.000610587 0 0.000363277 0 0)
(0.00153435 -0.000529507 0 0.000508728 0 0)
(0.000927046 8.24453e-06 0 0.00238781 0 0)
(0.000197462 7.06411e-05 0 0.0105506 0 0)
(1.24374e-06 -5.97198e-07 0 2.99908e-05 0 0)
(5.86728e-06 2.30015e-06 0 5.00679e-05 0 0)
(1.31594e-05 7.80491e-06 0 5.87164e-05 0 0)
(2.44279e-05 1.60126e-05 0 6.40963e-05 0 0)
(4.04274e-05 2.69778e-05 0 6.93631e-05 0 0)
(6.33404e-05 4.20911e-05 0 7.64578e-05 0 0)
(9.69785e-05 6.27923e-05 0 8.61998e-05 0 0)
(0.000146025 9.04657e-05 0 9.93482e-05 0 0)
(0.000216321 0.00012617 0 0.00011613 0 0)
(0.000314204 0.000169508 0 0.0001358 0 0)
(0.000445309 0.000216845 0 0.000156309 0 0)
(0.000612149 0.000258458 0 0.000174572 0 0)
(0.000809892 0.000276542 0 0.000189539 0 0)
(0.00101833 0.000244583 0 0.000208597 0 0)
(0.00119021 0.000132134 0 0.000248055 0 0)
(0.00129878 -7.64454e-05 0 0.000296169 0 0)
(0.00136095 -0.000383418 0 0.000302329 0 0)
(0.00142927 -0.000558474 0 0.00031774 0 0)
(0.000943779 -0.00026637 0 0.00136493 0 0)
(0.000279961 -0.000521951 0 0.00965617 0 0)
(8.41242e-07 -3.17059e-06 0 5.83234e-05 0 0)
(4.18595e-06 1.8541e-06 0 8.26711e-05 0 0)
(1.15257e-05 1.04318e-05 0 8.03568e-05 0 0)
(2.15442e-05 1.86879e-05 0 7.35999e-05 0 0)
(3.51609e-05 2.78363e-05 0 7.0036e-05 0 0)
(5.55801e-05 3.9662e-05 0 6.78289e-05 0 0)
(8.65844e-05 5.51588e-05 0 6.74632e-05 0 0)
(0.000133063 7.522e-05 0 6.9429e-05 0 0)
(0.000200619 0.000100597 0 7.36543e-05 0 0)
(0.00029509 0.000131313 0 7.96619e-05 0 0)
(0.000421111 0.000165468 0 8.64055e-05 0 0)
(0.000578953 0.000197363 0 9.2123e-05 0 0)
(0.000759966 0.000216051 0 9.5095e-05 0 0)
(0.000942121 0.000205947 0 9.55142e-05 0 0)
(0.00108363 0.000146378 0 9.904e-05 0 0)
(0.00116265 1.9892e-05 0 0.000112362 0 0)
(0.00109972 -0.000194755 0 0.000154394 0 0)
(0.00132244 -0.000508777 0 0.000270812 0 0)
(0.000823588 -0.000337718 0 0.000604406 0 0)
(0.000677982 -0.00140495 0 0.0070282 0 0)
(2.17849e-06 2.27606e-06 0 1.6877e-05 0 0)
(5.18402e-06 3.30922e-06 0 7.91504e-06 0 0)
(1.26836e-05 7.67173e-06 0 8.68426e-06 0 0)
(2.36546e-05 1.64536e-05 0 1.49708e-05 0 0)
(4.52887e-05 2.76791e-05 0 1.88172e-05 0 0)
(8.18926e-05 3.90163e-05 0 1.96159e-05 0 0)
(0.000135014 5.07404e-05 0 1.98078e-05 0 0)
(0.000206296 6.38386e-05 0 2.04294e-05 0 0)
(0.000298808 7.88488e-05 0 2.14993e-05 0 0)
(0.000416737 9.59054e-05 0 2.2847e-05 0 0)
(0.000564438 0.000114775 0 2.43005e-05 0 0)
(0.000744552 0.00013405 0 2.54964e-05 0 0)
(0.000953741 0.000149932 0 2.57945e-05 0 0)
(0.00118443 0.0001539 0 2.38593e-05 0 0)
(0.00139457 0.000131155 0 1.89173e-05 0 0)
(0.0015787 4.86358e-05 0 1.1528e-05 0 0)
(0.00154595 -0.000129594 0 2.84458e-05 0 0)
(0.00171955 -0.00045936 0 0.000161306 0 0)
(0.000619588 -0.000302421 0 0.000251337 0 0)
(0.00210379 -0.00210929 0 0.00304781 0 0)
(1.87405e-05 3.75784e-05 0 7.77476e-05 0 0)
(7.76385e-05 0.000121917 0 0.000202268 0 0)
(0.000215626 0.000161584 0 0.000142016 0 0)
(0.000421725 0.00017058 0 8.70698e-05 0 0)
(0.000645924 0.000166256 0 5.61201e-05 0 0)
(0.000874886 0.000158417 0 3.84714e-05 0 0)
(0.00111542 0.000150785 0 2.76568e-05 0 0)
(0.00137034 0.00014433 0 2.06606e-05 0 0)
(0.00163959 0.000138965 0 1.59181e-05 0 0)
(0.00192449 0.000134681 0 1.2611e-05 0 0)
(0.00222744 0.000131385 0 1.02382e-05 0 0)
(0.00255057 0.000128626 0 8.45225e-06 0 0)
(0.00289061 0.000125655 0 7.0234e-06 0 0)
(0.00324498 0.000120447 0 5.70542e-06 0 0)
(0.00355835 0.000108106 0 4.24589e-06 0 0)
(0.00385903 7.56889e-05 0 2.17774e-06 0 0)
(0.0037075 1.52417e-05 0 8.66542e-07 0 0)
(0.00377933 -0.000179752 0 1.62388e-05 0 0)
(0.00124058 -0.000279198 0 0.000136418 0 0)
(0.00579064 -0.000638863 0 0.000118671 0 0)
)
;

boundaryField
{
    movingWall
    {
        type            calculated;
        value           uniform (0 0 0 0 0 0);
    }
    fixedWalls
    {
        type            calculated;
        value           uniform (0 0 0 0 0 0);
    }
    frontAndBack
    {
        type            empty;
    }
}


// ************************************************************************* //
