/*--------------------------------*- C++ -*----------------------------------*\
| =========                 |                                                 |
| \\      /  F ield         | OpenFOAM: The Open Source CFD Toolbox           |
|  \\    /   O peration     | Version:  2312                                  |
|   \\  /    A nd           | Website:  www.openfoam.com                      |
|    \\/     M anipulation  |                                                 |
\*---------------------------------------------------------------------------*/
FoamFile
{
    version     2.0;
    format      ascii;
    arch        "LSB;label=32;scalar=64";
    class       volVectorField;
    location    "1.5";
    object      URandom;
}
// * * * * * * * * * * * * * * * * * * * * * * * * * * * * * * * * * * * * * //

dimensions      [0 1 -1 0 0 0 0];

internalField   nonuniform List<vector> 
400
(
(0.0906304 -0.00162023 -0.0415285)
(0.0686186 -0.036364 -0.0600658)
(0.0086381 0.0500463 -0.0863566)
(-0.0836405 0.0312372 -0.0592215)
(-0.0805009 -0.0407709 0.0596178)
(-0.10482 0.0206949 0.0426155)
(0.0197641 0.0210955 0.0895845)
(0.0556482 0.0612392 0.00969639)
(-0.107103 0.0123439 0.060238)
(-0.117056 0.035014 -0.0388219)
(-0.0154191 -0.0974625 0.000458146)
(-0.0071636 -0.067993 -0.0681063)
(-0.0887432 -0.0695096 -0.0466777)
(-0.113051 0.0397455 0.0345147)
(0.023107 -0.0908708 0.0116875)
(-0.0853851 -0.0704332 -0.029771)
(0.0409895 0.0255606 -0.0807197)
(-0.0388502 -0.0692524 0.0661037)
(-0.0754767 -0.0622456 0.0259411)
(-0.0613957 -0.0517103 0.0590508)
(0.038281 -0.0610186 0.0668531)
(0.0492005 -0.0238848 0.079853)
(0.0311551 -0.078377 0.0381731)
(0.0589356 0.0606267 -0.0438576)
(-0.0763572 0.0663802 -0.0534423)
(-0.0523952 -0.0248786 0.0899488)
(-0.0869367 0.0860098 0.00453629)
(0.00952872 0.0850304 -0.045759)
(-0.090875 -0.0730343 -0.028332)
(-0.0974639 0.0853547 -0.0019737)
(-0.110521 -0.0167571 0.0697597)
(-0.0200176 0.0229911 -0.0946911)
(-0.0099689 0.0895068 -0.0194262)
(-0.0674037 0.0151217 -0.0924131)
(-0.10209 -0.0731504 -0.0280459)
(-0.023958 0.0888522 0.0102352)
(0.0831199 0.0101546 -0.00234655)
(-0.016407 -0.0812643 0.0670657)
(0.00528498 -0.0700652 0.0747263)
(-0.00133399 0.0947695 -0.0299677)
(0.0231666 -0.0379825 -0.0866909)
(0.0510948 0.078584 0.042819)
(-0.0538968 -0.06937 -0.0423353)
(0.0161479 0.0998624 0.0332439)
(-0.0476946 -0.0212075 0.090146)
(0.0684968 -0.0245635 0.0139653)
(-0.09031 0.0115907 -0.0789441)
(-0.0914253 -0.0124519 0.0785039)
(-0.116301 -0.0433283 0.0345514)
(0.0048877 -0.0792344 -0.0170183)
(-0.101939 0.0770068 -0.0377373)
(-0.0236183 -0.0882397 0.0428702)
(-0.0117395 0.0750202 -0.0471265)
(-0.108628 -0.00947776 0.0751667)
(-0.103524 -0.0403411 0.070226)
(0.0117444 0.019039 -0.0837945)
(0.0181176 -0.0808751 -0.0686192)
(0.032247 -0.0508443 0.0832056)
(0.0643192 -0.0816145 0.00952383)
(-0.0263009 -0.0799109 0.0578014)
(-0.0764256 0.0306248 0.0631794)
(-0.0669993 0.00347695 0.0787601)
(-0.0525307 0.0986385 -0.0322011)
(-0.059346 0.0325644 -0.0877762)
(0.0726496 0.0466529 0.0235414)
(0.049194 -0.0261586 0.0523594)
(-0.0443672 -0.0634861 -0.0583546)
(-0.0164177 -0.0116653 0.0942565)
(0.0448274 0.00376719 0.0505854)
(0.0250585 -0.0559921 0.0222414)
(-0.0521713 0.0372299 0.0950957)
(0.00911487 -0.033559 -0.0698711)
(-0.0365718 -0.0602976 0.082468)
(-0.0168148 -0.0826976 -0.0632927)
(-0.119089 -0.0447486 -0.0704129)
(-0.0666525 0.0677448 0.00859801)
(-0.120023 -0.0609193 -0.0190843)
(0.0444038 0.0372222 -0.0571289)
(-0.0227682 -0.107508 0.0236179)
(-0.000436968 -0.101739 0.0192512)
(-0.0527359 0.0528208 0.0763587)
(-0.1027 -0.00949237 -0.00122472)
(0.0346837 0.083109 0.0614815)
(-0.111075 -0.00015921 -0.0184048)
(-0.0997611 0.0225023 -0.0597651)
(-0.00914621 -0.0721605 0.0309262)
(0.0560429 -0.0159326 -0.0331328)
(-0.0853812 0.088235 -0.0560849)
(-0.108165 0.0944585 0.0118332)
(-0.0318137 0.0759235 0.078503)
(-0.0323258 0.0495823 0.089226)
(0.0222152 0.0460267 -0.0240495)
(-0.0574754 0.0525525 0.0808986)
(-0.0303548 0.0158322 -0.0792558)
(-0.0431338 0.039938 -0.0602214)
(-0.151231 -0.0217406 0.0617809)
(0.0411507 -0.0339527 -0.0186896)
(-0.0107113 0.0250499 0.0741205)
(0.0532617 -0.0754908 -0.0594537)
(0.06206 0.0247314 -0.0745373)
(-0.0478662 -0.0320174 -0.074353)
(0.0226582 0.0979171 0.056789)
(-0.0978418 0.0249461 0.0477793)
(0.0557388 0.0618823 -0.0606385)
(-0.0327565 0.0686956 -0.0892772)
(-0.00554414 -0.00945539 -0.0912036)
(-0.0819047 0.113168 -0.00665653)
(-0.00091538 0.0156448 0.0926114)
(0.0311375 0.0764894 0.0437129)
(-0.0109715 0.0364179 0.0898214)
(-0.143384 0.00860984 -0.0621458)
(-0.0503594 0.0571009 0.0863376)
(-0.0287212 -0.0487664 0.031217)
(-0.125435 0.0913967 -0.0103555)
(-0.182969 0.0199762 -0.0593523)
(-0.0902681 -0.0879569 0.0916898)
(-0.032786 -0.138443 0.0394386)
(-0.0515092 -0.143665 0.0664321)
(-0.0296178 -0.108226 -0.0773226)
(0.072334 0.0399757 -0.0512589)
(0.0303053 0.0979403 -0.0542116)
(0.0876098 -0.00580513 0.0200098)
(-0.0714182 0.0732439 -0.0631754)
(0.0669132 -0.0308831 0.00218348)
(0.0233529 -0.00499838 0.0839113)
(-0.0715547 0.114998 -0.028475)
(0.0604041 -0.00452369 0.0245913)
(0.010276 0.1234 -0.0151481)
(-0.0378752 0.0102491 0.0962014)
(-0.0205089 0.103594 0.0675587)
(0.0192044 0.0371278 0.0384858)
(-0.14128 -0.0452553 -0.0237666)
(-0.0317329 -0.00573249 -0.0387568)
(-0.186343 0.0198973 0.0811638)
(-0.122772 -0.0501907 0.0978469)
(-0.0801616 -0.154447 -0.000748011)
(-0.0832776 -0.190489 0.0103098)
(-0.0635367 -0.0565133 0.0770523)
(0.010897 -0.111702 -0.0703625)
(0.0694217 0.0165971 -0.04939)
(0.0568086 0.0702461 0.066445)
(0.0605967 -0.0321654 0.0452572)
(-0.00335183 0.0869586 -0.0825285)
(0.0282119 -0.0280859 0.0685098)
(-0.0728934 -0.0300699 -0.0498725)
(0.00477215 0.0872413 -0.0831947)
(-0.0319827 -0.04976 -0.0426004)
(-0.0182225 -0.0486113 -0.0362688)
(-0.0638209 0.0474299 0.0971622)
(0.0202363 -0.00937377 0.0274835)
(-0.0260849 0.0920389 0.0848555)
(-0.0764239 -0.00117132 -0.0773699)
(-0.180335 0.0641348 0.0635143)
(-0.136498 0.0551283 -0.0862913)
(-0.167423 -0.113067 -0.0292302)
(-0.0374925 -0.134724 -0.00160806)
(-0.1845 -0.139127 0.0659887)
(-0.129608 -0.0445546 0.00596221)
(-0.157644 -0.171884 0.0455266)
(-0.0921464 -0.000859382 -0.0356733)
(-0.0721914 0.0935412 0.0210946)
(0.058544 0.0901604 0.0517247)
(-0.0727714 0.0527667 0.0727622)
(0.0590817 0.0348161 -0.0724991)
(-0.0657093 0.0752204 -0.0768473)
(0.0167999 -0.0274236 0.0636301)
(0.0524195 0.0379054 -0.0676869)
(-0.0431298 -0.0451996 -0.0227766)
(-0.0671637 0.0470901 -0.0932319)
(0.0294294 0.136256 -0.0157232)
(-0.0492439 0.142956 0.0750669)
(-0.1187 0.160915 0.00047712)
(-0.145153 0.0449213 -0.0722462)
(-0.0625095 0.0993668 -0.0501178)
(1.91784e-05 -0.0746975 -0.046424)
(-0.133051 -0.00159115 0.044752)
(-0.0560034 -0.181674 0.0634209)
(0.0168345 -0.155364 0.0112557)
(-0.116608 -0.132231 -0.0767306)
(-0.00476921 -0.0712948 0.0786334)
(-0.0207414 0.0713877 0.0881109)
(-0.0610648 0.115385 0.00594933)
(0.0826442 -0.00564383 -0.0224676)
(-0.0509635 -0.0287939 -0.0591777)
(-0.0356407 0.137598 0.0128667)
(0.00953885 0.129938 0.0489324)
(0.0593576 0.00919654 -0.0532965)
(-0.103014 0.0223963 0.0408321)
(0.0191401 0.133415 -0.0591164)
(-0.0926833 0.133415 -0.0467164)
(-0.0973104 0.061031 -0.070585)
(0.0279246 0.0428491 0.065573)
(0.0173813 -0.0203877 -0.0263591)
(-0.0950251 -0.0124807 0.077807)
(-0.0265669 0.0120724 0.0898704)
(-0.0472099 -0.0254472 -0.0890238)
(0.0375859 -0.164254 0.0158541)
(-0.143233 -0.154114 0.0226038)
(0.0284728 -0.246023 -0.0210883)
(-0.0178996 -0.272262 -0.0338405)
(0.037511 -0.0624168 0.00429423)
(-0.0620851 0.0633562 -0.0750695)
(0.0686855 -0.00634179 0.052832)
(-0.0546633 0.0931282 -0.0691305)
(-0.0105318 0.0112516 -0.0944764)
(0.0659819 0.0150838 0.060026)
(0.0557381 -0.0209596 -0.0243413)
(0.0183201 0.00495204 0.0802653)
(0.039885 0.147412 0.030501)
(-0.051053 0.0152277 0.0663228)
(-0.0755671 0.155202 -0.0213801)
(0.0119141 0.00395944 0.0589494)
(0.083692 0.107153 0.014906)
(-0.0562397 0.0467437 -0.0773949)
(-0.0569862 -0.0179005 -0.0824286)
(-0.0340892 -0.00210838 -0.0681591)
(-0.0398966 -0.0818277 -0.0939453)
(0.0708453 -0.114903 -0.0452482)
(-0.083066 -0.126322 -0.0611532)
(0.0339844 -0.227531 0.0810751)
(0.0772648 0.00955986 -0.0595877)
(0.0448405 -0.051594 0.00359207)
(-0.0623061 -0.0395099 0.008103)
(-0.0054136 0.124849 -0.0555153)
(0.0276509 0.0789868 -0.088843)
(-0.0708358 0.0814058 -0.064583)
(-0.0416941 0.111765 0.0694494)
(-0.0702021 0.00119281 0.0445608)
(-0.0374552 0.069809 0.0917521)
(-0.063192 0.086822 -0.0703025)
(0.00585296 0.0262405 0.0840433)
(0.107967 0.0344074 0.0298106)
(0.0802951 0.122315 -0.0549779)
(0.0114639 0.077874 0.077889)
(0.0271128 -0.0896157 -0.076343)
(0.080639 -0.0325891 0.07497)
(0.0359812 -0.00478571 0.0456919)
(0.0097094 -0.0202911 0.0170807)
(0.0701667 -0.200085 -0.0496963)
(0.00800982 -0.293021 -0.0813293)
(-0.0767891 -0.0266352 0.0275923)
(0.0702483 0.0719604 0.0622268)
(0.00332836 0.130137 -0.0429611)
(-0.066004 -0.0313702 -0.0175027)
(0.0693219 0.0817507 -0.0621327)
(0.0126667 0.141446 0.0300375)
(0.0901775 0.0398154 -0.0498543)
(-0.0512502 -0.0260753 0.0107543)
(-0.0215893 0.0134324 -0.0823729)
(-0.0152801 0.0543136 -0.0936338)
(0.0927001 0.0419028 0.0706773)
(0.0627279 -0.028986 0.0214179)
(0.0934591 0.0740598 0.085855)
(0.0243101 0.102336 0.0471559)
(0.119304 -0.0864627 -0.0224779)
(0.0857918 0.0068493 0.0673623)
(0.0530851 -0.0688476 0.0958524)
(-0.0709435 -0.0530193 0.0161895)
(0.0838225 -0.112419 -0.0172915)
(0.0326523 -0.333065 -0.0343705)
(-0.0501745 0.0863598 -0.0663022)
(-0.0470537 0.0678139 -0.082723)
(0.0737286 0.10745 -0.00780053)
(0.0696193 0.111807 -0.0185856)
(-0.0113009 -0.0260295 -0.0715098)
(-0.0709837 0.0478 -0.0641425)
(0.0752 0.0495603 0.0747606)
(-0.0778176 0.058443 0.0409564)
(0.0943284 0.107043 0.0370226)
(0.117875 0.0871115 0.0244564)
(0.0681929 0.151717 0.0109224)
(0.0573285 0.0641946 0.0989025)
(-0.0298093 0.0871625 0.0177907)
(0.137089 0.0144075 0.0655163)
(0.0673831 0.0832986 -0.0320773)
(0.118933 -0.0875809 0.0526232)
(0.0467143 0.0224496 -0.0481611)
(0.0954441 -0.0445443 0.0446345)
(0.072083 -0.175917 0.06673)
(-0.0766825 -0.23953 -0.0745416)
(0.0671647 -0.042664 -0.0111575)
(-0.0520856 -0.0133741 0.0686104)
(0.0829445 0.0672992 0.0497892)
(-0.0342305 0.106763 0.0637236)
(0.0709976 0.105749 -0.0362495)
(0.0512323 -0.0202145 0.0662407)
(-0.0234618 -0.0366682 -0.049069)
(-0.0105631 0.074042 0.0914402)
(-0.0146221 0.0991899 0.0760271)
(0.00433342 0.132472 0.0461292)
(0.0994794 -0.00782834 0.0583342)
(-0.00211675 0.000669877 -0.0742719)
(0.122809 0.0788686 -0.0608991)
(0.0992678 0.0791705 -0.0682897)
(-0.0218031 0.0515604 -0.00713378)
(0.127756 -0.0484337 0.0616343)
(0.0661513 -0.0678011 -0.0944004)
(-0.0639651 -0.0915442 -0.0476723)
(-0.0665376 -0.0764898 0.0414724)
(-0.00396796 -0.357542 -0.00847581)
(0.0310231 0.120303 0.0328597)
(0.0419903 0.108186 -0.055741)
(-0.0198911 0.00623456 0.0928273)
(-0.0548651 0.0868511 0.0646909)
(0.0998131 0.0637182 0.0207332)
(-0.0785714 0.0581484 0.0420591)
(0.00334868 -0.0613729 0.00587075)
(0.0848028 0.0590306 -0.07357)
(0.00877251 -0.0566667 -0.0201272)
(0.106022 -0.00227355 -0.0553473)
(-0.00952273 -0.041005 0.0314698)
(-0.0145127 -0.0369239 0.0253558)
(0.00418959 0.0373388 0.0840728)
(0.0766092 0.0963857 0.0564531)
(0.0193239 0.0913475 0.00572339)
(0.0846854 0.0101461 -0.0905495)
(0.0323087 0.0346875 -0.0703378)
(0.0709492 -0.07737 -0.0877276)
(-0.000769834 -0.089934 0.096649)
(0.0234603 -0.279321 -0.0916641)
(0.0572049 -0.0140783 -0.0687419)
(0.0868204 0.0713948 -0.0241639)
(-0.0531683 -0.0506273 -0.0110481)
(-0.0703448 0.0277309 -0.069118)
(-0.0430163 -0.0505223 -0.027076)
(-0.0369421 0.00160557 0.0827316)
(0.0394148 0.12779 0.0176644)
(0.0774423 -0.00936761 -0.0718684)
(0.106488 0.0782358 0.0436451)
(0.113803 0.00651212 0.057903)
(0.0885768 -0.0426454 0.0510965)
(0.093525 -0.050252 -0.0461214)
(0.0423374 0.121374 -0.00310715)
(-0.0143317 0.080201 0.000373853)
(-0.0129561 0.0705906 0.0145446)
(0.111567 0.033724 0.0701443)
(0.0335108 -0.112497 -0.0450248)
(0.0171396 -0.0892638 0.0898661)
(-0.0234322 -0.0355963 -0.0674632)
(-0.0291793 -0.360582 0.0218948)
(0.0181921 0.135568 -0.0362429)
(0.0788894 0.0220611 0.0497981)
(0.0442283 -0.0278738 -0.057826)
(0.0608206 -0.0455324 -0.0102219)
(0.0911761 0.0644034 -0.0408544)
(-0.031916 -0.0317993 -0.0665135)
(-0.0154146 0.068884 0.0847338)
(0.105452 -0.0283458 0.0223397)
(-0.0194061 0.107202 0.0264579)
(0.0902471 0.0616729 -0.0789346)
(0.118496 -0.00626898 -0.0650797)
(0.104809 0.0973732 -0.0443317)
(0.116883 -0.0646043 0.0127719)
(-0.00412019 -0.0486118 -0.0337328)
(0.045623 -0.0128119 0.0956621)
(-0.00343605 -0.0591118 -0.046893)
(-0.031258 -0.0588283 -0.0304008)
(0.0623903 0.0171409 -0.0828654)
(0.079632 -0.153463 0.0279268)
(-0.0697053 -0.326745 -0.0291251)
(-0.0489321 -0.0500764 0.0609739)
(-0.0316825 -0.0392465 0.0842212)
(0.0325971 -0.0259216 -0.0869614)
(0.081739 0.0237573 -0.067932)
(0.0343898 -0.0390115 -0.0828431)
(0.0430584 -0.030378 -0.08821)
(-0.0517155 -0.0279156 -0.00636465)
(0.0491902 0.0468324 -0.0944625)
(0.0309968 0.0877425 -0.0618363)
(0.132231 0.0855128 0.0252689)
(0.0526632 -0.052838 0.0710624)
(0.0911325 0.0804649 0.073151)
(0.0801876 0.0547886 0.0890921)
(0.118955 -0.00852554 0.0964014)
(0.18709 -0.0260094 -0.0423493)
(0.170393 -0.0422239 0.0611307)
(0.0638259 0.0685087 0.0615907)
(0.175028 -0.0750705 0.0476604)
(-0.0584871 -0.0353192 0.0468934)
(0.101922 -0.16536 -0.0738433)
(0.0821198 0.144887 0.0746004)
(-0.00175681 0.0124779 -0.0514017)
(0.0219341 0.0225558 -0.0725404)
(0.173818 0.00184582 -0.0712521)
(0.111366 -0.0417153 0.0759319)
(0.216757 0.0816565 0.00630887)
(0.102829 -0.050164 -0.0572481)
(0.141903 0.074015 -0.0745208)
(0.0978373 0.0356014 0.0545303)
(0.101012 -0.0285363 0.0298635)
(0.168527 -0.0721795 -0.0513068)
(0.246867 0.0836849 0.0519923)
(0.182956 -0.0554355 -0.0704514)
(0.170388 -0.0192704 0.0794284)
(0.271325 0.00852838 -0.0916547)
(0.26378 0.0798331 -0.0587342)
(0.180541 0.0522695 -0.0706607)
(0.348292 0.0207292 -0.000365736)
(0.19076 -0.0276199 0.0680984)
(0.315008 -0.175157 -0.0096982)
)
;

boundaryField
{
    movingWall
    {
        type            fixedValue;
        value           uniform (1 0 0);
    }
    fixedWalls
    {
        type            noSlip;
    }
    frontAndBack
    {
        type            empty;
    }
}


// ************************************************************************* //
