/*--------------------------------*- C++ -*----------------------------------*\
| =========                 |                                                 |
| \\      /  F ield         | OpenFOAM: The Open Source CFD Toolbox           |
|  \\    /   O peration     | Version:  2312                                  |
|   \\  /    A nd           | Website:  www.openfoam.com                      |
|    \\/     M anipulation  |                                                 |
\*---------------------------------------------------------------------------*/
FoamFile
{
    version     2.0;
    format      ascii;
    arch        "LSB;label=32;scalar=64";
    class       volScalarField;
    location    "1.5";
    object      Ux;
}
// * * * * * * * * * * * * * * * * * * * * * * * * * * * * * * * * * * * * * //

dimensions      [0 1 -1 0 0 0 0];

internalField   nonuniform List<scalar> 
400
(
-0.000318251
-0.00204161
-0.00511289
-0.0086574
-0.0124387
-0.0163391
-0.020307
-0.0242481
-0.0279841
-0.031224
-0.0333461
-0.0339838
-0.0327066
-0.0291384
-0.0237077
-0.0171148
-0.0104413
-0.00471103
-0.000803339
0.000375071
-0.00108163
-0.00406816
-0.00799192
-0.0123668
-0.0170125
-0.0218173
-0.0266741
-0.0314014
-0.0357114
-0.0392015
-0.0413952
-0.0418644
-0.0402371
-0.0362719
-0.0301974
-0.0226609
-0.0148217
-0.00799243
-0.00293992
-0.000320768
-0.00172741
-0.00536722
-0.0094949
-0.0139999
-0.0187954
-0.0238031
-0.0289283
-0.0339909
-0.0386982
-0.0426673
-0.0454967
-0.0468008
-0.0460805
-0.0427134
-0.036493
-0.0277646
-0.0178007
-0.00894226
-0.00295317
-0.000337777
-0.00202743
-0.00599803
-0.0102178
-0.0147332
-0.0195404
-0.0246306
-0.0299728
-0.0354429
-0.0408201
-0.0458429
-0.0502849
-0.0539079
-0.0561902
-0.0558555
-0.0512686
-0.0415667
-0.0273809
-0.0122579
-0.00184388
0.00053688
-0.00208576
-0.00613971
-0.0103519
-0.0148183
-0.0196029
-0.0247603
-0.0303468
-0.0363517
-0.0427169
-0.049489
-0.0570492
-0.0659112
-0.0755718
-0.0830066
-0.0838464
-0.0749746
-0.0563817
-0.0310928
-0.00584025
0.00173274
-0.00199817
-0.00593645
-0.0100228
-0.0143497
-0.0190288
-0.024173
-0.0299438
-0.0365103
-0.0441161
-0.0535289
-0.0663913
-0.0838538
-0.103171
-0.117541
-0.121958
-0.115276
-0.0967144
-0.0658799
-0.0269943
0.00146726
-0.00181106
-0.00547192
-0.00929569
-0.0133472
-0.017764
-0.0227019
-0.028421
-0.0352887
-0.0438648
-0.0556197
-0.07299
-0.0958156
-0.117495
-0.130985
-0.135854
-0.133791
-0.122348
-0.0972799
-0.0562809
-0.00720345
-0.00154674
-0.00478851
-0.00820307
-0.0118099
-0.0157444
-0.0201702
-0.0253901
-0.0318574
-0.0401682
-0.0519963
-0.0691521
-0.0894382
-0.105933
-0.114798
-0.116836
-0.116195
-0.114636
-0.10437
-0.0748677
-0.0265467
-0.00122332
-0.00392468
-0.00678952
-0.00977871
-0.0129941
-0.0165659
-0.0207546
-0.0259371
-0.0324971
-0.0414288
-0.0536892
-0.0672529
-0.0765074
-0.0783017
-0.0759461
-0.0748873
-0.0781755
-0.0823422
-0.0724416
-0.0353475
-0.000864822
-0.00293738
-0.00514092
-0.00737133
-0.00967221
-0.012106
-0.0148256
-0.0180142
-0.0216557
-0.0259106
-0.0307235
-0.036396
-0.0397298
-0.0384142
-0.0361386
-0.0352674
-0.0381313
-0.0469343
-0.0530408
-0.0325664
-0.000504504
-0.00190616
-0.0033884
-0.00478046
-0.00605666
-0.00720008
-0.00823005
-0.00911402
-0.00952843
-0.00873995
-0.00684888
-0.00425035
-0.00230059
-0.00102995
-0.00182632
-0.00441646
-0.00943769
-0.0174236
-0.029841
-0.0239619
-0.000177076
-0.000933941
-0.00169526
-0.00223836
-0.00247531
-0.00232422
-0.00170391
-0.000451784
0.00191486
0.00653413
0.0134733
0.0224484
0.0288404
0.0319924
0.0295051
0.0214159
0.0112477
0.000917691
-0.0123382
-0.0161923
7.15942e-05
-0.000142844
-0.00024379
7.32512e-06
0.000743154
0.00207308
0.00411155
0.00707772
0.0114076
0.0180784
0.0275327
0.0390986
0.0486059
0.0533376
0.0507043
0.0399485
0.0262733
0.0123925
-0.00187155
-0.0127391
0.000162671
0.000326628
0.000769735
0.00172564
0.00332238
0.00565912
0.00883517
0.0130238
0.0185179
0.0258862
0.0356251
0.0469609
0.0567878
0.0616008
0.0590715
0.0490071
0.0347784
0.018932
0.00358822
-0.0121249
3.87292e-05
0.00028598
0.00113946
0.0026947
0.0050409
0.00822824
0.0123021
0.0173393
0.0234811
0.0309226
0.0398619
0.0496745
0.0581378
0.0623028
0.06032
0.0517886
0.0385449
0.0224021
0.00700198
-0.0123372
-0.000436597
-0.000361285
0.000706355
0.00276153
0.00576586
0.00967863
0.0144797
0.0201677
0.0267395
0.0341534
0.0422503
0.050462
0.0573812
0.0609226
0.0594315
0.0525452
0.0406536
0.0260164
0.0122416
-0.011582
-0.00154827
-0.00260948
-0.00107108
0.00170703
0.00546392
0.0101113
0.0156157
0.0219187
0.0289242
0.0364659
0.0442154
0.0515944
0.0576105
0.0610214
0.0600743
0.0546292
0.0433828
0.0341307
0.019801
-0.00810031
-0.00367298
-0.00483838
-0.00201172
0.00171767
0.00618384
0.0115618
0.0178926
0.0249928
0.0326946
0.0407802
0.0488916
0.0564714
0.0627204
0.0664739
0.0666615
0.0633531
0.052157
0.05339
0.0232166
0.0048909
-0.00621361
-0.00935922
-0.000615241
0.0090235
0.018971
0.0289688
0.0387512
0.0483661
0.0579041
0.0673838
0.0766552
0.0853848
0.0930551
0.0991855
0.102552
0.104765
0.0952162
0.105557
0.0296042
0.0708819
0.0406438
0.0618983
0.0873339
0.109268
0.126309
0.140681
0.153819
0.166133
0.177741
0.188751
0.1992
0.209014
0.217945
0.225855
0.231521
0.237185
0.230328
0.251182
0.124522
0.37787
)
;

boundaryField
{
    movingWall
    {
        type            calculated;
        value           uniform 1;
    }
    fixedWalls
    {
        type            calculated;
        value           uniform 0;
    }
    frontAndBack
    {
        type            empty;
    }
}


// ************************************************************************* //
