/*--------------------------------*- C++ -*----------------------------------*\
| =========                 |                                                 |
| \\      /  F ield         | OpenFOAM: The Open Source CFD Toolbox           |
|  \\    /   O peration     | Version:  2312                                  |
|   \\  /    A nd           | Website:  www.openfoam.com                      |
|    \\/     M anipulation  |                                                 |
\*---------------------------------------------------------------------------*/
FoamFile
{
    version     2.0;
    format      ascii;
    arch        "LSB;label=32;scalar=64";
    class       volScalarField;
    location    "1.5";
    object      Uy;
}
// * * * * * * * * * * * * * * * * * * * * * * * * * * * * * * * * * * * * * //

dimensions      [0 1 -1 0 0 0 0];

internalField   nonuniform List<scalar> 
400
(
0.000312007
0.00104217
0.00153399
0.00173562
0.00181146
0.00185461
0.0018882
0.00188809
0.00177851
0.00146269
0.000916457
0.000140782
-0.00109111
-0.00229449
-0.00328211
-0.00370353
-0.00340831
-0.00243309
-0.00100069
0.000225923
0.00207855
0.00414988
0.00535067
0.00592315
0.00619603
0.00633357
0.00633646
0.0060947
0.00541486
0.00410453
0.00208833
-0.00059541
-0.00380162
-0.00702837
-0.00955123
-0.0106142
-0.00989386
-0.00756637
-0.00412327
-0.00062915
0.00520289
0.00802496
0.0095996
0.0104983
0.0110188
0.0112932
0.0112726
0.0107522
0.00943533
0.00707265
0.00358877
-0.000920135
-0.00621888
-0.0117633
-0.0163593
-0.018611
-0.0176194
-0.0136923
-0.00824067
-0.00254871
0.00886987
0.0121763
0.0139467
0.015099
0.0158825
0.0163671
0.016436
0.0157892
0.0140442
0.0109281
0.00635525
0.000296083
-0.00724912
-0.0158406
-0.0237154
-0.028675
-0.028466
-0.0221557
-0.0126163
-0.00361446
0.0127719
0.0164796
0.0183648
0.0197395
0.0208298
0.0216466
0.022002
0.0215223
0.0197826
0.0165529
0.0118003
0.00534051
-0.00337548
-0.0149299
-0.0287342
-0.040926
-0.045705
-0.0389091
-0.0209729
-0.00363801
0.0166422
0.0207332
0.0227189
0.0243248
0.0257871
0.0270805
0.0279872
0.0281402
0.0272342
0.0254184
0.0231001
0.0193658
0.0102479
-0.00775187
-0.0325109
-0.0568508
-0.0724294
-0.0703144
-0.0448675
-0.00850541
0.0202895
0.0247792
0.0268794
0.0287281
0.0306147
0.0325207
0.0342753
0.0356826
0.0368838
0.0387633
0.0414905
0.0405823
0.0280729
0.00124553
-0.0342268
-0.0700475
-0.0990162
-0.11059
-0.0885448
-0.0245031
0.0235586
0.0284693
0.0306956
0.0327801
0.035097
0.0376779
0.0404716
0.0435769
0.0476771
0.0540857
0.061302
0.060833
0.0433942
0.00948944
-0.031909
-0.0730529
-0.111477
-0.141133
-0.139091
-0.0673732
0.0263211
0.0316606
0.0340035
0.0362745
0.0389491
0.0421316
0.0459076
0.0506422
0.0573877
0.0674675
0.0770384
0.0751656
0.0531794
0.0142856
-0.0291552
-0.0695195
-0.107606
-0.149258
-0.178726
-0.124977
0.0284763
0.0342317
0.0366526
0.0390127
0.04189
0.0454568
0.0498947
0.0556788
0.0638379
0.0754584
0.0851957
0.0823845
0.0573523
0.0147456
-0.0307259
-0.0694034
-0.100886
-0.139432
-0.192071
-0.179312
0.0299758
0.0360969
0.0385373
0.0408533
0.0437197
0.0473526
0.0519484
0.0579129
0.0659994
0.0769601
0.0857708
0.0831028
0.0583364
0.015729
-0.0306638
-0.0689954
-0.0975293
-0.127599
-0.184866
-0.219221
0.0308215
0.0372418
0.0396144
0.0417345
0.0443554
0.0477131
0.0519519
0.0573108
0.0641922
0.072828
0.0798936
0.0768085
0.056513
0.0186129
-0.025071
-0.0621208
-0.0902287
-0.118429
-0.173192
-0.240107
0.0310805
0.0377126
0.0399067
0.0416788
0.0438496
0.0466543
0.050169
0.0544368
0.05954
0.0652645
0.0694332
0.0657923
0.049218
0.0190671
-0.0172612
-0.0511224
-0.0785142
-0.105868
-0.160973
-0.250856
0.0309505
0.0376144
0.0395078
0.0407783
0.0423263
0.0443908
0.0469975
0.0500512
0.053358
0.0564538
0.0578023
0.0536677
0.0404245
0.017433
-0.0110516
-0.0391959
-0.0643723
-0.0909518
-0.146666
-0.256139
0.0306136
0.0371217
0.0385073
0.0391176
0.0399033
0.0411273
0.0427873
0.0447139
0.0465779
0.0478254
0.0473339
0.0431122
0.0329457
0.0161617
-0.00505143
-0.0276936
-0.049733
-0.0751719
-0.13008
-0.258254
0.0312491
0.0367764
0.0371997
0.0369086
0.0367876
0.0371017
0.0378321
0.0387883
0.039625
0.0398171
0.0385513
0.0347377
0.0272186
0.0153488
-7.80344e-05
-0.0175632
-0.0359026
-0.0604907
-0.112063
-0.260093
0.0286138
0.0337332
0.034012
0.0333201
0.0326435
0.0322889
0.0322835
0.0324899
0.0326398
0.0323245
0.0309835
0.0279442
0.0225957
0.0144608
0.00384469
-0.00914634
-0.0237542
-0.0488239
-0.0954261
-0.265312
0.0449676
0.04464
0.0393424
0.0344823
0.0311282
0.0289102
0.0275221
0.0266749
0.0260505
0.0253087
0.0240594
0.0218869
0.0184819
0.0136663
0.00734114
-0.00131686
-0.0128096
-0.0381069
-0.0757623
-0.266853
0.0166867
0.00982947
0.0106113
0.0138726
0.0148334
0.0145718
0.0142184
0.0140276
0.013903
0.0137054
0.0133022
0.0125245
0.0112338
0.00924904
0.00654595
0.00200313
-0.00374942
-0.0211983
-0.0417166
-0.225224
0.0927863
0.0699748
0.0440212
0.029349
0.0216176
0.0170596
0.0140442
0.0118899
0.0102666
0.00901349
0.00798768
0.00710842
0.00630896
0.00551876
0.0046445
0.00339364
0.00198728
-0.00313638
0.00360683
-0.0979931
)
;

boundaryField
{
    movingWall
    {
        type            calculated;
        value           uniform 0;
    }
    fixedWalls
    {
        type            calculated;
        value           uniform 0;
    }
    frontAndBack
    {
        type            empty;
    }
}


// ************************************************************************* //
