/*--------------------------------*- C++ -*----------------------------------*\
| =========                 |                                                 |
| \\      /  F ield         | OpenFOAM: The Open Source CFD Toolbox           |
|  \\    /   O peration     | Version:  2312                                  |
|   \\  /    A nd           | Website:  www.openfoam.com                      |
|    \\/     M anipulation  |                                                 |
\*---------------------------------------------------------------------------*/
FoamFile
{
    version     2.0;
    format      ascii;
    arch        "LSB;label=32;scalar=64";
    class       volVectorField;
    location    "1.5";
    object      vorticityField;
}
// * * * * * * * * * * * * * * * * * * * * * * * * * * * * * * * * * * * * * //

dimensions      [0 0 -1 0 0 0 0];

internalField   nonuniform List<vector> 
400
(
(0 -0 0.275406)
(0 -0 0.733176)
(0 -0 1.37983)
(0 -0 2.13017)
(0 -0 2.95702)
(0 -0 3.82331)
(0 -0 4.70146)
(0 -0 5.55398)
(0 -0 6.32701)
(0 -0 6.95634)
(0 -0 7.34193)
(0 -0 7.38406)
(0 -0 7.05084)
(0 -0 6.32193)
(0 -0 5.24961)
(0 -0 3.96495)
(0 -0 2.65334)
(0 -0 1.51111)
(0 -0 0.640227)
(0 -0 0.0720467)
(0 -0 0.76376)
(0 -0 0.659772)
(0 -0 0.615528)
(0 -0 0.618787)
(0 -0 0.676705)
(0 -0 0.760443)
(0 -0 0.838235)
(0 -0 0.882114)
(0 -0 0.872388)
(0 -0 0.811678)
(0 -0 0.745066)
(0 -0 0.692711)
(0 -0 0.694098)
(0 -0 0.782546)
(0 -0 0.919945)
(0 -0 1.03072)
(0 -0 1.04073)
(0 -0 1.00018)
(0 -0 0.908705)
(0 -0 0.546527)
(0 -0 1.41736)
(0 -0 0.632657)
(0 -0 0.469921)
(0 -0 0.378562)
(0 -0 0.332278)
(0 -0 0.30671)
(0 -0 0.275773)
(0 -0 0.220424)
(0 -0 0.142917)
(0 -0 0.0794879)
(0 -0 0.0896888)
(0 -0 0.223584)
(0 -0 0.510988)
(0 -0 0.944315)
(0 -0 1.42236)
(0 -0 1.76457)
(0 -0 1.74778)
(0 -0 1.36442)
(0 -0 1.00476)
(0 -0 0.993173)
(0 -0 2.14045)
(0 -0 0.584933)
(0 -0 0.377979)
(0 -0 0.275419)
(0 -0 0.207556)
(0 -0 0.151067)
(0 -0 0.0840755)
(0 -0 -0.00308857)
(0 -0 -0.0842487)
(0 -0 -0.0867316)
(0 -0 0.0920547)
(0 -0 0.550594)
(0 -0 1.33546)
(0 -0 2.38269)
(0 -0 3.4519)
(0 -0 4.24594)
(0 -0 4.51003)
(0 -0 3.80002)
(0 -0 2.14283)
(0 -0 1.41603)
(0 -0 2.92223)
(0 -0 0.553132)
(0 -0 0.30648)
(0 -0 0.20815)
(0 -0 0.139554)
(0 -0 0.0714614)
(0 -0 -0.0153257)
(0 -0 -0.115201)
(0 -0 -0.167336)
(0 -0 -0.0296373)
(0 -0 0.489398)
(0 -0 1.47702)
(0 -0 2.67107)
(0 -0 3.63266)
(0 -0 4.4693)
(0 -0 5.67385)
(0 -0 7.13505)
(0 -0 7.83542)
(0 -0 6.04214)
(0 -0 2.36805)
(0 -0 3.71007)
(0 -0 0.54089)
(0 -0 0.253531)
(0 -0 0.159709)
(0 -0 0.0916888)
(0 -0 0.0141711)
(0 -0 -0.0866079)
(0 -0 -0.18161)
(0 -0 -0.157391)
(0 -0 0.199664)
(0 -0 0.98883)
(0 -0 1.70522)
(0 -0 1.48053)
(0 -0 0.521972)
(0 -0 0.290831)
(0 -0 1.88979)
(0 -0 5.25028)
(0 -0 9.3749)
(0 -0 11.225)
(0 -0 6.23091)
(0 -0 4.46173)
(0 -0 0.544192)
(0 -0 0.212919)
(0 -0 0.119546)
(0 -0 0.0508107)
(0 -0 -0.0342111)
(0 -0 -0.139184)
(0 -0 -0.204443)
(0 -0 -0.0867218)
(0 -0 0.307413)
(0 -0 0.457984)
(0 -0 -0.783317)
(0 -0 -3.65755)
(0 -0 -6.50424)
(0 -0 -7.64147)
(0 -0 -6.38703)
(0 -0 -2.26213)
(0 -0 4.89612)
(0 -0 13.3961)
(0 -0 14.1062)
(0 -0 5.14402)
(0 -0 0.558978)
(0 -0 0.180467)
(0 -0 0.0832846)
(0 -0 0.0127882)
(0 -0 -0.0761361)
(0 -0 -0.176748)
(0 -0 -0.214605)
(0 -0 -0.085894)
(0 -0 -0.0566093)
(0 -0 -1.25535)
(0 -0 -4.64705)
(0 -0 -9.2331)
(0 -0 -12.7987)
(0 -0 -14.245)
(0 -0 -13.8472)
(0 -0 -11.2253)
(0 -0 -4.25511)
(0 -0 8.99209)
(0 -0 23.4608)
(0 -0 5.72998)
(0 -0 0.583131)
(0 -0 0.155178)
(0 -0 0.0507024)
(0 -0 -0.0215051)
(0 -0 -0.110571)
(0 -0 -0.205394)
(0 -0 -0.236312)
(0 -0 -0.168709)
(0 -0 -0.643498)
(0 -0 -3.07305)
(0 -0 -7.69012)
(0 -0 -12.7083)
(0 -0 -15.8719)
(0 -0 -16.4503)
(0 -0 -15.9378)
(0 -0 -15.6244)
(0 -0 -12.8555)
(0 -0 0.245466)
(0 -0 30.9722)
(0 -0 6.19892)
(0 -0 0.615779)
(0 -0 0.137984)
(0 -0 0.0239161)
(0 -0 -0.0493303)
(0 -0 -0.136113)
(0 -0 -0.230252)
(0 -0 -0.287989)
(0 -0 -0.318908)
(0 -0 -1.1331)
(0 -0 -3.99143)
(0 -0 -9.08459)
(0 -0 -14.1846)
(0 -0 -16.535)
(0 -0 -15.8269)
(0 -0 -14.0631)
(0 -0 -13.8767)
(0 -0 -15.6104)
(0 -0 -8.24805)
(0 -0 35.9998)
(0 -0 6.53849)
(0 -0 0.655809)
(0 -0 0.131074)
(0 -0 0.00494344)
(0 -0 -0.0697583)
(0 -0 -0.155309)
(0 -0 -0.256136)
(0 -0 -0.351142)
(0 -0 -0.452345)
(0 -0 -1.26733)
(0 -0 -3.80541)
(0 -0 -8.62788)
(0 -0 -13.5944)
(0 -0 -15.9407)
(0 -0 -15.0368)
(0 -0 -12.3549)
(0 -0 -10.7983)
(0 -0 -13.5188)
(0 -0 -13.2325)
(0 -0 38.7713)
(0 -0 6.74872)
(0 -0 0.702959)
(0 -0 0.134807)
(0 -0 -0.00467838)
(0 -0 -0.0821157)
(0 -0 -0.16767)
(0 -0 -0.274394)
(0 -0 -0.395147)
(0 -0 -0.541887)
(0 -0 -1.11169)
(0 -0 -3.04011)
(0 -0 -6.67296)
(0 -0 -10.9102)
(0 -0 -13.5951)
(0 -0 -13.3264)
(0 -0 -10.9523)
(0 -0 -9.20188)
(0 -0 -11.2779)
(0 -0 -14.9648)
(0 -0 40.2077)
(0 -0 6.84533)
(0 -0 0.756563)
(0 -0 0.150122)
(0 -0 -0.00210725)
(0 -0 -0.0822213)
(0 -0 -0.166396)
(0 -0 -0.275651)
(0 -0 -0.410457)
(0 -0 -0.577539)
(0 -0 -0.945877)
(0 -0 -2.1624)
(0 -0 -4.47278)
(0 -0 -7.46726)
(0 -0 -9.60876)
(0 -0 -9.97559)
(0 -0 -8.88442)
(0 -0 -7.82765)
(0 -0 -10.0473)
(0 -0 -16.0914)
(0 -0 40.7762)
(0 -0 6.85977)
(0 -0 0.812853)
(0 -0 0.178063)
(0 -0 0.0131064)
(0 -0 -0.0685186)
(0 -0 -0.148386)
(0 -0 -0.253012)
(0 -0 -0.390112)
(0 -0 -0.567084)
(0 -0 -0.839991)
(0 -0 -1.51154)
(0 -0 -2.79537)
(0 -0 -4.57666)
(0 -0 -6.04414)
(0 -0 -6.62445)
(0 -0 -6.51607)
(0 -0 -6.40275)
(0 -0 -9.23037)
(0 -0 -17.4061)
(0 -0 40.2403)
(0 -0 6.83346)
(0 -0 0.858161)
(0 -0 0.205928)
(0 -0 0.0360111)
(0 -0 -0.0433781)
(0 -0 -0.113549)
(0 -0 -0.205803)
(0 -0 -0.335327)
(0 -0 -0.511009)
(0 -0 -0.751122)
(0 -0 -1.13383)
(0 -0 -1.78892)
(0 -0 -2.75439)
(0 -0 -3.7319)
(0 -0 -4.42152)
(0 -0 -4.82198)
(0 -0 -5.33536)
(0 -0 -8.74318)
(0 -0 -19.1735)
(0 -0 38.7791)
(0 -0 6.96125)
(0 -0 0.884606)
(0 -0 0.234267)
(0 -0 0.0575551)
(0 -0 -0.022986)
(0 -0 -0.0838607)
(0 -0 -0.162703)
(0 -0 -0.278652)
(0 -0 -0.44143)
(0 -0 -0.661695)
(0 -0 -0.943291)
(0 -0 -1.32526)
(0 -0 -1.88615)
(0 -0 -2.60152)
(0 -0 -3.26663)
(0 -0 -3.86651)
(0 -0 -4.77654)
(0 -0 -8.78887)
(0 -0 -21.2401)
(0 -0 36.7918)
(0 -0 6.55834)
(0 -0 0.98753)
(0 -0 0.230501)
(0 -0 -0.0324659)
(0 -0 -0.144924)
(0 -0 -0.22432)
(0 -0 -0.321178)
(0 -0 -0.446875)
(0 -0 -0.612051)
(0 -0 -0.828316)
(0 -0 -1.10217)
(0 -0 -1.43972)
(0 -0 -1.88225)
(0 -0 -2.43023)
(0 -0 -3.08372)
(0 -0 -3.84067)
(0 -0 -5.11809)
(0 -0 -9.90455)
(0 -0 -22.7463)
(0 -0 34.4265)
(0 -0 9.4273)
(0 -0 0.112451)
(0 -0 -1.06135)
(0 -0 -1.55306)
(0 -0 -1.90792)
(0 -0 -2.24637)
(0 -0 -2.53709)
(0 -0 -2.7919)
(0 -0 -3.0346)
(0 -0 -3.29089)
(0 -0 -3.58616)
(0 -0 -3.93679)
(0 -0 -4.36652)
(0 -0 -4.93048)
(0 -0 -5.74611)
(0 -0 -7.02864)
(0 -0 -8.86235)
(0 -0 -13.4379)
(0 -0 -23.8549)
(0 -0 26.3633)
(0 -0 -1.78006)
(0 -0 -7.28121)
(0 -0 -8.53025)
(0 -0 -10.3328)
(0 -0 -11.9426)
(0 -0 -12.9735)
(0 -0 -13.6471)
(0 -0 -14.1456)
(0 -0 -14.5368)
(0 -0 -14.8571)
(0 -0 -15.149)
(0 -0 -15.4611)
(0 -0 -15.85)
(0 -0 -16.4069)
(0 -0 -17.2106)
(0 -0 -18.4127)
(0 -0 -20.1372)
(0 -0 -23.5759)
(0 -0 -30.5331)
(0 -0 -10.6039)
(0 -0 -180.281)
(0 -0 -199.623)
(0 -0 -195.391)
(0 -0 -190.411)
(0 -0 -186.701)
(0 -0 -183.792)
(0 -0 -181.26)
(0 -0 -178.928)
(0 -0 -176.723)
(0 -0 -174.614)
(0 -0 -172.605)
(0 -0 -170.728)
(0 -0 -169.059)
(0 -0 -167.662)
(0 -0 -166.805)
(0 -0 -166.071)
(0 -0 -168.099)
(0 -0 -164.164)
(0 -0 -194.073)
(0 -0 -145.686)
)
;

boundaryField
{
    movingWall
    {
        type            calculated;
        value           nonuniform List<vector> 
20
(
(0 -0 -367.466)
(0 -0 -380.117)
(0 -0 -369.129)
(0 -0 -358.533)
(0 -0 -350.705)
(0 -0 -344.485)
(0 -0 -338.989)
(0 -0 -333.925)
(0 -0 -329.191)
(0 -0 -324.728)
(0 -0 -320.51)
(0 -0 -316.562)
(0 -0 -312.981)
(0 -0 -309.824)
(0 -0 -307.604)
(0 -0 -305.392)
(0 -0 -308.522)
(0 -0 -299.365)
(0 -0 -359.677)
(0 -0 -239.413)
)
;
    }
    fixedWalls
    {
        type            calculated;
        value           nonuniform List<vector> 
60
(
(0 -0 0.264791)
(0 -0 0.972337)
(0 -0 2.17574)
(0 -0 3.58378)
(0 -0 5.10584)
(0 -0 6.62942)
(0 -0 8.07066)
(0 -0 9.36467)
(0 -0 10.4602)
(0 -0 11.3186)
(0 -0 11.9215)
(0 -0 12.271)
(0 -0 12.3982)
(0 -0 12.3835)
(0 -0 12.3054)
(0 -0 12.6583)
(0 -0 11.7692)
(0 -0 18.4536)
(0 -0 2.24302)
(0 -0 -159.442)
(0 -0 -0.0957997)
(0 -0 0.322945)
(0 -0 0.93372)
(0 -0 1.23873)
(0 -0 1.36216)
(0 -0 4.29578)
(0 -0 12.6026)
(0 -0 29.7637)
(0 -0 50.5927)
(0 -0 70.5864)
(0 -0 86.0511)
(0 -0 94.9207)
(0 -0 99.9357)
(0 -0 102.415)
(0 -0 103.247)
(0 -0 103.613)
(0 -0 104.477)
(0 -0 98.8428)
(0 -0 52.7916)
(0 -0 -115.928)
(0 -0 0.262718)
(0 -0 0.938844)
(0 -0 2.1145)
(0 -0 3.49071)
(0 -0 4.98739)
(0 -0 6.5433)
(0 -0 8.12616)
(0 -0 9.68829)
(0 -0 11.1511)
(0 -0 12.4034)
(0 -0 13.2062)
(0 -0 13.3928)
(0 -0 12.8391)
(0 -0 11.4362)
(0 -0 9.34218)
(0 -0 6.8333)
(0 -0 4.30355)
(0 -0 2.12517)
(0 -0 0.587237)
(0 -0 -0.0725514)
)
;
    }
    frontAndBack
    {
        type            empty;
    }
}


// ************************************************************************* //
