/*--------------------------------*- C++ -*----------------------------------*\
| =========                 |                                                 |
| \\      /  F ield         | OpenFOAM: The Open Source CFD Toolbox           |
|  \\    /   O peration     | Version:  2312                                  |
|   \\  /    A nd           | Website:  www.openfoam.com                      |
|    \\/     M anipulation  |                                                 |
\*---------------------------------------------------------------------------*/
FoamFile
{
    version     2.0;
    format      ascii;
    arch        "LSB;label=32;scalar=64";
    class       volVectorField;
    location    "1.5";
    object      wallShearStress;
}
// * * * * * * * * * * * * * * * * * * * * * * * * * * * * * * * * * * * * * //

dimensions      [0 2 -2 0 0 0 0];

internalField   uniform (0 0 0);

boundaryField
{
    movingWall
    {
        type            calculated;
        value           uniform (0 0 0);
    }
    fixedWalls
    {
        type            calculated;
        value           nonuniform List<vector> 
60
(
(3.29104e-06 1.5185e-07 0)
(9.02928e-06 -6.90505e-06 0)
(1.37404e-05 -1.98658e-05 0)
(1.5859e-05 -3.51211e-05 0)
(1.63056e-05 -5.11169e-05 0)
(1.56686e-05 -6.68436e-05 0)
(1.42699e-05 -8.16094e-05 0)
(1.22703e-05 -9.48222e-05 0)
(9.8028e-06 -0.000105966 0)
(7.04885e-06 -0.000114624 0)
(4.25418e-06 -0.000120591 0)
(1.68088e-06 -0.000123862 0)
(-2.95882e-07 -0.000124662 0)
(-1.17883e-06 -0.000123769 0)
(-7.46023e-09 -0.000121855 0)
(9.95336e-07 -0.000123409 0)
(1.74031e-05 -0.000111219 0)
(1.16378e-05 -0.000175205 0)
(6.50183e-05 -0.000111064 0)
(-0.000289749 -0.00233671 0)
(-1.73156e-06 -8.4939e-07 0)
(3.56052e-06 1.80375e-06 0)
(3.79168e-06 1.10525e-05 0)
(-2.13716e-06 1.65284e-05 0)
(-5.98063e-06 1.54824e-05 0)
(6.08464e-06 2.50854e-05 0)
(7.76636e-05 6.99983e-05 0)
(0.000208565 0.000241349 0)
(0.000263146 0.000493887 0)
(0.000236517 0.000728635 0)
(0.000168327 0.00089326 0)
(0.000107449 0.000971653 0)
(7.86295e-05 0.00100749 0)
(6.95978e-05 0.00102496 0)
(6.84341e-05 0.00103356 0)
(6.64761e-05 0.00104461 0)
(4.77083e-05 0.00107772 0)
(-5.28103e-05 0.00114639 0)
(-0.000528741 0.00137288 0)
(-0.00258829 0.00225464 0)
(-8.11795e-08 -3.23728e-06 0)
(6.94446e-06 -8.75469e-06 0)
(1.97581e-05 -1.25918e-05 0)
(3.43521e-05 -1.41405e-05 0)
(4.96359e-05 -1.47822e-05 0)
(6.52796e-05 -1.51368e-05 0)
(8.11947e-05 -1.53431e-05 0)
(9.71023e-05 -1.51879e-05 0)
(0.000112362 -1.41359e-05 0)
(0.000125758 -1.13756e-05 0)
(0.000134706 -6.72763e-06 0)
(0.000137943 -3.24502e-07 0)
(0.000133262 9.04954e-06 0)
(0.000118744 1.82365e-05 0)
(9.62399e-05 2.55203e-05 0)
(6.85854e-05 2.85964e-05 0)
(4.04947e-05 2.64469e-05 0)
(1.64365e-05 1.94018e-05 0)
(5.54345e-07 8.72777e-06 0)
(-2.27506e-06 -9.19413e-07 0)
)
;
    }
    frontAndBack
    {
        type            empty;
    }
}


// ************************************************************************* //
