/*--------------------------------*- C++ -*----------------------------------*\
| =========                 |                                                 |
| \\      /  F ield         | OpenFOAM: The Open Source CFD Toolbox           |
|  \\    /   O peration     | Version:  2312                                  |
|   \\  /    A nd           | Website:  www.openfoam.com                      |
|    \\/     M anipulation  |                                                 |
\*---------------------------------------------------------------------------*/
FoamFile
{
    version     2.0;
    format      ascii;
    arch        "LSB;label=32;scalar=64";
    class       volScalarField;
    location    "1.5";
    object      yPlus;
}
// * * * * * * * * * * * * * * * * * * * * * * * * * * * * * * * * * * * * * //

dimensions      [0 0 0 0 0 0 0];

internalField   uniform 0;

boundaryField
{
    movingWall
    {
        type            calculated;
        value           nonuniform List<scalar> 
20
(
15.5228
15.3355
12.5323
13.3162
13.747
14.002
14.1449
14.2205
14.2316
14.22
14.1909
14.1437
14.1014
14.0585
14.0508
14.0684
14.1509
14.1783
14.587
13.9087
)
;
    }
    fixedWalls
    {
        type            calculated;
        value           nonuniform List<scalar> 
60
(
0.333797
0.765366
1.1707
1.5082
1.79869
2.04706
2.25667
2.42947
2.56659
2.66877
2.7377
2.77588
2.7875
2.78168
2.76648
2.79518
2.67655
3.35847
2.10986
5.03234
0.330854
0.420179
0.801717
0.955788
1.00369
1.46893
2.52685
4.25484
5.69823
6.74992
7.42508
7.75649
7.92432
8.00665
8.03972
8.06769
8.1461
8.1685
12.6751
13.9087
0.333797
0.757005
1.15521
1.48574
1.7727
2.02756
2.25802
2.46584
2.64767
2.79545
2.88785
2.91479
2.86028
2.70317
2.44611
2.0923
1.65707
1.15133
0.566404
0.330854
)
;
    }
    frontAndBack
    {
        type            empty;
    }
}


// ************************************************************************* //
