/*--------------------------------*- C++ -*----------------------------------*\
| =========                 |                                                 |
| \\      /  F ield         | OpenFOAM: The Open Source CFD Toolbox           |
|  \\    /   O peration     | Version:  2312                                  |
|   \\  /    A nd           | Website:  www.openfoam.com                      |
|    \\/     M anipulation  |                                                 |
\*---------------------------------------------------------------------------*/
FoamFile
{
    version     2.0;
    format      ascii;
    arch        "LSB;label=32;scalar=64";
    class       volScalarField;
    location    "1.5";
    object      zeroGradient(epsilon);
}
// * * * * * * * * * * * * * * * * * * * * * * * * * * * * * * * * * * * * * //

dimensions      [0 2 -3 0 0 0 0];

internalField   nonuniform List<scalar> 
400
(
0.000131864
0.000239566
0.000376524
0.000512901
0.000647541
0.000783974
0.000925034
0.0010692
0.00120884
0.00132966
0.00139026
0.00140736
0.00137724
0.00126802
0.00110655
0.000892402
0.0006571
0.000430366
0.000236272
0.000134758
0.000231105
0.000229062
0.000294517
0.000355932
0.000407909
0.000453198
0.000493782
0.000529236
0.00055638
0.000571001
0.000578084
0.000589976
0.000620272
0.000634902
0.000627997
0.000574122
0.000469787
0.0003429
0.00024832
0.000233882
0.000389441
0.000277923
0.000315786
0.000361926
0.000398749
0.000426298
0.000449063
0.000469664
0.000491489
0.000520963
0.000568801
0.000646774
0.000767029
0.000900944
0.000963879
0.000956078
0.000795123
0.000541448
0.000359036
0.000357913
0.000552917
0.000337937
0.000352657
0.000387814
0.000419117
0.000446107
0.000472071
0.000502472
0.00054772
0.000626806
0.000768924
0.00100645
0.00134924
0.00175817
0.00203261
0.00211015
0.00185234
0.0012202
0.000600715
0.000462773
0.000713244
0.000391466
0.000388303
0.000420116
0.000453284
0.000486617
0.000525799
0.000583818
0.000685299
0.000874757
0.00122113
0.00179261
0.00256989
0.00343006
0.00413922
0.00448234
0.00436995
0.00332646
0.00148979
0.000592638
0.000866488
0.000436987
0.000419835
0.00044991
0.000488107
0.000533786
0.000598609
0.000708135
0.000914292
0.00131132
0.00201278
0.0029904
0.00387238
0.00442165
0.00504704
0.00595264
0.0068611
0.0072767
0.00466877
0.00128153
0.00100936
0.000475773
0.000445869
0.000475457
0.000520804
0.000583364
0.00068367
0.000867163
0.00122402
0.00188193
0.00284273
0.00356303
0.00382874
0.00405777
0.00456435
0.00560502
0.00741767
0.00969129
0.0107896
0.00529587
0.0011388
0.000508237
0.000466001
0.000495468
0.000548577
0.00062955
0.000768145
0.00102743
0.00151721
0.0023353
0.00308431
0.00328442
0.00312962
0.00293276
0.00300162
0.00391294
0.0060359
0.0101284
0.0148001
0.0157068
0.00125191
0.000534752
0.000480234
0.000508927
0.000568369
0.000664699
0.000833429
0.00114452
0.00169664
0.00249388
0.00291143
0.00276659
0.00219251
0.00186358
0.00177266
0.00226176
0.00386897
0.00766045
0.0163566
0.0268004
0.00134618
0.000555838
0.000488999
0.000515427
0.000577818
0.000682362
0.000863839
0.00118456
0.00171795
0.00241321
0.00265455
0.00232456
0.00169541
0.00135833
0.00126852
0.00159176
0.00275409
0.00624538
0.0157596
0.0333303
0.00141998
0.000572115
0.000492991
0.000514889
0.000576109
0.000679866
0.000857321
0.00116324
0.00165755
0.00225602
0.00245727
0.0021164
0.00153041
0.00120098
0.00113813
0.00140626
0.00229148
0.00505524
0.0146375
0.0379349
0.00147368
0.00058441
0.000493812
0.000511427
0.000569166
0.000668125
0.000832852
0.00110413
0.00152171
0.00203243
0.00229041
0.00207539
0.00159407
0.00127139
0.00122855
0.00144535
0.00221734
0.00462652
0.0142049
0.0416431
0.00150815
0.000593309
0.000492814
0.000504447
0.000556096
0.00064536
0.000789196
0.00101617
0.0013548
0.00178329
0.00210933
0.00204647
0.00177813
0.0014535
0.00148084
0.00172921
0.0023864
0.00451014
0.014182
0.0455777
0.00153312
0.000600648
0.000491307
0.000497554
0.000542441
0.000621311
0.00074405
0.000929064
0.00119496
0.00153597
0.00186349
0.0019595
0.00187062
0.00168778
0.00171258
0.00188851
0.00243937
0.00445923
0.0147923
0.0502999
0.00154686
0.000603478
0.000492056
0.000497371
0.00053861
0.000609169
0.000713068
0.00086109
0.00106576
0.00132382
0.00159335
0.00176569
0.00178749
0.00172881
0.00175548
0.00190041
0.0023713
0.0041753
0.015432
0.0563574
0.0015961
0.000611049
0.000502363
0.000511812
0.000555711
0.000625751
0.000723569
0.000854878
0.00101699
0.00120796
0.00140558
0.00155669
0.00161961
0.00162438
0.00165737
0.00180238
0.0022533
0.00397736
0.0160401
0.0646188
0.0016059
0.000643683
0.000565239
0.000600987
0.00066716
0.000753234
0.000859212
0.000988047
0.00114143
0.00131292
0.00148541
0.00162417
0.00169538
0.00171539
0.00176222
0.00192425
0.00242526
0.00446556
0.0187062
0.0761406
0.00188203
0.000946994
0.00110299
0.00130303
0.00150371
0.00171108
0.00192204
0.00213591
0.0023521
0.00256729
0.00276969
0.00294867
0.00307052
0.00318288
0.00333258
0.00364147
0.00450249
0.00829447
0.0254876
0.0945734
0.00315232
0.0052502
0.00820867
0.010346
0.0118879
0.0131359
0.0141445
0.0149633
0.0155895
0.0161189
0.0165715
0.0170043
0.0174007
0.017909
0.0185231
0.0197182
0.0218822
0.032648
0.0489289
0.127149
0.0434649
0.0839921
0.122903
0.147447
0.162229
0.171432
0.17674
0.179594
0.180021
0.179581
0.17848
0.176699
0.17511
0.173511
0.173211
0.173862
0.176936
0.177962
0.193802
0.168002
)
;

boundaryField
{
    movingWall
    {
        type            zeroGradient;
    }
    fixedWalls
    {
        type            zeroGradient;
    }
    frontAndBack
    {
        type            empty;
    }
}


// ************************************************************************* //
