/*--------------------------------*- C++ -*----------------------------------*\
| =========                 |                                                 |
| \\      /  F ield         | OpenFOAM: The Open Source CFD Toolbox           |
|  \\    /   O peration     | Version:  2312                                  |
|   \\  /    A nd           | Website:  www.openfoam.com                      |
|    \\/     M anipulation  |                                                 |
\*---------------------------------------------------------------------------*/
FoamFile
{
    version     2.0;
    format      ascii;
    arch        "LSB;label=32;scalar=64";
    class       volScalarField;
    location    "250";
    object      epsilon;
}
// * * * * * * * * * * * * * * * * * * * * * * * * * * * * * * * * * * * * * //

dimensions      [0 2 -3 0 0 0 0];

internalField   nonuniform List<scalar> 
12225
(
936.68
1509.32
1777.63
1793.89
1752.27
1670.07
1570.11
1481.15
1405.41
1342.25
1290.04
1247.21
1211.54
1182.64
1157.35
1139.52
1119.51
1113.36
109.951
259.889
333.734
359.031
363.456
361.198
352.064
342.405
334.403
328.043
323.502
320.41
318.394
316.699
315.973
314.98
314.076
315.142
30.0966
67.1241
93.1554
106.932
113.243
114.667
113.843
112.209
109.829
107.664
106.021
104.8
104.137
103.775
103.786
104.081
104.176
105.282
17.8795
29.1852
39.3764
46.5608
51.2404
53.7277
54.9843
55.0313
54.7783
54.1845
53.3816
52.5965
51.8332
51.2442
50.6059
50.3113
49.6758
49.8283
15.3567
19.0019
23.395
27.0641
29.899
31.8197
33.1278
33.8001
34.1566
34.1506
34.0472
33.8239
33.4659
33.1613
32.7208
32.4772
31.9292
31.8829
14.8221
15.8175
17.5547
19.4138
21.0169
22.2561
23.2078
23.8477
24.2827
24.5117
24.6163
24.605
24.5421
24.4342
24.2319
24.1013
23.7866
23.7379
14.6762
14.8244
15.284
16.0988
16.9127
17.6178
18.2079
18.658
18.9956
19.2242
19.3666
19.4421
19.4479
19.429
19.3678
19.3066
19.1399
19.1191
14.6551
14.4546
14.4764
14.6426
14.9525
15.2723
15.5695
15.8193
16.0199
16.1703
16.2727
16.3385
16.3634
16.3602
16.3373
16.3092
16.216
16.2081
14.668
14.3514
14.1557
14.0536
14.0616
14.1035
14.1817
14.2617
14.3315
14.3868
14.4229
14.4441
14.4426
14.4331
14.4062
14.3792
14.3116
14.2985
14.6758
14.3358
14.0557
13.8298
13.6742
13.5629
13.4897
13.4396
13.4014
13.3693
13.3368
13.3044
13.2657
13.2267
13.178
13.1378
13.0708
13.041
14.6776
14.3376
14.032
13.7594
13.5286
13.3341
13.1721
13.0366
12.9207
12.8202
12.7295
12.6476
12.5692
12.4972
12.4231
12.3595
12.2827
12.2317
14.6775
14.3395
14.0284
13.7428
13.4857
13.2562
13.0527
12.8729
12.713
12.5703
12.4411
12.3242
12.2154
12.1163
12.0204
11.9352
11.8456
11.7752
14.6772
14.3401
14.0281
13.739
13.4725
13.2281
13.0048
12.8015
12.6161
12.4472
12.2924
12.1508
12.0195
11.899
11.785
11.6816
11.5794
11.4922
14.677
14.3401
14.0279
13.7381
13.469
13.2193
12.9878
12.7735
12.5749
12.3912
12.2208
12.063
11.916
11.7797
11.6517
11.5335
11.4202
11.3182
14.6769
14.34
14.0276
13.7375
13.4678
13.2168
12.9829
12.7648
12.5614
12.3715
12.1941
12.0284
11.8732
11.7281
11.5918
11.4644
11.3437
11.2318
14.6768
14.3398
14.0273
13.737
13.467
13.2156
12.981
12.762
12.5572
12.3655
12.1858
12.0173
11.8591
11.7105
11.5706
11.4391
11.3149
11.1983
14.6768
14.3397
14.027
13.7366
13.4664
13.2147
12.9798
12.7604
12.5552
12.3629
12.1826
12.0134
11.8543
11.7046
11.5636
11.4308
11.3055
11.1872
14.6768
14.3397
14.0269
13.7363
13.466
13.2141
12.979
12.7594
12.5539
12.3614
12.1809
12.0113
11.8519
11.7019
11.5606
11.4274
11.3017
11.183
14.6768
14.3396
14.0268
13.7362
13.4658
13.2139
12.9787
12.759
12.5534
12.3608
12.1801
12.0105
11.851
11.7009
11.5596
11.4263
11.3006
11.1818
14.6768
14.3397
14.0269
13.7364
13.466
13.2142
12.9791
12.7596
12.5542
12.362
12.1817
12.0126
11.8538
11.7044
11.564
11.4316
11.307
11.1893
14.6768
14.3398
14.0271
13.7367
13.4666
13.2153
12.9813
12.7632
12.56
12.3703
12.1933
12.0278
11.8731
11.7282
11.5925
11.4649
11.3456
11.2325
14.677
14.3398
14.0272
13.7378
13.4705
13.2242
12.9978
12.7899
12.5989
12.4233
12.2616
12.1121
11.974
11.8454
11.7262
11.614
11.5105
11.4107
14.6779
14.3385
14.0297
13.7522
13.5065
13.2916
13.1043
12.9406
12.7967
12.6686
12.5535
12.4484
12.352
12.2617
12.178
12.0969
12.0234
11.9469
14.6794
14.3371
14.0751
13.8733
13.7321
13.6399
13.5805
13.5414
13.5132
13.489
13.4658
13.4399
13.4117
13.3784
13.3428
13.3002
13.2615
13.2077
14.6846
14.411
14.4216
14.4962
14.6899
14.9199
15.1431
15.3433
15.5101
15.6421
15.7415
15.808
15.8505
15.865
15.8595
15.8441
15.8164
15.7634
14.8082
15.0393
15.8732
16.9023
17.8694
18.7162
19.4031
19.9486
20.3516
20.644
20.8372
20.9483
21.0027
20.9964
20.9605
20.8952
20.825
20.6944
15.6356
18.1168
21.7914
24.9291
27.3812
29.2532
30.5664
31.4803
32.01
32.3206
32.3935
32.346
32.2376
32.0048
31.7832
31.4661
31.231
30.8835
19.9117
33.9065
45.1072
53.0728
58.3545
61.7426
63.5099
64.3156
64.2612
63.9355
63.3414
62.5106
61.7134
60.8445
60.1623
59.375
58.9013
58.2214
57.9094
118.805
155.104
177.266
189.651
195.629
196.474
195.561
193.297
190.227
187.175
184.406
182.001
179.918
178.315
176.838
175.996
174.934
557.18
767.372
897.453
964.607
979.94
973.471
956.353
928.7
899.55
871.19
844.722
820.609
798.893
779.46
762.117
746.633
732.77
720.355
0.0338204
0.0297371
0.0495814
0.0733409
0.0982776
0.122747
0.145924
0.167472
0.18734
0.205722
0.22339
0.240897
0.25847
0.276527
0.295441
0.315484
0.336769
0.359315
0.383102
0.408329
0.435986
0.469409
0.514503
0.571024
0.636719
0.711366
0.795892
0.891859
1.00114
1.12585
1.26821
1.43046
1.61473
1.82307
2.05724
2.31892
2.60949
2.93038
3.28218
3.66385
4.07541
4.51668
4.98719
5.48661
6.01436
6.57009
7.15325
7.7636
8.40068
9.06444
9.75453
10.4711
11.2138
11.9831
12.7788
13.6012
14.4504
15.3268
16.2303
17.1616
18.1204
19.1073
20.1222
21.1656
22.2371
23.3372
24.4655
25.6224
26.8072
28.0202
29.2608
30.529
31.8243
33.1466
34.4955
35.8714
37.2744
38.7064
40.1692
41.6679
43.2096
44.8078
46.4832
48.1465
49.8419
51.5431
53.2603
54.9847
56.7164
58.4512
60.1859
61.9162
63.6377
65.3459
67.0357
68.7027
70.344
71.9613
73.5679
75.1432
76.692
78.2097
79.6949
81.1439
82.5542
83.9228
85.2468
86.5236
87.7505
88.9251
90.0445
91.1068
92.1094
93.0505
93.9278
94.7398
95.4846
96.161
96.7675
97.3035
97.7675
98.1588
98.4759
98.7179
98.8817
98.9744
99.028
98.9751
98.8568
98.6445
98.3648
98.0309
97.6213
97.1468
96.605
95.9992
95.3308
94.6029
93.8188
92.978
92.0832
91.1367
90.141
89.0986
88.0123
86.8848
85.719
84.5178
83.2843
82.0215
80.7325
79.4204
78.0889
76.7416
75.3835
74.023
72.7005
71.7367
71.2276
70.7682
70.3017
69.8215
69.3276
68.8206
68.3008
67.7769
67.2537
66.7257
66.1934
65.657
65.1166
64.5708
64.0164
63.4516
62.8699
62.2586
61.5946
60.7993
59.8534
55.9709
0.105387
0.062074
0.0565224
0.0597637
0.0664788
0.0748241
0.0842372
0.0945101
0.105616
0.117688
0.131001
0.145726
0.161927
0.179789
0.19955
0.221473
0.245831
0.272929
0.303139
0.336981
0.375213
0.41889
0.46911
0.526346
0.590772
0.662738
0.742777
0.831525
0.929623
1.03767
1.15619
1.28559
1.42616
1.57812
1.74164
1.91694
2.10435
2.30308
2.51192
2.73036
2.95806
3.19476
3.44022
3.69434
3.95707
4.22847
4.50863
4.79772
5.09591
5.40343
5.72049
6.04738
6.38429
6.73151
7.08923
7.4577
7.83709
8.2276
8.62936
9.04252
9.46718
9.90344
10.3513
10.8109
11.2822
11.7652
12.2598
12.7659
13.2836
13.8126
14.3529
14.9043
15.4668
16.0402
16.6245
17.2197
17.826
18.4436
19.0729
19.7143
20.3682
21.0345
21.7108
22.3902
23.0766
23.7662
24.4595
25.1547
25.8511
26.5473
27.242
27.9338
28.6213
29.3034
29.979
30.648
31.312
31.9752
32.6482
33.3113
33.9647
34.6069
35.237
35.8537
36.456
37.0428
37.613
38.1654
38.6992
39.2133
39.7067
40.1784
40.6276
41.0534
41.455
41.8317
42.1828
42.5076
42.8056
43.0764
43.3194
43.534
43.7201
43.8772
44.0054
44.1062
44.1808
44.221
44.2317
44.2102
44.1615
44.0887
43.9867
43.8574
43.7008
43.5175
43.3081
43.0735
42.8145
42.5314
42.225
41.8961
41.5456
41.1744
40.7834
40.3737
39.9461
39.5019
39.0421
38.5677
38.0801
37.5803
37.0696
36.5495
36.0219
35.4905
34.9688
34.515
34.1511
33.8082
33.4661
33.1205
32.7709
32.4173
32.0602
31.7013
31.3424
30.9829
30.623
30.263
29.9031
29.5436
29.1841
28.8244
28.4646
28.106
27.7464
27.3957
27.0888
26.6776
0.23088
0.114096
0.0884813
0.0831356
0.0846426
0.0896421
0.0970681
0.106443
0.117643
0.130671
0.145653
0.162747
0.182137
0.204052
0.228705
0.256334
0.287205
0.321623
0.359942
0.402582
0.450024
0.502778
0.56129
0.625849
0.696632
0.773799
0.857528
0.947998
1.04537
1.14976
1.26127
1.37996
1.50585
1.63896
1.77932
1.92695
2.07903
2.2369
2.40163
2.57335
2.75219
2.9385
3.13218
3.33333
3.54213
3.75877
3.98341
4.21621
4.45734
4.70694
4.96514
5.23209
5.50788
5.79266
6.0865
6.38952
6.7018
7.02338
7.35431
7.69465
8.04442
8.40365
8.77235
9.15053
9.53816
9.93522
10.3417
10.7574
11.1825
11.6167
12.0601
12.5125
12.9738
13.444
13.9229
14.4104
14.9066
15.4112
15.9241
16.445
16.9735
17.5088
18.0498
18.5951
19.1447
19.6977
20.2536
20.8115
21.3708
21.9308
22.4907
23.0497
23.6071
24.1625
24.7155
25.2663
25.8152
26.3632
26.9091
27.4482
27.9799
28.503
29.0167
29.52
30.0121
30.4919
30.9587
31.4116
31.8496
32.2719
32.6778
33.0664
33.4371
33.789
34.1216
34.4341
34.7262
34.9971
35.2464
35.4737
35.6786
35.8608
36.0198
36.1557
36.2684
36.3581
36.4248
36.4653
36.4793
36.4716
36.4408
36.3882
36.3126
36.2144
36.094
35.9517
35.7882
35.6039
35.3994
35.1751
34.9318
34.6701
34.3906
34.0941
33.7814
33.4532
33.1103
32.7536
32.384
32.0023
31.6095
31.2066
30.7945
30.3744
29.9479
29.5177
29.0911
28.6877
28.316
27.9563
27.599
27.2409
26.8812
26.52
26.1576
25.7948
25.4327
25.0717
24.7117
24.3531
23.9964
23.642
23.2901
22.9414
22.5969
22.2594
21.9311
21.6271
21.3748
21.1552
0.371699
0.168741
0.124266
0.112574
0.111498
0.115571
0.123013
0.133157
0.145784
0.160897
0.178607
0.199078
0.222488
0.249012
0.278857
0.312233
0.349352
0.390436
0.435719
0.485439
0.53983
0.599097
0.663388
0.732786
0.807323
0.887016
0.971888
1.06198
1.15734
1.25803
1.36414
1.47575
1.59292
1.71572
1.84411
1.97797
2.11904
2.26726
2.42249
2.58457
2.75312
2.92768
3.10947
3.29878
3.49576
3.70055
3.9133
4.13412
4.36312
4.60039
4.84601
5.10008
5.3627
5.63394
5.9139
6.20265
6.50027
6.80681
7.12235
7.44695
7.78065
8.1235
8.47555
8.83682
9.20734
9.5871
9.97612
10.3744
10.7819
11.1985
11.6243
12.0591
12.503
12.9557
13.4172
13.8874
14.366
14.8528
15.3476
15.85
16.3594
16.8753
17.3969
17.9236
18.455
18.9905
19.5294
20.0712
20.6152
21.1608
21.7074
22.2542
22.8008
23.3465
23.891
24.434
24.9752
25.5138
26.0481
26.5763
27.0972
27.61
28.1136
28.6071
29.0896
29.5602
30.0178
30.4617
30.8909
31.3047
31.7021
32.0823
32.4447
32.7885
33.113
33.4176
33.7017
33.9648
34.2064
34.426
34.6234
34.798
34.9498
35.0784
35.1839
35.2663
35.3251
35.3571
35.366
35.3524
35.3158
35.2569
35.1753
35.0715
34.9457
34.7984
34.6301
34.4414
34.2328
34.005
33.7585
33.4941
33.2124
32.9143
32.6004
32.2716
31.9287
31.5725
31.204
30.824
30.4334
30.0332
29.6244
29.2081
28.7858
28.3598
27.9348
27.5196
27.1184
26.7245
26.333
25.9419
25.5505
25.1591
24.7678
24.3773
23.9878
23.5997
23.2138
22.8307
22.451
22.0751
21.7036
21.3376
20.9784
20.6292
20.294
19.987
19.7271
19.5137
0.499232
0.219026
0.160228
0.144177
0.141666
0.145633
0.153791
0.165259
0.179725
0.197137
0.217572
0.241164
0.268067
0.298437
0.332421
0.370154
0.411758
0.457344
0.507011
0.560847
0.618926
0.6813
0.748
0.819039
0.894429
0.974194
1.05839
1.1471
1.24044
1.33857
1.44166
1.5499
1.6635
1.78266
1.90761
2.03862
2.17611
2.32014
2.47062
2.62782
2.79223
2.96441
3.14414
3.33151
3.52664
3.72967
3.94075
4.16002
4.38767
4.6237
4.86821
5.12131
5.38311
5.65372
5.93326
6.22184
6.51956
6.82654
7.14287
7.46867
7.80402
8.14903
8.50378
8.86835
9.24282
9.62725
10.0217
10.4262
10.8407
11.2653
11.7
12.1447
12.5994
13.0639
13.5383
14.0222
14.5156
15.0181
15.5294
16.0491
16.5769
17.1121
17.6541
18.2025
18.7567
19.3161
19.8801
20.4481
21.0194
21.5934
22.1693
22.7465
23.3242
23.9017
24.4782
25.0531
25.6252
26.1936
26.7569
27.3138
27.8632
28.404
28.9352
29.4557
29.9644
30.4603
30.9424
31.4098
31.8613
32.2961
32.7133
33.112
33.4914
33.8507
34.1891
34.506
34.8007
35.0726
35.3213
35.5464
35.7472
35.9237
36.0754
36.2022
36.304
36.3808
36.4314
36.4535
36.4531
36.4278
36.3777
36.3035
36.2051
36.0831
35.9378
35.7698
35.5796
35.368
35.1355
34.8828
34.6108
34.3201
34.0116
33.686
33.3444
32.9874
32.6162
32.2315
31.8344
31.4257
31.0066
30.578
30.141
29.6968
29.2468
28.7931
28.3388
27.8886
27.4452
27.0063
26.5698
26.1344
25.7
25.2665
24.8346
24.4046
23.9772
23.5529
23.1322
22.7156
22.3037
21.8971
21.4967
21.1036
20.7195
20.3478
19.9931
19.6677
19.3844
19.1389
0.600696
0.264643
0.195537
0.17645
0.173143
0.177363
0.186442
0.199294
0.215507
0.234968
0.257703
0.283803
0.313377
0.346526
0.383336
0.42387
0.468169
0.516257
0.568146
0.623843
0.683351
0.746679
0.81384
0.884867
0.959815
1.03877
1.12186
1.20925
1.30112
1.39769
1.49921
1.60592
1.71806
1.83591
1.95972
2.08975
2.22624
2.36938
2.51935
2.6764
2.84082
3.01283
3.19255
3.38011
3.57566
3.77935
3.99135
4.21178
4.44075
4.6785
4.92519
5.18099
5.44606
5.72056
6.00465
6.29851
6.60229
6.91617
7.2403
7.57485
7.91998
8.27586
8.64262
9.02042
9.40938
9.80963
10.2213
10.6444
11.0791
11.5253
11.9832
12.4527
12.9338
13.4263
13.9303
14.4454
14.9715
15.5083
16.0555
16.6126
17.1793
17.7549
18.339
18.9309
19.5301
20.1359
20.7476
21.3645
21.9859
22.6109
23.2388
23.8686
24.4994
25.1304
25.7604
26.3885
27.0134
27.6339
28.2488
28.8566
29.4562
30.0465
30.626
31.1937
31.7484
32.2888
32.8137
33.3222
33.813
34.285
34.7373
35.1688
35.5786
35.9659
36.3298
36.6695
36.9844
37.2738
37.5371
37.7739
37.9838
38.1663
38.3213
38.4484
38.5478
38.6192
38.66
38.6727
38.6591
38.6179
38.5496
38.4543
38.3327
38.1851
38.0121
37.8144
37.5926
37.3476
37.08
36.7908
36.4808
36.1509
35.802
35.4352
35.0513
34.6515
34.2367
33.808
33.3666
32.9134
32.4496
31.9763
31.4947
31.0062
30.5121
30.0142
29.5149
29.0172
28.523
28.032
27.5434
27.0566
26.5717
26.0891
25.6092
25.1326
24.6597
24.1913
23.7279
23.2701
22.8185
22.3738
21.9371
21.5095
21.0932
20.6915
20.309
19.9561
19.641
19.3521
0.674109
0.304265
0.228919
0.208008
0.204362
0.208989
0.218949
0.233
0.250635
0.271677
0.296098
0.323936
0.355249
0.390088
0.428484
0.470448
0.515971
0.565035
0.617614
0.673691
0.733262
0.796345
0.862982
0.933248
1.00725
1.08514
1.1671
1.25332
1.34405
1.43954
1.54004
1.64583
1.75716
1.87431
1.99754
2.1271
2.26324
2.40619
2.55617
2.71344
2.87824
3.05078
3.23127
3.41989
3.61684
3.82234
4.03658
4.25978
4.49215
4.73391
4.98531
5.24656
5.51788
5.79951
6.09168
6.39462
6.70856
7.03374
7.3704
7.71877
8.07909
8.45159
8.83648
9.23399
9.64432
10.0676
10.5041
10.9539
11.4172
11.8939
12.3843
12.8883
13.4058
13.9369
14.4814
15.0391
15.6099
16.1933
16.7892
17.3969
18.0161
18.6462
19.2866
19.9366
20.5956
21.2628
21.9374
22.6185
23.3053
23.9968
24.692
25.3898
26.0891
26.7888
27.4876
28.1841
28.8771
29.5651
30.2466
30.9203
31.5848
32.2386
32.8803
33.5085
34.1219
34.7191
35.2987
35.8595
36.4001
36.9193
37.416
37.889
38.3372
38.7598
39.1557
39.5241
39.8643
40.1754
40.457
40.7085
40.9294
41.1194
41.2783
41.4058
41.502
41.566
41.5958
41.5963
41.5659
41.5048
41.4133
41.2919
41.1412
40.9617
40.7542
40.5195
40.2585
39.9719
39.6608
39.3262
38.969
38.5904
38.1915
37.7734
37.3372
36.8841
36.4154
35.9321
35.4357
34.9272
34.408
33.8794
33.3426
32.799
32.2501
31.6975
31.1433
30.5896
30.0381
29.4892
28.9429
28.3993
27.8587
27.3215
26.7884
26.2599
25.7365
25.2191
24.7081
24.2042
23.7082
23.2208
22.7432
22.2767
21.8234
21.3867
20.9709
20.5845
20.2321
19.8959
0.723086
0.338204
0.259868
0.23795
0.234148
0.239106
0.249717
0.26462
0.283227
0.305296
0.330745
0.359561
0.391758
0.427344
0.466318
0.508662
0.554347
0.603344
0.655628
0.71119
0.770047
0.832242
0.897857
0.967004
1.03983
1.11652
1.19729
1.28236
1.37199
1.46643
1.56596
1.67084
1.78135
1.89775
2.02033
2.14935
2.28507
2.42776
2.57768
2.7351
2.90027
3.07345
3.25491
3.44487
3.64362
3.8514
4.06851
4.29523
4.53185
4.77867
5.03599
5.30411
5.58333
5.87395
6.1763
6.49067
6.8174
7.15681
7.50921
7.87494
8.2543
8.64762
9.0552
9.47733
9.91429
10.3663
10.8337
11.3167
11.8153
12.3298
12.8603
13.4067
13.9692
14.5477
15.142
15.752
16.3774
17.0179
17.6731
18.3426
19.0257
19.7219
20.4305
21.1508
21.8818
22.6228
23.3727
24.1306
24.8953
25.6658
26.4408
27.219
27.9991
28.7796
29.5591
30.336
31.1088
31.8758
32.6353
33.3859
34.1257
34.8532
35.5669
36.265
36.946
37.6083
38.2504
38.8707
39.4679
40.0405
40.5872
41.1067
41.5979
42.0596
42.4908
42.8905
43.258
43.5924
43.8931
44.1596
44.3913
44.588
44.7493
44.8753
44.9658
45.019
45.0362
45.0195
44.9679
44.882
44.7622
44.6091
44.4234
44.2059
43.9574
43.6789
43.3715
43.0361
42.674
42.2863
41.8742
41.439
40.9819
40.5044
40.0077
39.4931
38.9622
38.4162
37.8566
37.2848
36.7022
36.1102
35.5103
34.9039
34.2925
33.6778
33.0616
32.4456
31.8315
31.2201
30.6119
30.0073
29.4069
28.8112
28.2209
27.6366
27.0591
26.489
25.9269
25.3736
24.8298
24.2965
23.7747
23.2659
22.7723
22.297
21.844
21.4201
21.0269
20.6427
0.78257
0.374278
0.290653
0.266672
0.26208
0.266837
0.277609
0.29287
0.311927
0.334459
0.360323
0.389459
0.421839
0.457446
0.496259
0.53825
0.583392
0.631662
0.683054
0.737579
0.795281
0.856232
0.92054
0.988346
1.05982
1.13516
1.2146
1.29837
1.38674
1.47997
1.57835
1.68212
1.79154
1.90693
2.02858
2.15679
2.29186
2.43407
2.58374
2.74116
2.90665
3.0805
3.26304
3.45456
3.65537
3.86581
4.08625
4.31708
4.55869
4.81147
5.0758
5.35206
5.64067
5.94201
6.25648
6.58451
6.92652
7.28291
7.65412
8.04056
8.44266
8.86083
9.29546
9.74693
10.2156
10.7019
11.206
11.7282
12.2688
12.828
13.4059
14.0026
14.6181
15.2523
15.9052
16.5766
17.266
17.9733
18.6979
19.4392
20.1967
20.9696
21.7572
22.5584
23.3723
24.198
25.0341
25.8796
26.733
27.5931
28.4584
29.3273
30.1982
31.0694
31.9393
32.8059
33.6676
34.5223
35.3682
36.2035
37.0262
37.8346
38.6268
39.4008
40.155
40.8875
41.5966
42.2806
42.9378
43.5668
44.1659
44.7338
45.2692
45.7709
46.2377
46.6686
47.0626
47.4191
47.7373
48.0166
48.2565
48.4568
48.6172
48.7377
48.8181
48.8567
48.8565
48.8171
48.7389
48.6225
48.4684
48.2774
48.0504
47.7883
47.4922
47.1631
46.8024
46.4113
45.9911
45.5432
45.069
44.5701
44.0479
43.504
42.9398
42.357
41.7571
41.1417
40.5124
39.8708
39.2185
38.557
37.8879
37.2128
36.5333
35.851
35.1676
34.4848
33.8042
33.1268
32.4534
31.7848
31.1215
30.4645
29.8143
29.1717
28.5374
27.9122
27.2967
26.6916
26.0979
25.5163
24.9482
24.395
23.8587
23.3423
22.8493
22.3852
21.9493
21.5175
0.960799
0.434192
0.327246
0.295849
0.288364
0.291753
0.301919
0.316931
0.335891
0.358359
0.384112
0.413039
0.445076
0.480184
0.518332
0.559495
0.603653
0.650801
0.700951
0.754139
0.810429
0.869914
0.932726
0.999024
1.06899
1.1428
1.2207
1.30295
1.38983
1.48163
1.57867
1.6813
1.78967
1.90407
2.02481
2.15222
2.28661
2.42832
2.5777
2.73508
2.90084
3.07535
3.25898
3.45214
3.65524
3.86894
4.09336
4.32909
4.57667
4.83659
5.10934
5.3954
5.69527
6.00946
6.33848
6.68285
7.04311
7.4198
7.81343
8.22456
8.65371
9.10138
9.56809
10.0543
10.5605
11.0871
11.6345
12.2029
12.7928
13.4043
14.0377
14.6929
15.37
16.069
16.7897
17.5318
18.295
19.0789
19.8829
20.7063
21.5484
22.4083
23.285
24.1774
25.0844
26.0047
26.937
27.8796
28.8312
29.79
30.7544
31.7224
32.6923
33.662
34.6295
35.5928
36.5497
37.4981
38.4359
39.3609
40.271
41.1641
42.0381
42.8909
43.7205
44.5248
45.302
46.0502
46.7676
47.4523
48.1029
48.7178
49.2954
49.8346
50.3341
50.7929
51.2098
51.5843
51.9154
52.2027
52.4458
52.6443
52.7981
52.9073
52.9712
52.9903
52.9653
52.8965
52.7849
52.6311
52.4359
52.2001
51.9248
51.6111
51.2603
50.8737
50.4528
49.9991
49.514
48.9993
48.4566
47.8876
47.294
46.6775
46.0399
45.3831
44.7086
44.0185
43.3143
42.5979
41.871
41.1354
40.3927
39.6446
38.8929
38.1391
37.3851
36.6324
35.8825
35.1368
34.3962
33.6616
32.9339
32.2138
31.5022
30.7998
30.1073
29.4256
28.7554
28.0974
27.4524
26.8215
26.2058
25.6068
25.0265
24.4676
23.9328
23.4269
22.9473
22.4691
1.16074
0.498453
0.363919
0.32325
0.311836
0.313099
0.322057
0.336305
0.354701
0.376666
0.401894
0.430216
0.461537
0.495799
0.532965
0.573012
0.615933
0.661736
0.710455
0.762144
0.816876
0.874737
0.935908
1.00059
1.06902
1.14152
1.21813
1.29912
1.38474
1.47527
1.57098
1.6721
1.77896
1.89195
2.01142
2.13776
2.27133
2.41252
2.56174
2.71941
2.88596
3.06187
3.24758
3.44357
3.65034
3.86822
4.09769
4.33966
4.59481
4.8638
5.14719
5.44558
5.75956
6.08975
6.43681
6.80137
7.18409
7.58564
8.00667
8.44784
8.90978
9.39314
9.89851
10.4265
10.9776
11.5523
12.1511
12.7743
13.4224
14.0955
14.7937
15.5173
16.2661
17.0401
17.839
18.6625
19.5101
20.3813
21.2754
22.1915
23.1287
24.0859
25.0619
26.0555
27.0651
28.0894
29.1265
30.1748
31.2324
32.2974
33.3677
34.4413
35.5159
36.5893
37.659
38.7229
39.7784
40.8233
41.8549
42.871
43.8692
44.8471
45.8023
46.7327
47.6359
48.5097
49.3521
50.1609
50.9343
51.6704
52.3675
53.0238
53.6379
54.2084
54.7341
55.2138
55.6465
56.0315
56.3681
56.6556
56.8939
57.0825
57.2215
57.311
57.3508
57.3417
57.2837
57.1772
57.024
56.8248
56.5804
56.2918
55.9605
55.5877
55.1749
54.7236
54.2356
53.7126
53.1563
52.5685
51.9513
51.3064
50.6359
49.9417
49.2258
48.4902
47.7369
46.9677
46.1848
45.39
44.5851
43.7722
42.953
42.1292
41.3028
40.4754
39.6488
38.8245
38.0043
37.1892
36.3807
35.5795
34.7867
34.0032
33.2298
32.4674
31.7166
30.9783
30.2532
29.5421
28.8458
28.1654
27.5019
26.8569
26.2321
25.63
25.0529
24.5045
23.9814
23.4586
1.36226
0.560601
0.397717
0.347344
0.331524
0.33035
0.337707
0.350821
0.368306
0.389445
0.413849
0.441299
0.471665
0.504874
0.540883
0.579674
0.621244
0.665589
0.712795
0.762976
0.816306
0.872864
0.932747
0.996107
1.06311
1.13385
1.20868
1.28789
1.37176
1.46059
1.55469
1.65441
1.76012
1.87217
1.99096
2.1169
2.25043
2.39199
2.54206
2.70114
2.86975
3.04848
3.23787
3.43839
3.65056
3.87459
4.11176
4.36291
4.62875
4.91008
5.20785
5.52272
5.8554
6.20662
6.57717
6.96783
7.3794
7.81267
8.26843
8.74746
9.25052
9.77834
10.3316
10.911
11.5171
12.1505
12.8117
13.501
14.2188
14.9652
15.7405
16.5446
17.3775
18.2388
19.1283
20.0454
20.9896
21.96
22.9557
23.9758
25.019
26.0839
27.1692
28.2733
29.3943
30.5305
31.6798
32.8403
34.0098
35.186
36.3665
37.549
38.7308
39.9095
41.0823
42.2468
43.4001
44.5396
45.6626
46.7665
47.8487
48.9065
49.9375
50.9392
51.9091
52.845
53.7445
54.6055
55.426
56.204
56.9377
57.6253
58.2654
58.8566
59.3976
59.8872
60.3246
60.7089
61.0396
61.3162
61.5384
61.7061
61.8194
61.8784
61.8835
61.8362
61.7341
61.5801
61.3757
61.1216
60.8189
60.4689
60.0732
59.6332
59.1508
58.6276
58.0656
57.4668
56.8331
56.1666
55.4695
54.7439
53.9919
53.2159
52.4179
51.6001
50.7647
49.9139
49.0497
48.1743
47.2897
46.3979
45.5009
44.6005
43.6987
42.7971
41.8977
41.0019
40.1114
39.2277
38.3518
37.485
36.6281
35.7822
34.9481
34.1267
33.3187
32.5249
31.7461
30.983
30.2364
29.5074
28.797
28.1067
27.4381
26.7932
26.174
25.5838
25.018
24.4529
1.55906
0.618486
0.427477
0.367448
0.347021
0.343312
0.348869
0.360628
0.376982
0.397093
0.420495
0.446923
0.47622
0.508285
0.54308
0.580617
0.620964
0.664156
0.710195
0.759124
0.810969
0.865868
0.924046
0.9857
1.05104
1.12034
1.19384
1.27182
1.35459
1.44246
1.53581
1.63499
1.74041
1.8525
1.97171
2.09854
2.23353
2.37722
2.53009
2.69273
2.86571
3.04952
3.24451
3.45174
3.67211
3.90664
4.15618
4.4216
4.7038
5.00375
5.32246
5.66086
6.01981
6.40023
6.80306
7.22923
7.67969
8.15535
8.65713
9.1859
9.74253
10.3278
10.9426
11.5874
12.263
12.9699
13.7085
14.4792
15.2822
16.1176
16.9855
17.8857
18.8178
19.7816
20.7763
21.8013
22.8557
23.9385
25.0483
26.184
27.344
28.5266
29.73
30.9524
32.1916
33.4454
34.7116
35.9877
37.2713
38.5597
39.8503
41.1403
42.427
43.7074
44.9787
46.2379
47.4822
48.7086
49.9143
51.0963
52.252
53.3786
54.4733
55.5337
56.557
57.5411
58.4834
59.3819
60.2344
61.0389
61.7936
62.4969
63.1471
63.7431
64.2834
64.7672
65.1935
65.5617
65.8712
66.1218
66.3132
66.4455
66.519
66.5341
66.4927
66.3921
66.2341
66.0211
65.7543
65.4347
65.0636
64.6426
64.1735
63.6581
63.0982
62.4959
61.8533
61.1726
60.4561
59.7059
58.9245
58.1143
57.2776
56.4168
55.5342
54.6323
53.7134
52.7797
51.8336
50.8773
49.913
48.9426
47.9684
46.9923
46.0161
45.0418
44.0711
43.1057
42.1472
41.1969
40.2562
39.3262
38.4078
37.5021
36.6099
35.7321
34.8695
34.0227
33.1926
32.3799
31.5854
30.81
30.0548
29.321
28.6101
27.9241
27.2644
26.6337
26.0272
25.4228
1.74705
0.67102
0.452743
0.383388
0.358438
0.352171
0.35586
0.366172
0.381308
0.400321
0.42266
0.448049
0.476341
0.507497
0.541377
0.57793
0.617108
0.658943
0.703565
0.751087
0.801664
0.855438
0.912579
0.973292
1.03782
1.10642
1.17939
1.25705
1.33976
1.42792
1.52195
1.62223
1.72924
1.84346
1.96543
2.09565
2.23459
2.38263
2.5407
2.70959
2.89011
3.08314
3.28962
3.51042
3.74653
3.99904
4.269
4.55746
4.86553
5.19441
5.54527
5.91907
6.31698
6.74013
7.18966
7.66665
8.17213
8.70714
9.27265
9.8696
10.4989
11.1613
11.8576
12.5884
13.3543
14.1556
14.9927
15.8658
16.7748
17.7197
18.7001
19.7158
20.7659
21.8499
22.9668
24.1155
25.2948
26.5032
27.7392
29.0011
30.2869
31.5946
32.9221
34.267
35.627
36.9994
38.3817
39.7711
41.1647
42.5598
43.9533
45.3423
46.7237
48.0944
49.4513
50.7914
52.1114
53.4085
54.6795
55.9215
57.1318
58.3073
59.4454
60.5434
61.5988
62.6093
63.5724
64.486
65.348
66.1566
66.9099
67.6065
68.2448
68.8235
69.3418
69.7985
70.193
70.5248
70.7935
70.9989
71.1411
71.2199
71.2367
71.1935
71.0868
70.9184
70.6909
70.4057
70.064
69.6671
69.2168
68.7149
68.1632
67.5639
66.919
66.2308
65.5016
64.7338
63.9298
63.0922
62.2234
61.3261
60.4028
59.4559
58.4882
57.502
56.4999
55.4843
54.4576
53.4221
52.38
51.3336
50.285
49.2361
48.189
47.1455
46.1073
45.0762
44.0537
43.0412
42.0399
41.0511
40.0756
39.1145
38.1686
37.2387
36.3257
35.4301
34.5527
33.6942
32.8554
32.0371
31.2402
30.4661
29.716
28.9914
28.2937
27.6251
26.9807
26.3408
1.92495
0.717833
0.473461
0.395311
0.366092
0.357379
0.359275
0.368199
0.382179
0.400231
0.42178
0.446427
0.473926
0.504129
0.537023
0.572617
0.61096
0.652083
0.696076
0.743069
0.793232
0.846783
0.903912
0.964852
1.02989
1.09933
1.17352
1.25283
1.33764
1.42831
1.52507
1.62865
1.73965
1.85872
1.98652
2.12378
2.2713
2.42995
2.60055
2.78402
2.9814
3.19376
3.42227
3.66804
3.93226
4.21619
4.52109
4.84826
5.19902
5.57475
5.9767
6.4062
6.86463
7.35337
7.87377
8.42692
9.01387
9.6356
10.293
10.987
11.7183
12.4876
13.2954
14.142
15.0278
15.9528
16.9171
17.9203
18.9621
20.042
21.1592
22.3129
23.502
24.7253
25.9815
27.2688
28.5858
29.9304
31.3008
32.6946
34.1097
35.5436
36.9937
38.4575
39.9322
41.415
42.9029
44.3929
45.8821
47.3673
48.8453
50.3132
51.7675
53.2053
54.6232
56.0182
57.3871
58.7268
60.0344
61.3069
62.5414
63.7352
64.8857
65.9901
67.0461
68.0515
69.0039
69.9014
70.7421
71.5241
72.2459
72.9061
73.5033
74.0366
74.5051
74.9079
75.2447
75.515
75.7187
75.8559
75.9269
75.9305
75.8745
75.749
75.5597
75.308
74.9954
74.6235
74.1935
73.7073
73.1667
72.5738
71.9307
71.2396
70.5029
69.7229
68.9022
68.0433
67.1489
66.2216
65.2642
64.2792
63.2695
62.2376
61.1862
60.1179
59.0353
57.941
56.8374
55.7269
54.6118
53.4942
52.3764
51.2604
50.1481
49.0414
47.9419
46.8514
45.7714
44.7031
43.6479
42.6067
41.5806
40.5705
39.5772
38.6013
37.6438
36.7052
35.7861
34.8873
34.0094
33.1531
32.3194
31.5093
30.7241
29.9649
29.2329
28.5302
27.8515
27.1807
2.09796
0.759913
0.490173
0.403772
0.370644
0.359731
0.360088
0.367915
0.381065
0.398392
0.419248
0.443336
0.470449
0.500434
0.533241
0.568878
0.607401
0.648899
0.693496
0.741352
0.792641
0.847526
0.906223
0.969116
1.03658
1.10903
1.18689
1.27066
1.36088
1.45814
1.56314
1.67653
1.79907
1.9316
2.07503
2.23037
2.39868
2.58112
2.77883
2.99302
3.22502
3.4762
3.74798
4.04183
4.35921
4.70165
5.07066
5.46775
5.89439
6.35191
6.84162
7.36523
7.92437
8.52073
9.15624
9.83135
10.5466
11.3027
12.1002
12.9394
13.8207
14.7442
15.7099
16.7176
17.767
18.8575
19.9883
21.1588
22.3677
23.614
24.8962
26.2128
27.5623
28.9427
30.3522
31.7887
33.2501
34.7339
36.2379
37.7594
39.2959
40.8446
42.4029
43.9677
45.5362
47.1055
48.6725
50.2341
51.7873
53.3289
54.8558
56.365
57.8532
59.3175
60.7546
62.1617
63.5356
64.8736
66.1727
67.4302
68.6435
69.8099
70.9271
71.9925
73.0041
73.9596
74.8574
75.6954
76.4721
77.1859
77.8354
78.4196
78.9372
79.3876
79.7703
80.0844
80.3301
80.5069
80.6149
80.6546
80.6274
80.5341
80.3714
80.1433
79.851
79.4958
79.0795
78.6037
78.0698
77.48
76.8364
76.1411
75.3965
74.605
73.769
72.8911
71.974
71.0203
70.0328
69.0142
67.9675
66.8953
65.8004
64.6855
63.5533
62.4065
61.2477
60.0796
58.9045
57.7249
56.543
55.3611
54.1813
53.0055
51.8356
50.6735
49.5208
48.379
47.2496
46.1338
45.0327
43.9474
42.8788
41.8276
40.7945
39.7804
38.7858
37.8113
36.8575
35.9249
35.0142
34.126
33.2612
32.4207
31.6054
30.8166
30.0549
29.3225
28.614
27.9175
2.26805
0.797012
0.502902
0.409163
0.372862
0.360339
0.359855
0.367166
0.380139
0.397591
0.418842
0.443489
0.471253
0.502066
0.535919
0.57286
0.612994
0.656472
0.703499
0.754328
0.80927
0.868715
0.933065
1.00277
1.07836
1.16044
1.24965
1.34674
1.45253
1.56793
1.69393
1.83157
1.98199
2.14641
2.32617
2.5227
2.73752
2.97221
3.22839
3.50774
3.81201
4.14299
4.50247
4.89223
5.31403
5.76959
6.26062
6.7887
7.35526
7.96163
8.60913
9.29909
10.0329
10.812
11.637
12.5075
13.4232
14.384
15.3894
16.4388
17.5316
18.6669
19.8436
21.0606
22.3167
23.6102
24.9397
26.3034
27.6996
29.1263
30.5816
32.0633
33.5694
35.0977
36.6457
38.2112
39.7917
41.3847
42.9877
44.598
46.2132
47.8303
49.4469
51.06
52.6669
54.2649
55.851
57.4225
58.9764
60.51
62.0203
63.5047
64.9603
66.3842
67.7738
69.1264
70.4392
71.7098
72.9356
74.1142
75.2434
76.3209
77.3444
78.312
79.2217
80.0718
80.8609
81.5874
82.2498
82.8469
83.3776
83.8415
84.2373
84.5643
84.8234
85.0124
85.1332
85.1848
85.167
85.086
84.931
84.7115
84.4259
84.0759
83.6629
83.1886
82.6547
82.0629
81.4151
80.7134
79.96
79.1572
78.3076
77.4135
76.4776
75.5025
74.4909
73.4456
72.3693
71.2649
70.1353
68.9833
67.8114
66.6224
65.419
64.204
62.9798
61.7492
60.5144
59.2778
58.0417
56.8082
55.5792
54.3566
53.1424
51.938
50.7452
49.5652
48.3994
47.2489
46.1147
44.9977
43.8987
42.8182
41.7571
40.7158
39.6949
38.695
37.7165
36.7598
35.8255
34.9141
34.0264
33.1632
32.3254
31.514
30.7294
29.9738
29.2416
28.5262
2.43435
0.828785
0.512062
0.412416
0.374148
0.36112
0.360697
0.368559
0.382424
0.401077
0.423854
0.450405
0.480564
0.514283
0.551624
0.592739
0.637862
0.687302
0.741448
0.800766
0.865811
0.937224
1.01571
1.10208
1.19722
1.30216
1.418
1.54599
1.68748
1.84398