/*--------------------------------*- C++ -*----------------------------------*\
| =========                 |                                                 |
| \\      /  F ield         | OpenFOAM: The Open Source CFD Toolbox           |
|  \\    /   O peration     | Version:  2312                                  |
|   \\  /    A nd           | Website:  www.openfoam.com                      |
|    \\/     M anipulation  |                                                 |
\*---------------------------------------------------------------------------*/
FoamFile
{
    version     2.0;
    format      ascii;
    arch        "LSB;label=32;scalar=64";
    class       volScalarField;
    location    "250";
    object      k;
}
// * * * * * * * * * * * * * * * * * * * * * * * * * * * * * * * * * * * * * //

dimensions      [0 2 -2 0 0 0 0];

internalField   nonuniform List<scalar> 
12225
(
0.517801
0.711671
0.793718
0.798526
0.78781
0.760209
0.730342
0.702709
0.678605
0.658135
0.640963
0.626694
0.614692
0.604869
0.59624
0.590014
0.583398
0.580087
0.43595
0.440173
0.428456
0.403625
0.382556
0.365888
0.353098
0.344015
0.338609
0.335334
0.334323
0.33463
0.335615
0.336846
0.339392
0.340739
0.343569
0.344916
0.392668
0.393603
0.38542
0.366718
0.344563
0.324285
0.306854
0.291735
0.279826
0.269989
0.262758
0.256935
0.253091
0.249963
0.248271
0.246985
0.246469
0.246406
0.37938
0.377787
0.372776
0.36258
0.349735
0.336123
0.32295
0.310361
0.299126
0.288696
0.279893
0.271738
0.265205
0.259004
0.254364
0.249761
0.246529
0.243093
0.374833
0.372715
0.368504
0.361905
0.353767
0.344752
0.335574
0.326355
0.317649
0.309203
0.301581
0.294213
0.287844
0.281563
0.276371
0.271004
0.266919
0.262342
0.37332
0.370313
0.366498
0.361536
0.355681
0.349193
0.342468
0.335581
0.328875
0.322236
0.316018
0.309928
0.304401
0.298945
0.294183
0.289311
0.285343
0.280949
0.372807
0.369124
0.36538
0.36116
0.35648
0.351419
0.346177
0.340795
0.335473
0.330168
0.325082
0.320077
0.315399
0.310794
0.306613
0.302397
0.298782
0.294876
0.372668
0.368557
0.364706
0.3608
0.356731
0.352487
0.34815
0.343734
0.339348
0.334979
0.330737
0.326563
0.322586
0.318685
0.315053
0.311432
0.308207
0.304805
0.372648
0.368314
0.364325
0.360503
0.356724
0.352934
0.349141
0.345341
0.341581
0.337857
0.334224
0.33066
0.327231
0.323876
0.320704
0.31757
0.314703
0.311741
0.372653
0.368223
0.364131
0.360295
0.356625
0.35306
0.349576
0.346152
0.342798
0.339507
0.336304
0.333175
0.330155
0.327212
0.324405
0.321651
0.319086
0.316483
0.372658
0.368194
0.364043
0.360168
0.356518
0.353045
0.349715
0.346501
0.343393
0.340379
0.337463
0.334634
0.331907
0.329263
0.32673
0.324263
0.321938
0.319617
0.372659
0.368186
0.364009
0.360106
0.356446
0.352994
0.349721
0.346599
0.343613
0.340745
0.337991
0.335339
0.332792
0.330335
0.327982
0.325704
0.323545
0.321416
0.372659
0.368182
0.363993
0.360072
0.356397
0.352944
0.349688
0.346606
0.343681
0.340894
0.338236
0.335694
0.333265
0.330934
0.328707
0.326563
0.324526
0.322538
0.372658
0.368179
0.363983
0.360052
0.356365
0.352901
0.349644
0.346573
0.343671
0.340923
0.338316
0.335838
0.333481
0.331233
0.329092
0.327043
0.325094
0.323215
0.372657
0.368176
0.363976
0.360039
0.356343
0.352871
0.349606
0.34653
0.34363
0.340892
0.338302
0.335849
0.333524
0.331316
0.329219
0.327223
0.325325
0.323512
0.372656
0.368173
0.363971
0.360029
0.356328
0.352849
0.349577
0.346495
0.343589
0.340847
0.338257
0.335807
0.333489
0.331292
0.329208
0.327231
0.325352
0.323567
0.372656
0.368171
0.363966
0.360021
0.356316
0.352833
0.349556
0.346468
0.343557
0.34081
0.338215
0.335761
0.333439
0.33124
0.329156
0.32718
0.325305
0.323524
0.372656
0.36817
0.363964
0.360017
0.356309
0.352823
0.349542
0.346451
0.343536
0.340784
0.338184
0.335726
0.3334
0.331198
0.32911
0.327131
0.325253
0.32347
0.372656
0.36817
0.363963
0.360016
0.356307
0.352819
0.349537
0.346444
0.343526
0.340772
0.33817
0.33571
0.333381
0.331176
0.329086
0.327104
0.325223
0.323438
0.372656
0.368171
0.363965
0.360018
0.356311
0.352825
0.349543
0.346451
0.343535
0.340781
0.338179
0.335718
0.333387
0.331179
0.329085
0.327098
0.325211
0.323418
0.372656
0.368172
0.363968
0.360024
0.35632
0.352838
0.34956
0.34647
0.343555
0.3408
0.338192
0.335721
0.333378
0.331152
0.329036
0.327024
0.325106
0.323282
0.372657
0.368174
0.363974
0.360038
0.356344
0.35287
0.349597
0.346503
0.343572
0.340789
0.338141
0.335616
0.333207
0.330906
0.328704
0.3266
0.324581
0.322657
0.372655
0.368177
0.363999
0.360092
0.356423
0.352955
0.349656
0.346502
0.343475
0.340564
0.337759
0.335056
0.332448
0.329938
0.327515
0.325189
0.322939
0.320796
0.372643
0.368215
0.364128
0.3603
0.356643
0.353099
0.349632
0.346231
0.342891
0.339621
0.336423
0.333309
0.330279
0.327347
0.324502
0.32177
0.319114
0.316596
0.372635
0.368469
0.364634
0.360891
0.357079
0.353161
0.349151
0.345099
0.341037
0.337016
0.333053
0.32919
0.325423
0.321791
0.31827
0.314912
0.311645
0.308584
0.37284
0.369539
0.366148
0.362224
0.357689
0.352687
0.347385
0.341958
0.336495
0.33112
0.325845
0.320768
0.315851
0.311186
0.306689
0.302477
0.298394
0.294647
0.37432
0.373097
0.370167
0.365153
0.358373
0.350669
0.34258
0.334481
0.326513
0.318893
0.311575
0.304749
0.298253
0.292292
0.286629
0.28151
0.276608
0.272263
0.381266
0.38572
0.382104
0.372933
0.359469
0.345684
0.332425
0.320092
0.308693
0.298461
0.289092
0.280906
0.273467
0.267063
0.26126
0.256291
0.251838
0.247972
0.407694
0.411613
0.403616
0.3866
0.368794
0.352501
0.33883
0.327434
0.317644
0.309893
0.303536
0.298697
0.294796
0.291965
0.289779
0.288266
0.287294
0.286604
0.44027
0.54501
0.604978
0.634793
0.641502
0.638676
0.631166
0.61894
0.60592
0.593117
0.581043
0.569932
0.559832
0.550716
0.542516
0.535143
0.528498
0.522512
0.000786759
0.00119724
0.00168315
0.00218508
0.00265592
0.00308027
0.00345667
0.00378897
0.00408275
0.00434524
0.00458959
0.00482544
0.00505635
0.00528805
0.00552531
0.00577122
0.00602671
0.00629154
0.00656485
0.00684812
0.00715044
0.00750375
0.00796671
0.00853427
0.00917343
0.00987421
0.0106387
0.0114744
0.01239
0.013395
0.0144978
0.0157056
0.0170231
0.0184538
0.0199982
0.0216561
0.0234252
0.0253036
0.0272856
0.0293567
0.0315102
0.0337389
0.0360356
0.0383944
0.0408088
0.0432744
0.0457862
0.0483411
0.0509355
0.0535674
0.0562343
0.0589353
0.0616686
0.064434
0.0672303
0.0700579
0.0729156
0.0758041
0.0787223
0.0816712
0.0846494
0.0876578
0.090695
0.0937616
0.0968561
0.0999789
0.103128
0.106304
0.109504
0.112729
0.115975
0.119244
0.122532
0.12584
0.129166
0.13251
0.135872
0.139256
0.142666
0.146112
0.149611
0.153191
0.156897
0.16053
0.164185
0.167805
0.171414
0.174994
0.178545
0.182061
0.185535
0.188961
0.192331
0.195638
0.198874
0.202031
0.205107
0.208107
0.211058
0.213921
0.216709
0.219414
0.222035
0.224567
0.227007
0.229352
0.231597
0.23374
0.235778
0.237708
0.239526
0.241231
0.242819
0.244289
0.245639
0.246866
0.247969
0.248947
0.249799
0.250524
0.251122
0.251591
0.25193
0.252138
0.252212
0.252163
0.252042
0.251742
0.25133
0.250757
0.250069
0.249289
0.248379
0.247357
0.24622
0.244973
0.243617
0.242157
0.2406
0.238943
0.237191
0.235347
0.233413
0.231395
0.229296
0.22712
0.224871
0.222553
0.220171
0.217729
0.215232
0.212684
0.210091
0.207459
0.204797
0.202116
0.199475
0.197371
0.196185
0.195127
0.194059
0.192964
0.191844
0.190699
0.189528
0.18835
0.187171
0.185982
0.184784
0.183576
0.18236
0.181132
0.179887
0.178619
0.177318
0.175958
0.174495
0.172782
0.170771
0.163108
0.0016773
0.00241567
0.00344928
0.00437362
0.00518525
0.00591394
0.00658385
0.00721489
0.00782358
0.00842383
0.00902699
0.009647
0.0102984
0.0109909
0.0117302
0.012519
0.0133577
0.0142458
0.0151828
0.0161698
0.0172105
0.0183114
0.0194797
0.0207182
0.0220274
0.0234095
0.0248692
0.0264134
0.02805
0.029787
0.0316319
0.0335911
0.0356696
0.0378712
0.0401985
0.0426539
0.0452395
0.0479547
0.0507992
0.0537637
0.0568449
0.0600407
0.0633494
0.0667691
0.0702979
0.0739345
0.0776772
0.0815251
0.0854766
0.0895312
0.0936876
0.0979455
0.102304
0.106763
0.111322
0.11598
0.120738
0.125595
0.130551
0.135607
0.140761
0.146013
0.151363
0.15681
0.162354
0.167993
0.173727
0.179553
0.185471
0.191478
0.197572
0.203752
0.210013
0.216353
0.22277
0.229259
0.235818
0.242443
0.249131
0.255877
0.262678
0.269526
0.276411
0.283317
0.290247
0.297192
0.304147
0.311105
0.318058
0.324999
0.331918
0.338805
0.345649
0.352439
0.359159
0.365796
0.372331
0.378739
0.384996
0.391155
0.397211
0.40316
0.408993
0.414704
0.420284
0.425727
0.431023
0.436167
0.44115
0.445967
0.450611
0.455074
0.459352
0.463437
0.467326
0.471012
0.474492
0.477759
0.480812
0.483646
0.486259
0.488647
0.490807
0.492738
0.49444
0.495915
0.497168
0.498188
0.498986
0.499485
0.499732
0.499814
0.499657
0.499276
0.49867
0.497842
0.496797
0.495537
0.494067
0.492391
0.490514
0.48844
0.486175
0.483725
0.481093
0.478288
0.475316
0.472182
0.468895
0.46546
0.461887
0.458182
0.454353
0.45041
0.44636
0.442217
0.438007
0.433842
0.429775
0.42567
0.421502
0.417275
0.412993
0.408666
0.404297
0.399895
0.395467
0.391018
0.38655
0.382067
0.377571
0.373062
0.368534
0.363987
0.359415
0.354814
0.350126
0.345406
0.340592
0.328997
0.00283163
0.00393883
0.00540104
0.00662801
0.00768501
0.00863941
0.00953401
0.0103982
0.0112544
0.012121
0.013014
0.0139472
0.014932
0.0159772
0.0170885
0.0182695
0.019522
0.0208468
0.0222447
0.023717
0.025266
0.0268949
0.0286066
0.0304031
0.0322863
0.0342588
0.0363249
0.03849
0.0407609
0.0431449
0.0456494
0.048282
0.0510499
0.0539596
0.057017
0.0602274
0.0635936
0.0671147
0.070791
0.0746222
0.0786078
0.0827468
0.0870369
0.0914761
0.096062
0.100792
0.105664
0.110675
0.115822
0.121102
0.126515
0.132056
0.137725
0.14352
0.149439
0.155481
0.161645
0.16793
0.174334
0.180858
0.187499
0.194257
0.20113
0.208119
0.21522
0.222433
0.229756
0.237187
0.244724
0.252363
0.260103
0.26794
0.275871
0.283892
0.291999
0.300189
0.308456
0.316797
0.325205
0.333675
0.342199
0.350771
0.35938
0.368017
0.376678
0.385354
0.394037
0.402718
0.411389
0.42004
0.42866
0.43724
0.445766
0.454229
0.462617
0.470919
0.479123
0.487221
0.495208
0.503078
0.510823
0.518431
0.525893
0.533198
0.540335
0.547296
0.554069
0.560646
0.567018
0.573174
0.579108
0.584809
0.590272
0.595487
0.600448
0.605148
0.609581
0.613742
0.617625
0.621227
0.624542
0.627568
0.6303
0.632738
0.634881
0.636728
0.638281
0.639536
0.640489
0.641098
0.64138
0.641424
0.641165
0.640617
0.639781
0.63866
0.637258
0.635582
0.633636
0.631426
0.628958
0.626239
0.623275
0.620074
0.616644
0.612991
0.609125
0.605054
0.600788
0.596336
0.591707
0.586912
0.58196
0.576863
0.571633
0.566284
0.560845
0.55538
0.54991
0.544386
0.538789
0.533121
0.527391
0.521606
0.515775
0.509906
0.504008
0.498087
0.492148
0.486197
0.480239
0.474276
0.468311
0.462348
0.456388
0.450443
0.444499
0.438647
0.432825
0.422769
0.00389302
0.00552643
0.00739757
0.00889686
0.0101703
0.0113201
0.0124049
0.0134626
0.0145206
0.0156008
0.0167209
0.0178956
0.0191366
0.0204523
0.0218484
0.0233281
0.0248931
0.0265439
0.0282807
0.0301042
0.0320153
0.0340156
0.0361072
0.0382924
0.0405746
0.0429583
0.0454493
0.0480551
0.0507839
0.0536447
0.0566466
0.0597983
0.0631078
0.0665818
0.0702256
0.0740421
0.0780326
0.0822003
0.0865461
0.0910697
0.0957693
0.100642
0.105685
0.110895
0.116269
0.121803
0.127496
0.133343
0.139341
0.145489
0.151783
0.158223
0.164804
0.171527
0.17839
0.185391
0.19253
0.199806
0.207217
0.214764
0.222444
0.230258
0.238205
0.246282
0.25449
0.262825
0.271288
0.279875
0.288585
0.297414
0.306361
0.315421
0.324591
0.333867
0.343245
0.35272
0.362287
0.37194
0.381673
0.391478
0.401347
0.411273
0.421245
0.431255
0.441294
0.451353
0.461423
0.471493
0.481555
0.491596
0.501606
0.511572
0.521484
0.53133
0.541097
0.550776
0.560353
0.569818
0.579159
0.588366
0.597424
0.606323
0.615048
0.623588
0.63193
0.640063
0.647973
0.655651
0.663084
0.670263
0.677176
0.683814
0.690167
0.696227
0.701984
0.707432
0.712563
0.71737
0.721848
0.725991
0.729794
0.733253
0.736365
0.739128
0.741539
0.7436
0.74531
0.746666
0.747663
0.748263
0.748498
0.748426
0.748004
0.747238
0.746133
0.744693
0.742924
0.740833
0.738426
0.735711
0.732694
0.729384
0.72579
0.721919
0.717783
0.713389
0.708748
0.703871
0.698769
0.693453
0.687934
0.682224
0.676335
0.670281
0.664077
0.657739
0.651293
0.644782
0.638221
0.631591
0.624883
0.618101
0.611253
0.604349
0.597397
0.590408
0.583391
0.576353
0.569303
0.562247
0.555193
0.548148
0.54112
0.534117
0.527153
0.520252
0.513437
0.50681
0.500263
0.49109
0.00474243
0.00712596
0.00940898
0.011177
0.0126648
0.0140042
0.0152677
0.0165009
0.0177362
0.0189986
0.0203078
0.0216797
0.0231262
0.0246559
0.0262744
0.0279846
0.0297879
0.0316845
0.0336741
0.035757
0.0379339
0.0402066
0.0425781
0.0450522
0.0476344
0.0503314
0.053151
0.0561023
0.0591946
0.0624376
0.0658404
0.0694113
0.0731575
0.0770846
0.0811968
0.0854972
0.0899876
0.0946689
0.0995404
0.1046
0.109845
0.115274
0.120885
0.126674
0.132639
0.138777
0.145086
0.151563
0.158205
0.16501
0.171978
0.179105
0.18639
0.193833
0.201433
0.209188
0.217099
0.225164
0.233383
0.241756
0.250282
0.25896
0.26779
0.276771
0.285902
0.295182
0.304608
0.31418
0.323895
0.33375
0.343742
0.353868
0.364124
0.374507
0.38501
0.395629
0.406357
0.417188
0.428115
0.43913
0.450224
0.461386
0.472608
0.48388
0.49519
0.50653
0.517888
0.529252
0.540611
0.551952
0.563264
0.574533
0.585745
0.596888
0.607949
0.618912
0.629765
0.640494
0.651082
0.661516
0.671781
0.681863
0.691747
0.701418
0.710861
0.720064
0.729012
0.737691
0.746089
0.754194
0.761993
0.769475
0.776628
0.783444
0.789911
0.796022
0.801768
0.80714
0.812134
0.816742
0.820959
0.824781
0.828204
0.831225
0.833843
0.836059
0.837871
0.839275
0.84027
0.840813
0.840969
0.840745
0.840125
0.839114
0.837717
0.83594
0.833791
0.831277
0.828405
0.825186
0.821627
0.817738
0.81353
0.809013
0.804197
0.799095
0.793718
0.788079
0.782189
0.776063
0.769712
0.763152
0.756396
0.74946
0.74236
0.735115
0.727748
0.720289
0.712755
0.70514
0.697445
0.689673
0.681835
0.673941
0.666001
0.658027
0.650028
0.642013
0.633993
0.625977
0.617975
0.609996
0.602054
0.594164
0.586349
0.578646
0.571099
0.56381
0.556648
0.547753
0.00536766
0.00866384
0.0113716
0.0134105
0.0151127
0.0166382
0.0180719
0.0194668
0.0208596
0.0222781
0.0237442
0.0252746
0.0268823
0.0285765
0.0303629
0.0322449
0.0342242
0.0363011
0.0384759
0.0407495
0.0431234
0.0456005
0.0481853
0.0508832
0.0537015
0.0566481
0.0597322
0.062963
0.0663502
0.0699027
0.0736289
0.0775359
0.0816296
0.0859147
0.0903945
0.095071
0.0999456
0.105018
0.110288
0.115754
0.121415
0.127269
0.133315
0.139549
0.145971
0.152578
0.159368
0.166341
0.173493
0.180825
0.188334
0.19602
0.203882
0.21192
0.220133
0.228521
0.237084
0.245823
0.254736
0.263824
0.273087
0.282525
0.292137
0.301923
0.311882
0.322013
0.332314
0.342785
0.353422
0.364224
0.375187
0.386308
0.397582
0.409005
0.420571
0.432275
0.44411
0.456068
0.468141
0.48032
0.492596
0.504957
0.517393
0.529892
0.542443
0.555034
0.567653
0.580285
0.592918
0.605538
0.61813
0.630679
0.64317
0.655587
0.667915
0.680137
0.692237
0.704196
0.715999
0.727628
0.739067
0.750298
0.761306
0.772074
0.782585
0.792823
0.802772
0.812417
0.821743
0.830737
0.839384
0.847672
0.855588
0.86312
0.870258
0.876992
0.883313
0.889211
0.89468
0.899713
0.904304
0.908449
0.912143
0.915384
0.91817
0.920501
0.922378
0.923797
0.924753
0.925213
0.925253
0.924848
0.924002
0.922719
0.921006
0.91887
0.916321
0.913365
0.910015
0.906279
0.902169
0.897695
0.89287
0.887706
0.882215
0.876411
0.870307
0.863918
0.857258
0.850341
0.843184
0.835802
0.82821
0.820427
0.812469
0.804356
0.796111
0.787758
0.779312
0.770779
0.762162
0.75347
0.744712
0.735901
0.727048
0.718166
0.709264
0.700354
0.691448
0.682556
0.673691
0.664867
0.656099
0.647411
0.638831
0.630408
0.622196
0.614292
0.606552
0.597559
0.00579839
0.0101069
0.0132296
0.0155337
0.0174452
0.0191496
0.0207431
0.0222849
0.0238159
0.0253665
0.0269604
0.0286159
0.0303471
0.032164
0.0340736
0.0360801
0.038186
0.0403931
0.0427027
0.0451168
0.0476384
0.0502715
0.0530218
0.0558959
0.0589018
0.062048
0.0653435
0.0687974
0.0724185
0.0762149
0.0801936
0.0843609
0.0887216
0.0932796
0.0980378
0.102998
0.108161
0.113528
0.119099
0.124872
0.130849
0.137027
0.143405
0.149984
0.156762
0.163738
0.170911
0.178281
0.185847
0.193609
0.201566
0.209718
0.218067
0.226611
0.235352
0.244289
0.253424
0.262756
0.272287
0.282018
0.291947
0.302076
0.312406
0.322935
0.333663
0.344591
0.355716
0.367036
0.378551
0.390257
0.402152
0.41423
0.426489
0.438923
0.451525
0.46429
0.477209
0.490275
0.503478
0.516807
0.530253
0.543803
0.557445
0.571166
0.584953
0.598792
0.612668
0.626567
0.640473
0.654369
0.668239
0.682067
0.695833
0.709521
0.72311
0.736584
0.749921
0.763103
0.77611
0.788923
0.801523
0.813892
0.826011
0.83786
0.849421
0.860676
0.871608
0.882199
0.892433
0.902293
0.911765
0.920834
0.929486
0.937709
0.94549
0.952819
0.959684
0.966078
0.971992
0.977418
0.982351
0.986786
0.990718
0.994145
0.997066
0.999481
1.00139
1.00279
1.00367
1.00403
1.00392
1.0033
1.0022
1.00062
0.998569
0.996051
0.993079
0.989664
0.985816
0.981549
0.976873
0.971803
0.966353
0.960535
0.954366
0.947859
0.941031
0.933898
0.926475
0.918781
0.910831
0.902645
0.894238
0.885631
0.876841
0.86789
0.858798
0.849588
0.840275
0.830871
0.821382
0.81182
0.802197
0.792523
0.782814
0.77308
0.763335
0.753591
0.74386
0.734155
0.724491
0.714885
0.705356
0.695931
0.686647
0.677556
0.66872
0.660223
0.651916
0.642715
0.00607647
0.0114185
0.0149323
0.0174884
0.0195978
0.0214688
0.023208
0.0248802
0.0265301
0.0281907
0.0298873
0.03164
0.0334641
0.035371
0.0373691
0.0394641
0.04166
0.04396
0.0463671
0.0488845
0.0515164
0.0542679
0.0571453
0.0601557
0.0633071
0.0666079
0.0700664
0.073691
0.0774895
0.081469
0.0856358
0.0899952
0.0945518
0.099309
0.10427
0.109436
0.114809
0.120391
0.126182
0.132183
0.138395
0.144817
0.15145
0.158294
0.16535
0.172617
0.180096
0.187788
0.195694
0.203813
0.212147
0.220697
0.229463
0.238448
0.247652
0.257076
0.266723
0.276592
0.286686
0.297006
0.307553
0.318327
0.32933
0.340561
0.352021
0.363709
0.375625
0.387766
0.400131
0.412718
0.425522
0.438541
0.451768
0.465198
0.478825
0.492641
0.506638
0.520805
0.535134
0.549612
0.564227
0.578966
0.593815
0.60876
0.623785
0.638874
0.654011
0.669178
0.684358
0.699532
0.714681
0.729785
0.744825
0.759778
0.774625
0.789342
0.80391
0.818305
0.832506
0.846491
0.86024
0.873731
0.886944
0.899856
0.912448
0.9247
0.936592
0.948104
0.95922
0.969921
0.98019
0.990011
0.99937
1.00825
1.01664
1.02453
1.03191
1.03877
1.04509
1.05087
1.05611
1.0608
1.06494
1.06852
1.07154
1.074
1.0759
1.07726
1.07804
1.07826
1.07796
1.07711
1.07573
1.07382
1.0714
1.06848
1.06507
1.06117
1.05681
1.052
1.04674
1.04107
1.03498
1.02851
1.02166
1.01445
1.0069
0.99903
0.990856
0.982396
0.97367
0.964698
0.955498
0.94609
0.936496
0.926734
0.916828
0.906797
0.89666
0.886429
0.876116
0.865733
0.855293
0.84481
0.834296
0.823766
0.813233
0.80271
0.792211
0.781751
0.771345
0.761013
0.750779
0.740672
0.730733
0.721017
0.711586
0.702512
0.693646
0.684115
0.0063905
0.0125984
0.0164575
0.0192392
0.0215246
0.0235422
0.0254078
0.0271915
0.0289408
0.0306909
0.032469
0.0342963
0.0361896
0.0381618
0.0402228
0.0423798
0.0446387
0.0470041
0.0494803
0.052072
0.0547841
0.0576225
0.0605935
0.0637044
0.0669627
0.0703762
0.0739527
0.0776994
0.0816236
0.0857314
0.0900288
0.0945207
0.0992116
0.104105
0.109204
0.114512
0.12003
0.125762
0.131709
0.137872
0.144253
0.150855
0.157678
0.164725
0.171996
0.179493
0.187219
0.195173
0.20336
0.211779
0.220435
0.229327
0.23846
0.247834
0.257453
0.267318
0.277432
0.287797
0.298415
0.309287
0.320416
0.331804
0.34345
0.355357
0.367524
0.379952
0.392639
0.405584
0.418786
0.432241
0.445946
0.459895
0.474085
0.488507
0.503156
0.518021
0.533095
0.548365
0.56382
0.579448
0.595234
0.611164
0.627222
0.643391
0.659654
0.675992
0.692387
0.70882
0.725269
0.741714
0.758133
0.774504
0.790803
0.807008
0.823095
0.839039
0.854816
0.870402
0.885773
0.900905
0.915775
0.930358
0.944633
0.958575
0.972163
0.985375
0.998188
1.01058
1.02254
1.03404
1.04506
1.05559
1.06561
1.07511
1.08407
1.09248
1.10032
1.10759
1.11428
1.12038
1.12588
1.13078
1.13507
1.13876
1.14184
1.14431
1.14617
1.14744
1.14809
1.14815
1.14762
1.1465
1.14481
1.14256
1.13975
1.1364
1.13252
1.12813
1.12324
1.11787
1.11203
1.10574
1.09902
1.09189
1.08436
1.07646
1.0682
1.05961
1.0507
1.04149
1.03201
1.02228
1.01231
1.00214
0.991769
0.981234
0.970551
0.959743
0.948827
0.93782
0.926733
0.915583
0.904381
0.893143
0.881882
0.870613
0.85935
0.848107
0.836899
0.825742
0.814653
0.803654
0.792769
0.782033
0.771487
0.761187
0.751191
0.741562
0.732148
0.722221
0.00732233
0.0137245
0.0178211
0.0207754
0.0231992
0.0253344
0.0273022
0.0291759
0.031005
0.0328261
0.0346673
0.0365511
0.0384954
0.0405144
0.0426192
0.0448189
0.0471204
0.04953
0.0520531
0.0546952
0.0574619
0.0603594
0.0633939
0.0665725
0.0699021
0.07339
0.0770432
0.0808685
0.0848722
0.0890605
0.0934387
0.0980121
0.102785
0.107762
0.112947
0.118343
0.123953
0.129782
0.135831
0.142104
0.148604
0.155335
0.162298
0.169497
0.176934
0.184614
0.192538
0.20071
0.209133
0.21781
0.226745
0.235941
0.245402
0.25513
0.265129
0.275403
0.285955
0.296787
0.307904
0.319306
0.330997
0.34298
0.355255
0.367824
0.380687
0.393845
0.407298
0.421042
0.435077
0.449398
0.464003
0.478885
0.494038
0.509455
0.525127
0.541044
0.557196
0.573571
0.590154
0.606931
0.623887
0.641004
0.658266
0.675652
0.693144
0.71072
0.72836
0.746041
0.763739
0.781433
0.799097
0.816706
0.834234
0.851657
0.868946
0.886077
0.903022
0.919754
0.936248
0.952477
0.968415
0.984037
0.999318
1.01423
1.02876
1.04287
1.05654
1.06976
1.08249
1.09473
1.10644
1.11761
1.12823
1.13828
1.14774
1.1566
1.16485
1.17247
1.17947
1.18582
1.19153
1.19658
1.20098
1.20472
1.20781
1.21024
1.21202
1.21315
1.21364
1.21349
1.2127
1.21129
1.20926
1.20663
1.20341
1.19961
1.19526
1.19036
1.18493
1.179
1.17257
1.16568
1.15833
1.15055
1.14235
1.13377
1.12482
1.11553
1.1059
1.09598
1.08578
1.07532
1.06463
1.05372
1.04263
1.03136
1.01995
1.00842
0.996781
0.985055
0.973255
0.961398
0.949497
0.937568
0.925625
0.913682
0.901755
0.889857
0.878006
0.866216
0.854508
0.842903
0.831429
0.82012
0.809018
0.798178
0.787654
0.777498
0.767562
0.757224
0.00830937
0.0146935
0.0189702
0.0220605
0.0245924
0.0268187
0.0288654
0.0308084
0.0326986
0.0345734
0.0364619
0.0383872
0.040368
0.0424194
0.0445538
0.046781
0.0491094
0.0515461
0.0540975
0.0567696
0.0595684
0.0625002
0.0655712
0.0687878
0.0721568
0.0756849
0.0793789
0.083245
0.0872894
0.091518
0.0959364
0.10055
0.105363
0.110382
0.11561
0.121052
0.126712
0.132595
0.138706
0.145049
0.151628
0.158448
0.165513
0.172828
0.180397
0.188225
0.196316
0.204674
0.213304
0.222211
0.2314
0.240875
0.250642
0.260704
0.271067
0.281735
0.292711
0.304001
0.315607
0.327533
0.339783
0.352359
0.365263
0.378496
0.39206
0.405954
0.420178
0.434729
0.449605
0.464802
0.480314
0.496137
0.512261
0.528679
0.54538
0.562353
0.579585
0.597063
0.61477
0.632691
0.650806
0.669099
0.687547
0.70613
0.724826
0.743611
0.762462
0.781353
0.80026
0.819155
0.838013
0.856806
0.875505
0.894082
0.912509
0.930756
0.948795
0.966598
0.984135
1.00138
1.0183
1.03488
1.05107
1.06687
1.08224
1.09716
1.1116
1.12554
1.13896
1.15184
1.16415
1.17588
1.187
1.19751
1.20739
1.21662
1.22519
1.23308
1.2403
1.24684
1.25267
1.25781
1.26225
1.26599
1.26902
1.27136
1.273
1.27395
1.27422
1.27383
1.27275
1.271
1.2686
1.26557
1.26192
1.25767
1.25282
1.24741
1.24145
1.23495
1.22794
1.22045
1.21248
1.20407
1.19524
1.186
1.17639
1.16643
1.15614
1.14554
1.13466
1.12352
1.11215
1.10057
1.0888
1.07687
1.0648
1.0526
1.04031
1.02793
1.01549
1.003
0.990474
0.977928
0.965377
0.952836
0.94032
0.927843
0.915422
0.903074
0.890818
0.878677
0.86668
0.85486
0.843261
0.831933
0.820925
0.810283
0.799861
0.78913
0.00924938
0.0154765
0.0198827
0.0230766
0.0256895
0.0279829
0.030087
0.0320799
0.0340137
0.0359267
0.0378482
0.0398019
0.041807
0.0438791
0.0460311
0.0482737
0.0506158
0.0530653
0.0556289
0.0583133
0.0611246
0.0640692
0.0671534
0.0703834
0.0737658
0.0773066
0.0810122
0.0848887
0.0889423
0.0931792
0.097605
0.102226
0.107047
0.112074
0.117314
0.122771
0.128451
0.13436
0.140504
0.14689
0.153522
0.160408
0.167553
0.174963
0.182645
0.190604
0.198846
0.207377
0.216204
0.225333
0.234769
0.244521
0.254592
0.26499
0.27572
0.286788
0.298198
0.309956
0.322065
0.334531
0.347356
0.360545
0.374098
0.388017
0.402303
0.416956
0.431973
0.447353
0.463091
0.479183
0.495622
0.5124
0.529508
0.546936
0.564672
0.582702
0.601012
0.619585
0.638403
0.657449
0.6767
0.696137
0.715735
0.735473
0.755323
0.775262
0.795263
0.815297
0.835337
0.855355
0.875322
0.895207
0.91498
0.934611
0.95407
0.973324
0.992345
1.0111
1.02956
1.0477
1.06548
1.08288
1.09987
1.11642
1.13251
1.1481
1.16318
1.17772
1.1917
1.20509
1.21787
1.23003
1.24154
1.25239
1.26257
1.27206
1.28084
1.28891
1.29626
1.30287
1.30875
1.31389
1.31829
1.32194
1.32485
1.32702
1.32847
1.32919
1.3292
1.32852
1.3271
1.32498
1.32219
1.31874
1.31465
1.30992
1.30458
1.29866
1.29216
1.28511
1.27754
1.26947
1.26091
1.2519
1.24246
1.23262
1.22239
1.21181
1.20089
1.18967
1.17818
1.16642
1.15444
1.14225
1.12989
1.11736
1.1047
1.09192
1.07906
1.06611
1.05312
1.04008
1.02701
1.01394
1.00087
0.987815
0.974796
0.961827
0.948921
0.936098
0.923376
0.910779
0.898334
0.886076
0.874046
0.86229
0.850854
0.839777
0.828921
0.817838
0.0101245
0.0160742
0.0205599
0.0238255
0.0264929
0.0288303
0.0309713
0.0329956
0.0349565
0.0368928
0.0388343
0.0408046
0.042823
0.0449053
0.0470646
0.0493119
0.0516564
0.0541065
0.0566695
0.0593521
0.0621606
0.0651013
0.0681802
0.0714036
0.0747776
0.0783085
0.0820025
0.0858661
0.0899056
0.0941276
0.0985387
0.103145
0.107954
0.112972
0.118205
0.12366
0.129345
0.135267
0.141434
0.147853
0.154532
0.161479
0.168702
0.176207
0.184003
0.192098
0.200499
0.209214
0.218252
0.22762
0.237326
0.247377
0.257782
0.268546
0.279677
0.29118
0.303063
0.315329
0.327985
0.341034
0.354481
0.368327
0.382576
0.397227
0.41228
0.427735
0.443587
0.459834
0.47647
0.493487
0.510877
0.528632
0.546738
0.565184
0.583956
0.603036
0.622408
0.642053
0.661952
0.682081
0.702419
0.722942
0.743623
0.764438
0.785359
0.806357
0.827404
0.848471
0.869527
0.890542
0.911484
0.932322
0.953025
0.973559
0.993893
1.01399
1.03383
1.05337
1.07259
1.09144
1.10991
1.12796
1.14556
1.16269
1.17932
1.19542
1.21096
1.22593
1.2403
1.25404
1.26713
1.27956
1.29131
1.30236
1.3127
1.3223
1.33117
1.33928
1.34663
1.35322
1.35903
1.36407
1.36833
1.37181
1.37451
1.37645
1.37763
1.37806
1.37777
1.37674
1.37494
1.37243
1.36923
1.36534
1.36078
1.35558
1.34976
1.34333
1.33631
1.32874
1.32063
1.31201
1.30291
1.29334
1.28335
1.27294
1.26216
1.25102
1.23956
1.22779
1.21575
1.20346
1.19095
1.17824
1.16536
1.15233
1.13918
1.12592
1.11257
1.09917
1.08571
1.07223
1.05873
1.04523
1.03174
1.01827
1.00485
0.991491
0.978199
0.964996
0.951901
0.938937
0.926132
0.913517
0.901133
0.889022
0.877225
0.865778
0.854549
0.843176
0.0109276
0.0164975
0.0210152
0.024321
0.0270174
0.0293761
0.0315339
0.0335716
0.0355437
0.0374892
0.039438
0.0414137
0.0434352
0.0455184
0.0476762
0.0499197
0.0522581
0.0546995
0.0572512
0.0599201
0.0627127
0.0656355
0.0686949
0.0718973
0.0752492
0.0787572
0.0824262
0.0862639
0.0902776
0.0944748
0.0988629
0.103449
0.108242
0.113248
0.118477
0.123935
0.129631
0.135574
0.141775
0.148242
0.154985
0.162014
0.169339
0.176968
0.184911
0.193179
0.201781
0.210728
0.220029
0.229693
0.239729
0.250146
0.260953
0.272157
0.283764
0.295783
0.308218
0.321076
0.334361
0.348077
0.362227
0.376814
0.391837
0.407296
0.423189
0.439512
0.45626
0.473428
0.491006
0.508986
0.527357
0.546105
0.565217
0.584676
0.604466
0.624568
0.644962
0.665626
0.686537
0.707672
0.729004
0.750508
0.772156
0.79392
0.81577
0.837677
0.859611
0.881539
0.90343
0.925253
0.946974
0.968563
0.989984
1.01121
1.0322
1.05292
1.07335
1.09345
1.11318
1.13253
1.15145
1.16992
1.1879
1.20538
1.22233
1.23871
1.2545
1.26968
1.28422
1.29811
1.31132
1.32383
1.33562
1.34669
1.35701
1.36657
1.37536
1.38337
1.39058
1.39701
1.40263
1.40745
1.41146
1.41467
1.41709
1.41871
1.41955
1.41963
1.419
1.41755
1.41535
1.41242
1.40878
1.40444
1.39943
1.39376
1.38745
1.38054
1.37304
1.36497
1.35637
1.34726
1.33766
1.32761
1.31712
1.30623
1.29497
1.28336
1.27143
1.2592
1.24672
1.23399
1.22105
1.20793
1.19464
1.18122
1.16768
1.15405
1.14035
1.1266
1.11281
1.09899
1.08517
1.07136
1.05757
1.04382
1.03011
1.01647
1.0029
0.989427
0.976065
0.962836
0.949768
0.936891
0.924242
0.91186
0.899781
0.88804
0.876515
0.864926
0.0116623
0.0167636
0.0212678
0.0245836
0.0272839
0.0296422
0.0317976
0.0338314
0.0357991
0.0377403
0.0396848
0.0416559
0.0436721
0.0457484
0.0478971
0.0501289
0.0524529
0.0548773
0.0574097
0.060057
0.0628262
0.065724
0.0687573
0.0719331
0.0752591
0.0787439
0.0823916
0.0862099
0.0902071
0.0943914
0.0987713
0.103355
0.10815
0.113167
0.118416
0.123907
0.129647
0.135651
0.141931
0.148497
0.155362
0.162536
0.170032
0.177861
0.186035
0.194566
0.203466
0.212748
0.222423
0.2325
0.24299
0.253901
0.265243
0.277023
0.289247
0.301921
0.31505
0.328639
0.342692
0.357211
0.372195
0.387646
0.403561
0.419936
0.436766
0.454044
0.471762
0.489909
0.508476
0.527447
0.546809
0.566546
0.58664
0.607073
0.627823
0.64887
0.67019
0.69176
0.713554
0.735547
0.75771
0.780016
0.802436
0.82494
0.847499
0.870081
0.892655
0.915189
0.937651
0.960009
0.98223
1.00428
1.02613
1.04775
1.06909
1.09014
1.11086
1.13121
1.15116
1.1707
1.18978
1.20837
1.22645
1.24399
1.26097
1.27736
1.29313
1.30826
1.32273
1.33652
1.3496
1.36197
1.37359
1.38446
1.39457
1.40389
1.41243
1.42016
1.42709
1.4332
1.4385
1.44297
1.44663
1.44947
1.45149
1.45272
1.45315
1.45285
1.45178
1.4499
1.44726
1.44389
1.4398
1.43501
1.42955
1.42343
1.41668
1.40932
1.40138
1.39288
1.38384
1.3743
1.36428
1.35382
1.34293
1.33165
1.32
1.30802
1.29574
1.28317
1.27035
1.25731
1.24407
1.23066
1.2171
1.20341
1.18963
1.17576
1.16184
1.14787
1.13388
1.11987
1.10587
1.09189
1.07793
1.06402
1.05015
1.03636
1.02264
1.00902
0.995509
0.982132
0.968912
0.955879
0.943066
0.930509
0.91824
0.906294
0.89456
0.882844
0.0123567
0.01689
0.0213361
0.0246327
0.0273132
0.0296509
0.0317877
0.033805
0.0357583
0.0376869
0.0396202
0.0415807
0.0435863
0.0456515
0.0477883
0.0500069
0.0523163
0.054725