/*--------------------------------*- C++ -*----------------------------------*\
| =========                 |                                                 |
| \\      /  F ield         | OpenFOAM: The Open Source CFD Toolbox           |
|  \\    /   O peration     | Version:  2312                                  |
|   \\  /    A nd           | Website:  www.openfoam.com                      |
|    \\/     M anipulation  |                                                 |
\*---------------------------------------------------------------------------*/
FoamFile
{
    version     2.0;
    format      ascii;
    arch        "LSB;label=32;scalar=64";
    class       volScalarField;
    location    "250";
    object      mag(U);
}
// * * * * * * * * * * * * * * * * * * * * * * * * * * * * * * * * * * * * * //

dimensions      [0 1 -1 0 0 0 0];

internalField   nonuniform List<scalar> 
12225
(
4.91717
4.70383
4.45475
4.20468
3.98058
3.7913
3.63276
3.50085
3.39172
3.30144
3.22648
3.16387
3.11134
3.06731
3.03071
3.00189
2.97607
2.96723
5.07624
5.14497
5.13418
5.08668
5.0275
4.96169
4.89049
4.81606
4.74181
4.67016
4.6024
4.53916
4.48087
4.42764
4.37949
4.33633
4.29934
4.26683
5.00439
5.02835
5.0566
5.07537
5.08628
5.09032
5.08681
5.07652
5.06129
5.04283
5.02227
5.00052
4.97832
4.95627
4.93494
4.91459
4.89636
4.87787
4.99798
5.00998
5.03473
5.05417
5.06847
5.08018
5.08881
5.09406
5.09655
5.09695
5.09567
5.09311
5.08957
5.08543
5.08095
5.07632
5.07183
5.06605
4.99929
5.00893
5.02801
5.04337
5.05562
5.0671
5.0772
5.08535
5.0918
5.09698
5.1011
5.10436
5.10692
5.10896
5.11061
5.11191
5.11284
5.11263
5.00015
5.00827
5.02345
5.0366
5.04773
5.0585
5.06839
5.07689
5.08417
5.09056
5.09621
5.10125
5.10579
5.10991
5.11367
5.11704
5.11992
5.12183
5.00029
5.00716
5.01994
5.03186
5.04227
5.0523
5.06169
5.07
5.07736
5.08401
5.09009
5.09569
5.10086
5.10568
5.11015
5.11422
5.11775
5.12047
5.00029
5.0061
5.01707
5.02801
5.0378
5.04721
5.05611
5.06415
5.0714
5.07805
5.0842
5.08992
5.09526
5.10026
5.10491
5.10914
5.11284
5.11585
5.00031
5.00522
5.01462
5.02458
5.03379
5.04267
5.05113
5.05891
5.06601
5.07255
5.07865
5.08434
5.08966
5.09464
5.09926
5.10345
5.10714
5.11023
5.00032
5.00448
5.0125
5.02148
5.0301
5.03846
5.04652
5.05402
5.06093
5.06735
5.07334
5.07894
5.08418
5.08906
5.09356
5.09766
5.10126
5.10435
5.00031
5.00385
5.01069
5.01872
5.0267
5.03455
5.04217
5.04937
5.05608
5.06234
5.06819
5.07367
5.07879
5.08354
5.08792
5.09189
5.0954
5.09846
5.00029
5.00335
5.00928
5.0165
5.02388
5.03123
5.03844
5.04533
5.05181
5.0579
5.0636
5.06895
5.07393
5.07856
5.08281
5.08666
5.09009
5.09311
5.00027
5.00293
5.00808
5.01455
5.02135
5.02821
5.035
5.04155
5.04778
5.05366
5.05919
5.06438
5.06922
5.07371
5.07783
5.08158
5.08492
5.0879
5.00024
5.00253
5.00694
5.01265
5.01882
5.02513
5.03144
5.0376
5.04351
5.04912
5.05442
5.05941
5.06406
5.06838
5.07236
5.07598
5.07923
5.08216
5.00022
5.00215
5.0059
5.01087
5.01639
5.02213
5.02792
5.03364
5.03918
5.04447
5.04949
5.05423
5.05866
5.06278
5.06658
5.07005
5.0732
5.07606
5.00019
5.00182
5.005
5.0093
5.01419
5.01936
5.02464
5.02989
5.03503
5.03997
5.04468
5.04914
5.05332
5.05722
5.06083
5.06414
5.06717
5.06994
5.00016
5.00155
5.00426
5.008
5.01234
5.01699
5.02179
5.02662
5.03136
5.03596
5.04036
5.04454
5.04847
5.05215
5.05557
5.05873
5.06163
5.06431
5.00014
5.00136
5.00375
5.00708
5.01101
5.01526
5.01968
5.02415
5.02857
5.03287
5.037
5.04094
5.04465
5.04814
5.05139
5.05442
5.05722
5.05981
5.00013
5.00128
5.00353
5.0067
5.01044
5.0145
5.01873
5.023
5.02723
5.03135
5.03531
5.03909
5.04266
5.04601
5.04916
5.05209
5.05482
5.05735
5.00014
5.00136
5.00375
5.00711
5.01103
5.01523
5.01956
5.0239
5.02817
5.03231
5.03626
5.04002
5.04356
5.04688
5.05
5.0529
5.05561
5.05812
5.00015
5.0015
5.00419
5.00795
5.01225
5.01677
5.02135
5.0259
5.03033
5.03457
5.0386
5.0424
5.04597
5.0493
5.05242
5.05532
5.05802
5.06053
5.00015
5.00165
5.00482
5.0092
5.01404
5.01897
5.02391
5.02875
5.0334
5.03779
5.04192
5.04578
5.04939
5.05275
5.05587
5.05877
5.06147
5.06396
5.00012
5.00172
5.00553
5.01076
5.01626
5.02166
5.02699
5.03215
5.03703
5.04158
5.04582
5.04975
5.05341
5.05679
5.05992
5.06282
5.06551
5.06799
5.00005
5.00169
5.0063
5.01247
5.01861
5.02454
5.03037
5.03591
5.04104
5.04577
5.05014
5.05418
5.05789
5.0613
5.06444
5.06733
5.07001
5.07246
4.99981
5.00121
5.00708
5.0143
5.02098
5.02754
5.03407
5.04017
5.04568
5.05068
5.05524
5.05939
5.06315
5.06657
5.06966
5.07247
5.07504
5.07736
4.99829
4.99842
5.00725
5.0168
5.02451
5.0319
5.03926
5.04602
5.05197
5.05725
5.06194
5.06608
5.0697
5.07287
5.07562
5.07802
5.08011
5.0819
4.99438
4.9923
5.00594
5.02054
5.03163
5.0411
5.04959
5.05677
5.06266
5.0675
5.07142
5.0745
5.07681
5.07846
5.07953
5.0801
5.08027
5.08009
4.99493
4.99726
5.01308
5.03041
5.04576
5.05863
5.06802
5.07367
5.07617
5.07625
5.0744
5.07096
5.06626
5.06055
5.0541
5.04706
5.03963
5.03202
5.0413
5.09322
5.10213
5.0923
5.08022
5.066
5.04633
5.02099
4.99172
4.96008
4.92724
4.89398
4.86088
4.82838
4.79674
4.76616
4.73669
4.70867
4.9737
4.89696
4.76596
4.60653
4.44795
4.30367
4.1753
4.0617
3.96179
3.87434
3.79762
3.73004
3.67018
3.61693
3.56927
3.52642
3.48745
3.45222
0.00121102
0.00460933
0.00900232
0.0137735
0.0182611
0.0221644
0.0253291
0.027674
0.0291819
0.0298947
0.0298578
0.0291725
0.0279638
0.0263235
0.0243252
0.0220197
0.0194341
0.016577
0.0134513
0.0100839
0.00663347
0.00407933
0.00554386
0.0100534
0.015715
0.0221969
0.0294758
0.0375946
0.0466152
0.0566039
0.0676241
0.0797319
0.0929709
0.10737
0.122939
0.139673
0.157546
0.17652
0.196534
0.217513
0.239373
0.262019
0.285356
0.309286
0.333714
0.358548
0.383704
0.409103
0.434672
0.46035
0.486079
0.511812
0.537508
0.56313
0.588649
0.614039
0.639277
0.664346
0.689228
0.713907
0.73837
0.762602
0.786589
0.810317
0.833771
0.856936
0.879794
0.902329
0.92452
0.946348
0.967791
0.988827
1.00943
1.02958
1.04925
1.0684
1.08701
1.10504
1.12247
1.13927
1.15541
1.17085
1.18556
1.19961
1.21297
1.22563
1.23756
1.24875
1.25918
1.26881
1.27763
1.28561
1.2927
1.29887
1.30408
1.30828
1.31143
1.31344
1.31425
1.31414
1.31312
1.31119
1.30836
1.30463
1.29998
1.29441
1.28792
1.2805
1.27216
1.2629
1.25271
1.24159
1.22956
1.21661
1.20276
1.188
1.17235
1.15581
1.1384
1.12013
1.10101
1.08105
1.06028
1.0387
1.01633
0.993185
0.969287
0.944651
0.919296
0.893249
0.866531
0.839163
0.811171
0.782576
0.753404
0.723683
0.693437
0.662696
0.631486
0.599837
0.567777
0.535338
0.50255
0.469443
0.436048
0.402398
0.368526
0.334464
0.300249
0.265918
0.231511
0.197073
0.162664
0.12837
0.0943508
0.0610529
0.0307758
0.0228063
0.0491758
0.0813836
0.114423
0.147566
0.180611
0.213478
0.246125
0.278507
0.310587
0.342353
0.373785
0.404854
0.435529
0.465759
0.495475
0.524559
0.55285
0.579915
0.605523
0.626476
0.646789
0.631034
0.00685189
0.0143241
0.0183279
0.0202507
0.0209988
0.0210209
0.02056
0.0197258
0.0185428
0.0170017
0.0151185
0.0129254
0.0105652
0.00852013
0.00794487
0.00994624
0.0140844
0.0195647
0.0260217
0.0333328
0.0414754
0.0504702
0.0603481
0.0711439
0.0829056
0.095682
0.10951
0.124416
0.140407
0.157478
0.175604
0.194741
0.214831
0.235798
0.257555
0.280006
0.303048
0.32657
0.350462
0.374623
0.398962
0.423393
0.447842
0.472242
0.496538
0.520685
0.544644
0.568386
0.59189
0.615138
0.638119
0.660825
0.683251
0.705393
0.727249
0.748818
0.770099
0.791089
0.811787
0.832189
0.852292
0.87209
0.891577
0.910745
0.929585
0.948087
0.966241
0.984033
1.00145
1.01848
1.0351
1.0513
1.06707
1.08238
1.09723
1.11159
1.12544
1.13878
1.15159
1.16385
1.17556
1.18671
1.19728
1.20725
1.21657
1.22524
1.23323
1.24052
1.2471
1.25295
1.25805
1.26239
1.26596
1.26877
1.2708
1.27208
1.27265
1.27255
1.27186
1.27037
1.26804
1.26483
1.26074
1.25575
1.24986
1.24307
1.23537
1.22676
1.21723
1.20679
1.19544
1.18318
1.17
1.15593
1.14096
1.1251
1.10835
1.09073
1.07224
1.05291
1.03273
1.01172
0.989907
0.967294
0.9439
0.919743
0.894838
0.869202
0.842856
0.815824
0.788126
0.759783
0.730821
0.701264
0.671136
0.640463
0.609274
0.577594
0.545454
0.512883
0.479911
0.44657
0.412895
0.378918
0.344677
0.31021
0.275563
0.240787
0.205949
0.171141
0.13652
0.102408
0.0696878
0.0418802
0.0343432
0.0559082
0.0870654
0.120485
0.154541
0.188772
0.223014
0.257168
0.29117
0.324982
0.358573
0.391918
0.424995
0.457784
0.490259
0.522394
0.554153
0.585489
0.616332
0.646571
0.676048
0.704412
0.731371
0.755104
0.777403
0.786595
0.0142882
0.0226035
0.0229896
0.0206544
0.0173192
0.013527
0.00956494
0.00575578
0.00338656
0.00538767
0.00946883
0.014155
0.019298
0.0249419
0.0311624
0.038033
0.0456162
0.0539634
0.0631172
0.0731147
0.083989
0.0957698
0.108481
0.122135
0.136734
0.152266
0.168699
0.18599
0.204074
0.222877
0.24231
0.262276
0.282674
0.303402
0.32436
0.345457
0.366601
0.387721
0.408765
0.42969
0.450464
0.471064
0.491477
0.511692
0.531709
0.551528
0.571153
0.590589
0.609841
0.628915
0.647816
0.666547
0.685113
0.703513
0.721748
0.739818
0.75772
0.775449
0.793002
0.810371
0.82755
0.84453
0.861301
0.877852
0.894173
0.910251
0.926071
0.941621
0.956885
0.971847
0.986491
1.0008
1.01476
1.02835
1.04156
1.05436
1.06674
1.07869
1.09018
1.1012
1.11174
1.12177
1.13127
1.14022
1.14857
1.15633
1.16346
1.16995
1.17578
1.18094
1.1854
1.18917
1.19223
1.19458
1.19621
1.19712
1.19731
1.19676
1.19544
1.19332
1.19036
1.18657
1.18191
1.1764
1.17002
1.16275
1.15461
1.14559
1.13568
1.12489
1.11321
1.10065
1.08721
1.0729
1.05771
1.04166
1.02475
1.00699
0.988389
0.96896
0.948715
0.927666
0.905828
0.883214
0.859841
0.835724
0.810881
0.785329
0.759089
0.732181
0.704624
0.676442
0.64766
0.618303
0.588396
0.557966
0.527041
0.495652
0.46383
0.431608
0.399023
0.366114
0.332927
0.299514
0.265938
0.232282
0.198668
0.16529
0.132502
0.101072
0.0729861
0.053959
0.0546042
0.0744385
0.102879
0.13452
0.167498
0.201096
0.234962
0.268915
0.302855
0.33671
0.370427
0.403965
0.437295
0.470394
0.50324
0.535811
0.568081
0.600022
0.631598
0.662764
0.693452
0.72356
0.752945
0.781324
0.808476
0.833259
0.857274
0.874296
0.0198881
0.0263758
0.0233495
0.0180853
0.01237
0.0070805
0.00520654
0.00934468
0.0152594
0.0216072
0.0282065
0.0350693
0.0422631
0.0498757
0.0579993
0.0667198
0.0761109
0.0862312
0.0971231
0.108813
0.121314
0.134622
0.148721
0.163582
0.17916
0.195396
0.212217
0.229541
0.247277
0.265328
0.2836
0.302001
0.320445
0.338859
0.357178
0.375353
0.393352
0.41116
0.428769
0.446178
0.463392
0.480421
0.497281
0.51399
0.530566
0.547026
0.563384
0.579652
0.595841
0.611957
0.628005
0.643988
0.659904
0.675754
0.691533
0.707236
0.722856
0.738386
0.753817
0.769139
0.784341
0.799411
0.814336
0.829104
0.843701
0.858111
0.87232
0.886312
0.900069
0.913576
0.926815
0.939768
0.952417
0.964744
0.976731
0.98836
0.999612
1.01047
1.02091
1.03092
1.04047
1.04955
1.05813
1.06619
1.07369
1.08063
1.08699
1.09273
1.09786
1.10234
1.10617
1.10934
1.11183
1.11363
1.11473
1.11512
1.11478
1.1137
1.11183
1.10918
1.10573
1.10147
1.09638
1.09046
1.08371
1.07611
1.06766
1.05837
1.04822
1.03722
1.02537
1.01267
0.999122
0.984728
0.969495
0.953429
0.936535
0.918823
0.9003
0.880978
0.86087
0.839987
0.818343
0.795951
0.772829
0.748993
0.724459
0.699247
0.673379
0.646872
0.619745
0.592028
0.563743
0.53492
0.505587
0.475776
0.44552
0.414858
0.383832
0.352493
0.320899
0.289127
0.257275
0.225482
0.19396
0.163063
0.133436
0.106375
0.0846181
0.0732858
0.0772686
0.0947302
0.119945
0.149018
0.180057
0.212156
0.244847
0.277875
0.311076
0.34434
0.377592
0.410769
0.443822
0.476713
0.509411
0.541891
0.574132
0.606111
0.637802
0.669178
0.700205
0.730836
0.761012
0.79064
0.819598
0.847667
0.874712
0.900002
0.925178
0.945985
0.022165
0.0253062
0.0200822
0.0141811
0.0106054
0.0122412
0.0177532
0.0246842
0.0321628
0.0399454
0.0479803
0.0562888
0.0649254
0.0739596
0.0834641
0.0935063
0.104142
0.115411
0.127336
0.13992
0.153147
0.166988
0.181394
0.196306
0.211652
0.227353
0.243325
0.259478
0.275728
0.291992
0.308198
0.324283
0.340197
0.355904
0.371381
0.386621
0.401627
0.41641
0.430986
0.445376
0.459605
0.473699
0.487686
0.50159
0.515432
0.529231
0.543003
0.55676
0.57051
0.58426
0.598011
0.611764
0.625517
0.639265
0.653002
0.66672
0.680411
0.694064
0.707667
0.72121
0.734679
0.74806
0.761339
0.774502
0.787532
0.800415
0.813133
0.82567
0.838008
0.85013
0.862017
0.873652
0.885015
0.896089
0.906855
0.917292
0.927383
0.937107
0.946444
0.955376
0.96388
0.971934
0.979516
0.986604
0.993175
0.99921
1.00469
1.00959
1.01391
1.01761
1.0207
1.02315
1.02494
1.02608
1.02653
1.02629
1.02534
1.02365
1.02122
1.01804
1.01408
1.00934
1.00382
0.997502
0.990386
0.982465
0.973735
0.964193
0.953838
0.942669
0.930686
0.917891
0.904287
0.889877
0.874666
0.85866
0.841865
0.824289
0.805942
0.786834
0.766977
0.746384
0.725068
0.703045
0.68033
0.656942
0.632898
0.608222
0.582934
0.557055
0.53061
0.503629
0.476143
0.44819
0.419807
0.391043
0.36195
0.332597
0.303069
0.273478
0.24398
0.214803
0.186301
0.159054
0.134064
0.113081
0.0989386
0.0949607
0.102497
0.119489
0.142649
0.169489
0.19852
0.228891
0.260101
0.291842
0.323915
0.356188
0.388567
0.42098
0.453369
0.485684
0.517883
0.549928
0.581793
0.613452
0.644883
0.676066
0.706974
0.737583
0.76786
0.797763
0.827237
0.856205
0.884568
0.912163
0.938939
0.964425
0.990312
1.013
0.0207448
0.0202593
0.0145374
0.012196
0.0159993
0.0230688
0.0312298
0.0398229
0.0486538
0.057673
0.0668888
0.0763367
0.0860669
0.0961345
0.106593
0.117489
0.128854
0.140708
0.15305
0.165862
0.17911
0.192743
0.206701
0.220911
0.235297
0.24978
0.264283
0.278732
0.293061
0.307213
0.321145
0.334825
0.348233
0.361363
0.374221
0.38682
0.399182
0.411332
0.423301
0.435119
0.446819
0.458432
0.469986
0.481507
0.493016
0.504532
0.51607
0.52764
0.539251
0.550905
0.562605
0.574349
0.586134
0.597954
0.609802
0.621668
0.633542
0.645413
0.657269
0.669096
0.68088
0.692606
0.70426
0.715825
0.727285
0.738624
0.749825
0.76087
0.771742
0.782422
0.792893
0.803135
0.81313
0.82286
0.832306
0.841447
0.850265
0.858741
0.866854
0.874584
0.881911
0.888814
0.89527
0.90126
0.906763
0.91176
0.916231
0.92016
0.923529
0.926322
0.928523
0.930119
0.931094
0.931434
0.931123
0.930147
0.92849
0.926135
0.92307
0.919283
0.914768
0.909516
0.90352
0.896773
0.889271
0.881007
0.87198
0.862186
0.851624
0.840295
0.828198
0.815337
0.801712
0.78733
0.772194
0.756311
0.739687
0.722332
0.704256
0.685469
0.665984
0.645815
0.624977
0.603487
0.581364
0.558627
0.535302
0.511415
0.486992
0.462064
0.436666
0.410843
0.384645
0.358136
0.331391
0.304509
0.277621
0.250902
0.224608
0.199109
0.174974
0.153081
0.134771
0.121913
0.116556
0.119901
0.131433
0.149371
0.171789
0.197203
0.224618
0.253386
0.283082
0.313421
0.344203
0.375285
0.40656
0.437949
0.46939
0.500833
0.532235
0.563557
0.594762
0.62582
0.656705
0.687395
0.717868
0.748105
0.778084
0.807781
0.837165
0.866201
0.894841
0.923022
0.95067
0.977672
1.00405
1.02949
1.05572
1.07926
0.0160315
0.0125027
0.0107425
0.0168799
0.0257453
0.0352167
0.0448744
0.054629
0.0644691
0.0744113
0.0844864
0.0947328
0.105191
0.115902
0.126898
0.138206
0.149838
0.161792
0.174051
0.186584
0.199345
0.212277
0.225317
0.238396
0.251444
0.264395
0.277187
0.289767
0.302091
0.314128
0.325856
0.337269
0.348367
0.359163
0.369678
0.379937
0.389973
0.399817
0.409505
0.419071
0.42855
0.437973
0.447368
0.456759
0.466169
0.475615
0.485111
0.494666
0.504287
0.513978
0.523739
0.53357
0.543465
0.553418
0.563422
0.573466
0.58354
0.593633
0.60373
0.613819
0.623884
0.633911
0.643883
0.653785
0.6636
0.673312
0.682903
0.692355
0.701652
0.710774
0.719705
0.728426
0.736918
0.745163
0.753143
0.760839
0.768232
0.775303
0.782033
0.788402
0.794392
0.799982
0.805153
0.809885
0.81416
0.81796
0.821266
0.824063
0.826333
0.828061
0.829233
0.829835
0.829852
0.82927
0.828075
0.826253
0.82379
0.820673
0.816891
0.812435
0.807298
0.801473
0.794955
0.787737
0.779815
0.771185
0.761846
0.751796
0.741033
0.729559
0.717375
0.704484
0.69089
0.676597
0.661612
0.645943
0.629597
0.612586
0.59492
0.576615
0.557685
0.538148
0.518023
0.497333
0.476105
0.454368
0.43216
0.409522
0.386502
0.363157
0.339561
0.315807
0.292014
0.268341
0.245004
0.222297
0.200641
0.18063
0.163098
0.149158
0.140118
0.137169
0.140887
0.150941
0.16631
0.185777
0.208264
0.232946
0.259225
0.286677
0.314996
0.343959
0.373401
0.403192
0.433234
0.463447
0.493766
0.52414
0.554522
0.584878
0.615176
0.645383
0.675472
0.705416
0.735194
0.764786
0.794173
0.823337
0.85226
0.880919
0.90929
0.937341
0.965034
0.99232
1.01915
1.04545
1.0713
1.09649
1.12275
1.14652
0.00874554
0.00737517
0.0163894
0.0269818
0.0376239
0.0481686
0.0586423
0.0690891
0.0795456
0.0900454
0.100621
0.111303
0.122119
0.133093
0.144241
0.15557
0.167075
0.178743
0.190543
0.202437
0.214378
0.22631
0.238175
0.249913
0.261468
0.27279
0.283833
0.294565
0.30496
0.315004
0.324696
0.334041
0.343054
0.35176
0.360185
0.368362
0.376326
0.384114
0.391761
0.399303
0.406772
0.414201
0.421615
0.429039
0.436494
0.443995
0.451556
0.459187
0.466894
0.47468
0.482547
0.490491
0.49851
0.506596
0.514742
0.522939
0.531174
0.539437
0.547713
0.55599
0.564253
0.572486
0.580674
0.5888
0.596849
0.604803
0.612647
0.620362
0.627932
0.635339
0.642566
0.649596
0.656411
0.662994
0.669328
0.675394
0.681175
0.686653
0.691812
0.696632
0.701096
0.705187
0.708886
0.712177
0.715042
0.717466
0.719432
0.720925
0.721929
0.722432
0.72242
0.721879
0.720798
0.719162
0.71696
0.71418
0.71081
0.706839
0.702258
0.697061
0.691241
0.684793
0.677713
0.669995
0.661638
0.65264
0.642999
0.632715
0.62179
0.610225
0.598024
0.585192
0.571736
0.557662
0.542979
0.5277
0.511837
0.495405
0.478423
0.460912
0.442898
0.424409
0.40548
0.386152
0.366478
0.346518
0.326352
0.306076
0.285815
0.265723
0.246011
0.226953
0.208919
0.192399
0.178024
0.166568
0.15888
0.155729
0.157585
0.16445
0.175889
0.191206
0.209656
0.230568
0.253394
0.277709
0.303188
0.329579
0.35669
0.384368
0.412493
0.440966
0.469704
0.498638
0.527713
0.556876
0.586087
0.615307
0.644505
0.673652
0.702724
0.731697
0.76055
0.78926
0.817811
0.846184
0.874365
0.902339
0.930089
0.957597
0.984843
1.0118
1.03844
1.06474
1.09065
1.11615
1.14135
1.1661
1.19213
1.21571
0.00298144
0.0159921
0.028252
0.039721
0.0508386
0.0617345
0.0725008
0.0832029
0.093882
0.104568
0.115283
0.126047
0.136872
0.147766
0.158729
0.169753
0.180822
0.191912
0.202988
0.214009
0.224931
0.235703
0.246276
0.256604
0.266642
0.276355
0.285714
0.2947
0.303303
0.311521
0.319362
0.326843
0.333985
0.340817
0.347369
0.353677
0.359777
0.365704
0.371494
0.377182
0.382798
0.388373
0.393932
0.399499
0.405091
0.410726
0.416416
0.422171
0.427995
0.433894
0.439868
0.445916
0.452033
0.458214
0.464451
0.470734
0.477054
0.483398
0.489753
0.496107
0.502444
0.50875
0.51501
0.521208
0.527329
0.533356
0.539275
0.545067
0.550719
0.556212
0.561533
0.566664
0.57159
0.576294
0.580762
0.584978
0.588926
0.59259
0.595955
0.599006
0.601727
0.604102
0.606118
0.607759
0.609011
0.609859
0.610292
0.610295
0.609856
0.608963
0.607604
0.60577
0.603449
0.600631
0.597305
0.593462
0.589094
0.584191
0.578749
0.572762
0.566225
0.559137
0.551494
0.543295
0.534541
0.52523
0.515367
0.504954
0.493995
0.482498
0.470471
0.457923
0.444868
0.431322
0.417302
0.402832
0.387939
0.372655
0.357021
0.341084
0.324903
0.308551
0.292117
0.275713
0.259482
0.243607
0.22832
0.213915
0.200757
0.189288
0.18002
0.173498
0.170231
0.170592
0.174733
0.182557
0.193761
0.207924
0.224596
0.243351
0.263823
0.285705
0.308748
0.33275
0.357548
0.383006
0.409014
0.435479
0.46232
0.489469
0.516865
0.544456
0.572194
0.600037
0.627949
0.655895
0.683845
0.711773
0.739652
0.767463
0.795187
0.822805
0.850301
0.877659
0.904863
0.931901
0.958761
0.98543
1.0119
1.03814
1.06416
1.08992
1.11542
1.14062
1.16552
1.19011
1.21454
1.23868
1.26426
1.28734
0.0121202
0.0293755
0.0423616
0.0538806
0.064909
0.0756922
0.0863411
0.0969216
0.107468
0.118
0.128528
0.139057
0.149585
0.160106
0.170607
0.181071
0.191471
0.201777
0.211955
0.221964
0.231763
0.241311
0.250567
0.259495
0.268065
0.27625
0.284036
0.291412
0.298378
0.304942
0.311117
0.316923
0.322388
0.327538
0.332407
0.337029
0.341438
0.345669
0.349755
0.353729
0.35762
0.361455
0.365259
0.369052
0.372853
0.376677
0.380536
0.384438
0.388391
0.392397
0.396459
0.400575
0.404741
0.408952
0.4132
0.417478
0.421775
0.42608
0.43038
0.434664
0.438917
0.443125
0.447275
0.451352
0.455341
0.459229
0.462999
0.466639
0.470135
0.473471
0.476634
0.479611
0.482388
0.484953
0.487291
0.489391
0.49124
0.492825
0.494135
0.495156
0.495878
0.496287
0.496374
0.496127
0.495534
0.494586
0.493273
0.491584
0.489511
0.487045
0.484177
0.480901
0.477209
0.473094
0.468549
0.463568
0.458147
0.452281
0.445969
0.439209
0.432002
0.424349
0.416253
0.407719
0.398752
0.389361
0.379556
0.36935
0.35876
0.347806
0.336511
0.324908
0.313031
0.300926
0.288648
0.276264
0.263856
0.251527
0.239402
0.227635
0.216413
0.205964
0.196556
0.1885
0.182134
0.177805
0.175833
0.176462
0.179824
0.185918
0.194626
0.205744
0.219021
0.234198
0.251025
0.269274
0.28875
0.309284
0.330733
0.352975
0.375907
0.399441
0.423499
0.448015
0.472929
0.498188
0.523742
0.549549
0.575565
0.601755
0.628081
0.654511
0.681015
0.707564
0.734133
0.760698
0.787237
0.813728
0.840154
0.866498
0.892746
0.918885
0.944902
0.970786
0.996526
1.02211
1.04754
1.07279
1.09786
1.12274
1.14742
1.17189
1.19614
1.22015
1.24394
1.26752
1.29106
1.31444
1.33936
1.36173
0.0232001
0.0439936
0.0574744
0.0687712
0.0794072
0.0897674
0.0999924
0.110151
0.120272
0.130364
0.140428
0.150456
0.160436
0.170349
0.180175
0.189886
0.199453
0.208842
0.218019
0.226945
0.235586
0.243905
0.251871
0.259458
0.266642
0.27341
0.279752
0.285666
0.291157
0.296236
0.300921
0.305234
0.309199
0.312845
0.316203
0.319306
0.322184
0.324871
0.327395
0.329786
0.332072
0.334275
0.336418
0.33852
0.340598
0.342664
0.344729
0.346803
0.34889
0.350994
0.353118
0.355259
0.357415
0.35958
0.361747
0.363909
0.366056
0.368178
0.370264
0.372302
0.374279
0.376183
0.378002
0.379723
0.381332
0.382819
0.38417
0.385375
0.386421
0.387298
0.387996
0.388503
0.388812
0.388911
0.388793
0.388448
0.38787
0.387049
0.385978
0.38465
0.383058
0.381195
0.379055
0.376633
0.373921
0.370916
0.367612
0.364006
0.360092
0.355869
0.351334
0.346485
0.341322
0.335843
0.33005
0.323944
0.317529
0.310812
0.303799
0.296502
0.288935
0.281113
0.273058
0.264796
0.256358
0.247781
0.239113
0.230409
0.221738
0.213183
0.204843
0.19684
0.189314
0.182433
0.176384
0.171377
0.167632
0.165363
0.164765
0.16599
0.169129
0.174209
0.181191
0.189984
0.200463
0.212486
0.22591
0.240593
0.256404
0.273223
0.290944
0.309475
0.328737
0.34866
0.369184
0.390254
0.411823
0.433846
0.456283
0.479098
0.502255
0.525723
0.549469
0.573465
0.597683
0.622094
0.646673
0.671392
0.696227
0.721154
0.746149
0.77119
0.796254
0.821323
0.846377
0.8714
0.896373
0.921283
0.946115
0.970857
0.995499
1.02003
1.04445
1.06873
1.09289
1.11691
1.14078
1.1645
1.18807
1.21148
1.23472
1.25779
1.28069
1.30342
1.32601
1.34847
1.371
1.39348
1.41756
1.43905
0.0344759
0.058961
0.0729215
0.0838937
0.093971
0.103705
0.113286
0.122794
0.132258
0.141683
0.151061
0.160377
0.169612
0.178739
0.18773
0.196555
0.205181
0.213573
0.221697
0.229519
0.237007
0.244133
0.250872
0.257203
0.26311
0.268584
0.27362
0.278221
0.282396
0.286157
0.289522
0.292512
0.295151
0.297466
0.299484
0.301234
0.302744
0.304042
0.305154
0.306104
0.306916
0.307611
0.308206
0.308719
0.309163
0.309548
0.309884
0.310177
0.310433
0.310652
0.310837
0.310985
0.311093
0.311155
0.311164
0.311114
0.310995
0.310797
0.310511
0.310126
0.30963
0.309012
0.308262
0.30737
0.306324
0.305115
0.303735
0.302175
0.300427
0.298485
0.296341
0.293992
0.291431
0.288655
0.285661
0.282445
0.279007
0.275343
0.271454
0.26734
0.263001
0.258438
0.253654
0.248651
0.243434
0.238007
0.232377
0.226551
0.220539
0.214351
0.208003
0.201513
0.194899
0.188188
0.18141
0.174604
0.167815
0.161102
0.154534
0.148196
0.142191
0.13664
0.131684
0.127482
0.124205
0.122029
0.121117
0.121606
0.123588
0.127102
0.132134
0.138625
0.146483
0.155599
0.165862
0.177161
0.189398
0.202484
0.21634
0.230901
0.24611
0.261916
0.278279
0.295161
0.312531
0.330363
0.348633
0.367319
0.386402
0.405859
0.425672
0.44582
0.46629
0.487064
0.508126
0.529461
0.551053
0.572886
0.594943
0.617209
0.639667
0.6623
0.685092
0.708025
0.731083
0.754247
0.777502
0.800829
0.824211
0.847631
0.871071
0.894517
0.917952
0.941362
0.964733
0.988052
1.01131
1.03449
1.05758
1.08059
1.10349
1.12628
1.14897
1.17154
1.19399
1.21632
1.23852
1.2606
1.28256
1.30438
1.32608
1.34766
1.36912
1.39046
1.41174
1.43298
1.45438
1.47582
1.49892
1.51939
0.0455287
0.0738035
0.0882673
0.0988788
0.108308
0.117288
0.126071
0.13476
0.143392
0.151973
0.160495
0.168939
0.177281
0.185491
0.193538
0.20139
0.209011
0.216369
0.223429
0.230162
0.236538
0.242532
0.248123
0.253295
0.258037
0.262344
0.266214
0.269653
0.27267
0.275277
0.277492
0.279333
0.280822
0.281983
0.282838
0.283413
0.283732
0.283817
0.283691
0.283374
0.282884
0.282238
0.28145
0.280532
0.279494
0.278343
0.277087
0.275728
0.27427
0.272712
0.271053
0.269289
0.267416
0.265428
0.263317
0.261076
0.258696
0.256167
0.253478
0.25062
0.247581
0.244351
0.240922
0.237283
0.233426
0.229343
0.225028
0.220475
0.215678
0.210633
0.205337
0.199787
0.193982
0.187921
0.181605
0.175034
0.16821
0.161136
0.153818
0.146259
0.138467
0.130452
0.122224
0.113799
0.105197
0.0964451
0.0875838
0.0786709
0.069795
0.0610988
0.0528207
0.045366
0.0394117
0.0359441
0.0359273
0.0395792
0.0462209
0.0549342
0.0650262
0.0760676
0.0878045
0.100085
0.112814
0.125932
0.139399
0.153186
0.167275
0.181651
0.196303
0.211223
0.226406
0.241847
0.257541
0.273486
0.289679
0.306118
0.322799
0.339722
0.356883
0.37428
0.391911
0.409773
0.427861
0.446173
0.464707
0.483457
0.502421
0.521595
0.540976
0.560552
0.580321
0.600273
0.620403
0.640704
0.661169
0.68179
0.702556
0.723461
0.744493
0.765643
0.7869
0.808254
0.829693
0.851205
0.872779
0.894403
0.916063
0.937748
0.959445
0.981141
1.00282
1.02448
1.04611
1.06768
1.0892
1.11066
1.13204
1.15335
1.17456
1.19568
1.21671
1.23764
1.25846
1.27919
1.29981
1.32033
1.34075
1.36108
1.3813
1.40144
1.4215
1.44147
1.46138
1.48125
1.50111
1.52103
1.54119
1.56146
1.58344
1.60277
0.0561297
0.0882389
0.103231
0.113469
0.122201
0.130344
0.138222
0.145968
0.153637
0.161243
0.16878
0.176233
0.183576
0.190781
0.197817
0.204648
0.21124
0.217558
0.223571
0.229248
0.234564
0.239497
0.244029
0.248147
0.251842
0.255111
0.257954
0.260378
0.262392
0.264007
0.26524
0.266108
0.266628
0.266822
0.26671
0.266314
0.265652
0.264745
0.263608
0.262259
0.260712
0.258978
0.25707
0.254994
0.25276
0.25037
0.247829
0.245139
0.2423
0.239312
0.236174
0.232881
0.22943
0.225816
0.222033
0.218078
0.213941
0.209618
0.2051
0.200381
0.195456
0.190321
0.184972
0.179409
0.173632
0.167645
0.161453
0.155063
0.148488
0.141743
0.134849
0.127834
0.120733
0.113593
0.106474
0.0994567
0.092648
0.0861876
0.0802584
0.0750926
0.0709702
0.068199
0.0670667
0.067774
0.0703787
0.0747886
0.0808059
0.0881906
0.0967106
0.106165
0.116393
0.127266
0.138688
0.150583
0.162894
0.175574
0.188588
0.201907
0.215507
0.22937
0.24348
0.257824
0.272389
0.287166
0.302147
0.317325
0.332693
0.348245
0.363977
0.379885
0.395963
0.41221
0.428622
0.445196
0.461929
0.478819
0.495863
0.51306
0.530406
0.5479
0.565538
0.58332
0.60124
0.619298
0.63749
0.655813
0.674262
0.692839
0.711536
0.730347
0.749269
0.768296
0.787424
0.806648
0.825962
0.84536
0.864836
0.884382
0.903993
0.923659
0.943375
0.963131
0.98292
1.00273
1.02256
1.0424
1.06223
1.08205
1.10185
1.12162
1.14136
1.16104
1.18068
1.20025
1.21976
1.23919
1.25854
1.27782
1.29701
1.31611
1.33512
1.35404
1.37288
1.39163
1.4103
1.42889
1.44741
1.46587
1.48426
1.5026
1.5209
1.53917
1.55744
1.57572
1.59407
1.61256
1.63136
1.65035
1.67108
1.68916
0.0662225
0.10216
0.117682
0.127525
0.135515
0.142754
0.149642
0.156348
0.162951
0.169481
0.175941
0.18232
0.188598
0.194747
0.200732
0.206522
0.21208
0.217372
0.222368
0.227038
0.231358
0.235306
0.238868
0.242031
0.24479
0.247141
0.249087
0.250635
0.251794
0.252578
0.253001
0.253077
0.252826
0.252265
0.251414
0.250291
0.248915
0.247304
0.245472
0.243435
0.241206
0.238798
0.236221
0.233487
0.230605
0.227583
0.22443
0.221155
0.217766
0.214272
0.210682
0.207007
0.203257
0.199445
0.195588
0.191701
0.187803
0.183916
0.180063
0.176278
0.172593
0.169052
0.1657
0.162589
0.159777
0.157324
0.155296
0.153758
0.152775
0.152408
0.152713
0.153737
0.155515
0.158071
0.161415
0.165545
0.170449
0.176102
0.182476
0.189534
0.197237
0.205547
0.214423
0.223827
0.233722
0.244073
0.254848
0.266018
0.277555
0.289436
0.301638
0.314141
0.326926
0.339976
0.353276
0.366811
0.38057
0.39454
0.40871
0.423072
0.437615
0.452331
0.467212
0.482251
0.49744
0.512774
0.528247
0.543853
0.559587
0.575444
0.59142
0.60751
0.623711
0.640019
0.65643
0.672942
0.68955
0.706252
0.723045
0.739926
0.756892
0.77394
0.791068
0.808272
0.825547
0.842891
0.860303
0.877779
0.895312
0.912901
0.930541
0.948226
0.965955
0.983722
1.00152
1.01935
1.03721
1.05508
1.07297
1.09086
1.10876
1.12666
1.14454
1.16241
1.18026
1.19808
1.21587
1.23362
1.25133
1.26898
1.28658
1.30411
1.32158
1.33898
1.35631
1.37356
1.39073
1.40782
1.42484
1.44178
1.45864
1.47542
1.49214
1.50879
1.52539
1.54193
1.55843
1.5749
1.59134
1.60778
1.62421
1.64068
1.65719
1.67379
1.69053
1.70747
1.72482
1.74241
1.76177
1.77852
0.0761661
0.116017
0.13206
0.141442
0.148597
0.154819
0.16059
0.166128
0.171539
0.176875
0.182151
0.187364
0.192497
0.197526
0.202416
0.207134
0.211644
0.215909
0.219899
0.223584
0.226941
0.229949
0.232593
0.234865
0.236759
0.238277
0.239423
0.240206
0.240638
0.240734
0.24051
0.239986
0.239179
0.238111
0.236804
0.23528
0.233563
0.231675
0.22964
0.22748
0.225219
0.222882
0.220494
0.218083
0.215675
0.213302
0.210995
0.208789
0.206722
0.20483
0.203155
0.201739
0.200625
0.199856
0.199477
0.199532
0.200059
0.201097
0.202679
0.204835
0.207589
0.210959
0.214955
0.219582
0.224837
0.230711
0.237188
0.244252
0.251878
0.260041
0.268713
0.277867
0.287474
0.297504
0.30793
0.318725
0.329864
0.34132
0.353072
0.365098
0.377377
0.389892
0.402625
0.415561
0.428686
0.441986
0.455449
0.469066
0.482828
0.496725
0.510748
0.52489
0.539144
0.553504
0.567963
0.582518
0.597162
0.611892
0.626704
0.641593
0.656557
0.671591
0.686693
0.701857
0.717082
0.732365
0.747704
0.763095
0.778535
0.794022
0.809554
0.825129
0.840743
0.856396