/*--------------------------------*- C++ -*----------------------------------*\
| =========                 |                                                 |
| \\      /  F ield         | OpenFOAM: The Open Source CFD Toolbox           |
|  \\    /   O peration     | Version:  2312                                  |
|   \\  /    A nd           | Website:  www.openfoam.com                      |
|    \\/     M anipulation  |                                                 |
\*---------------------------------------------------------------------------*/
FoamFile
{
    version     2.0;
    format      ascii;
    arch        "LSB;label=32;scalar=64";
    class       volScalarField;
    location    "250";
    object      nut;
}
// * * * * * * * * * * * * * * * * * * * * * * * * * * * * * * * * * * * * * //

dimensions      [0 2 -1 0 0 0 0];

internalField   nonuniform List<scalar> 
12225
(
2.57619e-05
3.0201e-05
3.18958e-05
3.19908e-05
3.18775e-05
3.1144e-05
3.05749e-05
3.00052e-05
2.949e-05
2.90429e-05
2.86618e-05
2.8341e-05
2.80685e-05
2.78427e-05
2.76452e-05
2.74945e-05
2.73617e-05
2.72016e-05
0.000155567
6.70967e-05
4.95056e-05
4.08381e-05
3.62395e-05
3.33576e-05
3.18723e-05
3.11069e-05
3.08581e-05
3.08508e-05
3.10956e-05
3.14534e-05
3.18391e-05
3.22447e-05
3.28093e-05
3.31744e-05
3.38248e-05
3.39752e-05
0.00046108
0.000207721
0.000143517
0.000113188
9.43559e-05
8.25392e-05
7.44386e-05
6.82641e-05
6.41652e-05
6.09349e-05
5.8609e-05
5.66927e-05
5.5359e-05
5.41877e-05
5.3451e-05
5.27484e-05
5.24806e-05
5.1903e-05
0.000724494
0.000440124
0.000317615
0.000254115
0.000214837
0.000189252
0.000170716
0.000157532
0.000147008
0.000138437
0.000132079
0.000126353
0.000122123
0.000117818
0.000115068
0.00011159
0.000110112
0.000106736
0.000823417
0.00065796
0.000522403
0.000435549
0.000376722
0.000336171
0.000305932
0.0002836
0.000265865
0.00025196
0.00024042
0.000230326
0.00022282
0.000215161
0.000210089
0.000203524
0.000200822
0.000194276
0.000846242
0.000780262
0.000688641
0.00060595
0.000541744
0.000493089
0.00045483
0.000425001
0.000400874
0.000381257
0.000365125
0.000351351
0.0003398
0.000329176
0.000321431
0.000312559
0.000308067
0.000299264
0.000852307
0.000827196
0.000786131
0.000729204
0.000676238
0.000630873
0.000592349
0.000560227
0.000533218
0.000510344
0.000491105
0.000474251
0.000460353
0.000447442
0.000436859
0.000426276
0.000419769
0.000409312
0.0008529
0.000845758
0.000826924
0.000800123
0.000765971
0.000732192
0.000700649
0.000672203
0.000646955
0.00062454
0.000604989
0.000587439
0.000572347
0.000558698
0.000546801
0.000535223
0.00052721
0.000515887
0.000852055
0.000850712
0.000843896
0.000832285
0.000814463
0.00079488
0.000773601
0.000752608
0.000732719
0.000714073
0.000697056
0.000681263
0.000667274
0.000654095
0.000642542
0.000631227
0.000622809
0.000611704
0.000851629
0.000851224
0.000848995
0.000844779
0.000837076
0.000827153
0.000815315
0.0008024
0.000789165
0.000775946
0.000763227
0.000750921
0.000739517
0.000728537
0.000718731
0.000708743
0.000701062
0.000691244
0.000851544
0.00085098
0.00085002
0.000848506
0.000845578
0.000841275
0.000835636
0.000828875
0.00082137
0.000813341
0.000805157
0.000796847
0.0007888
0.000780753
0.000773376
0.000765661
0.000759443
0.000751649
0.000851556
0.000850831
0.000850075
0.000849235
0.000847925
0.000845976
0.000843303
0.000839889
0.000835862
0.000831297
0.000826406
0.000821208
0.000815978
0.000810551
0.000805426
0.000799944
0.000795347
0.000789606
0.000851574
0.000850774
0.000850021
0.000849312
0.000848521
0.000847529
0.00084625
0.000844608
0.000842613
0.000840253
0.000837617
0.000834693
0.00083164
0.000828352
0.000825145
0.000821624
0.000818568
0.000814708
0.000851583
0.000850759
0.000849987
0.000849271
0.000848587
0.000847892
0.000847144
0.000846294
0.000845321
0.00084419
0.000842921
0.000841486
0.000839952
0.000838252
0.000836544
0.000834624
0.00083289
0.000830704
0.000851584
0.000850755
0.000849975
0.000849243
0.000848558
0.000847908
0.000847282
0.000846661
0.000846034
0.000845379
0.000844696
0.000843961
0.000843195
0.000842361
0.000841518
0.00084058
0.000839696
0.000838635
0.000851584
0.000850752
0.000849968
0.00084923
0.000848536
0.000847882
0.000847265
0.000846678
0.000846117
0.000845575
0.00084505
0.000844531
0.000844021
0.000843506
0.000843
0.000842477
0.000841973
0.000841431
0.000851583
0.000850749
0.000849963
0.000849221
0.000848523
0.000847863
0.00084724
0.000846651
0.000846093
0.000845562
0.000845057
0.000844574
0.000844113
0.000843669
0.000843243
0.000842828
0.000842432
0.00084204
0.000851583
0.000850748
0.00084996
0.000849216
0.000848515
0.000847852
0.000847225
0.000846632
0.000846069
0.000845535
0.000845028
0.000844545
0.000844085
0.000843646
0.000843227
0.000842826
0.000842443
0.000842077
0.000851583
0.000850748
0.000849959
0.000849215
0.000848512
0.000847848
0.000847219
0.000846624
0.000846058
0.000845521
0.000845009
0.000844521
0.000844054
0.000843608
0.00084318
0.00084277
0.000842374
0.000841996
0.000851583
0.000850749
0.000849961
0.000849219
0.000848517
0.000847853
0.000847223
0.000846622
0.000846044
0.000845486
0.000844943
0.000844412
0.000843887
0.000843371
0.000842853
0.000842346
0.000841828
0.000841332
0.000851583
0.00085075
0.000849966
0.000849227
0.000848524
0.000847841
0.000847163
0.000846475
0.000845758
0.000845006
0.000844206
0.000843362
0.000842462
0.000841524
0.000840526
0.000839516
0.000838424
0.000837391
0.000851574
0.000850756
0.000849987
0.000849223
0.000848393
0.000847427
0.000846265
0.000844871
0.000843229
0.000841353
0.00083925
0.000836969
0.000834513
0.00083196
0.000829269
0.000826594
0.000823747
0.00082113
0.000851515
0.000850852
0.000849952
0.000848592
0.000846507
0.000843537
0.000839672
0.000835023
0.000829728
0.000823973
0.000817886
0.000811642
0.000805292
0.000799019
0.000792735
0.000786755
0.000780654
0.000775255
0.000851373
0.000851109
0.000847811
0.000842149
0.000833629
0.000822668
0.000810116
0.000796728
0.000783065
0.000769572
0.000756448
0.000743942
0.000732015
0.000720866
0.000710285
0.000700607
0.000691099
0.000683008
0.000851034
0.000847912
0.000829741
0.000808611
0.000781185
0.000752353
0.000724527
0.000698574
0.000674887
0.000653505
0.000634196
0.000616959
0.000601305
0.000587423
0.000574838
0.000563318
0.000552657
0.000543675
0.000844866
0.000817214
0.000760136
0.00069864
0.00064438
0.000598141
0.00055975
0.000527567
0.000500727
0.000477989
0.000458593
0.000442055
0.000427496
0.000415086
0.000403866
0.000394076
0.000384804
0.000377567
0.000806517
0.000691522
0.000565918
0.000481377
0.000422144
0.000378325
0.000345558
0.000319849
0.000299748
0.000283174
0.000269718
0.000258409
0.000248342
0.000240248
0.000232641
0.000226667
0.000220489
0.00021602
0.000657038
0.000394915
0.000291313
0.000235848
0.000199293
0.000174187
0.000156599
0.000143376
0.000133459
0.000125394
0.000118748
0.000113609
0.000109062
0.000105499
0.000102109
9.95651e-05
9.69079e-05
9.50526e-05
0.000258322
0.000128347
9.45274e-05
7.58822e-05
6.45438e-05
5.71648e-05
5.25899e-05
4.93409e-05
4.69783e-05
4.54352e-05
4.43012e-05
4.3544e-05
4.29748e-05
4.26411e-05
4.23825e-05
4.22914e-05
4.2208e-05
4.22605e-05
3.13102e-05
3.48374e-05
3.67037e-05
3.75972e-05
3.77954e-05
3.77121e-05
3.74897e-05
3.71248e-05
3.67323e-05
3.63422e-05
3.59703e-05
3.56247e-05
3.53077e-05
3.50191e-05
3.47574e-05
3.45204e-05
3.43054e-05
3.41105e-05
1.6472e-06
4.33817e-06
5.14241e-06
5.85912e-06
6.45977e-06
6.95679e-06
7.36942e-06
7.71508e-06
8.00788e-06
8.26018e-06
8.48646e-06
8.69933e-06
8.90237e-06
9.10117e-06
9.30002e-06
9.50166e-06
9.70668e-06
9.91472e-06
1.01246e-05
1.03365e-05
1.05545e-05
1.07956e-05
1.11023e-05
1.14794e-05
1.18948e-05
1.23354e-05
1.27987e-05
1.32863e-05
1.38004e-05
1.43433e-05
1.49162e-05
1.55194e-05
1.61518e-05
1.68117e-05
1.74961e-05
1.8202e-05
1.89257e-05
1.96645e-05
2.04149e-05
2.117e-05
2.19267e-05
2.26823e-05
2.34342e-05
2.4181e-05
2.49207e-05
2.56527e-05
2.6376e-05
2.70903e-05
2.77951e-05
2.84907e-05
2.91768e-05
2.9854e-05
3.05222e-05
3.1182e-05
3.18335e-05
3.24772e-05
3.31134e-05
3.37425e-05
3.43646e-05
3.49803e-05
3.55896e-05
3.61929e-05
3.67903e-05
3.7382e-05
3.79681e-05
3.85488e-05
3.91239e-05
3.96937e-05
4.0258e-05
4.0817e-05
4.13703e-05
4.19183e-05
4.24606e-05
4.29974e-05
4.35286e-05
4.40543e-05
4.45747e-05
4.50906e-05
4.56025e-05
4.61122e-05
4.6622e-05
4.71365e-05
4.76623e-05
4.81714e-05
4.86761e-05
4.9168e-05
4.96516e-05
5.0124e-05
5.0586e-05
5.10366e-05
5.14756e-05
5.1902e-05
5.23153e-05
5.27147e-05
5.30996e-05
5.34694e-05
5.3824e-05
5.41645e-05
5.4495e-05
5.481e-05
5.5112e-05
5.54e-05
5.56742e-05
5.59343e-05
5.618e-05
5.64113e-05
5.66279e-05
5.68297e-05
5.70165e-05
5.71881e-05
5.73445e-05
5.74855e-05
5.7611e-05
5.77209e-05
5.78152e-05
5.78939e-05
5.79568e-05
5.80041e-05
5.80356e-05
5.80516e-05
5.80519e-05
5.80367e-05
5.80059e-05
5.79595e-05
5.78971e-05
5.78205e-05
5.77339e-05
5.76275e-05
5.75074e-05
5.73687e-05
5.72167e-05
5.70538e-05
5.68756e-05
5.66843e-05
5.64793e-05
5.62613e-05
5.60304e-05
5.57871e-05
5.55321e-05
5.52652e-05
5.49868e-05
5.46972e-05
5.43966e-05
5.40856e-05
5.37642e-05
5.34331e-05
5.30924e-05
5.27426e-05
5.2384e-05
5.20171e-05
5.16423e-05
5.12601e-05
5.08708e-05
5.04752e-05
5.00739e-05
4.9668e-05
4.92585e-05
4.8873e-05
4.86326e-05
4.84217e-05
4.82106e-05
4.79963e-05
4.77786e-05
4.75575e-05
4.73331e-05
4.71079e-05
4.68819e-05
4.66543e-05
4.64254e-05
4.61949e-05
4.59631e-05
4.57296e-05
4.54935e-05
4.52541e-05
4.50096e-05
4.47571e-05
4.44905e-05
4.41918e-05
4.38514e-05
4.27793e-05
2.40257e-06
8.46075e-06
1.89443e-05
2.88063e-05
3.63998e-05
4.20683e-05
4.63125e-05
4.95705e-05
5.21585e-05
5.42662e-05
5.59828e-05
5.74766e-05
5.89474e-05
6.04707e-05
6.20582e-05
6.3688e-05
6.5323e-05
6.69212e-05
6.8439e-05
6.98308e-05
7.10476e-05
7.20417e-05
7.28001e-05
7.33966e-05
7.3918e-05
7.44191e-05
7.49389e-05
7.55121e-05
7.61731e-05
7.69547e-05
7.78866e-05
7.8993e-05
8.02917e-05
8.17939e-05
8.35035e-05
8.54184e-05
8.75306e-05
8.98663e-05
9.24589e-05
9.52797e-05
9.83145e-05
0.000101554
0.000104988
0.000108607
0.000112397
0.000116346
0.000120444
0.000124678
0.000129037
0.000133512
0.000138094
0.000142773
0.000147542
0.000152395
0.000157327
0.000162332
0.000167407
0.00017255
0.000177757
0.000183027
0.000188358
0.000193749
0.000199198
0.000204705
0.000210269
0.000215888
0.000221562
0.000227289
0.000233067
0.000238894
0.000244769
0.000250687
0.000256646
0.000262639
0.000268662
0.000274707
0.000280765
0.000286825
0.000292875
0.0002989
0.000304885
0.000310822
0.000316722
0.000322648
0.000328554
0.00033447
0.000340379
0.000346288
0.00035219
0.000358085
0.00036397
0.000369839
0.000375685
0.000381498
0.000387258
0.000392933
0.000398464
0.000403747
0.000408598
0.000413378
0.000418078
0.000422702
0.000427244
0.000431703
0.000436074
0.000440352
0.000444535
0.000448619
0.000452599
0.000456473
0.000460237
0.000463889
0.000467425
0.000470842
0.000474138
0.000477311
0.000480357
0.000483275
0.000486063
0.000488719
0.000491242
0.000493632
0.000495888
0.000498009
0.000499993
0.000501832
0.000503519
0.000505128
0.000506624
0.000507884
0.000508948
0.000509955
0.000510817
0.000511541
0.00051213
0.000512581
0.000512897
0.000513078
0.000513125
0.000513043
0.000512833
0.000512498
0.000512039
0.00051146
0.000510761
0.000509946
0.000509017
0.000507976
0.000506827
0.000505573
0.000504215
0.000502757
0.000501201
0.000499547
0.000497791
0.000495908
0.000493769
0.000490794
0.000486764
0.000482356
0.000477791
0.000473139
0.000468425
0.000463662
0.000458857
0.000454001
0.000449088
0.000444133
0.000439143
0.00043412
0.000429065
0.000423975
0.000418843
0.000413671
0.000408442
0.000403129
0.000397635
0.000391942
0.000385409
0.000365157
3.12558e-06
1.22378e-05
2.96719e-05
4.75578e-05
6.27976e-05
7.49375e-05
8.42786e-05
9.14206e-05
9.68989e-05
0.00010119
0.000104651
0.000107572
0.000110175
0.00011259
0.000114914
0.00011719
0.000119426
0.000121611
0.000123726
0.00012575
0.000127668
0.000129481
0.000131216
0.000132925
0.000134671
0.000136508
0.000138485
0.000140648
0.000143042
0.000145711
0.000148697
0.000152036
0.000155758
0.000159886
0.000164436
0.000169418
0.000175068
0.000181231
0.000187799
0.000194751
0.000202067
0.00020971
0.000217672
0.000225933
0.000234467
0.000243249
0.000252256
0.000261467
0.00027086
0.00028042
0.00029013
0.000299976
0.000309946
0.00032003
0.000330221
0.000340511
0.000350895
0.00036137
0.000371934
0.000382584
0.000393318
0.000404135
0.000415033
0.000426009
0.000437064
0.000448193
0.000459396
0.000470669
0.000482009
0.000493412
0.000504872
0.000516384
0.000527942
0.000539536
0.000551159
0.000562801
0.000574449
0.000586094
0.000597725
0.000609332
0.000620909
0.000632458
0.000643989
0.000655514
0.000667014
0.000678496
0.000689946
0.000701362
0.000712733
0.000724051
0.000735304
0.000746477
0.000757554
0.000768512
0.000779321
0.000789938
0.000800316
0.000810395
0.000820198
0.00082985
0.000839339
0.000848661
0.000857806
0.000866767
0.000875534
0.0008841
0.000892457
0.000900598
0.000908516
0.000916203
0.000923653
0.00093086
0.000937817
0.00094452
0.000950963
0.000957142
0.00096305
0.000968685
0.000974043
0.000979121
0.000983916
0.000988426
0.000992649
0.000996584
0.00100023
0.00100357
0.00100663
0.00100947
0.00101209
0.00101423
0.00101598
0.00101759
0.00101889
0.0010199
0.00102063
0.00102108
0.00102125
0.00102115
0.00102077
0.00102012
0.00101921
0.00101805
0.00101663
0.00101496
0.00101306
0.00101091
0.00100854
0.00100594
0.00100313
0.0010001
0.000996869
0.000993441
0.000989819
0.000986007
0.000981998
0.000977754
0.000973125
0.000967668
0.000961158
0.000954061
0.000946642
0.000939016
0.000931235
0.000923326
0.000915305
0.000907173
0.000898927
0.000890574
0.00088213
0.000873602
0.000864989
0.000856291
0.000847502
0.00083861
0.000829587
0.000820368
0.000810819
0.000800708
0.000788796
0.00076038
3.66965e-06
1.62896e-05
3.9634e-05
6.32817e-05
8.3492e-05
9.97913e-05
0.000112585
0.0001225
0.000130167
0.00013614
0.000140884
0.000144782
0.000148137
0.000151185
0.000154064
0.000156864
0.000159638
0.000162413
0.000165203
0.000168021
0.000170884
0.000173821
0.000176873
0.00018009
0.000183529
0.000187243
0.000191285
0.000195707
0.000200556
0.000205875
0.000211705
0.000218076
0.000225016
0.000232546
0.000240683
0.000249449
0.000258617
0.000268218
0.000278276
0.000288803
0.000299827
0.000311371
0.000323281
0.000335514
0.000348037
0.000360823
0.000373844
0.000387077
0.000400502
0.000414103
0.000427866
0.000441776
0.000455824
0.000469999
0.000484295
0.000498706
0.000513227
0.000527856
0.000542589
0.000557425
0.000572361
0.000587395
0.000602525
0.00061775
0.000633065
0.00064847
0.00066396
0.000679531
0.000695178
0.000710896
0.000726678
0.000742517
0.000758406
0.000774334
0.000790294
0.000806275
0.000822267
0.000838261
0.000854247
0.000870218
0.000886168
0.000902095
0.000917995
0.000933866
0.000949693
0.00096547
0.000981186
0.000996829
0.00101239
0.00102784
0.00104318
0.00105839
0.00107343
0.0010883
0.00110296
0.00111737
0.0011315
0.00114535
0.00115894
0.00117231
0.00118545
0.00119835
0.001211
0.00122339
0.0012355
0.00124733
0.00125886
0.00127009
0.001281
0.00129159
0.00130184
0.00131175
0.00132132
0.00133052
0.00133936
0.00134784
0.00135593
0.00136364
0.00137097
0.0013779
0.00138444
0.00139058
0.00139632
0.00140165
0.00140659
0.00141111
0.00141525
0.00141912
0.00142255
0.00142539
0.00142776
0.00142987
0.00143157
0.00143287
0.00143378
0.00143429
0.00143443
0.00143418
0.00143355
0.00143256
0.00143121
0.00142951
0.00142746
0.00142507
0.00142235
0.0014193
0.00141594
0.00141228
0.00140831
0.00140407
0.00139954
0.00139474
0.00138969
0.00138437
0.0013788
0.00137292
0.00136663
0.00135965
0.00135183
0.0013434
0.00133457
0.00132544
0.00131609
0.00130654
0.00129683
0.00128695
0.00127694
0.00126682
0.00125656
0.00124617
0.00123565
0.001225
0.00121422
0.00120329
0.00119218
0.00118083
0.00116909
0.0011566
0.00114176
0.00111231
4.05455e-06
2.08658e-05
4.97266e-05
7.7982e-05
0.000101899
0.0001212
0.000136413
0.000148283
0.000157527
0.000164784
0.000170595
0.000175403
0.000179559
0.000183329
0.000186904
0.000190414
0.000193946
0.000197557
0.000201288
0.000205173
0.000209247
0.00021355
0.000218129
0.000223034
0.000228317
0.000234032
0.000240227
0.000246947
0.000254233
0.000262116
0.000270623
0.000279768
0.000289559
0.000299992
0.000311051
0.000322708
0.000334909
0.000347651
0.00036094
0.000374722
0.000388914
0.000403431
0.000418295
0.000433486
0.000448977
0.000464739
0.000480746
0.000496971
0.000513391
0.000529999
0.000546785
0.000563736
0.00058084
0.000598088
0.000615475
0.000632993
0.000650638
0.000668405
0.000686291
0.000704293
0.000722408
0.000740632
0.000758962
0.000777395
0.000795927
0.000814554
0.00083327
0.000852071
0.000870949
0.000889898
0.000908911
0.000927979
0.000947093
0.000966245
0.000985423
0.00100462
0.00102382
0.00104302
0.00106221
0.00108138
0.00110052
0.00111962
0.00113867
0.00115767
0.00117661
0.00119546
0.00121421
0.00123286
0.00125139
0.00126977
0.001288
0.00130604
0.0013239
0.00134153
0.00135893
0.00137607
0.00139294
0.00140954
0.00142586
0.00144192
0.0014577
0.00147318
0.00148837
0.00150324
0.00151777
0.00153197
0.00154581
0.00155929
0.00157239
0.00158511
0.00159742
0.00160933
0.00162082
0.00163189
0.00164252
0.00165272
0.00166246
0.00167175
0.00168058
0.00168895
0.00169685
0.00170427
0.00171122
0.00171769
0.00172368
0.00172919
0.00173429
0.00173905
0.00174319
0.00174666
0.00174971
0.00175236
0.00175453
0.00175623
0.00175746
0.00175824
0.00175855
0.00175842
0.00175785
0.00175685
0.00175542
0.00175357
0.00175131
0.00174865
0.0017456
0.00174217
0.00173837
0.00173421
0.0017297
0.00172485
0.00171967
0.00171418
0.00170838
0.00170228
0.00169587
0.00168914
0.00168199
0.00167429
0.00166593
0.00165702
0.00164768
0.00163801
0.00162805
0.00161786
0.00160744
0.00159683
0.00158602
0.00157502
0.00156385
0.00155251
0.00154102
0.00152936
0.00151755
0.00150557
0.0014934
0.00148099
0.0014682
0.00145464
0.00143864
0.0014109
4.31676e-06
2.55272e-05
5.95193e-05
9.17302e-05
0.00011872
0.000140473
0.000157655
0.000171134
0.000181716
0.000190105
0.000196896
0.000202579
0.000207544
0.000212091
0.000216445
0.000220766
0.000225167
0.000229729
0.000234509
0.000239558
0.00024492
0.000250639
0.000256763
0.000263338
0.000270413
0.000278031
0.000286233
0.000295052
0.000304516
0.000314644
0.000325444
0.000336919
0.000349059
0.000361847
0.00037526
0.000389265
0.00040383
0.000418926
0.000434523
0.000450574
0.000467031
0.000483855
0.000501026
0.000518521
0.000536314
0.000554381
0.000572701
0.000591254
0.00061003
0.000629001
0.000648151
0.000667467
0.000686938
0.000706557
0.000726314
0.000746204
0.000766221
0.000786359
0.000806615
0.000826985
0.000847463
0.000868046
0.00088873
0.00090951
0.000930382
0.00095134
0.00097238
0.000993494
0.00101468
0.00103592
0.00105722
0.00107856
0.00109994
0.00112135
0.00114278
0.00116422
0.00118565
0.00120708
0.00122849
0.00124987
0.00127121
0.0012925
0.00131373
0.00133489
0.00135596
0.00137693
0.00139778
0.00141851
0.00143909
0.00145951
0.00147975
0.0014998
0.00151963
0.00153923
0.00155859
0.00157769
0.00159651
0.00161505
0.00163331
0.00165126
0.00166891
0.00168623
0.00170322
0.00171986
0.00173614
0.00175204
0.00176755
0.00178265
0.00179735
0.00181161
0.00182544
0.00183883
0.00185175
0.00186421
0.00187619
0.00188768
0.00189869
0.00190919
0.00191919
0.00192867
0.00193764
0.00194609
0.00195402
0.00196142
0.00196829
0.00197464
0.00198061
0.00198605
0.00199086
0.00199497
0.00199869
0.00200188
0.00200456
0.00200673
0.00200838
0.00200953
0.00201018
0.00201034
0.00201002
0.00200922
0.00200795
0.00200623
0.00200406
0.00200146
0.00199842
0.00199497
0.00199111
0.00198686
0.00198223
0.00197723
0.00197187
0.00196617
0.00196013
0.00195377
0.00194708
0.00194005
0.00193263
0.00192474
0.00191633
0.00190743
0.00189811
0.00188843
0.00187845
0.00186819
0.00185769
0.00184695
0.00183599
0.00182481
0.00181343
0.00180186
0.0017901
0.00177816
0.00176605
0.00175376
0.00174129
0.0017286
0.00171557
0.00170183
0.00168583
0.00166064
4.48876e-06
3.02152e-05
6.88107e-05
0.000104403
0.000134028
0.00015792
0.000176866
0.000191826
0.000203673
0.000213162
0.000220932
0.000227509
0.000233315
0.000238683
0.000243862
0.000249038
0.000254347
0.000259886
0.000265728
0.000271931
0.000278546
0.000285618
0.00029319
0.000301304
0.000309999
0.000319308
0.000329261
0.000339879
0.000351177
0.00036316
0.000375828
0.000389171
0.000403171
0.000417805
0.000433046
0.000448861
0.000465218
0.000482083
0.000499422
0.000517196
0.000535369
0.000553912
0.000572797
0.000592
0.000611498
0.000631266
0.000651283
0.00067153
0.00069199
0.000712642
0.000733473
0.000754469
0.000775621
0.000796917
0.000818352
0.000839916
0.000861604
0.000883411
0.00090533
0.000927356
0.000949486
0.000971713
0.000994034
0.00101644
0.00103894
0.0010615
0.00108415
0.00110685
0.00112962
0.00115244
0.00117531
0.00119821
0.00122114
0.00124409
0.00126706
0.00129003
0.00131299
0.00133594
0.00135886
0.00138174
0.00140458
0.00142736
0.00145007
0.0014727
0.00149524
0.00151766
0.00153996
0.00156212
0.00158412
0.00160596
0.00162761
0.00164906
0.00167029
0.00169129
0.00171205
0.00173254
0.00175275
0.00177268
0.0017923
0.00181162
0.00183062
0.00184927
0.00186758
0.00188551
0.00190307
0.00192023
0.00193698
0.00195331
0.00196921
0.00198465
0.00199964
0.00201415
0.00202819
0.00204172
0.00205476
0.00206729
0.00207929
0.00209077
0.00210171
0.00211212
0.00212197
0.00213128
0.00214003
0.00214823
0.00215586
0.00216298
0.00216969
0.00217575
0.00218117
0.00218594
0.00219027
0.00219403
0.00219724
0.00219991
0.00220204
0.00220364
0.00220472
0.00220528
0.00220533
0.00220488
0.00220394
0.00220252
0.00220063
0.00219828
0.00219549
0.00219225
0.0021886
0.00218453
0.00218007
0.00217522
0.00216999
0.00216441
0.00215849
0.00215222
0.00214562
0.00213868
0.00213138
0.00212366
0.0021155
0.00210691
0.00209793
0.0020886
0.00207895
0.00206901
0.00205879
0.00204833
0.00203762
0.00202668
0.00201551
0.00200414
0.00199256
0.00198078
0.00196883
0.0019567
0.00194441
0.00193192
0.00191918
0.00190582
0.00189053
0.0018686
4.59573e-06
3.4696e-05
7.7222e-05
0.000115679
0.000147628
0.000173488
0.000194119
0.000210537
0.000223659
0.000234278
0.000243065
0.000250577
0.000257266
0.000263487
0.000269516
0.00027556
0.000281773
0.000288266
0.000295124
0.000302412
0.000310182
0.000318478
0.000327338
0.000336797
0.000346884
0.000357623
0.000369031
0.00038112
0.000393893
0.000407348
0.000421476
0.000436261
0.000451682
0.000467713
0.000484324
0.000501482
0.000519156
0.000537313
0.000555919
0.000574942
0.000594352
0.00061412
0.000634222
0.000654632
0.00067533
0.00069629
0.000717492
0.000738914
0.000760537
0.000782344
0.000804322
0.000826458
0.000848741
0.000871161
0.000893711
0.000916382
0.000939168
0.000962062
0.000985059
0.00100815
0.00103134
0.00105461
0.00107797
0.0011014
0.00112491
0.00114849
0.00117212
0.00119582
0.00121956
0.00124335
0.00126718
0.00129104
0.00131493
0.00133883
0.00136274
0.00138666
0.00141056
0.00143446
0.00145833
0.00148216
0.00150594
0.00152967
0.00155334
0.00157692
0.0016004
0.00162378
0.00164704
0.00167016
0.00169313
0.00171594
0.00173857
0.00176101
0.00178323
0.00180522
0.00182698
0.00184848
0.00186971
0.00189065
0.0019113
0.00193164
0.00195164
0.00197131
0.00199062
0.00200956
0.00202811
0.00204626
0.00206399
0.00208129
0.00209814
0.00211454
0.00213046
0.0021459
0.00216084
0.00217528
0.0021892
0.00220259
0.00221544
0.00222775
0.00223951
0.00225071
0.00226134
0.0022714
0.00228089
0.0022898
0.00229813
0.00230598
0.00231328
0.00231996
0.00232598
0.00233142
0.00233633
0.00234066
0.00234443
0.00234762
0.00235027
0.00235236
0.00235392
0.00235494
0.00235545
0.00235544
0.00235492
0.00235392
0.00235243
0.00235048
0.00234807
0.00234521
0.00234192
0.00233822
0.00233411
0.00232961
0.00232474
0.0023195
0.00231391
0.00230799
0.00230173
0.00229514
0.0022882
0.0022809
0.00227321
0.00226514
0.00225671
0.00224793
0.00223884
0.00222946
0.00221979
0.00220986
0.00219968
0.00218925
0.00217858
0.00216769
0.00215658
0.00214528
0.00213379
0.00212214
0.00211034
0.00209839
0.00208625
0.00207362
0.0020594
0.00204048
4.69667e-06
3.81662e-05
8.38681e-05
0.000124922
0.000159102
0.000186935
0.000209287
0.000227213
0.000241664
0.000253466
0.000263323
0.000271817
0.000279424
0.000286524
0.000293412
0.000300315
0.000307401
0.000314795
0.000322591
0.000330858
0.00033965
0.000349008
0.000358965
0.000369549
0.000380782
0.000392678
0.000405245
0.000418485
0.000432393
0.00044696
0.000462172
0.000478014
0.00049447
0.000511506
0.000529089
0.000547186
0.000565767
0.000584801
0.000604257
0.000624106
0.000644322
0.000664877
0.000685749
0.000706916
0.000728363
0.000750065
0.000771997
0.000794134
0.000816455
0.000838943
0.000861584
0.000884367
0.000907282
0.00093032
0.000953473
0.000976734
0.0010001
0.00102355
0.0010471
0.00107073
0.00109444
0.00111823
0.00114209
0.00116601
0.00119001
0.00121406
0.00123817
0.00126233
0.00128654
0.00131079
0.00133509
0.00135941
0.00138377
0.00140815
0.00143254
0.00145695
0.00148135
0.00150576
0.00153014
0.00155451
0.00157884
0.00160312
0.00162736
0.00165152
0.00167561
0.0016996
0.00172349
0.00174726
0.00177089
0.00179438
0.0018177
0.00184085
0.0018638
0.00188654
0.00190905
0.00193132
0.00195333
0.00197507
0.00199653
0.00201767
0.0020385
0.00205899
0.00207912
0.00209889
0.00211827
0.00213725
0.00215581
0.00217393
0.00219161
0.00220883
0.00222557
0.00224182
0.00225756
0.00227279
0.0022875
0.00230167
0.00231529
0.00232835
0.00234085
0.00235278
0.00236413
0.00237489
0.00238507
0.00239465
0.00240365
0.00241215
0.00242003
0.00242733
0.00243397
0.00244006
0.00244556
0.00245047
0.00245479
0.00245853
0.00246172
0.00246434
0.00246642
0.00246796
0.00246897
0.00246946
0.00246944
0.00246892
0.00246793
0.00246646
0.00246453
0.00246215
0.00245935
0.00245613
0.0024525
0.00244849
0.00244411
0.00243937
0.00243428
0.00242886
0.00242312
0.00241705
0.00241067
0.00240394
0.00239688
0.00238947
0.00238173
0.00237366
0.00236529
0.00235662
0.00234768
0.00233847
0.00232899
0.00231926
0.00230929
0.00229909
0.00228867
0.00227804
0.00226724
0.00225628
0.00224519
0.00223399
0.00222265
0.00221094
0.00219797
0.00218168
5.02237e-06
3.90441e-05
8.73449e-05
0.000131302
0.000167977
0.000197993
0.000222202
0.000241728
0.000257578
0.000270622
0.000281594
0.000291107
0.000299658
0.000307647
0.000315389
0.000323124
0.000331035
0.000339259
0.000347895
0.000357017
0.000366681
0.000376925
0.000387778
0.00039926
0.000411388
0.000424177
0.000437626
0.000451725
0.000466458
0.000481806
0.000497743
0.000514229
0.00053129
0.0005489
0.000567031
0.000585653
0.000604738
0.000624257
0.000644182
0.000664486
0.000685144
0.00070613
0.00072742
0.000748991
0.000770816
0.000792827
0.000815072
0.000837498
0.000860078
0.000882794
0.000905636
0.000928594
0.000951662
0.000974832
0.000998098
0.00102145
0.0010449
0.00106842
0.00109202
0.00111569
0.00113943
0.00116325
0.00118713
0.00121107
0.00123508
0.00125915
0.00128327
0.00130746
0.0013317
0.001356
0.00138035
0.00140474
0.00142919
0.00145367
0.00147818
0.00150273
0.00152731
0.0015519
0.0015765
0.0016011
0.0016257
0.00165027
0.00167482
0.00169933
0.00172379
0.00174818
0.0017725
0.00179672
0.00182083
0.00184482
0.00186868
0.00189238
0.0019159
0.00193924
0.00196238
0.00198529
0.00200796
0.00203038
0.00205252
0.00207437
0.00209591
0.00211712
0.00213799
0.0021585
0.00217863
0.00219836
0.00221768
0.00223656
0.002255
0.00227298
0.00229047
0.00230748
0.00232398
0.00233996
0.00235541
0.00237032
0.00238467
0.00239846
0.00241167
0.0024243
0.00243635
0.0024478
0.00245865
0.00246889
0.00247856
0.00248766
0.00249615
0.00250406
0.00251136
0.00251809
0.0025242
0.00252968
0.00253458
0.0025389
0.00254265
0.00254584
0.00254848
0.00255057
0.00255213
0.00255317
0.0025537
0.00255373
0.00255328
0.00255236
0.00255099
0.00254918
0.00254694
0.00254429
0.00254124
0.00253782
0.00253403
0.0025299
0.00252543
0.00252063
0.00251553
0.00251012
0.00250441
0.00249839
0.00249206
0.00248543
0.00247848
0.00247123
0.00246369
0.00245587
0.00244778
0.00243941
0.00243079
0.00242191
0.00241278
0.00240342
0.00239383
0.00238404
0.00237408
0.00236396
0.00235374
0.00234343
0.00233303
0.00232235
0.00231067
0.0022967
5.35356e-06
3.89827e-05
8.89984e-05
0.000135498
0.000174549
0.000206746
0.000232843
0.000254008
0.000271293
0.000285608
0.000297721
0.000308268
0.000317768
0.000326638
0.000335207
0.00034373
0.000352402
0.000361368
0.000370732
0.000380572
0.000390948
0.000401909
0.000413462
0.000425609
0.000438341
0.000451627
0.00046554
0.000480074
0.000495217
0.000510955
0.000527276
0.00054418
0.000561638
0.000579601
0.000598037
0.000616914
0.000636206
0.000655885
0.000675925
0.0006963
0.000716983
0.000737951
0.000759181
0.000780656
0.000802355
0.000824298
0.000846473
0.000868783
0.000891195
0.000913689
0.000936265
0.000958922
0.00098166
0.00100448
0.00102737
0.00105033
0.00107337
0.00109648
0.00111965
0.0011429
0.00116622
0.0011896
0.00121306
0.0012366
0.00126021
0.00128389
0.00130766
0.0013315
0.00135542
0.00137943
0.00140351
0.00142767
0.00145191
0.00147623
0.00150062
0.00152507
0.00154959
0.00157416
0.00159879
0.00162345
0.00164815
0.00167286
0.00169759
0.00172232
0.00174703
0.00177171
0.00179635
0.00182093
0.00184544
0.00186985
0.00189416
0.00191835
0.00194239
0.00196627
0.00198997
0.00201348
0.00203676
0.00205981
0.0020826
0.00210511
0.00212733
0.00214924
0.00217081
0.00219203
0.00221288
0.00223334
0.00225339
0.00227301
0.00229219
0.00231091
0.00232915
0.0023469
0.00236415
0.00238087
0.00239706
0.00241269
0.00242777
0.00244228
0.00245621
0.00246955
0.00248229
0.00249443
0.00250596
0.00251689
0.00252721
0.00253692
0.00254605
0.00255461
0.00256257
0.00256997
0.0025767
0.00258279
0.00258829
0.00259322
0.00259757
0.00260135
0.00260458
0.00260727
0.00260942
0.00261106
0.00261218
0.00261282
0.00261297
0.00261267
0.00261191
0.00261072
0.00260912
0.00260711
0.00260472
0.00260197
0.00259886
0.00259542
0.00259165
0.00258758
0.00258321
0.00257856
0.00257363
0.00256841
0.00256292
0.00255714
0.00255108
0.00254475
0.00253814
0.00253126
0.00252411
0.0025167
0.00250904
0.00250112
0.00249295
0.00248455
0.00247592
0.00246709
0.00245808
0.00244893
0.00243968
0.00243036
0.00242098
0.0024114
0.00240103
0.00238912
5.65208e-06
3.84534e-05
8.9458e-05
0.000137983
0.000179158
0.00021333