/*--------------------------------*- C++ -*----------------------------------*\
| =========                 |                                                 |
| \\      /  F ield         | OpenFOAM: The Open Source CFD Toolbox           |
|  \\    /   O peration     | Version:  2312                                  |
|   \\  /    A nd           | Website:  www.openfoam.com                      |
|    \\/     M anipulation  |                                                 |
\*---------------------------------------------------------------------------*/
FoamFile
{
    version     2.0;
    format      ascii;
    arch        "LSB;label=32;scalar=64";
    class       surfaceScalarField;
    location    "250";
    object      phi;
}
// * * * * * * * * * * * * * * * * * * * * * * * * * * * * * * * * * * * * * //

dimensions      [0 3 -1 0 0 0 0];

oriented        oriented;

internalField   nonuniform List<scalar> 
24170
(
1.53242e-06
6.17809e-08
1.447e-06
8.54268e-08
1.37258e-06
7.44157e-08
1.30258e-06
6.99997e-08
1.23846e-06
6.41163e-08
1.18304e-06
5.54249e-08
1.13669e-06
4.63432e-08
1.09838e-06
3.83118e-08
1.06671e-06
3.16736e-08
1.04043e-06
2.62814e-08
1.01853e-06
2.18994e-08
1.0002e-06
1.83268e-08
9.84836e-07
1.53646e-08
9.72016e-07
1.28203e-08
9.61527e-07
1.04885e-08
9.5319e-07
8.33777e-09
9.46704e-07
6.48525e-09
2.34368e-09
9.4436e-07
1.74833e-06
2.20773e-08
1.75312e-06
8.06375e-08
1.74302e-06
8.45126e-08
1.72705e-06
8.59734e-08
1.70651e-06
8.46507e-08
1.68301e-06
7.89279e-08
1.65803e-06
7.13192e-08
1.63268e-06
6.36621e-08
1.60782e-06
5.65359e-08
1.58403e-06
5.00672e-08
1.56167e-06
4.42611e-08
1.54093e-06
3.90684e-08
1.5219e-06
3.43933e-08
1.5046e-06
3.01244e-08
1.48902e-06
2.60685e-08
1.47522e-06
2.21376e-08
1.46381e-06
1.78945e-08
1.14218e-08
1.45473e-06
1.83576e-06
1.75751e-08
1.84805e-06
6.83463e-08
1.85522e-06
7.73415e-08
1.86076e-06
8.04408e-08
1.86374e-06
8.16674e-08
1.86366e-06
7.9004e-08
1.86098e-06
7.40032e-08
1.8563e-06
6.83441e-08
1.85015e-06
6.26805e-08
1.84301e-06
5.72076e-08
1.83526e-06
5.20093e-08
1.82722e-06
4.71125e-08
1.81913e-06
4.24863e-08
1.81119e-06
3.80591e-08
1.80357e-06
3.36918e-08
1.79651e-06
2.91972e-08
1.79016e-06
2.42424e-08
1.77679e-08
1.78381e-06
1.96288e-06
1.7386e-08
1.97288e-06
5.83512e-08
1.98013e-06
7.00896e-08
1.98644e-06
7.41265e-08
1.99184e-06
7.62682e-08
1.99582e-06
7.50307e-08
1.99844e-06
7.13766e-08
1.99996e-06
6.68298e-08
2.00055e-06
6.20889e-08
2.00039e-06
5.73702e-08
1.99963e-06
5.27615e-08
1.99844e-06
4.83054e-08
1.99694e-06
4.39846e-08
1.99526e-06
3.97416e-08
1.99349e-06
3.54607e-08
1.99172e-06
3.09644e-08
1.98988e-06
2.60823e-08
2.02395e-08
1.98741e-06
2.10464e-06
1.63124e-08
2.11225e-06
5.07387e-08
2.11851e-06
6.38305e-08
2.12407e-06
6.8562e-08
2.12933e-06
7.1007e-08
2.13389e-06
7.04718e-08
2.13765e-06
6.76172e-08
2.14071e-06
6.37704e-08
2.14318e-06
5.96241e-08
2.14514e-06
5.54055e-08
2.1467e-06
5.12068e-08
2.14792e-06
4.70771e-08
2.1489e-06
4.30085e-08
2.14969e-06
3.89537e-08
2.15033e-06
3.48206e-08
2.15081e-06
3.04789e-08
2.15105e-06
2.58416e-08
2.06384e-08
2.15066e-06
2.25611e-06
1.47463e-08
2.26226e-06
4.45888e-08
2.26805e-06
5.80402e-08
2.27333e-06
6.328e-08
2.27845e-06
6.58843e-08
2.28313e-06
6.57973e-08
2.28721e-06
6.35362e-08
2.29075e-06
6.0227e-08
2.29385e-06
5.65284e-08
2.29657e-06
5.26823e-08
2.29899e-06
4.8792e-08
2.30115e-06
4.49127e-08
2.30311e-06
4.10483e-08
2.3049e-06
3.71637e-08
2.30653e-06
3.31947e-08
2.30795e-06
2.90555e-08
2.30908e-06
2.47135e-08
2.008e-08
2.30964e-06
2.41791e-06
1.31918e-08
2.42331e-06
3.91884e-08
2.42891e-06
5.2448e-08
2.43411e-06
5.80784e-08
2.43916e-06
6.08294e-08
2.44388e-06
6.10847e-08
2.4481e-06
5.93089e-08
2.45188e-06
5.64534e-08
2.45527e-06
5.31317e-08
2.45836e-06
4.95975e-08
2.46118e-06
4.5967e-08
2.46379e-06
4.23038e-08
2.46622e-06
3.86239e-08
2.46847e-06
3.49077e-08
2.47055e-06
3.11172e-08
2.4724e-06
2.72056e-08
2.47394e-06
2.31777e-08
1.90372e-08
2.47498e-06
2.59123e-06
1.17519e-08
2.59612e-06
3.43013e-08
2.60154e-06
4.70258e-08
2.60671e-06
5.29077e-08
2.61175e-06
5.57858e-08
2.61652e-06
5.6319e-08
2.62087e-06
5.49575e-08
2.62482e-06
5.25054e-08
2.62842e-06
4.95253e-08
2.63175e-06
4.62771e-08
2.63482e-06
4.28886e-08
2.6377e-06
3.94321e-08
2.64038e-06
3.59367e-08
2.64289e-06
3.23995e-08
2.6452e-06
2.88054e-08
2.64727e-06
2.51392e-08
2.64902e-06
2.14277e-08
1.77157e-08
2.65034e-06
2.77702e-06
1.03993e-08
2.78144e-06
2.98835e-08
2.78665e-06
4.18171e-08
2.79178e-06
4.77723e-08
2.79684e-06
5.07254e-08
2.80168e-06
5.14802e-08
2.80616e-06
5.04769e-08
2.81028e-06
4.83919e-08
2.81407e-06
4.57335e-08
2.81758e-06
4.27617e-08
2.82086e-06
3.96131e-08
2.82392e-06
3.63683e-08
2.82679e-06
3.30687e-08
2.82946e-06
2.97277e-08
2.83192e-06
2.63495e-08
2.83412e-06
2.29417e-08
2.836e-06
1.95426e-08
1.62112e-08
2.83751e-06
2.97617e-06
9.12041e-09
2.98015e-06
2.58993e-08
2.98511e-06
3.68585e-08
2.99018e-06
4.2703e-08
2.99525e-06
4.56587e-08
3.00015e-06
4.65722e-08
3.00476e-06
4.58706e-08
3.00903e-06
4.41173e-08
3.013e-06
4.17643e-08
3.0167e-06
3.9065e-08
3.02015e-06
3.61609e-08
3.02338e-06
3.31394e-08
3.0264e-06
3.00524e-08
3.0292e-06
2.69273e-08
3.03176e-06
2.37838e-08
3.03406e-06
2.06442e-08
3.03605e-06
1.75514e-08
1.45654e-08
3.0377e-06
3.18961e-06
7.91758e-09
3.19321e-06
2.23021e-08
3.1979e-06
3.21666e-08
3.20287e-06
3.77351e-08
3.20791e-06
4.06171e-08
3.21286e-06
4.16215e-08
3.21757e-06
4.11587e-08
3.22199e-06
3.96962e-08
3.22613e-06
3.7629e-08
3.22999e-06
3.51973e-08
3.23361e-06
3.25429e-08
3.23699e-06
2.97573e-08
3.24015e-06
2.69004e-08
3.24306e-06
2.40103e-08
3.24573e-06
2.11175e-08
3.24812e-06
1.82531e-08
3.25021e-06
1.54601e-08
1.27937e-08
3.25198e-06
2.87138e-06
6.95356e-09
2.87415e-06
1.95352e-08
2.87791e-06
2.84093e-08
2.88201e-06
3.36319e-08
2.88623e-06
3.63998e-08
2.89042e-06
3.74318e-08
2.89445e-06
3.71195e-08
2.89828e-06
3.58674e-08
2.90189e-06
3.40229e-08
2.90528e-06
3.18103e-08
2.90845e-06
2.93682e-08
2.91142e-06
2.67897e-08
2.91418e-06
2.41384e-08
2.91673e-06
2.14587e-08
2.91906e-06
1.87871e-08
2.92116e-06
1.61586e-08
2.923e-06
1.36137e-08
1.12034e-08
2.92459e-06
3.50011e-06
5.92493e-09
3.50304e-06
1.66024e-08
3.50711e-06
2.43418e-08
3.51166e-06
2.90765e-08
3.51642e-06
3.16417e-08
3.5212e-06
3.26486e-08
3.52587e-06
3.24562e-08
3.53033e-06
3.14041e-08
3.53456e-06
2.97892e-08
3.53856e-06
2.78154e-08
3.54231e-06
2.56146e-08
3.54582e-06
2.3278e-08
3.54909e-06
2.08712e-08
3.55211e-06
1.84424e-08
3.55486e-06
1.60314e-08
3.55735e-06
1.36742e-08
3.55955e-06
1.14074e-08
9.27639e-09
3.56148e-06
4.26651e-06
4.84038e-09
4.26957e-06
1.35403e-08
4.27391e-06
2.0002e-08
4.27889e-06
2.40922e-08
4.28419e-06
2.63488e-08
4.28957e-06
2.72607e-08
4.29489e-06
2.71415e-08
4.30003e-06
2.62662e-08
4.30494e-06
2.4879e-08
4.30959e-06
2.3158e-08
4.31399e-06
2.12242e-08
4.3181e-06
1.91638e-08
4.32193e-06
1.70405e-08
4.32547e-06
1.49032e-08
4.32871e-06
1.27917e-08
4.33164e-06
1.07405e-08
4.33427e-06
8.78108e-09
6.95159e-09
4.33659e-06
5.20074e-06
3.71e-09
5.2039e-06
1.03803e-08
5.20848e-06
1.54262e-08
5.21386e-06
1.87055e-08
5.21968e-06
2.05324e-08
5.22567e-06
2.12646e-08
5.23166e-06
2.11575e-08
5.2375e-06
2.04241e-08
5.24313e-06
1.9254e-08
5.24849e-06
1.77941e-08
5.25356e-06
1.61494e-08
5.25833e-06
1.43965e-08
5.26278e-06
1.25935e-08
5.2669e-06
1.07858e-08
5.27068e-06
9.01011e-09
5.27412e-06
7.29687e-09
5.27723e-06
5.67132e-09
4.16457e-09
5.28002e-06
6.33956e-06
2.54269e-09
6.34281e-06
7.12935e-09
6.34761e-06
1.06307e-08
6.35338e-06
1.29307e-08
6.35972e-06
1.41922e-08
6.36634e-06
1.46469e-08
6.37302e-06
1.44798e-08
6.3796e-06
1.38433e-08
6.38598e-06
1.28723e-08
6.3921e-06
1.16769e-08
6.39791e-06
1.03396e-08
6.40338e-06
8.92236e-09
6.4085e-06
7.47327e-09
6.41326e-06
6.03016e-09
6.41764e-06
4.62323e-09
6.42166e-06
3.2769e-09
6.42533e-06
2.00987e-09
8.46231e-10
6.42864e-06
7.7278e-06
1.33334e-09
7.73118e-06
3.75226e-09
7.73623e-06
5.57628e-09
7.74243e-06
6.72862e-09
7.74935e-06
7.27909e-09
7.75664e-06
7.34865e-09
7.76408e-06
7.04381e-09
7.77147e-06
6.45411e-09
7.77868e-06
5.65975e-09
7.78563e-06
4.72881e-09
7.79225e-06
3.71491e-09
7.79852e-06
2.65965e-09
7.80439e-06
1.59599e-09
7.80987e-06
5.50327e-10
7.81495e-06
-4.56312e-10
7.81964e-06
-1.4073e-09
7.82394e-06
-2.29062e-09
-3.08904e-09
7.82787e-06
9.42011e-06
4.54384e-11
9.42373e-06
1.30582e-10
9.4292e-06
9.96823e-11
9.43601e-06
-7.79731e-11
9.44368e-06
-3.89576e-10
9.45184e-06
-8.12752e-10
9.46021e-06
-1.32767e-09
9.46858e-06
-1.91306e-09
9.47679e-06
-2.54618e-09
9.48472e-06
-3.2062e-09
9.49231e-06
-3.87535e-09
9.49951e-06
-4.53824e-09
9.50629e-06
-5.18142e-09
9.51263e-06
-5.7934e-09
9.51854e-06
-6.36464e-09
9.52402e-06
-6.88745e-09
9.52908e-06
-7.35659e-09
-7.76147e-09
9.53376e-06
1.14831e-05
-1.41885e-09
1.14873e-05
-4.03084e-09
1.14936e-05
-6.231e-09
1.15015e-05
-7.98028e-09
1.15104e-05
-9.31034e-09
1.152e-05
-1.03161e-08
1.15297e-05
-1.10846e-08
1.15395e-05
-1.16724e-08
1.1549e-05
-1.21224e-08
1.15583e-05
-1.24708e-08
1.15672e-05
-1.27439e-08
1.15756e-05
-1.29584e-08
1.15835e-05
-1.31243e-08
1.1591e-05
-1.32476e-08
1.1598e-05
-1.3332e-08
1.16045e-05
-1.33793e-08
1.16105e-05
-1.33909e-08
-1.33625e-08
1.16161e-05
8.40649e-06
-2.5585e-09
8.40972e-06
-7.26078e-09
8.41464e-06
-1.11505e-08
8.42073e-06
-1.40667e-08
8.42751e-06
-1.6095e-08
8.43467e-06
-1.74704e-08
8.44195e-06
-1.8371e-08
8.44919e-06
-1.89076e-08
8.45624e-06
-1.91756e-08
8.46303e-06
-1.9258e-08
8.4695e-06
-1.92139e-08
8.47562e-06
-1.90821e-08
8.48139e-06
-1.88886e-08
8.48679e-06
-1.86513e-08
8.49184e-06
-1.83818e-08
8.49655e-06
-1.80876e-08
8.50093e-06
-1.77733e-08
-1.74379e-08
8.505e-06
7.31837e-06
-3.64045e-09
7.32152e-06
-1.04122e-08
7.32634e-06
-1.59697e-08
7.33219e-06
-1.99153e-08
7.33857e-06
-2.24819e-08
7.34521e-06
-2.41129e-08
7.3519e-06
-2.50573e-08
7.35846e-06
-2.5469e-08
7.36479e-06
-2.55052e-08
7.37083e-06
-2.52973e-08
7.37655e-06
-2.49317e-08
7.38193e-06
-2.4464e-08
7.38697e-06
-2.39329e-08
7.39169e-06
-2.33651e-08
7.39608e-06
-2.27777e-08
7.40018e-06
-2.21812e-08
7.40399e-06
-2.15818e-08
-2.09801e-08
7.40753e-06
6.37105e-06
-4.62599e-09
6.37425e-06
-1.36156e-08
6.3792e-06
-2.09163e-08
6.38498e-06
-2.56927e-08
6.39111e-06
-2.86122e-08
6.39739e-06
-3.03961e-08
6.40363e-06
-3.12932e-08
6.40965e-06
-3.14965e-08
6.41539e-06
-3.12439e-08
6.42081e-06
-3.07155e-08
6.4259e-06
-3.00173e-08
6.43065e-06
-2.92167e-08
6.43508e-06
-2.83621e-08
6.4392e-06
-2.74862e-08
6.44303e-06
-2.66086e-08
6.44659e-06
-2.57409e-08
6.4499e-06
-2.48891e-08
-2.40534e-08
6.45297e-06
5.54624e-06
-5.40556e-09
5.54956e-06
-1.69316e-08
5.55477e-06
-2.61301e-08
5.56053e-06
-3.14493e-08
5.56645e-06
-3.45337e-08
5.57243e-06
-3.63735e-08
5.57826e-06
-3.71227e-08
5.5838e-06
-3.7037e-08
5.58901e-06
-3.64517e-08
5.59387e-06
-3.55835e-08
5.5984e-06
-3.45475e-08
5.60261e-06
-3.34199e-08
5.6065e-06
-3.22562e-08
5.61011e-06
-3.10924e-08
5.61345e-06
-2.99488e-08
5.61654e-06
-2.88363e-08
5.61941e-06
-2.77593e-08
-2.67169e-08
5.62208e-06
4.82811e-06
-5.90427e-09
4.8316e-06
-2.04222e-08
4.837e-06
-3.15288e-08
4.84262e-06
-3.70787e-08
4.84837e-06
-4.02765e-08
4.85411e-06
-4.21114e-08
4.85958e-06
-4.26024e-08
4.8647e-06
-4.21511e-08
4.86945e-06
-4.11991e-08
4.87384e-06
-3.9978e-08
4.87789e-06
-3.86018e-08
4.88163e-06
-3.71523e-08
4.88506e-06
-3.56903e-08
4.88822e-06
-3.42529e-08
4.89113e-06
-3.28597e-08
4.89382e-06
-3.15202e-08
4.89629e-06
-3.02364e-08
-2.90041e-08
4.89858e-06
4.20248e-06
-5.71013e-09
4.2066e-06
-2.45364e-08
4.212e-06
-3.69365e-08
4.21735e-06
-4.242e-08
4.22297e-06
-4.5898e-08
4.22859e-06
-4.77324e-08
4.23385e-06
-4.78683e-08
4.23868e-06
-4.69763e-08
4.24309e-06
-4.56094e-08
4.24711e-06
-4.40002e-08
4.25077e-06
-4.22588e-08
4.25409e-06
-4.04714e-08
4.2571e-06
-3.87016e-08
4.25983e-06
-3.69855e-08
4.26231e-06
-3.53415e-08
4.26457e-06
-3.37776e-08
4.26663e-06
-3.22941e-08
-3.08841e-08
4.26851e-06
3.65584e-06
-2.90535e-09
3.66189e-06
-3.05915e-08
3.6679e-06
-4.29436e-08
3.67337e-06
-4.78881e-08
3.67911e-06
-5.16416e-08
3.68471e-06
-5.33277e-08
3.68981e-06
-5.29734e-08
3.6944e-06
-5.15638e-08
3.69851e-06
-4.97176e-08
3.70216e-06
-4.7654e-08
3.70539e-06
-4.54855e-08
3.70822e-06
-4.33065e-08
3.7107e-06
-4.11836e-08
3.71287e-06
-3.91506e-08
3.71475e-06
-3.72257e-08
3.71639e-06
-3.54158e-08
3.71782e-06
-3.37177e-08
-3.21261e-08
3.71906e-06
3.17742e-06
4.70646e-09
3.18642e-06
-3.95874e-08
3.19425e-06
-5.07716e-08
3.20127e-06
-5.4915e-08
3.20802e-06
-5.8392e-08
3.2139e-06
-5.92097e-08
3.21882e-06
-5.78887e-08
3.22293e-06
-5.56792e-08
3.22637e-06
-5.31482e-08
3.22917e-06
-5.04564e-08
3.2314e-06
-4.77144e-08
3.23311e-06
-4.50221e-08
3.23437e-06
-4.24463e-08
3.23524e-06
-4.00164e-08
3.23576e-06
-3.77487e-08
3.236e-06
-3.56514e-08
3.236e-06
-3.37162e-08
-3.19644e-08
3.23584e-06
2.76711e-06
1.03273e-08
2.77706e-06
-4.95345e-08
2.78525e-06
-5.89682e-08
2.79389e-06
-6.35531e-08
2.8019e-06
-6.63987e-08
2.80797e-06
-6.52846e-08
2.81197e-06
-6.18826e-08
2.81417e-06
-5.78824e-08
2.81489e-06
-5.38715e-08
2.8144e-06
-4.99636e-08
2.81292e-06
-4.62341e-08
2.81065e-06
-4.27539e-08
2.80776e-06
-3.9556e-08
2.80439e-06
-3.66428e-08
2.80065e-06
-3.40056e-08
2.79664e-06
-3.16422e-08
2.79245e-06
-2.95328e-08
-2.77331e-08
2.78822e-06
2.44887e-06
-2.4741e-08
2.45701e-06
-5.76753e-08
2.45647e-06
-5.84282e-08
2.45387e-06
-6.0948e-08
2.44872e-06
-6.12502e-08
2.44055e-06
-5.71185e-08
2.4296e-06
-5.09273e-08
2.41647e-06
-4.47581e-08
2.40185e-06
-3.92471e-08
2.38632e-06
-3.4437e-08
2.37038e-06
-3.02911e-08
2.35437e-06
-2.67499e-08
2.33856e-06
-2.37377e-08
2.32309e-06
-2.11759e-08
2.30808e-06
-1.89979e-08
2.2936e-06
-1.71616e-08
2.2797e-06
-1.56358e-08
-1.45807e-08
2.26655e-06
2.0766e-06
2.01892e-06
1.96049e-06
1.89955e-06
1.8383e-06
1.78118e-06
1.73025e-06
1.68549e-06
1.64624e-06
1.61181e-06
1.58152e-06
1.55477e-06
1.53103e-06
1.50985e-06
1.49085e-06
1.47369e-06
1.45806e-06
1.44348e-06
1.72544e-09
-1.72687e-09
5.82257e-09
-4.10005e-09
1.1119e-08
-5.29848e-09
1.66627e-08
-5.54634e-09
2.18005e-08
-5.13956e-09
2.61413e-08
-4.34345e-09
2.95012e-08
-3.36145e-09
3.18272e-08
-2.32874e-09
3.31537e-08
-1.32802e-09
3.35576e-08
-4.06816e-10
3.31528e-08
4.03104e-10
3.20687e-08
1.08098e-09
3.04364e-08
1.6306e-09
2.83559e-08
2.07718e-09
2.59017e-08
2.45254e-09
2.31103e-08
2.78776e-09
1.99972e-08
3.11156e-09
1.65461e-08
3.4473e-09
1.27329e-08
3.81159e-09
8.51457e-09
4.21427e-09
3.85723e-09
4.65563e-09
-1.28508e-09
5.13795e-09
-6.97838e-09
5.69132e-09
-1.33024e-08
6.31948e-09
-2.03145e-08
7.00983e-09
-2.8094e-08
7.77501e-09
-3.67175e-08
8.62118e-09
-4.62721e-08
9.55011e-09
-5.68351e-08
1.05605e-08
-6.8487e-08
1.16476e-08
-8.12923e-08
1.28032e-08
-9.53115e-08
1.4015e-08
-1.10581e-07
1.52675e-08
-1.27127e-07
1.6542e-08
-1.44947e-07
1.78188e-08
-1.64028e-07
1.90778e-08
-1.84329e-07
2.03001e-08
-2.05798e-07
2.14653e-08
-2.28355e-07
2.25558e-08
-2.51914e-07
2.35561e-08
-2.76371e-07
2.44555e-08
-3.01622e-07
2.52478e-08
-3.27553e-07
2.59307e-08
-3.54061e-07
2.65048e-08
-3.81035e-07
2.69737e-08
-4.0838e-07
2.73426e-08
-4.35999e-07
2.7619e-08
-4.63813e-07
2.78108e-08
-4.9174e-07
2.7927e-08
-5.19719e-07
2.79762e-08
-5.47687e-07
2.79672e-08
-5.75599e-07
2.79078e-08
-6.03405e-07
2.78056e-08
-6.31076e-07
2.76668e-08
-6.58575e-07
2.74974e-08
-6.8588e-07
2.73014e-08
-7.12965e-07
2.70832e-08
-7.39814e-07
2.6845e-08
-7.66405e-07
2.65895e-08
-7.92727e-07
2.63176e-08
-8.18759e-07
2.60305e-08
-8.44491e-07
2.57281e-08
-8.69903e-07
2.54108e-08
-8.94984e-07
2.50775e-08
-9.19713e-07
2.47281e-08
-9.44077e-07
2.4361e-08
-9.68054e-07
2.39758e-08
-9.91628e-07
2.35708e-08
-1.01477e-06
2.31452e-08
-1.03747e-06
2.26973e-08
-1.0597e-06
2.22264e-08
-1.08144e-06
2.17304e-08
-1.10264e-06
2.12082e-08
-1.12331e-06
2.06577e-08
-1.14338e-06
2.00783e-08
-1.16286e-06
1.94683e-08
-1.18169e-06
1.88276e-08
-1.19985e-06
1.81544e-08
-1.21729e-06
1.74478e-08
-1.23401e-06
1.67067e-08
-1.24994e-06
1.59363e-08
-1.2651e-06
1.51501e-08
-1.27947e-06
1.4372e-08
-1.29307e-06
1.35997e-08
-1.30589e-06
1.28185e-08
-1.31792e-06
1.20232e-08
-1.32913e-06
1.12094e-08
-1.33951e-06
1.03741e-08
-1.34902e-06
9.51564e-09
-1.35765e-06
8.63124e-09
-1.36537e-06
7.71756e-09
-1.37214e-06
6.77135e-09
-1.37793e-06
5.78967e-09
-1.3827e-06
4.76788e-09
-1.3864e-06
3.69852e-09
-1.38898e-06
2.57051e-09
-1.39036e-06
1.37915e-09
-1.39052e-06
1.62014e-10
-1.38957e-06
-9.62336e-10
-1.3876e-06
-1.96886e-09
-1.38467e-06
-2.9371e-09
-1.38078e-06
-3.89648e-09
-1.37593e-06
-4.85608e-09
-1.37012e-06
-5.81843e-09
-1.36334e-06
-6.78267e-09
-1.3556e-06
-7.74845e-09
-1.34689e-06
-8.71382e-09
-1.33722e-06
-9.67834e-09
-1.32658e-06
-1.064e-08
-1.31499e-06
-1.15984e-08
-1.30244e-06
-1.25515e-08
-1.28895e-06
-1.34989e-08
-1.27452e-06
-1.44383e-08
-1.25915e-06
-1.53696e-08
-1.24286e-06
-1.62904e-08
-1.22567e-06
-1.72007e-08
-1.20757e-06
-1.80977e-08
-1.18859e-06
-1.89815e-08
-1.16874e-06
-1.98495e-08
-1.14804e-06
-2.07021e-08
-1.1265e-06
-2.15375e-08
-1.10416e-06
-2.23558e-08
-1.08101e-06
-2.31543e-08
-1.05708e-06
-2.39332e-08
-1.0324e-06
-2.46898e-08
-1.00698e-06
-2.54255e-08
-9.80846e-07
-2.61364e-08
-9.5402e-07
-2.68268e-08
-9.26525e-07
-2.74932e-08
-8.9839e-07
-2.81321e-08
-8.69643e-07
-2.87411e-08
-8.40311e-07
-2.93262e-08
-8.10417e-07
-2.9884e-08
-7.79993e-07
-3.04143e-08
-7.49065e-07
-3.09143e-08
-7.17667e-07
-3.13853e-08
-6.85826e-07
-3.18255e-08
-6.53574e-07
-3.22357e-08
-6.20941e-07
-3.26145e-08
-5.87961e-07
-3.29623e-08
-5.54665e-07
-3.32785e-08
-5.21087e-07
-3.35627e-08
-4.87259e-07
-3.38146e-08
-4.53214e-07
-3.40338e-08
-4.18984e-07
-3.42199e-08
-3.84604e-07
-3.43725e-08
-3.50105e-07
-3.44915e-08
-3.15523e-07
-3.45767e-08
-2.8089e-07
-3.46285e-08
-2.46241e-07
-3.46463e-08
-2.11609e-07
-3.4631e-08
-1.77027e-07
-3.45817e-08
-1.42528e-07
-3.44997e-08
-1.08144e-07
-3.43866e-08
-7.39026e-08
-3.42451e-08
-3.98396e-08
-3.40674e-08
-6.05276e-09
-3.37927e-08
2.74888e-08
-3.35477e-08
6.08103e-08
-3.33289e-08
9.38111e-08
-3.30081e-08
1.26467e-07
-3.26643e-08
1.5877e-07
-3.23113e-08
1.90712e-07
-3.19511e-08
2.22283e-07
-3.158e-08
2.53465e-07
-3.11925e-08
2.84238e-07
-3.07821e-08
3.14581e-07
-3.03539e-08
3.44482e-07
-2.99115e-08
3.73924e-07
-2.9452e-08
4.0288e-07
-2.89667e-08
4.31314e-07
-2.84452e-08
4.59172e-07
-2.78689e-08
4.86371e-07
-2.72098e-08
5.12777e-07
-2.6417e-08
5.38161e-07
-2.53954e-08
5.62106e-07
-2.39565e-08
5.8371e-07
-2.16165e-08
6.01011e-07
-1.73115e-08
6.07807e-07
-6.80688e-09
2.08849e-08
5.86916e-07
3.73757e-09
-5.46644e-09
8.94626e-09
-9.31225e-09
1.35337e-08
-9.888e-09
1.70371e-08
-9.05181e-09
1.94708e-08
-7.57468e-09
2.09124e-08
-5.78678e-09
2.14289e-08
-3.87925e-09
2.10747e-08
-1.97626e-09
1.99032e-08
-1.57698e-10
1.79662e-08
1.52833e-09
1.53098e-08
3.05815e-09
1.19609e-08
4.42802e-09
7.93926e-09
5.6509e-09
3.26004e-09
6.75442e-09
-2.06497e-09
7.77625e-09
-8.0374e-09
8.75824e-09
-1.46679e-08
9.7409e-09
-2.19823e-08
1.07599e-08
-3.00165e-08
1.18446e-08
-3.88211e-08
1.3017e-08
-4.84583e-08
1.42917e-08
-5.9e-08
1.56778e-08
-7.04927e-08
1.71828e-08
-8.29864e-08
1.88112e-08
-9.65429e-08
2.0565e-08
-1.11214e-07
2.24436e-08
-1.27034e-07
2.44406e-08
-1.4403e-07
2.65431e-08
-1.62203e-07
2.87325e-08
-1.81542e-07
3.0985e-08
-2.02013e-07
3.32726e-08
-2.23564e-07
3.55636e-08
-2.46122e-07
3.78244e-08
-2.69603e-07
4.00207e-08
-2.93905e-07
4.21194e-08
-3.18919e-07
4.40903e-08
-3.44527e-07
4.59068e-08
-3.70608e-07
4.75445e-08
-3.97041e-07
4.89881e-08
-4.23717e-07
5.02304e-08
-4.50532e-07
5.12698e-08
-4.77395e-07
5.21092e-08
-5.04222e-07
5.27566e-08
-5.30942e-07
5.32236e-08
-5.57494e-07
5.3525e-08
-5.83829e-07
5.36768e-08
-6.09907e-07
5.36962e-08
-6.35697e-07
5.36e-08
-6.61176e-07
5.34047e-08
-6.86326e-07
5.31255e-08
-7.11136e-07
5.2776e-08
-7.35599e-07
5.23684e-08
-7.59707e-07
5.1913e-08
-7.8346e-07
5.14182e-08
-8.06855e-07
5.08909e-08
-8.29892e-07
5.03362e-08
-8.52568e-07
4.9758e-08
-8.74884e-07
4.91586e-08
-8.96836e-07
4.85395e-08
-9.18421e-07
4.79009e-08
-9.39635e-07
4.72427e-08
-9.60473e-07
4.65638e-08
-9.80926e-07
4.58628e-08
-1.00099e-06
4.51378e-08
-1.02065e-06
4.43868e-08
-1.0399e-06
4.36075e-08
-1.05872e-06
4.27978e-08
-1.07711e-06
4.19551e-08
-1.09504e-06
4.10774e-08
-1.11251e-06
4.01623e-08
-1.12949e-06
3.92079e-08
-1.14597e-06
3.82118e-08
-1.16194e-06
3.71726e-08
-1.17737e-06
3.60882e-08
-1.19225e-06
3.49579e-08
-1.20656e-06
3.37805e-08
-1.22029e-06
3.2556e-08
-1.23343e-06
3.12841e-08
-1.24595e-06
2.99655e-08
-1.25784e-06
2.8603e-08
-1.26911e-06
2.72037e-08
-1.27974e-06
2.57769e-08
-1.2897e-06
2.433e-08
-1.29896e-06
2.28588e-08
-1.3075e-06
2.13564e-08
-1.3153e-06
1.98194e-08
-1.32234e-06
1.8245e-08
-1.3286e-06
1.66316e-08
-1.33406e-06
1.4978e-08
-1.33871e-06
1.32833e-08
-1.34253e-06
1.15464e-08
-1.34553e-06
9.7676e-09
-1.34769e-06
7.94788e-09
-1.34901e-06
6.089e-09
-1.34951e-06
4.194e-09
-1.34922e-06
2.27212e-09
-1.34818e-06
3.45233e-10
-1.34647e-06
-1.55544e-09
-1.344e-06
-3.43188e-09
-1.34067e-06
-5.30888e-09
-1.33641e-06
-7.19373e-09
-1.33123e-06
-9.08632e-09
-1.3251e-06
-1.09873e-08
-1.31803e-06
-1.28953e-08
-1.31001e-06
-1.48086e-08
-1.30104e-06
-1.67245e-08
-1.29111e-06
-1.86406e-08
-1.28024e-06
-2.05544e-08
-1.26842e-06
-2.24634e-08
-1.25566e-06
-2.43652e-08
-1.24196e-06
-2.62572e-08
-1.22732e-06
-2.81371e-08
-1.21176e-06
-3.00023e-08
-1.19528e-06
-3.18504e-08
-1.17789e-06
-3.36788e-08
-1.15961e-06
-3.54852e-08
-1.14044e-06
-3.72669e-08
-1.12041e-06
-3.90212e-08
-1.09951e-06
-4.07458e-08
-1.07777e-06
-4.2439e-08
-1.05521e-06
-4.40988e-08
-1.03185e-06
-4.57233e-08
-1.0077e-06
-4.73095e-08
-9.82784e-07
-4.88552e-08
-9.5712e-07
-5.03582e-08
-9.30731e-07
-5.18179e-08
-9.03636e-07
-5.32325e-08
-8.7586e-07
-5.46035e-08
-8.47425e-07
-5.5927e-08
-8.18359e-07
-5.71965e-08
-7.88687e-07
-5.84101e-08
-7.58436e-07
-5.95729e-08
-7.27633e-07
-6.06823e-08
-6.96305e-07
-6.17354e-08
-6.64483e-07
-6.27299e-08
-6.32195e-07
-6.36655e-08
-5.99471e-07
-6.45406e-08
-5.66342e-07
-6.53548e-08
-5.3284e-07
-6.6107e-08
-4.98995e-07
-6.67967e-08
-4.64842e-07
-6.74228e-08
-4.30412e-07
-6.79847e-08
-3.95738e-07
-6.84814e-08
-3.60853e-07
-6.89124e-08
-3.25792e-07
-6.92765e-08
-2.90587e-07
-6.95736e-08
-2.55272e-07
-6.98028e-08
-2.19882e-07
-6.99644e-08
-1.8445e-07
-7.00582e-08
-1.49011e-07
-7.00848e-08
-1.13597e-07
-7.00443e-08
-7.82414e-08
-6.99374e-08
-4.29765e-08
-6.97654e-08
-7.83335e-09
-6.95316e-08
2.71612e-08
-6.92416e-08
6.19769e-08
-6.88861e-08
9.66216e-08
-6.84403e-08
1.31008e-07
-6.79377e-08
1.65052e-07
-6.73773e-08
1.98782e-07
-6.67426e-08
2.32185e-07
-6.60722e-08
2.65248e-07
-6.53794e-08
2.97957e-07
-6.46652e-08
3.30298e-07
-6.39276e-08
3.62259e-07
-6.31599e-08
3.93827e-07
-6.2357e-08
4.24987e-07
-6.152e-08
4.5572e-07
-6.06516e-08
4.86005e-07
-5.97443e-08
5.15816e-07
-5.87853e-08
5.45115e-07
-5.77523e-08
5.7385e-07
-5.6612e-08
6.01939e-07
-5.53073e-08
6.29256e-07
-5.37423e-08
6.55588e-07
-5.17356e-08
6.80573e-07
-4.89507e-08
7.03536e-07
-4.4589e-08
7.23392e-07
-3.71765e-08
7.38774e-07
-2.21965e-08
1.09348e-08
7.48719e-07
3.56074e-09
-9.02883e-09
7.11185e-09
-1.2866e-08
9.27585e-09
-1.20535e-08
1.01446e-08
-9.92196e-09
9.96434e-09
-7.39534e-09
8.91938e-09
-4.74293e-09
7.12266e-09
-2.08336e-09
4.63372e-09
5.11594e-10
1.4804e-09
2.99479e-09
-2.33103e-09
5.33866e-09
-6.80677e-09
7.53306e-09
-1.19626e-08
9.58276e-09
-1.78188e-08
1.15062e-08
-2.43993e-08
1.33338e-08
-3.1728e-08
1.51042e-08
-3.98309e-08
1.68601e-08
-4.87346e-08
1.86438e-08
-5.84696e-08
2.04938e-08
-6.90678e-08
2.2442e-08
-8.05642e-08
2.45124e-08
-9.29934e-08
2.67202e-08
-1.06389e-07
2.90724e-08
-1.20776e-07
3.15685e-08
-1.36167e-07
3.4202e-08
-1.52564e-07
3.6961e-08
-1.6995e-07
3.98283e-08
-1.88291e-07
4.27801e-08
-2.07535e-07
4.57869e-08
-2.27618e-07
4.88139e-08
-2.48457e-07
5.18231e-08
-2.6996e-07
5.47745e-08
-2.92026e-07
5.76283e-08
-3.14549e-07
6.03463e-08
-3.37423e-07
6.28936e-08
-3.60543e-07
6.52392e-08
-3.83811e-07
6.73565e-08
-4.07132e-07
6.92271e-08
-4.30433e-07
7.08448e-08
-4.53654e-07
7.22084e-08
-4.76747e-07
7.33217e-08
-4.99671e-07
7.41932e-08
-5.22398e-07
7.48355e-08
-5.44906e-07
7.52642e-08
-5.67182e-07
7.54983e-08
-5.89216e-07
7.55582e-08
-6.11004e-07
7.54648e-08
-6.32547e-07
7.52381e-08
-6.53845e-07
7.48974e-08
-6.74901e-07
7.44603e-08
-6.95719e-07
7.39424e-08
-7.16301e-07
7.33576e-08
-7.36651e-07
7.27175e-08
-7.5677e-07
7.20317e-08
-7.76661e-07
7.13076e-08
-7.96322e-07
7.0551e-08
-8.15753e-07
6.97658e-08
-8.3495e-07
6.89546e-08
-8.53912e-07
6.81185e-08
-8.72631e-07
6.72576e-08
-8.91102e-07
6.63709e-08
-9.09318e-07
6.54569e-08
-9.27269e-07
6.45135e-08
-9.44945e-07
6.35379e-08
-9.62336e-07
6.25272e-08
-9.79428e-07
6.14783e-08
-9.9621e-07
6.0388e-08
-1.01267e-06
5.92529e-08
-1.02878e-06
5.807e-08
-1.04454e-06
5.68362e-08
-1.05993e-06
5.55486e-08
-1.07493e-06
5.42045e-08
-1.08952e-06
5.28015e-08
-1.10368e-06
5.13374e-08
-1.11741e-06
4.98106e-08
-1.13067e-06
4.82198e-08
-1.14345e-06
4.65644e-08
-1.15574e-06
4.48443e-08
-1.16752e-06
4.30597e-08
-1.17877e-06
4.1212e-08
-1.18947e-06
3.93038e-08
-1.19961e-06
3.73398e-08
-1.20916e-06
3.53249e-08
-1.21809e-06
3.3262e-08
-1.22638e-06
3.11488e-08
-1.23401e-06
2.89825e-08
-1.24095e-06
2.67613e-08
-1.24719e-06
2.44841e-08
-1.25271e-06
2.21507e-08
-1.25749e-06
1.97613e-08
-1.26153e-06
1.73167e-08
-1.2648e-06
1.48183e-08
-1.2673e-06
1.22686e-08
-1.26902e-06
9.67177e-09
-1.26997e-06
7.03277e-09
-1.27014e-06
4.35855e-09
-1.26953e-06
1.65929e-09
-1.26813e-06
-1.05113e-09
-1.26592e-06
-3.76438e-09
-1.26287e-06
-6.49017e-09
-1.25894e-06
-9.24049e-09
-1.25412e-06
-1.20144e-08
-1.2484e-06
-1.4808e-08
-1.24177e-06
-1.76179e-08
-1.23423e-06
-2.04402e-08
-1.22577e-06
-2.32712e-08
-1.2164e-06
-2.61067e-08
-1.2061e-06
-2.89431e-08
-1.19488e-06
-3.17764e-08
-1.18274e-06
-3.46031e-08
-1.16969e-06
-3.74192e-08
-1.15573e-06
-4.02213e-08
-1.14086e-06
-4.30055e-08
-1.1251e-06
-4.57683e-08
-1.10844e-06
-4.85059e-08
-1.09091e-06
-5.12149e-08
-1.0725e-06
-5.38914e-08
-1.05324e-06
-5.65318e-08
-1.03313e-06
-5.91321e-08
-1.01219e-06
-6.1689e-08
-9.90425e-07
-6.41996e-08
-9.67865e-07
-6.66609e-08
-9.44522e-07
-6.90695e-08
-9.20414e-07
-7.14218e-08
-8.95559e-07
-7.37138e-08
-8.69977e-07
-7.59431e-08
-8.43689e-07
-7.81079e-08
-8.16716e-07
-8.02072e-08
-7.89079e-07
-8.22403e-08
-7.60803e-07
-8.42032e-08
-7.3191e-07
-8.60882e-08
-7.02425e-07
-8.78928e-08
-6.72376e-07
-8.96193e-08
-6.41789e-07
-9.12661e-08
-6.10691e-07
-9.28288e-08
-5.79111e-07
-9.43051e-08
-5.47078e-07
-9.56935e-08
-5.14621e-07
-9.69923e-08
-4.81769e-07
-9.82e-08
-4.48554e-07
-9.93153e-08
-4.15008e-07
-1.00337e-07
-3.81161e-07
-1.01263e-07
-3.47047e-07
-1.02094e-07
-3.12698e-07
-1.02827e-07
-2.78147e-07
-1.03461e-07
-2.43426e-07
-1.03994e-07
-2.0857e-07
-1.04428e-07
-1.73612e-07
-1.0476e-07
-1.38585e-07
-1.0499e-07
-1.03523e-07
-1.05119e-07
-6.8459e-08
-1.05148e-07
-3.34261e-08
-1.05077e-07
1.54609e-09
-1.04909e-07
3.64251e-08
-1.04645e-07
7.11778e-08
-1.04284e-07
1.05769e-07
-1.03833e-07
1.4017e-07
-1.03287e-07
1.74367e-07
-1.02639e-07
2.08327e-07
-1.01898e-07
2.42011e-07
-1.01063e-07
2.75409e-07
-1.00142e-07
3.08498e-07
-9.91623e-08
3.41257e-07
-9.81395e-08
3.73668e-07
-9.70779e-08
4.05717e-07
-9.59772e-08
4.37388e-07
-9.48333e-08
4.68672e-07
-9.36419e-08
4.99553e-07
-9.24023e-08
5.30012e-07
-9.11127e-08
5.60029e-07
-8.97631e-08
5.89577e-07
-8.83349e-08
6.18621e-07
-8.67975e-08
6.4711e-07
-8.5102e-08
6.74968e-07
-8.31676e-08
7.02083e-07
-8.08583e-08
7.28275e-07
-7.79296e-08
7.53262e-07
-7.3939e-08
7.76631e-07
-6.79607e-08
7.97825e-07
-5.83721e-08
8.1686e-07
-4.12333e-08
-8.42715e-09
8.36222e-07
2.14189e-09
-1.11721e-08
3.04419e-09
-1.37704e-08
2.58913e-09
-1.15996e-08
1.12715e-09
-8.46108e-09
-1.1291e-09
-5.13982e-09
-4.05852e-09
-1.8144e-09
-7.59555e-09
1.45304e-09
-1.17138e-08
4.62896e-09
-1.64122e-08
7.69264e-09
-2.17084e-08
1.0634e-08
-2.76297e-08
1.34536e-08
-3.42103e-08
1.61626e-08
-4.14867e-08
1.8782e-08
-4.94955e-08
2.13417e-08
-5.82697e-08
2.38778e-08
-6.78393e-08
2.64289e-08
-7.82286e-08
2.90325e-08
-8.94575e-08
3.17219e-08
-1.01539e-07
3.45232e-08
-1.14481e-07
3.74538e-08
-1.28283e-07
4.05217e-08
-1.42936e-07
4.37248e-08
-1.58421e-07
4.70522e-08
-1.74705e-07
5.0485e-08
-1.91742e-07
5.39977e-08
-2.09473e-07
5.75591e-08
-2.27827e-07
6.11331e-08
-2.46721e-07
6.46801e-08
-2.66066e-07
6.81585e-08
-2.85771e-07
7.15265e-08
-3.05741e-07
7.4744e-08
-3.25888e-07
7.77742e-08
-3.46127e-07
8.0585e-08
-3.66385e-07
8.31501e-08
-3.86596e-07
8.54495e-08
-4.06711e-07
8.74712e-08
-4.26696e-07
8.9211e-08
-4.46524e-07
9.06723e-08
-4.66179e-07
9.18622e-08
-4.85649e-07
9.27914e-08
-5.04931e-07
9.34743e-08
-5.24025e-07
9.39294e-08
-5.42939e-07
9.41775e-08
-5.61682e-07
9.42399e-08
-5.80261e-07
9.41374e-08
-5.98688e-07
9.38906e-08
-6.16969e-07
9.35187e-08
-6.35111e-07
9.30396e-08
-6.53121e-07
9.24694e-08
-6.71001e-07
9.18223e-08
-6.88755e-07
9.11103e-08
-7.06381e-07
9.03435e-08
-7.2388e-07
8.95298e-08
-7.41248e-07
8.86752e-08
-7.58482e-07
8.77842e-08
-7.75576e-07
8.68593e-08
-7.92524e-07
8.59017e-08
-8.09318e-07
8.49115e-08
-8.25949e-07
8.38877e-08
-8.42408e-07
8.28282e-08
-8.58682e-07
8.17304e-08
-8.74761e-07
8.05913e-08
-8.90631e-07
7.94073e-08
-9.0628e-07
7.81746e-08
-9.21692e-07
7.68892e-08
-9.36852e-07
7.55471e-08
-9.51744e-07
7.41443e-08
-9.66352e-07
7.2677e-08
-9.80659e-07
7.11416e-08
-9.94645e-07
6.95347e-08
-1.00829e-06
6.7853e-08
-1.02159e-06
6.60938e-08
-1.03451e-06
6.42548e-08
-1.04703e-06
6.2334e-08
-1.05914e-06
6.033e-08
-1.07082e-06
5.82422e-08
-1.08205e-06
5.60703e-08
-1.0928e-06
5.38146e-08
-1.10307e-06
5.14763e-08
-1.11282e-06
4.90574e-08
-1.12204e-06
4.65606e-08
-1.13071e-06
4.3989e-08
-1.13879e-06
4.13438e-08
-1.14627e-06
3.86249e-08
-1.15312e-06
3.58313e-08
-1.15932e-06
3.29628e-08
-1.16486e-06
3.00197e-08
-1.16971e-06
2.7003e-08
-1.17386e-06
2.39143e-08
-1.1773e-06
2.07558e-08
-1.18001e-06
1.75305e-08
-1.18199e-06
1.42423e-08
-1.18321e-06
1.08962e-08
-1.18368e-06
7.49852e-09
-1.18338e-06
4.05613e-09
-1.1823e-06
5.77097e-10
-1.18042e-06
-2.93105e-09
-1.17772e-06
-6.46581e-09
-1.17418e-06
-1.00323e-08
-1.16979e-06
-1.36347e-08
-1.16453e-06
-1.72702e-08
-1.15841e-06
-2.09338e-08
-1.15141e-06
-2.46204e-08
-1.14353e-06
-2.83242e-08
-1.13476e-06
-3.20401e-08
-1.12511e-06
-3.57626e-08
-1.11457e-06
-3.94868e-08
-1.10314e-06
-4.32073e-08
-1.09083e-06