/*--------------------------------*- C++ -*----------------------------------*\
| =========                 |                                                 |
| \\      /  F ield         | OpenFOAM: The Open Source CFD Toolbox           |
|  \\    /   O peration     | Version:  2312                                  |
|   \\  /    A nd           | Website:  www.openfoam.com                      |
|    \\/     M anipulation  |                                                 |
\*---------------------------------------------------------------------------*/
FoamFile
{
    version     2.0;
    format      ascii;
    arch        "LSB;label=32;scalar=64";
    class       volVectorField;
    location    "250";
    object      U;
}
// * * * * * * * * * * * * * * * * * * * * * * * * * * * * * * * * * * * * * //

dimensions      [0 1 -1 0 0 0 0];

internalField   nonuniform List<vector> 
12225
(
(4.84801 -0.821833 0)
(4.65544 -0.673001 0)
(4.43861 -0.378841 0)
(4.20055 -0.186337 0)
(3.97973 -0.0822523 0)
(3.79118 -0.0311092 0)
(3.63275 -0.0078752 0)
(3.50085 0.00207807 0)
(3.39171 0.00580468 0)
(3.30143 0.00672707 0)
(3.22647 0.00644307 0)
(3.16387 0.00569769 0)
(3.11133 0.00482501 0)
(3.06731 0.00388594 0)
(3.03071 0.002985 0)
(3.00189 0.00149698 0)
(2.97606 0.00310491 0)
(2.96719 -0.0154834 0)
(5.07192 0.209539 0)
(5.13589 0.305562 0)
(5.12827 0.246302 0)
(5.08361 0.176556 0)
(5.02588 0.12754 0)
(4.96078 0.0953839 0)
(4.88992 0.0743269 0)
(4.81569 0.0602026 0)
(4.74155 0.0503719 0)
(4.66996 0.0431676 0)
(4.60225 0.0376205 0)
(4.53904 0.0331462 0)
(4.48078 0.0293692 0)
(4.42756 0.0260611 0)
(4.37943 0.0228389 0)
(4.33628 0.0198931 0)
(4.29931 0.0155125 0)
(4.26681 0.0139768 0)
(5.0041 0.0539802 0)
(5.02803 0.0569114 0)
(5.05646 0.037607 0)
(5.07524 0.0373123 0)
(5.08608 0.045123 0)
(5.09006 0.050855 0)
(5.08653 0.0531362 0)
(5.07624 0.0531905 0)
(5.06103 0.0519445 0)
(5.04258 0.0499267 0)
(5.02205 0.0474693 0)
(5.00032 0.0447866 0)
(4.97814 0.041973 0)
(4.95612 0.0390152 0)
(4.93481 0.0358282 0)
(4.91448 0.0322131 0)
(4.89628 0.027924 0)
(4.87782 0.0209885 0)
(4.99797 0.0107173 0)
(5.0099 0.0290465 0)
(5.03456 0.0406483 0)
(5.05391 0.0514131 0)
(5.06813 0.0584472 0)
(5.07982 0.0606645 0)
(5.08846 0.0599652 0)
(5.09373 0.0581113 0)
(5.09624 0.0558519 0)
(5.09667 0.0534186 0)
(5.09542 0.0508971 0)
(5.09288 0.0483253 0)
(5.08937 0.045672 0)
(5.08525 0.0428714 0)
(5.0808 0.0397713 0)
(5.07619 0.0361319 0)
(5.07173 0.0315998 0)
(5.06599 0.0247776 0)
(4.99928 0.00746741 0)
(5.00882 0.0331221 0)
(5.0278 0.0460345 0)
(5.0431 0.0521593 0)
(5.05531 0.0556341 0)
(5.06678 0.0567582 0)
(5.07689 0.0562331 0)
(5.08505 0.0549521 0)
(5.09152 0.0533389 0)
(5.09672 0.0515121 0)
(5.10086 0.049517 0)
(5.10414 0.0473749 0)
(5.10672 0.0450626 0)
(5.10879 0.0425137 0)
(5.11046 0.0395962 0)
(5.11178 0.0360994 0)
(5.11274 0.0317882 0)
(5.11256 0.0260887 0)
(5.00014 0.00919143 0)
(5.00817 0.0318022 0)
(5.02327 0.0424337 0)
(5.03638 0.0473449 0)
(5.04748 0.0508305 0)
(5.05823 0.0526175 0)
(5.06812 0.0527863 0)
(5.07662 0.0520359 0)
(5.08392 0.0508176 0)
(5.09032 0.0492966 0)
(5.09599 0.0475394 0)
(5.10105 0.0455807 0)
(5.1056 0.0434084 0)
(5.10975 0.0409645 0)
(5.11353 0.0381442 0)
(5.11693 0.0347878 0)
(5.11983 0.0307752 0)
(5.12177 0.0258616 0)
(5.00028 0.00895536 0)
(5.00709 0.0278127 0)
(5.0198 0.0378676 0)
(5.03167 0.0431844 0)
(5.04205 0.0469709 0)
(5.05207 0.0490455 0)
(5.06144 0.0495075 0)
(5.06976 0.049008 0)
(5.07713 0.047994 0)
(5.0838 0.0466407 0)
(5.08989 0.0450213 0)
(5.0955 0.0431723 0)
(5.1007 0.0410874 0)
(5.10553 0.0387202 0)
(5.11003 0.0359928 0)
(5.11411 0.0327987 0)
(5.11767 0.0290846 0)
(5.12041 0.0247706 0)
(5.00028 0.00793829 0)
(5.00605 0.0240785 0)
(5.01696 0.0339255 0)
(5.02785 0.039514 0)
(5.03761 0.0433028 0)
(5.04701 0.0454332 0)
(5.0559 0.046072 0)
(5.06394 0.0457693 0)
(5.0712 0.0449236 0)
(5.07786 0.0437072 0)
(5.08402 0.0421979 0)
(5.08976 0.0404356 0)
(5.09512 0.0384231 0)
(5.10013 0.036129 0)
(5.1048 0.0335022 0)
(5.10905 0.0304819 0)
(5.11277 0.027058 0)
(5.1158 0.0232394 0)
(5.0003 0.00698129 0)
(5.00518 0.0209787 0)
(5.01453 0.0303152 0)
(5.02445 0.0358734 0)
(5.03363 0.0395606 0)
(5.0425 0.0417127 0)
(5.05095 0.0425046 0)
(5.05873 0.0423775 0)
(5.06583 0.0416809 0)
(5.07239 0.0405848 0)
(5.0785 0.0391725 0)
(5.0842 0.0374892 0)
(5.08954 0.0355479 0)
(5.09453 0.0333342 0)
(5.09916 0.0308215 0)
(5.10338 0.0279843 0)
(5.10708 0.0248397 0)
(5.11019 0.0214382 0)
(5.00031 0.00614524 0)
(5.00445 0.0182521 0)
(5.01243 0.0268539 0)
(5.02138 0.0322218 0)
(5.02997 0.0357784 0)
(5.03832 0.0379253 0)
(5.04637 0.038831 0)
(5.05387 0.0388478 0)
(5.06079 0.03828 0)
(5.06721 0.0372929 0)
(5.07321 0.0359732 0)
(5.07883 0.0343712 0)
(5.08407 0.03251 0)
(5.08897 0.0303907 0)
(5.09349 0.0280079 0)
(5.09759 0.0253613 0)
(5.10121 0.0224839 0)
(5.10432 0.0194411 0)
(5.0003 0.00537203 0)
(5.00382 0.0157858 0)
(5.01063 0.0235545 0)
(5.01864 0.0286288 0)
(5.0266 0.0320092 0)
(5.03443 0.0340975 0)
(5.04205 0.0350626 0)
(5.04925 0.035185 0)
(5.05596 0.0347248 0)
(5.06222 0.033837 0)
(5.06809 0.0326091 0)
(5.07358 0.031095 0)
(5.0787 0.0293262 0)
(5.08347 0.0273173 0)
(5.08785 0.0250791 0)
(5.09183 0.0226283 0)
(5.09536 0.0200054 0)
(5.09843 0.0172779 0)
(5.00028 0.00468693 0)
(5.00333 0.0137119 0)
(5.00924 0.020686 0)
(5.01643 0.0254107 0)
(5.0238 0.0285821 0)
(5.03114 0.0305699 0)
(5.03834 0.0315404 0)
(5.04523 0.031723 0)
(5.05172 0.0313389 0)
(5.05781 0.030531 0)
(5.06352 0.0293846 0)
(5.06887 0.0279559 0)
(5.07386 0.0262818 0)
(5.0785 0.0243866 0)
(5.08276 0.0222915 0)
(5.08662 0.0200229 0)
(5.09006 0.017623 0)
(5.09309 0.0151564 0)
(5.00026 0.00404379 0)
(5.00291 0.0118128 0)
(5.00805 0.0179799 0)
(5.0145 0.022294 0)
(5.02129 0.0252198 0)
(5.02814 0.027072 0)
(5.03492 0.0280092 0)
(5.04148 0.0282201 0)
(5.04771 0.0278913 0)
(5.05359 0.0271513 0)
(5.05913 0.0260819 0)
(5.06432 0.0247397 0)
(5.06917 0.0231656 0)
(5.07366 0.0213901 0)
(5.07779 0.0194416 0)
(5.08155 0.0173519 0)
(5.0849 0.015162 0)
(5.08789 0.0129329 0)
(5.00024 0.00337562 0)
(5.00252 0.00983641 0)
(5.00692 0.015084 0)
(5.01261 0.0188659 0)
(5.01878 0.0214582 0)
(5.02508 0.0231081 0)
(5.03138 0.0239592 0)
(5.03754 0.0241619 0)
(5.04345 0.0238668 0)
(5.04907 0.023186 0)
(5.05438 0.0221955 0)
(5.05937 0.0209503 0)
(5.06403 0.0194929 0)
(5.06835 0.0178582 0)
(5.07233 0.0160782 0)
(5.07596 0.0141872 0)
(5.07921 0.012223 0)
(5.08215 0.0102403 0)
(5.00022 0.0026813 0)
(5.00215 0.0077916 0)
(5.00589 0.0120207 0)
(5.01085 0.0151462 0)
(5.01636 0.0173056 0)
(5.0221 0.0186753 0)
(5.02789 0.0193758 0)
(5.0336 0.0195223 0)
(5.03914 0.0192302 0)
(5.04443 0.0185926 0)
(5.04946 0.017677 0)
(5.0542 0.0165348 0)
(5.05864 0.0152075 0)
(5.06276 0.0137306 0)
(5.06656 0.0121371 0)
(5.07004 0.0104599 0)
(5.07319 0.00873214 0)
(5.07605 0.00700091 0)
(5.00019 0.00196127 0)
(5.00182 0.00568689 0)
(5.00499 0.00880824 0)
(5.00928 0.0111522 0)
(5.01417 0.0127695 0)
(5.01934 0.0137709 0)
(5.02462 0.0142464 0)
(5.02987 0.0142788 0)
(5.03501 0.013951 0)
(5.03995 0.0133342 0)
(5.04467 0.0124846 0)
(5.04913 0.0114464 0)
(5.05331 0.010257 0)
(5.05721 0.00894933 0)
(5.06082 0.00755354 0)
(5.06414 0.00609863 0)
(5.06717 0.00461168 0)
(5.06994 0.00313144 0)
(5.00016 0.00121533 0)
(5.00155 0.00351533 0)
(5.00426 0.00544306 0)
(5.008 0.00688209 0)
(5.01233 0.00784074 0)
(5.01699 0.00837654 0)
(5.02178 0.00854508 0)
(5.02661 0.00839844 0)
(5.03136 0.00798912 0)
(5.03595 0.00736531 0)
(5.04036 0.00656742 0)
(5.04453 0.00562926 0)
(5.04847 0.00458027 0)
(5.05215 0.00344699 0)
(5.05557 0.00225376 0)
(5.05873 0.00102338 0)
(5.06163 -0.000223878 0)
(5.06431 -0.00145776 0)
(5.00014 0.000430532 0)
(5.00136 0.00123088 0)
(5.00375 0.00186272 0)
(5.00708 0.00226825 0)
(5.01101 0.00244332 0)
(5.01526 0.00240661 0)
(5.01968 0.00217896 0)
(5.02415 0.00178213 0)
(5.02857 0.00123987 0)
(5.03287 0.000575554 0)
(5.037 -0.000189634 0)
(5.04094 -0.00103655 0)
(5.04465 -0.00194738 0)
(5.04814 -0.00290531 0)
(5.05139 -0.00389447 0)
(5.05442 -0.00489993 0)
(5.05721 -0.00590864 0)
(5.05981 -0.00689872 0)
(5.00013 -0.000431749 0)
(5.00128 -0.00128072 0)
(5.00353 -0.00209516 0)
(5.0067 -0.00286855 0)
(5.01044 -0.00360324 0)
(5.0145 -0.00431512 0)
(5.01873 -0.0050208 0)
(5.023 -0.00573054 0)
(5.02723 -0.00645053 0)
(5.03135 -0.00718493 0)
(5.03531 -0.00793559 0)
(5.03908 -0.00870164 0)
(5.04265 -0.00948006 0)
(5.046 -0.0102664 0)
(5.04915 -0.0110552 0)
(5.05208 -0.0118405 0)
(5.0548 -0.0126167 0)
(5.05734 -0.0133705 0)
(5.00014 -0.00125067 0)
(5.00136 -0.00367692 0)
(5.00375 -0.00587985 0)
(5.0071 -0.00777007 0)
(5.01102 -0.00934807 0)
(5.01522 -0.0106754 0)
(5.01954 -0.0118087 0)
(5.02389 -0.0127884 0)
(5.02816 -0.0136511 0)
(5.03229 -0.0144307 0)
(5.03624 -0.0151527 0)
(5.03999 -0.0158342 0)
(5.04353 -0.0164866 0)
(5.04686 -0.0171169 0)
(5.04997 -0.0177291 0)
(5.05287 -0.0183248 0)
(5.05557 -0.0189043 0)
(5.05808 -0.0194607 0)
(5.00015 -0.00195353 0)
(5.00149 -0.00577274 0)
(5.00419 -0.00919657 0)
(5.00793 -0.0120015 0)
(5.01223 -0.0142191 0)
(5.01674 -0.0159952 0)
(5.02132 -0.0174257 0)
(5.02587 -0.0185719 0)
(5.03029 -0.0194994 0)
(5.03453 -0.0202716 0)
(5.03856 -0.0209349 0)
(5.04235 -0.0215211 0)
(5.04592 -0.0220524 0)
(5.04925 -0.0225448 0)
(5.05237 -0.0230088 0)
(5.05527 -0.0234508 0)
(5.05797 -0.0238743 0)
(5.06047 -0.0242765 0)
(5.00015 -0.00260974 0)
(5.00164 -0.00784364 0)
(5.0048 -0.0125125 0)
(5.00917 -0.0161469 0)
(5.01401 -0.0188804 0)
(5.01893 -0.0209958 0)
(5.02386 -0.0226252 0)
(5.02869 -0.0238513 0)
(5.03334 -0.024777 0)
(5.03773 -0.0254945 0)
(5.04185 -0.0260669 0)
(5.04571 -0.026537 0)
(5.04932 -0.0269367 0)
(5.05267 -0.0272894 0)
(5.05579 -0.0276103 0)
(5.05869 -0.0279091 0)
(5.06139 -0.0281916 0)
(5.06388 -0.0284569 0)
(5.00012 -0.00321239 0)
(5.00171 -0.00995784 0)
(5.0055 -0.0158723 0)
(5.01072 -0.0202172 0)
(5.0162 -0.0233962 0)
(5.02159 -0.025797 0)
(5.02691 -0.027534 0)
(5.03207 -0.0287383 0)
(5.03694 -0.0295818 0)
(5.04149 -0.0301896 0)
(5.04572 -0.0306346 0)
(5.04966 -0.0309666 0)
(5.05331 -0.0312245 0)
(5.05669 -0.0314365 0)
(5.05982 -0.0316204 0)
(5.06272 -0.0317872 0)
(5.06541 -0.0319428 0)
(5.06789 -0.0320874 0)
(5.00005 -0.00374224 0)
(5.00168 -0.0124885 0)
(5.00626 -0.019489 0)
(5.01241 -0.0241058 0)
(5.01853 -0.0275791 0)
(5.02445 -0.030273 0)
(5.03026 -0.032109 0)
(5.0358 -0.0332547 0)
(5.04093 -0.033976 0)
(5.04566 -0.0344385 0)
(5.05003 -0.0347257 0)
(5.05406 -0.0348962 0)
(5.05777 -0.0349965 0)
(5.06118 -0.035059 0)
(5.06432 -0.035103 0)
(5.06721 -0.0351396 0)
(5.06988 -0.035174 0)
(5.07234 -0.0352043 0)
(4.99981 -0.00349638 0)
(5.00118 -0.0157217 0)
(5.00702 -0.0241969 0)
(5.01422 -0.0285094 0)
(5.02088 -0.0317154 0)
(5.02742 -0.0343705 0)
(5.03394 -0.0361717 0)
(5.04003 -0.0372481 0)
(5.04554 -0.0378826 0)
(5.05054 -0.0382391 0)
(5.0551 -0.0384003 0)
(5.05925 -0.0384319 0)
(5.06301 -0.0383885 0)
(5.06642 -0.0383076 0)
(5.06952 -0.0382123 0)
(5.07233 -0.0381162 0)
(5.07489 -0.038025 0)
(5.07722 -0.0379366 0)
(4.99829 -0.000216717 0)
(4.9984 -0.0164689 0)
(5.00716 -0.0285424 0)
(5.01668 -0.0342672 0)
(5.02437 -0.0375011 0)
(5.03175 -0.0394893 0)
(5.0391 -0.040531 0)
(5.04585 -0.0410266 0)
(5.05181 -0.0412552 0)
(5.05708 -0.0413117 0)
(5.06177 -0.0412376 0)
(5.06591 -0.041078 0)
(5.06954 -0.0408742 0)
(5.0727 -0.0406535 0)
(5.07546 -0.0404333 0)
(5.07786 -0.0402256 0)
(5.07995 -0.0400334 0)
(5.08175 -0.0398522 0)
(4.99438 0.00177515 0)
(4.99229 -0.0104475 0)
(5.00589 -0.0233034 0)
(5.02042 -0.0347447 0)
(5.03144 -0.0428361 0)
(5.04089 -0.0468446 0)
(5.04936 -0.0481265 0)
(5.05654 -0.0481711 0)
(5.06244 -0.0477066 0)
(5.06728 -0.0469909 0)
(5.07121 -0.0461514 0)
(5.07429 -0.0452825 0)
(5.07662 -0.044444 0)
(5.07827 -0.0436631 0)
(5.07935 -0.0429554 0)
(5.07993 -0.0423293 0)
(5.0801 -0.041782 0)
(5.07992 -0.0413204 0)
(4.99485 -0.027596 0)
(4.9972 -0.0243336 0)
(5.01308 -0.00744645 0)
(5.03041 -0.00723658 0)
(5.04574 -0.0165361 0)
(5.05857 -0.0255283 0)
(5.06792 -0.0318783 0)
(5.07354 -0.0361808 0)
(5.07602 -0.0390227 0)
(5.07609 -0.0407265 0)
(5.07423 -0.0415885 0)
(5.07079 -0.0418744 0)
(5.06609 -0.0417884 0)
(5.06038 -0.0414674 0)
(5.05393 -0.0410133 0)
(5.0469 -0.0405042 0)
(5.03948 -0.0399916 0)
(5.03186 -0.0395725 0)
(5.03832 -0.173434 0)
(5.08574 -0.276054 0)
(5.09644 -0.240758 0)
(5.08893 -0.185357 0)
(5.07822 -0.142595 0)
(5.06476 -0.112095 0)
(5.04552 -0.0902976 0)
(5.02044 -0.0748441 0)
(4.99131 -0.0638321 0)
(4.95977 -0.0557723 0)
(4.92699 -0.0496837 0)
(4.89377 -0.0449653 0)
(4.8607 -0.0412336 0)
(4.82823 -0.0382265 0)
(4.7966 -0.0357682 0)
(4.76604 -0.0337545 0)
(4.73658 -0.0321069 0)
(4.70857 -0.0309486 0)
(4.92931 0.663075 0)
(4.86227 0.581861 0)
(4.75222 0.361628 0)
(4.602 0.204111 0)
(4.44662 0.108805 0)
(4.30333 0.0543235 0)
(4.17523 0.0240158 0)
(4.06169 0.00736173 0)
(3.96179 -0.00170181 0)
(3.87433 -0.00647565 0)
(3.79761 -0.00880513 0)
(3.73003 -0.00975668 0)
(3.67016 -0.00994401 0)
(3.61691 -0.00972392 0)
(3.56925 -0.00930235 0)
(3.52641 -0.00881307 0)
(3.48744 -0.00833208 0)
(3.45221 -0.00806734 0)
(0.000544808 -0.00108156 1.64146e-16)
(0.00321781 -0.00330025 -1.74734e-16)
(0.00737899 -0.00515677 0)
(0.0123333 -0.00613169 0)
(0.0171834 -0.00618059 0)
(0.0214534 -0.00556869 1.16876e-16)
(0.0249086 -0.00459612 0)
(0.0274535 -0.00348622 0)
(0.0290849 -0.00237783 0)
(0.0298641 -0.0013517 0)
(0.0298542 -0.000460796 -1.03626e-16)
(0.0291713 0.000261991 0)
(0.0279518 0.000817882 0)
(0.0262943 0.00123875 0)
(0.0242746 0.00156853 0)
(0.0219419 0.0018501 -1.06137e-16)
(0.0193182 0.00211963 0)
(0.0164016 0.00240469 0)
(0.0131725 0.00272435 0)
(0.00959988 0.00308651 0)
(0.00564631 0.00348167 0)
(0.00127097 0.00387629 0)
(-0.00357277 0.00423907 0)
(-0.00894529 0.00458838 -1.0921e-16)
(-0.0149102 0.00496439 1.02562e-16)
(-0.0215328 0.00538896 -9.6122e-17)
(-0.0288846 0.00587417 -8.99153e-17)
(-0.037041 0.00642812 0)
(-0.0460779 0.00705748 0)
(-0.0560685 0.00776635 7.28183e-17)
(-0.0670808 0.00855528 6.7676e-17)
(-0.0791735 0.00941958 0)
(-0.092393 0.0103496 0)
(-0.10677 0.0113314 5.40964e-17)
(-0.122318 0.0123483 0)
(-0.139031 0.0133823 0)
(-0.156886 0.0144145 -4.33456e-17)
(-0.175845 0.015425 0)
(-0.195849 0.0163921 -3.76287e-17)
(-0.216825 0.0172934 -7.03115e-17)
(-0.238686 0.0181135 0)
(-0.26134 0.0188422 0)
(-0.28469 0.0194734 0)
(-0.308638 0.0200044 0)
(-0.333087 0.0204363 0)
(-0.357946 0.0207728 -4.90377e-17)
(-0.383128 0.02102 -4.65584e-17)
(-0.408554 0.0211851 -4.4303e-17)
(-0.434151 0.0212766 0)
(-0.459856 0.0213029 4.03706e-17)
(-0.485613 0.0212729 0)
(-0.511373 0.0211945 -3.7077e-17)
(-0.537095 0.0210755 -3.56284e-17)
(-0.562741 0.0209223 0)
(-0.588283 0.0207411 0)
(-0.613695 0.0205363 0)
(-0.638955 0.0203123 -3.0861e-17)
(-0.664043 0.0200722 0)
(-0.688943 0.0198183 0)
(-0.713639 0.0195523 0)
(-0.738118 0.0192757 0)
(-0.762366 0.0189888 0)
(-0.786367 0.0186922 0)
(-0.810108 0.0183856 0)
(-0.833575 0.018069 0)
(-0.856752 0.0177417 2.39906e-17)
(-0.879622 0.0174034 0)
(-0.902167 0.0170532 0)
(-0.924369 0.0166904 -2.24319e-17)
(-0.946207 0.0163138 -2.19694e-17)
(-0.96766 0.0159227 0)
(-0.988706 0.0155156 2.11198e-17)
(-1.00932 0.0150916 -2.07298e-17)
(-1.02948 0.0146491 0)
(-1.04915 0.014187 2.00129e-17)
(-1.06831 0.0137033 0)
(-1.08693 0.0131968 0)
(-1.10497 0.0126664 -1.9081e-17)
(-1.12241 0.012114 0)
(-1.13921 0.0115454 1.8546e-17)
(-1.15536 0.0109721 0)
(-1.1708 0.0104087 -1.80735e-17)
(-1.18552 0.00986975 -1.78566e-17)
(-1.19958 0.00934256 -1.76527e-17)
(-1.21294 0.00881326 -3.4923e-17)
(-1.2256 0.00828068 3.45646e-17)
(-1.23754 0.0077397 0)
(-1.24873 0.00718887 0)
(-1.25916 0.00662582 0)
(-1.2688 0.00604794 3.3358e-17)
(-1.27762 0.00545184 3.31104e-17)
(-1.2856 0.00483302 -3.28838e-17)
(-1.29269 0.00418526 0)
(-1.29887 0.00350115 3.24938e-17)
(-1.30408 0.0027762 3.23309e-17)
(-1.30828 0.00201593 3.21903e-17)
(-1.31143 0.00124663 0)
(-1.31344 0.000521413 0)
(-1.31425 -0.000106223 0)
(-1.31414 -0.000657915 3.18259e-17)
(-1.31312 -0.00118619 0)
(-1.31119 -0.00170594 0)
(-1.30836 -0.00222196 -3.17274e-17)
(-1.30462 -0.00273526 0)
(-1.29997 -0.00324561 0)
(-1.2944 -0.00375277 -3.17838e-17)
(-1.28791 -0.00425606 0)
(-1.28049 -0.00475527 0)
(-1.27215 -0.00524971 3.19989e-17)
(-1.26288 -0.00573925 3.2107e-17)
(-1.25269 -0.00622312 0)
(-1.24157 -0.00670127 -3.23798e-17)
(-1.22954 -0.00717289 0)
(-1.21659 -0.007638 3.27309e-17)
(-1.20273 -0.00809577 0)
(-1.18797 -0.00854629 3.31646e-17)
(-1.17232 -0.00898864 3.3414e-17)
(-1.15578 -0.00942299 0)
(-1.13836 -0.00984858 0)
(-1.12008 -0.010266 0)
(-1.10096 -0.0106746 0)
(-1.081 -0.0110748 0)
(-1.06022 -0.0114656 0)
(-1.03863 -0.0118477 0)
(-1.01625 -0.0122207 3.62971e-17)
(-0.993105 -0.0125853 -3.67848e-17)
(-0.9692 -0.0129389 0)
(-0.944558 -0.0132847 0)
(-0.919195 -0.0136211 0)
(-0.89314 -0.0139473 0)
(-0.866414 -0.0142653 -7.95067e-17)
(-0.839037 -0.0145763 0)
(-0.811034 -0.0148784 8.24547e-17)
(-0.782428 -0.0151728 -8.4072e-17)
(-0.753246 -0.0154586 0)
(-0.723511 -0.015737 0)
(-0.693253 -0.0160078 0)
(-0.662496 -0.0162718 9.16526e-17)
(-0.63127 -0.0165286 9.38661e-17)
(-0.599602 -0.0167792 0)
(-0.567522 -0.0170233 9.87434e-17)
(-0.53506 -0.0172614 1.01431e-16)
(-0.502245 -0.0174936 -1.04303e-16)
(-0.469108 -0.0177199 0)
(-0.435679 -0.0179404 0)
(-0.401988 -0.0181551 -1.14189e-16)
(-0.368068 -0.0183642 0)
(-0.333948 -0.0185678 0)
(-0.299662 -0.0187662 0)
(-0.265241 -0.0189595 0)
(-0.230718 -0.0191477 1.36242e-16)
(-0.196123 -0.0193314 1.41762e-16)
(-0.16149 -0.0195114 0)
(-0.126851 -0.0196903 1.5426e-16)
(-0.092233 -0.0198783 0)
(-0.0576622 -0.0200632 0)
(-0.023232 -0.0201847 1.77695e-16)
(0.0110369 -0.0199578 0)
(0.045194 -0.0193845 1.69857e-16)
(0.0791891 -0.0187716 0)
(0.112969 -0.0181851 0)
(0.146509 -0.0176278 1.4849e-16)
(0.1798 -0.0170975 0)
(0.212832 -0.0165902 1.37389e-16)
(0.245598 -0.0161009 0)
(0.278068 -0.0156225 0)
(0.310217 -0.0151553 0)
(0.342038 -0.0147017 -1.20215e-16)
(0.373512 -0.0142598 0)
(0.404618 -0.0138252 1.13494e-16)
(0.435323 -0.0133922 0)
(0.465579 -0.012953 0)
(0.495317 -0.0124961 0)
(0.524421 -0.0120025 0)
(0.552732 -0.0114369 0)
(0.579816 -0.0107347 0)
(0.605445 -0.0097236 0)
(0.626424 -0.00805472 -1.91742e-16)
(0.646774 -0.00441938 0)
(0.631012 0.00530568 0)
(0.00134605 -0.00671837 -4.62779e-16)
(0.00584637 -0.0130767 3.78121e-16)
(0.0102089 -0.0152214 0)
(0.0137515 -0.0148657 -1.30742e-16)
(0.0163905 -0.0131264 0)
(0.0181233 -0.01065 -4.96043e-17)
(0.0189969 -0.00786321 9.26423e-17)
(0.0190693 -0.00504676 8.85859e-17)
(0.01839 -0.00237513 0)
(0.0170016 5.27269e-05 8.40416e-17)
(0.01496 0.00218329 4.1337e-17)
(0.0122916 0.00399772 0)
(0.00900946 0.00551839 0)
(0.00513178 0.00680127 0)
(0.000670993 0.00791648 0)
(-0.00436826 0.00893567 3.88126e-17)
(-0.00999192 0.0099263 0)
(-0.0162169 0.0109448 -7.24382e-17)
(-0.023072 0.0120339 0)
(-0.0305978 0.0132232 0)
(-0.0388474 0.0145288 6.55164e-17)
(-0.0478824 0.0159535 0)
(-0.0577567 0.0174945 -6.15484e-17)
(-0.0685161 0.0191573 2.98374e-17)
(-0.0802134 0.0209559 -2.89068e-17)
(-0.0929013 0.0228996 2.79695e-17)
(-0.106622 0.0249879 2.7021e-17)
(-0.121404 0.0272109 0)
(-0.137262 0.0295504 0)
(-0.154197 0.0319813 -2.41181e-17)
(-0.172187 0.0344722 2.31462e-17)
(-0.191197 0.0369862 0)
(-0.211172 0.0394831 0)
(-0.232042 0.0419209 -2.0314e-17)
(-0.253724 0.0442588 0)
(-0.276125 0.0464584 0)
(-0.299145 0.0484833 1.77516e-17)
(-0.322673 0.0502953 0)
(-0.346601 0.051874 -1.62412e-17)
(-0.370825 0.0532085 3.10975e-17)
(-0.39525 0.054294 0)
(-0.419788 0.0551335 0)
(-0.44436 0.0557371 5.48858e-17)
(-0.468896 0.0561192 5.27598e-17)
(-0.493336 0.0562979 5.07751e-17)
(-0.517633 0.0562931 -2.44612e-17)
(-0.541744 0.0561266 2.3596e-17)
(-0.565638 0.0558196 6.83632e-17)
(-0.589292 0.0553931 -4.40638e-17)
(-0.612686 0.0548664 -2.13243e-17)
(-0.635808 0.0542575 0)
(-0.658649 0.0535817 2.0039e-17)
(-0.681204 0.0528529 -1.94545e-17)
(-0.703468 0.0520823 0)
(-0.725439 0.0512794 0)
(-0.747117 0.0504513 0)
(-0.7685 0.0496039 1.74349e-17)
(-0.789586 0.0487411 0)
(-0.810374 0.0478658 -3.31673e-17)
(-0.830862 0.0469795 0)
(-0.851045 0.046083 -3.16356e-17)
(-0.870919 0.0451763 0)
(-0.890478 0.0442589 3.02514e-17)
(-0.909713 0.0433296 0)
(-0.928618 0.0423875 -2.89956e-17)
(-0.947182 0.0414308 1.42055e-17)
(-0.965393 0.0404582 0)
(-0.983241 0.0394681 2.73196e-17)
(-1.00071 0.0384591 1.3405e-17)
(-1.01779 0.0374298 1.31614e-17)
(-1.03446 0.0363787 0)
(-1.05071 0.0353044 1.27058e-17)
(-1.06652 0.0342058 1.24926e-17)
(-1.08188 0.0330818 0)
(-1.09676 0.0319323 -1.20937e-17)
(-1.11116 0.0307567 2.38148e-17)
(-1.12505 0.029555 0)
(-1.13843 0.0283261 1.15592e-17)
(-1.15127 0.0270699 0)
(-1.16356 0.0257884 -3.37269e-17)
(-1.17531 0.0244901 0)
(-1.18649 0.0231891 3.28637e-17)
(-1.19708 0.0219006 1.08205e-17)
(-1.20707 0.0206212 -1.06922e-17)
(-1.21642 0.0193397 -2.1139e-17)
(-1.22511 0.0180514 2.09045e-17)
(-1.23312 0.0167529 0)
(-1.24043 0.0154421 0)
(-1.24702 0.0141177 0)
(-1.25288 0.0127783 -6.02063e-17)
(-1.25799 0.0114227 -1.98839e-17)
(-1.26235 0.0100505 1.97082e-17)
(-1.26593 0.00866149 0)
(-1.26875 0.00725363 1.93837e-17)
(-1.27079 0.00582293 -1.92348e-17)
(-1.27208 0.00436695 -1.90953e-17)
(-1.27264 0.00289633 0)
(-1.27255 0.00144962 0)
(-1.27186 8.10853e-05 0)
(-1.27037 -0.00121431 -1.85971e-17)
(-1.26804 -0.00247757 0)
(-1.26482 -0.00372233 3.67759e-17)
(-1.26073 -0.0049537 5.48846e-17)
(-1.25574 -0.00617258 -3.64184e-17)
(-1.24984 -0.00737815 0)
(-1.24304 -0.00856923 -1.80598e-17)
(-1.23533 -0.00974428 0)
(-1.22671 -0.0109022 -3.5879e-17)
(-1.21717 -0.0120414 1.78898e-17)
(-1.20672 -0.013161 1.78472e-17)
(-1.19535 -0.0142595 0)
(-1.18308 -0.015336 5.33493e-17)
(-1.16989 -0.016389 -3.55225e-17)
(-1.1558 -0.0174178 -1.77465e-17)
(-1.14081 -0.018421 0)
(-1.12493 -0.019398 -1.77371e-17)
(-1.10816 -0.0203471 -5.32277e-17)
(-1.09052 -0.0212678 0)
(-1.07202 -0.0221588 -3.55481e-17)
(-1.05265 -0.0230201 -3.56001e-17)
(-1.03245 -0.023851 -3.56657e-17)
(-1.01142 -0.0246512 0)
(-0.989581 -0.0254193 0)
(-0.966941 -0.0261552 0)
(-0.943518 -0.0268576 1.80324e-17)
(-0.91933 -0.0275275 1.81003e-17)
(-0.894394 -0.0281641 0)
(-0.868726 -0.0287699 3.65105e-17)
(-0.842345 -0.029343 3.6685e-17)
(-0.815277 -0.0298797 0)
(-0.78754 -0.0303791 3.70888e-17)
(-0.759156 -0.030847 7.46206e-17)
(-0.730152 -0.031282 -3.7548e-17)
(-0.700548 -0.0316834 -3.77993e-17)
(-0.67037 -0.0320502 0)
(-0.639644 -0.0323837 0)
(-0.608396 -0.0326835 0)
(-0.576654 -0.0329505 -3.8967e-17)
(-0.544444 -0.0331846 3.92979e-17)
(-0.511795 -0.0333867 7.92945e-17)
(-0.478736 -0.0335569 -4.00134e-17)
(-0.445297 -0.0336957 4.03946e-17)
(-0.411509 -0.0338036 4.07956e-17)
(-0.3774 -0.033881 0)
(-0.343003 -0.0339282 0)
(-0.308347 -0.0339458 -4.20995e-17)
(-0.273466 -0.0339343 0)
(-0.23839 -0.0338944 0)
(-0.203152 -0.0338269 8.71383e-17)
(-0.167784 -0.0337326 0)
(-0.132318 -0.0336125 4.46415e-17)
(-0.0967854 -0.0334674 -4.52081e-17)
(-0.0612181 -0.0332978 0)
(-0.0256511 -0.0331055 4.63959e-17)
(0.00989337 -0.0328874 0)
(0.0453922 -0.0326386 0)
(0.0808301 -0.0323556 -4.51863e-17)
(0.116169 -0.0319563 8.92585e-17)
(0.151313 -0.0314202 -4.41495e-17)
(0.186236 -0.0308374 0)
(0.220953 -0.03025 0)
(0.25545 -0.0296681 4.29091e-17)
(0.289713 -0.0290925 0)
(0.323728 -0.0285214 4.21795e-17)
(0.357482 -0.0279505 0)
(0.390961 -0.0273761 0)
(0.424149 -0.0267994 0)
(0.457032 -0.0262219 4.09114e-17)
(0.489588 -0.0256405 0)
(0.521793 -0.0250494 -4.0366e-17)
(0.553614 -0.0244396 0)
(0.585005 -0.0237976 0)
(0.615898 -0.0231009 7.93188e-17)
(0.646186 -0.022312 -7.89181e-17)
(0.67571 -0.0213586 0)
(0.704125 -0.0201097 0)
(0.731144 -0.0182167 0)
(0.754953 -0.0151016 2.3427e-16)
(0.777357 -0.00841474 0)
(0.786568 0.00661363 -1.60039e-16)
(0.00151314 -0.0142078 -1.22597e-22)
(0.00512028 -0.0220159 -4.06492e-16)
(0.00757516 -0.0217057 0)
(0.0088166 -0.0186781 1.83525e-16)
(0.00909681 -0.0147378 0)
(0.00854633 -0.0104853 0)
(0.0072785 -0.00620577 1.22308e-23)
(0.00537046 -0.00207056 -5.56602e-17)
(0.0028606 0.00181265 -5.3306e-17)
(-0.000235585 0.00538252 -5.13881e-17)
(-0.00392148 0.00861862 0)
(-0.00820832 0.011532 0)
(-0.0131134 0.014158 4.6774e-17)
(-0.0186578 0.0165525 9.10563e-17)
(-0.0248637 0.0187853 -8.8678e-17)
(-0.0317545 0.0209323 0)
(-0.0393542 0.0230669 -8.41077e-17)
(-0.0476895 0.0252538 4.09484e-17)
(-0.0567892 0.0275457 0)
(-0.0666847 0.0299817 -7.76344e-17)
(-0.0774093 0.0325876 -3.77931e-17)
(-0.0889961 0.0353772 7.35877e-17)
(-0.101474 0.0383556 3.5812e-17)
(-0.114861 0.041519 0)
(-0.129168 0.0448551 -6.77252e-17)
(-0.144387 0.0483448 -6.57648e-17)
(-0.160498 0.0519595 0)
(-0.177465 0.0556611 -6.18107e-17)
(-0.195237 0.0594034 0)
(-0.213748 0.063134 -5.78434e-17)
(-0.232921 0.0667971 -2.79372e-17)
(-0.252669 0.0703352 0)
(-0.272899 0.0736925 0)
(-0.293516 0.0768167 0)
(-0.314426 0.0796605 0)
(-0.335539 0.0821832 0)
(-0.356763 0.0843581 0)
(-0.378024 0.0861732 -4.3173e-17)
(-0.399263 0.0876226 6.23849e-17)
(-0.420432 0.0887121 0)
(-0.441492 0.0894557 0)
(-0.462412 0.0898726 0)
(-0.483168 0.0899865 5.16562e-23)
(-0.503746 0.0898267 -3.4823e-17)
(-0.524135 0.089425 -6.7365e-17)
(-0.54433 0.0888135 6.52105e-17)
(-0.564329 0.0880233 3.15878e-17)
(-0.584133 0.087084 -3.06265e-17)
(-0.603743 0.0860226 -5.40212e-23)
(-0.623163 0.0848633 -2.88585e-17)
(-0.642395 0.0836272 0)
(-0.661443 0.0823319 -2.72746e-17)
(-0.680308 0.0809923 -6.31826e-23)
(-0.698993 0.07962 0)
(-0.717497 0.0782243 0)
(-0.73582 0.0768117 2.45662e-17)
(-0.75396 0.0753868 0)
(-0.771915 0.0739524 0)
(-0.78968 0.0725099 -2.2861e-17)
(-0.80725 0.0710592 -4.4688e-17)
(-0.824618 0.0695998 2.185e-17)
(-0.841777 0.06813 0)
(-0.858718 0.0666479 -2.09257e-17)
(-0.875431 0.0651511 0)
(-0.891906 0.0636371 -2.00781e-17)
(-0.90813 0.0621034 -1.96801e-17)
(-0.92409 0.0605474 3.85969e-17)
(-0.939773 0.0589668 1.89321e-17)
(-0.955164 0.0573592 0)
(-0.970248 0.0557228 -3.64845e-17)
(-0.985009 0.0540557 0)
(-0.999431 0.0523564 -5.28162e-17)
(-1.0135 0.0506237 -3.4611e-17)
(-1.02719 0.0488569 -3.40344e-17)
(-1.04049 0.0470559 3.34804e-17)
(-1.05339 0.0452212 -4.94219e-17)
(-1.06586 0.0433541 0)
(-1.07789 0.0414561 0)
(-1.08946 0.0395296 3.14736e-17)
(-1.10056 0.037578 4.6531e-17)
(-1.11117 0.0356075 0)
(-1.12127 0.0336247 -1.50839e-17)
(-1.13083 0.0316342 0)
(-1.13983 0.0296338 4.40688e-17)
(-1.14824 0.0276201 -6.57839e-23)
(-1.15605 0.0255909 5.79019e-23)
(-1.16322 0.0235452 -2.83049e-17)
(-1.16975 0.0214826 0)
(-1.17562 0.0194035 2.76559e-17)
(-1.18081 0.0173085 -2.35177e-23)
(-1.18531 0.0151984 0)
(-1.1891 0.013076 0)
(-1.19218 0.010945 0)
(-1.19454 0.00881122 -2.62493e-17)
(-1.19619 0.006682 0)
(-1.19711 0.00456813 0)
(-1.1973 0.00248358 0)
(-1.19676 0.000436996 0)
(-1.19544 -0.00158496 0)
(-1.19331 -0.00359586 -2.4882e-17)
(-1.19035 -0.00559307 0)
(-1.18654 -0.00757367 -2.44925e-17)
(-1.18188 -0.00953601 -2.43122e-17)
(-1.17634 -0.0114779 2.41412e-17)
(-1.16994 -0.0133972 0)
(-1.16265 -0.0152912 2.38267e-17)
(-1.15449 -0.0171576 0)
(-1.14543 -0.0189942 2.35475e-17)
(-1.13549 -0.0207989 -2.34208e-17)
(-1.12466 -0.0225695 -6.99073e-17)
(-1.11295 -0.0243042 0)
(-1.10035 -0.0260008 -6.92714e-17)
(-1.08686 -0.0276577 -2.29963e-17)
(-1.0725 -0.029273 0)
(-1.05726 -0.030845 -4.56643e-17)
(-1.04115 -0.0323721 -4.5523e-17)
(-1.02419 -0.0338527 6.80955e-17)
(-1.00637 -0.0352848 0)
(-0.987709 -0.0366675 2.25948e-17)
(-0.968215 -0.0379996 2.25538e-17)
(-0.947901 -0.0392804 6.75595e-17)
(-0.926782 -0.0405087 0)
(-0.904869 -0.0416833 0)
(-0.882176 -0.0428027 0)
(-0.858721 -0.0438666 2.24542e-17)
(-0.834518 -0.0448749 0)
(-0.809585 -0.0458281 0)
(-0.783937 -0.046727 -2.24764e-17)
(-0.757596 -0.0475703 -2.24954e-17)
(-0.730582 -0.0483545 0)
(-0.702912 -0.0490786 0)
(-0.67461 -0.0497465 -4.52021e-17)
(-0.6457 -0.0503583 0)
(-0.616203 -0.0509125 4.5405e-17)
(-0.586146 -0.0514088 4.5525e-17)
(-0.555552 -0.0518479 0)
(-0.524447 -0.0522298 0)
(-0.492858 -0.0525553 -4.59635e-17)
(-0.460812 -0.0528248 -7.77394e-22)
(-0.428336 -0.0530389 -7.85526e-22)
(-0.39546 -0.0531981 0)
(-0.362213 -0.053303 -9.34468e-17)
(-0.328624 -0.0533542 0)
(-0.294724 -0.0533522 0)
(-0.260542 -0.0532975 0)
(-0.22611 -0.0531911 4.76762e-17)
(-0.191459 -0.0530336 0)
(-0.156621 -0.0528262 -9.64424e-17)
(-0.121627 -0.0525702 -4.85118e-17)
(-0.086509 -0.0522668 0)
(-0.0512988 -0.0519173 -4.91239e-17)
(-0.0160269 -0.0515239 0)
(0.0192783 -0.0510878 0)
(0.0545853 -0.0506117 -1.46663e-16)
(0.0898586 -0.0500945 9.70025e-17)
(0.125068 -0.0495329 0)
(0.160193 -0.0489255 9.55803e-17)
(0.195213 -0.0482821 -4.74935e-17)
(0.230089 -0.0476036 0)
(0.264795 -0.046891 0)
(0.299317 -0.0461619 0)
(0.333632 -0.0454241 -1.39899e-16)
(0.367722 -0.0446795 0)
(0.40157 -0.0439279 -4.62889e-17)
(0.43516 -0.0431666 0)
(0.46848 -0.0423935 0)
(0.501517 -0.0416093 0)
(0.534254 -0.0408139 0)
(0.56667 -0.0400032 0)
(0.598742 -0.0391694 0)
(0.630436 -0.0382996 -9.0774e-17)
(0.661709 -0.0373736 0)
(0.692498 -0.036358 -4.5221e-17)
(0.722704 -0.035196 1.35473e-16)
(0.752187 -0.0337844 0)
(0.780672 -0.0319335 0)
(0.807947 -0.0292278 -9.0247e-17)
(0.832886 -0.0249166 -9.0451e-17)
(0.857104 -0.0170361 9.10508e-17)
(0.874295 -0.001206 9.28822e-17)
(0.0011254 -0.0198562 7.85258e-16)
(0.0026171 -0.0262456 5.23736e-16)
(0.00271592 -0.023191 2.10729e-16)
(0.00180167 -0.0179954 7.44721e-17)
(0.000136701 -0.0123692 0)
(-0.0021727 -0.0067389 -1.02022e-16)
(-0.00505114 -0.00126256 4.57649e-17)
(-0.00845716 0.00397485 0)
(-0.0123789 0.00892245 3.9735e-17)
(-0.0168256 0.0135561 0)
(-0.0218189 0.0178758 -7.30877e-17)
(-0.027388 0.0219033 0)
(-0.033566 0.0256806 -3.44783e-17)
(-0.0403868 0.0292659 -6.72348e-17)
(-0.0478828 0.0327285 6.5615e-17)
(-0.0560834 0.0361412 0)
(-0.0650139 0.0395735 6.25161e-17)
(-0.0746953 0.0430863 0)
(-0.0851436 0.0467274 0)
(-0.0963698 0.0505292 5.80008e-17)
(-0.108378 0.0545079 0)
(-0.121167 0.0586643 6.3429e-23)
(-0.134725 0.0629851 0)
(-0.149031 0.0674453 0)
(-0.164051 0.0720101 -6.06358e-23)
(-0.17974 0.076636 4.91135e-17)
(-0.196039 0.0812716 4.76297e-17)
(-0.212879 0.0858591 4.61496e-17)
(-0.230185 0.0903372 0)
(-0.247874 0.0946431 8.6443e-17)
(-0.265865 0.0987164 0)
(-0.284074 0.102501 4.03727e-17)
(-0.302423 0.105949 0)
(-0.320842 0.10902 0)