/*--------------------------------*- C++ -*----------------------------------*\
| =========                 |                                                 |
| \\      /  F ield         | OpenFOAM: The Open Source CFD Toolbox           |
|  \\    /   O peration     | Version:  2312                                  |
|   \\  /    A nd           | Website:  www.openfoam.com                      |
|    \\/     M anipulation  |                                                 |
\*---------------------------------------------------------------------------*/
FoamFile
{
    version     2.0;
    format      ascii;
    arch        "LSB;label=32;scalar=64";
    class       volScalarField;
    location    "1";
    object      blendingFactorField;
}
// * * * * * * * * * * * * * * * * * * * * * * * * * * * * * * * * * * * * * //

dimensions      [0 0 0 0 0 0 0];

internalField   nonuniform List<scalar> 
400
(
0
0
0
0
0
0
0.0377517
0.0794291
0.115659
0.144164
0.161993
0.166707
0.166707
0.154462
0.122995
0.0718129
0.00341453
0
0
0
0
0
0
0
0
0.0451026
0.0964863
0.143637
0.184517
0.216679
0.237321
0.242703
0.242703
0.230104
0.197014
0.142908
0.0702246
0
0
0
0
0
0
0
0.00900679
0.0638706
0.117049
0.166899
0.211388
0.248007
0.273665
0.284592
0.284592
0.277073
0.247567
0.194158
0.118278
0.0259864
0
0
0
0
0
0
0.0197207
0.0759866
0.131707
0.185613
0.235944
0.280271
0.315247
0.336388
0.338347
0.338347
0.314906
0.261015
0.175987
0.135597
0.106712
0.010154
0
0
0.00997289
0.0193703
0.0272916
0.0859849
0.145614
0.205527
0.264508
0.320446
0.369823
0.407077
0.424474
0.424474
0.411055
0.355767
0.25498
0.285702
0.237072
0.093509
0
0.0486898
0.0670289
0.0772374
0.0825918
0.0942682
0.15885
0.226471
0.296853
0.368666
0.438608
0.500147
0.54219
0.547288
0.547288
0.492486
0.450175
0.491829
0.385926
0.154379
0.0487005
0.10528
0.124682
0.136166
0.143832
0.148503
0.169544
0.24581
0.329739
0.42159
0.519282
0.616429
0.699376
0.743824
0.743824
0.706054
0.736605
0.806315
0.572318
0.158942
0.0976107
0.161145
0.182152
0.195322
0.205922
0.215398
0.223982
0.258945
0.356984
0.471711
0.604386
0.752528
0.906344
1
1
1
1
1
0.938008
0.158942
0.144486
0.21558
0.238462
0.253409
0.26718
0.282237
0.299887
0.320471
0.368859
0.505354
0.676912
0.892847
1
1
1
1
1
1
1
0.368406
0.189047
0.267934
0.292496
0.308725
0.325157
0.345615
0.372904
0.409201
0.455588
0.511205
0.703855
0.992296
1
1
1
1
1
1
1
1
0.231365
0.317752
0.343138
0.359307
0.376812
0.401031
0.436424
0.487195
0.557122
0.64979
0.771764
0.939837
1
1
1
1
1
1
1
1
0.272131
0.365009
0.389475
0.403183
0.418919
0.443572
0.483027
0.54305
0.629372
0.748559
0.91247
1
1
1
1
1
1
1
1
1
0.313144
0.410358
0.43089
0.438621
0.448627
0.469001
0.506493
0.567505
0.658205
0.784919
0.957556
1
1
1
0.989399
0.32822
1
1
1
1
0.357499
0.455228
0.467238
0.464262
0.463887
0.474729
0.506493
0.567505
0.658205
0.784919
0.957556
1
1
1
0.989399
0.32755
1
1
1
1
0.411366
0.501351
0.497669
0.47851
0.463887
0.474729
0.503612
0.556484
0.638665
0.753084
0.903965
1
1
1
0.949216
0.949216
1
1
1
1
0.479858
0.549921
0.521615
0.480005
0.463328
0.460213
0.47476
0.511726
0.574319
0.66536
0.780564
0.909988
1
0.9943
1
1
1
1
1
1
0.587573
0.596211
0.523459
0.480005
0.446555
0.426407
0.423154
0.439261
0.477544
0.537285
0.613257
0.691651
0.823943
1
1
1
1
1
1
1
0.736906
0.605404
0.523459
0.459331
0.411181
0.374865
0.352659
0.346383
0.356682
0.383353
0.558349
0.79259
1
1
1
1
1
1
1
1
0.919271
0.605404
0.483994
0.41017
0.347741
0.453369
0.652136
0.847992
1
1
1
1
1
1
1
1
1
1
1
1
0.919271
1
1
1
1
1
1
1
1
1
1
1
1
1
1
1
1
1
1
1
)
;

boundaryField
{
    movingWall
    {
        type            zeroGradient;
    }
    fixedWalls
    {
        type            zeroGradient;
    }
    frontAndBack
    {
        type            empty;
    }
}


// ************************************************************************* //
