/*--------------------------------*- C++ -*----------------------------------*\
| =========                 |                                                 |
| \\      /  F ield         | OpenFOAM: The Open Source CFD Toolbox           |
|  \\    /   O peration     | Version:  2312                                  |
|   \\  /    A nd           | Website:  www.openfoam.com                      |
|    \\/     M anipulation  |                                                 |
\*---------------------------------------------------------------------------*/
FoamFile
{
    version     2.0;
    format      ascii;
    arch        "LSB;label=32;scalar=64";
    class       volScalarField;
    location    "1";
    object      CourantNumberField;
}
// * * * * * * * * * * * * * * * * * * * * * * * * * * * * * * * * * * * * * //

dimensions      [0 0 0 0 0 0 0];

internalField   nonuniform List<scalar> 
400
(
0.000626469
0.00200613
0.00381341
0.00577981
0.00776278
0.00968907
0.0115101
0.0131772
0.0146263
0.0157666
0.0164797
0.0166683
0.0166683
0.0161785
0.0149198
0.0128725
0.0101366
0.00697257
0.00382749
0.00131387
0.00198941
0.00459606
0.00708794
0.00941712
0.0116302
0.0137304
0.0156804
0.0174126
0.0188299
0.0198074
0.020206
0.0198967
0.020198
0.0204628
0.0199278
0.0184523
0.015973
0.0125469
0.0083548
0.00381134
0.00379944
0.0070928
0.00984762
0.012289
0.0145397
0.016638
0.0185583
0.0202291
0.0215399
0.022347
0.0224854
0.0217876
0.0223775
0.0236652
0.0241142
0.0234096
0.0213023
0.0177451
0.0129182
0.00697291
0.0058042
0.00945442
0.012335
0.0148646
0.017176
0.0193172
0.0212717
0.0229716
0.0243018
0.0251023
0.025175
0.0242965
0.0247501
0.0272964
0.0289442
0.029119
0.0273024
0.023369
0.0177017
0.0104062
0.0078688
0.0117482
0.0146975
0.017309
0.019716
0.0219678
0.0240568
0.0259244
0.0274575
0.0284824
0.0287571
0.0279697
0.0274993
0.0316791
0.0349458
0.0363102
0.034752
0.0299767
0.0228171
0.0137404
0.00992832
0.0140071
0.0170046
0.0196952
0.0222241
0.0246468
0.0269714
0.0291587
0.0311106
0.0326487
0.0334835
0.0331827
0.0316876
0.0369245
0.0426066
0.0458754
0.0446411
0.0380621
0.0278719
0.0161752
0.011948
0.0162309
0.0192706
0.0220361
0.0246999
0.0273363
0.0299824
0.0326371
0.0352413
0.0376382
0.0395082
0.0402955
0.0391364
0.043008
0.0526601
0.0596756
0.0596818
0.0498907
0.0330752
0.0163577
0.0139044
0.0184022
0.0214771
0.0243027
0.027093
0.0299556
0.0329747
0.0362132
0.0396883
0.0433171
0.04682
0.0496254
0.050733
0.0517017
0.0661197
0.0818503
0.0882376
0.0764159
0.0475203
0.0163577
0.0157795
0.0204982
0.0235909
0.0264412
0.0293155
0.0323681
0.0357476
0.0396072
0.0440848
0.0492519
0.0550281
0.0611638
0.0672494
0.0716052
0.0816826
0.114059
0.136696
0.131088
0.0876118
0.0247362
0.0175619
0.0224998
0.0255764
0.0283869
0.0312569
0.0343943
0.0380209
0.0423935
0.0477981
0.054537
0.0629681
0.0737792
0.0879579
0.102977
0.107195
0.138631
0.18341
0.197696
0.15589
0.0561054
0.0192546
0.0244028
0.027411
0.0300834
0.0328069
0.0358419
0.0394742
0.0440459
0.0499627
0.0577308
0.0681531
0.0828179
0.10322
0.123384
0.125028
0.129919
0.193735
0.237535
0.225232
0.111893
0.0208852
0.026231
0.0290999
0.0315017
0.0338862
0.0365566
0.0398364
0.0441015
0.0497886
0.0574461
0.0679532
0.0828549
0.102458
0.117146
0.107826
0.0825213
0.155006
0.222132
0.257622
0.175528
0.0225258
0.0280548
0.0306901
0.0326559
0.0344737
0.0364769
0.0389937
0.0423729
0.0469791
0.053201
0.0615608
0.0727112
0.0852697
0.0889795
0.0678416
0.0231288
0.0928271
0.164532
0.240184
0.22668
0.0243
0.0299833
0.0322585
0.0335934
0.0346041
0.0356481
0.0370326
0.0390322
0.0418786
0.0456738
0.0504356
0.0576491
0.0702268
0.0795727
0.066785
0.0235224
0.074137
0.118335
0.195309
0.255529
0.0264546
0.0322087
0.0339063
0.0343572
0.0343199
0.0341729
0.0341742
0.0344987
0.0355466
0.0404578
0.050002
0.0623992
0.0775606
0.0890747
0.0829857
0.0498791
0.0858829
0.115027
0.166461
0.266535
0.0291943
0.0347365
0.035547
0.0348405
0.0335623
0.0320855
0.0306031
0.030469
0.0342587
0.0417713
0.0515025
0.0633717
0.0765554
0.0866644
0.0840466
0.0604268
0.082737
0.107312
0.140666
0.266535
0.0335029
0.0381571
0.0370986
0.0346072
0.0318543
0.0289867
0.0269262
0.0284599
0.0337063
0.0409304
0.0501266
0.0608989
0.0720778
0.0805925
0.0802838
0.0646503
0.0755232
0.0969093
0.123254
0.266465
0.0394762
0.0401894
0.0357007
0.0311692
0.0267056
0.0249946
0.0270906
0.0307977
0.0359398
0.0426803
0.0510811
0.060818
0.0708237
0.078854
0.0811268
0.0725444
0.0747226
0.0911061
0.107813
0.258236
0.0467709
0.0393852
0.0293598
0.0290557
0.035307
0.0416721
0.048283
0.0552107
0.0625133
0.0703526
0.0788974
0.0881097
0.0974962
0.105747
0.110888
0.109238
0.107045
0.114222
0.103943
0.240495
0.0467709
0.0788614
0.100403
0.118062
0.133448
0.146986
0.159183
0.170474
0.181128
0.19133
0.201232
0.210893
0.220209
0.228682
0.235481
0.238792
0.238792
0.237674
0.223169
0.201161
)
;

boundaryField
{
    movingWall
    {
        type            zeroGradient;
    }
    fixedWalls
    {
        type            zeroGradient;
    }
    frontAndBack
    {
        type            empty;
    }
}


// ************************************************************************* //
