/*--------------------------------*- C++ -*----------------------------------*\
| =========                 |                                                 |
| \\      /  F ield         | OpenFOAM: The Open Source CFD Toolbox           |
|  \\    /   O peration     | Version:  2312                                  |
|   \\  /    A nd           | Website:  www.openfoam.com                      |
|    \\/     M anipulation  |                                                 |
\*---------------------------------------------------------------------------*/
FoamFile
{
    version     2.0;
    format      ascii;
    arch        "LSB;label=32;scalar=64";
    class       volVectorField;
    location    "1";
    object      ddtU;
}
// * * * * * * * * * * * * * * * * * * * * * * * * * * * * * * * * * * * * * //

dimensions      [0 1 -2 0 0 0 0];

internalField   nonuniform List<vector> 
400
(
(-0.000235341 0.0002546 0)
(-0.00159681 0.000774327 0)
(-0.00396095 0.00115484 0)
(-0.00677173 0.00135844 0)
(-0.00984144 0.00147623 0)
(-0.0130757 0.00156184 0)
(-0.0164239 0.00162276 0)
(-0.0198045 0.00164205 0)
(-0.0230752 0.00157964 0)
(-0.0260318 0.0013625 0)
(-0.028396 0.000948103 0)
(-0.0294637 0.000420377 0)
(-0.0293607 -0.000505636 0)
(-0.0272116 -0.00151966 0)
(-0.0231987 -0.00251037 0)
(-0.017605 -0.00319648 0)
(-0.0113377 -0.00328084 0)
(-0.00558245 -0.00254985 0)
(-0.00124633 -0.0011282 0)
(0.000320237 0.000170084 0)
(-0.000746902 0.00159649 0)
(-0.00304749 0.00322314 0)
(-0.00610507 0.00420356 0)
(-0.00956665 0.00474801 0)
(-0.0132921 0.00507344 0)
(-0.0172036 0.00528366 0)
(-0.0212288 0.00538055 0)
(-0.0252575 0.00530254 0)
(-0.029114 0.00493792 0)
(-0.0325496 0.00413522 0)
(-0.0352169 0.00276537 0)
(-0.0366428 0.000801327 0)
(-0.0364417 -0.00178227 0)
(-0.0341773 -0.00476273 0)
(-0.029729 -0.00759015 0)
(-0.0234031 -0.00951382 0)
(-0.0161359 -0.00976013 0)
(-0.00928279 -0.00803508 0)
(-0.00362581 -0.00473705 0)
(-0.000344689 -0.000840431 0)
(-0.00122827 0.00389786 0)
(-0.00400992 0.00619753 0)
(-0.00718729 0.00752564 0)
(-0.010701 0.00836019 0)
(-0.0144865 0.00892542 0)
(-0.0185062 0.00931575 0)
(-0.0227137 0.00950046 0)
(-0.0270185 0.00936696 0)
(-0.0312615 0.00873076 0)
(-0.0352029 0.00736664 0)
(-0.0384937 0.00506529 0)
(-0.0406481 0.00169265 0)
(-0.0411169 -0.00274347 0)
(-0.0392739 -0.0079081 0)
(-0.0346829 -0.01296 0)
(-0.0274693 -0.0165584 0)
(-0.0187516 -0.0172957 0)
(-0.010437 -0.0146987 0)
(-0.00373287 -0.00958627 0)
(-0.000131442 -0.0028529 0)
(-0.00144593 0.00659382 0)
(-0.00443901 0.00934101 0)
(-0.00762748 0.0108706 0)
(-0.0110933 0.0119475 0)
(-0.0148479 0.0127772 0)
(-0.0189016 0.0134184 0)
(-0.023266 0.0138079 0)
(-0.0279081 0.0137808 0)
(-0.0327324 0.0130755 0)
(-0.0375466 0.0113634 0)
(-0.0420019 0.00829905 0)
(-0.0455316 0.00356681 0)
(-0.0473312 -0.00293884 0)
(-0.0462949 -0.0109056 0)
(-0.0413279 -0.0192059 0)
(-0.0320983 -0.0255498 0)
(-0.0202105 -0.027205 0)
(-0.00896872 -0.0231523 0)
(-0.000989835 -0.0147667 0)
(0.00140236 -0.00382441 0)
(-0.00147412 0.00944322 0)
(-0.00446536 0.0125438 0)
(-0.00757119 0.014214 0)
(-0.0109283 0.0155242 0)
(-0.0146127 0.0166716 0)
(-0.018694 0.0176795 0)
(-0.0232608 0.0184577 0)
(-0.0283753 0.0187924 0)
(-0.034043 0.0183485 0)
(-0.0401638 0.0166525 0)
(-0.0464149 0.0131319 0)
(-0.0521314 0.00714183 0)
(-0.0561403 -0.00180237 0)
(-0.0565526 -0.0136656 0)
(-0.0509219 -0.027118 0)
(-0.0379263 -0.0382383 0)
(-0.0197122 -0.0414739 0)
(-0.00243651 -0.0343685 0)
(0.00707178 -0.0195406 0)
(0.00490556 -0.00165821 0)
(-0.00137587 0.0122093 0)
(-0.00419137 0.0156222 0)
(-0.00709848 0.0174185 0)
(-0.010258 0.0189816 0)
(-0.0138007 0.0205252 0)
(-0.0178609 0.0220608 0)
(-0.0226247 0.0234839 0)
(-0.0282771 0.0245574 0)
(-0.0349859 0.0248657 0)
(-0.0428246 0.0237637 0)
(-0.0515646 0.0203391 0)
(-0.0605255 0.0134087 0)
(-0.0681491 0.00167149 0)
(-0.0716728 -0.0155895 0)
(-0.0663414 -0.0373992 0)
(-0.0479301 -0.0572196 0)
(-0.0187793 -0.0639294 0)
(0.0114751 -0.0492902 0)
(0.0258018 -0.0191753 0)
(0.0125976 0.00923144 0)
(-0.00118082 0.0147169 0)
(-0.00366373 0.0184239 0)
(-0.00623301 0.020361 0)
(-0.00906248 0.0222144 0)
(-0.0123322 0.0242449 0)
(-0.0162418 0.0264825 0)
(-0.0210772 0.0288494 0)
(-0.0271841 0.0311229 0)
(-0.034952 0.0328552 0)
(-0.0447286 0.0332213 0)
(-0.0565933 0.0308335 0)
(-0.0700892 0.0238087 0)
(-0.0842063 0.0098303 0)
(-0.0960777 -0.0136917 0)
(-0.09861 -0.0475666 0)
(-0.0830435 -0.0830577 0)
(-0.0493511 -0.0990304 0)
(-0.00131152 -0.0753834 0)
(0.039114 -0.011272 0)
(0.0267663 0.0363765 0)
(-0.000896496 0.0168068 0)
(-0.00289218 0.020793 0)
(-0.00496273 0.0228907 0)
(-0.00728849 0.0250692 0)
(-0.010086 0.0276651 0)
(-0.0136074 0.0307688 0)
(-0.0182326 0.0343777 0)
(-0.0244606 0.0383533 0)
(-0.0329345 0.0422996 0)
(-0.0444044 0.0453006 0)
(-0.0595314 0.0456375 0)
(-0.0790174 0.0409947 0)
(-0.104707 0.0285188 0)
(-0.13805 0.0029726 0)
(-0.173429 -0.039167 0)
(-0.203134 -0.0916052 0)
(-0.198724 -0.132327 0)
(-0.147218 -0.130335 0)
(-0.0474714 -0.0488396 0)
(0.0172718 0.0497088 0)
(-0.0005281 0.0183245 0)
(-0.00188139 0.0225616 0)
(-0.00327744 0.0248238 0)
(-0.00489358 0.0273352 0)
(-0.00695959 0.0305292 0)
(-0.00974642 0.0345894 0)
(-0.0136751 0.0396402 0)
(-0.0193327 0.0457073 0)
(-0.0275402 0.0525687 0)
(-0.0394452 0.0594983 0)
(-0.05652 0.065162 0)
(-0.0817594 0.0687465 0)
(-0.125156 0.0703045 0)
(-0.197599 0.0656911 0)
(-0.290376 0.0255103 0)
(-0.357243 -0.0728628 0)
(-0.342097 -0.177106 0)
(-0.303926 -0.218198 0)
(-0.221018 -0.164304 0)
(-0.0190684 0.00927732 0)
(-8.66719e-05 0.0191216 0)
(-0.000650792 0.0235598 0)
(-0.00119736 0.0259623 0)
(-0.00189042 0.0287643 0)
(-0.00293539 0.0325016 0)
(-0.00456493 0.037463 0)
(-0.00714403 0.0439206 0)
(-0.0111785 0.0520944 0)
(-0.0174122 0.0620565 0)
(-0.0270944 0.0737789 0)
(-0.0418397 0.0881747 0)
(-0.0656585 0.109955 0)
(-0.119544 0.141587 0)
(-0.205615 0.151056 0)
(-0.254199 0.0643582 0)
(-0.218104 -0.0929149 0)
(-0.230658 -0.21508 0)
(-0.250444 -0.293364 0)
(-0.231905 -0.305858 0)
(-0.152428 -0.145816 0)
(0.000405223 0.0190718 0)
(0.000759358 0.0236233 0)
(0.00120154 0.0261188 0)
(0.00161205 0.0291093 0)
(0.00184613 0.0332202 0)
(0.00177658 0.038822 0)
(0.00121712 0.0462805 0)
(-3.7131e-05 0.0559224 0)
(-0.00222683 0.0680137 0)
(-0.00573305 0.0833601 0)
(-0.0101036 0.105653 0)
(-0.0166777 0.14316 0)
(-0.037939 0.185781 0)
(-0.047155 0.16144 0)
(0.0122072 0.0285107 0)
(0.0814896 -0.100249 0)
(0.098129 -0.158038 0)
(0.0139816 -0.226312 0)
(-0.0941524 -0.375452 0)
(-0.127708 -0.39868 0)
(0.000927188 0.0181006 0)
(0.00226961 0.022645 0)
(0.00377612 0.0251564 0)
(0.00538289 0.0281845 0)
(0.00703543 0.032401 0)
(0.00875081 0.0381982 0)
(0.0105765 0.0459234 0)
(0.0126712 0.0558187 0)
(0.0154349 0.0680244 0)
(0.0197917 0.083375 0)
(0.0285989 0.1055 0)
(0.0441946 0.139566 0)
(0.0721501 0.161621 0)
(0.130658 0.102285 0)
(0.245797 -0.0327903 0)
(0.360565 -0.0982673 0)
(0.37665 -0.0539463 0)
(0.297182 -0.0153356 0)
(0.133003 -0.189642 0)
(-0.00414613 -0.421691 0)
(0.0014592 0.016131 0)
(0.003768 0.0205857 0)
(0.00631423 0.0230349 0)
(0.00907623 0.0259389 0)
(0.0121039 0.029953 0)
(0.0155482 0.0354412 0)
(0.0196378 0.0426451 0)
(0.0247545 0.0515769 0)
(0.0316344 0.061943 0)
(0.0422521 0.0731345 0)
(0.0599998 0.0872292 0)
(0.0907489 0.104095 0)
(0.139997 0.0938458 0)
(0.206518 0.0195963 0)
(0.305156 -0.121012 0)
(0.360608 -0.202601 0)
(0.355133 -0.0977939 0)
(0.330229 0.0768049 0)
(0.231764 0.0687621 0)
(0.0764564 -0.283131 0)
(0.00195776 0.0132827 0)
(0.00513136 0.0175432 0)
(0.00855278 0.0198612 0)
(0.0122835 0.0224915 0)
(0.016453 0.0260474 0)
(0.0212942 0.0308043 0)
(0.0271507 0.036904 0)
(0.0343914 0.044159 0)
(0.0430953 0.0520455 0)
(0.0561502 0.0561519 0)
(0.0752574 0.0611343 0)
(0.108958 0.059774 0)
(0.151002 0.0340838 0)
(0.196477 -0.0540115 0)
(0.217963 -0.15507 0)
(0.220465 -0.215665 0)
(0.188046 -0.124396 0)
(0.142961 0.00415601 0)
(0.173086 0.145317 0)
(0.0763096 -0.116329 0)
(0.00254747 0.00945992 0)
(0.00616772 0.0136682 0)
(0.0100663 0.0158507 0)
(0.0146657 0.0181914 0)
(0.0194786 0.0209472 0)
(0.0251832 0.0247866 0)
(0.0322167 0.0294589 0)
(0.0410023 0.0345354 0)
(0.0483806 0.0391115 0)
(0.0612239 0.0411012 0)
(0.0801385 0.0384147 0)
(0.1012 0.0269364 0)
(0.124529 -0.00776149 0)
(0.140051 -0.0785511 0)
(0.127748 -0.152405 0)
(0.1001 -0.148632 0)
(0.0548905 -0.0683864 0)
(0.013976 0.0120064 0)
(0.0689822 0.0700357 0)
(0.0386434 -0.00688204 0)
(0.00174203 0.00578297 0)
(0.00602632 0.00962601 0)
(0.0101687 0.0113306 0)
(0.0150953 0.0130854 0)
(0.0201202 0.0156479 0)
(0.0264193 0.0181432 0)
(0.0336539 0.0214094 0)
(0.0422377 0.0248696 0)
(0.0511485 0.0268163 0)
(0.0618858 0.0290507 0)
(0.074533 0.0229832 0)
(0.0861231 0.00843094 0)
(0.0947063 -0.0204624 0)
(0.0918164 -0.0678263 0)
(0.0642818 -0.106091 0)
(0.0267709 -0.0958833 0)
(-0.00937788 -0.0410154 0)
(-0.025085 0.0204694 0)
(0.015858 0.0529937 0)
(0.0100684 0.0114557 0)
(0.00322081 0.00134336 0)
(0.0064915 0.00434388 0)
(0.0100561 0.00641424 0)
(0.013748 0.00819188 0)
(0.0188428 0.00963219 0)
(0.0242167 0.0115118 0)
(0.0310903 0.0138811 0)
(0.0395048 0.0162436 0)
(0.0484519 0.017914 0)
(0.0578744 0.0183454 0)
(0.0664654 0.0137315 0)
(0.0720889 0.00288098 0)
(0.0725871 -0.0163879 0)
(0.0616607 -0.0421711 0)
(0.0346387 -0.0626318 0)
(0.00150433 -0.05691 0)
(-0.0264973 -0.0250754 0)
(-0.0333182 0.0142895 0)
(-0.00631175 0.0327793 0)
(-0.000190001 0.0190514 0)
(0.00198905 -0.00200816 0)
(0.00383188 0.00265412 0)
(0.00699232 0.00478928 0)
(0.0100924 0.00524432 0)
(0.0137424 0.00533254 0)
(0.0184881 0.00603793 0)
(0.024143 0.00684044 0)
(0.0303537 0.00792451 0)
(0.0377806 0.00919509 0)
(0.045747 0.00987274 0)
(0.0528792 0.00814688 0)
(0.0568792 0.0023603 0)
(0.0552378 -0.00825689 0)
(0.0446762 -0.0213998 0)
(0.0238746 -0.0311624 0)
(-0.00391741 -0.0282315 0)
(-0.0244495 -0.0121786 0)
(-0.0296981 0.00818324 0)
(-0.0109487 0.0188133 0)
(-0.00382216 0.014723 0)
(0.000115562 -0.00356073 0)
(-0.00230514 -0.00266886 0)
(-0.000318023 -0.000556468 0)
(0.00282381 0.000427725 0)
(0.00478101 0.000826868 0)
(0.00742621 0.00130873 0)
(0.0104334 0.00155427 0)
(0.0137653 0.00183081 0)
(0.0175906 0.00218493 0)
(0.0219307 0.00250714 0)
(0.0262286 0.0023353 0)
(0.0292198 0.00109394 0)
(0.0288778 -0.00200906 0)
(0.0229424 -0.0066093 0)
(0.0110062 -0.0103037 0)
(-0.00363032 -0.00973598 0)
(-0.016353 -0.00378681 0)
(-0.0199059 0.00248307 0)
(-0.00623218 0.00844325 0)
(-0.00529092 0.00969656 0)
(-0.000158966 0.000527029 0)
(-0.00172958 0.000586164 0)
(-0.00185422 0.000384324 0)
(-0.00173768 3.4655e-05 0)
(-0.00124694 -0.000119899 0)
(-0.000468471 -0.000127364 0)
(0.000474297 -6.22279e-05 0)
(0.00155628 -5.93242e-05 0)
(0.00280115 -8.42372e-05 0)
(0.00418959 -0.000110817 0)
(0.00551146 -0.000226859 0)
(0.0063727 -0.000512179 0)
(0.00595499 -0.000872753 0)
(0.0036872 -0.00116621 0)
(-0.000941767 -0.00148272 0)
(-0.00672965 -0.00138068 0)
(-0.0124346 -0.000513604 0)
(-0.0117121 -0.000365095 0)
(-0.0140661 0.00140011 0)
(-0.00619535 0.00199445 0)
)
;

boundaryField
{
    movingWall
    {
        type            calculated;
        value           uniform (0 0 0);
    }
    fixedWalls
    {
        type            calculated;
        value           uniform (0 0 0);
    }
    frontAndBack
    {
        type            empty;
    }
}


// ************************************************************************* //
