/*--------------------------------*- C++ -*----------------------------------*\
| =========                 |                                                 |
| \\      /  F ield         | OpenFOAM: The Open Source CFD Toolbox           |
|  \\    /   O peration     | Version:  2312                                  |
|   \\  /    A nd           | Website:  www.openfoam.com                      |
|    \\/     M anipulation  |                                                 |
\*---------------------------------------------------------------------------*/
FoamFile
{
    version     2.0;
    format      ascii;
    arch        "LSB;label=32;scalar=64";
    class       volVectorField;
    location    "1";
    object      diffU;
}
// * * * * * * * * * * * * * * * * * * * * * * * * * * * * * * * * * * * * * //

dimensions      [0 1 -1 0 0 0 0];

internalField   nonuniform List<vector> 
400
(
(0 0 0)
(-0.000967028 0.000460027 0)
(-0.00267952 0.00075344 0)
(-0.00460254 0.000855582 0)
(-0.00659537 0.000861582 0)
(-0.00856046 0.000826431 0)
(-0.0104429 0.000768712 0)
(-0.0121963 0.000689527 0)
(-0.0137644 0.000579027 0)
(-0.0150777 0.000417733 0)
(-0.0160405 0.000187685 0)
(-0.0164646 -6.26409e-05 0)
(-0.016354 -0.000449021 0)
(-0.015465 -0.000872616 0)
(-0.0137977 -0.00131378 0)
(-0.0113775 -0.00170154 0)
(-0.00838975 -0.00193479 0)
(-0.00518463 -0.00187882 0)
(-0.00217323 -0.00140407 0)
(-0.000288628 -0.000670217 0)
(-0.000455924 0.000971916 0)
(-0.00202685 0.002062 0)
(-0.00401779 0.00265248 0)
(-0.00616301 0.00288707 0)
(-0.00836596 0.00292075 0)
(-0.0105571 0.00284012 0)
(-0.0126777 0.00267746 0)
(-0.0146645 0.0024319 0)
(-0.0164439 0.00208148 0)
(-0.0179281 0.00159043 0)
(-0.0190086 0.00092388 0)
(-0.0195477 7.49959e-05 0)
(-0.0194239 -0.000966662 0)
(-0.018513 -0.00215585 0)
(-0.016756 -0.00336855 0)
(-0.0141837 -0.00442137 0)
(-0.0109667 -0.00507357 0)
(-0.00743364 -0.00507477 0)
(-0.00391206 -0.00423659 0)
(-0.000985709 -0.00250099 0)
(-0.00077586 0.00266556 0)
(-0.00263652 0.00403547 0)
(-0.00469553 0.00471862 0)
(-0.00685758 0.00502324 0)
(-0.009066 0.00508478 0)
(-0.0112803 0.00497927 0)
(-0.0134556 0.00473207 0)
(-0.0155333 0.00433291 0)
(-0.0174409 0.00374593 0)
(-0.0190884 0.00291978 0)
(-0.0203626 0.00180404 0)
(-0.0211235 0.000369049 0)
(-0.0212204 -0.00138658 0)
(-0.0204978 -0.00338698 0)
(-0.0188364 -0.00544878 0)
(-0.0162132 -0.00727214 0)
(-0.0127768 -0.00847472 0)
(-0.00889027 -0.00872059 0)
(-0.00490942 -0.00783806 0)
(-0.00138465 -0.00547276 0)
(-0.000909009 0.00459565 0)
(-0.00292203 0.00615204 0)
(-0.00504687 0.0068607 0)
(-0.00724165 0.00720186 0)
(-0.00947398 0.00729125 0)
(-0.0117272 0.00718327 0)
(-0.0139782 0.00688858 0)
(-0.0161857 0.00638273 0)
(-0.0182903 0.00561221 0)
(-0.0202099 0.00450304 0)
(-0.0218298 0.00297613 0)
(-0.0229941 0.00096929 0)
(-0.023504 -0.00153465 0)
(-0.0231188 -0.00446053 0)
(-0.0215917 -0.00757346 0)
(-0.0187767 -0.0104279 0)
(-0.0148007 -0.0124097 0)
(-0.0101764 -0.0130011 0)
(-0.00545268 -0.012006 0)
(-0.00146919 -0.00879726 0)
(-0.000942482 0.00663626 0)
(-0.0030264 0.00836099 0)
(-0.00520943 0.00907252 0)
(-0.00745358 0.00943565 0)
(-0.00973901 0.0095599 0)
(-0.0120671 0.00947937 0)
(-0.0144394 0.00918818 0)
(-0.0168402 0.0086454 0)
(-0.0192342 0.00777589 0)
(-0.0215584 0.00647454 0)
(-0.0237043 0.00461684 0)
(-0.025496 0.00208081 0)
(-0.0266692 -0.00121307 0)
(-0.0268413 -0.00523762 0)
(-0.0255326 -0.00974781 0)
(-0.0223464 -0.0140961 0)
(-0.017359 -0.0172331 0)
(-0.0114074 -0.0182392 0)
(-0.00554917 -0.0168389 0)
(-0.00125649 -0.0122357 0)
(-0.000931811 0.0087002 0)
(-0.00303602 0.0106142 0)
(-0.00525902 0.011335 0)
(-0.00755035 0.0117235 0)
(-0.00989952 0.0118997 0)
(-0.0123227 0.0118867 0)
(-0.0148481 0.0116666 0)
(-0.0174938 0.0111837 0)
(-0.0202622 0.01034 0)
(-0.0231272 0.00899072 0)
(-0.0260056 0.00694462 0)
(-0.0287139 0.00397657 0)
(-0.0309122 -0.000128636 0)
(-0.0320319 -0.00549207 0)
(-0.0311966 -0.0119645 0)
(-0.0274707 -0.0186307 0)
(-0.0207223 -0.023616 0)
(-0.0123089 -0.0250078 0)
(-0.00455965 -0.0223848 0)
(-0.000479305 -0.0153079 0)
(-0.000900147 0.0107409 0)
(-0.00299074 0.0128814 0)
(-0.00522976 0.0136333 0)
(-0.00755059 0.0140633 0)
(-0.00995174 0.0143174 0)
(-0.0124639 0.0144209 0)
(-0.015145 0.014354 0)
(-0.0180555 0.0140549 0)
(-0.0212535 0.0134082 0)
(-0.024778 0.0122262 0)
(-0.0286071 0.0102279 0)
(-0.0325909 0.00703569 0)
(-0.0363706 0.00219868 0)
(-0.039214 -0.00474017 0)
(-0.0396792 -0.0139702 0)
(-0.0357614 -0.0244252 0)
(-0.026627 -0.0327134 0)
(-0.0138318 -0.0344817 0)
(-0.00183177 -0.0282197 0)
(0.00159844 -0.0166096 0)
(-0.000856047 0.0127298 0)
(-0.00290638 0.0151345 0)
(-0.00513262 0.0159418 0)
(-0.00745138 0.0164328 0)
(-0.00986955 0.0167935 0)
(-0.0124322 0.017066 0)
(-0.0152291 0.017244 0)
(-0.0183717 0.0172761 0)
(-0.0219921 0.0170459 0)
(-0.0262303 0.0163351 0)
(-0.0311874 0.0147683 0)
(-0.0368515 0.0117802 0)
(-0.0430552 0.0066154 0)
(-0.049235 -0.00176308 0)
(-0.0535377 -0.0142964 0)
(-0.0526229 -0.0303708 0)
(-0.0434273 -0.0448709 0)
(-0.0253992 -0.0494526 0)
(-0.00331288 -0.0371988 0)
(0.00489067 -0.0158074 0)
(-0.000803547 0.0146464 0)
(-0.00279089 0.0173449 0)
(-0.0049714 0.0182255 0)
(-0.00724355 0.0187897 0)
(-0.00961968 0.0192769 0)
(-0.0121567 0.0197623 0)
(-0.0149742 0.0202721 0)
(-0.0182363 0.0207894 0)
(-0.0221599 0.0212286 0)
(-0.0270192 0.0213802 0)
(-0.0331139 0.0208245 0)
(-0.0407429 0.0188918 0)
(-0.0504253 0.0146712 0)
(-0.0626244 0.00655263 0)
(-0.0758573 -0.00827077 0)
(-0.0844408 -0.0320603 0)
(-0.079133 -0.0591762 0)
(-0.0576819 -0.0728122 0)
(-0.0243852 -0.0584984 0)
(0.00571155 -0.0177853 0)
(-0.000747396 0.0164762 0)
(-0.00265427 0.0194853 0)
(-0.0047547 0.0204419 0)
(-0.0069254 0.0210735 0)
(-0.00917794 0.0216851 0)
(-0.011574 0.0224001 0)
(-0.0142531 0.0232972 0)
(-0.0174187 0.0244218 0)
(-0.0213589 0.0257619 0)
(-0.0264816 0.0271952 0)
(-0.0333166 0.0284323 0)
(-0.0425494 0.0290849 0)
(-0.0561307 0.0285711 0)
(-0.0764959 0.0240616 0)
(-0.0999807 0.00705809 0)
(-0.11467 -0.0289584 0)
(-0.114796 -0.0745691 0)
(-0.0964173 -0.105838 0)
(-0.0580888 -0.0962495 0)
(-0.00605511 -0.0307809 0)
(-0.000696671 0.0182125 0)
(-0.00251694 0.0215326 0)
(-0.0045066 0.0225455 0)
(-0.00651626 0.0232098 0)
(-0.00854766 0.0239066 0)
(-0.010656 0.024819 0)
(-0.012981 0.0260917 0)
(-0.0157323 0.0278518 0)
(-0.0192133 0.0301943 0)
(-0.0238774 0.0331665 0)
(-0.0303265 0.0368366 0)
(-0.0393034 0.0415343 0)
(-0.0535022 0.0470574 0)
(-0.0758647 0.0471132 0)
(-0.100343 0.0265122 0)
(-0.115757 -0.0224391 0)
(-0.119287 -0.0841089 0)
(-0.112014 -0.136729 0)
(-0.0833196 -0.149399 0)
(-0.030261 -0.0777715 0)
(-0.000669373 0.0198783 0)
(-0.0024135 0.0234754 0)
(-0.0042753 0.024494 0)
(-0.0060678 0.0251176 0)
(-0.00777707 0.0258122 0)
(-0.00944046 0.0268242 0)
(-0.0111744 0.0283636 0)
(-0.0131517 0.0306349 0)
(-0.0156134 0.0338355 0)
(-0.0189077 0.038184 0)
(-0.0234434 0.0440917 0)
(-0.0295435 0.05245 0)
(-0.0386548 0.062943 0)
(-0.0532926 0.0656778 0)
(-0.068646 0.043031 0)
(-0.0768782 -0.00953685 0)
(-0.0810739 -0.078223 0)
(-0.0872146 -0.145279 0)
(-0.0816114 -0.193538 0)
(-0.0411815 -0.146246 0)
(-0.000692582 0.0214928 0)
(-0.00240848 0.025321 0)
(-0.00413913 0.0262555 0)
(-0.00566809 0.026721 0)
(-0.00696554 0.0272757 0)
(-0.00804671 0.0282229 0)
(-0.0089893 0.0298215 0)
(-0.0098983 0.0323239 0)
(-0.0108988 0.0359843 0)
(-0.0121295 0.0410887 0)
(-0.013665 0.0481207 0)
(-0.0152319 0.0579309 0)
(-0.0165028 0.0696477 0)
(-0.0186423 0.073361 0)
(-0.0222767 0.0521531 0)
(-0.0212007 0.000192275 0)
(-0.0231934 -0.0637887 0)
(-0.0357493 -0.126962 0)
(-0.0545336 -0.2015 0)
(-0.0366798 -0.208461 0)
(-0.000805623 0.0232576 0)
(-0.00257001 0.0271371 0)
(-0.00419265 0.027824 0)
(-0.0054247 0.0279628 0)
(-0.00624 0.0281966 0)
(-0.00664795 0.028869 0)
(-0.00668709 0.0302592 0)
(-0.00638897 0.0326239 0)
(-0.00575936 0.0362036 0)
(-0.00473124 0.0412031 0)
(-0.00309773 0.0479384 0)
(-0.000312674 0.0567383 0)
(0.00492341 0.0667023 0)
(0.012755 0.0693329 0)
(0.0184248 0.0505867 0)
(0.0239712 0.00183338 0)
(0.0200476 -0.0550261 0)
(0.00709342 -0.105383 0)
(-0.0221524 -0.177626 0)
(-0.025512 -0.248757 0)
(-0.00109866 0.0249226 0)
(-0.00305198 0.0288787 0)
(-0.00455028 0.0291479 0)
(-0.00543597 0.0287675 0)
(-0.00569658 0.0284995 0)
(-0.00539861 0.028688 0)
(-0.00452752 0.0296054 0)
(-0.00306155 0.0314698 0)
(-0.000937735 0.0344589 0)
(0.00204758 0.0386887 0)
(0.00620999 0.0441543 0)
(0.0120957 0.0506306 0)
(0.0207909 0.0570365 0)
(0.0327595 0.0573221 0)
(0.0433857 0.0411639 0)
(0.0492523 0.00354926 0)
(0.043494 -0.0441471 0)
(0.0274469 -0.0896476 0)
(2.51463e-05 -0.150866 0)
(-0.0165759 -0.262335 0)
(-0.0015965 0.0281778 0)
(-0.00374877 0.031013 0)
(-0.00517302 0.0302902 0)
(-0.00563602 0.0290799 0)
(-0.00531027 0.0281349 0)
(-0.00431031 0.0277074 0)
(-0.00261062 0.0279603 0)
(-0.000161614 0.0290603 0)
(0.00318789 0.0311291 0)
(0.0076428 0.034196 0)
(0.0134734 0.0380482 0)
(0.0210358 0.0421522 0)
(0.0308583 0.0451784 0)
(0.0429628 0.0433812 0)
(0.0537923 0.0304552 0)
(0.0587686 0.00354103 0)
(0.0529425 -0.0320507 0)
(0.0372345 -0.0719426 0)
(0.0136152 -0.126545 0)
(-0.0120224 -0.265999 0)
(-0.002736 0.0277977 0)
(-0.00561746 0.0309002 0)
(-0.00619398 0.0298885 0)
(-0.00575104 0.0283064 0)
(-0.00463479 0.0268609 0)
(-0.00292404 0.0258349 0)
(-0.000515885 0.0254317 0)
(0.0027155 0.0257223 0)
(0.00697011 0.0267741 0)
(0.012432 0.0285672 0)
(0.019285 0.0308743 0)
(0.0276368 0.0331257 0)
(0.037464 0.0341388 0)
(0.0483398 0.0317162 0)
(0.057753 0.0225385 0)
(0.0619406 0.00415648 0)
(0.0562829 -0.0213303 0)
(0.045671 -0.0562779 0)
(0.0233978 -0.104606 0)
(-0.00731018 -0.269998 0)
(-0.00424524 0.0456405 0)
(-0.00667798 0.0426795 0)
(-0.0056112 0.0364296 0)
(-0.00371875 0.0312671 0)
(-0.00147848 0.0278388 0)
(0.00141101 0.0254015 0)
(0.00501951 0.0237093 0)
(0.00935615 0.022729 0)
(0.014527 0.0224068 0)
(0.0207468 0.0226929 0)
(0.028196 0.0234583 0)
(0.0369255 0.0242995 0)
(0.0466176 0.0243523 0)
(0.0566049 0.0223167 0)
(0.0649332 0.0165737 0)
(0.0693131 0.00505007 0)
(0.0627687 -0.0118662 0)
(0.0625355 -0.0415349 0)
(0.0263671 -0.0804805 0)
(0.00586835 -0.269913 0)
(-0.00588751 0.0183256 0)
(-0.00823007 0.010683 0)
(-0.000810931 0.0104089 0)
(0.00706842 0.0132158 0)
(0.0156648 0.0140126 0)
(0.0241491 0.013531 0)
(0.0323034 0.0129743 0)
(0.0402135 0.0126389 0)
(0.0480786 0.0124758 0)
(0.0561483 0.0124473 0)
(0.0646495 0.0125542 0)
(0.0737399 0.012712 0)
(0.0832424 0.012655 0)
(0.0928336 0.0117164 0)
(0.100567 0.00932842 0)
(0.106914 0.00385977 0)
(0.100266 -0.00371119 0)
(0.110222 -0.0223598 0)
(0.0310195 -0.0438106 0)
(0.07191 -0.227156 0)
(0.040958 0.0923074 0)
(0.0630317 0.0696889 0)
(0.0884613 0.0437898 0)
(0.110279 0.029202 0)
(0.127007 0.0214772 0)
(0.140943 0.0169071 0)
(0.153545 0.0138784 0)
(0.16523 0.0117248 0)
(0.176166 0.0101052 0)
(0.186545 0.00884994 0)
(0.196543 0.00785277 0)
(0.206288 0.00700356 0)
(0.215697 0.00625715 0)
(0.224735 0.00549102 0)
(0.231971 0.00460456 0)
(0.239205 0.00331587 0)
(0.233386 0.00174669 0)
(0.253767 -0.00336684 0)
(0.127215 0.0031335 0)
(0.379002 -0.0985169 0)
)
;

boundaryField
{
    movingWall
    {
        type            calculated;
        value           uniform (1.00019 -0.000191344 0);
    }
    fixedWalls
    {
        type            calculated;
        value           uniform (0.000190442 -0.000191344 0);
    }
    frontAndBack
    {
        type            empty;
    }
}


// ************************************************************************* //
