/*--------------------------------*- C++ -*----------------------------------*\
| =========                 |                                                 |
| \\      /  F ield         | OpenFOAM: The Open Source CFD Toolbox           |
|  \\    /   O peration     | Version:  2312                                  |
|   \\  /    A nd           | Website:  www.openfoam.com                      |
|    \\/     M anipulation  |                                                 |
\*---------------------------------------------------------------------------*/
FoamFile
{
    version     2.0;
    format      ascii;
    arch        "LSB;label=32;scalar=64";
    class       volScalarField;
    location    "1";
    object      diffP;
}
// * * * * * * * * * * * * * * * * * * * * * * * * * * * * * * * * * * * * * //

dimensions      [0 2 -2 0 0 0 0];

internalField   nonuniform List<scalar> 
400
(
-3
-3
-3.00001
-3.00006
-3.00015
-3.00027
-3.00043
-3.00063
-3.00087
-3.00116
-3.00148
-3.00184
-3.00223
-3.00262
-3.00299
-3.00331
-3.00354
-3.00368
-3.00373
-3.00371
-3.00001
-3
-3.00002
-3.00008
-3.00016
-3.00028
-3.00044
-3.00064
-3.00088
-3.00115
-3.00147
-3.00182
-3.0022
-3.00258
-3.00294
-3.00326
-3.0035
-3.00365
-3.0037
-3.00368
-3
-3
-3
-3.00003
-3.00012
-3.00024
-3.0004
-3.00059
-3.00082
-3.0011
-3.00141
-3.00176
-3.00215
-3.00255
-3.00293
-3.00327
-3.00353
-3.00368
-3.00373
-3.00369
-3
-3
-3
-3
-3.00002
-3.00013
-3.00028
-3.00047
-3.0007
-3.00097
-3.0013
-3.00167
-3.00208
-3.00252
-3.00296
-3.00335
-3.00364
-3.00378
-3.00379
-3.00371
-3
-3
-3
-3
-3
-3
-3.0001
-3.00028
-3.0005
-3.00078
-3.00111
-3.00151
-3.00197
-3.00248
-3.003
-3.00348
-3.00381
-3.00393
-3.00386
-3.00372
-3
-3
-3
-3
-3
-3
-3
-3.00001
-3.00022
-3.00049
-3.00083
-3.00125
-3.00176
-3.00237
-3.00303
-3.00366
-3.00407
-3.00413
-3.00393
-3.00369
-3
-3
-3
-3
-3
-3
-3
-3
-3
-3.00009
-3.00041
-3.00084
-3.00141
-3.00212
-3.003
-3.0039
-3.00443
-3.00436
-3.00394
-3.00354
-3
-3
-3
-3
-3
-3
-3
-3
-3
-3
-3
-3.00021
-3.00078
-3.00158
-3.00273
-3.00402
-3.00478
-3.00446
-3.00361
-3.00303
-3
-3
-3
-3
-3
-3
-3
-3
-3
-3
-3
-3
-3
-3.00039
-3.00141
-3.00275
-3.00381
-3.00389
-3.00291
-3.00227
-3
-3
-3
-3
-3
-3
-3
-3
-3
-3
-3
-3
-3
-3
-3
-3
-3
-3.00032
-3.00197
-3.0021
-3
-3
-3
-3
-3
-3
-3
-3
-3
-3
-3
-3
-3
-3
-3
-3
-3
-3
-3
-3.00143
-3
-3
-3
-3
-3
-3
-3
-3
-3
-3
-3
-3
-3
-3
-3
-3
-3
-3
-3
-3
-3
-3
-3
-3
-3
-3
-3
-3
-3
-3
-3
-3
-3
-3
-3
-3
-3
-3
-3
-3
-3
-3
-3
-3
-3
-3
-3
-3
-3
-3
-3
-3
-3
-3
-3
-3
-3
-3
-3
-3
-3
-3
-3
-3
-3
-3
-3
-3
-3
-3
-3
-3
-3
-3
-3
-3
-3
-3
-3
-3
-3
-3
-3
-3
-3
-3
-3
-3
-3
-3
-3
-3
-3
-3
-3
-3
-3
-3
-3
-3
-3
-3
-3
-3
-3
-3
-3
-3
-3
-3
-3
-3
-3
-3
-3
-3
-3
-3
-3
-3
-3
-3
-3
-3
-3
-3
-3
-3
-3
-3
-3
-3
-3
-3
-3
-3
-3
-3
-3
-3
-3
-3
-3
-3
-3
-3
-3
-3
-3
-3
-3
-3
-3
-3
-3
-3
-3
-3
-3.00082
-3.02709
-3
-3.00312
-3.00145
-3
-3
-3
-3
-3
-3
-3
-3
-3
-3
-3
-3
-3
-3
-3.00218
-3.00641
-3.11315
)
;

boundaryField
{
    movingWall
    {
        type            calculated;
        value           nonuniform List<scalar> 
20
(
-3
-3.00312
-3.00145
-3
-3
-3
-3
-3
-3
-3
-3
-3
-3
-3
-3
-3
-3
-3.00218
-3.00641
-3.11315
)
;
    }
    fixedWalls
    {
        type            calculated;
        value           nonuniform List<scalar> 
60
(
-3
-3.00001
-3
-3
-3
-3
-3
-3
-3
-3
-3
-3
-3
-3
-3
-3
-3
-3
-3
-3
-3.00371
-3.00368
-3.00369
-3.00371
-3.00372
-3.00369
-3.00354
-3.00303
-3.00227
-3.0021
-3.00143
-3
-3
-3
-3
-3
-3
-3
-3.02709
-3.11315
-3
-3
-3.00001
-3.00006
-3.00015
-3.00027
-3.00043
-3.00063
-3.00087
-3.00116
-3.00148
-3.00184
-3.00223
-3.00262
-3.00299
-3.00331
-3.00354
-3.00368
-3.00373
-3.00371
)
;
    }
    frontAndBack
    {
        type            empty;
    }
}


// ************************************************************************* //
