/*--------------------------------*- C++ -*----------------------------------*\
| =========                 |                                                 |
| \\      /  F ield         | OpenFOAM: The Open Source CFD Toolbox           |
|  \\    /   O peration     | Version:  2312                                  |
|   \\  /    A nd           | Website:  www.openfoam.com                      |
|    \\/     M anipulation  |                                                 |
\*---------------------------------------------------------------------------*/
FoamFile
{
    version     2.0;
    format      ascii;
    arch        "LSB;label=32;scalar=64";
    class       volScalarField;
    location    "1";
    object      divPhi;
}
// * * * * * * * * * * * * * * * * * * * * * * * * * * * * * * * * * * * * * //

dimensions      [0 0 -1 0 0 0 0];

internalField   nonuniform List<scalar> 
400
(
-1.77992e-05
-6.51956e-07
-8.37724e-07
-7.66387e-07
-6.29551e-07
-5.18524e-07
-4.37193e-07
-3.87465e-07
-3.52832e-07
-3.3296e-07
-3.16417e-07
-3.09516e-07
-3.03537e-07
-2.96194e-07
-2.88972e-07
-2.80675e-07
-2.31651e-07
-2.30602e-07
-4.49056e-07
-1.29024e-07
-2.28911e-07
-4.69085e-07
-6.21233e-07
-6.00075e-07
-5.34135e-07
-4.53678e-07
-4.00531e-07
-3.55352e-07
-3.30918e-07
-3.0802e-07
-2.96849e-07
-2.8393e-07
-2.77543e-07
-2.71638e-07
-2.58562e-07
-2.30477e-07
-2.38423e-07
-2.7025e-07
-1.84212e-07
-2.07195e-07
4.50786e-07
-5.65399e-08
-2.89685e-07
-3.65118e-07
-3.57145e-07
-3.30518e-07
-2.98261e-07
-2.73713e-07
-2.51498e-07
-2.35106e-07
-2.19772e-07
-2.07519e-07
-1.96869e-07
-1.86373e-07
-1.75563e-07
-1.62669e-07
-1.16298e-07
-1.00739e-07
-3.43541e-07
-1.50109e-08
1.53572e-07
3.66903e-08
-1.09934e-07
-1.82158e-07
-2.06569e-07
-2.0241e-07
-1.90201e-07
-1.73461e-07
-1.5698e-07
-1.40078e-07
-1.24169e-07
-1.08939e-07
-9.50176e-08
-8.45857e-08
-7.10322e-08
-4.09794e-08
-4.62879e-08
-1.19219e-07
5.72287e-08
-7.05122e-08
4.32129e-07
1.7516e-07
3.78159e-08
-3.57522e-08
-6.6483e-08
-7.56712e-08
-7.15467e-08
-6.10293e-08
-4.6391e-08
-2.9742e-08
-1.23688e-08
4.68268e-09
1.96677e-08
3.33114e-08
4.68232e-08
5.51517e-08
8.91706e-08
1.40055e-07
-7.85144e-08
1.1056e-07
1.51581e-07
1.64953e-07
1.11996e-07
6.89693e-08
4.36025e-08
3.45594e-08
3.63617e-08
4.58097e-08
6.01195e-08
7.70839e-08
9.48291e-08
1.12117e-07
1.27714e-07
1.40872e-07
1.52859e-07
1.74565e-07
1.69298e-07
9.84341e-08
2.80336e-07
8.44321e-08
3.45109e-07
2.32418e-07
1.7952e-07
1.48919e-07
1.33488e-07
1.28503e-07
1.32286e-07
1.41837e-07
1.55623e-07
1.71107e-07
1.87527e-07
2.02645e-07
2.15836e-07
2.27322e-07
2.39199e-07
2.39346e-07
2.477e-07
3.11426e-07
1.89677e-07
1.82624e-07
1.80984e-07
2.24301e-07
2.1812e-07
2.07733e-07
2.01248e-07
2.01292e-07
2.06317e-07
2.15996e-07
2.2779e-07
2.41306e-07
2.5405e-07
2.66115e-07
2.76246e-07
2.85787e-07
2.91527e-07
2.94626e-07
2.86671e-07
2.43323e-07
3.70766e-07
1.888e-07
3.15022e-07
2.68797e-07
2.5328e-07
2.46686e-07
2.45649e-07
2.47912e-07
2.54003e-07
2.61698e-07
2.71241e-07
2.80267e-07
2.89919e-07
2.97813e-07
3.04936e-07
3.11931e-07
3.16439e-07
3.01435e-07
2.78755e-07
3.27868e-07
3.39754e-07
1.79875e-07
2.39119e-07
2.65706e-07
2.67189e-07
2.67087e-07
2.67704e-07
2.70812e-07
2.74702e-07
2.80235e-07
2.85437e-07
2.91537e-07
2.96572e-07
3.00984e-07
3.05297e-07
3.09807e-07
3.05916e-07
2.91178e-07
2.76215e-07
2.65489e-07
3.01721e-07
2.04707e-07
2.88524e-07
2.7299e-07
2.67707e-07
2.6546e-07
2.65804e-07
2.66565e-07
2.68667e-07
2.70607e-07
2.73289e-07
2.75642e-07
2.78558e-07
2.80352e-07
2.80402e-07
2.80397e-07
2.84146e-07
2.70111e-07
2.29453e-07
2.39725e-07
3.34687e-07
1.148e-07
2.52447e-07
2.5555e-07
2.51048e-07
2.48236e-07
2.45548e-07
2.44301e-07
2.42677e-07
2.41969e-07
2.41111e-07
2.41471e-07
2.41923e-07
2.41805e-07
2.41336e-07
2.43202e-07
2.4054e-07
2.30959e-07
2.16219e-07
2.26771e-07
1.71669e-07
1.47976e-07
2.28602e-07
2.25403e-07
2.20108e-07
2.14053e-07
2.09563e-07
2.04284e-07
2.00226e-07
1.95904e-07
1.92888e-07
1.90378e-07
1.88964e-07
1.8853e-07
1.8708e-07
1.85933e-07
1.93473e-07
1.87786e-07
1.50095e-07
1.32258e-07
2.50253e-07
4.29334e-08
2.01895e-07
1.91415e-07
1.8162e-07
1.73695e-07
1.65416e-07
1.5824e-07
1.50634e-07
1.43983e-07
1.37955e-07
1.33128e-07
1.29451e-07
1.25808e-07
1.23085e-07
1.22007e-07
1.1722e-07
1.07198e-07
1.08324e-07
1.40895e-07
4.22314e-08
6.32252e-08
1.46684e-07
1.45463e-07
1.37422e-07
1.27725e-07
1.18057e-07
1.08164e-07
9.8017e-08
8.83137e-08
7.94231e-08
7.15783e-08
6.44222e-08
5.82867e-08
5.13471e-08
4.40465e-08
4.15267e-08
3.9906e-08
2.40537e-08
-7.95361e-10
9.91191e-08
-2.11481e-08
1.16659e-07
1.06713e-07
9.61411e-08
8.60955e-08
7.43962e-08
6.32053e-08
5.03426e-08
3.88255e-08
2.69044e-08
1.66527e-08
6.55365e-09
-2.47488e-09
-1.10196e-08
-1.75629e-08
-2.48071e-08
-3.23602e-08
-2.24436e-08
9.42346e-09
-7.69714e-08
-2.31962e-08
7.02391e-08
6.48118e-08
5.79579e-08
4.60252e-08
3.58654e-08
2.11862e-08
8.79831e-09
-6.58724e-09
-1.91866e-08
-3.32518e-08
-4.47419e-08
-5.61334e-08
-6.50446e-08
-7.46096e-08
-8.19509e-08
-7.91184e-08
-8.10789e-08
-1.09717e-07
-7.38099e-08
-7.55717e-08
3.99179e-08
3.47679e-08
2.60428e-08
1.68401e-08
3.58796e-09
-9.28839e-09
-2.49403e-08
-3.93706e-08
-5.50476e-08
-6.90416e-08
-8.284e-08
-9.39993e-08
-1.03994e-07
-1.12804e-07
-1.18224e-07
-1.20388e-07
-1.1572e-07
-1.09105e-07
-1.66855e-07
-7.78803e-08
2.63247e-08
2.23604e-08
1.52117e-08
6.54739e-09
-4.88776e-09
-1.69357e-08
-3.04918e-08
-4.37286e-08
-5.72854e-08
-7.017e-08
-8.25086e-08
-9.2817e-08
-1.01371e-07
-1.09538e-07
-1.15933e-07
-1.11969e-07
-1.04855e-07
-1.37885e-07
-1.5721e-07
-7.49983e-08
1.16395e-08
8.65433e-09
5.59207e-09
8.63347e-10
-3.81681e-09
-9.63628e-09
-1.51738e-08
-2.12478e-08
-2.69127e-08
-3.26267e-08
-3.74833e-08
-4.152e-08
-4.5472e-08
-4.93992e-08
-4.91525e-08
-4.36846e-08
-4.87867e-08
-6.99295e-08
-7.561e-08
0
)
;

boundaryField
{
    movingWall
    {
        type            extrapolatedCalculated;
        value           nonuniform List<scalar> 
20
(
1.16395e-08
8.65433e-09
5.59207e-09
8.63347e-10
-3.81681e-09
-9.63628e-09
-1.51738e-08
-2.12478e-08
-2.69127e-08
-3.26267e-08
-3.74833e-08
-4.152e-08
-4.5472e-08
-4.93992e-08
-4.91525e-08
-4.36846e-08
-4.87867e-08
-6.99295e-08
-7.561e-08
0
)
;
    }
    fixedWalls
    {
        type            extrapolatedCalculated;
        value           nonuniform List<scalar> 
60
(
-1.77992e-05
-2.28911e-07
4.50786e-07
1.53572e-07
4.32129e-07
1.51581e-07
3.45109e-07
1.80984e-07
3.15022e-07
2.39119e-07
2.88524e-07
2.52447e-07
2.28602e-07
2.01895e-07
1.46684e-07
1.16659e-07
7.02391e-08
3.99179e-08
2.63247e-08
1.16395e-08
-1.29024e-07
-2.07195e-07
-1.50109e-08
-7.05122e-08
1.1056e-07
8.44321e-08
1.82624e-07
1.888e-07
1.79875e-07
2.04707e-07
1.148e-07
1.47976e-07
4.29334e-08
6.32252e-08
-2.11481e-08
-2.31962e-08
-7.55717e-08
-7.78803e-08
-7.49983e-08
0
-1.77992e-05
-6.51956e-07
-8.37724e-07
-7.66387e-07
-6.29551e-07
-5.18524e-07
-4.37193e-07
-3.87465e-07
-3.52832e-07
-3.3296e-07
-3.16417e-07
-3.09516e-07
-3.03537e-07
-2.96194e-07
-2.88972e-07
-2.80675e-07
-2.31651e-07
-2.30602e-07
-4.49056e-07
-1.29024e-07
)
;
    }
    frontAndBack
    {
        type            empty;
    }
}


// ************************************************************************* //
