/*--------------------------------*- C++ -*----------------------------------*\
| =========                 |                                                 |
| \\      /  F ield         | OpenFOAM: The Open Source CFD Toolbox           |
|  \\    /   O peration     | Version:  2312                                  |
|   \\  /    A nd           | Website:  www.openfoam.com                      |
|    \\/     M anipulation  |                                                 |
\*---------------------------------------------------------------------------*/
FoamFile
{
    version     2.0;
    format      ascii;
    arch        "LSB;label=32;scalar=64";
    class       volScalarField;
    location    "1";
    object      divU;
}
// * * * * * * * * * * * * * * * * * * * * * * * * * * * * * * * * * * * * * //

dimensions      [0 0 -1 0 0 0 0];

internalField   nonuniform List<scalar> 
400
(
0.000669208
0.0225196
0.01531
0.0209485
0.0207095
0.0201728
0.0193031
0.0182606
0.0161802
0.0114763
0.0107365
0.00815237
-0.00334385
-0.00895226
-0.0212139
-0.0332221
-0.0432807
-0.0354385
-0.0361973
0.0054223
-0.0198102
0.00135757
-0.0170975
-0.0180516
-0.0170923
-0.0158924
-0.0144023
-0.0122831
-0.00967281
-0.00626454
-0.000318478
0.00164625
0.00971295
0.0153541
0.0194302
0.0218646
0.0210129
0.0212885
0.00139371
0.0476102
-0.0169532
0.0170379
-0.00128357
-0.00556889
-0.00521948
-0.00464357
-0.00419464
-0.00344994
-0.0024328
-0.000905311
0.0017105
0.00364394
0.00577832
0.00793315
0.0079675
0.00531011
-0.00131629
-0.0059022
-0.026376
0.0378675
-0.024123
0.0187659
0.0034288
-0.00146979
-0.00104639
-0.000415407
-0.000236279
3.87109e-05
0.000575091
0.0015311
0.00286507
0.0037511
0.00487856
0.00617345
0.0043026
-0.00329876
-0.0158068
-0.0170664
-0.0293599
0.0539769
-0.0245213
0.0195163
0.00471152
-0.00078974
-0.000504915
0.00030209
0.000494036
0.000616627
0.000961045
0.00176138
0.00308085
0.00424077
0.00607853
0.0105066
0.0103758
-0.00292312
-0.0267259
-0.0196832
-0.0227958
0.0675862
-0.024403
0.0193257
0.00464167
-0.00128082
-0.00147779
-0.000705071
-0.000528318
-0.000452094
-0.000111186
0.00083045
0.00244001
0.0048245
0.00937619
0.0213018
0.0338841
0.0145169
-0.0318543
-0.00797716
0.0448831
0.104603
-0.0242153
0.0190742
0.00469735
-0.00126894
-0.00195188
-0.00139821
-0.00142497
-0.00161275
-0.00164809
-0.000922602
0.00106663
0.00401006
0.0120989
0.0420435
0.112062
0.131219
0.0674795
0.0350324
0.0616262
0.011472
-0.0237886
0.018693
0.00472531
-0.00105937
-0.00214017
-0.00182214
-0.00213662
-0.00285571
-0.00383139
-0.00413612
-0.00245849
-0.00115652
0.00890163
0.0810275
0.23115
0.247537
0.0760841
0.178391
0.0011156
-0.23726
-0.0228942
0.0182942
0.00474532
-0.000759513
-0.00215095
-0.00204121
-0.00263647
-0.00399732
-0.00669957
-0.009383
-0.00596634
-0.000674341
0.00742648
0.0392611
-0.0461835
-0.186329
-0.293937
-0.163807
0.434279
0.408107
-0.0216401
0.0180369
0.00488149
-0.000315527
-0.00188667
-0.0018425
-0.00251113
-0.00434093
-0.00971279
-0.0171475
-0.005569
-0.0171543
-0.156034
-0.328946
-0.339072
-0.519406
-0.668042
-0.721015
-0.0538649
0.453856
-0.0192402
0.0180177
0.0052741
0.000303897
-0.00127118
-0.000921982
-0.000985647
-0.00191544
-0.00715077
-0.0124476
0.0233434
0.0189508
-0.21894
-0.522412
-0.391908
0.0476694
0.00891399
-0.347243
-1.5536
-0.150401
-0.0183471
0.0182474
0.00557105
0.000950203
-0.000360491
0.000661513
0.00184607
0.00330747
0.00339869
0.00922993
0.0648351
0.118518
-0.115881
-0.374341
0.205526
1.02034
0.998387
0.923017
-0.60678
-0.751563
-0.0102592
0.0215198
0.00704072
0.00187677
0.000580412
0.00210518
0.00439818
0.00794669
0.0136889
0.0252886
0.0744336
0.145049
0.0348911
-0.211881
0.499721
1.04536
0.864831
0.855535
1.4981
-1.09163
-0.032676
0.0170695
0.00377158
-8.70341e-05
5.32087e-05
0.00180121
0.00428789
0.00736053
0.0132338
0.0261603
0.0452118
0.0720888
0.0456508
-0.253756
0.0226973
0.49798
0.276381
-0.488577
1.80288
-0.582859
0.0388637
0.0424227
0.0082229
-0.00291836
-0.00243526
0.000737316
0.00381514
0.00261448
0.0034602
0.0140694
0.0157843
-0.00051964
-0.0860114
-0.335691
-0.363871
0.181589
0.116992
-1.00282
0.705886
-0.0310653
-0.285102
-0.155506
-0.114667
-0.0598333
-0.0312881
-0.0153506
-0.00250163
0.00510901
0.0119629
0.0163993
0.011303
-0.0120017
-0.0970701
-0.267195
-0.281958
-0.0242558
0.12827
-0.59576
-0.299725
-0.887529
0.872838
0.82085
0.600574
0.374633
0.253093
0.181303
0.138855
0.115478
0.0994254
0.0811829
0.0614867
0.0326265
-0.0123125
-0.07755
-0.0280653
0.00389741
0.391494
-0.247745
-0.691688
-1.96208
-2.07762
-2.15832
-1.65203
-1.09579
-0.771855
-0.580594
-0.451219
-0.357596
-0.290774
-0.245084
-0.214135
-0.199209
-0.180433
-0.168414
-0.0501919
-0.246121
1.08415
-0.248352
0.412868
1.09877
3.21684
3.2086
2.26588
1.44107
1.0719
0.814419
0.623348
0.477101
0.363328
0.272786
0.198608
0.1297
0.0998535
0.0499321
0.211124
-0.203529
1.69213
-3.10788
4.53017
6.88478
-0.740686
-3.32513
-0.733377
-0.425466
-0.520922
-0.42825
-0.294839
-0.212555
-0.164867
-0.130298
-0.104602
-0.0944694
-0.0847798
-0.131598
0.0154079
-0.61433
1.61434
-8.0827
16.553
-18.0546
)
;

boundaryField
{
    movingWall
    {
        type            extrapolatedCalculated;
        value           nonuniform List<scalar> 
20
(
-0.740686
-3.32513
-0.733377
-0.425466
-0.520922
-0.42825
-0.294839
-0.212555
-0.164867
-0.130298
-0.104602
-0.0944694
-0.0847798
-0.131598
0.0154079
-0.61433
1.61434
-8.0827
16.553
-18.0546
)
;
    }
    fixedWalls
    {
        type            extrapolatedCalculated;
        value           nonuniform List<scalar> 
60
(
0.000669208
-0.0198102
-0.0169532
-0.024123
-0.0245213
-0.024403
-0.0242153
-0.0237886
-0.0228942
-0.0216401
-0.0192402
-0.0183471
-0.0102592
-0.032676
0.0388637
-0.285102
0.872838
-2.07762
3.21684
-0.740686
0.0054223
0.0476102
0.0378675
0.0539769
0.0675862
0.104603
0.011472
-0.23726
0.408107
0.453856
-0.150401
-0.751563
-1.09163
-0.582859
-0.0310653
-0.887529
-1.96208
1.09877
6.88478
-18.0546
0.000669208
0.0225196
0.01531
0.0209485
0.0207095
0.0201728
0.0193031
0.0182606
0.0161802
0.0114763
0.0107365
0.00815237
-0.00334385
-0.00895226
-0.0212139
-0.0332221
-0.0432807
-0.0354385
-0.0361973
0.0054223
)
;
    }
    frontAndBack
    {
        type            empty;
    }
}


// ************************************************************************* //
