/*--------------------------------*- C++ -*----------------------------------*\
| =========                 |                                                 |
| \\      /  F ield         | OpenFOAM: The Open Source CFD Toolbox           |
|  \\    /   O peration     | Version:  2312                                  |
|   \\  /    A nd           | Website:  www.openfoam.com                      |
|    \\/     M anipulation  |                                                 |
\*---------------------------------------------------------------------------*/
FoamFile
{
    version     2.0;
    format      ascii;
    arch        "LSB;label=32;scalar=64";
    class       volScalarField;
    location    "1";
    object      dpdt2;
}
// * * * * * * * * * * * * * * * * * * * * * * * * * * * * * * * * * * * * * //

dimensions      [0 4 -6 0 0 0 0];

internalField   nonuniform List<scalar> 
400
(
2.25705e-15
1.46136e-12
5.77599e-11
6.38893e-10
2.70962e-09
7.95038e-09
1.93121e-08
4.21193e-08
8.5685e-08
1.64232e-07
2.98312e-07
5.19156e-07
8.4696e-07
1.25532e-06
1.66332e-06
1.92334e-06
1.91974e-06
1.69025e-06
1.38868e-06
1.16101e-06
1.41141e-11
9.59311e-14
5.71531e-11
6.70894e-10
2.88151e-09
8.34137e-09
1.98102e-08
4.20514e-08
8.3058e-08
1.5543e-07
2.78745e-07
4.7962e-07
7.72882e-07
1.14426e-06
1.51725e-06
1.75493e-06
1.74417e-06
1.51043e-06
1.21355e-06
9.83881e-07
1.55852e-10
5.25549e-10
3.77258e-10
7.93172e-12
5.64978e-10
3.53751e-09
1.11382e-08
2.71093e-08
5.79761e-08
1.14929e-07
2.1665e-07
3.90657e-07
6.60935e-07
1.02587e-06
1.41325e-06
1.65807e-06
1.60288e-06
1.27657e-06
9.07063e-07
6.55071e-07
3.4613e-09
5.9436e-09
6.69342e-09
5.0868e-09
2.53157e-09
4.55568e-10
2.67133e-10
4.29509e-09
1.71638e-08
4.83688e-08
1.16694e-07
2.54899e-07
5.04809e-07
8.9655e-07
1.36543e-06
1.666e-06
1.50911e-06
9.70632e-07
4.79104e-07
2.4075e-07
1.99227e-08
2.77291e-08
3.30312e-08
3.31505e-08
2.97744e-08
2.46544e-08
1.82727e-08
1.08237e-08
3.30784e-09
2.0287e-10
1.58382e-08
8.49481e-08
2.73927e-07
6.83781e-07
1.32993e-06
1.83286e-06
1.51362e-06
6.11987e-07
6.82292e-08
6.66859e-10
6.70854e-08
8.35748e-08
9.91568e-08
1.08484e-07
1.13697e-07
1.17823e-07
1.21037e-07
1.21434e-07
1.14653e-07
9.35795e-08
5.24233e-08
6.52599e-09
3.16697e-08
3.53531e-07
1.31727e-06
2.40271e-06
1.7151e-06
2.67626e-07
1.25317e-07
7.24269e-07
1.66199e-07
1.93507e-07
2.26195e-07
2.56879e-07
2.89409e-07
3.30789e-07
3.85121e-07
4.54172e-07
5.347e-07
6.08102e-07
6.23923e-07
5.02552e-07
2.09954e-07
1.32325e-08
1.13377e-06
3.24548e-06
1.66095e-06
4.28775e-08
2.01038e-06
5.23028e-06
3.35367e-07
3.72992e-07
4.29448e-07
4.97825e-07
5.86773e-07
7.13994e-07
9.00073e-07
1.17297e-06
1.5681e-06
2.10354e-06
2.67749e-06
3.00005e-06
2.80423e-06
1.55653e-06
2.87468e-08
7.57418e-08
3.56184e-07
5.85014e-06
1.51059e-05
1.61493e-05
5.80872e-07
6.24263e-07
7.08831e-07
8.32384e-07
1.01366e-06
1.29294e-06
1.73303e-06
2.44091e-06
3.60492e-06
5.48806e-06
8.11056e-06
1.11209e-05
1.65456e-05
2.91787e-05
6.36704e-05
0.000144202
0.0001581
7.38225e-05
2.43875e-05
9.77307e-06
8.89748e-07
9.29072e-07
1.04035e-06
1.23066e-06
1.53475e-06
2.02983e-06
2.85429e-06
4.27698e-06
6.85077e-06
1.16148e-05
1.95969e-05
3.38181e-05
9.02308e-05
0.000336964
0.000956156
0.00155016
0.00146211
0.00064905
4.33832e-05
2.74018e-06
1.22569e-06
1.24716e-06
1.37374e-06
1.62679e-06
2.05892e-06
2.79067e-06
4.05675e-06
6.34125e-06
1.07278e-05
1.96951e-05
3.84213e-05
8.79622e-05
0.000292672
0.00105267
0.00254877
0.00375741
0.00337498
0.00196232
0.000438169
3.4616e-05
1.53422e-06
1.52091e-06
1.64099e-06
1.93034e-06
2.45292e-06
3.36122e-06
4.95514e-06
7.84443e-06
1.33216e-05
2.45131e-05
5.15744e-05
0.000132387
0.000413885
0.00122614
0.00215277
0.00197461
0.00123049
0.00102993
0.00101215
0.000208593
1.75619e-06
1.69005e-06
1.77552e-06
2.05649e-06
2.59423e-06
3.55345e-06
5.24314e-06
8.23363e-06
1.33225e-05
2.16618e-05
4.45608e-05
0.000102298
0.000270441
0.000527405
0.00060036
0.000338732
1.05809e-06
1.47906e-06
0.000202529
0.000214811
1.83996e-06
1.70931e-06
1.73577e-06
1.96142e-06
2.42604e-06
3.30389e-06
4.89515e-06
7.84496e-06
1.26018e-05
1.197e-05
2.45729e-05
3.84844e-05
0.000102199
9.72008e-05
5.26441e-06
0.000305796
0.000448275
0.000426299
6.50076e-05
4.39418e-05
1.76431e-06
1.56903e-06
1.52873e-06
1.6551e-06
1.99452e-06
2.66305e-06
3.98512e-06
7.35396e-06
1.96956e-05
5.89963e-07
7.58274e-06
1.27259e-05
1.50264e-05
2.31182e-06
3.40665e-05
0.000284233
0.000490878
0.000470887
0.000324396
1.07696e-05
1.5408e-06
1.3186e-06
1.22928e-06
1.24319e-06
1.37145e-06
1.69111e-06
2.30329e-06
3.2803e-06
4.63726e-06
2.00512e-06
2.9605e-06
3.04209e-06
1.05748e-06
1.32185e-06
3.62451e-05
0.000174727
0.000323356
0.000336929
0.000269515
7.94497e-05
1.29994e-06
1.05828e-06
8.91945e-07
7.925e-07
7.51252e-07
7.82792e-07
9.40567e-07
1.16329e-06
1.28053e-06
9.58505e-07
9.5606e-07
6.45195e-07
7.68719e-09
2.83694e-06
2.69866e-05
0.000100144
0.000186801
0.000202838
0.000170303
0.000103348
8.06674e-07
5.24169e-07
4.37194e-07
3.83272e-07
3.45278e-07
2.33868e-07
2.21459e-07
2.17524e-07
2.22455e-07
1.90203e-07
1.88287e-07
8.29476e-08
9.63161e-08
3.38908e-06
2.15469e-05
6.58348e-05
0.000114936
0.00012437
0.000106793
7.9898e-05
5.75073e-07
3.35764e-07
2.4825e-07
1.45695e-07
7.55215e-08
3.75752e-08
2.05869e-08
1.13997e-08
8.17907e-09
9.40891e-09
1.65852e-08
9.30385e-10
2.46711e-07
3.29718e-06
1.67923e-05
4.80158e-05
8.48424e-05
8.95935e-05
7.22324e-05
4.33498e-05
1.09348e-06
7.24893e-07
3.91935e-07
1.98493e-07
1.07432e-07
5.46952e-08
2.44449e-08
8.48744e-09
2.67511e-09
1.2735e-09
4.22931e-10
1.40809e-08
3.89733e-07
3.34478e-06
1.52792e-05
4.28881e-05
7.50934e-05
8.48269e-05
5.53985e-05
8.76575e-06
)
;

boundaryField
{
    movingWall
    {
        type            calculated;
        value           nonuniform List<scalar> 
20
(
1.09348e-06
7.24893e-07
3.91935e-07
1.98493e-07
1.07432e-07
5.46952e-08
2.44449e-08
8.48744e-09
2.67511e-09
1.2735e-09
4.22931e-10
1.40809e-08
3.89733e-07
3.34478e-06
1.52792e-05
4.28881e-05
7.50934e-05
8.48269e-05
5.53985e-05
8.76575e-06
)
;
    }
    fixedWalls
    {
        type            calculated;
        value           nonuniform List<scalar> 
60
(
2.25705e-15
1.41141e-11
1.55852e-10
3.4613e-09
1.99227e-08
6.70854e-08
1.66199e-07
3.35367e-07
5.80872e-07
8.89748e-07
1.22569e-06
1.53422e-06
1.75619e-06
1.83996e-06
1.76431e-06
1.5408e-06
1.29994e-06
8.06674e-07
5.75073e-07
1.09348e-06
1.16101e-06
9.83881e-07
6.55071e-07
2.4075e-07
6.66859e-10
7.24269e-07
5.23028e-06
1.61493e-05
9.77307e-06
2.74018e-06
3.4616e-05
0.000208593
0.000214811
4.39418e-05
1.07696e-05
7.94497e-05
0.000103348
7.9898e-05
4.33498e-05
8.76575e-06
2.25705e-15
1.46136e-12
5.77599e-11
6.38893e-10
2.70962e-09
7.95038e-09
1.93121e-08
4.21193e-08
8.5685e-08
1.64232e-07
2.98312e-07
5.19156e-07
8.4696e-07
1.25532e-06
1.66332e-06
1.92334e-06
1.91974e-06
1.69025e-06
1.38868e-06
1.16101e-06
)
;
    }
    frontAndBack
    {
        type            empty;
    }
}


// ************************************************************************* //
