/*--------------------------------*- C++ -*----------------------------------*\
| =========                 |                                                 |
| \\      /  F ield         | OpenFOAM: The Open Source CFD Toolbox           |
|  \\    /   O peration     | Version:  2312                                  |
|   \\  /    A nd           | Website:  www.openfoam.com                      |
|    \\/     M anipulation  |                                                 |
\*---------------------------------------------------------------------------*/
FoamFile
{
    version     2.0;
    format      ascii;
    arch        "LSB;label=32;scalar=64";
    class       volScalarField;
    location    "1";
    object      dUdt2;
}
// * * * * * * * * * * * * * * * * * * * * * * * * * * * * * * * * * * * * * //

dimensions      [0 2 -4 0 0 0 0];

internalField   nonuniform List<scalar> 
400
(
1.20207e-07
3.14939e-06
1.70228e-05
4.77017e-05
9.90331e-05
0.000173412
0.000272379
0.000394916
0.000534962
0.000679509
0.000807234
0.000868287
0.000862304
0.000742778
0.000544483
0.000320152
0.000139308
3.76655e-05
2.82619e-06
1.3148e-07
3.10664e-06
1.96758e-05
5.49418e-05
0.000114064
0.00020242
0.000323882
0.000479613
0.000666057
0.000872007
0.00107658
0.00124788
0.00134334
0.00133118
0.00119077
0.000941426
0.000638217
0.000355628
0.000150733
3.55862e-05
8.25135e-07
1.6702e-05
5.44888e-05
0.000108292
0.000184403
0.000289521
0.000429261
0.000606172
0.000817742
0.00105351
0.00129351
0.00150743
0.00165514
0.00169813
0.00160498
0.00137087
0.00102874
0.000650767
0.000324983
0.000105831
8.15632e-06
4.55692e-05
0.000106959
0.000176348
0.000265803
0.000383716
0.000537324
0.000731963
0.00096877
0.00124238
0.00153887
0.00183303
0.00208585
0.00224888
0.00226215
0.00207687
0.00168309
0.00114858
0.000616468
0.000219036
1.65927e-05
9.13475e-05
0.000177286
0.000259362
0.000360427
0.000491473
0.000662031
0.000881751
0.00115831
0.0014956
0.00189044
0.00232679
0.00276869
0.00315499
0.00338494
0.00332842
0.00290057
0.00210866
0.00118713
0.000431844
2.68142e-05
0.00015096
0.000261621
0.000353794
0.00046553
0.000611742
0.000805691
0.00106337
0.00140266
0.00184231
0.00239867
0.00307259
0.00384313
0.00464709
0.00538002
0.00579988
0.00557138
0.00443963
0.00256121
0.00103342
0.000243918
0.000217981
0.000352861
0.000453419
0.000575609
0.000739899
0.00096512
0.00127654
0.00170761
0.00230111
0.00310431
0.00415351
0.00547935
0.00718734
0.0094184
0.0119865
0.0137948
0.0122426
0.00568438
0.00165697
0.00203968
0.000283273
0.000440713
0.000548612
0.000681589
0.000867085
0.00113188
0.00151426
0.0020693
0.00287394
0.00402389
0.00562677
0.00792431
0.0117769
0.0190666
0.0316118
0.049655
0.0570018
0.0386604
0.00463884
0.00276928
0.000336065
0.000512565
0.000626963
0.000771161
0.000980467
0.00129142
0.00175835
0.00246292
0.00352194
0.00509598
0.00744059
0.0114107
0.0206068
0.0433608
0.0849692
0.132932
0.148397
0.139981
0.0758448
0.000449671
0.000365645
0.000555488
0.000675477
0.00083096
0.00106497
0.00142432
0.00198006
0.00283878
0.00415419
0.00617743
0.00952534
0.0164011
0.0343377
0.0650953
0.0687591
0.0562025
0.0994626
0.148785
0.147329
0.0444964
0.000363896
0.000558637
0.000683635
0.000849948
0.00110699
0.0015103
0.00214337
0.00312731
0.00463082
0.00698177
0.0112646
0.0207728
0.035954
0.0282866
0.000961879
0.0166903
0.0346055
0.0514127
0.149829
0.175255
0.00032849
0.000517946
0.000647102
0.000823343
0.00109932
0.00153568
0.00222082
0.00327629
0.00486555
0.0073431
0.0119481
0.0214319
0.0313269
0.0275337
0.0614915
0.139663
0.144775
0.0885521
0.053654
0.177841
0.000262339
0.00043797
0.000570478
0.000755207
0.00104369
0.00149782
0.00220425
0.00327296
0.00483768
0.0071339
0.0112089
0.0190711
0.0284063
0.0430335
0.107764
0.171086
0.135683
0.11495
0.0584427
0.0860088
0.000180263
0.000334095
0.000467618
0.000656753
0.000949169
0.00140235
0.00209907
0.00313279
0.00456594
0.00630588
0.00940108
0.0154447
0.0239633
0.0415203
0.0715545
0.0951161
0.0508358
0.0204552
0.0510759
0.0193556
9.59797e-05
0.000224862
0.000352576
0.000546008
0.000818201
0.00124857
0.00190575
0.00287388
0.00387039
0.00543767
0.00789787
0.010967
0.0155676
0.0257846
0.039547
0.0321115
0.00768967
0.000339482
0.00966353
0.00154067
3.64775e-05
0.000128977
0.000231784
0.000399096
0.000649678
0.00102716
0.00159095
0.00240252
0.00333528
0.0046738
0.00608339
0.00748827
0.009388
0.0130307
0.0153875
0.0099103
0.00177021
0.00104825
0.00305981
0.000232606
1.21783e-05
6.10089e-05
0.000142268
0.000256116
0.000447832
0.00071897
0.00115929
0.00182449
0.0026685
0.003686
0.0046062
0.00520511
0.00553745
0.00558044
0.00512259
0.00324101
0.00133088
0.00131429
0.00111432
0.00036299
7.98902e-06
2.17277e-05
7.18298e-05
0.00012936
0.000217289
0.000378265
0.000629675
0.000984147
0.00151193
0.00219026
0.00286258
0.00324082
0.00311939
0.00245391
0.00154109
0.000812365
0.000746097
0.000948942
0.000473814
0.000231375
1.26922e-05
1.24365e-05
4.10795e-07
8.15686e-06
2.35418e-05
5.68614e-05
0.000111272
0.000192835
0.000314205
0.000487243
0.000693391
0.000854992
0.000837961
0.000570037
0.000227301
0.000107969
0.000281759
0.000402409
0.000110129
0.000122017
3.0303e-07
3.33504e-06
3.58584e-06
3.02074e-06
1.56924e-06
2.35686e-07
2.2883e-07
2.42552e-06
7.85352e-06
1.75649e-05
3.04277e-05
4.08736e-05
3.62236e-05
1.49555e-05
3.08537e-06
4.71944e-05
0.000154882
0.000137307
0.000199816
4.23602e-05
)
;

boundaryField
{
    movingWall
    {
        type            calculated;
        value           uniform 0;
    }
    fixedWalls
    {
        type            calculated;
        value           uniform 0;
    }
    frontAndBack
    {
        type            empty;
    }
}


// ************************************************************************* //
