/*--------------------------------*- C++ -*----------------------------------*\
| =========                 |                                                 |
| \\      /  F ield         | OpenFOAM: The Open Source CFD Toolbox           |
|  \\    /   O peration     | Version:  2312                                  |
|   \\  /    A nd           | Website:  www.openfoam.com                      |
|    \\/     M anipulation  |                                                 |
\*---------------------------------------------------------------------------*/
FoamFile
{
    version     2.0;
    format      ascii;
    arch        "LSB;label=32;scalar=64";
    class       volScalarField;
    location    "1";
    object      enstrophyField;
}
// * * * * * * * * * * * * * * * * * * * * * * * * * * * * * * * * * * * * * //

dimensions      [0 0 -2 0 0 0 0];

internalField   nonuniform List<scalar> 
400
(
0.014104
0.0852105
0.279284
0.633327
1.17245
1.88289
2.72952
3.65905
4.59573
5.44347
6.10738
6.39261
6.24767
5.60928
4.53175
3.20578
1.91298
0.915287
0.294511
0.056006
0.0878836
0.0561145
0.0403588
0.0318356
0.029371
0.0306656
0.033917
0.0375677
0.0401876
0.0407016
0.0393871
0.0383213
0.0347318
0.0346076
0.0384521
0.0490058
0.0696994
0.103177
0.140979
0.277581
0.284017
0.0434605
0.0203385
0.0104373
0.00566095
0.00334058
0.0021395
0.00143142
0.000938639
0.000577548
0.000365651
0.0003271
0.000525385
0.00147745
0.00451764
0.012279
0.0284532
0.0571036
0.114646
0.899357
0.638111
0.0352432
0.0122262
0.005269
0.00214137
0.000737781
0.000167938
4.63216e-06
3.73019e-05
0.000137995
0.000184378
9.56295e-05
1.78923e-06
0.000464069
0.00265553
0.00841159
0.0201801
0.0426545
0.117304
2.05891
1.18622
0.0325187
0.00827948
0.00316882
0.00110105
0.000250269
6.46254e-06
5.42902e-05
0.000197972
0.000292161
0.000237548
6.06119e-05
4.02455e-05
0.000715748
0.00278613
0.0073043
0.0158163
0.0319196
0.130584
3.83703
1.93154
0.0337776
0.00638123
0.00218915
0.000706429
0.000134045
3.46597e-08
6.18123e-05
0.000150883
0.000154529
6.19849e-05
2.34128e-06
0.000271025
0.00144096
0.00507963
0.0155498
0.0417882
0.0668193
0.178947
5.93578
2.86306
0.0381623
0.00557037
0.00171227
0.000536657
0.000106787
1.11651e-06
2.30829e-05
4.88514e-05
2.97991e-05
3.72449e-07
5.87436e-05
0.00067386
0.00534814
0.0352718
0.20538
0.79992
1.54599
1.38201
7.63489
3.96223
0.0453654
0.00540772
0.0014829
0.000453255
0.000102789
7.72924e-06
1.50419e-06
6.00035e-06
6.64486e-06
1.15738e-05
3.60252e-09
0.00130741
0.0312144
0.286559
1.63894
5.58587
13.2727
15.7915
11.7663
5.20526
0.0553463
0.00569057
0.00138019
0.000394745
9.38186e-05
1.30546e-05
6.37726e-08
9.02347e-06
0.000116827
0.000644748
0.00103681
0.00271061
0.0932685
0.306549
0.620638
4.68695
25.7015
60.2833
37.7118
6.56571
0.068147
0.00631046
0.00133074
0.000323946
6.20142e-05
4.08408e-06
7.70513e-06
0.000150216
0.00111061
0.00402846
0.00845864
0.0189427
0.342193
4.07119
12.6561
6.74387
5.33051
89.7691
132.227
8.01993
0.0837294
0.00717284
0.001268
0.000217048
1.32734e-05
1.05213e-05
0.000135174
0.000927582
0.00433986
0.0113314
0.0387825
0.707698
9.56967
50.8909
110.131
109.539
27.746
34.0152
342.996
9.56256
0.101577
0.00812499
0.00110452
7.75022e-05
1.67405e-05
0.000163878
0.00065582
0.00292894
0.0111257
0.0286923
0.13626
2.82543
29.7485
117.474
232.87
268.739
183.513
4.42642
597.959
11.2019
0.120992
0.00867729
0.000711031
6.18152e-06
0.000304392
0.000746434
0.00179971
0.00593262
0.0208089
0.0613722
0.296748
3.96156
34.8965
128.383
234.992
260.549
269.165
99.3458
775.821
13.0988
0.135714
0.00764858
9.86421e-05
0.000657848
0.00171401
0.00249863
0.00398171
0.00954841
0.0298223
0.0941663
0.366686
3.05025
22.793
88.6606
154.996
151.213
172.602
195.887
823.761
15.1112
0.146021
0.0037771
0.000955236
0.00509244
0.00758609
0.00838202
0.00943707
0.0149356
0.0358762
0.107145
0.358391
1.85155
10.617
39.73
72.1301
79.4957
93.6533
217.267
797.316
18.7338
0.109414
0.000418706
0.016933
0.0296305
0.0350901
0.0353443
0.0340156
0.0384219
0.0600434
0.131015
0.353718
1.1926
4.59149
14.6922
28.2709
38.9602
63.5271
236.378
733.046
19.0525
0.126001
0.0232327
0.122258
0.19866
0.255651
0.299746
0.334179
0.360758
0.405342
0.516553
0.796968
1.47383
3.18589
7.48872
14.804
24.6828
58.9449
256.448
634.859
42.186
0.217692
1.41044
2.29198
3.42309
4.86802
6.29831
7.52739
8.46441
9.10144
9.57376
10.2193
11.4057
13.6621
18.0487
26.9475
41.0132
88.6654
278.481
366.639
1.2501
30.1292
41.8976
60.9346
82.1383
98.7993
111.629
122.261
130.946
137.315
141.259
143.248
144.627
146.987
152.94
167.32
193.723
267.569
467.091
52.5829
16252.8
19882.1
19075.3
18151.7
17484.6
16981.2
16556.8
16176.8
15824.4
15487
15156
14825.5
14500.3
14187.1
13944.8
13730.2
14001.5
13366.2
18765.6
10577.4
)
;

boundaryField
{
    movingWall
    {
        type            calculated;
        value           nonuniform List<scalar> 
20
(
67511.6
72091.8
67984.7
64152.1
61426.1
59326
57520.3
55898.9
54416.1
53034.9
51727.3
50473.2
49281.9
48157.7
47279.8
46414.9
47244.3
44530.5
64334.7
28554.6
)
;
    }
    fixedWalls
    {
        type            calculated;
        value           nonuniform List<scalar> 
60
(
0.012835
0.147365
0.705756
1.86527
3.73552
6.30972
9.52809
13.3066
17.5482
22.1534
27.0388
32.2199
37.7344
44.3701
51.2542
66.2561
65.6714
173.872
4.16576
12725.2
0.06375
0.534021
2.33478
5.88092
11.1334
16.5954
18.1822
17.0244
33.0659
125.344
596.668
1744.27
3340.78
4744.93
5356.99
5554.22
5632.17
4996.68
1429.65
6683.6
0.0128718
0.144901
0.705124
1.8586
3.67587
6.0938
8.98727
12.1807
15.4276
18.411
20.7647
21.769
21.3647
19.0697
15.1932
10.42
5.82889
2.42683
0.56853
0.065084
)
;
    }
    frontAndBack
    {
        type            empty;
    }
}


// ************************************************************************* //
