/*--------------------------------*- C++ -*----------------------------------*\
| =========                 |                                                 |
| \\      /  F ield         | OpenFOAM: The Open Source CFD Toolbox           |
|  \\    /   O peration     | Version:  2312                                  |
|   \\  /    A nd           | Website:  www.openfoam.com                      |
|    \\/     M anipulation  |                                                 |
\*---------------------------------------------------------------------------*/
FoamFile
{
    version     2.0;
    format      ascii;
    arch        "LSB;label=32;scalar=64";
    class       volScalarField;
    location    "1";
    object      epsilon;
}
// * * * * * * * * * * * * * * * * * * * * * * * * * * * * * * * * * * * * * //

dimensions      [0 2 -3 0 0 0 0];

internalField   nonuniform List<scalar> 
400
(
0.000278823
0.000460535
0.000644161
0.000787676
0.000897089
0.000983214
0.00105473
0.00111701
0.00117221
0.00121988
0.00125718
0.00127486
0.00127842
0.00125455
0.00119168
0.00108376
0.000926634
0.000721232
0.000477625
0.000291555
0.000460115
0.000459265
0.00054707
0.000616331
0.000663173
0.00069404
0.000715109
0.000730487
0.000742318
0.000751263
0.000756123
0.000757132
0.000756117
0.000748476
0.000728733
0.000692236
0.000634399
0.000552314
0.000470904
0.000487829
0.000675202
0.000544511
0.000595996
0.000647238
0.000682775
0.000705508
0.000719729
0.000728975
0.000735328
0.000740089
0.000743554
0.000745345
0.00074586
0.000742312
0.000730893
0.000707467
0.000667953
0.000612448
0.000570126
0.000693972
0.000856957
0.00062508
0.00065334
0.000695304
0.000726236
0.000745779
0.000757746
0.000765477
0.000771383
0.000776701
0.000781958
0.000787177
0.000791087
0.000792467
0.000787214
0.000769882
0.000735043
0.000683798
0.000653268
0.000862583
0.00100553
0.000686726
0.000698916
0.000735825
0.000765139
0.000784668
0.000797213
0.000805881
0.000813094
0.00082049
0.00082909
0.000839503
0.000851659
0.000863918
0.000871529
0.000865813
0.000833675
0.000770351
0.000726421
0.00100333
0.00112761
0.000733131
0.000733139
0.000767026
0.000795871
0.000816034
0.000829884
0.000840562
0.000850853
0.000863123
0.000879617
0.000902825
0.000935549
0.000979778
0.00103311
0.00106956
0.0010607
0.000962939
0.000837775
0.0011361
0.00123036
0.000768121
0.000758573
0.000790325
0.000819247
0.000840462
0.000856228
0.000870092
0.000885768
0.00090737
0.000940306
0.000992718
0.00107702
0.00120993
0.00140463
0.00162794
0.00172457
0.00158748
0.00116311
0.00128001
0.00132013
0.000795497
0.000777581
0.000807536
0.000836684
0.000859153
0.000877392
0.000895859
0.000920205
0.000958377
0.00102333
0.00113803
0.00134283
0.00170108
0.00228962
0.00310286
0.00354675
0.00350916
0.00233385
0.00154649
0.0014021
0.000818226
0.000792175
0.000820195
0.000849369
0.000873046
0.000894187
0.000918855
0.000956205
0.00102163
0.00114396
0.00138002
0.00183696
0.00268357
0.00407778
0.00597693
0.00725336
0.00762652
0.00597814
0.00260505
0.00148036
0.000838474
0.000803891
0.000829426
0.000858084
0.000882605
0.000906782
0.000939051
0.000993984
0.00109911
0.00131073
0.00174664
0.00261231
0.00407437
0.00586345
0.00750144
0.00938918
0.0118675
0.0131096
0.00744872
0.00155822
0.000857817
0.000813834
0.000835994
0.000863285
0.00088794
0.000914764
0.000955037
0.00102988
0.00118138
0.00149666
0.00214535
0.00331727
0.0047677
0.00593415
0.00706212
0.00874181
0.0130387
0.0193544
0.0206956
0.00163907
0.000877427
0.000822803
0.000840483
0.000865406
0.000889179
0.000917613
0.000964462
0.00105593
0.00124358
0.00162493
0.00234345
0.00341513
0.00447788
0.00495309
0.00495693
0.00562919
0.00999632
0.0216791
0.036
0.00172542
0.000898163
0.000831459
0.000843632
0.000865486
0.000887852
0.000916556
0.000966512
0.00106575
0.00126495
0.00164781
0.0023111
0.0032428
0.00381827
0.00372342
0.00331019
0.00336482
0.00691692
0.0206412
0.0449333
0.00182655
0.000921024
0.000840645
0.000847209
0.000866554
0.000887714
0.000916179
0.000966326
0.00106411
0.00125484
0.00160844
0.00218987
0.0028921
0.00326335
0.00305266
0.00261351
0.00268714
0.00501674
0.0180708
0.0513354
0.00192933
0.000945551
0.000852818
0.000856486
0.000875089
0.000896539
0.000925685
0.000975465
0.00106837
0.00123873
0.00153148
0.00199282
0.00255378
0.00288202
0.00274678
0.0024689
0.00267397
0.00457132
0.0168699
0.0577231
0.00209749
0.000977957
0.000881362
0.000889954
0.000915311
0.000943573
0.000978337
0.00103055
0.00111855
0.00127032
0.00152048
0.00187289
0.00229054
0.00259007
0.00256049
0.00246581
0.00275967
0.00455367
0.0166507
0.065681
0.00218558
0.00105929
0.000993509
0.00103825
0.00109672
0.00115544
0.00121709
0.00129005
0.00138825
0.00153118
0.00174208
0.00203638
0.00237848
0.0026323
0.00263366
0.00260737
0.00299346
0.00518904
0.0200985
0.0769278
0.00256976
0.00147008
0.00169844
0.00196211
0.00219777
0.00241877
0.00262783
0.00282819
0.00302978
0.00324622
0.00349133
0.00377124
0.00405487
0.00424414
0.00427509
0.00437753
0.00507613
0.0089916
0.0268843
0.0949748
0.00391188
0.00615958
0.00950632
0.0119683
0.013729
0.0151594
0.0163594
0.0173427
0.0181341
0.0187569
0.0192586
0.0196609
0.019931
0.0202354
0.0204
0.0210232
0.0227605
0.0330865
0.0501417
0.127271
0.044136
0.0846663
0.124123
0.149214
0.164526
0.174201
0.180152
0.183415
0.184644
0.184372
0.183451
0.181638
0.17896
0.176787
0.174146
0.174244
0.17646
0.177298
0.192635
0.167278
)
;

boundaryField
{
    movingWall
    {
        type            epsilonWallFunction;
        blending        stepwise;
        value           nonuniform List<scalar> 
20
(
0.044136
0.0846663
0.124123
0.149214
0.164526
0.174201
0.180152
0.183415
0.184644
0.184372
0.183451
0.181638
0.17896
0.176787
0.174146
0.174244
0.17646
0.177298
0.192635
0.167278
)
;
    }
    fixedWalls
    {
        type            epsilonWallFunction;
        blending        stepwise;
        value           nonuniform List<scalar> 
60
(
0.000278823
0.000460115
0.000675202
0.000856957
0.00100553
0.00112761
0.00123036
0.00132013
0.0014021
0.00148036
0.00155822
0.00163907
0.00172542
0.00182655
0.00192933
0.00209749
0.00218558
0.00256976
0.00391188
0.044136
0.000291555
0.000487829
0.000693972
0.000862583
0.00100333
0.0011361
0.00128001
0.00154649
0.00260505
0.00744872
0.0206956
0.036
0.0449333
0.0513354
0.0577231
0.065681
0.0769278
0.0949748
0.127271
0.167278
0.000278823
0.000460535
0.000644161
0.000787676
0.000897089
0.000983214
0.00105473
0.00111701
0.00117221
0.00121988
0.00125718
0.00127486
0.00127842
0.00125455
0.00119168
0.00108376
0.000926634
0.000721232
0.000477625
0.000291555
)
;
    }
    frontAndBack
    {
        type            empty;
    }
}


// ************************************************************************* //
