/*--------------------------------*- C++ -*----------------------------------*\
| =========                 |                                                 |
| \\      /  F ield         | OpenFOAM: The Open Source CFD Toolbox           |
|  \\    /   O peration     | Version:  2312                                  |
|   \\  /    A nd           | Website:  www.openfoam.com                      |
|    \\/     M anipulation  |                                                 |
\*---------------------------------------------------------------------------*/
FoamFile
{
    version     2.0;
    format      ascii;
    arch        "LSB;label=32;scalar=64";
    class       volScalarField;
    location    "1";
    object      flowTypeField;
}
// * * * * * * * * * * * * * * * * * * * * * * * * * * * * * * * * * * * * * //

dimensions      [0 0 0 0 0 0 0];

internalField   nonuniform List<scalar> 
400
(
0.233454
0.198499
0.144081
0.0964847
0.0634199
0.0423966
0.029596
0.0219883
0.0179382
0.0164508
0.0151644
0.0175879
0.0231549
0.0305601
0.0436349
0.0644456
0.0954362
0.138043
0.196985
0.254478
0.187754
0.361126
0.484903
0.552195
0.5749
0.567276
0.541925
0.507474
0.469819
0.434523
0.407943
0.409243
0.47301
0.550075
0.602556
0.614467
0.583972
0.515031
0.41626
0.208667
0.13801
0.466044
0.61386
0.715573
0.785745
0.831155
0.859919
0.879192
0.894745
0.90988
0.922962
0.928156
0.921426
0.895451
0.855117
0.802103
0.734461
0.650035
0.524975
0.145518
0.0955071
0.531163
0.694997
0.791936
0.864252
0.918846
0.96048
0.993261
0.980674
0.962696
0.957598
0.971323
0.99653
0.954002
0.909242
0.861879
0.806691
0.733338
0.577146
0.102105
0.064656
0.559735
0.748426
0.838342
0.903235
0.953762
0.992616
0.979321
0.962147
0.956311
0.963298
0.983207
0.988094
0.957869
0.929701
0.900232
0.86374
0.80864
0.618177
0.0826961
0.0442503
0.56107
0.779999
0.866886
0.92411
0.967494
0.999495
0.980197
0.971525
0.973836
0.985223
0.997496
0.977341
0.956635
0.932067
0.897287
0.844978
0.797374
0.635169
0.0910151
0.0312414
0.543972
0.795351
0.883531
0.935397
0.972214
0.997334
0.989045
0.98587
0.990387
0.99908
0.990387
0.973558
0.941141
0.882199
0.774484
0.621631
0.479533
0.36558
0.120943
0.0228203
0.514028
0.79824
0.89193
0.94147
0.973622
0.993394
0.997434
0.995621
0.996149
0.995838
0.999941
0.972838
0.903693
0.792679
0.635565
0.456118
0.252901
0.0456566
0.0785952
0.0171089
0.474789
0.790888
0.894365
0.945047
0.975061
0.991724
0.999506
0.995168
0.986089
0.974472
0.975415
0.971355
0.886442
0.848278
0.8206
0.607939
0.294435
0.054745
-0.0836281
0.0129085
0.428527
0.774333
0.892253
0.948254
0.979204
0.995377
0.994784
0.981839
0.962171
0.946117
0.944398
0.94341
0.833908
0.577355
0.393783
0.545621
0.627715
0.151873
-0.0269148
0.00940795
0.376956
0.748721
0.886677
0.953732
0.989597
0.992282
0.978312
0.957061
0.931525
0.919815
0.898356
0.724971
0.339141
-0.0852447
-0.286453
-0.293139
0.116004
0.379039
0.0660389
0.00597128
0.321387
0.713814
0.879641
0.967347
0.986536
0.966972
0.950919
0.924912
0.895515
0.881142
0.821644
0.483898
-0.0659208
-0.512893
-0.653442
-0.638773
-0.6444
0.548963
0.0954272
0.00237286
0.265361
0.6736
0.880049
0.98763
0.929086
0.920797
0.914906
0.892514
0.859223
0.830513
0.738763
0.357288
-0.255823
-0.798999
-0.815045
-0.660571
-0.469064
-0.634454
0.0855168
-0.00294979
0.209896
0.646571
0.934346
0.800524
0.782496
0.841808
0.870645
0.863136
0.830667
0.786913
0.700257
0.388712
-0.188622
-0.713307
-0.66399
-0.521941
-0.303055
-0.233281
0.0599159
-0.00687038
0.190458
0.702415
0.694178
-0.0819289
0.542941
0.729496
0.811328
0.834091
0.81461
0.765151
0.683136
0.469748
0.0480286
-0.368333
-0.407411
-0.253324
-0.113342
-0.110832
0.0342766
-0.021446
0.109436
0.881242
0.164019
0.103582
0.388285
0.576645
0.696965
0.759182
0.770669
0.738072
0.663697
0.51526
0.232089
-0.116186
-0.202784
-0.0694567
-0.032917
-0.0528122
0.0238138
0.00879957
0.548741
0.620296
-0.110905
-0.195275
0.0520912
0.235036
0.36595
0.465413
0.531011
0.554776
0.52744
0.438078
0.242578
-0.0945497
-0.238488
-0.0585094
-0.116792
-0.00513858
0.0486564
-0.0211067
0.649008
0.258555
0.0254329
-0.0366904
-0.0158936
0.0164704
0.0492045
0.0823741
0.115697
0.142643
0.14867
0.114649
0.00779201
-0.245495
-0.627195
-0.543008
-0.307812
0.0289982
0.233551
0.730858
-0.0307168
0.0418895
0.041373
0.01227
0.00149508
0.00200142
0.00434851
0.00646974
0.00880457
0.011113
0.0115775
0.00606775
-0.00927509
-0.0403979
-0.0766898
-0.149119
-0.103328
-0.294696
0.745379
0.0851387
-0.0237215
-0.0204251
-0.0113707
-0.00629156
-0.00389289
-0.00265269
-0.00192702
-0.00146257
-0.00113787
-0.000925502
-0.000797069
-0.00076571
-0.000880468
-0.00122951
-0.00171674
-0.00397055
0.00305861
-0.0488394
0.120067
)
;

boundaryField
{
    movingWall
    {
        type            calculated;
        value           nonuniform List<scalar> 
20
(
0.0468839
-0.0100244
-0.00982947
-0.00565725
-0.00317149
-0.00198217
-0.00136599
-0.00100474
-0.000773077
-0.000610635
-0.00050535
-0.000443153
-0.000430904
-0.000492128
-0.000677239
-0.000928124
-0.00216423
0.00110437
-0.0265629
0.0672362
)
;
    }
    fixedWalls
    {
        type            calculated;
        value           nonuniform List<scalar> 
60
(
0.157007
0.0919068
0.0559316
0.0357944
0.0230819
0.0153694
0.0107571
0.00790704
0.00601599
0.00458905
0.00327494
0.00179717
1.72195e-05
-0.00274998
-0.00532906
-0.0120677
-0.00581977
-0.0110377
0.659309
0.191678
0.146044
0.0955371
0.0561891
0.0387426
0.0357569
0.0504665
0.0848939
0.102709
-0.0720032
-0.113221
0.0253465
0.048016
0.0402337
0.0266788
0.0149808
0.00977519
0.0169572
0.0742978
0.437167
0.433943
0.155109
0.0981182
0.0579485
0.0359117
0.0227253
0.0150749
0.0107827
0.00852311
0.00768165
0.0078747
0.00789204
0.00959742
0.0124689
0.0155348
0.0204656
0.0279321
0.0392539
0.0563142
0.0897946
0.147157
)
;
    }
    frontAndBack
    {
        type            empty;
    }
}


// ************************************************************************* //
