/*--------------------------------*- C++ -*----------------------------------*\
| =========                 |                                                 |
| \\      /  F ield         | OpenFOAM: The Open Source CFD Toolbox           |
|  \\    /   O peration     | Version:  2312                                  |
|   \\  /    A nd           | Website:  www.openfoam.com                      |
|    \\/     M anipulation  |                                                 |
\*---------------------------------------------------------------------------*/
FoamFile
{
    version     2.0;
    format      ascii;
    arch        "LSB;label=32;scalar=64";
    class       surfaceScalarField;
    location    "1";
    object      fluxField;
}
// * * * * * * * * * * * * * * * * * * * * * * * * * * * * * * * * * * * * * //

dimensions      [0 3 -1 0 0 0 0];

oriented        oriented;

internalField   nonuniform List<scalar> 
760
(
-3.36978e-08
3.38651e-08
-1.00686e-07
7.26178e-08
-1.91573e-07
9.47152e-08
-2.8947e-07
1.03134e-07
-3.88418e-07
1.04125e-07
-4.84606e-07
1.01231e-07
-5.75501e-07
9.57214e-08
-6.58539e-07
8.76029e-08
-7.30574e-07
7.60799e-08
-7.87476e-07
5.97712e-08
-8.22148e-07
3.73563e-08
-8.29986e-07
9.87607e-09
-8.04997e-07
-2.58249e-08
-7.41091e-07
-6.61444e-08
-6.38903e-07
-1.07491e-07
-5.03703e-07
-1.43505e-07
-3.48882e-07
-1.65642e-07
-1.93469e-07
-1.64273e-07
-7.10686e-08
-1.31449e-07
-6.9713e-08
-7.15916e-08
1.00504e-07
-1.60638e-07
1.62004e-07
-2.64042e-07
1.93845e-07
-3.72746e-07
2.07325e-07
-4.82599e-07
2.09706e-07
-5.90394e-07
2.05052e-07
-6.93078e-07
1.94805e-07
-7.87233e-07
1.78687e-07
-8.68824e-07
1.55253e-07
-9.32942e-07
1.22322e-07
-9.7343e-07
7.77651e-08
-9.83811e-07
2.06683e-08
-9.57943e-07
-4.92638e-08
-8.91246e-07
-1.29003e-07
-7.83013e-07
-2.10866e-07
-6.38282e-07
-2.8277e-07
-4.69531e-07
-3.2914e-07
-2.93164e-07
-3.35317e-07
-1.31966e-07
-2.92299e-07
-1.89777e-07
-9.48317e-08
1.91098e-07
-1.92823e-07
2.64255e-07
-2.9835e-07
2.9905e-07
-4.07612e-07
3.15195e-07
-5.18179e-07
3.18968e-07
-6.27919e-07
3.13631e-07
-7.34246e-07
3.00083e-07
-8.33879e-07
2.77458e-07
-9.22755e-07
2.43521e-07
-9.95797e-07
1.95138e-07
-1.04668e-06
1.29071e-07
-1.06812e-06
4.30257e-08
-1.05248e-06
-6.34634e-08
-9.92877e-07
-1.86621e-07
-8.85763e-07
-3.15989e-07
-7.34271e-07
-4.32934e-07
-5.51198e-07
-5.12542e-07
-3.54514e-07
-5.33476e-07
-1.66874e-07
-4.86534e-07
-3.47184e-07
-1.05298e-07
2.90365e-07
-2.08745e-07
3.72393e-07
-3.16735e-07
4.07898e-07
-4.27413e-07
4.25505e-07
-5.39552e-07
4.30846e-07
-6.52159e-07
4.26133e-07
-7.6362e-07
4.11486e-07
-8.71423e-07
3.8527e-07
-9.72028e-07
3.4427e-07
-1.06051e-06
2.84007e-07
-1.13012e-06
1.99392e-07
-1.17197e-06
8.58197e-08
-1.17509e-06
-5.91258e-08
-1.12728e-06
-2.32887e-07
-1.01873e-06
-4.23465e-07
-8.48957e-07
-6.03534e-07
-6.3395e-07
-7.31501e-07
-4.0025e-07
-7.71442e-07
-1.82569e-07
-7.11555e-07
-5.16258e-07
-1.08744e-07
3.92979e-07
-2.15418e-07
4.83946e-07
-3.26098e-07
5.19755e-07
-4.39337e-07
5.38547e-07
-5.54674e-07
5.46057e-07
-6.72184e-07
5.43719e-07
-7.91511e-07
5.30937e-07
-9.11382e-07
5.05295e-07
-1.02934e-06
4.62465e-07
-1.14109e-06
3.96199e-07
-1.23953e-06
2.98604e-07
-1.31365e-06
1.61002e-07
-1.34728e-06
-2.39755e-08
-1.31887e-06
-2.58675e-07
-1.2065e-06
-5.33241e-07
-1.00216e-06
-8.08604e-07
-7.2868e-07
-1.01166e-06
-4.33435e-07
-1.07161e-06
-1.79664e-07
-9.71025e-07
-6.79025e-07
-1.08718e-07
4.95596e-07
-2.16898e-07
5.96957e-07
-3.29756e-07
6.33774e-07
-4.45769e-07
6.54239e-07
-5.65077e-07
6.64995e-07
-6.88793e-07
6.67258e-07
-8.18071e-07
6.60083e-07
-9.53422e-07
6.40534e-07
-1.09426e-06
6.03273e-07
-1.23784e-06
5.3999e-07
-1.37751e-06
4.3888e-07
-1.50017e-06
2.84874e-07
-1.58312e-06
6.13184e-08
-1.59023e-06
-2.46239e-07
-1.4762e-06
-6.38801e-07
-1.21435e-06
-1.06683e-06
-8.35303e-07
-1.39867e-06
-4.31236e-07
-1.47767e-06
-1.35496e-07
-1.25554e-06
-7.8837e-07
-1.06794e-07
5.96336e-07
-2.15034e-07
7.09966e-07
-3.29031e-07
7.48945e-07
-4.4708e-07
7.71972e-07
-5.69913e-07
7.8734e-07
-6.99745e-07
7.9674e-07
-8.39536e-07
7.99518e-07
-9.92249e-07
7.92843e-07
-1.16031e-06
7.70921e-07
-1.34415e-06
7.23599e-07
-1.53947e-06
6.34471e-07
-1.73356e-06
4.79965e-07
-1.89914e-06
2.29919e-07
-1.98185e-06
-1.53014e-07
-1.89554e-06
-6.97099e-07
-1.56923e-06
-1.36033e-06
-1.02099e-06
-1.93004e-06
-4.01111e-07
-2.08879e-06
-1.53553e-08
-1.62589e-06
-8.00858e-07
-1.03583e-07
6.93972e-07
-2.10497e-07
8.21554e-07
-3.24122e-07
8.63751e-07
-4.42545e-07
8.9013e-07
-5.67066e-07
9.11326e-07
-7.01055e-07
9.30273e-07
-8.49541e-07
9.4747e-07
-1.01862e-06
9.61205e-07
-1.21508e-06
9.6643e-07
-1.44497e-06
9.52448e-07
-1.7105e-06
8.99385e-07
-2.00719e-06
7.76369e-07
-2.31678e-06
5.41732e-07
-2.57884e-06
1.29306e-07
-2.66354e-06
-5.54613e-07
-2.41078e-06
-1.55121e-06
-1.73018e-06
-2.59161e-06
-7.27325e-07
-3.04705e-06
2.99226e-08
-2.38286e-06
-8.3025e-07
-9.93829e-08
7.87631e-07
-2.03579e-07
9.30323e-07
-3.14896e-07
9.76254e-07
-4.31103e-07
1.00615e-06
-5.53932e-07
1.03362e-06
-6.87795e-07
1.06363e-06
-8.39784e-07
1.0988e-06
-1.01943e-06
1.13985e-06
-1.239e-06
1.18433e-06
-1.51285e-06
1.22395e-06
-1.85594e-06
1.24099e-06
-2.28873e-06
1.20899e-06
-2.83576e-06
1.09063e-06
-3.47157e-06
7.74923e-07
-4.01697e-06
-2.07497e-08
-4.09887e-06
-1.5159e-06
-3.4299e-06
-3.33406e-06
-2.0612e-06
-4.4567e-06
-4.76364e-07
-3.85913e-06
-1.20459e-06
-9.45638e-08
8.76785e-07
-1.94746e-07
1.03502e-06
-3.01525e-07
1.08425e-06
-4.12105e-07
1.11665e-06
-5.28321e-07
1.14936e-06
-6.55199e-07
1.19004e-06
-8.01318e-07
1.24429e-06
-9.78962e-07
1.31641e-06
-1.20553e-06
1.40847e-06
-1.50448e-06
1.51861e-06
-1.90617e-06
1.64129e-06
-2.47652e-06
1.77505e-06
-3.32519e-06
1.90028e-06
-4.42144e-06
1.78894e-06
-5.37578e-06
8.48824e-07
-5.74616e-06
-1.27537e-06
-5.28985e-06
-3.95738e-06
-3.87217e-06
-6.05463e-06
-1.61312e-06
-6.13165e-06
-2.70424e-06
-8.98623e-08
9.61837e-07
-1.8511e-07
1.13477e-06
-2.85094e-07
1.18555e-06
-3.8612e-07
1.21775e-06
-4.89614e-07
1.25254e-06
-6.00448e-07
1.30065e-06
-7.27356e-07
1.37095e-06
-8.83162e-07
1.47173e-06
-1.08679e-06
1.61031e-06
-1.36462e-06
1.79333e-06
-1.75027e-06
2.03277e-06
-2.32966e-06
2.35918e-06
-3.24369e-06
2.75958e-06
-4.4147e-06
2.82934e-06
-5.412e-06
1.74815e-06
-5.88562e-06
-7.89831e-07
-5.79205e-06
-4.04873e-06
-4.89285e-06
-7.04064e-06
-2.84904e-06
-8.56386e-06
-5.59088e-06
-8.65938e-08
1.04384e-06
-1.76742e-07
1.22948e-06
-2.681e-07
1.2783e-06
-3.55644e-07
1.30553e-06
-4.3996e-07
1.33676e-06
-5.24894e-07
1.38575e-06
-6.17676e-07
1.46419e-06
-7.28652e-07
1.58354e-06
-8.72551e-07
1.75506e-06
-1.0683e-06
1.99138e-06
-1.33419e-06
2.31488e-06
-1.71448e-06
2.76909e-06
-2.30821e-06
3.32433e-06
-3.05799e-06
3.48554e-06
-3.64763e-06
2.38917e-06
-3.95833e-06
-2.24047e-07
-4.21673e-06
-3.54073e-06
-4.23017e-06
-6.79645e-06
-3.07934e-06
-9.86639e-06
-8.85812e-06
-8.70488e-08
1.12833e-06
-1.73212e-07
1.32102e-06
-2.54703e-07
1.36155e-06
-3.25363e-07
1.37666e-06
-3.84828e-07
1.39637e-06
-4.35422e-07
1.43687e-06
-4.81712e-07
1.51158e-06
-5.2945e-07
1.63326e-06
-5.8523e-07
1.81426e-06
-6.54385e-07
2.06686e-06
-7.31944e-07
2.41105e-06
-8.0289e-07
2.8763e-06
-8.88151e-07
3.41832e-06
-1.0325e-06
3.57692e-06
-1.09646e-06
2.57806e-06
-1.11938e-06
6.02086e-08
-1.48309e-06
-2.9608e-06
-2.2666e-06
-5.79906e-06
-2.28986e-06
-9.4686e-06
-1.14209e-05
-9.39129e-08
1.21407e-06
-1.78588e-07
1.40996e-06
-2.49956e-07
1.43386e-06
-3.0114e-07
1.42783e-06
-3.31721e-07
1.42697e-06
-3.42898e-07
1.44849e-06
-3.36424e-07
1.50618e-06
-3.1323e-07
1.61191e-06
-2.71787e-07
1.77613e-06
-2.05246e-07
2.00686e-06
-9.47821e-08
2.31188e-06
1.05746e-07
2.69379e-06
4.32439e-07
3.10304e-06
7.69973e-07
3.17594e-06
1.05038e-06
2.30333e-06
1.09095e-06
1.44133e-07
6.69003e-07
-2.46976e-06
-3.85996e-07
-4.8662e-06
-1.20113e-06
-8.20275e-06
-1.27677e-05
-1.13288e-07
1.33708e-06
-1.99579e-07
1.50686e-06
-2.59178e-07
1.49552e-06
-2.87836e-07
1.45575e-06
-2.86902e-07
1.42543e-06
-2.57675e-07
1.41945e-06
-1.99249e-07
1.44871e-06
-1.09504e-07
1.52282e-06
1.82239e-08
1.64927e-06
1.96917e-07
1.83168e-06
4.4812e-07
2.06463e-06
8.12644e-07
2.32914e-06
1.32924e-06
2.56494e-06
1.89411e-06
2.52715e-06
2.30643e-06
1.80004e-06
2.30913e-06
1.86825e-07
1.764e-06
-1.89538e-06
6.77278e-07
-4.03019e-06
-4.2329e-07
-6.92571e-06
-1.31988e-05
-1.43154e-07
1.40895e-06
-2.32567e-07
1.5574e-06
-2.79748e-07
1.51403e-06
-2.83179e-07
1.44423e-06
-2.50036e-07
1.38446e-06
-1.82545e-07
1.34812e-06
-7.8828e-08
1.34437e-06
6.61348e-08
1.37913e-06
2.61245e-07
1.45715e-06
5.18382e-07
1.57865e-06
8.53208e-07
1.73263e-06
1.28783e-06
1.89151e-06
1.83601e-06
1.9925e-06
2.40935e-06
1.887e-06
2.8045e-06
1.33441e-06
2.78326e-06
2.02005e-07
2.2449e-06
-1.32496e-06
1.26172e-06
-3.19595e-06
3.02991e-08
-5.76922e-06
-1.33904e-05
-2.18359e-07
1.84552e-06
-3.04808e-07
1.84906e-06
-3.08148e-07
1.66752e-06
-2.69168e-07
1.4989e-06
-1.98493e-07
1.37706e-06
-9.55203e-08
1.29048e-06
4.54683e-08
1.23809e-06
2.32618e-07
1.22085e-06
4.75532e-07
1.23909e-06
7.83405e-07
1.29107e-06
1.16352e-06
1.36788e-06
1.618e-06
1.4452e-06
2.13557e-06
1.47184e-06
2.6428e-06
1.36039e-06
2.98282e-06
9.87372e-07
2.94607e-06
2.39731e-07
2.53933e-06
-8.20347e-07
1.7172e-06
-2.43575e-06
3.92668e-07
-4.61761e-06
-1.34882e-05
-2.82603e-07
1.60872e-06
-3.16751e-07
1.34363e-06
-2.42771e-07
1.18053e-06
-1.39453e-07
1.12164e-06
-1.12089e-08
1.05585e-06
1.51241e-07
9.82879e-07
3.49869e-07
9.26658e-07
5.87556e-07
8.93766e-07
8.72321e-07
8.81631e-07
1.21405e-06
8.88073e-07
1.61852e-06
9.09878e-07
2.07905e-06
9.34855e-07
2.57104e-06
9.34751e-07
3.02893e-06
8.60395e-07
3.34664e-06
6.5712e-07
3.29252e-06
2.32313e-07
3.12308e-06
-3.79868e-07
2.21304e-06
-1.5878e-06
7.96364e-07
-3.09771e-06
-1.24172e-05
-3.62462e-07
2.77539e-06
-2.35547e-07
2.01886e-06
1.46915e-07
1.36454e-06
5.58809e-07
1.07001e-06
9.85825e-07
8.96811e-07
1.40179e-06
7.70519e-07
1.8034e-06
6.80886e-07
2.19778e-06
6.18661e-07
2.59615e-06
5.74091e-07
3.01042e-06
5.41998e-07
3.45021e-06
5.19741e-07
3.91504e-06
5.02456e-07
4.39238e-06
4.82372e-07
4.8255e-06
4.39752e-07
5.17751e-06
3.57892e-07
5.16999e-06
1.88958e-07
5.2527e-06
-3.95453e-08
3.52153e-06
-6.33599e-07
2.56372e-06
-1.00736e-06
-8.13225e-06
2.59022e-06
3.7778e-06
4.95899e-06
5.92264e-06
6.68922e-06
7.35268e-06
7.95985e-06
8.52537e-06
9.05825e-06
9.56767e-06
1.00613e-05
1.05401e-05
1.10013e-05
1.14081e-05
1.17699e-05
1.18052e-05
1.21693e-05
9.51501e-06
1.26459e-05
)
;

boundaryField
{
    movingWall
    {
        type            calculated;
        value           uniform 0;
    }
    fixedWalls
    {
        type            calculated;
        value           uniform 0;
    }
    frontAndBack
    {
        type            empty;
        value           nonuniform List<scalar> 0();
    }
}


// ************************************************************************* //
