/*--------------------------------*- C++ -*----------------------------------*\
| =========                 |                                                 |
| \\      /  F ield         | OpenFOAM: The Open Source CFD Toolbox           |
|  \\    /   O peration     | Version:  2312                                  |
|   \\  /    A nd           | Website:  www.openfoam.com                      |
|    \\/     M anipulation  |                                                 |
\*---------------------------------------------------------------------------*/
FoamFile
{
    version     2.0;
    format      ascii;
    arch        "LSB;label=32;scalar=64";
    class       volTensorField;
    location    "1";
    object      gradU;
}
// * * * * * * * * * * * * * * * * * * * * * * * * * * * * * * * * * * * * * //

dimensions      [0 0 -1 0 0 0 0];

internalField   nonuniform List<tensor> 
400
(
(-0.134791 0.0842715 0 -0.0836808 0.13546 0 0 0 0)
(-0.267952 0.075344 0 -0.337477 0.290471 0 0 0 0)
(-0.363551 0.0395555 0 -0.707819 0.378861 0 0 0 0)
(-0.391586 0.0108141 0 -1.11464 0.412534 0 0 0 0)
(-0.395793 -0.00291514 0 -1.53422 0.416502 0 0 0 0)
(-0.384751 -0.00928697 0 -1.94985 0.404924 0 0 0 0)
(-0.363582 -0.0136904 0 -2.35015 0.382886 0 0 0 0)
(-0.332151 -0.0189685 0 -2.72417 0.350412 0 0 0 0)
(-0.288139 -0.0271794 0 -3.05892 0.304319 0 0 0 0)
(-0.227609 -0.0391343 0 -3.33867 0.239085 0 0 0 0)
(-0.138689 -0.0480374 0 -3.543 0.149425 0 0 0 0)
(-0.0313519 -0.0636706 0 -3.63931 0.0395043 0 0 0 0)
(0.0999557 -0.0809975 0 -3.61587 -0.1033 0 0 0 0)
(0.255625 -0.0864763 0 -3.43589 -0.264578 0 0 0 0)
(0.408751 -0.0828921 0 -3.09346 -0.429965 0 0 0 0)
(0.540799 -0.0621004 0 -2.59421 -0.574022 0 0 0 0)
(0.619287 -0.0177282 0 -1.97373 -0.662568 0 0 0 0)
(0.621652 0.0530719 0 -1.29992 -0.65709 0 0 0 0)
(0.4896 0.12086 0 -0.646617 -0.525798 0 0 0 0)
(0.284274 0.16916 0 -0.165522 -0.278852 0 0 0 0)
(-0.286366 0.34166 0 -0.077586 0.266556 0 0 0 0)
(-0.356186 0.168056 0 -0.16695 0.357544 0 0 0 0)
(-0.413615 0.0825075 0 -0.201601 0.396518 0 0 0 0)
(-0.434817 0.026827 0 -0.225504 0.416766 0 0 0 0)
(-0.439412 -0.00469534 0 -0.247063 0.42232 0 0 0 0)
(-0.431176 -0.0243295 0 -0.271981 0.415284 0 0 0 0)
(-0.410738 -0.0408215 0 -0.301271 0.396336 0 0 0 0)
(-0.376621 -0.0595976 0 -0.333706 0.364338 0 0 0 0)
(-0.326363 -0.0841474 0 -0.367653 0.316691 0 0 0 0)
(-0.256469 -0.11576 0 -0.401072 0.250205 0 0 0 0)
(-0.161954 -0.151543 0 -0.43221 0.161635 0 0 0 0)
(-0.0415227 -0.189054 0 -0.465898 0.0431689 0 0 0 0)
(0.103469 -0.223084 0 -0.486644 -0.0937557 0 0 0 0)
(0.26679 -0.240189 0 -0.503277 -0.251436 0 0 0 0)
(0.43293 -0.226552 0 -0.503868 -0.4135 0 0 0 0)
(0.578925 -0.170502 0 -0.48357 -0.55706 0 0 0 0)
(0.675006 -0.0653404 0 -0.438702 -0.653993 0 0 0 0)
(0.705465 0.0836981 0 -0.370564 -0.684177 0 0 0 0)
(0.644793 0.257378 0 -0.273619 -0.643399 0 0 0 0)
(0.527865 0.63549 0 -0.109602 -0.480255 0 0 0 0)
(-0.379327 0.708371 0 -0.0453085 0.362374 0 0 0 0)
(-0.391967 0.205306 0 -0.0895179 0.409004 0 0 0 0)
(-0.422106 0.0987775 0 -0.102908 0.420822 0 0 0 0)
(-0.437048 0.0366166 0 -0.107864 0.431479 0 0 0 0)
(-0.442269 -0.00439704 0 -0.110801 0.43705 0 0 0 0)
(-0.438959 -0.0352713 0 -0.11701 0.434316 0 0 0 0)
(-0.425307 -0.0646364 0 -0.13005 0.421112 0 0 0 0)
(-0.398533 -0.0986137 0 -0.152119 0.395083 0 0 0 0)
(-0.355506 -0.141312 0 -0.18464 0.353073 0 0 0 0)
(-0.292166 -0.19419 0 -0.228176 0.291261 0 0 0 0)
(-0.203515 -0.255073 0 -0.282116 0.205225 0 0 0 0)
(-0.0857854 -0.319061 0 -0.344639 0.0894294 0 0 0 0)
(0.0625767 -0.375603 0 -0.408018 -0.0567984 0 0 0 0)
(0.238402 -0.40622 0 -0.460579 -0.230468 0 0 0 0)
(0.428458 -0.388516 0 -0.48357 -0.420491 0 0 0 0)
(0.605965 -0.302594 0 -0.459303 -0.600655 0 0 0 0)
(0.732293 -0.144845 0 -0.383396 -0.733609 0 0 0 0)
(0.786735 0.0636657 0 -0.27428 -0.792637 0 0 0 0)
(0.750562 0.324782 0 -0.154062 -0.776938 0 0 0 0)
(0.667495 1.29281 0 -0.0483479 -0.629627 0 0 0 0)
(-0.421193 1.11304 0 -0.0166622 0.39707 0 0 0 0)
(-0.413786 0.226505 0 -0.0389875 0.432552 0 0 0 0)
(-0.431961 0.104982 0 -0.0513907 0.43539 0 0 0 0)
(-0.442711 0.0430545 0 -0.0596003 0.441241 0 0 0 0)
(-0.448558 -0.0018584 0 -0.0673011 0.447512 0 0 0 0)
(-0.450425 -0.0402667 0 -0.0786798 0.45001 0 0 0 0)
(-0.445848 -0.0800546 0 -0.0983815 0.445611 0 0 0 0)
(-0.431211 -0.127637 0 -0.130681 0.431249 0 0 0 0)
(-0.402421 -0.187969 0 -0.179332 0.402996 0 0 0 0)
(-0.353945 -0.263608 0 -0.246995 0.355476 0 0 0 0)
(-0.278416 -0.353375 0 -0.334172 0.281281 0 0 0 0)
(-0.167425 -0.451078 0 -0.437248 0.171176 0 0 0 0)
(-0.012472 -0.542982 0 -0.544874 0.0173505 0 0 0 0)
(0.191238 -0.603882 0 -0.634347 -0.185065 0 0 0 0)
(0.434206 -0.596739 0 -0.669615 -0.429903 0 0 0 0)
(0.679099 -0.48362 0 -0.613324 -0.682398 0 0 0 0)
(0.860029 -0.257322 0 -0.458221 -0.875836 0 0 0 0)
(0.934798 0.0403687 0 -0.251708 -0.951865 0 0 0 0)
(0.870725 0.420388 0 -0.0639755 -0.900085 0 0 0 0)
(0.730275 2.04206 0 0.0128157 -0.676298 0 0 0 0)
(-0.434977 1.53799 0 -0.00228019 0.410455 0 0 0 0)
(-0.426695 0.243626 0 -0.0113985 0.446211 0 0 0 0)
(-0.442719 0.107467 0 -0.021215 0.44743 0 0 0 0)
(-0.452958 0.0487385 0 -0.0308708 0.452168 0 0 0 0)
(-0.461349 0.00437175 0 -0.0425548 0.460844 0 0 0 0)
(-0.47004 -0.0371717 0 -0.0595444 0.470342 0 0 0 0)
(-0.477308 -0.0833969 0 -0.086992 0.477802 0 0 0 0)
(-0.479483 -0.141229 0 -0.130809 0.480099 0 0 0 0)
(-0.47182 -0.217086 0 -0.197187 0.472781 0 0 0 0)
(-0.447007 -0.315905 0 -0.291732 0.448768 0 0 0 0)
(-0.393768 -0.439373 0 -0.417577 0.396849 0 0 0 0)
(-0.296488 -0.582992 0 -0.571982 0.300728 0 0 0 0)
(-0.134522 -0.731843 0 -0.740815 0.140601 0 0 0 0)
(0.11366 -0.853474 0 -0.891309 -0.103153 0 0 0 0)
(0.449481 -0.885849 0 -0.960497 -0.439106 0 0 0 0)
(0.81736 -0.748527 0 -0.869393 -0.820283 0 0 0 0)
(1.09391 -0.414312 0 -0.592167 -1.12063 0 0 0 0)
(1.18098 0.039417 0 -0.213247 -1.20066 0 0 0 0)
(1.01509 0.600349 0 0.0893028 -1.03788 0 0 0 0)
(0.718655 2.8692 0 0.0989883 -0.651068 0 0 0 0)
(-0.434871 1.9697 0 0.00423358 0.410468 0 0 0 0)
(-0.432721 0.26348 0 0.00356607 0.452046 0 0 0 0)
(-0.451434 0.110939 0 -0.00203238 0.456075 0 0 0 0)
(-0.464051 0.0564681 0 -0.00970059 0.46277 0 0 0 0)
(-0.477232 0.0163151 0 -0.0212729 0.475754 0 0 0 0)
(-0.494862 -0.0233083 0 -0.0396817 0.494157 0 0 0 0)
(-0.517112 -0.070297 0 -0.0705603 0.516584 0 0 0 0)
(-0.541406 -0.132658 0 -0.121539 0.540954 0 0 0 0)
(-0.563343 -0.2193 0 -0.201929 0.563232 0 0 0 0)
(-0.574335 -0.33954 0 -0.32196 0.575165 0 0 0 0)
(-0.558665 -0.501414 0 -0.49028 0.561105 0 0 0 0)
(-0.490663 -0.707325 0 -0.709489 0.495488 0 0 0 0)
(-0.331799 -0.946864 0 -0.970146 0.341176 0 0 0 0)
(-0.0284435 -1.18359 0 -1.23727 0.0497453 0 0 0 0)
(0.456122 -1.31387 0 -1.41466 -0.422238 0 0 0 0)
(1.04743 -1.16515 0 -1.3415 -1.03291 0 0 0 0)
(1.51618 -0.637703 0 -0.926799 -1.54803 0 0 0 0)
(1.61627 0.123121 0 -0.242445 -1.62425 0 0 0 0)
(1.18296 0.969983 0 0.37174 -1.13808 0 0 0 0)
(0.541984 3.73101 0 0.285493 -0.437381 0 0 0 0)
(-0.427177 2.40051 0 0.00757637 0.402962 0 0 0 0)
(-0.432961 0.289233 0 0.0129639 0.452035 0 0 0 0)
(-0.455985 0.11819 0 0.0126403 0.460683 0 0 0 0)
(-0.472199 0.0684173 0 0.00989769 0.47093 0 0 0 0)
(-0.49133 0.0357594 0 0.00299792 0.489378 0 0 0 0)
(-0.519327 0.00365836 0 -0.0109558 0.517929 0 0 0 0)
(-0.559166 -0.0366004 0 -0.0380947 0.557741 0 0 0 0)
(-0.610851 -0.0945813 0 -0.0877867 0.609238 0 0 0 0)
(-0.672241 -0.182874 0 -0.17299 0.670593 0 0 0 0)
(-0.735358 -0.318031 0 -0.310311 0.734435 0 0 0 0)
(-0.781297 -0.519051 0 -0.518188 0.782364 0 0 0 0)
(-0.776353 -0.802922 0 -0.813761 0.780363 0 0 0 0)
(-0.662305 -1.17759 0 -1.2143 0.674404 0 0 0 0)
(-0.330855 -1.61689 0 -1.72031 0.372899 0 0 0 0)
(0.345254 -1.96851 0 -2.23411 -0.233192 0 0 0 0)
(1.30522 -1.87432 0 -2.51522 -1.174 0 0 0 0)
(2.19296 -1.00565 0 -2.27049 -2.12548 0 0 0 0)
(2.47952 0.449369 0 -1.30903 -2.44449 0 0 0 0)
(1.54302 1.78721 0 0.124677 -1.4814 0 0 0 0)
(0.0614214 4.44465 0 0.536997 -0.0499494 0 0 0 0)
(-0.414331 2.8247 0 0.00965995 0.390542 0 0 0 0)
(-0.427657 0.321201 0 0.0199853 0.44635 0 0 0 0)
(-0.4545 0.129833 0 0.0258359 0.459225 0 0 0 0)
(-0.473693 0.0851634 0 0.0307043 0.472634 0 0 0 0)
(-0.498085 0.0633143 0 0.033206 0.495945 0 0 0 0)
(-0.535955 0.0450547 0 0.0307167 0.534133 0 0 0 0)
(-0.593943 0.0210127 0 0.0170809 0.591807 0 0 0 0)
(-0.676301 -0.0198064 0 -0.018072 0.673445 0 0 0 0)
(-0.785868 -0.0941034 0 -0.0906392 0.782037 0 0 0 0)
(-0.919532 -0.227769 0 -0.224124 0.915396 0 0 0 0)
(-1.06211 -0.455486 0 -0.450675 1.05966 0 0 0 0)
(-1.18677 -0.815285 0 -0.8152 1.18562 0 0 0 0)
(-1.23835 -1.35433 0 -1.40546 1.24725 0 0 0 0)
(-1.04825 -2.09118 0 -2.34104 1.12928 0 0 0 0)
(-0.338792 -2.86077 0 -3.61782 0.569942 0 0 0 0)
(1.01104 -3.05744 0 -4.86793 -0.763505 0 0 0 0)
(2.72237 -1.90819 0 -5.2506 -2.64628 0 0 0 0)
(4.01144 0.767208 0 -4.38501 -3.83305 0 0 0 0)
(3.02899 3.36452 0 -2.25535 -3.02787 0 0 0 0)
(-0.119691 5.26235 0 0.411311 -0.11757 0 0 0 0)
(-0.397532 3.2374 0 0.0108651 0.374637 0 0 0 0)
(-0.416785 0.357916 0 0.0252108 0.435079 0 0 0 0)
(-0.445266 0.144474 0 0.0377913 0.450012 0 0 0 0)
(-0.464828 0.105137 0 0.052598 0.464069 0 0 0 0)
(-0.491317 0.0972587 0 0.0691609 0.489166 0 0 0 0)
(-0.535452 0.09952 0 0.0858219 0.533411 0 0 0 0)
(-0.607955 0.102712 0 0.0976024 0.605318 0 0 0 0)
(-0.718571 0.0956487 0 0.0952915 0.714574 0 0 0 0)
(-0.878293 0.0590765 0 0.0633247 0.871593 0 0 0 0)
(-1.09539 -0.040412 0 -0.0251262 1.08601 0 0 0 0)
(-1.37237 -0.248831 0 -0.212922 1.36641 0 0 0 0)
(-1.73114 -0.615327 0 -0.56979 1.73047 0 0 0 0)
(-2.18815 -1.23392 0 -1.30755 2.19557 0 0 0 0)
(-2.54321 -2.2942 0 -2.72609 2.58247 0 0 0 0)
(-2.18164 -3.86129 0 -4.6443 2.13545 0 0 0 0)
(-0.327565 -5.09054 0 -6.20467 0.141236 0 0 0 0)
(2.67588 -4.07519 0 -7.13687 -2.96982 0 0 0 0)
(5.47478 0.0677791 0 -7.10181 -5.63858 0 0 0 0)
(6.33935 5.50269 0 -5.47759 -5.90507 0 0 0 0)
(1.90546 7.5901 0 -1.09458 -1.49735 0 0 0 0)
(-0.378255 3.63442 0 0.0106876 0.356615 0 0 0 0)
(-0.400731 0.396575 0 0.0273948 0.418768 0 0 0 0)
(-0.427113 0.158823 0 0.04648 0.431994 0 0 0 0)
(-0.442323 0.124318 0 0.0727287 0.442008 0 0 0 0)
(-0.464861 0.132656 0 0.107203 0.462975 0 0 0 0)
(-0.507514 0.161206 0 0.15007 0.505671 0 0 0 0)
(-0.584474 0.202176 0 0.199318 0.581963 0 0 0 0)
(-0.710579 0.246468 0 0.250394 0.706238 0 0 0 0)
(-0.906286 0.277333 0 0.294666 0.896573 0 0 0 0)
(-1.19578 0.267044 0 0.314174 1.17863 0 0 0 0)
(-1.60678 0.188971 0 0.278731 1.60121 0 0 0 0)
(-2.2814 0.0138819 0 0.143948 2.26425 0 0 0 0)
(-3.39465 -0.50233 0 -0.307688 3.23862 0 0 0 0)
(-4.385 -2.1513 0 -1.32403 4.05606 0 0 0 0)
(-3.81737 -5.302 0 -2.44852 3.4783 0 0 0 0)
(-1.48153 -8.16271 0 -3.13159 0.962123 0 0 0 0)
(1.82523 -7.68801 0 -4.01544 -2.49327 0 0 0 0)
(5.67072 -2.16804 0 -5.43316 -6.39173 0 0 0 0)
(9.03622 7.50575 0 -5.89343 -9.09008 0 0 0 0)
(6.45248 12.6648 0 -3.59726 -5.99862 0 0 0 0)
(-0.359449 4.01278 0 0.00780237 0.340209 0 0 0 0)
(-0.380993 0.433295 0 0.0240774 0.39901 0 0 0 0)
(-0.399932 0.167714 0 0.0479406 0.405206 0 0 0 0)
(-0.404106 0.136118 0 0.0857593 0.40441 0 0 0 0)
(-0.413977 0.160922 0 0.140087 0.412705 0 0 0 0)
(-0.443337 0.218508 0 0.213356 0.442415 0 0 0 0)
(-0.50763 0.303279 0 0.307866 0.506644 0 0 0 0)
(-0.623223 0.410259 0 0.426701 0.621307 0 0 0 0)
(-0.814512 0.53147 0 0.574541 0.807362 0 0 0 0)
(-1.11133 0.664225 0 0.75739 1.09888 0 0 0 0)
(-1.5426 0.836785 0 0.987327 1.56594 0 0 0 0)
(-2.31756 1.02208 0 1.30059 2.33651 0 0 0 0)
(-3.65612 0.557886 0 1.74759 3.43718 0 0 0 0)
(-4.68403 -2.05452 0 2.32033 4.16162 0 0 0 0)
(-3.9892 -6.95522 0 3.13347 3.59729 0 0 0 0)
(-1.89449 -11.0621 0 3.77914 1.94216 0 0 0 0)
(0.37431 -11.429 0 3.37221 -0.365396 0 0 0 0)
(3.59678 -6.52903 0 0.920269 -3.94402 0 0 0 0)
(8.17525 5.8958 0 -2.35226 -9.72885 0 0 0 0)
(11.3962 22.6788 0 -3.51264 -11.5466 0 0 0 0)
(-0.346375 4.37364 0 0.000408911 0.328028 0 0 0 0)
(-0.360592 0.461572 0 0.0108453 0.37884 0 0 0 0)
(-0.365431 0.164222 0 0.0367469 0.371002 0 0 0 0)
(-0.350177 0.131817 0 0.0848169 0.351127 0 0 0 0)
(-0.337265 0.170661 0 0.158211 0.336905 0 0 0 0)
(-0.339734 0.255145 0 0.260932 0.340396 0 0 0 0)
(-0.371128 0.381069 0 0.399173 0.372974 0 0 0 0)
(-0.443904 0.547186 0 0.583402 0.447211 0 0 0 0)
(-0.575598 0.754907 0 0.831444 0.578996 0 0 0 0)
(-0.782993 1.02563 0 1.17479 0.792223 0 0 0 0)
(-1.06358 1.4266 0 1.66615 1.12841 0 0 0 0)
(-1.52114 1.88512 0 2.40716 1.63966 0 0 0 0)
(-2.37491 1.32278 0 3.69993 2.25903 0 0 0 0)
(-2.99912 -1.9912 0 5.72224 2.62478 0 0 0 0)
(-2.35856 -7.52147 0 7.80658 2.56409 0 0 0 0)
(-1.24279 -12.1254 0 9.4556 2.26313 0 0 0 0)
(-1.03364 -13.5742 0 9.6094 2.03202 0 0 0 0)
(-0.0537477 -11.5315 0 7.62642 0.976765 0 0 0 0)
(4.60331 -0.0967735 0 2.8786 -5.21009 0 0 0 0)
(12.3174 33.9402 0 -0.641879 -13.0689 0 0 0 0)
(-0.348195 4.71965 0 -0.0136251 0.337936 0 0 0 0)
(-0.344655 0.476268 0 -0.0156511 0.366174 0 0 0 0)
(-0.325961 0.140002 0 0.00826484 0.333001 0 0 0 0)
(-0.282641 0.102021 0 0.0643106 0.284518 0 0 0 0)
(-0.237862 0.150191 0 0.153707 0.238442 0 0 0 0)
(-0.202375 0.254577 0 0.279251 0.204481 0 0 0 0)
(-0.185159 0.410094 0 0.448732 0.189558 0 0 0 0)
(-0.190952 0.616281 0 0.676277 0.198898 0 0 0 0)
(-0.223121 0.876482 0 0.985409 0.23681 0 0 0 0)
(-0.276619 1.21364 0 1.41765 0.301908 0 0 0 0)
(-0.310237 1.68422 0 2.03457 0.38467 0 0 0 0)
(-0.283783 2.1527 0 2.92308 0.428832 0 0 0 0)
(-0.341043 1.54301 0 4.35782 0.375934 0 0 0 0)
(-0.57739 -1.74946 0 6.60476 0.365509 0 0 0 0)
(-0.255842 -7.31687 0 8.70708 0.755564 0 0 0 0)
(-0.0916668 -11.5942 0 10.0849 1.13702 0 0 0 0)
(-1.45486 -12.7154 0 10.1121 2.31969 0 0 0 0)
(-3.13402 -13.7711 0 9.4308 3.98955 0 0 0 0)
(-0.09305 -8.1499 0 5.9459 1.59115 0 0 0 0)
(9.15943 40.9578 0 1.56695 -10.2511 0 0 0 0)
(-0.375652 5.07775 0 -0.0406079 0.342976 0 0 0 0)
(-0.338702 0.456638 0 -0.0643498 0.355772 0 0 0 0)
(-0.285469 0.0825661 0 -0.0411156 0.289241 0 0 0 0)
(-0.204735 0.0372581 0 0.0232123 0.204648 0 0 0 0)
(-0.122325 0.0906237 0 0.126896 0.122378 0 0 0 0)
(-0.0447092 0.206261 0 0.26481 0.0465104 0 0 0 0)
(0.0258979 0.375486 0 0.446177 -0.02161 0 0 0 0)
(0.0927734 0.594438 0 0.683676 -0.0854129 0 0 0 0)
(0.165773 0.857917 0 0.996108 -0.152539 0 0 0 0)
(0.266163 1.17349 0 1.41771 -0.240003 0 0 0 0)
(0.441857 1.55353 0 1.9875 -0.396645 0 0 0 0)
(0.802114 1.87639 0 2.73276 -0.730025 0 0 0 0)
(1.30677 1.25946 0 3.72938 -1.26112 0 0 0 0)
(1.35014 -1.61157 0 5.14018 -1.60389 0 0 0 0)
(1.12162 -6.74995 0 6.56625 -1.09892 0 0 0 0)
(0.162281 -10.5613 0 7.0453 0.335699 0 0 0 0)
(-1.68778 -10.7217 0 6.66874 1.96416 0 0 0 0)
(-4.22 -12.26 0 6.31962 3.73142 0 0 0 0)
(-3.26054 -14.3374 0 5.45587 5.06341 0 0 0 0)
(4.80452 42.6001 0 2.0104 -5.38738 0 0 0 0)
(-0.453153 5.4184 0 -0.0790877 0.492016 0 0 0 0)
(-0.345162 0.422533 0 -0.117877 0.387585 0 0 0 0)
(-0.238399 -0.0111222 0 -0.0980371 0.246621 0 0 0 0)
(-0.11463 -0.0648415 0 -0.0211325 0.111711 0 0 0 0)
(0.00373599 -0.00794711 0 0.092973 -0.00617125 0 0 0 0)
(0.116906 0.110589 0 0.233764 -0.116169 0 0 0 0)
(0.233706 0.278171 0 0.407647 -0.229891 0 0 0 0)
(0.358979 0.485352 0 0.622736 -0.356364 0 0 0 0)
(0.510912 0.721892 0 0.894725 -0.507452 0 0 0 0)
(0.714773 0.969537 0 1.2374 -0.700703 0 0 0 0)
(1.00481 1.19419 0 1.65711 -0.989027 0 0 0 0)
(1.45809 1.28822 0 2.13485 -1.45861 0 0 0 0)
(2.06638 0.669147 0 2.59349 -2.15239 0 0 0 0)
(2.25948 -1.58726 0 3.02078 -2.59517 0 0 0 0)
(1.64928 -5.37728 0 3.53675 -2.01315 0 0 0 0)
(0.0108235 -8.5311 0 3.47974 0.170765 0 0 0 0)
(-2.18054 -9.31969 0 3.28949 2.29753 0 0 0 0)
(-4.34688 -10.6719 0 3.01411 3.34406 0 0 0 0)
(-4.40227 -17.2687 0 3.57676 5.10816 0 0 0 0)
(1.69316 41.2818 0 1.34896 -1.72423 0 0 0 0)
(-0.572616 5.95735 0 -0.163734 0.287513 0 0 0 0)
(-0.357652 0.211243 0 -0.256548 0.202146 0 0 0 0)
(-0.188725 -0.193307 0 -0.164369 0.0740575 0 0 0 0)
(-0.013725 -0.215535 0 -0.0315075 -0.0461082 0 0 0 0)
(0.132572 -0.137256 0 0.106179 -0.16386 0 0 0 0)
(0.269965 -0.017459 0 0.247457 -0.285315 0 0 0 0)
(0.414869 0.135291 0 0.401164 -0.417371 0 0 0 0)
(0.579851 0.316877 0 0.577705 -0.574742 0 0 0 0)
(0.780441 0.513577 0 0.790784 -0.768478 0 0 0 0)
(1.02855 0.691911 0 1.03845 -1.01215 0 0 0 0)
(1.3393 0.795617 0 1.3075 -1.328 0 0 0 0)
(1.73849 0.71302 0 1.55411 -1.7505 0 0 0 0)
(2.1927 0.1229 0 1.66731 -2.28977 0 0 0 0)
(2.2934 -1.47232 0 1.55802 -2.56059 0 0 0 0)
(1.58058 -3.98402 0 1.43672 -1.86254 0 0 0 0)
(-0.084977 -6.25059 0 1.26883 0.0607213 0 0 0 0)
(-2.15341 -7.54836 0 1.27889 2.28168 0 0 0 0)
(-3.93273 -9.44941 0 1.82242 3.33697 0 0 0 0)
(-4.92569 -19.4057 0 2.33726 4.62596 0 0 0 0)
(-0.121196 39.2162 0 0.92657 -0.766333 0 0 0 0)
(-0.873435 5.90806 0 -0.264874 1.74627 0 0 0 0)
(-0.345798 0.209078 0 -0.29292 1.16665 0 0 0 0)
(-0.0133584 -0.259376 0 -0.0438178 0.613933 0 0 0 0)
(0.155919 -0.302759 0 0.191728 0.218714 0 0 0 0)
(0.2827 -0.247154 0 0.383179 -0.0296069 0 0 0 0)
(0.41189 -0.142922 0 0.572131 -0.230588 0 0 0 0)
(0.563954 -0.0112555 0 0.763013 -0.425099 0 0 0 0)
(0.748599 0.134245 0 0.951776 -0.633122 0 0 0 0)
(0.971654 0.284486 0 1.13391 -0.872228 0 0 0 0)
(1.23149 0.410016 0 1.3104 -1.15031 0 0 0 0)
(1.52048 0.455847 0 1.47227 -1.45899 0 0 0 0)
(1.8179 0.326453 0 1.58897 -1.78527 0 0 0 0)
(2.07029 -0.140949 0 1.57593 -2.08261 0 0 0 0)
(2.0289 -1.16003 0 1.36421 -2.10645 0 0 0 0)
(1.36009 -2.75597 0 1.1141 -1.38815 0 0 0 0)
(-0.147007 -4.38688 0 1.05445 0.150904 0 0 0 0)
(-1.62696 -6.04344 0 0.982625 2.01845 0 0 0 0)
(-3.28851 -8.32761 0 2.5301 3.04077 0 0 0 0)
(-5.29812 -21.372 0 1.27519 4.60643 0 0 0 0)
(-1.57067 37.4222 0 1.78907 -0.391411 0 0 0 0)
(-1.13041 8.87027 0 -0.315151 -0.947214 0 0 0 0)
(-0.136596 -0.921097 0 -0.261261 -2.02172 0 0 0 0)
(0.295923 -1.14124 0 0.538305 -1.94796 0 0 0 0)
(0.413272 -0.859074 0 1.28195 -1.50906 0 0 0 0)
(0.512975 -0.586558 0 2.02996 -1.28483 0 0 0 0)
(0.649798 -0.412951 0 2.70731 -1.23039 0 0 0 0)
(0.794514 -0.267243 0 3.28193 -1.24573 0 0 0 0)
(0.950745 -0.130253 0 3.7498 -1.30834 0 0 0 0)
(1.13906 -0.00361132 0 4.11085 -1.42983 0 0 0 0)
(1.36691 0.105148 0 4.37163 -1.61199 0 0 0 0)
(1.61787 0.160656 0 4.53644 -1.83201 0 0 0 0)
(1.84216 0.0894043 0 4.61031 -2.04137 0 0 0 0)
(1.96794 -0.198277 0 4.57784 -2.14837 0 0 0 0)
(1.83157 -0.777863 0 4.44938 -1.99998 0 0 0 0)
(1.27082 -1.72667 0 4.28145 -1.32101 0 0 0 0)
(-0.216451 -2.84399 0 4.49733 -0.0296706 0 0 0 0)
(-0.67776 -4.65849 0 4.39835 1.76191 0 0 0 0)
(-3.64016 -6.86143 0 6.45513 3.39181 0 0 0 0)
(-5.66671 -22.8379 0 0.762177 6.07958 0 0 0 0)
(-3.18546 35.0011 0 7.92202 4.28422 0 0 0 0)
(-1.44985 2.93912 0 4.52032 4.66668 0 0 0 0)
(0.507658 -0.791667 0 6.97097 2.70095 0 0 0 0)
(1.52985 0.253283 0 9.40725 0.736028 0 0 0 0)
(1.64758 0.360368 0 11.3998 -0.206506 0 0 0 0)
(1.70807 0.0315182 0 12.8486 -0.636164 0 0 0 0)
(1.66386 -0.103824 0 13.9532 -0.849437 0 0 0 0)
(1.60644 -0.0892053 0 14.8526 -0.98309 0 0 0 0)
(1.57752 -0.0498571 0 15.5873 -1.10042 0 0 0 0)
(1.59349 -0.0191621 0 16.1639 -1.23016 0 0 0 0)
(1.65709 0.0078426 0 16.5798 -1.3843 0 0 0 0)
(1.75916 0.02647 0 16.8347 -1.56055 0 0 0 0)
(1.85929 0.0100865 0 16.9363 -1.72959 0 0 0 0)
(1.90937 -0.0995628 0 16.9079 -1.80952 0 0 0 0)
(1.7325 -0.332663 0 16.813 -1.68257 0 0 0 0)
(1.40804 -0.78566 0 16.7038 -1.19691 0 0 0 0)
(-0.0301091 -1.30396 0 16.9892 -0.17342 0 0 0 0)
(0.330841 -2.62196 0 17.0617 1.36129 0 0 0 0)
(-6.92468 -4.00994 0 19.1231 3.8168 0 0 0 0)
(-3.83123 -20.4796 0 10.0848 8.3614 0 0 0 0)
(-10.2549 27.0584 0 37.3134 17.1397 0 0 0 0)
(10.3609 16.2379 0 196.531 -11.1016 0 0 0 0)
(4.75033 -4.85175 0 194.558 -8.07546 0 0 0 0)
(4.72476 -4.04869 0 191.273 -5.45814 0 0 0 0)
(3.85458 -2.23127 0 188.303 -4.28005 0 0 0 0)
(3.06632 -1.22949 0 185.771 -3.58724 0 0 0 0)
(2.65383 -0.759877 0 183.529 -3.08208 0 0 0 0)
(2.4287 -0.518228 0 181.453 -2.72354 0 0 0 0)
(2.26209 -0.377323 0 179.494 -2.47464 0 0 0 0)
(2.1315 -0.287488 0 177.614 -2.29636 0 0 0 0)
(2.0377 -0.225241 0 175.769 -2.16799 0 0 0 0)
(1.97436 -0.184638 0 173.919 -2.07896 0 0 0 0)
(1.91536 -0.159562 0 172.035 -2.00982 0 0 0 0)
(1.84471 -0.151254 0 170.144 -1.92949 0 0 0 0)
(1.62741 -0.165259 0 168.281 -1.75901 0 0 0 0)
(1.44697 -0.217515 0 166.784 -1.43157 0 0 0 0)
(0.141503 -0.285787 0 165.426 -0.755833 0 0 0 0)
(1.45616 -0.668271 0 166.673 0.158181 0 0 0 0)
(-10.6171 0.138681 0 163.639 2.5344 0 0 0 0)
(12.5236 -9.51501 0 184.215 4.02944 0 0 0 0)
(-50.5836 9.50008 0 154.947 32.529 0 0 0 0)
)
;

boundaryField
{
    movingWall
    {
        type            extrapolatedCalculated;
        value           nonuniform List<tensor> 
20
(
(10.3609 16.2379 0 383.693 -36.9995 0 0 0 0)
(4.75033 -4.85175 0 374.864 -27.9521 0 0 0 0)
(4.72476 -4.04869 0 364.692 -17.5925 0 0 0 0)
(3.85458 -2.23127 0 355.964 -11.7573 0 0 0 0)
(3.06632 -1.22949 0 349.273 -8.66741 0 0 0 0)
(2.65383 -0.759877 0 343.699 -6.83938 0 0 0 0)
(2.4287 -0.518228 0 338.658 -5.6279 0 0 0 0)
(2.26209 -0.377323 0 333.984 -4.76647 0 0 0 0)
(2.1315 -0.287488 0 329.61 -4.11861 0 0 0 0)
(2.0377 -0.225241 0 325.458 -3.61651 0 0 0 0)
(1.97436 -0.184638 0 321.459 -3.21765 0 0 0 0)
(1.91536 -0.159562 0 317.561 -2.87796 0 0 0 0)
(1.84471 -0.151254 0 313.797 -2.5794 0 0 0 0)
(1.62741 -0.165259 0 310.182 -2.27294 0 0 0 0)
(1.44697 -0.217515 0 307.288 -1.91836 0 0 0 0)
(0.141503 -0.285787 0 304.394 -1.40288 0 0 0 0)
(1.45616 -0.668271 0 306.722 -0.775214 0 0 0 0)
(-10.6171 0.138681 0 298.57 1.2702 0 0 0 0)
(12.5236 -9.51501 0 349.19 -1.32994 0 0 0 0)
(-50.5836 9.50008 0 248.475 39.3302 0 0 0 0)
)
;
    }
    fixedWalls
    {
        type            extrapolatedCalculated;
        value           nonuniform List<tensor> 
60
(
(-0.0761768 0.0765376 0 -0.0836808 0.13546 0 0 0 0)
(-0.258547 0.465304 0 -0.077586 0.266556 0 0 0 0)
(-0.386521 1.14276 0 -0.0453085 0.362374 0 0 0 0)
(-0.43978 1.9148 0 -0.0166622 0.39707 0 0 0 0)
(-0.45317 2.73104 0 -0.00228019 0.410455 0 0 0 0)
(-0.448901 3.55662 0 0.00423358 0.410468 0 0 0 0)
(-0.436235 4.37291 0 0.00757637 0.402962 0 0 0 0)
(-0.418596 5.16847 0 0.00965995 0.390542 0 0 0 0)
(-0.397596 5.93508 0 0.0108651 0.374637 0 0 0 0)
(-0.375135 6.66702 0 0.0106876 0.356615 0 0 0 0)
(-0.354845 7.36154 0 0.00780237 0.340209 0 0 0 0)
(-0.343926 8.02785 0 0.000408911 0.328028 0 0 0 0)
(-0.35321 8.67366 0 -0.0136251 0.337936 0 0 0 0)
(-0.398426 9.3796 0 -0.0406079 0.342976 0 0 0 0)
(-0.515641 10.0456 0 -0.0790877 0.492016 0 0 0 0)
(-0.714777 11.3477 0 -0.163734 0.287513 0 0 0 0)
(-1.17058 11.1956 0 -0.264874 1.74627 0 0 0 0)
(-1.77427 18.3328 0 -0.315151 -0.947214 0 0 0 0)
(-2.43118 7.40676 0 4.52032 4.66668 0 0 0 0)
(16.307 36.9995 0 196.531 -11.1016 0 0 0 0)
(0.191628 0.191549 0 -0.165522 -0.278852 0 0 0 0)
(0.470461 0.923859 0 -0.109602 -0.480255 0 0 0 0)
(0.630036 2.11257 0 -0.0483479 -0.629627 0 0 0 0)
(0.663852 3.44237 0 0.0128157 -0.676298 0 0 0 0)
(0.578773 4.81776 0 0.0989883 -0.651068 0 0 0 0)
(0.267899 6.04664 0 0.285493 -0.437381 0 0 0 0)
(-0.563199 6.56728 0 0.536997 -0.0499494 0 0 0 0)
(-1.88009 6.24644 0 0.411311 -0.11757 0 0 0 0)
(-2.20844 7.03756 0 -1.09458 -1.49735 0 0 0 0)
(2.49822 12.2358 0 -3.59726 -5.99862 0 0 0 0)
(12.1806 31.0321 0 -3.51264 -11.5466 0 0 0 0)
(16.5488 58.422 0 -0.641879 -13.0689 0 0 0 0)
(14.7481 83.3078 0 1.56695 -10.2511 0 0 0 0)
(10.281 99.4263 0 2.0104 -5.38738 0 0 0 0)
(6.70653 104.857 0 1.34896 -1.72423 0 0 0 0)
(4.88512 106.323 0 0.92657 -0.766333 0 0 0 0)
(3.00025 107.923 0 1.78907 -0.391411 0 0 0 0)
(-2.27116 107.889 0 7.92202 4.28422 0 0 0 0)
(-28.6878 90.7858 0 37.3134 17.1397 0 0 0 0)
(-151.525 39.3302 0 154.947 32.529 0 0 0 0)
(-0.134791 0.0842715 0 -0.0761768 0.0765376 0 0 0 0)
(-0.267952 0.075344 0 -0.462988 0.260548 0 0 0 0)
(-0.363551 0.0395555 0 -1.14798 0.377914 0 0 0 0)
(-0.391586 0.0108141 0 -1.91719 0.418771 0 0 0 0)
(-0.395793 -0.00291514 0 -2.71433 0.42117 0 0 0 0)
(-0.384751 -0.00928697 0 -3.50036 0.40711 0 0 0 0)
(-0.363582 -0.0136904 0 -4.25333 0.384022 0 0 0 0)
(-0.332151 -0.0189685 0 -4.95469 0.352348 0 0 0 0)
(-0.288139 -0.0271794 0 -5.58193 0.308149 0 0 0 0)
(-0.227609 -0.0391343 0 -6.10725 0.243631 0 0 0 0)
(-0.138689 -0.0480374 0 -6.49237 0.151611 0 0 0 0)
(-0.0313519 -0.0636706 0 -6.662 0.0514812 0 0 0 0)
(0.0999557 -0.0809975 0 -6.61778 -0.103071 0 0 0 0)
(0.255625 -0.0864763 0 -6.26218 -0.272509 0 0 0 0)
(0.408751 -0.0828921 0 -5.59527 -0.448976 0 0 0 0)
(0.540799 -0.0621004 0 -4.62718 -0.604077 0 0 0 0)
(0.619287 -0.0177282 0 -3.43208 -0.697378 0 0 0 0)
(0.621652 0.0530719 0 -2.15003 -0.67499 0 0 0 0)
(0.4896 0.12086 0 -0.94547 -0.48509 0 0 0 0)
(0.284274 0.16916 0 -0.191628 -0.191549 0 0 0 0)
)
;
    }
    frontAndBack
    {
        type            empty;
    }
}


// ************************************************************************* //
