/*--------------------------------*- C++ -*----------------------------------*\
| =========                 |                                                 |
| \\      /  F ield         | OpenFOAM: The Open Source CFD Toolbox           |
|  \\    /   O peration     | Version:  2312                                  |
|   \\  /    A nd           | Website:  www.openfoam.com                      |
|    \\/     M anipulation  |                                                 |
\*---------------------------------------------------------------------------*/
FoamFile
{
    version     2.0;
    format      ascii;
    arch        "LSB;label=32;scalar=64";
    class       volVectorField;
    location    "1";
    object      gradPhi;
}
// * * * * * * * * * * * * * * * * * * * * * * * * * * * * * * * * * * * * * //

dimensions      [0 2 -1 0 0 0 0];

internalField   nonuniform List<vector> 
400
(
(-6.26513e-06 6.26424e-06 0)
(-1.37961e-05 1.37961e-05 0)
(-1.80728e-05 1.80728e-05 0)
(-1.9664e-05 1.9664e-05 0)
(-1.98297e-05 1.98297e-05 0)
(-1.92629e-05 1.92629e-05 0)
(-1.82099e-05 1.82099e-05 0)
(-1.6671e-05 1.6671e-05 0)
(-1.44918e-05 1.44918e-05 0)
(-1.14023e-05 1.14023e-05 0)
(-7.13145e-06 7.13143e-06 0)
(-1.88572e-06 1.8857e-06 0)
(4.89821e-06 -4.89823e-06 0)
(1.25866e-05 -1.25866e-05 0)
(2.0473e-05 -2.0473e-05 0)
(2.73594e-05 -2.73594e-05 0)
(3.16401e-05 -3.16401e-05 0)
(3.14509e-05 -3.14509e-05 0)
(2.51362e-05 -2.51362e-05 0)
(1.31387e-05 -1.31387e-05 0)
(-1.36299e-05 1.36299e-05 0)
(-1.85346e-05 1.85346e-05 0)
(-2.06421e-05 2.06421e-05 0)
(-2.17006e-05 2.17005e-05 0)
(-2.19648e-05 2.19648e-05 0)
(-2.1569e-05 2.1569e-05 0)
(-2.05535e-05 2.05535e-05 0)
(-1.88601e-05 1.88601e-05 0)
(-1.63523e-05 1.63523e-05 0)
(-1.28648e-05 1.28648e-05 0)
(-8.25649e-06 8.25647e-06 0)
(-2.15306e-06 2.15305e-06 0)
(5.03989e-06 -5.0399e-06 0)
(1.32359e-05 -1.32359e-05 0)
(2.16423e-05 -2.16423e-05 0)
(2.90733e-05 -2.90733e-05 0)
(3.40721e-05 -3.40721e-05 0)
(3.56059e-05 -3.56059e-05 0)
(3.34371e-05 -3.34372e-05 0)
(2.49747e-05 -2.49747e-05 0)
(-1.81003e-05 1.81003e-05 0)
(-2.0497e-05 2.0497e-05 0)
(-2.1164e-05 2.1164e-05 0)
(-2.17646e-05 2.17646e-05 0)
(-2.20769e-05 2.20768e-05 0)
(-2.19455e-05 2.19455e-05 0)
(-2.12713e-05 2.12713e-05 0)
(-1.994e-05 1.994e-05 0)
(-1.77959e-05 1.77959e-05 0)
(-1.46476e-05 1.46476e-05 0)
(-1.02631e-05 1.02631e-05 0)
(-4.37082e-06 4.37081e-06 0)
(3.00757e-06 -3.00758e-06 0)
(1.18023e-05 -1.18024e-05 0)
(2.13639e-05 -2.1364e-05 0)
(3.03518e-05 -3.03518e-05 0)
(3.69166e-05 -3.69166e-05 0)
(3.97863e-05 -3.97863e-05 0)
(3.89926e-05 -3.89926e-05 0)
(3.16157e-05 -3.16157e-05 0)
(-2.00475e-05 2.00475e-05 0)
(-2.1669e-05 2.1669e-05 0)
(-2.17545e-05 2.17544e-05 0)
(-2.20456e-05 2.20456e-05 0)
(-2.23717e-05 2.23717e-05 0)
(-2.25063e-05 2.25063e-05 0)
(-2.22882e-05 2.22882e-05 0)
(-2.15624e-05 2.15624e-05 0)
(-2.01324e-05 2.01324e-05 0)
(-1.77307e-05 1.77307e-05 0)
(-1.39904e-05 1.39904e-05 0)
(-8.45655e-06 8.45654e-06 0)
(-7.83273e-07 7.83269e-07 0)
(9.3764e-06 -9.3764e-06 0)
(2.15564e-05 -2.15564e-05 0)
(3.40112e-05 -3.40112e-05 0)
(4.35478e-05 -4.35478e-05 0)
(4.73956e-05 -4.73956e-05 0)
(4.51188e-05 -4.51188e-05 0)
(3.43325e-05 -3.43325e-05 0)
(-2.0646e-05 2.0646e-05 0)
(-2.23396e-05 2.23396e-05 0)
(-2.23558e-05 2.23558e-05 0)
(-2.25734e-05 2.25734e-05 0)
(-2.30018e-05 2.30018e-05 0)
(-2.34773e-05 2.34773e-05 0)
(-2.38516e-05 2.38516e-05 0)
(-2.39652e-05 2.39652e-05 0)
(-2.35923e-05 2.35923e-05 0)
(-2.23755e-05 2.23755e-05 0)
(-1.97508e-05 1.97508e-05 0)
(-1.49016e-05 1.49016e-05 0)
(-6.9587e-06 6.9587e-06 0)
(5.36778e-06 -5.36778e-06 0)
(2.21151e-05 -2.21151e-05 0)
(4.09634e-05 -4.09634e-05 0)
(5.58153e-05 -5.58153e-05 0)
(6.00419e-05 -6.00419e-05 0)
(5.2144e-05 -5.2144e-05 0)
(3.3342e-05 -3.3342e-05 0)
(-2.05952e-05 2.05952e-05 0)
(-2.26396e-05 2.26396e-05 0)
(-2.28224e-05 2.28224e-05 0)
(-2.31468e-05 2.31468e-05 0)
(-2.3792e-05 2.3792e-05 0)
(-2.47112e-05 2.47113e-05 0)
(-2.58326e-05 2.58326e-05 0)
(-2.70487e-05 2.70487e-05 0)
(-2.81526e-05 2.81526e-05 0)
(-2.87252e-05 2.87252e-05 0)
(-2.79769e-05 2.79769e-05 0)
(-2.46157e-05 2.46157e-05 0)
(-1.6817e-05 1.6817e-05 0)
(-2.03927e-06 2.03928e-06 0)
(2.19208e-05 -2.19208e-05 0)
(5.25757e-05 -5.25757e-05 0)
(7.80781e-05 -7.8078e-05 0)
(8.24509e-05 -8.24509e-05 0)
(5.95418e-05 -5.95418e-05 0)
(2.4348e-05 -2.4348e-05 0)
(-2.01969e-05 2.0197e-05 0)
(-2.26359e-05 2.26359e-05 0)
(-2.30612e-05 2.30612e-05 0)
(-2.35716e-05 2.35716e-05 0)
(-2.44962e-05 2.44962e-05 0)
(-2.59291e-05 2.59291e-05 0)
(-2.79265e-05 2.79265e-05 0)
(-3.05064e-05 3.05064e-05 0)
(-3.35717e-05 3.35717e-05 0)
(-3.67407e-05 3.67407e-05 0)
(-3.90765e-05 3.90765e-05 0)
(-3.88589e-05 3.88589e-05 0)
(-3.3179e-05 3.3179e-05 0)
(-1.77791e-05 1.77791e-05 0)
(1.5108e-05 -1.5108e-05 0)
(6.56735e-05 -6.56735e-05 0)
(0.000114572 -0.000114572 0)
(0.000125794 -0.000125794 0)
(7.45565e-05 -7.45565e-05 0)
(1.82505e-06 -1.82504e-06 0)
(-1.95641e-05 1.95641e-05 0)
(-2.23463e-05 2.23464e-05 0)
(-2.29882e-05 2.29882e-05 0)
(-2.36622e-05 2.36622e-05 0)
(-2.48359e-05 2.48359e-05 0)
(-2.67579e-05 2.67579e-05 0)
(-2.96594e-05 2.96594e-05 0)
(-3.37639e-05 3.37639e-05 0)
(-3.92158e-05 3.92158e-05 0)
(-4.58907e-05 4.58907e-05 0)
(-5.30699e-05 5.307e-05 0)
(-5.92571e-05 5.92571e-05 0)
(-6.15264e-05 6.15264e-05 0)
(-5.44792e-05 5.44792e-05 0)
(-2.14775e-05 2.14775e-05 0)
(5.07611e-05 -5.07611e-05 0)
(0.000146101 -0.0001461 0)
(0.00020313 -0.00020313 0)
(0.000146276 -0.000146276 0)
(-7.77334e-06 7.77335e-06 0)
(-1.87503e-05 1.87503e-05 0)
(-2.1774e-05 2.1774e-05 0)
(-2.25236e-05 2.25237e-05 0)
(-2.32348e-05 2.32348e-05 0)
(-2.45031e-05 2.45031e-05 0)
(-2.67357e-05 2.67357e-05 0)
(-3.03619e-05 3.03619e-05 0)
(-3.58708e-05 3.58709e-05 0)
(-4.37893e-05 4.37893e-05 0)
(-5.45979e-05 5.4598e-05 0)
(-6.86236e-05 6.86236e-05 0)
(-8.6374e-05 8.6374e-05 0)
(-0.000109036 0.000109036 0)
(-0.000127949 0.000127949 0)
(-0.000115692 0.000115692 0)
(-1.64061e-05 1.64061e-05 0)
(0.000141001 -0.000141001 0)
(0.000284306 -0.000284306 0)
(0.000309355 -0.000309355 0)
(9.15591e-05 -9.15591e-05 0)
(-1.78244e-05 1.78244e-05 0)
(-2.09413e-05 2.09413e-05 0)
(-2.16137e-05 2.16137e-05 0)
(-2.21263e-05 2.21263e-05 0)
(-2.31909e-05 2.3191e-05 0)
(-2.5351e-05 2.5351e-05 0)
(-2.92067e-05 2.92067e-05 0)
(-3.54919e-05 3.54919e-05 0)
(-4.51412e-05 4.51412e-05 0)
(-5.95068e-05 5.95069e-05 0)
(-8.11477e-05 8.11477e-05 0)
(-0.000115377 0.000115377 0)
(-0.000167306 0.000167306 0)
(-0.000215666 0.000215666 0)
(-0.000192059 0.000192059 0)
(-8.0404e-05 8.0404e-05 0)
(8.53527e-05 -8.53526e-05 0)
(0.000292659 -0.000292659 0)
(0.00046065 -0.00046065 0)
(0.000313691 -0.000313691 0)
(-1.69271e-05 1.69271e-05 0)
(-1.99273e-05 1.99273e-05 0)
(-2.0257e-05 2.0257e-05 0)
(-2.02328e-05 2.02328e-05 0)
(-2.0662e-05 2.0662e-05 0)
(-2.21663e-05 2.21663e-05 0)
(-2.54081e-05 2.54082e-05 0)
(-3.11974e-05 3.11975e-05 0)
(-4.06136e-05 4.06136e-05 0)
(-5.54338e-05 5.54339e-05 0)
(-7.94187e-05 7.94187e-05 0)
(-0.000119684 0.000119684 0)
(-0.000177606 0.000177606 0)
(-0.000218761 0.000218761 0)
(-0.000196939 0.000196939 0)
(-0.000105015 0.000105015 0)
(-2.47973e-06 2.47974e-06 0)
(0.00016562 -0.00016562 0)
(0.000449239 -0.000449239 0)
(0.000557872 -0.000557872 0)
(-1.63064e-05 1.63064e-05 0)
(-1.89027e-05 1.89027e-05 0)
(-1.85346e-05 1.85346e-05 0)
(-1.75506e-05 1.75506e-05 0)
(-1.68429e-05 1.68429e-05 0)
(-1.70167e-05 1.70167e-05 0)
(-1.86411e-05 1.86411e-05 0)
(-2.2342e-05 2.2342e-05 0)
(-2.89e-05 2.89e-05 0)
(-3.95077e-05 3.95077e-05 0)
(-5.62823e-05 5.62823e-05 0)
(-8.17875e-05 8.17875e-05 0)
(-0.000111704 0.000111704 0)
(-0.000122835 0.000122835 0)
(-0.000109117 0.000109117 0)
(-8.91721e-05 8.91721e-05 0)
(-6.76338e-05 6.76339e-05 0)
(-2.86962e-05 2.86962e-05 0)
(0.000245416 -0.000245416 0)
(0.000636356 -0.000636356 0)
(-1.64051e-05 1.64051e-05 0)
(-1.81398e-05 1.81398e-05 0)
(-1.65661e-05 1.65661e-05 0)
(-1.41749e-05 1.41749e-05 0)
(-1.18831e-05 1.18831e-05 0)
(-1.01713e-05 1.01713e-05 0)
(-9.38657e-06 9.38658e-06 0)
(-9.78217e-06 9.78218e-06 0)
(-1.1533e-05 1.1533e-05 0)
(-1.4544e-05 1.4544e-05 0)
(-1.80346e-05 1.80346e-05 0)
(-1.8769e-05 1.8769e-05 0)
(-1.13369e-05 1.13369e-05 0)
(-1.93017e-06 1.93018e-06 0)
(-4.65514e-06 4.65515e-06 0)
(-4.39764e-05 4.39764e-05 0)
(-7.44915e-05 7.44915e-05 0)
(-0.000156197 0.000156197 0)
(-4.95466e-05 4.95467e-05 0)
(0.000511523 -0.000511523 0)
(-1.7742e-05 1.7742e-05 0)
(-1.7948e-05 1.7948e-05 0)
(-1.45393e-05 1.45393e-05 0)
(-1.02565e-05 1.02565e-05 0)
(-6.10397e-06 6.10398e-06 0)
(-2.29136e-06 2.29137e-06 0)
(1.15265e-06 -1.15264e-06 0)
(4.40854e-06 -4.40853e-06 0)
(7.81599e-06 -7.81598e-06 0)
(1.27341e-05 -1.27341e-05 0)
(2.14367e-05 -2.14367e-05 0)
(4.02939e-05 -4.02939e-05 0)
(6.76973e-05 -6.76972e-05 0)
(8.54318e-05 -8.54318e-05 0)
(5.893e-05 -5.893e-05 0)
(-1.49e-05 1.49e-05 0)
(-9.72411e-05 9.72411e-05 0)
(-0.000181658 0.000181658 0)
(-0.000225704 0.000225704 0)
(0.000288483 -0.000288483 0)
(-2.15469e-05 2.15469e-05 0)
(-1.8449e-05 1.8449e-05 0)
(-1.21721e-05 1.21721e-05 0)
(-5.69939e-06 5.6994e-06 0)
(2.23601e-07 -2.23595e-07 0)
(5.80628e-06 -5.80627e-06 0)
(1.15405e-05 -1.15405e-05 0)
(1.79032e-05 -1.79032e-05 0)
(2.57382e-05 -2.57382e-05 0)
(3.50896e-05 -3.50896e-05 0)
(4.93603e-05 -4.93603e-05 0)
(7.2202e-05 -7.2202e-05 0)
(0.000107113 -0.000107113 0)
(0.000125917 -0.000125917 0)
(8.66596e-05 -8.66596e-05 0)
(-1.23856e-05 1.23856e-05 0)
(-0.000133722 0.000133722 0)
(-0.000184997 0.000184997 0)
(-0.000258648 0.000258648 0)
(0.000110065 -0.000110065 0)
(-2.73966e-05 2.73966e-05 0)
(-1.9428e-05 1.9428e-05 0)
(-9.5784e-06 9.5784e-06 0)
(-5.97996e-07 5.98e-07 0)
(6.70921e-06 -6.70921e-06 0)
(1.35224e-05 -1.35224e-05 0)
(2.06426e-05 -2.06426e-05 0)
(2.89859e-05 -2.89859e-05 0)
(3.87102e-05 -3.87102e-05 0)
(5.12299e-05 -5.12299e-05 0)
(6.69228e-05 -6.69228e-05 0)
(8.73349e-05 -8.73349e-05 0)
(0.000111867 -0.000111867 0)
(0.000121372 -0.000121372 0)
(8.24811e-05 -8.24811e-05 0)
(-1.05693e-05 1.05693e-05 0)
(-0.000126367 0.000126367 0)
(-0.000179419 0.000179419 0)
(-0.000255722 0.000255722 0)
(-7.00484e-07 7.00483e-07 0)
(-4.30863e-05 4.30863e-05 0)
(-1.8516e-05 1.8516e-05 0)
(-7.37609e-07 7.37612e-07 0)
(8.26962e-06 -8.26962e-06 0)
(1.41495e-05 -1.41495e-05 0)
(2.06171e-05 -2.06171e-05 0)
(2.8198e-05 -2.8198e-05 0)
(3.71512e-05 -3.71512e-05 0)
(4.83449e-05 -4.83449e-05 0)
(6.15729e-05 -6.15729e-05 0)
(7.63648e-05 -7.63648e-05 0)
(9.18199e-05 -9.18199e-05 0)
(0.000105429 -0.000105429 0)
(0.000105572 -0.000105572 0)
(6.92946e-05 -6.92946e-05 0)
(-8.25461e-06 8.25461e-06 0)
(-0.000106118 0.000106118 0)
(-0.000158253 0.000158253 0)
(-0.000249524 0.000249524 0)
(-8.2294e-05 8.2294e-05 0)
(-5.97329e-05 5.97329e-05 0)
(-3.6771e-06 3.6771e-06 0)
(1.57859e-05 -1.57859e-05 0)
(1.96645e-05 -1.96645e-05 0)
(2.5376e-05 -2.5376e-05 0)
(3.24262e-05 -3.24262e-05 0)
(3.95814e-05 -3.95814e-05 0)
(4.73012e-05 -4.73012e-05 0)
(5.67369e-05 -5.67369e-05 0)
(6.84111e-05 -6.84112e-05 0)
(8.14663e-05 -8.14663e-05 0)
(9.36963e-05 -9.36963e-05 0)
(0.000100728 -0.000100728 0)
(9.51089e-05 -9.51089e-05 0)
(6.22565e-05 -6.22565e-05 0)
(-1.17892e-06 1.17892e-06 0)
(-8.57689e-05 8.57689e-05 0)
(-0.000156143 0.000156143 0)
(-0.00025463 0.00025463 0)
(-0.000177408 0.000177408 0)
(-7.29463e-05 7.29463e-05 0)
(2.12561e-05 -2.12561e-05 0)
(7.8179e-05 -7.8179e-05 0)
(8.74847e-05 -8.74847e-05 0)
(8.52274e-05 -8.52274e-05 0)
(8.21466e-05 -8.21466e-05 0)
(7.9507e-05 -7.9507e-05 0)
(7.83422e-05 -7.83422e-05 0)
(7.93988e-05 -7.93988e-05 0)
(8.29064e-05 -8.29064e-05 0)
(8.84507e-05 -8.84507e-05 0)
(9.45365e-05 -9.45365e-05 0)
(9.73153e-05 -9.73153e-05 0)
(9.09363e-05 -9.09363e-05 0)
(6.81485e-05 -6.81485e-05 0)
(1.83787e-05 -1.83787e-05 0)
(-6.20922e-05 6.20922e-05 0)
(-0.000177834 0.000177834 0)
(-0.000426003 0.000426003 0)
(-0.000393339 0.000393339 0)
(0.000467709 -0.000467709 0)
(0.000320905 -0.000320905 0)
(0.000215418 -0.000215418 0)
(0.000176583 -0.000176583 0)
(0.000153869 -0.000153869 0)
(0.000135373 -0.000135373 0)
(0.000121975 -0.000121975 0)
(0.00011291 -0.00011291 0)
(0.000106537 -0.000106537 0)
(0.000102024 -0.000102024 0)
(9.9021e-05 -9.9021e-05 0)
(9.66076e-05 -9.66076e-05 0)
(9.31571e-05 -9.31571e-05 0)
(8.47304e-05 -8.47304e-05 0)
(6.79895e-05 -6.79895e-05 0)
(3.31142e-05 -3.31142e-05 0)
(-1.11825e-05 1.11825e-05 0)
(-0.000145046 0.000145046 0)
(-0.000220084 0.000220084 0)
(-0.00201161 0.00201161 0)
)
;

boundaryField
{
    movingWall
    {
        type            extrapolatedCalculated;
        value           nonuniform List<vector> 
20
(
(0.000467709 -0.000467709 0)
(0.000320905 -0.000320905 0)
(0.000215418 -0.000215418 0)
(0.000176583 -0.000176583 0)
(0.000153869 -0.000153869 0)
(0.000135373 -0.000135373 0)
(0.000121975 -0.000121975 0)
(0.00011291 -0.00011291 0)
(0.000106537 -0.000106537 0)
(0.000102024 -0.000102024 0)
(9.9021e-05 -9.9021e-05 0)
(9.66076e-05 -9.66076e-05 0)
(9.31571e-05 -9.31571e-05 0)
(8.47304e-05 -8.47304e-05 0)
(6.79895e-05 -6.79895e-05 0)
(3.31142e-05 -3.31142e-05 0)
(-1.11825e-05 1.11825e-05 0)
(-0.000145046 0.000145046 0)
(-0.000220084 0.000220084 0)
(-0.00201161 0.00201161 0)
)
;
    }
    fixedWalls
    {
        type            extrapolatedCalculated;
        value           nonuniform List<vector> 
60
(
(-6.26513e-06 6.26424e-06 0)
(-1.36299e-05 1.36299e-05 0)
(-1.81003e-05 1.81003e-05 0)
(-2.00475e-05 2.00475e-05 0)
(-2.0646e-05 2.0646e-05 0)
(-2.05952e-05 2.05952e-05 0)
(-2.01969e-05 2.0197e-05 0)
(-1.95641e-05 1.95641e-05 0)
(-1.87503e-05 1.87503e-05 0)
(-1.78244e-05 1.78244e-05 0)
(-1.69271e-05 1.69271e-05 0)
(-1.63064e-05 1.63064e-05 0)
(-1.64051e-05 1.64051e-05 0)
(-1.7742e-05 1.7742e-05 0)
(-2.15469e-05 2.15469e-05 0)
(-2.73966e-05 2.73966e-05 0)
(-4.30863e-05 4.30863e-05 0)
(-5.97329e-05 5.97329e-05 0)
(-7.29463e-05 7.29463e-05 0)
(0.000467709 -0.000467709 0)
(1.31387e-05 -1.31387e-05 0)
(2.49747e-05 -2.49747e-05 0)
(3.16157e-05 -3.16157e-05 0)
(3.43325e-05 -3.43325e-05 0)
(3.3342e-05 -3.3342e-05 0)
(2.4348e-05 -2.4348e-05 0)
(1.82505e-06 -1.82504e-06 0)
(-7.77334e-06 7.77335e-06 0)
(9.15591e-05 -9.15591e-05 0)
(0.000313691 -0.000313691 0)
(0.000557872 -0.000557872 0)
(0.000636356 -0.000636356 0)
(0.000511523 -0.000511523 0)
(0.000288483 -0.000288483 0)
(0.000110065 -0.000110065 0)
(-7.00484e-07 7.00483e-07 0)
(-8.2294e-05 8.2294e-05 0)
(-0.000177408 0.000177408 0)
(-0.000393339 0.000393339 0)
(-0.00201161 0.00201161 0)
(-6.26513e-06 6.26424e-06 0)
(-1.37961e-05 1.37961e-05 0)
(-1.80728e-05 1.80728e-05 0)
(-1.9664e-05 1.9664e-05 0)
(-1.98297e-05 1.98297e-05 0)
(-1.92629e-05 1.92629e-05 0)
(-1.82099e-05 1.82099e-05 0)
(-1.6671e-05 1.6671e-05 0)
(-1.44918e-05 1.44918e-05 0)
(-1.14023e-05 1.14023e-05 0)
(-7.13145e-06 7.13143e-06 0)
(-1.88572e-06 1.8857e-06 0)
(4.89821e-06 -4.89823e-06 0)
(1.25866e-05 -1.25866e-05 0)
(2.0473e-05 -2.0473e-05 0)
(2.73594e-05 -2.73594e-05 0)
(3.16401e-05 -3.16401e-05 0)
(3.14509e-05 -3.14509e-05 0)
(2.51362e-05 -2.51362e-05 0)
(1.31387e-05 -1.31387e-05 0)
)
;
    }
    frontAndBack
    {
        type            empty;
    }
}


// ************************************************************************* //
