/*--------------------------------*- C++ -*----------------------------------*\
| =========                 |                                                 |
| \\      /  F ield         | OpenFOAM: The Open Source CFD Toolbox           |
|  \\    /   O peration     | Version:  2312                                  |
|   \\  /    A nd           | Website:  www.openfoam.com                      |
|    \\/     M anipulation  |                                                 |
\*---------------------------------------------------------------------------*/
FoamFile
{
    version     2.0;
    format      ascii;
    arch        "LSB;label=32;scalar=64";
    class       volScalarField;
    location    "1";
    object      initialResidual:p;
}
// * * * * * * * * * * * * * * * * * * * * * * * * * * * * * * * * * * * * * //

dimensions      [0 0 0 0 0 0 0];

internalField   nonuniform List<scalar> 
400
(
1.43824e-12
3.13763e-12
2.24941e-12
2.31253e-12
2.88009e-12
3.63713e-12
4.52673e-12
5.28412e-12
5.22775e-12
4.52195e-12
4.02611e-12
-1.91071e-13
-9.51186e-12
-1.9489e-11
-3.13182e-11
-3.87657e-11
-3.60032e-11
-2.59495e-11
-1.36481e-11
3.91194e-12
-5.24276e-12
-2.34877e-12
-3.82351e-12
-4.82017e-12
-5.2855e-12
-5.38338e-12
-5.24811e-12
-4.94268e-12
-4.39838e-12
-3.34948e-12
-2.38041e-12
-3.16317e-12
-3.84278e-12
-7.03292e-12
-1.16926e-11
-1.60491e-11
-1.76023e-11
-1.47188e-11
-1.29853e-11
3.35154e-12
-9.42378e-12
-3.83069e-12
-5.06342e-12
-7.00783e-12
-8.3252e-12
-9.13875e-12
-9.567e-12
-9.53894e-12
-8.92075e-12
-7.47061e-12
-5.36773e-12
-4.1042e-12
-3.88601e-12
-5.75534e-12
-1.06644e-11
-1.6885e-11
-2.14793e-11
-1.97164e-11
-1.81845e-11
2.03651e-12
-1.30927e-11
-4.9615e-12
-5.09086e-12
-7.39005e-12
-9.43764e-12
-1.08068e-11
-1.17816e-11
-1.2343e-11
-1.22689e-11
-1.15019e-11
-1.02067e-11
-9.78946e-12
-9.93623e-12
-1.28464e-11
-1.86274e-11
-2.61822e-11
-3.15421e-11
-2.49865e-11
-1.85327e-11
1.3452e-12
-1.47258e-11
-5.29803e-12
-4.12772e-12
-6.13466e-12
-8.44669e-12
-1.02715e-11
-1.19451e-11
-1.3489e-11
-1.49641e-11
-1.61849e-11
-1.78588e-11
-1.86658e-11
-1.65778e-11
-1.72639e-11
-2.51465e-11
-4.67247e-11
-6.24033e-11
-3.5557e-11
1.07833e-11
-4.10938e-12
-1.48234e-11
-5.51899e-12
-3.57935e-12
-5.28884e-12
-7.85931e-12
-1.01531e-11
-1.27718e-11
-1.59803e-11
-1.98406e-11
-2.40527e-11
-2.89597e-11
-3.05293e-11
-2.89081e-11
-3.00424e-11
-7.13574e-11
-1.73343e-10
-1.95524e-10
-1.48421e-10
-1.82355e-11
-2.19468e-11
-1.33312e-11
-5.35742e-12
-3.09509e-12
-4.6408e-12
-7.49731e-12
-1.05157e-11
-1.44372e-11
-1.98822e-11
-2.69251e-11
-3.52437e-11
-4.30405e-11
-5.22285e-11
-7.21719e-11
-1.6191e-10
-4.0457e-10
-8.2377e-10
-7.97164e-10
-3.55328e-10
-2.48503e-10
1.46036e-10
-1.04786e-11
-4.81962e-12
-2.52985e-12
-3.86565e-12
-6.94424e-12
-1.06431e-11
-1.59944e-11
-2.39585e-11
-3.5094e-11
-4.79755e-11
-6.59175e-11
-1.14843e-10
-2.49002e-10
-6.31382e-10
-1.83192e-09
-2.90863e-09
-2.59225e-09
-9.32919e-10
5.62029e-10
6.47394e-10
-6.21162e-12
-3.97001e-12
-1.8563e-12
-2.85374e-12
-5.90519e-12
-1.00812e-11
-1.64933e-11
-2.69608e-11
-4.17204e-11
-5.76111e-11
-9.86824e-11
-3.10106e-10
-9.33227e-10
-2.41151e-09
-3.82888e-09
-2.48276e-09
-1.66656e-09
-2.21427e-09
-8.0594e-10
-4.52202e-10
-6.53677e-13
-3.02086e-12
-1.12592e-12
-1.63177e-12
-4.33291e-12
-8.42054e-12
-1.53797e-11
-2.7353e-11
-4.39894e-11
-5.90123e-11
-1.81244e-10
-8.41527e-10
-1.68363e-09
-9.61479e-10
2.05214e-09
3.85829e-09
4.34938e-09
1.43806e-09
-5.57331e-09
-2.76486e-09
5.75789e-12
-1.69643e-12
-5.10522e-13
-3.58495e-13
-2.33137e-12
-5.85845e-12
-1.19518e-11
-2.24314e-11
-3.55304e-11
-4.48838e-11
-2.10953e-10
-7.71722e-10
-6.68716e-10
2.28187e-09
7.47621e-09
1.23306e-08
1.16168e-08
8.44721e-09
-2.96505e-10
-4.19199e-09
1.25587e-11
-2.77247e-13
-6.50972e-14
6.73877e-13
-6.0994e-13
-3.61794e-12
-9.36257e-12
-1.8366e-11
-2.96266e-11
-5.09502e-11
-1.85096e-10
-2.70742e-10
3.82846e-10
4.24758e-09
7.37491e-09
4.14247e-09
1.15728e-09
3.72078e-09
9.26728e-09
-1.36664e-09
1.99738e-11
9.50887e-13
4.26847e-15
1.13427e-12
5.20216e-14
-2.94753e-12
-8.94521e-12
-1.90361e-11
-3.29214e-11
-4.86455e-11
-8.0155e-11
-1.11915e-10
5.32986e-10
1.5868e-09
2.10563e-09
4.90323e-09
-6.44785e-09
-6.83048e-09
3.84569e-09
2.20092e-09
2.68326e-11
1.2278e-12
-1.06738e-12
1.68766e-12
-2.44811e-12
-3.99949e-12
-1.16445e-11
-2.49994e-11
-3.39609e-11
-3.82752e-11
1.27745e-10
-8.61208e-10
9.25514e-10
6.71935e-10
-3.08933e-10
-1.25425e-08
-6.0858e-09
-6.94185e-09
-3.10559e-09
3.49463e-09
3.32087e-11
-1.8305e-12
-4.02986e-12
-3.79702e-12
5.71768e-14
-1.63814e-12
-1.2044e-11
-2.61182e-11
1.86399e-09
-1.95787e-09
-2.80402e-11
-8.48178e-11
-1.13898e-10
-1.11001e-10
-1.04471e-09
-2.11616e-09
-2.65083e-09
-1.90123e-09
-4.77397e-09
2.12979e-09
2.67145e-11
-8.16245e-12
-1.52232e-12
9.93988e-13
-2.09889e-12
-9.10841e-13
-1.53666e-12
-3.2359e-11
-1.68614e-11
-1.81055e-11
-2.09976e-11
-3.06821e-11
-8.64523e-11
9.87087e-11
2.1614e-10
-5.12277e-10
-1.08364e-09
-7.72839e-10
-1.55615e-09
6.36052e-10
6.12124e-11
3.73193e-11
2.07939e-11
4.01509e-12
-1.49415e-11
-1.82784e-11
-1.58916e-11
-1.27226e-11
-2.85652e-11
-1.74374e-11
-7.05778e-12
2.92774e-11
1.1231e-10
2.95268e-10
3.4497e-10
3.91537e-11
-4.0055e-10
-1.93943e-10
-2.10783e-10
9.08334e-11
1.80275e-11
-6.30516e-11
-3.24479e-11
-1.0111e-11
2.4422e-11
-4.80531e-11
-4.38091e-11
-6.38e-11
-6.15425e-11
-5.41468e-11
-2.24598e-11
4.68931e-11
1.68541e-10
2.57679e-10
1.73832e-10
-1.85196e-11
-1.66599e-10
2.32984e-11
7.40723e-11
1.15271e-10
-5.76313e-11
-1.21448e-10
-6.19476e-11
-7.45258e-11
-9.34916e-11
-8.70441e-11
-8.60639e-11
-8.9301e-11
-8.98234e-11
-7.36381e-11
-1.8705e-11
7.26162e-11
1.72277e-10
2.402e-10
2.2382e-10
7.76418e-11
-2.29221e-10
2.65995e-11
-4.13566e-11
2.5371e-10
1.14055e-10
7.04762e-11
2.05691e-11
2.7295e-13
5.02836e-12
3.57847e-12
-2.08101e-12
-1.12553e-11
-1.75552e-11
-1.74724e-11
1.0753e-13
4.5905e-11
1.26791e-10
1.97466e-10
1.84114e-10
1.78454e-12
-2.01578e-10
-4.45575e-10
-3.91575e-10
1.74688e-09
)
;

boundaryField
{
    movingWall
    {
        type            zeroGradient;
    }
    fixedWalls
    {
        type            zeroGradient;
    }
    frontAndBack
    {
        type            empty;
    }
}


// ************************************************************************* //
