/*--------------------------------*- C++ -*----------------------------------*\
| =========                 |                                                 |
| \\      /  F ield         | OpenFOAM: The Open Source CFD Toolbox           |
|  \\    /   O peration     | Version:  2312                                  |
|   \\  /    A nd           | Website:  www.openfoam.com                      |
|    \\/     M anipulation  |                                                 |
\*---------------------------------------------------------------------------*/
FoamFile
{
    version     2.0;
    format      ascii;
    arch        "LSB;label=32;scalar=64";
    class       volScalarField;
    location    "1";
    object      initialResidual:k;
}
// * * * * * * * * * * * * * * * * * * * * * * * * * * * * * * * * * * * * * //

dimensions      [0 0 0 0 0 0 0];

internalField   nonuniform List<scalar> 
400
(
-4.72125e-11
-5.89139e-11
-6.48986e-11
-6.55087e-11
-6.27471e-11
-5.81137e-11
-5.25239e-11
-4.65566e-11
-4.06829e-11
-3.52861e-11
-3.14608e-11
-3.05966e-11
-3.09315e-11
-3.43011e-11
-4.04317e-11
-4.8134e-11
-5.55876e-11
-6.00438e-11
-5.81152e-11
-4.57324e-11
-5.98479e-11
-1.14335e-10
-1.4077e-10
-1.54428e-10
-1.60721e-10
-1.62757e-10
-1.62322e-10
-1.60406e-10
-1.57517e-10
-1.54017e-10
-1.50393e-10
-1.47387e-10
-1.45492e-10
-1.43116e-10
-1.4183e-10
-1.4095e-10
-1.39389e-10
-1.33057e-10
-1.13726e-10
-5.62148e-11
-6.56171e-11
-1.37765e-10
-1.71294e-10
-1.8912e-10
-1.97942e-10
-2.01413e-10
-2.0173e-10
-2.00218e-10
-1.97628e-10
-1.94508e-10
-1.91312e-10
-1.87751e-10
-1.84326e-10
-1.80025e-10
-1.76541e-10
-1.74265e-10
-1.72201e-10
-1.64865e-10
-1.40956e-10
-6.00683e-11
-6.59617e-11
-1.48107e-10
-1.85483e-10
-2.0567e-10
-2.15796e-10
-2.1974e-10
-2.1996e-10
-2.17957e-10
-2.14634e-10
-2.10529e-10
-2.0473e-10
-2.00048e-10
-1.92391e-10
-1.84957e-10
-1.79278e-10
-1.77576e-10
-1.79155e-10
-1.76354e-10
-1.51965e-10
-5.89721e-11
-6.29226e-11
-1.50838e-10
-1.90204e-10
-2.11624e-10
-2.22297e-10
-2.2611e-10
-2.25486e-10
-2.21899e-10
-2.16122e-10
-2.08558e-10
-1.96578e-10
-1.86453e-10
-1.70882e-10
-1.56052e-10
-1.46236e-10
-1.46838e-10
-1.56803e-10
-1.65336e-10
-1.47007e-10
-5.52861e-11
-5.82711e-11
-1.49539e-10
-1.89602e-10
-2.11296e-10
-2.21691e-10
-2.2453e-10
-2.22028e-10
-2.15335e-10
-2.04662e-10
-1.89348e-10
-1.68419e-10
-1.41591e-10
-1.14912e-10
-8.50714e-11
-6.90018e-11
-7.30781e-11
-8.9684e-11
-1.13418e-10
-1.18229e-10
-5.39489e-11
-5.32984e-11
-1.46674e-10
-1.86675e-10
-2.07898e-10
-2.17303e-10
-2.18337e-10
-2.12765e-10
-2.00987e-10
-1.82114e-10
-1.5428e-10
-1.15316e-10
-6.40838e-11
-1.84438e-11
2.8746e-11
5.07799e-11
3.99633e-11
7.1259e-11
7.1343e-11
-7.85083e-12
-5.52513e-11
-4.89763e-11
-1.44051e-10
-1.83608e-10
-2.03928e-10
-2.11808e-10
-2.10284e-10
-2.00388e-10
-1.81285e-10
-1.50357e-10
-1.04134e-10
-4.05025e-11
3.87556e-11
1.18439e-10
1.52496e-10
1.57195e-10
1.91399e-10
5.02448e-10
6.58593e-10
4.20918e-10
4.55082e-12
-4.59429e-11
-1.42834e-10
-1.8195e-10
-2.01219e-10
-2.0728e-10
-2.02653e-10
-1.87386e-10
-1.59042e-10
-1.13021e-10
-4.45062e-11
4.82122e-11
1.63841e-10
2.20578e-10
1.78132e-10
2.14011e-10
6.00523e-10
9.62035e-10
1.33629e-09
1.32484e-09
3.90079e-10
-4.45777e-11
-1.43664e-10
-1.82615e-10
-2.00928e-10
-2.05133e-10
-1.97201e-10
-1.76124e-10
-1.37946e-10
-7.67203e-11
1.20716e-11
1.27033e-10
2.65177e-10
1.61449e-10
-3.66754e-11
-1.32081e-10
6.91854e-11
-2.48085e-10
5.05665e-10
1.38569e-09
1.49506e-09
-4.5106e-11
-1.46757e-10
-1.85921e-10
-2.03486e-10
-2.06045e-10
-1.95016e-10
-1.68613e-10
-1.2219e-10
-5.03899e-11
4.70544e-11
1.67156e-10
1.51574e-10
-7.77612e-11
-4.55311e-10
-4.64101e-10
-6.69211e-10
-9.65732e-10
-1.65568e-10
1.44274e-10
2.12731e-09
-4.75822e-11
-1.52003e-10
-1.91613e-10
-2.08657e-10
-2.10066e-10
-1.9631e-10
-1.65718e-10
-1.13987e-10
-3.81807e-11
5.76402e-11
1.5628e-10
1.90504e-11
-2.12059e-10
-6.77473e-10
-8.79318e-10
-9.79038e-10
-1.16412e-09
-8.00601e-10
-3.14091e-10
1.1363e-09
-5.2152e-11
-1.58969e-10
-1.98902e-10
-2.15253e-10
-2.13624e-10
-1.97816e-10
-1.65324e-10
-1.12663e-10
-3.86514e-11
4.58715e-11
1.00961e-10
-1.86087e-11
-2.8635e-10
-5.72519e-10
-6.59412e-10
-6.39787e-10
-3.53639e-10
-2.74222e-10
-5.72186e-10
2.54297e-10
-5.82787e-11
-1.66885e-10
-2.06271e-10
-2.19877e-10
-2.17131e-10
-1.99389e-10
-1.64711e-10
-1.11513e-10
-4.25326e-11
3.22231e-11
7.51851e-11
-9.73791e-12
-2.32298e-10
-4.12313e-10
-2.93469e-10
-2.21488e-10
-7.68645e-11
7.54911e-11
-2.50667e-10
6.22143e-11
-6.66526e-11
-1.74451e-10
-2.11711e-10
-2.22668e-10
-2.17882e-10
-1.97579e-10
-1.62597e-10
-1.11801e-10
-4.84093e-11
1.34122e-11
4.40861e-11
-2.3337e-12
-1.44942e-10
-1.57383e-10
-1.83854e-10
7.79504e-11
3.00752e-10
2.90726e-10
-1.56328e-10
-9.5897e-11
-7.36965e-11
-1.79175e-10
-2.12395e-10
-2.20865e-10
-2.12658e-10
-1.922e-10
-1.5933e-10
-1.13309e-10
-5.71252e-11
-5.26498e-12
1.76478e-11
-9.39006e-12
-1.26614e-10
-1.48223e-10
-1.19645e-10
1.42814e-10
1.78474e-10
1.34493e-10
6.18963e-11
-7.36337e-11
-8.03372e-11
-1.82911e-10
-2.1089e-10
-2.1578e-10
-2.07926e-10
-1.90622e-10
-1.6421e-10
-1.2824e-10
-8.48899e-11
-4.4311e-11
-2.72641e-11
-5.37793e-11
-1.33883e-10
-1.75455e-10
-1.79186e-10
-7.06869e-11
-3.25507e-11
-6.80171e-11
-2.4381e-10
-8.80929e-11
-8.68267e-11
-1.81602e-10
-2.06877e-10
-2.14236e-10
-2.11342e-10
-2.01315e-10
-1.85539e-10
-1.63273e-10
-1.34345e-10
-1.0338e-10
-8.49238e-11
-1.01821e-10
-1.57096e-10
-2.42058e-10
-2.41549e-10
-2.066e-10
-1.22482e-10
-1.3901e-10
-1.73965e-10
-3.14398e-11
-8.05742e-11
-1.80075e-10
-2.10346e-10
-2.29401e-10
-2.38483e-10
-2.4525e-10
-2.53089e-10
-2.61671e-10
-2.71415e-10
-2.78437e-10
-2.81217e-10
-2.8692e-10
-2.81098e-10
-3.16347e-10
-3.00491e-10
-2.64826e-10
-2.01296e-10
-8.636e-11
-1.1841e-10
-1.68512e-11
-3.65695e-11
-3.17527e-11
-5.02518e-11
-6.17291e-11
-7.17932e-11
-7.98699e-11
-9.18913e-11
-9.74829e-11
-1.18192e-10
-1.25618e-10
-1.38534e-10
-1.40331e-10
-1.41317e-10
-1.03569e-10
-4.52364e-11
-2.55406e-11
2.52686e-11
2.60269e-11
5.40172e-11
2.23137e-11
)
;

boundaryField
{
    movingWall
    {
        type            zeroGradient;
    }
    fixedWalls
    {
        type            zeroGradient;
    }
    frontAndBack
    {
        type            empty;
    }
}


// ************************************************************************* //
