/*--------------------------------*- C++ -*----------------------------------*\
| =========                 |                                                 |
| \\      /  F ield         | OpenFOAM: The Open Source CFD Toolbox           |
|  \\    /   O peration     | Version:  2312                                  |
|   \\  /    A nd           | Website:  www.openfoam.com                      |
|    \\/     M anipulation  |                                                 |
\*---------------------------------------------------------------------------*/
FoamFile
{
    version     2.0;
    format      ascii;
    arch        "LSB;label=32;scalar=64";
    class       volScalarField;
    location    "1";
    object      initialResidual:epsilon;
}
// * * * * * * * * * * * * * * * * * * * * * * * * * * * * * * * * * * * * * //

dimensions      [0 0 0 0 0 0 0];

internalField   nonuniform List<scalar> 
400
(
0
0
0
0
0
0
0
0
0
0
0
0
0
0
0
0
0
0
0
0
0
-2.13093e-10
-2.36632e-10
-2.49448e-10
-2.53172e-10
-2.51616e-10
-2.47659e-10
-2.42927e-10
-2.38567e-10
-2.35781e-10
-2.36924e-10
-2.3876e-10
-2.40962e-10
-2.42357e-10
-2.43367e-10
-2.4348e-10
-2.39996e-10
-2.28282e-10
-2.0459e-10
0
0
-2.42063e-10
-2.56146e-10
-2.6599e-10
-2.69431e-10
-2.69234e-10
-2.67697e-10
-2.66263e-10
-2.65749e-10
-2.65167e-10
-2.6477e-10
-2.63187e-10
-2.60678e-10
-2.55467e-10
-2.4913e-10
-2.42393e-10
-2.36477e-10
-2.29104e-10
-2.18874e-10
0
0
-2.58064e-10
-2.69663e-10
-2.78572e-10
-2.83147e-10
-2.84544e-10
-2.83928e-10
-2.81932e-10
-2.78812e-10
-2.7532e-10
-2.70368e-10
-2.62819e-10
-2.49931e-10
-2.34706e-10
-2.15698e-10
-2.0048e-10
-1.96528e-10
-2.05422e-10
-2.17908e-10
0
0
-2.63834e-10
-2.75386e-10
-2.83911e-10
-2.87629e-10
-2.8804e-10
-2.86128e-10
-2.82409e-10
-2.7666e-10
-2.68077e-10
-2.54736e-10
-2.33904e-10
-2.02624e-10
-1.52039e-10
-1.02939e-10
-5.58174e-11
-4.71785e-11
-1.00565e-10
-1.82529e-10
0
0
-2.63241e-10
-2.76087e-10
-2.84603e-10
-2.87714e-10
-2.86846e-10
-2.82814e-10
-2.7557e-10
-2.63933e-10
-2.45187e-10
-2.14275e-10
-1.63095e-10
-7.93679e-11
5.1192e-11
2.40851e-10
3.95827e-10
4.71399e-10
3.14209e-10
-2.55045e-11
0
0
-2.60635e-10
-2.74154e-10
-2.83045e-10
-2.85436e-10
-2.82876e-10
-2.7573e-10
-2.62863e-10
-2.40938e-10
-2.03052e-10
-1.36131e-10
-1.6515e-11
1.94429e-10
5.54409e-10
1.12146e-09
1.80654e-09
2.07598e-09
1.79766e-09
6.4076e-10
0
0
-2.57244e-10
-2.72156e-10
-2.81211e-10
-2.82698e-10
-2.77976e-10
-2.66553e-10
-2.45306e-10
-2.06688e-10
-1.3506e-10
7.1586e-13
2.61572e-10
7.60441e-10
1.67415e-09
3.18251e-09
5.02236e-09
5.54627e-09
5.58985e-09
3.05848e-09
0
0
-2.55126e-10
-2.71282e-10
-2.80434e-10
-2.8092e-10
-2.73651e-10
-2.56794e-10
-2.24063e-10
-1.60855e-10
-3.59852e-11
2.16636e-10
7.36266e-10
1.77832e-09
3.66124e-09
6.16178e-09
7.4364e-09
8.02021e-09
1.09773e-08
9.13907e-09
0
0
-2.55256e-10
-2.72252e-10
-2.81496e-10
-2.8102e-10
-2.71049e-10
-2.48028e-10
-2.01582e-10
-1.07788e-10
8.56163e-11
4.93743e-10
1.35742e-09
2.92486e-09
4.46813e-09
3.58018e-09
8.16719e-10
-1.75461e-09
4.57937e-09
1.42992e-08
0
0
-2.5808e-10
-2.75338e-10
-2.84659e-10
-2.83368e-10
-2.70948e-10
-2.42087e-10
-1.82774e-10
-6.19326e-11
1.85712e-10
6.8725e-10
1.59656e-09
2.46081e-09
1.05215e-09
-1.92332e-09
-4.39583e-09
-6.06094e-09
-6.29053e-09
7.93966e-09
0
0
-2.63721e-10
-2.80438e-10
-2.89671e-10
-2.87837e-10
-2.74025e-10
-2.40773e-10
-1.73439e-10
-4.1999e-11
2.08655e-10
6.44004e-10
1.13903e-09
9.41575e-10
4.03882e-11
-4.15599e-09
-7.30014e-09
-9.57684e-09
-8.05475e-09
-2.27412e-09
0
0
-2.72198e-10
-2.87137e-10
-2.95789e-10
-2.9286e-10
-2.77743e-10
-2.43056e-10
-1.75654e-10
-5.36138e-11
1.5164e-10
4.48025e-10
7.57111e-10
4.68481e-10
-1.85211e-09
-3.44156e-09
-4.35194e-09
-3.94962e-09
-6.87835e-09
-9.68674e-09
0
0
-2.8305e-10
-2.94707e-10
-3.01572e-10
-2.98479e-10
-2.81959e-10
-2.48327e-10
-1.85372e-10
-7.92623e-11
8.95804e-11
3.15269e-10
3.91826e-10
-8.49123e-12
-1.2367e-09
-1.94581e-09
-2.11613e-09
-9.33261e-10
-2.04142e-09
-6.15582e-09
0
0
-2.96282e-10
-3.02337e-10
-3.08784e-10
-3.05324e-10
-2.89513e-10
-2.57704e-10
-2.03178e-10
-1.14456e-10
-4.02526e-12
1.11865e-10
1.64076e-10
-8.43549e-11
-8.00827e-10
-1.01142e-09
-9.40726e-10
-3.26899e-10
-3.69888e-11
-3.20446e-09
0
0
-3.10657e-10
-3.1376e-10
-3.20538e-10
-3.18807e-10
-3.06473e-10
-2.80583e-10
-2.36078e-10
-1.67811e-10
-7.24017e-11
-4.86333e-12
-3.02974e-11
-2.1098e-10
-6.12038e-10
-7.2257e-10
-5.31527e-10
-1.92475e-10
1.37911e-11
-9.94277e-10
0
0
-3.38778e-10
-3.44009e-10
-3.57861e-10
-3.64041e-10
-3.61086e-10
-3.47192e-10
-3.18865e-10
-2.74152e-10
-2.14919e-10
-1.57245e-10
-1.69619e-10
-3.08947e-10
-5.95705e-10
-7.26766e-10
-5.20712e-10
-3.47314e-10
-3.32287e-10
-1.08173e-09
0
0
-4.03298e-10
-4.53728e-10
-5.07944e-10
-5.47156e-10
-5.7713e-10
-5.98936e-10
-6.10491e-10
-6.10141e-10
-5.97518e-10
-5.8479e-10
-6.00267e-10
-6.72199e-10
-8.35707e-10
-7.94619e-10
-6.2083e-10
-3.02491e-10
-2.61995e-10
-1.34317e-09
0
0
-6.77389e-10
-9.71412e-10
-1.21829e-09
-1.3857e-09
-1.53699e-09
-1.69576e-09
-1.85225e-09
-2.03798e-09
-2.19663e-09
-2.31529e-09
-2.37454e-09
-2.27352e-09
-2.17282e-09
-1.8341e-09
-1.33481e-09
-6.11341e-10
1.93782e-10
-1.20441e-09
0
0
0
0
0
0
0
0
0
0
0
0
0
0
0
0
0
0
0
0
0
)
;

boundaryField
{
    movingWall
    {
        type            zeroGradient;
    }
    fixedWalls
    {
        type            zeroGradient;
    }
    frontAndBack
    {
        type            empty;
    }
}


// ************************************************************************* //
