/*--------------------------------*- C++ -*----------------------------------*\
| =========                 |                                                 |
| \\      /  F ield         | OpenFOAM: The Open Source CFD Toolbox           |
|  \\    /   O peration     | Version:  2312                                  |
|   \\  /    A nd           | Website:  www.openfoam.com                      |
|    \\/     M anipulation  |                                                 |
\*---------------------------------------------------------------------------*/
FoamFile
{
    version     2.0;
    format      ascii;
    arch        "LSB;label=32;scalar=64";
    class       volScalarField;
    location    "1";
    object      initialResidual:Uy;
}
// * * * * * * * * * * * * * * * * * * * * * * * * * * * * * * * * * * * * * //

dimensions      [0 0 0 0 0 0 0];

internalField   nonuniform List<scalar> 
400
(
6.33618e-11
1.91901e-10
2.85834e-10
3.36031e-10
3.65067e-10
3.86208e-10
4.01282e-10
4.06102e-10
3.90767e-10
3.37151e-10
2.34955e-10
1.04524e-10
-1.25005e-10
-3.76426e-10
-6.22759e-10
-7.94422e-10
-8.17834e-10
-6.39134e-10
-2.87359e-10
3.43023e-11
3.96915e-10
8.02072e-10
1.04601e-09
1.18098e-09
1.26144e-09
1.31332e-09
1.33715e-09
1.31766e-09
1.22717e-09
1.02803e-09
6.87931e-10
2.00399e-10
-4.41513e-10
-1.1831e-09
-1.88799e-09
-2.37063e-09
-2.43877e-09
-2.01839e-09
-1.20428e-09
-2.37967e-10
9.68136e-10
1.54118e-09
1.87212e-09
2.07938e-09
2.2193e-09
2.31565e-09
2.36092e-09
2.32727e-09
2.16904e-09
1.83042e-09
1.25953e-09
4.23064e-10
-6.7727e-10
-1.95891e-09
-3.21452e-09
-4.11447e-09
-4.31189e-09
-3.68777e-09
-2.43782e-09
-7.69308e-10
1.63673e-09
2.32106e-09
2.70186e-09
2.96911e-09
3.17434e-09
3.33244e-09
3.42794e-09
3.42018e-09
3.24446e-09
2.8196e-09
2.06058e-09
8.8876e-10
-7.21504e-10
-2.693e-09
-4.7493e-09
-6.32871e-09
-6.76299e-09
-5.80161e-09
-3.76579e-09
-1.055e-09
2.34344e-09
3.11563e-09
3.53111e-09
3.85595e-09
4.13959e-09
4.38796e-09
4.57906e-09
4.66005e-09
4.54831e-09
4.12709e-09
3.25599e-09
1.77559e-09
-4.32451e-10
-3.35928e-09
-6.68053e-09
-9.43498e-09
-1.0273e-08
-8.6021e-09
-5.02404e-09
-5.92395e-10
3.02963e-09
3.87926e-09
4.32577e-09
4.71316e-09
5.09456e-09
5.47303e-09
5.82273e-09
6.08523e-09
6.15823e-09
5.88326e-09
5.03708e-09
3.33032e-09
4.39478e-10
-3.80846e-09
-9.19325e-09
-1.4103e-08
-1.58165e-08
-1.23204e-08
-5.05002e-09
1.97504e-09
3.65187e-09
4.57467e-09
5.05597e-09
5.51513e-09
6.01679e-09
6.56822e-09
7.15013e-09
7.70731e-09
8.12966e-09
8.21579e-09
7.62625e-09
5.89993e-09
2.45643e-09
-3.35915e-09
-1.18306e-08
-2.08622e-08
-2.48382e-08
-1.87588e-08
-2.93946e-09
8.72586e-09
4.17108e-09
5.16339e-09
5.68446e-09
6.22406e-09
6.8654e-09
7.63045e-09
8.51828e-09
9.49383e-09
1.04596e-08
1.11906e-08
1.12639e-08
1.01067e-08
6.99439e-09
4.77083e-10
-1.05332e-08
-2.43862e-08
-3.4247e-08
-3.24296e-08
-1.12403e-08
1.26611e-08
4.54888e-09
5.60385e-09
6.16581e-09
6.78796e-09
7.57747e-09
8.57909e-09
9.82304e-09
1.13144e-08
1.29958e-08
1.46808e-08
1.60168e-08
1.67567e-08
1.67883e-08
1.52651e-08
4.6713e-09
-2.08422e-08
-4.77823e-08
-5.63847e-08
-3.89581e-08
3.58993e-09
4.74845e-09
5.85387e-09
6.45097e-09
7.14559e-09
8.07049e-09
9.29634e-09
1.08903e-08
1.29049e-08
1.5351e-08
1.81926e-08
2.15746e-08
2.66068e-08
3.42984e-08
3.71298e-08
1.52305e-08
-2.59589e-08
-5.87962e-08
-8.0028e-08
-7.77054e-08
-3.29643e-08
4.73824e-09
5.87233e-09
6.49325e-09
7.23554e-09
8.25477e-09
9.64213e-09
1.14892e-08
1.38759e-08
1.686e-08
2.06025e-08
2.59299e-08
3.50584e-08
4.64894e-08
4.17362e-08
8.48498e-09
-2.42197e-08
-3.92272e-08
-6.10643e-08
-1.05447e-07
-1.01515e-07
4.49938e-09
5.63243e-09
6.25821e-09
7.01119e-09
8.0589e-09
9.49881e-09
1.1418e-08
1.38788e-08
1.69165e-08
2.07362e-08
2.61694e-08
3.48403e-08
4.1312e-08
2.81377e-08
-4.51856e-09
-2.01142e-08
-6.17735e-09
3.263e-09
-5.55345e-08
-1.13915e-07
4.01199e-09
5.12391e-09
5.73518e-09
6.45898e-09
7.45884e-09
8.82493e-09
1.06185e-08
1.28408e-08
1.54282e-08
1.83476e-08
2.18584e-08
2.64146e-08
2.41619e-08
7.07484e-09
-2.5637e-08
-4.37902e-08
-1.85452e-08
2.84856e-08
2.42168e-08
-8.0458e-08
3.30571e-09
4.3708e-09
4.95015e-09
5.60749e-09
6.49643e-09
7.683e-09
9.20285e-09
1.09866e-08
1.28541e-08
1.43064e-08
1.54573e-08
1.51748e-08
9.12523e-09
-1.24577e-08
-3.61801e-08
-5.0158e-08
-2.88229e-08
3.21192e-09
4.66224e-08
-3.4488e-08
2.35425e-09
3.40801e-09
3.95334e-09
4.54403e-09
5.23679e-09
6.20196e-09
7.38063e-09
8.66757e-09
9.83472e-09
1.03734e-08
9.71449e-09
6.79209e-09
-1.70243e-09
-1.92965e-08
-3.81138e-08
-3.78099e-08
-1.66473e-08
3.22827e-09
1.96802e-08
-9.98166e-10
1.44732e-09
2.4089e-09
2.83506e-09
3.27753e-09
3.93501e-09
4.56282e-09
5.40211e-09
6.33537e-09
6.9751e-09
7.14707e-09
5.76904e-09
2.12504e-09
-5.03872e-09
-1.69476e-08
-2.69157e-08
-2.47896e-08
-1.05782e-08
5.11844e-09
1.35543e-08
3.14528e-09
3.36104e-10
1.08612e-09
1.60163e-09
2.05556e-09
2.42071e-09
2.9156e-09
3.531e-09
4.15092e-09
4.60715e-09
4.61025e-09
3.4815e-09
7.86153e-10
-4.02248e-09
-1.04688e-08
-1.5899e-08
-1.47942e-08
-6.74541e-09
3.32657e-09
7.92583e-09
5.05233e-09
-4.99378e-10
7.08578e-10
1.24875e-09
1.35271e-09
1.3677e-09
1.5527e-09
1.76101e-09
2.04287e-09
2.36768e-09
2.51764e-09
2.09253e-09
6.49992e-10
-2.01339e-09
-5.35677e-09
-7.94125e-09
-7.35365e-09
-3.34412e-09
1.81629e-09
4.43203e-09
3.5334e-09
-9.40198e-10
-7.50837e-10
-1.88638e-10
8.72944e-11
2.05437e-10
3.28536e-10
3.96081e-10
4.69902e-10
5.60862e-10
6.38439e-10
6.00287e-10
2.98955e-10
-4.8432e-10
-1.67794e-09
-2.67338e-09
-2.58164e-09
-1.0443e-09
5.46323e-10
1.90444e-09
2.10309e-09
1.51757e-10
1.47547e-10
8.4251e-11
-1.13335e-11
-4.76029e-11
-4.56142e-11
-2.33077e-11
-2.27285e-11
-2.90539e-11
-3.44308e-11
-6.16153e-11
-1.33054e-10
-2.19307e-10
-2.85743e-10
-3.81763e-10
-3.63794e-10
-1.34035e-10
-1.22327e-10
3.17349e-10
5.87131e-11
)
;

boundaryField
{
    movingWall
    {
        type            zeroGradient;
    }
    fixedWalls
    {
        type            zeroGradient;
    }
    frontAndBack
    {
        type            empty;
    }
}


// ************************************************************************* //
