/*--------------------------------*- C++ -*----------------------------------*\
| =========                 |                                                 |
| \\      /  F ield         | OpenFOAM: The Open Source CFD Toolbox           |
|  \\    /   O peration     | Version:  2312                                  |
|   \\  /    A nd           | Website:  www.openfoam.com                      |
|    \\/     M anipulation  |                                                 |
\*---------------------------------------------------------------------------*/
FoamFile
{
    version     2.0;
    format      ascii;
    arch        "LSB;label=32;scalar=64";
    class       volScalarField;
    location    "1";
    object      initialResidual:Ux;
}
// * * * * * * * * * * * * * * * * * * * * * * * * * * * * * * * * * * * * * //

dimensions      [0 0 0 0 0 0 0];

internalField   nonuniform List<scalar> 
400
(
-5.74705e-11
-3.96011e-10
-9.85069e-10
-1.68587e-09
-2.45114e-09
-3.25711e-09
-4.09085e-09
-4.93218e-09
-5.74579e-09
-6.48091e-09
-7.06913e-09
-7.33508e-09
-7.3119e-09
-6.78237e-09
-5.79217e-09
-4.41005e-09
-2.8578e-09
-1.4248e-09
-3.36381e-10
6.99141e-11
-1.84311e-10
-7.56437e-10
-1.51803e-09
-2.38072e-09
-3.30912e-09
-4.28328e-09
-5.28533e-09
-6.28782e-09
-7.2471e-09
-8.1015e-09
-8.76486e-09
-9.12022e-09
-9.07285e-09
-8.51534e-09
-7.4183e-09
-5.85631e-09
-4.05774e-09
-2.35452e-09
-9.35791e-10
-9.76475e-11
-3.04516e-10
-9.97663e-10
-1.78815e-09
-2.66296e-09
-3.60567e-09
-4.60626e-09
-5.65345e-09
-6.72439e-09
-7.77945e-09
-8.75905e-09
-9.57681e-09
-1.01127e-08
-1.0232e-08
-9.78099e-09
-8.6528e-09
-6.87715e-09
-4.72528e-09
-2.66242e-09
-9.77446e-10
-4.9477e-11
-3.58949e-10
-1.10588e-09
-1.89888e-09
-2.76116e-09
-3.69573e-09
-4.70444e-09
-5.79018e-09
-6.94432e-09
-8.14294e-09
-9.33829e-09
-1.04442e-08
-1.13212e-08
-1.1772e-08
-1.15251e-08
-1.03124e-08
-8.04858e-09
-5.1254e-09
-2.34538e-09
-3.2974e-10
3.21796e-10
-3.66269e-10
-1.11357e-09
-1.88617e-09
-2.72105e-09
-3.63785e-09
-4.65317e-09
-5.78877e-09
-7.05961e-09
-8.46661e-09
-9.98491e-09
-1.15352e-08
-1.29544e-08
-1.39544e-08
-1.40706e-08
-1.26989e-08
-9.51655e-09
-5.05273e-09
-8.06814e-10
1.598e-09
1.16969e-09
-3.42072e-10
-1.04624e-09
-1.76986e-09
-2.55564e-09
-3.43716e-09
-4.44712e-09
-5.6315e-09
-7.03527e-09
-8.69949e-09
-1.06427e-08
-1.2808e-08
-1.5029e-08
-1.69164e-08
-1.77932e-08
-1.64769e-08
-1.19019e-08
-4.66012e-09
2.79507e-09
6.24791e-09
3.03156e-09
-2.93721e-10
-9.15502e-10
-1.55574e-09
-2.25977e-09
-3.07376e-09
-4.04673e-09
-5.24914e-09
-6.76593e-09
-8.69262e-09
-1.11141e-08
-1.40484e-08
-1.73741e-08
-2.08335e-08
-2.37248e-08
-2.42761e-08
-2.00757e-08
-1.11933e-08
9.39118e-10
1.02849e-08
6.62723e-09
-2.23015e-10
-7.23672e-10
-1.24069e-09
-1.82015e-09
-2.51755e-09
-3.39513e-09
-4.54702e-09
-6.09603e-09
-8.19976e-09
-1.10393e-08
-1.47651e-08
-1.95233e-08
-2.574e-08
-3.38278e-08
-4.24613e-08
-4.98204e-08
-4.84515e-08
-3.49921e-08
-9.87126e-09
4.53105e-09
-1.31205e-10
-4.71806e-10
-8.22003e-10
-1.22596e-09
-1.74282e-09
-2.43992e-09
-3.42221e-09
-4.83535e-09
-6.88072e-09
-9.8308e-09
-1.40148e-08
-2.00881e-08
-3.05833e-08
-4.86417e-08
-7.26561e-08
-9.19121e-08
-8.82786e-08
-7.7468e-08
-5.50575e-08
-3.70124e-09
-2.09827e-11
-1.64584e-10
-3.04362e-10
-4.79847e-10
-7.44426e-10
-1.15665e-09
-1.80882e-09
-2.82876e-09
-4.40081e-09
-6.82596e-09
-1.04758e-08
-1.62502e-08
-3.01982e-08
-5.35902e-08
-6.74722e-08
-5.71399e-08
-6.21807e-08
-6.74746e-08
-6.01407e-08
-3.79574e-08
1.01981e-10
1.88238e-10
2.93747e-10
3.9182e-10
4.43992e-10
4.17068e-10
2.62139e-10
-7.6299e-11
-6.64786e-10
-1.61536e-09
-2.8508e-09
-4.86203e-09
-1.17116e-08
-1.6282e-08
-1.42299e-09
1.86214e-08
2.41793e-08
1.20984e-09
-2.81904e-08
-3.38594e-08
2.32724e-10
5.66988e-10
9.37074e-10
1.33227e-09
1.73666e-09
2.15283e-09
2.5903e-09
3.08507e-09
3.72732e-09
4.69705e-09
6.64075e-09
9.93282e-09
1.60611e-08
3.04714e-08
6.07815e-08
9.1654e-08
9.86679e-08
7.80211e-08
3.31346e-08
-2.57925e-09
3.66458e-10
9.43814e-10
1.57277e-09
2.25528e-09
3.00175e-09
3.84835e-09
4.85178e-09
6.11119e-09
7.81681e-09
1.03808e-08
1.46348e-08
2.20406e-08
3.4426e-08
5.1926e-08
7.77273e-08
9.3447e-08
9.44056e-08
8.84092e-08
6.12757e-08
1.90184e-08
4.92321e-10
1.28807e-09
2.13504e-09
3.05803e-09
4.08884e-09
5.28167e-09
6.72155e-09
8.51273e-09
1.07957e-08
1.40131e-08
1.86287e-08
2.70223e-08
3.7782e-08
5.02947e-08
5.69512e-08
5.80267e-08
4.89817e-08
3.6946e-08
4.53487e-08
1.96114e-08
6.41616e-10
1.55196e-09
2.51397e-09
3.65862e-09
4.85134e-09
6.25074e-09
7.9608e-09
1.00422e-08
1.23617e-08
1.55632e-08
1.98368e-08
2.51671e-08
3.11672e-08
3.55361e-08
3.31022e-08
2.66222e-08
1.4117e-08
3.07518e-09
1.713e-08
9.68572e-09
4.30166e-10
1.5107e-09
2.53315e-09
3.76968e-09
5.00575e-09
6.5742e-09
8.36702e-09
1.05073e-08
1.28835e-08
1.55631e-08
1.85817e-08
2.14825e-08
2.36852e-08
2.3193e-08
1.66258e-08
7.42545e-09
-2.30365e-09
-6.67974e-09
3.66291e-09
2.22497e-09
8.2569e-10
1.65076e-09
2.53323e-09
3.43086e-09
4.71011e-09
6.0225e-09
7.72903e-09
9.85051e-09
1.21316e-08
1.44956e-08
1.66099e-08
1.80218e-08
1.82304e-08
1.56756e-08
9.0821e-09
7.88958e-10
-6.64942e-09
-8.61382e-09
-1.79044e-09
-1.55604e-10
5.06786e-10
9.61153e-10
1.73863e-09
2.50462e-09
3.41361e-09
4.60443e-09
6.00849e-09
7.55101e-09
9.41315e-09
1.14065e-08
1.31971e-08
1.42474e-08
1.39592e-08
1.14863e-08
6.39365e-09
-7.51628e-10
-6.15441e-09
-7.66966e-09
-2.8969e-09
-9.90242e-10
3.90152e-11
-6.18116e-10
-1.24125e-10
6.84288e-10
1.16569e-09
1.8221e-09
2.56691e-09
3.39263e-09
4.33834e-09
5.41808e-09
6.50084e-09
7.30293e-09
7.32387e-09
5.96647e-09
3.05571e-09
-6.51469e-10
-4.1341e-09
-5.23589e-09
-1.54778e-09
-1.49745e-09
-1.54197e-11
-3.97611e-10
-4.29463e-10
-4.27014e-10
-3.08116e-10
-1.12565e-10
1.21498e-10
3.87704e-10
6.92864e-10
1.0349e-09
1.36912e-09
1.61837e-09
1.58175e-09
1.12478e-09
3.04156e-11
-1.46431e-09
-3.16215e-09
-3.04995e-09
-4.50134e-09
-1.70968e-09
)
;

boundaryField
{
    movingWall
    {
        type            zeroGradient;
    }
    fixedWalls
    {
        type            zeroGradient;
    }
    frontAndBack
    {
        type            empty;
    }
}


// ************************************************************************* //
