/*--------------------------------*- C++ -*----------------------------------*\
| =========                 |                                                 |
| \\      /  F ield         | OpenFOAM: The Open Source CFD Toolbox           |
|  \\    /   O peration     | Version:  2312                                  |
|   \\  /    A nd           | Website:  www.openfoam.com                      |
|    \\/     M anipulation  |                                                 |
\*---------------------------------------------------------------------------*/
FoamFile
{
    version     2.0;
    format      ascii;
    arch        "LSB;label=32;scalar=64";
    class       volScalarField;
    location    "1";
    object      k2;
}
// * * * * * * * * * * * * * * * * * * * * * * * * * * * * * * * * * * * * * //

dimensions      [0 4 -4 0 0 0 0];

internalField   nonuniform List<scalar> 
400
(
2.07812e-08
4.06023e-08
6.35564e-08
8.31552e-08
9.89566e-08
1.11879e-07
1.22917e-07
1.32746e-07
1.41619e-07
1.49399e-07
1.55556e-07
1.58488e-07
1.59076e-07
1.55099e-07
1.44767e-07
1.27484e-07
1.03379e-07
7.39456e-08
4.26328e-08
2.20646e-08
4.05491e-08
1.31459e-07
2.12573e-07
2.73023e-07
3.15082e-07
3.43783e-07
3.64317e-07
3.8082e-07
3.95993e-07
4.11088e-07
4.2589e-07
4.37459e-07
4.42395e-07
4.3952e-07
4.21685e-07
3.83703e-07
3.21087e-07
2.33621e-07
1.27198e-07
4.38628e-08
6.76792e-08
2.35016e-07
3.76529e-07
4.80523e-07
5.52159e-07
5.99614e-07
6.31412e-07
6.54532e-07
6.73631e-07
6.90924e-07
7.06257e-07
7.15756e-07
7.1825e-07
7.06477e-07
6.71794e-07
6.06005e-07
5.03345e-07
3.64766e-07
1.99411e-07
7.02349e-08
9.30674e-08
3.22495e-07
5.14039e-07
6.54869e-07
7.52572e-07
8.17388e-07
8.60053e-07
8.89625e-07
9.12338e-07
9.31285e-07
9.46181e-07
9.53355e-07
9.51045e-07
9.28237e-07
8.74792e-07
7.80291e-07
6.39078e-07
4.55762e-07
2.4563e-07
9.39278e-08
1.15251e-07
3.91775e-07
6.23714e-07
7.952e-07
9.1529e-07
9.95542e-07
1.04835e-06
1.08446e-06
1.11152e-06
1.13351e-06
1.15021e-06
1.15823e-06
1.15386e-06
1.12362e-06
1.05358e-06
9.29604e-07
7.46799e-07
5.17624e-07
2.70449e-07
1.14967e-07
1.34344e-07
4.44362e-07
7.07808e-07
9.04147e-07
1.043e-06
1.13678e-06
1.19921e-06
1.2426e-06
1.27611e-06
1.30502e-06
1.33061e-06
1.34758e-06
1.35188e-06
1.32602e-06
1.24735e-06
1.0932e-06
8.61299e-07
5.76224e-07
2.87426e-07
1.35732e-07
1.50975e-07
4.83375e-07
7.70494e-07
9.86302e-07
1.14038e-06
1.24575e-06
1.31747e-06
1.36964e-06
1.4136e-06
1.45697e-06
1.5031e-06
1.55032e-06
1.58156e-06
1.58398e-06
1.51251e-06
1.32663e-06
1.04973e-06
6.99361e-07
3.28121e-07
1.59165e-07
1.65894e-07
5.12199e-07
8.16416e-07
1.04679e-06
1.21264e-06
1.32768e-06
1.40852e-06
1.47175e-06
1.53212e-06
1.60159e-06
1.68806e-06
1.79217e-06
1.89546e-06
1.94268e-06
1.89503e-06
1.69021e-06
1.49847e-06
1.15517e-06
5.36587e-07
2.05466e-07
1.79811e-07
5.33901e-07
8.49876e-07
1.09037e-06
1.26456e-06
1.38714e-06
1.47683e-06
1.55366e-06
1.63757e-06
1.74759e-06
1.89974e-06
2.10122e-06
2.31437e-06
2.40155e-06
2.35382e-06
2.37992e-06
2.74321e-06
2.73231e-06
1.59975e-06
4.16815e-07
1.93342e-07
5.51021e-07
8.74442e-07
1.12091e-06
1.29986e-06
1.42741e-06
1.52501e-06
1.61709e-06
1.73048e-06
1.89389e-06
2.13521e-06
2.47245e-06
2.75185e-06
2.78206e-06
2.67678e-06
2.91713e-06
3.73306e-06
4.41299e-06
4.76247e-06
1.70854e-06
2.07028e-07
5.65558e-07
8.92861e-07
1.14131e-06
1.32111e-06
1.45035e-06
1.55363e-06
1.6602e-06
1.80405e-06
2.02349e-06
2.35487e-06
2.78527e-06
2.96689e-06
2.68699e-06
2.49603e-06
2.70219e-06
3.30731e-06
4.90405e-06
7.24421e-06
6.62564e-06
2.21465e-07
5.79051e-07
9.07115e-07
1.15353e-06
1.32986e-06
1.4566e-06
1.56185e-06
1.67902e-06
1.84735e-06
2.11066e-06
2.50562e-06
2.90091e-06
2.94156e-06
2.44551e-06
1.98373e-06
1.82663e-06
2.01924e-06
3.63828e-06
8.33843e-06
1.37203e-05
2.3713e-07
5.92704e-07
9.18497e-07
1.15873e-06
1.32767e-06
1.44984e-06
1.55363e-06
1.67399e-06
1.8531e-06
2.1386e-06
2.55618e-06
2.92022e-06
2.86304e-06
2.13431e-06
1.49017e-06
1.26808e-06
1.42359e-06
2.84253e-06
7.94554e-06
1.83573e-05
2.558e-07
6.07104e-07
9.27323e-07
1.15732e-06
1.31727e-06
1.43113e-06
1.53041e-06
1.65116e-06
1.83311e-06
2.11804e-06
2.52516e-06
2.91194e-06
2.89603e-06
2.22403e-06
1.44723e-06
1.08935e-06
1.28798e-06
2.51946e-06
7.61562e-06
2.19111e-05
2.75106e-07
6.2253e-07
9.32632e-07
1.1495e-06
1.29573e-06
1.39879e-06
1.49079e-06
1.60639e-06
1.78442e-06
2.06137e-06
2.45127e-06
2.86557e-06
2.97229e-06
2.52616e-06
1.72203e-06
1.34201e-06
1.54503e-06
2.48199e-06
7.48615e-06
2.56066e-05
3.07497e-07
6.3321e-07
9.3046e-07
1.13052e-06
1.26087e-06
1.35283e-06
1.43634e-06
1.54296e-06
1.70714e-06
1.96187e-06
2.32192e-06
2.739e-06
2.97148e-06
2.8073e-06
2.33987e-06
1.8502e-06
1.99729e-06
2.62775e-06
7.62014e-06
3.04232e-05
3.24785e-07
6.53464e-07
9.30082e-07
1.10332e-06
1.21687e-06
1.3e-06
1.37857e-06
1.47811e-06
1.62632e-06
1.85106e-06
2.16689e-06
2.54251e-06
2.85569e-06
2.80438e-06
2.5557e-06
2.10109e-06
2.15297e-06
2.5916e-06
8.70085e-06
3.75596e-05
4.03091e-07
7.05833e-07
9.94659e-07
1.17075e-06
1.29487e-06
1.3981e-06
1.50005e-06
1.61909e-06
1.7762e-06
1.99575e-06
2.2954e-06
2.65877e-06
3.00281e-06
3.02822e-06
2.8969e-06
2.53498e-06
2.4635e-06
3.27019e-06
1.10796e-05
4.97549e-05
7.06448e-07
1.45187e-06
2.39437e-06
3.14475e-06
3.72811e-06
4.2523e-06
4.7495e-06
5.21807e-06
5.6608e-06
6.08798e-06
6.51517e-06
6.95699e-06
7.37859e-06
7.745e-06
7.84612e-06
8.08563e-06
8.72189e-06
1.28468e-05
2.23461e-05
7.35109e-05
1.79076e-05
4.26865e-05
7.10895e-05
9.0869e-05
0.000103508
0.000111702
0.000116817
0.000119646
0.000120712
0.000120473
0.000119669
0.000118094
0.000115777
0.000113912
0.00011166
0.000111748
0.000113656
0.000114378
0.000127762
0.000105843
)
;

boundaryField
{
    movingWall
    {
        type            calculated;
        value           nonuniform List<scalar> 
20
(
1.79076e-05
4.26865e-05
7.10895e-05
9.0869e-05
0.000103508
0.000111702
0.000116817
0.000119646
0.000120712
0.000120473
0.000119669
0.000118094
0.000115777
0.000113912
0.00011166
0.000111748
0.000113656
0.000114378
0.000127762
0.000105843
)
;
    }
    fixedWalls
    {
        type            calculated;
        value           nonuniform List<scalar> 
60
(
2.07812e-08
4.05491e-08
6.76792e-08
9.30674e-08
1.15251e-07
1.34344e-07
1.50975e-07
1.65894e-07
1.79811e-07
1.93342e-07
2.07028e-07
2.21465e-07
2.3713e-07
2.558e-07
2.75106e-07
3.07497e-07
3.24785e-07
4.03091e-07
7.06448e-07
1.79076e-05
2.20646e-08
4.38628e-08
7.02349e-08
9.39278e-08
1.14967e-07
1.35732e-07
1.59165e-07
2.05466e-07
4.16815e-07
1.70854e-06
6.62564e-06
1.37203e-05
1.83573e-05
2.19111e-05
2.56066e-05
3.04232e-05
3.75596e-05
4.97549e-05
7.35109e-05
0.000105843
2.07812e-08
4.06023e-08
6.35564e-08
8.31552e-08
9.89566e-08
1.11879e-07
1.22917e-07
1.32746e-07
1.41619e-07
1.49399e-07
1.55556e-07
1.58488e-07
1.59076e-07
1.55099e-07
1.44767e-07
1.27484e-07
1.03379e-07
7.39456e-08
4.26328e-08
2.20646e-08
)
;
    }
    frontAndBack
    {
        type            empty;
    }
}


// ************************************************************************* //
