/*--------------------------------*- C++ -*----------------------------------*\
| =========                 |                                                 |
| \\      /  F ield         | OpenFOAM: The Open Source CFD Toolbox           |
|  \\    /   O peration     | Version:  2312                                  |
|   \\  /    A nd           | Website:  www.openfoam.com                      |
|    \\/     M anipulation  |                                                 |
\*---------------------------------------------------------------------------*/
FoamFile
{
    version     2.0;
    format      ascii;
    arch        "LSB;label=32;scalar=64";
    class       volScalarField;
    location    "1";
    object      kDiff;
}
// * * * * * * * * * * * * * * * * * * * * * * * * * * * * * * * * * * * * * //

dimensions      [0 2 -2 0 0 0 0];

internalField   nonuniform List<scalar> 
400
(
-9.3685e-07
-1.1703e-06
-1.29027e-06
-1.30343e-06
-1.24964e-06
-1.15873e-06
-1.04891e-06
-9.31694e-07
-8.16402e-07
-7.10711e-07
-6.36158e-07
-6.19512e-07
-6.27443e-07
-6.94553e-07
-8.15115e-07
-9.65694e-07
-1.11067e-06
-1.1961e-06
-1.15474e-06
-9.0747e-07
-1.18889e-06
-2.26713e-06
-2.79026e-06
-3.05963e-06
-3.18303e-06
-3.22213e-06
-3.21238e-06
-3.17349e-06
-3.11572e-06
-3.04642e-06
-2.9748e-06
-2.91639e-06
-2.88197e-06
-2.83671e-06
-2.81333e-06
-2.79804e-06
-2.76827e-06
-2.64233e-06
-2.25365e-06
-1.11707e-06
-1.30535e-06
-2.7355e-06
-3.40085e-06
-3.75381e-06
-3.92805e-06
-3.99603e-06
-4.00142e-06
-3.97047e-06
-3.91821e-06
-3.85504e-06
-3.78773e-06
-3.71798e-06
-3.6516e-06
-3.56633e-06
-3.49868e-06
-3.45586e-06
-3.41678e-06
-3.27172e-06
-2.78959e-06
-1.19503e-06
-1.31403e-06
-2.94207e-06
-3.68383e-06
-4.08325e-06
-4.28309e-06
-4.36028e-06
-4.3635e-06
-4.32246e-06
-4.25492e-06
-4.16957e-06
-4.05093e-06
-3.95843e-06
-3.80421e-06
-3.65539e-06
-3.54373e-06
-3.51283e-06
-3.54687e-06
-3.49263e-06
-3.00191e-06
-1.17381e-06
-1.25552e-06
-2.99743e-06
-3.779e-06
-4.2026e-06
-4.41301e-06
-4.48728e-06
-4.47336e-06
-4.40036e-06
-4.28337e-06
-4.12664e-06
-3.8861e-06
-3.6811e-06
-3.36908e-06
-3.07144e-06
-2.87779e-06
-2.89155e-06
-3.08772e-06
-3.25643e-06
-2.89402e-06
-1.10035e-06
-1.16481e-06
-2.97237e-06
-3.7683e-06
-4.19726e-06
-4.40208e-06
-4.45687e-06
-4.40537e-06
-4.27004e-06
-4.05462e-06
-3.74494e-06
-3.31728e-06
-2.78273e-06
-2.25545e-06
-1.6591e-06
-1.34099e-06
-1.41804e-06
-1.71399e-06
-2.16353e-06
-2.29055e-06
-1.06995e-06
-1.06741e-06
-2.91572e-06
-3.71091e-06
-4.13062e-06
-4.31579e-06
-4.33462e-06
-4.22175e-06
-3.98467e-06
-3.60525e-06
-3.04608e-06
-2.26398e-06
-1.24154e-06
-3.33727e-07
5.67722e-07
1.00992e-06
8.66543e-07
1.64669e-06
1.72439e-06
4.18296e-08
-1.06659e-06
-9.82521e-07
-2.86325e-06
-3.65008e-06
-4.05195e-06
-4.20683e-06
-4.17466e-06
-3.97539e-06
-3.59192e-06
-2.9723e-06
-2.04858e-06
-7.80084e-07
7.92064e-07
2.32654e-06
2.9642e-06
3.12855e-06
4.15328e-06
1.03469e-05
1.34639e-05
8.80205e-06
2.32807e-07
-9.22757e-07
-2.83817e-06
-3.61652e-06
-3.99751e-06
-4.11614e-06
-4.02198e-06
-3.71534e-06
-3.14754e-06
-2.22817e-06
-8.63892e-07
9.78587e-07
3.21025e-06
4.22428e-06
3.53381e-06
4.43238e-06
1.20623e-05
1.75209e-05
2.53089e-05
2.5815e-05
8.12502e-06
-8.95639e-07
-2.85333e-06
-3.62849e-06
-3.99033e-06
-4.07184e-06
-3.91154e-06
-3.4888e-06
-2.7253e-06
-1.50506e-06
2.58163e-07
2.5391e-06
5.02009e-06
2.98634e-06
-8.01938e-07
-2.32396e-06
9.73267e-07
-4.66417e-06
9.85433e-06
2.49328e-05
2.94778e-05
-9.05622e-07
-2.91324e-06
-3.69255e-06
-4.0393e-06
-4.08705e-06
-3.86466e-06
-3.33577e-06
-2.40887e-06
-9.81001e-07
9.57139e-07
3.23361e-06
2.83334e-06
-1.60786e-06
-8.65557e-06
-9.09655e-06
-1.36624e-05
-1.85119e-05
-2.74776e-06
2.7916e-06
3.95224e-05
-9.53771e-07
-3.01584e-06
-3.80394e-06
-4.1382e-06
-4.16075e-06
-3.88433e-06
-3.2728e-06
-2.24316e-06
-7.38107e-07
1.16067e-06
2.95604e-06
3.34089e-07
-4.23623e-06
-1.33808e-05
-1.71816e-05
-1.91973e-05
-2.17071e-05
-1.47183e-05
-4.54573e-06
1.90733e-05
-1.04292e-06
-3.15278e-06
-3.94604e-06
-4.26569e-06
-4.23352e-06
-3.91699e-06
-3.26734e-06
-2.21761e-06
-7.51878e-07
9.08956e-07
1.93099e-06
-4.05758e-07
-5.62089e-06
-1.13574e-05
-1.31988e-05
-1.24674e-05
-6.42569e-06
-4.38665e-06
-1.005e-05
3.24882e-06
-1.1625e-06
-3.30885e-06
-4.09101e-06
-4.3596e-06
-4.3045e-06
-3.94975e-06
-3.25946e-06
-2.20333e-06
-8.34018e-07
6.3767e-07
1.45429e-06
-2.52104e-07
-4.65272e-06
-8.32161e-06
-6.06273e-06
-4.39789e-06
-1.38232e-06
1.76269e-06
-4.01927e-06
5.56883e-07
-1.32611e-06
-3.4578e-06
-4.19902e-06
-4.41777e-06
-4.32163e-06
-3.91868e-06
-3.22284e-06
-2.21451e-06
-9.60162e-07
2.62464e-07
8.64404e-07
-7.48887e-08
-2.88152e-06
-3.38808e-06
-3.80812e-06
1.34955e-06
5.70722e-06
5.38552e-06
-2.56086e-06
-1.98699e-06
-1.46406e-06
-3.55332e-06
-4.21756e-06
-4.38605e-06
-4.22523e-06
-3.81853e-06
-3.16461e-06
-2.25087e-06
-1.14024e-06
-1.15729e-07
3.4338e-07
-1.95666e-07
-2.46668e-06
-2.9393e-06
-2.50307e-06
2.54341e-06
3.36386e-06
2.44946e-06
1.06471e-06
-1.31978e-06
-1.59502e-06
-3.62667e-06
-4.18609e-06
-4.2868e-06
-4.13233e-06
-3.7885e-06
-3.26285e-06
-2.54778e-06
-1.68818e-06
-8.85095e-07
-5.40401e-07
-1.04165e-06
-2.61098e-06
-3.42215e-06
-3.54743e-06
-1.4493e-06
-7.29453e-07
-1.32815e-06
-4.74424e-06
-1.58531e-06
-1.71858e-06
-3.59795e-06
-4.10248e-06
-4.24579e-06
-4.18464e-06
-3.98197e-06
-3.66506e-06
-3.22055e-06
-2.64732e-06
-2.03774e-06
-1.67371e-06
-1.99043e-06
-3.05719e-06
-4.67825e-06
-4.75211e-06
-4.11567e-06
-2.49511e-06
-2.69825e-06
-3.21789e-06
-4.98153e-07
-1.59221e-06
-3.49888e-06
-4.06026e-06
-4.40538e-06
-4.56587e-06
-4.68147e-06
-4.81608e-06
-4.96192e-06
-5.12822e-06
-5.24548e-06
-5.28814e-06
-5.40264e-06
-5.30839e-06
-6e-06
-5.75993e-06
-5.12498e-06
-3.92097e-06
-1.76696e-06
-2.11342e-06
-2.15397e-07
-7.3658e-07
-6.91437e-07
-9.95836e-07
-1.19929e-06
-1.37565e-06
-1.51269e-06
-1.7249e-06
-1.82567e-06
-2.20308e-06
-2.33025e-06
-2.54996e-06
-2.60874e-06
-2.6852e-06
-2.1434e-06
-1.03608e-06
-6.22862e-07
2.15358e-07
4.31828e-07
8.67546e-07
4.81176e-07
)
;

boundaryField
{
    movingWall
    {
        type            calculated;
        value           nonuniform List<scalar> 
20
(
-7.3658e-07
-6.91437e-07
-9.95836e-07
-1.19929e-06
-1.37565e-06
-1.51269e-06
-1.7249e-06
-1.82567e-06
-2.20308e-06
-2.33025e-06
-2.54996e-06
-2.60874e-06
-2.6852e-06
-2.1434e-06
-1.03608e-06
-6.22862e-07
2.15358e-07
4.31828e-07
8.67546e-07
4.81176e-07
)
;
    }
    fixedWalls
    {
        type            calculated;
        value           nonuniform List<scalar> 
60
(
-9.3685e-07
-1.18889e-06
-1.30535e-06
-1.31403e-06
-1.25552e-06
-1.16481e-06
-1.06741e-06
-9.82521e-07
-9.22757e-07
-8.95639e-07
-9.05622e-07
-9.53771e-07
-1.04292e-06
-1.1625e-06
-1.32611e-06
-1.46406e-06
-1.59502e-06
-1.71858e-06
-1.59221e-06
-7.3658e-07
-9.0747e-07
-1.11707e-06
-1.19503e-06
-1.17381e-06
-1.10035e-06
-1.06995e-06
-1.06659e-06
2.32807e-07
8.12502e-06
2.94778e-05
3.95224e-05
1.90733e-05
3.24882e-06
5.56883e-07
-1.98699e-06
-1.31978e-06
-1.58531e-06
-4.98153e-07
-2.15397e-07
4.81176e-07
-9.3685e-07
-1.1703e-06
-1.29027e-06
-1.30343e-06
-1.24964e-06
-1.15873e-06
-1.04891e-06
-9.31694e-07
-8.16402e-07
-7.10711e-07
-6.36158e-07
-6.19512e-07
-6.27443e-07
-6.94553e-07
-8.15115e-07
-9.65694e-07
-1.11067e-06
-1.1961e-06
-1.15474e-06
-9.0747e-07
)
;
    }
    frontAndBack
    {
        type            empty;
    }
}


// ************************************************************************* //
