/*--------------------------------*- C++ -*----------------------------------*\
| =========                 |                                                 |
| \\      /  F ield         | OpenFOAM: The Open Source CFD Toolbox           |
|  \\    /   O peration     | Version:  2312                                  |
|   \\  /    A nd           | Website:  www.openfoam.com                      |
|    \\/     M anipulation  |                                                 |
\*---------------------------------------------------------------------------*/
FoamFile
{
    version     2.0;
    format      ascii;
    arch        "LSB;label=32;scalar=64";
    class       volScalarField;
    location    "1";
    object      kTotal;
}
// * * * * * * * * * * * * * * * * * * * * * * * * * * * * * * * * * * * * * //

dimensions      [0 2 -2 0 0 0 0];

internalField   nonuniform List<scalar> 
400
(
0.000288315
0.000403002
0.000504209
0.000576734
0.000629149
0.000668968
0.00070119
0.000728687
0.000752647
0.000773045
0.000788811
0.000796211
0.000797686
0.000787653
0.000760966
0.000714099
0.000643054
0.00054386
0.000412956
0.000297085
0.000402738
0.000725149
0.000922117
0.00104504
0.00112265
0.00117266
0.00120718
0.00123422
0.00125856
0.00128233
0.00130521
0.00132282
0.00133026
0.00132593
0.00129875
0.00123888
0.00113329
0.000966691
0.0007133
0.000418871
0.000520306
0.000969573
0.00122724
0.0013864
0.00148615
0.0015487
0.00158923
0.00161807
0.00164151
0.00166244
0.00168079
0.00169205
0.001695
0.00168105
0.00163926
0.00155693
0.00141894
0.00120792
0.000893114
0.000530039
0.00061014
0.00113578
0.00143393
0.00161848
0.00173502
0.00180819
0.00185479
0.0018864
0.00191033
0.00193007
0.00194544
0.0019528
0.00195043
0.0019269
0.00187061
0.00176669
0.00159885
0.00135021
0.000991225
0.000612954
0.000678973
0.00125184
0.00157952
0.00178349
0.00191342
0.00199554
0.00204778
0.00208276
0.00210858
0.00212933
0.00214496
0.00215243
0.00214836
0.00212002
0.00205288
0.00192832
0.00172835
0.00143893
0.0010401
0.000678137
0.000733061
0.00133321
0.00168263
0.00190174
0.00204255
0.0021324
0.00219017
0.00222944
0.00225931
0.00228475
0.00230704
0.00232171
0.00232541
0.00230306
0.0022337
0.00209113
0.00185612
0.00151819
0.00107224
0.000736836
0.000777111
0.00139051
0.00175556
0.00198626
0.00213577
0.00223227
0.00229562
0.00234064
0.0023779
0.0024141
0.00245202
0.00249024
0.0025152
0.00251712
0.00245968
0.00230359
0.00204913
0.00167256
0.00114564
0.000797911
0.000814603
0.00143136
0.00180712
0.00204626
0.00220241
0.0023045
0.00237362
0.00242632
0.00247558
0.00253108
0.0025985
0.00267744
0.00275351
0.0027876
0.0027532
0.00260016
0.00244827
0.00214962
0.00146507
0.000906568
0.000848083
0.00146137
0.00184378
0.00208842
0.00224906
0.00235554
0.0024305
0.00249292
0.00255935
0.00264393
0.00275662
0.00289912
0.00304262
0.00309939
0.00306843
0.00308542
0.00331257
0.00330604
0.00252976
0.00129125
0.000879415
0.00148462
0.00187024
0.00211747
0.00228023
0.00238949
0.00246983
0.0025433
0.00263095
0.00275237
0.00292247
0.00314481
0.00331774
0.0033359
0.00327217
0.00341592
0.00386423
0.00420144
0.00436469
0.00261439
0.000910007
0.00150408
0.00188983
0.00213664
0.00229879
0.00240861
0.00249289
0.00257698
0.0026863
0.00284499
0.00306912
0.00333783
0.00344493
0.00327842
0.00315978
0.0032877
0.00363725
0.00442902
0.00538301
0.00514822
0.000941203
0.00152191
0.00190486
0.00214805
0.00230639
0.0024138
0.00249948
0.00259154
0.00271835
0.00290563
0.00316583
0.00340641
0.0034302
0.00312766
0.00281695
0.00270312
0.00284208
0.00381488
0.00577527
0.0074082
0.000973921
0.00153975
0.00191677
0.00215289
0.0023045
0.00240819
0.0024929
0.00258765
0.00272257
0.00292479
0.00319761
0.00341773
0.00338411
0.00292187
0.00244149
0.00225222
0.00238629
0.00337197
0.00563758
0.00856909
0.00101153
0.00155834
0.00192596
0.00215158
0.00229546
0.0023926
0.0024742
0.00256995
0.00270785
0.0029107
0.00317815
0.00341288
0.00340355
0.00298265
0.00240603
0.00208744
0.00226979
0.00317456
0.00551929
0.00936185
0.00104901
0.00157801
0.00193146
0.0021443
0.0022766
0.00236541
0.00244196
0.00253487
0.00267164
0.00287149
0.0031313
0.0033856
0.00344807
0.00317878
0.00262453
0.0023169
0.00248599
0.00315087
0.00547216
0.0101206
0.00110905
0.00159149
0.00192921
0.00212652
0.00224578
0.00232623
0.00239695
0.00248432
0.00261315
0.00280134
0.00304757
0.00330998
0.0034476
0.003351
0.00305933
0.00272045
0.00282651
0.00324207
0.00552092
0.0110314
0.0011398
0.00161675
0.00192882
0.00210078
0.00220624
0.00228036
0.00234825
0.00243155
0.00255054
0.00272107
0.00294407
0.00318905
0.00337976
0.00334926
0.00319731
0.00289903
0.0029346
0.00321969
0.00589944
0.0122572
0.00126979
0.00168028
0.00199466
0.00216403
0.00227585
0.00236483
0.00244953
0.00254487
0.00266548
0.00282542
0.00303012
0.00326115
0.00346573
0.00348036
0.00340406
0.00318433
0.00313911
0.00361674
0.00665722
0.0141074
0.00168101
0.00240987
0.00309475
0.00354669
0.00386167
0.00412423
0.00435867
0.00456862
0.00475849
0.00493477
0.00510497
0.00527522
0.00543272
0.00556597
0.00560219
0.00568705
0.00590657
0.0071685
0.00945433
0.0171477
0.00846348
0.013067
0.0168629
0.019065
0.0203478
0.0211379
0.0216164
0.0218765
0.0219738
0.021952
0.0218786
0.0217342
0.0215199
0.0213459
0.0211339
0.0211422
0.0213219
0.0213896
0.0226064
0.020576
)
;

boundaryField
{
    movingWall
    {
        type            calculated;
        value           nonuniform List<scalar> 
20
(
0.00846348
0.013067
0.0168629
0.019065
0.0203478
0.0211379
0.0216164
0.0218765
0.0219738
0.021952
0.0218786
0.0217342
0.0215199
0.0213459
0.0211339
0.0211422
0.0213219
0.0213896
0.0226064
0.020576
)
;
    }
    fixedWalls
    {
        type            calculated;
        value           nonuniform List<scalar> 
60
(
0.000288315
0.000402738
0.000520306
0.00061014
0.000678973
0.000733061
0.000777111
0.000814603
0.000848083
0.000879415
0.000910007
0.000941203
0.000973921
0.00101153
0.00104901
0.00110905
0.0011398
0.00126979
0.00168101
0.00846348
0.000297085
0.000418871
0.000530039
0.000612954
0.000678137
0.000736836
0.000797911
0.000906568
0.00129125
0.00261439
0.00514822
0.0074082
0.00856909
0.00936185
0.0101206
0.0110314
0.0122572
0.0141074
0.0171477
0.020576
0.000288315
0.000403002
0.000504209
0.000576734
0.000629149
0.000668968
0.00070119
0.000728687
0.000752647
0.000773045
0.000788811
0.000796211
0.000797686
0.000787653
0.000760966
0.000714099
0.000643054
0.00054386
0.000412956
0.000297085
)
;
    }
    frontAndBack
    {
        type            empty;
    }
}


// ************************************************************************* //
