/*--------------------------------*- C++ -*----------------------------------*\
| =========                 |                                                 |
| \\      /  F ield         | OpenFOAM: The Open Source CFD Toolbox           |
|  \\    /   O peration     | Version:  2312                                  |
|   \\  /    A nd           | Website:  www.openfoam.com                      |
|    \\/     M anipulation  |                                                 |
\*---------------------------------------------------------------------------*/
FoamFile
{
    version     2.0;
    format      ascii;
    arch        "LSB;label=32;scalar=64";
    class       volVectorField;
    location    "1";
    object      kU;
}
// * * * * * * * * * * * * * * * * * * * * * * * * * * * * * * * * * * * * * //

dimensions      [0 3 -3 0 0 0 0];

internalField   nonuniform List<vector> 
400
(
(-2.73645e-08 2.74941e-08 0)
(-2.32554e-07 1.30871e-07 0)
(-7.21678e-07 2.37575e-07 0)
(-1.37901e-06 3.01217e-07 0)
(-2.1304e-06 3.30565e-07 0)
(-2.92197e-06 3.3984e-07 0)
(-3.72241e-06 3.36087e-07 0)
(-4.50725e-06 3.20529e-07 0)
(-5.24583e-06 2.89594e-07 0)
(-5.89604e-06 2.35206e-07 0)
(-6.3964e-06 1.49371e-07 0)
(-6.62529e-06 5.11975e-08 0)
(-6.59344e-06 -1.02692e-07 0)
(-6.1601e-06 -2.68067e-07 0)
(-5.31657e-06 -4.26612e-07 0)
(-4.12474e-06 -5.38485e-07 0)
(-2.754e-06 -5.59596e-07 0)
(-1.45843e-06 -4.57866e-07 0)
(-4.86682e-07 -2.49701e-07 0)
(-7.09449e-08 -7.09157e-08 0)
(-1.29774e-07 2.33553e-07 0)
(-8.01422e-07 8.1445e-07 0)
(-1.93437e-06 1.3072e-06 0)
(-3.31007e-06 1.60382e-06 0)
(-4.78929e-06 1.74194e-06 0)
(-6.28434e-06 1.77256e-06 0)
(-7.74641e-06 1.72697e-06 0)
(-9.14354e-06 1.61466e-06 0)
(-1.04418e-05 1.4267e-06 0)
(-1.15894e-05 1.13969e-06 0)
(-1.25008e-05 7.26141e-07 0)
(-1.30262e-05 1.75771e-07 0)
(-1.30178e-05 -5.1457e-07 0)
(-1.23732e-05 -1.29961e-06 0)
(-1.09807e-05 -2.05873e-06 0)
(-8.88379e-06 -2.61432e-06 0)
(-6.30672e-06 -2.75974e-06 0)
(-3.67499e-06 -2.35393e-06 0)
(-1.45853e-06 -1.43818e-06 0)
(-2.45671e-07 -4.82432e-07 0)
(-2.50756e-07 7.41368e-07 0)
(-1.36661e-06 2.04332e-06 0)
(-2.98983e-06 3.00451e-06 0)
(-4.87246e-06 3.60496e-06 0)
(-6.86007e-06 3.9102e-06 0)
(-8.85943e-06 3.99353e-06 0)
(-1.08161e-05 3.90238e-06 0)
(-1.26899e-05 3.65129e-06 0)
(-1.44364e-05 3.22382e-06 0)
(-1.59878e-05 2.58003e-06 0)
(-1.72337e-05 1.67312e-06 0)
(-1.79926e-05 4.73065e-07 0)
(-1.81066e-05 -1.01078e-06 0)
(-1.73521e-05 -2.68031e-06 0)
(-1.55617e-05 -4.29997e-06 0)
(-1.27413e-05 -5.49992e-06 0)
(-9.17769e-06 -5.86265e-06 0)
(-5.46954e-06 -5.13738e-06 0)
(-2.27026e-06 -3.40403e-06 0)
(-4.16488e-07 -1.39652e-06 0)
(-3.34687e-07 1.45722e-06 0)
(-1.76296e-06 3.593e-06 0)
(-3.74533e-06 5.0431e-06 0)
(-5.99919e-06 5.9678e-06 0)
(-8.3633e-06 6.47521e-06 0)
(-1.07488e-05 6.6513e-06 0)
(-1.3109e-05 6.55042e-06 0)
(-1.54106e-05 6.18647e-06 0)
(-1.76129e-05 5.53101e-06 0)
(-1.96445e-05 4.52045e-06 0)
(-2.13749e-05 3.07465e-06 0)
(-2.25915e-05 1.13095e-06 0)
(-2.30622e-05 -1.30746e-06 0)
(-2.24147e-05 -4.10536e-06 0)
(-2.03343e-05 -6.89145e-06 0)
(-1.67212e-05 -9.02442e-06 0)
(-1.19577e-05 -9.74597e-06 0)
(-6.98061e-06 -8.62557e-06 0)
(-2.78833e-06 -5.83775e-06 0)
(-5.07664e-07 -2.63247e-06 0)
(-3.83901e-07 2.31359e-06 0)
(-2.00867e-06 5.34026e-06 0)
(-4.25439e-06 7.2987e-06 0)
(-6.80044e-06 8.56457e-06 0)
(-9.4777e-06 9.3076e-06 0)
(-1.22027e-05 9.62746e-06 0)
(-1.49467e-05 9.58265e-06 0)
(-1.76978e-05 9.18295e-06 0)
(-2.04377e-05 8.38272e-06 0)
(-2.31103e-05 7.08318e-06 0)
(-2.55803e-05 5.14735e-06 0)
(-2.75969e-05 2.44114e-06 0)
(-2.88069e-05 -1.0958e-06 0)
(-2.86124e-05 -5.34137e-06 0)
(-2.63661e-05 -9.7954e-06 0)
(-2.16966e-05 -1.33863e-05 0)
(-1.51387e-05 -1.47008e-05 0)
(-8.3253e-06 -1.29554e-05 0)
(-2.97658e-06 -8.63346e-06 0)
(-4.89813e-07 -4.07725e-06 0)
(-4.10686e-07 3.25384e-06 0)
(-2.14599e-06 7.18696e-06 0)
(-4.57445e-06 9.67558e-06 0)
(-7.34423e-06 1.13045e-05 0)
(-1.02824e-05 1.23217e-05 0)
(-1.33136e-05 1.28507e-05 0)
(-1.64354e-05 1.29593e-05 0)
(-1.96752e-05 1.26557e-05 0)
(-2.3063e-05 1.18754e-05 0)
(-2.65939e-05 1.04722e-05 0)
(-3.01742e-05 8.21964e-06 0)
(-3.35135e-05 4.83254e-06 0)
(-3.61281e-05 7.28397e-08 0)
(-3.70783e-05 -6.09955e-06 0)
(-3.50336e-05 -1.3141e-05 0)
(-2.89018e-05 -1.92665e-05 0)
(-1.93904e-05 -2.17195e-05 0)
(-9.47468e-06 -1.88112e-05 0)
(-2.54119e-06 -1.1873e-05 0)
(-2.46389e-07 -5.56115e-06 0)
(-4.23172e-07 4.24196e-06 0)
(-2.20709e-06 9.06985e-06 0)
(-4.74768e-06 1.21093e-05 0)
(-7.67186e-06 1.41273e-05 0)
(-1.08088e-05 1.54624e-05 0)
(-1.40965e-05 1.62776e-05 0)
(-1.75698e-05 1.66646e-05 0)
(-2.13173e-05 1.66443e-05 0)
(-2.54572e-05 1.61447e-05 0)
(-3.01001e-05 1.49697e-05 0)
(-3.52735e-05 1.27623e-05 0)
(-4.07963e-05 8.99402e-06 0)
(-4.59731e-05 3.0053e-06 0)
(-4.96041e-05 -5.72627e-06 0)
(-4.90535e-05 -1.69528e-05 0)
(-4.14247e-05 -2.79229e-05 0)
(-2.74982e-05 -3.33477e-05 0)
(-1.17386e-05 -2.87058e-05 0)
(-1.1584e-06 -1.60557e-05 0)
(5.60977e-07 -6.54138e-06 0)
(-4.25723e-07 5.25646e-06 0)
(-2.21191e-06 1.09465e-05 0)
(-4.79998e-06 1.45478e-05 0)
(-7.8031e-06 1.6975e-05 0)
(-1.10569e-05 1.8668e-05 0)
(-1.45181e-05 1.98487e-05 0)
(-1.82694e-05 2.06578e-05 0)
(-2.24854e-05 2.11594e-05 0)
(-2.74243e-05 2.13105e-05 0)
(-3.34095e-05 2.08979e-05 0)
(-4.07555e-05 1.94305e-05 0)
(-4.96034e-05 1.60313e-05 0)
(-5.95889e-05 9.37915e-06 0)
(-6.89624e-05 -2.19302e-06 0)
(-7.40463e-05 -1.94392e-05 0)
(-6.87713e-05 -3.92984e-05 0)
(-5.36195e-05 -5.49248e-05 0)
(-2.76763e-05 -5.32782e-05 0)
(-2.58172e-06 -2.72721e-05 0)
(2.13108e-06 -7.08034e-06 0)
(-4.21034e-07 6.28496e-06 0)
(-2.17418e-06 1.27886e-05 0)
(-4.74931e-06 1.6945e-05 0)
(-7.74777e-06 1.97822e-05 0)
(-1.10116e-05 2.18525e-05 0)
(-1.45173e-05 2.34607e-05 0)
(-1.84007e-05 2.48302e-05 0)
(-2.29392e-05 2.61186e-05 0)
(-2.85763e-05 2.73867e-05 0)
(-3.59584e-05 2.85074e-05 0)
(-4.59199e-05 2.89766e-05 0)
(-5.94011e-05 2.76929e-05 0)
(-7.7109e-05 2.26419e-05 0)
(-9.74547e-05 1.0463e-05 0)
(-0.000116842 -1.24135e-05 0)
(-0.000131072 -4.93568e-05 0)
(-0.000132077 -9.82126e-05 0)
(-9.63965e-05 -0.000120963 0)
(-3.14024e-05 -7.45039e-05 0)
(3.587e-06 -1.14305e-05 0)
(-4.11955e-07 7.32138e-06 0)
(-2.1076e-06 1.45781e-05 0)
(-4.61532e-06 1.92571e-05 0)
(-7.51958e-06 2.24714e-05 0)
(-1.06619e-05 2.48971e-05 0)
(-1.40325e-05 2.69468e-05 0)
(-1.78113e-05 2.89653e-05 0)
(-2.23687e-05 3.12658e-05 0)
(-2.83314e-05 3.41213e-05 0)
(-3.67091e-05 3.76925e-05 0)
(-4.90043e-05 4.18623e-05 0)
(-6.73116e-05 4.61076e-05 0)
(-9.35136e-05 4.77562e-05 0)
(-0.000127878 4.0443e-05 0)
(-0.000163772 1.18523e-05 0)
(-0.000196232 -4.9147e-05 0)
(-0.000221899 -0.000143533 0)
(-0.000203422 -0.000222455 0)
(-0.000127912 -0.000210829 0)
(-8.2562e-06 -4.04374e-05 0)
(-4.03238e-07 8.36548e-06 0)
(-2.03211e-06 1.63056e-05 0)
(-4.42963e-06 2.14424e-05 0)
(-7.15137e-06 2.49527e-05 0)
(-1.00257e-05 2.76489e-05 0)
(-1.30415e-05 3.00718e-05 0)
(-1.63956e-05 3.27166e-05 0)
(-2.04971e-05 3.60995e-05 0)
(-2.60525e-05 4.07976e-05 0)
(-3.4248e-05 4.74673e-05 0)
(-4.68795e-05 5.68814e-05 0)
(-6.59678e-05 6.96956e-05 0)
(-9.24405e-05 8.13463e-05 0)
(-0.000124341 7.73373e-05 0)
(-0.000158374 4.20672e-05 0)
(-0.000189807 -3.64199e-05 0)
(-0.000216179 -0.000151838 0)
(-0.000248323 -0.000302177 0)
(-0.000224884 -0.000401802 0)
(-7.89872e-05 -0.000201233 0)
(-4.0422e-07 9.43522e-06 0)
(-1.97755e-06 1.79737e-05 0)
(-4.2448e-06 2.34641e-05 0)
(-6.70858e-06 2.71301e-05 0)
(-9.17153e-06 2.99331e-05 0)
(-1.16048e-05 3.25526e-05 0)
(-1.41845e-05 3.56396e-05 0)
(-1.72734e-05 3.99092e-05 0)
(-2.14744e-05 4.62358e-05 0)
(-2.77571e-05 5.57744e-05 0)
(-3.74453e-05 7.01618e-05 0)
(-5.0648e-05 8.96679e-05 0)
(-6.65411e-05 0.000108148 0)
(-8.32805e-05 0.000102567 0)
(-9.63631e-05 6.05064e-05 0)
(-0.000103423 -1.25413e-05 0)
(-0.000114598 -0.000110039 0)
(-0.000166077 -0.000275678 0)
(-0.000236028 -0.000557875 0)
(-0.00015364 -0.000542396 0)
(-4.29537e-07 1.0548e-05 0)
(-1.99675e-06 1.96011e-05 0)
(-4.14085e-06 2.5294e-05 0)
(-6.2939e-06 2.89123e-05 0)
(-8.23033e-06 3.15907e-05 0)
(-9.90219e-06 3.41579e-05 0)
(-1.14271e-05 3.73604e-05 0)
(-1.30419e-05 4.2033e-05 0)
(-1.50915e-05 4.92318e-05 0)
(-1.80222e-05 6.03865e-05 0)
(-2.21655e-05 7.72882e-05 0)
(-2.63516e-05 9.93113e-05 0)
(-2.8199e-05 0.000117975 0)
(-2.74065e-05 0.000107038 0)
(-2.72784e-05 6.35537e-05 0)
(-2.39554e-05 4.29605e-07 0)
(-2.78252e-05 -7.56766e-05 0)
(-6.0515e-05 -0.000213455 0)
(-0.00015398 -0.000566435 0)
(-0.000158032 -0.000892678 0)
(-5.03198e-07 1.18461e-05 0)
(-2.14629e-06 2.12483e-05 0)
(-4.21185e-06 2.69209e-05 0)
(-6.02849e-06 3.02267e-05 0)
(-7.36656e-06 3.25205e-05 0)
(-8.16727e-06 3.47076e-05 0)
(-8.49697e-06 3.76207e-05 0)
(-8.44713e-06 4.21306e-05 0)
(-8.0531e-06 4.92608e-05 0)
(-7.16433e-06 6.02565e-05 0)
(-5.22753e-06 7.65168e-05 0)
(-8.58475e-07 9.714e-05 0)
(8.04343e-06 0.000113682 0)
(1.86856e-05 0.000103394 0)
(2.18809e-05 6.09327e-05 0)
(2.47682e-05 2.1088e-06 0)
(2.2522e-05 -6.21937e-05 0)
(1.09631e-05 -0.000167062 0)
(-6.16133e-05 -0.000489301 0)
(-0.000120318 -0.00116359 0)
(-6.75288e-07 1.31557e-05 0)
(-2.55269e-06 2.28863e-05 0)
(-4.56831e-06 2.82722e-05 0)
(-6.01992e-06 3.09842e-05 0)
(-6.68849e-06 3.25968e-05 0)
(-6.59926e-06 3.40993e-05 0)
(-5.75293e-06 3.63331e-05 0)
(-4.11808e-06 4.00933e-05 0)
(-1.5065e-06 4.62699e-05 0)
(2.66662e-06 5.58269e-05 0)
(9.42713e-06 6.9449e-05 0)
(2.01527e-05 8.60294e-05 0)
(3.54862e-05 9.85802e-05 0)
(5.17098e-05 9.13139e-05 0)
(5.66013e-05 5.41902e-05 0)
(5.68688e-05 4.33583e-06 0)
(5.39497e-05 -5.47623e-05 0)
(4.30141e-05 -0.000141173 0)
(-4.52051e-07 -0.000412065 0)
(-8.48259e-05 -0.00132626 0)
(-9.89596e-07 1.57106e-05 0)
(-3.12762e-06 2.47753e-05 0)
(-5.16232e-06 2.93384e-05 0)
(-6.18227e-06 3.10588e-05 0)
(-6.16506e-06 3.17473e-05 0)
(-5.22629e-06 3.23961e-05 0)
(-3.35258e-06 3.36946e-05 0)
(-4.36915e-07 3.63023e-05 0)
(3.91468e-06 4.09046e-05 0)
(1.04379e-05 4.81634e-05 0)
(2.02426e-05 5.82753e-05 0)
(3.44969e-05 7.00741e-05 0)
(5.28274e-05 7.81523e-05 0)
(7.16022e-05 7.29418e-05 0)
(8.19256e-05 4.68405e-05 0)
(7.97538e-05 5.08161e-06 0)
(7.46409e-05 -4.50791e-05 0)
(6.00951e-05 -0.000116399 0)
(3.70657e-05 -0.000348861 0)
(-6.73544e-05 -0.00146595 0)
(-1.66545e-06 1.59286e-05 0)
(-4.68442e-06 2.50772e-05 0)
(-6.14384e-06 2.89463e-05 0)
(-6.22815e-06 2.98728e-05 0)
(-5.31283e-06 2.97859e-05 0)
(-3.54517e-06 2.96253e-05 0)
(-8.28164e-07 3.00428e-05 0)
(3.06669e-06 3.14722e-05 0)
(8.64019e-06 3.43655e-05 0)
(1.66497e-05 3.91143e-05 0)
(2.81028e-05 4.57213e-05 0)
(4.37496e-05 5.31074e-05 0)
(6.29392e-05 5.7969e-05 0)
(8.05499e-05 5.33787e-05 0)
(9.19205e-05 3.62969e-05 0)
(8.9463e-05 6.29908e-06 0)
(8.2284e-05 -3.10095e-05 0)
(7.31865e-05 -9.02535e-05 0)
(6.84001e-05 -0.000307748 0)
(-4.59623e-05 -0.00165332 0)
(-2.81238e-06 2.90591e-05 0)
(-5.75808e-06 3.59404e-05 0)
(-5.77424e-06 3.64479e-05 0)
(-4.2215e-06 3.39716e-05 0)
(-1.89561e-06 3.18376e-05 0)
(1.44078e-06 3.02104e-05 0)
(5.90563e-06 2.92289e-05 0)
(1.1648e-05 2.91278e-05 0)
(1.90879e-05 3.00876e-05 0)
(2.90192e-05 3.23055e-05 0)
(4.24067e-05 3.58108e-05 0)
(5.98627e-05 3.99098e-05 0)
(8.03809e-05 4.24933e-05 0)
(9.80394e-05 3.91155e-05 0)
(0.00011004 2.84947e-05 0)
(0.000109912 8.33441e-06 0)
(9.8142e-05 -1.83098e-05 0)
(0.000112659 -7.47085e-05 0)
(8.70897e-05 -0.000267122 0)
(4.00489e-05 -0.00190248 0)
(-5.10371e-06 1.55488e-05 0)
(-1.01314e-05 1.30838e-05 0)
(-1.54747e-06 1.6381e-05 0)
(1.21819e-05 2.37459e-05 0)
(2.98431e-05 2.7393e-05 0)
(4.93493e-05 2.82648e-05 0)
(6.99076e-05 2.86607e-05 0)
(9.13257e-05 2.92765e-05 0)
(0.000113815 3.01057e-05 0)
(0.000137923 3.11512e-05 0)
(0.00016436 3.24991e-05 0)
(0.000193796 3.39992e-05 0)
(0.000225378 3.48613e-05 0)
(0.000257547 3.31033e-05 0)
(0.000280876 2.66383e-05 0)
(0.000303198 1.15091e-05 0)
(0.000295357 -1.03882e-05 0)
(0.000394285 -7.94377e-05 0)
(0.000145702 -0.000206149 0)
(0.000614905 -0.00194593 0)
(0.000172502 0.000391396 0)
(0.000410551 0.000456538 0)
(0.000744208 0.000370804 0)
(0.00104936 0.000280175 0)
(0.00129013 0.000220439 0)
(0.00148749 0.000180699 0)
(0.00165736 0.000152057 0)
(0.00180509 0.000130331 0)
(0.00193323 0.000113115 0)
(0.00204521 9.92267e-05 0)
(0.00214771 8.79869e-05 0)
(0.00223941 7.81782e-05 0)
(0.00231855 6.93769e-05 0)
(0.00239632 6.06415e-05 0)
(0.00244909 5.06755e-05 0)
(0.00252657 3.7074e-05 0)
(0.00248611 2.06615e-05 0)
(0.002712 -3.39619e-05 0)
(0.00143584 3.75829e-05 0)
(0.00389731 -0.0010116 0)
)
;

boundaryField
{
    movingWall
    {
        type            calculated;
        value           nonuniform List<vector> 
20
(
(0.00423137 0 0)
(0.00653315 0 0)
(0.00843096 0 0)
(0.00953192 0 0)
(0.0101732 0 0)
(0.0105682 0 0)
(0.0108073 0 0)
(0.0109374 0 0)
(0.0109858 0 0)
(0.0109748 0 0)
(0.010938 0 0)
(0.0108658 0 0)
(0.0107586 0 0)
(0.0106719 0 0)
(0.0105664 0 0)
(0.0105708 0 0)
(0.0106611 0 0)
(0.010695 0 0)
(0.0113036 0 0)
(0.0102882 0 0)
)
;
    }
    fixedWalls
    {
        type            calculated;
        value           uniform (0 0 0);
    }
    frontAndBack
    {
        type            empty;
    }
}


// ************************************************************************* //
