/*--------------------------------*- C++ -*----------------------------------*\
| =========                 |                                                 |
| \\      /  F ield         | OpenFOAM: The Open Source CFD Toolbox           |
|  \\    /   O peration     | Version:  2312                                  |
|   \\  /    A nd           | Website:  www.openfoam.com                      |
|    \\/     M anipulation  |                                                 |
\*---------------------------------------------------------------------------*/
FoamFile
{
    version     2.0;
    format      ascii;
    arch        "LSB;label=32;scalar=64";
    class       volTensorField;
    location    "1";
    object      kU2;
}
// * * * * * * * * * * * * * * * * * * * * * * * * * * * * * * * * * * * * * //

dimensions      [0 4 -4 0 0 0 0];

internalField   nonuniform List<tensor> 
400
(
(5.17915e-12 -5.20119e-12 -0 -5.20368e-12 5.22583e-12 0 -0 0 0)
(2.67318e-10 -1.50579e-10 -0 -1.50434e-10 8.47387e-11 0 -0 0 0)
(2.05689e-09 -6.77663e-10 -0 -6.77125e-10 2.23085e-10 0 -0 0 0)
(6.56289e-09 -1.43436e-09 -0 -1.43353e-09 3.13306e-10 0 -0 0 0)
(1.43517e-08 -2.22743e-09 -0 -2.22689e-09 3.45621e-10 0 -0 0 0)
(2.53788e-08 -2.95109e-09 -0 -2.95169e-09 3.43226e-10 0 -0 0 0)
(3.92759e-08 -3.54352e-09 -0 -3.54612e-09 3.19936e-10 0 -0 0 0)
(5.53838e-08 -3.9333e-09 -0 -3.93857e-09 2.79713e-10 0 -0 0 0)
(7.25995e-08 -3.99981e-09 -0 -4.00783e-09 2.20808e-10 0 -0 0 0)
(8.92541e-08 -3.55098e-09 -0 -3.56053e-09 1.41656e-10 0 -0 0 0)
(1.02911e-07 -2.3941e-09 -0 -2.40321e-09 5.59076e-11 0 -0 0 0)
(1.09368e-07 -8.38769e-10 -0 -8.45152e-10 6.48166e-12 0 -0 0 0)
(1.08117e-07 1.68231e-09 -0 1.6839e-09 2.62017e-11 -0 -0 -0 0)
(9.56009e-08 4.1499e-09 -0 4.16023e-09 1.80589e-10 -0 -0 -0 0)
(7.37524e-08 5.90079e-09 -0 5.91804e-09 4.73492e-10 -0 -0 -0 0)
(4.73517e-08 6.16323e-09 -0 6.18176e-09 8.04609e-10 -0 -0 -0 0)
(2.34737e-08 4.75626e-09 -0 4.76972e-09 9.66445e-10 -0 -0 -0 0)
(7.79846e-09 2.44247e-09 -0 2.44828e-09 7.668e-10 -0 -0 -0 0)
(1.14732e-09 5.87466e-10 -0 5.88655e-10 3.0141e-10 -0 -0 -0 0)
(3.41012e-11 3.40339e-11 -0 3.40871e-11 3.40199e-11 -0 -0 -0 0)
(8.33968e-11 -1.49925e-10 -0 -1.50089e-10 2.69818e-10 0 -0 0 0)
(1.76478e-09 -1.79296e-09 -0 -1.79347e-09 1.82211e-09 0 -0 0 0)
(8.08123e-09 -5.46035e-09 -0 -5.46111e-09 3.68998e-09 0 -0 0 0)
(2.08721e-08 -1.01112e-08 -0 -1.01131e-08 4.89914e-09 0 -0 0 0)
(4.06608e-08 -1.47832e-08 -0 -1.4789e-08 5.37689e-09 0 -0 0 0)
(6.70008e-08 -1.88847e-08 -0 -1.88982e-08 5.32662e-09 0 -0 0 0)
(9.88599e-08 -2.20145e-08 -0 -2.20396e-08 4.90786e-09 0 -0 0 0)
(1.34672e-07 -2.37433e-08 -0 -2.37819e-08 4.19285e-09 0 -0 0 0)
(1.72173e-07 -2.34745e-08 -0 -2.35247e-08 3.20742e-09 0 -0 0 0)
(2.08097e-07 -2.041e-08 -0 -2.04641e-08 2.00711e-09 0 -0 0 0)
(2.37803e-07 -1.37684e-08 -0 -1.38134e-08 7.9977e-10 0 -0 0 0)
(2.54726e-07 -3.4172e-09 -0 -3.43719e-09 4.61106e-11 0 -0 0 0)
(2.52963e-07 9.97692e-09 -0 9.99917e-09 3.9437e-10 -0 -0 -0 0)
(2.29307e-07 2.40125e-08 -0 2.40851e-08 2.52214e-09 -0 -0 -0 0)
(1.84451e-07 3.44713e-08 -0 3.4582e-08 6.46289e-09 -0 -0 -0 0)
(1.26657e-07 3.7156e-08 -0 3.72727e-08 1.09343e-08 -0 -0 -0 0)
(6.98562e-08 3.04831e-08 -0 3.05682e-08 1.3339e-08 -0 -0 -0 0)
(2.78479e-08 1.77989e-08 -0 1.78373e-08 1.14007e-08 -0 -0 -0 0)
(5.95718e-09 5.86558e-09 -0 5.87405e-09 5.78373e-09 -0 -0 -0 0)
(2.88523e-10 5.66381e-10 -0 5.66581e-10 1.11222e-09 -0 -0 -0 0)
(2.40766e-10 -7.11498e-10 -0 -7.11832e-10 2.10357e-09 0 -0 0 0)
(3.83595e-09 -5.73405e-09 -0 -5.73543e-09 8.57341e-09 0 -0 0 0)
(1.45008e-08 -1.45674e-08 -0 -1.4572e-08 1.4639e-08 0 -0 0 0)
(3.40805e-08 -2.52042e-08 -0 -2.5215e-08 1.86477e-08 0 -0 0 0)
(6.30029e-08 -3.58884e-08 -0 -3.59114e-08 2.04562e-08 0 -0 0 0)
(1.00804e-07 -4.5396e-08 -0 -4.54392e-08 2.0463e-08 0 -0 0 0)
(1.46368e-07 -5.27382e-08 -0 -5.28088e-08 1.90277e-08 0 -0 0 0)
(1.97818e-07 -5.68178e-08 -0 -5.69189e-08 1.63483e-08 0 -0 0 0)
(2.52278e-07 -5.62101e-08 -0 -5.63364e-08 1.25523e-08 0 -0 0 0)
(3.05412e-07 -4.91512e-08 -0 -4.9286e-08 7.93178e-09 0 -0 0 0)
(3.50887e-07 -3.39513e-08 -0 -3.40657e-08 3.29614e-09 0 -0 0 0)
(3.79836e-07 -9.93062e-09 -0 -9.98675e-09 2.61098e-10 0 -0 0 0)
(3.83956e-07 2.13932e-08 -0 2.14338e-08 1.19425e-09 -0 -0 -0 0)
(3.55576e-07 5.47647e-08 -0 5.49245e-08 8.4593e-09 -0 -0 -0 0)
(2.93393e-07 8.08065e-08 -0 8.10692e-08 2.23282e-08 -0 -0 -0 0)
(2.07254e-07 8.91638e-08 -0 8.94633e-08 3.84884e-08 -0 -0 -0 0)
(1.18149e-07 7.52286e-08 -0 7.54726e-08 4.80556e-08 -0 -0 -0 0)
(4.93819e-08 4.62491e-08 -0 4.6383e-08 4.34404e-08 -0 -0 -0 0)
(1.15357e-08 1.72512e-08 -0 1.72965e-08 2.58665e-08 -0 -0 -0 0)
(6.55732e-10 2.19371e-09 -0 2.19873e-09 7.35571e-09 -0 -0 -0 0)
(3.65553e-10 -1.59111e-09 -0 -1.59161e-09 6.92769e-09 0 -0 0 0)
(5.44804e-09 -1.11008e-08 -0 -1.11034e-08 2.2624e-08 0 -0 0 0)
(1.94726e-08 -2.62087e-08 -0 -2.62199e-08 3.52901e-08 0 -0 0 0)
(4.42537e-08 -4.39948e-08 -0 -4.40222e-08 4.37646e-08 0 -0 0 0)
(8.02055e-08 -6.20449e-08 -0 -6.20984e-08 4.80377e-08 0 -0 0 0)
(1.27084e-07 -7.85468e-08 -0 -7.86393e-08 4.86045e-08 0 -0 0 0)
(1.84212e-07 -9.19058e-08 -0 -9.20488e-08 4.59243e-08 0 -0 0 0)
(2.50216e-07 -1.00249e-07 -0 -1.00447e-07 4.0244e-08 0 -0 0 0)
(3.22617e-07 -1.01066e-07 -0 -1.01312e-07 3.17379e-08 0 -0 0 0)
(3.97067e-07 -9.11026e-08 -0 -9.13701e-08 2.09639e-08 0 -0 0 0)
(4.66192e-07 -6.68176e-08 -0 -6.70588e-08 9.6113e-09 0 -0 0 0)
(5.1863e-07 -2.58176e-08 -0 -2.5963e-08 1.29245e-09 0 -0 0 0)
(5.40989e-07 3.06406e-08 -0 3.06701e-08 1.7371e-09 -0 -0 -0 0)
(5.17282e-07 9.44705e-08 -0 9.47425e-08 1.73027e-08 -0 -0 -0 0)
(4.38722e-07 1.48158e-07 -0 1.48686e-07 5.02118e-08 -0 -0 -0 0)
(3.1447e-07 1.69032e-07 -0 1.69719e-07 9.12263e-08 -0 -0 -0 0)
(1.78051e-07 1.44476e-07 -0 1.45118e-07 1.17754e-07 -0 -0 -0 0)
(7.20542e-08 8.86122e-08 -0 8.90335e-08 1.09493e-07 -0 -0 -0 0)
(1.57211e-08 3.27373e-08 -0 3.29142e-08 6.85398e-08 -0 -0 -0 0)
(8.46095e-10 4.35921e-09 -0 4.38738e-09 2.26045e-08 -0 -0 -0 0)
(4.32101e-10 -2.603e-09 -0 -2.60407e-09 1.5687e-08 0 -0 0 0)
(6.41672e-09 -1.70528e-08 -0 -1.70596e-08 4.53368e-08 0 -0 0 0)
(2.28121e-08 -3.91097e-08 -0 -3.91358e-08 6.70955e-08 0 -0 0 0)
(5.16112e-08 -6.494e-08 -0 -6.49998e-08 8.17863e-08 0 -0 0 0)
(9.34159e-08 -9.16294e-08 -0 -9.17394e-08 8.99849e-08 0 -0 0 0)
(1.48434e-07 -1.1693e-07 -0 -1.17109e-07 9.22533e-08 0 -0 0 0)
(2.16929e-07 -1.38813e-07 -0 -1.39078e-07 8.89964e-08 0 -0 0 0)
(2.98893e-07 -1.54728e-07 -0 -1.55088e-07 8.02845e-08 0 -0 0 0)
(3.93516e-07 -1.60957e-07 -0 -1.61405e-07 6.6018e-08 0 -0 0 0)
(4.9798e-07 -1.52126e-07 -0 -1.52628e-07 4.66259e-08 0 -0 0 0)
(6.05297e-07 -1.21315e-07 -0 -1.218e-07 2.44115e-08 0 -0 0 0)
(7.01673e-07 -6.17189e-08 -0 -6.20681e-08 5.45948e-09 0 -0 0 0)
(7.65655e-07 2.91732e-08 -0 2.91252e-08 1.10974e-09 -0 -0 -0 0)
(7.65351e-07 1.42431e-07 -0 1.42876e-07 2.65891e-08 -0 -0 -0 0)
(6.71504e-07 2.48392e-07 -0 2.49473e-07 9.22813e-08 -0 -0 -0 0)
(4.84859e-07 2.97538e-07 -0 2.99148e-07 1.83575e-07 -0 -0 -0 0)
(2.64183e-07 2.5485e-07 -0 2.56541e-07 2.47478e-07 -0 -0 -0 0)
(9.64537e-08 1.48823e-07 -0 1.50096e-07 2.31591e-07 -0 -0 -0 0)
(1.71896e-08 4.92619e-08 -0 4.9858e-08 1.42883e-07 -0 -0 -0 0)
(7.2074e-10 5.89544e-09 -0 5.99951e-09 4.90742e-08 -0 -0 -0 0)
(4.58069e-10 -3.62657e-09 -0 -3.62925e-09 2.87331e-08 0 -0 0 0)
(6.87896e-09 -2.30208e-08 -0 -2.30378e-08 7.70973e-08 0 -0 0 0)
(2.47659e-08 -5.23283e-08 -0 -5.23833e-08 1.10681e-07 0 -0 0 0)
(5.64735e-08 -8.68087e-08 -0 -8.69259e-08 1.33619e-07 0 -0 0 0)
(1.0304e-07 -1.2327e-07 -0 -1.23475e-07 1.47717e-07 0 -0 0 0)
(1.65406e-07 -1.59334e-07 -0 -1.59654e-07 1.53794e-07 0 -0 0 0)
(2.45306e-07 -1.9296e-07 -0 -1.93424e-07 1.52149e-07 0 -0 0 0)
(3.4516e-07 -2.21391e-07 -0 -2.22018e-07 1.42406e-07 0 -0 0 0)
(4.67664e-07 -2.40017e-07 -0 -2.40807e-07 1.23588e-07 0 -0 0 0)
(6.14413e-07 -2.41027e-07 -0 -2.41944e-07 9.49118e-08 0 -0 0 0)
(7.82663e-07 -2.12253e-07 -0 -2.13203e-07 5.78191e-08 0 -0 0 0)
(9.58542e-07 -1.37434e-07 -0 -1.38219e-07 1.98176e-08 0 -0 0 0)
(1.11137e-06 -1.96357e-09 -0 -2.24069e-09 3.95885e-12 0 -0 0 0)
(1.18146e-06 1.93652e-07 -0 1.94356e-07 3.18566e-08 -0 -0 -0 0)
(1.08798e-06 4.05905e-07 -0 4.08097e-07 1.52254e-07 -0 -0 -0 0)
(7.92529e-07 5.24663e-07 -0 5.28315e-07 3.4975e-07 -0 -0 -0 0)
(4.03687e-07 4.48017e-07 -0 4.52175e-07 5.01829e-07 -0 -0 -0 0)
(1.18971e-07 2.32793e-07 -0 2.36207e-07 4.62191e-07 -0 -0 -0 0)
(1.23987e-08 5.61542e-08 -0 5.79295e-08 2.62364e-07 -0 -0 -0 0)
(1.80537e-10 3.73593e-09 -0 4.07484e-09 8.43223e-08 -0 -0 -0 0)
(4.59008e-10 -4.5951e-09 -0 -4.60119e-09 4.60622e-08 0 -0 0 0)
(6.98072e-09 -2.86495e-08 -0 -2.86867e-08 1.17733e-07 0 -0 0 0)
(2.55854e-08 -6.51516e-08 -0 -6.52575e-08 1.66174e-07 0 -0 0 0)
(5.90405e-08 -1.08508e-07 -0 -1.0872e-07 1.99811e-07 0 -0 0 0)
(1.08959e-07 -1.55513e-07 -0 -1.55869e-07 2.22467e-07 0 -0 0 0)
(1.77237e-07 -2.04116e-07 -0 -2.0466e-07 2.35698e-07 0 -0 0 0)
(2.6759e-07 -2.53025e-07 -0 -2.53804e-07 2.3999e-07 0 -0 0 0)
(3.86057e-07 -3.00375e-07 -0 -3.0143e-07 2.3453e-07 0 -0 0 0)
(5.41454e-07 -3.42024e-07 -0 -3.43385e-07 2.16909e-07 0 -0 0 0)
(7.44818e-07 -3.68769e-07 -0 -3.70421e-07 1.834e-07 0 -0 0 0)
(1.00581e-06 -3.62085e-07 -0 -3.63912e-07 1.31006e-07 0 -0 0 0)
(1.32306e-06 -2.8998e-07 -0 -2.91684e-07 6.39294e-08 0 -0 0 0)
(1.66147e-06 -1.07617e-07 -0 -1.08612e-07 7.03503e-09 0 -0 0 0)
(1.93079e-06 2.22245e-07 -0 2.2289e-07 2.56558e-08 -0 -0 -0 0)
(1.93156e-06 6.64234e-07 -0 6.67542e-07 2.29558e-07 -0 -0 -0 0)
(1.4721e-06 9.86678e-07 -0 9.92287e-07 6.65085e-07 -0 -0 -0 0)
(7.30646e-07 8.80682e-07 -0 8.8607e-07 1.06802e-06 -0 -0 -0 0)
(1.64524e-07 3.98096e-07 -0 4.02332e-07 9.73514e-07 -0 -0 -0 0)
(2.56908e-09 3.24028e-08 -0 3.56081e-08 4.49111e-07 -0 -0 -0 0)
(7.14778e-10 -9.31227e-09 0 -8.3348e-09 1.08588e-07 -0 0 -0 0)
(4.43606e-10 -5.46506e-09 -0 -5.47727e-09 6.74779e-08 0 -0 0 0)
(6.81789e-09 -3.36694e-08 -0 -3.3741e-08 1.66626e-07 0 -0 0 0)
(2.54315e-08 -7.68896e-08 -0 -7.7078e-08 2.33038e-07 0 -0 0 0)
(5.93455e-08 -1.28742e-07 -0 -1.29101e-07 2.80068e-07 0 -0 0 0)
(1.10675e-07 -1.8627e-07 -0 -1.86858e-07 3.1449e-07 0 -0 0 0)
(1.8227e-07 -2.48311e-07 -0 -2.49194e-07 3.39483e-07 0 -0 0 0)
(2.80041e-07 -3.15394e-07 -0 -3.16651e-07 3.56626e-07 0 -0 0 0)
(4.14627e-07 -3.88452e-07 -0 -3.90176e-07 3.65543e-07 0 -0 0 0)
(6.03826e-07 -4.66921e-07 -0 -4.69212e-07 3.62828e-07 0 -0 0 0)
(8.75287e-07 -5.44572e-07 -0 -5.47499e-07 3.40634e-07 0 -0 0 0)
(1.26669e-06 -6.00386e-07 -0 -6.03903e-07 2.86238e-07 0 -0 0 0)
(1.81781e-06 -5.83662e-07 -0 -5.87496e-07 1.88633e-07 0 -0 0 0)
(2.54576e-06 -3.9711e-07 -0 -4.00697e-07 6.25041e-08 0 -0 0 0)
(3.3609e-06 1.09416e-07 -0 1.06877e-07 3.47945e-09 -0 -0 -0 0)
(3.91416e-06 1.02993e-06 -0 1.02757e-06 2.70384e-07 -0 -0 -0 0)
(3.5622e-06 2.04398e-06 -0 2.03557e-06 1.168e-06 -0 -0 -0 0)
(2.28548e-06 2.36022e-06 -0 2.34112e-06 2.41767e-06 -0 -0 -0 0)
(6.87856e-07 1.34534e-06 -0 1.32415e-06 2.58983e-06 -0 -0 -0 0)
(8.4318e-09 9.49123e-08 -0 8.90696e-08 1.00261e-06 -0 -0 -0 0)
(9.83254e-09 -3.38089e-08 0 -3.26678e-08 1.12327e-07 -0 0 -0 0)
(4.17391e-10 -6.2086e-09 -0 -6.23058e-09 9.26785e-08 0 -0 0 0)
(6.4615e-09 -3.78819e-08 -0 -3.80068e-08 2.22823e-07 0 -0 0 0)
(2.44373e-08 -8.68779e-08 -0 -8.71897e-08 3.09971e-07 0 -0 0 0)
(5.74073e-08 -1.46002e-07 -0 -1.46577e-07 3.72783e-07 0 -0 0 0)
(1.07642e-07 -2.12695e-07 -0 -2.13615e-07 4.22094e-07 0 -0 0 0)
(1.7854e-07 -2.87162e-07 -0 -2.88529e-07 4.64067e-07 0 -0 0 0)
(2.77781e-07 -3.72894e-07 -0 -3.74843e-07 5.0319e-07 0 -0 0 0)
(4.20476e-07 -4.76038e-07 -0 -4.78756e-07 5.42019e-07 0 -0 0 0)
(6.34755e-07 -6.04591e-07 -0 -6.08331e-07 5.79422e-07 0 -0 0 0)
(9.71323e-07 -7.6498e-07 -0 -7.70055e-07 6.06468e-07 0 -0 0 0)
(1.51635e-06 -9.50083e-07 -0 -9.56856e-07 5.99525e-07 0 -0 0 0)
(2.4072e-06 -1.11314e-06 -0 -1.12224e-06 5.18949e-07 0 -0 0 0)
(3.85467e-06 -1.11893e-06 -0 -1.13187e-06 3.28557e-07 0 -0 0 0)
(6.02532e-06 -6.25223e-07 -0 -6.46895e-07 6.71257e-08 0 -0 0 0)
(8.71596e-06 9.58922e-07 -0 9.25996e-07 1.01877e-07 -0 -0 -0 0)
(1.08587e-05 4.12937e-06 -0 4.08896e-06 1.55497e-06 -0 -0 -0 0)
(1.02509e-05 7.6736e-06 -0 7.62257e-06 5.70609e-06 -0 -0 -0 0)
(5.4322e-06 6.89522e-06 -0 6.81657e-06 8.65243e-06 -0 -0 -0 0)
(7.37034e-07 1.80519e-06 -0 1.74865e-06 4.2829e-06 -0 -0 -0 0)
(2.01462e-08 -6.32757e-08 0 -6.41991e-08 2.01638e-07 -0 0 -0 0)
(3.86168e-10 -6.82688e-09 -0 -6.8631e-09 1.21329e-07 0 -0 0 0)
(5.98865e-09 -4.12222e-08 -0 -4.1423e-08 2.8513e-07 0 -0 0 0)
(2.27958e-08 -9.46301e-08 -0 -9.5114e-08 3.94838e-07 0 -0 0 0)
(5.3437e-08 -1.58821e-07 -0 -1.5969e-07 4.74619e-07 0 -0 0 0)
(9.97286e-08 -2.31513e-07 -0 -2.3288e-07 5.40615e-07 0 -0 0 0)
(1.64765e-07 -3.14386e-07 -0 -3.16399e-07 6.03719e-07 0 -0 0 0)
(2.56621e-07 -4.1445e-07 -0 -4.17326e-07 6.73992e-07 0 -0 0 0)
(3.92645e-07 -5.4474e-07 -0 -5.48819e-07 7.61408e-07 0 -0 0 0)
(6.08055e-07 -7.265e-07 -0 -7.3232e-07 8.74971e-07 0 -0 0 0)
(9.74135e-07 -9.91794e-07 -0 -1.00023e-06 1.01836e-06 0 -0 0 0)
(1.63174e-06 -1.38108e-06 -0 -1.39393e-06 1.1798e-06 0 -0 0 0)
(2.85479e-06 -1.93363e-06 -0 -1.95549e-06 1.32451e-06 0 -0 0 0)
(5.21089e-06 -2.62348e-06 -0 -2.66114e-06 1.33978e-06 0 -0 0 0)
(9.67507e-06 -3.00484e-06 -0 -3.05985e-06 9.50316e-07 0 -0 0 0)
(1.61971e-05 -1.13456e-06 -0 -1.17219e-06 8.21084e-08 0 -0 0 0)
(2.23252e-05 5.55386e-06 -0 5.59143e-06 1.39098e-06 -0 -0 -0 0)
(2.52594e-05 1.62657e-05 -0 1.63388e-05 1.05213e-05 -0 -0 -0 0)
(1.93974e-05 2.11925e-05 -0 2.12123e-05 2.31755e-05 -0 -0 -0 0)
(7.30629e-06 1.20914e-05 -0 1.20425e-05 1.99295e-05 -0 -0 -0 0)
(4.52722e-08 2.46535e-07 -0 2.21735e-07 1.20748e-06 -0 -0 -0 0)
(3.58535e-10 -7.38268e-09 -0 -7.43808e-09 1.53159e-07 0 -0 0 0)
(5.5094e-09 -4.39054e-08 -0 -4.42073e-08 3.52296e-07 0 -0 0 0)
(2.08328e-08 -1.00137e-07 -0 -1.00844e-07 4.84731e-07 0 -0 0 0)
(4.80198e-08 -1.66309e-07 -0 -1.67551e-07 5.80288e-07 0 -0 0 0)
(8.76979e-08 -2.39933e-07 -0 -2.41854e-07 6.6169e-07 0 -0 0 0)
(1.4157e-07 -3.23641e-07 -0 -3.26439e-07 7.46267e-07 0 -0 0 0)
(2.16053e-07 -4.27132e-07 -0 -4.31125e-07 8.52322e-07 0 -0 0 0)
(3.26367e-07 -5.69072e-07 -0 -5.74797e-07 1.00225e-06 0 -0 0 0)
(5.05226e-07 -7.82764e-07 -0 -7.91169e-07 1.22579e-06 0 -0 0 0)
(8.23295e-07 -1.12816e-06 -0 -1.14108e-06 1.56362e-06 0 -0 0 0)
(1.42825e-06 -1.71108e-06 -0 -1.73297e-06 2.07615e-06 0 -0 0 0)
(2.59982e-06 -2.70533e-06 -0 -2.74674e-06 2.85821e-06 0 -0 0 0)
(4.94583e-06 -4.28183e-06 -0 -4.35226e-06 3.76795e-06 0 -0 0 0)
(9.42746e-06 -5.78153e-06 -0 -5.86366e-06 3.59598e-06 0 -0 0 0)
(1.59314e-05 -4.20656e-06 -0 -4.23171e-06 1.11735e-06 0 -0 0 0)
(2.2085e-05 4.12764e-06 -0 4.23762e-06 7.92004e-07 -0 -0 -0 0)
(2.59347e-05 1.79704e-05 -0 1.82157e-05 1.26219e-05 -0 -0 -0 0)
(2.78802e-05 3.36245e-05 -0 3.39266e-05 4.09168e-05 -0 -0 -0 0)
(1.86742e-05 3.31324e-05 -0 3.33654e-05 5.91978e-05 -0 -0 -0 0)
(2.35484e-06 5.97038e-06 -0 5.99934e-06 1.52105e-05 -0 -0 -0 0)
(3.49428e-10 -8.07596e-09 -0 -8.15628e-09 1.88507e-07 0 -0 0 0)
(5.17187e-09 -4.65784e-08 -0 -4.70063e-08 4.23343e-07 0 -0 0 0)
(1.90363e-08 -1.0425e-07 -0 -1.05227e-07 5.76267e-07 0 -0 0 0)
(4.21645e-08 -1.68842e-07 -0 -1.70517e-07 6.82813e-07 0 -0 0 0)
(7.33969e-08 -2.37006e-07 -0 -2.39545e-07 7.73516e-07 0 -0 0 0)
(1.12273e-07 -3.11294e-07 -0 -3.14935e-07 8.7321e-07 0 -0 0 0)
(1.61955e-07 -4.01781e-07 -0 -4.06923e-07 1.0095e-06 0 -0 0 0)
(2.3156e-07 -5.27655e-07 -0 -5.35004e-07 1.21911e-06 0 -0 0 0)
(3.41036e-07 -7.23402e-07 -0 -7.34274e-07 1.55753e-06 0 -0 0 0)
(5.32857e-07 -1.05362e-06 -0 -1.07071e-06 2.11711e-06 0 -0 0 0)
(8.90329e-07 -1.63844e-06 -0 -1.66822e-06 3.06997e-06 0 -0 0 0)
(1.51716e-06 -2.63084e-06 -0 -2.686e-06 4.65767e-06 0 -0 0 0)
(2.60881e-06 -4.14726e-06 -0 -4.24004e-06 6.74045e-06 0 -0 0 0)
(4.5085e-06 -5.44302e-06 -0 -5.55262e-06 6.70357e-06 0 -0 0 0)
(6.75172e-06 -4.18084e-06 -0 -4.2394e-06 2.62515e-06 0 -0 0 0)
(8.15715e-06 9.15727e-07 -0 9.89153e-07 1.11043e-07 -0 -0 -0 0)
(9.52855e-06 8.91137e-06 -0 9.14951e-06 8.55688e-06 -0 -0 -0 0)
(1.47627e-05 2.40829e-05 -0 2.45053e-05 3.99763e-05 -0 -0 -0 0)
(1.94645e-05 4.54114e-05 -0 4.60062e-05 0.000107334 -0 -0 -0 0)
(6.35321e-06 2.2116e-05 -0 2.24287e-05 7.80761e-05 -0 -0 -0 0)
(3.82426e-10 -9.2795e-09 -0 -9.39111e-09 2.27874e-07 0 -0 0 0)
(5.22702e-09 -5.07363e-08 -0 -5.13111e-08 4.98053e-07 0 -0 0 0)
(1.80588e-08 -1.09035e-07 -0 -1.10311e-07 6.66034e-07 0 -0 0 0)
(3.71587e-08 -1.68568e-07 -0 -1.70696e-07 7.7435e-07 0 -0 0 0)
(5.93942e-08 -2.2483e-07 -0 -2.27975e-07 8.62972e-07 0 -0 0 0)
(8.23356e-08 -2.79609e-07 -0 -2.84019e-07 9.64519e-07 0 -0 0 0)
(1.0602e-07 -3.40522e-07 -0 -3.46627e-07 1.11332e-06 0 -0 0 0)
(1.33191e-07 -4.20697e-07 -0 -4.29263e-07 1.35587e-06 0 -0 0 0)
(1.6974e-07 -5.4127e-07 -0 -5.53731e-07 1.76574e-06 0 -0 0 0)
(2.2584e-07 -7.37368e-07 -0 -7.56716e-07 2.47068e-06 0 -0 0 0)
(3.13763e-07 -1.0612e-06 -0 -1.09405e-06 3.70024e-06 0 -0 0 0)
(4.18359e-07 -1.5179e-06 -0 -1.57667e-06 5.7205e-06 0 -0 0 0)
(4.90473e-07 -1.95616e-06 -0 -2.05197e-06 8.18391e-06 0 -0 0 0)
(5.4444e-07 -2.01313e-06 -0 -2.12634e-06 7.86239e-06 0 -0 0 0)
(6.54489e-07 -1.44438e-06 -0 -1.52484e-06 3.36514e-06 0 -0 0 0)
(5.55627e-07 -3.34567e-08 -0 -9.96436e-09 5.99998e-10 0 -0 0 0)
(7.00068e-07 1.756e-06 -0 1.90399e-06 4.77583e-06 -0 -0 -0 0)
(2.27482e-06 7.69476e-06 -0 8.02396e-06 2.71417e-05 -0 -0 -0 0)
(8.60487e-06 3.10506e-05 -0 3.1654e-05 0.000114223 -0 -0 -0 0)
(5.88711e-06 3.26896e-05 -0 3.32546e-05 0.000184654 -0 -0 -0 0)
(5.06144e-10 -1.17661e-08 -0 -1.19154e-08 2.76992e-07 0 -0 0 0)
(5.9798e-09 -5.84667e-08 -0 -5.92001e-08 5.78821e-07 0 -0 0 0)
(1.8641e-08 -1.17578e-07 -0 -1.19148e-07 7.51525e-07 0 -0 0 0)
(3.4221e-08 -1.69049e-07 -0 -1.71583e-07 8.47606e-07 0 -0 0 0)
(4.79762e-08 -2.08162e-07 -0 -2.11797e-07 9.18956e-07 0 -0 0 0)
(5.67206e-08 -2.36086e-07 -0 -2.41039e-07 1.00327e-06 0 -0 0 0)
(5.95917e-08 -2.5717e-07 -0 -2.63845e-07 1.13863e-06 0 -0 0 0)
(5.70297e-08 -2.7533e-07 -0 -2.84439e-07 1.37322e-06 0 -0 0 0)
(4.96496e-08 -2.90996e-07 -0 -3.03706e-07 1.78002e-06 0 -0 0 0)
(3.7272e-08 -2.94552e-07 -0 -3.1348e-07 2.47737e-06 0 -0 0 0)
(1.91561e-08 -2.50002e-07 -0 -2.80392e-07 3.65935e-06 0 -0 0 0)
(8.99599e-10 -4.86161e-08 -0 -1.01793e-07 5.50112e-06 0 -0 0 0)
(3.19964e-08 5.36684e-07 0 4.52223e-07 7.58525e-06 0 0 0 0)
(2.16421e-07 1.30415e-06 0 1.19753e-06 7.2163e-06 0 0 0 0)
(3.75137e-07 1.12803e-06 0 1.04466e-06 3.14128e-06 0 0 0 0)
(5.61704e-07 7.6857e-08 0 4.78242e-08 6.54369e-09 0 0 0 0)
(4.26047e-07 -1.22098e-06 0 -1.17651e-06 3.37169e-06 -0 0 -0 0)
(6.78413e-08 -1.15345e-06 0 -1.03381e-06 1.7577e-05 -0 0 -0 0)
(1.42994e-06 1.09771e-05 -0 1.13558e-05 8.71747e-05 -0 -0 -0 0)
(3.13837e-06 2.9837e-05 -0 3.03509e-05 0.000288551 -0 -0 -0 0)
(8.79117e-10 -1.69272e-08 -0 -1.71267e-08 3.2977e-07 0 -0 0 0)
(8.35563e-09 -7.40325e-08 -0 -7.49127e-08 6.63741e-07 0 -0 0 0)
(2.18871e-08 -1.33669e-07 -0 -1.35454e-07 8.27244e-07 0 -0 0 0)
(3.4312e-08 -1.73783e-07 -0 -1.76602e-07 8.9445e-07 0 -0 0 0)
(4.00267e-08 -1.91198e-07 -0 -1.95073e-07 9.31815e-07 0 -0 0 0)
(3.77145e-08 -1.89765e-07 -0 -1.94876e-07 9.8054e-07 0 -0 0 0)
(2.80688e-08 -1.70571e-07 -0 -1.77271e-07 1.07726e-06 0 -0 0 0)
(1.42362e-08 -1.29672e-07 -0 -1.38603e-07 1.26248e-06 0 -0 0 0)
(2.06403e-09 -5.1906e-08 -0 -6.33934e-08 1.59421e-06 0 -0 0 0)
(4.13596e-09 1.0313e-07 0 8.65883e-08 2.15908e-06 0 0 0 0)
(5.29697e-08 4.16241e-07 0 3.90224e-07 3.06642e-06 0 0 0 0)
(2.29726e-07 1.02149e-06 0 9.80671e-07 4.3606e-06 0 0 0 0)
(7.08939e-07 2.03218e-06 0 1.96942e-06 5.64535e-06 0 0 0 0)
(1.64793e-06 2.99432e-06 0 2.91007e-06 5.28764e-06 0 0 0 0)
(2.40876e-06 2.38389e-06 0 2.30615e-06 2.28234e-06 0 0 0 0)
(2.76162e-06 2.54986e-07 0 2.10554e-07 1.94409e-08 0 0 0 0)
(2.32141e-06 -2.35295e-06 0 -2.35637e-06 2.38839e-06 -0 0 -0 0)
(1.1694e-06 -3.85046e-06 0 -3.83802e-06 1.26373e-05 -0 0 -0 0)
(2.3064e-10 6.8271e-08 -0 2.10239e-07 6.22321e-05 -0 -0 -0 0)
(1.43861e-06 2.22336e-05 -0 2.24928e-05 0.000347625 -0 -0 -0 0)
(1.77697e-09 -2.80454e-08 -0 -2.82109e-08 4.45243e-07 0 -0 0 0)
(1.24146e-08 -9.74447e-08 -0 -9.83418e-08 7.71905e-07 0 -0 0 0)
(2.79503e-08 -1.57063e-07 -0 -1.58847e-07 8.9262e-07 0 -0 0 0)
(3.64874e-08 -1.80558e-07 -0 -1.83307e-07 9.07097e-07 0 -0 0 0)
(3.45324e-08 -1.74151e-07 -0 -1.77827e-07 8.96799e-07 0 -0 0 0)
(2.42126e-08 -1.45332e-07 -0 -1.50086e-07 9.0087e-07 0 -0 0 0)
(9.95491e-09 -9.40217e-08 -0 -1.0005e-07 9.4495e-07 0 -0 0 0)
(2.4609e-10 -1.27261e-08 -0 -2.04471e-08 1.05739e-06 0 -0 0 0)
(1.07329e-08 1.22085e-07 0 1.12148e-07 1.27566e-06 0 0 0 0)
(7.45568e-08 3.57414e-07 0 3.44027e-07 1.64922e-06 0 0 0 0)
(2.61337e-07 7.7174e-07 0 7.52349e-07 2.22172e-06 0 0 0 0)
(7.04246e-07 1.45927e-06 0 1.43055e-06 2.96423e-06 0 0 0 0)
(1.59509e-06 2.40217e-06 0 2.35976e-06 3.55374e-06 0 0 0 0)
(3.02972e-06 3.14417e-06 0 3.0864e-06 3.20299e-06 0 0 0 0)
(4.36503e-06 2.55419e-06 0 2.49568e-06 1.46035e-06 0 0 0 0)
(4.66116e-06 3.35907e-07 0 2.96991e-07 2.14027e-08 0 0 0 0)
(3.94096e-06 -2.36271e-06 0 -2.38013e-06 1.42695e-06 -0 0 -0 0)
(2.2337e-06 -4.31804e-06 0 -4.32649e-06 8.36369e-06 -0 0 -0 0)
(4.94659e-07 -4.6932e-06 0 -4.65572e-06 4.41723e-05 -0 0 -0 0)
(8.25976e-07 1.79072e-05 -0 1.79771e-05 0.000389745 -0 -0 -0 0)
(4.90065e-09 -4.6603e-08 -0 -4.68707e-08 4.45719e-07 0 -0 0 0)
(2.73587e-08 -1.45544e-07 -0 -1.4646e-07 7.79144e-07 0 -0 0 0)
(3.95337e-08 -1.84608e-07 -0 -1.86261e-07 8.69771e-07 0 -0 0 0)
(3.74326e-08 -1.77233e-07 -0 -1.79542e-07 8.50084e-07 0 -0 0 0)
(2.61362e-08 -1.43468e-07 -0 -1.4653e-07 8.04341e-07 0 -0 0 0)
(1.14706e-08 -9.20634e-08 -0 -9.58545e-08 7.69329e-07 0 -0 0 0)
(7.13694e-10 -2.11626e-08 -0 -2.58903e-08 7.67702e-07 0 -0 0 0)
(7.13782e-09 7.92202e-08 0 7.32527e-08 8.13006e-07 0 0 0 0)
(5.64845e-08 2.32213e-07 0 2.24661e-07 9.23603e-07 0 0 0 0)
(1.99001e-07 4.77294e-07 0 4.67503e-07 1.12128e-06 0 0 0 0)
(5.27271e-07 8.71099e-07 0 8.57834e-07 1.41722e-06 0 0 0 0)
(1.185e-06 1.45698e-06 0 1.43846e-06 1.76862e-06 0 0 0 0)
(2.32312e-06 2.16587e-06 0 2.13967e-06 1.99483e-06 0 0 0 0)
(3.85359e-06 2.58713e-06 0 2.55369e-06 1.71444e-06 0 0 0 0)
(5.27526e-06 2.11813e-06 0 2.08305e-06 8.3639e-07 0 0 0 0)
(5.52368e-06 4.14426e-07 0 3.88922e-07 2.91797e-08 0 0 0 0)
(4.62641e-06 -1.72908e-06 0 -1.74351e-06 6.51621e-07 -0 0 -0 0)
(3.34076e-06 -4.11001e-06 0 -4.11982e-06 5.06846e-06 -0 0 -0 0)
(1.58954e-06 -7.15321e-06 0 -7.15171e-06 3.21839e-05 -0 0 -0 0)
(3.44702e-07 1.24053e-05 -0 1.23994e-05 0.000446234 -0 -0 -0 0)
(1.25028e-08 -1.28925e-07 -0 -1.29186e-07 1.33212e-06 0 -0 0 0)
(3.96593e-08 -2.46777e-07 -0 -2.47542e-07 1.54032e-06 0 -0 0 0)
(3.37019e-08 -2.1132e-07 -0 -2.12732e-07 1.33388e-06 0 -0 0 0)
(1.67157e-08 -1.32691e-07 -0 -1.34516e-07 1.0678e-06 0 -0 0 0)
(3.29387e-09 -5.30838e-08 -0 -5.5322e-08 8.91564e-07 0 -0 0 0)
(1.62538e-09 3.68302e-08 0 3.4081e-08 7.72256e-07 0 0 0 0)
(2.78058e-08 1.40946e-07 0 1.3762e-07 6.97591e-07 0 0 0 0)
(1.04994e-07 2.66515e-07 0 2.62556e-07 6.66466e-07 0 0 0 0)
(2.70048e-07 4.30473e-07 0 4.25667e-07 6.78539e-07 0 0 0 0)
(5.89889e-07 6.6265e-07 0 6.56693e-07 7.37694e-07 0 0 0 0)
(1.17641e-06 1.00117e-06 0 9.93432e-07 8.45452e-07 0 0 0 0)
(2.18203e-06 1.46538e-06 0 1.45474e-06 9.76953e-07 0 0 0 0)
(3.70966e-06 1.97616e-06 0 1.9611e-06 1.04469e-06 0 0 0 0)
(5.50894e-06 2.21717e-06 0 2.19794e-06 8.84599e-07 0 0 0 0)
(7.11119e-06 1.86198e-06 0 1.84143e-06 4.82155e-07 0 0 0 0)
(7.59959e-06 5.91611e-07 0 5.7626e-07 4.48606e-08 0 0 0 0)
(6.15356e-06 -1.13982e-06 0 -1.14804e-06 2.1265e-07 -0 0 -0 0)
(7.04044e-06 -4.66232e-06 0 -4.6688e-06 3.09177e-06 -0 0 -0 0)
(2.28448e-06 -7.00055e-06 0 -7.00699e-06 2.14721e-05 -0 0 -0 0)
(2.28159e-07 -1.0805e-05 0 -1.08384e-05 0.00051328 -0 0 -0 0)
(3.10231e-08 -9.45958e-08 -0 -9.45139e-08 2.88192e-07 0 -0 0 0)
(8.51952e-08 -1.10308e-07 -0 -1.10022e-07 1.42452e-07 0 -0 0 0)
(1.54713e-09 -1.64078e-08 -0 -1.63775e-08 1.73688e-07 0 -0 0 0)
(8.36146e-08 1.63298e-07 0 1.62989e-07 3.18314e-07 0 0 0 0)
(4.61091e-07 4.23766e-07 0 4.23234e-07 3.88974e-07 0 0 0 0)
(1.18051e-06 6.76864e-07 0 6.76138e-07 3.87674e-07 0 0 0 0)
(2.24129e-06 9.19837e-07 0 9.18885e-07 3.77115e-07 0 0 0 0)
(3.64884e-06 1.1709e-06 0 1.16972e-06 3.75357e-07 0 0 0 0)
(5.44038e-06 1.44046e-06 0 1.43906e-06 3.81022e-07 0 0 0 0)
(7.70275e-06 1.74143e-06 0 1.73974e-06 3.93319e-07 0 0 0 0)
(1.0573e-05 2.09294e-06 0 2.0906e-06 4.13838e-07 0 0 0 0)
(1.42253e-05 2.49956e-06 0 2.49565e-06 4.38517e-07 0 0 0 0)
(1.86856e-05 2.89756e-06 0 2.89027e-06 4.48192e-07 0 0 0 0)
(2.38304e-05 3.0753e-06 0 3.063e-06 3.95279e-07 0 0 0 0)
(2.81781e-05 2.68835e-06 0 2.67241e-06 2.54963e-07 0 0 0 0)
(3.23638e-05 1.24305e-06 0 1.2285e-06 4.71848e-08 0 0 0 0)
(2.95822e-05 -1.03402e-06 0 -1.04046e-06 3.63683e-08 -0 0 -0 0)
(4.34231e-05 -8.74558e-06 0 -8.74859e-06 1.762e-06 -0 0 -0 0)
(4.49639e-06 -6.36155e-06 0 -6.36183e-06 9.00079e-06 -0 0 -0 0)
(4.4117e-05 -0.000139591 0 -0.000139613 0.000441752 -0 0 -0 0)
(7.03264e-06 1.59558e-05 0 1.59566e-05 3.62026e-05 0 0 0 0)
(2.58031e-05 2.86882e-05 0 2.86934e-05 3.19017e-05 0 0 0 0)
(6.56988e-05 3.27297e-05 0 3.27346e-05 1.63077e-05 0 0 0 0)
(0.000115532 3.0844e-05 0 3.08466e-05 8.23523e-06 0 0 0 0)
(0.000163618 2.79561e-05 0 2.79567e-05 4.77671e-06 0 0 0 0)
(0.000209371 2.54348e-05 0 2.54342e-05 3.0898e-06 0 0 0 0)
(0.00025416 2.33191e-05 0 2.33183e-05 2.13944e-06 0 0 0 0)
(0.000297897 2.15103e-05 0 2.15088e-05 1.55309e-06 0 0 0 0)
(0.000340175 1.99064e-05 0 1.9904e-05 1.16474e-06 0 0 0 0)
(0.00038109 1.84924e-05 0 1.84892e-05 8.97192e-07 0 0 0 0)
(0.000421651 1.72789e-05 0 1.7274e-05 7.07876e-07 0 0 0 0)
(0.000461467 1.61181e-05 0 1.61099e-05 5.62685e-07 0 0 0 0)
(0.000499593 1.49613e-05 0 1.49491e-05 4.47679e-07 0 0 0 0)
(0.000538036 1.36307e-05 0 1.36156e-05 3.44941e-07 0 0 0 0)
(0.000567662 1.17638e-05 0 1.17458e-05 2.43411e-07 0 0 0 0)
(0.000603973 8.87867e-06 0 8.86248e-06 1.30282e-07 0 0 0 0)
(0.000579905 4.82456e-06 0 4.81946e-06 4.00959e-08 0 0 0 0)
(0.000687856 -8.60698e-06 0 -8.61392e-06 1.07784e-07 -0 0 -0 0)
(0.000182488 4.76389e-06 0 4.77659e-06 1.24694e-07 0 0 0 0)
(0.00147647 -0.000383244 0 -0.000383236 9.94759e-05 -0 0 -0 0)
)
;

boundaryField
{
    movingWall
    {
        type            calculated;
        value           nonuniform List<tensor> 
20
(
(0.00423137 0 0 0 0 0 0 0 0)
(0.00653315 0 0 0 0 0 0 0 0)
(0.00843096 0 0 0 0 0 0 0 0)
(0.00953192 0 0 0 0 0 0 0 0)
(0.0101732 0 0 0 0 0 0 0 0)
(0.0105682 0 0 0 0 0 0 0 0)
(0.0108073 0 0 0 0 0 0 0 0)
(0.0109374 0 0 0 0 0 0 0 0)
(0.0109858 0 0 0 0 0 0 0 0)
(0.0109748 0 0 0 0 0 0 0 0)
(0.010938 0 0 0 0 0 0 0 0)
(0.0108658 0 0 0 0 0 0 0 0)
(0.0107586 0 0 0 0 0 0 0 0)
(0.0106719 0 0 0 0 0 0 0 0)
(0.0105664 0 0 0 0 0 0 0 0)
(0.0105708 0 0 0 0 0 0 0 0)
(0.0106611 0 0 0 0 0 0 0 0)
(0.010695 0 0 0 0 0 0 0 0)
(0.0113036 0 0 0 0 0 0 0 0)
(0.0102882 0 0 0 0 0 0 0 0)
)
;
    }
    fixedWalls
    {
        type            calculated;
        value           uniform (0 0 0 0 0 0 0 0 0);
    }
    frontAndBack
    {
        type            empty;
    }
}


// ************************************************************************* //
