/*--------------------------------*- C++ -*----------------------------------*\
| =========                 |                                                 |
| \\      /  F ield         | OpenFOAM: The Open Source CFD Toolbox           |
|  \\    /   O peration     | Version:  2312                                  |
|   \\  /    A nd           | Website:  www.openfoam.com                      |
|    \\/     M anipulation  |                                                 |
\*---------------------------------------------------------------------------*/
FoamFile
{
    version     2.0;
    format      ascii;
    arch        "LSB;label=32;scalar=64";
    class       volScalarField;
    location    "1";
    object      L_P;
}
// * * * * * * * * * * * * * * * * * * * * * * * * * * * * * * * * * * * * * //

dimensions      [0 0 0 0 0 0 0];

internalField   nonuniform List<scalar> 
400
(
-140.659
-134.84
-130.947
-128.611
-127.098
-126.031
-125.213
-124.544
-123.981
-123.516
-123.164
-123.002
-122.97
-123.19
-123.79
-124.895
-126.717
-129.63
-134.416
-140.138
-134.852
-128.477
-125.107
-123.229
-122.132
-121.461
-121.015
-120.681
-120.398
-120.142
-119.921
-119.769
-119.713
-119.792
-120.134
-120.87
-122.218
-124.55
-128.547
-134.168
-130.4
-124.58
-121.628
-119.946
-118.958
-118.368
-118
-117.749
-117.554
-117.388
-117.248
-117.164
-117.142
-117.252
-117.592
-118.294
-119.554
-121.682
-125.276
-130.077
-127.632
-122.26
-119.537
-117.952
-117.007
-116.443
-116.097
-115.869
-115.698
-115.556
-115.439
-115.369
-115.36
-115.483
-115.834
-116.552
-117.84
-119.993
-123.552
-127.551
-125.774
-120.793
-118.193
-116.65
-115.716
-115.15
-114.8
-114.568
-114.395
-114.248
-114.122
-114.029
-113.986
-114.066
-114.377
-115.087
-116.443
-118.781
-122.565
-125.794
-124.441
-119.824
-117.297
-115.771
-114.835
-114.258
-113.894
-113.644
-113.446
-113.26
-113.07
-112.886
-112.711
-112.613
-112.713
-113.28
-114.613
-117.22
-121.609
-124.351
-123.426
-119.163
-116.687
-115.168
-114.223
-113.631
-113.246
-112.963
-112.712
-112.441
-112.113
-111.705
-111.239
-110.721
-110.322
-110.393
-111.409
-113.971
-119.441
-122.967
-122.607
-118.696
-116.264
-114.75
-113.797
-113.189
-112.775
-112.444
-112.106
-111.685
-111.109
-110.316
-109.287
-108.124
-106.968
-106.264
-106.308
-107.745
-113.682
-120.743
-121.907
-118.347
-115.964
-114.46
-113.503
-112.88
-112.434
-112.037
-111.575
-110.928
-109.977
-108.606
-106.837
-104.993
-103.281
-101.534
-99.9071
-99.6852
-103.621
-114.572
-121.276
-118.07
-115.746
-114.261
-113.309
-112.676
-112.198
-111.724
-111.104
-110.17
-108.746
-106.695
-104.373
-102.396
-101.029
-99.4817
-97.1842
-95.22
-94.3374
-102.297
-120.682
-117.829
-115.579
-114.129
-113.194
-112.563
-112.058
-111.506
-110.721
-109.494
-107.636
-105.163
-102.942
-101.928
-101.38
-100.208
-98.194
-94.2707
-90.4249
-90.5407
-120.097
-117.604
-115.446
-114.048
-113.148
-112.534
-112.015
-111.402
-110.483
-109.042
-106.943
-104.567
-102.87
-102.729
-103.447
-103.903
-102.812
-97.0805
-89.1828
-84.2402
-119.504
-117.376
-115.334
-114.008
-113.157
-112.566
-112.049
-111.409
-110.426
-108.897
-106.778
-104.594
-103.247
-104.156
-106.232
-107.62
-106.891
-99.9919
-89.6687
-81.7208
-118.846
-117.138
-115.235
-113.997
-113.195
-112.637
-112.133
-111.484
-110.492
-108.986
-106.951
-104.843
-103.678
-104.603
-107.222
-109.434
-108.388
-102.022
-90.465
-80.1851
-118.214
-116.888
-115.142
-113.987
-113.242
-112.719
-112.23
-111.592
-110.621
-109.191
-107.327
-105.339
-104.072
-104.432
-106.725
-108.52
-107.39
-102.494
-90.8539
-78.8324
-117.248
-116.65
-115.012
-113.911
-113.195
-112.678
-112.192
-111.573
-110.663
-109.351
-107.654
-105.854
-104.544
-104.321
-105.359
-106.778
-105.871
-102.212
-90.8072
-77.335
-116.773
-116.132
-114.494
-113.374
-112.602
-112.014
-111.467
-110.832
-109.991
-108.859
-107.442
-105.897
-104.597
-104.258
-104.761
-105.861
-105.126
-101.732
-89.2808
-75.5047
-114.896
-114.289
-111.799
-110.286
-109.246
-108.411
-107.667
-106.931
-106.126
-105.191
-104.114
-102.981
-102.009
-101.77
-101.98
-102.6
-102.107
-98.0858
-86.7019
-73.062
-110.021
-104.144
-99.5424
-97.0615
-95.541
-94.3959
-93.4644
-92.6999
-92.064
-91.5222
-91.0391
-90.593
-90.2138
-89.886
-89.7799
-89.4846
-88.7259
-84.9944
-80.1836
-69.6716
-81.9382
-74.393
-69.9628
-67.8306
-66.6994
-66.0377
-65.6488
-65.441
-65.3641
-65.3813
-65.4395
-65.5546
-65.7267
-65.8677
-66.0409
-66.0339
-65.8867
-65.8317
-64.8704
-66.5053
)
;

boundaryField
{
    movingWall
    {
        type            calculated;
        value           nonuniform List<scalar> 
20
(
-81.9382
-74.393
-69.9628
-67.8306
-66.6994
-66.0377
-65.6488
-65.441
-65.3641
-65.3813
-65.4395
-65.5546
-65.7267
-65.8677
-66.0409
-66.0339
-65.8867
-65.8317
-64.8704
-66.5053
)
;
    }
    fixedWalls
    {
        type            calculated;
        value           nonuniform List<scalar> 
60
(
-140.659
-134.852
-130.4
-127.632
-125.774
-124.441
-123.426
-122.607
-121.907
-121.276
-120.682
-120.097
-119.504
-118.846
-118.214
-117.248
-116.773
-114.896
-110.021
-81.9382
-140.138
-134.168
-130.077
-127.551
-125.794
-124.351
-122.967
-120.743
-114.572
-102.297
-90.5407
-84.2402
-81.7208
-80.1851
-78.8324
-77.335
-75.5047
-73.062
-69.6716
-66.5053
-140.659
-134.84
-130.947
-128.611
-127.098
-126.031
-125.213
-124.544
-123.981
-123.516
-123.164
-123.002
-122.97
-123.19
-123.79
-124.895
-126.717
-129.63
-134.416
-140.138
)
;
    }
    frontAndBack
    {
        type            empty;
    }
}


// ************************************************************************* //
