/*--------------------------------*- C++ -*----------------------------------*\
| =========                 |                                                 |
| \\      /  F ield         | OpenFOAM: The Open Source CFD Toolbox           |
|  \\    /   O peration     | Version:  2312                                  |
|   \\  /    A nd           | Website:  www.openfoam.com                      |
|    \\/     M anipulation  |                                                 |
\*---------------------------------------------------------------------------*/
FoamFile
{
    version     2.0;
    format      ascii;
    arch        "LSB;label=32;scalar=64";
    class       volVectorField;
    location    "1";
    object      LambVectorField;
}
// * * * * * * * * * * * * * * * * * * * * * * * * * * * * * * * * * * * * * //

dimensions      [0 1 -2 0 0 0 0];

internalField   nonuniform List<vector> 
400
(
(-3.21367e-05 -3.19852e-05 -6.09133e-09)
(-0.000268899 -0.000477828 0)
(-0.000706108 -0.00214493 -6.15586e-06)
(-0.00117827 -0.00539429 0)
(-0.00161235 -0.0103912 -7.05125e-05)
(-0.00197505 -0.0169817 0)
(-0.00224313 -0.0248443 -0.000264178)
(-0.00238293 -0.0335086 0)
(-0.00233557 -0.0423075 -0.000590393)
(-0.00200967 -0.0503777 0)
(-0.00132469 -0.0567264 -0.000920722)
(-0.000460196 -0.0595524 0)
(0.000910856 -0.0584825 -0.000967561)
(0.00228186 -0.0524366 -0)
(0.00337918 -0.0421124 -0.000589075)
(0.00382397 -0.0292913 -0)
(0.00341019 -0.0167829 -0.000144)
(0.00228313 -0.0072724 -0)
(0.000930739 -0.00181407 -4.28786e-06)
(0.00016027 -0.000160336 -0)
(-0.000487692 -0.000270987 -1.75157e-07)
(-0.000754882 -0.000742807 0)
(-0.000807955 -0.00119559 -5.03133e-06)
(-0.000776781 -0.00160317 0)
(-0.000754271 -0.0020738 -1.77442e-05)
(-0.000750746 -0.00266165 0)
(-0.000747178 -0.00335151 -4.31278e-05)
(-0.000719053 -0.00407187 0)
(-0.000644357 -0.00471593 -7.84466e-05)
(-0.000508362 -0.00516946 0)
(-0.000313007 -0.00538855 -0.000103455)
(-7.37346e-05 -0.00546438 0)
(0.000204343 -0.00516953 -0.000101397)
(0.000516838 -0.00492065 -0)
(0.000881092 -0.00469951 -7.96397e-05)
(0.00132428 -0.00450008 -0)
(0.00182284 -0.00416565 -4.64768e-05)
(0.00221836 -0.00346333 -0)
(0.00214801 -0.00217841 -8.93693e-06)
(0.0017209 -0.000876341 -0)
(-0.00215319 -0.000728283 -7.03741e-07)
(-0.00124616 -0.000833456 0)
(-0.000990268 -0.000985429 -4.81477e-06)
(-0.000753406 -0.0010183 0)
(-0.000561403 -0.000984927 -9.11692e-06)
(-0.000422638 -0.000937598 0)
(-0.00032206 -0.000892642 -1.2181e-05)
(-0.000242073 -0.000841311 0)
(-0.000170593 -0.000763924 -1.3469e-05)
(-0.000105737 -0.000655224 0)
(-5.39602e-05 -0.000555807 -1.14235e-05)
(-1.43334e-05 -0.000545155 0)
(3.87442e-05 -0.000694046 -1.48601e-05)
(0.000173712 -0.00112459 -0)
(0.000499741 -0.00180858 -3.44116e-05)
(0.00110963 -0.00257061 -0)
(0.001976 -0.00309334 -4.01119e-05)
(0.00288242 -0.00306879 -0)
(0.00366159 -0.00244204 -1.24541e-05)
(0.00708324 -0.00211245 -0)
(-0.00540787 -0.00124205 -1.36557e-06)
(-0.00168412 -0.000826339 0)
(-0.00110275 -0.000818971 -4.28921e-06)
(-0.000758947 -0.000762939 0)
(-0.000489681 -0.000632465 -6.11241e-06)
(-0.000283282 -0.000457794 0)
(-0.000129753 -0.000259668 -3.67915e-06)
(-2.00097e-05 -4.98446e-05 0)
(5.01273e-05 0.000159625 2.94999e-06)
(7.79874e-05 0.000338909 0)
(6.08252e-05 0.000422855 9.31137e-06)
(1.60511e-05 0.000320634 0)
(2.5411e-06 -4.48224e-05 -1.06204e-06)
(0.000130062 -0.000710124 -0)
(0.000537986 -0.00158741 -3.45772e-05)
(0.00132773 -0.00246012 -0)
(0.00245464 -0.00301169 -4.51486e-05)
(0.00374145 -0.00302793 -0)
(0.00572257 -0.00273332 -1.54245e-05)
(0.0174635 -0.00336779 -0)
(-0.0105164 -0.00174501 -1.97697e-06)
(-0.00218105 -0.000820373 0)
(-0.00119209 -0.000694865 -3.75218e-06)
(-0.000766399 -0.000608536 0)
(-0.000457592 -0.000465955 -4.62668e-06)
(-0.00021636 -0.000274234 0)
(-3.37208e-05 -5.25965e-05 -7.69478e-07)
(9.20806e-05 0.000177462 0)
(0.000158535 0.000386518 7.508e-06)
(0.000161133 0.000525728 0)
(0.000104803 0.000520826 1.2445e-05)
(2.50168e-05 0.000282812 0)
(9.16662e-06 -0.000240976 -6.47252e-06)
(0.000190927 -0.00102275 -0)
(0.000713367 -0.00192016 -4.93923e-05)
(0.00168061 -0.00272394 -0)
(0.00303097 -0.00312126 -5.47763e-05)
(0.00456006 -0.00293035 -0)
(0.00850767 -0.00293321 -1.68355e-05)
(0.0333655 -0.0040083 -0)
(-0.0174761 -0.00220576 -2.47542e-06)
(-0.0028085 -0.000838601 0)
(-0.00130214 -0.000615631 -3.35486e-06)
(-0.000788392 -0.000512198 0)
(-0.000454478 -0.000379262 -3.82674e-06)
(-0.000197759 -0.000204883 0)
(-3.12203e-06 -3.95945e-06 -5.95445e-08)
(0.000126475 0.000196625 0)
(0.000182945 0.000355292 7.26666e-06)
(0.000161421 0.000409926 0)
(7.9453e-05 0.000291671 7.64061e-06)
(-9.01905e-06 -6.25467e-05 0)
(-1.45996e-06 -0.000724131 -2.25224e-05)
(0.000284562 -0.00172981 -0)
(0.00118666 -0.0031636 -9.92961e-05)
(0.0032518 -0.00487805 -0)
(0.00677198 -0.0060458 -0.000126434)
(0.00907205 -0.00456934 -0)
(0.0132771 -0.00284171 -1.34984e-05)
(0.0520845 -0.00230762 -0)
(-0.0261602 -0.0026097 -2.84611e-06)
(-0.00361161 -0.000878861 0)
(-0.00145918 -0.0005721 -3.1009e-06)
(-0.000834179 -0.000453002 0)
(-0.000475329 -0.000332273 -3.36997e-06)
(-0.000213546 -0.000184932 0)
(-2.17355e-05 -2.29162e-05 -3.5143e-07)
(9.6797e-05 0.000123973 0)
(0.000134424 0.000211962 4.54531e-06)
(9.58632e-05 0.000192756 0)
(8.99259e-06 2.48544e-05 7.15747e-07)
(-7.83349e-05 -0.000355322 0)
(-8.7741e-05 -0.00134221 -4.90725e-05)
(0.000470453 -0.00407532 -0)
(0.00365967 -0.0105894 -0.000422195)
(0.0155317 -0.0230418 -0)
(0.0411354 -0.0339199 -0.000909644)
(0.0602962 -0.0246567 -0)
(0.0465981 -0.003362 -6.79867e-06)
(0.0641567 0.00550197 0)
(-0.0363736 -0.00294591 -3.08286e-06)
(-0.00461638 -0.000932811 0)
(-0.00167781 -0.000553584 -2.94676e-06)
(-0.000905339 -0.000416167 0)
(-0.000511384 -0.000302889 -3.04706e-06)
(-0.000247436 -0.000180984 0)
(-6.85511e-05 -6.06254e-05 -9.34816e-07)
(3.02967e-05 3.21953e-05 0)
(5.97135e-05 7.68448e-05 1.70461e-06)
(6.02471e-05 9.63171e-05 0)
(7.19737e-05 0.000150965 4.73697e-06)
(1.01618e-06 3.14421e-06 0)
(-0.000348065 -0.00221137 -9.56322e-05)
(0.000392711 -0.0123493 -0)
(0.0106782 -0.0406747 -0.00218537)
(0.0546396 -0.0956181 -0)
(0.149338 -0.145789 -0.00635896)
(0.253805 -0.131844 -0)
(0.207977 -0.0196882 -6.89741e-05)
(0.0757543 0.022801 0)
(-0.0478744 -0.00320714 -3.18786e-06)
(-0.00583441 -0.000991902 0)
(-0.00196476 -0.000550678 -2.84251e-06)
(-0.000997251 -0.000390577 0)
(-0.000547016 -0.000275643 -2.7041e-06)
(-0.000273326 -0.000169132 0)
(-0.000104562 -7.74871e-05 -1.17506e-06)
(-7.49295e-06 -6.58082e-06 0)
(9.09955e-05 9.49481e-05 2.12212e-06)
(0.000329737 0.00041592 0)
(0.000754668 0.00119594 3.983e-05)
(0.00086899 0.00186398 0)
(-0.00109431 -0.00372678 -0.000188634)
(-0.00291272 -0.0271297 0)
(0.00632623 -0.0595459 -0.00452833)
(0.035506 -0.0942898 -0)
(0.180593 -0.242863 -0.0192647)
(0.520661 -0.414921 -0)
(0.640228 -0.269848 -0.0066317)
(0.152797 0.047949 0)
(-0.0603987 -0.00339847 -3.18722e-06)
(-0.00726423 -0.00105021 0)
(-0.002318 -0.000555552 -2.74728e-06)
(-0.00109705 -0.000367103 0)
(-0.000556838 -0.00023846 -2.23399e-06)
(-0.000251596 -0.000131018 0)
(-6.71302e-05 -4.12795e-05 -5.96222e-07)
(9.66213e-05 6.91265e-05 0)
(0.000449847 0.000373514 8.04896e-06)
(0.00129072 0.00125705 0)
(0.00256927 0.00300761 0.000100776)
(0.00380786 0.00555902 0)
(0.00559837 0.0109624 0.000617416)
(0.0200639 0.0634409 0)
(0.0206862 0.285837 0.0286326)
(-0.144731 0.577875 -0)
(-0.273157 0.422295 0.0485582)
(0.344951 -0.315436 -0)
(1.2871 -0.780894 -0.0455099)
(0.497449 -0.101565 -0)
(-0.0737071 -0.00355287 -3.1518e-06)
(-0.00888983 -0.00110791 0)
(-0.00272327 -0.000562581 -2.64246e-06)
(-0.00117845 -0.000337741 0)
(-0.000502081 -0.000182058 -1.59084e-06)
(-0.000128862 -5.58848e-05 0)
(0.000120566 6.04203e-05 7.95824e-07)
(0.000461093 0.000261806 0)
(0.00130876 0.000835749 1.62166e-05)
(0.00310778 0.00224229 0)
(0.00557424 0.00459407 0.000140197)
(0.0116208 0.0109992 0)
(0.056212 0.0638783 0.00342979)
(0.20695 0.33273 0)
(0.269404 1.01425 0.101965)
(-0.330184 1.7208 -0)
(-1.24209 1.76842 0.211287)
(-1.01711 0.835842 -0)
(1.23068 -0.688795 -0.0575213)
(2.03194 -0.797569 -0)
(-0.0877691 -0.00376017 -3.23305e-06)
(-0.0106672 -0.00117367 0)
(-0.00314678 -0.000569272 -2.54222e-06)
(-0.00118953 -0.00029414 0)
(-0.000323746 -9.91961e-05 -7.90346e-07)
(0.00015632 5.57271e-05 0)
(0.000516961 0.00020575 2.33832e-06)
(0.00111642 0.000483208 0)
(0.0026043 0.00120958 1.91161e-05)
(0.00572441 0.00284885 0)
(0.0106081 0.00566151 0.000133803)
(0.0274806 0.0155221 0)
(0.15008 0.0923409 0.003587)
(0.508077 0.412538 0)
(0.662514 1.05513 0.0726312)
(-0.201685 1.66322 -0)
(-1.80905 1.884 0.153102)
(-2.77957 1.6745 -0)
(-0.575278 0.243391 0.0199098)
(5.05089 -1.43073 -0)
(-0.102637 -0.0041796 -3.69069e-06)
(-0.01255 -0.00127846 0)
(-0.00348402 -0.000570364 -2.46943e-06)
(-0.00101487 -0.000220927 0)
(9.65772e-05 2.51612e-05 1.80054e-07)
(0.000701082 0.00020324 0)
(0.00115962 0.000354684 3.2559e-06)
(0.00195076 0.000605277 0)
(0.00394053 0.00120793 1.3395e-05)
(0.00842131 0.00251332 0)
(0.0169261 0.00485424 6.72577e-05)
(0.0447766 0.0118812 0)
(0.196583 0.0469883 0.000784388)
(0.614473 0.157333 0)
(0.838764 0.360013 0.00808847)
(0.00831653 0.463742 0)
(-1.45177 0.533796 0.0124822)
(-2.94132 0.833873 -0)
(-2.83761 0.771379 0.042213)
(8.20392 -1.45235 -0)
(-0.12002 -0.00509822 -5.07816e-06)
(-0.0142378 -0.00143816 0)
(-0.00346499 -0.000542108 -2.37611e-06)
(-0.000395447 -7.88691e-05 0)
(0.0010297 0.000233248 1.49989e-06)
(0.00170147 0.000400383 0)
(0.00215259 0.000486182 3.34373e-06)
(0.00292837 0.000587133 0)
(0.00502946 0.00082221 4.89199e-06)
(0.0101094 0.00120198 0)
(0.020887 0.00142698 4.69213e-06)
(0.0487529 0.000430854 0)
(0.165222 -0.01169 5.53286e-05)
(0.46941 -0.084833 0)
(0.67617 -0.242812 0.00442751)
(0.0356484 -0.418698 0)
(-0.953598 -0.345323 0.00685714)
(-1.95443 -0.128255 0)
(-3.51202 0.442238 0.00988084)
(10.0892 -1.04325 -0)
(-0.138063 -0.00708683 -9.13565e-06)
(-0.0157098 -0.00175224 0)
(-0.00255002 -0.00041204 -1.95337e-06)
(0.00126576 0.000245924 0)
(0.00289548 0.000594119 3.49759e-06)
(0.00355723 0.000688434 0)
(0.00385796 0.000610863 2.88203e-06)
(0.0043497 0.000446769 0)
(0.00598871 0.000194986 2.19979e-07)
(0.0104147 -0.000497464 0)
(0.0205282 -0.00278653 1.67737e-05)
(0.0430274 -0.0100793 0)
(0.110126 -0.0396424 0.000816653)
(0.265024 -0.150079 0)
(0.368642 -0.385044 0.0166321)
(0.0449278 -0.589274 0)
(-0.554246 -0.546022 0.0236447)
(-1.2243 -0.373031 0)
(-3.14088 0.00344567 5.69554e-07)
(10.4681 -0.669527 -0)
(-0.17365 -0.010938 -1.95456e-05)
(-0.0145971 -0.00184273 0)
(0.000882079 0.000155208 8.32454e-07)
(0.00538671 0.00107223 0)
(0.00689561 0.00133907 7.36583e-06)
(0.0073908 0.00119232 0)
(0.00748477 0.000744727 2.08603e-06)
(0.00762964 9.18262e-05 0)
(0.00868224 -0.000830914 2.49062e-06)
(0.0119164 -0.0025825 0)
(0.0195744 -0.00679937 9.03155e-05)
(0.0356148 -0.0175329 0)
(0.0700693 -0.0473637 0.00145254)
(0.13204 -0.129615 0)
(0.166127 -0.290562 0.0155746)
(0.0280653 -0.440474 0)
(-0.281231 -0.465656 0.0245643)
(-0.808768 -0.417555 0)
(-2.7473 -0.291894 0.0039186)
(10.1777 -0.467623 -0)
(-0.172774 -0.0180647 -5.28655e-05)
(-0.0156079 -0.00291556 0)
(0.00648395 0.00137621 8.78633e-06)
(0.0140918 0.00293798 0)
(0.0170519 0.0030415 1.4676e-05)
(0.0186101 0.00222702 0)
(0.0198391 0.000546887 3.86281e-07)
(0.0211853 -0.00206431 0)
(0.022905 -0.00575879 3.90427e-05)
(0.0258936 -0.0110221 0)
(0.0315756 -0.0194081 0.00037059)
(0.0420631 -0.0346514 0)
(0.0589406 -0.0639941 0.00238529)
(0.0805422 -0.12154 0)
(0.0879661 -0.222771 0.0128233)
(0.0236579 -0.336003 0)
(-0.148524 -0.394109 0.0221066)
(-0.608972 -0.493815 0)
(-2.36471 -0.525581 0.0121973)
(9.61405 -0.26727 -0)
(-0.420985 -0.0407436 -0.000180726)
(0.0282877 0.00453203 0)
(0.0615065 0.00974412 5.65319e-05)
(0.0673531 0.00836965 0)
(0.0733415 0.00436676 7.28776e-06)
(0.0798563 -0.00380848 0)
(0.0848275 -0.0171392 8.27662e-05)
(0.0889322 -0.0355634 0)
(0.0929792 -0.0589871 0.000845669)
(0.0976354 -0.0877031 0)
(0.103486 -0.122546 0.00343198)
(0.110721 -0.166076 0)
(0.117223 -0.221742 0.0102948)
(0.117655 -0.294892 0)
(0.100726 -0.388982 0.0251838)
(0.0384789 -0.507452 0)
(-0.105738 -0.566762 0.035467)
(-0.550554 -0.830222 0)
(-1.89483 -0.61777 0.0161711)
(7.30383 0.153753 0)
(0.0292789 0.00961046 5.84119e-05)
(0.0844133 0.0653653 0)
(0.0970341 0.00916654 9.17912e-06)
(0.148007 -0.075929 0)
(0.182052 -0.198336 0.00306913)
(0.192894 -0.336786 0)
(0.196719 -0.479825 0.0154086)
(0.200629 -0.625848 0)
(0.204993 -0.774979 0.0371123)
(0.209447 -0.927331 0)
(0.21423 -1.08344 0.0698377)
(0.218404 -1.24491 0)
(0.218485 -1.4125 0.117311)
(0.204166 -1.58843 0)
(0.166495 -1.75554 0.176215)
(0.0741077 -1.95231 0)
(-0.0692836 -1.96986 0.197136)
(-0.512824 -2.54537 0)
(-1.3332 -0.942272 0.0290494)
(-2.32753 -0.735487 0)
(16.6769 -7.3501 0.299645)
(13.9348 -12.5312 0)
(8.59048 -17.2412 1.5219)
(5.60045 -20.9757 0)
(4.05202 -23.7148 3.00743)
(3.15105 -25.939 0)
(2.56029 -27.9062 4.27956)
(2.14337 -29.6858 0)
(1.83176 -31.3063 5.50915)
(1.59121 -32.7972 0)
(1.40051 -34.1857 6.71246)
(1.23892 -35.489 0)
(1.09815 -36.6997 7.90903)
(0.957174 -37.8238 0)
(0.800925 -38.7077 8.9717)
(0.581187 -39.6076 0)
(0.324313 -39.0232 9.10003)
(-0.519195 -41.4598 0)
(0.644121 -24.6084 3.12587)
(-14.3011 -55.097 0)
)
;

boundaryField
{
    movingWall
    {
        type            calculated;
        value           nonuniform List<vector> 
20
(
(0 -367.455 0)
(0 -379.715 0)
(0 -368.74 0)
(0 -358.196 0)
(0 -350.503 0)
(0 -344.459 0)
(0 -339.176 0)
(0 -334.362 0)
(0 -329.897 0)
(0 -325.684 0)
(0 -321.644 0)
(0 -317.72 0)
(0 -313.949 0)
(0 -310.347 0)
(0 -307.505 0)
(0 -304.68 0)
(0 -307.39 0)
(0 -298.431 0)
(0 -358.705 0)
(0 -238.975 0)
)
;
    }
    fixedWalls
    {
        type            calculated;
        value           uniform (-0 0 0);
    }
    frontAndBack
    {
        type            empty;
    }
}


// ************************************************************************* //
