/*--------------------------------*- C++ -*----------------------------------*\
| =========                 |                                                 |
| \\      /  F ield         | OpenFOAM: The Open Source CFD Toolbox           |
|  \\    /   O peration     | Version:  2312                                  |
|   \\  /    A nd           | Website:  www.openfoam.com                      |
|    \\/     M anipulation  |                                                 |
\*---------------------------------------------------------------------------*/
FoamFile
{
    version     2.0;
    format      ascii;
    arch        "LSB;label=32;scalar=64";
    class       volScalarField;
    location    "1";
    object      Lambda2Field;
}
// * * * * * * * * * * * * * * * * * * * * * * * * * * * * * * * * * * * * * //

dimensions      [0 0 -2 0 0 0 0];

internalField   nonuniform List<scalar> 
400
(
0.0111168
0.0457129
0.103998
0.135404
0.160704
0.152801
0.163989
0.14242
0.165894
0.165574
0.18931
0.217892
0.302856
0.348858
0.423004
0.424231
0.416675
0.308473
0.161067
0.0497588
0.0552915
0.0988118
0.154284
0.167438
0.19207
0.178678
0.180041
0.152029
0.137114
0.108351
0.0917275
0.0893303
0.118534
0.181123
0.295739
0.390854
0.481433
0.436771
0.345335
0.157925
0.11155
0.135188
0.168008
0.182216
0.19428
0.192727
0.186746
0.171025
0.151107
0.129081
0.113183
0.116389
0.154681
0.238163
0.365058
0.499184
0.591778
0.601448
0.513255
0.324451
0.158274
0.162195
0.181195
0.192128
0.20133
0.205677
0.206529
0.202622
0.195651
0.190261
0.195152
0.224116
0.293431
0.414487
0.58395
0.757153
0.856727
0.863586
0.731021
0.454305
0.185079
0.178995
0.193715
0.202952
0.212657
0.223151
0.235078
0.248378
0.265383
0.29181
0.337966
0.419875
0.556548
0.763252
1.03863
1.31787
1.43938
1.38625
1.08346
0.643725
0.196839
0.187806
0.203558
0.213608
0.226348
0.245116
0.271819
0.308754
0.361589
0.439105
0.557486
0.740805
1.02236
1.44026
2.00493
2.62141
2.88478
2.58246
1.72163
1.09148
0.200065
0.190726
0.209403
0.222452
0.239866
0.26821
0.31247
0.379474
0.481316
0.638025
0.879224
1.25473
1.86018
2.83411
4.25681
5.92452
7.02353
5.38597
2.59696
2.36132
0.198378
0.188709
0.209905
0.225997
0.248291
0.286682
0.350598
0.453887
0.620093
0.888886
1.32793
2.07001
3.43161
5.88254
9.87186
14.6808
17.3997
11.2572
1.58662
1.50547
0.192671
0.181981
0.203696
0.22089
0.246191
0.293052
0.37642
0.519705
0.763406
1.18043
1.92025
3.34506
6.39895
12.6819
22.4717
30.5956
35.6534
29.3248
10.0458
-3.87524
0.181444
0.170519
0.189773
0.204412
0.228697
0.279852
0.378895
0.560303
0.885207
1.47247
2.61845
5.12879
10.6488
19.1869
26.0031
24.1216
32.3237
43.145
37.4186
-3.25414
0.160139
0.154469
0.167945
0.174975
0.19294
0.242305
0.349979
0.560837
0.956386
1.70802
3.20037
6.69522
13.0921
12.5509
0
-37.9285
0
6.60592
52.7979
49.687
0.121427
0.133773
0.139536
0.133804
0.140544
0.181995
0.289552
0.515373
0.957859
1.81276
3.4592
6.72307
10.4465
-2.18876
0
-109.072
0
-85.6016
20.8256
123.737
0.05683
0.109867
0.107377
0.0864472
0.0796635
0.111768
0.217175
0.449424
0.904548
1.77029
3.4197
6.053
6.83521
-10.7973
0
-115.259
0
-113.435
0
133.154
0
0.0844545
0.0780978
0.0427457
0.0264632
0.0562689
0.166889
0.409604
0.870068
1.69335
3.20728
5.5408
6.39549
-5.50219
0
-73.4613
0
-59.1882
0
98.3609
0
0.0680404
0.0578902
0.0138497
0
0.0393469
0.167443
0.428453
0.905475
1.68221
2.97454
4.87579
5.99026
0.275725
0
-29.2125
0
-11.6853
0
57.9431
0
0
0.0270446
0.000494236
0.00299169
0.0682096
0.226367
0.512608
1.00775
1.73775
2.83038
4.12644
5.00556
2.96566
0
-7.86507
0
-0.781296
0
18.8213
0
0.0573798
0
0
0
0
0.263157
0.50692
1.19469
1.83791
2.95036
3.69812
4.06389
2.53371
0
-4.59703
0
-9.97614
0.420042
29.7758
0
0
0
0
0
0
0
0.0565414
1.212
2.03419
3.30092
3.58529
2.94099
0
0
-12.5618
0
-31.0392
14.5612
267.595
9.82263
0
0
0
2.12379
0
0.867854
0
2.09627
0.160984
3.5002
2.27172
1.9525
-2.25657
0
-20.5415
0
-16.6106
0
968.281
3297.84
-583.939
0
-363.945
0
-92.0337
0
-43.0639
0
-23.7244
0
-15.4757
0
-13.8746
0
0
0
0
0
1617.08
)
;

boundaryField
{
    movingWall
    {
        type            calculated;
        value           nonuniform List<scalar> 
20
(
5545.34
0
0
0
0
0
0
0
0
0
0
0
0
0
0
0
0
0
0
2876.13
)
;
    }
    fixedWalls
    {
        type            calculated;
        value           nonuniform List<scalar> 
60
(
0
0.0302341
0.097098
0.0993306
0.197282
0.129664
0.222311
0.140287
0.222036
0.142998
0.183137
0.052188
0.00634587
0
0
0
0
0
32.2955
6854.14
0.004998
0.118602
0.294807
0.470093
0.806301
1.3179
3.33303
0
0
-1.69604
39.0941
71.8587
325.01
16.1097
160.137
0
194.806
749.7
3557.86
2180.34
0.00586494
0.0325323
0.0865858
0.115465
0.163925
0.149171
0.19
0.160519
0.23433
0.245199
0.330939
0.358293
0.546004
0.557554
0.629173
0.463315
0.438359
0.241173
0.125426
0.00425079
)
;
    }
    frontAndBack
    {
        type            empty;
    }
}


// ************************************************************************* //
