/*--------------------------------*- C++ -*----------------------------------*\
| =========                 |                                                 |
| \\      /  F ield         | OpenFOAM: The Open Source CFD Toolbox           |
|  \\    /   O peration     | Version:  2312                                  |
|   \\  /    A nd           | Website:  www.openfoam.com                      |
|    \\/     M anipulation  |                                                 |
\*---------------------------------------------------------------------------*/
FoamFile
{
    version     2.0;
    format      ascii;
    arch        "LSB;label=32;scalar=64";
    class       volScalarField;
    location    "1";
    object      logk;
}
// * * * * * * * * * * * * * * * * * * * * * * * * * * * * * * * * * * * * * //

dimensions      [0 2 -2 0 0 0 0];

internalField   nonuniform List<scalar> 
400
(
-6.90776
-6.90776
-6.90776
-6.90776
-6.90776
-6.90776
-6.90776
-6.90776
-6.90776
-6.90776
-6.90776
-6.90776
-6.90776
-6.90776
-6.90776
-6.90776
-6.90776
-6.90776
-6.90776
-6.90776
-6.90776
-6.90776
-6.90776
-6.90776
-6.90776
-6.90776
-6.90776
-6.90776
-6.90776
-6.90776
-6.90776
-6.90776
-6.90776
-6.90776
-6.90776
-6.90776
-6.90776
-6.90776
-6.90776
-6.90776
-6.90776
-6.90776
-6.90776
-6.90776
-6.90776
-6.90776
-6.90776
-6.90776
-6.90776
-6.90776
-6.90776
-6.90776
-6.90776
-6.90776
-6.90776
-6.90776
-6.90776
-6.90776
-6.90776
-6.90776
-6.90776
-6.90776
-6.90776
-6.90776
-6.90776
-6.90776
-6.90776
-6.90776
-6.90776
-6.90776
-6.90776
-6.90776
-6.90776
-6.90776
-6.90776
-6.90776
-6.90776
-6.90776
-6.90776
-6.90776
-6.90776
-6.90776
-6.90776
-6.90776
-6.90776
-6.90776
-6.88633
-6.86933
-6.85692
-6.84704
-6.83959
-6.83602
-6.83777
-6.85093
-6.88306
-6.90776
-6.90776
-6.90776
-6.90776
-6.90776
-6.90776
-6.90776
-6.90776
-6.90776
-6.88886
-6.84575
-6.81894
-6.80107
-6.78764
-6.77629
-6.76638
-6.7598
-6.75798
-6.76738
-6.79784
-6.86388
-6.90776
-6.90776
-6.90776
-6.90776
-6.90776
-6.90776
-6.90776
-6.90776
-6.8441
-6.79983
-6.77174
-6.75218
-6.7362
-6.72084
-6.70491
-6.68902
-6.67868
-6.67756
-6.70046
-6.76606
-6.88268
-6.90776
-6.90776
-6.90776
-6.90776
-6.90776
-6.90776
-6.88687
-6.81326
-6.76785
-6.73816
-6.71601
-6.69563
-6.67307
-6.64627
-6.61575
-6.58718
-6.57466
-6.587
-6.64373
-6.70131
-6.82937
-6.90776
-6.90776
-6.90776
-6.90776
-6.90776
-6.86641
-6.79222
-6.74584
-6.71433
-6.68871
-6.66202
-6.62896
-6.58654
-6.53539
-6.4868
-6.46856
-6.47829
-6.47031
-6.3979
-6.39753
-6.66263
-6.90776
-6.90776
-6.90776
-6.90776
-6.85257
-6.77841
-6.73146
-6.69817
-6.66851
-6.63413
-6.58835
-6.5276
-6.45355
-6.40072
-6.3964
-6.41616
-6.37217
-6.25035
-6.16313
-6.12166
-6.62866
-6.90776
-6.90776
-6.90776
-6.84356
-6.7703
-6.72346
-6.6888
-6.65522
-6.6131
-6.55501
-6.47846
-6.39473
-6.36447
-6.41618
-6.45328
-6.41488
-6.31478
-6.11335
-5.91714
-5.9546
-6.90776
-6.90776
-6.90776
-6.83827
-6.76702
-6.72131
-6.68613
-6.64952
-6.60115
-6.53385
-6.44755
-6.37514
-6.36952
-6.46491
-6.57136
-6.61362
-6.56403
-6.26586
-5.8481
-5.59574
-6.90776
-6.90776
-6.90776
-6.83607
-6.76788
-6.72365
-6.68877
-6.65101
-6.5996
-6.52737
-6.43789
-6.37204
-6.38347
-6.53257
-6.71372
-6.79454
-6.73386
-6.38671
-5.87323
-5.45236
-6.90776
-6.90776
-6.90776
-6.83673
-6.77185
-6.73017
-6.69631
-6.65787
-6.60506
-6.53229
-6.44415
-6.37342
-6.37745
-6.51089
-6.72545
-6.86707
-6.78183
-6.44518
-5.89338
-5.3642
-6.90776
-6.90776
-6.90776
-6.84015
-6.78012
-6.74161
-6.70942
-6.67163
-6.61857
-6.54598
-6.45918
-6.38139
-6.36393
-6.44547
-6.63745
-6.76009
-6.68794
-6.45152
-5.9017
-5.28653
-6.90776
-6.90776
-6.90776
-6.84848
-6.79373
-6.7583
-6.72802
-6.69181
-6.64078
-6.57085
-6.48645
-6.40402
-6.36394
-6.39252
-6.48353
-6.59917
-6.56067
-6.42394
-5.89216
-5.20027
-6.90776
-6.90776
-6.90776
-6.86063
-6.81149
-6.77823
-6.74862
-6.71342
-6.66526
-6.6002
-6.52129
-6.44151
-6.38387
-6.39319
-6.4397
-6.53703
-6.52458
-6.43203
-5.82685
-5.09492
-6.90776
-6.90776
-6.90776
-6.8309
-6.78039
-6.74188
-6.7065
-6.66809
-6.62151
-6.56297
-6.49285
-6.41943
-6.35886
-6.35511
-6.37733
-6.44395
-6.45776
-6.31608
-5.70568
-4.95424
-6.90776
-6.72278
-6.47251
-6.33613
-6.25099
-6.18516
-6.12984
-6.08278
-6.04205
-6.00566
-5.97172
-5.93891
-5.90944
-5.88531
-5.87877
-5.86361
-5.8255
-5.63145
-5.35465
-4.75905
-5.46523
-5.03087
-4.77584
-4.65311
-4.588
-4.54991
-4.52753
-4.51557
-4.51115
-4.51215
-4.51551
-4.52214
-4.53205
-4.54014
-4.55007
-4.54966
-4.54116
-4.53798
-4.48263
-4.57675
)
;

boundaryField
{
    movingWall
    {
        type            calculated;
        value           nonuniform List<scalar> 
20
(
-5.46523
-5.03087
-4.77584
-4.65311
-4.588
-4.54991
-4.52753
-4.51557
-4.51115
-4.51215
-4.51551
-4.52214
-4.53205
-4.54014
-4.55007
-4.54966
-4.54116
-4.53798
-4.48263
-4.57675
)
;
    }
    fixedWalls
    {
        type            calculated;
        value           nonuniform List<scalar> 
60
(
-6.90776
-6.90776
-6.90776
-6.90776
-6.90776
-6.90776
-6.90776
-6.90776
-6.90776
-6.90776
-6.90776
-6.90776
-6.90776
-6.90776
-6.90776
-6.90776
-6.90776
-6.90776
-6.90776
-5.46523
-6.90776
-6.90776
-6.90776
-6.90776
-6.90776
-6.90776
-6.90776
-6.90776
-6.90776
-6.62866
-5.9546
-5.59574
-5.45236
-5.3642
-5.28653
-5.20027
-5.09492
-4.95424
-4.75905
-4.57675
-6.90776
-6.90776
-6.90776
-6.90776
-6.90776
-6.90776
-6.90776
-6.90776
-6.90776
-6.90776
-6.90776
-6.90776
-6.90776
-6.90776
-6.90776
-6.90776
-6.90776
-6.90776
-6.90776
-6.90776
)
;
    }
    frontAndBack
    {
        type            empty;
    }
}


// ************************************************************************* //
