/*--------------------------------*- C++ -*----------------------------------*\
| =========                 |                                                 |
| \\      /  F ield         | OpenFOAM: The Open Source CFD Toolbox           |
|  \\    /   O peration     | Version:  2312                                  |
|   \\  /    A nd           | Website:  www.openfoam.com                      |
|    \\/     M anipulation  |                                                 |
\*---------------------------------------------------------------------------*/
FoamFile
{
    version     2.0;
    format      ascii;
    arch        "LSB;label=32;scalar=64";
    class       volScalarField;
    location    "1";
    object      magP;
}
// * * * * * * * * * * * * * * * * * * * * * * * * * * * * * * * * * * * * * //

dimensions      [0 2 -2 0 0 0 0];

internalField   nonuniform List<scalar> 
400
(
4.54233e-08
0
6.46899e-06
3.19404e-05
7.44928e-05
0.000135358
0.000215553
0.000315988
0.000437363
0.000579621
0.000741486
0.000921651
0.0011148
0.00130987
0.00149457
0.0016528
0.0017698
0.00183821
0.00186255
0.00185258
3.24256e-06
0
9.95429e-06
3.76997e-05
8.15898e-05
0.000142486
0.00022151
0.000319694
0.000437814
0.000576054
0.000733872
0.000909728
0.00109763
0.00128919
0.00147203
0.00163091
0.00175141
0.00182464
0.00185203
0.0018414
0
0
0
1.67552e-05
6.09989e-05
0.000121445
0.000199166
0.000295413
0.000411355
0.000547817
0.000705021
0.00088184
0.00107373
0.00127282
0.00146631
0.00163693
0.00176645
0.00184187
0.0018639
0.00184396
0
0
0
0
7.89399e-06
6.62557e-05
0.000141722
0.000235846
0.000350466
0.000487484
0.000648457
0.000833589
0.00103986
0.00126023
0.00147987
0.00167543
0.0018187
0.00188943
0.0018937
0.00185431
0
0
0
0
0
0
4.89034e-05
0.000139252
0.000251644
0.000389443
0.000556162
0.000754214
0.000982933
0.00123777
0.00150159
0.00174053
0.00190558
0.00196258
0.00193167
0.00186187
0
0
0
0
0
0
0
4.25334e-06
0.000110523
0.000245418
0.000415243
0.000626119
0.000882196
0.00118324
0.00151656
0.00183176
0.00203408
0.00206278
0.00196613
0.00184707
0
0
0
0
0
0
0
0
0
4.30431e-05
0.000206408
0.00042225
0.000702719
0.00105933
0.00150004
0.00194915
0.00221527
0.00217949
0.00196992
0.00176792
0
0
0
0
0
0
0
0
0
0
0
0.000104209
0.000389336
0.000789447
0.001363
0.00201254
0.00239106
0.00222828
0.00180548
0.00151509
0
0
0
0
0
0
0
0
0
0
0
0
0
0.000193063
0.000707462
0.00137302
0.00190308
0.00194339
0.00145408
0.00113433
0
0
0
0
0
0
0
0
0
0
0
0
0
0
0
0
0
0.000162304
0.000985796
0.00104793
0
0
0
0
0
0
0
0
0
0
0
0
0
0
0
0
0
0
0
0.000715502
0
0
0
0
0
0
0
0
0
0
0
0
0
0
0
0
0
0
0
0
0
0
0
0
0
0
0
0
0
0
0
0
0
0
0
0
0
0
0
0
0
0
0
0
0
0
0
0
0
0
0
0
0
0
0
0
0
0
0
0
0
0
0
0
0
0
0
0
0
0
0
0
0
0
0
0
0
0
0
0
0
0
0
0
0
0
0
0
0
0
0
0
0
0
0
0
0
0
0
0
0
0
0
0
0
0
0
0
0
0
0
0
0
0
0
0
0
0
0
0
0
0
0
0
0
0
0
0
0
0
0
0
0
0
0
0
0
0
0
0
0
0
0
0
0
0
0
0
0
0
0
0
0
0
0
0
0
0
0.000407618
0.013545
0
0.00156145
0.00072675
0
0
0
0
0
0
0
0
0
0
0
0
0
0
0.00108873
0.0032062
0.0565738
)
;

boundaryField
{
    movingWall
    {
        type            calculated;
        value           nonuniform List<scalar> 
20
(
0
0.00156145
0.00072675
0
0
0
0
0
0
0
0
0
0
0
0
0
0
0.00108873
0.0032062
0.0565738
)
;
    }
    fixedWalls
    {
        type            calculated;
        value           nonuniform List<scalar> 
60
(
4.54233e-08
3.24256e-06
0
0
0
0
0
0
0
0
0
0
0
0
0
0
0
0
0
0
0.00185258
0.0018414
0.00184396
0.00185431
0.00186187
0.00184707
0.00176792
0.00151509
0.00113433
0.00104793
0.000715502
0
0
0
0
0
0
0
0.013545
0.0565738
4.54233e-08
0
6.46899e-06
3.19404e-05
7.44928e-05
0.000135358
0.000215553
0.000315988
0.000437363
0.000579621
0.000741486
0.000921651
0.0011148
0.00130987
0.00149457
0.0016528
0.0017698
0.00183821
0.00186255
0.00185258
)
;
    }
    frontAndBack
    {
        type            empty;
    }
}


// ************************************************************************* //
