/*--------------------------------*- C++ -*----------------------------------*\
| =========                 |                                                 |
| \\      /  F ield         | OpenFOAM: The Open Source CFD Toolbox           |
|  \\    /   O peration     | Version:  2312                                  |
|   \\  /    A nd           | Website:  www.openfoam.com                      |
|    \\/     M anipulation  |                                                 |
\*---------------------------------------------------------------------------*/
FoamFile
{
    version     2.0;
    format      ascii;
    arch        "LSB;label=32;scalar=64";
    class       volScalarField;
    location    "1";
    object      magSqrU;
}
// * * * * * * * * * * * * * * * * * * * * * * * * * * * * * * * * * * * * * //

dimensions      [0 2 -2 0 0 0 0];

internalField   nonuniform List<scalar> 
400
(
7.28807e-08
1.76402e-06
9.12927e-06
2.40687e-05
4.71559e-05
7.76142e-05
0.000113989
0.000154207
0.000195331
0.000233486
0.000263586
0.000277406
0.000273785
0.000245557
0.000196929
0.000136098
7.66593e-05
3.1739e-05
7.05766e-06
4.58828e-07
1.77096e-06
9.99394e-06
2.57965e-05
4.98429e-05
8.28972e-05
0.0001247
0.00017382
0.000227551
0.000281868
0.000331458
0.000369848
0.000389664
0.000385322
0.000353678
0.000297275
0.000224509
0.000148318
8.19745e-05
3.31945e-05
6.71781e-06
9.09564e-06
2.58577e-05
4.79804e-05
7.68665e-05
0.000113519
0.000158313
0.000210454
0.000267706
0.000326367
0.000381353
0.000426408
0.0004546
0.000459854
0.000438215
0.000389662
0.000319217
0.000236763
0.000155207
8.44809e-05
3.03743e-05
2.41241e-05
4.9926e-05
7.71608e-05
0.000109895
0.00014939
0.000196416
0.000250877
0.000311397
0.00037522
0.000438212
0.000494923
0.000538869
0.000563233
0.000561546
0.000528956
0.000464541
0.000374021
0.000271563
0.00017143
7.68162e-05
4.78997e-05
8.34904e-05
0.000114978
0.00015111
0.000193681
0.000243769
0.000302008
0.000368129
0.000440795
0.000517444
0.000594077
0.000664958
0.000722483
0.000756178
0.000753
0.000701254
0.000598403
0.000460235
0.000310085
0.000147161
8.03191e-05
0.000127169
0.000162553
0.000201884
0.000248
0.000302457
0.00036677
0.000442124
0.000529221
0.000628024
0.000737152
0.000852832
0.000967378
0.00106638
0.00112376
0.00110515
0.000986059
0.000772089
0.000515113
0.00022896
0.000120704
0.000181018
0.000220498
0.00026312
0.000313369
0.000373651
0.000446744
0.000535873
0.000644792
0.000777616
0.000937859
0.00112685
0.00134242
0.0015734
0.00177944
0.00187982
0.00177686
0.00137245
0.000789677
0.00027154
0.000168052
0.000244472
0.000288614
0.000334761
0.000389687
0.000457147
0.000541754
0.000649664
0.00078919
0.00097118
0.00120836
0.00151542
0.00191651
0.00244534
0.00308567
0.00370005
0.00389876
0.00308151
0.00138182
0.000265955
0.000221146
0.00031641
0.000365825
0.000415544
0.000475251
0.000550599
0.000648719
0.000779735
0.000958352
0.00120569
0.00155084
0.00203971
0.00278285
0.00399118
0.00584854
0.00817807
0.00977142
0.008623
0.00400368
0.000340028
0.000278686
0.000395263
0.000450187
0.00050283
0.000566347
0.000648775
0.000760326
0.000915893
0.00113794
0.00146142
0.00194204
0.00268379
0.00399935
0.00646901
0.0100868
0.0140204
0.0187539
0.0204944
0.0126236
0.000974731
0.000339489
0.000479261
0.000539025
0.000592592
0.000657067
0.000743162
0.000864287
0.00103995
0.00129979
0.00169201
0.00230235
0.0033008
0.00511534
0.0080221
0.01082
0.0139387
0.0213171
0.0312324
0.0292369
0.00694597
0.000403529
0.000566895
0.000629309
0.000679709
0.000739665
0.000822596
0.000944547
0.00112827
0.00140759
0.00183741
0.00251955
0.00365522
0.00549489
0.00719918
0.00660663
0.00602692
0.0126928
0.02869
0.0440744
0.0230437
0.000470982
0.000657635
0.00071818
0.000758599
0.000805646
0.000875222
0.000985036
0.00115902
0.00143165
0.00185582
0.00252603
0.00361604
0.00515615
0.00576462
0.00324471
0.000457729
0.00459143
0.0173624
0.04352
0.0447356
0.000550847
0.000754466
0.000804072
0.000824186
0.000847226
0.00089127
0.000974537
0.00112013
0.00135999
0.00173772
0.00232729
0.00324124
0.00449716
0.00499149
0.0029109
0.000569625
0.00340116
0.011113
0.0319824
0.0624455
0.00063237
0.000855583
0.000883265
0.000870272
0.00085782
0.000865257
0.000910103
0.001013
0.00120191
0.0015151
0.00200277
0.00272461
0.0036994
0.00436854
0.00357609
0.00242106
0.00380731
0.00874534
0.0227029
0.0690002
0.000808002
0.000989228
0.000957893
0.000890755
0.000832633
0.000798594
0.000800361
0.00085578
0.000989953
0.00123803
0.0016387
0.00222751
0.00299893
0.00372804
0.00381237
0.00344533
0.0037978
0.0065205
0.0161454
0.070803
0.00079195
0.00100042
0.000945556
0.000847425
0.000755105
0.000687065
0.000657037
0.000677895
0.000773099
0.00097691
0.00132968
0.00186333
0.00256788
0.00333645
0.00383009
0.00383199
0.00359322
0.00521419
0.0114411
0.0728519
0.00212024
0.00188508
0.00137475
0.00100491
0.000788475
0.000656482
0.000594561
0.000609354
0.000716211
0.000946252
0.00134362
0.00194926
0.00275787
0.0036892
0.0044727
0.00480541
0.00405235
0.00559619
0.00713157
0.0727823
0.000379817
0.000189156
0.000113368
0.000227058
0.000441208
0.000762318
0.00120458
0.00176646
0.00245373
0.00329102
0.00431742
0.00557602
0.00706266
0.00872455
0.0101662
0.0114063
0.0100276
0.0125985
0.00285307
0.0566565
0.010218
0.00883227
0.00972609
0.0129835
0.016552
0.0201035
0.0237157
0.0273799
0.0310735
0.0348096
0.0386191
0.042528
0.0464846
0.0504527
0.0537452
0.0571403
0.0543839
0.0643109
0.0161463
0.153166
)
;

boundaryField
{
    movingWall
    {
        type            calculated;
        value           uniform 1;
    }
    fixedWalls
    {
        type            calculated;
        value           uniform 0;
    }
    frontAndBack
    {
        type            empty;
    }
}


// ************************************************************************* //
