/*--------------------------------*- C++ -*----------------------------------*\
| =========                 |                                                 |
| \\      /  F ield         | OpenFOAM: The Open Source CFD Toolbox           |
|  \\    /   O peration     | Version:  2312                                  |
|   \\  /    A nd           | Website:  www.openfoam.com                      |
|    \\/     M anipulation  |                                                 |
\*---------------------------------------------------------------------------*/
FoamFile
{
    version     2.0;
    format      ascii;
    arch        "LSB;label=32;scalar=64";
    class       volScalarField;
    location    "1";
    object      magSqrP;
}
// * * * * * * * * * * * * * * * * * * * * * * * * * * * * * * * * * * * * * //

dimensions      [0 4 -4 0 0 0 0];

internalField   nonuniform List<scalar> 
400
(
2.06328e-15
0
4.18478e-11
1.02019e-09
5.54918e-09
1.83218e-08
4.64629e-08
9.98481e-08
1.91286e-07
3.3596e-07
5.49802e-07
8.49441e-07
1.24278e-06
1.71575e-06
2.23374e-06
2.73176e-06
3.13219e-06
3.37901e-06
3.46911e-06
3.43204e-06
1.05142e-11
0
9.90879e-11
1.42126e-09
6.65689e-09
2.03022e-08
4.90665e-08
1.02204e-07
1.91681e-07
3.31838e-07
5.38568e-07
8.27606e-07
1.20479e-06
1.66201e-06
2.16688e-06
2.65988e-06
3.06744e-06
3.3293e-06
3.43002e-06
3.39075e-06
0
0
0
2.80735e-10
3.72086e-09
1.4749e-08
3.9667e-08
8.72689e-08
1.69213e-07
3.00104e-07
4.97055e-07
7.77642e-07
1.15289e-06
1.62006e-06
2.15007e-06
2.67953e-06
3.12036e-06
3.39249e-06
3.47414e-06
3.40021e-06
0
0
0
0
6.23151e-11
4.38982e-09
2.00851e-08
5.56233e-08
1.22827e-07
2.3764e-07
4.20496e-07
6.9487e-07
1.08132e-06
1.58819e-06
2.19002e-06
2.80708e-06
3.30767e-06
3.56996e-06
3.58611e-06
3.43846e-06
0
0
0
0
0
0
2.39155e-09
1.93911e-08
6.33248e-08
1.51666e-07
3.09317e-07
5.68839e-07
9.66157e-07
1.53208e-06
2.25477e-06
3.02943e-06
3.63123e-06
3.85173e-06
3.73135e-06
3.46656e-06
0
0
0
0
0
0
0
1.80909e-11
1.22152e-08
6.02298e-08
1.72427e-07
3.92025e-07
7.7827e-07
1.40006e-06
2.29994e-06
3.35534e-06
4.13748e-06
4.25505e-06
3.86566e-06
3.41168e-06
0
0
0
0
0
0
0
0
0
1.85271e-09
4.26041e-08
1.78295e-07
4.93813e-07
1.12217e-06
2.25012e-06
3.79918e-06
4.90744e-06
4.75018e-06
3.8806e-06
3.12554e-06
0
0
0
0
0
0
0
0
0
0
0
1.08595e-08
1.51583e-07
6.23227e-07
1.85777e-06
4.05033e-06
5.71718e-06
4.96522e-06
3.25975e-06
2.29551e-06
0
0
0
0
0
0
0
0
0
0
0
0
0
3.72732e-08
5.00502e-07
1.88519e-06
3.62171e-06
3.77677e-06
2.11436e-06
1.28671e-06
0
0
0
0
0
0
0
0
0
0
0
0
0
0
0
0
0
2.63426e-08
9.71794e-07
1.09815e-06
0
0
0
0
0
0
0
0
0
0
0
0
0
0
0
0
0
0
0
5.11942e-07
0
0
0
0
0
0
0
0
0
0
0
0
0
0
0
0
0
0
0
0
0
0
0
0
0
0
0
0
0
0
0
0
0
0
0
0
0
0
0
0
0
0
0
0
0
0
0
0
0
0
0
0
0
0
0
0
0
0
0
0
0
0
0
0
0
0
0
0
0
0
0
0
0
0
0
0
0
0
0
0
0
0
0
0
0
0
0
0
0
0
0
0
0
0
0
0
0
0
0
0
0
0
0
0
0
0
0
0
0
0
0
0
0
0
0
0
0
0
0
0
0
0
0
0
0
0
0
0
0
0
0
0
0
0
0
0
0
0
0
0
0
0
0
0
0
0
0
0
0
0
0
0
0
0
0
0
0
0
1.66152e-07
0.000183468
0
2.43813e-06
5.28166e-07
0
0
0
0
0
0
0
0
0
0
0
0
0
0
1.18533e-06
1.02797e-05
0.00320059
)
;

boundaryField
{
    movingWall
    {
        type            calculated;
        value           nonuniform List<scalar> 
20
(
0
2.43813e-06
5.28166e-07
0
0
0
0
0
0
0
0
0
0
0
0
0
0
1.18533e-06
1.02797e-05
0.00320059
)
;
    }
    fixedWalls
    {
        type            calculated;
        value           nonuniform List<scalar> 
60
(
2.06328e-15
1.05142e-11
0
0
0
0
0
0
0
0
0
0
0
0
0
0
0
0
0
0
3.43204e-06
3.39075e-06
3.40021e-06
3.43846e-06
3.46656e-06
3.41168e-06
3.12554e-06
2.29551e-06
1.28671e-06
1.09815e-06
5.11942e-07
0
0
0
0
0
0
0
0.000183468
0.00320059
2.06328e-15
0
4.18478e-11
1.02019e-09
5.54918e-09
1.83218e-08
4.64629e-08
9.98481e-08
1.91286e-07
3.3596e-07
5.49802e-07
8.49441e-07
1.24278e-06
1.71575e-06
2.23374e-06
2.73176e-06
3.13219e-06
3.37901e-06
3.46911e-06
3.43204e-06
)
;
    }
    frontAndBack
    {
        type            empty;
    }
}


// ************************************************************************* //
