/*--------------------------------*- C++ -*----------------------------------*\
| =========                 |                                                 |
| \\      /  F ield         | OpenFOAM: The Open Source CFD Toolbox           |
|  \\    /   O peration     | Version:  2312                                  |
|   \\  /    A nd           | Website:  www.openfoam.com                      |
|    \\/     M anipulation  |                                                 |
\*---------------------------------------------------------------------------*/
FoamFile
{
    version     2.0;
    format      ascii;
    arch        "LSB;label=32;scalar=64";
    class       volScalarField;
    location    "1";
    object      magU;
}
// * * * * * * * * * * * * * * * * * * * * * * * * * * * * * * * * * * * * * //

dimensions      [0 1 -1 0 0 0 0];

internalField   nonuniform List<scalar> 
400
(
0.000269964
0.00132816
0.00302147
0.00490599
0.00686702
0.00880989
0.0106766
0.012418
0.0139761
0.0152803
0.0162353
0.0166555
0.0165464
0.0156703
0.0140331
0.0116661
0.00875553
0.00563374
0.00265663
0.000677368
0.00133078
0.00316132
0.00507903
0.00705995
0.00910479
0.0111669
0.0131841
0.0150848
0.0167889
0.018206
0.0192314
0.0197399
0.0196296
0.0188063
0.0172417
0.0149836
0.0121786
0.00905397
0.00576147
0.00259187
0.0030159
0.00508504
0.00692679
0.00876736
0.0106545
0.0125822
0.014507
0.0163617
0.0180656
0.0195283
0.0206497
0.0213214
0.0214442
0.0209336
0.0197399
0.0178666
0.0153871
0.0124582
0.00919135
0.00551129
0.00491163
0.00706584
0.00878412
0.0104831
0.0122225
0.0140148
0.0158391
0.0176464
0.0193706
0.0209335
0.0222469
0.0232135
0.0237325
0.023697
0.022999
0.0215532
0.0193396
0.0164792
0.0130931
0.00876449
0.00692096
0.00913731
0.0107228
0.0122927
0.0139169
0.0156131
0.0173784
0.0191867
0.0209951
0.0227474
0.0243737
0.0257868
0.026879
0.0274987
0.0274408
0.0264812
0.0244623
0.0214531
0.0176092
0.012131
0.00896209
0.0112769
0.0127496
0.0142086
0.015748
0.0173913
0.0191512
0.0210268
0.0230048
0.0250604
0.0271505
0.0292033
0.0311027
0.0326554
0.0335225
0.0332438
0.0314016
0.0277865
0.0226961
0.0151314
0.0109865
0.0134543
0.0148492
0.016221
0.0177022
0.0193301
0.0211363
0.0231489
0.0253927
0.0278858
0.0306245
0.0335686
0.0366391
0.0396661
0.0421835
0.0433569
0.0421528
0.0370466
0.0281012
0.0164785
0.0129635
0.0156356
0.0169886
0.0182965
0.0197405
0.021381
0.0232756
0.0254885
0.0280925
0.0311638
0.0347615
0.0389284
0.043778
0.0494504
0.0555488
0.060828
0.0624401
0.0555113
0.0371729
0.0163081
0.014871
0.0177879
0.0191266
0.0203849
0.0218002
0.0234649
0.02547
0.0279237
0.0309573
0.0347231
0.0393807
0.0451631
0.0527527
0.0631758
0.0764758
0.0904327
0.0988505
0.0928601
0.0632746
0.0184399
0.0166939
0.0198812
0.0212176
0.0224239
0.023798
0.0254711
0.027574
0.0302637
0.0337334
0.0382285
0.0440686
0.0518053
0.0632404
0.0804301
0.100433
0.118408
0.136945
0.143159
0.112355
0.0312207
0.0184252
0.021892
0.0232169
0.0243432
0.0256333
0.027261
0.0293988
0.0322483
0.0360526
0.041134
0.0479828
0.0574526
0.0715216
0.0895662
0.104019
0.118062
0.146004
0.176727
0.170988
0.0833425
0.020088
0.0238096
0.025086
0.0260712
0.0271968
0.0286809
0.0307335
0.0335898
0.0375178
0.042865
0.0501951
0.0604584
0.0741275
0.084848
0.0812812
0.0776332
0.112662
0.169381
0.209939
0.151802
0.0217021
0.0256444
0.0267989
0.0275427
0.0283839
0.0295842
0.0313853
0.0340444
0.0378371
0.0430793
0.0502596
0.0601335
0.0718064
0.0759251
0.0569624
0.0213946
0.0677601
0.131767
0.208614
0.211508
0.0234701
0.0274675
0.0283562
0.0287086
0.0291071
0.0298541
0.0312176
0.0334683
0.0368781
0.041686
0.048242
0.0569319
0.0670609
0.0706505
0.0539527
0.0238668
0.0583194
0.105418
0.178836
0.249891
0.025147
0.0292504
0.0297198
0.0295004
0.0292886
0.0294152
0.0301679
0.0318277
0.0346686
0.0389243
0.0447523
0.0521978
0.0608227
0.0660949
0.0598004
0.0492042
0.0617034
0.0935165
0.150675
0.262679
0.0284254
0.031452
0.0309499
0.0298455
0.0288554
0.0282594
0.0282907
0.0292537
0.0314635
0.0351856
0.0404808
0.0471965
0.0547625
0.0610577
0.0617444
0.0586969
0.0616263
0.0807496
0.127065
0.266088
0.0281416
0.0316293
0.0307499
0.0291106
0.0274792
0.0262119
0.0256327
0.0260364
0.0278047
0.0312556
0.0364647
0.0431663
0.0506742
0.057762
0.0618877
0.061903
0.0599435
0.0722094
0.106963
0.269911
0.046046
0.0434175
0.0370776
0.0317004
0.0280798
0.0256219
0.0243836
0.0246851
0.0267621
0.0307612
0.0366554
0.0441505
0.0525154
0.0607388
0.0668782
0.0693211
0.063658
0.0748077
0.0844486
0.269782
0.0194889
0.0137534
0.0106474
0.0150684
0.0210049
0.0276101
0.034707
0.0420292
0.0495352
0.0573674
0.0657071
0.0746728
0.0840396
0.0934053
0.100827
0.1068
0.100138
0.112243
0.0534142
0.238026
0.101084
0.0939802
0.0986209
0.113945
0.128655
0.141787
0.153999
0.165469
0.176277
0.186573
0.196517
0.206223
0.215603
0.224617
0.23183
0.23904
0.233203
0.253596
0.127068
0.391365
)
;

boundaryField
{
    movingWall
    {
        type            calculated;
        value           uniform 1;
    }
    fixedWalls
    {
        type            calculated;
        value           uniform 0;
    }
    frontAndBack
    {
        type            empty;
    }
}


// ************************************************************************* //
