/*--------------------------------*- C++ -*----------------------------------*\
| =========                 |                                                 |
| \\      /  F ield         | OpenFOAM: The Open Source CFD Toolbox           |
|  \\    /   O peration     | Version:  2312                                  |
|   \\  /    A nd           | Website:  www.openfoam.com                      |
|    \\/     M anipulation  |                                                 |
\*---------------------------------------------------------------------------*/
FoamFile
{
    version     2.0;
    format      ascii;
    arch        "LSB;label=32;scalar=64";
    class       volVectorField;
    location    "1";
    object      momentum1:momentum;
}
// * * * * * * * * * * * * * * * * * * * * * * * * * * * * * * * * * * * * * //

dimensions      [1 1 -1 0 0 0 0];

internalField   nonuniform List<vector> 
400
(
(-4.76105e-11 4.7836e-11 0)
(-2.89368e-10 1.62843e-10 0)
(-7.17489e-10 2.36196e-10 0)
(-1.19824e-09 2.61732e-10 0)
(-1.69645e-09 2.63231e-10 0)
(-2.18773e-09 2.54444e-10 0)
(-2.65833e-09 2.40014e-10 0)
(-3.09668e-09 2.20218e-10 0)
(-3.48871e-09 1.92593e-10 0)
(-3.81703e-09 1.52269e-10 0)
(-4.05773e-09 9.47572e-11 0)
(-4.16375e-09 3.21758e-11 0)
(-4.13611e-09 -6.44192e-11 0)
(-3.91386e-09 -1.70318e-10 0)
(-3.49705e-09 -2.8061e-10 0)
(-2.89199e-09 -3.77548e-10 0)
(-2.14505e-09 -4.35861e-10 0)
(-1.34377e-09 -4.21869e-10 0)
(-5.90918e-10 -3.03181e-10 0)
(-1.19768e-10 -1.19718e-10 0)
(-1.61592e-10 2.90815e-10 0)
(-5.54324e-10 5.63335e-10 0)
(-1.05206e-09 7.10956e-10 0)
(-1.58836e-09 7.69604e-10 0)
(-2.1391e-09 7.78024e-10 0)
(-2.68689e-09 7.57865e-10 0)
(-3.21704e-09 7.172e-10 0)
(-3.71374e-09 6.55812e-10 0)
(-4.15859e-09 5.68206e-10 0)
(-4.52965e-09 4.45443e-10 0)
(-4.79977e-09 2.78806e-10 0)
(-4.93453e-09 6.6585e-11 0)
(-4.90357e-09 -1.9383e-10 0)
(-4.67586e-09 -4.91126e-10 0)
(-4.2366e-09 -7.94303e-10 0)
(-3.59353e-09 -1.05751e-09 0)
(-2.78929e-09 -1.22056e-09 0)
(-1.90602e-09 -1.22086e-09 0)
(-1.02562e-09 -1.01131e-09 0)
(-2.94038e-10 -5.77412e-10 0)
(-2.41576e-10 7.14226e-10 0)
(-7.06741e-10 1.0567e-09 0)
(-1.22149e-09 1.22749e-09 0)
(-1.76201e-09 1.30365e-09 0)
(-2.31411e-09 1.31903e-09 0)
(-2.86768e-09 1.29265e-09 0)
(-3.41151e-09 1.23085e-09 0)
(-3.93095e-09 1.13106e-09 0)
(-4.40784e-09 9.84319e-10 0)
(-4.81971e-09 7.77781e-10 0)
(-5.13826e-09 4.98845e-10 0)
(-5.3285e-09 1.40098e-10 0)
(-5.35272e-09 -2.98809e-10 0)
(-5.17206e-09 -7.98908e-10 0)
(-4.75672e-09 -1.31436e-09 0)
(-4.10091e-09 -1.7702e-09 0)
(-3.2418e-09 -2.07084e-09 0)
(-2.27018e-09 -2.13231e-09 0)
(-1.27496e-09 -1.91168e-09 0)
(-3.93772e-10 -1.32036e-09 0)
(-2.74863e-10 1.19675e-09 0)
(-7.78119e-10 1.58585e-09 0)
(-1.30933e-09 1.76301e-09 0)
(-1.85802e-09 1.8483e-09 0)
(-2.4161e-09 1.87065e-09 0)
(-2.97942e-09 1.84365e-09 0)
(-3.54217e-09 1.76998e-09 0)
(-4.09404e-09 1.64352e-09 0)
(-4.62019e-09 1.45089e-09 0)
(-5.10009e-09 1.1736e-09 0)
(-5.50506e-09 7.91869e-10 0)
(-5.79613e-09 2.90158e-10 0)
(-5.92362e-09 -3.35826e-10 0)
(-5.82731e-09 -1.0673e-09 0)
(-5.44552e-09 -1.84553e-09 0)
(-4.74179e-09 -2.55914e-09 0)
(-3.74778e-09 -3.05458e-09 0)
(-2.59172e-09 -3.20245e-09 0)
(-1.41078e-09 -2.95366e-09 0)
(-4.14908e-10 -2.15148e-09 0)
(-2.83231e-10 1.7069e-09 0)
(-8.0421e-10 2.13808e-09 0)
(-1.34997e-09 2.31597e-09 0)
(-1.91101e-09 2.40675e-09 0)
(-2.48236e-09 2.43781e-09 0)
(-3.06438e-09 2.41768e-09 0)
(-3.65746e-09 2.34488e-09 0)
(-4.25765e-09 2.20919e-09 0)
(-4.85617e-09 1.99181e-09 0)
(-5.4372e-09 1.66647e-09 0)
(-5.97369e-09 1.20205e-09 0)
(-6.42162e-09 5.68038e-10 0)
(-6.7149e-09 -2.55432e-10 0)
(-6.75792e-09 -1.26157e-09 0)
(-6.43075e-09 -2.38912e-09 0)
(-5.63422e-09 -3.47619e-09 0)
(-4.38735e-09 -4.26043e-09 0)
(-2.89945e-09 -4.51197e-09 0)
(-1.4349e-09 -4.16189e-09 0)
(-3.61733e-10 -3.0111e-09 0)
(-2.80563e-10 2.22289e-09 0)
(-8.06615e-10 2.70137e-09 0)
(-1.36237e-09 2.88159e-09 0)
(-1.9352e-09 2.97872e-09 0)
(-2.52249e-09 3.02276e-09 0)
(-3.12828e-09 3.01951e-09 0)
(-3.75965e-09 2.96449e-09 0)
(-4.42106e-09 2.84377e-09 0)
(-5.11316e-09 2.63284e-09 0)
(-5.82942e-09 2.29552e-09 0)
(-6.549e-09 1.78399e-09 0)
(-7.22608e-09 1.04198e-09 0)
(-7.77566e-09 1.56769e-11 0)
(-8.05558e-09 -1.32518e-09 0)
(-7.84677e-09 -2.94329e-09 0)
(-6.91528e-09 -4.60985e-09 0)
(-5.22819e-09 -5.85617e-09 0)
(-3.12484e-09 -6.20411e-09 0)
(-1.18752e-09 -5.54836e-09 0)
(-1.67437e-10 -3.77915e-09 0)
(-2.72647e-10 2.73307e-09 0)
(-7.95295e-10 3.2682e-09 0)
(-1.35505e-09 3.45615e-09 0)
(-1.93526e-09 3.56367e-09 0)
(-2.53555e-09 3.6272e-09 0)
(-3.16358e-09 3.65307e-09 0)
(-3.83386e-09 3.63634e-09 0)
(-4.5615e-09 3.56157e-09 0)
(-5.36099e-09 3.39989e-09 0)
(-6.2421e-09 3.10438e-09 0)
(-7.19939e-09 2.60481e-09 0)
(-8.19534e-09 1.80676e-09 0)
(-9.14027e-09 5.97507e-10 0)
(-9.8511e-09 -1.13721e-09 0)
(-9.96741e-09 -3.44471e-09 0)
(-8.98797e-09 -6.05847e-09 0)
(-6.70435e-09 -8.13051e-09 0)
(-3.50556e-09 -8.57259e-09 0)
(-5.05553e-10 -7.00708e-09 0)
(3.51999e-10 -4.10455e-09 0)
(-2.61622e-10 3.23029e-09 0)
(-7.74205e-10 3.83146e-09 0)
(-1.33076e-09 4.03329e-09 0)
(-1.91045e-09 4.15604e-09 0)
(-2.515e-09 4.2462e-09 0)
(-3.15567e-09 4.31433e-09 0)
(-3.85488e-09 4.35884e-09 0)
(-4.64053e-09 4.36686e-09 0)
(-5.54564e-09 4.30932e-09 0)
(-6.6052e-09 4.1316e-09 0)
(-7.84447e-09 3.7399e-09 0)
(-9.26048e-09 2.99289e-09 0)
(-1.08114e-08 1.70169e-09 0)
(-1.23564e-08 -3.92935e-10 0)
(-1.3432e-08 -3.52627e-09 0)
(-1.32033e-08 -7.54486e-09 0)
(-1.09044e-08 -1.11699e-08 0)
(-6.39742e-09 -1.23153e-08 0)
(-8.7583e-10 -9.25186e-09 0)
(1.17506e-09 -3.90402e-09 0)
(-2.48497e-10 3.70943e-09 0)
(-7.45332e-10 4.38407e-09 0)
(-1.29046e-09 4.60422e-09 0)
(-1.8585e-09 4.74526e-09 0)
(-2.45253e-09 4.86706e-09 0)
(-3.08679e-09 4.9884e-09 0)
(-3.79116e-09 5.11586e-09 0)
(-4.60668e-09 5.24518e-09 0)
(-5.58759e-09 5.35498e-09 0)
(-6.80241e-09 5.39288e-09 0)
(-8.32607e-09 5.25395e-09 0)
(-1.02333e-08 4.7708e-09 0)
(-1.26539e-08 3.71563e-09 0)
(-1.57037e-08 1.68599e-09 0)
(-1.90119e-08 -2.01986e-09 0)
(-2.11578e-08 -7.96724e-09 0)
(-1.98309e-08 -1.47462e-08 0)
(-1.44681e-08 -1.81552e-08 0)
(-6.14392e-09 -1.45768e-08 0)
(1.38028e-09 -4.39848e-09 0)
(-2.3446e-10 4.16688e-09 0)
(-7.11178e-10 4.91916e-09 0)
(-1.23629e-09 5.15832e-09 0)
(-1.77896e-09 5.31622e-09 0)
(-2.34209e-09 5.46912e-09 0)
(-2.94111e-09 5.64786e-09 0)
(-3.61088e-09 5.87213e-09 0)
(-4.4023e-09 6.1533e-09 0)
(-5.38733e-09 6.48831e-09 0)
(-6.66801e-09 6.84663e-09 0)
(-8.37677e-09 7.15592e-09 0)
(-1.0685e-08 7.31906e-09 0)
(-1.40803e-08 7.19062e-09 0)
(-1.91716e-08 6.06323e-09 0)
(-2.50428e-08 1.81236e-09 0)
(-2.8715e-08 -7.19177e-09 0)
(-2.87466e-08 -1.85944e-08 0)
(-2.41519e-08 -2.64118e-08 0)
(-1.45698e-08 -2.40145e-08 0)
(-1.56139e-09 -7.6474e-09 0)
(-2.21778e-10 4.60096e-09 0)
(-6.76845e-10 5.43099e-09 0)
(-1.17426e-09 5.6842e-09 0)
(-1.67668e-09 5.85028e-09 0)
(-2.18452e-09 6.0245e-09 0)
(-2.71162e-09 6.25258e-09 0)
(-3.29287e-09 6.57077e-09 0)
(-3.98069e-09 7.01078e-09 0)
(-4.85092e-09 7.59641e-09 0)
(-6.01697e-09 8.33945e-09 0)
(-7.62925e-09 9.25698e-09 0)
(-9.87347e-09 1.04314e-08 0)
(-1.34232e-08 1.18122e-08 0)
(-1.90138e-08 1.18261e-08 0)
(-2.51332e-08 6.67588e-09 0)
(-2.89868e-08 -5.56193e-09 0)
(-2.98695e-08 -2.09794e-08 0)
(-2.8051e-08 -3.41345e-08 0)
(-2.08775e-08 -3.7302e-08 0)
(-7.61287e-09 -1.9395e-08 0)
(-2.14954e-10 5.01741e-09 0)
(-6.50985e-10 5.91669e-09 0)
(-1.11643e-09 6.17134e-09 0)
(-1.56456e-09 6.32724e-09 0)
(-1.99188e-09 6.50088e-09 0)
(-2.40772e-09 6.75389e-09 0)
(-2.84121e-09 7.13874e-09 0)
(-3.33554e-09 7.70657e-09 0)
(-3.95097e-09 8.50671e-09 0)
(-4.77454e-09 9.59383e-09 0)
(-5.90846e-09 1.10708e-08 0)
(-7.43349e-09 1.31603e-08 0)
(-9.7113e-09 1.57836e-08 0)
(-1.33708e-08 1.64673e-08 0)
(-1.72091e-08 1.08056e-08 0)
(-1.92672e-08 -2.33638e-09 0)
(-2.03161e-08 -1.95079e-08 0)
(-2.18513e-08 -3.62718e-08 0)
(-2.04505e-08 -4.83366e-08 0)
(-1.0343e-08 -3.65138e-08 0)
(-2.20756e-10 5.42104e-09 0)
(-6.49732e-10 6.37809e-09 0)
(-1.08239e-09 6.61171e-09 0)
(-1.46463e-09 6.7281e-09 0)
(-1.789e-09 6.86676e-09 0)
(-2.05929e-09 7.10357e-09 0)
(-2.29493e-09 7.5032e-09 0)
(-2.52219e-09 8.12881e-09 0)
(-2.77231e-09 9.0439e-09 0)
(-3.07999e-09 1.032e-08 0)
(-3.46386e-09 1.2078e-08 0)
(-3.85558e-09 1.45306e-08 0)
(-4.17332e-09 1.74598e-08 0)
(-4.70819e-09 1.83881e-08 0)
(-5.61679e-09 1.30861e-08 0)
(-5.34779e-09 9.59048e-11 0)
(-5.84596e-09 -1.58993e-08 0)
(-8.98495e-09 -3.16926e-08 0)
(-1.3681e-08 -5.03272e-08 0)
(-9.21757e-09 -5.20674e-08 0)
(-2.49016e-10 5.86225e-09 0)
(-6.90112e-10 6.83212e-09 0)
(-1.09577e-09 7.00384e-09 0)
(-1.40379e-09 7.03854e-09 0)
(-1.60761e-09 7.09699e-09 0)
(-1.7096e-09 7.2651e-09 0)
(-1.71938e-09 7.61264e-09 0)
(-1.64485e-09 8.20381e-09 0)
(-1.48745e-09 9.09873e-09 0)
(-1.23042e-09 1.03486e-08 0)
(-8.22042e-10 1.20324e-08 0)
(-1.25779e-10 1.42324e-08 0)
(1.18324e-09 1.67234e-08 0)
(3.14115e-09 1.73811e-08 0)
(4.55858e-09 1.26945e-08 0)
(5.94519e-09 5.06181e-10 0)
(4.96428e-09 -1.37087e-08 0)
(1.72575e-09 -2.6298e-08 0)
(-5.58571e-09 -4.43588e-08 0)
(-6.4256e-09 -6.21414e-08 0)
(-3.22276e-10 6.27847e-09 0)
(-8.10606e-10 7.26752e-09 0)
(-1.18518e-09 7.33481e-09 0)
(-1.4066e-09 7.23972e-09 0)
(-1.47176e-09 7.1727e-09 0)
(-1.39726e-09 7.21985e-09 0)
(-1.17949e-09 7.44918e-09 0)
(-8.12997e-10 7.91528e-09 0)
(-2.82044e-10 8.66256e-09 0)
(4.64283e-10 9.72e-09 0)
(1.50489e-09 1.10864e-08 0)
(2.97631e-09 1.27055e-08 0)
(5.15012e-09 1.4307e-08 0)
(8.14227e-09 1.43784e-08 0)
(1.07988e-08 1.03388e-08 0)
(1.22655e-08 9.35152e-10 0)
(1.08259e-08 -1.09889e-08 0)
(6.8141e-09 -2.23641e-08 0)
(-4.13239e-11 -3.76687e-08 0)
(-4.19158e-09 -6.55358e-08 0)
(-4.46736e-10 7.09229e-09 0)
(-9.84804e-10 7.80108e-09 0)
(-1.34087e-09 7.6204e-09 0)
(-1.45662e-09 7.31782e-09 0)
(-1.37518e-09 7.08156e-09 0)
(-1.12519e-09 6.97467e-09 0)
(-7.00266e-10 7.03791e-09 0)
(-8.80141e-11 7.3129e-09 0)
(7.49362e-10 7.8301e-09 0)
(1.86309e-09 8.59684e-09 0)
(3.32073e-09 9.55988e-09 0)
(5.21135e-09 1.05859e-08 0)
(7.66697e-09 1.13424e-08 0)
(1.06931e-08 1.08931e-08 0)
(1.34005e-08 7.66163e-09 0)
(1.46445e-08 9.33094e-10 0)
(1.3188e-08 -7.96485e-09 0)
(9.26102e-09 -1.79378e-08 0)
(3.35619e-09 -3.15884e-08 0)
(-3.0532e-09 -6.6452e-08 0)
(-7.31611e-10 6.99726e-09 0)
(-1.45198e-09 7.77289e-09 0)
(-1.59611e-09 7.51995e-09 0)
(-1.48537e-09 7.12445e-09 0)
(-1.20631e-09 6.76305e-09 0)
(-7.78621e-10 6.50656e-09 0)
(-1.76582e-10 6.40575e-09 0)
(6.31264e-10 6.47842e-09 0)
(1.69492e-09 6.74136e-09 0)
(3.0604e-09 7.18963e-09 0)
(4.77365e-09 7.7664e-09 0)
(6.86159e-09 8.32925e-09 0)
(9.31839e-09 8.58253e-09 0)
(1.20373e-08 7.97688e-09 0)
(1.43906e-08 5.68246e-09 0)
(1.54375e-08 1.08696e-09 0)
(1.40231e-08 -5.28474e-09 0)
(1.13702e-08 -1.40216e-08 0)
(5.80183e-09 -2.61038e-08 0)
(-1.87516e-09 -6.74517e-08 0)
(-1.10892e-09 1.1458e-08 0)
(-1.7171e-09 1.07177e-08 0)
(-1.45041e-09 9.15523e-09 0)
(-9.77298e-10 7.8646e-09 0)
(-4.1723e-10 7.00754e-09 0)
(3.05141e-10 6.39821e-09 0)
(1.20727e-09 5.97516e-09 0)
(2.29143e-09 5.7301e-09 0)
(3.58413e-09 5.64953e-09 0)
(5.13908e-09 5.72107e-09 0)
(7.00139e-09 5.9124e-09 0)
(9.18376e-09 6.12271e-09 0)
(1.16068e-08 6.13591e-09 0)
(1.41036e-08 5.62702e-09 0)
(1.61857e-08 4.19125e-09 0)
(1.72807e-08 1.31035e-09 0)
(1.56446e-08 -2.91872e-09 0)
(1.55863e-08 -1.03359e-08 0)
(6.54416e-09 -2.00723e-08 0)
(1.41948e-09 -6.74305e-08 0)
(-1.51949e-09 4.62922e-09 0)
(-2.10513e-09 2.71858e-09 0)
(-2.50343e-10 2.65006e-09 0)
(1.71949e-09 3.35178e-09 0)
(3.8686e-09 3.55098e-09 0)
(5.98966e-09 3.43058e-09 0)
(8.02824e-09 3.29142e-09 0)
(1.00058e-08 3.20757e-09 0)
(1.1972e-08 3.16677e-09 0)
(1.39895e-08 3.15966e-09 0)
(1.61148e-08 3.18638e-09 0)
(1.83874e-08 3.22584e-09 0)
(2.0763e-08 3.2116e-09 0)
(2.31608e-08 2.97693e-09 0)
(2.50943e-08 2.37994e-09 0)
(2.66809e-08 1.01278e-09 0)
(2.5019e-08 -8.79962e-10 0)
(2.7508e-08 -5.54212e-09 0)
(7.70728e-09 -1.09048e-08 0)
(1.79299e-08 -5.67411e-08 0)
(1.01919e-08 2.31247e-08 0)
(1.57103e-08 1.74701e-08 0)
(2.20677e-08 1.09953e-08 0)
(2.75222e-08 7.34834e-09 0)
(3.17042e-08 5.41713e-09 0)
(3.5188e-08 4.27461e-09 0)
(3.83387e-08 3.51744e-09 0)
(4.12598e-08 2.97904e-09 0)
(4.3994e-08 2.57413e-09 0)
(4.65885e-08 2.26032e-09 0)
(4.90882e-08 2.01103e-09 0)
(5.15244e-08 1.79873e-09 0)
(5.38766e-08 1.61212e-09 0)
(5.61362e-08 1.42059e-09 0)
(5.79451e-08 1.19898e-09 0)
(5.97536e-08 8.76803e-10 0)
(5.82989e-08 4.84509e-10 0)
(6.3394e-08 -7.93874e-10 0)
(3.17561e-08 8.31212e-10 0)
(9.4703e-08 -2.45814e-08 0)
)
;

boundaryField
{
    movingWall
    {
        type            calculated;
        value           uniform (0 0 0);
    }
    fixedWalls
    {
        type            calculated;
        value           uniform (0 0 0);
    }
    frontAndBack
    {
        type            empty;
    }
}


// ************************************************************************* //
