/*--------------------------------*- C++ -*----------------------------------*\
| =========                 |                                                 |
| \\      /  F ield         | OpenFOAM: The Open Source CFD Toolbox           |
|  \\    /   O peration     | Version:  2312                                  |
|   \\  /    A nd           | Website:  www.openfoam.com                      |
|    \\/     M anipulation  |                                                 |
\*---------------------------------------------------------------------------*/
FoamFile
{
    version     2.0;
    format      ascii;
    arch        "LSB;label=32;scalar=64";
    class       volVectorField;
    location    "1";
    object      norm_U_L1;
}
// * * * * * * * * * * * * * * * * * * * * * * * * * * * * * * * * * * * * * //

dimensions      [0 0 0 0 0 0 0];

internalField   nonuniform List<vector> 
400
(
(-9.56533e-06 9.61063e-06 0)
(-5.81362e-05 3.27164e-05 0)
(-0.000144149 4.74537e-05 0)
(-0.000240737 5.25839e-05 0)
(-0.000340831 5.28853e-05 0)
(-0.000439531 5.11197e-05 0)
(-0.00053408 4.82207e-05 0)
(-0.000622148 4.42435e-05 0)
(-0.000700909 3.86934e-05 0)
(-0.000766871 3.05921e-05 0)
(-0.00081523 1.90375e-05 0)
(-0.000836531 6.46436e-06 0)
(-0.000830977 -1.29423e-05 0)
(-0.000786326 -3.42182e-05 0)
(-0.000702584 -5.63768e-05 0)
(-0.000581023 -7.58524e-05 0)
(-0.000430957 -8.75679e-05 0)
(-0.000269974 -8.47567e-05 0)
(-0.00011872 -6.09115e-05 0)
(-2.40622e-05 -2.40524e-05 0)
(-3.2465e-05 5.8427e-05 0)
(-0.000111368 0.000113178 0)
(-0.000211367 0.000142837 0)
(-0.000319114 0.000154619 0)
(-0.000429762 0.000156311 0)
(-0.000539818 0.000152261 0)
(-0.000646329 0.000144091 0)
(-0.000746119 0.000131758 0)
(-0.000835494 0.000114157 0)
(-0.000910042 8.9493e-05 0)
(-0.000964311 5.60143e-05 0)
(-0.000991386 1.33774e-05 0)
(-0.000985167 -3.89419e-05 0)
(-0.000939417 -9.86711e-05 0)
(-0.000851166 -0.000159582 0)
(-0.000721969 -0.000212461 0)
(-0.00056039 -0.00024522 0)
(-0.000382934 -0.00024528 0)
(-0.000206056 -0.000203181 0)
(-5.90745e-05 -0.000116007 0)
(-4.85344e-05 0.000143494 0)
(-0.00014199 0.0002123 0)
(-0.000245407 0.000246612 0)
(-0.000354001 0.000261913 0)
(-0.000464923 0.000265004 0)
(-0.000576139 0.000259704 0)
(-0.000685399 0.000247288 0)
(-0.000789758 0.000227239 0)
(-0.00088557 0.000197757 0)
(-0.000968318 0.000156262 0)
(-0.00103232 0.000100222 0)
(-0.00107054 2.81468e-05 0)
(-0.0010754 -6.0033e-05 0)
(-0.00103911 -0.000160507 0)
(-0.000955662 -0.000264065 0)
(-0.000823905 -0.000355647 0)
(-0.000651304 -0.000416049 0)
(-0.000456097 -0.000428398 0)
(-0.00025615 -0.000384071 0)
(-7.91119e-05 -0.00026527 0)
(-5.52221e-05 0.000240436 0)
(-0.00015633 0.000318609 0)
(-0.000263054 0.000354203 0)
(-0.000373291 0.000371338 0)
(-0.000485414 0.000375828 0)
(-0.000598588 0.000370405 0)
(-0.000711649 0.000355603 0)
(-0.000822524 0.000330196 0)
(-0.000928233 0.000291495 0)
(-0.00102465 0.000235785 0)
(-0.00110601 0.000159093 0)
(-0.00116449 5.82951e-05 0)
(-0.0011901 -6.747e-05 0)
(-0.00117075 -0.000214428 0)
(-0.00109405 -0.000370782 0)
(-0.000952664 -0.000514152 0)
(-0.000752958 -0.000613689 0)
(-0.000520697 -0.000643397 0)
(-0.000283437 -0.000593413 0)
(-8.33582e-05 -0.000432249 0)
(-5.69034e-05 0.00034293 0)
(-0.000161572 0.000429558 0)
(-0.000271219 0.000465296 0)
(-0.000383936 0.000483535 0)
(-0.000498726 0.000489775 0)
(-0.000615658 0.000485731 0)
(-0.000734813 0.000471105 0)
(-0.000855395 0.000443843 0)
(-0.000975643 0.00040017 0)
(-0.00109238 0.000334807 0)
(-0.00120016 0.000241501 0)
(-0.00129015 0.000114123 0)
(-0.00134908 -5.13183e-05 0)
(-0.00135772 -0.000253459 0)
(-0.00129199 -0.000479992 0)
(-0.00113196 -0.000698395 0)
(-0.000881454 -0.000855955 0)
(-0.000582522 -0.000906491 0)
(-0.000288283 -0.000836157 0)
(-7.2675e-05 -0.000604954 0)
(-5.63674e-05 0.000446596 0)
(-0.000162055 0.000542727 0)
(-0.00027371 0.000578933 0)
(-0.000388797 0.000598448 0)
(-0.000506788 0.000607296 0)
(-0.000628496 0.000606643 0)
(-0.000755343 0.000595589 0)
(-0.000888226 0.000571335 0)
(-0.00102727 0.000528958 0)
(-0.00117118 0.000461187 0)
(-0.00131575 0.000358418 0)
(-0.00145178 0.000209342 0)
(-0.00156219 3.14961e-06 0)
(-0.00161843 -0.000266239 0)
(-0.00157648 -0.000591331 0)
(-0.00138933 -0.000926155 0)
(-0.00105039 -0.00117655 0)
(-0.000627804 -0.00124645 0)
(-0.000238583 -0.00111471 0)
(-3.36393e-05 -0.000759261 0)
(-5.4777e-05 0.000549095 0)
(-0.000159781 0.000656607 0)
(-0.00027224 0.000694368 0)
(-0.000388809 0.00071597 0)
(-0.000509411 0.000728732 0)
(-0.000635589 0.000733931 0)
(-0.000770253 0.00073057 0)
(-0.000916441 0.000715548 0)
(-0.00107707 0.000683064 0)
(-0.00125409 0.000623695 0)
(-0.00144641 0.000523327 0)
(-0.00164651 0.000362992 0)
(-0.00183635 0.000120044 0)
(-0.00197916 -0.000228474 0)
(-0.00200253 -0.00069207 0)
(-0.00180575 -0.00121719 0)
(-0.00134696 -0.00163348 0)
(-0.000704295 -0.0017223 0)
(-0.000101569 -0.00140778 0)
(7.07194e-05 -0.000824637 0)
(-5.2562e-05 0.000648991 0)
(-0.000155544 0.000769771 0)
(-0.000267361 0.00081032 0)
(-0.000383825 0.000834982 0)
(-0.000505283 0.000853095 0)
(-0.000633999 0.000866783 0)
(-0.000774477 0.000875725 0)
(-0.000932318 0.000877337 0)
(-0.00111416 0.000865777 0)
(-0.00132704 0.000830072 0)
(-0.00157602 0.000751375 0)
(-0.0018605 0.000601295 0)
(-0.0021721 0.000341882 0)
(-0.00248249 -7.89437e-05 0)
(-0.0026986 -0.000708456 0)
(-0.00265265 -0.00151582 0)
(-0.00219079 -0.00224412 0)
(-0.00128529 -0.00247425 0)
(-0.000175961 -0.00185877 0)
(0.000236078 -0.000784349 0)
(-4.99251e-05 0.000745253 0)
(-0.000149743 0.000880795 0)
(-0.000259264 0.000925023 0)
(-0.000373387 0.000953359 0)
(-0.000492733 0.00097783 0)
(-0.000620161 0.00100221 0)
(-0.000761674 0.00102782 0)
(-0.000925518 0.0010538 0)
(-0.00112259 0.00107586 0)
(-0.00136666 0.00108347 0)
(-0.00167277 0.00105556 0)
(-0.00205596 0.000958491 0)
(-0.00254227 0.0007465 0)
(-0.003155 0.00033873 0)
(-0.00381965 -0.000405805 0)
(-0.00425077 -0.00160068 0)
(-0.00398418 -0.00296263 0)
(-0.00290675 -0.00364752 0)
(-0.00123436 -0.00292859 0)
(0.000277309 -0.000883689 0)
(-4.71048e-05 0.00083716 0)
(-0.000142881 0.000988298 0)
(-0.00024838 0.00103635 0)
(-0.000357407 0.00106807 0)
(-0.000470545 0.00109879 0)
(-0.000590893 0.0011347 0)
(-0.000725454 0.00117976 0)
(-0.000884456 0.00123625 0)
(-0.00108236 0.00130355 0)
(-0.00133966 0.00137554 0)
(-0.00168296 0.00143768 0)
(-0.00214669 0.00147046 0)
(-0.00282884 0.00144465 0)
(-0.00385172 0.00121815 0)
(-0.00503129 0.000364117 0)
(-0.00576907 -0.00144488 0)
(-0.00577542 -0.00373577 0)
(-0.00485231 -0.00530633 0)
(-0.00292719 -0.00482471 0)
(-0.000313695 -0.00153642 0)
(-4.4557e-05 0.00092437 0)
(-0.000135983 0.00109113 0)
(-0.000235918 0.001142 0)
(-0.000336857 0.00117537 0)
(-0.000438888 0.00121037 0)
(-0.000544785 0.00125619 0)
(-0.000661563 0.00132012 0)
(-0.000799752 0.00140852 0)
(-0.000974589 0.00152618 0)
(-0.00120886 0.00167546 0)
(-0.00153278 0.0018598 0)
(-0.00198366 0.00209575 0)
(-0.00269682 0.00237316 0)
(-0.00382002 0.00237596 0)
(-0.00504946 0.00134124 0)
(-0.00582367 -0.00111744 0)
(-0.00600101 -0.00421493 0)
(-0.00563567 -0.0068579 0)
(-0.00419445 -0.00749426 0)
(-0.00152949 -0.00389661 0)
(-4.31859e-05 0.00100804 0)
(-0.000130788 0.00118871 0)
(-0.0002243 0.00123987 0)
(-0.000314333 0.00127119 0)
(-0.000400184 0.00130608 0)
(-0.000483731 0.00135691 0)
(-0.000570822 0.00143423 0)
(-0.000670137 0.00154831 0)
(-0.000793782 0.00170906 0)
(-0.000959242 0.00192748 0)
(-0.00118706 0.00222421 0)
(-0.00149345 0.00264402 0)
(-0.00195108 0.00317104 0)
(-0.00268629 0.00330841 0)
(-0.00345745 0.00217093 0)
(-0.00387093 -0.000469396 0)
(-0.00408166 -0.00391929 0)
(-0.00439009 -0.0072873 0)
(-0.00410866 -0.00971121 0)
(-0.00207799 -0.0073359 0)
(-4.43516e-05 0.00108913 0)
(-0.000130536 0.00128141 0)
(-0.000217461 0.00132834 0)
(-0.000294256 0.00135173 0)
(-0.000359423 0.00137959 0)
(-0.000413727 0.00142716 0)
(-0.00046107 0.00150745 0)
(-0.000506727 0.00163314 0)
(-0.00055698 0.00181699 0)
(-0.000618794 0.00207337 0)
(-0.000695917 0.00242657 0)
(-0.000774616 0.0029193 0)
(-0.000838453 0.0035078 0)
(-0.000945912 0.00369431 0)
(-0.00112846 0.0026291 0)
(-0.00107441 1.9268e-05 0)
(-0.0011745 -0.0031943 0)
(-0.00180515 -0.0063673 0)
(-0.00274862 -0.0101111 0)
(-0.00185188 -0.0104607 0)
(-5.00293e-05 0.00117777 0)
(-0.000138649 0.00137263 0)
(-0.000220149 0.00140713 0)
(-0.000282031 0.0014141 0)
(-0.000322982 0.00142584 0)
(-0.000343472 0.00145961 0)
(-0.000345438 0.00152944 0)
(-0.000330464 0.00164821 0)
(-0.00029884 0.00182801 0)
(-0.000247201 0.00207912 0)
(-0.000165155 0.00241741 0)
(-2.527e-05 0.00285941 0)
(0.000237723 0.00335987 0)
(0.000631082 0.00349199 0)
(0.000915855 0.00255042 0)
(0.00119444 0.000101696 0)
(0.000997364 -0.00275418 0)
(0.000346716 -0.00528347 0)
(-0.00112221 -0.00891203 0)
(-0.00129095 -0.0124847 0)
(-6.47477e-05 0.00126139 0)
(-0.000162857 0.0014601 0)
(-0.000238112 0.00147362 0)
(-0.000282598 0.00145452 0)
(-0.000295687 0.00144105 0)
(-0.000280721 0.00145052 0)
(-0.000236969 0.0014966 0)
(-0.000163338 0.00159024 0)
(-5.66649e-05 0.00174038 0)
(9.32782e-05 0.00195283 0)
(0.000302344 0.00222734 0)
(0.000597965 0.00255263 0)
(0.0010347 0.00287438 0)
(0.00163585 0.00288873 0)
(0.00216957 0.00207715 0)
(0.00246423 0.000187879 0)
(0.00217501 -0.00220776 0)
(0.00136901 -0.00449312 0)
(-8.30231e-06 -0.00756793 0)
(-0.000842121 -0.0131667 0)
(-8.97527e-05 0.0014249 0)
(-0.000197855 0.0015673 0)
(-0.00026939 0.001531 0)
(-0.000292646 0.00147021 0)
(-0.000276284 0.00142274 0)
(-0.000226059 0.00140127 0)
(-0.000140689 0.00141397 0)
(-1.76827e-05 0.00146922 0)
(0.000150553 0.00157313 0)
(0.000374309 0.00172717 0)
(0.000667161 0.00192065 0)
(0.001047 0.00212679 0)
(0.00154035 0.00227878 0)
(0.00214833 0.00218852 0)
(0.00269226 0.00153928 0)
(0.0029422 0.000187466 0)
(0.00264958 -0.0016002 0)
(0.00186061 -0.00360385 0)
(0.000674285 -0.00634635 0)
(-0.000613412 -0.0133507 0)
(-0.000146986 0.0014058 0)
(-0.000291713 0.00156163 0)
(-0.00032067 0.00151082 0)
(-0.000298423 0.00143136 0)
(-0.000242357 0.00135875 0)
(-0.000156431 0.00130722 0)
(-3.54767e-05 0.00128697 0)
(0.000126826 0.00130157 0)
(0.000340522 0.00135439 0)
(0.000614858 0.00144445 0)
(0.000959064 0.00156033 0)
(0.00137855 0.00167341 0)
(0.00187214 0.0017243 0)
(0.00241839 0.00160262 0)
(0.00289119 0.00114165 0)
(0.00310152 0.000218378 0)
(0.00281735 -0.00106175 0)
(0.00228435 -0.00281706 0)
(0.00116563 -0.00524445 0)
(-0.000376734 -0.0135516 0)
(-0.000222791 0.002302 0)
(-0.00034498 0.00215327 0)
(-0.000291399 0.00183936 0)
(-0.000196347 0.00158006 0)
(-8.38247e-05 0.00140787 0)
(6.13052e-05 0.00128545 0)
(0.000242549 0.00120046 0)
(0.000460366 0.00115122 0)
(0.00072008 0.00113504 0)
(0.00103248 0.00114941 0)
(0.00140663 0.00118785 0)
(0.00184509 0.0012301 0)
(0.00233189 0.00123275 0)
(0.00283353 0.00113051 0)
(0.00325183 0.000842056 0)
(0.00347182 0.00026326 0)
(0.00314312 -0.000586394 0)
(0.0031314 -0.00207656 0)
(0.00131477 -0.00403268 0)
(0.000285184 -0.0135473 0)
(-0.000305277 0.000930047 0)
(-0.000422937 0.000546184 0)
(-5.02959e-05 0.000532417 0)
(0.00034546 0.0006734 0)
(0.000777231 0.000713419 0)
(0.00120337 0.00068923 0)
(0.00161294 0.000661272 0)
(0.00201023 0.000644425 0)
(0.00240528 0.00063623 0)
(0.0028106 0.000634801 0)
(0.00323758 0.000640169 0)
(0.00369417 0.000648096 0)
(0.00417145 0.000645235 0)
(0.00465318 0.000598089 0)
(0.00504163 0.000478149 0)
(0.0053604 0.000203475 0)
(0.00502651 -0.000176791 0)
(0.00552657 -0.00111345 0)
(0.00154845 -0.00219086 0)
(0.00360226 -0.0113997 0)
(0.00204763 0.00464593 0)
(0.00315632 0.00350987 0)
(0.00443358 0.00220904 0)
(0.00552943 0.00147634 0)
(0.00636962 0.00108834 0)
(0.00706955 0.000858803 0)
(0.00770255 0.000706681 0)
(0.00828941 0.000598513 0)
(0.00883873 0.000517163 0)
(0.00936 0.000454116 0)
(0.0098622 0.000404032 0)
(0.0103517 0.000361378 0)
(0.0108242 0.000323888 0)
(0.0112782 0.000285408 0)
(0.0116416 0.000240884 0)
(0.012005 0.000176157 0)
(0.0117127 9.73416e-05 0)
(0.0127364 -0.000159496 0)
(0.00638005 0.000166997 0)
(0.0190266 -0.0049386 0)
)
;

boundaryField
{
    movingWall
    {
        type            calculated;
        value           uniform (0.050227 0 0);
    }
    fixedWalls
    {
        type            calculated;
        value           uniform (0 0 0);
    }
    frontAndBack
    {
        type            empty;
    }
}


// ************************************************************************* //
