/*--------------------------------*- C++ -*----------------------------------*\
| =========                 |                                                 |
| \\      /  F ield         | OpenFOAM: The Open Source CFD Toolbox           |
|  \\    /   O peration     | Version:  2312                                  |
|   \\  /    A nd           | Website:  www.openfoam.com                      |
|    \\/     M anipulation  |                                                 |
\*---------------------------------------------------------------------------*/
FoamFile
{
    version     2.0;
    format      ascii;
    arch        "LSB;label=32;scalar=64";
    class       volVectorField;
    location    "1";
    object      norm_U_Lp;
}
// * * * * * * * * * * * * * * * * * * * * * * * * * * * * * * * * * * * * * //

dimensions      [0 0 0 0 0 0 0];

internalField   nonuniform List<vector> 
400
(
(-0.705434 0.708775 0)
(-0.871481 0.490429 0)
(-0.949855 0.31269 0)
(-0.976965 0.213398 0)
(-0.988175 0.153331 0)
(-0.993304 0.115526 0)
(-0.995949 0.0899217 0)
(-0.997481 0.070935 0)
(-0.99848 0.0551207 0)
(-0.999205 0.0398604 0)
(-0.999727 0.0233459 0)
(-0.99997 0.00772736 0)
(-0.999879 -0.0155729 0)
(-0.999054 -0.0434755 0)
(-0.996796 -0.0799849 0)
(-0.991586 -0.129451 0)
(-0.979974 -0.199125 0)
(-0.954087 -0.29953 0)
(-0.889728 -0.456491 0)
(-0.707252 -0.706961 0)
(-0.485707 0.874122 0)
(-0.701383 0.712785 0)
(-0.82855 0.559915 0)
(-0.899928 0.436039 0)
(-0.93977 0.341809 0)
(-0.962447 0.271468 0)
(-0.976039 0.217596 0)
(-0.984763 0.1739 0)
(-0.990794 0.135376 0)
(-0.995199 0.0978674 0)
(-0.998317 0.0579896 0)
(-0.999909 0.0134924 0)
(-0.99922 -0.0394974 0)
(-0.994529 -0.10446 0)
(-0.982875 -0.184275 0)
(-0.959323 -0.28231 0)
(-0.916128 -0.400886 0)
(-0.84207 -0.539368 0)
(-0.712057 -0.702121 0)
(-0.453784 -0.891112 0)
(-0.320403 0.947281 0)
(-0.555937 0.831224 0)
(-0.705373 0.708837 0)
(-0.803894 0.594773 0)
(-0.868779 0.4952 0)
(-0.91166 0.410946 0)
(-0.940649 0.339381 0)
(-0.96101 0.276514 0)
(-0.975962 0.217943 0)
(-0.987228 0.159314 0)
(-0.99532 0.0966302 0)
(-0.999655 0.0262832 0)
(-0.998445 -0.0557369 0)
(-0.988279 -0.152656 0)
(-0.96388 -0.266336 0)
(-0.918115 -0.396314 0)
(-0.842733 -0.538332 0)
(-0.728893 -0.684628 0)
(-0.554854 -0.831947 0)
(-0.285793 -0.958291 0)
(-0.223846 0.974624 0)
(-0.440496 0.897754 0)
(-0.596225 0.802818 0)
(-0.708959 0.70525 0)
(-0.790705 0.612197 0)
(-0.850361 0.526201 0)
(-0.894539 0.446991 0)
(-0.928015 0.372544 0)
(-0.954063 0.299606 0)
(-0.974531 0.224252 0)
(-0.989812 0.142378 0)
(-0.998749 0.0499981 0)
(-0.998397 -0.0566017 0)
(-0.983638 -0.180158 0)
(-0.947088 -0.320975 0)
(-0.880016 -0.474944 0)
(-0.77515 -0.631777 0)
(-0.62909 -0.777333 0)
(-0.430998 -0.902353 0)
(-0.189358 -0.981908 0)
(-0.163695 0.986511 0)
(-0.352056 0.935979 0)
(-0.50359 0.863943 0)
(-0.621835 0.783148 0)
(-0.71348 0.700675 0)
(-0.785078 0.619397 0)
(-0.841842 0.539724 0)
(-0.887625 0.460566 0)
(-0.9252 0.37948 0)
(-0.9561 0.29304 0)
(-0.980349 0.19727 0)
(-0.99611 0.0881131 0)
(-0.999277 -0.0380121 0)
(-0.983018 -0.18351 0)
(-0.937399 -0.348257 0)
(-0.851052 -0.525081 0)
(-0.717407 -0.696654 0)
(-0.540612 -0.841272 0)
(-0.325944 -0.945389 0)
(-0.119276 -0.992861 0)
(-0.125222 0.992129 0)
(-0.286112 0.958196 0)
(-0.427421 0.904053 0)
(-0.544796 0.838568 0)
(-0.640713 0.76778 0)
(-0.719505 0.694488 0)
(-0.785254 0.619174 0)
(-0.841035 0.540981 0)
(-0.88906 0.45779 0)
(-0.930459 0.366397 0)
(-0.964842 0.262829 0)
(-0.989763 0.142721 0)
(-0.999998 0.00201615 0)
(-0.986738 -0.162323 0)
(-0.936299 -0.351203 0)
(-0.832069 -0.554673 0)
(-0.665979 -0.745971 0)
(-0.449836 -0.893111 0)
(-0.209291 -0.977853 0)
(-0.044262 -0.99902 0)
(-0.0992658 0.995061 0)
(-0.236444 0.971645 0)
(-0.365016 0.931001 0)
(-0.477224 0.878782 0)
(-0.572933 0.819602 0)
(-0.654645 0.755936 0)
(-0.72555 0.68817 0)
(-0.7882 0.615419 0)
(-0.844492 0.535569 0)
(-0.895381 0.4453 0)
(-0.940344 0.340226 0)
(-0.97655 0.215292 0)
(-0.99787 0.0652316 0)
(-0.993403 -0.114678 0)
(-0.945148 -0.326641 0)
(-0.829208 -0.55894 0)
(-0.636196 -0.771528 0)
(-0.378503 -0.9256 0)
(-0.0719617 -0.997407 0)
(0.0854446 -0.996343 0)
(-0.080726 0.996736 0)
(-0.198062 0.980189 0)
(-0.31333 0.949644 0)
(-0.417666 0.9086 0)
(-0.509612 0.860404 0)
(-0.590369 0.807134 0)
(-0.662476 0.749083 0)
(-0.728254 0.685307 0)
(-0.789625 0.61359 0)
(-0.847805 0.530309 0)
(-0.902662 0.43035 0)
(-0.951539 0.307527 0)
(-0.987839 0.155483 0)
(-0.999495 -0.0317841 0)
(-0.967225 -0.253923 0)
(-0.86824 -0.496144 0)
(-0.698553 -0.715558 0)
(-0.460981 -0.88741 0)
(-0.094244 -0.995549 0)
(0.288214 -0.957566 0)
(-0.0668409 0.997764 0)
(-0.167604 0.985854 0)
(-0.269878 0.962895 0)
(-0.364681 0.931132 0)
(-0.450001 0.893028 0)
(-0.526198 0.850362 0)
(-0.595393 0.803434 0)
(-0.659894 0.751359 0)
(-0.721975 0.691919 0)
(-0.783618 0.621244 0)
(-0.845701 0.533657 0)
(-0.906345 0.422539 0)
(-0.959491 0.28174 0)
(-0.994286 0.106749 0)
(-0.994404 -0.105647 0)
(-0.935848 -0.352405 0)
(-0.802459 -0.596708 0)
(-0.623221 -0.782046 0)
(-0.388397 -0.921492 0)
(0.299412 -0.954124 0)
(-0.0561785 0.998421 0)
(-0.143085 0.98971 0)
(-0.233068 0.97246 0)
(-0.317333 0.948314 0)
(-0.393662 0.919255 0)
(-0.461875 0.886945 0)
(-0.523809 0.851836 0)
(-0.581858 0.81329 0)
(-0.638812 0.769363 0)
(-0.6977 0.71639 0)
(-0.76034 0.649526 0)
(-0.825009 0.56512 0)
(-0.890588 0.454812 0)
(-0.953453 0.30154 0)
(-0.997391 0.0721818 0)
(-0.970039 -0.242949 0)
(-0.839654 -0.543121 0)
(-0.67483 -0.737973 0)
(-0.518707 -0.854952 0)
(-0.200045 -0.979787 0)
(-0.0481467 0.99884 0)
(-0.12367 0.992323 0)
(-0.202311 0.979321 0)
(-0.275506 0.961299 0)
(-0.340888 0.940104 0)
(-0.397875 0.91744 0)
(-0.448028 0.89402 0)
(-0.493756 0.869601 0)
(-0.538205 0.842814 0)
(-0.585109 0.810954 0)
(-0.635998 0.771691 0)
(-0.687417 0.726263 0)
(-0.750719 0.660622 0)
(-0.84915 0.528152 0)
(-0.966486 0.256718 0)
(-0.982085 -0.188441 0)
(-0.81832 -0.574763 0)
(-0.634901 -0.772594 0)
(-0.488397 -0.872622 0)
(-0.365378 -0.930859 0)
(-0.0428023 0.999084 0)
(-0.109365 0.994002 0)
(-0.178017 0.984027 0)
(-0.240044 0.970762 0)
(-0.292958 0.956125 0)
(-0.335794 0.941935 0)
(-0.369787 0.929116 0)
(-0.39721 0.917728 0)
(-0.421237 0.906951 0)
(-0.445542 0.895261 0)
(-0.470839 0.882219 0)
(-0.491808 0.870704 0)
(-0.524032 0.851699 0)
(-0.630339 0.77632 0)
(-0.846893 0.531764 0)
(-0.992728 -0.12038 0)
(-0.721308 -0.692615 0)
(-0.516026 -0.856573 0)
(-0.389645 -0.920965 0)
(-0.272539 -0.962145 0)
(-0.0406884 0.999172 0)
(-0.101345 0.994851 0)
(-0.161558 0.986863 0)
(-0.212708 0.977116 0)
(-0.252114 0.967697 0)
(-0.278431 0.960456 0)
(-0.292485 0.95627 0)
(-0.296341 0.955082 0)
(-0.293079 0.956088 0)
(-0.285983 0.958235 0)
(-0.275678 0.96125 0)
(-0.256468 0.966553 0)
(-0.232476 0.972602 0)
(-0.248044 0.968749 0)
(-0.394421 0.91893 0)
(-0.999839 0.0179307 0)
(-0.345098 -0.938567 0)
(-0.272753 -0.962084 0)
(-0.262321 -0.964981 0)
(-0.174321 -0.984689 0)
(-0.0424397 0.999099 0)
(-0.100499 0.994937 0)
(-0.154573 0.987981 0)
(-0.195591 0.980686 0)
(-0.220923 0.975291 0)
(-0.22906 0.973412 0)
(-0.22031 0.97543 0)
(-0.196586 0.980487 0)
(-0.161337 0.986899 0)
(-0.118066 0.993006 0)
(-0.0681599 0.997674 0)
(-0.00883716 0.999961 0)
(0.0705772 0.997506 0)
(0.177842 0.984059 0)
(0.337969 0.941157 0)
(0.996395 0.0848343 0)
(0.340489 -0.940248 0)
(0.0654819 -0.997854 0)
(-0.124935 -0.992165 0)
(-0.102854 -0.994696 0)
(-0.0512628 0.998685 0)
(-0.110851 0.993837 0)
(-0.159514 0.987196 0)
(-0.190723 0.981644 0)
(-0.201001 0.979591 0)
(-0.190005 0.981783 0)
(-0.15639 0.987695 0)
(-0.102175 0.994766 0)
(-0.0325418 0.99947 0)
(0.0477114 0.998861 0)
(0.134508 0.990912 0)
(0.22808 0.973642 0)
(0.338697 0.940895 0)
(0.492762 0.870164 0)
(0.722325 0.691554 0)
(0.997106 0.0760221 0)
(0.701802 -0.712372 0)
(0.291461 -0.956583 0)
(-0.00109704 -0.999999 0)
(-0.0638282 -0.997961 0)
(-0.0628644 0.998022 0)
(-0.125245 0.992126 0)
(-0.173295 0.98487 0)
(-0.195221 0.980759 0)
(-0.19063 0.981662 0)
(-0.159265 0.987236 0)
(-0.0990102 0.995086 0)
(-0.0120346 0.999928 0)
(0.0952674 0.995452 0)
(0.211801 0.977313 0)
(0.328129 0.944633 0)
(0.441673 0.897176 0)
(0.560016 0.828482 0)
(0.700524 0.713629 0)
(0.868125 0.496345 0)
(0.997976 0.0635872 0)
(0.855999 -0.516977 0)
(0.458752 -0.888564 0)
(0.105653 -0.994403 0)
(-0.0458975 -0.998946 0)
(-0.10399 0.994578 0)
(-0.183624 0.982997 0)
(-0.207624 0.978209 0)
(-0.204101 0.97895 0)
(-0.175596 0.984462 0)
(-0.118819 0.992916 0)
(-0.0275557 0.99962 0)
(0.0969818 0.995286 0)
(0.243832 0.969817 0)
(0.391661 0.920109 0)
(0.523646 0.851936 0)
(0.635829 0.77183 0)
(0.735553 0.677467 0)
(0.833581 0.552397 0)
(0.930112 0.367276 0)
(0.99753 0.070236 0)
(0.935756 -0.352648 0)
(0.629844 -0.776722 0)
(0.216966 -0.976179 0)
(-0.0277893 -0.999614 0)
(-0.0963315 0.995349 0)
(-0.158195 0.987408 0)
(-0.156473 0.987682 0)
(-0.123317 0.992367 0)
(-0.0594348 0.998232 0)
(0.0476375 0.998865 0)
(0.198045 0.980193 0)
(0.371305 0.928511 0)
(0.535702 0.844407 0)
(0.668254 0.743933 0)
(0.764024 0.645188 0)
(0.832042 0.554713 0)
(0.884067 0.467361 0)
(0.928804 0.370571 0)
(0.96807 0.25068 0)
(0.997137 0.0756107 0)
(0.983038 -0.1834 0)
(0.833404 -0.552664 0)
(0.309971 -0.950746 0)
(0.0210463 -0.999779 0)
(-0.311868 0.950126 0)
(-0.61225 0.790664 0)
(-0.0940484 0.995568 0)
(0.456449 0.88975 0)
(0.736702 0.676217 0)
(0.867749 0.497003 0)
(0.925258 0.379337 0)
(0.952266 0.30527 0)
(0.966751 0.255719 0)
(0.97543 0.22031 0)
(0.981006 0.193975 0)
(0.984957 0.172799 0)
(0.988248 0.152861 0)
(0.991841 0.127484 0)
(0.995533 0.0944164 0)
(0.99928 0.0379317 0)
(0.999382 -0.0351501 0)
(0.980302 -0.197504 0)
(0.577171 -0.816623 0)
(0.301309 -0.953526 0)
(0.403303 0.915067 0)
(0.668665 0.743564 0)
(0.895052 0.445962 0)
(0.966156 0.25796 0)
(0.985715 0.168424 0)
(0.992702 0.120593 0)
(0.995818 0.0913626 0)
(0.997404 0.0720146 0)
(0.998293 0.0584111 0)
(0.998825 0.0484597 0)
(0.999162 0.0409333 0)
(0.999391 0.0348889 0)
(0.999553 0.0299091 0)
(0.99968 0.025298 0)
(0.999786 0.0206872 0)
(0.999892 0.0146721 0)
(0.999965 0.00831049 0)
(0.999922 -0.0125219 0)
(0.999658 0.0261659 0)
(0.967925 -0.251238 0)
)
;

boundaryField
{
    movingWall
    {
        type            calculated;
        value           uniform (1 0 0);
    }
    fixedWalls
    {
        type            calculated;
        value           uniform (0 0 0);
    }
    frontAndBack
    {
        type            empty;
    }
}


// ************************************************************************* //
