/*--------------------------------*- C++ -*----------------------------------*\
| =========                 |                                                 |
| \\      /  F ield         | OpenFOAM: The Open Source CFD Toolbox           |
|  \\    /   O peration     | Version:  2312                                  |
|   \\  /    A nd           | Website:  www.openfoam.com                      |
|    \\/     M anipulation  |                                                 |
\*---------------------------------------------------------------------------*/
FoamFile
{
    version     2.0;
    format      ascii;
    arch        "LSB;label=32;scalar=64";
    class       volVectorField;
    location    "1";
    object      norm_U_composite;
}
// * * * * * * * * * * * * * * * * * * * * * * * * * * * * * * * * * * * * * //

dimensions      [0 0 0 0 0 0 0];

internalField   nonuniform List<vector> 
400
(
(-9.5221e-05 9.5672e-05 0)
(-0.000578735 0.000325686 0)
(-0.00143498 0.000472392 0)
(-0.00239649 0.000523463 0)
(-0.00339291 0.000526463 0)
(-0.00437545 0.000508888 0)
(-0.00531666 0.000480028 0)
(-0.00619336 0.000440435 0)
(-0.00697742 0.000385186 0)
(-0.00763406 0.000304539 0)
(-0.00811546 0.000189514 0)
(-0.0083275 6.43515e-05 0)
(-0.00827222 -0.000128838 0)
(-0.00782773 -0.000340636 0)
(-0.00699409 -0.00056122 0)
(-0.00578397 -0.000755096 0)
(-0.00429009 -0.000871722 0)
(-0.00268754 -0.000843737 0)
(-0.00118184 -0.000606363 0)
(-0.000239535 -0.000239437 0)
(-0.000323183 0.00058163 0)
(-0.00110865 0.00112667 0)
(-0.00210411 0.00142191 0)
(-0.00317672 0.00153921 0)
(-0.0042782 0.00155605 0)
(-0.00537379 0.00151573 0)
(-0.00643408 0.0014344 0)
(-0.00742748 0.00131162 0)
(-0.00831719 0.00113641 0)
(-0.00905929 0.000890886 0)
(-0.00959954 0.000557612 0)
(-0.00986906 0.00013317 0)
(-0.00980715 -0.000387659 0)
(-0.00935172 -0.000982252 0)
(-0.0084732 -0.00158861 0)
(-0.00718707 -0.00211501 0)
(-0.00557858 -0.00244112 0)
(-0.00381204 -0.00244171 0)
(-0.00205125 -0.00202263 0)
(-0.000588076 -0.00115482 0)
(-0.000483151 0.00142845 0)
(-0.00141348 0.00211341 0)
(-0.00244298 0.00245498 0)
(-0.00352401 0.00260729 0)
(-0.00462822 0.00263806 0)
(-0.00573536 0.00258531 0)
(-0.00682302 0.00246171 0)
(-0.00786189 0.00226213 0)
(-0.00881568 0.00196864 0)
(-0.00963942 0.00155556 0)
(-0.0102765 0.00099769 0)
(-0.010657 0.000280196 0)
(-0.0107054 -0.000597617 0)
(-0.0103441 -0.00159782 0)
(-0.00951343 -0.00262872 0)
(-0.00820182 -0.0035404 0)
(-0.0064836 -0.00414169 0)
(-0.00454036 -0.00426462 0)
(-0.00254993 -0.00382336 0)
(-0.000787544 -0.00264071 0)
(-0.000549726 0.0023935 0)
(-0.00155624 0.00317169 0)
(-0.00261866 0.00352602 0)
(-0.00371604 0.0036966 0)
(-0.00483221 0.0037413 0)
(-0.00595883 0.00368731 0)
(-0.00708434 0.00353996 0)
(-0.00818807 0.00328704 0)
(-0.00924039 0.00290178 0)
(-0.0102002 0.00234719 0)
(-0.0110101 0.00158374 0)
(-0.0115923 0.000580317 0)
(-0.0118472 -0.000671651 0)
(-0.0116546 -0.00213459 0)
(-0.010891 -0.00369106 0)
(-0.00948359 -0.00511829 0)
(-0.00749555 -0.00610916 0)
(-0.00518344 -0.0064049 0)
(-0.00282156 -0.00590732 0)
(-0.000829815 -0.00430296 0)
(-0.000566462 0.0034138 0)
(-0.00160842 0.00427616 0)
(-0.00269994 0.00463193 0)
(-0.00382201 0.0048135 0)
(-0.00496473 0.00487562 0)
(-0.00612876 0.00483536 0)
(-0.00731493 0.00468976 0)
(-0.0085153 0.00441837 0)
(-0.00971234 0.00398362 0)
(-0.0108744 0.00333294 0)
(-0.0119474 0.00240409 0)
(-0.0128432 0.00113608 0)
(-0.0134298 -0.000510864 0)
(-0.0135158 -0.00252314 0)
(-0.0128615 -0.00477823 0)
(-0.0112684 -0.00695239 0)
(-0.00877471 -0.00852087 0)
(-0.0057989 -0.00902395 0)
(-0.00286981 -0.00832378 0)
(-0.000723466 -0.0060222 0)
(-0.000561127 0.00444577 0)
(-0.00161323 0.00540275 0)
(-0.00272473 0.00576317 0)
(-0.0038704 0.00595744 0)
(-0.00504498 0.00604551 0)
(-0.00625656 0.00603902 0)
(-0.0075193 0.00592897 0)
(-0.00884212 0.00568753 0)
(-0.0102263 0.00526568 0)
(-0.0116588 0.00459103 0)
(-0.013098 0.00356798 0)
(-0.0144522 0.00208396 0)
(-0.0155513 3.13538e-05 0)
(-0.0161112 -0.00265036 0)
(-0.0156935 -0.00588659 0)
(-0.0138306 -0.0092197 0)
(-0.0104564 -0.0117123 0)
(-0.00624968 -0.0124082 0)
(-0.00237505 -0.0110967 0)
(-0.000334873 -0.0075583 0)
(-0.000545294 0.00546614 0)
(-0.00159059 0.0065364 0)
(-0.0027101 0.00691231 0)
(-0.00387052 0.00712735 0)
(-0.00507109 0.00725439 0)
(-0.00632717 0.00730614 0)
(-0.00766773 0.00727269 0)
(-0.00912299 0.00712314 0)
(-0.010722 0.00679978 0)
(-0.0124842 0.00620877 0)
(-0.0143988 0.00520962 0)
(-0.0163907 0.00361352 0)
(-0.0182805 0.00119501 0)
(-0.0197022 -0.00227441 0)
(-0.0199348 -0.00688942 0)
(-0.0179759 -0.0121169 0)
(-0.0134087 -0.016261 0)
(-0.00701112 -0.0171452 0)
(-0.00101111 -0.0140142 0)
(0.000703998 -0.00820911 0)
(-0.000523245 0.00646058 0)
(-0.00154841 0.00766292 0)
(-0.00266153 0.00806659 0)
(-0.00382091 0.00831209 0)
(-0.00502999 0.0084924 0)
(-0.00631134 0.00862866 0)
(-0.00770977 0.00871768 0)
(-0.00928105 0.00873372 0)
(-0.0110913 0.00861865 0)
(-0.0132104 0.00826321 0)
(-0.0156889 0.0074798 0)
(-0.018521 0.00598578 0)
(-0.0216228 0.00340337 0)
(-0.0247127 -0.000785869 0)
(-0.0268641 -0.00705255 0)
(-0.0264067 -0.0150897 0)
(-0.0218089 -0.0223398 0)
(-0.0127948 -0.0246307 0)
(-0.00175166 -0.0185037 0)
(0.00235011 -0.00780805 0)
(-0.000496995 0.00741885 0)
(-0.00149066 0.00876815 0)
(-0.00258092 0.00920843 0)
(-0.00371699 0.00949051 0)
(-0.00490506 0.00973412 0)
(-0.00617358 0.00997681 0)
(-0.00758232 0.0102317 0)
(-0.00921335 0.0104904 0)
(-0.0111752 0.01071 0)
(-0.0136048 0.0107858 0)
(-0.0166521 0.0105079 0)
(-0.0204667 0.0095416 0)
(-0.0253079 0.00743127 0)
(-0.0314074 0.00337199 0)
(-0.0380239 -0.00403971 0)
(-0.0423156 -0.0159345 0)
(-0.0396617 -0.0294924 0)
(-0.0289362 -0.0363104 0)
(-0.0122878 -0.0291535 0)
(0.00276055 -0.00879695 0)
(-0.000468919 0.00833377 0)
(-0.00142236 0.00983832 0)
(-0.00247257 0.0103166 0)
(-0.00355792 0.0106324 0)
(-0.00468419 0.0109382 0)
(-0.00588223 0.0112957 0)
(-0.00722176 0.0117443 0)
(-0.0088046 0.0123066 0)
(-0.0107747 0.0129766 0)
(-0.013336 0.0136933 0)
(-0.0167535 0.0143118 0)
(-0.0213699 0.0146381 0)
(-0.0281606 0.0143812 0)
(-0.0383432 0.0121265 0)
(-0.0500856 0.00362472 0)
(-0.05743 -0.0143835 0)
(-0.0574932 -0.0371889 0)
(-0.0483039 -0.0528236 0)
(-0.0291396 -0.0480291 0)
(-0.00312277 -0.0152948 0)
(-0.000443557 0.00920193 0)
(-0.00135369 0.010862 0)
(-0.00234852 0.0113684 0)
(-0.00335335 0.0117006 0)
(-0.00436905 0.012049 0)
(-0.00542323 0.0125052 0)
(-0.00658573 0.0131415 0)
(-0.00796138 0.0140216 0)
(-0.00970185 0.0151928 0)
(-0.0120339 0.0166789 0)
(-0.0152585 0.018514 0)
(-0.0197469 0.0208628 0)
(-0.0268463 0.0236244 0)
(-0.0380276 0.0236523 0)
(-0.0502665 0.0133518 0)
(-0.0579736 -0.0111239 0)
(-0.0597389 -0.0419588 0)
(-0.056102 -0.0682691 0)
(-0.041755 -0.074604 0)
(-0.0152257 -0.0387901 0)
(-0.000429907 0.0100348 0)
(-0.00130197 0.0118334 0)
(-0.00223287 0.0123427 0)
(-0.00312912 0.0126545 0)
(-0.00398375 0.0130018 0)
(-0.00481545 0.0135078 0)
(-0.00568243 0.0142775 0)
(-0.00667109 0.0154131 0)
(-0.00790195 0.0170134 0)
(-0.00954908 0.0191877 0)
(-0.0118169 0.0221415 0)
(-0.014867 0.0263207 0)
(-0.0194226 0.0315672 0)
(-0.0267415 0.0329346 0)
(-0.0344182 0.0216112 0)
(-0.0385343 -0.00467275 0)
(-0.0406322 -0.0390158 0)
(-0.0437025 -0.0725437 0)
(-0.0409009 -0.0966733 0)
(-0.020686 -0.0730276 0)
(-0.000441512 0.0108421 0)
(-0.00129946 0.0127562 0)
(-0.00216479 0.0132234 0)
(-0.00292927 0.0134562 0)
(-0.00357799 0.0137335 0)
(-0.00411858 0.0142071 0)
(-0.00458987 0.0150064 0)
(-0.00504437 0.0162576 0)
(-0.00554463 0.0180878 0)
(-0.00615998 0.02064 0)
(-0.00692772 0.024156 0)
(-0.00771116 0.0290611 0)
(-0.00834664 0.0349195 0)
(-0.00941637 0.0367762 0)
(-0.0112336 0.0261722 0)
(-0.0106956 0.00019181 0)
(-0.0116919 -0.0317987 0)
(-0.0179699 -0.0633852 0)
(-0.027362 -0.100654 0)
(-0.0184351 -0.104135 0)
(-0.000498033 0.0117245 0)
(-0.00138022 0.0136642 0)
(-0.00219154 0.0140077 0)
(-0.00280757 0.0140771 0)
(-0.00321522 0.014194 0)
(-0.0034192 0.0145302 0)
(-0.00343877 0.0152253 0)
(-0.00328971 0.0164076 0)
(-0.0029749 0.0181975 0)
(-0.00246084 0.0206972 0)
(-0.00164408 0.0240649 0)
(-0.000251558 0.0284648 0)
(0.00236648 0.0334468 0)
(0.0062823 0.0347621 0)
(0.00911716 0.025389 0)
(0.0118904 0.00101236 0)
(0.00992857 -0.0274174 0)
(0.00345149 -0.0525959 0)
(-0.0111714 -0.0887176 0)
(-0.0128512 -0.124283 0)
(-0.000644551 0.0125569 0)
(-0.00162121 0.014535 0)
(-0.00237036 0.0146696 0)
(-0.00281321 0.0144794 0)
(-0.00294351 0.0143454 0)
(-0.00279453 0.0144397 0)
(-0.00235898 0.0148984 0)
(-0.00162599 0.0158306 0)
(-0.000564089 0.0173251 0)
(0.000928567 0.01944 0)
(0.00300978 0.0221728 0)
(0.00595263 0.025411 0)
(0.0103002 0.0286139 0)
(0.0162845 0.0287567 0)
(0.0215977 0.0206776 0)
(0.0245309 0.0018703 0)
(0.0216518 -0.0219779 0)
(0.0136282 -0.0447281 0)
(-8.26479e-05 -0.0753373 0)
(-0.00838316 -0.131072 0)
(-0.000893471 0.0141846 0)
(-0.00196961 0.0156022 0)
(-0.00268173 0.0152408 0)
(-0.00291323 0.0146356 0)
(-0.00275036 0.0141631 0)
(-0.00225037 0.0139493 0)
(-0.00140053 0.0140758 0)
(-0.000176028 0.0146258 0)
(0.00149872 0.0156602 0)
(0.00372618 0.0171937 0)
(0.00664146 0.0191198 0)
(0.0104227 0.0211718 0)
(0.0153339 0.0226849 0)
(0.0213862 0.0217863 0)
(0.0268009 0.0153233 0)
(0.0292891 0.00186619 0)
(0.026376 -0.0159297 0)
(0.018522 -0.0358756 0)
(0.00671238 -0.0631768 0)
(-0.0061064 -0.132904 0)
(-0.00146322 0.0139945 0)
(-0.00290395 0.0155458 0)
(-0.00319221 0.0150399 0)
(-0.00297074 0.0142489 0)
(-0.00241262 0.0135261 0)
(-0.00155724 0.0130131 0)
(-0.000353164 0.0128115 0)
(0.00126253 0.0129568 0)
(0.00338983 0.0134827 0)
(0.0061208 0.0143793 0)
(0.0095473 0.0155328 0)
(0.0137232 0.0166585 0)
(0.0186368 0.0171651 0)
(0.0240747 0.0159538 0)
(0.0287813 0.0113649 0)
(0.0308751 0.00217391 0)
(0.0280462 -0.0105695 0)
(0.0227403 -0.0280433 0)
(0.0116037 -0.0522075 0)
(-0.00375031 -0.134903 0)
(-0.00221784 0.0229159 0)
(-0.00343421 0.0214354 0)
(-0.00290082 0.0183105 0)
(-0.0019546 0.0157292 0)
(-0.000834459 0.0140151 0)
(0.000610282 0.0127964 0)
(0.00241453 0.0119503 0)
(0.00458285 0.0114602 0)
(0.00716826 0.0112991 0)
(0.0102782 0.0114421 0)
(0.0140028 0.0118248 0)
(0.0183675 0.0122454 0)
(0.0232136 0.0122718 0)
(0.0282072 0.011254 0)
(0.0323714 0.00838251 0)
(0.0345613 0.00262071 0)
(0.0312892 -0.00583744 0)
(0.0311725 -0.0206718 0)
(0.0130883 -0.0401446 0)
(0.00283895 -0.134861 0)
(-0.00303898 0.00925845 0)
(-0.00421025 0.00543716 0)
(-0.000500687 0.00530011 0)
(0.00343899 0.00670357 0)
(0.00773719 0.00710195 0)
(0.0119793 0.00686116 0)
(0.0160565 0.00658283 0)
(0.0200115 0.00641513 0)
(0.0239441 0.00633355 0)
(0.0279789 0.00631932 0)
(0.0322295 0.00637276 0)
(0.0367747 0.00645167 0)
(0.041526 0.00642319 0)
(0.0463216 0.00595386 0)
(0.0501885 0.00475988 0)
(0.0533618 0.00202556 0)
(0.050038 -0.00175992 0)
(0.055016 -0.0110842 0)
(0.0154146 -0.0218096 0)
(0.0358598 -0.113482 0)
(0.0203838 0.0462494 0)
(0.0314206 0.0349401 0)
(0.0441354 0.0219906 0)
(0.0550444 0.0146967 0)
(0.0634083 0.0108343 0)
(0.070376 0.00854922 0)
(0.0766775 0.00703488 0)
(0.0825196 0.00595808 0)
(0.0879879 0.00514826 0)
(0.093177 0.00452064 0)
(0.0981764 0.00402206 0)
(0.103049 0.00359745 0)
(0.107753 0.00322425 0)
(0.112272 0.00284118 0)
(0.11589 0.00239795 0)
(0.119507 0.00175361 0)
(0.116598 0.000969018 0)
(0.126788 -0.00158775 0)
(0.0635122 0.00166242 0)
(0.189406 -0.0491628 0)
)
;

boundaryField
{
    movingWall
    {
        type            calculated;
        value           uniform (0.5 0 0);
    }
    fixedWalls
    {
        type            calculated;
        value           uniform (0 0 0);
    }
    frontAndBack
    {
        type            empty;
    }
}


// ************************************************************************* //
