/*--------------------------------*- C++ -*----------------------------------*\
| =========                 |                                                 |
| \\      /  F ield         | OpenFOAM: The Open Source CFD Toolbox           |
|  \\    /   O peration     | Version:  2312                                  |
|   \\  /    A nd           | Website:  www.openfoam.com                      |
|    \\/     M anipulation  |                                                 |
\*---------------------------------------------------------------------------*/
FoamFile
{
    version     2.0;
    format      ascii;
    arch        "LSB;label=32;scalar=64";
    class       volScalarField;
    location    "1";
    object      norm_k_field;
}
// * * * * * * * * * * * * * * * * * * * * * * * * * * * * * * * * * * * * * //

dimensions      [0 0 0 0 0 0 0];

internalField   nonuniform List<scalar> 
400
(
3163.33
2.00916e+11
38.8716
9.00787
4.2145
2.46682
1.62406
1.15156
0.859504
0.666241
0.531483
0.431612
0.35749
0.300397
0.254304
0.215734
0.18136
0.147607
0.110547
0.0799365
61.9185
3.61441e+11
46.1774
13.8194
6.86032
4.10372
2.71764
1.92535
1.43377
1.11038
0.887235
0.725436
0.604656
0.513149
0.440186
0.378953
0.322747
0.264176
0.191964
0.113434
2.595e+11
4.83419e+11
6.11922e+11
41.2603
12.1496
6.35967
3.97968
2.73193
1.99048
1.51381
1.18932
0.957279
0.787606
0.658965
0.557783
0.474509
0.400668
0.327018
0.238833
0.143399
3.04413e+11
5.66417e+11
7.15125e+11
8.07201e+11
109.624
13.6127
6.52836
3.99006
2.71935
1.97535
1.49693
1.16895
0.936002
0.763052
0.630821
0.526184
0.438583
0.356381
0.260923
0.164962
3.38859e+11
6.24422e+11
7.87869e+11
8.89641e+11
9.54504e+11
9.95527e+11
20.8913
7.46258
4.1811
2.72851
1.92487
1.42449
1.09112
0.855145
0.682611
0.553117
0.452688
0.36576
0.268473
0.181816
3.65948e+11
6.65121e+11
8.39431e+11
9.4877e+11
1.01908e+12
1.06397e+12
1.09288e+12
261.58
10.2027
4.64719
2.77395
1.85182
1.31669
0.972498
0.735995
0.57041
0.455835
0.367472
0.272097
0.199171
3.88022e+11
6.93796e+11
8.75925e+11
9.91064e+11
1.06573e+12
1.11397e+12
1.1457e+12
1.16833e+12
1.18715e+12
28.0074
5.93428
2.9473
1.78938
1.18835
0.820209
0.591144
0.462872
0.384099
0.290793
0.225362
4.0681e+11
7.1425e+11
9.01734e+11
1.0211e+12
1.0991e+12
1.15016e+12
1.18482e+12
1.21136e+12
1.2363e+12
1.26452e+12
1.29886e+12
12.8503
3.53915
1.76742
1.01113
0.647021
0.514126
0.485372
0.408166
0.299256
4.2358e+11
7.29267e+11
9.20081e+11
1.04221e+12
1.12247e+12
1.17576e+12
1.21339e+12
1.24489e+12
1.27856e+12
1.32153e+12
1.3788e+12
1.45117e+12
1.52342e+12
8.03604
2.17176
1.12798
0.874923
0.857096
0.878755
0.572749
4.3926e+11
7.40882e+11
9.33303e+11
1.05674e+12
1.13808e+12
1.19279e+12
1.23317e+12
1.27029e+12
1.31472e+12
1.37631e+12
1.46251e+12
1.57492e+12
1.66036e+12
1.66755e+12
1.63493e+12
1.70845e+12
1.92978e+12
12.9735
2.22643
1.26148
4.54551e+11
7.50581e+11
9.43069e+11
1.0663e+12
1.14735e+12
1.20237e+12
1.24478e+12
1.28728e+12
1.34266e+12
1.42297e+12
1.53618e+12
1.67033e+12
1.72166e+12
1.63488e+12
1.57534e+12
1.63702e+12
1.80937e+12
2.21313e+12
2.6929e+12
3.62525
4.70124e+11
7.59448e+11
9.50526e+11
1.07196e+12
1.15112e+12
1.20496e+12
1.2481e+12
1.29465e+12
1.3588e+12
1.45339e+12
1.58439e+12
1.70337e+12
1.71298e+12
1.55714e+12
1.39989e+12
1.34196e+12
1.41019e+12
1.90008e+12
2.88536e+12
3.71364e+12
4.86439e+11
7.68298e+11
9.56411e+11
1.07431e+12
1.15013e+12
1.20214e+12
1.24481e+12
1.29272e+12
1.36091e+12
1.46285e+12
1.59977e+12
1.70866e+12
1.68924e+12
1.45526e+12
1.21414e+12
1.11987e+12
1.18993e+12
1.68379e+12
2.81376e+12
4.28617e+12
5.05186e+11
7.77516e+11
9.60933e+11
1.07361e+12
1.14558e+12
1.19433e+12
1.23547e+12
1.28387e+12
1.35351e+12
1.45567e+12
1.5898e+12
1.70632e+12
1.69945e+12
1.48716e+12
1.19998e+12
1.04152e+12
1.1342e+12
1.58816e+12
2.75763e+12
4.6812e+12
5.23843e+11
7.87278e+11
9.63632e+11
1.06994e+12
1.13614e+12
1.18075e+12
1.21937e+12
1.26633e+12
1.33534e+12
1.43588e+12
1.56608e+12
1.69276e+12
1.72259e+12
1.5877e+12
1.31036e+12
1.15912e+12
1.24585e+12
1.57813e+12
2.7348e+12
5.0593e+12
5.53793e+11
7.9397e+11
9.62497e+11
1.06107e+12
1.12077e+12
1.1612e+12
1.19689e+12
1.24104e+12
1.306e+12
1.40061e+12
1.52396e+12
1.65489e+12
1.72256e+12
1.67403e+12
1.52841e+12
1.36149e+12
1.41494e+12
1.62226e+12
2.76099e+12
5.51506e+12
5.69102e+11
8.0656e+11
9.62317e+11
1.04825e+12
1.10105e+12
1.13828e+12
1.17249e+12
1.2145e+12
1.27443e+12
1.36009e+12
1.47176e+12
1.594e+12
1.68857e+12
1.67292e+12
1.59688e+12
1.44879e+12
1.46693e+12
1.60918e+12
2.94735e+12
6.1278e+12
6.34036e+11
8.38342e+11
9.95277e+11
1.07989e+12
1.13583e+12
1.18042e+12
1.22293e+12
1.27082e+12
1.33142e+12
1.41169e+12
1.51422e+12
1.62958e+12
1.73133e+12
1.73784e+12
1.69965e+12
1.59011e+12
1.56831e+12
1.80702e+12
3.327e+12
7.05347e+12
8.39709e+11
1.20319e+12
1.54535e+12
1.77114e+12
1.92855e+12
2.05977e+12
2.17693e+12
2.28183e+12
2.37668e+12
2.46476e+12
2.54984e+12
2.63491e+12
2.7137e+12
2.77999e+12
2.79821e+12
2.84096e+12
2.95132e+12
3.58337e+12
11.5945
0.632981
4.23137e+12
4.18402
11.6009
9.53192e+12
1.01732e+13
1.05682e+13
1.08073e+13
1.09374e+13
1.09858e+13
1.09748e+13
1.0938e+13
1.08658e+13
1.07586e+13
1.06719e+13
1.05664e+13
1.05708e+13
1.06611e+13
9.82338
3.52555
0.181855
)
;

boundaryField
{
    movingWall
    {
        type            calculated;
        value           nonuniform List<scalar> 
20
(
4.23137e+12
4.18402
11.6009
9.53192e+12
1.01732e+13
1.05682e+13
1.08073e+13
1.09374e+13
1.09858e+13
1.09748e+13
1.0938e+13
1.08658e+13
1.07586e+13
1.06719e+13
1.05664e+13
1.05708e+13
1.06611e+13
9.82338
3.52555
0.181855
)
;
    }
    fixedWalls
    {
        type            calculated;
        value           nonuniform List<scalar> 
60
(
3163.33
61.9185
2.595e+11
3.04413e+11
3.38859e+11
3.65948e+11
3.88022e+11
4.0681e+11
4.2358e+11
4.3926e+11
4.54551e+11
4.70124e+11
4.86439e+11
5.05186e+11
5.23843e+11
5.53793e+11
5.69102e+11
6.34036e+11
8.39709e+11
4.23137e+12
0.0799365
0.113434
0.143399
0.164962
0.181816
0.199171
0.225362
0.299256
0.572749
1.26148
3.62525
3.71364e+12
4.28617e+12
4.6812e+12
5.0593e+12
5.51506e+12
6.1278e+12
7.05347e+12
0.632981
0.181855
3163.33
2.00916e+11
38.8716
9.00787
4.2145
2.46682
1.62406
1.15156
0.859504
0.666241
0.531483
0.431612
0.35749
0.300397
0.254304
0.215734
0.18136
0.147607
0.110547
0.0799365
)
;
    }
    frontAndBack
    {
        type            empty;
    }
}


// ************************************************************************* //
