/*--------------------------------*- C++ -*----------------------------------*\
| =========                 |                                                 |
| \\      /  F ield         | OpenFOAM: The Open Source CFD Toolbox           |
|  \\    /   O peration     | Version:  2312                                  |
|   \\  /    A nd           | Website:  www.openfoam.com                      |
|    \\/     M anipulation  |                                                 |
\*---------------------------------------------------------------------------*/
FoamFile
{
    version     2.0;
    format      ascii;
    arch        "LSB;label=32;scalar=64";
    class       volScalarField;
    location    "1";
    object      nut;
}
// * * * * * * * * * * * * * * * * * * * * * * * * * * * * * * * * * * * * * //

dimensions      [0 2 -1 0 0 0 0];

internalField   nonuniform List<scalar> 
400
(
6.66443e-06
7.88875e-06
8.83455e-06
9.45848e-06
9.88841e-06
1.02056e-05
1.04571e-05
1.06683e-05
1.08497e-05
1.10021e-05
1.11181e-05
1.11712e-05
1.11812e-05
1.1107e-05
1.091e-05
1.05583e-05
1.00062e-05
9.18691e-06
7.98859e-06
6.76964e-06
7.88483e-06
2.56008e-05
3.476e-05
3.96355e-05
4.25183e-05
4.43359e-05
4.56077e-05
4.66784e-05
4.77738e-05
4.90142e-05
5.04625e-05
5.17718e-05
5.24302e-05
5.26241e-05
5.18539e-05
4.96616e-05
4.53294e-05
3.78612e-05
2.41571e-05
8.04924e-06
8.97604e-06
3.86263e-05
5.65446e-05
6.64569e-05
7.23991e-05
7.60977e-05
7.85597e-05
8.04136e-05
8.2056e-05
8.36324e-05
8.5101e-05
8.60482e-05
8.62958e-05
8.52926e-05
8.23704e-05
7.67511e-05
6.74949e-05
5.33133e-05
3.12829e-05
9.06767e-06
9.73218e-06
4.61934e-05
7.04478e-05
8.43395e-05
9.28044e-05
9.8167e-05
0.000101672
0.000104118
0.000105972
0.000107447
0.000108449
0.000108559
0.000107777
0.00010502
9.96344e-05
9.08548e-05
7.79035e-05
5.96769e-05
3.36358e-05
9.76275e-06
1.02774e-05
5.10994e-05
7.99328e-05
9.6805e-05
0.000107166
0.000113674
0.000117836
0.000120601
0.000122534
0.000123854
0.000124407
0.000123746
0.000121554
0.000116716
0.000108495
9.63416e-05
8.03336e-05
6.02008e-05
3.33213e-05
1.02793e-05
1.06887e-05
5.43077e-05
8.6502e-05
0.000105622
0.000117439
0.000124852
0.00012953
0.000132538
0.000134499
0.000135632
0.000135753
0.000134015
0.000129799
0.00012163
0.000108534
9.18645e-05
7.2946e-05
5.37029e-05
3.07458e-05
1.07213e-05
1.10134e-05
5.63996e-05
9.10287e-05
0.000111851
0.000124773
0.000132883
0.000137973
0.000141191
0.000143197
0.000144149
0.000143602
0.000140412
0.000132127
0.000117877
9.69918e-05
7.33971e-05
5.48705e-05
3.97312e-05
2.53914e-05
1.11613e-05
1.12826e-05
5.77172e-05
9.4114e-05
0.000116204
0.000129944
0.000138577
0.000143998
0.000147418
0.000149488
0.00015016
0.000148372
0.000141816
0.000127253
0.000103001
7.46589e-05
4.91823e-05
3.8347e-05
3.00004e-05
2.09424e-05
1.19635e-05
1.15169e-05
5.84983e-05
9.61775e-05
0.000119189
0.000133504
0.000142509
0.000148189
0.000151794
0.000153863
0.000153853
0.000149567
0.000137338
0.000113705
8.07257e-05
5.21011e-05
3.6118e-05
3.43999e-05
3.27413e-05
2.45806e-05
1.45826e-05
1.17305e-05
5.89184e-05
9.75194e-05
0.000121171
0.000135849
0.000145079
0.000150933
0.000154653
0.000156507
0.000155109
0.000146867
0.000127807
9.49785e-05
6.14244e-05
4.10284e-05
3.50188e-05
3.5697e-05
3.36242e-05
3.3071e-05
2.11145e-05
1.19338e-05
5.91076e-05
9.83543e-05
0.000122405
0.00013724
0.000146534
0.000152447
0.000156161
0.000157539
0.000154258
0.000141906
0.000117044
8.04187e-05
5.04553e-05
3.76386e-05
3.41518e-05
3.3705e-05
3.38084e-05
3.37213e-05
2.92591e-05
1.21359e-05
5.91599e-05
9.88267e-05
0.000123046
0.000137804
0.000146959
0.000152786
0.000156409
0.00015737
0.000152874
0.000139038
0.000111431
7.73287e-05
4.87331e-05
3.56083e-05
3.26972e-05
3.17944e-05
3.25048e-05
3.45623e-05
3.44777e-05
1.23425e-05
5.91488e-05
9.90128e-05
0.000123127
0.000137555
0.000146491
0.000152157
0.000155612
0.000156403
0.000152254
0.000139782
0.000113694
7.91968e-05
4.99178e-05
3.56321e-05
3.40979e-05
3.78726e-05
3.68897e-05
3.45209e-05
3.67971e-05
1.25751e-05
5.90732e-05
9.88588e-05
0.000122447
0.0001363
0.000144616
0.000149943
0.000153519
0.000154946
0.000151978
0.000141424
0.000119658
8.98761e-05
6.09953e-05
4.24534e-05
3.73556e-05
4.30857e-05
4.52492e-05
3.78738e-05
3.84185e-05
1.28008e-05
5.89949e-05
9.7996e-05
0.000120293
0.000132756
0.000139955
0.00014456
0.000147953
0.000150213
0.000149796
0.000144133
0.000129409
0.000104574
7.87193e-05
5.62599e-05
4.89777e-05
5.22417e-05
4.90326e-05
3.99008e-05
3.99093e-05
1.31595e-05
5.80138e-05
9.45991e-05
0.000113857
0.000123512
0.000128613
0.000131785
0.000134506
0.000137238
0.000138983
0.000137469
0.000131605
0.000116589
9.73773e-05
8.21107e-05
6.76574e-05
6.5292e-05
5.20141e-05
4.12042e-05
4.16777e-05
1.33369e-05
5.52713e-05
8.38894e-05
9.52512e-05
9.94866e-05
0.000100924
0.000101658
0.000102904
0.000105294
0.000108731
0.000111905
0.000112295
0.000107891
9.56877e-05
8.7142e-05
7.24519e-05
6.46979e-05
4.49123e-05
3.88994e-05
4.39307e-05
1.40792e-05
4.30273e-05
5.24905e-05
5.34907e-05
5.2831e-05
5.1847e-05
5.12215e-05
5.1393e-05
5.26575e-05
5.52515e-05
5.91058e-05
6.33737e-05
6.65315e-05
6.40433e-05
6.0816e-05
5.19836e-05
4.36086e-05
3.26837e-05
3.70552e-05
4.71455e-05
1.62224e-05
2.11523e-05
2.2609e-05
2.35893e-05
2.43818e-05
2.51883e-05
2.60713e-05
2.70204e-05
2.80342e-05
2.91495e-05
3.03839e-05
3.17813e-05
3.32536e-05
3.43729e-05
3.45441e-05
3.45521e-05
3.44424e-05
3.4928e-05
4.00914e-05
5.1982e-05
3.651e-05
4.53708e-05
5.15402e-05
5.48015e-05
5.66142e-05
5.77021e-05
5.83499e-05
5.86992e-05
5.8826e-05
5.87957e-05
5.86952e-05
5.85004e-05
5.82103e-05
5.79795e-05
5.77011e-05
5.77165e-05
5.79693e-05
5.80632e-05
5.96958e-05
5.69489e-05
)
;

boundaryField
{
    movingWall
    {
        type            nutkWallFunction;
        blending        stepwise;
        value           nonuniform List<scalar> 
20
(
0
0
7.08357e-07
1.24277e-06
1.53776e-06
1.71414e-06
1.81911e-06
1.87561e-06
1.89656e-06
1.89183e-06
1.87591e-06
1.84456e-06
1.79783e-06
1.75983e-06
1.71336e-06
1.7153e-06
1.75508e-06
1.76997e-06
2.03274e-06
1.58953e-06
)
;
    }
    fixedWalls
    {
        type            nutkWallFunction;
        blending        stepwise;
        value           nonuniform List<scalar> 
60
(
0
0
0
0
0
0
0
0
0
0
0
0
0
0
0
0
0
0
0
0
0
0
0
0
0
0
0
0
0
0
0
0
0
0
0
0
0
0
7.79849e-07
1.58953e-06
0
0
0
0
0
0
0
0
0
0
0
0
0
0
0
0
0
0
0
0
)
;
    }
    frontAndBack
    {
        type            empty;
    }
}


// ************************************************************************* //
