/*--------------------------------*- C++ -*----------------------------------*\
| =========                 |                                                 |
| \\      /  F ield         | OpenFOAM: The Open Source CFD Toolbox           |
|  \\    /   O peration     | Version:  2312                                  |
|   \\  /    A nd           | Website:  www.openfoam.com                      |
|    \\/     M anipulation  |                                                 |
\*---------------------------------------------------------------------------*/
FoamFile
{
    version     2.0;
    format      ascii;
    arch        "LSB;label=32;scalar=64";
    class       volScalarField;
    location    "1";
    object      P_A;
}
// * * * * * * * * * * * * * * * * * * * * * * * * * * * * * * * * * * * * * //

dimensions      [1 -1 -3 0 0 0 0];

internalField   nonuniform List<scalar> 
400
(
8.5915e-27
3.28079e-26
8.04166e-26
1.37701e-25
1.95059e-25
2.49393e-25
3.01099e-25
3.51258e-25
3.99863e-25
4.45079e-25
4.8257e-25
5.00947e-25
5.04666e-25
4.79705e-25
4.17844e-25
3.23939e-25
2.12939e-25
1.08895e-25
3.61752e-26
9.68734e-27
3.27204e-26
1.42016e-25
3.08549e-25
4.75406e-25
6.12009e-25
7.14393e-25
7.91612e-25
8.54872e-25
9.12413e-25
9.67858e-25
1.01841e-24
1.0547e-24
1.06827e-24
1.04896e-24
9.69689e-25
8.1842e-25
6.00024e-25
3.50783e-25
1.39728e-25
3.82978e-26
9.11925e-26
3.48334e-25
6.87327e-25
1.01262e-24
1.27107e-24
1.4562e-24
1.58492e-24
1.67936e-24
1.7563e-24
1.82488e-24
1.88473e-24
1.92136e-24
1.93127e-24
1.88294e-24
1.74085e-24
1.48106e-24
1.10826e-24
6.78933e-25
2.96788e-25
9.82349e-26
1.72504e-25
5.94234e-25
1.11244e-24
1.60254e-24
1.99188e-24
2.26834e-24
2.45644e-24
2.58901e-24
2.69294e-24
2.78254e-24
2.85806e-24
2.90483e-24
2.91097e-24
2.82928e-24
2.60974e-24
2.21191e-24
1.64447e-24
1.00166e-24
4.41403e-25
1.7575e-25
2.64619e-25
8.33029e-25
1.51614e-24
2.16268e-24
2.68142e-24
3.05491e-24
3.31144e-24
3.49282e-24
3.63508e-24
3.75992e-24
3.87069e-24
3.9545e-24
3.99427e-24
3.92062e-24
3.64984e-24
3.09991e-24
2.26852e-24
1.32413e-24
5.5393e-25
2.63379e-25
3.59655e-25
1.04139e-24
1.8635e-24
2.64785e-24
3.28503e-24
3.75158e-24
4.07973e-24
4.321e-24
4.52323e-24
4.72056e-24
4.93146e-24
5.14547e-24
5.35633e-24
5.47917e-24
5.35376e-24
4.69921e-24
3.45711e-24
1.89658e-24
6.90471e-25
3.67172e-25
4.5431e-25
1.21252e-24
2.14459e-24
3.04257e-24
3.78192e-24
4.33391e-24
4.7364e-24
5.05425e-24
5.35505e-24
5.70041e-24
6.14728e-24
6.75292e-24
7.51821e-24
8.46978e-24
9.28563e-24
9.13405e-24
7.22904e-24
4.0076e-24
1.13732e-24
5.04957e-25
5.48628e-25
1.35035e-24
2.36386e-24
3.34979e-24
4.1719e-24
4.79899e-24
5.27848e-24
5.69647e-24
6.15711e-24
6.78464e-24
7.74649e-24
9.29772e-24
1.17831e-23
1.54014e-23
2.01001e-23
2.36375e-23
2.33971e-23
1.68071e-23
4.28377e-24
8.42813e-25
6.44611e-25
1.46309e-24
2.5326e-24
3.58084e-24
4.46389e-24
5.15245e-24
5.70969e-24
6.25534e-24
6.95881e-24
8.07546e-24
1.00541e-23
1.37834e-23
2.07171e-23
3.1677e-23
4.69773e-23
7.02437e-23
1.02161e-22
1.07518e-22
4.34401e-23
3.48946e-24
7.45334e-25
1.55971e-24
2.66339e-24
3.74866e-24
4.6681e-24
5.39953e-24
6.02891e-24
6.72396e-24
7.75616e-24
9.6165e-24
1.33487e-23
2.14055e-23
3.65354e-23
5.76022e-23
7.89003e-23
1.12675e-22
1.9124e-22
3.0061e-22
3.68352e-22
5.89232e-23
8.54602e-25
1.64842e-24
2.76742e-24
3.86442e-24
4.79266e-24
5.54195e-24
6.22615e-24
7.06948e-24
8.46995e-24
1.12347e-23
1.72348e-23
3.04568e-23
5.07961e-23
6.41512e-23
7.2774e-23
9.53341e-23
1.51565e-22
3.74053e-22
9.068e-22
8.82935e-22
9.77935e-25
1.73634e-24
2.85355e-24
3.93689e-24
4.84393e-24
5.57954e-24
6.28733e-24
7.24179e-24
8.9476e-24
1.24685e-23
2.02149e-23
3.4939e-23
5.1638e-23
5.33421e-23
4.52156e-23
4.07141e-23
5.23383e-23
1.95863e-22
1.20704e-21
3.76688e-21
1.12111e-24
1.82961e-24
2.92842e-24
3.97339e-24
4.83403e-24
5.53868e-24
6.2388e-24
7.23015e-24
9.06592e-24
1.289e-23
2.10006e-23
3.47249e-23
4.73512e-23
3.84059e-23
2.38121e-23
1.72964e-23
2.0462e-23
1.00187e-22
1.07928e-21
6.72856e-21
1.30449e-24
1.93297e-24
2.99589e-24
3.98373e-24
4.7922e-24
5.4483e-24
6.11983e-24
7.10574e-24
8.92928e-24
1.26306e-23
2.01811e-23
3.27904e-23
4.2871e-23
3.46529e-23
1.89581e-23
1.13914e-23
1.44943e-23
6.27827e-23
8.98459e-22
9.58277e-21
1.50866e-24
2.04732e-24
3.06065e-24
3.993e-24
4.74038e-24
5.34739e-24
5.98384e-24
6.93039e-24
8.66723e-24
1.2049e-23
1.85067e-23
2.92508e-23
3.91579e-23
3.60409e-23
2.12559e-23
1.40608e-23
1.8239e-23
5.63089e-23
8.21501e-22
1.30845e-20
1.88473e-24
2.16277e-24
3.15379e-24
4.06354e-24
4.79231e-24
5.39793e-24
6.03683e-24
6.96162e-24
8.58419e-24
1.16115e-23
1.7163e-23
2.59787e-23
3.51202e-23
3.69743e-23
2.91142e-23
2.09981e-23
2.5875e-23
6.00955e-23
8.30377e-22
1.84712e-20
2.10243e-24
2.43662e-24
3.55343e-24
4.59878e-24
5.49282e-24
6.28861e-24
7.13311e-24
8.25629e-24
1.00216e-23
1.30055e-23
1.80237e-23
2.57195e-23
3.4696e-23
3.75148e-23
3.34135e-23
2.59356e-23
3.07172e-23
6.71088e-23
1.18011e-21
2.8153e-20
3.2386e-24
3.72455e-24
6.6083e-24
9.36169e-24
1.18973e-23
1.44168e-23
1.71114e-23
2.02723e-23
2.43994e-23
3.02627e-23
3.87834e-23
5.03332e-23
6.29666e-23
6.65266e-23
6.3391e-23
5.4951e-23
6.1559e-23
1.5539e-22
2.13703e-21
4.94078e-20
9.95149e-24
3.85092e-23
1.11111e-22
1.9672e-22
2.79188e-22
3.63421e-22
4.50358e-22
5.37039e-22
6.21733e-22
7.04333e-22
7.87205e-22
8.72364e-22
9.51952e-22
1.02659e-21
1.05199e-21
1.12601e-21
1.34093e-21
3.16636e-21
9.58602e-21
1.07854e-19
6.39994e-21
3.63661e-20
1.00861e-19
1.64794e-19
2.13826e-19
2.49019e-19
2.72343e-19
2.85691e-19
2.908e-19
2.89648e-19
2.85791e-19
2.78317e-19
2.67502e-19
2.58961e-19
2.48836e-19
2.49234e-19
2.57828e-19
2.61117e-19
3.25808e-19
2.23599e-19
)
;

boundaryField
{
    movingWall
    {
        type            calculated;
        value           nonuniform List<scalar> 
20
(
6.39994e-21
3.63661e-20
1.00861e-19
1.64794e-19
2.13826e-19
2.49019e-19
2.72343e-19
2.85691e-19
2.908e-19
2.89648e-19
2.85791e-19
2.78317e-19
2.67502e-19
2.58961e-19
2.48836e-19
2.49234e-19
2.57828e-19
2.61117e-19
3.25808e-19
2.23599e-19
)
;
    }
    fixedWalls
    {
        type            calculated;
        value           nonuniform List<scalar> 
60
(
8.5915e-27
3.27204e-26
9.11925e-26
1.72504e-25
2.64619e-25
3.59655e-25
4.5431e-25
5.48628e-25
6.44611e-25
7.45334e-25
8.54602e-25
9.77935e-25
1.12111e-24
1.30449e-24
1.50866e-24
1.88473e-24
2.10243e-24
3.2386e-24
9.95149e-24
6.39994e-21
9.68734e-27
3.82978e-26
9.82349e-26
1.7575e-25
2.63379e-25
3.67172e-25
5.04957e-25
8.42813e-25
3.48946e-24
5.89232e-23
8.82935e-22
3.76688e-21
6.72856e-21
9.58277e-21
1.30845e-20
1.84712e-20
2.8153e-20
4.94078e-20
1.07854e-19
2.23599e-19
8.5915e-27
3.28079e-26
8.04166e-26
1.37701e-25
1.95059e-25
2.49393e-25
3.01099e-25
3.51258e-25
3.99863e-25
4.45079e-25
4.8257e-25
5.00947e-25
5.04666e-25
4.79705e-25
4.17844e-25
3.23939e-25
2.12939e-25
1.08895e-25
3.61752e-26
9.68734e-27
)
;
    }
    frontAndBack
    {
        type            empty;
    }
}


// ************************************************************************* //
