/*--------------------------------*- C++ -*----------------------------------*\
| =========                 |                                                 |
| \\      /  F ield         | OpenFOAM: The Open Source CFD Toolbox           |
|  \\    /   O peration     | Version:  2312                                  |
|   \\  /    A nd           | Website:  www.openfoam.com                      |
|    \\/     M anipulation  |                                                 |
\*---------------------------------------------------------------------------*/
FoamFile
{
    version     2.0;
    format      ascii;
    arch        "LSB;label=32;scalar=64";
    class       surfaceScalarField;
    location    "1";
    object      PecletNoField;
}
// * * * * * * * * * * * * * * * * * * * * * * * * * * * * * * * * * * * * * //

dimensions      [0 0 0 0 0 0 0];

oriented        oriented;

internalField   nonuniform List<scalar> 
760
(
0.181319
0.181313
0.546282
0.257921
0.99585
0.284188
1.46894
0.284597
1.93614
0.273865
2.38279
0.258418
2.79877
0.2394
3.17384
0.215536
3.4948
0.184319
3.74324
0.1425
3.8969
0.0874158
3.93561
0.0227349
3.82576
0.0585832
3.5509
0.150321
3.10419
0.247366
2.49888
0.341055
1.77903
0.419989
1.02957
0.469079
0.378002
0.482038
0.377344
0.254833
0.539709
0.400251
0.383851
0.559419
0.347828
0.729363
0.328049
0.902838
0.309778
1.07365
0.290756
1.2343
0.268878
1.37572
0.241557
1.48823
0.205861
1.56241
0.158976
1.59471
0.0989172
1.58678
0.0255909
1.53566
0.0626118
1.43644
0.16352
1.29336
0.273079
1.11391
0.385436
0.911107
0.49473
0.71218
0.603167
0.478384
0.776422
1.02685
0.267746
0.98156
0.335131
0.503986
0.417906
0.40736
0.513206
0.369616
0.614865
0.344871
0.718826
0.323154
0.820343
0.299826
0.913903
0.27121
0.993898
0.233814
1.05547
0.18436
1.09582
0.120117
1.11174
0.0391859
1.10043
0.0604735
1.06056
0.1789
0.991857
0.314246
0.896893
0.46259
0.784006
0.620495
0.675055
0.803391
0.523867
1.14893
1.79573
0.264041
1.4507
0.3053
0.635134
0.363133
0.479123
0.433777
0.42345
0.511388
0.392066
0.593137
0.367853
0.676216
0.343717
0.757289
0.314783
0.83274
0.276743
0.899161
0.225408
0.953974
0.156775
0.992468
0.0668481
1.01092
0.0487803
1.00582
0.194432
0.971099
0.372752
0.902714
0.583001
0.804966
0.820124
0.701169
1.10267
0.541535
1.64086
2.59881
0.253709
1.92081
0.284612
0.772176
0.332125
0.557777
0.392528
0.48442
0.46054
0.446616
0.534348
0.420697
0.612318
0.397112
0.692461
0.36977
0.77257
0.333407
0.850584
0.282736
0.92458
0.211994
0.990693
0.114371
1.0446
0.019177
1.07834
0.202709
1.0777
0.452058
1.02373
0.776918
0.906522
1.1657
0.753034
1.60026
0.524241
2.31754
3.35126
0.242307
2.38077
0.268857
0.914072
0.311409
0.641984
0.367003
0.551199
0.430804
0.507363
0.501882
0.480575
0.579788
0.459149
0.663987
0.435937
0.753939
0.404834
0.849275
0.359415
0.950566
0.291858
1.05724
0.191503
1.16744
0.0411925
1.27483
0.193944
1.34754
0.572314
1.32254
1.15693
1.13428
1.89471
0.803168
2.61589
0.396115
3.34095
3.86202
0.231052
2.82486
0.255828
1.05961
0.295648
0.730578
0.348625
0.622711
0.410442
0.573437
0.480962
0.546907
0.560954
0.529631
0.65155
0.513769
0.75451
0.492793
0.872901
0.459696
1.01217
0.405308
1.1847
0.315134
1.40647
0.160327
1.69256
0.135134
2.00863
0.752304
2.13633
1.96388
1.76416
3.4857
0.897312
4.70877
0.0322716
4.95866
3.7931
0.219822
3.24874
0.243905
1.20734
0.281778
0.822006
0.33275
0.69747
0.393028
0.643394
0.463206
0.618293
0.545295
0.607304
0.642391
0.602475
0.759565
0.597817
0.906297
0.587561
1.10177
0.564623
1.38725
0.516454
1.84827
0.407416
2.61569
0.107637
3.74367
0.836073
4.53582
3.1412
3.86692
5.83031
1.95232
7.56155
0.146927
7.25246
3.34729
0.208301
3.64865
0.231997
1.35524
0.267872
0.914307
0.31641
0.773404
0.374259
0.714945
0.44262
0.692144
0.524662
0.689249
0.625671
0.699006
0.75536
0.717663
0.934209
0.744693
1.20808
0.784175
1.68659
0.84474
2.64036
0.941714
4.5419
0.924313
7.48312
0.0619676
9.12773
3.44936
7.86334
7.56679
5.18501
10.5362
1.54757
10.1036
4.44121
0.196631
4.02202
0.219713
1.50097
0.252961
1.00521
0.297833
0.847913
0.351236
0.784958
0.414692
0.764559
0.492203
0.770492
0.591094
0.797067
0.726406
0.844901
0.932973
0.924447
1.29479
1.06644
2.04674
1.3451
3.76539
1.95837
7.18555
2.7718
11.1607
1.87548
12.7029
2.62373
11.9457
8.58031
8.93176
13.7548
4.22847
14.347
7.97251
0.185928
4.36913
0.207675
1.64247
0.237214
1.09243
0.276579
0.918143
0.322629
0.849788
0.37674
0.830681
0.443023
0.844225
0.529752
0.886665
0.655195
0.963989
0.862924
1.10022
1.26275
1.35808
2.17016
1.91542
4.30515
3.15204
8.03279
4.90236
11.6051
4.09652
13.32
1.48469
13.4006
8.94295
11.5059
15.8521
6.72293
19.1932
13.3624
0.17861
4.6956
0.197818
1.77865
0.222198
1.17421
0.253852
0.981592
0.289199
0.905907
0.328867
0.885083
0.376053
0.902344
0.437825
0.955421
0.530022
1.05386
0.687836
1.22851
1.00132
1.55608
1.68909
2.27525
3.17891
3.80665
5.62722
5.95982
7.88478
5.38254
9.29608
0.458227
10.1196
7.77301
10.1275
14.9846
7.14685
21.7759
19.2307
0.179307
5.0149
0.193896
1.91101
0.211081
1.25008
0.232597
1.03718
0.253806
0.950983
0.274096
0.924443
0.295106
0.939451
0.320795
0.99353
0.359165
1.09637
0.424906
1.27677
0.550764
1.60363
0.795665
2.27545
1.212
3.61399
1.73052
5.41633
2.0875
5.05436
2.51481
0.0459746
3.22681
6.16583
5.05386
11.5857
5.60156
20.4591
23.8071
0.193588
5.35525
0.200582
2.04313
0.208157
1.32298
0.216992
1.08741
0.221291
0.987888
0.218977
0.951805
0.209386
0.95848
0.192775
1.00349
0.169777
1.09321
0.13647
1.24694
0.0758965
1.51064
0.0826054
1.9928
0.507154
2.87064
1.39402
3.9047
2.31462
3.6797
2.1517
0.179667
1.09733
4.55443
0.608777
8.76508
2.99591
17.025
25.9874
0.234726
5.75598
0.225977
2.19359
0.218927
1.40675
0.21193
1.14658
0.196931
1.0328
0.17023
0.984468
0.128945
0.978266
0.0703842
1.00738
0.0104509
1.07246
0.122429
1.18578
0.299086
1.36679
0.629948
1.65115
1.31391
2.10852
2.536
2.53814
3.83021
2.21108
3.855
0.230469
2.75061
2.84678
1.36397
6.74693
1.10275
13.906
26.2371
0.30049
6.27883
0.27127
2.40063
0.246888
1.55498
0.221475
1.27452
0.184811
1.1466
0.131133
1.08426
0.0563299
1.06241
0.0440767
1.07107
0.17409
1.1085
0.346765
1.1763
0.587124
1.28187
0.958477
1.42729
1.57683
1.62235
2.45777
1.76635
3.37388
1.41445
3.67578
0.262692
3.17423
1.76786
2.26485
5.45022
0.00680863
11.4905
25.2314
0.486256
7.06572
0.387044
2.86127
0.313044
1.97841
0.251797
1.68146
0.181119
1.5348
0.0867255
1.44668
0.0396077
1.3944
0.201779
1.36866
0.403334
1.3637
0.648128
1.37698
0.951381
1.40797
1.34957
1.45573
1.92137
1.49778
2.63841
1.50656
3.36561
1.18121
3.79376
0.34835
3.78111
1.23956
3.19635
4.90822
0.800291
9.38692
23.2485
0.77468
7.84791
0.548919
4.06466
0.378025
3.08727
0.221336
2.72011
0.0207212
2.45952
0.242489
2.24165
0.566199
2.07088
0.94095
1.94335
1.35614
1.84659
1.80022
1.77134
2.26938
1.71223
2.782
1.65989
3.43859
1.59012
4.23082
1.48347
5.08382
1.18011
5.83042
0.48334
6.1083
0.747312
4.8144
3.68535
1.70257
6.65065
20.188
1.2714
6.43054
0.810682
3.70889
0.400144
2.28805
1.67679
1.79471
2.86331
1.52352
3.9482
1.3157
4.93701
1.16811
5.85169
1.06801
6.71897
0.996975
7.56288
0.945141
8.39713
0.907791
9.2255
0.876008
10.0632
0.83576
10.9399
0.754149
11.6827
0.605722
11.9026
0.294955
11.1578
0.0994781
8.6229
1.28369
3.50965
1.83729
15.6022
4.59074
6.74542
7.94696
8.98382
9.93539
10.8037
11.6151
12.3959
13.1613
13.9159
14.6676
15.4262
16.1693
16.8544
17.3892
17.5989
17.4719
16.2
14.7215
)
;

boundaryField
{
    movingWall
    {
        type            calculated;
        value           uniform 0;
    }
    fixedWalls
    {
        type            calculated;
        value           uniform 0;
    }
    frontAndBack
    {
        type            empty;
        value           nonuniform List<scalar> 0();
    }
}


// ************************************************************************* //
