/*--------------------------------*- C++ -*----------------------------------*\
| =========                 |                                                 |
| \\      /  F ield         | OpenFOAM: The Open Source CFD Toolbox           |
|  \\    /   O peration     | Version:  2312                                  |
|   \\  /    A nd           | Website:  www.openfoam.com                      |
|    \\/     M anipulation  |                                                 |
\*---------------------------------------------------------------------------*/
FoamFile
{
    version     2.0;
    format      ascii;
    arch        "LSB;label=32;scalar=64";
    class       surfaceScalarField;
    location    "1";
    object      phi;
}
// * * * * * * * * * * * * * * * * * * * * * * * * * * * * * * * * * * * * * //

dimensions      [0 3 -1 0 0 0 0];

oriented        oriented;

internalField   nonuniform List<scalar> 
760
(
-3.13257e-08
3.13212e-08
-1.00306e-07
6.89805e-08
-1.90671e-07
9.0364e-08
-2.88991e-07
9.83199e-08
-3.88139e-07
9.91483e-08
-4.84454e-07
9.63144e-08
-5.75503e-07
9.10495e-08
-6.58858e-07
8.33549e-08
-7.31317e-07
7.24588e-08
-7.88329e-07
5.70115e-08
-8.23986e-07
3.56572e-08
-8.33415e-07
9.42851e-09
-8.08924e-07
-2.44911e-08
-7.45991e-07
-6.29329e-08
-6.43626e-07
-1.02365e-07
-5.06829e-07
-1.36797e-07
-3.48629e-07
-1.58201e-07
-1.91374e-07
-1.57254e-07
-6.56935e-08
-1.25681e-07
-6.56935e-08
-6.81495e-08
9.94707e-08
-1.60822e-07
1.61653e-07
-2.64033e-07
1.93575e-07
-3.72536e-07
2.06823e-07
-4.8236e-07
2.08972e-07
-5.90205e-07
2.04159e-07
-6.92973e-07
1.93817e-07
-7.87273e-07
1.77655e-07
-8.69035e-07
1.5422e-07
-9.33359e-07
1.21335e-07
-9.74641e-07
7.69395e-08
-9.85407e-07
2.01938e-08
-9.60207e-07
-4.96906e-08
-8.94027e-07
-1.29113e-07
-7.85816e-07
-2.10577e-07
-6.40449e-07
-2.82163e-07
-4.70089e-07
-3.28561e-07
-2.92059e-07
-3.35284e-07
-1.24874e-07
-2.92867e-07
-1.90567e-07
-9.05015e-08
1.89972e-07
-1.92987e-07
2.64138e-07
-2.98806e-07
2.99394e-07
-4.07629e-07
3.15645e-07
-5.18014e-07
3.19356e-07
-6.27741e-07
3.13887e-07
-7.34098e-07
3.00173e-07
-8.33797e-07
2.77355e-07
-9.22777e-07
2.432e-07
-9.96015e-07
1.94573e-07
-1.04733e-06
1.28255e-07
-1.06918e-06
4.20478e-08
-1.05415e-06
-6.47285e-08
-9.95135e-07
-1.88124e-07
-8.88315e-07
-3.17396e-07
-7.36556e-07
-4.33923e-07
-5.51973e-07
-5.13144e-07
-3.53041e-07
-5.34215e-07
-1.58078e-07
-4.8783e-07
-3.48646e-07
-1.00238e-07
2.9021e-07
-2.08583e-07
3.72483e-07
-3.17355e-07
4.08167e-07
-4.27583e-07
4.25873e-07
-5.39441e-07
4.31215e-07
-6.51973e-07
4.26419e-07
-7.63414e-07
4.11614e-07
-8.71226e-07
3.85167e-07
-9.71888e-07
3.43862e-07
-1.06054e-06
2.83227e-07
-1.13049e-06
1.98207e-07
-1.17278e-06
8.43305e-08
-1.17669e-06
-6.08122e-08
-1.12981e-06
-2.35006e-07
-1.02203e-06
-4.25178e-07
-8.51973e-07
-6.03979e-07
-6.34235e-07
-7.30883e-07
-3.97256e-07
-7.71193e-07
-1.71662e-07
-7.13424e-07
-5.20308e-07
-1.0323e-07
3.9344e-07
-2.14928e-07
4.84181e-07
-3.26707e-07
5.19946e-07
-4.39574e-07
5.38741e-07
-5.54583e-07
5.46224e-07
-6.7197e-07
5.43805e-07
-7.91228e-07
5.30872e-07
-9.11054e-07
5.04993e-07
-1.02902e-06
4.61824e-07
-1.14089e-06
3.95104e-07
-1.23965e-06
2.96961e-07
-1.31415e-06
1.58839e-07
-1.34895e-06
-2.60187e-08
-1.32211e-06
-2.61845e-07
-1.21153e-06
-5.35754e-07
-1.00672e-06
-8.08796e-07
-7.2764e-07
-1.00996e-06
-4.2743e-07
-1.0714e-06
-1.6671e-07
-9.74144e-07
-6.87018e-07
-1.02976e-07
4.96416e-07
-2.16174e-07
5.9738e-07
-3.30286e-07
6.34058e-07
-4.4602e-07
6.54475e-07
-5.6498e-07
6.65184e-07
-6.88536e-07
6.67361e-07
-8.17699e-07
6.60035e-07
-9.52943e-07
6.40237e-07
-1.09371e-06
6.02586e-07
-1.23733e-06
5.3873e-07
-1.37722e-06
4.36846e-07
-1.50029e-06
2.81917e-07
-1.58438e-06
5.80662e-08
-1.59458e-06
-2.51649e-07
-1.48497e-06
-6.45358e-07
-1.22209e-06
-1.07167e-06
-8.31703e-07
-1.40035e-06
-4.19449e-07
-1.48366e-06
-1.2174e-07
-1.27185e-06
-8.08758e-07
-1.00985e-07
5.97401e-07
-2.14164e-07
7.10559e-07
-3.2947e-07
7.49364e-07
-4.47328e-07
7.72333e-07
-5.69809e-07
7.87665e-07
-6.99455e-07
7.97007e-07
-8.39087e-07
7.99668e-07
-9.91619e-07
7.92769e-07
-1.15948e-06
7.70445e-07
-1.34318e-06
7.22433e-07
-1.53856e-06
6.32228e-07
-1.73286e-06
4.76212e-07
-1.89875e-06
2.23961e-07
-1.98765e-06
-1.62754e-07
-1.91211e-06
-7.20898e-07
-1.58374e-06
-1.40004e-06
-1.01088e-06
-1.97321e-06
-3.81908e-07
-2.11263e-06
-9.12523e-09
-1.64464e-06
-8.17883e-07
-9.78203e-08
6.95221e-07
-2.09552e-07
8.22291e-07
-3.24493e-07
8.64305e-07
-4.42804e-07
8.90644e-07
-5.66983e-07
9.11844e-07
-7.00773e-07
9.30796e-07
-8.4907e-07
9.47965e-07
-1.01789e-06
9.61588e-07
-1.21397e-06
9.66524e-07
-1.44342e-06
9.51887e-07
-1.70877e-06
8.97578e-07
-2.00506e-06
7.72498e-07
-2.31269e-06
5.31594e-07
-2.58508e-06
1.09642e-07
-2.69247e-06
-6.1351e-07
-2.43867e-06
-1.65385e-06
-1.70816e-06
-2.70371e-06
-6.92514e-07
-3.12828e-06
3.88667e-08
-2.37602e-06
-7.79017e-07
-9.37514e-08
7.88973e-07
-2.02621e-07
9.31161e-07
-3.1524e-07
9.76923e-07
-4.31414e-07
1.00682e-06
-5.53929e-07
1.03436e-06
-6.87607e-07
1.06447e-06
-8.39417e-07
1.09977e-06
-1.01877e-06
1.14094e-06
-1.23772e-06
1.18547e-06
-1.51071e-06
1.22488e-06
-1.85382e-06
1.2407e-06
-2.28569e-06
1.20437e-06
-2.83087e-06
1.07677e-06
-3.47062e-06
7.49387e-07
-4.04908e-06
-3.50518e-08
-4.13111e-06
-1.57182e-06
-3.4261e-06
-3.40872e-06
-2.00457e-06
-4.54981e-06
-4.57796e-07
-3.92279e-06
-1.23681e-06
-8.9122e-08
8.78095e-07
-1.93828e-07
1.03587e-06
-3.01897e-07
1.08499e-06
-4.12528e-07
1.11745e-06
-5.28483e-07
1.15031e-06
-6.55238e-07
1.19123e-06
-8.01271e-07
1.24581e-06
-9.78731e-07
1.3184e-06
-1.20444e-06
1.41118e-06
-1.50197e-06
1.52241e-06
-1.90771e-06
1.64643e-06
-2.48459e-06
1.78125e-06
-3.32112e-06
1.9133e-06
-4.39945e-06
1.82772e-06
-5.35975e-06
9.25243e-07
-5.76177e-06
-1.1698e-06
-5.335e-06
-3.83548e-06
-3.87171e-06
-6.01311e-06
-1.56846e-06
-6.22604e-06
-2.80527e-06
-8.46357e-08
9.62731e-07
-1.84272e-07
1.1355e-06
-2.85557e-07
1.18628e-06
-3.86721e-07
1.21861e-06
-4.90031e-07
1.25362e-06
-6.00863e-07
1.30206e-06
-7.27904e-07
1.37285e-06
-8.83891e-07
1.47439e-06
-1.08696e-06
1.61424e-06
-1.36413e-06
1.79958e-06
-1.76122e-06
2.04353e-06
-2.35964e-06
2.37967e-06
-3.24767e-06
2.80133e-06
-4.34148e-06
2.92152e-06
-5.32617e-06
1.90994e-06
-5.85125e-06
-6.4472e-07
-5.86365e-06
-3.82308e-06
-5.03555e-06
-6.8412e-06
-2.78936e-06
-8.47224e-06
-5.59463e-06
-8.15318e-08
1.04426e-06
-1.76045e-07
1.23002e-06
-2.68718e-07
1.27895e-06
-3.56471e-07
1.30637e-06
-4.40685e-07
1.33784e-06
-5.25769e-07
1.38714e-06
-6.18974e-07
1.46605e-06
-7.30684e-07
1.5861e-06
-8.75184e-07
1.75874e-06
-1.07272e-06
1.99712e-06
-1.35413e-06
2.32494e-06
-1.76307e-06
2.78861e-06
-2.32159e-06
3.35985e-06
-2.93576e-06
3.53569e-06
-3.48135e-06
2.45552e-06
-3.92721e-06
-1.98859e-07
-4.26538e-06
-3.48492e-06
-4.40886e-06
-6.69772e-06
-3.18178e-06
-9.69931e-06
-8.77641e-06
-8.20254e-08
1.12629e-06
-1.72724e-07
1.32072e-06
-2.55555e-07
1.36178e-06
-3.26429e-07
1.37724e-06
-3.85844e-07
1.39725e-06
-4.36701e-07
1.438e-06
-4.83634e-07
1.51299e-06
-5.32544e-07
1.63501e-06
-5.90209e-07
1.81641e-06
-6.62929e-07
2.06984e-06
-7.53103e-07
2.41511e-06
-8.46948e-07
2.88246e-06
-9.03632e-07
3.41654e-06
-9.13283e-07
3.54535e-06
-9.36559e-07
2.4788e-06
-1.15644e-06
2.10227e-08
-1.5289e-06
-3.11246e-06
-2.30988e-06
-5.91674e-06
-2.55762e-06
-9.45158e-06
-1.1334e-05
-8.87101e-08
1.215e-06
-1.7845e-07
1.41046e-06
-2.51147e-07
1.43448e-06
-3.02429e-07
1.42852e-06
-3.32949e-07
1.42777e-06
-3.44406e-07
1.44946e-06
-3.38642e-07
1.50722e-06
-3.166e-07
1.61297e-06
-2.7752e-07
1.77733e-06
-2.13849e-07
2.00617e-06
-1.06666e-07
2.30793e-06
9.48039e-08
2.68099e-06
4.3329e-07
3.07805e-06
8.60449e-07
3.11819e-06
1.1551e-06
2.18415e-06
1.0806e-06
9.55228e-08
5.94394e-07
-2.62625e-06
-3.13894e-07
-5.00845e-06
-1.44241e-06
-8.32306e-06
-1.27764e-05
-1.07734e-07
1.32273e-06
-1.99979e-07
1.5027e-06
-2.6084e-07
1.49534e-06
-2.89337e-07
1.45702e-06
-2.88219e-07
1.42666e-06
-2.59188e-07
1.42043e-06
-2.01485e-07
1.44952e-06
-1.11969e-07
1.52345e-06
1.67219e-08
1.64864e-06
1.9217e-07
1.83072e-06
4.38972e-07
2.06113e-06
7.99982e-07
2.31998e-06
1.33555e-06
2.54248e-06
1.96513e-06
2.4886e-06
2.39843e-06
1.75085e-06
2.3365e-06
1.57451e-07
1.66789e-06
-1.95764e-06
7.42911e-07
-4.08347e-06
-5.50327e-07
-7.02982e-06
-1.33268e-05
-1.36983e-07
1.45972e-06
-2.34123e-07
1.59984e-06
-2.82015e-07
1.54323e-06
-2.85005e-07
1.46001e-06
-2.51459e-07
1.39311e-06
-1.83847e-07
1.35281e-06
-8.06338e-08
1.34631e-06
6.42956e-08
1.37852e-06
2.57847e-07
1.45509e-06
5.13996e-07
1.57457e-06
8.4861e-07
1.72651e-06
1.28528e-06
1.8833e-06
1.84462e-06
1.98315e-06
2.45148e-06
1.88174e-06
2.86389e-06
1.33845e-06
2.81104e-06
2.10297e-07
2.17921e-06
-1.32581e-06
1.28211e-06
-3.18638e-06
3.50242e-09
-5.75121e-06
-1.33233e-05
-2.15431e-07
1.67515e-06
-3.08011e-07
1.69242e-06
-3.11699e-07
1.54692e-06
-2.70351e-07
1.41866e-06
-1.99604e-07
1.32236e-06
-9.65179e-08
1.24973e-06
4.44719e-08
1.20532e-06
2.30228e-07
1.19277e-06
4.71952e-07
1.21336e-06
7.79817e-07
1.26671e-06
1.16164e-06
1.34469e-06
1.62074e-06
1.4242e-06
2.14789e-06
1.456e-06
2.67574e-06
1.35388e-06
3.02222e-06
9.91972e-07
2.98094e-06
2.5157e-07
2.45035e-06
-7.95218e-07
1.65909e-06
-2.39511e-06
4.1147e-07
-4.50359e-06
-1.29118e-05
-2.98664e-07
1.97381e-06
-3.1705e-07
1.71081e-06
-2.3812e-07
1.46799e-06
-1.39797e-07
1.32034e-06
-1.29174e-08
1.19548e-06
1.49214e-07
1.0876e-06
3.47121e-07
1.00741e-06
5.83627e-07
9.56261e-07
8.67311e-07
9.29679e-07
1.20937e-06
9.2465e-07
1.6167e-06
9.37359e-07
2.08518e-06
9.55721e-07
2.58882e-06
9.52362e-07
3.06437e-06
8.78334e-07
3.37565e-06
6.8069e-07
3.36975e-06
2.57465e-07
2.94091e-06
-3.66373e-07
2.16019e-06
-1.6144e-06
8.87042e-07
-3.23044e-06
-1.20247e-05
-3.64731e-07
2.33854e-06
-2.58451e-07
1.60453e-06
1.32444e-07
1.07709e-06
5.69868e-07
8.82916e-07
9.96005e-07
7.69345e-07
1.40674e-06
6.76865e-07
1.80427e-06
6.09876e-07
2.19598e-06
5.6455e-07
2.59298e-06
5.32685e-07
3.00751e-06
5.10118e-07
3.44976e-06
4.95105e-07
3.92245e-06
4.83038e-07
4.40902e-06
4.65785e-07
4.8637e-06
4.23652e-07
5.20445e-06
3.39947e-07
5.29634e-06
1.65571e-07
4.98588e-06
-5.59125e-08
4.09671e-06
-7.25228e-07
1.9667e-06
-1.10042e-06
-1.00581e-05
2.33854e-06
3.94307e-06
5.02016e-06
5.90308e-06
6.67242e-06
7.34929e-06
7.95916e-06
8.52371e-06
9.0564e-06
9.56652e-06
1.00616e-05
1.05447e-05
1.10104e-05
1.14341e-05
1.1774e-05
1.19396e-05
1.18837e-05
1.11585e-05
1.00581e-05
)
;

boundaryField
{
    movingWall
    {
        type            calculated;
        value           uniform 0;
    }
    fixedWalls
    {
        type            calculated;
        value           uniform 0;
    }
    frontAndBack
    {
        type            empty;
        value           nonuniform List<scalar> 0();
    }
}


// ************************************************************************* //
