/*--------------------------------*- C++ -*----------------------------------*\
| =========                 |                                                 |
| \\      /  F ield         | OpenFOAM: The Open Source CFD Toolbox           |
|  \\    /   O peration     | Version:  2312                                  |
|   \\  /    A nd           | Website:  www.openfoam.com                      |
|    \\/     M anipulation  |                                                 |
\*---------------------------------------------------------------------------*/
FoamFile
{
    version     2.0;
    format      ascii;
    arch        "LSB;label=32;scalar=64";
    class       volScalarField;
    location    "1";
    object      powk;
}
// * * * * * * * * * * * * * * * * * * * * * * * * * * * * * * * * * * * * * //

dimensions      [0 0.5 -0.5 0 0 0 0];

internalField   nonuniform List<scalar> 
400
(
2.55474
2.55953
2.56296
2.56512
2.56656
2.56759
2.56839
2.56906
2.56962
2.57009
2.57045
2.57061
2.57065
2.57042
2.56981
2.56871
2.56692
2.56417
2.55989
2.55516
2.55952
2.56894
2.57321
2.57554
2.57691
2.57775
2.57832
2.57876
2.57914
2.57952
2.57987
2.58014
2.58025
2.58019
2.57977
2.57884
2.5771
2.57409
2.56866
2.56011
2.56346
2.57414
2.57864
2.58108
2.5825
2.58335
2.58389
2.58427
2.58458
2.58485
2.58508
2.58523
2.58526
2.58509
2.58456
2.58347
2.58155
2.57833
2.57263
2.56376
2.56604
2.57714
2.58176
2.58428
2.58576
2.58665
2.5872
2.58757
2.58785
2.58808
2.58826
2.58834
2.58831
2.58805
2.5874
2.58616
2.58403
2.58054
2.57455
2.56612
2.56784
2.57904
2.58377
2.58635
2.58788
2.58881
2.58939
2.58977
2.59005
2.59027
2.59044
2.59052
2.59048
2.59019
2.58946
2.58807
2.58569
2.58184
2.57545
2.56782
2.56916
2.5803
2.58511
2.58775
2.58933
2.5903
2.59091
2.59132
2.59162
2.59188
2.59211
2.59226
2.59231
2.59209
2.59139
2.58989
2.58725
2.58296
2.57604
2.56925
2.57018
2.58115
2.58602
2.58871
2.59034
2.59135
2.59199
2.59244
2.59281
2.59317
2.59354
2.59391
2.59415
2.59418
2.59364
2.59212
2.58947
2.58505
2.57735
2.57064
2.57101
2.58174
2.58664
2.58938
2.59104
2.59208
2.59276
2.59328
2.59376
2.59429
2.59492
2.59565
2.59633
2.59664
2.59634
2.59498
2.59362
2.59067
2.58238
2.57296
2.57173
2.58217
2.58708
2.58984
2.59152
2.59259
2.59332
2.59392
2.59455
2.59533
2.59635
2.59759
2.59878
2.59923
2.59899
2.59919
2.601
2.60101
2.59453
2.57983
2.57239
2.58249
2.58739
2.59015
2.59184
2.59292
2.5937
2.59439
2.59521
2.59631
2.59778
2.59961
2.60093
2.60104
2.60054
2.60165
2.6048
2.60711
2.60822
2.59534
2.57301
2.58276
2.58762
2.59035
2.59202
2.59311
2.59392
2.59471
2.59571
2.59711
2.59899
2.60108
2.60185
2.60054
2.59961
2.60057
2.60312
2.60845
2.6139
2.61284
2.57362
2.583
2.58779
2.59047
2.5921
2.59316
2.59398
2.59484
2.596
2.59763
2.59976
2.60158
2.60172
2.59932
2.59671
2.5957
2.59689
2.60439
2.61588
2.62343
2.57426
2.58324
2.58793
2.59052
2.59208
2.5931
2.59392
2.59481
2.59603
2.59778
2.6
2.60166
2.60137
2.59766
2.59333
2.59147
2.59286
2.60128
2.61516
2.62793
2.57496
2.58349
2.58803
2.59051
2.59199
2.59295
2.59374
2.59465
2.5959
2.59766
2.59984
2.60162
2.60152
2.59819
2.59306
2.58982
2.59176
2.59981
2.61458
2.63079
2.57564
2.58375
2.58809
2.59043
2.5918
2.59268
2.59343
2.59432
2.59558
2.59733
2.59947
2.60142
2.60186
2.59981
2.59513
2.59226
2.59394
2.59966
2.61434
2.63335
2.5767
2.58393
2.58807
2.59024
2.59148
2.5923
2.593
2.59385
2.59505
2.59673
2.59879
2.60085
2.60186
2.60114
2.59886
2.59604
2.59697
2.60035
2.61461
2.63626
2.57723
2.58426
2.58806
2.58997
2.59108
2.59184
2.59252
2.59334
2.59447
2.59602
2.59793
2.59991
2.60136
2.60112
2.59995
2.59755
2.59785
2.60014
2.6165
2.63989
2.57934
2.58508
2.58881
2.59064
2.59179
2.59268
2.5935
2.5944
2.59551
2.59692
2.59863
2.60046
2.60199
2.60209
2.60152
2.59985
2.5995
2.60309
2.62008
2.6449
2.58511
2.59312
2.59913
2.60257
2.60478
2.60652
2.608
2.60928
2.6104
2.61141
2.61236
2.61328
2.61412
2.61481
2.615
2.61543
2.61654
2.62233
2.6311
2.65215
2.62752
2.64215
2.65151
2.65623
2.65879
2.66031
2.66121
2.6617
2.66187
2.66183
2.6617
2.66143
2.66103
2.66071
2.66031
2.66032
2.66066
2.66079
2.66303
2.65924
)
;

boundaryField
{
    movingWall
    {
        type            calculated;
        value           nonuniform List<scalar> 
20
(
2.62752
2.64215
2.65151
2.65623
2.65879
2.66031
2.66121
2.6617
2.66187
2.66183
2.6617
2.66143
2.66103
2.66071
2.66031
2.66032
2.66066
2.66079
2.66303
2.65924
)
;
    }
    fixedWalls
    {
        type            calculated;
        value           nonuniform List<scalar> 
60
(
2.55474
2.55952
2.56346
2.56604
2.56784
2.56916
2.57018
2.57101
2.57173
2.57239
2.57301
2.57362
2.57426
2.57496
2.57564
2.5767
2.57723
2.57934
2.58511
2.62752
2.55516
2.56011
2.56376
2.56612
2.56782
2.56925
2.57064
2.57296
2.57983
2.59534
2.61284
2.62343
2.62793
2.63079
2.63335
2.63626
2.63989
2.6449
2.65215
2.65924
2.55474
2.55953
2.56296
2.56512
2.56656
2.56759
2.56839
2.56906
2.56962
2.57009
2.57045
2.57061
2.57065
2.57042
2.56981
2.56871
2.56692
2.56417
2.55989
2.55516
)
;
    }
    frontAndBack
    {
        type            empty;
    }
}


// ************************************************************************* //
