/*--------------------------------*- C++ -*----------------------------------*\
| =========                 |                                                 |
| \\      /  F ield         | OpenFOAM: The Open Source CFD Toolbox           |
|  \\    /   O peration     | Version:  2312                                  |
|   \\  /    A nd           | Website:  www.openfoam.com                      |
|    \\/     M anipulation  |                                                 |
\*---------------------------------------------------------------------------*/
FoamFile
{
    version     2.0;
    format      ascii;
    arch        "LSB;label=32;scalar=64";
    class       volScalarField;
    location    "1";
    object      QField;
}
// * * * * * * * * * * * * * * * * * * * * * * * * * * * * * * * * * * * * * //

dimensions      [0 0 -2 0 0 0 0];

internalField   nonuniform List<scalar> 
400
(
-0.011207
-0.0524053
-0.109737
-0.149489
-0.169321
-0.173903
-0.171385
-0.168063
-0.170826
-0.185074
-0.19092
-0.232956
-0.303202
-0.364756
-0.432172
-0.471532
-0.44531
-0.339492
-0.17928
-0.0512708
-0.0498246
-0.0992953
-0.147372
-0.175167
-0.186733
-0.185678
-0.175089
-0.157105
-0.134293
-0.110598
-0.0916759
-0.0898725
-0.118263
-0.187962
-0.293169
-0.404945
-0.470114
-0.451648
-0.344436
-0.183859
-0.105363
-0.141938
-0.167467
-0.184627
-0.193781
-0.194774
-0.187508
-0.172454
-0.151611
-0.129406
-0.113727
-0.117633
-0.156807
-0.242041
-0.368038
-0.502959
-0.592749
-0.606133
-0.533104
-0.357768
-0.148697
-0.170153
-0.182676
-0.192776
-0.20086
-0.205864
-0.206551
-0.202639
-0.195883
-0.190929
-0.196401
-0.225892
-0.296073
-0.418462
-0.586252
-0.760032
-0.871155
-0.879641
-0.756832
-0.520054
-0.175031
-0.187619
-0.195806
-0.203309
-0.212424
-0.223293
-0.235314
-0.248673
-0.265874
-0.292762
-0.339738
-0.422623
-0.561075
-0.772433
-1.04823
-1.32123
-1.47121
-1.40955
-1.10715
-0.75191
-0.18684
-0.196549
-0.205662
-0.214201
-0.226698
-0.245465
-0.272092
-0.308999
-0.361576
-0.439656
-0.559304
-0.744957
-1.0318
-1.46584
-2.05127
-2.64495
-2.93811
-2.59537
-1.70688
-1.30223
-0.190323
-0.199463
-0.211558
-0.223049
-0.240553
-0.268934
-0.313264
-0.380457
-0.482435
-0.638762
-0.880224
-1.25922
-1.8766
-2.90492
-4.47836
-6.24667
-6.94442
-5.47291
-2.50866
-2.38984
-0.1891
-0.197304
-0.212072
-0.226498
-0.249125
-0.287655
-0.351859
-0.45581
-0.623107
-0.892785
-1.33075
-2.07168
-3.44799
-6.07932
-10.5428
-15.6554
-17.2233
-12.0118
-1.58324
-2.15039
-0.184105
-0.190358
-0.205835
-0.221242
-0.247062
-0.294157
-0.378031
-0.522587
-0.769255
-1.19063
-1.9282
-3.34629
-6.41765
-12.8219
-22.5918
-31.6314
-37.031
-30.3886
-7.29279
5.45482
-0.173734
-0.178677
-0.191892
-0.204552
-0.22944
-0.280827
-0.380439
-0.563552
-0.894272
-1.49328
-2.62546
-5.16766
-11.1486
-20.6342
-26.26
-26.9877
-35.4215
-48.025
-37.9053
6.85249
-0.153597
-0.162453
-0.170095
-0.175098
-0.193393
-0.242759
-0.350557
-0.562271
-0.962957
-1.7243
-3.2418
-6.74432
-13.5417
-14.726
7.44365
38.1259
38.4043
-8.17733
-65.6674
-51.9238
-0.115409
-0.141613
-0.14161
-0.134137
-0.140627
-0.18222
-0.290533
-0.517748
-0.960932
-1.8252
-3.5771
-7.03193
-10.2592
3.52204
52.6693
111.84
128.339
87.8915
-23.7051
-139.189
-0.0533619
-0.11875
-0.109702
-0.0869777
-0.0798016
-0.112473
-0.219121
-0.454757
-0.91653
-1.80403
-3.54599
-6.41421
-6.85238
11.3437
63.5153
116.822
125.205
117.37
48.3104
-158.073
0.0773572
-0.0911162
-0.0791745
-0.0427635
-0.0264697
-0.0566994
-0.168093
-0.414327
-0.879864
-1.72754
-3.26289
-5.71327
-6.34499
6.11827
43.0893
74.4618
68.1848
61.7322
61.7135
-111.527
0.20557
-0.0839729
-0.0598846
-0.0141757
0.000715811
-0.0394325
-0.167123
-0.430173
-0.905158
-1.70055
-2.9727
-4.87695
-6.18309
-1.06899
15.6979
29.6878
25.6472
17.63
39.2785
-58.6069
0.810787
-0.0181039
-0.0457503
-0.00615812
-0.00714942
-0.0727048
-0.227428
-0.516326
-1.00588
-1.75955
-2.81887
-4.15134
-5.22568
-3.57854
2.78004
7.9258
4.74016
4.0974
22.5701
-36.2436
0.0396348
-0.342181
-0.0195664
0.0921489
0.0863345
-0.0132067
-0.231148
-0.601725
-1.17008
-1.95388
-2.88949
-3.76416
-4.08948
-2.69124
1.18242
4.60356
2.6545
11.07
2.84789
-66.3361
3.86621
0.0355125
0.0378901
0.477633
0.531604
0.318481
-0.112679
-0.755479
-1.61382
-2.6631
-3.69276
-4.1727
-3.3202
-0.202085
5.71387
12.7968
19.2955
31.9447
-17.0447
-290.927
-20.0517
6.88984
-1.25668
-4.44836
-1.49157
0.0353292
-0.254345
-0.958803
-1.65051
-2.42393
-3.19087
-3.38665
-1.77163
2.67801
11.4382
22.1585
45.1855
50.2524
174.498
-1185.4
-3306.27
905.586
748.618
403.657
217.404
131.28
87.4195
62.1292
46.1671
35.1726
28.0074
23.6008
22.1756
24.9473
34.2066
47.1697
111.613
-49.6016
1803.27
-3117.44
)
;

boundaryField
{
    movingWall
    {
        type            calculated;
        value           nonuniform List<scalar> 
20
(
-6613.72
1685.96
1393.4
748.932
402.851
243.019
161.834
115.238
85.9801
65.9372
53.0008
45.1584
42.7049
47.5613
64.0639
86.7935
203.844
-54.8918
3305.89
-4350
)
;
    }
    fixedWalls
    {
        type            calculated;
        value           nonuniform List<scalar> 
60
(
-0.00391421
-0.0328161
-0.0882881
-0.142719
-0.179779
-0.199317
-0.208917
-0.213406
-0.213439
-0.205033
-0.178159
-0.1161
-0.00118293
0.244235
0.540776
1.65249
0.921277
7.4582
-44.8265
-7452.58
-0.0217302
-0.124684
-0.294549
-0.493078
-0.853723
-1.84345
-3.49848
-2.34819
11.01
29.0296
-31.6395
-178.775
-281.723
-255.274
-153.012
-102.259
-194.256
-864.428
-3879.23
-11023
-0.00389706
-0.034931
-0.0919818
-0.143252
-0.174609
-0.189144
-0.197854
-0.211016
-0.240503
-0.294455
-0.332903
-0.425788
-0.546326
-0.611191
-0.647323
-0.614034
-0.492721
-0.305502
-0.123231
-0.0220368
)
;
    }
    frontAndBack
    {
        type            empty;
    }
}


// ************************************************************************* //
