/*--------------------------------*- C++ -*----------------------------------*\
| =========                 |                                                 |
| \\      /  F ield         | OpenFOAM: The Open Source CFD Toolbox           |
|  \\    /   O peration     | Version:  2312                                  |
|   \\  /    A nd           | Website:  www.openfoam.com                      |
|    \\/     M anipulation  |                                                 |
\*---------------------------------------------------------------------------*/
FoamFile
{
    version     2.0;
    format      ascii;
    arch        "LSB;label=32;scalar=64";
    class       volScalarField;
    location    "1";
    object      staticP;
}
// * * * * * * * * * * * * * * * * * * * * * * * * * * * * * * * * * * * * * //

dimensions      [1 -1 -2 0 0 0 0];

internalField   nonuniform List<scalar> 
400
(
1
1
1.00001
1.00003
1.00007
1.00014
1.00022
1.00032
1.00044
1.00058
1.00074
1.00092
1.00111
1.00131
1.00149
1.00165
1.00177
1.00184
1.00186
1.00185
1
1
1.00001
1.00004
1.00008
1.00014
1.00022
1.00032
1.00044
1.00058
1.00073
1.00091
1.0011
1.00129
1.00147
1.00163
1.00175
1.00182
1.00185
1.00184
1
1
1
1.00002
1.00006
1.00012
1.0002
1.0003
1.00041
1.00055
1.00071
1.00088
1.00107
1.00127
1.00147
1.00164
1.00177
1.00184
1.00186
1.00184
1
1
1
1
1.00001
1.00007
1.00014
1.00024
1.00035
1.00049
1.00065
1.00083
1.00104
1.00126
1.00148
1.00168
1.00182
1.00189
1.00189
1.00185
1
1
1
1
1
1
1.00005
1.00014
1.00025
1.00039
1.00056
1.00075
1.00098
1.00124
1.0015
1.00174
1.00191
1.00196
1.00193
1.00186
1
1
1
1
1
1
1
1
1.00011
1.00025
1.00042
1.00063
1.00088
1.00118
1.00152
1.00183
1.00203
1.00206
1.00197
1.00185
1
1
1
1
1
1
1
1
1
1.00004
1.00021
1.00042
1.0007
1.00106
1.0015
1.00195
1.00222
1.00218
1.00197
1.00177
1
1
1
1
1
1
1
1
1
1
1
1.0001
1.00039
1.00079
1.00136
1.00201
1.00239
1.00223
1.00181
1.00152
1
1
1
1
1
1
1
1
1
1
1
1
1
1.00019
1.00071
1.00137
1.0019
1.00194
1.00145
1.00113
1
1
1
1
1
1
1
1
1
1
1
1
1
1
1
1
1
1.00016
1.00099
1.00105
1
1
1
1
1
1
1
1
1
1
1
1
1
1
1
1
1
1
1
1.00072
1
1
1
1
1
1
1
1
1
1
1
1
1
1
1
1
1
1
1
1
1
1
1
1
1
1
1
1
1
1
1
1
1
1
1
1
1
1
1
1
1
1
1
1
1
1
1
1
1
1
1
1
1
1
1
1
1
1
1
1
1
1
1
1
1
1
1
1
1
1
1
1
1
1
1
1
1
1
1
1
1
1
1
1
1
1
1
1
1
1
1
1
1
1
1
1
1
1
1
1
1
1
1
1
1
1
1
1
1
1
1
1
1
1
1
1
1
1
1
1
1
1
1
1
1
1
1
1
1
1
1
1
1
1
1
1
1
1
1
1
1
1
1
1
1
1
1
1
1
1
1
1
1
1
1
1
1
1
1.00041
1.01355
1
1.00156
1.00073
1
1
1
1
1
1
1
1
1
1
1
1
1
1
1.00109
1.00321
1.05657
)
;

boundaryField
{
    movingWall
    {
        type            calculated;
        value           nonuniform List<scalar> 
20
(
1
1.00156
1.00073
1
1
1
1
1
1
1
1
1
1
1
1
1
1
1.00109
1.00321
1.05657
)
;
    }
    fixedWalls
    {
        type            calculated;
        value           nonuniform List<scalar> 
60
(
1
1
1
1
1
1
1
1
1
1
1
1
1
1
1
1
1
1
1
1
1.00185
1.00184
1.00184
1.00185
1.00186
1.00185
1.00177
1.00152
1.00113
1.00105
1.00072
1
1
1
1
1
1
1
1.01355
1.05657
1
1
1.00001
1.00003
1.00007
1.00014
1.00022
1.00032
1.00044
1.00058
1.00074
1.00092
1.00111
1.00131
1.00149
1.00165
1.00177
1.00184
1.00186
1.00185
)
;
    }
    frontAndBack
    {
        type            empty;
    }
}


// ************************************************************************* //
