/*--------------------------------*- C++ -*----------------------------------*\
| =========                 |                                                 |
| \\      /  F ield         | OpenFOAM: The Open Source CFD Toolbox           |
|  \\    /   O peration     | Version:  2312                                  |
|   \\  /    A nd           | Website:  www.openfoam.com                      |
|    \\/     M anipulation  |                                                 |
\*---------------------------------------------------------------------------*/
FoamFile
{
    version     2.0;
    format      ascii;
    arch        "LSB;label=32;scalar=64";
    class       pointScalarField;
    location    "1";
    object      streamFunc;
}
// * * * * * * * * * * * * * * * * * * * * * * * * * * * * * * * * * * * * * //

dimensions      [0 3 -1 0 0 0 0];

internalField   nonuniform List<scalar> 
882
(
0
0
0
0
0
0
0
0
0
0
0
0
0
0
0
0
0
0
0
0
0
0
-3.13221e-06
-1.00303e-05
-1.90667e-05
-2.88988e-05
-3.88136e-05
-4.84451e-05
-5.75501e-05
-6.58856e-05
-7.31315e-05
-7.88327e-05
-8.23984e-05
-8.33413e-05
-8.08922e-05
-7.45989e-05
-6.43625e-05
-5.06828e-05
-3.48628e-05
-1.91374e-05
-6.56933e-06
0
0
-9.94716e-06
-2.61126e-05
-4.54701e-05
-6.61524e-05
-8.70496e-05
-0.000107466
-0.000126847
-0.000144613
-0.000160035
-0.000172169
-0.000179863
-0.000181882
-0.000176913
-0.000164002
-0.000142944
-0.000114728
-8.18717e-05
-4.83433e-05
-1.90567e-05
0
0
-1.89973e-05
-4.54112e-05
-7.53507e-05
-0.000106915
-0.000138851
-0.00017024
-0.000200257
-0.000227993
-0.000252313
-0.00027177
-0.000284596
-0.0002888
-0.000282328
-0.000263515
-0.000231776
-0.000188383
-0.000137069
-8.36475e-05
-3.48645e-05
0
0
-2.90211e-05
-6.62695e-05
-0.000107086
-0.000149674
-0.000192795
-0.000235437
-0.000276598
-0.000315115
-0.000349501
-0.000377824
-0.000397645
-0.000406078
-0.000399997
-0.000376496
-0.000333978
-0.000273581
-0.000200492
-0.000123373
-5.20308e-05
0
0
-3.93441e-05
-8.77623e-05
-0.000139757
-0.000193631
-0.000248253
-0.000302634
-0.000355721
-0.000406221
-0.000452403
-0.000491913
-0.00052161
-0.000537494
-0.000534892
-0.000508707
-0.000455132
-0.000374252
-0.000273256
-0.000166116
-6.87018e-05
0
0
-4.96417e-05
-0.00010938
-0.000172786
-0.000238233
-0.000304751
-0.000371488
-0.000437491
-0.000501515
-0.000561774
-0.000615647
-0.000659331
-0.000687523
-0.00069333
-0.000668165
-0.000603629
-0.000496462
-0.000356427
-0.000208061
-8.08758e-05
0
0
-5.97401e-05
-0.000130796
-0.000205733
-0.000282966
-0.000361732
-0.000441433
-0.0005214
-0.000600677
-0.000677721
-0.000749965
-0.000813188
-0.000860809
-0.000883205
-0.00086693
-0.00079484
-0.000654836
-0.000457515
-0.000246252
-8.17883e-05
0
0
-6.95222e-05
-0.000151751
-0.000238182
-0.000327246
-0.000418431
-0.00051151
-0.000606307
-0.000702466
-0.000799118
-0.000894307
-0.000984065
-0.00106131
-0.00111447
-0.00112544
-0.00106409
-0.000898702
-0.000628331
-0.000315503
-7.79016e-05
0
0
-7.88973e-05
-0.000172013
-0.000269706
-0.000370388
-0.000473824
-0.000580271
-0.000690249
-0.000804343
-0.00092289
-0.00104538
-0.00116945
-0.00128988
-0.00139756
-0.0014725
-0.00146899
-0.00131181
-0.000970941
-0.00051596
-0.000123681
0
0
-8.78095e-05
-0.000191396
-0.000299895
-0.00041164
-0.000526672
-0.000645795
-0.000770376
-0.000902216
-0.00104333
-0.00119557
-0.00136022
-0.00153834
-0.00172967
-0.00191245
-0.00200497
-0.00188799
-0.00150444
-0.000903131
-0.000280527
0
0
-9.62731e-05
-0.000209824
-0.000328451
-0.000450313
-0.000575675
-0.000705881
-0.000843166
-0.000990605
-0.00115203
-0.00133199
-0.00153634
-0.00177431
-0.00205444
-0.00234659
-0.00253759
-0.00247312
-0.00209081
-0.00140669
-0.000559463
0
0
-0.000104426
-0.000227428
-0.000355323
-0.00048596
-0.000619744
-0.000758458
-0.000905063
-0.00106367
-0.00123955
-0.00143926
-0.00167175
-0.00195061
-0.0022866
-0.00264017
-0.00288572
-0.00286584
-0.00251734
-0.00184757
-0.000877641
0
0
-0.000112629
-0.0002447
-0.000380878
-0.000518603
-0.000658328
-0.000802128
-0.000953427
-0.00111693
-0.00129857
-0.00150555
-0.00174706
-0.00203531
-0.00237696
-0.0027315
-0.00297938
-0.00298148
-0.00267023
-0.00207856
-0.0011334
0
0
-0.0001215
-0.000262545
-0.000405993
-0.000548845
-0.000691623
-0.000836569
-0.000987291
-0.00114859
-0.00132632
-0.00152694
-0.00175773
-0.00202583
-0.00233363
-0.00264545
-0.00286387
-0.00287342
-0.00261079
-0.00210995
-0.00127764
0
0
-0.000132273
-0.000282543
-0.000432077
-0.000577779
-0.000720445
-0.000862487
-0.00100744
-0.00115978
-0.00132465
-0.00150772
-0.00171383
-0.00194583
-0.00220008
-0.00244894
-0.00262402
-0.00263977
-0.00244401
-0.00203566
-0.00133268
0
0
-0.000145972
-0.000305956
-0.000460279
-0.00060628
-0.000745591
-0.000880872
-0.0010155
-0.00115336
-0.00129886
-0.00145632
-0.00162897
-0.0018173
-0.00201562
-0.00220379
-0.00233764
-0.00235867
-0.00222608
-0.00190745
-0.00133233
0
0
-0.000167515
-0.000336757
-0.000491449
-0.000633315
-0.000765551
-0.000890524
-0.00101106
-0.00113033
-0.00125167
-0.00137834
-0.00151281
-0.00165523
-0.00180083
-0.00193622
-0.00203541
-0.00206057
-0.00198105
-0.00174154
-0.00129118
0
0
-0.000197381
-0.000368462
-0.000515261
-0.000647295
-0.000766843
-0.000875603
-0.000976344
-0.00107197
-0.00116494
-0.0012574
-0.00135114
-0.00144671
-0.00154195
-0.00162978
-0.00169785
-0.0017236
-0.00168696
-0.00152552
-0.00120247
0
0
-0.000233854
-0.000394307
-0.000502016
-0.000590308
-0.000667242
-0.000734929
-0.000795916
-0.000852371
-0.00090564
-0.000956652
-0.00100616
-0.00105447
-0.00110104
-0.00114341
-0.0011774
-0.00119396
-0.00118837
-0.00111585
-0.00100581
0
0
0
0
0
0
0
0
0
0
0
0
0
0
0
0
0
0
0
0
0
0
0
0
0
0
0
0
0
0
0
0
0
0
0
0
0
0
0
0
0
0
0
0
-3.13221e-06
-1.00303e-05
-1.90667e-05
-2.88988e-05
-3.88136e-05
-4.84451e-05
-5.75501e-05
-6.58856e-05
-7.31315e-05
-7.88327e-05
-8.23984e-05
-8.33413e-05
-8.08922e-05
-7.45989e-05
-6.43625e-05
-5.06828e-05
-3.48628e-05
-1.91374e-05
-6.56933e-06
0
0
-9.94716e-06
-2.61126e-05
-4.54701e-05
-6.61524e-05
-8.70496e-05
-0.000107466
-0.000126847
-0.000144613
-0.000160035
-0.000172169
-0.000179863
-0.000181882
-0.000176913
-0.000164002
-0.000142944
-0.000114728
-8.18717e-05
-4.83433e-05
-1.90567e-05
0
0
-1.89973e-05
-4.54112e-05
-7.53507e-05
-0.000106915
-0.000138851
-0.00017024
-0.000200257
-0.000227993
-0.000252313
-0.00027177
-0.000284596
-0.0002888
-0.000282328
-0.000263515
-0.000231776
-0.000188383
-0.000137069
-8.36475e-05
-3.48645e-05
0
0
-2.90211e-05
-6.62695e-05
-0.000107086
-0.000149674
-0.000192795
-0.000235437
-0.000276598
-0.000315115
-0.000349501
-0.000377824
-0.000397645
-0.000406078
-0.000399997
-0.000376496
-0.000333978
-0.000273581
-0.000200492
-0.000123373
-5.20308e-05
0
0
-3.93441e-05
-8.77623e-05
-0.000139757
-0.000193631
-0.000248253
-0.000302634
-0.000355721
-0.000406221
-0.000452403
-0.000491913
-0.00052161
-0.000537494
-0.000534892
-0.000508707
-0.000455132
-0.000374252
-0.000273256
-0.000166116
-6.87018e-05
0
0
-4.96417e-05
-0.00010938
-0.000172786
-0.000238233
-0.000304751
-0.000371488
-0.000437491
-0.000501515
-0.000561774
-0.000615647
-0.000659331
-0.000687523
-0.00069333
-0.000668165
-0.000603629
-0.000496462
-0.000356427
-0.000208061
-8.08758e-05
0
0
-5.97401e-05
-0.000130796
-0.000205733
-0.000282966
-0.000361732
-0.000441433
-0.0005214
-0.000600677
-0.000677721
-0.000749965
-0.000813188
-0.000860809
-0.000883205
-0.00086693
-0.00079484
-0.000654836
-0.000457515
-0.000246252
-8.17883e-05
0
0
-6.95222e-05
-0.000151751
-0.000238182
-0.000327246
-0.000418431
-0.00051151
-0.000606307
-0.000702466
-0.000799118
-0.000894307
-0.000984065
-0.00106131
-0.00111447
-0.00112544
-0.00106409
-0.000898702
-0.000628331
-0.000315503
-7.79016e-05
0
0
-7.88973e-05
-0.000172013
-0.000269706
-0.000370388
-0.000473824
-0.000580271
-0.000690249
-0.000804343
-0.00092289
-0.00104538
-0.00116945
-0.00128988
-0.00139756
-0.0014725
-0.00146899
-0.00131181
-0.000970941
-0.00051596
-0.000123681
0
0
-8.78095e-05
-0.000191396
-0.000299895
-0.00041164
-0.000526672
-0.000645795
-0.000770376
-0.000902216
-0.00104333
-0.00119557
-0.00136022
-0.00153834
-0.00172967
-0.00191245
-0.00200497
-0.00188799
-0.00150444
-0.000903131
-0.000280527
0
0
-9.62731e-05
-0.000209824
-0.000328451
-0.000450313
-0.000575675
-0.000705881
-0.000843166
-0.000990605
-0.00115203
-0.00133199
-0.00153634
-0.00177431
-0.00205444
-0.00234659
-0.00253759
-0.00247312
-0.00209081
-0.00140669
-0.000559463
0
0
-0.000104426
-0.000227428
-0.000355323
-0.00048596
-0.000619744
-0.000758458
-0.000905063
-0.00106367
-0.00123955
-0.00143926
-0.00167175
-0.00195061
-0.0022866
-0.00264017
-0.00288572
-0.00286584
-0.00251734
-0.00184757
-0.000877641
0
0
-0.000112629
-0.0002447
-0.000380878
-0.000518603
-0.000658328
-0.000802128
-0.000953427
-0.00111693
-0.00129857
-0.00150555
-0.00174706
-0.00203531
-0.00237696
-0.0027315
-0.00297938
-0.00298148
-0.00267023
-0.00207856
-0.0011334
0
0
-0.0001215
-0.000262545
-0.000405993
-0.000548845
-0.000691623
-0.000836569
-0.000987291
-0.00114859
-0.00132632
-0.00152694
-0.00175773
-0.00202583
-0.00233363
-0.00264545
-0.00286387
-0.00287342
-0.00261079
-0.00210995
-0.00127764
0
0
-0.000132273
-0.000282543
-0.000432077
-0.000577779
-0.000720445
-0.000862487
-0.00100744
-0.00115978
-0.00132465
-0.00150772
-0.00171383
-0.00194583
-0.00220008
-0.00244894
-0.00262402
-0.00263977
-0.00244401
-0.00203566
-0.00133268
0
0
-0.000145972
-0.000305956
-0.000460279
-0.00060628
-0.000745591
-0.000880872
-0.0010155
-0.00115336
-0.00129886
-0.00145632
-0.00162897
-0.0018173
-0.00201562
-0.00220379
-0.00233764
-0.00235867
-0.00222608
-0.00190745
-0.00133233
0
0
-0.000167515
-0.000336757
-0.000491449
-0.000633315
-0.000765551
-0.000890524
-0.00101106
-0.00113033
-0.00125167
-0.00137834
-0.00151281
-0.00165523
-0.00180083
-0.00193622
-0.00203541
-0.00206057
-0.00198105
-0.00174154
-0.00129118
0
0
-0.000197381
-0.000368462
-0.000515261
-0.000647295
-0.000766843
-0.000875603
-0.000976344
-0.00107197
-0.00116494
-0.0012574
-0.00135114
-0.00144671
-0.00154195
-0.00162978
-0.00169785
-0.0017236
-0.00168696
-0.00152552
-0.00120247
0
0
-0.000233854
-0.000394307
-0.000502016
-0.000590308
-0.000667242
-0.000734929
-0.000795916
-0.000852371
-0.00090564
-0.000956652
-0.00100616
-0.00105447
-0.00110104
-0.00114341
-0.0011774
-0.00119396
-0.00118837
-0.00111585
-0.00100581
0
0
0
0
0
0
0
0
0
0
0
0
0
0
0
0
0
0
0
0
0
0
)
;

boundaryField
{
    movingWall
    {
        type            calculated;
    }
    fixedWalls
    {
        type            calculated;
    }
    frontAndBack
    {
        type            empty;
    }
}


// ************************************************************************* //
