/*--------------------------------*- C++ -*----------------------------------*\
| =========                 |                                                 |
| \\      /  F ield         | OpenFOAM: The Open Source CFD Toolbox           |
|  \\    /   O peration     | Version:  2312                                  |
|   \\  /    A nd           | Website:  www.openfoam.com                      |
|    \\/     M anipulation  |                                                 |
\*---------------------------------------------------------------------------*/
FoamFile
{
    version     2.0;
    format      ascii;
    arch        "LSB;label=32;scalar=64";
    class       surfaceScalarField;
    location    "1";
    object      surfaceK;
}
// * * * * * * * * * * * * * * * * * * * * * * * * * * * * * * * * * * * * * //

dimensions      [0 2 -2 0 0 0 0];

internalField   nonuniform List<scalar> 
760
(
0.000172303
0.000172232
0.000226188
0.000281178
0.000269588
0.000355562
0.000300833
0.000404352
0.000323927
0.000436841
0.000341987
0.000459313
0.000356974
0.000476027
0.000369896
0.0004897
0.000381041
0.000501819
0.000390127
0.000512904
0.000395942
0.000522602
0.000398162
0.000528873
0.000396004
0.000531109
0.000386777
0.000527513
0.000368321
0.000514022
0.000338769
0.000487303
0.000296152
0.000443117
0.000238616
0.000376678
0.000176995
0.000280712
0.000178483
0.000281108
0.000230137
0.000410552
0.00042243
0.000490326
0.000535793
0.00054036
0.000606156
0.000572227
0.000650422
0.000593352
0.000678537
0.000608752
0.0006973
0.000621622
0.000711285
0.000633682
0.000723259
0.000645379
0.000734467
0.000655534
0.000744808
0.000661819
0.000752058
0.000662617
0.000754681
0.000654757
0.000750144
0.000633004
0.000732925
0.000591651
0.000697389
0.000523644
0.000636512
0.000418774
0.000542175
0.0002822
0.000400342
0.000236649
0.00037146
0.000281957
0.00054767
0.000524918
0.000651622
0.000663524
0.000716218
0.000749262
0.000756732
0.000803241
0.000782484
0.000837135
0.000799833
0.000858914
0.000812921
0.000874045
0.000824043
0.000885916
0.000833896
0.000896121
0.000841333
0.000904597
0.00084492
0.000909294
0.000842207
0.000909494
0.000828312
0.000900183
0.00079731
0.000875708
0.000742249
0.000829162
0.000655043
0.000752707
0.000523744
0.000637841
0.000354792
0.000469637
0.000285156
0.000435415
0.000321636
0.000640771
0.00059542
0.000761163
0.000751497
0.000836285
0.000848421
0.000883644
0.000909937
0.000913564
0.000948722
0.000933126
0.000973433
0.00094704
0.000990109
0.000957993
0.00100259
0.000966822
0.00101277
0.000972558
0.00102062
0.000973868
0.0010244
0.00096747
0.00102291
0.000947579
0.00101005
0.00090756
0.000979268
0.000839619
0.000922151
0.000735505
0.000830142
0.000583735
0.000695596
0.000400001
0.000506357
0.000322204
0.00048164
0.000352403
0.000706145
0.000644771
0.000838755
0.00081365
0.000922073
0.000919206
0.000975016
0.00098679
0.00100859
0.00102975
0.00103042
0.00105727
0.00104566
0.00107588
0.00105737
0.00108989
0.00106657
0.00110155
0.00107246
0.0011112
0.00107344
0.00111692
0.00106549
0.00111704
0.00104174
0.00110459
0.000993859
0.00107059
0.000912674
0.00100378
0.000790234
0.000894919
0.000618218
0.000737924
0.00042856
0.000526789
0.000353201
0.000515534
0.000376985
0.000752276
0.000679458
0.000894101
0.000857678
0.000983923
0.000969917
0.00104152
0.0010424
0.00107843
0.00108897
0.00110273
0.00111929
0.00112011
0.00114046
0.00113406
0.00115739
0.00114618
0.00117301
0.00115566
0.00118837
0.00116052
0.00120198
0.00115614
0.00120951
0.00113344
0.00120477
0.00108052
0.00117326
0.00098603
0.00109854
0.000842609
0.000976296
0.000646495
0.000797577
0.00045143
0.000553908
0.000383153
0.000540909
0.000397416
0.00078486
0.000704023
0.000933494
0.00088883
0.0010284
0.00100608
0.00108985
0.00108241
0.00112983
0.00113207
0.00115701
0.00116526
0.00117774
0.00118985
0.00119634
0.00121173
0.0012152
0.00123502
0.00123469
0.00126187
0.00125097
0.00129181
0.00125814
0.00131768
0.0012446
0.00132706
0.00119129
0.00130426
0.00108881
0.00122719
0.000931264
0.00112735
0.00070499
0.000959342
0.000485631
0.000654887
0.000425911
0.00056053
0.000415195
0.000807992
0.000721759
0.000961419
0.000910908
0.0010601
0.00103166
0.00112463
0.00111078
0.00116749
0.00116296
0.00119809
0.00119911
0.00122383
0.00122812
0.00125041
0.00125743
0.00128169
0.00129302
0.00131899
0.00133883
0.00135852
0.00139514
0.0013866
0.00145067
0.00138672
0.00147337
0.00134016
0.0014573
0.00126573
0.00142545
0.00115542
0.00144718
0.000909239
0.00137361
0.000595168
0.00100736
0.000551544
0.000576424
0.00043142
0.000824674
0.000735075
0.000981145
0.000926692
0.00108234
0.00104947
0.00114911
0.00113027
0.00119458
0.00118427
0.00122914
0.00122328
0.00126172
0.00125759
0.00130005
0.00129664
0.00135017
0.00134892
0.00141498
0.00142065
0.00148729
0.00151304
0.00153744
0.00159189
0.00154395
0.00160951
0.00154259
0.00158568
0.0016069
0.00162859
0.00166536
0.00179741
0.00147173
0.00188566
0.000963736
0.0017363
0.000985811
0.000590071
0.000446905
0.000837093
0.000745732
0.000995021
0.000938186
0.00109741
0.00106152
0.00116543
0.00114272
0.00121298
0.00119758
0.00125173
0.00123897
0.00129251
0.00127879
0.00134552
0.00132869
0.00141941
0.00139964
0.00151871
0.00149934
0.00161764
0.00162262
0.00166396
0.00169101
0.00165124
0.00165122
0.00167169
0.00160513
0.00181911
0.00167273
0.00201771
0.00186958
0.00215023
0.00215939
0.00175837
0.00244386
0.0019579
0.000602566
0.000462337
0.000846825
0.000755014
0.00100469
0.000946797
0.00110683
0.00106913
0.00117486
0.00114923
0.00122358
0.00120366
0.00126603
0.00124644
0.00131497
0.00129097
0.00138282
0.00135073
0.00147958
0.00143818
0.00160325
0.00156028
0.001696
0.00168685
0.00167827
0.00171732
0.00160511
0.00159601
0.00160618
0.00148761
0.00172319
0.00148949
0.00201125
0.00160978
0.00245302
0.00205661
0.00264339
0.00278913
0.00315375
0.000614786
0.000478282
0.000854987
0.000763873
0.00101124
0.000953468
0.00111154
0.00107314
0.00117804
0.00115062
0.00122653
0.00120355
0.00127138
0.00124646
0.00132673
0.00129368
0.0014061
0.00135986
0.00151889
0.00145812
0.00164388
0.00159208
0.00170818
0.00170602
0.00163506
0.00170111
0.00147851
0.0015062
0.00137092
0.00130702
0.00137608
0.00123092
0.00165514
0.00130006
0.00239272
0.00179194
0.0032995
0.00284956
0.0039999
0.000627368
0.000495812
0.000862355
0.000772907
0.00101536
0.000958672
0.00111222
0.00107396
0.00117613
0.00114785
0.00122348
0.00119823
0.00126877
0.00124014
0.00132681
0.0012883
0.00141188
0.00135721
0.00153131
0.00145926
0.00165422
0.00159479
0.00169895
0.00170749
0.00157225
0.00169435
0.0013347
0.00147121
0.00116701
0.00120706
0.0011549
0.0010807
0.00143686
0.00116207
0.00224878
0.00163598
0.00354997
0.0027857
0.00448369
0.000641351
0.000514515
0.000869224
0.000782397
0.00101727
0.000962282
0.00110959
0.00107178
0.00116995
0.00114086
0.0012149
0.00118754
0.00125967
0.00122742
0.00131869
0.0012751
0.00140459
0.00134442
0.00152273
0.00144577
0.00164806
0.00157794
0.00170288
0.00169954
0.0015933
0.00171102
0.00134357
0.00153743
0.00112075
0.00125517
0.00108786
0.00110032
0.00136118
0.00119003
0.0021729
0.00158315
0.00371942
0.00274622
0.00487025
0.000655561
0.000538818
0.000875455
0.000790624
0.00101679
0.000963064
0.00110304
0.0010655
0.00115844
0.00112846
0.00120006
0.00117098
0.00124285
0.00120813
0.00130083
0.00125368
0.00138561
0.00132067
0.00150098
0.00141824
0.00162942
0.00154502
0.00170768
0.00167383
0.00165514
0.00172258
0.00144903
0.00163086
0.00123474
0.00141939
0.00120249
0.00126031
0.00141199
0.00133039
0.00215646
0.00160019
0.00389705
0.0027479
0.00528718
0.000673882
0.000561447
0.000878234
0.000800265
0.00101178
0.000962407
0.00109092
0.00105466
0.00114099
0.00111091
0.00117905
0.00114974
0.00121897
0.00118469
0.00127352
0.00122777
0.00135331
0.00129022
0.00146228
0.00138035
0.00158942
0.00149786
0.00168873
0.00162445
0.0016983
0.00170557
0.00160122
0.00167347
0.00144495
0.00156265
0.00138822
0.00140514
0.0015186
0.00144094
0.00219163
0.00161572
0.00413803
0.00285417
0.00582143
0.000687831
0.000601569
0.000884439
0.000822451
0.00100528
0.000978797
0.00107465
0.00106407
0.00111967
0.00111844
0.00115539
0.00115935
0.0011935
0.00119771
0.00124447
0.00124266
0.00131726
0.00130292
0.00141593
0.00138589
0.00153288
0.00149299
0.00164129
0.00161179
0.00168075
0.00170995
0.0016349
0.00170538
0.00152284
0.00164827
0.00145786
0.00151945
0.00153806
0.00151762
0.00227826
0.0017081
0.00453757
0.00313717
0.00659063
0.000736189
0.000736873
0.000916809
0.00102076
0.00103758
0.00127031
0.00110786
0.00142552
0.00115813
0.00153219
0.00120168
0.0016201
0.00124688
0.00169993
0.00130112
0.00177633
0.00137155
0.00185405
0.00146296
0.00193823
0.0015719
0.00203203
0.00168046
0.00213225
0.00173459
0.00222252
0.00171875
0.00225891
0.00164488
0.00224893
0.00157921
0.00221554
0.00168766
0.00225982
0.00256701
0.00269519
0.00519023
0.00402655
0.00781361
0.00102145
0.00253554
0.00137427
0.00386817
0.00165824
0.00498815
0.00184985
0.00565153
0.00199416
0.00605088
0.00211835
0.00631397
0.00222938
0.00649213
0.00232926
0.00660959
0.00242072
0.00668123
0.0025073
0.0067198
0.00259238
0.00674394
0.00267431
0.00675035
0.00274684
0.00673616
0.0027891
0.00672594
0.00281959
0.00668231
0.00289614
0.00670588
0.00326735
0.0068062
0.00415474
0.00713918
0.00664993
0.00801487
0.00943099
0.00538226
0.00748205
0.00898144
0.00985257
0.0103707
0.0106878
0.0108723
0.0109616
0.0109803
0.0109564
0.0109019
0.0108122
0.0107153
0.0106192
0.0105686
0.0106159
0.010678
0.0109993
0.0107959
)
;

boundaryField
{
    movingWall
    {
        type            calculated;
        value           nonuniform List<scalar> 
20
(
0.00423137
0.00653315
0.00843096
0.00953192
0.0101732
0.0105682
0.0108073
0.0109374
0.0109858
0.0109748
0.010938
0.0108658
0.0107586
0.0106719
0.0105664
0.0105708
0.0106611
0.010695
0.0113036
0.0102882
)
;
    }
    fixedWalls
    {
        type            calculated;
        value           nonuniform List<scalar> 
60
(
0.000143689
0.000200774
0.0002595
0.000304413
0.000338859
0.000365948
0.000388022
0.00040681
0.00042358
0.00043926
0.000454551
0.000470124
0.000486439
0.000505186
0.000523843
0.000553793
0.000569102
0.000634036
0.000839709
0.00423137
0.000148089
0.000208877
0.000264422
0.00030589
0.000338518
0.000367883
0.000398422
0.0004534
0.000649687
0.00132193
0.00259387
0.00371364
0.00428617
0.0046812
0.0050593
0.00551506
0.0061278
0.00705347
0.00857374
0.0102882
0.000143689
0.000200916
0.00025146
0.000287715
0.00031395
0.000333905
0.00035007
0.000363878
0.000375915
0.000386167
0.000394088
0.000397796
0.000398529
0.000393479
0.000380076
0.000356567
0.000320972
0.000271332
0.0002059
0.000148089
)
;
    }
    frontAndBack
    {
        type            empty;
        value           nonuniform List<scalar> 0();
    }
}


// ************************************************************************* //
