/*--------------------------------*- C++ -*----------------------------------*\
| =========                 |                                                 |
| \\      /  F ield         | OpenFOAM: The Open Source CFD Toolbox           |
|  \\    /   O peration     | Version:  2312                                  |
|   \\  /    A nd           | Website:  www.openfoam.com                      |
|    \\/     M anipulation  |                                                 |
\*---------------------------------------------------------------------------*/
FoamFile
{
    version     2.0;
    format      ascii;
    arch        "LSB;label=32;scalar=64";
    class       surfaceScalarField;
    location    "1";
    object      surfaceP;
}
// * * * * * * * * * * * * * * * * * * * * * * * * * * * * * * * * * * * * * //

dimensions      [0 2 -2 0 0 0 0];

internalField   nonuniform List<scalar> 
760
(
2.27117e-08
1.64399e-06
3.23449e-06
0
1.92047e-05
8.21164e-06
5.32166e-05
3.48201e-05
0.000104925
7.80413e-05
0.000175455
0.000138922
0.00026577
0.000218531
0.000376675
0.000317841
0.000508492
0.000437588
0.000660554
0.000577837
0.000831569
0.000737679
0.00101823
0.00091569
0.00121233
0.00110621
0.00140222
0.00129953
0.00157369
0.0014833
0.0017113
0.00164186
0.001804
0.00176061
0.00185038
0.00183142
0.00185757
0.00185729
0.00184699
1.62128e-06
1.62128e-06
4.97715e-06
0
2.3827e-05
4.97715e-06
5.96447e-05
2.72274e-05
0.000112038
7.12943e-05
0.000181998
0.000131966
0.000270602
0.000210338
0.000378754
0.000307553
0.000506934
0.000424585
0.000654963
0.000561936
0.0008218
0.000719446
0.00100368
0.000895784
0.00119341
0.00108568
0.00138061
0.001281
0.00155147
0.00146917
0.00169116
0.00163392
0.00178802
0.00175893
0.00183833
0.00183325
0.00184672
0.00185797
0.00184268
0
0
0
0
8.37758e-06
0
3.8877e-05
8.37758e-06
9.12221e-05
3.44464e-05
0.000160306
9.38505e-05
0.000247289
0.000170444
0.000353384
0.00026563
0.000479586
0.000380911
0.000626419
0.00051765
0.00079343
0.000676739
0.000977783
0.000857714
0.00117327
0.00105679
0.00136956
0.00126653
0.00155162
0.00147309
0.00170169
0.00165618
0.00180416
0.00179258
0.00185289
0.00186565
0.00185393
0.0018788
0.00184914
0
0
0
0
0
0
3.947e-06
0
3.70749e-05
3.947e-06
0.000103989
3.31279e-05
0.000188784
9.53126e-05
0.000293156
0.000187549
0.000418975
0.000301055
0.00056797
0.000438463
0.000741023
0.00060231
0.000936726
0.000793901
0.00115005
0.0010114
0.00137005
0.001249
0.00157765
0.00149073
0.00174707
0.00170798
0.00185407
0.00186214
0.00189157
0.00192601
0.00187401
0.00191269
0.00185809
0
0
0
0
0
0
0
0
0
0
2.44517e-05
0
9.40777e-05
2.44517e-05
0.000195448
7.17526e-05
0.000320544
0.000181083
0.000472803
0.00031743
0.000655188
0.000485703
0.000868574
0.000690167
0.00111035
0.000932565
0.00136968
0.00121051
0.00162106
0.00150907
0.00182305
0.00178614
0.00193408
0.00196983
0.00194713
0.00201268
0.00189677
0.0019489
0.00185447
0
0
0
0
0
0
0
0
0
0
0
0
2.12667e-06
0
5.73879e-05
2.12667e-06
0.00017797
5.52613e-05
0.00033033
0.00014423
0.000520681
0.000310825
0.000754158
0.000524184
0.00103272
0.000792457
0.0013499
0.00112128
0.00167416
0.0015083
0.00193292
0.00189045
0.00204843
0.00212468
0.00201445
0.00212113
0.0019066
0.00196803
0.0018075
0
0
0
0
0
0
0
0
0
0
0
0
0
0
0
0
2.15216e-05
0
0.000124725
2.15216e-05
0.000314329
0.000103204
0.000562484
0.00026323
0.000881022
0.000546027
0.00127968
0.000924386
0.00172459
0.00143152
0.00208221
0.00198085
0.00219738
0.00230317
0.00207471
0.00220388
0.00186892
0.0018877
0.00164151
0
0
0
0
0
0
0
0
0
0
0
0
0
0
0
0
0
0
0
0
5.21046e-05
0
0.000246773
5.21046e-05
0.000589392
0.000194668
0.00107622
0.000491255
0.00168777
0.00103523
0.0022018
0.00169278
0.00230967
0.00214707
0.00201688
0.00208583
0.00166029
0.00162978
0.00132471
0
0
0
0
0
0
0
0
0
0
0
0
0
0
0
0
0
0
0
0
0
0
0
0
9.65314e-05
0
0.000450262
9.65314e-05
0.00104024
0.000353731
0.00163805
0.000686512
0.00192323
0.000951539
0.00169874
0.00105285
0.00129421
0.00121994
0.00109113
0
0
0
0
0
0
0
0
0
0
0
0
0
0
0
0
0
0
0
0
0
0
0
0
0
0
0
0
0
0
0
0
8.11521e-05
0
0.00057405
8.11521e-05
0.00101686
0.000492898
0.000881714
0
0
0
0
0
0
0
0
0
0
0
0
0
0
0
0
0
0
0
0
0
0
0
0
0
0
0
0
0
0
0
0
0
0
0
0
0.000357751
0
0.000357751
0
0
0
0
0
0
0
0
0
0
0
0
0
0
0
0
0
0
0
0
0
0
0
0
0
0
0
0
0
0
0
0
0
0
0
0
0
0
0
0
0
0
0
0
0
0
0
0
0
0
0
0
0
0
0
0
0
0
0
0
0
0
0
0
0
0
0
0
0
0
0
0
0
0
0
0
0
0
0
0
0
0
0
0
0
0
0
0
0
0
0
0
0
0
0
0
0
0
0
0
0
0
0
0
0
0
0
0
0
0
0
0
0
0
0
0
0
0
0
0
0
0
0
0
0
0
0
0
0
0
0
0
0
0
0
0
0
0
0
0
0
0
0
0
0
0
0
0
0
0
0
0
0
0
0
0
0
0
0
0
0
0
0
0
0
0
0
0
0
0
0
0
0
0
0
0
0
0
0
0
0
0
0
0
0
0
0
0
0
0
0
0
0
0
0
0
0
0
0
0
0
0
0
0
0
0
0
0
0
0
0
0
0
0
0
0
0
0
0
0
0
0
0
0
0
0
0
0
0
0
0
0
0
0
0
0
0
0
0
0
0
0
0
0
0
0
0
0
0
0
0
0
0
0
0
0
0
0
0
0
0
0
0
0
0
0
0
0
0
0
0
0.000203809
0.00677251
0
0
0
0.000780725
0
0.000363375
0
0
0
0
0
0
0
0
0
0
0
0
0
0
0
0
0
0
0
0
0
0
0
0
0
0
0
0
0.000203809
0.000544364
0.00697632
0.00180691
0.0350594
0.000780725
0.0011441
0.000363375
0
0
0
0
0
0
0
0
0
0
0
0
0
0.000544364
0.00214747
0.02989
)
;

boundaryField
{
    movingWall
    {
        type            calculated;
        value           nonuniform List<scalar> 
20
(
0
0.00156145
0.00072675
0
0
0
0
0
0
0
0
0
0
0
0
0
0
0.00108873
0.0032062
0.0565738
)
;
    }
    fixedWalls
    {
        type            calculated;
        value           nonuniform List<scalar> 
60
(
4.54233e-08
3.24256e-06
0
0
0
0
0
0
0
0
0
0
0
0
0
0
0
0
0
0
0.00185258
0.0018414
0.00184396
0.00185431
0.00186187
0.00184707
0.00176792
0.00151509
0.00113433
0.00104793
0.000715502
0
0
0
0
0
0
0
0.013545
0.0565738
4.54233e-08
0
6.46899e-06
3.19404e-05
7.44928e-05
0.000135358
0.000215553
0.000315988
0.000437363
0.000579621
0.000741486
0.000921651
0.0011148
0.00130987
0.00149457
0.0016528
0.0017698
0.00183821
0.00186255
0.00185258
)
;
    }
    frontAndBack
    {
        type            empty;
        value           nonuniform List<scalar> 0();
    }
}


// ************************************************************************* //
