/*--------------------------------*- C++ -*----------------------------------*\
| =========                 |                                                 |
| \\      /  F ield         | OpenFOAM: The Open Source CFD Toolbox           |
|  \\    /   O peration     | Version:  2312                                  |
|   \\  /    A nd           | Website:  www.openfoam.com                      |
|    \\/     M anipulation  |                                                 |
\*---------------------------------------------------------------------------*/
FoamFile
{
    version     2.0;
    format      ascii;
    arch        "LSB;label=32;scalar=64";
    class       surfaceScalarField;
    location    "1";
    object      surfaceDivU;
}
// * * * * * * * * * * * * * * * * * * * * * * * * * * * * * * * * * * * * * //

dimensions      [0 0 -1 0 0 0 0];

internalField   nonuniform List<scalar> 
760
(
0.0115944
-0.0095705
0.0189148
0.0119386
0.0181292
-0.000893789
0.020829
0.00144843
0.0204411
0.00180861
0.019738
0.0021402
0.0187819
0.00245041
0.0172204
0.00298875
0.0138283
0.0032537
0.0111064
0.00260588
0.00944441
0.00520899
0.00240426
0.00489931
-0.00614806
0.00318455
-0.0150831
0.00320092
-0.027218
-0.00089186
-0.0382514
-0.00567878
-0.0393596
-0.0111339
-0.0358179
-0.00707503
-0.0153875
-0.0174018
0.0265162
-0.00922632
-0.0183817
-0.00786999
0.00919775
-0.0175746
-0.00919056
-0.0175719
-0.0118102
-0.0164923
-0.0111559
-0.0151473
-0.010268
-0.0133427
-0.00929849
-0.010978
-0.00786653
-0.00796867
-0.0060528
-0.00329151
-0.00358493
0.000663886
0.000696014
0.0056796
0.00264509
0.0125335
0.00774563
0.0173922
0.0116436
0.0206474
0.0136989
0.0214387
0.0135873
0.0211507
0.00984829
0.0113411
0.00769313
0.024502
-0.0124911
0.0427389
4.23897e-05
-0.0205381
0.00787718
0.0179019
-0.00342623
0.00107262
-0.00539418
-0.00351934
-0.00493152
-0.00313294
-0.00441911
-0.00252949
-0.00382229
-0.00221546
-0.00294137
-0.00170561
-0.00166905
-0.000928853
0.000402597
0.000312893
0.00267722
0.00228779
0.00471113
0.00369752
0.00685573
0.00532844
0.00795032
0.0070533
0.0066388
0.00613505
0.00199691
0.00100568
-0.00360925
-0.00856154
-0.0161391
-0.0114843
0.00574578
-0.0278679
0.0459222
-0.00267855
-0.0243221
0.0110974
0.0191411
0.000979509
0.00407016
-0.00125809
-0.00112976
-0.000730901
-0.000775655
-0.000325843
-5.6659e-05
-9.87839e-05
0.000128878
0.000306901
0.000327669
0.00105309
0.000768068
0.00219808
0.00164624
0.00330809
0.00297296
0.00431483
0.00399594
0.005526
0.00547854
0.00523803
0.00834001
0.000501921
0.0073392
-0.00955277
-0.00311094
-0.0164366
-0.0212664
-0.0232132
-0.0183748
0.0123085
-0.0260779
0.0607816
-0.00250248
-0.0244621
0.0121139
0.019421
0.00196089
0.00467659
-0.000647328
-0.00103528
-0.000101413
-0.000991352
0.000398063
-0.000201491
0.000555331
-1.71411e-05
0.000788836
8.22665e-05
0.00136121
0.000424929
0.00242111
0.00129591
0.00366081
0.00276043
0.00515965
0.00453263
0.00829255
0.00772736
0.0104412
0.0159042
0.00372634
0.02213
-0.0148245
0.00579688
-0.0232046
-0.0292901
-0.0212395
-0.0138302
0.0223952
0.0110436
0.0860948
-0.00253865
-0.0243091
0.0119837
0.0191999
0.00168043
0.00466951
-0.0013793
-0.00127488
-0.00109143
-0.00171483
-0.000616695
-0.00105164
-0.000490206
-0.000976645
-0.00028164
-0.00103242
0.000359632
-0.000879637
0.00163523
-4.60761e-05
0.00363226
0.00175332
0.00710035
0.00441728
0.015339
0.0107375
0.027593
0.0316726
0.0242005
0.072973
-0.00866873
0.0728681
-0.0199157
0.0178126
0.018453
0.0135276
0.0747433
0.0532547
0.0580377
-0.00257059
-0.024002
0.0118857
0.0188836
0.0017142
0.00471133
-0.00161041
-0.00116416
-0.00167505
-0.00204602
-0.00141159
-0.00161018
-0.00151886
-0.00178079
-0.00163042
-0.00223423
-0.00128534
-0.00273974
7.20132e-05
-0.00252936
0.00253834
-0.000695929
0.00805448
0.00142677
0.0270712
0.0105003
0.0770527
0.0615355
0.121641
0.171606
0.0993494
0.189378
0.0512559
0.0717818
0.0483293
0.106712
0.0365491
0.0313709
-0.112894
-0.00254777
-0.0233414
0.0117092
0.0184936
0.00183297
0.00473532
-0.00159977
-0.000909439
-0.00198116
-0.00214556
-0.00197938
-0.00193168
-0.00249616
-0.00238654
-0.00334355
-0.00342651
-0.00398376
-0.00526548
-0.00329731
-0.00675956
-0.0018075
-0.00421242
0.00387256
-0.000915429
0.0449646
0.00816406
0.156089
0.0601443
0.239344
0.0924832
0.161811
0.0306043
0.127238
-0.108926
0.0897535
0.00729225
-0.118072
0.217697
0.0854232
-0.00229997
-0.0222671
0.0115198
0.0181656
0.0019929
0.00481341
-0.00145523
-0.00053752
-0.00209608
-0.00201881
-0.00233884
-0.00194186
-0.00331689
-0.0025738
-0.00534844
-0.00416912
-0.00804129
-0.00820618
-0.00767467
-0.0132653
-0.00332034
-0.00576767
0.00337607
-0.0089143
0.0233438
-0.0743036
-0.00346121
-0.144842
-0.116256
-0.192628
-0.240133
-0.352867
-0.228872
-0.480989
0.135236
-0.442411
0.421193
0.190207
0.430982
-0.00180161
-0.0204402
0.0114592
0.0180273
0.00228298
0.00507779
-0.0011011
-5.81496e-06
-0.00186458
-0.00157892
-0.00217681
-0.00138224
-0.00342603
-0.00174839
-0.00702686
-0.00312818
-0.0134302
-0.00843178
-0.0113583
-0.0147975
-0.0113616
0.00888722
-0.086594
0.000898288
-0.24249
-0.187487
-0.334009
-0.425679
-0.429239
-0.36549
-0.593724
-0.235868
-0.694529
-0.329564
-0.38744
-0.534129
0.199996
-0.80373
0.151728
-0.000611294
-0.0187937
0.0116459
0.0181325
0.002789
0.00542258
-0.000483642
0.00062705
-0.00109658
-0.000815836
-0.000953814
-0.000130235
-0.00145054
0.000430212
-0.00453311
0.000696016
-0.00979918
-0.00187604
0.00544793
-0.00160883
0.0211471
0.0440893
-0.0999946
0.0687343
-0.370676
-0.167411
-0.45716
-0.448376
-0.172119
-0.093191
0.0282917
0.534007
-0.169165
0.50365
-0.950419
0.287887
-0.851998
-1.08019
-0.450982
-4.98641e-05
-0.0143032
0.0119092
0.0198836
0.00326063
0.00630589
0.000294856
0.00141349
0.000150511
0.000109961
0.00125379
0.00138335
0.00257677
0.00312213
0.00335308
0.00562708
0.00631431
0.00854381
0.0370325
0.0172593
0.0916764
0.0696343
0.00131834
0.131783
-0.245111
-0.040495
-0.0844075
-0.293111
0.612935
0.352624
1.00937
1.03285
0.960702
0.931609
0.158118
0.889276
-0.679172
0.445658
-0.921596
0.00563028
-0.0214676
0.0142803
0.0192946
0.00445875
0.00540615
0.00122859
0.00089487
0.0013428
0.00031681
0.00325168
0.0019532
0.00617244
0.00434304
0.0108178
0.00765361
0.0194888
0.0134614
0.0498611
0.0257244
0.109741
0.0598227
0.0899701
0.108569
-0.0884948
0.0402709
0.14392
-0.232818
0.772539
0.261209
0.955094
0.771668
0.860183
0.570606
1.17682
0.183479
0.203233
1.65049
-0.837244
-0.00780326
0.00309385
0.0104205
0.0297461
0.00184227
0.00599724
-1.69127e-05
-0.00150269
0.000927209
-0.00119103
0.00304455
0.00126926
0.00582421
0.00405152
0.0102972
0.00498751
0.019697
0.00834699
0.0356861
0.0201148
0.0586503
0.0304981
0.0588698
0.0357846
-0.104053
-0.0201803
-0.115529
-0.294723
0.260339
-0.170587
0.38718
0.339784
-0.106098
0.196686
0.65715
-0.7457
0.610009
1.25438
-0.306962
0.0406432
-0.123119
0.0253228
-0.0565417
0.00265227
-0.0532223
-0.00267681
-0.0313758
-0.000848972
-0.0168617
0.00227623
-0.00730664
0.00321481
0.000656752
0.00303734
0.00386174
0.00876479
0.00771153
0.0149268
0.0152343
0.00763231
0.0135436
-0.0432655
-0.00626066
-0.210851
-0.0915407
-0.349781
-0.301443
-0.0911412
-0.322914
0.14929
0.0786665
-0.442915
0.122631
-0.148468
-0.799291
0.337411
0.20308
-0.459297
-0.220304
0.293868
-0.135087
0.332672
-0.0872504
0.242953
-0.0455607
0.1574
-0.0233193
0.110903
-0.00892611
0.082976
0.00130369
0.0681768
0.00853594
0.0602933
0.0141811
0.0556941
0.0138511
0.0487911
-0.000349349
0.0363948
-0.0545359
0.0103124
-0.182133
-0.0546913
-0.274577
-0.172373
-0.153107
-0.155012
0.0520072
-0.0101792
-0.233745
0.259882
-0.447742
-0.421752
-0.593627
-0.495707
-1.42481
0.846844
-0.602393
0.710712
-0.668734
0.487604
-0.52573
0.313863
-0.36058
0.217198
-0.259381
0.160079
-0.199645
0.127166
-0.156182
0.107452
-0.121059
0.0903041
-0.0956742
0.0713348
-0.0819505
0.0470566
-0.076324
0.010157
-0.0832912
-0.0449313
-0.0963726
-0.0528077
-0.122982
-0.012084
-0.0391286
0.197696
-0.121112
0.0718749
0.737824
-0.469716
-0.248048
-1.32688
-0.13941
-0.431658
-2.11797
0.569607
-1.90518
0.525143
-1.37391
0.30692
-0.933824
0.172639
-0.676224
0.150023
-0.515906
0.116913
-0.404408
0.0860646
-0.324185
0.0597522
-0.267929
0.0362773
-0.229609
0.0138513
-0.206672
-0.00776331
-0.189821
-0.0347545
-0.174424
-0.0402896
-0.109303
-0.0592411
-0.148157
0.0804662
0.419016
-0.224825
0.4179
1.38814
0.0822576
-1.67812
0.755817
2.47152
3.99177
3.21272
1.23808
2.73724
-0.0582606
1.85347
0.766249
1.25649
0.507802
0.94316
0.27549
0.718884
0.193085
0.550224
0.164255
0.420215
0.132273
0.318057
0.0992308
0.235697
0.0712442
0.164154
0.047003
0.114777
0.0176152
0.0748928
0.00753686
0.130528
-0.0408328
0.00379741
0.113266
0.744302
-0.40893
-0.707873
1.65324
0.711146
-5.59529
5.70748
10.5416
-5.58493
-2.03291
-2.02925
-0.579422
-0.473194
-0.474586
-0.361545
-0.253697
-0.188711
-0.147582
-0.11745
-0.0995357
-0.0896246
-0.108189
-0.0580949
-0.299461
0.500006
-3.23418
4.23516
-0.750807
)
;

boundaryField
{
    movingWall
    {
        type            calculated;
        value           nonuniform List<scalar> 
20
(
-0.740686
-3.32513
-0.733377
-0.425466
-0.520922
-0.42825
-0.294839
-0.212555
-0.164867
-0.130298
-0.104602
-0.0944694
-0.0847798
-0.131598
0.0154079
-0.61433
1.61434
-8.0827
16.553
-18.0546
)
;
    }
    fixedWalls
    {
        type            calculated;
        value           nonuniform List<scalar> 
60
(
0.000669208
-0.0198102
-0.0169532
-0.024123
-0.0245213
-0.024403
-0.0242153
-0.0237886
-0.0228942
-0.0216401
-0.0192402
-0.0183471
-0.0102592
-0.032676
0.0388637
-0.285102
0.872838
-2.07762
3.21684
-0.740686
0.0054223
0.0476102
0.0378675
0.0539769
0.0675862
0.104603
0.011472
-0.23726
0.408107
0.453856
-0.150401
-0.751563
-1.09163
-0.582859
-0.0310653
-0.887529
-1.96208
1.09877
6.88478
-18.0546
0.000669208
0.0225196
0.01531
0.0209485
0.0207095
0.0201728
0.0193031
0.0182606
0.0161802
0.0114763
0.0107365
0.00815237
-0.00334385
-0.00895226
-0.0212139
-0.0332221
-0.0432807
-0.0354385
-0.0361973
0.0054223
)
;
    }
    frontAndBack
    {
        type            empty;
        value           nonuniform List<scalar> 0();
    }
}


// ************************************************************************* //
