/*--------------------------------*- C++ -*----------------------------------*\
| =========                 |                                                 |
| \\      /  F ield         | OpenFOAM: The Open Source CFD Toolbox           |
|  \\    /   O peration     | Version:  2312                                  |
|   \\  /    A nd           | Website:  www.openfoam.com                      |
|    \\/     M anipulation  |                                                 |
\*---------------------------------------------------------------------------*/
FoamFile
{
    version     2.0;
    format      ascii;
    arch        "LSB;label=32;scalar=64";
    class       surfaceVectorField;
    location    "1";
    object      surfaceU;
}
// * * * * * * * * * * * * * * * * * * * * * * * * * * * * * * * * * * * * * //

dimensions      [0 1 -1 0 0 0 0];

internalField   nonuniform List<vector> 
760
(
(-0.000673956 0.000421358 0)
(-0.000418404 0.000677302 0)
(-0.00201371 0.000798078 0)
(-0.00168738 0.00145236 0)
(-0.00383147 0.000995855 0)
(-0.00353909 0.0018943 0)
(-0.0057894 0.00104993 0)
(-0.00557321 0.00206267 0)
(-0.00776836 0.00103535 0)
(-0.00767111 0.00208251 0)
(-0.00969211 0.000988915 0)
(-0.00974924 0.00202462 0)
(-0.01151 0.000920463 0)
(-0.0117507 0.00191443 0)
(-0.0131708 0.000825621 0)
(-0.0136208 0.00175206 0)
(-0.0146115 0.000689724 0)
(-0.0152946 0.0015216 0)
(-0.0157495 0.000494053 0)
(-0.0166934 0.00119542 0)
(-0.016443 0.000253866 0)
(-0.017715 0.000747126 0)
(-0.0165997 -6.4487e-05 0)
(-0.0181966 0.000197521 0)
(-0.0160999 -0.000469475 0)
(-0.0180794 -0.000516498 0)
(-0.0148218 -0.000901856 0)
(-0.0171794 -0.00132289 0)
(-0.0127781 -0.00131632 0)
(-0.0154673 -0.00214983 0)
(-0.0100741 -0.00162682 0)
(-0.012971 -0.00287011 0)
(-0.00697763 -0.00171546 0)
(-0.00986867 -0.00331284 0)
(-0.00386937 -0.0014501 0)
(-0.00649958 -0.00328545 0)
(-0.00142137 -0.000845799 0)
(-0.00323309 -0.00262899 0)
(-0.000827611 -0.00139426 0)
(-0.00143183 0.0017083 0)
(-0.000806334 0.00201008 0)
(-0.00321276 0.00254858 0)
(-0.00252213 0.00324008 0)
(-0.00528084 0.00296112 0)
(-0.0045471 0.00387689 0)
(-0.00745493 0.00309525 0)
(-0.00670074 0.0041465 0)
(-0.00965199 0.00307178 0)
(-0.00890642 0.00419411 0)
(-0.0118079 0.00295013 0)
(-0.0111091 0.00410104 0)
(-0.0138616 0.00274602 0)
(-0.0132571 0.00389611 0)
(-0.0157447 0.00244803 0)
(-0.0152894 0.00357375 0)
(-0.0173765 0.0020273 0)
(-0.0171329 0.00310505 0)
(-0.0186588 0.0014485 0)
(-0.0186987 0.00244645 0)
(-0.0194686 0.000690782 0)
(-0.019876 0.0015553 0)
(-0.0196762 -0.000254489 0)
(-0.0205261 0.000413366 0)
(-0.0191589 -0.00136991 0)
(-0.0205126 -0.000985276 0)
(-0.0178249 -0.00257086 0)
(-0.0196958 -0.00258007 0)
(-0.0156603 -0.00370362 0)
(-0.0179866 -0.00421732 0)
(-0.0127656 -0.00455613 0)
(-0.0153889 -0.00565541 0)
(-0.00939062 -0.00488283 0)
(-0.0120622 -0.0065828 0)
(-0.00586329 -0.00446434 0)
(-0.0083524 -0.00670633 0)
(-0.00263932 -0.00317745 0)
(-0.00460118 -0.00584598 0)
(-0.00137562 -0.00379553 0)
(-0.00189663 0.00354186 0)
(-0.00103288 0.00382195 0)
(-0.00385647 0.00456839 0)
(-0.00296972 0.0052851 0)
(-0.005967 0.00506227 0)
(-0.00506164 0.005981 0)
(-0.00815223 0.00524536 0)
(-0.00724006 0.00630389 0)
(-0.0103636 0.00522337 0)
(-0.00946043 0.00637936 0)
(-0.0125584 0.00504701 0)
(-0.0116942 0.00627262 0)
(-0.0146849 0.00472383 0)
(-0.0139074 0.00600167 0)
(-0.0166776 0.00423076 0)
(-0.01605 0.00554916 0)
(-0.0184551 0.0035242 0)
(-0.0180561 0.00487042 0)
(-0.0199159 0.00255325 0)
(-0.0198396 0.00390275 0)
(-0.0209335 0.00127789 0)
(-0.0212866 0.00258143 0)
(-0.0213624 -0.000317421 0)
(-0.0222493 0.000860513 0)
(-0.0210496 -0.00219543 0)
(-0.0225527 -0.00126927 0)
(-0.0198575 -0.00422653 0)
(-0.0219987 -0.00373241 0)
(-0.0177153 -0.00616912 0)
(-0.0204045 -0.00631978 0)
(-0.0146854 -0.00768208 0)
(-0.0176854 -0.00865868 0)
(-0.011024 -0.00840631 0)
(-0.0139792 -0.0102508 0)
(-0.00709029 -0.00808798 0)
(-0.0097238 -0.0106695 0)
(-0.00333747 -0.00646407 0)
(-0.00537149 -0.00973068 0)
(-0.00161736 -0.00694367 0)
(-0.00210596 0.00556519 0)
(-0.00111619 0.0058073 0)
(-0.00417489 0.00669772 0)
(-0.00316466 0.00744786 0)
(-0.0063347 0.00722262 0)
(-0.00531859 0.00815795 0)
(-0.00854825 0.0074379 0)
(-0.00753806 0.0085101 0)
(-0.010791 0.0074286 0)
(-0.00979694 0.00861692 0)
(-0.0130432 0.00722727 0)
(-0.0120876 0.00852267 0)
(-0.0152724 0.006827 0)
(-0.0143993 0.00822973 0)
(-0.0174285 0.00618881 0)
(-0.0167034 0.00770541 0)
(-0.0194406 0.00524897 0)
(-0.0189527 0.00688539 0)
(-0.0212103 0.00393093 0)
(-0.0210746 0.00568014 0)
(-0.0226024 0.00216405 0)
(-0.0229575 0.00398783 0)
(-0.0234395 -9.13343e-05 0)
(-0.0244355 0.00171639 0)
(-0.0235019 -0.00280625 0)
(-0.025277 -0.00118252 0)
(-0.0225457 -0.00582565 0)
(-0.0251705 -0.00465773 0)
(-0.0203746 -0.00880935 0)
(-0.0237526 -0.00846929 0)
(-0.0169791 -0.0112274 0)
(-0.020752 -0.0120707 0)
(-0.012679 -0.0125141 0)
(-0.0162703 -0.01463 0)
(-0.008005 -0.0123122 0)
(-0.0109823 -0.0154288 0)
(-0.00365138 -0.0102103 0)
(-0.00569137 -0.0142311 0)
(-0.00155328 -0.0103252 0)
(-0.00217488 0.00768997 0)
(-0.00112759 0.00785957 0)
(-0.00430836 0.0089081 0)
(-0.00322165 0.00967891 0)
(-0.00652195 0.00944543 0)
(-0.00542467 0.0103951 0)
(-0.00878674 0.00968912 0)
(-0.00769241 0.0107709 0)
(-0.0110935 0.00971098 0)
(-0.0100097 0.0109211 0)
(-0.0134437 0.00952512 0)
(-0.0123853 0.0108744 0)
(-0.0158302 0.00910814 0)
(-0.0148342 0.0106187 0)
(-0.0182276 0.00840199 0)
(-0.0173574 0.0101059 0)
(-0.0205867 0.00731656 0)
(-0.0199387 0.0092493 0)
(-0.0228218 0.00573704 0)
(-0.0225332 0.00792397 0)
(-0.0247906 0.00354017 0)
(-0.0250454 0.00597207 0)
(-0.026273 0.000625212 0)
(-0.0272954 0.00322004 0)
(-0.0269457 -0.003034 0)
(-0.0289811 -0.000479511 0)
(-0.0263774 -0.00730137 0)
(-0.029627 -0.0051735 0)
(-0.0241299 -0.0117306 0)
(-0.028555 -0.0106648 0)
(-0.0200431 -0.0154733 0)
(-0.025099 -0.0161721 0)
(-0.0145736 -0.0175448 0)
(-0.0192311 -0.0202332 0)
(-0.0086687 -0.0173477 0)
(-0.0120486 -0.0214322 0)
(-0.00359327 -0.014346 0)
(-0.00524485 -0.0194205 0)
(-0.00105834 -0.0135805 0)
(-0.00217436 0.00984852 0)
(-0.00110642 0.00991192 0)
(-0.00433796 0.0111659 0)
(-0.00320382 0.0119391 0)
(-0.00659513 0.0117206 0)
(-0.00543483 0.0126755 0)
(-0.00891538 0.012003 0)
(-0.00774091 0.0130848 0)
(-0.0113015 0.0120845 0)
(-0.0101161 0.0132999 0)
(-0.0137759 0.011968 0)
(-0.0125837 0.0133452 0)
(-0.0163614 0.0116165 0)
(-0.015187 0.0132017 0)
(-0.0190684 0.0109532 0)
(-0.0179651 0.0128107 0)
(-0.0218852 0.00985671 0)
(-0.0209483 0.0120655 0)
(-0.0247568 0.00815901 0)
(-0.024143 0.0107998 0)
(-0.0275502 0.00565194 0)
(-0.0274968 0.0087776 0)
(-0.0300035 0.00211531 0)
(-0.0308428 0.00569747 0)
(-0.0316625 -0.00261901 0)
(-0.0338319 0.00122637 0)
(-0.0318047 -0.00853695 0)
(-0.0358134 -0.00492478 0)
(-0.0295241 -0.0151063 0)
(-0.0356283 -0.012776 0)
(-0.0242869 -0.020932 0)
(-0.0318065 -0.0213366 0)
(-0.0167061 -0.0241206 0)
(-0.0238651 -0.0279733 0)
(-0.00862472 -0.0235049 0)
(-0.0132608 -0.0295534 0)
(-0.00270992 -0.018655 0)
(-0.00338615 -0.0251109 0)
(0.000369125 -0.0157674 0)
(-0.00213588 0.0120025 0)
(-0.00106854 0.0119267 0)
(-0.00430069 0.0134487 0)
(-0.003139 0.0141993 0)
(-0.00658062 0.0140397 0)
(-0.00537163 0.0149789 0)
(-0.00894161 0.0143817 0)
(-0.00769143 0.0154394 0)
(-0.0113983 0.0145605 0)
(-0.0101011 0.0157468 0)
(-0.0139949 0.0145788 0)
(-0.0126385 0.0159348 0)
(-0.0167907 0.0143958 0)
(-0.0153775 0.0159904 0)
(-0.019845 0.0139229 0)
(-0.018404 0.0158569 0)
(-0.0232062 0.0130085 0)
(-0.0218133 0.0154184 0)
(-0.026883 0.0114184 0)
(-0.0256946 0.014472 0)
(-0.0307895 0.00882314 0)
(-0.0300877 0.0126894 0)
(-0.0346712 0.00480853 0)
(-0.0349116 0.00959929 0)
(-0.0379827 -0.0010794 0)
(-0.0399033 0.00459839 0)
(-0.039637 -0.00916384 0)
(-0.0444149 -0.00306028 0)
(-0.0379108 -0.0190064 0)
(-0.0467989 -0.013942 0)
(-0.0313846 -0.028378 0)
(-0.0443826 -0.0272067 0)
(-0.0204198 -0.0334062 0)
(-0.0352176 -0.0386008 0)
(-0.00802223 -0.0311593 0)
(-0.019806 -0.0417758 0)
(-0.000307107 -0.0222233 0)
(-0.00276277 -0.0325179 0)
(0.00305411 -0.0160172 0)
(-0.00207165 0.0141235 0)
(-0.00102024 0.0138794 0)
(-0.00420994 0.0157295 0)
(-0.00303907 0.0164311 0)
(-0.00648244 0.0163787 0)
(-0.00524245 0.017275 0)
(-0.0088509 0.0168045 0)
(-0.0075379 0.0178026 0)
(-0.0113413 0.0171211 0)
(-0.00993506 0.0182265 0)
(-0.0140211 0.0173463 0)
(-0.0124849 0.0186055 0)
(-0.0169908 0.0174514 0)
(-0.0152921 0.0189494 0)
(-0.0203723 0.0173524 0)
(-0.0184944 0.0192241 0)
(-0.0243017 0.0168819 0)
(-0.0222665 0.0193286 0)
(-0.0288993 0.015743 0)
(-0.0268152 0.019049 0)
(-0.0342099 0.0134656 0)
(-0.0323411 0.0179877 0)
(-0.0401438 0.00938915 0)
(-0.0389876 0.0155274 0)
(-0.0463355 0.0026175 0)
(-0.0469307 0.0108346 0)
(-0.0515768 -0.00783842 0)
(-0.0561201 0.00258612 0)
(-0.0532707 -0.0221423 0)
(-0.064888 -0.0110923 0)
(-0.0482155 -0.0374295 0)
(-0.0687223 -0.0310242 0)
(-0.0346037 -0.0469704 0)
(-0.0614706 -0.0518322 0)
(-0.0145465 -0.0431344 0)
(-0.041731 -0.0609411 0)
(0.000598453 -0.0263118 0)
(-0.0140395 -0.0476573 0)
(0.00511067 -0.016605 0)
(-0.00198766 0.016187 0)
(-0.000965914 0.0157526 0)
(-0.00407158 0.0179766 0)
(-0.00291302 0.0186065 0)
(-0.00629791 0.0186989 0)
(-0.00505349 0.0195251 0)
(-0.00862206 0.0192246 0)
(-0.00727491 0.0201229 0)
(-0.0110786 0.0197109 0)
(-0.00958925 0.0206724 0)
(-0.0137559 0.0202085 0)
(-0.0120558 0.0212725 0)
(-0.0167957 0.0207221 0)
(-0.0148041 0.021976 0)
(-0.0203885 0.0212003 0)
(-0.0180179 0.022797 0)
(-0.02478 0.0214957 0)
(-0.0219498 0.0236866 0)
(-0.030257 0.0212937 0)
(-0.0269408 0.024479 0)
(-0.0371188 0.0200495 0)
(-0.0334057 0.0248197 0)
(-0.0457745 0.0169729 0)
(-0.0418366 0.0241797 0)
(-0.0567153 0.0108033 0)
(-0.0534684 0.0218125 0)
(-0.0694313 -0.000667722 0)
(-0.0697506 0.0154985 0)
(-0.0803395 -0.0199742 0)
(-0.0881095 -0.000414993 0)
(-0.0819773 -0.0454269 0)
(-0.0997456 -0.030318 0)
(-0.0685979 -0.0658028 0)
(-0.0971549 -0.0666813 0)
(-0.041224 -0.0654639 0)
(-0.0772401 -0.089134 0)
(-0.00952729 -0.0379505 0)
(-0.0414275 -0.0771826 0)
(-0.000362221 -0.0240918 0)
(-0.00189128 0.0181721 0)
(-0.000912476 0.0175357 0)
(-0.00389493 0.020155 0)
(-0.00277605 0.0207003 0)
(-0.00603049 0.0209491 0)
(-0.00482109 0.021685 0)
(-0.00824211 0.0215707 0)
(-0.00691127 0.022333 0)
(-0.0105664 0.022234 0)
(-0.00905324 0.0229872 0)
(-0.013104 0.02304 0)
(-0.0113055 0.0238009 0)
(-0.0160264 0.0240509 0)
(-0.0138075 0.0248858 0)
(-0.0195792 0.0252832 0)
(-0.016766 0.0263282 0)
(-0.0241107 0.0266699 0)
(-0.0204765 0.0281694 0)
(-0.0300896 0.0280051 0)
(-0.02537 0.0303722 0)
(-0.0381235 0.0289499 0)
(-0.032012 0.0328258 0)
(-0.0495305 0.0290194 0)
(-0.0411169 0.0355009 0)
(-0.0665037 0.0265077 0)
(-0.0550069 0.0380056 0)
(-0.0884287 0.0157512 0)
(-0.0763707 0.0357787 0)
(-0.107516 -0.0107588 0)
(-0.100352 0.0169765 0)
(-0.114923 -0.0515724 0)
(-0.115404 -0.0255074 0)
(-0.105797 -0.0900124 0)
(-0.117232 -0.0791477 0)
(-0.0774435 -0.100853 0)
(-0.104406 -0.121093 0)
(-0.0322624 -0.0633239 0)
(-0.0708946 -0.122633 0)
(-0.0183485 -0.0540849 0)
(-0.00179725 0.0200639 0)
(-0.000873464 0.0192367 0)
(-0.00370221 0.0222304 0)
(-0.00265566 0.0226954 0)
(-0.00570187 0.023069 0)
(-0.00458139 0.0237111 0)
(-0.0077224 0.0237495 0)
(-0.00648247 0.024355 0)
(-0.00979228 0.0245542 0)
(-0.0083528 0.0250508 0)
(-0.012009 0.0256467 0)
(-0.0102387 0.026013 0)
(-0.0145471 0.0271631 0)
(-0.0122682 0.027419 0)
(-0.0176632 0.0292144 0)
(-0.0146325 0.0294347 0)
(-0.0217358 0.0318717 0)
(-0.0176038 0.0322062 0)
(-0.0272924 0.0351929 0)
(-0.021583 0.0358666 0)
(-0.0350054 0.0393768 0)
(-0.0270754 0.0406555 0)
(-0.0465932 0.0444872 0)
(-0.0346139 0.0471835 0)
(-0.0648739 0.0472766 0)
(-0.0462689 0.0551915 0)
(-0.088294 0.037004 0)
(-0.0647691 0.0565868 0)
(-0.10824 0.00222791 0)
(-0.0846847 0.0349629 0)
(-0.117712 -0.0530827 0)
(-0.0965079 -0.0157966 0)
(-0.115841 -0.110228 0)
(-0.100371 -0.0809746 0)
(-0.097857 -0.142873 0)
(-0.0998045 -0.140813 0)
(-0.0569808 -0.113394 0)
(-0.0826559 -0.171277 0)
(-0.0359117 -0.111818 0)
(-0.00173188 0.0218682 0)
(-0.00087142 0.0208769 0)
(-0.00353484 0.024176 0)
(-0.00260143 0.0245896 0)
(-0.00536199 0.0249972 0)
(-0.00439765 0.0255661 0)
(-0.00711288 0.0256562 0)
(-0.00605839 0.0261107 0)
(-0.0087992 0.0265096 0)
(-0.00756175 0.0267353 0)
(-0.0104979 0.0277853 0)
(-0.00893402 0.0277149 0)
(-0.0123535 0.0296906 0)
(-0.0102723 0.0292839 0)
(-0.014573 0.0324266 0)
(-0.0117155 0.0316707 0)
(-0.017451 0.0362011 0)
(-0.0134466 0.0351012 0)
(-0.021366 0.0413292 0)
(-0.0157091 0.0398277 0)
(-0.0266839 0.0484622 0)
(-0.0187446 0.0462976 0)
(-0.0342896 0.0578878 0)
(-0.0225781 0.0553818 0)
(-0.0461641 0.0645017 0)
(-0.0277692 0.0664867 0)
(-0.0611597 0.0545458 0)
(-0.0361579 0.0697108 0)
(-0.0729526 0.0169384 0)
(-0.0456518 0.0477834 0)
(-0.0791665 -0.0436886 0)
(-0.0492299 -0.00448094 0)
(-0.0843347 -0.11156 0)
(-0.0523241 -0.0708145 0)
(-0.0846034 -0.169217 0)
(-0.0616724 -0.135929 0)
(-0.0615869 -0.169701 0)
(-0.0682629 -0.197328 0)
(-0.0391211 -0.177162 0)
(-0.00174098 0.0235983 0)
(-0.000939545 0.0225666 0)
(-0.00346425 0.0259796 0)
(-0.00267969 0.0264204 0)
(-0.00509405 0.0266796 0)
(-0.00435633 0.0272311 0)
(-0.00650726 0.0271897 0)
(-0.00573684 0.0275333 0)
(-0.00769657 0.0279407 0)
(-0.00679321 0.0279275 0)
(-0.00870845 0.0292135 0)
(-0.00753777 0.0287373 0)
(-0.00963424 0.031264 0)
(-0.00802864 0.0302317 0)
(-0.010589 0.0343454 0)
(-0.00833408 0.0326652 0)
(-0.0117046 0.0387278 0)
(-0.00851953 0.0362853 0)
(-0.0130877 0.044796 0)
(-0.00862082 0.0413372 0)
(-0.0146389 0.0532171 0)
(-0.00857181 0.0482209 0)
(-0.0160578 0.0639806 0)
(-0.00796272 0.0575259 0)
(-0.017763 0.0716957 0)
(-0.00598015 0.0683663 0)
(-0.02065 0.0629484 0)
(-0.00313407 0.0715383 0)
(-0.0219292 0.026364 0)
(-0.00211642 0.0515612 0)
(-0.0223875 -0.0316069 0)
(0.0011948 0.00120417 0)
(-0.0296618 -0.0951839 0)
(-0.00176335 -0.0592161 0)
(-0.0453319 -0.16404 0)
(-0.0145184 -0.115981 0)
(-0.0457972 -0.204789 0)
(-0.0385334 -0.189372 0)
(-0.0312863 -0.228418 0)
(-0.00187826 0.0253887 0)
(-0.00114258 0.0242814 0)
(-0.00357177 0.0276719 0)
(-0.00300144 0.0281993 0)
(-0.00499912 0.0280848 0)
(-0.00456191 0.0286773 0)
(-0.00602279 0.028271 0)
(-0.00562078 0.0285565 0)
(-0.00663442 0.0287242 0)
(-0.00615873 0.0285394 0)
(-0.00685796 0.0297555 0)
(-0.00621372 0.0289699 0)
(-0.00672847 0.0316329 0)
(-0.00579775 0.0301236 0)
(-0.00626461 0.0346051 0)
(-0.0049157 0.0322382 0)
(-0.00543574 0.0388947 0)
(-0.00353899 0.0355226 0)
(-0.00410492 0.0447621 0)
(-0.00153227 0.0401372 0)
(-0.00189564 0.0525297 0)
(0.00136569 0.0462377 0)
(0.00211493 0.0619117 0)
(0.00570107 0.0538758 0)
(0.00864878 0.068209 0)
(0.0126667 0.0620607 0)
(0.0153995 0.0601511 0)
(0.0225668 0.0635188 0)
(0.0210075 0.0264014 0)
(0.0307148 0.0460666 0)
(0.021819 -0.026405 0)
(0.0364213 0.00288267 0)
(0.0133801 -0.0800133 0)
(0.0315803 -0.0493953 0)
(-0.00771993 -0.141313 0)
(0.0170797 -0.0973241 0)
(-0.0240226 -0.213 0)
(-0.0112541 -0.164055 0)
(-0.0212344 -0.255355 0)
(-0.00226576 0.027092 0)
(-0.00153802 0.0267415 0)
(-0.00399158 0.0292047 0)
(-0.00359082 0.0301372 0)
(-0.00518357 0.029149 0)
(-0.00505209 0.0299104 0)
(-0.00575672 0.0288248 0)
(-0.00572644 0.0291151 0)
(-0.00573804 0.0287851 0)
(-0.00569387 0.0285085 0)
(-0.00515351 0.029338 0)
(-0.0050449 0.028389 0)
(-0.00398498 0.0307289 0)
(-0.00375951 0.0289742 0)
(-0.00219008 0.0331557 0)
(-0.00180202 0.0304564 0)
(0.000364478 0.0367651 0)
(0.000934635 0.0329853 0)
(0.00393834 0.0416128 0)
(0.00465475 0.0366337 0)
(0.0089624 0.0475838 0)
(0.00965124 0.0412926 0)
(0.0162529 0.0540249 0)
(0.0163753 0.0465828 0)
(0.0265848 0.0573706 0)
(0.0256342 0.0512988 0)
(0.0378822 0.0494343 0)
(0.0376707 0.050543 0)
(0.0461286 0.0225479 0)
(0.0483986 0.0360009 0)
(0.0461827 -0.0201076 0)
(0.05382 0.00373649 0)
(0.03528 -0.066706 0)
(0.0480278 -0.0379076 0)
(0.0135456 -0.120065 0)
(0.0321502 -0.0806038 0)
(-0.00846581 -0.206409 0)
(0.00662973 -0.138514 0)
(-0.0144896 -0.263976 0)
(-0.00286308 0.0297867 0)
(-0.00235669 0.0281791 0)
(-0.00465134 0.030843 0)
(-0.00487356 0.0311479 0)
(-0.00559496 0.0298764 0)
(-0.00587394 0.0302807 0)
(-0.00566359 0.0287987 0)
(-0.00588398 0.0288845 0)
(-0.00500073 0.0281125 0)
(-0.00516297 0.0276892 0)
(-0.0036509 0.0280252 0)
(-0.00380762 0.0269625 0)
(-0.00157656 0.0287016 0)
(-0.00175369 0.0268873 0)
(0.0013227 0.030286 0)
(0.0010865 0.0275826 0)
(0.0052249 0.0328539 0)
(0.00488856 0.0291429 0)
(0.0103676 0.0363134 0)
(0.00984698 0.031573 0)
(0.0170642 0.0402915 0)
(0.0161888 0.0346526 0)
(0.0257566 0.0438566 0)
(0.0241459 0.0378303 0)
(0.0367201 0.0444711 0)
(0.0339707 0.0398499 0)
(0.0481871 0.0371095 0)
(0.0454608 0.03774 0)
(0.05609 0.0171895 0)
(0.0555822 0.0266882 0)
(0.0556651 -0.0140635 0)
(0.0601642 0.0040401 0)
(0.0448981 -0.0518053 0)
(0.0544223 -0.0264992 0)
(0.0252344 -0.0990524 0)
(0.0412623 -0.0639189 0)
(0.000605981 -0.196081 0)
(0.018316 -0.115384 0)
(-0.00985671 -0.267807 0)
(-0.00436717 0.0295403 0)
(-0.00368106 0.0369105 0)
(-0.00609616 0.0305857 0)
(-0.00633816 0.0369812 0)
(-0.00616295 0.0292888 0)
(-0.00609303 0.0333504 0)
(-0.00538336 0.027775 0)
(-0.00492534 0.0299781 0)
(-0.00396986 0.0265392 0)
(-0.00324707 0.0275412 0)
(-0.00191041 0.0258246 0)
(-0.00094696 0.0258095 0)
(0.000909365 0.0257683 0)
(0.00206137 0.0247618 0)
(0.00465236 0.0264396 0)
(0.00584538 0.024417 0)
(0.00951063 0.027862 0)
(0.0105581 0.0247818 0)
(0.0156681 0.0299121 0)
(0.016399 0.0258214 0)
(0.0232705 0.0321913 0)
(0.0235501 0.0273576 0)
(0.03236 0.0338236 0)
(0.0320907 0.0289039 0)
(0.0427114 0.0331188 0)
(0.0418504 0.0294369 0)
(0.0528559 0.0273187 0)
(0.0522819 0.0272078 0)
(0.0596564 0.0135388 0)
(0.0611527 0.0197474 0)
(0.0589213 -0.00839558 0)
(0.0654364 0.00479462 0)
(0.0507865 -0.0386128 0)
(0.0593354 -0.0164069 0)
(0.034344 -0.0802508 0)
(0.0539128 -0.0487151 0)
(0.00785335 -0.187111 0)
(0.024692 -0.0923521 0)
(-0.00091136 -0.269764 0)
(-0.00565205 0.0443513 0)
(-0.00525682 0.0321744 0)
(-0.00633503 0.0397459 0)
(-0.00764446 0.0268726 0)
(-0.00485541 0.0340397 0)
(-0.00340151 0.0236106 0)
(-0.00278905 0.0297443 0)
(0.00148439 0.0224328 0)
(-0.000224177 0.0268115 0)
(0.00690273 0.021117 0)
(0.00302481 0.0247467 0)
(0.0125896 0.0196576 0)
(0.00699738 0.0234105 0)
(0.018471 0.0185332 0)
(0.0117511 0.0227593 0)
(0.0245944 0.0178753 0)
(0.0174464 0.0227412 0)
(0.0311124 0.0176326 0)
(0.0242809 0.0232669 0)
(0.0382571 0.0177615 0)
(0.0323703 0.0240702 0)
(0.0462323 0.0181976 0)
(0.0415811 0.0245172 0)
(0.0551423 0.0186971 0)
(0.0514208 0.0235259 0)
(0.0647396 0.018695 0)
(0.0605786 0.0196365 0)
(0.0745288 0.0172079 0)
(0.0669327 0.0110032 0)
(0.0825599 0.0131424 0)
(0.0658505 -0.00321674 0)
(0.0879231 0.00464627 0)
(0.0624617 -0.0265092 0)
(0.0813271 -0.00759737 0)
(0.0442608 -0.0608164 0)
(0.0861885 -0.031756 0)
(0.0159273 -0.175006 0)
(0.0285029 -0.0619542 0)
(0.0386987 -0.248343 0)
(-0.00724923 0.0146956 0)
(0.0173448 0.0555078 0)
(-0.00471094 0.0107373 0)
(0.0272104 0.0403773 0)
(0.0029383 0.0120037 0)
(0.0436347 0.0272907 0)
(0.0111762 0.0138055 0)
(0.0584834 0.0214002 0)
(0.0197165 0.0139631 0)
(0.0711455 0.0179362 0)
(0.0280358 0.013444 0)
(0.0823554 0.0154104 0)
(0.036068 0.012998 0)
(0.0927339 0.0136177 0)
(0.0439556 0.0127487 0)
(0.102531 0.0123732 0)
(0.051923 0.0126529 0)
(0.111932 0.0114818 0)
(0.0602085 0.0126921 0)
(0.121156 0.01084 0)
(0.0690043 0.0128244 0)
(0.130406 0.0103948 0)
(0.0783007 0.0128749 0)
(0.139824 0.0100491 0)
(0.0878476 0.0123771 0)
(0.149279 0.00964744 0)
(0.0965101 0.0107137 0)
(0.158594 0.00879504 0)
(0.10355 0.00678544 0)
(0.166079 0.00715784 0)
(0.1034 0.000265633 0)
(0.172869 0.00377916 0)
(0.105054 -0.0128442 0)
(0.166636 -0.000790907 0)
(0.0704305 -0.0328939 0)
(0.181804 -0.012672 0)
(0.0512743 -0.135292 0)
(0.0789268 -0.0201472 0)
(0.225266 -0.162645 0)
(0.0518044 0.0811895 0)
(0.075556 0.0569307 0)
(0.0991799 0.0366873 0)
(0.118453 0.0255309 0)
(0.133784 0.0193835 0)
(0.147054 0.0155841 0)
(0.159197 0.012993 0)
(0.170507 0.0111063 0)
(0.181165 0.0096689 0)
(0.191353 0.0085427 0)
(0.201225 0.00761951 0)
(0.210802 0.0068217 0)
(0.220026 0.00606543 0)
(0.228163 0.00523913 0)
(0.235397 0.00415156 0)
(0.236105 0.00272262 0)
(0.243386 -0.000618731 0)
(0.1903 7.4675e-05 0)
(0.252918 -0.0475004 0)
)
;

boundaryField
{
    movingWall
    {
        type            calculated;
        value           uniform (1 0 0);
    }
    fixedWalls
    {
        type            calculated;
        value           uniform (0 0 0);
    }
    frontAndBack
    {
        type            empty;
        value           nonuniform List<vector> 0();
    }
}


// ************************************************************************* //
