/*--------------------------------*- C++ -*----------------------------------*\
| =========                 |                                                 |
| \\      /  F ield         | OpenFOAM: The Open Source CFD Toolbox           |
|  \\    /   O peration     | Version:  2312                                  |
|   \\  /    A nd           | Website:  www.openfoam.com                      |
|    \\/     M anipulation  |                                                 |
\*---------------------------------------------------------------------------*/
FoamFile
{
    version     2.0;
    format      ascii;
    arch        "LSB;label=32;scalar=64";
    class       volScalarField;
    location    "1";
    object      totalCoeffP;
}
// * * * * * * * * * * * * * * * * * * * * * * * * * * * * * * * * * * * * * //

dimensions      [0 0 0 0 0 0 0];

internalField   nonuniform List<scalar> 
400
(
1.63727e-07
1.76402e-06
2.20672e-05
8.79496e-05
0.000196142
0.00034833
0.000545094
0.000786182
0.00107006
0.00139273
0.00174656
0.00212071
0.00250338
0.00286529
0.00318607
0.00344171
0.00361626
0.00370816
0.00373217
0.00370561
8.25608e-06
9.99394e-06
4.57051e-05
0.000125242
0.000246077
0.000409672
0.000616839
0.000866939
0.0011575
0.00148357
0.00183759
0.00220912
0.00258058
0.00293206
0.00324134
0.00348634
0.00365114
0.00373125
0.00373726
0.00368952
9.09564e-06
2.58577e-05
4.79804e-05
0.000110377
0.000235517
0.000401203
0.000608786
0.000858533
0.00114908
0.00147699
0.00183645
0.00221828
0.00260731
0.00298385
0.00332228
0.00359307
0.00376967
0.00383895
0.00381229
0.0037183
2.41241e-05
4.9926e-05
7.71608e-05
0.000109895
0.000165178
0.000328927
0.00053432
0.000783089
0.00107615
0.00141318
0.00179184
0.00220605
0.00264296
0.00308202
0.0034887
0.00381541
0.00401142
0.00405043
0.00395884
0.00378543
4.78997e-05
8.34904e-05
0.000114978
0.00015111
0.000193681
0.000243769
0.000399815
0.000646633
0.000944083
0.00129633
0.0017064
0.00217339
0.00268835
0.00323172
0.00375618
0.00418231
0.00440956
0.0043854
0.00417343
0.0038709
8.03191e-05
0.000127169
0.000162553
0.000201884
0.000248
0.000302457
0.00036677
0.000450631
0.000750266
0.00111886
0.00156764
0.00210507
0.00273177
0.00343286
0.00415687
0.00476866
0.00505422
0.00489764
0.00444737
0.00392311
0.000120704
0.000181018
0.000220498
0.00026312
0.000313369
0.000373651
0.000446744
0.000535873
0.000644792
0.000863702
0.00135067
0.00197135
0.00274786
0.00369205
0.00477952
0.00577811
0.0062074
0.00573143
0.00472952
0.00380738
0.000168052
0.000244472
0.000288614
0.000334761
0.000389687
0.000457147
0.000541754
0.000649664
0.00078919
0.00097118
0.00120836
0.00172384
0.00269519
0.00402424
0.00581167
0.00772513
0.00868089
0.00753806
0.00499278
0.00329614
0.000221146
0.00031641
0.000365825
0.000415544
0.000475251
0.000550599
0.000648719
0.000779735
0.000958352
0.00120569
0.00155084
0.00203971
0.00278285
0.00437731
0.00726347
0.0109241
0.0135776
0.0125098
0.00691185
0.00260869
0.000278686
0.000395263
0.000450187
0.00050283
0.000566347
0.000648775
0.000760326
0.000915893
0.00113794
0.00146142
0.00194204
0.00268379
0.00399935
0.00646901
0.0100868
0.0140204
0.0187539
0.020819
0.0145952
0.00307058
0.000339489
0.000479261
0.000539025
0.000592592
0.000657067
0.000743162
0.000864287
0.00103995
0.00129979
0.00169201
0.00230235
0.0033008
0.00511534
0.0080221
0.01082
0.0139387
0.0213171
0.0312324
0.0292369
0.00837697
0.000403529
0.000566895
0.000629309
0.000679709
0.000739665
0.000822596
0.000944547
0.00112827
0.00140759
0.00183741
0.00251955
0.00365522
0.00549489
0.00719918
0.00660663
0.00602692
0.0126928
0.02869
0.0440744
0.0230437
0.000470982
0.000657635
0.00071818
0.000758599
0.000805646
0.000875222
0.000985036
0.00115902
0.00143165
0.00185582
0.00252603
0.00361604
0.00515615
0.00576462
0.00324471
0.000457729
0.00459143
0.0173624
0.04352
0.0447356
0.000550847
0.000754466
0.000804072
0.000824186
0.000847226
0.00089127
0.000974537
0.00112013
0.00135999
0.00173772
0.00232729
0.00324124
0.00449716
0.00499149
0.0029109
0.000569625
0.00340116
0.011113
0.0319824
0.0624455
0.00063237
0.000855583
0.000883265
0.000870272
0.00085782
0.000865257
0.000910103
0.001013
0.00120191
0.0015151
0.00200277
0.00272461
0.0036994
0.00436854
0.00357609
0.00242106
0.00380731
0.00874534
0.0227029
0.0690002
0.000808002
0.000989228
0.000957893
0.000890755
0.000832633
0.000798594
0.000800361
0.00085578
0.000989953
0.00123803
0.0016387
0.00222751
0.00299893
0.00372804
0.00381237
0.00344533
0.0037978
0.0065205
0.0161454
0.070803
0.00079195
0.00100042
0.000945556
0.000847425
0.000755105
0.000687065
0.000657037
0.000677895
0.000773099
0.00097691
0.00132968
0.00186333
0.00256788
0.00333645
0.00383009
0.00383199
0.00359322
0.00521419
0.0114411
0.0728519
0.00212024
0.00188508
0.00137475
0.00100491
0.000788475
0.000656482
0.000594561
0.000609354
0.000716211
0.000946252
0.00134362
0.00194926
0.00275787
0.0036892
0.0044727
0.00480541
0.00405235
0.00559619
0.00713157
0.0727823
0.000379817
0.000189156
0.000113368
0.000227058
0.000441208
0.000762318
0.00120458
0.00176646
0.00245373
0.00329102
0.00431742
0.00557602
0.00706266
0.00872455
0.0101662
0.0114063
0.0100276
0.0125985
0.00366831
0.0837466
0.010218
0.0119552
0.0111796
0.0129835
0.016552
0.0201035
0.0237157
0.0273799
0.0310735
0.0348096
0.0386191
0.042528
0.0464846
0.0504527
0.0537452
0.0571403
0.0543839
0.0664884
0.0225587
0.266314
)
;

boundaryField
{
    movingWall
    {
        type            calculated;
        value           nonuniform List<scalar> 
20
(
1
1.00312
1.00145
1
1
1
1
1
1
1
1
1
1
1
1
1
1
1.00218
1.00641
1.11315
)
;
    }
    fixedWalls
    {
        type            calculated;
        value           nonuniform List<scalar> 
60
(
9.08467e-08
6.48512e-06
0
0
0
0
0
0
0
0
0
0
0
0
0
0
0
0
0
0
0.00370516
0.0036828
0.00368793
0.00370862
0.00372374
0.00369415
0.00353584
0.00303019
0.00226866
0.00209585
0.001431
0
0
0
0
0
0
0
0.0270901
0.113148
9.08467e-08
0
1.2938e-05
6.38809e-05
0.000148986
0.000270716
0.000431105
0.000631975
0.000874726
0.00115924
0.00148297
0.0018433
0.0022296
0.00261973
0.00298914
0.00330561
0.0035396
0.00367642
0.00372511
0.00370516
)
;
    }
    frontAndBack
    {
        type            empty;
    }
}


// ************************************************************************* //
