/*--------------------------------*- C++ -*----------------------------------*\
| =========                 |                                                 |
| \\      /  F ield         | OpenFOAM: The Open Source CFD Toolbox           |
|  \\    /   O peration     | Version:  2312                                  |
|   \\  /    A nd           | Website:  www.openfoam.com                      |
|    \\/     M anipulation  |                                                 |
\*---------------------------------------------------------------------------*/
FoamFile
{
    version     2.0;
    format      ascii;
    arch        "LSB;label=32;scalar=64";
    class       volScalarField;
    location    "1";
    object      totalP;
}
// * * * * * * * * * * * * * * * * * * * * * * * * * * * * * * * * * * * * * //

dimensions      [1 -1 -2 0 0 0 0];

internalField   nonuniform List<scalar> 
400
(
1
1
1.00001
1.00004
1.0001
1.00017
1.00027
1.00039
1.00054
1.0007
1.00087
1.00106
1.00125
1.00143
1.00159
1.00172
1.00181
1.00185
1.00187
1.00185
1
1
1.00002
1.00006
1.00012
1.0002
1.00031
1.00043
1.00058
1.00074
1.00092
1.0011
1.00129
1.00147
1.00162
1.00174
1.00183
1.00187
1.00187
1.00184
1
1.00001
1.00002
1.00006
1.00012
1.0002
1.0003
1.00043
1.00057
1.00074
1.00092
1.00111
1.0013
1.00149
1.00166
1.0018
1.00188
1.00192
1.00191
1.00186
1.00001
1.00002
1.00004
1.00005
1.00008
1.00016
1.00027
1.00039
1.00054
1.00071
1.0009
1.0011
1.00132
1.00154
1.00174
1.00191
1.00201
1.00203
1.00198
1.00189
1.00002
1.00004
1.00006
1.00008
1.0001
1.00012
1.0002
1.00032
1.00047
1.00065
1.00085
1.00109
1.00134
1.00162
1.00188
1.00209
1.0022
1.00219
1.00209
1.00194
1.00004
1.00006
1.00008
1.0001
1.00012
1.00015
1.00018
1.00023
1.00038
1.00056
1.00078
1.00105
1.00137
1.00172
1.00208
1.00238
1.00253
1.00245
1.00222
1.00196
1.00006
1.00009
1.00011
1.00013
1.00016
1.00019
1.00022
1.00027
1.00032
1.00043
1.00068
1.00099
1.00137
1.00185
1.00239
1.00289
1.0031
1.00287
1.00236
1.0019
1.00008
1.00012
1.00014
1.00017
1.00019
1.00023
1.00027
1.00032
1.00039
1.00049
1.0006
1.00086
1.00135
1.00201
1.00291
1.00386
1.00434
1.00377
1.0025
1.00165
1.00011
1.00016
1.00018
1.00021
1.00024
1.00028
1.00032
1.00039
1.00048
1.0006
1.00078
1.00102
1.00139
1.00219
1.00363
1.00546
1.00679
1.00625
1.00346
1.0013
1.00014
1.0002
1.00023
1.00025
1.00028
1.00032
1.00038
1.00046
1.00057
1.00073
1.00097
1.00134
1.002
1.00323
1.00504
1.00701
1.00938
1.01041
1.0073
1.00154
1.00017
1.00024
1.00027
1.0003
1.00033
1.00037
1.00043
1.00052
1.00065
1.00085
1.00115
1.00165
1.00256
1.00401
1.00541
1.00697
1.01066
1.01562
1.01462
1.00419
1.0002
1.00028
1.00031
1.00034
1.00037
1.00041
1.00047
1.00056
1.0007
1.00092
1.00126
1.00183
1.00275
1.0036
1.0033
1.00301
1.00635
1.01434
1.02204
1.01152
1.00024
1.00033
1.00036
1.00038
1.0004
1.00044
1.00049
1.00058
1.00072
1.00093
1.00126
1.00181
1.00258
1.00288
1.00162
1.00023
1.0023
1.00868
1.02176
1.02237
1.00028
1.00038
1.0004
1.00041
1.00042
1.00045
1.00049
1.00056
1.00068
1.00087
1.00116
1.00162
1.00225
1.0025
1.00146
1.00028
1.0017
1.00556
1.01599
1.03122
1.00032
1.00043
1.00044
1.00044
1.00043
1.00043
1.00046
1.00051
1.0006
1.00076
1.001
1.00136
1.00185
1.00218
1.00179
1.00121
1.0019
1.00437
1.01135
1.0345
1.0004
1.00049
1.00048
1.00045
1.00042
1.0004
1.0004
1.00043
1.00049
1.00062
1.00082
1.00111
1.0015
1.00186
1.00191
1.00172
1.0019
1.00326
1.00807
1.0354
1.0004
1.0005
1.00047
1.00042
1.00038
1.00034
1.00033
1.00034
1.00039
1.00049
1.00066
1.00093
1.00128
1.00167
1.00192
1.00192
1.0018
1.00261
1.00572
1.03643
1.00106
1.00094
1.00069
1.0005
1.00039
1.00033
1.0003
1.0003
1.00036
1.00047
1.00067
1.00097
1.00138
1.00184
1.00224
1.0024
1.00203
1.0028
1.00357
1.03639
1.00019
1.00009
1.00006
1.00011
1.00022
1.00038
1.0006
1.00088
1.00123
1.00165
1.00216
1.00279
1.00353
1.00436
1.00508
1.0057
1.00501
1.0063
1.00183
1.04187
1.00511
1.00598
1.00559
1.00649
1.00828
1.01005
1.01186
1.01369
1.01554
1.0174
1.01931
1.02126
1.02324
1.02523
1.02687
1.02857
1.02719
1.03324
1.01128
1.13316
)
;

boundaryField
{
    movingWall
    {
        type            calculated;
        value           nonuniform List<scalar> 
20
(
1.5
1.50156
1.50073
1.5
1.5
1.5
1.5
1.5
1.5
1.5
1.5
1.5
1.5
1.5
1.5
1.5
1.5
1.50109
1.50321
1.55657
)
;
    }
    fixedWalls
    {
        type            calculated;
        value           nonuniform List<scalar> 
60
(
1
1
1
1
1
1
1
1
1
1
1
1
1
1
1
1
1
1
1
1
1.00185
1.00184
1.00184
1.00185
1.00186
1.00185
1.00177
1.00152
1.00113
1.00105
1.00072
1
1
1
1
1
1
1
1.01355
1.05657
1
1
1.00001
1.00003
1.00007
1.00014
1.00022
1.00032
1.00044
1.00058
1.00074
1.00092
1.00111
1.00131
1.00149
1.00165
1.00177
1.00184
1.00186
1.00185
)
;
    }
    frontAndBack
    {
        type            empty;
    }
}


// ************************************************************************* //
