/*--------------------------------*- C++ -*----------------------------------*\
| =========                 |                                                 |
| \\      /  F ield         | OpenFOAM: The Open Source CFD Toolbox           |
|  \\    /   O peration     | Version:  2312                                  |
|   \\  /    A nd           | Website:  www.openfoam.com                      |
|    \\/     M anipulation  |                                                 |
\*---------------------------------------------------------------------------*/
FoamFile
{
    version     2.0;
    format      ascii;
    arch        "LSB;label=32;scalar=64";
    class       volSymmTensorField;
    location    "1";
    object      turbulenceProperties:R;
}
// * * * * * * * * * * * * * * * * * * * * * * * * * * * * * * * * * * * * * //

dimensions      [0 2 -2 0 0 0 0];

internalField   nonuniform List<symmTensor> 
400
(
(9.75924e-05 -3.9364e-09 -0 9.39903e-05 -0 9.57958e-05)
(0.00013829 2.0679e-06 -0 0.000129479 -0 0.000134062)
(0.000174154 5.90381e-06 -0 0.000161036 -0 0.00016773)
(0.00019935 1.04405e-05 -0 0.000184139 -0 0.000191942)
(0.000217264 1.51998e-05 -0 0.000201199 -0 0.000209436)
(0.000230593 1.99942e-05 -0 0.000214475 -0 0.00022274)
(0.000241119 2.4719e-05 -0 0.000225507 -0 0.000233515)
(0.000249802 2.92647e-05 -0 0.000235238 -0 0.000242715)
(0.00025698 3.34831e-05 -0 0.000244124 -0 0.000250727)
(0.000262537 3.71628e-05 -0 0.000252268 -0 0.000257529)
(0.000265889 3.99255e-05 -0 0.000259482 -0 0.000262805)
(0.000265958 4.13669e-05 -0 0.000264375 -0 0.000265258)
(0.000263426 4.13356e-05 -0 0.000267971 -0 0.000265661)
(0.000256575 3.91229e-05 -0 0.000268131 -0 0.000262253)
(0.00024431 3.46539e-05 -0 0.000262611 -0 0.000253229)
(0.000226057 2.8046e-05 -0 0.000249599 -0 0.000237477)
(0.000201299 1.99269e-05 -0 0.000226952 -0 0.000213692)
(0.000169249 1.14546e-05 -0 0.000192744 -0 0.000180671)
(0.000129252 4.20005e-06 -0 0.000145475 -0 0.000137074)
(9.49013e-05 -2.46258e-08 -0 0.000102526 -0 9.87502e-05)
(0.000138261 -2.08218e-06 -0 0.000129542 -0 0.000133745)
(0.000259221 -2.83367e-08 -0 0.000222677 -0 0.000240984)
(0.000334801 4.13969e-06 -0 0.00027848 -0 0.000306046)
(0.000381317 7.87469e-06 -0 0.000313811 -0 0.000346849)
(0.000410036 1.07043e-05 -0 0.000336758 -0 0.00037267)
(0.000427578 1.31372e-05 -0 0.000352521 -0 0.000389345)
(0.000438349 1.56021e-05 -0 0.000364732 -0 0.000400884)
(0.000445126 1.83588e-05 -0 0.000375952 -0 0.000409965)
(0.000449358 2.15842e-05 -0 0.000387915 -0 0.000418174)
(0.000451363 2.53321e-05 -0 0.000401695 -0 0.000426222)
(0.000450413 2.94576e-05 -0 0.000417754 -0 0.000434067)
(0.000444323 3.39081e-05 -0 0.000435554 -0 0.000440023)
(0.000431949 3.72112e-05 -0 0.00045263 -0 0.000442798)
(0.00041349 3.91243e-05 -0 0.000468033 -0 0.00044157)
(0.000387752 3.78751e-05 -0 0.000475533 -0 0.00043265)
(0.00035525 3.24823e-05 -0 0.000468079 -0 0.00041275)
(0.000316281 2.2848e-05 -0 0.000436767 -0 0.000377477)
(0.000268467 1.08611e-05 -0 0.000373695 -0 0.000321887)
(0.000205885 3.92329e-07 -0 0.000268123 -0 0.000237038)
(0.000131009 -4.233e-06 -0 0.000147238 -0 0.000139507)
(0.000179709 -5.95168e-06 -0 0.000166393 -0 0.000172899)
(0.000352998 -4.47245e-06 -0 0.000291121 -0 0.000322718)
(0.000455635 2.33564e-07 -0 0.000360309 -0 0.0004079)
(0.000518725 4.73487e-06 -0 0.000403286 -0 0.000460635)
(0.000557863 8.34027e-06 -0 0.000430539 -0 0.000493823)
(0.000581473 1.15882e-05 -0 0.000448565 -0 0.000514666)
(0.000595015 1.52945e-05 -0 0.000462026 -0 0.000528191)
(0.000601942 2.01623e-05 -0 0.000474308 -0 0.000537848)
(0.000604072 2.67464e-05 -0 0.000487786 -0 0.000545729)
(0.000601681 3.53235e-05 -0 0.000504094 -0 0.000552812)
(0.000593735 4.57153e-05 -0 0.000524167 -0 0.000559096)
(0.00057775 5.71102e-05 -0 0.000547596 -0 0.000562987)
(0.000553314 6.76232e-05 -0 0.000573917 -0 0.000564114)
(0.000518944 7.39316e-05 -0 0.000598926 -0 0.000559612)
(0.000475108 7.18341e-05 -0 0.000614965 -0 0.000545693)
(0.00042508 5.84765e-05 -0 0.000610299 -0 0.000518097)
(0.00037293 3.56535e-05 -0 0.000570811 -0 0.000471782)
(0.000317454 1.12285e-05 -0 0.000485857 -0 0.00040134)
(0.000249265 -5.34062e-06 -0 0.000344834 -0 0.000296225)
(0.000164405 -1.12844e-05 -0 0.000187929 -0 0.00017651)
(0.000210984 -1.06701e-05 -0 0.000195057 -0 0.000202786)
(0.000416418 -8.66208e-06 -0 0.000338227 -0 0.00037819)
(0.000537773 -3.77537e-06 -0 0.000415567 -0 0.000476911)
(0.000612727 1.39547e-06 -0 0.000463623 -0 0.000538051)
(0.000660105 6.41831e-06 -0 0.000493786 -0 0.000576849)
(0.000689685 1.16766e-05 -0 0.000512899 -0 0.000601251)
(0.000707452 1.81419e-05 -0 0.000526179 -0 0.000616791)
(0.000717157 2.68956e-05 -0 0.000537561 -0 0.000627363)
(0.000720691 3.89238e-05 -0 0.000549987 -0 0.0006354)
(0.000718136 5.48628e-05 -0 0.000565685 -0 0.000642075)
(0.000707725 7.45636e-05 -0 0.000586328 -0 0.000647337)
(0.000686237 9.64354e-05 -0 0.000612721 -0 0.000649886)
(0.000651916 0.000117246 -0 0.000645487 -0 0.000649227)
(0.000601348 0.000130039 -0 0.000680386 -0 0.000641515)
(0.000536118 0.000126172 -0 0.000708308 -0 0.000622641)
(0.000464125 9.96626e-05 -0 0.000711523 -0 0.000587524)
(0.000396949 5.57433e-05 -0 0.000667409 -0 0.000530947)
(0.000336654 1.26121e-05 -0 0.000561835 -0 0.000448226)
(0.000270174 -1.19882e-05 -0 0.0003893 -0 0.000328749)
(0.000190019 -2.00612e-05 -0 0.000217483 -0 0.000204278)
(0.000234679 -1.57832e-05 -0 0.000217301 -0 0.000225738)
(0.000460554 -1.18667e-05 -0 0.000371344 -0 0.000416946)
(0.000596272 -6.89434e-06 -0 0.000453968 -0 0.000525497)
(0.00068074 -1.72968e-06 -0 0.000505499 -0 0.000593043)
(0.000735182 4.09193e-06 -0 0.000537526 -0 0.0006363)
(0.000770571 1.09942e-05 -0 0.000556776 -0 0.000663708)
(0.00079363 2.00779e-05 -0 0.000568538 -0 0.000681143)
(0.000808487 3.28082e-05 -0 0.000577034 -0 0.000692835)
(0.000817139 5.07625e-05 -0 0.000585648 -0 0.000701511)
(0.000819273 7.52581e-05 -0 0.000597383 -0 0.000708546)
(0.000811924 0.000106611 -0 0.000615207 -0 0.000713948)
(0.000789978 0.000142923 -0 0.000642171 -0 0.000716599)
(0.000748194 0.000179007 -0 0.00068131 -0 0.000715491)
(0.000679936 0.000203645 -0 0.000730548 -0 0.000706468)
(0.000586552 0.000200319 -0 0.000779367 -0 0.000684085)
(0.000484131 0.000155873 -0 0.000799677 -0 0.000641622)
(0.000397902 8.08541e-05 -0 0.000753706 -0 0.000573657)
(0.000335574 1.04647e-05 -0 0.000622328 -0 0.000477766)
(0.00027758 -2.29801e-05 -0 0.000414395 -0 0.000345228)
(0.000211368 -3.05107e-05 -0 0.000239527 -0 0.000226142)
(0.000253088 -2.10988e-05 -0 0.000235017 -0 0.000243791)
(0.000491114 -1.45027e-05 -0 0.000395014 -0 0.000444113)
(0.000637988 -9.42062e-06 -0 0.000480986 -0 0.000559889)
(0.000730451 -4.93968e-06 -0 0.000534666 -0 0.000632423)
(0.00079136 5.82245e-07 -0 0.000567524 -0 0.000679268)
(0.000832824 7.86441e-06 -0 0.000585863 -0 0.000709256)
(0.000862506 1.82453e-05 -0 0.000594716 -0 0.000728543)
(0.000885198 3.36908e-05 -0 0.000598291 -0 0.000741684)
(0.00090328 5.66549e-05 -0 0.000600233 -0 0.000751741)
(0.000916207 8.97208e-05 -0 0.000604389 -0 0.00076041)
(0.00091981 0.000134626 -0 0.000615785 -0 0.000768129)
(0.000904918 0.000189874 -0 0.000640601 -0 0.000773406)
(0.000861331 0.000248826 -0 0.000686627 -0 0.000775196)
(0.000775781 0.000294449 -0 0.000756761 -0 0.000768862)
(0.000647561 0.000296138 -0 0.000838225 -0 0.000746571)
(0.000505015 0.000230272 -0 0.000887234 -0 0.000697458)
(0.00039539 0.000114124 -0 0.000842433 -0 0.000616588)
(0.00033146 6.408e-06 -0 0.00067951 -0 0.000505057)
(0.000284829 -4.12523e-05 -0 0.000427553 -0 0.000357571)
(0.000234382 -4.30621e-05 -0 0.000255382 -0 0.000246003)
(0.000267913 -2.65213e-05 -0 0.000249627 -0 0.000258503)
(0.000512085 -1.70438e-05 -0 0.000412258 -0 0.000463248)
(0.00066725 -1.19093e-05 -0 0.000500364 -0 0.000584235)
(0.000766247 -8.75962e-06 -0 0.000555267 -0 0.000660615)
(0.000832933 -4.83587e-06 -0 0.000588201 -0 0.000710324)
(0.00088054 9.69706e-07 -0 0.000604873 -0 0.000742521)
(0.00091797 1.03059e-05 -0 0.000609763 -0 0.000763669)
(0.000951226 2.57487e-05 -0 0.000606695 -0 0.000778733)
(0.0009838 5.09586e-05 -0 0.000599222 -0 0.000791275)
(0.0010156 9.0575e-05 -0 0.000591859 -0 0.000803596)
(0.00104108 0.000148949 -0 0.000591991 -0 0.000816688)
(0.00104806 0.000227002 -0 0.000610895 -0 0.00083004)
(0.00101437 0.000316032 -0 0.000661141 -0 0.000839355)
(0.000920535 0.000393377 -0 0.000754623 -0 0.000842535)
(0.000760503 0.000407619 -0 0.000872713 -0 0.000827477)
(0.000582972 0.00032218 -0 0.000946908 -0 0.000774571)
(0.000445402 0.000179763 -0 0.000919313 -0 0.00068606)
(0.000361993 3.41555e-05 -0 0.000753267 -0 0.000559022)
(0.000304577 -4.85457e-05 -0 0.000458166 -0 0.000382936)
(0.000264329 -5.56017e-05 -0 0.000266815 -0 0.0002657)
(0.000280377 -3.1979e-05 -0 0.000262215 -0 0.000271028)
(0.000526252 -1.96923e-05 -0 0.000425362 -0 0.000476886)
(0.000687002 -1.46506e-05 -0 0.000515014 -0 0.000601453)
(0.000790744 -1.34643e-05 -0 0.00057081 -0 0.000680654)
(0.000861994 -1.25422e-05 -0 0.000603658 -0 0.000732548)
(0.000915149 -1.05002e-05 -0 0.00061857 -0 0.000766607)
(0.000960732 -5.48541e-06 -0 0.00061924 -0 0.000789678)
(0.00100669 5.58397e-06 -0 0.000608738 -0 0.000807295)
(0.00105878 2.76169e-05 -0 0.000590009 -0 0.00082382)
(0.00111875 6.78563e-05 -0 0.000567684 -0 0.000842596)
(0.00118084 0.000134449 -0 0.000551219 -0 0.000865665)
(0.00122924 0.000231229 -0 0.000556354 -0 0.000892633)
(0.00123454 0.000351193 -0 0.000601934 -0 0.000919368)
(0.00115169 0.000456524 -0 0.000703118 -0 0.000935752)
(0.00098087 0.000483684 -0 0.000845179 -0 0.000930282)
(0.000776771 0.000389788 -0 0.000951324 -0 0.000876222)
(0.000612693 0.000274518 -0 0.00102444 -0 0.000821483)
(0.000483907 0.000108536 -0 0.000954583 -0 0.000724597)
(0.000364437 -2.32288e-05 -0 0.000618128 -0 0.000491306)
(0.000303238 -6.78772e-05 -0 0.000303188 -0 0.000300375)
(0.000291368 -3.74099e-05 -0 0.000273582 -0 0.000282211)
(0.000535654 -2.24122e-05 -0 0.000435989 -0 0.000486892)
(0.00069934 -1.75298e-05 -0 0.000527129 -0 0.000613691)
(0.000805551 -1.88003e-05 -0 0.000584122 -0 0.000694746)
(0.000879308 -2.22177e-05 -0 0.00061751 -0 0.000748122)
(0.000936259 -2.64129e-05 -0 0.000631614 -0 0.000783646)
(0.000988853 -2.96845e-05 -0 0.000629265 -0 0.000808668)
(0.00104767 -2.89836e-05 -0 0.000612583 -0 0.00082952)
(0.00112196 -1.8833e-05 -0 0.000583475 -0 0.000851686)
(0.00121712 1.00832e-05 -0 0.000545887 -0 0.000880059)
(0.00132913 6.90629e-05 -0 0.000509866 -0 0.000918605)
(0.00144289 0.000162762 -0 0.000492063 -0 0.000967382)
(0.00151378 0.000288979 -0 0.000516879 -0 0.00101618)
(0.00144702 0.000405266 -0 0.000619477 -0 0.00103642)
(0.00125002 0.00044315 -0 0.000800166 -0 0.00102268)
(0.00105167 0.00040796 -0 0.00101781 -0 0.00102801)
(0.00091919 0.000385693 -0 0.00130761 -0 0.00110329)
(0.000748371 0.000230303 -0 0.0014761 -0 0.00110687)
(0.000547324 -6.16951e-07 -0 0.00114927 -0 0.000858973)
(0.000381519 -9.47216e-05 -0 0.000480763 -0 0.000437092)
(0.000301545 -4.27591e-05 -0 0.000284304 -0 0.000292671)
(0.000541851 -2.49796e-05 -0 0.000445284 -0 0.00049463)
(0.000705823 -2.0021e-05 -0 0.000538264 -0 0.00062252)
(0.00081166 -2.38764e-05 -0 0.000597349 -0 0.000704467)
(0.00088485 -3.25846e-05 -0 0.000632758 -0 0.000758548)
(0.000942273 -4.51595e-05 -0 0.00064829 -0 0.000795014)
(0.000998292 -6.05987e-05 -0 0.000646185 -0 0.000821859)
(0.0010662 -7.68412e-05 -0 0.000627968 -0 0.000846411)
(0.00115915 -8.95217e-05 -0 0.00059483 -0 0.00087547)
(0.00128672 -9.0152e-05 -0 0.000550138 -0 0.00091577)
(0.00144642 -6.86899e-05 -0 0.00050413 -0 0.000974459)
(0.00163164 -2.01718e-05 -0 0.000469709 -0 0.00104848)
(0.00174187 7.69342e-05 -0 0.000481832 -0 0.00109703)
(0.00163692 0.00021347 -0 0.00059995 -0 0.00109823)
(0.00139392 0.000317992 -0 0.000795258 -0 0.00108068)
(0.0012306 0.000395513 -0 0.00105945 -0 0.00112684)
(0.00114031 0.000417778 -0 0.00144863 -0 0.00127062)
(0.00100625 0.000255584 -0 0.00181743 -0 0.0013876)
(0.000864346 -5.33211e-05 -0 0.00206326 -0 0.00146202)
(0.000615196 -0.000191456 -0 0.00114099 -0 0.000887678)
(0.00031146 -4.79809e-05 -0 0.000294761 -0 0.000302881)
(0.000546136 -2.70342e-05 -0 0.000453928 -0 0.000501097)
(0.000707728 -2.12106e-05 -0 0.000549351 -0 0.000629058)
(0.000809823 -2.7159e-05 -0 0.000611889 -0 0.000710893)
(0.000878414 -4.13106e-05 -0 0.000651506 -0 0.000764785)
(0.00093142 -6.32825e-05 -0 0.000671835 -0 0.000801492)
(0.000984525 -9.3167e-05 -0 0.00067528 -0 0.000829752)
(0.00105264 -0.0001307 -0 0.000663943 -0 0.000857991)
(0.00115099 -0.00017424 -0 0.000639973 -0 0.000894355)
(0.00129023 -0.000219296 -0 0.000608346 -0 0.000947369)
(0.00146413 -0.000258852 -0 0.000581893 -0 0.00102633)
(0.00165755 -0.000271855 -0 0.000568082 -0 0.00111503)
(0.00172408 -0.000185403 -0 0.000583209 -0 0.00113604)
(0.00154502 -1.34117e-05 -0 0.000652397 -0 0.00107235)
(0.00134069 0.000143846 -0 0.0007696 -0 0.00104039)
(0.00122183 0.000248727 -0 0.000959773 -0 0.00109243)
(0.00118121 0.000271556 -0 0.00123108 -0 0.00120645)
(0.00122439 0.000189623 -0 0.00173428 -0 0.0014676)
(0.00120898 -0.000119493 -0 0.00241648 -0 0.00176034)
(0.00105943 -0.000560785 -0 0.002402 -0 0.00172631)
(0.000321675 -5.30828e-05 -0 0.000305306 -0 0.000313268)
(0.000549683 -2.79482e-05 -0 0.000462194 -0 0.000507018)
(0.000706279 -1.98611e-05 -0 0.000560721 -0 0.000634051)
(0.000800893 -2.66561e-05 -0 0.000628307 -0 0.000714716)
(0.00086033 -4.53199e-05 -0 0.000674524 -0 0.000767378)
(0.000903223 -7.58422e-05 -0 0.000703321 -0 0.000803369)
(0.000945663 -0.00011921 -0 0.000718286 -0 0.000832257)
(0.00100231 -0.000176834 -0 0.000723549 -0 0.000863445)
(0.00108739 -0.000249645 -0 0.000723993 -0 0.000906226)
(0.00120927 -0.000336387 -0 0.000727649 -0 0.000969869)
(0.00135803 -0.000430011 -0 0.000748486 -0 0.00106227)
(0.00148339 -0.000478295 -0 0.000778969 -0 0.00114439)
(0.00150331 -0.0003884 -0 0.000786639 -0 0.00113601)
(0.00131824 -0.000181825 -0 0.000770102 -0 0.00102593)
(0.0011061 -1.01523e-05 -0 0.00075553 -0 0.000938136)
(0.000998155 8.72953e-05 -0 0.000768887 -0 0.000916883)
(0.00102702 0.000126058 -0 0.000832074 -0 0.000961288)
(0.00129022 0.000126933 -0 0.00122322 -0 0.00128672)
(0.00159139 -9.61461e-05 -0 0.00226974 -0 0.00190959)
(0.00160913 -0.00114805 -0 0.00335966 -0 0.00245848)
(0.000332803 -5.80842e-05 -0 0.000315866 -0 0.000324208)
(0.000553819 -2.7245e-05 -0 0.000469729 -0 0.000513047)
(0.000702621 -1.46803e-05 -0 0.00057213 -0 0.000638072)
(0.000785965 -2.04798e-05 -0 0.0006463 -0 0.000716363)
(0.000832246 -4.18027e-05 -0 0.00070121 -0 0.000766808)
(0.000860923 -7.82008e-05 -0 0.000741721 -0 0.000801631)
(0.00088667 -0.000130677 -0 0.000772638 -0 0.000830323)
(0.000922065 -0.000201138 -0 0.000800735 -0 0.000862637)
(0.000978495 -0.000291205 -0 0.000834626 -0 0.000908701)
(0.00106203 -0.000400624 -0 0.000885867 -0 0.0009778)
(0.00116018 -0.000519818 -0 0.000965911 -0 0.00107345)
(0.00121463 -0.000577085 -0 0.00105259 -0 0.0011501)
(0.00118202 -0.000467327 -0 0.00106846 -0 0.001128)
(0.00102077 -0.000242366 -0 0.000926631 -0 0.000963121)
(0.000839533 -4.95358e-05 -0 0.000767456 -0 0.0008213)
(0.000776597 5.14617e-05 -0 0.000692806 -0 0.000770346)
(0.000925323 9.85925e-05 -0 0.000639419 -0 0.000815124)
(0.00137479 0.000160114 -0 0.00084922 -0 0.00114357)
(0.00191674 7.60843e-05 -0 0.00180046 -0 0.00191032)
(0.00215659 -0.00156479 -0 0.00358509 -0 0.00283067)
(0.000345964 -6.33427e-05 -0 0.000327891 -0 0.000336517)
(0.000559033 -2.31737e-05 -0 0.000476983 -0 0.000519016)
(0.000697313 -4.09776e-06 -0 0.000583682 -0 0.00064087)
(0.000765873 -7.4044e-06 -0 0.000665618 -0 0.000715735)
(0.000797067 -2.96479e-05 -0 0.000730362 -0 0.000763722)
(0.000809323 -6.81243e-05 -0 0.000782939 -0 0.000796391)
(0.000816308 -0.000123202 -0 0.000830554 -0 0.000824074)
(0.000828184 -0.000196215 -0 0.000882894 -0 0.000856669)
(0.000852334 -0.000287273 -0 0.000950976 -0 0.000903705)
(0.000892194 -0.000393804 -0 0.00104605 -0 0.000973096)
(0.000939153 -0.000500785 -0 0.00117632 -0 0.00106413)
(0.000951335 -0.000551522 -0 0.001318 -0 0.00114329)
(0.000900805 -0.000448377 -0 0.00136239 -0 0.0011357)
(0.000816419 -0.000215229 -0 0.00117678 -0 0.000981123)
(0.000705397 7.79894e-06 -0 0.000893936 -0 0.00080063)
(0.000694626 0.000131341 -0 0.000681669 -0 0.00070675)
(0.000909512 0.000174623 -0 0.000594819 -0 0.000764074)
(0.00142594 0.000268799 -0 0.000706349 -0 0.00104404)
(0.00213092 0.000336377 -0 0.0015004 -0 0.00188394)
(0.00273671 -0.00171387 -0 0.00351982 -0 0.00310587)
(0.000361162 -6.83476e-05 -0 0.000336964 -0 0.000349561)
(0.000567246 -1.79732e-05 -0 0.00048079 -0 0.000526521)
(0.000689683 1.06972e-05 -0 0.000594622 -0 0.000642958)
(0.000740638 1.03421e-05 -0 0.000686183 -0 0.000713059)
(0.00075622 -1.12877e-05 -0 0.000758851 -0 0.000757212)
(0.000754511 -4.81938e-05 -0 0.00081975 -0 0.000787234)
(0.00074571 -9.91419e-05 -0 0.000879745 -0 0.000813279)
(0.000738253 -0.000163945 -0 0.000949927 -0 0.000844476)
(0.000737083 -0.000242836 -0 0.00104303 -0 0.000890574)
(0.000744516 -0.000330592 -0 0.00116858 -0 0.000958656)
(0.00075592 -0.000410967 -0 0.00133068 -0 0.00104557)
(0.000751081 -0.000442977 -0 0.00150598 -0 0.00112846)
(0.000710218 -0.000341188 -0 0.00159257 -0 0.0011424)
(0.000685118 -0.000112845 -0 0.00144943 -0 0.00104085)
(0.000674349 0.000103548 -0 0.00108644 -0 0.000859925)
(0.000777619 0.000247404 -0 0.000761951 -0 0.000778679)
(0.00106247 0.000315028 -0 0.000594587 -0 0.000834641)
(0.00144558 0.000375481 -0 0.000691368 -0 0.0010193)
(0.00219329 0.000546319 -0 0.00143434 -0 0.00184198)
(0.00323689 -0.00170136 -0 0.00350967 -0 0.00337204)
(0.000381765 -7.62409e-05 -0 0.000359127 -0 0.000366694)
(0.000564796 2.6283e-06 -0 0.000499845 -0 0.000523299)
(0.00067014 3.38359e-05 -0 0.000620422 -0 0.000634433)
(0.000705962 2.81275e-05 -0 0.000713336 -0 0.000702836)
(0.000711858 3.83839e-06 -0 0.000785084 -0 0.000744607)
(0.000703378 -2.95806e-05 -0 0.00084621 -0 0.00077282)
(0.000688363 -7.06966e-05 -0 0.000907716 -0 0.00079771)
(0.000671828 -0.000120327 -0 0.000982429 -0 0.000827816)
(0.000657552 -0.000179008 -0 0.00108269 -0 0.000871764)
(0.000649358 -0.000240491 -0 0.0012166 -0 0.00093526)
(0.000648781 -0.000289114 -0 0.00138212 -0 0.00101701)
(0.000644622 -0.000298365 -0 0.00156296 -0 0.00110221)
(0.000629545 -0.000208718 -0 0.00167475 -0 0.00114083)
(0.000652025 -8.34577e-06 -0 0.00159736 -0 0.00109867)
(0.000743941 0.00020916 -0 0.00130938 -0 0.00100351)
(0.000918068 0.000337053 -0 0.000898353 -0 0.000906569)
(0.00123008 0.000409346 -0 0.000650925 -0 0.000948875)
(0.00146996 0.000396711 -0 0.000713708 -0 0.00106085)
(0.00223835 0.00070329 -0 0.00145121 -0 0.00183243)
(0.00366215 -0.00167306 -0 0.00371593 -0 0.00365205)
(0.00041046 -7.52628e-05 -0 0.000340582 -0 0.000387162)
(0.000606178 4.6341e-06 -0 0.000438989 -0 0.000567953)
(0.000677374 2.54347e-05 -0 0.000572128 -0 0.000675133)
(0.000692919 1.05759e-05 -0 0.000680956 -0 0.000722622)
(0.000694572 -1.35327e-05 -0 0.000756713 -0 0.000750822)
(0.000687915 -4.33177e-05 -0 0.000817599 -0 0.000771055)
(0.000676412 -7.64222e-05 -0 0.000877503 -0 0.000791073)
(0.000663523 -0.000111756 -0 0.000947892 -0 0.000817591)
(0.000651979 -0.000149349 -0 0.00104028 -0 0.000856598)
(0.00064481 -0.000187062 -0 0.00116276 -0 0.000912614)
(0.000645464 -0.000215766 -0 0.0013123 -0 0.000985764)
(0.000656829 -0.000215093 -0 0.00146607 -0 0.00106511)
(0.000678099 -0.000154821 -0 0.00157422 -0 0.00112483)
(0.00072205 -1.95378e-05 -0 0.00151345 -0 0.00111033)
(0.000825916 0.000143076 -0 0.00130489 -0 0.00106296)
(0.00098735 0.000241441 -0 0.000944181 -0 0.000966048)
(0.00120536 0.000327424 -0 0.000733663 -0 0.000994842)
(0.00136076 0.00026038 -0 0.000792234 -0 0.00106537)
(0.00235915 0.000781754 -0 0.00158859 -0 0.00194696)
(0.00416574 -0.00172258 -0 0.00406213 -0 0.00402774)
(0.00043502 -0.000120449 -0 0.000429862 -0 0.00040319)
(0.000508738 5.08737e-05 -0 0.000670962 -0 0.000496984)
(0.000574641 3.16484e-05 -0 0.000810206 -0 0.000605707)
(0.000636638 -2.26197e-05 -0 0.000842293 -0 0.000680851)
(0.000675835 -7.62564e-05 -0 0.000865795 -0 0.000730037)
(0.0006995 -0.000118956 -0 0.000894465 -0 0.000766881)
(0.000718489 -0.000154417 -0 0.000927498 -0 0.000799882)
(0.000737241 -0.000186019 -0 0.000969443 -0 0.000834964)
(0.000757445 -0.000216277 -0 0.00102799 -0 0.000877405)
(0.000781053 -0.000247349 -0 0.00111023 -0 0.0009321)
(0.000809792 -0.000277626 -0 0.00121761 -0 0.00100104)
(0.000844481 -0.000297838 -0 0.00133671 -0 0.00107797)
(0.00088436 -0.000291379 -0 0.00143209 -0 0.00114622)
(0.000916771 -0.000235136 -0 0.00140754 -0 0.00115137)
(0.000976496 -0.000155372 -0 0.00129175 -0 0.00113107)
(0.00107405 -8.59467e-05 -0 0.00105463 -0 0.00105154)
(0.00113617 1.13447e-05 -0 0.000923388 -0 0.00107706)
(0.00143722 1.32794e-05 -0 0.000977554 -0 0.00119927)
(0.00264816 0.000818019 -0 0.00177764 -0 0.0022282)
(0.00503721 -0.00202363 -0 0.00433288 -0 0.00473685)
(0.000641636 -0.00012101 -0 0.000443186 -0 0.000594596)
(0.000825895 -0.000130707 -0 0.000733108 -0 0.000847371)
(0.000995207 -0.000218415 -0 0.0010311 -0 0.00106438)
(0.00112569 -0.000277415 -0 0.00121317 -0 0.00120342)
(0.00121983 -0.00031404 -0 0.00133415 -0 0.00130312)
(0.00130304 -0.000348841 -0 0.00142965 -0 0.00138686)
(0.00137836 -0.000384901 -0 0.00151338 -0 0.00146212)
(0.00144456 -0.00041983 -0 0.00158928 -0 0.00152981)
(0.0015019 -0.000452606 -0 0.00166022 -0 0.00159124)
(0.00155187 -0.000483522 -0 0.00172918 -0 0.00164848)
(0.00159702 -0.000512309 -0 0.00179875 -0 0.00170392)
(0.00164117 -0.000538577 -0 0.00186929 -0 0.00175936)
(0.00168436 -0.000558938 -0 0.0019317 -0 0.00181135)
(0.00173537 -0.000566479 -0 0.00197014 -0 0.00185447)
(0.00177306 -0.000549877 -0 0.00195303 -0 0.00187034)
(0.00189137 -0.000541958 -0 0.00190127 -0 0.00188929)
(0.00198361 -0.00049734 -0 0.00191263 -0 0.0020064)
(0.00280027 -0.000527873 -0 0.00204992 -0 0.00231654)
(0.00357902 0.000416743 -0 0.00260138 -0 0.00327182)
(0.00702056 -0.00334618 -0 0.00417251 -0 0.00595442)
(0.00204633 -0.00776819 -0 0.00361352 -0 0.00280289)
(0.0038238 -0.00860713 -0 0.00498764 -0 0.00425485)
(0.00510841 -0.00964958 -0 0.00615807 -0 0.00559544)
(0.0059166 -0.010197 -0 0.00680818 -0 0.00633907)
(0.00641529 -0.0104477 -0 0.00716866 -0 0.00676248)
(0.00672272 -0.0105462 -0 0.00738466 -0 0.00702898)
(0.00690999 -0.0105575 -0 0.00751126 -0 0.00719342)
(0.00701769 -0.010514 -0 0.00757377 -0 0.00728325)
(0.00706662 -0.0104314 -0 0.00758756 -0 0.00731739)
(0.00707184 -0.0103212 -0 0.00756639 -0 0.00731146)
(0.00705616 -0.0101974 -0 0.00753198 -0 0.00728793)
(0.00701607 -0.0100548 -0 0.00747532 -0 0.00724017)
(0.00695436 -0.00989535 -0 0.00739375 -0 0.00716912)
(0.00692079 -0.00974728 -0 0.00731348 -0 0.00710951)
(0.00687788 -0.00961109 -0 0.00721007 -0 0.00704487)
(0.00700723 -0.00953133 -0 0.00711081 -0 0.00702356)
(0.00700095 -0.00962317 -0 0.00715143 -0 0.00716977)
(0.00805005 -0.00950947 -0 0.00652281 -0 0.00681713)
(0.00669931 -0.0104288 -0 0.00771344 -0 0.00819452)
(0.0119347 -0.00936507 -0 0.00246838 -0 0.00617336)
)
;

boundaryField
{
    movingWall
    {
        type            kqRWallFunction;
        value           nonuniform List<symmTensor> 
20
(
(0.00282091 -0 -0 0.00282091 -0 0.00282091)
(0.00435543 -0 -0 0.00435543 -0 0.00435543)
(0.00560787 -0.000255464 -0 0.00563949 -0 0.00561456)
(0.00633849 -0.000439608 -0 0.00637729 -0 0.00634807)
(0.00676697 -0.000535209 -0 0.00680306 -0 0.0067764)
(0.00703157 -0.000587847 -0 0.00706412 -0 0.00704067)
(0.00719217 -0.000615112 -0 0.00722149 -0 0.00720101)
(0.00727995 -0.000625717 -0 0.00730632 -0 0.00728844)
(0.00731326 -0.000624579 -0 0.00733697 -0 0.00732135)
(0.00730686 -0.000615286 -0 0.00732826 -0 0.00731457)
(0.00728307 -0.000602681 -0 0.00730254 -0 0.00729047)
(0.00723561 -0.000585464 -0 0.00725329 -0 0.00724267)
(0.0071649 -0.000563884 -0 0.00718081 -0 0.00717153)
(0.00710811 -0.000545576 -0 0.00712184 -0 0.00711384)
(0.00703878 -0.000526123 -0 0.00705031 -0 0.00704374)
(0.00704527 -0.000521637 -0 0.00705057 -0 0.00704576)
(0.00710307 -0.000537147 -0 0.0071109 -0 0.00710818)
(0.00715655 -0.000528705 -0 0.00711447 -0 0.00711897)
(0.00750001 -0.000690471 -0 0.00755633 -0 0.00755093)
(0.0070077 -0.000410059 -0 0.00672186 -0 0.0068469)
)
;
    }
    fixedWalls
    {
        type            kqRWallFunction;
        value           nonuniform List<symmTensor> 
60
(
(9.57928e-05 0 -0 9.57928e-05 -0 9.57928e-05)
(0.00013385 -0 -0 0.00013385 -0 0.00013385)
(0.000173 -0 -0 0.000173 -0 0.000173)
(0.000202942 -0 -0 0.000202942 -0 0.000202942)
(0.000225906 -0 -0 0.000225906 -0 0.000225906)
(0.000243965 -0 -0 0.000243965 -0 0.000243965)
(0.000258681 -0 -0 0.000258681 -0 0.000258681)
(0.000271207 -0 -0 0.000271207 -0 0.000271207)
(0.000282387 -0 -0 0.000282387 -0 0.000282387)
(0.00029284 -0 -0 0.00029284 -0 0.00029284)
(0.000303034 -0 -0 0.000303034 -0 0.000303034)
(0.000313416 -0 -0 0.000313416 -0 0.000313416)
(0.000324293 -0 -0 0.000324293 -0 0.000324293)
(0.000336791 -0 -0 0.000336791 -0 0.000336791)
(0.000349229 -0 -0 0.000349229 -0 0.000349229)
(0.000369195 -0 -0 0.000369195 -0 0.000369195)
(0.000379401 -0 -0 0.000379401 -0 0.000379401)
(0.000422691 -0 -0 0.000422691 -0 0.000422691)
(0.000559806 -0 -0 0.000559806 -0 0.000559806)
(0.00282091 -0 -0 0.00282091 -0 0.00282091)
(9.87257e-05 -0 -0 9.87257e-05 -0 9.87257e-05)
(0.000139251 -0 -0 0.000139251 -0 0.000139251)
(0.000176281 -0 -0 0.000176281 -0 0.000176281)
(0.000203927 -0 -0 0.000203927 -0 0.000203927)
(0.000225679 -0 -0 0.000225679 -0 0.000225679)
(0.000245255 -0 -0 0.000245255 -0 0.000245255)
(0.000265615 -0 -0 0.000265615 -0 0.000265615)
(0.000302267 -0 -0 0.000302267 -0 0.000302267)
(0.000433125 -0 -0 0.000433125 -0 0.000433125)
(0.000881289 -0 -0 0.000881289 -0 0.000881289)
(0.00172925 -0 -0 0.00172925 -0 0.00172925)
(0.00247576 -0 -0 0.00247576 -0 0.00247576)
(0.00285745 -0 -0 0.00285745 -0 0.00285745)
(0.0031208 -0 -0 0.0031208 -0 0.0031208)
(0.00337287 -0 -0 0.00337287 -0 0.00337287)
(0.00367671 -0 -0 0.00367671 -0 0.00367671)
(0.0040852 -0 -0 0.0040852 -0 0.0040852)
(0.00470231 -0 -0 0.00470231 -0 0.00470231)
(0.00575457 -9.9898e-05 -0 0.00568309 -0 0.00570983)
(0.00721443 -0.000308809 -0 0.00662931 -0 0.00673272)
(9.57928e-05 -0 -0 9.57928e-05 -0 9.57928e-05)
(0.000133944 0 -0 0.000133944 -0 0.000133944)
(0.00016764 0 -0 0.00016764 -0 0.00016764)
(0.00019181 0 -0 0.00019181 -0 0.00019181)
(0.0002093 0 -0 0.0002093 -0 0.0002093)
(0.000222603 0 -0 0.000222603 -0 0.000222603)
(0.00023338 0 -0 0.00023338 -0 0.00023338)
(0.000242585 0 -0 0.000242585 -0 0.000242585)
(0.00025061 0 -0 0.00025061 -0 0.00025061)
(0.000257445 0 -0 0.000257445 -0 0.000257445)
(0.000262725 0 -0 0.000262725 -0 0.000262725)
(0.000265197 0 -0 0.000265197 -0 0.000265197)
(0.000265686 0 -0 0.000265686 -0 0.000265686)
(0.000262319 0 -0 0.000262319 -0 0.000262319)
(0.000253384 0 -0 0.000253384 -0 0.000253384)
(0.000237711 0 -0 0.000237711 -0 0.000237711)
(0.000213981 0 -0 0.000213981 -0 0.000213981)
(0.000180888 0 -0 0.000180888 -0 0.000180888)
(0.000137267 0 -0 0.000137267 -0 0.000137267)
(9.87257e-05 0 -0 9.87257e-05 -0 9.87257e-05)
)
;
    }
    frontAndBack
    {
        type            empty;
    }
}


// ************************************************************************* //
