/*--------------------------------*- C++ -*----------------------------------*\
| =========                 |                                                 |
| \\      /  F ield         | OpenFOAM: The Open Source CFD Toolbox           |
|  \\    /   O peration     | Version:  2312                                  |
|   \\  /    A nd           | Website:  www.openfoam.com                      |
|    \\/     M anipulation  |                                                 |
\*---------------------------------------------------------------------------*/
FoamFile
{
    version     2.0;
    format      ascii;
    arch        "LSB;label=32;scalar=64";
    class       volScalarField;
    location    "1";
    object      turbulenceProperties:k;
}
// * * * * * * * * * * * * * * * * * * * * * * * * * * * * * * * * * * * * * //

dimensions      [0 2 -2 0 0 0 0];

internalField   nonuniform List<scalar> 
400
(
0.000143689
0.000200916
0.00025146
0.000287715
0.00031395
0.000333905
0.00035007
0.000363878
0.000375915
0.000386167
0.000394088
0.000397796
0.000398529
0.000393479
0.000380076
0.000356567
0.000320972
0.000271332
0.0002059
0.000148089
0.000200774
0.000361441
0.000459664
0.000520989
0.000559732
0.000584721
0.000601983
0.000615521
0.000627724
0.00063964
0.000651117
0.00065995
0.000663688
0.000661546
0.000647968
0.00061804
0.000565263
0.000482024
0.000355523
0.000208877
0.0002595
0.000483419
0.000611922
0.000691323
0.000741112
0.000772352
0.000792616
0.000807049
0.000818794
0.000829293
0.000838499
0.000844167
0.000845673
0.000838741
0.000817883
0.000776737
0.000707762
0.000602325
0.000445162
0.000264422
0.000304413
0.000566417
0.000715125
0.000807201
0.00086537
0.000901917
0.000925211
0.000941041
0.000953039
0.000962948
0.000970695
0.000974422
0.000973315
0.000961625
0.000933533
0.000881586
0.000797652
0.000673357
0.000494112
0.00030589
0.000338859
0.000624422
0.000787869
0.000889641
0.000954504
0.000995527
0.00102166
0.00103918
0.00105215
0.0010626
0.00107054
0.00107437
0.0010725
0.00105848
0.001025
0.000962715
0.000862633
0.000717835
0.000518602
0.000338518
0.000365948
0.000665121
0.000839431
0.00094877
0.00101908
0.00106397
0.00109288
0.00111259
0.00112763
0.0011405
0.00115186
0.00115946
0.00116158
0.0011507
0.00111618
0.00104485
0.000927206
0.000758013
0.000534977
0.000367883
0.000388022
0.000693796
0.000875925
0.000991064
0.00106573
0.00111397
0.0011457
0.00116833
0.00118715
0.00120553
0.00122488
0.0012445
0.00125743
0.00125885
0.00123035
0.00115223
0.00102539
0.000837141
0.00057284
0.000398422
0.00040681
0.00071425
0.000901734
0.0010211
0.0010991
0.00115016
0.00118482
0.00121136
0.0012363
0.00126452
0.00129886
0.00133911
0.00137792
0.00139528
0.00137817
0.00130216
0.00122931
0.00108154
0.000736935
0.0004534
0.00042358
0.000729267
0.000920081
0.00104221
0.00112247
0.00117576
0.00121339
0.00124489
0.00127856
0.00132153
0.0013788
0.00145117
0.00152342
0.00155146
0.00153643
0.00154874
0.00166505
0.00166567
0.00127779
0.000649687
0.00043926
0.000740882
0.000933303
0.00105674
0.00113808
0.00119279
0.00123317
0.00127029
0.00131472
0.00137631
0.00146251
0.00157492
0.00166036
0.00166755
0.00163493
0.00170845
0.00192978
0.00210564
0.00219481
0.00132193
0.000454551
0.000750581
0.000943069
0.0010663
0.00114735
0.00120237
0.00124478
0.00128728
0.00134266
0.00142297
0.00153618
0.00167033
0.00172166
0.00163488
0.00157534
0.00163702
0.00180937
0.00221313
0.0026929
0.00259387
0.000470124
0.000759448
0.000950526
0.00107196
0.00115112
0.00120496
0.0012481
0.00129465
0.0013588
0.00145339
0.00158439
0.00170337
0.00171298
0.00155714
0.00139989
0.00134196
0.00141019
0.00190008
0.00288536
0.00371364
0.000486439
0.000768298
0.000956411
0.00107431
0.00115013
0.00120214
0.00124481
0.00129272
0.00136091
0.00146285
0.00159977
0.00170866
0.00168924
0.00145526
0.00121414
0.00111987
0.00118993
0.00168379
0.00281376
0.00428617
0.000505186
0.000777516
0.000960933
0.00107361
0.00114558
0.00119433
0.00123547
0.00128387
0.00135351
0.00145567
0.0015898
0.00170632
0.00169945
0.00148716
0.00119998
0.00104152
0.0011342
0.00158816
0.00275763
0.0046812
0.000523843
0.000787278
0.000963632
0.00106994
0.00113614
0.00118075
0.00121937
0.00126633
0.00133534
0.00143588
0.00156608
0.00169276
0.00172259
0.0015877
0.00131036
0.00115912
0.00124585
0.00157813
0.0027348
0.0050593
0.000553793
0.00079397
0.000962497
0.00106107
0.00112077
0.0011612
0.00119689
0.00124104
0.001306
0.00140061
0.00152396
0.00165489
0.00172256
0.00167403
0.00152841
0.00136149
0.00141494
0.00162226
0.00276099
0.00551506
0.000569102
0.00080656
0.000962317
0.00104825
0.00110105
0.00113828
0.00117249
0.0012145
0.00127443
0.00136009
0.00147176
0.001594
0.00168857
0.00167292
0.00159688
0.00144879
0.00146693
0.00160918
0.00294735
0.0061278
0.000634036
0.000838342
0.000995277
0.00107989
0.00113583
0.00118042
0.00122293
0.00127082
0.00133142
0.00141169
0.00151422
0.00162958
0.00173133
0.00173784
0.00169965
0.00159011
0.00156831
0.00180702
0.003327
0.00705347
0.000839709
0.00120319
0.00154535
0.00177114
0.00192855
0.00205977
0.00217693
0.00228183
0.00237668
0.00246476
0.00254984
0.00263491
0.0027137
0.00277999
0.00279821
0.00284096
0.00295132
0.00358337
0.00472611
0.00857374
0.00423137
0.00653315
0.00843096
0.00953192
0.0101732
0.0105682
0.0108073
0.0109374
0.0109858
0.0109748
0.010938
0.0108658
0.0107586
0.0106719
0.0105664
0.0105708
0.0106611
0.010695
0.0113036
0.0102882
)
;

boundaryField
{
    movingWall
    {
        type            kqRWallFunction;
        value           nonuniform List<scalar> 
20
(
0.00423137
0.00653315
0.00843096
0.00953192
0.0101732
0.0105682
0.0108073
0.0109374
0.0109858
0.0109748
0.010938
0.0108658
0.0107586
0.0106719
0.0105664
0.0105708
0.0106611
0.010695
0.0113036
0.0102882
)
;
    }
    fixedWalls
    {
        type            kqRWallFunction;
        value           nonuniform List<scalar> 
60
(
0.000143689
0.000200774
0.0002595
0.000304413
0.000338859
0.000365948
0.000388022
0.00040681
0.00042358
0.00043926
0.000454551
0.000470124
0.000486439
0.000505186
0.000523843
0.000553793
0.000569102
0.000634036
0.000839709
0.00423137
0.000148089
0.000208877
0.000264422
0.00030589
0.000338518
0.000367883
0.000398422
0.0004534
0.000649687
0.00132193
0.00259387
0.00371364
0.00428617
0.0046812
0.0050593
0.00551506
0.0061278
0.00705347
0.00857374
0.0102882
0.000143689
0.000200916
0.00025146
0.000287715
0.00031395
0.000333905
0.00035007
0.000363878
0.000375915
0.000386167
0.000394088
0.000397796
0.000398529
0.000393479
0.000380076
0.000356567
0.000320972
0.000271332
0.0002059
0.000148089
)
;
    }
    frontAndBack
    {
        type            empty;
    }
}


// ************************************************************************* //
