/*--------------------------------*- C++ -*----------------------------------*\
| =========                 |                                                 |
| \\      /  F ield         | OpenFOAM: The Open Source CFD Toolbox           |
|  \\    /   O peration     | Version:  2312                                  |
|   \\  /    A nd           | Website:  www.openfoam.com                      |
|    \\/     M anipulation  |                                                 |
\*---------------------------------------------------------------------------*/
FoamFile
{
    version     2.0;
    format      ascii;
    arch        "LSB;label=32;scalar=64";
    class       volScalarField;
    location    "1";
    object      turbulenceProperties:I;
}
// * * * * * * * * * * * * * * * * * * * * * * * * * * * * * * * * * * * * * //

dimensions      [0 0 0 0 0 0 0];

internalField   nonuniform List<scalar> 
400
(
1
1
1
1
1
1
1
1
1
1
0.998365
0.977747
0.985099
1
1
1
1
1
1
1
1
1
1
1
1
1
1
1
1
1
1
1
1
1
1
1
1
1
1
1
1
1
1
1
1
1
1
1
1
1
1
1
1
1
1
1
1
1
1
1
1
1
1
1
1
1
1
1
1
1
1
1
1
1
1
1
1
1
1
1
1
1
1
1
1
1
1
1
1
1
1
1
0.994807
0.966013
0.952619
0.956678
0.980326
1
1
1
1
1
1
1
1
1
1
1
1
1
1
0.952031
0.894706
0.848166
0.813739
0.793911
0.791755
0.80902
0.832091
1
1
1
1
1
1
1
1
1
1
1
0.933109
0.858062
0.790227
0.730333
0.678931
0.639242
0.620258
0.637683
0.695418
0.989029
1
1
1
1
1
1
1
1
1
0.931679
0.846521
0.767531
0.692325
0.616759
0.545671
0.484376
0.458481
0.483721
0.59627
1
1
1
1
1
1
1
1
1
0.943089
0.85482
0.769877
0.688698
0.604115
0.509066
0.418492
0.355319
0.337046
0.358856
0.461268
1
1
1
1
1
1
1
1
0.961575
0.87763
0.792366
0.708556
0.625473
0.526092
0.414548
0.32872
0.28502
0.261916
0.261716
0.340456
0.950861
0.944784
1
1
1
1
1
0.979877
0.908417
0.829852
0.748776
0.666944
0.580826
0.473687
0.368598
0.311551
0.279814
0.237878
0.217348
0.247799
0.498956
0.881299
0.945044
1
1
1
0.988205
0.938573
0.874628
0.802223
0.726178
0.647477
0.557382
0.455881
0.379731
0.375847
0.38528
0.272153
0.210124
0.208911
0.327776
0.829787
0.882524
0.942237
0.971659
0.975565
0.956912
0.917869
0.862304
0.79607
0.724913
0.649777
0.561263
0.467345
0.410241
0.499461
1
0.415663
0.254269
0.207613
0.252733
0.781924
0.828875
0.892593
0.931892
0.949438
0.945173
0.919329
0.874141
0.814548
0.747301
0.67484
0.592418
0.501925
0.445675
0.524238
1
0.471505
0.308665
0.239755
0.223554
0.743138
0.783227
0.852834
0.905329
0.939664
0.953807
0.945097
0.912899
0.860626
0.794862
0.722016
0.643577
0.55716
0.492232
0.494248
0.564959
0.467066
0.346846
0.283385
0.221093
0.675961
0.73149
0.818456
0.891142
0.947298
0.984568
0.99848
0.983253
0.93782
0.868456
0.787392
0.703769
0.618813
0.547137
0.516984
0.513271
0.498376
0.407262
0.337646
0.227879
0.692151
0.733133
0.823702
0.908105
0.98595
1
1
1
1
0.963411
0.859015
0.755187
0.662106
0.578162
0.527213
0.502048
0.521696
0.45359
0.414416
0.236802
0.446498
0.544502
0.694728
0.846409
0.979981
1
1
1
1
0.997288
0.866785
0.746546
0.646931
0.560393
0.503327
0.46968
0.507945
0.46397
0.557684
0.254181
1
1
1
1
1
1
1
0.927993
0.803574
0.706605
0.627479
0.561274
0.506118
0.460897
0.428367
0.407488
0.44296
0.435453
1
0.317625
0.525426
0.70223
0.760193
0.699597
0.640116
0.591996
0.551183
0.516053
0.485484
0.458463
0.434533
0.412712
0.392806
0.37552
0.362033
0.351186
0.36151
0.332968
0.683168
0.211613
)
;

boundaryField
{
    movingWall
    {
        type            calculated;
        value           nonuniform List<scalar> 
20
(
0.0531123
0.0659957
0.0749709
0.0797158
0.0823538
0.0839372
0.0848816
0.0853907
0.0855795
0.0855369
0.0853934
0.0851108
0.0846901
0.084348
0.0839302
0.0839476
0.0843053
0.0844393
0.0868087
0.082818
)
;
    }
    fixedWalls
    {
        type            calculated;
        value           uniform 1;
    }
    frontAndBack
    {
        type            empty;
    }
}


// ************************************************************************* //
