/*--------------------------------*- C++ -*----------------------------------*\
| =========                 |                                                 |
| \\      /  F ield         | OpenFOAM: The Open Source CFD Toolbox           |
|  \\    /   O peration     | Version:  2312                                  |
|   \\  /    A nd           | Website:  www.openfoam.com                      |
|    \\/     M anipulation  |                                                 |
\*---------------------------------------------------------------------------*/
FoamFile
{
    version     2.0;
    format      ascii;
    arch        "LSB;label=32;scalar=64";
    class       volScalarField;
    location    "1";
    object      turbulenceProperties:nuEff;
}
// * * * * * * * * * * * * * * * * * * * * * * * * * * * * * * * * * * * * * //

dimensions      [0 2 -1 0 0 0 0];

internalField   nonuniform List<scalar> 
400
(
1.66644e-05
1.78887e-05
1.88346e-05
1.94585e-05
1.98884e-05
2.02056e-05
2.04571e-05
2.06683e-05
2.08497e-05
2.10021e-05
2.11181e-05
2.11712e-05
2.11812e-05
2.1107e-05
2.091e-05
2.05583e-05
2.00062e-05
1.91869e-05
1.79886e-05
1.67696e-05
1.78848e-05
3.56008e-05
4.476e-05
4.96355e-05
5.25183e-05
5.43359e-05
5.56077e-05
5.66784e-05
5.77738e-05
5.90142e-05
6.04625e-05
6.17718e-05
6.24302e-05
6.26241e-05
6.18539e-05
5.96616e-05
5.53294e-05
4.78612e-05
3.41571e-05
1.80492e-05
1.8976e-05
4.86263e-05
6.65446e-05
7.64569e-05
8.23991e-05
8.60977e-05
8.85597e-05
9.04136e-05
9.2056e-05
9.36324e-05
9.5101e-05
9.60482e-05
9.62958e-05
9.52926e-05
9.23704e-05
8.67511e-05
7.74949e-05
6.33133e-05
4.12829e-05
1.90677e-05
1.97322e-05
5.61934e-05
8.04478e-05
9.43395e-05
0.000102804
0.000108167
0.000111672
0.000114118
0.000115972
0.000117447
0.000118449
0.000118559
0.000117777
0.00011502
0.000109634
0.000100855
8.79035e-05
6.96769e-05
4.36358e-05
1.97627e-05
2.02774e-05
6.10994e-05
8.99328e-05
0.000106805
0.000117166
0.000123674
0.000127836
0.000130601
0.000132534
0.000133854
0.000134407
0.000133746
0.000131554
0.000126716
0.000118495
0.000106342
9.03336e-05
7.02008e-05
4.33213e-05
2.02793e-05
2.06887e-05
6.43077e-05
9.6502e-05
0.000115622
0.000127439
0.000134852
0.00013953
0.000142538
0.000144499
0.000145632
0.000145753
0.000144015
0.000139799
0.00013163
0.000118534
0.000101864
8.2946e-05
6.37029e-05
4.07458e-05
2.07213e-05
2.10134e-05
6.63996e-05
0.000101029
0.000121851
0.000134773
0.000142883
0.000147973
0.000151191
0.000153197
0.000154149
0.000153602
0.000150412
0.000142127
0.000127877
0.000106992
8.33971e-05
6.48705e-05
4.97312e-05
3.53914e-05
2.11613e-05
2.12826e-05
6.77172e-05
0.000104114
0.000126204
0.000139944
0.000148577
0.000153998
0.000157418
0.000159488
0.00016016
0.000158372
0.000151816
0.000137253
0.000113001
8.46589e-05
5.91823e-05
4.8347e-05
4.00004e-05
3.09424e-05
2.19635e-05
2.15169e-05
6.84983e-05
0.000106177
0.000129189
0.000143504
0.000152509
0.000158189
0.000161794
0.000163863
0.000163853
0.000159567
0.000147338
0.000123705
9.07257e-05
6.21011e-05
4.6118e-05
4.43999e-05
4.27413e-05
3.45806e-05
2.45826e-05
2.17305e-05
6.89184e-05
0.000107519
0.000131171
0.000145849
0.000155079
0.000160933
0.000164653
0.000166507
0.000165109
0.000156867
0.000137807
0.000104978
7.14244e-05
5.10284e-05
4.50188e-05
4.5697e-05
4.36242e-05
4.3071e-05
3.11145e-05
2.19338e-05
6.91076e-05
0.000108354
0.000132405
0.00014724
0.000156534
0.000162447
0.000166161
0.000167539
0.000164258
0.000151906
0.000127044
9.04187e-05
6.04553e-05
4.76386e-05
4.41518e-05
4.3705e-05
4.38084e-05
4.37213e-05
3.92591e-05
2.21359e-05
6.91599e-05
0.000108827
0.000133046
0.000147804
0.000156959
0.000162786
0.000166409
0.00016737
0.000162874
0.000149038
0.000121431
8.73287e-05
5.87331e-05
4.56083e-05
4.26972e-05
4.17944e-05
4.25048e-05
4.45623e-05
4.44777e-05
2.23425e-05
6.91488e-05
0.000109013
0.000133127
0.000147555
0.000156491
0.000162157
0.000165612
0.000166403
0.000162254
0.000149782
0.000123694
8.91968e-05
5.99178e-05
4.56321e-05
4.40979e-05
4.78726e-05
4.68897e-05
4.45209e-05
4.67971e-05
2.25751e-05
6.90732e-05
0.000108859
0.000132447
0.0001463
0.000154616
0.000159943
0.000163519
0.000164946
0.000161978
0.000151424
0.000129658
9.98761e-05
7.09953e-05
5.24534e-05
4.73556e-05
5.30857e-05
5.52492e-05
4.78738e-05
4.84185e-05
2.28008e-05
6.89949e-05
0.000107996
0.000130293
0.000142756
0.000149955
0.00015456
0.000157953
0.000160213
0.000159796
0.000154133
0.000139409
0.000114574
8.87193e-05
6.62599e-05
5.89777e-05
6.22417e-05
5.90326e-05
4.99008e-05
4.99093e-05
2.31595e-05
6.80138e-05
0.000104599
0.000123857
0.000133512
0.000138613
0.000141785
0.000144506
0.000147238
0.000148983
0.000147469
0.000141605
0.000126589
0.000107377
9.21107e-05
7.76574e-05
7.5292e-05
6.20141e-05
5.12042e-05
5.16777e-05
2.33369e-05
6.52713e-05
9.38894e-05
0.000105251
0.000109487
0.000110924
0.000111658
0.000112904
0.000115294
0.000118731
0.000121905
0.000122295
0.000117891
0.000105688
9.7142e-05
8.24519e-05
7.46979e-05
5.49123e-05
4.88994e-05
5.39307e-05
2.40792e-05
5.30273e-05
6.24905e-05
6.34907e-05
6.2831e-05
6.1847e-05
6.12215e-05
6.1393e-05
6.26575e-05
6.52515e-05
6.91058e-05
7.33737e-05
7.65315e-05
7.40433e-05
7.0816e-05
6.19836e-05
5.36086e-05
4.26837e-05
4.70552e-05
5.71455e-05
2.62224e-05
3.11523e-05
3.2609e-05
3.35893e-05
3.43818e-05
3.51883e-05
3.60713e-05
3.70204e-05
3.80342e-05
3.91495e-05
4.03839e-05
4.17813e-05
4.32536e-05
4.43729e-05
4.45441e-05
4.45521e-05
4.44424e-05
4.4928e-05
5.00914e-05
6.1982e-05
4.651e-05
5.53708e-05
6.15402e-05
6.48015e-05
6.66142e-05
6.77021e-05
6.83499e-05
6.86992e-05
6.8826e-05
6.87957e-05
6.86952e-05
6.85004e-05
6.82103e-05
6.79795e-05
6.77011e-05
6.77165e-05
6.79693e-05
6.80632e-05
6.96958e-05
6.69489e-05
)
;

boundaryField
{
    movingWall
    {
        type            calculated;
        value           nonuniform List<scalar> 
20
(
1e-05
1e-05
1.07084e-05
1.12428e-05
1.15378e-05
1.17141e-05
1.18191e-05
1.18756e-05
1.18966e-05
1.18918e-05
1.18759e-05
1.18446e-05
1.17978e-05
1.17598e-05
1.17134e-05
1.17153e-05
1.17551e-05
1.177e-05
1.20327e-05
1.15895e-05
)
;
    }
    fixedWalls
    {
        type            calculated;
        value           nonuniform List<scalar> 
60
(
1e-05
1e-05
1e-05
1e-05
1e-05
1e-05
1e-05
1e-05
1e-05
1e-05
1e-05
1e-05
1e-05
1e-05
1e-05
1e-05
1e-05
1e-05
1e-05
1e-05
1e-05
1e-05
1e-05
1e-05
1e-05
1e-05
1e-05
1e-05
1e-05
1e-05
1e-05
1e-05
1e-05
1e-05
1e-05
1e-05
1e-05
1e-05
1.07798e-05
1.15895e-05
1e-05
1e-05
1e-05
1e-05
1e-05
1e-05
1e-05
1e-05
1e-05
1e-05
1e-05
1e-05
1e-05
1e-05
1e-05
1e-05
1e-05
1e-05
1e-05
1e-05
)
;
    }
    frontAndBack
    {
        type            empty;
    }
}


// ************************************************************************* //
