/*--------------------------------*- C++ -*----------------------------------*\
| =========                 |                                                 |
| \\      /  F ield         | OpenFOAM: The Open Source CFD Toolbox           |
|  \\    /   O peration     | Version:  2312                                  |
|   \\  /    A nd           | Website:  www.openfoam.com                      |
|    \\/     M anipulation  |                                                 |
\*---------------------------------------------------------------------------*/
FoamFile
{
    version     2.0;
    format      ascii;
    arch        "LSB;label=32;scalar=64";
    class       volScalarField;
    location    "1";
    object      turbulenceProperties:L;
}
// * * * * * * * * * * * * * * * * * * * * * * * * * * * * * * * * * * * * * //

dimensions      [0 1 0 0 0 0 0];

internalField   nonuniform List<scalar> 
400
(
0.00101506
0.00101611
0.00101716
0.00101807
0.00101891
0.00101969
0.00102041
0.00102108
0.00102167
0.00102218
0.00102252
0.00102261
0.00102258
0.00102229
0.00102171
0.00102085
0.0010197
0.00101826
0.00101644
0.00101565
0.00101596
0.00245852
0.00296005
0.00317037
0.00328114
0.0033475
0.00339379
0.00343506
0.00348133
0.00353829
0.00361059
0.0036794
0.00371569
0.00373546
0.00371915
0.00364714
0.00348092
0.00314847
0.00233911
0.00101683
0.00101731
0.00320746
0.00417333
0.00461465
0.00485546
0.00499923
0.00509457
0.00516796
0.00523555
0.00530225
0.00536566
0.00540713
0.00541786
0.00537696
0.00525854
0.00502791
0.00463198
0.00396606
0.002707
0.00101809
0.0010184
0.00354365
0.00480968
0.00541976
0.0057598
0.0059679
0.00610266
0.00619673
0.00626725
0.00632168
0.0063551
0.00634936
0.00630722
0.00618314
0.00595366
0.00558669
0.00503604
0.00419877
0.00276266
0.00101913
0.00101933
0.0037335
0.00519921
0.00592556
0.00633298
0.00657772
0.00673076
0.00683039
0.00689695
0.00693687
0.00694199
0.00689276
0.00677658
0.00654984
0.0061871
0.00566897
0.00499371
0.00410232
0.00267143
0.00102002
0.00102013
0.0038446
0.00545096
0.00626056
0.00671659
0.00698825
0.0071536
0.00725458
0.00731266
0.00733253
0.00730279
0.0071856
0.00695324
0.00654633
0.00593113
0.00518871
0.00437374
0.00356122
0.00242693
0.00102054
0.00102078
0.00390931
0.00561545
0.00648677
0.0069781
0.00726896
0.00744216
0.0075416
0.00758787
0.00757988
0.00749123
0.00726686
0.0068028
0.00606569
0.00504848
0.00394775
0.00312848
0.0025071
0.00193691
0.0010209
0.0010213
0.00394293
0.00572209
0.00663935
0.0071561
0.0074602
0.00763782
0.0077331
0.00776219
0.00770959
0.00751639
0.00707548
0.00625888
0.00503443
0.00367173
0.00248838
0.00199683
0.0016655
0.00140848
0.00102579
0.00102166
0.00395493
0.00578895
0.00674058
0.00727524
0.00758791
0.00776705
0.0078547
0.0078562
0.00772691
0.00735401
0.00658222
0.00531876
0.0037418
0.00242677
0.00167561
0.00153916
0.00146467
0.00125546
0.00104453
0.00102187
0.00395199
0.00582799
0.00680543
0.00735208
0.00766939
0.00784716
0.00792221
0.00788052
0.00763337
0.00701155
0.00587984
0.00425562
0.00274625
0.00185257
0.00154682
0.0014836
0.00133782
0.00128881
0.00106027
0.00102194
0.00393898
0.00584737
0.00684383
0.0073973
0.00771538
0.0078888
0.00794646
0.00784954
0.00746602
0.00661027
0.00522863
0.00353853
0.00227826
0.00173135
0.00154108
0.00144667
0.00131208
0.00118641
0.00104888
0.00102189
0.00391938
0.00585237
0.00686151
0.0074155
0.00772947
0.00789583
0.00793643
0.00779442
0.00732119
0.00637738
0.00492938
0.00341117
0.00225476
0.00173758
0.0016296
0.00154579
0.00136145
0.00117474
0.00103295
0.00102171
0.00389602
0.00584532
0.00685845
0.00740531
0.00771387
0.00787372
0.00790188
0.00774051
0.00726788
0.00638059
0.00502167
0.00351804
0.00238905
0.00186701
0.0018603
0.00200449
0.00164135
0.00118817
0.00102617
0.00102147
0.0038679
0.00582249
0.0068228
0.00735228
0.00764
0.00778841
0.00782243
0.00768932
0.00727257
0.00647575
0.00528874
0.00398043
0.00288773
0.00223751
0.0021133
0.00233575
0.00207302
0.00131677
0.00102518
0.00102112
0.00383875
0.00576358
0.0067143
0.00719082
0.00743615
0.00755824
0.00759083
0.00750499
0.00721742
0.00664959
0.00574258
0.00460016
0.00360692
0.00283755
0.00262647
0.00270224
0.00225348
0.00139302
0.0010244
0.00102095
0.00375897
0.00556707
0.00638158
0.00673583
0.00689079
0.00695468
0.00697092
0.00693334
0.00678022
0.00642922
0.00590643
0.0051287
0.00434526
0.00383459
0.0033477
0.00316906
0.00235776
0.00143169
0.00102463
0.00102071
0.00355321
0.00493727
0.00537128
0.00547394
0.00546148
0.00542034
0.00539103
0.00538501
0.00538281
0.00532564
0.00513519
0.00479362
0.00427128
0.00398135
0.00347525
0.00308407
0.0020441
0.00130818
0.0010246
0.00102085
0.00271315
0.00303772
0.00297186
0.00286201
0.00275514
0.00267418
0.00263209
0.00263477
0.00268481
0.00277316
0.00286623
0.00291928
0.00280484
0.00269325
0.00238008
0.00201046
0.00140375
0.0011729
0.00102489
0.00102209
0.00111335
0.00105004
0.00102336
0.00101366
0.00101328
0.00102019
0.00103274
0.00104989
0.00107197
0.00109857
0.00113039
0.00116546
0.00119024
0.00119227
0.00118354
0.00115751
0.00106529
0.00106473
0.00102496
0.00102473
0.00102484
0.00102482
0.00102481
0.00102479
0.00102478
0.00102475
0.00102474
0.00102469
0.00102467
0.00102464
0.00102463
0.00102462
0.00102469
0.00102485
0.00102491
0.00102503
0.00102506
0.00102512
0.00102507
)
;

boundaryField
{
    movingWall
    {
        type            calculated;
        value           nonuniform List<scalar> 
20
(
0.00102473
0.00102484
0.00102482
0.00102481
0.00102479
0.00102478
0.00102475
0.00102474
0.00102469
0.00102467
0.00102464
0.00102463
0.00102462
0.00102469
0.00102485
0.00102491
0.00102503
0.00102506
0.00102512
0.00102507
)
;
    }
    fixedWalls
    {
        type            calculated;
        value           nonuniform List<scalar> 
60
(
0.00101506
0.00101596
0.00101731
0.0010184
0.00101933
0.00102013
0.00102078
0.0010213
0.00102166
0.00102187
0.00102194
0.00102189
0.00102171
0.00102147
0.00102112
0.00102095
0.00102071
0.00102085
0.00102209
0.00102473
0.00101565
0.00101683
0.00101809
0.00101913
0.00102002
0.00102054
0.0010209
0.00102579
0.00104453
0.00106027
0.00104888
0.00103295
0.00102617
0.00102518
0.0010244
0.00102463
0.0010246
0.00102489
0.00102496
0.00102507
0.00101506
0.00101611
0.00101716
0.00101807
0.00101891
0.00101969
0.00102041
0.00102108
0.00102167
0.00102218
0.00102252
0.00102261
0.00102258
0.00102229
0.00102171
0.00102085
0.0010197
0.00101826
0.00101644
0.00101565
)
;
    }
    frontAndBack
    {
        type            empty;
    }
}


// ************************************************************************* //
