/*--------------------------------*- C++ -*----------------------------------*\
| =========                 |                                                 |
| \\      /  F ield         | OpenFOAM: The Open Source CFD Toolbox           |
|  \\    /   O peration     | Version:  2312                                  |
|   \\  /    A nd           | Website:  www.openfoam.com                      |
|    \\/     M anipulation  |                                                 |
\*---------------------------------------------------------------------------*/
FoamFile
{
    version     2.0;
    format      ascii;
    arch        "LSB;label=32;scalar=64";
    class       volSymmTensorField;
    location    "1";
    object      turbulenceProperties:devReff;
}
// * * * * * * * * * * * * * * * * * * * * * * * * * * * * * * * * * * * * * //

dimensions      [0 2 -2 0 0 0 0];

internalField   nonuniform List<symmTensor> 
400
(
(4.49987e-06 -9.84299e-09 -0 -4.50731e-06 -0 7.43465e-09)
(9.8552e-06 4.68922e-06 -0 -1.01238e-05 -0 2.68565e-07)
(1.38869e-05 1.25864e-05 -0 -1.40791e-05 -0 1.92238e-07)
(1.55111e-05 2.14788e-05 -0 -1.57828e-05 -0 2.7175e-07)
(1.6018e-05 3.05712e-05 -0 -1.62925e-05 -0 2.74586e-07)
(1.582e-05 3.95855e-05 -0 -1.60917e-05 -0 2.71735e-07)
(1.5139e-05 4.83574e-05 -0 -1.54022e-05 -0 2.63258e-07)
(1.39816e-05 5.6696e-05 -0 -1.42332e-05 -0 2.51611e-07)
(1.22401e-05 6.43442e-05 -0 -1.2465e-05 -0 2.24901e-07)
(9.72119e-06 7.09409e-05 -0 -9.88187e-06 -0 1.60684e-07)
(6.00884e-06 7.58358e-05 -0 -6.16e-06 -0 1.51156e-07)
(1.44258e-06 7.83967e-05 -0 -1.55764e-06 -0 1.15064e-07)
(-4.28159e-06 7.83043e-05 -0 4.3288e-06 -0 -4.72179e-08)
(-1.09169e-05 7.43465e-05 -0 1.10429e-05 -0 -1.2597e-07)
(-1.73897e-05 6.64174e-05 -0 1.76854e-05 -0 -2.95722e-07)
(-2.26911e-05 5.46091e-05 -0 2.31465e-05 -0 -4.55326e-07)
(-2.53564e-05 3.98415e-05 -0 2.59336e-05 -0 -5.77254e-07)
(-2.43085e-05 2.39231e-05 -0 2.47618e-05 -0 -4.53304e-07)
(-1.80485e-05 9.45763e-06 -0 1.84826e-05 -0 -4.34093e-07)
(-9.47374e-06 -6.10025e-08 -0 9.41312e-06 -0 6.062e-08)
(1.0007e-05 -4.72292e-06 -0 -9.77082e-06 -0 -2.36202e-07)
(2.53933e-05 -3.94054e-08 -0 -2.54255e-05 -0 3.22204e-08)
(3.65166e-05 5.33063e-06 -0 -3.60064e-05 -0 -5.10191e-07)
(4.25675e-05 9.86146e-06 -0 -4.19701e-05 -0 -5.97334e-07)
(4.55559e-05 1.32219e-05 -0 -4.49575e-05 -0 -5.98437e-07)
(4.62811e-05 1.61003e-05 -0 -4.57054e-05 -0 -5.75684e-07)
(4.51465e-05 1.9023e-05 -0 -4.46125e-05 -0 -5.3392e-07)
(4.22284e-05 2.22918e-05 -0 -4.17643e-05 -0 -4.64125e-07)
(3.73379e-05 2.61022e-05 -0 -3.69654e-05 -0 -3.72556e-07)
(3.00242e-05 3.05004e-05 -0 -2.97777e-05 -0 -2.46465e-07)
(1.95714e-05 3.52952e-05 -0 -1.95585e-05 -0 -1.28373e-08)
(5.19766e-06 4.04576e-05 -0 -5.26545e-06 -0 6.77945e-08)
(-1.25149e-05 4.43085e-05 -0 1.21106e-05 -0 4.04255e-07)
(-3.2774e-05 4.6559e-05 -0 3.2133e-05 -0 6.41025e-07)
(-5.27555e-05 4.51793e-05 -0 5.19543e-05 -0 8.01222e-07)
(-6.82095e-05 3.9023e-05 -0 6.73399e-05 -0 8.69651e-07)
(-7.39203e-05 2.78884e-05 -0 7.31452e-05 -0 7.75087e-07)
(-6.68496e-05 1.37298e-05 -0 6.61704e-05 -0 6.79262e-07)
(-4.40168e-05 5.54736e-07 -0 4.39851e-05 -0 3.17367e-08)
(-1.84822e-05 -9.49188e-06 -0 1.79094e-05 -0 5.72885e-07)
(1.41818e-05 -1.25823e-05 -0 -1.39673e-05 -0 -2.14469e-07)
(3.86721e-05 -5.63033e-06 -0 -3.92244e-05 -0 5.52328e-07)
(5.61208e-05 2.7487e-07 -0 -5.60639e-05 -0 -5.69431e-08)
(6.65468e-05 5.44735e-06 -0 -6.62629e-05 -0 -2.83853e-07)
(7.25984e-05 9.49225e-06 -0 -7.23117e-05 -0 -2.8672e-07)
(7.53202e-05 1.3111e-05 -0 -7.50537e-05 -0 -2.66534e-07)
(7.50825e-05 1.72414e-05 -0 -7.48349e-05 -0 -2.47651e-07)
(7.18576e-05 2.26697e-05 -0 -7.16496e-05 -0 -2.07947e-07)
(6.53036e-05 3.00059e-05 -0 -6.51543e-05 -0 -1.49302e-07)
(5.4656e-05 3.95472e-05 -0 -5.45994e-05 -0 -5.6511e-08)
(3.88173e-05 5.10872e-05 -0 -3.89258e-05 -0 1.08447e-07)
(1.67124e-05 6.37472e-05 -0 -1.69457e-05 -0 2.33329e-07)
(-1.16808e-05 7.54594e-05 -0 1.13098e-05 -0 3.70952e-07)
(-4.49318e-05 8.25996e-05 -0 4.44279e-05 -0 5.0398e-07)
(-7.86631e-05 8.05549e-05 -0 7.81725e-05 -0 4.90641e-07)
(-0.000104829 6.60955e-05 -0 0.000104522 -0 3.07106e-07)
(-0.000113566 4.09359e-05 -0 0.000113634 -0 -6.80038e-08)
(-9.98708e-05 1.33347e-05 -0 0.00010012 -0 -2.49126e-07)
(-6.26968e-05 -7.04781e-06 -0 6.34227e-05 -0 -7.25919e-07)
(-2.49738e-05 -2.37291e-05 -0 2.44924e-05 -0 4.81364e-07)
(1.63048e-05 -2.16339e-05 -0 -1.59874e-05 -0 -3.17333e-07)
(4.72071e-05 -1.05373e-05 -0 -4.79101e-05 -0 7.03014e-07)
(6.96846e-05 -4.31128e-06 -0 -6.98685e-05 -0 1.83893e-07)
(8.34378e-05 1.56093e-06 -0 -8.33454e-05 -0 -9.24394e-08)
(9.21558e-05 7.1099e-06 -0 -9.20841e-05 -0 -7.1716e-08)
(9.74124e-05 1.28661e-05 -0 -9.73824e-05 -0 -2.99556e-08)
(9.95596e-05 1.99263e-05 -0 -9.9542e-05 -0 -1.75904e-08)
(9.8421e-05 2.94788e-05 -0 -9.84239e-05 -0 2.94508e-09)
(9.33839e-05 4.25968e-05 -0 -9.34284e-05 -0 4.44632e-08)
(8.32595e-05 5.99688e-05 -0 -8.33794e-05 -0 1.19882e-07)
(6.61823e-05 8.1439e-05 -0 -6.64085e-05 -0 2.26243e-07)
(3.99958e-05 0.000105319 -0 -4.02923e-05 -0 2.96484e-07)
(3.32087e-06 0.000128124 -0 -3.70392e-06 -0 3.83054e-07)
(-4.35191e-05 0.000142421 -0 4.30457e-05 -0 4.73381e-07)
(-9.48933e-05 0.000138836 -0 9.45788e-05 -0 3.14476e-07)
(-0.000137203 0.000110632 -0 0.000137424 -0 -2.21797e-07)
(-0.000152125 6.28987e-05 -0 0.000153052 -0 -9.26315e-07)
(-0.00013106 1.47255e-05 -0 0.000131853 -0 -7.92756e-07)
(-7.68436e-05 -1.55523e-05 -0 7.76977e-05 -0 -8.54095e-07)
(-2.81533e-05 -4.06099e-05 -0 2.74422e-05 -0 7.11155e-07)
(1.73089e-05 -3.11403e-05 -0 -1.69774e-05 -0 -3.31485e-07)
(5.29366e-05 -1.4189e-05 -0 -5.37315e-05 -0 7.94955e-07)
(7.99124e-05 -7.75686e-06 -0 -8.01948e-05 -0 2.8248e-07)
(9.67001e-05 -1.90835e-06 -0 -9.66439e-05 -0 -5.62321e-08)
(0.000108069 4.47376e-06 -0 -0.00010803 -0 -3.94393e-08)
(0.000116289 1.19613e-05 -0 -0.000116314 -0 2.49072e-08)
(0.000122076 2.17818e-05 -0 -0.000122118 -0 4.21036e-08)
(0.000125296 3.55285e-05 -0 -0.000125349 -0 5.36881e-08)
(0.000125149 5.49052e-05 -0 -0.000125234 -0 8.4914e-08)
(0.000119824 8.13345e-05 -0 -0.000119981 -0 1.57178e-07)
(0.000106127 0.00011518 -0 -0.000106403 -0 2.76059e-07)
(7.96862e-05 0.000154473 -0 -8.00644e-05 -0 3.78124e-07)
(3.5927e-05 0.000193734 -0 -3.64601e-05 -0 5.33103e-07)
(-2.79176e-05 0.000221093 -0 2.70301e-05 -0 8.8757e-07)
(-0.000105703 0.000218783 -0 0.000104883 -0 8.19654e-07)
(-0.000174046 0.000172052 -0 0.000174253 -0 -2.07233e-07)
(-0.000199243 9.09189e-05 -0 0.000200852 -0 -1.6095e-06)
(-0.000166733 1.2203e-05 -0 0.000167654 -0 -9.21185e-07)
(-8.86081e-05 -2.98766e-05 -0 8.92665e-05 -0 -6.58364e-07)
(-2.82338e-05 -6.01926e-05 -0 2.73201e-05 -0 9.13732e-07)
(1.76572e-05 -4.08382e-05 -0 -1.73207e-05 -0 -3.36577e-07)
(5.64831e-05 -1.71731e-05 -0 -5.73116e-05 -0 8.28527e-07)
(8.74271e-05 -1.05097e-05 -0 -8.77257e-05 -0 2.9862e-07)
(0.00010721 -5.40735e-06 -0 -0.000107111 -0 -9.87272e-08)
(0.000121511 6.31823e-07 -0 -0.000121385 -0 -1.25552e-07)
(0.000133403 8.49431e-06 -0 -0.000133339 -0 -6.33867e-08)
(0.000144257 1.96539e-05 -0 -0.000144208 -0 -4.91443e-08)
(0.000154299 3.62328e-05 -0 -0.000154256 -0 -4.29604e-08)
(0.000162794 6.08672e-05 -0 -0.000162784 -0 -1.07109e-08)
(0.000167364 9.63358e-05 -0 -0.000167445 -0 8.06268e-08)
(0.000163091 0.000144543 -0 -0.000163329 -0 2.37093e-07)
(0.000141788 0.000204042 -0 -0.000142252 -0 4.63199e-07)
(9.36445e-05 0.000267997 -0 -9.45183e-05 -0 8.73857e-07)
(9.35733e-06 0.000318657 -0 -1.12266e-05 -0 1.8693e-06)
(-0.000105454 0.000323423 -0 0.000102777 -0 2.67761e-06)
(-0.000212406 0.000255338 -0 0.00021142 -0 9.85836e-07)
(-0.000253283 0.000129769 -0 0.000255044 -0 -1.76146e-06)
(-0.000206261 7.60124e-06 -0 0.0002066 -0 -3.38779e-07)
(-9.51821e-05 -5.46695e-05 -0 9.39629e-05 -0 1.2192e-06)
(-2.10162e-05 -8.32271e-05 -0 1.95712e-05 -0 1.44501e-06)
(1.76137e-05 -5.06021e-05 -0 -1.72744e-05 -0 -3.39231e-07)
(5.83412e-05 -2.00658e-05 -0 -5.91856e-05 -0 8.44344e-07)
(9.24516e-05 -1.32176e-05 -0 -9.2768e-05 -0 3.16378e-07)
(0.000114973 -9.54277e-06 -0 -0.00011487 -0 -1.03082e-07)
(0.000132261 -5.22344e-06 -0 -0.000132085 -0 -1.75374e-07)
(0.000148273 1.04268e-06 -0 -0.00014814 -0 -1.33187e-07)
(0.000165343 1.10529e-05 -0 -0.000165202 -0 -1.40572e-07)
(0.000184548 2.75724e-05 -0 -0.000184385 -0 -1.62555e-07)
(0.000205802 5.45172e-05 -0 -0.000205633 -0 -1.68321e-07)
(0.000226615 9.68584e-05 -0 -0.00022652 -0 -9.48121e-08)
(0.000240127 0.000159322 -0 -0.000240236 -0 1.09224e-07)
(0.000233948 0.000243168 -0 -0.00023435 -0 4.02108e-07)
(0.000189409 0.000339951 -0 -0.000190555 -0 1.14638e-06)
(8.82015e-05 0.000426749 -0 -9.17857e-05 -0 3.58425e-06)
(-6.58856e-05 0.000449645 -0 5.78924e-05 -0 7.99314e-06)
(-0.000210408 0.000366075 -0 0.000203112 -0 7.29555e-06)
(-0.000281599 0.000212525 -0 0.000278681 -0 2.91828e-06)
(-0.000245458 4.27521e-05 -0 0.000244296 -0 1.16147e-06)
(-0.000107766 -6.76646e-05 -0 0.000106312 -0 1.45403e-06)
(-2.43767e-06 -0.000105418 -0 2.27583e-06 -0 1.61842e-07)
(1.72986e-05 -6.03226e-05 -0 -1.6961e-05 -0 -3.37522e-07)
(5.87633e-05 -2.31042e-05 -0 -5.96072e-05 -0 8.43894e-07)
(9.49676e-05 -1.62073e-05 -0 -9.52956e-05 -0 3.27981e-07)
(0.000119475 -1.4623e-05 -0 -0.000119386 -0 -8.91308e-08)
(0.000139208 -1.35074e-05 -0 -0.000139009 -0 -1.99669e-07)
(0.000159081 -1.12579e-05 -0 -0.0001589 -0 -1.80486e-07)
(0.000182713 -5.86634e-06 -0 -0.000182494 -0 -2.19357e-07)
(0.000212625 5.96276e-06 -0 -0.000212325 -0 -2.99694e-07)
(0.000250266 2.94643e-05 -0 -0.000249859 -0 -4.07374e-07)
(0.000294103 7.23752e-05 -0 -0.000293661 -0 -4.41628e-07)
(0.000336159 0.00014351 -0 -0.000335899 -0 -2.5957e-07)
(0.000360225 0.000247534 -0 -0.000360108 -0 -1.17052e-07)
(0.000340749 0.000378791 -0 -0.000341564 -0 8.14519e-07)
(0.000243012 0.000500847 -0 -0.000249116 -0 6.10413e-06)
(7.04095e-05 0.00054847 -0 -8.34555e-05 -0 1.30459e-05)
(-0.000109905 0.000469042 -0 0.000100138 -0 9.76654e-06)
(-0.000260785 0.000346106 -0 0.000258332 -0 2.45229e-06)
(-0.000316161 0.000144714 -0 0.000311404 -0 4.75715e-06)
(-0.000187426 -3.43205e-05 -0 0.000187403 -0 2.30129e-08)
(1.7836e-06 -0.000124614 -0 1.69045e-06 -0 -3.47405e-06)
(1.67789e-05 -6.98925e-05 -0 -1.64505e-05 -0 -3.28407e-07)
(5.79335e-05 -2.62435e-05 -0 -5.87689e-05 -0 8.35415e-07)
(9.48904e-05 -1.93524e-05 -0 -9.52263e-05 -0 3.35898e-07)
(0.000120036 -2.03776e-05 -0 -0.00011997 -0 -6.54138e-08)
(0.000140807 -2.38819e-05 -0 -0.000140601 -0 -2.05781e-07)
(0.000163115 -2.82663e-05 -0 -0.000162907 -0 -2.07536e-07)
(0.000192066 -3.16876e-05 -0 -0.000191788 -0 -2.78041e-07)
(0.00023209 -3.0893e-05 -0 -0.000231659 -0 -4.31162e-07)
(0.000287107 -2.0057e-05 -0 -0.000286375 -0 -7.31874e-07)
(0.000357942 1.07386e-05 -0 -0.000356917 -0 -1.02495e-06)
(0.000437336 7.36804e-05 -0 -0.000436701 -0 -6.34687e-07)
(0.000510061 0.000174613 -0 -0.000509994 -0 -6.62375e-08)
(0.000541984 0.000314394 -0 -0.000542596 -0 6.12464e-07)
(0.000463843 0.000455469 -0 -0.000466218 -0 2.37466e-06)
(0.000269052 0.000528206 -0 -0.00026714 -0 -1.91203e-06)
(2.44845e-05 0.000520912 -0 -1.87558e-05 -0 -5.72873e-06)
(-0.000246318 0.000497814 -0 0.000255019 -0 -8.7005e-06)
(-0.000472665 0.000300643 -0 0.000477333 -0 -4.66755e-06)
(-0.000428425 -8.67943e-07 -0 0.000418413 -0 1.00117e-05)
(-8.6994e-05 -0.000159677 -0 8.03058e-05 -0 6.68822e-06)
(1.61259e-05 -7.92101e-05 -0 -1.58124e-05 -0 -3.13501e-07)
(5.60642e-05 -2.92193e-05 -0 -5.68929e-05 -0 8.28716e-07)
(9.21957e-05 -2.2074e-05 -0 -9.25456e-05 -0 3.49903e-07)
(0.000116013 -2.58469e-05 -0 -0.000115985 -0 -2.75921e-08)
(0.000135416 -3.49832e-05 -0 -0.000135232 -0 -1.83446e-07)
(0.000157218 -4.82722e-05 -0 -0.000157028 -0 -1.90488e-07)
(0.000187853 -6.46136e-05 -0 -0.000187583 -0 -2.69416e-07)
(0.000233521 -8.18098e-05 -0 -0.000233045 -0 -4.76497e-07)
(0.000300727 -9.52417e-05 -0 -0.000299649 -0 -1.07816e-06)
(0.000392979 -9.59642e-05 -0 -0.000391092 -0 -1.88747e-06)
(0.000503518 -7.3367e-05 -0 -0.000502935 -0 -5.82394e-07)
(0.000627211 -2.17501e-05 -0 -0.000625635 -0 -1.57599e-06)
(0.000701811 8.50344e-05 -0 -0.000690891 -0 -1.09201e-05)
(0.000610729 0.000248223 -0 -0.000595065 -0 -1.56632e-05)
(0.000378054 0.000395497 -0 -0.000366519 -0 -1.15349e-05)
(0.000117805 0.000508456 -0 -0.000102216 -0 -1.55887e-05)
(-0.000187167 0.000534812 -0 0.000207519 -0 -2.03517e-05)
(-0.00051573 0.000331596 -0 0.000536699 -0 -2.09691e-05)
(-0.000779945 -6.94443e-05 -0 0.000781492 -0 -1.54668e-06)
(-0.000392117 -0.000282131 -0 0.000382702 -0 9.41433e-06)
(1.54868e-05 -8.81867e-05 -0 -1.52055e-05 -0 -2.81341e-07)
(5.34891e-05 -3.16079e-05 -0 -5.43192e-05 -0 8.30104e-07)
(8.70497e-05 -2.33671e-05 -0 -8.74307e-05 -0 3.80981e-07)
(0.000107038 -2.93777e-05 -0 -0.000107065 -0 2.68251e-08)
(0.000121783 -4.43207e-05 -0 -0.000121659 -0 -1.2478e-07)
(0.000138698 -6.76012e-05 -0 -0.000138602 -0 -9.62142e-08)
(0.000164819 -9.92785e-05 -0 -0.000164712 -0 -1.06743e-07)
(0.000206898 -0.00013907 -0 -0.000206686 -0 -2.1218e-07)
(0.000272126 -0.0001853 -0 -0.000271328 -0 -7.98688e-07)
(0.000363726 -0.000233512 -0 -0.000362363 -0 -1.36308e-06)
(0.000471024 -0.000277093 -0 -0.000473388 -0 2.364e-06)
(0.00059047 -0.000295082 -0 -0.000592075 -0 1.60506e-06)
(0.000647966 -0.000208458 -0 -0.000634769 -0 -1.31975e-05)
(0.000545294 -1.60698e-05 -0 -0.000524239 -0 -2.1055e-05)
(0.000367633 0.000182063 -0 -0.000355187 -0 -1.24466e-05)
(0.000168693 0.000321556 -0 -0.000170096 -0 1.40313e-06)
(-3.24588e-05 0.000352124 -0 3.2199e-05 -0 2.59724e-07)
(-0.00032528 0.000245711 -0 0.000335421 -0 -1.01414e-05)
(-0.000760149 -0.000154928 -0 0.000805432 -0 -4.52835e-05)
(-0.000898741 -0.000752446 -0 0.000902678 -0 -3.9364e-06)
(1.50639e-05 -9.68233e-05 -0 -1.47931e-05 -0 -2.70753e-07)
(5.07184e-05 -3.26723e-05 -0 -5.15597e-05 -0 8.41325e-07)
(7.99415e-05 -2.18708e-05 -0 -8.03456e-05 -0 4.04186e-07)
(9.32639e-05 -2.88224e-05 -0 -9.33482e-05 -0 8.42807e-08)
(9.96626e-05 -4.86086e-05 -0 -9.9627e-05 -0 -3.55213e-08)
(0.000106718 -8.10029e-05 -0 -0.000106787 -0 6.92203e-08)
(0.000121029 -0.000127012 -0 -0.00012123 -0 2.00343e-07)
(0.000148106 -0.00018814 -0 -0.000148473 -0 3.66929e-07)
(0.000193055 -0.000265508 -0 -0.000193434 -0 3.79226e-07)
(0.000256061 -0.000358391 -0 -0.000257063 -0 1.00221e-06)
(0.00032347 -0.000460939 -0 -0.000329912 -0 6.44193e-06)
(0.000379022 -0.000521217 -0 -0.000388617 -0 9.59452e-06)
(0.000408049 -0.000438627 -0 -0.000401302 -0 -6.7465e-06)
(0.000337638 -0.000219136 -0 -0.000322981 -0 -1.46575e-05)
(0.000221389 -1.30034e-05 -0 -0.000227638 -0 6.24913e-06)
(0.000135171 0.000113993 -0 -0.000164215 -0 2.90439e-05)
(0.000114219 0.000165706 -0 -0.000142037 -0 2.7818e-05)
(3.07242e-05 0.000165984 -0 -5.68793e-05 -0 2.61551e-05)
(-0.000428294 -0.000123964 -0 0.000446321 -0 -1.80263e-05)
(-0.00111798 -0.00148103 -0 0.00114027 -0 -2.22852e-05)
(1.54063e-05 -0.000105144 -0 -1.52535e-05 -0 -1.52811e-07)
(4.8657e-05 -3.18512e-05 -0 -4.9649e-05 -0 9.92046e-07)
(7.15795e-05 -1.61629e-05 -0 -7.20911e-05 -0 5.11686e-07)
(7.54208e-05 -2.21431e-05 -0 -7.55873e-05 -0 1.66566e-07)
(7.02527e-05 -4.48417e-05 -0 -7.03097e-05 -0 5.70953e-08)
(6.35594e-05 -8.35391e-05 -0 -6.3779e-05 -0 2.19628e-07)
(6.05254e-05 -0.000139265 -0 -6.10009e-05 -0 4.75465e-07)
(6.41251e-05 -0.000214063 -0 -6.50025e-05 -0 8.77378e-07)
(7.57744e-05 -0.000309824 -0 -7.7293e-05 -0 1.51859e-06)
(9.25005e-05 -0.000426937 -0 -9.52359e-05 -0 2.73545e-06)
(0.000100368 -0.000557006 -0 -0.000107801 -0 7.43253e-06)
(8.21655e-05 -0.000627843 -0 -9.41266e-05 -0 1.19611e-05)
(6.29146e-05 -0.000526335 -0 -6.49894e-05 -0 2.07478e-06)
(6.07283e-05 -0.000290919 -0 -5.22647e-05 -0 -8.46362e-06)
(3.85515e-05 -6.34378e-05 -0 -5.37537e-05 -0 1.52022e-05)
(3.88166e-05 6.6554e-05 -0 -6.95486e-05 -0 3.0732e-05)
(0.000166897 0.000124625 -0 -0.000194498 -0 2.76012e-05)
(0.00032065 0.000203518 -0 -0.000347394 -0 2.67439e-05)
(5.27498e-05 9.81243e-05 -0 -9.72142e-05 -0 4.44644e-05)
(-0.000891326 -0.00199004 -0 0.000925382 -0 -3.40567e-05)
(1.6469e-05 -0.000113714 -0 -1.59772e-05 -0 -4.91777e-07)
(4.75765e-05 -2.70966e-05 -0 -4.83626e-05 -0 7.86029e-07)
(6.24254e-05 -4.51226e-06 -0 -6.26991e-05 -0 2.73713e-07)
(5.42253e-05 -8.0091e-06 -0 -5.42176e-05 -0 -7.68492e-09)
(3.57974e-05 -3.18231e-05 -0 -3.58026e-05 -0 5.18961e-09)
(1.40112e-05 -7.2835e-05 -0 -1.41968e-05 -0 1.85664e-07)
(-7.82716e-06 -0.000131419 -0 7.36995e-06 -0 4.57212e-07)
(-2.95381e-05 -0.000208996 -0 2.87357e-05 -0 8.02393e-07)
(-5.32318e-05 -0.000305813 -0 5.17765e-05 -0 1.45524e-06)
(-8.34e-05 -0.000419716 -0 8.05751e-05 -0 2.82492e-06)
(-0.000129251 -0.000536196 -0 0.000124687 -0 4.5641e-06)
(-0.00020177 -0.000597614 -0 0.000195539 -0 6.23127e-06)
(-0.000257991 -0.000498265 -0 0.000254951 -0 3.03961e-06)
(-0.000203717 -0.000250515 -0 0.000215727 -0 -1.20103e-05)
(-0.000116872 9.636e-06 -0 0.000116078 -0 7.937e-07)
(3.51564e-07 0.000166501 -0 -1.6073e-05 -0 1.57214e-05)
(0.000188975 0.000215152 -0 -0.000198756 -0 9.78124e-06)
(0.000448308 0.000328204 -0 -0.000430312 -0 -1.79957e-05)
(0.000369729 0.000425192 -0 -0.000427269 -0 5.75404e-05)
(-0.00048407 -0.00215997 -0 0.000502884 -0 -1.88141e-05)
(2.12553e-05 -0.000121741 -0 -2.1846e-05 -0 5.9075e-07)
(4.95802e-05 -2.10198e-05 -0 -5.15315e-05 -0 1.9513e-06)
(5.20842e-05 1.17888e-05 -0 -5.26762e-05 -0 5.92027e-07)
(2.96174e-05 1.12018e-05 -0 -2.93639e-05 -0 -2.53494e-07)
(-1.29844e-06 -1.2138e-05 -0 1.5302e-06 -0 -2.31766e-07)
(-3.49875e-05 -5.16374e-05 -0 3.49138e-05 -0 7.37093e-08)
(-7.18502e-05 -0.000106 -0 7.14571e-05 -0 3.93112e-07)
(-0.000113128 -0.000175026 -0 0.000112853 -0 2.7531e-07)
(-0.00016334 -0.000259003 -0 0.00016297 -0 3.69578e-07)
(-0.000226937 -0.000352661 -0 0.000225438 -0 1.49882e-06)
(-0.000308127 -0.00043948 -0 0.000306505 -0 1.62192e-06)
(-0.000406592 -0.000477208 -0 0.00040664 -0 -4.8295e-08)
(-0.000480078 -0.000373814 -0 0.000486648 -0 -6.56979e-06)
(-0.000420774 -0.000127181 -0 0.000440629 -0 -1.98548e-05)
(-0.000234635 0.000121954 -0 0.000250709 -0 -1.60734e-05)
(5.8631e-06 0.000297918 -0 -1.30029e-05 -0 7.13979e-06)
(0.000276296 0.00037533 -0 -0.000281151 -0 4.85452e-06)
(0.00047375 0.000452059 -0 -0.000434284 -0 -3.94661e-05)
(0.000462837 0.000683239 -0 -0.000486319 -0 2.34829e-05)
(-0.000170043 -0.00212767 -0 0.000171076 -0 -1.03363e-06)
(2.21211e-05 -0.000134177 -0 -1.77192e-05 -0 -4.40188e-06)
(4.15994e-05 3.08135e-06 -0 -3.45484e-05 -0 -7.05104e-06)
(3.14849e-05 3.74127e-05 -0 -2.34888e-05 -0 -7.99608e-06)
(-1.54063e-06 3.05979e-05 -0 6.48115e-06 -0 -4.94052e-06)
(-3.81849e-05 4.14916e-06 -0 4.09698e-05 -0 -2.7849e-06)
(-7.62597e-05 -3.18806e-05 -0 7.76782e-05 -0 -1.41852e-06)
(-0.000117881 -7.60611e-05 -0 0.000118117 -0 -2.36463e-07)
(-0.000167092 -0.000129273 -0 0.0001666 -0 4.92189e-07)
(-0.000228647 -0.000192052 -0 0.000227473 -0 1.17426e-06)
(-0.000304844 -0.000257795 -0 0.000303215 -0 1.62881e-06)
(-0.0003939 -0.000310145 -0 0.000392789 -0 1.11123e-06)
(-0.00049349 -0.000321036 -0 0.000494623 -0 -1.13299e-06)
(-0.000563333 -0.00022662 -0 0.000571524 -0 -8.19197e-06)
(-0.000511645 -9.20283e-06 -0 0.000530772 -0 -1.91271e-05)
(-0.000308491 0.000234633 -0 0.000325805 -0 -1.73142e-05)
(1.19424e-05 0.00038687 -0 -1.06867e-05 -0 -1.25576e-06)
(0.000330707 0.000472041 -0 -0.000337146 -0 6.43848e-06)
(0.000463139 0.000472981 -0 -0.000438509 -0 -2.46303e-05)
(0.0004942 0.000873974 -0 -0.000483969 -0 -1.02315e-05)
(-1.80507e-05 -0.00207448 -0 4.86277e-05 -0 -3.0577e-05)
(5.43462e-05 -0.000131695 -0 -6.79257e-05 -0 1.35796e-05)
(8.086e-05 5.47253e-06 -0 -0.000116579 -0 3.57187e-05)
(4.01001e-05 2.84667e-05 -0 -7.76918e-05 -0 3.75917e-05)
(-6.53426e-06 1.16862e-05 -0 -1.97528e-05 -0 2.62871e-05)
(-4.34302e-05 -1.48929e-05 -0 2.49567e-05 -0 1.84735e-05)
(-7.79701e-05 -4.76098e-05 -0 6.45629e-05 -0 1.34073e-05)
(-0.000115604 -8.39398e-05 -0 0.000105268 -0 1.03362e-05)
(-0.000160348 -0.000122616 -0 0.000151656 -0 8.69191e-06)
(-0.00021641 -0.000163533 -0 0.000208768 -0 7.64212e-06)
(-0.000286007 -0.000204267 -0 0.000279581 -0 6.42596e-06)
(-0.000365712 -0.000235047 -0 0.000360715 -0 4.99704e-06)
(-0.000441981 -0.000234247 -0 0.000439321 -0 2.66004e-06)
(-0.000489104 -0.000169171 -0 0.000490072 -0 -9.67686e-07)
(-0.000434323 -2.15796e-05 -0 0.000439787 -0 -5.46406e-06)
(-0.00026606 0.000159495 -0 0.000267878 -0 -1.81755e-06)
(2.44562e-05 0.000274766 -0 -2.46704e-05 -0 2.14233e-07)
(0.000262556 0.000378032 -0 -0.000282052 -0 1.94959e-05)
(0.00035209 0.000318355 -0 -0.000343021 -0 -9.06948e-06)
(0.000495601 0.000982722 -0 -0.000473052 -0 -2.25487e-05)
(9.88705e-05 -0.00211469 -0 -2.83261e-05 -0 -7.05443e-05)
(2.10871e-05 -0.000206 -0 1.22646e-05 -0 -3.33517e-05)
(-6.18133e-05 6.26972e-05 -0 0.000138113 -0 -7.62999e-05)
(-0.000105809 3.76778e-05 -0 0.000174633 -0 -6.88243e-05)
(-9.88596e-05 -2.68484e-05 -0 0.000145241 -0 -4.63817e-05)
(-9.67924e-05 -9.06904e-05 -0 0.000129123 -0 -3.23309e-05)
(-0.000104315 -0.000141899 -0 0.000128253 -0 -2.39386e-05)
(-0.000115699 -0.000184564 -0 0.000134115 -0 -1.84162e-05)
(-0.000131374 -0.000222215 -0 0.00014601 -0 -1.46359e-05)
(-0.000154888 -0.000257349 -0 0.000167034 -0 -1.21461e-05)
(-0.000189047 -0.000292117 -0 0.000199708 -0 -1.06614e-05)
(-0.000233474 -0.000324597 -0 0.000243339 -0 -9.8653e-06)
(-0.000280076 -0.000344835 -0 0.000289821 -0 -9.74446e-06)
(-0.000310425 -0.000335175 -0 0.000319631 -0 -9.20586e-06)
(-0.000279544 -0.000271851 -0 0.000287857 -0 -8.3133e-06)
(-0.000182358 -0.00018092 -0 0.000184728 -0 -2.36959e-06)
(1.66625e-05 -0.00010248 -0 -6.49214e-06 -0 -1.01703e-05)
(0.000111414 1.39462e-05 -0 -0.000150161 -0 3.87466e-05)
(0.000303684 1.73424e-05 -0 -0.000296617 -0 -7.06706e-06)
(0.000546248 0.00103878 -0 -0.0005592 -0 1.29517e-05)
(0.000405928 -0.00245286 -0 -0.000447788 -0 4.18597e-05)
(0.000132272 -0.000195604 -0 -0.000188508 -0 5.62355e-05)
(3.50075e-05 -0.0001925 -0 -0.000101645 -0 6.6637e-05)
(-5.0515e-05 -0.00031502 -0 1.25638e-06 -0 4.92586e-05)
(-7.84123e-05 -0.000395017 -0 4.61426e-05 -0 3.22697e-05)
(-9.28836e-05 -0.000442841 -0 6.83143e-05 -0 2.45693e-05)
(-9.79913e-05 -0.000487335 -0 7.88859e-05 -0 1.91054e-05)
(-0.000100903 -0.000532534 -0 8.59127e-05 -0 1.499e-05)
(-0.000105026 -0.000575205 -0 9.32512e-05 -0 1.1775e-05)
(-0.000112002 -0.000614053 -0 0.000102789 -0 9.2126e-06)
(-0.000122629 -0.000649398 -0 0.000115509 -0 7.11964e-06)
(-0.000136736 -0.000680921 -0 0.000131389 -0 5.34705e-06)
(-0.000151755 -0.000708041 -0 0.000148142 -0 3.61269e-06)
(-0.000162295 -0.000727022 -0 0.000159415 -0 2.87935e-06)
(-0.000152275 -0.000731282 -0 0.000150798 -0 1.47709e-06)
(-0.00011917 -0.000709058 -0 0.0001129 -0 6.26956e-06)
(-3.36227e-06 -0.000698811 -0 9.40738e-06 -0 -6.04512e-06)
(2.07283e-05 -0.000641738 -0 -7.08633e-05 -0 5.0135e-05)
(0.000529137 -0.000679004 -0 -0.00043605 -0 -9.30872e-05)
(0.000535105 0.000520691 -0 -0.000686387 -0 0.000151282)
(0.00155572 -0.00398989 -0 -0.00184021 -0 0.000284489)
(-0.000986735 -0.00989588 -0 0.0010097 -0 -2.29662e-05)
(-0.000648803 -0.0105042 -0 0.000771546 -0 -0.000122743)
(-0.000611614 -0.0115218 -0 0.000641702 -0 -3.00881e-05)
(-0.000517946 -0.0120578 -0 0.000536327 -0 -1.83806e-05)
(-0.000431655 -0.0122931 -0 0.000454789 -0 -2.31339e-05)
(-0.000378668 -0.0123738 -0 0.000397997 -0 -1.9329e-05)
(-0.000345438 -0.0123669 -0 0.000358873 -0 -1.34348e-05)
(-0.000320542 -0.0123052 -0 0.000330277 -0 -9.73492e-06)
(-0.000300969 -0.0122047 -0 0.000308534 -0 -7.56475e-06)
(-0.000286345 -0.0120766 -0 0.000292321 -0 -5.97595e-06)
(-0.000276049 -0.0119347 -0 0.000280839 -0 -4.79043e-06)
(-0.000266719 -0.0117736 -0 0.000271033 -0 -4.31413e-06)
(-0.000255512 -0.0115953 -0 0.000259367 -0 -3.85524e-06)
(-0.000227225 -0.0114284 -0 0.000233189 -0 -5.96396e-06)
(-0.000195228 -0.0112768 -0 0.000194533 -0 6.9542e-07)
(-4.68977e-05 -0.0111827 -0 7.46312e-05 -0 -2.77335e-05)
(-0.000124798 -0.0112832 -0 5.16475e-05 -0 7.31505e-05)
(0.00107851 -0.0111472 -0 -0.000711755 -0 -0.000366756)
(-0.000976565 -0.0121758 -0 0.000207447 -0 0.000769118)
(0.00596721 -0.0110095 -0 -0.00516139 -0 -0.000805826)
)
;

boundaryField
{
    movingWall
    {
        type            calculated;
        value           nonuniform List<symmTensor> 
20
(
(-0.000384808 -0.00399931 -0 0.000562399 -0 -0.000177591)
(-0.000249685 -0.00370012 -0 0.000404364 -0 -0.000154679)
(-0.00019305 -0.00386189 -0 0.000284912 -0 -9.18614e-05)
(-0.000145905 -0.00397694 -0 0.000205137 -0 -5.92325e-05)
(-0.00011384 -0.00401565 -0 0.000156922 -0 -4.30827e-05)
(-9.48614e-05 -0.00401724 -0 0.000127548 -0 -3.26868e-05)
(-8.2618e-05 -0.00399651 -0 0.000107826 -0 -2.52078e-05)
(-7.35547e-05 -0.00396179 -0 9.3382e-05 -0 -1.98273e-05)
(-6.64748e-05 -0.0039178 -0 8.22347e-05 -0 -1.57599e-05)
(-6.09805e-05 -0.00386762 -0 7.34972e-05 -0 -1.25167e-05)
(-5.67381e-05 -0.00381542 -0 6.65815e-05 -0 -9.84342e-06)
(-5.29741e-05 -0.00375948 -0 6.05752e-05 -0 -7.60109e-06)
(-4.93056e-05 -0.00370035 -0 5.50841e-05 -0 -5.7785e-06)
(-4.3337e-05 -0.00364574 -0 4.8398e-05 -0 -5.06091e-06)
(-3.75789e-05 -0.00359683 -0 4.12599e-05 -0 -3.68103e-06)
(-1.31671e-05 -0.00356272 -0 2.30188e-05 -0 -9.85165e-06)
(-2.88982e-05 -0.00359768 -0 2.35618e-05 -0 5.33638e-06)
(0.000176584 -0.00351579 -0 -0.000103242 -0 -7.33418e-05)
(-0.000211593 -0.00408722 -0 0.000121799 -0 8.97935e-05)
(0.00108553 -0.00298981 -0 -0.000998585 -0 -8.69478e-05)
)
;
    }
    fixedWalls
    {
        type            calculated;
        value           nonuniform List<symmTensor> 
60
(
(1.91876e-06 7.14325e-08 -0 -2.31398e-06 -0 3.95224e-07)
(5.22433e-06 -3.87718e-06 -0 -5.27772e-06 -0 5.33967e-08)
(7.56944e-06 -1.09745e-05 -0 -7.40845e-06 -0 -1.60982e-07)
(8.51087e-06 -1.89814e-05 -0 -8.22613e-06 -0 -2.84739e-07)
(8.77863e-06 -2.72876e-05 -0 -8.49387e-06 -0 -2.84763e-07)
(8.72181e-06 -3.56085e-05 -0 -8.46559e-06 -0 -2.56219e-07)
(8.50288e-06 -4.38049e-05 -0 -8.28106e-06 -0 -2.21826e-07)
(8.18489e-06 -5.17813e-05 -0 -7.99787e-06 -0 -1.87022e-07)
(7.79886e-06 -5.94595e-05 -0 -7.6458e-06 -0 -1.53055e-07)
(7.37924e-06 -6.6777e-05 -0 -7.25577e-06 -0 -1.23469e-07)
(6.99933e-06 -7.36935e-05 -0 -6.90176e-06 -0 -9.75755e-08)
(6.77253e-06 -8.02826e-05 -0 -6.66655e-06 -0 -1.05984e-07)
(6.96237e-06 -8.66003e-05 -0 -6.86054e-06 -0 -1.01826e-07)
(7.59885e-06 -9.33899e-05 -0 -7.22918e-06 -0 -3.69671e-07)
(1.01553e-05 -9.96647e-05 -0 -9.99783e-06 -0 -1.57498e-07)
(1.14471e-05 -0.000111839 -0 -8.59869e-06 -0 -2.84842e-06)
(2.72495e-05 -0.000109307 -0 -3.10875e-05 -0 3.83796e-06)
(1.73422e-05 -0.000180176 -0 8.01031e-07 -0 -1.81432e-05)
(6.3527e-05 -0.000119271 -0 -7.84303e-05 -0 1.49033e-05)
(-0.000291437 -0.00233531 -0 0.000256734 -0 3.4703e-05)
(-4.41406e-06 -2.60272e-07 -0 4.99555e-06 -0 -5.81493e-07)
(-9.47451e-06 -8.14257e-06 -0 9.5398e-06 -0 -6.52939e-08)
(-1.2598e-05 -2.06422e-05 -0 1.25953e-05 -0 2.7219e-09)
(-1.336e-05 -3.45518e-05 -0 1.3443e-05 -0 -8.29749e-08)
(-1.20574e-05 -4.91675e-05 -0 1.25394e-05 -0 -4.8197e-07)
(-6.48785e-06 -6.33214e-05 -0 7.61773e-06 -0 -1.12988e-06)
(7.17632e-06 -7.10428e-05 -0 -3.08867e-06 -0 -4.08765e-06)
(2.42841e-05 -6.65775e-05 -0 -1.09663e-05 -0 -1.33177e-05)
(1.94636e-05 -5.94299e-05 -0 5.24171e-06 -0 -2.47053e-05)
(-7.33004e-05 -8.63858e-05 -0 9.66364e-05 -0 -2.3336e-05)
(-0.000239385 -0.000275194 -0 0.000235158 -0 4.22697e-06)
(-0.000307777 -0.000577802 -0 0.000284578 -0 2.31989e-05)
(-0.000264982 -0.000848748 -0 0.000235002 -0 2.99804e-05)
(-0.000172995 -0.00101437 -0 0.000140371 -0 3.26238e-05)
(-0.000100915 -0.00106206 -0 6.76999e-05 -0 3.32153e-05)
(-7.02438e-05 -0.0010725 -0 4.27852e-05 -0 2.74586e-05)
(-4.26127e-05 -0.00109712 -0 2.52205e-05 -0 1.73923e-05)
(5.88436e-05 -0.00115811 -0 -7.2264e-05 -0 1.34204e-05)
(0.000535509 -0.00138089 -0 -0.000452517 -0 -8.29917e-05)
(0.0025928 -0.00225158 -0 -0.00167339 -0 -0.000919403)
(2.30747e-06 -8.09468e-08 -0 -1.91911e-06 -0 -3.88357e-07)
(5.30968e-06 3.87644e-06 -0 -5.26032e-06 -0 -4.93541e-08)
(7.36677e-06 1.10843e-05 -0 -7.46252e-06 -0 9.57525e-08)
(8.01295e-06 1.90638e-05 -0 -8.19418e-06 -0 1.81233e-07)
(8.08504e-06 2.71724e-05 -0 -8.25422e-06 -0 1.69185e-07)
(7.84408e-06 3.50965e-05 -0 -7.99314e-06 -0 1.49061e-07)
(7.40791e-06 4.26702e-05 -0 -7.54418e-06 -0 1.36267e-07)
(6.77767e-06 4.97366e-05 -0 -6.91232e-06 -0 1.34649e-07)
(5.89618e-06 5.60911e-05 -0 -6.02958e-06 -0 1.33395e-07)
(4.65899e-06 6.14638e-05 -0 -4.7658e-06 -0 1.06815e-07)
(2.85993e-06 6.54041e-05 -0 -2.94608e-06 -0 8.61513e-08)
(7.61234e-07 6.72567e-05 -0 -8.95429e-07 -0 1.34195e-07)
(-2.01988e-06 6.69877e-05 -0 2.04065e-06 -0 -2.07674e-08)
(-5.22507e-06 6.34866e-05 -0 5.33762e-06 -0 -1.12556e-07)
(-8.44319e-06 5.67817e-05 -0 8.71135e-06 -0 -2.68166e-07)
(-1.12378e-05 4.68928e-05 -0 1.16597e-05 -0 -4.21852e-07)
(-1.29063e-05 3.4498e-05 -0 1.34269e-05 -0 -5.20606e-07)
(-1.27886e-05 2.09696e-05 -0 1.31442e-05 -0 -3.55589e-07)
(-9.76194e-06 8.24609e-06 -0 9.73187e-06 -0 3.00675e-08)
(-5.06732e-06 2.24683e-07 -0 4.44915e-06 -0 6.18167e-07)
)
;
    }
    frontAndBack
    {
        type            empty;
    }
}


// ************************************************************************* //
