/*--------------------------------*- C++ -*----------------------------------*\
| =========                 |                                                 |
| \\      /  F ield         | OpenFOAM: The Open Source CFD Toolbox           |
|  \\    /   O peration     | Version:  2312                                  |
|   \\  /    A nd           | Website:  www.openfoam.com                      |
|    \\/     M anipulation  |                                                 |
\*---------------------------------------------------------------------------*/
FoamFile
{
    version     2.0;
    format      ascii;
    arch        "LSB;label=32;scalar=64";
    class       volScalarField;
    location    "1";
    object      turbulenceProperties:omega;
}
// * * * * * * * * * * * * * * * * * * * * * * * * * * * * * * * * * * * * * //

dimensions      [0 0 -1 0 0 0 0];

internalField   nonuniform List<scalar> 
400
(
21.5606
25.4687
28.4632
30.4188
31.7492
32.7177
33.4767
34.1082
34.6476
35.0995
35.4456
35.609
35.6427
35.4263
34.8374
33.7713
32.0774
29.5346
25.7743
21.8754
25.4634
14.1183
13.2239
13.1445
13.1645
13.1884
13.1991
13.1864
13.1395
13.0501
12.903
12.7473
12.6585
12.5712
12.496
12.445
12.4701
12.7313
14.7171
25.9499
28.9103
12.5153
10.8219
10.4026
10.2365
10.1495
10.0893
10.0362
9.97847
9.91593
9.85298
9.8104
9.7997
9.83369
9.92933
10.1202
10.4862
11.2978
14.2302
29.161
31.279
12.2619
10.1511
9.57085
9.32466
9.18758
9.09998
9.03819
8.99326
8.96207
8.95072
8.976
9.03084
9.15657
9.36958
9.70324
10.239
11.2834
14.6901
31.3324
32.9711
12.2198
9.85663
9.19004
8.90677
8.7577
8.67017
8.61665
8.58659
8.57948
8.60511
8.68209
8.82322
9.06878
9.44745
9.99272
10.7381
11.924
15.5637
32.9322
34.237
12.2473
9.70418
8.9827
8.67748
8.52189
8.43726
8.39448
8.38391
8.40879
8.48498
8.65176
8.94903
9.46069
10.2842
11.3739
12.7109
14.1149
17.4
34.3133
35.2317
12.3014
9.62251
8.86057
8.54133
8.38307
8.30378
8.27481
8.29034
8.36306
8.52969
8.86318
9.51687
10.6794
12.6851
15.6985
18.6874
21.0701
22.5603
35.6968
36.0565
12.375
9.5813
8.78717
8.45827
8.29982
8.22805
8.21718
8.27023
8.42112
8.7541
9.44261
10.8282
13.5463
18.4595
26.4762
32.0574
36.0509
35.1886
37.8985
36.7791
12.4665
9.56649
8.74419
8.40774
8.25042
8.18812
8.20115
8.30974
8.58959
9.21862
10.5664
13.398
19.2189
29.4895
42.8802
48.4027
50.8738
51.9835
44.5522
37.4458
12.5747
9.57044
8.72103
8.37752
8.22168
8.1703
8.2138
8.40044
8.87324
9.95805
12.3226
17.4815
27.1481
39.8486
48.7866
54.0601
62.6229
66.3666
62.6079
38.0893
12.6986
9.58849
8.71124
8.36016
8.20544
8.16534
8.24334
8.52271
9.22463
10.8253
14.2709
21.4087
32.4026
41.8544
47.9336
53.6825
65.4611
79.8576
88.6517
38.7384
12.8372
9.6181
8.71182
8.3533
8.19927
8.16896
8.27733
8.63444
9.50713
11.3954
15.2863
22.152
31.9523
39.3135
41.0421
44.3534
58.4555
83.483
107.711
39.4117
12.9892
9.65947
8.72528
8.36123
8.20624
8.1811
8.30732
8.70132
9.60797
11.4448
15.0286
21.3297
29.1531
34.0745
32.8429
31.4193
45.6439
81.5089
116.481
40.1734
13.1619
9.72025
8.768
8.40484
8.25862
8.2396
8.36294
8.73537
9.57817
11.2414
14.2599
18.9088
24.3816
28.2658
27.8813
26.3243
35.0981
72.8111
121.848
40.9226
13.3449
9.83337
8.89444
8.5581
8.43664
8.43502
8.559
8.88966
9.58553
10.8656
13.0807
16.4724
20.1691
23.2912
23.6664
23.8478
32.1852
68.5401
126.77
42.0832
13.6859
10.1745
9.31928
9.07419
9.02868
9.08218
9.2266
9.51633
10.0775
11.0858
12.5747
14.7747
17.1912
18.614
20.1234
21.6709
31.1888
67.0076
132.326
42.6711
14.5927
11.4713
11.0051
11.0673
11.2786
11.5337
11.8023
12.1035
12.5088
13.1519
14.1947
15.6508
17.4831
18.3251
19.9966
22.6736
35.8294
75.7685
139.488
45.0335
19.4839
18.9611
20.1884
21.4994
22.7674
23.8754
24.7276
25.2845
25.5503
25.6188
25.7138
26.0228
27.1354
27.9475
30.5887
35.9633
55.2881
89.785
149.611
51.7624
56.882
68.3509
75.0823
79.0978
81.7749
83.499
84.4483
84.7779
84.5557
83.9207
82.9076
81.6063
80.8772
81.004
82.2225
85.6886
102.593
117.883
164.937
115.896
143.994
163.58
173.935
179.694
183.151
185.216
186.329
186.75
186.661
186.353
185.739
184.823
184.063
183.123
183.15
183.909
184.196
189.354
180.657
)
;

boundaryField
{
    movingWall
    {
        type            calculated;
        value           nonuniform List<scalar> 
20
(
115.896
143.994
163.58
173.935
179.694
183.151
185.216
186.329
186.75
186.661
186.353
185.739
184.823
184.063
183.123
183.15
183.909
184.196
189.354
180.657
)
;
    }
    fixedWalls
    {
        type            calculated;
        value           nonuniform List<scalar> 
60
(
21.5606
25.4634
28.9103
31.279
32.9711
34.237
35.2317
36.0565
36.7791
37.4458
38.0893
38.7384
39.4117
40.1734
40.9226
42.0832
42.6711
45.0335
51.7624
115.896
21.8754
25.9499
29.161
31.3324
32.9322
34.3133
35.6968
37.8985
44.5522
62.6079
88.6517
107.711
116.481
121.848
126.77
132.326
139.488
149.611
164.937
180.657
21.5606
25.4687
28.4632
30.4188
31.7492
32.7177
33.4767
34.1082
34.6476
35.0995
35.4456
35.609
35.6427
35.4263
34.8374
33.7713
32.0774
29.5346
25.7743
21.8754
)
;
    }
    frontAndBack
    {
        type            empty;
    }
}


// ************************************************************************* //
