/*--------------------------------*- C++ -*----------------------------------*\
| =========                 |                                                 |
| \\      /  F ield         | OpenFOAM: The Open Source CFD Toolbox           |
|  \\    /   O peration     | Version:  2312                                  |
|   \\  /    A nd           | Website:  www.openfoam.com                      |
|    \\/     M anipulation  |                                                 |
\*---------------------------------------------------------------------------*/
FoamFile
{
    version     2.0;
    format      ascii;
    arch        "LSB;label=32;scalar=64";
    class       volTensorField;
    location    "1";
    object      U2;
}
// * * * * * * * * * * * * * * * * * * * * * * * * * * * * * * * * * * * * * //

dimensions      [0 2 -2 0 0 0 0];

internalField   nonuniform List<tensor> 
400
(
(3.60441e-08 -3.61975e-08 -0 -3.62148e-08 3.63689e-08 0 -0 0 0)
(1.3305e-06 -7.49461e-07 -0 -7.48742e-07 4.21762e-07 0 -0 0 0)
(8.17982e-06 -2.69492e-06 -0 -2.69278e-06 8.87162e-07 0 -0 0 0)
(2.28104e-05 -4.98534e-06 -0 -4.98245e-06 1.08894e-06 0 -0 0 0)
(4.57134e-05 -7.09487e-06 -0 -7.09315e-06 1.10088e-06 0 -0 0 0)
(7.60062e-05 -8.83811e-06 -0 -8.83991e-06 1.02792e-06 0 -0 0 0)
(0.000112194 -1.01223e-05 -0 -1.01297e-05 9.13918e-07 0 -0 0 0)
(0.000152204 -1.08094e-05 -0 -1.08239e-05 7.68701e-07 0 -0 0 0)
(0.000193127 -1.06402e-05 -0 -1.06615e-05 5.87387e-07 0 -0 0 0)
(0.000231128 -9.19545e-06 -0 -9.22019e-06 3.66826e-07 0 -0 0 0)
(0.000261138 -6.07504e-06 -0 -6.09817e-06 1.41866e-07 0 -0 0 0)
(0.000274936 -2.10854e-06 -0 -2.12459e-06 1.6294e-08 0 -0 0 0)
(0.00027129 4.22129e-06 -0 4.22529e-06 6.5746e-08 -0 -0 -0 0)
(0.000242963 1.05467e-05 -0 1.05729e-05 4.58955e-07 -0 -0 -0 0)
(0.000194047 1.55253e-05 -0 1.55707e-05 1.24578e-06 -0 -0 -0 0)
(0.000132799 1.72849e-05 -0 1.73369e-05 2.25655e-06 -0 -0 -0 0)
(7.31333e-05 1.48183e-05 -0 1.48602e-05 3.011e-06 -0 -0 -0 0)
(2.87414e-05 9.00177e-06 -0 9.0232e-06 2.82606e-06 -0 -0 -0 0)
(5.57223e-06 2.85315e-06 -0 2.85893e-06 1.46386e-06 -0 -0 -0 0)
(2.30275e-07 2.29821e-07 -0 2.30181e-07 2.29727e-07 -0 -0 -0 0)
(4.15376e-07 -7.46733e-07 -0 -7.47548e-07 1.34389e-06 0 -0 0 0)
(4.88262e-06 -4.96059e-06 -0 -4.96199e-06 5.04123e-06 0 -0 0 0)
(1.75807e-05 -1.1879e-05 -0 -1.18807e-05 8.02757e-06 0 -0 0 0)
(4.00624e-05 -1.94077e-05 -0 -1.94113e-05 9.40355e-06 0 -0 0 0)
(7.26434e-05 -2.64113e-05 -0 -2.64215e-05 9.60619e-06 0 -0 0 0)
(0.000114586 -3.22969e-05 -0 -3.23201e-05 9.10967e-06 0 -0 0 0)
(0.000164224 -3.657e-05 -0 -3.66117e-05 8.15283e-06 0 -0 0 0)
(0.000218794 -3.85744e-05 -0 -3.86369e-05 6.81187e-06 0 -0 0 0)
(0.000274281 -3.73963e-05 -0 -3.74761e-05 5.10961e-06 0 -0 0 0)
(0.000325335 -3.19086e-05 -0 -3.19932e-05 3.13787e-06 0 -0 0 0)
(0.000365224 -2.11458e-05 -0 -2.12149e-05 1.2283e-06 0 -0 0 0)
(0.000385977 -5.17797e-06 -0 -5.20825e-06 6.98698e-08 0 -0 0 0)
(0.000381147 1.50325e-05 -0 1.50661e-05 5.94209e-07 -0 -0 -0 0)
(0.000346622 3.62976e-05 -0 3.64073e-05 3.8125e-06 -0 -0 -0 0)
(0.000284661 5.31991e-05 -0 5.337e-05 9.97409e-06 -0 -0 -0 0)
(0.000204934 6.01192e-05 -0 6.0308e-05 1.76919e-05 -0 -0 -0 0)
(0.000123582 5.39273e-05 -0 5.40779e-05 2.35979e-05 -0 -0 -0 0)
(5.77727e-05 3.69253e-05 -0 3.7005e-05 2.36517e-05 -0 -0 -0 0)
(1.67561e-05 1.64985e-05 -0 1.65223e-05 1.62682e-05 -0 -0 -0 0)
(1.38131e-06 2.71155e-06 -0 2.71252e-06 5.32477e-06 -0 -0 -0 0)
(9.27805e-07 -2.7418e-06 -0 -2.74309e-06 8.10622e-06 0 -0 0 0)
(7.93505e-06 -1.18614e-05 -0 -1.18643e-05 1.77349e-05 0 -0 0 0)
(2.36971e-05 -2.38061e-05 -0 -2.38135e-05 2.3923e-05 0 -0 0 0)
(4.92975e-05 -3.64579e-05 -0 -3.64735e-05 2.69739e-05 0 -0 0 0)
(8.50113e-05 -4.84251e-05 -0 -4.8456e-05 2.76021e-05 0 -0 0 0)
(0.000130516 -5.87764e-05 -0 -5.88322e-05 2.64944e-05 0 -0 0 0)
(0.000184665 -6.65369e-05 -0 -6.66259e-05 2.40061e-05 0 -0 0 0)
(0.000245113 -7.04019e-05 -0 -7.05272e-05 2.02569e-05 0 -0 0 0)
(0.000308109 -6.86499e-05 -0 -6.88041e-05 1.53303e-05 0 -0 0 0)
(0.00036828 -5.92688e-05 -0 -5.94313e-05 9.56451e-06 0 -0 0 0)
(0.000418471 -4.04906e-05 -0 -4.0627e-05 3.931e-06 0 -0 0 0)
(0.000449954 -1.17638e-05 -0 -1.18303e-05 3.09297e-07 0 -0 0 0)
(0.000454024 2.52973e-05 -0 2.53453e-05 1.41219e-06 -0 -0 -0 0)
(0.00042394 6.5294e-05 -0 6.54845e-05 1.00857e-05 -0 -0 -0 0)
(0.000358722 9.87996e-05 -0 9.91208e-05 2.73e-05 -0 -0 -0 0)
(0.000266826 0.000114793 -0 0.000115178 4.95514e-05 -0 -0 -0 0)
(0.000166933 0.000106291 -0 0.000106636 6.78979e-05 -0 -0 -0 0)
(8.19855e-05 7.67842e-05 -0 7.70065e-05 7.21211e-05 -0 -0 -0 0)
(2.59134e-05 3.87527e-05 -0 3.88545e-05 5.81058e-05 -0 -0 -0 0)
(2.47987e-06 8.29624e-06 -0 8.31524e-06 2.78181e-05 -0 -0 -0 0)
(1.20084e-06 -5.22682e-06 -0 -5.22846e-06 2.27575e-05 0 -0 0 0)
(9.61842e-06 -1.95983e-05 -0 -1.96028e-05 3.99423e-05 0 -0 0 0)
(2.72297e-05 -3.66491e-05 -0 -3.66648e-05 4.93481e-05 0 -0 0 0)
(5.48237e-05 -5.45029e-05 -0 -5.45368e-05 5.42178e-05 0 -0 0 0)
(9.26835e-05 -7.16975e-05 -0 -7.17594e-05 5.55111e-05 0 -0 0 0)
(0.000140905 -8.70887e-05 -0 -8.71913e-05 5.38902e-05 0 -0 0 0)
(0.000199103 -9.93349e-05 -0 -9.94895e-05 4.96365e-05 0 -0 0 0)
(0.000265893 -0.00010653 -0 -0.000106741 4.27654e-05 0 -0 0 0)
(0.000338515 -0.000106046 -0 -0.000106304 3.33018e-05 0 -0 0 0)
(0.000412345 -9.4608e-05 -0 -9.48858e-05 2.17705e-05 0 -0 0 0)
(0.000480266 -6.88348e-05 -0 -6.90833e-05 9.90146e-06 0 -0 0 0)
(0.000532243 -2.64952e-05 -0 -2.66445e-05 1.32637e-06 0 -0 0 0)
(0.000555821 3.14807e-05 -0 3.15109e-05 1.78472e-06 -0 -0 -0 0)
(0.000537925 9.82405e-05 -0 9.85233e-05 1.79932e-05 -0 -0 -0 0)
(0.000469959 0.000158706 -0 0.000159273 5.37868e-05 -0 -0 -0 0)
(0.00035671 0.000191736 -0 0.000192516 0.00010348 -0 -0 -0 0)
(0.000223218 0.000181127 -0 0.000181931 0.000147625 -0 -0 -0 0)
(0.000107007 0.000131598 -0 0.000132223 0.000162608 -0 -0 -0 0)
(3.18169e-05 6.62548e-05 -0 6.66129e-05 0.000138713 -0 -0 -0 0)
(2.76601e-06 1.42509e-05 -0 1.4343e-05 7.38973e-05 -0 -0 -0 0)
(1.27517e-06 -7.68166e-06 -0 -7.68483e-06 4.62938e-05 0 -0 0 0)
(1.02762e-05 -2.73097e-05 -0 -2.73205e-05 7.26059e-05 0 -0 0 0)
(2.89542e-05 -4.96399e-05 -0 -4.9673e-05 8.51607e-05 0 -0 0 0)
(5.80135e-05 -7.29957e-05 -0 -7.3063e-05 9.19318e-05 0 -0 0 0)
(9.78686e-05 -9.59968e-05 -0 -9.61121e-05 9.4274e-05 0 -0 0 0)
(0.000149101 -0.000117455 -0 -0.000117635 9.26678e-05 0 -0 0 0)
(0.000212331 -0.000135871 -0 -0.00013613 8.71099e-05 0 -0 0 0)
(0.000287625 -0.000148895 -0 -0.000149241 7.72577e-05 0 -0 0 0)
(0.000374012 -0.000152979 -0 -0.000153405 6.27459e-05 0 -0 0 0)
(0.000468642 -0.000143164 -0 -0.000143636 4.3879e-05 0 -0 0 0)
(0.000565413 -0.000113322 -0 -0.000113775 2.2803e-05 0 -0 0 0)
(0.000653099 -5.74464e-05 -0 -5.77714e-05 5.08154e-06 0 -0 0 0)
(0.0007139 2.72012e-05 -0 2.71564e-05 1.03472e-06 -0 -0 -0 0)
(0.000723069 0.000134563 -0 0.000134983 2.51201e-05 -0 -0 -0 0)
(0.000655124 0.000242333 -0 0.000243388 9.00303e-05 -0 -0 -0 0)
(0.000503637 0.000309061 -0 0.000310733 0.000190684 -0 -0 -0 0)
(0.000306252 0.000295433 -0 0.000297393 0.000286887 -0 -0 -0 0)
(0.000134368 0.000207323 -0 0.000209096 0.000322625 -0 -0 -0 0)
(3.31461e-05 9.49898e-05 -0 9.61392e-05 0.000275515 -0 -0 -0 0)
(2.1291e-06 1.74154e-05 -0 1.77229e-05 0.000144968 -0 -0 -0 0)
(1.25173e-06 -9.91006e-06 -0 -9.9174e-06 7.85168e-05 0 -0 0 0)
(1.03424e-05 -3.46115e-05 -0 -3.46371e-05 0.000115915 0 -0 0 0)
(2.95032e-05 -6.23378e-05 -0 -6.24033e-05 0.000131853 0 -0 0 0)
(5.95229e-05 -9.1496e-05 -0 -9.16196e-05 0.000140834 0 -0 0 0)
(0.000101111 -0.000120963 -0 -0.000121164 0.000144952 0 -0 0 0)
(0.000155461 -0.000149754 -0 -0.000150055 0.000144547 0 -0 0 0)
(0.000224458 -0.000176561 -0 -0.000176985 0.000139219 0 -0 0 0)
(0.000310232 -0.000198988 -0 -0.000199551 0.000127995 0 -0 0 0)
(0.000414733 -0.000212851 -0 -0.000213552 0.0001096 0 -0 0 0)
(0.000538721 -0.000211334 -0 -0.000212138 8.32193e-05 0 -0 0 0)
(0.000679476 -0.00018427 -0 -0.000185094 5.01962e-05 0 -0 0 0)
(0.000826713 -0.000118533 -0 -0.00011921 1.70921e-05 0 -0 0 0)
(0.000956776 -1.69043e-06 -0 -1.929e-06 3.40817e-09 0 -0 0 0)
(0.00102673 0.00016829 -0 0.000168902 2.76845e-05 -0 -0 -0 0)
(0.000974737 0.000363656 -0 0.00036562 0.000136406 -0 -0 -0 0)
(0.000758508 0.00050214 -0 0.000505635 0.000334736 -0 -0 -0 0)
(0.000435381 0.00048319 -0 0.000487675 0.000541227 -0 -0 -0 0)
(0.000156951 0.000307109 -0 0.000311613 0.000609739 -0 -0 -0 0)
(2.31762e-05 0.000104966 -0 0.000108284 0.000490422 -0 -0 -0 0)
(4.90747e-07 1.01552e-05 -0 1.10765e-05 0.00022921 -0 -0 -0 0)
(1.18294e-06 -1.18424e-05 -0 -1.18581e-05 0.00011871 0 -0 0 0)
(1.00616e-05 -4.12939e-05 -0 -4.13474e-05 0.000169694 0 -0 0 0)
(2.92096e-05 -7.43803e-05 -0 -7.45013e-05 0.000189713 0 -0 0 0)
(5.95728e-05 -0.000109486 -0 -0.0001097 0.000201613 0 -0 0 0)
(0.000102239 -0.000145921 -0 -0.000146256 0.000208746 0 -0 0 0)
(0.000159104 -0.000183233 -0 -0.000183722 0.000211584 0 -0 0 0)
(0.00023356 -0.000220848 -0 -0.000221527 0.00020947 0 -0 0 0)
(0.000330436 -0.000257098 -0 -0.000258001 0.00020074 0 -0 0 0)
(0.000456096 -0.000288106 -0 -0.000289252 0.000182714 0 -0 0 0)
(0.000617837 -0.000305899 -0 -0.000307269 0.000152133 0 -0 0 0)
(0.00082115 -0.000295609 -0 -0.0002971 0.000106954 0 -0 0 0)
(0.00106313 -0.00023301 -0 -0.000234379 5.13696e-05 0 -0 0 0)
(0.00132132 -8.55849e-05 -0 -8.63757e-05 5.59476e-06 0 -0 0 0)
(0.00153378 0.000176546 -0 0.000177059 2.03804e-05 -0 -0 -0 0)
(0.00156993 0.000539875 -0 0.000542564 0.00018658 -0 -0 -0 0)
(0.00127761 0.000856323 -0 0.000861192 0.000577217 -0 -0 -0 0)
(0.000712556 0.000858878 -0 0.000864131 0.00104158 -0 -0 -0 0)
(0.000196531 0.000475542 -0 0.000480603 0.0011629 -0 -0 -0 0)
(4.48482e-06 5.65652e-05 -0 6.21607e-05 0.000784008 -0 -0 -0 0)
(1.79402e-06 -2.33729e-05 0 -2.09195e-05 0.000272544 -0 0 -0 0)
(1.09045e-06 -1.34339e-05 -0 -1.34639e-05 0.000165871 0 -0 0 0)
(9.54551e-06 -4.71394e-05 -0 -4.72398e-05 0.000233288 0 -0 0 0)
(2.82029e-05 -8.52686e-05 -0 -8.54775e-05 0.000258433 0 -0 0 0)
(5.81189e-05 -0.000126081 -0 -0.000126433 0.00027428 0 -0 0 0)
(0.000100696 -0.000169475 -0 -0.00017001 0.000286134 0 -0 0 0)
(0.000158473 -0.000215892 -0 -0.000216659 0.00029516 0 -0 0 0)
(0.000236356 -0.000266195 -0 -0.000267256 0.000300995 0 -0 0 0)
(0.000342282 -0.000320673 -0 -0.000322096 0.000301762 0 -0 0 0)
(0.000488413 -0.000377675 -0 -0.000379529 0.000293479 0 -0 0 0)
(0.000692192 -0.000430657 -0 -0.000432972 0.000269379 0 -0 0 0)
(0.000975231 -0.00046224 -0 -0.000464948 0.000220376 0 -0 0 0)
(0.00135747 -0.000435857 -0 -0.00043872 0.000140864 0 -0 0 0)
(0.00184754 -0.000288195 -0 -0.000290798 4.53612e-05 0 -0 0 0)
(0.00240876 7.84185e-05 -0 7.6599e-05 2.49372e-06 -0 -0 -0 0)
(0.00284012 0.000747319 -0 0.000745609 0.000196191 -0 -0 -0 0)
(0.00273561 0.00156969 -0 0.00156322 0.000896975 -0 -0 -0 0)
(0.00185917 0.00191996 -0 0.00190442 0.0019667 -0 -0 -0 0)
(0.000635995 0.0012439 -0 0.00122432 0.00239457 -0 -0 -0 0)
(1.14417e-05 0.000128793 -0 0.000120865 0.00136051 -0 -0 -0 0)
(2.16862e-05 -7.45674e-05 0 -7.20506e-05 0.000247744 -0 0 -0 0)
(9.8539e-07 -1.46574e-05 -0 -1.47093e-05 0.000218798 0 -0 0 0)
(8.86027e-06 -5.19451e-05 -0 -5.21165e-05 0.000305543 0 -0 0 0)
(2.656e-05 -9.44242e-05 -0 -9.47631e-05 0.000336895 0 -0 0 0)
(5.50823e-05 -0.000140089 -0 -0.00014064 0.000357685 0 -0 0 0)
(9.58971e-05 -0.000189488 -0 -0.000190308 0.000376041 0 -0 0 0)
(0.000151851 -0.000244235 -0 -0.000245398 0.000394696 0 -0 0 0)
(0.00022893 -0.000307315 -0 -0.000308922 0.000414696 0 -0 0 0)
(0.000337762 -0.000382395 -0 -0.000384578 0.000435396 0 -0 0 0)
(0.000496461 -0.000472868 -0 -0.000475793 0.000453183 0 -0 0 0)
(0.000734998 -0.000578858 -0 -0.000582698 0.000458912 0 -0 0 0)
(0.00109976 -0.000689066 -0 -0.000693978 0.000434817 0 -0 0 0)
(0.00165881 -0.000767069 -0 -0.000773338 0.000357609 0 -0 0 0)
(0.00253028 -0.000734485 -0 -0.000742977 0.00021567 0 -0 0 0)
(0.00388364 -0.00040299 -0 -0.000416959 4.32662e-05 0 -0 0 0)
(0.00567285 0.000624122 -0 0.000602692 6.63076e-05 -0 -0 -0 0)
(0.00701127 0.00266627 -0 0.00264018 0.00100402 -0 -0 -0 0)
(0.00615653 0.00460864 -0 0.00457799 0.00342698 -0 -0 -0 0)
(0.00326127 0.0041396 -0 0.00409238 0.00519456 -0 -0 -0 0)
(0.000576806 0.00141275 -0 0.0013685 0.00335181 -0 -0 -0 0)
(3.1009e-05 -9.7394e-05 0 -9.88153e-05 0.000310362 -0 0 -0 0)
(8.79134e-07 -1.55418e-05 -0 -1.56242e-05 0.000276213 0 -0 0 0)
(8.08313e-06 -5.56393e-05 -0 -5.59104e-05 0.000384852 0 -0 0 0)
(2.44249e-05 -0.000101393 -0 -0.000101911 0.000423054 0 -0 0 0)
(5.05679e-05 -0.000150294 -0 -0.000151116 0.000449136 0 -0 0 0)
(8.7629e-05 -0.000203425 -0 -0.000204626 0.000475025 0 -0 0 0)
(0.000138134 -0.000263572 -0 -0.00026526 0.000506141 0 -0 0 0)
(0.000208099 -0.000336085 -0 -0.000338418 0.000546553 0 -0 0 0)
(0.000309099 -0.000428832 -0 -0.000432043 0.000599398 0 -0 0 0)
(0.000462496 -0.000552587 -0 -0.000557014 0.000665517 0 -0 0 0)
(0.000707785 -0.000720616 -0 -0.000726745 0.000739919 0 -0 0 0)
(0.00111572 -0.000944323 -0 -0.000953108 0.000806695 0 -0 0 0)
(0.00181266 -0.00122776 -0 -0.00124165 0.000841003 0 -0 0 0)
(0.0031384 -0.00158006 -0 -0.00160274 0.000806918 0 -0 0 0)
(0.00580196 -0.00180195 -0 -0.00183494 0.000569887 0 -0 0 0)
(0.00990693 -0.00069395 -0 -0.00071697 5.02215e-05 0 -0 0 0)
(0.0130676 0.00325083 -0 0.00327282 0.00081418 -0 -0 -0 0)
(0.0130893 0.00842877 -0 0.00846665 0.00545206 -0 -0 -0 0)
(0.00921208 0.0100646 -0 0.010074 0.0110064 -0 -0 -0 0)
(0.00332889 0.00550907 -0 0.00548681 0.00908026 -0 -0 -0 0)
(3.42469e-05 0.000186495 -0 0.000167735 0.000913421 -0 -0 -0 0)
(7.88768e-07 -1.62417e-05 -0 -1.63636e-05 0.000336947 0 -0 0 0)
(7.34018e-06 -5.84952e-05 -0 -5.88975e-05 0.000469365 0 -0 0 0)
(2.20904e-05 -0.000106182 -0 -0.000106932 0.000513993 0 -0 0 0)
(4.50339e-05 -0.000155968 -0 -0.000157133 0.000544206 0 -0 0 0)
(7.6435e-05 -0.000209119 -0 -0.000210793 0.00057671 0 -0 0 0)
(0.000117742 -0.000269168 -0 -0.000271496 0.000620662 0 -0 0 0)
(0.000173568 -0.000343139 -0 -0.000346346 0.000684718 0 -0 0 0)
(0.000253532 -0.000442072 -0 -0.000446519 0.000778575 0 -0 0 0)
(0.000376287 -0.000582995 -0 -0.000589256 0.000912955 0 -0 0 0)
(0.000578574 -0.000792821 -0 -0.000801896 0.00109884 0 -0 0 0)
(0.000929745 -0.00111386 -0 -0.00112811 0.0013515 0 -0 0 0)
(0.00155647 -0.00161964 -0 -0.00164443 0.00171116 0 -0 0 0)
(0.00287271 -0.00248703 -0 -0.00252794 0.00218855 0 -0 0 0)
(0.00576645 -0.00353636 -0 -0.0035866 0.00219953 0 -0 0 0)
(0.010113 -0.00267025 -0 -0.00268621 0.000709272 0 -0 0 0)
(0.013491 0.00252144 -0 0.00258862 0.000483809 -0 -0 -0 0)
(0.0143336 0.00993188 -0 0.0100675 0.00697585 -0 -0 -0 0)
(0.0125976 0.0151932 -0 0.0153297 0.0184882 -0 -0 -0 0)
(0.00693461 0.0123036 -0 0.0123901 0.0219829 -0 -0 -0 0)
(0.000907849 0.00230173 -0 0.00231289 0.00586403 -0 -0 -0 0)
(7.43267e-07 -1.71783e-05 -0 -1.73492e-05 0.000400974 0 -0 0 0)
(6.81005e-06 -6.13319e-05 -0 -6.18953e-05 0.000557435 0 -0 0 0)
(2.00271e-05 -0.000109677 -0 -0.000110704 0.000606262 0 -0 0 0)
(3.93341e-05 -0.000157508 -0 -0.000159071 0.000636977 0 -0 0 0)
(6.37615e-05 -0.000205893 -0 -0.000208098 0.000671971 0 -0 0 0)
(9.31756e-05 -0.000258345 -0 -0.000261366 0.000724682 0 -0 0 0)
(0.000129761 -0.000321914 -0 -0.000326033 0.00080883 0 -0 0 0)
(0.000178859 -0.000407566 -0 -0.000413243 0.000941655 0 -0 0 0)
(0.000250983 -0.000532381 -0 -0.000540382 0.00114625 0 -0 0 0)
(0.000366629 -0.000724937 -0 -0.000736696 0.00145667 0 -0 0 0)
(0.000561937 -0.00103411 -0 -0.00105291 0.00193763 0 -0 0 0)
(0.000890678 -0.00154449 -0 -0.00157687 0.00273438 0 -0 0 0)
(0.00152296 -0.00242107 -0 -0.00247524 0.00393492 0 -0 0 0)
(0.00289538 -0.00349553 -0 -0.00356591 0.00430506 0 -0 0 0)
(0.00482305 -0.00298656 -0 -0.00302839 0.00187526 0 -0 0 0)
(0.00607852 0.000682379 -0 0.000737094 8.27467e-05 -0 -0 -0 0)
(0.00675693 0.00631927 -0 0.00648814 0.00606789 -0 -0 -0 0)
(0.00776952 0.0126747 -0 0.012897 0.0210392 -0 -0 -0 0)
(0.00674593 0.0157385 -0 0.0159447 0.0371996 -0 -0 -0 0)
(0.00171078 0.00595535 -0 0.00603955 0.0210241 -0 -0 -0 0)
(7.86175e-07 -1.90764e-05 -0 -1.93058e-05 0.000468453 0 -0 0 0)
(6.80338e-06 -6.60373e-05 -0 -6.67854e-05 0.000648255 0 -0 0 0)
(1.88819e-05 -0.000114005 -0 -0.000115338 0.000696389 0 -0 0 0)
(3.45883e-05 -0.000156907 -0 -0.000158888 0.000720786 0 -0 0 0)
(5.16412e-05 -0.000195482 -0 -0.000198216 0.000750324 0 -0 0 0)
(6.8491e-05 -0.000232593 -0 -0.000236262 0.000802337 0 -0 0 0)
(8.5169e-05 -0.000273552 -0 -0.000278457 0.000894369 0 -0 0 0)
(0.000103031 -0.000325436 -0 -0.000332062 0.00104886 0 -0 0 0)
(0.000124726 -0.000397726 -0 -0.000406883 0.00129747 0 -0 0 0)
(0.000154384 -0.000504063 -0 -0.000517289 0.00168895 0 -0 0 0)
(0.00019613 -0.000663342 -0 -0.000683879 0.00231298 0 -0 0 0)
(0.000244846 -0.000888352 -0 -0.000922752 0.00334794 0 -0 0 0)
(0.000290351 -0.00115801 -0 -0.00121473 0.00484472 0 -0 0 0)
(0.000374119 -0.00138335 -0 -0.00146114 0.00540274 0 -0 0 0)
(0.000539054 -0.00118963 -0 -0.0012559 0.00277161 0 -0 0 0)
(0.000496151 -2.98754e-05 -0 -8.89775e-06 5.35772e-07 0 -0 0 0)
(0.000588326 0.00147572 -0 0.00160008 0.00401353 -0 -0 -0 0)
(0.00135101 0.00456991 -0 0.00476542 0.0161194 -0 -0 -0 0)
(0.00305813 0.0110352 -0 0.0112497 0.0405945 -0 -0 -0 0)
(0.00137351 0.00762676 -0 0.00775857 0.0430813 -0 -0 -0 0)
(1.0019e-06 -2.32906e-05 -0 -2.35863e-05 0.000548298 0 -0 0 0)
(7.69091e-06 -7.51968e-05 -0 -7.61401e-05 0.000744449 0 -0 0 0)
(1.93989e-05 -0.000122359 -0 -0.000123992 0.000782079 0 -0 0 0)
(3.18747e-05 -0.000157458 -0 -0.000159819 0.00078949 0 -0 0 0)
(4.18796e-05 -0.00018171 -0 -0.000184882 0.000802178 0 -0 0 0)
(4.74917e-05 -0.000197673 -0 -0.00020182 0.00084003 0 -0 0 0)
(4.82341e-05 -0.000208156 -0 -0.000213558 0.000921618 0 -0 0 0)
(4.442e-05 -0.000214452 -0 -0.000221548 0.0010696 0 -0 0 0)
(3.66822e-05 -0.000214994 -0 -0.000224385 0.00131512 0 -0 0 0)
(2.56047e-05 -0.000202348 -0 -0.000215352 0.00170188 0 -0 0 0)
(1.20493e-05 -0.000157254 -0 -0.000176369 0.00230177 0 -0 0 0)
(5.27217e-07 -2.84919e-05 -0 -5.96568e-05 0.00322397 0 -0 0 0)
(1.88275e-05 0.000315799 0 0.0002661 0.00446336 0 0 0 0)
(0.000145526 0.000876938 0 0.000805245 0.0048524 0 0 0 0)
(0.000312619 0.000940041 0 0.000870564 0.00261778 0 0 0 0)
(0.000539311 7.37929e-05 0 4.59176e-05 6.28282e-06 0 0 0 0)
(0.000375636 -0.00107651 0 -0.0010373 0.00297274 -0 0 -0 0)
(4.27169e-05 -0.000726281 0 -0.000650945 0.0110675 -0 0 -0 0)
(0.000518538 0.00398064 -0 0.00411796 0.0316122 -0 -0 -0 0)
(0.00067042 0.00637378 -0 0.00648357 0.0616403 -0 -0 -0 0)
(1.67821e-06 -3.23134e-05 -0 -3.26943e-05 0.00062952 0 -0 0 0)
(1.06133e-05 -9.4036e-05 -0 -9.5154e-05 0.000843083 0 -0 0 0)
(2.27131e-05 -0.000138714 -0 -0.000140566 0.000858465 0 -0 0 0)
(3.20691e-05 -0.000162423 -0 -0.000165058 0.000835982 0 -0 0 0)
(3.52304e-05 -0.000168287 -0 -0.000171698 0.000820158 0 -0 0 0)
(3.19412e-05 -0.000160716 -0 -0.000165045 0.00083044 0 -0 0 0)
(2.30192e-05 -0.000139885 -0 -0.00014538 0.000883455 0 -0 0 0)
(1.12421e-05 -0.0001024 -0 -0.000109452 0.000996958 0 -0 0 0)
(1.54569e-06 -3.8871e-05 -0 -4.74736e-05 0.00119386 0 -0 0 0)
(2.88044e-06 7.18237e-05 0 6.03035e-05 0.00150367 0 0 0 0)
(3.3823e-05 0.000265784 0 0.000249172 0.00195801 0 0 0 0)
(0.000135711 0.000603445 0 0.000579332 0.00257603 0 0 0 0)
(0.000411554 0.00117972 0 0.00114329 0.00327724 0 0 0 0)
(0.00103794 0.00188595 0 0.00183289 0.00333038 0 0 0 0)
(0.00183824 0.00181927 0 0.00175994 0.00174177 0 0 0 0)
(0.00238251 0.000219982 0 0.000181649 1.6772e-05 0 0 0 0)
(0.00186331 -0.00188863 0 -0.00189138 0.00191708 -0 0 -0 0)
(0.000741007 -0.00243989 0 -0.00243201 0.0080078 -0 0 -0 0)
(8.4335e-08 2.49638e-05 -0 7.68752e-05 0.0227556 -0 -0 -0 0)
(0.000284349 0.0043946 -0 0.00444583 0.0687101 -0 -0 -0 0)
(3.20873e-06 -5.06424e-05 -0 -5.09412e-05 0.000803989 0 -0 0 0)
(1.56361e-05 -0.000122731 -0 -0.000123861 0.000972209 0 -0 0 0)
(2.90394e-05 -0.000163183 -0 -0.000165037 0.0009274 0 -0 0 0)
(3.43875e-05 -0.000170167 -0 -0.000172757 0.000854892 0 -0 0 0)
(3.08112e-05 -0.000155384 -0 -0.000158664 0.000800159 0 -0 0 0)
(2.08513e-05 -0.000125157 -0 -0.00012925 0.000775807 0 -0 0 0)
(8.31728e-06 -7.85547e-05 -0 -8.35916e-05 0.000789502 0 -0 0 0)
(1.98294e-07 -1.02544e-05 -0 -1.64758e-05 0.000852019 0 -0 0 0)
(8.21812e-06 9.34794e-05 0 8.58713e-05 0.000976769 0 0 0 0)
(5.32316e-05 0.000255185 0 0.000245627 0.0011775 0 0 0 0)
(0.000171486 0.000506406 0 0.000493682 0.00145787 0 0 0 0)
(0.000425554 0.000881789 0 0.000864434 0.00179119 0 0 0 0)
(0.000925995 0.00139453 0 0.00136991 0.00206305 0 0 0 0)
(0.00180984 0.00187821 0 0.0018437 0.00191334 0 0 0 0)
(0.00285593 0.00167114 0 0.00163286 0.000955466 0 0 0 0)
(0.00342356 0.000246719 0 0.000218136 1.572e-05 0 0 0 0)
(0.00278525 -0.00166983 0 -0.00168214 0.00100849 -0 0 -0 0)
(0.00137691 -0.00266175 0 -0.00266696 0.00515558 -0 0 -0 0)
(0.00017916 -0.00169982 0 -0.00168625 0.0159987 -0 0 -0 0)
(0.000149767 0.00324696 -0 0.00325964 0.0706691 -0 -0 -0 0)
(8.61121e-06 -8.18887e-05 -0 -8.23591e-05 0.000783198 0 -0 0 0)
(3.39202e-05 -0.00018045 -0 -0.000181586 0.000966009 0 -0 0 0)
(4.10818e-05 -0.000191837 -0 -0.000193555 0.00090383 0 -0 0 0)
(3.57097e-05 -0.000169076 -0 -0.000171278 0.000810956 0 -0 0 0)
(2.37375e-05 -0.000130301 -0 -0.000133082 0.00073052 0 -0 0 0)
(1.00771e-05 -8.08791e-05 -0 -8.42097e-05 0.000675867 0 -0 0 0)
(6.08698e-07 -1.80492e-05 -0 -2.20814e-05 0.00065476 0 -0 0 0)
(5.87716e-06 6.52285e-05 0 6.0315e-05 0.000669414 0 0 0 0)
(4.43214e-05 0.000182209 0 0.000176284 0.00072472 0 0 0 0)
(0.000146314 0.000350927 0 0.000343728 0.000824416 0 0 0 0)
(0.000358258 0.000591874 0 0.000582861 0.000962939 0 0 0 0)
(0.000743411 0.000914036 0 0.000902422 0.00110954 0 0 0 0)
(0.00137579 0.00128266 0 0.00126715 0.00118137 0 0 0 0)
(0.00230351 0.00154648 0 0.00152649 0.00102482 0 0 0 0)
(0.00330348 0.00132641 0 0.00130445 0.000523764 0 0 0 0)
(0.00381262 0.00028605 0 0.000268446 2.01407e-05 0 0 0 0)
(0.0031538 -0.0011787 0 -0.00118854 0.000444206 -0 0 -0 0)
(0.00207606 -0.0025541 0 -0.0025602 0.00314971 -0 0 -0 0)
(0.000539313 -0.002427 0 -0.00242649 0.0109196 -0 0 -0 0)
(5.62522e-05 0.00202443 -0 0.00202346 0.0728213 -0 -0 -0 0)
(1.97194e-05 -0.00020334 -0 -0.000203751 0.00210102 0 -0 0 0)
(4.73068e-05 -0.000294364 -0 -0.000295276 0.00183734 0 -0 0 0)
(3.38619e-05 -0.000212322 -0 -0.000213742 0.00134021 0 -0 0 0)
(1.5479e-05 -0.000122874 -0 -0.000124564 0.000988806 0 -0 0 0)
(2.89996e-06 -4.67356e-05 -0 -4.87061e-05 0.000784943 0 -0 0 0)
(1.37695e-06 3.12008e-05 0 2.88719e-05 0.00065422 0 0 0 0)
(2.27369e-05 0.000115253 0 0.000112533 0.000570424 0 0 0 0)
(8.26191e-05 0.000209718 0 0.000206603 0.000524436 0 0 0 0)
(0.000202827 0.000323319 0 0.00031971 0.000509636 0 0 0 0)
(0.00041786 0.000469402 0 0.000465182 0.00052256 0 0 0 0)
(0.000776907 0.00066118 0 0.000656068 0.000558341 0 0 0 0)
(0.00133902 0.000899239 0 0.000892707 0.000599512 0 0 0 0)
(0.00214266 0.00114141 0 0.00113271 0.000603404 0 0 0 0)
(0.00316999 0.00127582 0 0.00126475 0.000509022 0 0 0 0)
(0.0041839 0.0010955 0 0.00108341 0.000283678 0 0 0 0)
(0.00477929 0.000372058 0 0.000362403 2.82123e-05 0 0 0 0)
(0.00392369 -0.000726784 0 -0.000732022 0.000135592 -0 0 -0 0)
(0.00389616 -0.00258011 0 -0.0025837 0.00171098 -0 0 -0 0)
(0.00068665 -0.00210416 0 -0.0021061 0.00645391 -0 0 -0 0)
(3.23471e-05 -0.00153187 0 -0.00153661 0.0727699 -0 0 -0 0)
(3.6945e-05 -0.000112653 -0 -0.000112556 0.000343205 0 -0 0 0)
(7.08079e-05 -9.16796e-05 -0 -9.14419e-05 0.000118396 0 -0 0 0)
(1.00116e-06 -1.06176e-05 -0 -1.05979e-05 0.000112394 0 -0 0 0)
(4.72094e-05 9.21992e-05 0 9.20246e-05 0.000179723 0 0 0 0)
(0.000239087 0.000219733 0 0.000219457 0.000201692 0 0 0 0)
(0.000573126 0.000328611 0 0.000328258 0.000188212 0 0 0 0)
(0.00102957 0.000422539 0 0.000422102 0.000173233 0 0 0 0)
(0.00159909 0.00051314 0 0.000512623 0.000164498 0 0 0 0)
(0.00228907 0.000606081 0 0.00060549 0.000160317 0 0 0 0)
(0.00312515 0.000706531 0 0.000705846 0.000159577 0 0 0 0)
(0.00414652 0.000820812 0 0.000819893 0.0001623 0 0 0 0)
(0.00539878 0.000948632 0 0.000947149 0.000166426 0 0 0 0)
(0.00688564 0.00106775 0 0.00106506 0.000165159 0 0 0 0)
(0.00857213 0.00110623 0 0.0011018 0.000142187 0 0 0 0)
(0.01007 0.000960737 0 0.000955042 9.11163e-05 0 0 0 0)
(0.0113918 0.000437544 0 0.000432423 1.66087e-05 0 0 0 0)
(0.0100234 -0.000350357 0 -0.00035254 1.23227e-05 -0 0 -0 0)
(0.012118 -0.00244061 0 -0.00244145 0.000491716 -0 0 -0 0)
(0.000951394 -0.00134604 0 -0.0013461 0.00190448 -0 0 -0 0)
(0.00514559 -0.0162813 0 -0.0162838 0.0515239 -0 0 -0 0)
(0.00166202 0.00377084 0 0.00377102 0.00855577 0 0 0 0)
(0.00394956 0.00439118 0 0.00439197 0.00488305 0 0 0 0)
(0.00779256 0.00388209 0 0.00388266 0.00193426 0 0 0 0)
(0.0121205 0.00323586 0 0.00323614 0.000863963 0 0 0 0)
(0.0160833 0.00274801 0 0.00274807 0.000469538 0 0 0 0)
(0.0198115 0.00240673 0 0.00240668 0.000292368 0 0 0 0)
(0.0235174 0.00215771 0 0.00215763 0.000197962 0 0 0 0)
(0.0272366 0.00196668 0 0.00196654 0.000141998 0 0 0 0)
(0.030965 0.00181201 0 0.0018118 0.000106023 0 0 0 0)
(0.0347239 0.00168498 0 0.00168469 8.17498e-05 0 0 0 0)
(0.038549 0.00157971 0 0.00157926 6.47169e-05 0 0 0 0)
(0.0424697 0.00148338 0 0.00148262 5.1785e-05 0 0 0 0)
(0.0464366 0.00139063 0 0.0013895 4.16112e-05 0 0 0 0)
(0.0504162 0.00127725 0 0.00127584 3.23224e-05 0 0 0 0)
(0.0537233 0.00111332 0 0.00111162 2.30363e-05 0 0 0 0)
(0.057136 0.000839925 0 0.000838393 1.23247e-05 0 0 0 0)
(0.0543946 0.00045254 0 0.000452062 3.76096e-06 0 0 0 0)
(0.0643157 -0.000804767 0 -0.000805416 1.0078e-05 -0 0 -0 0)
(0.0161441 0.000421448 0 0.000422571 1.10313e-05 0 0 0 0)
(0.14351 -0.0372507 0 -0.03725 0.0096689 -0 0 -0 0)
)
;

boundaryField
{
    movingWall
    {
        type            calculated;
        value           uniform (1 0 0 0 0 0 0 0 0);
    }
    fixedWalls
    {
        type            calculated;
        value           uniform (0 0 0 0 0 0 0 0 0);
    }
    frontAndBack
    {
        type            empty;
    }
}


// ************************************************************************* //
