/*--------------------------------*- C++ -*----------------------------------*\
| =========                 |                                                 |
| \\      /  F ield         | OpenFOAM: The Open Source CFD Toolbox           |
|  \\    /   O peration     | Version:  2312                                  |
|   \\  /    A nd           | Website:  www.openfoam.com                      |
|    \\/     M anipulation  |                                                 |
\*---------------------------------------------------------------------------*/
FoamFile
{
    version     2.0;
    format      ascii;
    arch        "LSB;label=32;scalar=64";
    class       volVectorField;
    location    "1";
    object      UMean;
}
// * * * * * * * * * * * * * * * * * * * * * * * * * * * * * * * * * * * * * //

dimensions      [0 1 -1 0 0 0 0];

internalField   nonuniform List<vector> 
400
(
(-0.000146733 0.00014755 0)
(-0.000676346 0.000373448 0)
(-0.0015435 0.000496472 0)
(-0.00247015 0.0005197 0)
(-0.00338704 0.000495402 0)
(-0.00424757 0.000452239 0)
(-0.00502664 0.000399914 0)
(-0.00570629 0.000340039 0)
(-0.00626911 0.000270316 0)
(-0.00669508 0.000186837 0)
(-0.00695379 8.92865e-05 0)
(-0.00701564 -1.92743e-05 0)
(-0.00686054 -0.000156541 0)
(-0.00644604 -0.000304365 0)
(-0.00576486 -0.000457619 0)
(-0.0048227 -0.000599392 0)
(-0.00366422 -0.000700783 0)
(-0.00238723 -0.000711758 0)
(-0.00113008 -0.000563293 0)
(-0.000277286 -0.000272211 0)
(-0.000372275 0.000677705 0)
(-0.00115347 0.00115719 0)
(-0.0021001 0.00138285 0)
(-0.00308823 0.00143339 0)
(-0.00406622 0.00138486 0)
(-0.00499764 0.00128165 0)
(-0.00585344 0.00114345 0)
(-0.00660746 0.000975703 0)
(-0.00723461 0.000776053 0)
(-0.00770884 0.000538359 0)
(-0.0080007 0.000257482 0)
(-0.00807845 -6.86686e-05 0)
(-0.00791196 -0.000440427 0)
(-0.00747571 -0.000845901 0)
(-0.00675881 -0.0012571 0)
(-0.0057721 -0.00162943 0)
(-0.0045577 -0.00189664 0)
(-0.0031996 -0.00196867 0)
(-0.00180726 -0.0017413 0)
(-0.00058063 -0.00112845 0)
(-0.000514399 0.001549 0)
(-0.00141917 0.00210652 0)
(-0.00239347 0.00234075 0)
(-0.00338854 0.00239088 0)
(-0.00436852 0.00231824 0)
(-0.00530842 0.00216224 0)
(-0.0061832 0.00194312 0)
(-0.00696631 0.00166749 0)
(-0.00763088 0.00133303 0)
(-0.0081488 0.000932621 0)
(-0.00848903 0.000458952 0)
(-0.00861784 -9.16638e-05 0)
(-0.00850134 -0.000715317 0)
(-0.0081088 -0.00139112 0)
(-0.00742038 -0.00207556 0)
(-0.00643658 -0.00269866 0)
(-0.0051888 -0.00316454 0)
(-0.00375356 -0.00336385 0)
(-0.00223233 -0.00319597 0)
(-0.000772849 -0.00246863 0)
(-0.000572595 0.0025217 0)
(-0.00155555 0.00313263 0)
(-0.00257863 0.00335005 0)
(-0.00360745 0.00338352 0)
(-0.00461329 0.00328279 0)
(-0.0055795 0.0030779 0)
(-0.00648787 0.00278551 0)
(-0.00731591 0.00241091 0)
(-0.00803874 0.0019503 0)
(-0.00862866 0.00139402 0)
(-0.00905336 0.000730916 0)
(-0.00927503 -4.59306e-05 0)
(-0.00925071 -0.000932361 0)
(-0.00893444 -0.00190363 0)
(-0.00828375 -0.00290298 0)
(-0.0072739 -0.00383401 0)
(-0.00591982 -0.00456233 0)
(-0.00430635 -0.00494474 0)
(-0.00255861 -0.00486503 0)
(-0.00087716 -0.00400211 0)
(-0.000595916 0.00355429 0)
(-0.00163665 0.00422244 0)
(-0.00272075 0.00441533 0)
(-0.00380563 0.00442234 0)
(-0.00486295 0.00428963 0)
(-0.00588021 0.00403902 0)
(-0.00684587 0.00368221 0)
(-0.00774357 0.00322146 0)
(-0.00855329 0.00264986 0)
(-0.00925022 0.00195307 0)
(-0.00980216 0.00111305 0)
(-0.0101661 0.00011468 0)
(-0.0102861 -0.00104539 0)
(-0.0100907 -0.0023471 0)
(-0.00949761 -0.0037279 0)
(-0.00843545 -0.00506176 0)
(-0.00689223 -0.0061522 0)
(-0.00498032 -0.00678461 0)
(-0.00288862 -0.00679631 0)
(-0.000950302 -0.00571536 0)
(-0.000612502 0.00462689 0)
(-0.0017057 0.00537254 0)
(-0.00285837 0.00554525 0)
(-0.00401349 0.00552277 0)
(-0.00514066 0.00535626 0)
(-0.00622885 0.0050635 0)
(-0.00727265 0.00465253 0)
(-0.00826336 0.00412233 0)
(-0.00918859 0.00346171 0)
(-0.01003 0.00264916 0)
(-0.0107589 0.00165528 0)
(-0.0113284 0.00044848 0)
(-0.0116679 -0.00099437 0)
(-0.011671 -0.00267268 0)
(-0.0111911 -0.00453704 0)
(-0.0100694 -0.00643005 0)
(-0.00823567 -0.00804734 0)
(-0.00584712 -0.00902055 0)
(-0.00323256 -0.00908855 0)
(-0.00099356 -0.00761008 0)
(-0.000633428 0.00573999 0)
(-0.00178355 0.00658818 0)
(-0.00301219 0.00675015 0)
(-0.00424738 0.00669964 0)
(-0.005456 0.00649984 0)
(-0.00662779 0.00616979 0)
(-0.00776366 0.00571683 0)
(-0.00886449 0.00513829 0)
(-0.00992937 0.00441875 0)
(-0.010952 0.0035279 0)
(-0.0119134 0.00241989 0)
(-0.0127698 0.00103651 0)
(-0.0134382 -0.000683479 0)
(-0.0137756 -0.00278821 0)
(-0.0135405 -0.00527933 0)
(-0.0124054 -0.00798684 0)
(-0.0101596 -0.0104233 0)
(-0.0069863 -0.0118763 0)
(-0.00348739 -0.0118427 0)
(-0.000921153 -0.00962546 0)
(-0.000662943 0.00690381 0)
(-0.0018802 0.00787807 0)
(-0.00319346 0.00803834 0)
(-0.00451591 0.00796186 0)
(-0.0058116 0.0077297 0)
(-0.00707118 0.00736763 0)
(-0.00830302 0.00688682 0)
(-0.00952028 0.00628618 0)
(-0.0107384 0.00554844 0)
(-0.0119708 0.00463488 0)
(-0.0132199 0.00347981 0)
(-0.0144591 0.00198771 0)
(-0.0156141 3.68136e-05 0)
(-0.0165261 -0.00251541 0)
(-0.0168455 -0.00578576 0)
(-0.0159712 -0.00969036 0)
(-0.0133536 -0.0134816 0)
(-0.00900394 -0.0157772 0)
(-0.00379853 -0.0153053 0)
(-0.000557637 -0.011611 0)
(-0.00070349 0.00813381 0)
(-0.00200246 0.00925407 0)
(-0.00341065 0.00941767 0)
(-0.00482549 0.0093137 0)
(-0.00620757 0.00904697 0)
(-0.00754907 0.00865593 0)
(-0.00886726 0.00816119 0)
(-0.0101904 0.00756866 0)
(-0.0115557 0.00686438 0)
(-0.013006 0.00600603 0)
(-0.0145814 0.00491061 0)
(-0.0163003 0.00344218 0)
(-0.0181467 0.001408 0)
(-0.0200269 -0.00147137 0)
(-0.0215675 -0.00556536 0)
(-0.0218102 -0.0110982 0)
(-0.0194101 -0.0172252 0)
(-0.0137551 -0.021375 0)
(-0.00576591 -0.0205286 0)
(-6.25659e-06 -0.0137941 0)
(-0.000758313 0.00945021 0)
(-0.00215898 0.0107318 0)
(-0.003675 0.0108962 0)
(-0.00518539 0.0107552 0)
(-0.00664616 0.0104439 0)
(-0.0080515 0.0100203 0)
(-0.00942896 0.00952098 0)
(-0.0108239 0.00896593 0)
(-0.0122986 0.00835301 0)
(-0.0139333 0.00764768 0)
(-0.0158229 0.00676569 0)
(-0.0180624 0.00555518 0)
(-0.0207855 0.00378625 0)
(-0.0241674 0.00102531 0)
(-0.0278668 -0.00366213 0)
(-0.0302785 -0.0113528 0)
(-0.029047 -0.0213713 0)
(-0.0226216 -0.0293554 0)
(-0.0115107 -0.0291295 0)
(-0.000258822 -0.0169621 0)
(-0.000833701 0.0108804 0)
(-0.00236517 0.0123323 0)
(-0.00400574 0.0124831 0)
(-0.00561273 0.0122817 0)
(-0.00713617 0.0119025 0)
(-0.00857316 0.0114301 0)
(-0.00996231 0.0109242 0)
(-0.0113655 0.010426 0)
(-0.0128684 0.00995547 0)
(-0.0145873 0.00950285 0)
(-0.0166759 0.00901629 0)
(-0.019311 0.00839265 0)
(-0.0228157 0.0074439 0)
(-0.0277657 0.00549586 0)
(-0.0338875 0.000588111 0)
(-0.0388692 -0.00979831 0)
(-0.0397285 -0.0251395 0)
(-0.0339593 -0.0395653 0)
(-0.0206816 -0.0425872 0)
(-0.00358068 -0.0241651 0)
(-0.000942172 0.0124689 0)
(-0.00264792 0.014086 0)
(-0.00443518 0.0141887 0)
(-0.00613637 0.0138828 0)
(-0.00769611 0.0133925 0)
(-0.00911707 0.0128369 0)
(-0.0104495 0.0123032 0)
(-0.0117681 0.0118586 0)
(-0.0131725 0.0115524 0)
(-0.0147984 0.0114146 0)
(-0.0168317 0.0114573 0)
(-0.0194885 0.0116872 0)
(-0.0231372 0.0120302 0)
(-0.0286535 0.0114761 0)
(-0.0361364 0.00693317 0)
(-0.0432126 -0.00565314 0)
(-0.0463187 -0.0267934 0)
(-0.0430429 -0.0497806 0)
(-0.0305115 -0.0609513 0)
(-0.00944033 -0.0395571 0)
(-0.00110716 0.014273 0)
(-0.00305516 0.0160343 0)
(-0.00501295 0.0160237 0)
(-0.00679714 0.0155394 0)
(-0.00835226 0.0148701 0)
(-0.00969336 0.0141744 0)
(-0.010884 0.013567 0)
(-0.0120062 0.0131396 0)
(-0.0131587 0.0129699 0)
(-0.0144686 0.0131294 0)
(-0.0161073 0.0136963 0)
(-0.0182667 0.0147828 0)
(-0.02118 0.0164386 0)
(-0.0255592 0.0175461 0)
(-0.032458 0.0141485 0)
(-0.0400255 0.000655839 0)
(-0.044887 -0.0246915 0)
(-0.045026 -0.0561035 0)
(-0.0370326 -0.08014 0)
(-0.0153648 -0.0636152 0)
(-0.00136711 0.0164564 0)
(-0.00364941 0.0182496 0)
(-0.00579963 0.0179987 0)
(-0.007636 0.017219 0)
(-0.00912308 0.0162748 0)
(-0.0103032 0.0153612 0)
(-0.0112585 0.0146121 0)
(-0.0120729 0.0141322 0)
(-0.0128293 0.0140153 0)
(-0.013619 0.0143592 0)
(-0.0145544 0.0152828 0)
(-0.0157585 0.0169488 0)
(-0.0172757 0.0194926 0)
(-0.0194032 0.0219217 0)
(-0.0236437 0.0203884 0)
(-0.0300345 0.00762796 0)
(-0.0359135 -0.0192386 0)
(-0.0388765 -0.0564131 0)
(-0.038018 -0.0941341 0)
(-0.0196649 -0.0929778 0)
(-0.00180576 0.0189545 0)
(-0.0045559 0.0207369 0)
(-0.00685889 0.0200671 0)
(-0.00866477 0.0188393 0)
(-0.00997853 0.0175102 0)
(-0.0108942 0.0162962 0)
(-0.0115185 0.0153313 0)
(-0.0119348 0.0147125 0)
(-0.0121966 0.014528 0)
(-0.0123443 0.0148778 0)
(-0.0124084 0.0158849 0)
(-0.0124113 0.0177006 0)
(-0.0122786 0.0204458 0)
(-0.0119241 0.023507 0)
(-0.0124223 0.0235253 0)
(-0.0157899 0.0137792 0)
(-0.0217424 -0.0117099 0)
(-0.0272217 -0.0515783 0)
(-0.0335402 -0.0993357 0)
(-0.0220022 -0.122375 0)
(-0.00239885 0.0229325 0)
(-0.00572035 0.0237409 0)
(-0.00813076 0.022179 0)
(-0.00974866 0.020266 0)
(-0.0107223 0.0184408 0)
(-0.0112464 0.0168695 0)
(-0.0114473 0.0156414 0)
(-0.011401 0.0148146 0)
(-0.0111293 0.0144442 0)
(-0.0106171 0.0146092 0)
(-0.00981246 0.015411 0)
(-0.00864081 0.0169588 0)
(-0.00696887 0.019313 0)
(-0.00458367 0.0220893 0)
(-0.00194261 0.0228823 0)
(-0.0014712 0.0164588 0)
(-0.00621027 -0.00427733 0)
(-0.0122133 -0.0428268 0)
(-0.0242296 -0.0958619 0)
(-0.022898 -0.149599 0)
(-0.00389433 0.0243608 0)
(-0.00791205 0.0254469 0)
(-0.00960716 0.0233123 0)
(-0.0104634 0.0209551 0)
(-0.0107687 0.0187776 0)
(-0.0107029 0.016902 0)
(-0.0103483 0.0154322 0)
(-0.00976026 0.0143855 0)
(-0.00893064 0.0137726 0)
(-0.00779044 0.0136303 0)
(-0.00622332 0.0140199 0)
(-0.00408285 0.0150073 0)
(-0.00120862 0.0165962 0)
(0.00263056 0.0185107 0)
(0.00722733 0.0194409 0)
(0.0111819 0.0155053 0)
(0.00907622 0.00150193 0)
(0.00551918 -0.0322479 0)
(-0.0114468 -0.0855339 0)
(-0.0229036 -0.177914 0)
(-0.00511965 0.042655 0)
(-0.00864267 0.0365476 0)
(-0.00905731 0.0295291 0)
(-0.00859583 0.0241952 0)
(-0.00781676 0.0204727 0)
(-0.00670619 0.0176645 0)
(-0.0052889 0.0155667 0)
(-0.00368074 0.0140448 0)
(-0.00189666 0.0129827 0)
(0.000139031 0.0123275 0)
(0.00255786 0.0120837 0)
(0.00553528 0.0122808 0)
(0.00924128 0.0129057 0)
(0.0138997 0.0137457 0)
(0.0192707 0.0141917 0)
(0.0253128 0.0118898 0)
(0.0253739 0.00361153 0)
(0.0303115 -0.0216372 0)
(0.000166833 -0.0674942 0)
(-0.0173196 -0.204761 0)
(-0.00696559 0.0173726 0)
(-0.00893478 0.0104616 0)
(-0.00349826 0.00914573 0)
(0.00250598 0.0107564 0)
(0.00904352 0.0108406 0)
(0.015033 0.00997576 0)
(0.0204089 0.00915266 0)
(0.025262 0.00854277 0)
(0.0297406 0.00806191 0)
(0.0340078 0.00767825 0)
(0.0382227 0.00741141 0)
(0.0425561 0.00728528 0)
(0.0471502 0.00731631 0)
(0.0522662 0.00738689 0)
(0.0574319 0.00733507 0)
(0.0641711 0.00594117 0)
(0.0624254 0.00331321 0)
(0.0785426 -0.00990041 0)
(0.0138604 -0.031404 0)
(0.0371406 -0.191027 0)
(0.0393589 0.0904847 0)
(0.0599007 0.0635318 0)
(0.0825042 0.0374912 0)
(0.100671 0.0236931 0)
(0.113603 0.0166995 0)
(0.123837 0.0127009 0)
(0.132784 0.0101241 0)
(0.140802 0.00834182 0)
(0.148033 0.0070356 0)
(0.154631 0.00603942 0)
(0.160749 0.00526621 0)
(0.166527 0.00465278 0)
(0.172041 0.0041574 0)
(0.177512 0.00373704 0)
(0.182297 0.00332715 0)
(0.188475 0.00278097 0)
(0.185375 0.00201811 0)
(0.209957 -0.000836875 0)
(0.100929 0.00896377 0)
(0.338465 -0.0923614 0)
)
;

boundaryField
{
    movingWall
    {
        type            calculated;
        value           uniform (1 0 0);
    }
    fixedWalls
    {
        type            calculated;
        value           uniform (0 0 0);
    }
    frontAndBack
    {
        type            empty;
    }
}


// ************************************************************************* //
