/*--------------------------------*- C++ -*----------------------------------*\
| =========                 |                                                 |
| \\      /  F ield         | OpenFOAM: The Open Source CFD Toolbox           |
|  \\    /   O peration     | Version:  2312                                  |
|   \\  /    A nd           | Website:  www.openfoam.com                      |
|    \\/     M anipulation  |                                                 |
\*---------------------------------------------------------------------------*/
FoamFile
{
    version     2.0;
    format      ascii;
    arch        "LSB;label=32;scalar=64";
    class       volSymmTensorField;
    location    "1";
    object      UPrime2Mean;
}
// * * * * * * * * * * * * * * * * * * * * * * * * * * * * * * * * * * * * * //

dimensions      [0 2 -2 0 0 0 0];

internalField   nonuniform List<symmTensor> 
400
(
(1.46662e-09 -1.45461e-09 0 1.44309e-09 0 0)
(6.15024e-08 -3.89176e-08 0 2.52161e-08 0 0)
(4.71922e-07 -1.69946e-07 0 6.16729e-08 0 0)
(1.42435e-06 -3.35977e-07 0 7.9658e-08 0 0)
(2.9807e-06 -4.94183e-07 0 8.23146e-08 0 0)
(5.09284e-06 -6.27774e-07 0 7.78453e-08 0 0)
(7.66051e-06 -7.29582e-07 0 7.01356e-08 0 0)
(1.05409e-05 -7.90186e-07 0 6.01569e-08 0 0)
(1.35313e-05 -7.91068e-07 0 4.74728e-08 0 0)
(1.63722e-05 -7.00091e-07 0 3.13496e-08 0 0)
(1.86637e-05 -4.88679e-07 0 1.39768e-08 0 0)
(1.98739e-05 -2.10055e-07 0 3.58532e-09 0 0)
(1.98074e-05 2.50766e-07 0 3.95529e-09 0 0)
(1.7953e-05 7.26577e-07 0 2.97918e-08 0 0)
(1.45262e-05 1.11874e-06 0 8.63337e-08 0 0)
(1.00843e-05 1.28266e-06 0 1.63311e-07 0 0)
(5.63336e-06 1.12676e-06 0 2.25578e-07 0 0)
(2.23776e-06 6.98067e-07 0 2.17932e-07 0 0)
(4.32313e-07 2.22053e-07 0 1.1422e-07 0 0)
(1.71388e-08 1.6728e-08 0 1.63319e-08 0 0)
(2.41324e-08 -3.82225e-08 0 6.17201e-08 0 0)
(3.02876e-07 -3.10267e-07 0 3.17901e-07 0 0)
(1.14979e-06 -7.96045e-07 0 5.51542e-07 0 0)
(2.68727e-06 -1.34287e-06 0 6.72086e-07 0 0)
(4.95992e-06 -1.86491e-06 0 7.03243e-07 0 0)
(7.93462e-06 -2.31479e-06 0 6.78904e-07 0 0)
(1.15052e-05 -2.65486e-06 0 6.18253e-07 0 0)
(1.54825e-05 -2.83764e-06 0 5.27959e-07 0 0)
(1.95839e-05 -2.79636e-06 0 4.09101e-07 0 0)
(2.34278e-05 -2.44547e-06 0 2.66006e-07 0 0)
(2.65218e-05 -1.70885e-06 0 1.20108e-07 0 0)
(2.82871e-05 -5.75266e-07 0 1.97781e-08 0 0)
(2.82129e-05 8.99134e-07 0 3.39573e-08 0 0)
(2.59637e-05 2.49602e-06 0 2.42713e-07 0 0)
(2.16374e-05 3.82786e-06 0 6.78771e-07 0 0)
(1.58666e-05 4.46736e-06 0 1.25953e-06 0 0)
(9.78012e-06 4.13269e-06 0 1.74825e-06 0 0)
(4.67752e-06 2.9171e-06 0 1.82045e-06 0 0)
(1.38745e-06 1.33863e-06 0 1.29194e-06 0 0)
(1.17263e-07 2.21931e-07 0 4.21025e-07 0 0)
(6.09993e-08 -1.66226e-07 0 4.55631e-07 0 0)
(5.24261e-07 -7.8084e-07 0 1.16309e-06 0 0)
(1.59743e-06 -1.62559e-06 0 1.65516e-06 0 0)
(3.36223e-06 -2.5409e-06 0 1.92309e-06 0 0)
(5.85611e-06 -3.42632e-06 0 2.01086e-06 0 0)
(9.07803e-06 -4.21258e-06 0 1.96589e-06 0 0)
(1.29647e-05 -4.82737e-06 0 1.8148e-06 0 0)
(1.73621e-05 -5.17492e-06 0 1.56643e-06 0 0)
(2.20102e-05 -5.12811e-06 0 1.22438e-06 0 0)
(2.6527e-05 -4.53461e-06 0 8.07474e-07 0 0)
(3.03943e-05 -3.25356e-06 0 3.79182e-07 0 0)
(3.29753e-05 -1.22361e-06 0 7.11433e-08 0 0)
(3.36166e-05 1.46448e-06 0 8.19016e-08 0 0)
(3.17971e-05 4.44831e-06 0 6.33102e-07 0 0)
(2.73786e-05 7.06925e-06 0 1.83194e-06 0 0)
(2.08604e-05 8.51822e-06 0 3.48481e-06 0 0)
(1.34673e-05 8.19336e-06 0 4.99272e-06 0 0)
(6.86099e-06 6.16957e-06 0 5.55537e-06 0 0)
(2.26852e-06 3.25657e-06 0 4.68161e-06 0 0)
(2.31087e-07 7.30473e-07 0 2.31728e-06 0 0)
(8.07556e-08 -3.31787e-07 0 1.36707e-06 0 0)
(6.43424e-07 -1.30715e-06 0 2.65601e-06 0 0)
(1.84325e-06 -2.50836e-06 0 3.41662e-06 0 0)
(3.74061e-06 -3.7917e-06 0 3.85218e-06 0 0)
(6.37192e-06 -5.05467e-06 0 4.02686e-06 0 0)
(9.76808e-06 -6.21617e-06 0 3.98469e-06 0 0)
(1.39243e-05 -7.17846e-06 0 3.74392e-06 0 0)
(1.87594e-05 -7.80166e-06 0 3.30254e-06 0 0)
(2.40886e-05 -7.89178e-06 0 2.65571e-06 0 0)
(2.95878e-05 -7.20307e-06 0 1.83009e-06 0 0)
(3.47489e-05 -5.47419e-06 0 9.36844e-07 0 0)
(3.88527e-05 -2.51792e-06 0 2.27396e-07 0 0)
(4.10022e-05 1.63765e-06 0 1.13735e-07 0 0)
(4.02499e-05 6.55469e-06 0 1.0991e-06 0 0)
(3.59201e-05 1.122e-05 0 3.52535e-06 0 0)
(2.81684e-05 1.41539e-05 0 7.13263e-06 0 0)
(1.84777e-05 1.40445e-05 0 1.07061e-05 0 0)
(9.42143e-06 1.08284e-05 0 1.24882e-05 0 0)
(3.05399e-06 5.86822e-06 0 1.13354e-05 0 0)
(3.02021e-07 1.38746e-06 0 6.44405e-06 0 0)
(8.47005e-08 -4.92154e-07 0 2.86423e-06 0 0)
(6.81704e-07 -1.81842e-06 0 4.85414e-06 0 0)
(1.94407e-06 -3.37863e-06 0 5.88494e-06 0 0)
(3.92709e-06 -5.04297e-06 0 6.50409e-06 0 0)
(6.67709e-06 -6.71836e-06 0 6.80816e-06 0 0)
(1.02613e-05 -8.32437e-06 0 6.82691e-06 0 0)
(1.47486e-05 -9.75374e-06 0 6.55362e-06 0 0)
(2.01644e-05 -1.08354e-05 0 5.95468e-06 0 0)
(2.64559e-05 -1.13097e-05 0 4.99039e-06 0 0)
(3.34313e-05 -1.08102e-05 0 3.66332e-06 0 0)
(4.06673e-05 -8.87939e-06 0 2.10349e-06 0 0)
(4.7384e-05 -5.06029e-06 0 6.86578e-07 0 0)
(5.23498e-05 8.91723e-07 0 1.30893e-07 0 0)
(5.38593e-05 8.64672e-06 0 1.46905e-06 0 0)
(5.00961e-05 1.6792e-05 0 5.68407e-06 0 0)
(4.02952e-05 2.25986e-05 0 1.27369e-05 0 0)
(2.63775e-05 2.30985e-05 0 2.03528e-05 0 0)
(1.29586e-05 1.77783e-05 0 2.46308e-05 0 0)
(3.84117e-06 9.29693e-06 0 2.29633e-05 0 0)
(3.36103e-07 2.07662e-06 0 1.34578e-05 0 0)
(8.07736e-08 -6.29258e-07 0 4.91727e-06 0 0)
(6.72493e-07 -2.28058e-06 0 7.75717e-06 0 0)
(1.95129e-06 -4.19835e-06 0 9.08456e-06 0 0)
(3.97973e-06 -6.25601e-06 0 9.92254e-06 0 0)
(6.8267e-06 -8.38298e-06 0 1.04269e-05 0 0)
(1.06039e-05 -1.05172e-05 0 1.06167e-05 0 0)
(1.54706e-05 -1.25681e-05 0 1.04523e-05 0 0)
(2.16007e-05 -1.43643e-05 0 9.84815e-06 0 0)
(2.91512e-05 -1.5604e-05 0 8.69068e-06 0 0)
(3.81929e-05 -1.57936e-05 0 6.89105e-06 0 0)
(4.85613e-05 -1.41977e-05 0 4.50606e-06 0 0)
(5.95771e-05 -9.86481e-06 0 1.95501e-06 0 0)
(6.9687e-05 -1.86911e-06 0 3.13317e-07 0 0)
(7.60222e-05 1.00736e-05 0 1.52618e-06 0 0)
(7.44086e-05 2.44079e-05 0 8.14237e-06 0 0)
(6.14911e-05 3.61001e-05 0 2.13824e-05 0 0)
(3.95676e-05 3.80914e-05 0 3.71905e-05 0 0)
(1.79291e-05 2.83632e-05 0 4.62629e-05 0 0)
(4.51246e-06 1.32267e-05 0 4.25419e-05 0 0)
(3.47283e-07 2.50556e-06 0 2.37381e-05 0 0)
(7.37991e-08 -7.37144e-07 0 7.44967e-06 0 0)
(6.38101e-07 -2.67573e-06 0 1.13326e-05 0 0)
(1.89858e-06 -4.93784e-06 0 1.30228e-05 0 0)
(3.93133e-06 -7.3891e-06 0 1.41497e-05 0 0)
(6.83381e-06 -9.99372e-06 0 1.49686e-05 0 0)
(1.0768e-05 -1.27313e-05 0 1.55098e-05 0 0)
(1.59983e-05 -1.55673e-05 0 1.5712e-05 0 0)
(2.28894e-05 -1.83881e-05 0 1.54342e-05 0 0)
(3.19129e-05 -2.09218e-05 0 1.44538e-05 0 0)
(4.3609e-05 -2.26077e-05 0 1.24963e-05 0 0)
(5.84176e-05 -2.24052e-05 0 9.35993e-06 0 0)
(7.62307e-05 -1.86107e-05 0 5.24759e-06 0 0)
(9.55739e-05 -8.91456e-06 0 1.42015e-06 0 0)
(0.000112325 8.88088e-06 0 1.13596e-06 0 0)
(0.000117871 3.44623e-05 0 1.03809e-05 0 0)
(0.000101473 5.92009e-05 0 3.50227e-05 0 0)
(6.39524e-05 6.55178e-05 0 6.88225e-05 0 0)
(2.52645e-05 4.51986e-05 0 8.7141e-05 0 0)
(5.08338e-06 1.54891e-05 0 7.39099e-05 0 0)
(5.78937e-07 1.83753e-06 0 3.61251e-05 0 0)
(6.63423e-08 -8.14021e-07 0 1.03634e-05 0 0)
(5.92451e-07 -2.98931e-06 0 1.5511e-05 0 0)
(1.80899e-06 -5.56159e-06 0 1.76632e-05 0 0)
(3.80349e-06 -8.37784e-06 0 1.91808e-05 0 0)
(6.69769e-06 -1.14471e-05 0 2.04721e-05 0 0)
(1.06978e-05 -1.48146e-05 0 2.1622e-05 0 0)
(1.61724e-05 -1.85532e-05 0 2.25924e-05 0 0)
(2.37045e-05 -2.26986e-05 0 2.32263e-05 0 0)
(3.41801e-05 -2.71551e-05 0 2.32046e-05 0 0)
(4.88734e-05 -3.14921e-05 0 2.19951e-05 0 0)
(6.93977e-05 -3.45388e-05 0 1.88748e-05 0 0)
(9.72459e-05 -3.3751e-05 0 1.32755e-05 0 0)
(0.000132735 -2.45997e-05 0 5.88363e-06 0 0)
(0.000172466 -3.39526e-07 0 9.81895e-07 0 0)
(0.000202114 4.48165e-05 0 1.05694e-05 0 0)
(0.000192882 0.000101775 0 5.43106e-05 0 0)
(0.00012968 0.000128781 0 0.000129587 0 0)
(4.69328e-05 8.82138e-05 0 0.000173629 0 0)
(6.0487e-06 1.72438e-05 0 0.000127095 0 0)
(2.52179e-06 -6.63891e-07 0 4.79757e-05 0 0)
(6.01344e-08 -8.60281e-07 0 1.35516e-05 0 0)
(5.46839e-07 -3.20986e-06 0 2.01891e-05 0 0)
(1.70554e-06 -6.03152e-06 0 2.29148e-05 0 0)
(3.62476e-06 -9.1398e-06 0 2.49348e-05 0 0)
(6.43278e-06 -1.25903e-05 0 2.68753e-05 0 0)
(1.03554e-05 -1.6511e-05 0 2.89456e-05 0 0)
(1.58331e-05 -2.11314e-05 0 3.12206e-05 0 0)
(2.36412e-05 -2.67465e-05 0 3.36476e-05 0 0)
(3.511e-05 -3.36588e-05 0 3.59496e-05 0 0)
(5.24582e-05 -4.19719e-05 0 3.74294e-05 0 0)
(7.91625e-05 -5.10076e-05 0 3.67004e-05 0 0)
(0.000120104 -5.80936e-05 0 3.17078e-05 0 0)
(0.000181752 -5.68323e-05 0 2.094e-05 0 0)
(0.000270627 -3.33688e-05 0 6.63552e-06 0 0)
(0.00037814 3.7204e-05 0 5.43369e-06 0 0)
(0.000445258 0.000170286 0 6.63144e-05 0 0)
(0.000374917 0.000293368 0 0.000231275 0 0)
(0.000177188 0.000253074 0 0.000369966 0 0)
(2.11234e-05 6.52758e-05 0 0.000260766 0 0)
(6.32411e-06 -4.69746e-06 0 6.20883e-05 0 0)
(5.69664e-08 -8.80094e-07 0 1.69085e-05 0 0)
(5.14374e-07 -3.33555e-06 0 2.52373e-05 0 0)
(1.62095e-06 -6.32018e-06 0 2.86285e-05 0 0)
(3.44918e-06 -9.59418e-06 0 3.12326e-05 0 0)
(6.10417e-06 -1.32462e-05 0 3.39645e-05 0 0)
(9.78612e-06 -1.74816e-05 0 3.72476e-05 0 0)
(1.49335e-05 -2.27031e-05 0 4.14093e-05 0 0)
(2.24007e-05 -2.95407e-05 0 4.67258e-05 0 0)
(3.38106e-05 -3.89084e-05 0 5.3314e-05 0 0)
(5.22196e-05 -5.19829e-05 0 6.08194e-05 0 0)
(8.32331e-05 -6.98005e-05 0 6.77947e-05 0 0)
(0.000136596 -9.20242e-05 0 7.11507e-05 0 0)
(0.00023203 -0.000115722 0 6.65401e-05 0 0)
(0.000410897 -0.000125948 0 4.67226e-05 0 0)
(0.000699958 -5.41707e-05 0 1.05431e-05 0 0)
(0.000978629 0.000214696 0 5.0613e-05 0 0)
(0.000991631 0.000605659 0 0.000372041 0 0)
(0.000641419 0.000711774 0 0.000799753 0 0)
(0.000184139 0.000326651 0 0.000652757 0 0)
(5.93575e-06 -5.42925e-06 0 8.97232e-05 0 0)
(5.92085e-08 -8.85435e-07 0 2.0344e-05 0 0)
(5.13256e-07 -3.38687e-06 0 3.05183e-05 0 0)
(1.60483e-06 -6.43227e-06 0 3.46073e-05 0 0)
(3.3711e-06 -9.69674e-06 0 3.77909e-05 0 0)
(5.85945e-06 -1.32682e-05 0 4.13392e-05 0 0)
(9.19064e-06 -1.73861e-05 0 4.59791e-05 0 0)
(1.37009e-05 -2.25723e-05 0 5.24455e-05 0 0)
(2.0129e-05 -2.97358e-05 0 6.16349e-05 0 0)
(3.00129e-05 -4.03986e-05 0 7.46113e-05 0 0)
(4.65467e-05 -5.70539e-05 0 9.24218e-05 0 0)
(7.63062e-05 -8.35186e-05 0 0.00011571 0 0)
(0.000132055 -0.000124911 0 0.000144737 0 0)
(0.000244947 -0.000190982 0 0.000178389 0 0)
(0.000497266 -0.000281944 0 0.000187973 0 0)
(0.000965403 -0.000269107 0 9.24091e-05 0 0)
(0.0014764 0.000137802 0 2.02787e-05 0 0)
(0.00168151 0.000911126 0 0.00050775 0 0)
(0.00134985 0.00143313 0 0.00153157 0 0)
(0.000603651 0.000989503 0 0.00166645 0 0)
(5.12453e-05 9.04068e-05 0 0.000287885 0 0)
(7.02354e-08 -9.03599e-07 0 2.38432e-05 0 0)
(5.68274e-07 -3.41638e-06 0 3.59216e-05 0 0)
(1.72638e-06 -6.42695e-06 0 4.06373e-05 0 0)
(3.52828e-06 -9.47977e-06 0 4.42489e-05 0 0)
(5.93689e-06 -1.26165e-05 0 4.84302e-05 0 0)
(8.95804e-06 -1.60319e-05 0 5.4264e-05 0 0)
(1.27535e-05 -2.02229e-05 0 6.29862e-05 0 0)
(1.77736e-05 -2.61216e-05 0 7.63228e-05 0 0)
(2.5053e-05 -3.54216e-05 0 9.67605e-05 0 0)
(3.69013e-05 -5.1224e-05 0 0.000127856 0 0)
(5.84556e-05 -7.91099e-05 0 0.000175042 0 0)
(0.000100152 -0.000128122 0 0.000248419 0 0)
(0.000186522 -0.000216972 0 0.000361386 0 0)
(0.000394401 -0.000368298 0 0.000452376 0 0)
(0.000831026 -0.00045384 0 0.000307148 0 0)
(0.0014024 -9.25429e-05 0 2.03094e-05 0 0)
(0.00175489 0.000857568 0 0.000507925 0 0)
(0.00166424 0.00186612 0 0.00224511 0 0)
(0.00102035 0.00187377 0 0.00353344 0 0)
(0.000182689 0.000468522 0 0.00133091 0 0)
(9.51245e-08 -9.80563e-07 0 2.73923e-05 0 0)
(7.14773e-07 -3.52786e-06 0 4.13869e-05 0 0)
(2.07191e-06 -6.42654e-06 0 4.65269e-05 0 0)
(4.08485e-06 -9.07066e-06 0 5.02314e-05 0 0)
(6.62387e-06 -1.14178e-05 0 5.46029e-05 0 0)
(9.5926e-06 -1.35323e-05 0 6.10528e-05 0 0)
(1.30038e-05 -1.57002e-05 0 7.12603e-05 0 0)
(1.70324e-05 -1.84941e-05 0 8.77212e-05 0 0)
(2.21442e-05 -2.3017e-05 0 0.000114329 0 0)
(2.94325e-05 -3.1431e-05 0 0.000157242 0 0)
(4.15014e-05 -4.7838e-05 0 0.000226862 0 0)
(6.42046e-05 -7.84641e-05 0 0.000342915 0 0)
(0.000109575 -0.00013385 0 0.000533578 0 0)
(0.000213345 -0.000241574 0 0.000726591 0 0)
(0.000477532 -0.000383595 0 0.000599181 0 0)
(0.0009492 -0.000269498 0 0.000114069 0 0)
(0.00136222 0.00040597 0 0.000332653 0 0)
(0.00142194 0.00151009 0 0.00233407 0 0)
(0.00108104 0.00224833 0 0.0053422 0 0)
(0.00028147 0.000977886 0 0.003807 0 0)
(1.42835e-07 -1.1789e-06 0 3.15469e-05 0 0)
(9.96481e-07 -3.8051e-06 0 4.70847e-05 0 0)
(2.73248e-06 -6.55945e-06 0 5.22012e-05 0 0)
(5.18785e-06 -8.63489e-06 0 5.54592e-05 0 0)
(8.15298e-06 -9.92297e-06 0 5.93401e-05 0 0)
(1.14963e-05 -1.0322e-05 0 6.5452e-05 0 0)
(1.52247e-05 -9.79093e-06 0 7.56904e-05 0 0)
(1.95e-05 -8.26015e-06 0 9.29216e-05 0 0)
(2.46856e-05 -5.62886e-06 0 0.000121733 0 0)
(3.15225e-05 -1.86529e-06 0 0.000169519 0 0)
(4.17378e-05 2.94255e-06 0 0.000248567 0 0)
(5.99343e-05 9.507e-06 0 0.000380354 0 0)
(9.8163e-05 2.2578e-05 0 0.00059577 0 0)
(0.000180876 2.58334e-05 0 0.000837306 0 0)
(0.000366156 -7.2986e-05 0 0.000808928 0 0)
(0.000781512 -0.000246219 0 0.000289577 0 0)
(0.0012314 -9.01591e-05 0 0.000172047 0 0)
(0.00128012 0.000707306 0 0.00179458 0 0)
(0.000935388 0.00183594 0 0.0058116 0 0)
(0.000292857 0.00122975 0 0.00717179 0 0)
(2.31112e-07 -1.62688e-06 0 3.51196e-05 0 0)
(1.49498e-06 -4.41745e-06 0 5.26818e-05 0 0)
(3.79309e-06 -6.87422e-06 0 5.74288e-05 0 0)
(6.90243e-06 -8.22215e-06 0 5.96696e-05 0 0)
(1.05557e-05 -8.29742e-06 0 6.23383e-05 0 0)
(1.46687e-05 -6.89317e-06 0 6.70608e-05 0 0)
(1.94379e-05 -3.67175e-06 0 7.56154e-05 0 0)
(2.53802e-05 2.06272e-06 0 9.06731e-05 0 0)
(3.3443e-05 1.16414e-05 0 0.000116478 0 0)
(4.53041e-05 2.72537e-05 0 0.000159774 0 0)
(6.4288e-05 5.25e-05 0 0.000231039 0 0)
(9.7852e-05 9.34225e-05 0 0.000346125 0 0)
(0.000165185 0.000161032 0 0.000524604 0 0)
(0.000303631 0.000249714 0 0.00074036 0 0)
(0.000541501 0.000239049 0 0.000789633 0 0)
(0.00094792 -5.03052e-05 0 0.000456942 0 0)
(0.00141983 -0.000364719 0 0.000150984 0 0)
(0.0014542 -1.97912e-05 0 0.00110505 0 0)
(0.000864582 0.00105413 0 0.00490914 0 0)
(0.000266573 0.0010567 0 0.0100148 0 0)
(3.62217e-07 -2.00808e-06 0 4.40067e-05 0 0)
(2.22415e-06 -4.65295e-06 0 6.02938e-05 0 0)
(5.26448e-06 -6.81786e-06 0 6.27432e-05 0 0)
(9.11563e-06 -7.30486e-06 0 6.29479e-05 0 0)
(1.34951e-05 -6.13316e-06 0 6.37081e-05 0 0)
(1.83872e-05 -3.20884e-06 0 6.62523e-05 0 0)
(2.43944e-05 1.97109e-06 0 7.1804e-05 0 0)
(3.26316e-05 1.04464e-05 0 8.23241e-05 0 0)
(4.50413e-05 2.4224e-05 0 0.000100937 0 0)
(6.49942e-05 4.66516e-05 0 0.000132521 0 0)
(9.83941e-05 8.28689e-05 0 0.000183986 0 0)
(0.00015624 0.000139928 0 0.000263902 0 0)
(0.000261014 0.000225777 0 0.0003796 0 0)
(0.000452327 0.000333529 0 0.000518302 0 0)
(0.000755259 0.000366913 0 0.000583093 0 0)
(0.00114839 0.000123535 0 0.000459633 0 0)
(0.00158751 -0.000368834 0 0.00021982 0 0)
(0.00167911 -0.000460804 0 0.000583088 0 0)
(0.000918255 0.000285485 0 0.00341664 0 0)
(0.000253566 0.000530433 0 0.0115942 0 0)
(8.30651e-07 -3.17533e-06 0 3.97022e-05 0 0)
(3.75309e-06 -5.49073e-06 0 5.88638e-05 0 0)
(7.17833e-06 -6.00857e-06 0 6.2513e-05 0 0)
(1.1402e-05 -4.68648e-06 0 6.28014e-05 0 0)
(1.58168e-05 -2.22774e-06 0 6.25764e-05 0 0)
(2.09062e-05 1.83909e-06 0 6.29598e-05 0 0)
(2.76416e-05 8.12213e-06 0 6.51394e-05 0 0)
(3.76787e-05 1.76045e-05 0 7.04256e-05 0 0)
(5.38839e-05 3.22132e-05 0 8.06662e-05 0 0)
(8.10987e-05 5.5207e-05 0 9.85847e-05 0 0)
(0.000127286 9.13452e-05 0 0.000127777 0 0)
(0.000205195 0.000146023 0 0.000171662 0 0)
(0.000334228 0.000221756 0 0.000230553 0 0)
(0.000543799 0.000308011 0 0.000295332 0 0)
(0.000844586 0.000342623 0 0.000336032 0 0)
(0.0011982 0.000195046 0 0.000305533 0 0)
(0.00150186 -0.000244204 0 0.000246279 0 0)
(0.0017709 -0.000614929 0 0.00034352 0 0)
(0.00105907 -0.000254449 0 0.00198603 0 0)
(0.00034481 -0.000338214 0 0.0118519 0 0)
(8.27057e-07 -5.74672e-06 0 8.49286e-05 0 0)
(3.51611e-06 -4.04101e-06 0 0.000106716 0 0)
(7.92961e-06 8.24132e-07 0 9.65877e-05 0 0)
(1.25586e-05 5.69954e-06 0 8.46656e-05 0 0)
(1.68704e-05 1.06045e-05 0 7.73691e-05 0 0)
(2.24215e-05 1.66618e-05 0 7.09354e-05 0 0)
(3.07965e-05 2.46143e-05 0 6.63628e-05 0 0)
(4.4265e-05 3.49414e-05 0 6.4305e-05 0 0)
(6.60643e-05 4.88121e-05 0 6.5196e-05 0 0)
(0.000101503 6.83952e-05 0 6.98196e-05 0 0)
(0.000159096 9.70093e-05 0 7.94664e-05 0 0)
(0.000251692 0.000138358 0 9.52621e-05 0 0)
(0.000394881 0.000192703 0 0.000116014 0 0)
(0.000605363 0.000249263 0 0.000135029 0 0)
(0.000876191 0.000269395 0 0.000141736 0 0)
(0.00118223 0.000177679 0 0.000127043 0 0)
(0.00131793 -0.000121856 0 0.000142501 0 0)
(0.00174553 -0.000604433 0 0.000300127 0 0)
(0.0010408 -0.000426948 0 0.000873576 0 0)
(0.000849691 -0.00163757 0 0.0092226 0 0)
(3.01901e-06 3.33713e-06 0 2.51581e-05 0 0)
(7.73941e-06 4.92446e-06 0 1.18165e-05 0 0)
(1.67136e-05 1.02803e-05 0 1.23728e-05 0 0)
(2.57206e-05 1.9602e-05 0 1.97951e-05 0 0)
(4.58985e-05 3.17221e-05 0 2.38323e-05 0 0)
(7.9475e-05 4.29031e-05 0 2.37565e-05 0 0)
(0.000127234 5.36488e-05 0 2.29735e-05 0 0)
(0.000189128 6.5044e-05 0 2.27669e-05 0 0)
(0.000266709 7.76639e-05 0 2.3121e-05 0 0)
(0.000363548 9.21445e-05 0 2.39865e-05 0 0)
(0.000485992 0.00010977 0 2.55539e-05 0 0)
(0.000644267 0.00013216 0 2.80029e-05 0 0)
(0.000850543 0.000159842 0 3.10757e-05 0 0)
(0.00112173 0.000186704 0 3.24173e-05 0 0)
(0.0014364 0.00019155 0 2.79828e-05 0 0)
(0.00179637 0.000117889 0 1.35786e-05 0 0)
(0.00191881 -0.00011258 0 2.58867e-05 0 0)
(0.00230856 -0.000578019 0 0.000196407 0 0)
(0.0008427 -0.000394841 0 0.000337082 0 0)
(0.00277233 -0.00277195 0 0.00417088 0 0)
(2.7496e-05 5.53932e-05 0 0.000115067 0 0)
(0.000114368 0.000177554 0 0.000289587 0 0)
(0.000314052 0.000230802 0 0.000198693 0 0)
(0.000605575 0.000238718 0 0.000119705 0 0)
(0.000913106 0.000227934 0 7.59305e-05 0 0)
(0.00121781 0.00021292 0 5.12496e-05 0 0)
(0.00152968 0.000198858 0 3.62821e-05 0 0)
(0.00185195 0.000187065 0 2.67345e-05 0 0)
(0.00218385 0.000177302 0 2.03541e-05 0 0)
(0.00252674 0.000169331 0 1.59452e-05 0 0)
(0.0028847 0.00016332 0 1.28575e-05 0 0)
(0.00326409 0.00015907 0 1.06334e-05 0 0)
(0.00366906 0.000155964 0 8.94672e-06 0 0)
(0.00410936 0.000151878 0 7.46285e-06 0 0)
(0.00452974 0.000140237 0 5.77313e-06 0 0)
(0.00497802 0.000103314 0 3.13746e-06 0 0)
(0.00485977 2.38837e-05 0 1.29814e-06 0 0)
(0.00508301 -0.000237343 0 2.25791e-05 0 0)
(0.00166422 -0.000374954 0 0.000194848 0 0)
(0.00816235 -0.000882925 0 0.000167157 0 0)
)
;

boundaryField
{
    movingWall
    {
        type            calculated;
        value           uniform (0 0 0 0 0 0);
    }
    fixedWalls
    {
        type            calculated;
        value           uniform (0 0 0 0 0 0);
    }
    frontAndBack
    {
        type            empty;
    }
}


// ************************************************************************* //
