/*--------------------------------*- C++ -*----------------------------------*\
| =========                 |                                                 |
| \\      /  F ield         | OpenFOAM: The Open Source CFD Toolbox           |
|  \\    /   O peration     | Version:  2312                                  |
|   \\  /    A nd           | Website:  www.openfoam.com                      |
|    \\/     M anipulation  |                                                 |
\*---------------------------------------------------------------------------*/
FoamFile
{
    version     2.0;
    format      ascii;
    arch        "LSB;label=32;scalar=64";
    class       volVectorField;
    location    "1";
    object      URandom;
}
// * * * * * * * * * * * * * * * * * * * * * * * * * * * * * * * * * * * * * //

dimensions      [0 1 -1 0 0 0 0];

internalField   nonuniform List<vector> 
400
(
(0.0907582 -0.0017409 -0.0415285)
(0.0695028 -0.0367548 -0.0600658)
(0.010881 0.0494571 -0.0863566)
(-0.0797761 0.0305485 -0.0592215)
(-0.074848 -0.0415294 0.0596178)
(-0.0972323 0.019858 0.0426155)
(0.0294378 0.0201673 0.0895845)
(0.0675096 0.060232 0.00969639)
(-0.0930734 0.0113358 0.060238)
(-0.1011 0.0341604 -0.0388219)
(0.0016961 -0.0979999 0.000458146)
(0.0101652 -0.0680051 -0.0681063)
(-0.0725811 -0.0686761 -0.0466777)
(-0.0995684 0.0413587 0.0345147)
(0.0328265 -0.0887112 0.0116875)
(-0.0798383 -0.0682399 -0.029771)
(0.0428506 0.0272254 -0.0807197)
(-0.0395142 -0.0685068 0.0661037)
(-0.0770371 -0.0624577 0.0259411)
(-0.0622499 -0.0524151 0.0590508)
(0.0387163 -0.0619339 0.0668531)
(0.0510514 -0.0257813 0.079853)
(0.0349388 -0.0808839 0.0381731)
(0.0649489 0.057782 -0.0438576)
(-0.067901 0.0632963 -0.0534423)
(-0.0413254 -0.0281807 0.0899488)
(-0.0731308 0.0825421 0.00453629)
(0.0260751 0.0815589 -0.045759)
(-0.071798 -0.0761764 -0.028332)
(-0.076381 0.083032 -0.0019737)
(-0.0883253 -0.0177302 0.0697597)
(0.00210865 0.0238528 -0.0946911)
(0.010654 0.0925331 -0.0194262)
(-0.0498352 0.0201855 -0.0924131)
(-0.0888392 -0.0667764 -0.0280459)
(-0.0156712 0.0952363 0.0102352)
(0.0867844 0.0151662 -0.00234655)
(-0.0160387 -0.0785813 0.0670657)
(0.0041224 -0.0699871 0.0747263)
(-0.00218937 0.093089 -0.0299677)
(0.0239277 -0.0403285 -0.0866909)
(0.053635 0.0747858 0.042819)
(-0.0492878 -0.0740596 -0.0423353)
(0.0230997 0.0945788 0.0332439)
(-0.0381557 -0.0269501 0.090146)
(0.0808292 -0.0306861 0.0139653)
(-0.0750278 0.0052415 -0.0789441)
(-0.0731582 -0.0186798 0.0785039)
(-0.0952342 -0.0488263 0.0345514)
(0.0282762 -0.0831959 -0.0170183)
(-0.0769949 0.0754134 -0.0377373)
(0.00186857 -0.0867592 0.0428702)
(0.0129301 0.0800438 -0.0471265)
(-0.0866028 -0.000910045 0.0751667)
(-0.0860581 -0.0292392 0.070226)
(0.0231054 0.0305692 -0.0837945)
(0.0229512 -0.071539 -0.0686192)
(0.0321086 -0.0456813 0.0832056)
(0.0621725 -0.0810206 0.00952383)
(-0.0275382 -0.0826436 0.0578014)
(-0.0754976 0.0265419 0.0631794)
(-0.0641138 -0.00235595 0.0787601)
(-0.0475502 0.0917439 -0.0322011)
(-0.0520448 0.0248586 -0.0877762)
(0.0825255 0.0382529 0.0235414)
(0.0619068 -0.0351511 0.0523594)
(-0.0285631 -0.0728422 -0.0583546)
(0.00264903 -0.0208805 0.0942565)
(0.0671667 -0.0044735 0.0505854)
(0.0505011 -0.0622258 0.0222414)
(-0.0239067 0.0340421 0.0950957)
(0.0398382 -0.0326944 -0.0698711)
(-0.00407602 -0.0543918 0.082468)
(0.0157315 -0.0711262 -0.0632927)
(-0.0896026 -0.0284153 -0.0704129)
(-0.0440529 0.0861832 0.00859801)
(-0.107633 -0.0446716 -0.0190843)
(0.0462948 0.0465681 -0.0571289)
(-0.0265675 -0.106706 0.0236179)
(-0.00263348 -0.106731 0.0192512)
(-0.051783 0.0468765 0.0763587)
(-0.0997775 -0.0174197 -0.00122472)
(0.0396358 0.0740081 0.0614815)
(-0.1039 -0.0102717 -0.0184048)
(-0.0900877 0.0114237 -0.0597651)
(0.00335656 -0.0841364 0.0309262)
(0.0717599 -0.0285551 -0.0331328)
(-0.0660601 0.0755495 -0.0560849)
(-0.084873 0.0826431 0.0118332)
(-0.00407352 0.0660365 0.078503)
(0.000828652 0.0425902 0.089226)
(0.0624399 0.0429584 -0.0240495)
(-0.0087632 0.0549063 0.0808986)
(0.0256202 0.0257158 -0.0792558)
(0.0149896 0.0591157 -0.0602214)
(-0.0987933 0.0052807 0.0617809)
(0.0799831 -0.00528941 -0.0186896)
(0.00878361 0.0459111 0.0741205)
(0.0533624 -0.0711655 -0.0594537)
(0.0588803 0.016325 -0.0745373)
(-0.0469903 -0.0397681 -0.074353)
(0.0253682 0.0879894 0.056789)
(-0.0932685 0.0137535 0.0477793)
(0.0623477 0.0494725 -0.0606385)
(-0.0238176 0.0549995 -0.0892772)
(0.00611575 -0.0244578 -0.0912036)
(-0.0669995 0.0970387 -0.00665653)
(0.0179107 -0.00112035 0.0926114)
(0.054801 0.0597866 0.0437129)
(0.0192397 0.0201816 0.0898214)
(-0.103189 -0.00735426 -0.0621458)
(0.00459009 0.041903 0.0863376)
(0.0433475 -0.0589515 0.031217)
(-0.0401166 0.0938479 -0.0103555)
(-0.0923986 0.040714 -0.0593523)
(-0.00265306 -0.0495455 0.0916898)
(0.0430156 -0.089438 0.0394386)
(0.00187133 -0.0981667 0.0664321)
(-0.00737359 -0.0855523 -0.0773226)
(0.070197 0.0333645 -0.0512589)
(0.0310257 0.0885831 -0.0542116)
(0.0899005 -0.0175115 0.0200098)
(-0.0675427 0.0601892 -0.0631754)
(0.0725194 -0.0453566 0.00218348)
(0.0309748 -0.0211043 0.0839113)
(-0.0615071 0.09709 -0.028475)
(0.0734897 -0.0242537 0.0245913)
(0.0273187 0.101964 -0.0151481)
(-0.0154544 -0.0130351 0.0962014)
(0.0101424 0.0772485 0.0675587)
(0.0633969 0.00605656 0.0384858)
(-0.0782462 -0.0786106 -0.0237666)
(0.0492008 -0.0314153 -0.0387568)
(-0.0947627 0.014103 0.0811638)
(-0.0267879 -0.0297427 0.0978469)
(0.0176776 -0.108634 -0.000748011)
(0.0122531 -0.123994 0.0103098)
(0.019721 0.0197868 0.0770523)
(0.0651557 -0.0511854 -0.0703625)
(0.0780331 0.024682 -0.04939)
(0.0573088 0.0596086 0.066445)
(0.0622884 -0.0453088 0.0452572)
(-0.000471817 0.0723961 -0.0825285)
(0.03238 -0.0442418 0.0685098)
(-0.067209 -0.0481821 -0.0498725)
(0.0123197 0.0668207 -0.0831947)
(-0.0220122 -0.0727962 -0.0426004)
(-0.0049272 -0.0747207 -0.0362688)
(-0.0458353 0.0169901 0.0971622)
(0.0458119 -0.046933 0.0274835)
(0.0116893 0.0456965 0.0848555)
(-0.0240276 -0.0500327 -0.0773699)
(-0.117648 0.0275474 0.0635143)
(-0.0711255 0.0440672 -0.0862913)
(-0.104315 -0.0952629 -0.0292302)
(0.0258894 -0.0918503 -0.00160806)
(-0.113482 -0.0723299 0.0659887)
(-0.0508281 0.0473175 0.00596221)
(-0.0862795 -0.0698012 0.0455266)
(-0.0608995 0.0508978 -0.0356733)
(-0.0719621 0.0820578 0.0210946)
(0.0594873 0.0760361 0.0517247)
(-0.0711437 0.03718 0.0727622)
(0.0614264 0.0175226 -0.0724991)
(-0.0625253 0.0557395 -0.0768473)
(0.0210187 -0.0496016 0.0636301)
(0.0580094 0.0124612 -0.0676869)
(-0.0356194 -0.074861 -0.0227766)
(-0.057017 0.0111224 -0.0932319)
(0.0436486 0.0903602 -0.0157232)
(-0.0288591 0.0869339 0.0750669)
(-0.0923809 0.104832 0.00047712)
(-0.119262 0.00660436 -0.0722462)
(-0.0470227 0.0918252 -0.0501178)
(-8.25297e-05 -0.0536217 -0.046424)
(-0.142795 0.0360594 0.044752)
(-0.0571514 -0.133054 0.0634209)
(0.0413044 -0.0787268 0.0112557)
(-0.068742 -0.0118125 -0.0767306)
(0.0360994 0.036088 0.0786334)
(-0.0208144 0.0595789 0.0881109)
(-0.0609721 0.10083 0.00594933)
(0.0828399 -0.0216631 -0.0224676)
(-0.050708 -0.0465417 -0.0591777)
(-0.0353368 0.117585 0.0128667)
(0.00988043 0.107073 0.0489324)
(0.0597397 -0.0172096 -0.0532965)
(-0.102609 -0.00866933 0.0408321)
(0.0192465 0.0955301 -0.0591164)
(-0.0934448 0.0853433 -0.0467164)
(-0.100094 0.0044589 -0.070585)
(0.0215807 -0.0102592 0.065573)
(0.000790014 -0.0489776 -0.0263591)
(-0.133297 -0.00297339 0.077807)
(-0.0905994 0.0500478 0.0898704)
(-0.126803 0.0151891 -0.0890238)
(-0.0392692 -0.137746 0.0158541)
(-0.192907 -0.120329 0.0226038)
(0.0232343 -0.15001 -0.0210883)
(0.00842127 -0.12354 -0.0338405)
(0.0371284 -0.0739887 0.00429423)
(-0.0628863 0.0489833 -0.0750695)
(0.0673768 -0.0221423 0.052832)
(-0.0565896 0.0756761 -0.0691305)
(-0.0132132 -0.0083701 -0.0944764)
(0.0623355 -0.00725842 0.060026)
(0.0507967 -0.0466249 -0.0243413)
(0.0115113 -0.0249178 0.0802653)
(0.0300098 0.111798 0.030501)
(-0.066381 -0.0283746 0.0663228)
(-0.0992352 0.106459 -0.0213801)
(-0.0233294 -0.0374177 0.0589494)
(0.0323 0.0960656 0.014906)
(-0.131265 0.0783192 -0.0773949)
(-0.155693 0.0394669 -0.0824286)
(-0.14562 0.0446393 -0.0681591)
(-0.149937 -0.0682159 -0.0939453)
(-0.0239351 -0.123842 -0.0452482)
(-0.136735 -0.090664 -0.0611532)
(0.0274948 -0.0858899 0.0810751)
(0.0765821 -0.00119205 -0.0595877)
(0.0431705 -0.0651691 0.00359207)
(-0.0650766 -0.054439 0.008103)
(-0.00943348 0.108423 -0.0555153)
(0.0221587 0.0606349 -0.088843)
(-0.0781425 0.0607083 -0.064583)
(-0.051355 0.0883678 0.0694494)
(-0.0830925 -0.0252917 0.0445608)
(-0.055174 0.0396436 0.0917521)
(-0.0888243 0.0523693 -0.0703025)
(-0.0312542 -0.00936997 0.0840433)
(0.0557849 0.0102403 0.0298106)
(0.0126095 0.128936 -0.0549779)
(-0.0740116 0.12513 0.077889)
(-0.0712288 -0.0213224 -0.076343)
(-0.0178455 0.0201862 0.07497)
(-0.0565309 0.00741134 0.0456919)
(-0.0786133 -0.0469499 0.0170807)
(0.0007031 -0.220239 -0.0496963)
(-0.0171698 -0.198968 -0.0813293)
(-0.0777437 -0.0360316 0.0275923)
(0.0677922 0.0597602 0.0622268)
(-0.00075742 0.116678 -0.0429611)
(-0.0718699 -0.0461366 -0.0175027)
(0.0614227 0.0653681 -0.0621327)
(0.00235649 0.123206 0.0300375)
(0.0768862 0.0196592 -0.0498543)
(-0.0684167 -0.0479969 0.0107543)
(-0.0440862 -0.00993201 -0.0823729)
(-0.0456785 0.0303292 -0.0936338)
(0.051312 0.0207816 0.0706773)
(0.00820695 -0.0366561 0.0214179)
(0.0281599 0.0946808 0.085855)
(-0.0478602 0.156821 0.0471559)
(0.0461324 -0.016857 -0.0224779)
(0.0244521 0.0583553 0.0673623)
(0.00342792 -0.0539307 0.0958524)
(-0.119276 -0.0739216 0.0161895)
(0.03097 -0.152754 -0.0172915)
(0.00852117 -0.290478 -0.0343705)
(-0.0513332 0.0788583 -0.0663022)
(-0.0501407 0.057528 -0.082723)
(0.0685757 0.0959577 -0.00780053)
(0.0622785 0.0991825 -0.0185856)
(-0.0210538 -0.0399678 -0.0715098)
(-0.0834812 0.0324695 -0.0641425)
(0.0594873 0.0330133 0.0747606)
(-0.0974208 0.041207 0.0409564)
(0.0698607 0.0900801 0.0370226)
(0.0870674 0.0720521 0.0244564)
(0.0292796 0.142045 0.0109224)
(0.00986443 0.0674567 0.0989025)
(-0.0818641 0.113632 0.0177907)
(0.0880528 0.0664988 0.0655163)
(0.0265458 0.145128 -0.0320773)
(0.0937071 -0.0463603 0.0526232)
(0.0317931 0.0319871 -0.0481611)
(0.0834151 -0.0587843 0.0446345)
(0.0461519 -0.206685 0.06673)
(-0.09026 -0.231957 -0.0745416)
(0.0658369 -0.0481637 -0.0111575)
(-0.055614 -0.0214257 0.0686104)
(0.0770643 0.0581311 0.0497892)
(-0.0425516 0.0966038 0.0637236)
(0.0600697 0.0945368 -0.0362495)
(0.037415 -0.0324624 0.0662407)
(-0.0404819 -0.0496588 -0.049069)
(-0.0311543 0.0609893 0.0914402)
(-0.0392314 0.0872622 0.0760271)
(-0.0247321 0.123527 0.0461292)
(0.0656371 -0.0108167 0.0583342)
(-0.039886 0.00837964 -0.0742719)
(0.0852719 0.103151 -0.0608991)
(0.069534 0.120522 -0.0682897)
(-0.0389278 0.0979671 -0.00713378)
(0.125029 -0.0169996 0.0616343)
(0.0709099 -0.0620238 -0.0944004)
(-0.0591108 -0.105829 -0.0476723)
(-0.0737049 -0.097084 0.0414724)
(-0.00839709 -0.361431 -0.00847581)
(0.0296728 0.117423 0.0328597)
(0.0384123 0.102614 -0.055741)
(-0.025961 -0.000483564 0.0928273)
(-0.0634531 0.0792138 0.0646909)
(0.0885465 0.0552569 0.0207332)
(-0.0927508 0.0489454 0.0420591)
(-0.0139321 -0.0710534 0.00587075)
(0.0642831 0.0494939 -0.07357)
(-0.0149696 -0.0649712 -0.0201272)
(0.0793207 -0.00770328 -0.0553473)
(-0.0384901 -0.0413168 0.0314698)
(-0.0441293 -0.029318 0.0253558)
(-0.0225238 0.05549 0.0840728)
(0.0584589 0.124609 0.0564531)
(0.0134943 0.122072 0.00572339)
(0.0907183 0.0314417 -0.0905495)
(0.0444071 0.0387307 -0.0703378)
(0.0819769 -0.0886305 -0.0877276)
(0.000413363 -0.104225 0.096649)
(0.0228295 -0.285037 -0.0916641)
(0.0558267 -0.0147031 -0.0687419)
(0.083622 0.0687532 -0.0241639)
(-0.0584817 -0.0545595 -0.0110481)
(-0.0779933 0.0229086 -0.069118)
(-0.0533055 -0.0561136 -0.027076)
(-0.0501679 -0.00465705 0.0827316)
(0.0230927 0.12113 0.0176644)
(0.0580487 -0.0159439 -0.0718684)
(0.0843433 0.0725615 0.0436451)
(0.0895783 0.00294613 0.057903)
(0.063456 -0.0425633 0.0510965)
(0.069377 -0.0448792 -0.0461214)
(0.0220004 0.133108 -0.00310715)
(-0.0272038 0.0976477 0.000373853)
(-0.0154678 0.0894758 0.0145446)
(0.118688 0.0472182 0.0701443)
(0.0462205 -0.109882 -0.0450248)
(0.0284895 -0.0965265 0.0898661)
(-0.0200259 -0.0445853 -0.0674632)
(-0.0285796 -0.365076 0.0218948)
(0.0174294 0.136432 -0.0362429)
(0.0768594 0.020292 0.0497981)
(0.0404384 -0.0305953 -0.057826)
(0.0551937 -0.0485563 -0.0102219)
(0.0833233 0.0613054 -0.0408544)
(-0.0422573 -0.0351166 -0.0665135)
(-0.0284781 0.0652626 0.0847338)
(0.0896248 -0.0321003 0.0223397)
(-0.0377642 0.103749 0.0264579)
(0.0700232 0.0592484 -0.0789346)
(0.0976103 -0.00667881 -0.0650797)
(0.0850725 0.0999772 -0.0443317)
(0.100589 -0.0585426 0.0127719)
(-0.0141797 -0.0397701 -0.0337328)
(0.0437043 -0.003388 0.0956621)
(0.00233353 -0.0525535 -0.046893)
(-0.0208368 -0.0576935 -0.0304008)
(0.0713453 0.0139043 -0.0828654)
(0.0825921 -0.15799 0.0279268)
(-0.0689183 -0.329615 -0.0291251)
(-0.0487965 -0.0482462 0.0609739)
(-0.0307438 -0.0382017 0.0842212)
(0.032211 -0.0259327 -0.0869614)
(0.0795934 0.0232918 -0.067932)
(0.0308931 -0.039641 -0.0828431)
(0.0380482 -0.0312275 -0.08821)
(-0.0583537 -0.0289683 -0.00636465)
(0.0408471 0.0456351 -0.0944625)
(0.0209809 0.0865066 -0.0618363)
(0.120805 0.084446 0.0252689)
(0.040467 -0.0533947 0.0710624)
(0.0792972 0.0808437 0.073151)
(0.0701845 0.0564012 0.0890921)
(0.112413 -0.00586686 0.0964014)
(0.184915 -0.0230356 -0.0423493)
(0.172351 -0.040176 0.0611307)
(0.0686856 0.0687383 0.0615907)
(0.179503 -0.0760407 0.0476604)
(-0.0572622 -0.0372218 0.0468934)
(0.102759 -0.1671 -0.0738433)
(0.0822435 0.1446 0.0746004)
(-0.000813921 0.0123834 -0.0514017)
(0.0228711 0.0225159 -0.0725404)
(0.174639 0.00189013 -0.0712521)
(0.111874 -0.0416644 0.0759319)
(0.216827 0.0816953 0.00630887)
(0.102365 -0.0501385 -0.0572481)
(0.140809 0.0740413 -0.0745208)
(0.0960721 0.0356313 0.0545303)
(0.0986148 -0.0285085 0.0298635)
(0.16568 -0.072123 -0.0513068)
(0.243951 0.0837714 0.0519923)
(0.180518 -0.055296 -0.0704514)
(0.169077 -0.0191068 0.0794284)
(0.271584 0.00867979 -0.0916547)
(0.26561 0.0799467 -0.0587342)
(0.183408 0.0522202 -0.0706607)
(0.350686 0.0206901 -0.000365736)
(0.193263 -0.0279019 0.0680984)
(0.31595 -0.17549 -0.0096982)
)
;

boundaryField
{
    movingWall
    {
        type            fixedValue;
        value           uniform (1 0 0);
    }
    fixedWalls
    {
        type            noSlip;
    }
    frontAndBack
    {
        type            empty;
    }
}


// ************************************************************************* //
