/*--------------------------------*- C++ -*----------------------------------*\
| =========                 |                                                 |
| \\      /  F ield         | OpenFOAM: The Open Source CFD Toolbox           |
|  \\    /   O peration     | Version:  2312                                  |
|   \\  /    A nd           | Website:  www.openfoam.com                      |
|    \\/     M anipulation  |                                                 |
\*---------------------------------------------------------------------------*/
FoamFile
{
    version     2.0;
    format      ascii;
    arch        "LSB;label=32;scalar=64";
    class       volScalarField;
    location    "1";
    object      Ux;
}
// * * * * * * * * * * * * * * * * * * * * * * * * * * * * * * * * * * * * * //

dimensions      [0 1 -1 0 0 0 0];

internalField   nonuniform List<scalar> 
400
(
-0.000190442
-0.00115747
-0.00286996
-0.00479298
-0.00678581
-0.0087509
-0.0106333
-0.0123867
-0.0139548
-0.0152681
-0.0162309
-0.016655
-0.0165444
-0.0156555
-0.0139882
-0.0115679
-0.00858019
-0.00537507
-0.00236367
-0.00047907
-0.000646366
-0.0022173
-0.00420823
-0.00635345
-0.0085564
-0.0107476
-0.0128682
-0.014855
-0.0166344
-0.0181186
-0.0191991
-0.0197381
-0.0196143
-0.0187034
-0.0169464
-0.0143741
-0.0111572
-0.00762408
-0.0041025
-0.00117615
-0.000966302
-0.00282697
-0.00488597
-0.00704802
-0.00925644
-0.0114707
-0.013646
-0.0157238
-0.0176314
-0.0192788
-0.020553
-0.021314
-0.0214109
-0.0206882
-0.0190269
-0.0164036
-0.0129672
-0.00908071
-0.00509986
-0.00157509
-0.00109945
-0.00311248
-0.00523731
-0.00743209
-0.00966442
-0.0119177
-0.0141687
-0.0163761
-0.0184808
-0.0204004
-0.0220202
-0.0231845
-0.0236945
-0.0233092
-0.0217821
-0.0189672
-0.0149911
-0.0103669
-0.00564312
-0.00165963
-0.00113292
-0.00321684
-0.00539987
-0.00764403
-0.00992945
-0.0122575
-0.0146299
-0.0170306
-0.0194247
-0.0217488
-0.0238947
-0.0256865
-0.0268596
-0.0270317
-0.025723
-0.0225369
-0.0175494
-0.0115978
-0.00573961
-0.00144693
-0.00112225
-0.00322646
-0.00544946
-0.0077408
-0.01009
-0.0125131
-0.0150386
-0.0176842
-0.0204527
-0.0233177
-0.026196
-0.0289043
-0.0311026
-0.0322223
-0.0313871
-0.0276611
-0.0209128
-0.0124994
-0.00475009
-0.000669747
-0.00109059
-0.00318118
-0.0054202
-0.00774103
-0.0101422
-0.0126543
-0.0153355
-0.018246
-0.021444
-0.0249684
-0.0287975
-0.0327814
-0.0365611
-0.0394044
-0.0398696
-0.0359519
-0.0268174
-0.0140222
-0.00202221
0.001408
-0.00104649
-0.00309682
-0.00532306
-0.00764182
-0.01006
-0.0126227
-0.0154195
-0.0185621
-0.0221826
-0.0264208
-0.0313779
-0.0370419
-0.0432456
-0.0494254
-0.0537281
-0.0528133
-0.0436177
-0.0255897
-0.00350332
0.00470023
-0.000993989
-0.00298133
-0.00516184
-0.00743399
-0.00981012
-0.0123472
-0.0151646
-0.0184267
-0.0223504
-0.0272096
-0.0333043
-0.0409334
-0.0506157
-0.0628148
-0.0760478
-0.0846312
-0.0793234
-0.0578724
-0.0245757
0.00552111
-0.000937838
-0.00284471
-0.00494514
-0.00711584
-0.00936838
-0.0117645
-0.0144435
-0.0176092
-0.0215493
-0.026672
-0.0335071
-0.0427398
-0.0563211
-0.0766864
-0.100171
-0.11486
-0.114986
-0.0966077
-0.0582792
-0.00624555
-0.000887113
-0.00270738
-0.00469704
-0.0067067
-0.0087381
-0.0108465
-0.0131715
-0.0159228
-0.0194037
-0.0240679
-0.030517
-0.0394939
-0.0536926
-0.0760551
-0.100533
-0.115947
-0.119478
-0.112204
-0.08351
-0.0304515
-0.000859815
-0.00260394
-0.00446574
-0.00625825
-0.00796751
-0.0096309
-0.0113649
-0.0133422
-0.0158039
-0.0190982
-0.0236338
-0.029734
-0.0388452
-0.053483
-0.0688364
-0.0770687
-0.0812643
-0.0874051
-0.0818018
-0.0413719
-0.000883024
-0.00259893
-0.00432957
-0.00585853
-0.00715599
-0.00823715
-0.00917974
-0.0100887
-0.0110893
-0.01232
-0.0138554
-0.0154223
-0.0166933
-0.0188327
-0.0224672
-0.0213912
-0.0233838
-0.0359398
-0.054724
-0.0368703
-0.000996066
-0.00276045
-0.00438309
-0.00561514
-0.00643044
-0.00683839
-0.00687753
-0.00657941
-0.0059498
-0.00492168
-0.00328817
-0.000503116
0.00473297
0.0125646
0.0182343
0.0237808
0.0198571
0.00690298
-0.0223428
-0.0257024
-0.0012891
-0.00324242
-0.00474073
-0.00562641
-0.00588702
-0.00558905
-0.00471796
-0.00325199
-0.00112818
0.00185713
0.00601955
0.0119053
0.0206005
0.0325691
0.0431953
0.0490618
0.0433035
0.0272564
-0.000165296
-0.0167663
-0.00178694
-0.00393922
-0.00536346
-0.00582647
-0.00550071
-0.00450075
-0.00280106
-0.000352056
0.00299745
0.00745236
0.0132829
0.0208454
0.0306679
0.0427724
0.0536018
0.0585782
0.0527521
0.0370441
0.0134248
-0.0122128
-0.00292644
-0.0058079
-0.00638442
-0.00594149
-0.00482523
-0.00311448
-0.000706327
0.00252506
0.00677967
0.0122416
0.0190946
0.0274464
0.0372736
0.0481493
0.0575625
0.0617502
0.0560925
0.0454806
0.0232073
-0.00750062
-0.00443568
-0.00686842
-0.00580164
-0.00390919
-0.00166892
0.00122056
0.00482906
0.00916571
0.0143365
0.0205563
0.0280056
0.036735
0.0464271
0.0564145
0.0647428
0.0691226
0.0625783
0.062345
0.0261767
0.0056779
-0.00607795
-0.00842051
-0.00100137
0.00687797
0.0154744
0.0239586
0.032113
0.040023
0.0478882
0.0559579
0.064459
0.0735495
0.083052
0.0926432
0.100377
0.106724
0.100076
0.110032
0.0308291
0.0717196
0.0407675
0.0628412
0.0882709
0.110089
0.126817
0.140752
0.153355
0.165039
0.175976
0.186354
0.196353
0.206098
0.215506
0.224545
0.23178
0.239015
0.233195
0.253576
0.127024
0.378812
)
;

boundaryField
{
    movingWall
    {
        type            calculated;
        value           uniform 1;
    }
    fixedWalls
    {
        type            calculated;
        value           uniform 0;
    }
    frontAndBack
    {
        type            empty;
    }
}


// ************************************************************************* //
