/*--------------------------------*- C++ -*----------------------------------*\
| =========                 |                                                 |
| \\      /  F ield         | OpenFOAM: The Open Source CFD Toolbox           |
|  \\    /   O peration     | Version:  2312                                  |
|   \\  /    A nd           | Website:  www.openfoam.com                      |
|    \\/     M anipulation  |                                                 |
\*---------------------------------------------------------------------------*/
FoamFile
{
    version     2.0;
    format      ascii;
    arch        "LSB;label=32;scalar=64";
    class       volScalarField;
    location    "1";
    object      Uy;
}
// * * * * * * * * * * * * * * * * * * * * * * * * * * * * * * * * * * * * * //

dimensions      [0 1 -1 0 0 0 0];

internalField   nonuniform List<scalar> 
400
(
0.000191344
0.000651371
0.000944784
0.00104693
0.00105293
0.00101778
0.000960056
0.000880871
0.000770371
0.000609077
0.000379029
0.000128703
-0.000257677
-0.000681272
-0.00112244
-0.00151019
-0.00174344
-0.00168747
-0.00121273
-0.000478873
0.00116326
0.00225334
0.00284382
0.00307841
0.00311209
0.00303146
0.0028688
0.00262325
0.00227282
0.00178177
0.00111522
0.00026634
-0.000775318
-0.0019645
-0.00317721
-0.00423002
-0.00488223
-0.00488343
-0.00404525
-0.00230965
0.0028569
0.00422681
0.00490996
0.00521458
0.00527613
0.00517061
0.00492341
0.00452425
0.00393728
0.00311113
0.00199538
0.000560393
-0.00119523
-0.00319563
-0.00525744
-0.00708079
-0.00828337
-0.00852924
-0.00764672
-0.00528142
0.004787
0.00634338
0.00705205
0.0073932
0.00748259
0.00737462
0.00707992
0.00657407
0.00580355
0.00469438
0.00316748
0.00116063
-0.0013433
-0.00426919
-0.00738212
-0.0102366
-0.0122183
-0.0128098
-0.0118146
-0.00860592
0.0068276
0.00855233
0.00926386
0.009627
0.00975125
0.00967071
0.00937953
0.00883674
0.00796724
0.00666589
0.00480819
0.00227215
-0.00102173
-0.00504628
-0.00955647
-0.0139048
-0.0170417
-0.0180479
-0.0166476
-0.0120444
0.00889155
0.0108055
0.0115263
0.0119149
0.012091
0.012078
0.0118579
0.0113751
0.0105314
0.00918206
0.00713596
0.00416792
6.27076e-05
-0.00530072
-0.0117732
-0.0184394
-0.0234247
-0.0248164
-0.0221935
-0.0151166
0.0109323
0.0130728
0.0138246
0.0142547
0.0145088
0.0146123
0.0145454
0.0142463
0.0135996
0.0124175
0.0104192
0.00722703
0.00239003
-0.00454883
-0.0137788
-0.0242339
-0.032522
-0.0342903
-0.0280283
-0.0164182
0.0129212
0.0153258
0.0161332
0.0166242
0.0169848
0.0172573
0.0174354
0.0174674
0.0172373
0.0165264
0.0149596
0.0119716
0.00680675
-0.00157174
-0.0141051
-0.0301794
-0.0446795
-0.0492613
-0.0370074
-0.0156161
0.0148377
0.0175363
0.0184169
0.018981
0.0194682
0.0199536
0.0204634
0.0209807
0.0214199
0.0215715
0.0210158
0.0190832
0.0148625
0.00674398
-0.00807942
-0.0318689
-0.0589849
-0.0726208
-0.0583071
-0.0175939
0.0166675
0.0196766
0.0206333
0.0212649
0.0218765
0.0225914
0.0234885
0.0246132
0.0259532
0.0273865
0.0286237
0.0292762
0.0287625
0.0242529
0.00724944
-0.0287671
-0.0743777
-0.105647
-0.0960581
-0.0305896
0.0184039
0.021724
0.0227368
0.0234011
0.024098
0.0250103
0.0262831
0.0280431
0.0303857
0.0333578
0.0370279
0.0417257
0.0472487
0.0473045
0.0267035
-0.0222477
-0.0839176
-0.136538
-0.149208
-0.0775801
0.0200696
0.0236667
0.0246854
0.025309
0.0260035
0.0270156
0.028555
0.0308263
0.0340268
0.0383753
0.0442831
0.0526414
0.0631343
0.0658692
0.0432224
-0.00934551
-0.0780317
-0.145087
-0.193347
-0.146055
0.0216841
0.0255124
0.0264468
0.0269124
0.027467
0.0284143
0.0300128
0.0325152
0.0361756
0.04128
0.048312
0.0581222
0.069839
0.0735524
0.0523444
0.000383619
-0.0635974
-0.12677
-0.201309
-0.20827
0.023449
0.0273285
0.0280154
0.0281541
0.0283879
0.0290604
0.0304506
0.0328152
0.0363949
0.0413944
0.0481298
0.0569297
0.0668937
0.0695243
0.050778
0.00202472
-0.0548347
-0.105192
-0.177435
-0.248566
0.0251139
0.0290701
0.0293392
0.0289589
0.0286908
0.0288794
0.0297967
0.0316611
0.0346502
0.03888
0.0443456
0.050822
0.0572278
0.0575134
0.0413552
0.00374061
-0.0439558
-0.0894563
-0.150675
-0.262143
0.0283692
0.0312043
0.0304816
0.0292713
0.0283262
0.0278987
0.0281516
0.0292516
0.0313204
0.0343874
0.0382395
0.0423435
0.0453697
0.0435725
0.0306465
0.00373238
-0.0318594
-0.0717512
-0.126354
-0.265808
0.027989
0.0310915
0.0300798
0.0284978
0.0270522
0.0260262
0.025623
0.0259137
0.0269654
0.0287585
0.0310656
0.033317
0.0343301
0.0319075
0.0227299
0.00434782
-0.021139
-0.0560866
-0.104415
-0.269807
0.0458319
0.0428708
0.0366209
0.0314584
0.0280302
0.0255928
0.0239007
0.0229204
0.0225981
0.0228843
0.0236496
0.0244908
0.0245436
0.0225081
0.016765
0.00524142
-0.0116749
-0.0413435
-0.0802892
-0.269722
0.0185169
0.0108743
0.0106002
0.0134071
0.0142039
0.0137223
0.0131657
0.0128303
0.0126671
0.0126386
0.0127455
0.0129033
0.0128464
0.0119077
0.00951976
0.00405111
-0.00351985
-0.0221685
-0.0436193
-0.226964
0.0924987
0.0698803
0.0439812
0.0293933
0.0216685
0.0170984
0.0140698
0.0119162
0.0102965
0.00904128
0.00804412
0.0071949
0.0064485
0.00568236
0.00479591
0.00350721
0.00193804
-0.0031755
0.00332485
-0.0983256
)
;

boundaryField
{
    movingWall
    {
        type            calculated;
        value           uniform 0;
    }
    fixedWalls
    {
        type            calculated;
        value           uniform 0;
    }
    frontAndBack
    {
        type            empty;
    }
}


// ************************************************************************* //
