/*--------------------------------*- C++ -*----------------------------------*\
| =========                 |                                                 |
| \\      /  F ield         | OpenFOAM: The Open Source CFD Toolbox           |
|  \\    /   O peration     | Version:  2312                                  |
|   \\  /    A nd           | Website:  www.openfoam.com                      |
|    \\/     M anipulation  |                                                 |
\*---------------------------------------------------------------------------*/
FoamFile
{
    version     2.0;
    format      ascii;
    arch        "LSB;label=32;scalar=64";
    class       volVectorField;
    location    "1";
    object      vorticityField;
}
// * * * * * * * * * * * * * * * * * * * * * * * * * * * * * * * * * * * * * //

dimensions      [0 0 -1 0 0 0 0];

internalField   nonuniform List<vector> 
400
(
(0 -0 0.167952)
(0 -0 0.412821)
(0 -0 0.747374)
(0 -0 1.12546)
(0 -0 1.53131)
(0 -0 1.94056)
(0 -0 2.33646)
(0 -0 2.7052)
(0 -0 3.03174)
(0 -0 3.29954)
(0 -0 3.49496)
(0 -0 3.57564)
(0 -0 3.53488)
(0 -0 3.34941)
(0 -0 3.01057)
(0 -0 2.53211)
(0 -0 1.95601)
(0 -0 1.35299)
(0 -0 0.767477)
(0 -0 0.334682)
(0 -0 0.419246)
(0 -0 0.335006)
(0 -0 0.284108)
(0 -0 0.252331)
(0 -0 0.242368)
(0 -0 0.247652)
(0 -0 0.26045)
(0 -0 0.274108)
(0 -0 0.283505)
(0 -0 0.285312)
(0 -0 0.280667)
(0 -0 0.276844)
(0 -0 0.26356)
(0 -0 0.263088)
(0 -0 0.277316)
(0 -0 0.313068)
(0 -0 0.373362)
(0 -0 0.454262)
(0 -0 0.530996)
(0 -0 0.745092)
(0 -0 0.75368)
(0 -0 0.294824)
(0 -0 0.201686)
(0 -0 0.144481)
(0 -0 0.106404)
(0 -0 0.0817384)
(0 -0 0.065414)
(0 -0 0.0535056)
(0 -0 0.0433276)
(0 -0 0.0339867)
(0 -0 0.0270426)
(0 -0 0.0255773)
(0 -0 0.0324156)
(0 -0 0.0543591)
(0 -0 0.0950541)
(0 -0 0.15671)
(0 -0 0.238551)
(0 -0 0.337946)
(0 -0 0.478845)
(0 -0 1.34116)
(0 -0 1.1297)
(0 -0 0.265493)
(0 -0 0.156372)
(0 -0 0.102655)
(0 -0 0.0654427)
(0 -0 0.0384131)
(0 -0 0.0183269)
(0 -0 0.00304373)
(0 -0 -0.00863735)
(0 -0 -0.0166129)
(0 -0 -0.019203)
(0 -0 -0.0138296)
(0 -0 0.00189168)
(0 -0 0.0304654)
(0 -0 0.072877)
(0 -0 0.129704)
(0 -0 0.200898)
(0 -0 0.292077)
(0 -0 0.484363)
(0 -0 2.02924)
(0 -0 1.54027)
(0 -0 0.255024)
(0 -0 0.128682)
(0 -0 0.0796093)
(0 -0 0.0469265)
(0 -0 0.0223727)
(0 -0 0.00359515)
(0 -0 -0.0104202)
(0 -0 -0.0198983)
(0 -0 -0.0241727)
(0 -0 -0.0217967)
(0 -0 -0.0110102)
(0 -0 0.00897168)
(0 -0 0.0378351)
(0 -0 0.0746475)
(0 -0 0.120866)
(0 -0 0.177855)
(0 -0 0.252664)
(0 -0 0.511046)
(0 -0 2.77021)
(0 -0 1.96547)
(0 -0 0.259914)
(0 -0 0.112971)
(0 -0 0.0661687)
(0 -0 0.037588)
(0 -0 0.0163735)
(0 -0 0.000263286)
(0 -0 -0.0111187)
(0 -0 -0.0173714)
(0 -0 -0.0175801)
(0 -0 -0.0111342)
(0 -0 0.00216392)
(0 -0 0.023282)
(0 -0 0.0536836)
(0 -0 0.100793)
(0 -0 0.176351)
(0 -0 0.289096)
(0 -0 0.365566)
(0 -0 0.598242)
(0 -0 3.44551)
(0 -0 2.39293)
(0 -0 0.276269)
(0 -0 0.10555)
(0 -0 0.0585196)
(0 -0 0.0327615)
(0 -0 0.0146142)
(0 -0 0.00149433)
(0 -0 -0.00679455)
(0 -0 -0.00988447)
(0 -0 -0.00771999)
(0 -0 -0.000863075)
(0 -0 0.0108392)
(0 -0 0.0367113)
(0 -0 0.103423)
(0 -0 0.2656)
(0 -0 0.640906)
(0 -0 1.26485)
(0 -0 1.7584)
(0 -0 1.66254)
(0 -0 3.90766)
(0 -0 2.81504)
(0 -0 0.301216)
(0 -0 0.103997)
(0 -0 0.0544591)
(0 -0 0.0301083)
(0 -0 0.014338)
(0 -0 0.00393173)
(0 -0 -0.00173447)
(0 -0 -0.0034642)
(0 -0 -0.00364551)
(0 -0 -0.00481121)
(0 -0 -8.48825e-05)
(0 -0 0.0511352)
(0 -0 0.249857)
(0 -0 0.757046)
(0 -0 1.81049)
(0 -0 3.34242)
(0 -0 5.15222)
(0 -0 5.61987)
(0 -0 4.85104)
(0 -0 3.22653)
(0 -0 0.332705)
(0 -0 0.106682)
(0 -0 0.0525394)
(0 -0 0.0280979)
(0 -0 0.0136981)
(0 -0 0.00510972)
(0 -0 0.000357135)
(0 -0 -0.00424817)
(0 -0 -0.0152858)
(0 -0 -0.0359096)
(0 -0 -0.045537)
(0 -0 0.0736289)
(0 -0 0.431899)
(0 -0 0.783006)
(0 -0 1.11413)
(0 -0 3.06168)
(0 -0 7.16959)
(0 -0 10.9803)
(0 -0 8.68468)
(0 -0 3.62373)
(0 -0 0.36918)
(0 -0 0.112343)
(0 -0 0.0515896)
(0 -0 0.0254537)
(0 -0 0.0111368)
(0 -0 0.002858)
(0 -0 -0.00392559)
(0 -0 -0.017333)
(0 -0 -0.0471299)
(0 -0 -0.0897604)
(0 -0 -0.130066)
(0 -0 -0.194642)
(0 -0 -0.827277)
(0 -0 -2.85349)
(0 -0 -5.03112)
(0 -0 -3.67257)
(0 -0 3.26512)
(0 -0 13.3992)
(0 -0 16.262)
(0 -0 4.00498)
(0 -0 0.409217)
(0 -0 0.119773)
(0 -0 0.0503587)
(0 -0 0.020835)
(0 -0 0.00515235)
(0 -0 -0.00458721)
(0 -0 -0.0164423)
(0 -0 -0.0430716)
(0 -0 -0.093165)
(0 -0 -0.150542)
(0 -0 -0.278505)
(0 -0 -1.1897)
(0 -0 -4.37485)
(0 -0 -10.0887)
(0 -0 -14.8413)
(0 -0 -14.8013)
(0 -0 -7.4493)
(0 -0 8.24806)
(0 -0 26.1914)
(0 -0 4.37323)
(0 -0 0.450727)
(0 -0 0.127475)
(0 -0 0.0470004)
(0 -0 0.0124501)
(0 -0 -0.00578628)
(0 -0 -0.0181041)
(0 -0 -0.0362166)
(0 -0 -0.0765368)
(0 -0 -0.149169)
(0 -0 -0.239551)
(0 -0 -0.522034)
(0 -0 -2.37715)
(0 -0 -7.71343)
(0 -0 -15.328)
(0 -0 -21.581)
(0 -0 -23.1836)
(0 -0 -19.1579)
(0 -0 -2.97537)
(0 -0 34.582)
(0 -0 4.73328)
(0 -0 0.49192)
(0 -0 0.131737)
(0 -0 0.0377102)
(0 -0 -0.00351611)
(0 -0 -0.0246736)
(0 -0 -0.0386377)
(0 -0 -0.0599952)
(0 -0 -0.108928)
(0 -0 -0.204004)
(0 -0 -0.350349)
(0 -0 -0.770387)
(0 -0 -2.8148)
(0 -0 -8.35422)
(0 -0 -16.0239)
(0 -0 -21.6791)
(0 -0 -22.8276)
(0 -0 -23.202)
(0 -0 -14.0958)
(0 -0 39.3909)
(0 -0 5.11836)
(0 -0 0.520988)
(0 -0 0.123682)
(0 -0 0.0140458)
(0 -0 -0.0362725)
(0 -0 -0.0585493)
(0 -0 -0.0706913)
(0 -0 -0.089238)
(0 -0 -0.138191)
(0 -0 -0.244222)
(0 -0 -0.433973)
(0 -0 -0.856371)
(0 -0 -2.46992)
(0 -0 -6.75175)
(0 -0 -13.3162)
(0 -0 -17.6066)
(0 -0 -17.3904)
(0 -0 -18.5797)
(0 -0 -19.7933)
(0 -0 40.5897)
(0 -0 5.49749)
(0 -0 0.54041)
(0 -0 0.0869149)
(0 -0 -0.0437089)
(0 -0 -0.10092)
(0 -0 -0.123175)
(0 -0 -0.129476)
(0 -0 -0.137383)
(0 -0 -0.172833)
(0 -0 -0.267867)
(0 -0 -0.462914)
(0 -0 -0.84663)
(0 -0 -1.92434)
(0 -0 -4.60803)
(0 -0 -8.91403)
(0 -0 -12.0108)
(0 -0 -12.6092)
(0 -0 -13.686)
(0 -0 -20.8455)
(0 -0 39.9328)
(0 -0 6.12108)
(0 -0 0.467791)
(0 -0 -0.0289381)
(0 -0 -0.184027)
(0 -0 -0.243436)
(0 -0 -0.264916)
(0 -0 -0.265873)
(0 -0 -0.260828)
(0 -0 -0.277207)
(0 -0 -0.346535)
(0 -0 -0.511888)
(0 -0 -0.841093)
(0 -0 -1.54441)
(0 -0 -3.03034)
(0 -0 -5.42074)
(0 -0 -7.51943)
(0 -0 -8.82725)
(0 -0 -11.2718)
(0 -0 -21.7429)
(0 -0 38.2896)
(0 -0 6.17293)
(0 -0 0.501998)
(0 -0 -0.215558)
(0 -0 -0.494486)
(0 -0 -0.630334)
(0 -0 -0.715053)
(0 -0 -0.774268)
(0 -0 -0.817532)
(0 -0 -0.849421)
(0 -0 -0.90038)
(0 -0 -1.01642)
(0 -0 -1.26251)
(0 -0 -1.71688)
(0 -0 -2.52424)
(0 -0 -3.87007)
(0 -0 -5.44133)
(0 -0 -7.02607)
(0 -0 -10.8577)
(0 -0 -22.6472)
(0 -0 35.6331)
(0 -0 9.18542)
(0 -0 -0.659836)
(0 -0 -1.67955)
(0 -0 -2.14102)
(0 -0 -2.61652)
(0 -0 -3.12026)
(0 -0 -3.54917)
(0 -0 -3.88005)
(0 -0 -4.11446)
(0 -0 -4.26648)
(0 -0 -4.37579)
(0 -0 -4.5209)
(0 -0 -4.77612)
(0 -0 -5.22725)
(0 -0 -6.00811)
(0 -0 -7.34132)
(0 -0 -9.05684)
(0 -0 -13.3166)
(0 -0 -23.6)
(0 -0 27.0791)
(0 -0 -1.5812)
(0 -0 -7.76263)
(0 -0 -9.15397)
(0 -0 -11.0394)
(0 -0 -12.817)
(0 -0 -14.057)
(0 -0 -14.9418)
(0 -0 -15.6372)
(0 -0 -16.1831)
(0 -0 -16.5719)
(0 -0 -16.8082)
(0 -0 -16.9262)
(0 -0 -17.0075)
(0 -0 -17.1457)
(0 -0 -17.4894)
(0 -0 -18.2932)
(0 -0 -19.6837)
(0 -0 -23.1331)
(0 -0 -30.5644)
(0 -0 -10.255)
(0 -0 -180.293)
(0 -0 -199.41)
(0 -0 -195.322)
(0 -0 -190.535)
(0 -0 -187)
(0 -0 -184.289)
(0 -0 -181.971)
(0 -0 -179.871)
(0 -0 -177.901)
(0 -0 -175.994)
(0 -0 -174.103)
(0 -0 -172.195)
(0 -0 -170.295)
(0 -0 -168.446)
(0 -0 -167.002)
(0 -0 -165.712)
(0 -0 -167.341)
(0 -0 -163.501)
(0 -0 -193.73)
(0 -0 -145.447)
)
;

boundaryField
{
    movingWall
    {
        type            calculated;
        value           nonuniform List<vector> 
20
(
(0 -0 -367.455)
(0 -0 -379.715)
(0 -0 -368.74)
(0 -0 -358.196)
(0 -0 -350.503)
(0 -0 -344.459)
(0 -0 -339.176)
(0 -0 -334.362)
(0 -0 -329.897)
(0 -0 -325.684)
(0 -0 -321.644)
(0 -0 -317.72)
(0 -0 -313.949)
(0 -0 -310.347)
(0 -0 -307.505)
(0 -0 -304.68)
(0 -0 -307.39)
(0 -0 -298.431)
(0 -0 -358.705)
(0 -0 -238.975)
)
;
    }
    fixedWalls
    {
        type            calculated;
        value           nonuniform List<vector> 
60
(
(0 -0 0.160218)
(0 -0 0.54289)
(0 -0 1.18807)
(0 -0 1.93146)
(0 -0 2.73332)
(0 -0 3.55239)
(0 -0 4.36534)
(0 -0 5.15881)
(0 -0 5.92422)
(0 -0 6.65633)
(0 -0 7.35374)
(0 -0 8.02744)
(0 -0 8.68728)
(0 -0 9.4202)
(0 -0 10.1246)
(0 -0 11.5114)
(0 -0 11.4605)
(0 -0 18.6479)
(0 -0 2.88644)
(0 -0 -159.532)
(0 -0 0.357072)
(0 -0 1.03346)
(0 -0 2.16092)
(0 -0 3.42955)
(0 -0 4.71877)
(0 -0 5.76115)
(0 -0 6.03029)
(0 -0 5.83513)
(0 -0 8.13214)
(0 -0 15.8331)
(0 -0 34.5447)
(0 -0 59.0639)
(0 -0 81.7408)
(0 -0 97.4159)
(0 -0 103.508)
(0 -0 105.397)
(0 -0 106.134)
(0 -0 99.9668)
(0 -0 53.4724)
(0 -0 -115.617)
(0 -0 0.160448)
(0 -0 0.538332)
(0 -0 1.18754)
(0 -0 1.92801)
(0 -0 2.71141)
(0 -0 3.49107)
(0 -0 4.23964)
(0 -0 4.93572)
(0 -0 5.55475)
(0 -0 6.06811)
(0 -0 6.44433)
(0 -0 6.59833)
(0 -0 6.53678)
(0 -0 6.1757)
(0 -0 5.51238)
(0 -0 4.56508)
(0 -0 3.41435)
(0 -0 2.2031)
(0 -0 1.06633)
(0 -0 0.360788)
)
;
    }
    frontAndBack
    {
        type            empty;
    }
}


// ************************************************************************* //
