/*--------------------------------*- C++ -*----------------------------------*\
| =========                 |                                                 |
| \\      /  F ield         | OpenFOAM: The Open Source CFD Toolbox           |
|  \\    /   O peration     | Version:  2312                                  |
|   \\  /    A nd           | Website:  www.openfoam.com                      |
|    \\/     M anipulation  |                                                 |
\*---------------------------------------------------------------------------*/
FoamFile
{
    version     2.0;
    format      ascii;
    arch        "LSB;label=32;scalar=64";
    class       volVectorField;
    location    "1";
    object      wallShearStress;
}
// * * * * * * * * * * * * * * * * * * * * * * * * * * * * * * * * * * * * * //

dimensions      [0 2 -2 0 0 0 0];

internalField   uniform (0 0 0);

boundaryField
{
    movingWall
    {
        type            calculated;
        value           uniform (0 0 0);
    }
    fixedWalls
    {
        type            calculated;
        value           nonuniform List<vector> 
60
(
(1.91876e-06 7.14325e-08 0)
(5.22433e-06 -3.87718e-06 0)
(7.56944e-06 -1.09745e-05 0)
(8.51087e-06 -1.89814e-05 0)
(8.77863e-06 -2.72876e-05 0)
(8.72181e-06 -3.56085e-05 0)
(8.50288e-06 -4.38049e-05 0)
(8.18489e-06 -5.17813e-05 0)
(7.79886e-06 -5.94595e-05 0)
(7.37924e-06 -6.6777e-05 0)
(6.99933e-06 -7.36935e-05 0)
(6.77253e-06 -8.02826e-05 0)
(6.96237e-06 -8.66003e-05 0)
(7.59885e-06 -9.33899e-05 0)
(1.01553e-05 -9.96647e-05 0)
(1.14471e-05 -0.000111839 0)
(2.72495e-05 -0.000109307 0)
(1.73422e-05 -0.000180176 0)
(6.3527e-05 -0.000119271 0)
(-0.000291437 -0.00233531 0)
(4.41406e-06 2.60272e-07 0)
(9.47451e-06 8.14257e-06 0)
(1.2598e-05 2.06422e-05 0)
(1.336e-05 3.45518e-05 0)
(1.20574e-05 4.91675e-05 0)
(6.48785e-06 6.33214e-05 0)
(-7.17632e-06 7.10428e-05 0)
(-2.42841e-05 6.65775e-05 0)
(-1.94636e-05 5.94299e-05 0)
(7.33004e-05 8.63858e-05 0)
(0.000239385 0.000275194 0)
(0.000307777 0.000577802 0)
(0.000264982 0.000848748 0)
(0.000172995 0.00101437 0)
(0.000100915 0.00106206 0)
(7.02438e-05 0.0010725 0)
(4.26127e-05 0.00109712 0)
(-5.88436e-05 0.00115811 0)
(-0.000535509 0.00138089 0)
(-0.0025928 0.00225158 0)
(-8.09468e-08 -1.91911e-06 0)
(3.87644e-06 -5.26032e-06 0)
(1.10843e-05 -7.46252e-06 0)
(1.90638e-05 -8.19418e-06 0)
(2.71724e-05 -8.25422e-06 0)
(3.50965e-05 -7.99314e-06 0)
(4.26702e-05 -7.54418e-06 0)
(4.97366e-05 -6.91232e-06 0)
(5.60911e-05 -6.02958e-06 0)
(6.14638e-05 -4.7658e-06 0)
(6.54041e-05 -2.94608e-06 0)
(6.72567e-05 -8.95429e-07 0)
(6.69877e-05 2.04065e-06 0)
(6.34866e-05 5.33762e-06 0)
(5.67817e-05 8.71135e-06 0)
(4.68928e-05 1.16597e-05 0)
(3.4498e-05 1.34269e-05 0)
(2.09696e-05 1.31442e-05 0)
(8.24609e-06 9.73187e-06 0)
(2.24683e-07 4.44915e-06 0)
)
;
    }
    frontAndBack
    {
        type            empty;
    }
}


// ************************************************************************* //
