/*--------------------------------*- C++ -*----------------------------------*\
| =========                 |                                                 |
| \\      /  F ield         | OpenFOAM: The Open Source CFD Toolbox           |
|  \\    /   O peration     | Version:  2312                                  |
|   \\  /    A nd           | Website:  www.openfoam.com                      |
|    \\/     M anipulation  |                                                 |
\*---------------------------------------------------------------------------*/
FoamFile
{
    version     2.0;
    format      ascii;
    arch        "LSB;label=32;scalar=64";
    class       volScalarField;
    location    "1";
    object      yPlus;
}
// * * * * * * * * * * * * * * * * * * * * * * * * * * * * * * * * * * * * * //

dimensions      [0 0 0 0 0 0 0];

internalField   uniform 0;

boundaryField
{
    movingWall
    {
        type            calculated;
        value           nonuniform List<scalar> 
20
(
15.5216
15.3278
12.573
13.3688
13.8111
14.0767
14.2351
14.3205
14.3521
14.345
14.3209
14.2735
14.203
14.1456
14.0755
14.0784
14.1384
14.1609
14.5583
13.889
)
;
    }
    fixedWalls
    {
        type            calculated;
        value           nonuniform List<scalar> 
60
(
0.25979
0.576796
0.868317
1.10811
1.31539
1.49684
1.6573
1.80024
1.92814
2.04291
2.14623
2.24098
2.32928
2.4223
2.50734
2.66577
2.65243
3.39286
2.20731
5.02703
0.411512
0.804965
1.17381
1.48024
1.74148
1.94496
2.02968
2.01917
2.14708
2.79377
4.56461
6.16039
7.27166
7.90397
8.10369
8.15611
8.21448
8.21252
12.679
13.889
0.25979
0.57623
0.869119
1.10747
1.31025
1.48407
1.63375
1.76196
1.86923
1.9545
2.01466
2.04056
2.03387
1.97928
1.87304
1.70778
1.47949
1.18677
0.814958
0.411512
)
;
    }
    frontAndBack
    {
        type            empty;
    }
}


// ************************************************************************* //
