/*--------------------------------*- C++ -*----------------------------------*\
| =========                 |                                                 |
| \\      /  F ield         | OpenFOAM: The Open Source CFD Toolbox           |
|  \\    /   O peration     | Version:  2312                                  |
|   \\  /    A nd           | Website:  www.openfoam.com                      |
|    \\/     M anipulation  |                                                 |
\*---------------------------------------------------------------------------*/
FoamFile
{
    version     2.0;
    format      ascii;
    arch        "LSB;label=32;scalar=64";
    class       volVectorField;
    location    "1";
    object      zeroGradient(U);
}
// * * * * * * * * * * * * * * * * * * * * * * * * * * * * * * * * * * * * * //

dimensions      [0 1 -1 0 0 0 0];

internalField   nonuniform List<vector> 
400
(
(-0.000190442 0.000191344 0)
(-0.00115747 0.000651371 0)
(-0.00286996 0.000944784 0)
(-0.00479298 0.00104693 0)
(-0.00678581 0.00105293 0)
(-0.0087509 0.00101778 0)
(-0.0106333 0.000960056 0)
(-0.0123867 0.000880871 0)
(-0.0139548 0.000770371 0)
(-0.0152681 0.000609077 0)
(-0.0162309 0.000379029 0)
(-0.016655 0.000128703 0)
(-0.0165444 -0.000257677 0)
(-0.0156555 -0.000681272 0)
(-0.0139882 -0.00112244 0)
(-0.0115679 -0.00151019 0)
(-0.00858019 -0.00174344 0)
(-0.00537507 -0.00168747 0)
(-0.00236367 -0.00121273 0)
(-0.00047907 -0.000478873 0)
(-0.000646366 0.00116326 0)
(-0.0022173 0.00225334 0)
(-0.00420823 0.00284382 0)
(-0.00635345 0.00307841 0)
(-0.0085564 0.00311209 0)
(-0.0107476 0.00303146 0)
(-0.0128682 0.0028688 0)
(-0.014855 0.00262325 0)
(-0.0166344 0.00227282 0)
(-0.0181186 0.00178177 0)
(-0.0191991 0.00111522 0)
(-0.0197381 0.00026634 0)
(-0.0196143 -0.000775318 0)
(-0.0187034 -0.0019645 0)
(-0.0169464 -0.00317721 0)
(-0.0143741 -0.00423002 0)
(-0.0111572 -0.00488223 0)
(-0.00762408 -0.00488343 0)
(-0.0041025 -0.00404525 0)
(-0.00117615 -0.00230965 0)
(-0.000966302 0.0028569 0)
(-0.00282697 0.00422681 0)
(-0.00488597 0.00490996 0)
(-0.00704802 0.00521458 0)
(-0.00925644 0.00527613 0)
(-0.0114707 0.00517061 0)
(-0.013646 0.00492341 0)
(-0.0157238 0.00452425 0)
(-0.0176314 0.00393728 0)
(-0.0192788 0.00311113 0)
(-0.020553 0.00199538 0)
(-0.021314 0.000560393 0)
(-0.0214109 -0.00119523 0)
(-0.0206882 -0.00319563 0)
(-0.0190269 -0.00525744 0)
(-0.0164036 -0.00708079 0)
(-0.0129672 -0.00828337 0)
(-0.00908071 -0.00852924 0)
(-0.00509986 -0.00764672 0)
(-0.00157509 -0.00528142 0)
(-0.00109945 0.004787 0)
(-0.00311248 0.00634338 0)
(-0.00523731 0.00705205 0)
(-0.00743209 0.0073932 0)
(-0.00966442 0.00748259 0)
(-0.0119177 0.00737462 0)
(-0.0141687 0.00707992 0)
(-0.0163761 0.00657407 0)
(-0.0184808 0.00580355 0)
(-0.0204004 0.00469438 0)
(-0.0220202 0.00316748 0)
(-0.0231845 0.00116063 0)
(-0.0236945 -0.0013433 0)
(-0.0233092 -0.00426919 0)
(-0.0217821 -0.00738212 0)
(-0.0189672 -0.0102366 0)
(-0.0149911 -0.0122183 0)
(-0.0103669 -0.0128098 0)
(-0.00564312 -0.0118146 0)
(-0.00165963 -0.00860592 0)
(-0.00113292 0.0068276 0)
(-0.00321684 0.00855233 0)
(-0.00539987 0.00926386 0)
(-0.00764403 0.009627 0)
(-0.00992945 0.00975125 0)
(-0.0122575 0.00967071 0)
(-0.0146299 0.00937953 0)
(-0.0170306 0.00883674 0)
(-0.0194247 0.00796724 0)
(-0.0217488 0.00666589 0)
(-0.0238947 0.00480819 0)
(-0.0256865 0.00227215 0)
(-0.0268596 -0.00102173 0)
(-0.0270317 -0.00504628 0)
(-0.025723 -0.00955647 0)
(-0.0225369 -0.0139048 0)
(-0.0175494 -0.0170417 0)
(-0.0115978 -0.0180479 0)
(-0.00573961 -0.0166476 0)
(-0.00144693 -0.0120444 0)
(-0.00112225 0.00889155 0)
(-0.00322646 0.0108055 0)
(-0.00544946 0.0115263 0)
(-0.0077408 0.0119149 0)
(-0.01009 0.012091 0)
(-0.0125131 0.012078 0)
(-0.0150386 0.0118579 0)
(-0.0176842 0.0113751 0)
(-0.0204527 0.0105314 0)
(-0.0233177 0.00918206 0)
(-0.026196 0.00713596 0)
(-0.0289043 0.00416792 0)
(-0.0311026 6.27076e-05 0)
(-0.0322223 -0.00530072 0)
(-0.0313871 -0.0117732 0)
(-0.0276611 -0.0184394 0)
(-0.0209128 -0.0234247 0)
(-0.0124994 -0.0248164 0)
(-0.00475009 -0.0221935 0)
(-0.000669747 -0.0151166 0)
(-0.00109059 0.0109323 0)
(-0.00318118 0.0130728 0)
(-0.0054202 0.0138246 0)
(-0.00774103 0.0142547 0)
(-0.0101422 0.0145088 0)
(-0.0126543 0.0146123 0)
(-0.0153355 0.0145454 0)
(-0.018246 0.0142463 0)
(-0.021444 0.0135996 0)
(-0.0249684 0.0124175 0)
(-0.0287975 0.0104192 0)
(-0.0327814 0.00722703 0)
(-0.0365611 0.00239003 0)
(-0.0394044 -0.00454883 0)
(-0.0398696 -0.0137788 0)
(-0.0359519 -0.0242339 0)
(-0.0268174 -0.032522 0)
(-0.0140222 -0.0342903 0)
(-0.00202221 -0.0280283 0)
(0.001408 -0.0164182 0)
(-0.00104649 0.0129212 0)
(-0.00309682 0.0153258 0)
(-0.00532306 0.0161332 0)
(-0.00764182 0.0166242 0)
(-0.01006 0.0169848 0)
(-0.0126227 0.0172573 0)
(-0.0154195 0.0174354 0)
(-0.0185621 0.0174674 0)
(-0.0221826 0.0172373 0)
(-0.0264208 0.0165264 0)
(-0.0313779 0.0149596 0)
(-0.0370419 0.0119716 0)
(-0.0432456 0.00680675 0)
(-0.0494254 -0.00157174 0)
(-0.0537281 -0.0141051 0)
(-0.0528133 -0.0301794 0)
(-0.0436177 -0.0446795 0)
(-0.0255897 -0.0492613 0)
(-0.00350332 -0.0370074 0)
(0.00470023 -0.0156161 0)
(-0.000993989 0.0148377 0)
(-0.00298133 0.0175363 0)
(-0.00516184 0.0184169 0)
(-0.00743399 0.018981 0)
(-0.00981012 0.0194682 0)
(-0.0123472 0.0199536 0)
(-0.0151646 0.0204634 0)
(-0.0184267 0.0209807 0)
(-0.0223504 0.0214199 0)
(-0.0272096 0.0215715 0)
(-0.0333043 0.0210158 0)
(-0.0409334 0.0190832 0)
(-0.0506157 0.0148625 0)
(-0.0628148 0.00674398 0)
(-0.0760478 -0.00807942 0)
(-0.0846312 -0.0318689 0)
(-0.0793234 -0.0589849 0)
(-0.0578724 -0.0726208 0)
(-0.0245757 -0.0583071 0)
(0.00552111 -0.0175939 0)
(-0.000937838 0.0166675 0)
(-0.00284471 0.0196766 0)
(-0.00494514 0.0206333 0)
(-0.00711584 0.0212649 0)
(-0.00936838 0.0218765 0)
(-0.0117645 0.0225914 0)
(-0.0144435 0.0234885 0)
(-0.0176092 0.0246132 0)
(-0.0215493 0.0259532 0)
(-0.026672 0.0273865 0)
(-0.0335071 0.0286237 0)
(-0.0427398 0.0292762 0)
(-0.0563211 0.0287625 0)
(-0.0766864 0.0242529 0)
(-0.100171 0.00724944 0)
(-0.11486 -0.0287671 0)
(-0.114986 -0.0743777 0)
(-0.0966077 -0.105647 0)
(-0.0582792 -0.0960581 0)
(-0.00624555 -0.0305896 0)
(-0.000887113 0.0184039 0)
(-0.00270738 0.021724 0)
(-0.00469704 0.0227368 0)
(-0.0067067 0.0234011 0)
(-0.0087381 0.024098 0)
(-0.0108465 0.0250103 0)
(-0.0131715 0.0262831 0)
(-0.0159228 0.0280431 0)
(-0.0194037 0.0303857 0)
(-0.0240679 0.0333578 0)
(-0.030517 0.0370279 0)
(-0.0394939 0.0417257 0)
(-0.0536926 0.0472487 0)
(-0.0760551 0.0473045 0)
(-0.100533 0.0267035 0)
(-0.115947 -0.0222477 0)
(-0.119478 -0.0839176 0)
(-0.112204 -0.136538 0)
(-0.08351 -0.149208 0)
(-0.0304515 -0.0775801 0)
(-0.000859815 0.0200696 0)
(-0.00260394 0.0236667 0)
(-0.00446574 0.0246854 0)
(-0.00625825 0.025309 0)
(-0.00796751 0.0260035 0)
(-0.0096309 0.0270156 0)
(-0.0113649 0.028555 0)
(-0.0133422 0.0308263 0)
(-0.0158039 0.0340268 0)
(-0.0190982 0.0383753 0)
(-0.0236338 0.0442831 0)
(-0.029734 0.0526414 0)
(-0.0388452 0.0631343 0)
(-0.053483 0.0658692 0)
(-0.0688364 0.0432224 0)
(-0.0770687 -0.00934551 0)
(-0.0812643 -0.0780317 0)
(-0.0874051 -0.145087 0)
(-0.0818018 -0.193347 0)
(-0.0413719 -0.146055 0)
(-0.000883024 0.0216841 0)
(-0.00259893 0.0255124 0)
(-0.00432957 0.0264468 0)
(-0.00585853 0.0269124 0)
(-0.00715599 0.027467 0)
(-0.00823715 0.0284143 0)
(-0.00917974 0.0300128 0)
(-0.0100887 0.0325152 0)
(-0.0110893 0.0361756 0)
(-0.01232 0.04128 0)
(-0.0138554 0.048312 0)
(-0.0154223 0.0581222 0)
(-0.0166933 0.069839 0)
(-0.0188327 0.0735524 0)
(-0.0224672 0.0523444 0)
(-0.0213912 0.000383619 0)
(-0.0233838 -0.0635974 0)
(-0.0359398 -0.12677 0)
(-0.054724 -0.201309 0)
(-0.0368703 -0.20827 0)
(-0.000996066 0.023449 0)
(-0.00276045 0.0273285 0)
(-0.00438309 0.0280154 0)
(-0.00561514 0.0281541 0)
(-0.00643044 0.0283879 0)
(-0.00683839 0.0290604 0)
(-0.00687753 0.0304506 0)
(-0.00657941 0.0328152 0)
(-0.0059498 0.0363949 0)
(-0.00492168 0.0413944 0)
(-0.00328817 0.0481298 0)
(-0.000503116 0.0569297 0)
(0.00473297 0.0668937 0)
(0.0125646 0.0695243 0)
(0.0182343 0.050778 0)
(0.0237808 0.00202472 0)
(0.0198571 -0.0548347 0)
(0.00690298 -0.105192 0)
(-0.0223428 -0.177435 0)
(-0.0257024 -0.248566 0)
(-0.0012891 0.0251139 0)
(-0.00324242 0.0290701 0)
(-0.00474073 0.0293392 0)
(-0.00562641 0.0289589 0)
(-0.00588702 0.0286908 0)
(-0.00558905 0.0288794 0)
(-0.00471796 0.0297967 0)
(-0.00325199 0.0316611 0)
(-0.00112818 0.0346502 0)
(0.00185713 0.03888 0)
(0.00601955 0.0443456 0)
(0.0119053 0.050822 0)
(0.0206005 0.0572278 0)
(0.0325691 0.0575134 0)
(0.0431953 0.0413552 0)
(0.0490618 0.00374061 0)
(0.0433035 -0.0439558 0)
(0.0272564 -0.0894563 0)
(-0.000165296 -0.150675 0)
(-0.0167663 -0.262143 0)
(-0.00178694 0.0283692 0)
(-0.00393922 0.0312043 0)
(-0.00536346 0.0304816 0)
(-0.00582647 0.0292713 0)
(-0.00550071 0.0283262 0)
(-0.00450075 0.0278987 0)
(-0.00280106 0.0281516 0)
(-0.000352056 0.0292516 0)
(0.00299745 0.0313204 0)
(0.00745236 0.0343874 0)
(0.0132829 0.0382395 0)
(0.0208454 0.0423435 0)
(0.0306679 0.0453697 0)
(0.0427724 0.0435725 0)
(0.0536018 0.0306465 0)
(0.0585782 0.00373238 0)
(0.0527521 -0.0318594 0)
(0.0370441 -0.0717512 0)
(0.0134248 -0.126354 0)
(-0.0122128 -0.265808 0)
(-0.00292644 0.027989 0)
(-0.0058079 0.0310915 0)
(-0.00638442 0.0300798 0)
(-0.00594149 0.0284978 0)
(-0.00482523 0.0270522 0)
(-0.00311448 0.0260262 0)
(-0.000706327 0.025623 0)
(0.00252506 0.0259137 0)
(0.00677967 0.0269654 0)
(0.0122416 0.0287585 0)
(0.0190946 0.0310656 0)
(0.0274464 0.033317 0)
(0.0372736 0.0343301 0)
(0.0481493 0.0319075 0)
(0.0575625 0.0227299 0)
(0.0617502 0.00434782 0)
(0.0560925 -0.021139 0)
(0.0454806 -0.0560866 0)
(0.0232073 -0.104415 0)
(-0.00750062 -0.269807 0)
(-0.00443568 0.0458319 0)
(-0.00686842 0.0428708 0)
(-0.00580164 0.0366209 0)
(-0.00390919 0.0314584 0)
(-0.00166892 0.0280302 0)
(0.00122056 0.0255928 0)
(0.00482906 0.0239007 0)
(0.00916571 0.0229204 0)
(0.0143365 0.0225981 0)
(0.0205563 0.0228843 0)
(0.0280056 0.0236496 0)
(0.036735 0.0244908 0)
(0.0464271 0.0245436 0)
(0.0564145 0.0225081 0)
(0.0647428 0.016765 0)
(0.0691226 0.00524142 0)
(0.0625783 -0.0116749 0)
(0.062345 -0.0413435 0)
(0.0261767 -0.0802892 0)
(0.0056779 -0.269722 0)
(-0.00607795 0.0185169 0)
(-0.00842051 0.0108743 0)
(-0.00100137 0.0106002 0)
(0.00687797 0.0134071 0)
(0.0154744 0.0142039 0)
(0.0239586 0.0137223 0)
(0.032113 0.0131657 0)
(0.040023 0.0128303 0)
(0.0478882 0.0126671 0)
(0.0559579 0.0126386 0)
(0.064459 0.0127455 0)
(0.0735495 0.0129033 0)
(0.083052 0.0128464 0)
(0.0926432 0.0119077 0)
(0.100377 0.00951976 0)
(0.106724 0.00405111 0)
(0.100076 -0.00351985 0)
(0.110032 -0.0221685 0)
(0.0308291 -0.0436193 0)
(0.0717196 -0.226964 0)
(0.0407675 0.0924987 0)
(0.0628412 0.0698803 0)
(0.0882709 0.0439812 0)
(0.110089 0.0293933 0)
(0.126817 0.0216685 0)
(0.140752 0.0170984 0)
(0.153355 0.0140698 0)
(0.165039 0.0119162 0)
(0.175976 0.0102965 0)
(0.186354 0.00904128 0)
(0.196353 0.00804412 0)
(0.206098 0.0071949 0)
(0.215506 0.0064485 0)
(0.224545 0.00568236 0)
(0.23178 0.00479591 0)
(0.239015 0.00350721 0)
(0.233195 0.00193804 0)
(0.253576 -0.0031755 0)
(0.127024 0.00332485 0)
(0.378812 -0.0983256 0)
)
;

boundaryField
{
    movingWall
    {
        type            zeroGradient;
    }
    fixedWalls
    {
        type            zeroGradient;
    }
    frontAndBack
    {
        type            empty;
    }
}


// ************************************************************************* //
