/*--------------------------------*- C++ -*----------------------------------*\
| =========                 |                                                 |
| \\      /  F ield         | OpenFOAM: The Open Source CFD Toolbox           |
|  \\    /   O peration     | Version:  2312                                  |
|   \\  /    A nd           | Website:  www.openfoam.com                      |
|    \\/     M anipulation  |                                                 |
\*---------------------------------------------------------------------------*/
FoamFile
{
    version     2.0;
    format      ascii;
    arch        "LSB;label=32;scalar=64";
    class       volScalarField;
    location    "100";
    object      epsilon;
}
// * * * * * * * * * * * * * * * * * * * * * * * * * * * * * * * * * * * * * //

dimensions      [0 2 -3 0 0 0 0];

internalField   nonuniform List<scalar> 
12225
(
1085.6
2467.87
3645.42
4414.9
4812.3
4980.97
4975.9
4927.29
4841.79
4730.65
4622.45
4519.57
4428.15
4343.08
4272.83
4203.83
4156.3
4094.05
81.207
262.679
438.369
584.611
690.877
762.849
804.619
829.575
846.329
856.599
865.919
873.132
882.011
889.951
898.983
908.675
914.794
930.989
20.5546
51.2153
83.4036
112.588
136.833
156.223
170.057
179.88
186.259
190.72
193.347
195.481
196.678
198.132
199.128
200.344
202.236
205.307
14.75
21.8697
30.0045
38.5202
46.192
53.0464
58.5965
63.2555
66.7266
69.6202
71.5769
73.2855
74.2707
75.2659
75.6684
76.2911
76.4802
77.1855
14.3591
16.3321
18.4501
21.4932
24.4318
27.2634
29.7292
31.9786
33.81
35.4683
36.7328
37.9088
38.7271
39.5464
40.0338
40.5937
40.8913
41.2896
14.6442
14.9534
15.4256
16.4577
17.6064
18.8286
19.9674
21.0745
22.0302
22.9434
23.6841
24.4078
24.9479
25.5153
25.8807
26.3291
26.5559
26.9386
14.7183
14.6385
14.6734
14.8755
15.2169
15.6831
16.1619
16.6713
17.1368
17.6087
18.0078
18.4171
18.7343
19.0822
19.3153
19.6129
19.7697
20.051
14.7545
14.5907
14.4691
14.4209
14.4417
14.5151
14.6473
14.8241
15.0016
15.2014
15.3781
15.5744
15.7306
15.9123
16.0371
16.2027
16.2933
16.4619
14.7641
14.5919
14.4345
14.3029
14.2031
14.1371
14.0972
14.0986
14.1106
14.1413
14.1779
14.2341
14.2786
14.3416
14.3841
14.4473
14.4848
14.553
14.7656
14.5942
14.432
14.2829
14.1466
14.0296
13.9257
13.8438
13.7745
13.7225
13.6772
13.6482
13.6203
13.6061
13.5889
13.5829
13.5725
13.5809
14.7657
14.5945
14.4323
14.2806
14.137
14.0052
13.8817
13.7707
13.6681
13.5779
13.4941
13.4221
13.354
13.2974
13.2408
13.1974
13.1474
13.1178
14.7657
14.5943
14.4323
14.2801
14.1358
14.0008
13.8729
13.7541
13.6419
13.5388
13.4412
13.3526
13.268
13.1926
13.1189
13.0553
12.9899
12.9372
14.7657
14.5941
14.4321
14.2797
14.1353
13.9995
13.8708
13.7498
13.6349
13.5273
13.425
13.3297
13.2387
13.1546
13.0735
12.9995
12.9271
12.862
14.7657
14.594
14.4319
14.2792
14.1349
13.9988
13.8699
13.7482
13.6328
13.5238
13.4203
13.3226
13.2297
13.1421
13.0585
12.9799
12.9047
12.8341
14.7657
14.5938
14.4317
14.2789
14.1345
13.9981
13.8692
13.7472
13.6317
13.5223
13.4185
13.3202
13.2267
13.1382
13.0539
12.974
12.8978
12.8256
14.7657
14.5938
14.4316
14.2786
14.1341
13.9976
13.8685
13.7464
13.6307
13.5212
13.4172
13.3187
13.2251
13.1362
13.0517
12.9714
12.895
12.8224
14.7657
14.5937
14.4315
14.2784
14.1338
13.9972
13.868
13.7458
13.63
13.5203
13.4162
13.3175
13.2238
13.1348
13.0502
12.9697
12.8932
12.8203
14.7657
14.5937
14.4314
14.2783
14.1336
13.9969
13.8677
13.7453
13.6294
13.5196
13.4155
13.3166
13.2228
13.1337
13.049
12.9685
12.8918
12.8189
14.7657
14.5937
14.4314
14.2782
14.1336
13.9968
13.8675
13.7451
13.6292
13.5193
13.4151
13.3162
13.2224
13.1332
13.0484
12.9678
12.8912
12.8182
14.7657
14.5937
14.4315
14.2783
14.1337
13.997
13.8677
13.7453
13.6294
13.5195
13.4153
13.3164
13.2226
13.1334
13.0487
12.9681
12.8916
12.8186
14.7657
14.5937
14.4316
14.2785
14.1339
13.9972
13.868
13.7457
13.6299
13.5201
13.4161
13.3175
13.2239
13.135
13.0507
12.9706
12.8946
12.8222
14.7657
14.5938
14.4317
14.2786
14.1343
13.9977
13.869
13.7472
13.6325
13.5239
13.4218
13.325
13.2342
13.1481
13.0674
12.9905
12.919
12.8502
14.7657
14.5937
14.4319
14.2789
14.1361
14.002
13.8782
13.7628
13.6572
13.5594
13.4706
13.3882
13.314
13.2445
13.1828
13.1236
13.0729
13.0213
14.7644
14.5922
14.4335
14.2871
14.1628
14.0551
13.9689
13.8978
13.8459
13.8049
13.7784
13.7582
13.7484
13.7419
13.7427
13.7438
13.7535
13.7523
14.7478
14.5944
14.4764
14.4102
14.4235
14.4614
14.5555
14.6709
14.8173
14.9618
15.1245
15.2721
15.433
15.5696
15.7211
15.8389
15.9799
16.0739
14.6504
14.7821
14.9369
15.3418
15.9229
16.5513
17.2346
17.8791
18.5393
19.1236
19.7152
20.2125
20.7235
21.1287
21.5631
21.8803
22.2502
22.4857
14.5719
16.1273
17.9726
20.4204
22.9246
25.2675
27.5497
29.5567
31.4962
33.1094
34.694
35.9235
37.1869
38.0779
39.0742
39.6865
40.4755
40.8672
16.544
25.88
36.7213
46.5575
55.8704
64.2819
72.1138
78.758
84.8243
89.6171
94.0454
97.2111
100.354
102.235
104.5
105.466
107.186
107.545
45.7965
105.215
164.45
217.257
267.882
313.505
353.737
386.197
413.34
433.786
450.75
462.873
473.08
479.98
487.037
490.549
496.401
497.758
632.343
1081.16
1534.75
1880.97
2183.45
2431.66
2631.41
2772.74
2875.85
2931.67
2968.55
2969.32
2962.24
2945.15
2917.13
2883.73
2847.85
2810.39
1.4214
1.99099
3.6608
5.31798
6.81323
8.10591
9.1958
10.0815
10.9429
11.7335
12.4921
13.2726
14.1605
15.217
16.5419
18.2185
20.2985
22.7351
25.5496
28.7422
32.3806
36.4957
41.2036
46.5152
52.4818
59.0993
66.4341
74.4477
83.1716
92.5383
102.563
113.15
124.31
135.935
148.03
160.485
173.311
186.4
199.778
213.342
227.129
241.044
255.132
269.307
283.622
297.996
312.491
327.037
341.693
356.391
371.19
386.026
400.954
415.914
430.955
446.02
461.155
476.308
491.516
506.731
521.985
537.237
552.505
567.758
583
598.209
613.364
628.461
643.471
658.413
673.246
688.008
702.643
717.21
731.635
745.996
760.198
774.338
788.306
802.208
815.9
829.521
842.951
856.461
870.121
884.508
898.445
911.806
926.041
940.078
954.349
968.693
983.018
997.47
1011.61
1025.67
1038.92
1050.79
1059.5
1059.42
1071.72
1098.9
1101.93
1126.9
1132.82
1150.35
1155.14
1167.03
1169.04
1177.23
1186.93
1194.92
1208.32
1206.45
1211.85
1224.73
1221
1223.39
1226.67
1232.63
1229.95
1225.84
1220.07
1212.18
1202.68
1191.48
1178.55
1163.97
1147.61
1129.48
1109.62
1088.12
1065.05
1040.57
1014.62
987.058
958.38
928.687
898.184
867.103
835.582
803.663
771.978
740.9
708.949
681.381
661.058
642.017
623.214
604.591
586.249
568.225
550.66
533.447
516.409
499.819
483.996
468.736
453.857
439.442
425.598
412.399
399.874
387.952
376.614
365.86
355.689
346.06
336.961
328.363
320.245
312.55
305.288
298.265
291.778
284.812
279.296
270.338
266.49
242.808
7.04242
4.42372
4.2311
4.50207
4.96098
5.49664
6.08105
6.71608
7.42184
8.19496
9.04894
10.0093
11.1106
12.3886
13.8779
15.605
17.5842
19.816
22.3028
25.0453
28.0493
31.3175
34.8546
38.6533
42.7064
47.001
51.5281
56.2695
61.2132
66.3194
71.5717
76.9481
82.4369
88.0195
93.6887
99.43
105.241
111.11
117.038
123.016
129.045
135.119
141.241
147.406
153.619
159.877
166.187
172.552
178.964
185.412
191.9
198.422
204.981
211.57
218.19
224.836
231.507
238.198
244.909
251.632
258.367
265.106
271.848
278.586
285.315
292.03
298.722
305.388
312.018
318.613
325.164
331.672
338.129
344.536
350.883
357.174
363.397
369.559
375.648
381.673
387.624
393.523
399.373
405.218
411.068
416.921
422.647
428.304
434.01
439.639
445.223
450.724
456.113
461.375
466.436
471.267
475.732
479.742
483.203
486.324
490.922
495.782
496.999
504.326
505.863
511.752
513.997
517.842
520.065
522.926
525.448
527.138
528.56
529.98
533.8
534.24
534.759
537.338
536.992
537.562
537.842
536.259
534.422
531.807
528.668
524.937
520.615
515.693
510.15
503.956
497.125
489.613
481.44
472.63
463.189
453.109
442.5
431.408
419.894
408.031
395.873
383.467
370.929
358.376
345.596
333.331
322.368
311.939
301.738
291.712
281.888
272.287
262.948
253.872
244.934
236.1
227.577
219.361
211.42
203.763
196.407
189.378
182.693
176.338
170.3
164.577
159.163
154.046
149.215
144.66
140.37
136.326
132.536
128.932
125.636
122.339
119.725
116.422
116.511
116.667
14.5821
7.5285
6.33536
6.17467
6.36344
6.73694
7.23493
7.83853
8.55149
9.3837
10.3511
11.4738
12.7736
14.27
15.9779
17.9051
20.052
22.4133
24.981
27.7462
30.7015
33.8388
37.1506
40.6276
44.2611
48.0434
51.9704
55.9873
60.0601
64.2213
68.4744
72.8144
77.2352
81.7292
86.2911
90.9164
95.6036
100.352
105.158
110.015
114.925
119.883
124.89
129.943
135.043
140.189
145.381
150.617
155.894
161.211
166.567
171.96
177.388
182.85
188.344
193.868
199.42
204.997
210.596
216.214
221.848
227.493
233.147
238.804
244.46
250.109
255.746
261.366
266.962
272.531
278.065
283.561
289.012
294.413
299.759
305.044
310.263
315.413
320.489
325.491
330.417
335.272
340.056
344.774
349.42
353.982
358.439
362.803
367.083
371.257
375.322
379.262
383.06
386.704
390.17
393.446
396.51
399.37
402.075
404.762
407.636
410.343
412.621
415.669
417.762
420.417
422.411
424.498
426.244
428.009
429.561
430.845
432.034
433.248
434.734
435.481
436.044
436.393
436.168
436.053
435.592
434.495
433.081
431.2
428.902
426.154
422.94
419.239
415.031
410.295
405.024
399.207
392.851
385.97
378.575
370.686
362.352
353.613
344.514
335.103
325.424
315.518
305.448
295.285
285.07
275.083
265.602
256.46
247.536
238.797
230.254
221.926
213.834
205.985
198.349
190.915
183.738
176.767
170.009
163.494
157.218
151.204
145.465
139.996
134.793
129.853
125.173
120.744
116.559
112.61
108.89
105.387
102.102
99.0042
96.1436
93.4082
91.0697
88.6575
87.3762
87.3374
22.8071
10.7507
8.70342
8.22893
8.27075
8.5778
9.06314
9.69629
10.4716
11.3956
12.4812
13.744
15.1985
16.8553
18.7189
20.7873
23.0527
25.5032
28.1256
30.9071
33.8364
36.9036
40.1003
43.4183
46.8493
50.3829
54.0053
57.7294
61.5677
65.5028
69.5293
73.6457
77.8455
82.1182
86.457
90.8548
95.3013
99.8174
104.398
109.04
113.743
118.504
123.322
128.195
133.122
138.102
143.133
148.213
153.342
158.518
163.74
169.006
174.315
179.665
185.055
190.483
195.947
201.445
206.974
212.53
218.111
223.713
229.332
234.964
240.603
246.244
251.881
257.509
263.121
268.71
274.271
279.794
285.274
290.703
296.073
301.378
306.609
311.761
316.828
321.807
326.694
331.485
336.179
340.769
345.247
349.604
353.83
357.924
361.882
365.698
369.366
372.876
376.221
379.393
382.388
385.201
387.839
390.319
392.678
394.965
397.204
399.313
401.289
403.302
405.076
406.85
408.414
409.892
411.205
412.413
413.462
414.345
415.088
415.762
416.459
416.809
416.823
416.514
416.115
415.55
414.692
413.459
411.9
409.966
407.651
404.926
401.769
398.156
394.068
389.485
384.397
378.797
372.681
366.062
358.961
351.401
343.418
335.049
326.334
317.314
308.033
298.544
288.918
279.233
269.563
260.045
250.802
241.808
233.024
224.439
216.066
207.919
200.017
192.367
184.964
177.806
170.91
164.263
157.863
151.711
145.757
140.035
134.557
129.32
124.326
119.574
115.063
110.786
106.738
102.914
99.3072
95.9101
92.7192
89.7219
86.9375
84.3256
82.0024
79.822
78.1927
77.5515
31.1189
14.1443
11.2303
10.4633
10.3822
10.6431
11.1289
11.793
12.6209
13.6131
14.7776
16.1244
17.6627
19.3977
21.3292
23.4514
25.7542
28.2245
30.8489
33.6148
36.5117
39.5312
42.6668
45.9134
49.2667
52.7232
56.2806
59.9405
63.7036
67.5655
71.5218
75.5669
79.6984
83.9162
88.2183
92.603
97.0713
101.62
106.245
110.945
115.718
120.56
125.471
130.449
135.491
140.597
145.764
150.991
156.277
161.621
167.021
172.476
177.984
183.544
189.155
194.816
200.523
206.275
212.07
217.904
223.774
229.677
235.608
241.562
247.534
253.519
259.509
265.499
271.479
277.443
283.382
289.288
295.15
300.959
306.706
312.381
317.975
323.478
328.883
334.184
339.372
344.442
349.386
354.197
358.865
363.379
367.732
371.916
375.929
379.763
383.417
386.882
390.156
393.235
396.12
398.813
401.322
403.662
405.859
407.932
409.885
411.703
413.389
414.971
416.401
417.712
418.867
419.892
420.771
421.512
422.092
422.539
422.76
422.774
422.776
422.544
422.072
421.405
420.547
419.479
418.146
416.509
414.56
412.27
409.618
406.577
403.122
399.23
394.878
390.048
384.73
378.914
372.6
365.802
358.533
350.816
342.682
334.164
325.301
316.137
306.727
297.136
287.435
277.697
267.997
258.424
249.048
239.883
230.924
222.177
213.655
205.374
197.351
189.595
182.107
174.891
167.951
161.284
154.886
148.751
142.86
137.216
131.797
126.596
121.622
116.879
112.364
108.075
104.008
100.159
96.5247
93.0992
89.8761
86.8507
84.0322
81.4072
79.0299
76.866
75.082
73.9634
39.0033
17.5068
13.7814
12.744
12.5563
12.7775
13.263
13.9496
14.8132
15.8477
17.0557
18.4425
20.0134
21.7704
23.7121
25.8323
28.1218
30.5695
33.1639
35.8945
38.7529
41.7324
44.8285
48.0381
51.3592
54.7907
58.332
61.9833
65.7441
69.6131
73.588
77.6669
81.8482
86.1307
90.5133
94.9945
99.5731
104.247
109.013
113.87
118.815
123.845
128.959
134.154
139.428
144.78
150.208
155.71
161.284
166.93
172.646
178.43
184.281
190.199
196.182
202.227
208.335
214.501
220.725
227.002
233.331
239.706
246.124
252.579
259.065
265.576
272.105
278.644
285.183
291.714
298.226
304.709
311.151
317.54
323.864
330.111
336.269
342.327
348.272
354.095
359.785
365.334
370.73
375.963
381.022
385.895
390.572
395.047
399.312
403.364
407.196
410.807
414.193
417.354
420.291
423.008
425.514
427.819
429.94
431.89
433.67
435.282
436.727
438.009
439.123
440.073
440.853
441.461
441.923
442.225
442.286
442.106
441.786
441.327
440.726
439.93
438.926
437.718
436.3
434.656
432.755
430.573
428.09
425.281
422.122
418.589
414.654
410.295
405.488
400.217
394.468
388.232
381.51
374.309
366.643
358.532
350.004
341.095
331.846
322.314
312.557
302.642
292.639
282.617
272.644
262.787
253.1
243.607
234.324
225.264
216.446
207.885
199.598
191.595
183.881
176.46
169.334
162.501
155.956
149.693
143.7
137.972
132.494
127.257
122.234
117.428
112.84
108.469
104.317
100.381
96.6602
93.1501
89.8445
86.744
83.851
81.1626
78.7071
76.4865
74.5846
73.1148
46.2701
20.7217
16.2591
14.9735
14.6882
14.8707
15.3511
16.0498
16.9333
17.989
19.2143
20.6109
22.1812
23.9261
25.844
27.9305
30.1785
32.5798
35.126
37.8091
40.6228
43.5624
46.6246
49.8075
53.1104
56.5329
60.0753
63.7378
67.5207
71.4236
75.446
79.5871
83.8462
88.2224
92.7149
97.3225
102.044
106.877
111.819
116.87
122.025
127.284
132.643
138.1
143.654
149.303
155.043
160.875
166.795
172.804
178.899
185.079
191.344
197.692
204.121
210.631
217.221
223.887
230.628
237.441
244.322
251.269
258.275
265.336
272.445
279.594
286.777
293.983
301.203
308.425
315.638
322.829
329.984
337.089
344.129
351.09
357.955
364.712
371.344
377.837
384.179
390.355
396.354
402.16
407.761
413.144
418.297
423.211
427.878
432.291
436.447
440.342
443.972
447.339
450.444
453.291
455.887
458.241
460.363
462.263
463.946
465.414
466.671
467.717
468.554
469.18
469.61
469.793
469.736
469.516
469.062
468.404
467.551
466.513
465.289
463.86
462.217
460.355
458.265
455.935
453.347
450.482
447.321
443.843
440.026
435.846
431.278
426.3
420.89
415.029
408.705
401.908
394.637
386.896
378.698
370.063
361.021
351.613
341.886
331.896
321.705
311.378
300.981
290.579
280.236
270.008
259.942
250.07
240.413
230.992
221.826
212.934
204.33
196.028
188.032
180.349
172.977
165.915
159.159
152.701
146.533
140.646
135.028
129.669
124.551
119.656
114.966
110.483
106.214
102.162
98.3257
94.704
91.2933
88.0914
85.1001
82.3207
79.7693
77.4574
75.4372
73.6984
53.343
23.8311
18.6286
17.0885
16.7008
16.8392
17.3071
18.0084
18.8999
19.9625
21.189
22.5779
24.1298
25.845
27.7226
29.76
31.953
34.2963
36.7843
39.4119
42.1748
45.0697
48.0948
51.2489
54.5319
57.9443
61.4867
65.1601
68.9651
72.9025
76.9726
81.1756
85.5117
89.9804
94.5816
99.3143
104.178
109.17
114.291
119.537
124.907
130.398
136.009
141.738
147.582
153.539
159.608
165.787
172.074
178.468
184.969
191.574
198.284
205.097
212.012
219.029
226.145
233.359
240.669
248.073
255.567
263.147
270.807
278.544
286.349
294.214
302.131
310.09
318.078
326.084
334.094
342.092
350.063
357.99
365.856
373.643
381.332
388.904
396.343
403.629
410.746
417.676
424.402
430.908
437.179
443.198
448.953
454.43
459.62
464.516
469.111
473.401
477.383
481.057
484.423
487.485
490.249
492.721
494.908
496.82
498.461
499.837
500.952
501.807
502.402
502.687
502.7
502.468
501.996
501.279
500.309
499.096
497.646
495.965
494.055
491.91
489.524
486.892
484.01
480.869
477.459
473.766
469.778
465.476
460.843
455.859
450.504
444.756
438.597
432.008
424.977
417.494
409.558
401.171
392.35
383.116
373.503
363.553
353.313
342.838
332.187
321.422
310.606
299.8
289.064
278.449
267.999
257.746
247.717
237.936
228.423
219.196
210.273
201.664
193.378
185.419
177.787
170.478
163.49
156.815
150.444
144.369
138.578
133.059
127.8
122.783
117.982
113.376
108.978
104.797
100.834
97.0903
93.5623
90.2486
87.1496
84.2676
81.6122
79.1949
77.0522
75.1015
62.0622
27.1018
20.924
19.0604
18.5433
18.6233
19.0689
19.7645
20.656
21.7176
22.9377
24.3118
25.8387
27.5185
29.3509
31.3351
33.469
35.7502
38.1757
40.7427
43.4488
46.2924
49.2726
52.3893
55.6431
59.0349
62.5661
66.2382
70.0526
74.0109
78.1143
82.3637
86.7602
91.3042
95.9959
100.836
105.823
110.956
116.236
121.661
127.228
132.937
138.786
144.773
150.897
157.155
163.546
170.068
176.721
183.503
190.414
197.452
204.618
211.91
219.327
226.87
234.537
242.326
250.236
258.265
266.409
274.664
283.024
291.485
300.039
308.677
317.389
326.164
334.989
343.85
352.732
361.616
370.486
379.321
388.102
396.807
405.414
413.901
422.246
430.428
438.423
446.212
453.774
461.088
468.136
474.899
481.36
487.505
493.322
498.8
503.932
508.711
513.134
517.198
520.904
524.254
527.252
529.904
532.215
534.192
535.841
537.169
538.183
538.868
539.193
539.168
538.857
538.24
537.323
536.105
534.586
532.772
530.669
528.282
525.614
522.665
519.434
515.921
512.123
508.038
503.661
498.989
494.013
488.723
483.107
477.153
470.844
464.167
457.103
449.641
441.768
433.479
424.772
415.656
406.146
396.268
386.056
375.549
364.792
353.836
342.735
331.546
320.328
309.137
298.031
287.058
276.256
265.661
255.299
245.194
235.368
225.839
216.624
207.736
199.182
190.966
183.088
175.545
168.333
161.445
154.873
148.607
142.637
136.95
131.535
126.376
121.451
116.719
112.192
107.882
103.793
99.9265
96.2807
92.8539
89.6458
86.6583
83.8969
81.3703
79.1044
76.9782
70.3542
30.134
23.002
20.8114
20.1582
20.1738
20.5913
21.2761
22.1638
23.2218
24.4341
25.7931
27.2961
28.9425
30.7325
32.6661
34.7434
36.9637
39.3262
41.8303
44.4753
47.261
50.1877
53.2564
56.4685
59.8255
63.3297
66.9833
70.7887
74.7481
78.8636
83.1372
87.5705
92.1647
96.921
101.84
106.923
112.17
117.582
123.157
128.896
134.797
140.859
147.082
153.464
160.004
166.7
173.552
180.559
187.719
195.034
202.502
210.122
217.896
225.822
233.901
242.131
250.511
259.041
267.717
276.536
285.496
294.59
303.812
313.154
322.608
332.162
341.803
351.519
361.292
371.105
380.94
390.774
400.587
410.354
420.051
429.653
439.133
448.466
457.625
466.583
475.317
483.8
492.009
499.92
507.513
514.766
521.663
528.187
534.327
540.072
545.415
550.348
554.87
558.978
562.675
565.963
568.845
571.326
573.412
575.109
576.426
577.364
577.874
577.98
577.715
577.081
576.079
574.711
572.979
570.883
568.429
565.622
562.468
558.97
555.133
550.958
546.451
541.613
536.449
530.96
525.15
519.02
512.569
505.793
498.69
491.253
483.474
475.344
466.857
458.007
448.795
439.223
429.302
419.052
408.498
397.671
386.608
375.35
363.939
352.422
340.85
329.276
317.751
306.331
295.059
283.973
273.101
262.472
252.109
242.032
232.26
222.808
213.691
204.916
196.486
188.402
180.659
173.253
166.178
159.426
152.988
146.852
141.007
135.442
130.141
125.085
120.229
115.579
111.148
106.942
102.962
99.2056
95.6719
92.3599
89.2704
86.4062
83.7727
81.388
79.1133
77.5738
32.7536
24.7747
22.2872
21.5043
21.4605
21.8462
22.5186
23.4019
24.4572
25.664
27.0121
28.4968
30.1165
31.8712
33.7616
35.7888
37.9534
40.2564
42.6987
45.2811
48.0048
50.8715
53.8832
57.0421
60.351
63.8131
67.4314
71.2095
75.1505
79.2575
83.5334
87.9803
92.5997
97.3936
102.364
107.513
112.843
118.356
124.053
129.934
136
142.25
148.684
155.302
162.103
169.086
176.252
183.599
191.128
198.839
206.731
214.806
223.062
231.501
240.122
248.926
257.911
267.075
276.418
285.936
295.625
305.48
315.493
325.658
335.963
346.397
356.946
367.595
378.325
389.118
399.951
410.801
421.644
432.452
443.197
453.85
464.382
474.76
484.956
494.938
504.677
514.142
523.306
532.141
540.623
548.726
556.431
563.718
570.573
576.983
582.937
588.428
593.45
598.002
602.084
605.697
608.842
611.524
613.748
615.518
616.843
617.709
618.093
618.022
617.508
616.555
615.163
613.335
611.068
608.367
605.233
601.674
597.691
593.292
588.483
583.269
577.658
571.658
565.278
558.53
551.424
543.973
536.185
528.069
519.634
510.887
501.83
492.469
482.806
472.846
462.599
452.073
441.28
430.242
418.984
407.535
395.93
384.2
372.376
360.497
348.605
336.746
324.961
313.31
301.828
290.546
279.491
268.686
258.153
247.912
237.977
228.365
219.091
210.163
201.583
193.35
185.46
177.907
170.688
163.794
157.218
150.946
144.969
139.273
133.845
128.666
123.694
118.935
114.4
110.092
106.013
102.16
98.5321
95.1267
91.9443
88.9853
86.2523
83.7572
81.3572
83.4632
34.8798
26.1958
23.4545
22.556
22.4592
22.8194
23.4819
24.3631
25.4189
26.6251
27.9688
29.4432
31.0455
32.7752
34.6329
36.62
38.7381
40.9892
43.3751
45.8982
48.5609
51.3661
54.3168
57.4167
60.6696
64.0799
67.652
71.3906
75.3003
79.3855
83.6501
88.0984
92.7262
97.5374
102.536
107.722
113.108
118.698
124.493
130.495
136.705
143.125
149.754
156.593
163.643
170.904
178.376
186.06
193.955
202.063
210.384
218.918
227.667
236.63
245.808
255.202
264.81
274.632
284.666
294.907
305.354
315.998
326.834
337.853
349.043
360.391
371.882
383.5
395.223
407.031
418.899
430.8
442.708
454.592
466.419
478.157
489.773
501.23
512.494
523.53
534.303
544.779
554.925
564.711
574.106
583.083
591.618
599.688
607.276
614.367
620.947
627.008
632.543
637.549
642.024
645.968
649.383
652.271
654.636
656.482
657.811
658.614
658.885
658.631
657.857
656.57
654.77
652.456
649.626
646.281
642.422
638.054
633.181
627.808
621.942
615.592
608.769
601.486
593.758
585.605
577.048
568.108
558.807
549.171
539.222
528.984
518.479
507.727
496.742
485.545
474.158
462.592
450.863
438.995
427.012
414.942
402.805
390.638
378.458
366.292
354.172
342.127
330.186
318.409
306.829
295.466
284.341
273.473
262.881
252.58
242.584
232.905
223.566
214.572
205.922
197.615
189.646
182.009
174.703
167.72
161.052
154.687
148.613
142.819
137.291
132.008
126.939
122.095
117.479
113.093
108.936
105.006
101.301
97.8179
94.5563
91.5148
88.694
86.1006
83.5969
87.8672
36.4701
27.2466
24.3058
23.3139
23.1744
23.5152
24.172
25.0551
26.1163
27.3283
28.6755
30.1496
31.7461
33.4637
35.3024
37.2635
39.3488
41.5609
43.9026
46.3769
48.9875
51.7383
54.6337
57.6787
60.8784
64.2384
67.7648
71.4646
75.344
79.4068
83.6571
88.0995
92.7254
97.5459
102.565
107.784
113.223
118.884
124.771
130.888
137.24
143.829
150.656
157.721
165.028
172.576
180.367
188.403
196.683
205.209
213.982
223.002
232.27
241.789
251.557
261.575
271.842
282.357
293.118
304.122
315.363
326.835
338.531
350.439
362.549
374.844
387.309
399.924
412.667
425.513
438.436
451.407
464.394
477.363
490.28
503.108
515.808
528.341
540.668
552.749
564.545
576.019
587.131
597.849
608.137
617.966
627.306
636.134
644.428
652.171
659.349
665.949
671.966
677.393
682.23
686.475
690.128
693.192
695.668
697.559
698.868
699.592
699.718
699.245
698.168
696.506
694.256
691.409
687.964
683.918
679.272
674.026
668.185
661.752
654.736
647.146
638.997
630.305
621.094
611.389
601.224
590.631
579.649
568.318
556.685
544.789
532.672
520.383
507.944
495.388
482.705
469.942
457.156
444.376
431.632
418.949
406.333
393.845
381.425
369.086
356.851
344.739
332.761
321.009
309.485
298.196
287.153
276.372
265.865
255.645
245.72
236.093
226.796
217.838
209.214
200.922
192.956
185.31
177.986
170.978
164.277
157.87
151.748
145.897
140.304
134.946
129.819
124.922
120.256
115.82
111.612
107.629
103.869
100.328
97.005
93.8973
91.0039
88.3276
85.7417
90.7414
37.5156
27.9292
24.8501
23.7921
23.6232
23.9533
24.6107
25.5018
26.5754
27.8017
29.1633
30.6499
32.2557
33.9782
35.8166
37.7718
39.8454
42.0402
44.3593
46.8065
49.3862
52.1035
54.9641
57.9743
61.1414
64.4716
67.9709
71.6466
75.5058
79.5536
83.7942
88.2304
92.8688
97.7169
102.782
108.07
113.592
119.355
125.368
131.636
138.163
144.954
152.012
159.341
166.944
174.824
182.983
191.421
200.139
209.139
218.421
227.987
237.837
247.972
258.392
269.097
280.086
291.356
302.905
314.728
326.82
339.172
351.775
364.617
377.684
390.96
404.425
418.058
431.834
445.725
459.703
473.734
487.785
501.818
515.794
529.674
543.415
556.973
570.307
583.372
596.125
608.524
620.528
632.099
643.2
653.797
663.859
673.358
682.272
690.581
698.268
705.321
711.732
717.496
722.61
727.073
730.885
734.045
736.557
738.422
739.64
740.212
740.125
739.351
737.9
735.789
733.009
729.55
725.405
720.571
715.044
708.822
701.909
694.308
686.026
677.075
667.47
657.236
646.399
634.996
623.072
610.672
597.85
584.663
571.195
557.492
543.617
529.522
515.369
501.242
487.266
473.462
459.782
446.249
432.889
419.721
406.74
394.011
381.41
368.986
356.748
344.695
332.799
321.177
309.802
298.676
287.808
277.205
266.876
256.83
247.069
237.588
228.46
219.663
211.183
203.016
195.154
187.589
180.328
173.369
166.702
160.316
154.199
148.34
142.722
137.347
132.206
127.298
122.619
118.168
113.94
109.933
106.144
102.568
99.2054
96.0509
93.1035
90.3624
87.7161
91.9793
38.0022
28.2551
25.1104
24.02
23.838
24.1693
24.8378
25.7476
26.8456
28.1005
29.4931
31.0117
32.6494
34.4022
36.2688
38.2494
40.3451
42.5586
44.893
47.3525
49.9422
52.6684
55.538
58.5568
61.7311
65.0685
68.577
72.2648
76.1404
80.2113
84.4853
88.9703
93.6752
98.6092
103.782
109.203
114.881
120.827
127.048
133.551
140.344
147.433
154.822
162.515
170.516
178.829
187.458
196.405
205.669
215.253
225.155
235.378
245.92
256.782
267.962
279.46
291.272
303.394
315.823
328.552
341.572
354.874
368.445
382.272
396.337
410.621
425.102
439.755
454.553
469.466
484.461
499.503
514.554
529.575
544.523
559.356
574.027
588.491
602.701
616.612
630.176
643.35
656.09
668.355
680.105
691.305
701.922
711.928
721.295
730.005
738.038
745.383
752.03
757.974
763.213
767.745
771.57
774.687
777.097
778.803
779.803
780.091
779.67
778.459
776.514
773.83
770.394
766.195
761.222
755.468
748.926
741.595
733.473
724.563
714.873
704.417
693.211
681.286
668.674
655.42
641.588
627.239
612.436
597.218
581.619
565.822
549.928
534.224
518.614
503.182
488.065
473.096
458.408
444.044
430.026
416.364
403.049
390.079
377.418
365.053
352.968
341.148
329.582
318.284
307.251
296.479
285.969
275.723
265.743
256.034
246.594
237.405
228.536
219.972
211.708
203.736
196.05
188.631
181.523
174.701
168.148
161.854
155.807
149.997
144.427
139.096
133.997
129.125
124.475
120.046
115.834
111.835
108.046
104.463
101.084
97.9057
94.9253
92.1398
89.4558
91.9188
37.9865
28.2476
25.1089
24.0283
23.8649
24.2256
24.9263
25.8769
27.0244
28.3362
29.792
31.379
33.0893
34.9181
36.8632
38.9246
41.1031
43.4005
45.8198
48.3652
51.0416
53.8545
56.8101
59.9163
63.1812
66.614
70.2243
74.0223
78.0184
82.2233
86.6479
91.3035
96.2016
101.354
106.773
112.47
118.456
124.742
131.336
138.249
145.489
153.061
160.974
169.231
177.835
186.789
196.096
205.76
215.781
226.158
236.89
247.976
259.413
271.201
283.334
295.81
308.621
321.762
335.224
348.997
363.07
377.428
392.056
406.935
422.046
437.364
452.865
468.52
484.299
500.17
516.095
532.039
547.961
563.82
579.571
595.169
610.568
625.72
640.577
655.09
669.214
682.903
696.112
708.799
720.925
732.453
743.351
753.587
763.137
771.979
780.094
787.469
794.095
799.967
805.083
809.443
813.045
815.888
817.972
819.302
819.871
819.678
818.674
816.832
814.185
810.719
806.418
801.268
795.255
788.369
780.6
771.944
762.399
751.966
740.655
728.479
715.46
701.639
687.051
671.744
655.705
639.035
621.885
604.46
586.946
569.354
551.894
534.392
517.081
500.084
483.499
467.354
451.705
436.588
422.02
407.996
394.498
381.498
368.956
356.833
345.091
333.696
322.618
311.84
301.347
291.123
281.161
271.454
262
252.797
243.843
235.136
226.694
218.52
210.613
202.965
195.573
188.42
181.532
174.903
168.517
162.368
156.452
150.76
145.314
140.097
135.101
130.32
125.748
121.384
117.226
113.27
109.512
105.95
102.582
99.4036
96.4132
93.6047
90.9058
90.5141
37.55
27.984
24.9221
23.902
23.8043
24.2383
25.0185
26.0608
27.3117
28.7393
30.3234
32.0507
33.9128
35.9045
38.0228
40.2663
42.6358
45.133
47.761
50.5241
53.4272
56.4766
59.6793
63.0439
66.5799
70.2981
74.2096
78.3266
82.6619
87.2289
92.0411
97.1128
102.458
108.092
114.029
120.282
126.864
133.788
141.063
148.699
156.704
165.085
173.852
183.006
192.549
202.481
212.801
223.506
234.597
246.071
257.924
270.153
282.751
295.711
309.026
322.687
336.682
350.999
365.625
380.544
395.739
411.19
426.876
442.773
458.858
475.103
491.479
507.955
524.5
541.078
557.652
574.186
590.639
606.97
623.137
639.094
654.796
670.196
685.249
699.906
714.125
727.859
741.069
753.712
765.752
777.154
787.885
797.918
807.225
815.786
823.582
830.599
836.829
842.266
846.911
850.761
853.816
856.071
857.532
858.198
858.06
857.096
855.236
852.509
848.904
844.401
838.985
832.635
825.339
817.08
807.847
797.636
786.442
774.264
761.121
747.024
731.988
715.976
699.075
681.39
663.133
644.41
625.276
605.966
586.34
566.661
547.103
527.764
508.796
490.331
472.479
455.307
438.867
423.189
408.278
394.115
380.663
367.872
355.683
344.031
332.857
322.103
311.72
301.67
291.918
282.44
273.216
264.231
255.478
246.949
238.638
230.544
222.673
215.03
207.611
200.411
193.431
186.667
180.112
173.78
167.666
161.769
156.083
150.602
145.339
140.288
135.442
130.796
126.344
122.093
118.033
114.161
110.473
106.965
103.637
100.487
97.5127
94.7059
92.0171
87.8452
36.6295
27.4445
24.5741
23.7028
23.7512
24.3315
25.264
26.4738
27.9114
29.5464
31.3593
33.3375
35.4728
37.7601
40.1966
42.7813
45.5145
48.3982
51.4358
54.6315
57.9909
61.5205
65.228
69.1228
73.2154
77.5177
82.0426
86.8037
91.8156
97.0934
102.653
108.51
114.682
121.185
128.036
135.25
142.841
150.82
159.194
167.971
177.157
186.756
196.766
207.192
218.033
229.286
240.948
253.012
265.472
278.32
291.546
305.139
319.089
333.382
348.004
362.937
378.165
393.669
409.427
425.418
441.617
457.999
474.538
491.206
507.974
524.813
541.693
558.583
575.45
592.263
608.986
625.584
642.022
658.263
674.268
689.998
705.41
720.464
735.116
749.325
763.052
776.256
788.901
800.949
812.367
823.123
833.188