/*--------------------------------*- C++ -*----------------------------------*\
| =========                 |                                                 |
| \\      /  F ield         | OpenFOAM: The Open Source CFD Toolbox           |
|  \\    /   O peration     | Version:  2312                                  |
|   \\  /    A nd           | Website:  www.openfoam.com                      |
|    \\/     M anipulation  |                                                 |
\*---------------------------------------------------------------------------*/
FoamFile
{
    version     2.0;
    format      ascii;
    arch        "LSB;label=32;scalar=64";
    class       volScalarField;
    location    "100";
    object      p;
}
// * * * * * * * * * * * * * * * * * * * * * * * * * * * * * * * * * * * * * //

dimensions      [0 2 -2 0 0 0 0];

internalField   nonuniform List<scalar> 
12225
(
497.461
495.304
494.211
493.896
493.718
493.538
493.388
493.274
493.18
493.094
493.014
492.936
492.861
492.787
492.709
492.628
492.529
492.46
494.331
493.543
493.338
493.425
493.449
493.383
493.298
493.222
493.15
493.078
493.006
492.934
492.864
492.792
492.717
492.637
492.548
492.433
493.951
494.017
493.897
493.809
493.7
493.556
493.419
493.307
493.21
493.122
493.039
492.96
492.884
492.809
492.733
492.653
492.566
492.474
494.079
494.166
493.906
493.713
493.589
493.467
493.351
493.255
493.171
493.093
493.019
492.946
492.876
492.805
492.734
492.66
492.583
492.509
494.087
494.072
493.825
493.659
493.565
493.465
493.361
493.269
493.186
493.108
493.033
492.961
492.89
492.82
492.75
492.68
492.61
492.544
494.026
493.981
493.794
493.653
493.562
493.464
493.362
493.27
493.187
493.11
493.035
492.964
492.894
492.827
492.76
492.694
492.63
492.571
493.964
493.921
493.777
493.646
493.55
493.455
493.358
493.268
493.187
493.112
493.039
492.969
492.902
492.836
492.772
492.71
492.652
492.599
493.908
493.871
493.753
493.631
493.537
493.446
493.354
493.268
493.189
493.115
493.044
492.976
492.911
492.847
492.786
492.728
492.674
492.626
493.857
493.823
493.725
493.615
493.524
493.438
493.351
493.268
493.191
493.119
493.05
492.984
492.92
492.86
492.802
492.747
492.697
492.652
493.808
493.777
493.695
493.598
493.511
493.43
493.348
493.268
493.194
493.124
493.057
492.993
492.931
492.873
492.818
492.767
492.719
492.678
493.762
493.735
493.666
493.58
493.499
493.421
493.344
493.268
493.197
493.129
493.064
493.002
492.943
492.887
492.835
492.786
492.742
492.703
493.723
493.699
493.639
493.563
493.487
493.413
493.34
493.268
493.199
493.134
493.071
493.011
492.954
492.901
492.851
492.805
492.762
492.725
493.687
493.665
493.614
493.546
493.475
493.406
493.336
493.268
493.202
493.138
493.078
493.021
492.966
492.915
492.867
492.823
492.782
492.746
493.65
493.631
493.587
493.526
493.462
493.397
493.332
493.267
493.205
493.144
493.086
493.031
492.979
492.93
492.885
492.843
492.804
492.77
493.613
493.596
493.559
493.506
493.448
493.388
493.328
493.268
493.208
493.151
493.096
493.044
492.995
492.948
492.905
492.865
492.829
492.796
493.578
493.564
493.532
493.487
493.435
493.38
493.325
493.269
493.213
493.159
493.108
493.058
493.012
492.968
492.927
492.889
492.854
492.823
493.55
493.538
493.51
493.471
493.424
493.375
493.323
493.271
493.22
493.17
493.121
493.075
493.031
492.989
492.95
492.914
492.881
492.851
493.533
493.522
493.498
493.462
493.42
493.374
493.327
493.278
493.23
493.182
493.137
493.093
493.051
493.012
492.975
492.94
492.909
492.879
493.534
493.524
493.501
493.468
493.427
493.384
493.338
493.292
493.245
493.2
493.155
493.113
493.073
493.035
493
492.966
492.935
492.906
493.56
493.55
493.526
493.49
493.448
493.403
493.357
493.31
493.263
493.217
493.173
493.131
493.091
493.054
493.018
492.985
492.954
492.926
493.595
493.584
493.558
493.518
493.473
493.425
493.376
493.327
493.279
493.232
493.187
493.144
493.104
493.066
493.03
492.997
492.966
492.937
493.639
493.627
493.596
493.551
493.499
493.448
493.396
493.344
493.293
493.244
493.198
493.154
493.113
493.074
493.038
493.005
492.974
492.945
493.686
493.675
493.64
493.584
493.526
493.47
493.415
493.36
493.306
493.255
493.207
493.161
493.119
493.079
493.043
493.009
492.977
492.948
493.736
493.727
493.686
493.619
493.553
493.493
493.432
493.372
493.316
493.263
493.214
493.167
493.124
493.084
493.047
493.013
492.981
492.952
493.787
493.786
493.723
493.642
493.579
493.519
493.453
493.386
493.325
493.269
493.217
493.168
493.123
493.082
493.044
493.009
492.977
492.947
493.834
493.882
493.767
493.646
493.584
493.532
493.468
493.402
493.342
493.286
493.233
493.183
493.137
493.095
493.056
493.02
492.988
492.957
493.817
494.015
493.882
493.704
493.6
493.52
493.441
493.37
493.308
493.252
493.201
493.153
493.11
493.07
493.034
493.001
492.97
492.94
493.676
493.923
493.947
493.893
493.81
493.703
493.592
493.496
493.412
493.337
493.27
493.209
493.154
493.106
493.063
493.024
492.989
492.956
493.948
493.317
493.199
493.34
493.428
493.422
493.381
493.337
493.293
493.246
493.199
493.153
493.111
493.072
493.035
493.003
492.973
492.944
497.002
495.235
494.223
493.942
493.816
493.674
493.545
493.446
493.365
493.294
493.229
493.172
493.121
493.076
493.037
493.002
492.972
492.947
491.851
491.852
491.853
491.852
491.848
491.844
491.839
491.834
491.829
491.825
491.82
491.816
491.81
491.805
491.798
491.791
491.783
491.774
491.763
491.751
491.738
491.722
491.705
491.686
491.664
491.64
491.613
491.585
491.554
491.521
491.485
491.449
491.41
491.371
491.331
491.29
491.249
491.209
491.169
491.13
491.093
491.056
491.021
490.988
490.957
490.928
490.9
490.875
490.852
490.831
490.812
490.796
490.781
490.769
490.759
490.752
490.747
490.743
490.743
490.744
490.748
490.754
490.762
490.773
490.785
490.8
490.817
490.835
490.856
490.879
490.904
490.931
490.96
490.99
491.022
491.056
491.091
491.128
491.167
491.207
491.248
491.291
491.336
491.382
491.43
491.48
491.532
491.586
491.643
491.704
491.768
491.837
491.909
491.986
492.069
492.159
492.255
492.358
492.471
492.592
492.724
492.867
493.023
493.193
493.379
493.582
493.803
494.044
494.304
494.586
494.891
495.218
495.569
495.945
496.346
496.772
497.223
497.7
498.201
498.726
499.274
499.843
500.432
501.039
501.661
502.296
502.941
503.592
504.247
504.901
505.552
506.196
506.83
507.45
508.054
508.639
509.202
509.742
510.257
510.746
511.207
511.641
512.046
512.425
512.777
513.103
513.406
513.685
513.94
514.173
514.386
514.578
514.752
514.909
515.051
515.177
515.291
515.392
515.483
515.563
515.635
515.698
515.754
515.803
515.847
515.885
515.918
515.948
515.974
515.997
516.018
516.037
516.055
516.073
516.094
516.119
516.155
516.209
516.309
516.442
491.849
491.85
491.85
491.848
491.844
491.841
491.838
491.835
491.833
491.832
491.83
491.828
491.826
491.823
491.82
491.815
491.809
491.803
491.794
491.785
491.774
491.761
491.746
491.729
491.709
491.687
491.662
491.634
491.604
491.571
491.536
491.499
491.461
491.421
491.38
491.339
491.297
491.256
491.216
491.176
491.138
491.101
491.066
491.032
491.001
490.971
490.944
490.918
490.895
490.874
490.855
490.838
490.824
490.812
490.802
490.794
490.789
490.786
490.785
490.787
490.79
490.796
490.805
490.815
490.828
490.843
490.86
490.879
490.9
490.924
490.949
490.976
491.005
491.036
491.068
491.103
491.138
491.176
491.215
491.255
491.297
491.34
491.385
491.431
491.479
491.528
491.58
491.634
491.69
491.749
491.812
491.877
491.947
492.022
492.102
492.188
492.281
492.381
492.49
492.607
492.736
492.876
493.028
493.195
493.376
493.574
493.789
494.023
494.277
494.552
494.848
495.168
495.511
495.878
496.27
496.688
497.13
497.598
498.09
498.606
499.146
499.706
500.288
500.887
501.503
502.132
502.772
503.419
504.071
504.723
505.373
506.017
506.652
507.274
507.881
508.469
509.037
509.581
510.101
510.595
511.062
511.502
511.913
512.298
512.655
512.987
513.293
513.576
513.836
514.074
514.291
514.488
514.667
514.829
514.975
515.106
515.224
515.329
515.423
515.508
515.582
515.649
515.708
515.76
515.807
515.847
515.883
515.915
515.943
515.968
515.991
516.012
516.032
516.052
516.074
516.101
516.136
516.187
516.275
516.386
491.852
491.853
491.852
491.85
491.846
491.844
491.843
491.843
491.843
491.844
491.845
491.846
491.846
491.846
491.845
491.842
491.839
491.834
491.828
491.82
491.811
491.798
491.784
491.767
491.747
491.724
491.698
491.67
491.639
491.606
491.571
491.534
491.496
491.456
491.417
491.376
491.336
491.296
491.257
491.219
491.182
491.146
491.111
491.079
491.048
491.019
490.991
490.966
490.943
490.922
490.904
490.887
490.873
490.861
490.851
490.843
490.838
490.835
490.834
490.836
490.84
490.846
490.854
490.865
490.878
490.893
490.91
490.93
490.951
490.975
491
491.028
491.057
491.088
491.121
491.155
491.191
491.229
491.268
491.309
491.351
491.394
491.439
491.485
491.532
491.582
491.632
491.685
491.74
491.798
491.858
491.922
491.989
492.06
492.137
492.219
492.307
492.403
492.506
492.619
492.742
492.876
493.023
493.183
493.358
493.549
493.756
493.983
494.228
494.494
494.781
495.091
495.425
495.782
496.164
496.571
497.004
497.461
497.943
498.449
498.978
499.529
500.1
500.691
501.298
501.919
502.552
503.194
503.84
504.489
505.136
505.778
506.411
507.034
507.641
508.232
508.802
509.351
509.876
510.375
510.848
511.295
511.715
512.108
512.474
512.815
513.131
513.423
513.692
513.938
514.164
514.369
514.555
514.724
514.877
515.015
515.138
515.25
515.349
515.438
515.518
515.589
515.652
515.708
515.758
515.802
515.841
515.876
515.906
515.934
515.959
515.982
516.003
516.025
516.049
516.077
516.112
516.158
516.233
516.308
491.863
491.861
491.858
491.855
491.852
491.85
491.849
491.849
491.85
491.852
491.854
491.855
491.857
491.858
491.857
491.856
491.854
491.849
491.843
491.836
491.825
491.813
491.798
491.78
491.76
491.737
491.712
491.683
491.653
491.62
491.586
491.55
491.512
491.474
491.435
491.396
491.357
491.318
491.28
491.243
491.207
491.172
491.138
491.106
491.076
491.048
491.021
490.997
490.974
490.954
490.936
490.92
490.906
490.894
490.885
490.877
490.872
490.87
490.869
490.871
490.875
490.882
490.89
490.901
490.915
490.93
490.948
490.967
490.989
491.013
491.039
491.067
491.096
491.128
491.161
491.195
491.232
491.269
491.309
491.349
491.391
491.434
491.478
491.524
491.571
491.619
491.669
491.721
491.775
491.831
491.889
491.951
492.015
492.084
492.158
492.236
492.321
492.412
492.512
492.62
492.738
492.867
493.008
493.162
493.331
493.516
493.717
493.936
494.175
494.433
494.713
495.016
495.342
495.691
496.065
496.465
496.889
497.338
497.812
498.31
498.831
499.375
499.94
500.523
501.124
501.74
502.368
503.005
503.647
504.293
504.937
505.578
506.211
506.833
507.442
508.033
508.606
509.157
509.686
510.19
510.668
511.121
511.547
511.947
512.321
512.669
512.992
513.292
513.568
513.821
514.053
514.265
514.458
514.633
514.791
514.934
515.063
515.179
515.284
515.377
515.46
515.535
515.602
515.661
515.714
515.76
515.802
515.839
515.872
515.902
515.928
515.953
515.976
515.999
516.024
516.051
516.085
516.125
516.184
516.228
491.883
491.878
491.871
491.865
491.86
491.858
491.856
491.856
491.857
491.858
491.86
491.862
491.863
491.864
491.864
491.862
491.859
491.855
491.848
491.84
491.829
491.816
491.8
491.782
491.761
491.737
491.711
491.683
491.652
491.62
491.585
491.55
491.513
491.476
491.438
491.4
491.362
491.325
491.288
491.252
491.217
491.183
491.15
491.12
491.09
491.063
491.037
491.014
490.992
490.972
490.955
490.939
490.926
490.915
490.906
490.899
490.895
490.893
490.893
490.895
490.9
490.907
490.916
490.927
490.941
490.957
490.975
490.996
491.018
491.042
491.069
491.097
491.127
491.159
491.193
491.228
491.264
491.302
491.341
491.381
491.423
491.465
491.509
491.554
491.6
491.647
491.695
491.746
491.798
491.852
491.908
491.967
492.029
492.095
492.165
492.24
492.321
492.408
492.503
492.606
492.719
492.843
492.978
493.127
493.29
493.469
493.664
493.877
494.109
494.362
494.636
494.932
495.251
495.595
495.963
496.356
496.774
497.217
497.686
498.179
498.695
499.235
499.795
500.375
500.973
501.586
502.211
502.846
503.488
504.132
504.777
505.418
506.052
506.675
507.286
507.88
508.455
509.009
509.541
510.049
510.532
510.99
511.421
511.826
512.205
512.559
512.888
513.192
513.473
513.732
513.969
514.185
514.382
514.562
514.724
514.871
515.004
515.124
515.231
515.328
515.415
515.492
515.561
515.623
515.678
515.727
515.771
515.809
515.844
515.875
515.903
515.929
515.953
515.976
516.001
516.027
516.057
516.09
516.135
516.153
491.907
491.899
491.888
491.878
491.872
491.868
491.865
491.864
491.864
491.865
491.866
491.867
491.867
491.867
491.866
491.864
491.861
491.855
491.848
491.838
491.826
491.811
491.795
491.775
491.753
491.729
491.703
491.674
491.643
491.611
491.577
491.542
491.506
491.47
491.433
491.396
491.359
491.323
491.287
491.252
491.218
491.186
491.155
491.125
491.097
491.07
491.045
491.023
491.002
490.983
490.966
490.951
490.939
490.928
490.92
490.914
490.91
490.908
490.909
490.912
490.917
490.925
490.935
490.947
490.962
490.979
490.998
491.019
491.042
491.067
491.094
491.123
491.154
491.186
491.22
491.256
491.293
491.331
491.37
491.41
491.451
491.493
491.536
491.58
491.625
491.67
491.717
491.766
491.816
491.867
491.921
491.976
492.035
492.098
492.164
492.235
492.311
492.394
492.484
492.582
492.69
492.808
492.938
493.081
493.238
493.41
493.599
493.807
494.033
494.279
494.547
494.837
495.151
495.489
495.851
496.239
496.652
497.091
497.556
498.045
498.558
499.094
499.652
500.23
500.827
501.439
502.064
502.699
503.341
503.987
504.633
505.276
505.913
506.539
507.152
507.75
508.329
508.887
509.423
509.936
510.424
510.886
511.322
511.731
512.115
512.473
512.806
513.114
513.399
513.661
513.902
514.122
514.322
514.505
514.671
514.821
514.957
515.079
515.189
515.289
515.378
515.457
515.529
515.593
515.649
515.7
515.745
515.785
515.821
515.853
515.882
515.908
515.933
515.956
515.979
516.003
516.03
516.056
516.088
516.086
491.933
491.923
491.906
491.893
491.885
491.879
491.875
491.872
491.871
491.87
491.87
491.87
491.869
491.868
491.866
491.863
491.858
491.851
491.842
491.831
491.818
491.802
491.784
491.764
491.741
491.716
491.689
491.66
491.63
491.597
491.564
491.53
491.494
491.459
491.423
491.387
491.351
491.316
491.281
491.248
491.215
491.183
491.153
491.124
491.097
491.072
491.048
491.026
491.006
490.988
490.972
490.958
490.946
490.936
490.928
490.923
490.92
490.919
490.921
490.925
490.931
490.939
490.95
490.963
490.979
490.996
491.016
491.038
491.063
491.089
491.117
491.147
491.178
491.212
491.246
491.282
491.319
491.358
491.397
491.437
491.478
491.519
491.561
491.604
491.648
491.692
491.737
491.783
491.83
491.879
491.93
491.982
492.037
492.096
492.158
492.224
492.296
492.374
492.458
492.551
492.653
492.765
492.889
493.026
493.177
493.344
493.527
493.728
493.948
494.189
494.451
494.736
495.044
495.376
495.734
496.117
496.526
496.961
497.422
497.908
498.419
498.953
499.51
500.087
500.684
501.296
501.922
502.558
503.203
503.851
504.499
505.145
505.785
506.415
507.032
507.634
508.217
508.781
509.322
509.839
510.331
510.798
511.238
511.652
512.04
512.402
512.739
513.05
513.338
513.604
513.847
514.07
514.273
514.458
514.627
514.779
514.917
515.042
515.155
515.256
515.347
515.429
515.502
515.567
515.625
515.677
515.724
515.765
515.802
515.834
515.864
515.89
515.915
515.938
515.96
515.981
516.003
516.022
516.043
516.025
491.957
491.944
491.923
491.908
491.897
491.889
491.884
491.88
491.877
491.875
491.873
491.872
491.87
491.867
491.864
491.859
491.852
491.844
491.834
491.822
491.807
491.79
491.771
491.75
491.727
491.701
491.674
491.645
491.614
491.582
491.549
491.515
491.481
491.446
491.411
491.376
491.341
491.307
491.273
491.24
491.209
491.178
491.149
491.121
491.095
491.07
491.047
491.026
491.007
490.989
490.974
490.961
490.95
490.941
490.934
490.929
490.927
490.927
490.93
490.934
490.941
490.951
490.963
490.977
490.994
491.012
491.033
491.057
491.082
491.109
491.138
491.169
491.202
491.236
491.271
491.308
491.346
491.384
491.424
491.464
491.504
491.545
491.586
491.628
491.67
491.713
491.756
491.799
491.844
491.89
491.937
491.985
492.036
492.09
492.148
492.209
492.276
492.348
492.428
492.515
492.611
492.717
492.835
492.966
493.111
493.271
493.448
493.643
493.857
494.092
494.349
494.628
494.931
495.259
495.612
495.991
496.397
496.828
497.286
497.77
498.279
498.813
499.369
499.946
500.543
501.157
501.784
502.423
503.07
503.721
504.373
505.023
505.667
506.301
506.923
507.529
508.118
508.686
509.232
509.754
510.251
510.722
511.167
511.585
511.977
512.342
512.682
512.997
513.288
513.555
513.801
514.027
514.232
514.42
514.59
514.745
514.885
515.011
515.125
515.228
515.321
515.404
515.479
515.546
515.605
515.658
515.706
515.748
515.785
515.819
515.848
515.875
515.899
515.921
515.941
515.96
515.977
515.99
516.001
515.97
491.976
491.962
491.938
491.92
491.908
491.899
491.891
491.886
491.882
491.878
491.875
491.872
491.869
491.865
491.86
491.853
491.846
491.836
491.825
491.811
491.796
491.778
491.758
491.736
491.712
491.687
491.659
491.63
491.599
491.568
491.535
491.502
491.468
491.433
491.399
491.365
491.331
491.297
491.265
491.233
491.202
491.172
491.144
491.117
491.091
491.067
491.045
491.025
491.006
490.989
490.975
490.962
490.952
490.943
490.937
490.934
490.932
490.933
490.937
490.942
490.95
490.961
490.974
490.99
491.007
491.028
491.05
491.075
491.101
491.13
491.16
491.192
491.226
491.261
491.298
491.335
491.373
491.412
491.452
491.492
491.532
491.572
491.613
491.653
491.693
491.734
491.775
491.816
491.857
491.899
491.943
491.987
492.034
492.083
492.136
492.192
492.253
492.32
492.393
492.474
492.564
492.664
492.776
492.901
493.039
493.193
493.364
493.553
493.762
493.991
494.242
494.516
494.814
495.138
495.487
495.862
496.265
496.694
497.149
497.632
498.14
498.673
499.23
499.808
500.406
501.021
501.651
502.293
502.943
503.598
504.254
504.908
505.556
506.196
506.823
507.434
508.028
508.601
509.152
509.679
510.181
510.656
511.105
511.527
511.922
512.291
512.634
512.951
513.244
513.515
513.763
513.99
514.197
514.387
514.559
514.715
514.857
514.985
515.1
515.205
515.299
515.383
515.459
515.527
515.588
515.642
515.69
515.733
515.771
515.805
515.835
515.862
515.885
515.906
515.924
515.94
515.953
515.959
515.962
515.921
491.989
491.974
491.948
491.929
491.916
491.905
491.897
491.89
491.885
491.88
491.876
491.871
491.867
491.861
491.855
491.847
491.838
491.828
491.815
491.801
491.785
491.766
491.746
491.723
491.699
491.673
491.646
491.617
491.586
491.555
491.522
491.489
491.456
491.422
491.389
491.355
491.322
491.289
491.257
491.226
491.196
491.166
491.139
491.112
491.087
491.064
491.042
491.023
491.005
490.989
490.975
490.963
490.953
490.945
490.94
490.937
490.937
490.939
490.943
490.95
490.959
490.971
490.985
491.002
491.022
491.043
491.067
491.093
491.121
491.152
491.183
491.217
491.252
491.288
491.326
491.364
491.403
491.442
491.482
491.522
491.562
491.601
491.641
491.68
491.719
491.757
491.795
491.833
491.872
491.91
491.949
491.989
492.031
492.076
492.123
492.174
492.229
492.289
492.357
492.431
492.515
492.609
492.714
492.832
492.965
493.112
493.277
493.46
493.663
493.886
494.132
494.401
494.695
495.014
495.36
495.732
496.132
496.558
497.013
497.494
498.002
498.535
499.092
499.672
500.271
500.889
501.522
502.167
502.821
503.48
504.14
504.799
505.453
506.097
506.73
507.347
507.946
508.524
509.08
509.612
510.118
510.598
511.051
511.476
511.874
512.246
512.591
512.911
513.207
513.479
513.729
513.958
514.167
514.358
514.532
514.689
514.832
514.962
515.079
515.184
515.279
515.365
515.442
515.511
515.572
515.627
515.677
515.72
515.759
515.793
515.823
515.849
515.872
515.892
515.908
515.921
515.929
515.93
515.926
515.876
491.995
491.98
491.954
491.935
491.921
491.91
491.901
491.893
491.887
491.881
491.876
491.87
491.864
491.858
491.85
491.842
491.832
491.82
491.807
491.792
491.775
491.756
491.735
491.713
491.688
491.662
491.635
491.606
491.576
491.545
491.513
491.48
491.447
491.414
491.381
491.348
491.315
491.283
491.251
491.221
491.191
491.162
491.135
491.109
491.085
491.062
491.041
491.021
491.004
490.988
490.975
490.964
490.954
490.948
490.943
490.941
490.941
490.944
490.95
490.958
490.969
490.982
490.998
491.016
491.037
491.06
491.086
491.114
491.144
491.176
491.209
491.244
491.281
491.319
491.357
491.396
491.436
491.476
491.516
491.556
491.595
491.634
491.672
491.71
491.747
491.783
491.818
491.853
491.888
491.922
491.957
491.993
492.03
492.069
492.11
492.155
492.204
492.259
492.319
492.388
492.465
492.552
492.651
492.763
492.888
493.03
493.189
493.366
493.563
493.781
494.022
494.286
494.576
494.891
495.233
495.602
495.999
496.424
496.877
497.358
497.865
498.399
498.957
499.538
500.14
500.76
501.396
502.045
502.703
503.366
504.032
504.696
505.355
506.006
506.644
507.266
507.871
508.454
509.015
509.552
510.062
510.546
511.002
511.431
511.832
512.207
512.554
512.876
513.174
513.448
513.699
513.93
514.141
514.333
514.508
514.666
514.811
514.941
515.059
515.166
515.262
515.348
515.426
515.496
515.559
515.614
515.664
515.709
515.748
515.782
515.812
515.838
515.86
515.878
515.893
515.903
515.907
515.902
515.893
515.835
491.995
491.98
491.956
491.937
491.923
491.912
491.902
491.894
491.887
491.881
491.875
491.869
491.862
491.855
491.846
491.837
491.826
491.814
491.8
491.785
491.767
491.748
491.727
491.705
491.68
491.654
491.627
491.598
491.569
491.538
491.506
491.474
491.442
491.409
491.376
491.344
491.311
491.28
491.248
491.218
491.189
491.161
491.134
491.108
491.084
491.061
491.04
491.021
491.004
490.989
490.976
490.965
490.957
490.951
490.947
490.946
490.947
490.951
490.958
490.967
490.979
490.994
491.012
491.032
491.055
491.08
491.107
491.137
491.169
491.203
491.239
491.275
491.314
491.353
491.393
491.433
491.474
491.514
491.554
491.594
491.633
491.671
491.708
491.744
491.779
491.812
491.845
491.876
491.907
491.938
491.968
491.999
492.03
492.064
492.1
492.138
492.181
492.229
492.283
492.345
492.416
492.496
492.589
492.694
492.813
492.948
493.101
493.272
493.464
493.677
493.913
494.173
494.458
494.769
495.108
495.474
495.869
496.292
496.744
497.223
497.731
498.265
498.824
499.407
500.011
500.634
501.274
501.927
502.589
503.258
503.929
504.599
505.264
505.92
506.564
507.192
507.802
508.39
508.956
509.497
510.011
510.499
510.959
511.39
511.795
512.171
512.521
512.845
513.144
513.42
513.673
513.905
514.117
514.31
514.486
514.646
514.791
514.923
515.042
515.149
515.246
515.334
515.412
515.483
515.546
515.603
515.653
515.698
515.738
515.772
515.802
515.828
515.849
515.866
515.878
515.885
515.886
515.877
515.862
515.799
491.989
491.976
491.954
491.936
491.923
491.912
491.903
491.895
491.887
491.881
491.874
491.867
491.86
491.852
491.843
491.834
491.822
491.81
491.796
491.78
491.762
491.743
491.722
491.7
491.676
491.65
491.623
491.595
491.565
491.535
491.504
491.472
491.44
491.408
491.375
491.343
491.311
491.28
491.249
491.219
491.19
491.161
491.135
491.109
491.085
491.063
491.042
491.023
491.007
490.992
490.979
490.969
490.961
490.956
490.953
490.952
490.955
490.96
490.968
490.979
490.993
491.009
491.029
491.051
491.076
491.103
491.133
491.165
491.199
491.235
491.273
491.312
491.352
491.393
491.434
491.476
491.517
491.559
491.599
491.639
491.677
491.714
491.75
491.784
491.817
491.848
491.877
491.905
491.932
491.958
491.983
492.009
492.035
492.063
492.092
492.125
492.161
492.203
492.25
492.305
492.369
492.443
492.528
492.627
492.74
492.869
493.015
493.181
493.367
493.574
493.805
494.061
494.342
494.649
494.985
495.348
495.74
496.162
496.612
497.092
497.599
498.134
498.695
499.279
499.887
500.513
501.157
501.814
502.482
503.156
503.832
504.508
505.178
505.84
506.489
507.123
507.738
508.332
508.902
509.447
509.965
510.456
510.919
511.354
511.76
512.139
512.491
512.817
513.117
513.394
513.648
513.881
514.094
514.289
514.466
514.627
514.773
514.905
515.025
515.134
515.232
515.32
515.399
515.471
515.535
515.592
515.643
515.688
515.728
515.763
515.793
515.818
515.838
515.854
515.865
515.869
515.867
515.853
515.833
515.765
491.98
491.968
491.949
491.933
491.921
491.911
491.902
491.894
491.887
491.88
491.874
491.867
491.859
491.851
491.842
491.832
491.821
491.808
491.794
491.778
491.761
491.742
491.721
491.699
491.675
491.65
491.623
491.595
491.566
491.537
491.506
491.475
491.443
491.411
491.379
491.347
491.315
491.284
491.253
491.223
491.194
491.166
491.139
491.114
491.09
491.067
491.047
491.028
491.012
490.997
490.985
490.975
490.968
490.963
490.961
490.962
490.966
490.972
490.982
490.995
491.01
491.029
491.051
491.075
491.102
491.132
491.165
491.199
491.236
491.275
491.315
491.356
491.398
491.441
491.484
491.527
491.57
491.612
491.653
491.692
491.73
491.766
491.801
491.833
491.863
491.891
491.917
491.941
491.963
491.984
492.005
492.025
492.045
492.067
492.09
492.116
492.146
492.18
492.221
492.269
492.326
492.393
492.471
492.563
492.67
492.792
492.933
493.092
493.272
493.475
493.701
493.952
494.229
494.533
494.865
495.226
495.616
496.036
496.485
496.965
497.473
498.008
498.571
499.158
499.768
500.399
501.046
501.708
502.381
503.06
503.742
504.423
505.1
505.767
506.421
507.06
507.68
508.278
508.853
509.402
509.923
510.417
510.883
511.32
511.728
512.109
512.462
512.79
513.092
513.37
513.625
513.859
514.073
514.268
514.446
514.608
514.755
514.889
515.009
515.119
515.217
515.307
515.387
515.459
515.524
515.582
515.634
515.679
515.719
515.754
515.784
515.809
515.828
515.843
515.852
515.854
515.848
515.83
515.807
515.735
491.967
491.957
491.941
491.927
491.917
491.908
491.9
491.893
491.887
491.881
491.874
491.868
491.86
491.852
491.843
491.833
491.822
491.81
491.796
491.78
491.763
491.744
491.724
491.702
491.679
491.654
491.628
491.601
491.573
491.543
491.513
491.482
491.451
491.419
491.387
491.355
491.324
491.292
491.262
491.232
491.203
491.175
491.148
491.122
491.098
491.076
491.056
491.037
491.021
491.007
490.995
490.986
490.979
490.976
490.975
490.977
490.982
490.991
491.002
491.017
491.035
491.056
491.08
491.107
491.137
491.17
491.205
491.243
491.283
491.324
491.367
491.411
491.455
491.5
491.545
491.59
491.634
491.676
491.717
491.757
491.794
491.829
491.862
491.892
491.919
491.943
491.966
491.985
492.003
492.019
492.034
492.048
492.062
492.077
492.094
492.113
492.135
492.163
492.196
492.237
492.287
492.347
492.419
492.505
492.604
492.721
492.855
493.009
493.184
493.381
493.602
493.849
494.122
494.423
494.752
495.11
495.499
495.918
496.367
496.846
497.355
497.892
498.456
499.046
499.659
500.293
500.945
501.611
502.288
502.973
503.66
504.347
505.028
505.7
506.36
507.003
507.627
508.23
508.808
509.36
509.885
510.381
510.849
511.288
511.698
512.08
512.435
512.764
513.067
513.346
513.602
513.837
514.052
514.248
514.427
514.59
514.738
514.872
514.994
515.104
515.204
515.294
515.375
515.448
515.513
515.572
515.624
515.67
515.711
515.746
515.775
515.8
515.819
515.832
515.839
515.839
515.831
515.81
515.783
515.708
491.952
491.944
491.931
491.92
491.912
491.905
491.898
491.893
491.887
491.882
491.876
491.87
491.863
491.856
491.847
491.838
491.827
491.815
491.801
491.786
491.77
491.752
491.733
491.711
491.689
491.665
491.64
491.613
491.585
491.556
491.527
491.496
491.465
491.434
491.402
491.371
491.339
491.308
491.277
491.247
491.218
491.19
491.163
491.138
491.114
491.092
491.071
491.053
491.037
491.024
491.013
491.004
490.999
490.996
490.997
491
491.007
491.018
491.032
491.049
491.069
491.093
491.12
491.151
491.184
491.22
491.259
491.3
491.342
491.387
491.433
491.48
491.527
491.574
491.621
491.667
491.712
491.755
491.796
491.835
491.871
491.905
491.935
491.963
491.987
492.008
492.025
492.04
492.053
492.063
492.072
492.08
492.087
492.096
492.105
492.117
492.133
492.153
492.18
492.214
492.256
492.31
492.375
492.454
492.547
492.657
492.786
492.934
493.104
493.296
493.513
493.756
494.025
494.322
494.649
495.005
495.392
495.81
496.259
496.739
497.248
497.787
498.353
498.945
499.561
500.198
500.853
501.524
502.205
502.894
503.586
504.277
504.963
505.64
506.304
506.951
507.579
508.184
508.765
509.32
509.847
510.346
510.816
511.256
511.668
512.051
512.407
512.737
513.041
513.321
513.578
513.814
514.03
514.227
514.407
514.57
514.719
514.855
514.977
515.089
515.189
515.28
515.362
515.436
515.503
515.562
515.615
515.662
515.702
515.738
515.767
515.791
515.81
515.822
515.827
515.825
515.814
515.791
515.761
515.684
491.937
491.931
491.921
491.912
491.906
491.901
491.896
491.892
491.888
491.884
491.879
491.874
491.869
491.862
491.854
491.846
491.836
491.825
491.813
491.799
491.783
491.767
491.748
491.728
491.707
491.684
491.66
491.634
491.607
491.579
491.55
491.52
491.489
491.458
491.427
491.395
491.364
491.333
491.302
491.272
491.243
491.215
491.188
491.162
491.139
491.117
491.097
491.079
491.064
491.051
491.041
491.033
491.029
491.028
491.03
491.036
491.045
491.058
491.074
491.094
491.118
491.145
491.175
491.209
491.246
491.286
491.328
491.373
491.419
491.467
491.516
491.566
491.615
491.665
491.714
491.761
491.807
491.851
491.892
491.93
491.965
491.997
492.025
492.049
492.069
492.086
492.099
492.109
492.116
492.12
492.122
492.123
492.124
492.125
492.128
492.133
492.141
492.154
492.173
492.2
492.236
492.282
492.341
492.413
492.5
492.605
492.728
492.87
493.035
493.223
493.436
493.674
493.94
494.235
494.559
494.913
495.299
495.716
496.164
496.643
497.153
497.693
498.26
498.855
499.473
500.113
500.772
501.446
502.132
502.825
503.521
504.216
504.906
505.586
506.254
506.904
507.535
508.143
508.727
509.284
509.813
510.313
510.784
511.226
511.639
512.023
512.38
512.71
513.015
513.296
513.554
513.791
514.008
514.206
514.387
514.551
514.701
514.837
514.961
515.073
515.175
515.267
515.35
515.425
515.492
515.552
515.606
515.653
515.694
515.73
515.759
515.783
515.801
515.812
515.816
515.813
515.8
515.774
515.741
515.662
491.923
491.918
491.91
491.904
491.9
491.897
491.894
491.892
491.89
491.887
491.884
491.881
491.877
491.872
491.866
491.859
491.85
491.841
491.83
491.818
491.804
491.789
491.772
491.754
491.734
491.712
491.689
491.665
491.639
491.611
491.583
491.554
491.524
491.493
491.462
491.43
491.399
491.368
491.337
491.307
491.278
491.25
491.223
491.198
491.175
491.153
491.134
491.116
491.102
491.09
491.081
491.075
491.072
491.073
491.077
491.085
491.096
491.112
491.131
491.154
491.18
491.211
491.245
491.282
491.323
491.366
491.412
491.46
491.51
491.562
491.614
491.666
491.719
491.77
491.821
491.87
491.916
491.96
492.001
492.039
492.072
492.102
492.127
492.148
492.164