/*--------------------------------*- C++ -*----------------------------------*\
| =========                 |                                                 |
| \\      /  F ield         | OpenFOAM: The Open Source CFD Toolbox           |
|  \\    /   O peration     | Version:  2312                                  |
|   \\  /    A nd           | Website:  www.openfoam.com                      |
|    \\/     M anipulation  |                                                 |
\*---------------------------------------------------------------------------*/
FoamFile
{
    version     2.0;
    format      ascii;
    arch        "LSB;label=32;scalar=64";
    class       surfaceScalarField;
    location    "100";
    object      phi;
}
// * * * * * * * * * * * * * * * * * * * * * * * * * * * * * * * * * * * * * //

dimensions      [0 3 -1 0 0 0 0];

oriented        oriented;

internalField   nonuniform List<scalar> 
24170
(
3.11513e-06
7.32779e-08
3.01302e-06
1.02111e-07
2.91759e-06
9.54199e-08
2.82647e-06
9.11125e-08
2.74055e-06
8.59198e-08
2.66313e-06
7.74161e-08
2.59535e-06
6.77747e-08
2.53658e-06
5.8767e-08
2.48571e-06
5.08701e-08
2.44165e-06
4.4056e-08
2.40345e-06
3.81977e-08
2.3703e-06
3.31442e-08
2.34155e-06
2.87444e-08
2.31668e-06
2.48647e-08
2.29543e-06
2.12534e-08
2.27736e-06
1.80636e-08
2.2625e-06
1.48639e-08
1.12454e-08
2.25125e-06
3.46866e-06
2.18656e-08
3.48679e-06
8.39845e-08
3.49347e-06
8.87316e-08
3.49238e-06
9.2209e-08
3.48442e-06
9.38739e-08
3.47086e-06
9.09728e-08
3.453e-06
8.5635e-08
3.43204e-06
7.97201e-08
3.4091e-06
7.38112e-08
3.38509e-06
6.80615e-08
3.36072e-06
6.25626e-08
3.3365e-06
5.73587e-08
3.31282e-06
5.24261e-08
3.28994e-06
4.77399e-08
3.26808e-06
4.31172e-08
3.24746e-06
3.86742e-08
3.22881e-06
3.35167e-08
2.67481e-08
3.2133e-06
3.66802e-06
1.63666e-08
3.68033e-06
7.16719e-08
3.69005e-06
7.90075e-08
3.7001e-06
8.21549e-08
3.70925e-06
8.47199e-08
3.71639e-06
8.38286e-08
3.72141e-06
8.06072e-08
3.72453e-06
7.66001e-08
3.72598e-06
7.23604e-08
3.72601e-06
6.80262e-08
3.72488e-06
6.36866e-08
3.72283e-06
5.94051e-08
3.72007e-06
5.51866e-08
3.7168e-06
5.10076e-08
3.71317e-06
4.6744e-08
3.70954e-06
4.23069e-08
3.7059e-06
3.71458e-08
3.06546e-08
3.702e-06
3.92496e-06
1.67985e-08
3.93558e-06
6.10453e-08
3.94317e-06
7.14191e-08
3.95023e-06
7.50941e-08
3.95696e-06
7.79886e-08
3.96281e-06
7.79772e-08
3.96784e-06
7.55755e-08
3.97225e-06
7.21904e-08
3.97613e-06
6.84759e-08
3.97954e-06
6.46101e-08
3.98255e-06
6.06792e-08
3.98521e-06
5.67441e-08
3.98758e-06
5.28123e-08
3.98973e-06
4.88524e-08
3.99172e-06
4.47577e-08
3.99362e-06
4.03981e-08
3.99529e-06
3.54815e-08
2.96599e-08
3.99628e-06
4.20773e-06
1.61978e-08
4.21611e-06
5.26576e-08
4.22231e-06
6.52162e-08
4.22784e-06
6.95672e-08
4.23333e-06
7.24921e-08
4.23842e-06
7.28845e-08
4.24302e-06
7.09726e-08
4.24723e-06
6.79779e-08
4.25112e-06
6.45816e-08
4.25474e-06
6.09878e-08
4.25814e-06
5.72842e-08
4.26135e-06
5.35309e-08
4.26442e-06
4.9741e-08
4.26738e-06
4.5885e-08
4.27026e-06
4.18772e-08
4.27305e-06
3.76089e-08
4.27561e-06
3.29179e-08
2.76366e-08
4.27763e-06
4.51043e-06
1.4857e-08
4.51715e-06
4.59307e-08
4.52289e-06
5.94764e-08
4.52807e-06
6.43912e-08
4.53326e-06
6.73004e-08
4.53818e-06
6.79602e-08
4.54269e-06
6.64659e-08
4.54683e-06
6.38339e-08
4.55068e-06
6.07237e-08
4.55431e-06
5.73612e-08
4.55775e-06
5.38435e-08
4.56104e-06
5.02347e-08
4.56422e-06
4.65569e-08
4.56732e-06
4.2789e-08
4.57032e-06
3.88711e-08
4.57321e-06
3.47263e-08
4.57585e-06
3.02734e-08
2.54585e-08
4.57803e-06
4.83415e-06
1.3423e-08
4.83994e-06
4.01445e-08
4.84561e-06
5.38042e-08
4.85077e-06
5.9226e-08
4.85589e-06
6.21814e-08
4.86078e-06
6.30615e-08
4.86531e-06
6.19381e-08
4.86949e-06
5.96462e-08
4.87341e-06
5.68064e-08
4.8771e-06
5.36626e-08
4.88062e-06
5.03232e-08
4.884e-06
4.68579e-08
4.88725e-06
4.32987e-08
4.8904e-06
3.96367e-08
4.89344e-06
3.58374e-08
4.8963e-06
3.18565e-08
4.89891e-06
2.76691e-08
2.32876e-08
4.90108e-06
5.18096e-06
1.20407e-08
5.18609e-06
3.50205e-08
5.19165e-06
4.82393e-08
5.19683e-06
5.40447e-08
5.20194e-06
5.70637e-08
5.20689e-06
5.8112e-08
5.21152e-06
5.73098e-08
5.21583e-06
5.53346e-08
5.21988e-06
5.27571e-08
5.22371e-06
4.98317e-08
5.22735e-06
4.66774e-08
5.23084e-06
4.33691e-08
5.23419e-06
3.99487e-08
5.2374e-06
3.64214e-08
5.24046e-06
3.27759e-08
5.24332e-06
2.89966e-08
5.24589e-06
2.50944e-08
2.11108e-08
5.24807e-06
5.55268e-06
1.0695e-08
5.55724e-06
3.04632e-08
5.56259e-06
4.28844e-08
5.56776e-06
4.8874e-08
5.57289e-06
5.19264e-08
5.57792e-06
5.30841e-08
5.58267e-06
5.25496e-08
5.58714e-06
5.08657e-08
5.59135e-06
4.85422e-08
5.59535e-06
4.58376e-08
5.59914e-06
4.28787e-08
5.60276e-06
3.97453e-08
5.60622e-06
3.6488e-08
5.60952e-06
3.31264e-08
5.61262e-06
2.96686e-08
5.6155e-06
2.61219e-08
5.61807e-06
2.25169e-08
1.89075e-08
5.62027e-06
5.95108e-06
9.39218e-09
5.95514e-06
2.63964e-08
5.96024e-06
3.77915e-08
5.96536e-06
4.37492e-08
5.9705e-06
4.67847e-08
5.97558e-06
4.79975e-08
5.98046e-06
4.76726e-08
5.98508e-06
4.62468e-08
5.98945e-06
4.4163e-08
5.99361e-06
4.16772e-08
5.99757e-06
3.89214e-08
6.00133e-06
3.59793e-08
6.00491e-06
3.29082e-08
6.0083e-06
2.97408e-08
6.01146e-06
2.64998e-08
6.01437e-06
2.32088e-08
6.01698e-06
1.99079e-08
1.66542e-08
6.01923e-06
6.37805e-06
8.15307e-09
6.38171e-06
2.27357e-08
6.38653e-06
3.29696e-08
6.39158e-06
3.86965e-08
6.3967e-06
4.1657e-08
6.40182e-06
4.28775e-08
6.40679e-06
4.27043e-08
6.41153e-06
4.14978e-08
6.41606e-06
3.9636e-08
6.42037e-06
3.73635e-08
6.42447e-06
3.48153e-08
6.42837e-06
3.20776e-08
6.43207e-06
2.92129e-08
6.43554e-06
2.62628e-08
6.43878e-06
2.32616e-08
6.44175e-06
2.02418e-08
6.4444e-06
1.72474e-08
1.43319e-08
6.44673e-06
5.74183e-06
7.15763e-09
5.74465e-06
1.99124e-08
5.74851e-06
2.91046e-08
5.75271e-06
3.44986e-08
5.75702e-06
3.73462e-08
5.76135e-06
3.8542e-08
5.7656e-06
3.84542e-08
5.76969e-06
3.74019e-08
5.77361e-06
3.57127e-08
5.77736e-06
3.36156e-08
5.78093e-06
3.12447e-08
5.78432e-06
2.8688e-08
5.78752e-06
2.6009e-08
5.79052e-06
2.32573e-08
5.79331e-06
2.04704e-08
5.79586e-06
1.76875e-08
5.79816e-06
1.49499e-08
1.23097e-08
5.80018e-06
6.99922e-06
6.09083e-09
7.00222e-06
1.69109e-08
7.00642e-06
2.49075e-08
7.0111e-06
2.98079e-08
7.016e-06
3.24518e-08
7.02096e-06
3.35751e-08
7.02587e-06
3.35432e-08
7.03063e-06
3.26348e-08
7.03522e-06
3.11251e-08
7.03961e-06
2.92218e-08
7.0438e-06
2.70555e-08
7.04777e-06
2.47125e-08
7.05152e-06
2.22589e-08
7.05503e-06
1.97451e-08
7.05828e-06
1.72149e-08
7.06126e-06
1.47065e-08
7.06395e-06
1.22613e-08
9.92128e-09
7.06634e-06
8.53198e-06
4.96084e-09
8.53512e-06
1.37605e-08
8.53962e-06
2.04098e-08
8.54479e-06
2.46361e-08
8.55028e-06
2.69604e-08
8.5559e-06
2.79444e-08
8.56152e-06
2.79244e-08
8.56702e-06
2.71376e-08
8.57233e-06
2.58084e-08
8.57743e-06
2.41154e-08
8.58231e-06
2.21817e-08
8.58693e-06
2.00888e-08
8.59128e-06
1.79017e-08
8.59535e-06
1.56705e-08
8.59913e-06
1.34393e-08
8.60259e-06
1.12454e-08
8.60572e-06
9.12441e-09
7.11193e-09
8.60853e-06
1.04004e-05
3.77974e-09
1.04037e-05
1.04847e-08
1.04084e-05
1.56393e-08
1.04141e-05
1.90018e-08
1.04202e-05
2.08658e-08
1.04265e-05
2.16253e-08
1.04328e-05
2.15568e-08
1.04391e-05
2.0858e-08
1.04452e-05
1.97005e-08
1.04511e-05
1.82318e-08
1.04567e-05
1.6556e-08
1.04621e-05
1.47513e-08
1.04671e-05
1.28723e-08
1.04718e-05
1.09692e-08
1.04761e-05
9.07906e-09
1.04802e-05
7.23841e-09
1.04838e-05
5.47371e-09
3.81364e-09
1.04871e-05
1.2678e-05
2.55519e-09
1.26814e-05
7.08567e-09
1.26864e-05
1.06037e-08
1.26925e-05
1.29118e-08
1.26992e-05
1.41578e-08
1.27063e-05
1.45857e-08
1.27134e-05
1.4397e-08
1.27205e-05
1.3739e-08
1.27275e-05
1.27374e-08
1.27342e-05
1.1498e-08
1.27407e-05
1.01059e-08
1.27468e-05
8.62141e-09
1.27526e-05
7.09372e-09
1.2758e-05
5.55953e-09
1.2763e-05
4.05346e-09
1.27676e-05
2.60058e-09
1.27719e-05
1.22492e-09
-5.83372e-11
1.27758e-05
1.54545e-05
1.28073e-09
1.5458e-05
3.52532e-09
1.54634e-05
5.25624e-09
1.54699e-05
6.32187e-09
1.54773e-05
6.78018e-09
1.54851e-05
6.75598e-09
1.54932e-05
6.36418e-09
1.55012e-05
5.69486e-09
1.55091e-05
4.82394e-09
1.55168e-05
3.81674e-09
1.55242e-05
2.72689e-09
1.55312e-05
1.59605e-09
1.55378e-05
4.56235e-10
1.55441e-05
-6.66619e-10
1.55499e-05
-1.75084e-09
1.55552e-05
-2.77837e-09
1.55602e-05
-3.73508e-09
-4.61182e-09
1.55647e-05
1.8839e-05
-8.07678e-11
1.88428e-05
-3.1172e-10
1.88487e-05
-5.66937e-10
1.88559e-05
-9.48706e-10
1.88641e-05
-1.45355e-09
1.8873e-05
-2.05598e-09
1.88821e-05
-2.73315e-09
1.88912e-05
-3.46278e-09
1.89003e-05
-4.22257e-09
1.89091e-05
-4.99245e-09
1.89175e-05
-5.756e-09
1.89256e-05
-6.49885e-09
1.89333e-05
-7.20946e-09
1.89405e-05
-7.87807e-09
1.89472e-05
-8.49682e-09
1.89535e-05
-9.05878e-09
1.89593e-05
-9.55865e-09
-9.99473e-09
1.89647e-05
2.29649e-05
-1.62754e-09
2.29693e-05
-4.70804e-09
2.2976e-05
-7.28452e-09
2.29844e-05
-9.38389e-09
2.2994e-05
-1.10358e-08
2.30043e-05
-1.23313e-08
2.30149e-05
-1.33584e-08
2.30256e-05
-1.41742e-08
2.30362e-05
-1.48124e-08
2.30465e-05
-1.53105e-08
2.30564e-05
-1.5696e-08
2.30659e-05
-1.59929e-08
2.30749e-05
-1.62121e-08
2.30834e-05
-1.63657e-08
2.30914e-05
-1.64585e-08
2.30988e-05
-1.64991e-08
2.31057e-05
-1.64892e-08
-1.64364e-08
2.31122e-05
1.68119e-05
-2.82047e-09
1.68153e-05
-8.07361e-09
1.68204e-05
-1.24444e-08
1.68269e-05
-1.58242e-08
1.68341e-05
-1.82711e-08
1.68418e-05
-2.00177e-08
1.68497e-05
-2.12631e-08
1.68576e-05
-2.2103e-08
1.68654e-05
-2.26201e-08
1.6873e-05
-2.28867e-08
1.68803e-05
-2.29744e-08
1.68872e-05
-2.2924e-08
1.68937e-05
-2.27733e-08
1.68999e-05
-2.25409e-08
1.69057e-05
-2.22503e-08
1.69111e-05
-2.19103e-08
1.69162e-05
-2.15349e-08
-2.11286e-08
1.69208e-05
1.46357e-05
-3.94305e-09
1.46389e-05
-1.12946e-08
1.46439e-05
-1.74231e-08
1.465e-05
-2.19432e-08
1.46567e-05
-2.5009e-08
1.46638e-05
-2.70964e-08
1.4671e-05
-2.84793e-08
1.46782e-05
-2.92818e-08
1.46852e-05
-2.96267e-08
1.4692e-05
-2.96472e-08
1.46984e-05
-2.94353e-08
1.47046e-05
-2.90573e-08
1.47103e-05
-2.85578e-08
1.47158e-05
-2.79752e-08
1.47209e-05
-2.73354e-08
1.47256e-05
-2.66599e-08
1.473e-05
-2.59605e-08
-2.52503e-08
1.47341e-05
1.27411e-05
-4.95709e-09
1.27443e-05
-1.4497e-08
1.27494e-05
-2.24798e-08
1.27554e-05
-2.79122e-08
1.27617e-05
-3.13771e-08
1.27684e-05
-3.37217e-08
1.27751e-05
-3.51919e-08
1.27817e-05
-3.5888e-08
1.27881e-05
-3.60117e-08
1.27942e-05
-3.57535e-08
1.28e-05
-3.52322e-08
1.28054e-05
-3.45255e-08
1.28106e-05
-3.36906e-08
1.28154e-05
-3.27771e-08
1.28198e-05
-3.18156e-08
1.2824e-05
-3.08329e-08
1.28279e-05
-2.98396e-08
-2.88489e-08
1.28315e-05
1.10917e-05
-5.72907e-09
1.10949e-05
-1.7726e-08
1.11003e-05
-2.7825e-08
1.11062e-05
-3.38255e-08
1.11122e-05
-3.74374e-08
1.11185e-05
-3.99539e-08
1.11247e-05
-4.14356e-08
1.11308e-05
-4.19667e-08
1.11366e-05
-4.18424e-08
1.11422e-05
-4.12991e-08
1.11474e-05
-4.04672e-08
1.11523e-05
-3.94343e-08
1.11569e-05
-3.82763e-08
1.11612e-05
-3.70469e-08
1.11651e-05
-3.57892e-08
1.11688e-05
-3.45249e-08
1.11723e-05
-3.32758e-08
-3.20511e-08
1.11755e-05
9.65563e-06
-6.1456e-09
9.659e-06
-2.10951e-08
9.66454e-06
-3.33706e-08
9.67027e-06
-3.95539e-08
9.6761e-06
-4.32726e-08
9.68206e-06
-4.5915e-08
9.68789e-06
-4.72724e-08
9.69347e-06
-4.75439e-08
9.69877e-06
-4.71425e-08
9.70378e-06
-4.6315e-08
9.70849e-06
-4.51825e-08
9.7129e-06
-4.38425e-08
9.71701e-06
-4.23808e-08
9.72082e-06
-4.08637e-08
9.72436e-06
-3.93322e-08
9.72765e-06
-3.78146e-08
9.73069e-06
-3.63228e-08
-3.48531e-08
9.7335e-06
8.40493e-06
-5.72874e-09
8.40928e-06
-2.54432e-08
8.41465e-06
-3.87458e-08
8.4197e-06
-4.46062e-08
8.4252e-06
-4.87743e-08
8.43098e-06
-5.16965e-08
8.4366e-06
-5.28977e-08
8.44192e-06
-5.2867e-08
8.44694e-06
-5.21584e-08
8.45164e-06
-5.10208e-08
8.45603e-06
-4.95704e-08
8.4601e-06
-4.79163e-08
8.46387e-06
-4.61543e-08
8.46736e-06
-4.43558e-08
8.47059e-06
-4.25648e-08
8.47359e-06
-4.08114e-08
8.47639e-06
-3.91188e-08
-3.75007e-08
8.47903e-06
7.31364e-06
-2.08312e-09
7.32067e-06
-3.24783e-08
7.32643e-06
-4.45106e-08
7.33119e-06
-4.93649e-08
7.3365e-06
-5.40914e-08
7.34209e-06
-5.72864e-08
7.34754e-06
-5.83503e-08
7.35276e-06
-5.80856e-08
7.35771e-06
-5.7118e-08
7.36237e-06
-5.56797e-08
7.3667e-06
-5.39059e-08
7.37071e-06
-5.19235e-08
7.3744e-06
-4.98493e-08
7.3778e-06
-4.77563e-08
7.38093e-06
-4.56943e-08
7.38381e-06
-4.36942e-08
7.38646e-06
-4.17662e-08
-3.98618e-08
7.38882e-06
6.36046e-06
7.52082e-09
6.37027e-06
-4.2285e-08
6.37812e-06
-5.23631e-08
6.38513e-06
-5.63851e-08
6.3922e-06
-6.11604e-08
6.39875e-06
-6.38382e-08
6.40466e-06
-6.42684e-08
6.41013e-06
-6.35545e-08
6.41524e-06
-6.2231e-08
6.41999e-06
-6.04335e-08
6.42437e-06
-5.82847e-08
6.42838e-06
-5.59309e-08
6.43202e-06
-5.34976e-08
6.43533e-06
-5.10621e-08
6.43831e-06
-4.86814e-08
6.44101e-06
-4.63974e-08
6.44348e-06
-4.42422e-08
-4.22409e-08
6.44587e-06
5.53916e-06
1.38199e-08
5.5475e-06
-5.06198e-08
5.55581e-06
-6.06793e-08
5.56603e-06
-6.66046e-08
5.57718e-06
-7.23189e-08
5.58763e-06
-7.4285e-08
5.59678e-06
-7.34293e-08
5.60467e-06
-7.14492e-08
5.61137e-06
-6.89303e-08
5.61695e-06
-6.60114e-08
5.62148e-06
-6.28168e-08
5.62505e-06
-5.95025e-08
5.62775e-06
-5.62036e-08
5.62968e-06
-5.29935e-08
5.63092e-06
-4.99237e-08
5.63158e-06
-4.7064e-08
5.63176e-06
-4.44224e-08
-4.20972e-08
5.63162e-06
4.87157e-06
-3.01459e-08
4.88647e-06
-6.55186e-08
4.89719e-06
-7.14062e-08
4.90594e-06
-7.53594e-08
4.91296e-06
-7.93356e-08
4.91719e-06
-7.85271e-08
4.91797e-06
-7.42146e-08
4.91518e-06
-6.86594e-08
4.90913e-06
-6.2878e-08
4.90032e-06
-5.72106e-08
4.88933e-06
-5.18299e-08
4.87666e-06
-4.68359e-08
4.86277e-06
-4.23089e-08
4.84801e-06
-3.82407e-08
4.8327e-06
-3.46173e-08
4.81709e-06
-3.1461e-08
4.80146e-06
-2.87872e-08
-2.70947e-08
4.78646e-06
4.17253e-06
4.10701e-06
4.0356e-06
3.96025e-06
3.88091e-06
3.80238e-06
3.72817e-06
3.65951e-06
3.59663e-06
3.53942e-06
3.48759e-06
3.44075e-06
3.39844e-06
3.3602e-06
3.32558e-06
3.29412e-06
3.26533e-06
3.23824e-06
1.46466e-08
-1.47904e-08
4.06905e-08
-2.62107e-08
6.76836e-08
-2.71659e-08
9.15401e-08
-2.39787e-08
1.10051e-07
-1.86658e-08
1.22324e-07
-1.23864e-08
1.2791e-07
-5.74473e-09
1.26877e-07
9.18883e-10
1.19483e-07
7.22814e-09
1.06586e-07
1.27795e-08
8.8997e-08
1.74151e-08
6.77456e-08
2.1129e-08
4.35307e-08
2.40278e-08
1.71018e-08
2.62957e-08
-1.12139e-08
2.81139e-08
-4.14372e-08
3.00935e-08
-7.40861e-08
3.24646e-08
-1.09113e-07
3.4919e-08
-1.46852e-07
3.7582e-08
-1.87403e-07
4.04651e-08
-2.31056e-07
4.35141e-08
-2.77767e-07
4.6642e-08
-3.27643e-07
4.97558e-08
-3.80477e-07
5.27768e-08
-4.36205e-07
5.56148e-08
-4.94442e-07
5.81806e-08
-5.54958e-07
6.03988e-08
-6.17235e-07
6.22182e-08
-6.80946e-07
6.35961e-08
-7.4552e-07
6.45107e-08
-8.10595e-07
6.49574e-08
-8.75625e-07
6.49621e-08
-9.403e-07
6.45605e-08
-1.00418e-06
6.38065e-08
-1.06705e-06
6.27524e-08
-1.12858e-06
6.146e-08
-1.18867e-06
5.99815e-08
-1.24712e-06
5.83747e-08
-1.3039e-06
5.66836e-08
-1.35892e-06
5.4955e-08
-1.41222e-06
5.32187e-08
-1.46379e-06
5.15072e-08
-1.5137e-06
4.9837e-08
-1.56199e-06
4.82283e-08
-1.60875e-06
4.66872e-08
-1.65403e-06
4.52249e-08
-1.69794e-06
4.38406e-08
-1.74054e-06
4.25399e-08
-1.78193e-06
4.13179e-08
-1.82216e-06
4.01757e-08
-1.86133e-06
3.9105e-08
-1.8995e-06
3.81049e-08
-1.93675e-06
3.7167e-08
-1.97311e-06
3.62899e-08
-2.00866e-06
3.54655e-08
-2.04344e-06
3.46926e-08
-2.0775e-06
3.39648e-08
-2.11088e-06
3.32817e-08
-2.14362e-06
3.26375e-08
-2.17576e-06
3.20319e-08
-2.20732e-06
3.1461e-08
-2.23837e-06
3.09252e-08
-2.26889e-06
3.04219e-08
-2.29896e-06
2.99509e-08
-2.32857e-06
2.95116e-08
-2.35779e-06
2.91037e-08
-2.38662e-06
2.87286e-08
-2.41512e-06
2.83852e-08
-2.44328e-06
2.80773e-08
-2.4712e-06
2.78024e-08
-2.49883e-06
2.7567e-08
-2.52631e-06
2.73661e-08
-2.55358e-06
2.72075e-08
-2.58078e-06
2.70822e-08
-2.60785e-06
2.69998e-08
-2.63493e-06
2.69483e-08
-2.66196e-06
2.6938e-08
-2.68906e-06
2.6957e-08
-2.71616e-06
2.70139e-08
-2.74339e-06
2.70867e-08
-2.77066e-06
2.71852e-08
-2.79809e-06
2.7286e-08
-2.82554e-06
2.73941e-08
-2.85319e-06
2.75088e-08
-2.88095e-06
2.76993e-08
-2.90893e-06
2.7864e-08
-2.93688e-06
2.79312e-08
-2.9649e-06
2.80036e-08
-2.99293e-06
2.81238e-08
-3.02092e-06
2.81656e-08
-3.04887e-06
2.80987e-08
-3.07669e-06
2.79338e-08
-3.10425e-06
2.76403e-08
-3.13137e-06
2.72024e-08
-3.15792e-06
2.66113e-08
-3.18371e-06
2.58518e-08
-3.20857e-06
2.4891e-08
-3.23226e-06
2.3708e-08
-3.2545e-06
2.22241e-08
-3.27466e-06
2.01214e-08
-3.29258e-06
1.78147e-08
-3.30871e-06
1.59574e-08
-3.32207e-06
1.31252e-08
-3.33214e-06
9.74275e-09
-3.33882e-06
6.33973e-09
-3.34166e-06
2.4477e-09
-3.34069e-06
-1.31999e-09
-3.3363e-06
-4.7512e-09
-3.3281e-06
-8.49109e-09
-3.31574e-06
-1.26626e-08
-3.2992e-06
-1.67616e-08
-3.27831e-06
-2.11234e-08
-3.25301e-06
-2.54512e-08
-3.22288e-06
-3.02936e-08
-3.18761e-06
-3.53465e-08
-3.14765e-06
-4.00534e-08
-3.10243e-06
-4.52397e-08
-3.05168e-06
-5.07585e-08
-2.99551e-06
-5.60925e-08
-2.93401e-06
-6.14514e-08
-2.8672e-06
-6.67958e-08
-2.79495e-06
-7.23187e-08
-2.71726e-06
-7.77683e-08
-2.63419e-06
-8.31459e-08
-2.5458e-06
-8.83612e-08
-2.45231e-06
-9.34291e-08
-2.35384e-06
-9.82829e-08
-2.2507e-06
-1.02927e-07
-2.14311e-06
-1.07296e-07
-2.03141e-06
-1.11387e-07
-1.91589e-06
-1.15142e-07
-1.79696e-06
-1.18554e-07
-1.67497e-06
-1.21581e-07
-1.55035e-06
-1.24216e-07
-1.4235e-06
-1.26429e-07
-1.29488e-06
-1.2822e-07
-1.1649e-06
-1.29585e-07
-1.03401e-06
-1.30535e-07
-9.02605e-07
-1.31083e-07
-7.711e-07
-1.31246e-07
-6.39828e-07
-1.31059e-07
-5.09223e-07
-1.30463e-07
-3.7966e-07
-1.29468e-07
-2.51068e-07
-1.28557e-07
-1.22837e-07
-1.28231e-07
6.07131e-09
-1.28951e-07
1.3475e-07
-1.28735e-07
2.60674e-07
-1.26003e-07
3.82768e-07
-1.22175e-07
5.00559e-07
-1.17882e-07
6.13835e-07
-1.13363e-07
7.22483e-07
-1.08738e-07
8.26471e-07
-1.04073e-07
9.25811e-07
-9.94243e-08
1.02058e-06
-9.48484e-08
1.11086e-06
-9.03523e-08
1.19674e-06
-8.59506e-08
1.27837e-06
-8.16894e-08
1.3559e-06
-7.75841e-08
1.42945e-06
-7.36031e-08
1.49916e-06
-6.97562e-08
1.56518e-06
-6.60529e-08
1.62765e-06
-6.25123e-08
1.68675e-06
-5.91249e-08
1.7426e-06
-5.58723e-08
1.79532e-06
-5.2743e-08
1.84505e-06
-4.97396e-08
1.89188e-06
-4.68448e-08
1.93591e-06
-4.40404e-08
1.9772e-06
-4.13007e-08
2.01578e-06
-3.85869e-08
2.0516e-06
-3.58277e-08
2.08451e-06
-3.29206e-08
2.1142e-06
-2.96925e-08
2.13999e-06
-2.58112e-08
2.16064e-06
-2.06619e-08
2.17258e-06
-1.19681e-08
2.16687e-06
5.68125e-09
2.12205e-06
4.48008e-08
1.12087e-07
2.00995e-06
2.74359e-08
-4.23252e-08
4.65392e-08
-4.54049e-08
5.71341e-08
-3.78301e-08
6.19951e-08
-2.88898e-08
6.2432e-08
-1.91567e-08
5.89669e-08
-8.96604e-09
5.18243e-08
1.34448e-09
4.11868e-08
1.15115e-08
2.70479e-08
2.13125e-08
9.25556e-09
3.05254e-08
-1.23512e-08
3.89663e-08
-3.78225e-08
4.6554e-08
-6.71802e-08
5.33324e-08
-1.0038e-07
5.94511e-08
-1.37451e-07
6.51352e-08
-1.78037e-07
7.06378e-08
-2.2176e-07
7.61393e-08
-2.68589e-07
8.17098e-08
-3.18422e-07
8.73693e-08
-3.71062e-07
9.30706e-08
-4.26302e-07
9.87112e-08
-4.83847e-07
1.04155e-07
-5.43387e-07
1.09255e-07
-6.04513e-07
1.13873e-07
-6.6682e-07
1.1788e-07
-7.29848e-07
1.21176e-07
-7.93183e-07
1.23689e-07
-8.56386e-07
1.25388e-07
-9.19104e-07
1.26267e-07
-9.80975e-07
1.26346e-07
-1.04174e-06
1.25678e-07
-1.10117e-06
1.24345e-07
-1.1591e-06
1.22442e-07
-1.2154e-06
1.20073e-07
-1.27004e-06
1.17337e-07
-1.32295e-06
1.14331e-07
-1.37416e-06
1.11141e-07
-1.42367e-06
1.07847e-07
-1.47155e-06
1.04515e-07
-1.51783e-06
1.01203e-07
-1.56261e-06
9.79536e-08
-1.60593e-06
9.48031e-08
-1.64791e-06
9.17742e-08
-1.6886e-06
8.88845e-08
-1.72809e-06
8.61425e-08
-1.76645e-06
8.35538e-08
-1.80377e-06
8.11172e-08
-1.84009e-06
7.88308e-08
-1.8755e-06
7.66883e-08
-1.91004e-06
7.46837e-08
-1.94378e-06
7.28077e-08
-1.97677e-06
7.1053e-08
-2.00905e-06
6.94096e-08
-2.04067e-06
6.78701e-08
-2.07168e-06
6.64253e-08
-2.10211e-06
6.50691e-08
-2.13199e-06
6.37937e-08
-2.16136e-06
6.2595e-08
-2.19024e-06
6.14663e-08
-2.21868e-06
6.04048e-08
-2.24668e-06
5.94061e-08
-2.27429e-06
5.8469e-08
-2.30152e-06
5.75905e-08
-2.3284e-06
5.67702e-08
-2.35496e-06
5.60069e-08
-2.38122e-06
5.53017e-08
-2.40721e-06
5.46546e-08
-2.43296e-06
5.40673e-08
-2.45847e-06
5.3541e-08
-2.48381e-06
5.30769e-08
-2.50897e-06
5.26764e-08
-2.534e-06
5.23389e-08
-2.5589e-06
5.20653e-08
-2.58373e-06
5.18526e-08
-2.60848e-06
5.16996e-08
-2.6332e-06
5.16009e-08
-2.65788e-06
5.15563e-08
-2.68255e-06
5.15566e-08
-2.70719e-06
5.15962e-08
-2.73184e-06
5.16613e-08
-2.75646e-06
5.17465e-08
-2.78108e-06
5.18368e-08
-2.80567e-06
5.1928e-08
-2.83024e-06
5.20149e-08
-2.8547e-06
5.21045e-08
-2.87904e-06
5.21429e-08
-2.90321e-06
5.208e-08
-2.92715e-06
5.19306e-08
-2.95067e-06
5.17129e-08
-2.97375e-06
5.13408e-08
-2.99633e-06
5.07672e-08
-3.0183e-06
4.99608e-08
-3.0395e-06
4.8888e-08
-3.05978e-06
4.75286e-08
-3.07899e-06
4.58499e-08
-3.09694e-06
4.38272e-08
-3.11345e-06
4.14119e-08
-3.12832e-06
3.85733e-08
-3.14137e-06
3.52511e-08
-3.15269e-06
3.13982e-08
-3.16213e-06
2.71661e-08
-3.16903e-06
2.27289e-08
-3.1738e-06
1.77019e-08
-3.17637e-06
1.20952e-08
-3.17649e-06
6.19371e-09
-3.17425e-06
-3.96938e-11
-3.16909e-06
-6.73199e-09
-3.16029e-06
-1.37698e-08
-3.14778e-06
-2.12172e-08
-3.13143e-06
-2.9187e-08
-3.11084e-06
-3.75278e-08
-3.08585e-06
-4.62432e-08
-3.05614e-06
-5.52836e-08
-3.02168e-06
-6.48308e-08
-2.98235e-06
-7.47567e-08
-2.93764e-06
-8.48019e-08
-2.88772e-06
-9.5184e-08
-2.83257e-06
-1.05891e-07
-2.77195e-06
-1.16674e-07
-2.70577e-06
-1.27585e-07
-2.63402e-06
-1.38555e-07
-2.55677e-06
-1.49618e-07
-2.47399e-06
-1.60615e-07
-2.38571e-06
-1.71474e-07
-2.292e-06
-1.82065e-07
-2.19304e-06
-1.92341e-07
-2.08901e-06
-2.02216e-07
-1.98017e-06
-2.11636e-07
-1.86679e-06
-2.20514e-07
-1.74919e-06
-2.28794e-07
-1.62774e-06
-2.36392e-07
-1.50282e-06
-2.43259e-07
-1.37484e-06
-2.4933e-07
-1.24427e-06
-2.5457e-07
-1.11154e-06
-2.58937e-07
-9.77129e-07
-2.62422e-07
-8.41504e-07
-2.65011e-07
-7.05136e-07
-2.66729e-07
-5.68474e-07
-2.67593e-07
-4.31951e-07
-2.67655e-07
-2.95935e-07
-2.66984e-07
-1.60541e-07
-2.65803e-07
-2.57729e-08
-2.642e-07
1.07729e-07
-2.62056e-07
2.38763e-07
-2.59274e-07
3.65567e-07
-2.55785e-07
4.87762e-07
-2.50964e-07
6.06263e-07
-2.44551e-07
7.21133e-07
-2.37091e-07
8.32204e-07
-2.29008e-07
9.39334e-07
-2.20544e-07
1.04242e-06
-2.11879e-07
1.14141e-06
-2.03117e-07
1.23629e-06
-1.94364e-07
1.32709e-06
-1.85695e-07
1.41385e-06
-1.77161e-07
1.49664e-06
-1.68786e-07
1.57553e-06
-1.60631e-07
1.65063e-06
-1.52718e-07
1.72204e-06
-1.45049e-07
1.78989e-06
-1.37638e-07
1.8543e-06
-1.305e-07
1.91541e-06
-1.23648e-07
1.97334e-06
-1.17077e-07
2.02821e-06
-1.10761e-07
2.08014e-06
-1.04687e-07
2.12923e-06
-9.88458e-08
2.17559e-06
-9.32127e-08
2.21929e-06
-8.77484e-08
2.26039e-06
-8.24087e-08
2.2989e-06
-7.71103e-08
2.33479e-06
-7.17244e-08
2.36791e-06
-6.60481e-08
2.39798e-06
-5.97637e-08
2.42443e-06
-5.22733e-08
2.44627e-06
-4.25245e-08
2.46226e-06
-2.79721e-08
2.47181e-06
-3.89225e-09
2.47358e-06
4.30147e-08
1.32588e-07
2.45307e-06
1.66455e-08
-5.90489e-08
2.27161e-08
-5.15394e-08
2.23297e-08
-3.74906e-08
1.74836e-08
-2.40755e-08
9.20906e-09
-1.09163e-08
-1.94469e-09
2.1605e-09
-1.57614e-08
1.513e-08
-3.21749e-08
2.78991e-08
-5.12467e-08
4.03538e-08
-7.31076e-08
5.23611e-08
-9.79669e-08
6.37962e-08
-1.26019e-07
7.45816e-08
-1.57428e-07
8.47129e-08
-1.92257e-07
9.42563e-08
-2.30474e-07
1.03325e-07
-2.71898e-07
1.12039e-07
-3.1628e-07
1.20494e-07
-3.63321e-07
1.28729e-07
-4.12705e-07
1.36727e-07
-4.64071e-07
1.44415e-07
-5.1706e-07
1.51675e-07
-5.71291e-07
1.58365e-07
-6.26403e-07
1.64341e-07
-6.82023e-07
1.69472e-07
-7.37822e-07
1.73653e-07
-7.93479e-07
1.7681e-07
-8.48728e-07
1.7891e-07
-9.03311e-07
1.79948e-07
-9.57036e-07
1.79963e-07
-1.00975e-06
1.79032e-07
-1.06135e-06
1.77255e-07
-1.11178e-06
1.74745e-07
-1.16099e-06
1.71622e-07
-1.20895e-06
1.68007e-07
-1.25566e-06
1.64018e-07
-1.30111e-06
1.59764e-07
-1.34534e-06
1.55343e-07
-1.38836e-06
1.5084e-07
-1.4302e-06
1.4633e-07
-1.4709e-06
1.41872e-07
-1.51048e-06
1.37516e-07
-1.549e-06
1.33297e-07
-1.58649e-06
1.29241e-07
-1.62299e-06
1.25367e-07
-1.65856e-06
1.21685e-07
-1.69323e-06
1.182e-07
-1.72704e-06
1.1491e-07
-1.76005e-06
1.11812e-07
-1.79228e-06
1.089e-07
-1.82379e-06
1.06166e-07
-1.8546e-06
1.03599e-07
-1.88476e-06
1.01189e-07
-1.91431e-06
9.89261e-08
-1.94327e-06
9.67996e-08
-1.97167e-06
9.47995e-08
-1.99955e-06
9.29167e-08
-2.02693e-06
9.11429e-08
-2.05385e-06
8.94709e-08
-2.08031e-06
8.78942e-08
-2.10635e-06
8.64077e-08
-2.13199e-06
8.50069e-08
-2.15725e-06
8.36892e-08
-2.18216e-06
8.24519e-08
-2.20672e-06
8.12939e-08
-2.23097e-06
8.02146e-08
-2.25492e-06
7.92143e-08
-2.2786e-06
7.82938e-08
-2.30203e-06
7.74547e-08
-2.32523e-06
7.66985e-08
-2.34821e-06
7.60263e-08
-2.37101e-06
7.54391e-08
-2.39364e-06
7.49369e-08
-2.41613e-06
7.45189e-08
-2.4385e-06
7.41822e-08
-2.46076e-06
7.39234e-08
-2.48293e-06
7.37372e-08
-2.50503e-06
7.36175e-08
-2.52707e-06
7.35551e-08
-2.54905e-06
7.35386e-08
-2.57099e-06
7.35538e-08
-2.59287e-06
7.35877e-08
-2.6147e-06
7.36241e-08
-2.63646e-06
7.3649e-08
-2.65813e-06
7.36476e-08
-2.67967e-06
7.36055e-08
-2.70104e-06
7.34845e-08
-2.72223e-06
7.32391e-08
-2.74315e-06
7.28474e-08
-2.7637e-06
7.22895e-08
-2.78381e-06
7.15158e-08
-2.80345e-06
7.0456e-08
-2.82252e-06
6.90634e-08
-2.84091e-06
6.7302e-08
-2.8585e-06
6.51263e-08
-2.87514e-06
6.25056e-08
-2.89071e-06
5.9392e-08
-2.90504e-06
5.57486e-08
-2.91802e-06
5.15279e-08
-2.9295e-06
4.67005e-08
-2.9394e-06
4.12424e-08
-2.94751e-06
3.51981e-08
-2.95351e-06
2.86159e-08
-2.95736e-06
2.13908e-08
-2.95891e-06
1.3459e-08
-2.95786e-06
4.94293e-09
-2.95393e-06
-4.15285e-09
-2.94685e-06
-1.4e-08
-2.93628e-06
-2.44892e-08
-2.92205e-06
-3.56027e-08
-2.90395e-06
-4.74138e-08
-2.88171e-06
-5.9885e-08
-2.8551e-06
-7.29424e-08
-2.8239e-06
-8.65748e-08
-2.78795e-06
-1.0083e-07
-2.74712e-06
-1.15648e-07
-2.70111e-06
-1.30829e-07
-2.64992e-06
-1.46393e-07
-2.59344e-06
-1.62344e-07
-2.53154e-06
-1.78546e-07
-2.46413e-06
-1.94976e-07
-2.39118e-06
-2.11516e-07
-2.31273e-06
-2.28108e-07
-2.22878e-06
-2.44619e-07
-2.13936e-06
-2.60917e-07
-2.04458e-06
-2.7685e-07
-1.94458e-06
-2.92299e-07
-1.83958e-06
-3.07153e-07
-1.72982e-06
-3.21293e-07
-1.61561e-06
-3.34608e-07
-1.49729e-06
-3.46985e-07
-1.37522e-06
-3.58315e-07
-1.24982e-06
-3.68503e-07
-1.12154e-06
-3.77465e-07
-9.90821e-07
-3.85133e-07
-8.58153e-07
-3.91457e-07
-7.24015e-07
-3.96415e-07
-5.88898e-07
-3.99997e-07
-4.53271e-07
-4.02236e-07
-3.17597e-07
-4.03169e-07
-1.82243e-07
-4.02922e-07
-4.75291e-08
-4.01631e-07
8.60259e-08
-3.99298e-07
2.17672e-07
-3.95804e-07
3.46742e-07
-3.91088e-07
4.72665e-07
-3.85173e-07
5.94876e-07
-3.77974e-07
7.13206e-07
-3.69282e-07
8.2783e-07
-3.59162e-07
9.3872e-07
-3.47976e-07
1.04578e-06
-3.36061e-07
1.14892e-06
-3.23678e-07
1.24807e-06
-3.11025e-07
1.3432e-06
-2.98253e-07
1.43433e-06
-2.8549e-07
1.52148e-06
-2.72841e-07
1.6047e-06
-2.60378e-07
1.68406e-06
-2.48151e-07
1.75965e-06
-2.36219e-07
1.83157e-06
-2.24638e-07
1.89996e-06
-2.13429e-07
1.96492e-06
-2.02605e-07
2.0266e-06
-1.92172e-07
2.08511e-06
-1.82148e-07
2.14056e-06
-1.72527e-07
2.19309e-06
-1.63287e-07
2.24282e-06
-1.54405e-07
2.28984e-06
-1.45862e-07
2.33426e-06
-1.37619e-07
2.37614e-06
-1.29628e-07
2.41556e-06
-1.21818e-07
2.45252e-06
-1.1407e-07
2.48701e-06
-1.06197e-07
2.51888e-06
-9.79215e-08
2.54793e-06
-8.87996e-08
2.57371e-06
-7.80609e-08
2.59557e-06
-6.43828e-08
2.61265e-06
-4.50528e-08
2.62429e-06
-1.55328e-08
2.63232e-06
3.49844e-08
1.2484e-07
2.64007e-06
2.19277e-09
-6.13105e-08
-3.76893e-09
-4.56286e-08
-1.27584e-08
-2.85374e-08
-2.42473e-08
-1.26112e-08
-3.79366e-08
2.74779e-09
-5.36526e-08
1.78572e-08
-7.13615e-08
3.28162e-08
-9.10956e-08
4.76154e-08
-1.12955e-07
6.21919e-08
-1.37066e-07
7.64553e-08
-1.63601e-07
9.03095e-08
-1.92711e-07
1.03675e-07
-2.24521e-07
1.16503e-07
-2.59065e-07
1.28784e-07
-2.96291e-07
1.4053e-07
-3.36033e-07
1.51765e-07
-3.78056e-07
1.62497e-07
-4.22049e-07
1.72707e-07
-4.6768e-07
1.82339e-07
-5.14584e-07
1.91303e-07
-5.62417e-07
1.99488e-07
-6.10837e-07
2.06769e-07
-6.59547e-07
2.13031e-07
-7.08267e-07
2.18175e-07
-7.56772e-07
2.22136e-07
-8.0486e-07
2.2488e-07
-8.52383e-07
2.2641e-07
-8.99221e-07
2.26767e-07
-9.45304e-07
2.26022e-07
-9.90569e-07
2.24278e-07
-1.03499e-06
2.2165e-07
-1.07853e-06
2.18267e-07
-1.12118e-06
2.14255e-07
-1.16294e-06
2.09743e-07
-1.20379e-06
2.04851e-07
-1.24374e-06
1.99692e-07
-1.28278e-06
1.94367e-07
-1.32093e-06
1.88966e-07
-1.35818e-06
1.83566e-07
-1.39456e-06
1.7823e-07
-1.43007e-06
1.73008e-07
-1.46472e-06
1.6794e-07
-1.49856e-06
1.63054e-07
-1.53158e-06
1.58371e-07
-1.56381e-06
1.53904e-07
-1.59529e-06
1.49658e-07
-1.62603e-06
1.45634e-07
-1.65607e-06
1.41831e-07
-1.68542e-06
1.3824e-07
-1.71413e-06
1.34856e-07
-1.74222e-06
1.31666e-07
-1.76971e-06
1.28661e-07
-1.79664e-06
1.25829e-07
-1.82302e-06
1.23159e-07
-1.84888e-06
1.2064e-07
-1.87425e-06
1.18261e-07
-1.89915e-06
1.16014e-07
-1.9236e-06
1.13889e-07
-1.94761e-06
1.1188e-07
-1.97121e-06
1.0998e-07
-1.99442e-06
1.08185e-07
-2.01725e-06
1.06492e-07
-2.03973e-06
1.04897e-07
-2.06187e-06
1.034e-07
-2.08368e-06
1.02001e-07
-2.1052e-06
1.00699e-07
-2.12643e-06
9.94957e-08
-2.1474e-06
9.83936e-08
-2.16813e-06
9.7394e-08
-2.18863e-06
9.64987e-08
-2.20893e-06
9.57086e-08
-2.22904e-06
9.50237e-08
-2.24899e-06
9.44428e-08
-2.2688e-06
9.39635e-08
-2.28848e-06
9.35806e-08
-2.30806e-06
9.32878e-08
-2.32755e-06
9.30768e-08
-2.34696e-06
9.29359e-08
-2.3663e-06
9.28508e-08
-2.38558e-06
9.28046e-08
-2.4048e-06
9.27793e-08
-2.42396e-06
9.27544e-08
-2.44305e-06
9.2709e-08
-2.46206e-06
9.26201e-08
-2.48094e-06
9.24615e-08
-2.49968e-06
9.21959e-08
-2.51824e-06
9.1777e-08
-2.53656e-06
9.11641e-08
-2.55457e-06
9.03227e-08
-2.57221e-06
8.91859e-08
-2.58943e-06
8.77022e-08
-2.60615e-06
8.58015e-08
-2.62228e-06
8.34345e-08
-2.6377e-06
8.05479e-08
-2.6523e-06
7.70956e-08
-2.66594e-06
7.30234e-08
-2.67849e-06
6.82843e-08
-2.68982e-06
6.28272e-08
-2.69978e-06
5.66153e-08
-2.70822e-06
4.96179e-08
-2.71494e-06
4.18315e-08
-2.71971e-06
3.32599e-08
-2.72232e-06
2.38534e-08
-2.7226e-06
1.35664e-08
-2.72026e-06
2.43295e-09
-2.71502e-06
-9.55667e-09
-2.70667e-06
-2.24993e-08
-2.69496e-06
-3.63305e-08
-2.67965e-06
-5.10325e-08
-2.66054e-06
-6.66299e-08
-2.6374e-06
-8.31189e-08