/*--------------------------------*- C++ -*----------------------------------*\
| =========                 |                                                 |
| \\      /  F ield         | OpenFOAM: The Open Source CFD Toolbox           |
|  \\    /   O peration     | Version:  2312                                  |
|   \\  /    A nd           | Website:  www.openfoam.com                      |
|    \\/     M anipulation  |                                                 |
\*---------------------------------------------------------------------------*/
FoamFile
{
    version     2.0;
    format      ascii;
    arch        "LSB;label=32;scalar=64";
    class       volScalarField;
    location    "3.75";
    object      divPhi;
}
// * * * * * * * * * * * * * * * * * * * * * * * * * * * * * * * * * * * * * //

dimensions      [0 0 -1 0 0 0 0];

internalField   nonuniform List<scalar> 
400
(
9.1344e-12
2.3501e-13
3.07193e-13
2.97717e-13
2.40548e-13
1.83545e-13
1.6285e-13
1.42594e-13
1.03525e-13
1.0999e-13
1.10025e-13
9.02036e-14
7.56541e-14
9.16599e-14
5.54294e-14
7.64112e-14
5.3893e-14
7.5772e-14
9.17999e-14
2.71051e-14
4.06576e-13
1.79691e-13
2.80762e-13
2.48477e-13
1.95965e-13
1.61339e-13
1.28529e-13
1.57008e-13
9.284e-14
1.18077e-13
9.55832e-14
8.33008e-14
7.75184e-14
8.69058e-14
6.54654e-14
7.1099e-14
6.18242e-14
6.79976e-14
7.02191e-14
2.71051e-14
-3.52366e-13
2.69123e-14
1.52893e-13
1.51842e-13
1.85701e-13
1.30072e-13
1.13343e-13
1.07779e-13
1.25371e-13
8.14867e-14
9.05761e-14
8.73897e-14
4.65473e-14
9.1979e-14
5.42067e-14
6.06128e-14
6.55072e-14
5.09374e-14
1.18504e-13
2.71051e-14
1.35525e-13
2.25399e-14
6.93084e-14
7.26172e-14
1.09963e-13
1.21092e-13
9.13462e-14
8.31999e-14
9.41415e-14
1.02127e-13
9.26531e-14
5.83416e-14
5.83175e-14
8.3437e-14
6.76003e-14
7.63812e-14
5.72945e-14
5.75575e-14
3.83308e-14
5.42101e-14
-3.52366e-13
-2.98452e-14
2.8436e-15
3.06634e-14
6.90623e-14
7.77621e-14
7.55616e-14
4.94295e-14
9.8666e-14
3.35884e-14
8.00198e-14
5.05816e-14
6.05264e-14
3.4159e-14
8.06976e-14
2.68189e-14
5.98091e-14
1.99444e-15
1.05496e-13
0
1.35525e-13
-3.37039e-14
4.59882e-15
3.22056e-14
1.83463e-14
2.19004e-14
2.74384e-14
6.1936e-14
3.76754e-14
5.13955e-14
3.72613e-14
2.39399e-14
6.15661e-14
3.86532e-14
4.38272e-14
3.7099e-14
2.40691e-14
6.00368e-14
-2.82872e-14
5.42101e-14
-2.98156e-13
-6.24373e-14
-2.35506e-14
-2.44315e-15
-1.74077e-14
1.6695e-14
-2.53261e-15
1.30656e-14
4.88956e-14
2.53083e-14
2.00915e-14
2.58843e-15
4.18132e-14
3.81937e-14
3.0244e-14
1.05535e-14
2.71564e-14
1.00125e-14
7.34967e-14
0
8.13152e-14
-3.16083e-14
-3.56628e-14
-4.23951e-14
-8.02114e-15
-1.93318e-14
-9.68056e-15
2.15112e-14
-6.78279e-15
4.93461e-15
3.13905e-15
4.33547e-15
-1.17425e-14
-3.62186e-15
7.47188e-15
5.14227e-14
-1.72413e-14
3.84415e-14
-4.1906e-14
0
-2.43945e-13
-9.07788e-14
-4.98667e-14
-6.8978e-14
-3.70092e-14
-1.47451e-14
-4.67876e-14
-1.02371e-14
-2.49878e-14
-1.24873e-14
-1.72914e-14
-9.45239e-15
8.24781e-15
-2.1437e-14
1.61295e-14
-1.49388e-14
1.02537e-14
-1.76391e-14
7.7305e-14
0
2.71051e-14
-8.32353e-14
-6.85063e-14
-4.95795e-14
-6.37708e-14
-3.70483e-14
-6.30266e-14
-3.55436e-14
-3.38507e-14
-5.13458e-14
-1.86951e-14
-4.89352e-14
2.68592e-15
-4.9997e-14
-2.15736e-14
1.26788e-14
-5.29417e-15
-4.08371e-15
-7.01561e-14
2.71051e-14
-2.98156e-13
-6.89761e-14
-7.73696e-14
-1.04495e-13
-8.41452e-14
-5.58576e-14
-8.83297e-14
-7.6584e-14
-5.87153e-14
-5.85691e-14
-3.92858e-14
-3.20583e-14
-3.42024e-14
-3.40683e-14
-4.27163e-14
-3.0058e-14
-1.58209e-14
-8.26155e-14
4.98822e-14
-5.42101e-14
-5.42101e-14
-5.46814e-14
-1.07291e-13
-6.29527e-14
-1.08931e-13
-5.48368e-14
-8.32951e-14
-7.90628e-14
-7.89455e-14
-7.05951e-14
-5.81871e-14
-6.49855e-14
-6.32726e-14
-3.54802e-14
-5.72901e-14
-3.56254e-14
-3.04113e-14
-2.80427e-14
-7.78914e-14
0
-2.98156e-13
-1.03111e-13
-1.15917e-13
-1.07019e-13
-1.37462e-13
-8.65457e-14
-1.13874e-13
-8.18349e-14
-6.20744e-14
-7.42351e-14
-9.87949e-14
-9.20771e-14
-5.24099e-14
-8.05859e-14
-8.14864e-14
-5.46463e-14
-3.92438e-14
-6.70608e-14
-1.56575e-14
-5.42101e-14
-1.35525e-13
-1.15345e-13
-1.25166e-13
-1.36098e-13
-1.00079e-13
-1.15863e-13
-1.18931e-13
-9.05287e-14
-8.52057e-14
-7.72886e-14
-8.23792e-14
-5.82602e-14
-6.12924e-14
-1.09039e-13
-6.80033e-14
-4.95646e-14
-9.1484e-14
-3.71684e-14
-1.03231e-13
0
-2.43945e-13
-1.33621e-13
-1.09761e-13
-1.22742e-13
-1.01932e-13
-1.23744e-13
-1.36647e-13
-1.16789e-13
-9.87553e-14
-1.06197e-13
-7.96975e-14
-1.14996e-13
-9.18569e-14
-5.65056e-14
-9.72363e-14
-4.68203e-14
-9.22449e-14
-8.26989e-14
-6.11136e-14
-2.71051e-14
-1.89735e-13
-1.22144e-13
-1.46284e-13
-8.27634e-14
-1.1862e-13
-1.24756e-13
-9.77104e-14
-1.46124e-13
-8.55613e-14
-8.44867e-14
-6.54968e-14
-1.25196e-13
-9.73185e-14
-9.25585e-14
-8.88955e-14
-7.31929e-14
-8.11971e-14
-6.57667e-14
-1.35286e-13
-5.42101e-14
-2.1684e-13
-1.16973e-13
-1.31113e-13
-1.36274e-13
-1.46929e-13
-1.1581e-13
-9.99562e-14
-1.41673e-13
-1.14042e-13
-8.99017e-14
-1.27391e-13
-8.03483e-14
-8.33033e-14
-1.01795e-13
-9.62475e-14
-9.03198e-14
-6.37839e-14
-9.88861e-14
-7.62479e-14
-2.71051e-14
-2.1684e-13
-1.3862e-13
-1.27098e-13
-1.23826e-13
-1.33911e-13
-1.13899e-13
-1.13374e-13
-1.15495e-13
-9.7157e-14
-1.06244e-13
-1.03145e-13
-1.07339e-13
-9.25164e-14
-8.63115e-14
-6.32774e-14
-8.33752e-14
-8.59153e-14
-5.62646e-14
-7.6037e-14
-8.13152e-14
-2.1684e-13
-1.26387e-13
-1.14059e-13
-9.83841e-14
-1.29522e-13
-1.2616e-13
-1.11886e-13
-9.10355e-14
-9.26554e-14
-8.10102e-14
-1.01163e-13
-7.05512e-14
-9.22054e-14
-1.21e-13
-9.09255e-14
-9.93833e-14
-6.91587e-14
-8.31255e-14
-7.91739e-14
-2.71051e-14
-5.42101e-14
-2.71051e-14
-5.42101e-14
-5.42101e-14
-2.71051e-14
-5.42101e-14
-5.42101e-14
-5.42101e-14
-8.13152e-14
-2.71051e-14
-2.71051e-14
-5.42101e-14
-2.71051e-14
-5.42101e-14
-5.42101e-14
-2.71051e-14
-2.71051e-14
-2.71051e-14
-2.71051e-14
0
)
;

boundaryField
{
    movingWall
    {
        type            extrapolatedCalculated;
        value           nonuniform List<scalar> 
20
(
-5.42101e-14
-2.71051e-14
-5.42101e-14
-5.42101e-14
-2.71051e-14
-5.42101e-14
-5.42101e-14
-5.42101e-14
-8.13152e-14
-2.71051e-14
-2.71051e-14
-5.42101e-14
-2.71051e-14
-5.42101e-14
-5.42101e-14
-2.71051e-14
-2.71051e-14
-2.71051e-14
-2.71051e-14
0
)
;
    }
    fixedWalls
    {
        type            extrapolatedCalculated;
        value           nonuniform List<scalar> 
60
(
9.1344e-12
4.06576e-13
-3.52366e-13
1.35525e-13
-3.52366e-13
1.35525e-13
-2.98156e-13
8.13152e-14
-2.43945e-13
2.71051e-14
-2.98156e-13
-5.42101e-14
-2.98156e-13
-1.35525e-13
-2.43945e-13
-1.89735e-13
-2.1684e-13
-2.1684e-13
-2.1684e-13
-5.42101e-14
2.71051e-14
2.71051e-14
2.71051e-14
5.42101e-14
0
5.42101e-14
0
0
0
2.71051e-14
-5.42101e-14
0
-5.42101e-14
0
-2.71051e-14
-5.42101e-14
-2.71051e-14
-8.13152e-14
-2.71051e-14
0
9.1344e-12
2.3501e-13
3.07193e-13
2.97717e-13
2.40548e-13
1.83545e-13
1.6285e-13
1.42594e-13
1.03525e-13
1.0999e-13
1.10025e-13
9.02036e-14
7.56541e-14
9.16599e-14
5.54294e-14
7.64112e-14
5.3893e-14
7.5772e-14
9.17999e-14
2.71051e-14
)
;
    }
    frontAndBack
    {
        type            empty;
    }
}


// ************************************************************************* //
