/*--------------------------------*- C++ -*----------------------------------*\
| =========                 |                                                 |
| \\      /  F ield         | OpenFOAM: The Open Source CFD Toolbox           |
|  \\    /   O peration     | Version:  2312                                  |
|   \\  /    A nd           | Website:  www.openfoam.com                      |
|    \\/     M anipulation  |                                                 |
\*---------------------------------------------------------------------------*/
FoamFile
{
    version     2.0;
    format      ascii;
    arch        "LSB;label=32;scalar=64";
    class       volScalarField;
    location    "3.75";
    object      divU;
}
// * * * * * * * * * * * * * * * * * * * * * * * * * * * * * * * * * * * * * //

dimensions      [0 0 -1 0 0 0 0];

internalField   nonuniform List<scalar> 
400
(
9.32833e-08
-1.06687e-07
1.74347e-08
-6.94412e-09
8.10703e-10
-3.29686e-10
6.0679e-11
-1.25314e-11
2.84119e-12
-8.58833e-13
5.82056e-14
-1.70033e-14
9.41164e-14
1.49476e-13
1.80247e-13
9.58269e-14
-7.37299e-14
-1.43408e-13
4.27669e-13
5.42101e-14
-3.22051e-07
3.88117e-07
-8.56194e-08
3.6814e-08
-8.23916e-09
2.94196e-09
-8.37995e-10
2.33166e-10
-7.37061e-11
2.06654e-11
-6.03661e-12
1.85224e-12
-4.42708e-13
2.38644e-13
1.34779e-13
-4.02501e-14
-1.1584e-13
1.29421e-13
3.73651e-13
-8.13152e-14
5.1552e-07
-6.29314e-07
1.36711e-07
-5.87804e-08
1.28564e-08
-4.62994e-09
1.29435e-09
-3.55124e-10
1.1251e-10
-3.01594e-11
9.23547e-12
-2.4539e-12
9.33694e-13
-1.18369e-13
2.38968e-13
1.03712e-13
-1.70225e-13
-1.4892e-13
3.78706e-13
5.42101e-14
-6.97515e-07
8.65552e-07
-1.86169e-07
8.07024e-08
-1.72849e-08
6.34862e-09
-1.73881e-09
4.86802e-10
-1.50572e-10
4.21074e-11
-1.18422e-11
3.8931e-12
-8.23775e-13
4.83594e-13
1.35235e-13
1.06298e-14
-1.60939e-13
1.30911e-13
4.22645e-13
-1.0842e-13
8.49272e-07
-1.07501e-06
2.27635e-07
-1.00073e-07
2.09835e-08
-7.80554e-09
2.1192e-09
-5.88601e-10
1.84881e-10
-4.94376e-11
1.50495e-11
-4.04801e-12
1.36149e-12
-1.92947e-13
3.01198e-13
1.17741e-13
-1.3447e-13
-1.68121e-13
2.69462e-13
1.0842e-13
-9.62972e-07
1.2452e-06
-2.59366e-07
1.15678e-07
-2.3724e-08
8.9048e-09
-2.39794e-09
6.62826e-10
-2.07693e-10
5.61509e-11
-1.60901e-11
4.92626e-12
-1.18402e-12
6.24213e-13
1.0856e-13
1.33692e-14
-2.20978e-13
2.23278e-13
3.73497e-13
-1.35525e-13
1.04535e-06
-1.38125e-06
2.84224e-07
-1.28289e-07
2.59143e-08
-9.81581e-09
2.62729e-09
-7.24235e-10
2.27738e-10
-6.05263e-11
1.80601e-11
-4.99708e-12
1.55857e-12
-3.1824e-13
2.51882e-13
9.98575e-14
-9.57498e-14
-1.74713e-13
3.0355e-13
0
-1.08558e-06
1.46588e-06
-2.97851e-07
1.35952e-07
-2.69203e-08
1.02949e-08
-2.73091e-09
7.49855e-10
-2.35937e-10
6.25256e-11
-1.82134e-11
5.41005e-12
-1.42185e-12
5.64919e-13
9.02121e-14
-1.13502e-13
-2.33627e-13
2.05789e-13
3.05004e-13
-1.35525e-13
1.10173e-06
-1.51856e-06
3.06074e-07
-1.409e-07
2.75644e-08
-1.06397e-08
2.80424e-09
-7.71085e-10
2.42235e-10
-6.39987e-11
1.87396e-11
-5.40367e-12
1.55695e-12
-3.55701e-13
1.86345e-13
2.16211e-14
-1.38272e-13
-1.38932e-13
1.71168e-13
5.42101e-14
-1.08071e-06
1.52013e-06
-3.03287e-07
1.4089e-07
-2.70968e-08
1.05472e-08
-2.75996e-09
7.55012e-10
-2.38312e-10
6.22417e-11
-1.83834e-11
5.1944e-12
-1.49718e-12
4.89387e-13
-3.5677e-14
-1.73271e-13
-1.71387e-13
1.96835e-13
1.5734e-13
-8.13152e-14
1.04393e-06
-1.49548e-06
2.96755e-07
-1.38698e-07
2.64733e-08
-1.03698e-08
2.70306e-09
-7.4102e-10
2.3263e-10
-6.12503e-11
1.7772e-11
-5.22493e-12
1.33237e-12
-3.66978e-13
1.23022e-13
-1.15241e-13
-1.31194e-13
-9.93262e-14
2.06498e-15
5.42101e-14
-9.77538e-07
1.42554e-06
-2.80533e-07
1.32059e-07
-2.48799e-08
9.79631e-09
-2.54309e-09
6.92514e-10
-2.19054e-10
5.67228e-11
-1.69604e-11
4.62901e-12
-1.49321e-12
3.82496e-13
2.36305e-14
-2.42879e-13
-2.65121e-13
2.82349e-13
7.16616e-14
-1.35525e-13
9.03032e-07
-1.33684e-06
2.62232e-07
-1.23922e-07
2.32866e-08
-9.18682e-09
2.38373e-09
-6.50133e-10
2.04153e-10
-5.37861e-11
1.54316e-11
-4.63034e-12
1.11634e-12
-4.24909e-13
7.22465e-14
-7.44846e-14
-1.62873e-13
-5.83289e-14
-4.37466e-14
0
-8.06663e-07
1.21164e-06
-2.3605e-07
1.12168e-07
-2.08893e-08
8.25226e-09
-2.13915e-09
5.78685e-10
-1.83353e-10
4.71825e-11
-1.42001e-11
3.74271e-12
-1.24115e-12
2.99569e-13
-8.77556e-14
-2.58948e-13
-2.76697e-13
2.54963e-13
-4.65826e-14
-1.35525e-13
7.07695e-07
-1.07507e-06
2.09132e-07
-9.95769e-08
1.85892e-08
-7.31877e-09
1.90348e-09
-5.15106e-10
1.61642e-10
-4.27521e-11
1.20918e-11
-3.73822e-12
7.7916e-13
-3.90217e-13
-4.64499e-14
-1.87554e-13
-1.70968e-13
-3.5962e-14
-9.76921e-14
-2.71051e-14
-5.94085e-07
9.12411e-07
-1.76451e-07
8.43844e-08
-1.56769e-08
6.15026e-09
-1.60479e-09
4.29473e-10
-1.3677e-10
3.47022e-11
-1.08263e-11
2.49936e-12
-1.24929e-12
5.5883e-14
-1.55459e-13
-3.74341e-13
-3.27382e-13
1.46708e-13
-1.41901e-13
-1.35525e-13
4.81254e-07
-7.4463e-07
1.43927e-07
-6.88661e-08
1.28888e-08
-4.99897e-09
1.31374e-09
-3.51818e-10
1.09345e-10
-2.95347e-11
7.86222e-12
-2.71321e-12
3.71242e-13
-3.07018e-13
-5.53841e-14
-2.7185e-13
-9.1746e-14
7.48562e-14
-2.30255e-13
-5.42101e-14
-3.59614e-07
5.60913e-07
-1.07972e-07
5.19414e-08
-9.7661e-09
3.74385e-09
-1.00112e-09
2.64131e-10
-8.41135e-11
2.21044e-11
-6.46237e-12
1.82466e-12
-5.91067e-13
2.22928e-13
-6.44183e-14
-2.29165e-13
-2.34293e-13
1.7231e-13
-1.69607e-13
-1.0842e-13
2.40606e-07
-3.75833e-07
7.20247e-08
-3.4328e-08
6.31713e-09
-2.38084e-09
6.30059e-10
-1.60395e-10
5.06963e-11
-1.31133e-11
3.44443e-12
-1.39118e-12
6.51914e-15
-1.8542e-13
-2.7739e-13
-5.17994e-13
-2.05392e-13
2.63377e-13
-1.57285e-13
-2.71051e-14
-1.08867e-07
1.67531e-07
-4.00757e-08
1.91818e-08
-4.52817e-09
1.65021e-09
-4.77618e-10
1.36609e-10
-4.38289e-11
1.1357e-11
-4.2826e-12
5.96311e-13
-6.23416e-13
0
-2.43945e-13
-3.25261e-13
5.42101e-14
2.1684e-13
-4.87891e-13
-2.71051e-14
)
;

boundaryField
{
    movingWall
    {
        type            extrapolatedCalculated;
        value           nonuniform List<scalar> 
20
(
-1.08867e-07
1.67531e-07
-4.00757e-08
1.91818e-08
-4.52817e-09
1.65021e-09
-4.77618e-10
1.36609e-10
-4.38289e-11
1.1357e-11
-4.2826e-12
5.96311e-13
-6.23416e-13
0
-2.43945e-13
-3.25261e-13
5.42101e-14
2.1684e-13
-4.87891e-13
-2.71051e-14
)
;
    }
    fixedWalls
    {
        type            extrapolatedCalculated;
        value           nonuniform List<scalar> 
60
(
9.32833e-08
-3.22051e-07
5.1552e-07
-6.97515e-07
8.49272e-07
-9.62972e-07
1.04535e-06
-1.08558e-06
1.10173e-06
-1.08071e-06
1.04393e-06
-9.77538e-07
9.03032e-07
-8.06663e-07
7.07695e-07
-5.94085e-07
4.81254e-07
-3.59614e-07
2.40606e-07
-1.08867e-07
5.42101e-14
-8.13152e-14
5.42101e-14
-1.0842e-13
1.0842e-13
-1.35525e-13
0
-1.35525e-13
5.42101e-14
-8.13152e-14
5.42101e-14
-1.35525e-13
0
-1.35525e-13
-2.71051e-14
-1.35525e-13
-5.42101e-14
-1.0842e-13
-2.71051e-14
-2.71051e-14
9.32833e-08
-1.06687e-07
1.74347e-08
-6.94412e-09
8.10703e-10
-3.29686e-10
6.0679e-11
-1.25314e-11
2.84119e-12
-8.58833e-13
5.82056e-14
-1.70033e-14
9.41164e-14
1.49476e-13
1.80247e-13
9.58269e-14
-7.37299e-14
-1.43408e-13
4.27669e-13
5.42101e-14
)
;
    }
    frontAndBack
    {
        type            empty;
    }
}


// ************************************************************************* //
