/*--------------------------------*- C++ -*----------------------------------*\
| =========                 |                                                 |
| \\      /  F ield         | OpenFOAM: The Open Source CFD Toolbox           |
|  \\    /   O peration     | Version:  2312                                  |
|   \\  /    A nd           | Website:  www.openfoam.com                      |
|    \\/     M anipulation  |                                                 |
\*---------------------------------------------------------------------------*/
FoamFile
{
    version     2.0;
    format      ascii;
    arch        "LSB;label=32;scalar=64";
    class       volScalarField;
    location    "3.75";
    object      enstrophyField;
}
// * * * * * * * * * * * * * * * * * * * * * * * * * * * * * * * * * * * * * //

dimensions      [0 0 -2 0 0 0 0];

internalField   nonuniform List<scalar> 
400
(
5.36824e-11
7.79095e-11
4.35042e-12
2.45485e-13
1.36778e-14
7.74515e-16
4.24815e-17
2.54062e-18
1.16272e-19
1.15277e-20
3.22627e-23
2.57783e-22
5.06337e-23
4.01126e-23
1.8696e-23
9.37545e-24
3.41637e-24
3.27893e-25
1.59739e-25
1.9758e-26
5.65916e-11
7.87072e-11
4.42018e-12
2.48135e-13
1.39258e-14
7.81164e-16
4.38218e-17
2.45358e-18
1.38031e-19
7.61571e-21
4.5203e-22
2.04649e-23
2.38593e-24
1.49185e-26
1.37959e-25
4.79464e-27
2.72422e-26
1.8804e-25
2.00805e-24
1.20993e-26
5.62495e-11
7.85162e-11
4.39665e-12
2.46084e-13
1.37689e-14
7.70155e-16
4.30544e-17
2.40797e-18
1.34101e-19
7.59377e-21
4.0208e-22
2.73081e-23
4.26179e-25
7.21613e-25
1.31357e-25
1.16577e-26
8.99486e-26
4.58153e-25
5.18035e-24
1.38162e-26
5.61536e-11
7.86657e-11
4.40078e-12
2.46076e-13
1.3756e-14
7.6868e-16
4.29534e-17
2.39624e-18
1.34395e-19
7.3481e-21
4.44536e-22
1.80017e-23
3.10211e-24
2.73959e-25
5.00085e-25
4.4057e-27
1.47399e-25
8.97613e-25
9.32385e-24
2.51532e-26
5.57172e-11
7.89336e-11
4.4144e-12
2.46766e-13
1.37906e-14
7.70576e-16
4.30306e-17
2.40625e-18
1.33618e-19
7.62929e-21
3.8534e-22
3.02286e-23
1.48512e-25
1.51923e-24
5.74675e-25
2.63146e-26
2.37109e-25
1.28034e-24
1.41486e-23
3.36789e-26
5.5358e-11
7.94783e-11
4.44573e-12
2.4858e-13
1.38974e-14
7.76763e-16
4.34292e-17
2.42312e-18
1.36299e-19
7.41102e-21
4.58842e-22
1.69592e-23
4.35479e-24
7.04985e-25
9.17802e-25
2.7229e-26
3.09945e-25
1.96079e-24
1.94977e-23
2.07842e-26
5.50286e-11
8.03028e-11
4.49477e-12
2.51504e-13
1.40713e-14
7.8734e-16
4.40279e-17
2.46773e-18
1.36974e-19
7.92823e-21
3.85765e-22
3.48313e-23
2.57583e-28
2.62317e-24
1.09315e-24
7.77488e-26
2.61813e-25
2.53108e-24
2.41026e-23
3.21296e-27
5.49132e-11
8.1452e-11
4.56326e-12
2.55585e-13
1.43159e-14
8.01773e-16
4.49362e-17
2.51196e-18
1.41991e-19
7.65162e-21
4.9951e-22
1.51571e-23
6.06979e-24
1.44431e-24
1.69978e-24
1.09651e-25
2.91571e-25
3.12684e-24
2.74015e-23
1.01434e-28
5.4958e-11
8.28862e-11
4.64867e-12
2.60673e-13
1.46177e-14
8.19957e-16
4.5964e-17
2.58525e-18
1.43556e-19
8.40499e-21
3.95721e-22
3.96722e-23
2.47589e-26
3.56482e-24
1.50489e-24
1.2805e-25
2.40863e-25
3.66367e-24
2.99488e-23
1.99604e-27
5.52131e-11
8.45885e-11
4.74968e-12
2.66653e-13
1.49729e-14
8.40713e-16
4.72511e-17
2.64717e-18
1.5042e-19
8.06921e-21
5.43294e-22
1.39254e-23
7.88972e-24
2.29582e-24
2.59651e-24
2.73892e-25
1.39254e-25
4.02811e-24
3.13409e-23
1.85388e-26
5.56337e-11
8.64819e-11
4.86142e-12
2.73248e-13
1.53602e-14
8.63789e-16
4.85412e-17
2.73797e-18
1.52244e-19
8.98959e-21
4.13106e-22
4.49253e-23
1.94853e-25
4.528e-24
2.37303e-24
4.17212e-25
1.35197e-25
4.06196e-24
3.1967e-23
4.37857e-26
5.62107e-11
8.85259e-11
4.98173e-12
2.80305e-13
1.57753e-14
8.87794e-16
5.00154e-17
2.80814e-18
1.59997e-19
8.58759e-21
5.79948e-22
1.42844e-23
8.68271e-24
2.62867e-24
2.49044e-24
3.0211e-25
1.11252e-25
4.12185e-24
3.0841e-23
7.63869e-26
5.69029e-11
9.06129e-11
5.10378e-12
2.87444e-13
1.61907e-14
9.1233e-16
5.13705e-17
2.90363e-18
1.61757e-19
9.57e-21
4.40105e-22
4.85523e-23
1.45861e-25
4.89584e-24
2.39432e-24
4.24027e-25
3.65488e-26
4.10001e-24
2.85954e-23
6.47668e-26
5.76605e-11
9.26994e-11
5.22562e-12
2.94533e-13
1.66043e-14
9.36044e-16
5.28196e-17
2.97103e-18
1.69394e-19
9.13782e-21
6.17034e-22
1.61094e-23
8.47819e-24
2.18219e-24
2.55126e-24
3.24012e-25
4.14406e-26
3.52493e-24
2.53816e-23
8.65857e-26
5.84616e-11
9.46681e-11
5.3398e-12
3.0116e-13
1.6987e-14
9.58492e-16
5.40499e-17
3.05734e-18
1.7088e-19
1.00398e-20
4.8277e-22
4.71621e-23
6.20211e-27
3.55485e-24
1.61316e-24
3.59226e-25
1.04698e-26
3.07899e-24
2.11285e-23
8.99318e-26
5.92281e-11
9.64862e-11
5.44523e-12
3.07251e-13
1.734e-14
9.78584e-16
5.52717e-17
3.11373e-18
1.77362e-19
9.6616e-21
6.26586e-22
1.97631e-23
7.23817e-24
1.28248e-24
1.66158e-24
1.83043e-25
2.50269e-26
2.57622e-24
1.56549e-23
8.8824e-26
5.99613e-11
9.80475e-11
5.53505e-12
3.12423e-13
1.76364e-14
9.95872e-16
5.62077e-17
3.18022e-18
1.78292e-19
1.03809e-20
5.2016e-22
4.43898e-23
5.48846e-26
2.50373e-24
9.78725e-25
2.29965e-25
3.23861e-27
1.71926e-24
1.06185e-23
9.08846e-26
6.07119e-11
9.9382e-11
5.61207e-12
3.16851e-13
1.78916e-14
1.01032e-15
5.70807e-17
3.22011e-18
1.8285e-19
1.01206e-20
6.17397e-22
2.56513e-23
4.3205e-24
2.9175e-25
6.20073e-25
6.51851e-26
8.5412e-27
8.71133e-25
6.67581e-24
6.04748e-26
6.10212e-11
1.00411e-10
5.67967e-12
3.21212e-13
1.81677e-14
1.0278e-15
5.81316e-17
3.29181e-18
1.85759e-19
1.0617e-20
5.81557e-22
3.59054e-23
1.42838e-24
2.75548e-25
1.29621e-28
7.25533e-26
3.08718e-25
1.76438e-25
3.55479e-24
2.06657e-28
6.36447e-11
1.0164e-10
5.81575e-12
3.28627e-13
1.88465e-14
1.0688e-15
6.20909e-17
3.38942e-18
2.28135e-19
7.62427e-21
1.74217e-21
2.94609e-23
1.03526e-22
3.37445e-23
1.82145e-23
7.98088e-24
3.05282e-24
2.17076e-25
2.5877e-25
1.0204e-25
)
;

boundaryField
{
    movingWall
    {
        type            calculated;
        value           nonuniform List<scalar> 
20
(
7.67038e-11
1.052e-10
6.20012e-12
3.49357e-13
2.06435e-14
1.1843e-15
7.11355e-17
3.83037e-18
3.02006e-19
6.10732e-21
3.81097e-21
2.80791e-22
3.85133e-22
1.55283e-22
8.07576e-23
3.97802e-23
1.71363e-23
7.64869e-25
3.66535e-24
6.06309e-25
)
;
    }
    fixedWalls
    {
        type            calculated;
        value           nonuniform List<scalar> 
60
(
1.39731e-09
1.41227e-09
1.41164e-09
1.41497e-09
1.42019e-09
1.43011e-09
1.44481e-09
1.46514e-09
1.49046e-09
1.52048e-09
1.5539e-09
1.59e-09
1.62693e-09
1.66386e-09
1.69877e-09
1.73103e-09
1.75878e-09
1.78244e-09
1.79819e-09
1.82355e-09
4.93778e-25
2.1683e-24
6.09633e-24
1.09221e-23
1.70657e-23
2.40436e-23
3.11846e-23
3.72643e-23
4.21485e-23
4.58438e-23
4.76175e-23
4.77714e-23
4.46787e-23
4.0812e-23
3.39049e-23
2.62982e-23
1.8368e-23
1.14628e-23
4.99806e-24
1.44924e-24
4.61023e-11
7.61581e-11
4.17713e-12
2.38329e-13
1.30123e-14
7.41071e-16
3.93687e-17
2.49184e-18
8.8269e-20
1.53115e-20
1.14933e-22
7.24716e-22
2.40228e-22
1.5241e-22
7.56761e-23
3.83827e-23
1.5132e-23
1.06134e-24
1.77964e-24
1.06096e-25
)
;
    }
    frontAndBack
    {
        type            empty;
    }
}


// ************************************************************************* //
