/*--------------------------------*- C++ -*----------------------------------*\
| =========                 |                                                 |
| \\      /  F ield         | OpenFOAM: The Open Source CFD Toolbox           |
|  \\    /   O peration     | Version:  2312                                  |
|   \\  /    A nd           | Website:  www.openfoam.com                      |
|    \\/     M anipulation  |                                                 |
\*---------------------------------------------------------------------------*/
FoamFile
{
    version     2.0;
    format      ascii;
    arch        "LSB;label=32;scalar=64";
    class       volScalarField;
    location    "3.75";
    object      flowTypeField;
}
// * * * * * * * * * * * * * * * * * * * * * * * * * * * * * * * * * * * * * //

dimensions      [0 0 0 0 0 0 0];

internalField   nonuniform List<scalar> 
400
(
-0.0311504
-0.00623374
-0.011118
-0.0124417
-0.0168846
-0.0252445
-0.0200062
-0.0602481
0.027499
-0.275428
0.703058
-0.283111
0.166885
0.0203995
0.076198
0.108461
0.256123
0.651167
0.600007
0.76723
-0.05771
-0.0105583
-0.0192501
-0.0189396
-0.0280283
-0.0350035
-0.0368582
-0.0592186
-0.0416678
-0.115336
0.0540934
0.0636315
0.574275
0.936972
0.778966
0.944094
0.87316
0.710557
0.0625661
0.788158
-0.0527096
-0.00801361
-0.015901
-0.0113588
-0.0207569
-0.0181627
-0.0234644
-0.0193604
-0.0384076
0.0269347
-0.169382
0.322961
0.710926
0.653619
0.773366
0.906525
0.769517
0.588913
0.00745868
0.781088
-0.0484335
-0.00600497
-0.0138577
-0.00665137
-0.0157249
-0.0104021
-0.00804889
-0.0143524
0.0166555
-0.028679
0.133703
-0.184083
0.518152
0.724363
0.598144
0.937727
0.683262
0.419969
-0.000144105
0.66261
-0.0394865
-0.00312705
-0.010298
-0.000343607
-0.00877999
0.00163901
0.00554955
0.0112143
0.0267057
0.0690052
-0.00356897
0.298945
0.755749
0.501764
0.540333
0.835379
0.564103
0.358813
-0.00931096
0.658491
-0.0295672
-0.000234752
-0.00668836
0.00577188
-0.00265379
0.0120546
0.0179292
0.0244536
0.057278
0.0555024
0.153195
-0.0100355
0.411102
0.54102
0.465213
0.820076
0.458563
0.187075
-0.0202191
0.619682
-0.0184044
0.00264107
-0.00278182
0.0115788
0.00367324
0.0216277
0.0295126
0.0389539
0.0716781
0.0965541
0.103746
0.251488
0.98386
0.347691
0.369849
0.669223
0.359731
0.146889
-0.0273037
0.827391
-0.00800046
0.0049611
0.0005593
0.0159191
0.00811553
0.0284305
0.0356204
0.0474755
0.0820933
0.0945004
0.156336
0.140002
0.302607
0.358909
0.290634
0.594586
0.258019
0.0552915
-0.0182028
0.946703
0.00196582
0.00690396
0.00368447
0.0192059
0.0123001
0.0334079
0.0414631
0.0536973
0.0881496
0.109942
0.132795
0.230558
0.849077
0.261499
0.291919
0.54255
0.0287922
0.0323627
-0.0176497
0.796766
0.0105921
0.0081612
0.00612389
0.0208073
0.0147979
0.0354576
0.0427307
0.0548862
0.0895501
0.0983955
0.158051
0.168093
0.238045
0.245741
0.174255
0.343791
-0.171385
0.00172292
-0.0205229
0.253015
0.0181313
0.00901001
0.00818639
0.0215407
0.0168706
0.0365008
0.0432642
0.0567354
0.0842736
0.11022
0.120816
0.216523
0.638967
0.213507
0.174998
0.247404
-0.605223
0.0202953
-0.0275687
0.115675
0.0242493
0.00929118
0.0096504
0.0209586
0.0178281
0.0349908
0.041783
0.0517511
0.0841688
0.082435
0.156798
0.135449
0.243045
0.250133
0.235759
0.364927
-0.0809848
0.0375424
-0.0273582
0.102917
0.0291334
0.00929306
0.0107456
0.0199569
0.0183308
0.0335625
0.0387264
0.0519767
0.0689978
0.101652
0.0830014
0.210506
0.743299
0.220647
0.218122
0.330693
0.486261
0.0229906
-0.0246695
0.298345
0.0328999
0.00896863
0.0114516
0.0182298
0.0183712
0.0302436
0.036366
0.0432498
0.0715383
0.057772
0.143465
0.10188
0.277037
0.36467
0.24794
0.415766
0.599675
0.102773
-0.0293741
0.390306
0.0355073
0.00851212
0.0118439
0.0164788
0.0179224
0.0278562
0.0314121
0.043904
0.0492749
0.0889391
0.0356158
0.22818
0.956525
0.348207
0.36679
0.471314
0.842545
0.12436
-0.0305844
0.426944
0.0374279
0.00796647
0.0120609
0.0145567
0.0175741
0.0242065
0.0296129
0.0334778
0.0568281
0.034031
0.133447
0.143207
0.35343
0.53854
0.403276
0.629586
0.808741
0.193213
-0.0232019
0.525459
0.0383816
0.00740034
0.0120462
0.0128795
0.0166659
0.0221003
0.0240805
0.0355274
0.0318892
0.0720051
0.0214109
0.237106
0.903064
0.442846
0.497165
0.609263
0.93914
0.281567
-0.0148961
0.52482
0.0379223
0.00667638
0.011738
0.0111926
0.0161571
0.0189862
0.0240606
0.0260201
0.0440344
0.0246479
0.115827
0.198745
0.480383
0.768636
0.598843
0.788923
0.908607
0.428004
-0.0527408
0.625973
0.0394681
0.0058563
0.0105278
0.00810541
0.0115393
0.0133948
0.0122439
0.0196284
0.0128494
0.0401784
0.0133943
0.274891
0.651764
0.799391
0.993068
0.80616
0.614241
0.716582
-0.0597979
0.977328
0.0211616
0.00278179
0.00489665
0.00318679
0.00367104
0.00623902
-0.00288263
0.0232484
-0.055457
0.193291
-0.507774
0.551693
-0.0962338
0.121916
0.0652684
0.131632
0.319665
0.752533
0.617324
0.677696
)
;

boundaryField
{
    movingWall
    {
        type            calculated;
        value           nonuniform List<scalar> 
20
(
0.749265
0.264166
0.253107
0.255939
0.245662
0.243884
0.228217
0.251089
0.140189
0.46771
-0.322005
0.316213
-0.0924731
0.0369461
-0.00598883
0.0283975
0.113458
0.604167
0.294918
0.413635
)
;
    }
    fixedWalls
    {
        type            calculated;
        value           nonuniform List<scalar> 
60
(
-0.00592906
-0.01062
-0.0089618
-0.00711113
-0.00420851
-0.00117679
0.00195102
0.00455706
0.00681002
0.00835437
0.00947195
0.0099754
0.0101654
0.00998088
0.00963228
0.00915738
0.0086389
0.00796443
0.00786326
0.00410242
0.148051
0.0941009
0.0237637
0.0164374
0.0155118
0.0105801
0.00164709
0.00392202
0.00623624
0.0029352
0.00282016
5.77752e-05
0.0116643
0.00774232
0.00940898
0.0101641
0.00962717
0.0158836
0.0967764
0.166611
0.773149
0.269952
0.275085
0.267996
0.27284
0.264926
0.278272
0.231503
0.37098
-0.0370474
0.68974
-0.206313
0.0756304
-0.0174956
0.0155356
0.0272697
0.0885471
0.44677
0.294794
0.552726
)
;
    }
    frontAndBack
    {
        type            empty;
    }
}


// ************************************************************************* //
