/*--------------------------------*- C++ -*----------------------------------*\
| =========                 |                                                 |
| \\      /  F ield         | OpenFOAM: The Open Source CFD Toolbox           |
|  \\    /   O peration     | Version:  2312                                  |
|   \\  /    A nd           | Website:  www.openfoam.com                      |
|    \\/     M anipulation  |                                                 |
\*---------------------------------------------------------------------------*/
FoamFile
{
    version     2.0;
    format      ascii;
    arch        "LSB;label=32;scalar=64";
    class       volVectorField;
    location    "3.75";
    object      gradPhi;
}
// * * * * * * * * * * * * * * * * * * * * * * * * * * * * * * * * * * * * * //

dimensions      [0 2 -1 0 0 0 0];

internalField   nonuniform List<vector> 
400
(
(-0.02 -2.23898e-12 0)
(-2.02088e-12 2.02089e-12 0)
(-6.85584e-14 6.85749e-14 0)
(-1.51842e-13 1.51856e-13 0)
(1.31489e-14 -1.31366e-14 0)
(-9.26608e-15 9.2764e-15 0)
(1.58322e-15 -1.57615e-15 0)
(-1.45749e-15 1.46538e-15 0)
(-4.48332e-16 4.53765e-16 0)
(-4.94654e-16 5.00167e-16 0)
(-2.99439e-16 3.05012e-16 0)
(-2.38228e-16 2.41679e-16 0)
(-1.80325e-16 1.84031e-16 0)
(-1.37312e-16 1.42819e-16 0)
(-1.05879e-16 1.08481e-16 0)
(-8.43724e-17 8.78462e-17 0)
(-8.60268e-17 8.80756e-17 0)
(-8.93355e-17 9.32353e-17 0)
(-3.80503e-17 4.38923e-17 0)
(3.80503e-17 -3.63976e-17 0)
(-0.02 6.63355e-12 0)
(6.30072e-12 -6.30071e-12 0)
(-7.95351e-14 7.95479e-14 0)
(4.88584e-13 -4.88571e-13 0)
(-8.99162e-14 8.99256e-14 0)
(2.93748e-14 -2.93667e-14 0)
(-1.49405e-14 1.49481e-14 0)
(2.03156e-15 -2.02538e-15 0)
(-1.52532e-15 1.5309e-15 0)
(-5.62483e-17 6.2746e-17 0)
(-3.54033e-16 3.5842e-16 0)
(-1.88597e-16 1.92101e-16 0)
(-1.78671e-16 1.83052e-16 0)
(-1.30695e-16 1.33932e-16 0)
(-1.04225e-16 1.07567e-16 0)
(-8.27181e-17 8.64706e-17 0)
(-7.94093e-17 8.3067e-17 0)
(-8.43724e-17 8.77027e-17 0)
(-3.63959e-17 3.95785e-17 0)
(3.47416e-17 -3.35331e-17 0)
(-0.02 -1.14842e-11 0)
(-1.10515e-11 1.10515e-11 0)
(3.06811e-13 -3.06804e-13 0)
(-8.62771e-13 8.62779e-13 0)
(1.61504e-13 -1.61495e-13 0)
(-5.80879e-14 5.80954e-14 0)
(2.52638e-14 -2.52586e-14 0)
(-5.40976e-15 5.41584e-15 0)
(1.71723e-15 -1.71141e-15 0)
(-7.94093e-16 7.9777e-16 0)
(-4.96308e-17 5.39598e-17 0)
(-2.18376e-16 2.23821e-16 0)
(-1.34003e-16 1.35332e-16 0)
(-1.20768e-16 1.24937e-16 0)
(-9.09899e-17 9.29495e-17 0)
(-7.11375e-17 7.53698e-17 0)
(-7.61006e-17 7.87888e-17 0)
(-8.60268e-17 8.99489e-17 0)
(-3.14329e-17 3.76508e-17 0)
(3.47416e-17 -3.42503e-17 0)
(-0.02 1.68008e-11 0)
(1.61186e-11 -1.61186e-11 0)
(-3.89354e-13 3.89359e-13 0)
(1.22608e-12 -1.22607e-12 0)
(-2.05811e-13 2.05816e-13 0)
(8.07461e-14 -8.07396e-14 0)
(-3.32857e-14 3.32907e-14 0)
(6.87222e-15 -6.86829e-15 0)
(-2.68172e-15 2.68726e-15 0)
(6.08805e-16 -6.03411e-16 0)
(-3.25909e-16 3.2943e-16 0)
(-6.28657e-17 6.63102e-17 0)
(-1.32349e-16 1.34759e-16 0)
(-9.09899e-17 9.44406e-17 0)
(-7.94093e-17 8.33401e-17 0)
(-6.61744e-17 6.99063e-17 0)
(-6.45201e-17 6.7352e-17 0)
(-6.61744e-17 6.80936e-17 0)
(-2.81241e-17 2.98726e-17 0)
(2.81241e-17 -2.61628e-17 0)
(-0.02 -2.19078e-11 0)
(-2.10083e-11 2.10083e-11 0)
(4.62669e-13 -4.62668e-13 0)
(-1.55707e-12 1.55708e-12 0)
(2.57228e-13 -2.57226e-13 0)
(-9.82277e-14 9.8232e-14 0)
(4.20059e-14 -4.20028e-14 0)
(-8.10637e-15 8.10814e-15 0)
(3.26902e-15 -3.26458e-15 0)
(-9.34714e-16 9.37118e-16 0)
(1.57164e-16 -1.53775e-16 0)
(-1.6709e-16 1.69019e-16 0)
(-6.94832e-17 7.19388e-17 0)
(-8.43724e-17 8.69828e-17 0)
(-6.28657e-17 6.5707e-17 0)
(-5.12852e-17 5.30872e-17 0)
(-5.45939e-17 5.70463e-17 0)
(-6.94832e-17 7.04055e-17 0)
(-2.48154e-17 2.91081e-17 0)
(3.30872e-17 -3.3491e-17 0)
(-0.02 2.65566e-11 0)
(2.53996e-11 -2.53996e-11 0)
(-4.678e-13 4.67801e-13 0)
(1.8461e-12 -1.8461e-12 0)
(-2.93614e-13 2.93616e-13 0)
(1.13843e-13 -1.13841e-13 0)
(-4.76721e-14 4.76727e-14 0)
(9.38188e-15 -9.37772e-15 0)
(-3.68592e-15 3.68866e-15 0)
(9.76073e-16 -9.74892e-16 0)
(-3.14329e-16 3.16346e-16 0)
(1.98523e-17 -1.89504e-17 0)
(-8.76811e-17 9.08539e-17 0)
(-5.12852e-17 5.30796e-17 0)
(-5.12852e-17 5.37218e-17 0)
(-4.79765e-17 4.93031e-17 0)
(-4.63221e-17 4.83573e-17 0)
(-4.1359e-17 4.35597e-17 0)
(-1.65436e-17 1.49949e-17 0)
(2.31611e-17 -2.08877e-17 0)
(-0.02 -3.0458e-11 0)
(-2.90898e-11 2.90898e-11 0)
(4.68001e-13 -4.68001e-13 0)
(-2.08041e-12 2.08041e-12 0)
(3.22743e-13 -3.22742e-13 0)
(-1.24234e-13 1.24234e-13 0)
(5.27543e-14 -5.27547e-14 0)
(-9.89473e-15 9.89497e-15 0)
(4.07138e-15 -4.06926e-15 0)
(-1.10346e-15 1.10594e-15 0)
(2.39882e-16 -2.40738e-16 0)
(-1.40621e-16 1.41234e-16 0)
(-2.64698e-17 2.88279e-17 0)
(-5.62483e-17 5.68976e-17 0)
(-3.80503e-17 3.99784e-17 0)
(-3.14329e-17 3.11988e-17 0)
(-3.14329e-17 3.40357e-17 0)
(-4.30134e-17 4.35774e-17 0)
(-1.32349e-17 1.59312e-17 0)
(2.64698e-17 -2.48546e-17 0)
(-0.02 3.34381e-11 0)
(3.19014e-11 -3.19014e-11 0)
(-4.63979e-13 4.63977e-13 0)
(2.25678e-12 -2.25678e-12 0)
(-3.38937e-13 3.38937e-13 0)
(1.31843e-13 -1.31843e-13 0)
(-5.56229e-14 5.56219e-14 0)
(1.03116e-14 -1.03103e-14 0)
(-4.30134e-15 4.30014e-15 0)
(1.08857e-15 -1.08793e-15 0)
(-3.32527e-16 3.339e-16 0)
(5.29396e-17 -5.27675e-17 0)
(-6.78288e-17 6.64401e-17 0)
(-2.81241e-17 2.77248e-17 0)
(-3.14329e-17 3.13875e-17 0)
(-2.64698e-17 2.91485e-17 0)
(-2.81241e-17 2.75957e-17 0)
(-1.8198e-17 1.90397e-17 0)
(-4.96308e-18 3.71663e-18 0)
(1.32349e-17 -1.33815e-17 0)
(-0.02 -3.54566e-11 0)
(-3.38022e-11 3.38022e-11 0)
(4.61228e-13 -4.6123e-13 0)
(-2.37459e-12 2.37458e-12 0)
(3.45732e-13 -3.45733e-13 0)
(-1.36271e-13 1.36271e-13 0)
(5.69845e-14 -5.69862e-14 0)
(-1.05333e-14 1.05328e-14 0)
(4.29968e-15 -4.30113e-15 0)
(-1.19445e-15 1.19446e-15 0)
(2.465e-16 -2.47678e-16 0)
(-1.37312e-16 1.36191e-16 0)
(-8.27181e-18 9.13103e-18 0)
(-3.63959e-17 3.57011e-17 0)
(-1.8198e-17 1.94064e-17 0)
(-1.32349e-17 1.2945e-17 0)
(-1.32349e-17 1.22168e-17 0)
(-1.98523e-17 1.888e-17 0)
(-1.65436e-18 4.6053e-18 0)
(1.48893e-17 -1.52318e-17 0)
(-0.02 3.64051e-11 0)
(3.46987e-11 -3.46987e-11 0)
(-4.55141e-13 4.55138e-13 0)
(2.42171e-12 -2.42171e-12 0)
(-3.45386e-13 3.45383e-13 0)
(1.36242e-13 -1.36245e-13 0)
(-5.74328e-14 5.74307e-14 0)
(1.01495e-14 -1.01521e-14 0)
(-4.44858e-15 4.4475e-15 0)
(1.05548e-15 -1.05768e-15 0)
(-3.40798e-16 3.38743e-16 0)
(5.79026e-17 -5.88948e-17 0)
(-5.12852e-17 5.12215e-17 0)
(-1.32349e-17 1.07693e-17 0)
(-1.48893e-17 1.30226e-17 0)
(-8.27181e-18 9.5124e-18 0)
(-6.61744e-18 4.64362e-18 0)
(4.96308e-18 -4.74324e-18 0)
(3.30872e-18 -7.37306e-18 0)
(4.96308e-18 -3.52916e-18 0)
(-0.02 -3.63788e-11 0)
(-3.4663e-11 3.4663e-11 0)
(4.43817e-13 -4.43823e-13 0)
(-2.41014e-12 2.41013e-12 0)
(3.36295e-13 -3.36299e-13 0)
(-1.34447e-13 1.34446e-13 0)
(5.57685e-14 -5.57726e-14 0)
(-1.01346e-14 1.01312e-14 0)
(4.11274e-15 -4.11579e-15 0)
(-1.16302e-15 1.15974e-15 0)
(2.36574e-16 -2.38199e-16 0)
(-1.20768e-16 1.17396e-16 0)
(9.92617e-18 -1.13312e-17 0)
(-1.48893e-17 1.29937e-17 0)
(-3.30872e-18 1.65337e-18 0)
(1.65436e-18 -4.84735e-18 0)
(4.96308e-18 -4.59209e-18 0)
(-3.30872e-18 -1.21608e-18 0)
(4.96308e-18 -2.1296e-18 0)
(3.30872e-18 -5.67518e-18 0)
(-0.02 3.53412e-11 0)
(3.36799e-11 -3.36799e-11 0)
(-4.25641e-13 4.25636e-13 0)
(2.33036e-12 -2.33037e-12 0)
(-3.23232e-13 3.23227e-13 0)
(1.27884e-13 -1.27886e-13 0)
(-5.39338e-14 5.39298e-14 0)
(9.25615e-15 -9.26057e-15 0)
(-4.11605e-15 4.11218e-15 0)
(9.69456e-16 -9.72318e-16 0)
(-2.99439e-16 2.97211e-16 0)
(7.11375e-17 -7.483e-17 0)
(-2.48154e-17 2.2941e-17 0)
(9.92617e-18 -1.22679e-17 0)
(6.61744e-18 -8.86021e-18 0)
(4.96308e-18 -7.05463e-18 0)
(9.92617e-18 -1.15715e-17 0)
(2.31611e-17 -2.43764e-17 0)
(9.92617e-18 -1.45202e-17 0)
(-6.61744e-18 6.4089e-18 0)
(-0.02 -3.34594e-11 0)
(-3.18844e-11 3.18844e-11 0)
(3.98769e-13 -3.98775e-13 0)
(-2.20032e-12 2.20031e-12 0)
(3.02866e-13 -3.02873e-13 0)
(-1.20332e-13 1.20329e-13 0)
(5.00328e-14 -5.00388e-14 0)
(-8.89881e-15 8.89438e-15 0)
(3.63463e-15 -3.63801e-15 0)
(-9.94271e-16 9.90508e-16 0)
(2.34919e-16 -2.40555e-16 0)
(-6.94832e-17 6.64081e-17 0)
(3.97047e-17 -4.14697e-17 0)
(9.92617e-18 -1.44526e-17 0)
(1.98523e-17 -2.28939e-17 0)
(2.15067e-17 -2.39903e-17 0)
(2.31611e-17 -2.61914e-17 0)
(1.98523e-17 -2.22797e-17 0)
(8.27181e-18 -9.08558e-18 0)
(-6.61744e-18 4.20079e-18 0)
(-0.02 3.07599e-11 0)
(2.93197e-11 -2.93197e-11 0)
(-3.63519e-13 3.63512e-13 0)
(2.01533e-12 -2.01534e-12 0)
(-2.79767e-13 2.79764e-13 0)
(1.08845e-13 -1.08851e-13 0)
(-4.60971e-14 4.60905e-14 0)
(7.84498e-15 -7.8487e-15 0)
(-3.37986e-15 3.37613e-15 0)
(8.70194e-16 -8.74291e-16 0)
(-1.96869e-16 1.91911e-16 0)
(1.07533e-16 -1.0944e-16 0)
(1.98523e-17 -2.34834e-17 0)
(4.46678e-17 -5.02117e-17 0)
(3.30872e-17 -3.59177e-17 0)
(2.48154e-17 -2.82062e-17 0)
(2.81241e-17 -3.24276e-17 0)
(4.30134e-17 -4.32287e-17 0)
(1.32349e-17 -1.92865e-17 0)
(-1.98523e-17 1.98106e-17 0)
(-0.02 -2.74201e-11 0)
(-2.61385e-11 2.61385e-11 0)
(3.19872e-13 -3.19878e-13 0)
(-1.79271e-12 1.7927e-12 0)
(2.5122e-13 -2.51225e-13 0)
(-9.6532e-14 9.65261e-14 0)
(4.07271e-14 -4.07344e-14 0)
(-7.01449e-15 7.00941e-15 0)
(2.96958e-15 -2.9741e-15 0)
(-6.99795e-16 6.93799e-16 0)
(2.68007e-16 -2.70916e-16 0)
(8.27181e-18 -1.36788e-17 0)
(8.60268e-17 -9.09749e-17 0)
(5.45939e-17 -5.70045e-17 0)
(4.63221e-17 -5.29613e-17 0)
(4.63221e-17 -4.72966e-17 0)
(4.30134e-17 -4.74719e-17 0)
(4.46678e-17 -4.83551e-17 0)
(1.65436e-17 -1.95781e-17 0)
(-2.31611e-17 2.01292e-17 0)
(-0.02 2.35244e-11 0)
(2.24292e-11 -2.24292e-11 0)
(-2.69707e-13 2.697e-13 0)
(1.53325e-12 -1.53326e-12 0)
(-2.20222e-13 2.20216e-13 0)
(8.17883e-14 -8.1795e-14 0)
(-3.49186e-14 3.49133e-14 0)
(6.07812e-15 -6.0852e-15 0)
(-2.33596e-15 2.33169e-15 0)
(7.80858e-16 -7.84961e-16 0)
(-3.63959e-17 3.32361e-17 0)
(1.65436e-16 -1.71272e-16 0)
(8.76811e-17 -9.24303e-17 0)
(9.09899e-17 -9.53151e-17 0)
(6.78288e-17 -7.27666e-17 0)
(5.45939e-17 -5.82392e-17 0)
(5.29396e-17 -5.63682e-17 0)
(5.79026e-17 -6.1495e-17 0)
(1.8198e-17 -2.53927e-17 0)
(-3.14329e-17 3.00098e-17 0)
(-0.02 -1.92035e-11 0)
(-1.83146e-11 1.83146e-11 0)
(2.1557e-13 -2.15577e-13 0)
(-1.25162e-12 1.25162e-12 0)
(1.86182e-13 -1.86189e-13 0)
(-6.61811e-14 6.61747e-14 0)
(2.89497e-14 -2.89551e-14 0)
(-4.67853e-15 4.67178e-15 0)
(2.2367e-15 -2.24166e-15 0)
(-3.09366e-16 3.04661e-16 0)
(3.24255e-16 -3.29711e-16 0)
(1.19114e-16 -1.23796e-16 0)
(1.47238e-16 -1.52443e-16 0)
(1.0257e-16 -1.07527e-16 0)
(8.27181e-17 -8.71038e-17 0)
(6.61744e-17 -7.13295e-17 0)
(6.78288e-17 -6.96025e-17 0)
(6.28657e-17 -6.80634e-17 0)
(1.98523e-17 -2.41531e-17 0)
(-3.14329e-17 3.12382e-17 0)
(-0.02 1.46194e-11 0)
(1.39489e-11 -1.39489e-11 0)
(-1.58721e-13 1.58715e-13 0)
(9.42271e-13 -9.42278e-13 0)
(-1.45526e-13 1.4552e-13 0)
(4.87557e-14 -4.87605e-14 0)
(-2.09359e-14 2.09299e-14 0)
(4.02672e-15 -4.03192e-15 0)
(-1.02901e-15 1.02406e-15 0)
(6.94832e-16 -7.00128e-16 0)
(1.58819e-16 -1.64129e-16 0)
(2.34919e-16 -2.39874e-16 0)
(1.58819e-16 -1.64446e-16 0)
(1.34003e-16 -1.37462e-16 0)
(9.92617e-17 -1.04061e-16 0)
(7.7755e-17 -8.09679e-17 0)
(6.94832e-17 -7.2935e-17 0)
(6.61744e-17 -6.96973e-17 0)
(1.8198e-17 -2.16735e-17 0)
(-3.80503e-17 3.31338e-17 0)
(-0.02 -1.02665e-11 0)
(-9.97613e-12 9.97613e-12 0)
(3.11561e-13 -3.11568e-13 0)
(-7.13516e-13 7.13511e-13 0)
(1.31841e-13 -1.31847e-13 0)
(-3.88097e-14 3.8803e-14 0)
(1.79697e-14 -1.79746e-14 0)
(-2.44845e-15 2.44474e-15 0)
(1.68414e-15 -1.68978e-15 0)
(7.44463e-17 -7.86982e-17 0)
(3.83812e-16 -3.88858e-16 0)
(2.13413e-16 -2.17712e-16 0)
(1.98523e-16 -2.01917e-16 0)
(1.43929e-16 -1.49457e-16 0)
(1.09188e-16 -1.13868e-16 0)
(8.43724e-17 -8.88918e-17 0)
(7.94093e-17 -8.31878e-17 0)
(7.94093e-17 -8.26582e-17 0)
(2.64698e-17 -3.13277e-17 0)
(-4.30134e-17 4.11733e-17 0)
(-0.02 4.19481e-12 0)
(4.15276e-12 -4.15276e-12 0)
(-2.46366e-13 2.46364e-13 0)
(3.34494e-13 -3.34496e-13 0)
(-6.63647e-14 6.63624e-14 0)
(2.30552e-14 -2.30587e-14 0)
(-7.2279e-15 7.22638e-15 0)
(2.60562e-15 -2.60838e-15 0)
(-5.79026e-17 5.34219e-17 0)
(6.12114e-16 -6.12589e-16 0)
(2.81241e-16 -2.83611e-16 0)
(2.69661e-16 -2.72944e-16 0)
(2.00178e-16 -2.00033e-16 0)
(1.53856e-16 -1.5658e-16 0)
(1.1746e-16 -1.18782e-16 0)
(9.09899e-17 -9.39643e-17 0)
(9.5953e-17 -9.68308e-17 0)
(1.05879e-16 -1.0833e-16 0)
(4.46678e-17 -4.48304e-17 0)
(-6.12114e-17 6.12901e-17 0)
)
;

boundaryField
{
    movingWall
    {
        type            extrapolatedCalculated;
        value           nonuniform List<vector> 
20
(
(-0.02 4.19481e-12 0)
(4.15276e-12 -4.15276e-12 0)
(-2.46366e-13 2.46364e-13 0)
(3.34494e-13 -3.34496e-13 0)
(-6.63647e-14 6.63624e-14 0)
(2.30552e-14 -2.30587e-14 0)
(-7.2279e-15 7.22638e-15 0)
(2.60562e-15 -2.60838e-15 0)
(-5.79026e-17 5.34219e-17 0)
(6.12114e-16 -6.12589e-16 0)
(2.81241e-16 -2.83611e-16 0)
(2.69661e-16 -2.72944e-16 0)
(2.00178e-16 -2.00033e-16 0)
(1.53856e-16 -1.5658e-16 0)
(1.1746e-16 -1.18782e-16 0)
(9.09899e-17 -9.39643e-17 0)
(9.5953e-17 -9.68308e-17 0)
(1.05879e-16 -1.0833e-16 0)
(4.46678e-17 -4.48304e-17 0)
(-6.12114e-17 6.12901e-17 0)
)
;
    }
    fixedWalls
    {
        type            extrapolatedCalculated;
        value           nonuniform List<vector> 
60
(
(-0.02 -2.23898e-12 0)
(-0.02 6.63355e-12 0)
(-0.02 -1.14842e-11 0)
(-0.02 1.68008e-11 0)
(-0.02 -2.19078e-11 0)
(-0.02 2.65566e-11 0)
(-0.02 -3.0458e-11 0)
(-0.02 3.34381e-11 0)
(-0.02 -3.54566e-11 0)
(-0.02 3.64051e-11 0)
(-0.02 -3.63788e-11 0)
(-0.02 3.53412e-11 0)
(-0.02 -3.34594e-11 0)
(-0.02 3.07599e-11 0)
(-0.02 -2.74201e-11 0)
(-0.02 2.35244e-11 0)
(-0.02 -1.92035e-11 0)
(-0.02 1.46194e-11 0)
(-0.02 -1.02665e-11 0)
(-0.02 4.19481e-12 0)
(3.80503e-17 -3.63976e-17 0)
(3.47416e-17 -3.35331e-17 0)
(3.47416e-17 -3.42503e-17 0)
(2.81241e-17 -2.61628e-17 0)
(3.30872e-17 -3.3491e-17 0)
(2.31611e-17 -2.08877e-17 0)
(2.64698e-17 -2.48546e-17 0)
(1.32349e-17 -1.33815e-17 0)
(1.48893e-17 -1.52318e-17 0)
(4.96308e-18 -3.52916e-18 0)
(3.30872e-18 -5.67518e-18 0)
(-6.61744e-18 6.4089e-18 0)
(-6.61744e-18 4.20079e-18 0)
(-1.98523e-17 1.98106e-17 0)
(-2.31611e-17 2.01292e-17 0)
(-3.14329e-17 3.00098e-17 0)
(-3.14329e-17 3.12382e-17 0)
(-3.80503e-17 3.31338e-17 0)
(-4.30134e-17 4.11733e-17 0)
(-6.12114e-17 6.12901e-17 0)
(-0.02 -2.23898e-12 0)
(-2.02088e-12 2.02089e-12 0)
(-6.85584e-14 6.85749e-14 0)
(-1.51842e-13 1.51856e-13 0)
(1.31489e-14 -1.31366e-14 0)
(-9.26608e-15 9.2764e-15 0)
(1.58322e-15 -1.57615e-15 0)
(-1.45749e-15 1.46538e-15 0)
(-4.48332e-16 4.53765e-16 0)
(-4.94654e-16 5.00167e-16 0)
(-2.99439e-16 3.05012e-16 0)
(-2.38228e-16 2.41679e-16 0)
(-1.80325e-16 1.84031e-16 0)
(-1.37312e-16 1.42819e-16 0)
(-1.05879e-16 1.08481e-16 0)
(-8.43724e-17 8.78462e-17 0)
(-8.60268e-17 8.80756e-17 0)
(-8.93355e-17 9.32353e-17 0)
(-3.80503e-17 4.38923e-17 0)
(3.80503e-17 -3.63976e-17 0)
)
;
    }
    frontAndBack
    {
        type            empty;
    }
}


// ************************************************************************* //
