/*--------------------------------*- C++ -*----------------------------------*\
| =========                 |                                                 |
| \\      /  F ield         | OpenFOAM: The Open Source CFD Toolbox           |
|  \\    /   O peration     | Version:  2312                                  |
|   \\  /    A nd           | Website:  www.openfoam.com                      |
|    \\/     M anipulation  |                                                 |
\*---------------------------------------------------------------------------*/
FoamFile
{
    version     2.0;
    format      ascii;
    arch        "LSB;label=32;scalar=64";
    class       volVectorField;
    location    "3.75";
    object      LambVectorField;
}
// * * * * * * * * * * * * * * * * * * * * * * * * * * * * * * * * * * * * * //

dimensions      [0 1 -2 0 0 0 0];

internalField   nonuniform List<vector> 
400
(
(-1.36128e-12 -1.03617e-05 -1.03617e-05)
(-3.85648e-13 1.24827e-05 -0)
(-2.16123e-14 -2.94972e-06 -2.94972e-06)
(-1.20664e-15 7.00692e-07 -0)
(-6.72165e-17 -1.65395e-07 -1.65395e-07)
(-3.76201e-18 3.93577e-08 -0)
(-2.07623e-19 -9.21753e-09 -9.21753e-09)
(-1.17662e-20 2.25416e-09 -0)
(-6.1028e-22 -4.82227e-10 -4.82227e-10)
(-4.02333e-23 1.5184e-10 -0)
(-6.64338e-25 -8.03277e-12 -8.03277e-12)
(-8.13347e-26 2.27061e-11 -0)
(1.29331e-25 1.00632e-11 1.00632e-11)
(5.70982e-26 8.95685e-12 0)
(3.47496e-26 6.1149e-12 6.1149e-12)
(1.9858e-26 4.33023e-12 0)
(1.21924e-26 2.61395e-12 2.61395e-12)
(3.39809e-27 8.09806e-13 0)
(-1.42968e-27 -5.65223e-13 -5.65223e-13)
(3.59161e-28 -1.98787e-13 -0)
(-1.39794e-12 1.06388e-05 1.06388e-05)
(-3.87375e-13 -1.25465e-05 0)
(-2.1725e-14 2.97327e-06 2.97327e-06)
(-1.2092e-15 -7.04465e-07 0)
(-6.72039e-17 1.66888e-07 1.66888e-07)
(-3.76272e-18 -3.95263e-08 0)
(-2.05081e-19 9.36182e-09 9.36182e-09)
(-1.17711e-20 -2.21521e-09 0)
(-5.8464e-22 5.25415e-10 5.25415e-10)
(-4.21456e-23 -1.23416e-10 0)
(-5.45832e-25 3.00676e-11 3.00676e-11)
(-3.16624e-25 -6.39765e-12 0)
(5.27306e-26 2.18446e-12 2.18446e-12)
(3.79219e-27 1.72734e-13 0)
(8.49767e-27 5.25279e-13 5.25279e-13)
(1.29041e-27 9.79249e-14 0)
(-3.0414e-27 -2.33419e-13 -2.33419e-13)
(8.6815e-27 6.13254e-13 0)
(1.27358e-26 2.00402e-12 2.00402e-12)
(-8.3094e-28 1.55559e-13 -0)
(-1.39444e-12 -1.06066e-05 -1.06066e-05)
(-3.86852e-13 1.25313e-05 -0)
(-2.16954e-14 -2.96535e-06 -2.96535e-06)
(-1.20321e-15 7.01547e-07 -0)
(-6.72259e-17 -1.65945e-07 -1.65945e-07)
(-3.7181e-18 3.92468e-08 -0)
(-2.09289e-19 -9.27948e-09 -9.27948e-09)
(-1.10834e-20 2.19452e-09 -0)
(-6.99466e-22 -5.17883e-10 -5.17883e-10)
(-2.3632e-23 1.23238e-10 -0)
(-3.87595e-24 -2.83577e-11 -2.83577e-11)
(2.89949e-25 7.39027e-12 0)
(-4.36949e-26 -9.23232e-13 -9.23232e-13)
(3.99895e-26 1.20134e-12 0)
(1.36551e-26 5.12556e-13 5.12556e-13)
(3.26544e-27 1.52694e-13 0)
(-9.04249e-27 -4.24143e-13 -4.24143e-13)
(2.1677e-26 9.57239e-13 0)
(3.34491e-26 3.2188e-12 3.2188e-12)
(-1.4511e-27 1.6623e-13 -0)
(-1.39561e-12 1.05975e-05 1.05975e-05)
(-3.87812e-13 -1.25432e-05 0)
(-2.17306e-14 2.96674e-06 2.96674e-06)
(-1.20595e-15 -7.01535e-07 0)
(-6.71127e-17 1.65867e-07 1.65867e-07)
(-3.75057e-18 -3.92092e-08 0)
(-2.04574e-19 9.26859e-09 9.26859e-09)
(-1.19015e-20 -2.18918e-09 0)
(-5.61268e-22 5.1845e-10 5.1845e-10)
(-4.81969e-23 -1.21228e-10 0)
(6.09913e-25 2.98173e-11 2.98173e-11)
(-5.11854e-25 -6.00029e-12 0)
(1.33568e-25 2.49083e-12 2.49083e-12)
(3.40728e-26 7.40215e-13 0)
(3.51117e-26 1.00009e-12 1.00009e-12)
(2.69515e-27 9.38691e-14 0)
(-1.54622e-26 -5.42953e-13 -5.42953e-13)
(4.13865e-26 1.33986e-12 0)
(5.92646e-26 4.3183e-12 4.3183e-12)
(-2.63591e-27 2.24291e-13 -0)
(-1.39465e-12 -1.05562e-05 -1.05562e-05)
(-3.90034e-13 1.25645e-05 -0)
(-2.18544e-14 -2.97133e-06 -2.97133e-06)
(-1.21372e-15 7.02518e-07 -0)
(-6.77164e-17 -1.66076e-07 -1.66076e-07)
(-3.76183e-18 3.92575e-08 -0)
(-2.11005e-19 -9.27691e-09 -9.27691e-09)
(-1.12616e-20 2.19374e-09 -0)
(-7.19222e-22 -5.16949e-10 -5.16949e-10)
(-2.12372e-23 1.23526e-10 -0)
(-4.62491e-24 -2.77611e-11 -2.77611e-11)
(5.05619e-25 7.77543e-12 0)
(-3.89648e-26 -5.44999e-13 -5.44999e-13)
(9.30853e-26 1.74312e-12 0)
(4.60468e-26 1.07208e-12 1.07208e-12)
(7.98815e-27 2.2941e-13 0)
(-2.4078e-26 -6.88636e-13 -6.88636e-13)
(6.02335e-26 1.60021e-12 0)
(8.93375e-26 5.31952e-12 5.31952e-12)
(-3.8258e-27 2.59534e-13 -0)
(-1.39718e-12 1.05222e-05 1.05222e-05)
(-3.93826e-13 -1.26078e-05 0)
(-2.20723e-14 2.98185e-06 2.98185e-06)
(-1.22795e-15 -7.05095e-07 0)
(-6.85137e-17 1.66718e-07 1.66718e-07)
(-3.83153e-18 -3.94148e-08 0)
(-2.10937e-19 9.31979e-09 9.31979e-09)
(-1.22101e-20 -2.20142e-09 0)
(-5.86173e-22 5.2211e-10 5.2211e-10)
(-5.12601e-23 -1.21746e-10 0)
(1.05588e-24 3.02933e-11 3.02933e-11)
(-6.13666e-25 -5.82395e-12 0)
(2.12347e-25 2.9512e-12 2.9512e-12)
(7.39821e-26 1.18742e-12 0)
(6.59735e-26 1.35484e-12 1.35484e-12)
(9.35381e-27 2.33362e-13 0)
(-3.1593e-26 -7.87331e-13 -7.87331e-13)
(8.63792e-26 1.9803e-12 0)
(1.18451e-25 6.24463e-12 6.24463e-12)
(-3.5622e-27 2.03883e-13 -0)
(-1.40275e-12 -1.04908e-05 -1.04908e-05)
(-3.99307e-13 1.2673e-05 -0)
(-2.23931e-14 -2.99826e-06 -2.99826e-06)
(-1.24828e-15 7.0923e-07 -0)
(-6.98281e-17 -1.67758e-07 -1.67758e-07)
(-3.89624e-18 3.96822e-08 -0)
(-2.18999e-19 -9.38381e-09 -9.38381e-09)
(-1.18342e-20 2.22159e-09 -0)
(-7.50554e-22 -5.23401e-10 -5.23401e-10)
(-2.25187e-23 1.25922e-10 -0)
(-5.0427e-24 -2.77764e-11 -2.77764e-11)
(6.49286e-25 8.34641e-12 0)
(1.94935e-27 2.26973e-14 2.26973e-14)
(1.50966e-25 2.29049e-12 0)
(7.94961e-26 1.47861e-12 1.47861e-12)
(1.73808e-26 3.94332e-13 0)
(-3.21285e-26 -7.23621e-13 -7.23621e-13)
(1.07522e-25 2.24993e-12 0)
(1.42645e-25 6.943e-12 6.943e-12)
(-1.58268e-27 8.01618e-14 -0)
(-1.41366e-12 1.04798e-05 1.04798e-05)
(-4.06432e-13 -1.27634e-05 0)
(-2.28092e-14 3.02101e-06 3.02101e-06)
(-1.27441e-15 -7.14962e-07 0)
(-7.1381e-17 1.6921e-07 1.6921e-07)
(-4.00345e-18 -4.00443e-08 0)
(-2.22164e-19 9.48011e-09 9.48011e-09)
(-1.28611e-20 -2.24141e-09 0)
(-6.27524e-22 5.329e-10 5.329e-10)
(-5.46463e-23 -1.23706e-10 0)
(1.26377e-24 3.16073e-11 3.16073e-11)
(-6.44159e-25 -5.50583e-12 0)
(2.87702e-25 3.48419e-12 3.48419e-12)
(1.22583e-25 1.6996e-12 0)
(1.04919e-25 1.84379e-12 1.84379e-12)
(2.20951e-26 4.68296e-13 0)
(-3.61522e-26 -7.63637e-13 -7.63637e-13)
(1.27596e-25 2.50074e-12 0)
(1.59322e-25 7.4029e-12 7.4029e-12)
(-3.08368e-28 1.42431e-14 -0)
(-1.42898e-12 -1.04841e-05 -1.04841e-05)
(-4.15072e-13 1.28753e-05 -0)
(-2.33102e-14 -3.04915e-06 -3.04915e-06)
(-1.30563e-15 7.22043e-07 -0)
(-7.33012e-17 -1.70984e-07 -1.70984e-07)
(-4.10528e-18 4.04959e-08 -0)
(-2.32074e-19 -9.58791e-09 -9.58791e-09)
(-1.26044e-20 2.27387e-09 -0)
(-8.03142e-22 -5.35828e-10 -5.35828e-10)
(-2.41413e-23 1.29653e-10 -0)
(-5.47143e-24 -2.81326e-11 -2.81326e-11)
(7.62846e-25 8.90755e-12 0)
(2.11045e-26 2.22526e-13 2.22526e-13)
(1.95952e-25 2.67014e-12 0)
(1.04106e-25 1.73487e-12 1.73487e-12)
(2.49294e-26 5.06064e-13 0)
(-3.43744e-26 -6.94065e-13 -6.94065e-13)
(1.43329e-25 2.70691e-12 0)
(1.69607e-25 7.73935e-12 7.73935e-12)
(1.45882e-27 -6.31828e-14 -0)
(-1.44906e-12 1.05084e-05 1.05084e-05)
(-4.25023e-13 -1.30068e-05 0)
(-2.3884e-14 3.0821e-06 3.0821e-06)
(-1.34135e-15 -7.30278e-07 0)
(-7.53619e-17 1.73049e-07 1.73049e-07)
(-4.24497e-18 -4.10052e-08 0)
(-2.36599e-19 9.72123e-09 9.72123e-09)
(-1.37866e-20 -2.30094e-09 0)
(-6.71981e-22 5.4849e-10 5.4849e-10)
(-5.95981e-23 -1.27037e-10 0)
(1.49961e-24 3.29634e-11 3.29634e-11)
(-6.6613e-25 -5.27739e-12 0)
(3.54818e-25 3.97233e-12 3.97233e-12)
(1.66767e-25 2.14281e-12 0)
(1.39277e-25 2.27882e-12 2.27882e-12)
(3.73248e-26 7.40125e-13 0)
(-2.64888e-26 -5.27739e-13 -5.27739e-13)
(1.51963e-25 2.83835e-12 0)
(1.7267e-25 7.91719e-12 7.91719e-12)
(4.62253e-27 -1.92556e-13 -0)
(-1.47273e-12 -1.05483e-05 -1.05483e-05)
(-4.35875e-13 1.31516e-05 -0)
(-2.45093e-14 -3.11815e-06 -3.11815e-06)
(-1.37938e-15 7.39254e-07 -0)
(-7.76911e-17 -1.75272e-07 -1.75272e-07)
(-4.36294e-18 4.15642e-08 -0)
(-2.48381e-19 -9.85304e-09 -9.85304e-09)
(-1.34629e-20 2.34007e-09 -0)
(-8.72401e-22 -5.51804e-10 -5.51804e-10)
(-2.52413e-23 1.34086e-10 -0)
(-5.99081e-24 -2.87439e-11 -2.87439e-11)
(8.70875e-25 9.47895e-12 0)
(6.26443e-26 6.24264e-13 6.24264e-13)
(2.31592e-25 3.00932e-12 0)
(1.35931e-25 2.17854e-12 2.17854e-12)
(4.61895e-26 9.13468e-13 0)
(-2.61448e-26 -5.19993e-13 -5.19993e-13)
(1.51991e-25 2.85025e-12 0)
(1.69789e-25 7.99588e-12 7.99588e-12)
(7.23976e-27 -2.95925e-13 -0)
(-1.49947e-12 1.06029e-05 1.06029e-05)
(-4.47417e-13 -1.33061e-05 0)
(-2.51691e-14 3.15649e-06 3.15649e-06)
(-1.42013e-15 -7.48739e-07 0)
(-7.99643e-17 1.77625e-07 1.77625e-07)
(-4.52249e-18 -4.21377e-08 0)
(-2.52566e-19 1.00015e-08 1.00015e-08)
(-1.48478e-20 -2.36987e-09 0)
(-7.15321e-22 5.6568e-10 5.6568e-10)
(-6.53883e-23 -1.31054e-10 0)
(1.7146e-24 3.40573e-11 3.40573e-11)
(-7.08843e-25 -5.34497e-12 0)
(3.82831e-25 4.16718e-12 4.16718e-12)
(1.81807e-25 2.29289e-12 0)
(1.37524e-25 2.23179e-12 2.23179e-12)
(3.90194e-26 7.77316e-13 0)
(-2.33544e-26 -4.71703e-13 -4.71703e-13)
(1.49109e-25 2.87118e-12 0)
(1.61222e-25 7.85379e-12 7.85379e-12)
(9.55132e-27 -3.90863e-13 -0)
(-1.52783e-12 -1.0668e-05 -1.0668e-05)
(-4.59007e-13 1.3462e-05 -0)
(-2.58351e-14 -3.19493e-06 -3.19493e-06)
(-1.45964e-15 7.58214e-07 -0)
(-8.24136e-17 -1.79948e-07 -1.79948e-07)
(-4.63625e-18 4.2716e-08 -0)
(-2.65551e-19 -1.01361e-08 -1.01361e-08)
(-1.43383e-20 2.40982e-09 -0)
(-9.44538e-22 -5.68783e-10 -5.68783e-10)
(-2.64393e-23 1.38347e-10 -0)
(-6.47778e-24 -2.96683e-11 -2.96683e-11)
(9.1749e-25 9.85417e-12 0)
(5.43102e-26 5.40112e-13 5.40112e-13)
(2.37126e-25 3.12916e-12 0)
(1.32585e-25 2.1883e-12 2.1883e-12)
(4.4641e-26 9.20898e-13 0)
(-1.28653e-26 -2.70366e-13 -2.70366e-13)
(1.42674e-25 2.86357e-12 0)
(1.45351e-25 7.56245e-12 7.56245e-12)
(8.60298e-27 -3.59908e-13 -0)
(-1.55683e-12 1.07388e-05 1.07388e-05)
(-4.70524e-13 -1.36161e-05 0)
(-2.64894e-14 3.23284e-06 3.23284e-06)
(-1.49982e-15 -7.67507e-07 0)
(-8.45789e-17 1.82233e-07 1.82233e-07)
(-4.79771e-18 -4.32676e-08 0)
(-2.68198e-19 1.02781e-08 1.02781e-08)
(-1.5873e-20 -2.43763e-09 0)
(-7.59131e-22 5.82055e-10 5.82055e-10)
(-7.02699e-23 -1.35187e-10 0)
(1.69293e-24 3.51293e-11 3.51293e-11)
(-7.45673e-25 -5.67616e-12 0)
(3.61861e-25 4.11781e-12 4.11781e-12)
(1.56709e-25 2.08911e-12 0)
(1.29271e-25 2.25887e-12 2.25887e-12)
(3.71825e-26 8.04999e-13 0)
(-1.29094e-26 -2.87891e-13 -2.87891e-13)
(1.23087e-25 2.65516e-12 0)
(1.28379e-25 7.12483e-12 7.12483e-12)
(9.45551e-27 -4.16139e-13 -0)
(-1.58514e-12 -1.08131e-05 -1.08131e-05)
(-4.81203e-13 1.37599e-05 -0)
(-2.71025e-14 -3.26797e-06 -3.26797e-06)
(-1.53529e-15 7.76093e-07 -0)
(-8.68286e-17 -1.84321e-07 -1.84321e-07)
(-4.88987e-18 4.37834e-08 -0)
(-2.81163e-19 -1.03971e-08 -1.03971e-08)
(-1.51597e-20 2.47279e-09 -0)
(-1.00307e-21 -5.84603e-10 -5.84603e-10)
(-2.90746e-23 1.41703e-10 -0)
(-6.69844e-24 -3.10731e-11 -3.10731e-11)
(8.22419e-25 9.71207e-12 0)
(1.0264e-26 1.11374e-13 1.11374e-13)
(1.8018e-25 2.6664e-12 0)
(9.62172e-26 1.79619e-12 1.79619e-12)
(3.58491e-26 8.47616e-13 0)
(-5.89735e-27 -1.44705e-13 -1.44705e-13)
(1.04509e-25 2.48153e-12 0)
(1.03612e-25 6.50054e-12 6.50054e-12)
(8.78835e-27 -4.24103e-13 -0)
(-1.61154e-12 1.08838e-05 1.08838e-05)
(-4.91066e-13 -1.38915e-05 0)
(-2.766e-14 3.30007e-06 3.30007e-06)
(-1.56944e-15 -7.83902e-07 0)
(-8.85917e-17 1.86226e-07 1.86226e-07)
(-5.0336e-18 -4.42399e-08 0)
(-2.8173e-19 1.0514e-08 1.0514e-08)
(-1.66889e-20 -2.49549e-09 0)
(-8.07604e-22 5.95586e-10 5.95586e-10)
(-7.19165e-23 -1.39008e-10 0)
(1.0823e-24 3.54002e-11 3.54002e-11)
(-7.35606e-25 -6.28699e-12 0)
(2.78184e-25 3.80478e-12 3.80478e-12)
(9.95387e-26 1.60155e-12 0)
(8.48184e-26 1.82296e-12 1.82296e-12)
(2.24749e-26 6.0505e-13 0)
(-7.96436e-27 -2.23727e-13 -2.23727e-13)
(8.20119e-26 2.2699e-12 0)
(7.67298e-26 5.59552e-12 5.59552e-12)
(7.67041e-27 -4.21483e-13 -0)
(-1.63505e-12 -1.09509e-05 -1.09509e-05)
(-4.9936e-13 1.40034e-05 -0)
(-2.81365e-14 -3.32718e-06 -3.32718e-06)
(-1.59609e-15 7.90472e-07 -0)
(-9.03533e-17 -1.87811e-07 -1.87811e-07)
(-5.09182e-18 4.4629e-08 -0)
(-2.92956e-19 -1.06026e-08 -1.06026e-08)
(-1.58901e-20 2.52199e-09 -0)
(-1.02807e-21 -5.97146e-10 -5.97146e-10)
(-3.52055e-23 1.4409e-10 -0)
(-6.10911e-24 -3.2254e-11 -3.2254e-11)
(5.53026e-25 9.42229e-12 0)
(-2.30941e-26 -3.31314e-13 -3.31314e-13)
(1.09034e-25 2.23773e-12 0)
(5.37006e-26 1.39909e-12 1.39909e-12)
(2.02472e-26 6.78181e-13 0)
(-2.32512e-27 -8.04812e-14 -8.04812e-14)
(5.53458e-26 1.85433e-12 0)
(5.0181e-26 4.60836e-12 4.60836e-12)
(6.4602e-27 -4.26344e-13 -0)
(-1.6564e-12 1.10192e-05 1.10192e-05)
(-5.06351e-13 -1.40984e-05 0)
(-2.85322e-14 3.35025e-06 3.35025e-06)
(-1.62057e-15 -7.96054e-07 0)
(-9.15469e-17 1.89164e-07 1.89164e-07)
(-5.20432e-18 -4.49515e-08 0)
(-2.92242e-19 1.06846e-08 1.06846e-08)
(-1.71501e-20 -2.53776e-09 0)
(-8.72117e-22 6.04731e-10 6.04731e-10)
(-6.8055e-23 -1.42272e-10 0)
(-4.16424e-25 3.51396e-11 3.51396e-11)
(-6.00599e-25 -7.16258e-12 0)
(1.31094e-25 2.93956e-12 2.93956e-12)
(3.04173e-26 7.63871e-13 0)
(3.24033e-26 1.11362e-12 1.11362e-12)
(8.39943e-27 3.61068e-13 0)
(-2.90597e-27 -1.307e-13 -1.307e-13)
(2.95686e-26 1.31995e-12 0)
(3.10311e-26 3.65399e-12 3.65399e-12)
(4.16296e-27 -3.47778e-13 -0)
(-1.66862e-12 -1.10473e-05 -1.10473e-05)
(-5.11502e-13 1.41712e-05 -0)
(-2.88457e-14 -3.37036e-06 -3.37036e-06)
(-1.63705e-15 8.01514e-07 -0)
(-9.27548e-17 -1.90618e-07 -1.90618e-07)
(-5.2308e-18 4.53388e-08 -0)
(-2.99518e-19 -1.07825e-08 -1.07825e-08)
(-1.65334e-20 2.56586e-09 -0)
(-1.00984e-21 -6.09523e-10 -6.09523e-10)
(-4.44847e-23 1.45719e-10 -0)
(-4.81893e-24 -3.41045e-11 -3.41045e-11)
(1.62984e-25 8.47412e-12 0)
(-6.26085e-26 -1.69019e-12 -1.69019e-12)
(1.71668e-26 7.42359e-13 0)
(3.02322e-28 1.6101e-14 1.6101e-14)
(-5.4435e-27 -3.80929e-13 0)
(-1.11448e-26 -7.85771e-13 -7.85771e-13)
(9.45322e-27 5.94033e-13 0)
(1.83653e-26 2.66638e-12 2.66638e-12)
(-1.68958e-28 2.03301e-14 -0)
(-1.71022e-12 1.12823e-05 1.12823e-05)
(-5.18057e-13 -1.42577e-05 0)
(-2.94095e-14 3.4105e-06 3.4105e-06)
(-1.67471e-15 -8.10712e-07 0)
(-9.5723e-17 1.94147e-07 1.94147e-07)
(-5.44623e-18 -4.62342e-08 0)
(-3.14128e-19 1.11437e-08 1.11437e-08)
(-1.77107e-20 -2.60362e-09 0)
(-1.074e-21 6.75477e-10 6.75477e-10)
(-5.11592e-23 -1.23485e-10 0)
(-4.4995e-24 5.90283e-11 5.90283e-11)
(2.7613e-25 7.67606e-12 0)
(6.85619e-26 1.43893e-11 1.43893e-11)
(7.31349e-26 8.21517e-12 0)
(3.18893e-26 6.03564e-12 6.03564e-12)
(1.75088e-26 3.99522e-12 0)
(1.21193e-26 2.47096e-12 2.47096e-12)
(4.10878e-27 6.58902e-13 0)
(-2.2982e-27 -7.19403e-13 -7.19403e-13)
(1.40236e-27 -4.51753e-13 -0)
)
;

boundaryField
{
    movingWall
    {
        type            calculated;
        value           nonuniform List<vector> 
20
(
(0 1.23858e-05 -0)
(0 -1.45051e-05 -0)
(0 3.5214e-06 -0)
(0 -8.35891e-07 -0)
(0 2.03192e-07 -0)
(0 -4.86682e-08 -0)
(0 1.19277e-08 -0)
(0 -2.76781e-09 -0)
(0 7.77182e-10 -0)
(0 -1.1052e-10 -0)
(0 8.73037e-11 -0)
(0 2.36977e-11 -0)
(0 2.77537e-11 -0)
(0 1.76229e-11 -0)
(0 1.27089e-11 -0)
(0 8.91966e-12 -0)
(0 5.85428e-12 -0)
(0 1.23683e-12 -0)
(0 -2.70753e-12 -0)
(0 -1.10119e-12 -0)
)
;
    }
    fixedWalls
    {
        type            calculated;
        value           nonuniform List<vector> 
60
(
(0 -5.28641e-05 -0)
(0 5.31463e-05 -0)
(0 -5.31345e-05 -0)
(0 5.31971e-05 -0)
(0 -5.32952e-05 -0)
(0 5.34811e-05 -0)
(0 -5.37552e-05 -0)
(0 5.41321e-05 -0)
(0 -5.45977e-05 -0)
(0 5.51449e-05 -0)
(0 -5.57477e-05 -0)
(0 5.63915e-05 -0)
(0 -5.70425e-05 -0)
(0 5.76863e-05 -0)
(0 -5.82885e-05 -0)
(0 5.88392e-05 -0)
(0 -5.93091e-05 -0)
(0 5.97065e-05 -0)
(0 -5.99698e-05 -0)
(0 6.03912e-05 -0)
(0 -9.93758e-13 -0)
(0 -2.08245e-12 -0)
(0 -3.4918e-12 -0)
(0 -4.67377e-12 -0)
(0 -5.84221e-12 -0)
(0 -6.93449e-12 -0)
(0 -7.89741e-12 -0)
(0 -8.63299e-12 -0)
(0 -9.18134e-12 -0)
(0 -9.57537e-12 -0)
(0 -9.75884e-12 -0)
(0 -9.7746e-12 -0)
(0 -9.4529e-12 -0)
(0 -9.0346e-12 -0)
(0 -8.23467e-12 -0)
(0 -7.25234e-12 -0)
(0 -6.06102e-12 -0)
(0 -4.78807e-12 -0)
(0 -3.16166e-12 -0)
(0 -1.70249e-12 -0)
(0 -9.60232e-06 -0)
(0 1.23416e-05 -0)
(0 -2.89037e-06 -0)
(0 6.90404e-07 -0)
(0 -1.61322e-07 -0)
(0 3.84986e-08 -0)
(0 -8.87341e-09 -0)
(0 2.23242e-09 -0)
(0 -4.20164e-10 -0)
(0 1.74994e-10 -0)
(0 1.51614e-11 -0)
(0 3.80714e-11 -0)
(0 2.19193e-11 -0)
(0 1.74591e-11 -0)
(0 1.23025e-11 -0)
(0 8.76158e-12 -0)
(0 5.50127e-12 -0)
(0 1.45694e-12 -0)
(0 -1.88661e-12 -0)
(0 -4.60643e-13 -0)
)
;
    }
    frontAndBack
    {
        type            empty;
    }
}


// ************************************************************************* //
