/*--------------------------------*- C++ -*----------------------------------*\
| =========                 |                                                 |
| \\      /  F ield         | OpenFOAM: The Open Source CFD Toolbox           |
|  \\    /   O peration     | Version:  2312                                  |
|   \\  /    A nd           | Website:  www.openfoam.com                      |
|    \\/     M anipulation  |                                                 |
\*---------------------------------------------------------------------------*/
FoamFile
{
    version     2.0;
    format      ascii;
    arch        "LSB;label=32;scalar=64";
    class       volScalarField;
    location    "3.75";
    object      magSqrP;
}
// * * * * * * * * * * * * * * * * * * * * * * * * * * * * * * * * * * * * * //

dimensions      [0 4 -4 0 0 0 0];

internalField   nonuniform List<scalar> 
400
(
0
1.4596e-20
2.6952e-21
2.12981e-21
1.87835e-21
1.86217e-21
1.88703e-21
1.89873e-21
1.9102e-21
1.91755e-21
1.92354e-21
1.928e-21
1.93146e-21
1.93405e-21
1.93597e-21
1.93738e-21
1.93822e-21
1.9385e-21
1.93843e-21
1.93825e-21
3.46923e-20
0
2.4501e-21
4.04492e-22
2.1179e-21
1.76477e-21
1.91356e-21
1.88684e-21
1.9095e-21
1.91488e-21
1.92245e-21
1.92704e-21
1.93078e-21
1.93347e-21
1.93549e-21
1.93693e-21
1.93778e-21
1.93806e-21
1.93803e-21
1.93784e-21
0
3.21129e-19
9.33844e-22
5.87431e-21
1.37801e-21
1.96005e-21
1.80841e-21
1.89659e-21
1.89787e-21
1.91356e-21
1.91972e-21
1.92556e-21
1.92942e-21
1.93239e-21
1.93451e-21
1.93601e-21
1.93692e-21
1.93724e-21
1.93719e-21
1.93704e-21
9.95866e-20
0
2.17609e-21
0
2.32552e-21
1.62904e-21
1.92655e-21
1.86482e-21
1.9022e-21
1.90745e-21
1.91781e-21
1.92329e-21
1.92778e-21
1.93086e-21
1.93313e-21
1.93471e-21
1.93562e-21
1.93596e-21
1.93598e-21
1.93586e-21
0
9.61321e-19
1.31881e-21
1.10167e-20
1.16413e-21
2.04467e-21
1.75696e-21
1.89149e-21
1.88669e-21
1.90789e-21
1.91454e-21
1.92152e-21
1.92585e-21
1.92914e-21
1.93143e-21
1.93304e-21
1.93401e-21
1.9344e-21
1.93441e-21
1.93428e-21
1.31443e-19
0
1.4071e-21
0
2.56066e-21
1.56104e-21
1.95518e-21
1.85604e-21
1.8996e-21
1.90253e-21
1.91385e-21
1.91942e-21
1.92411e-21
1.92726e-21
1.92957e-21
1.93118e-21
1.93211e-21
1.93246e-21
1.93253e-21
1.93248e-21
0
1.66696e-18
2.40097e-21
1.57499e-20
1.07462e-21
2.12453e-21
1.74037e-21
1.89762e-21
1.88516e-21
1.90679e-21
1.91201e-21
1.91853e-21
1.92243e-21
1.92549e-21
1.92762e-21
1.92911e-21
1.93002e-21
1.93039e-21
1.93044e-21
1.93039e-21
1.22425e-19
0
6.45593e-22
0
2.72026e-21
1.55409e-21
1.9925e-21
1.86489e-21
1.90599e-21
1.90415e-21
1.91356e-21
1.91757e-21
1.92131e-21
1.9238e-21
1.92568e-21
1.92701e-21
1.92777e-21
1.92804e-21
1.92816e-21
1.92816e-21
0
2.10512e-18
4.16604e-21
1.87942e-20
1.11318e-21
2.20256e-21
1.75962e-21
1.9166e-21
1.89493e-21
1.91223e-21
1.91389e-21
1.91811e-21
1.92042e-21
1.92241e-21
1.92381e-21
1.92484e-21
1.92543e-21
1.92568e-21
1.92577e-21
1.92579e-21
9.39656e-20
0
2.32117e-22
0
2.80055e-21
1.60179e-21
2.03533e-21
1.8897e-21
1.92126e-21
1.91272e-21
1.91763e-21
1.91858e-21
1.92018e-21
1.92119e-21
1.92209e-21
1.92275e-21
1.92309e-21
1.92322e-21
1.92333e-21
1.92342e-21
0
2.11832e-18
5.81121e-21
1.92057e-20
1.23474e-21
2.26532e-21
1.80687e-21
1.94552e-21
1.91423e-21
1.92356e-21
1.92002e-21
1.92047e-21
1.92018e-21
1.92035e-21
1.92054e-21
1.92074e-21
1.92085e-21
1.92088e-21
1.92095e-21
1.92104e-21
6.38796e-20
0
1.31611e-22
0
2.82666e-21
1.69305e-21
2.07787e-21
1.92526e-21
1.94271e-21
1.92668e-21
1.92545e-21
1.92222e-21
1.92083e-21
1.91978e-21
1.91924e-21
1.91897e-21
1.91872e-21
1.91856e-21
1.91865e-21
1.91879e-21
0
1.74869e-18
6.51914e-21
1.7048e-20
1.40795e-21
2.30427e-21
1.87248e-21
1.97957e-21
1.93956e-21
1.93885e-21
1.92934e-21
1.92518e-21
1.92171e-21
1.9196e-21
1.91821e-21
1.91739e-21
1.91681e-21
1.91652e-21
1.91654e-21
1.91666e-21
4.00463e-20
0
2.2125e-22
0
2.80739e-21
1.8128e-21
2.11405e-21
1.96566e-21
1.96692e-21
1.94372e-21
1.93564e-21
1.92791e-21
1.92313e-21
1.91968e-21
1.91752e-21
1.91615e-21
1.91518e-21
1.91466e-21
1.91465e-21
1.91481e-21
0
1.17051e-18
6.11764e-21
1.32135e-20
1.61249e-21
2.31608e-21
1.94637e-21
2.01336e-21
1.96677e-21
1.95557e-21
1.94028e-21
1.93144e-21
1.92465e-21
1.92015e-21
1.91713e-21
1.91516e-21
1.91385e-21
1.91315e-21
1.91303e-21
1.91314e-21
2.33623e-20
0
5.7026e-22
0
2.74353e-21
1.94405e-21
2.13813e-21
2.00448e-21
1.98965e-21
1.96075e-21
1.9463e-21
1.93442e-21
1.92641e-21
1.92073e-21
1.91698e-21
1.91447e-21
1.91279e-21
1.91187e-21
1.91166e-21
1.91177e-21
0
5.91048e-19
4.98929e-21
8.87239e-21
1.83212e-21
2.29869e-21
2.01733e-21
2.04018e-21
1.99065e-21
1.97011e-21
1.95034e-21
1.93749e-21
1.92795e-21
1.9214e-21
1.91696e-21
1.91397e-21
1.91196e-21
1.91084e-21
1.91055e-21
1.91067e-21
1.22807e-20
0
1.31461e-21
2.47294e-22
2.63318e-21
2.06461e-21
2.14369e-21
2.0339e-21
2.0059e-21
1.97396e-21
1.95475e-21
1.93984e-21
1.92945e-21
1.92208e-21
1.9171e-21
1.91371e-21
1.91139e-21
1.91007e-21
1.90974e-21
1.90989e-21
2.43911e-22
1.71601e-19
3.85272e-21
4.94266e-21
2.0679e-21
2.2412e-21
2.07653e-21
2.05439e-21
2.00792e-21
1.98023e-21
1.95792e-21
1.94229e-21
1.93092e-21
1.92295e-21
1.9175e-21
1.91373e-21
1.91112e-21
1.90972e-21
1.90938e-21
1.90949e-21
4.6258e-21
0
3.27691e-21
1.30844e-21
2.52414e-21
2.11948e-21
2.1399e-21
2.05068e-21
2.01633e-21
1.98263e-21
1.96061e-21
1.94387e-21
1.93207e-21
1.92367e-21
1.91789e-21
1.91388e-21
1.91112e-21
1.90973e-21
1.90939e-21
1.9094e-21
)
;

boundaryField
{
    movingWall
    {
        type            calculated;
        value           nonuniform List<scalar> 
20
(
4.6258e-21
0
3.27691e-21
1.30844e-21
2.52414e-21
2.11948e-21
2.1399e-21
2.05068e-21
2.01633e-21
1.98263e-21
1.96061e-21
1.94387e-21
1.93207e-21
1.92367e-21
1.91789e-21
1.91388e-21
1.91112e-21
1.90973e-21
1.90939e-21
1.9094e-21
)
;
    }
    fixedWalls
    {
        type            calculated;
        value           nonuniform List<scalar> 
60
(
0
3.46923e-20
0
9.95866e-20
0
1.31443e-19
0
1.22425e-19
0
9.39656e-20
0
6.38796e-20
0
4.00463e-20
0
2.33623e-20
0
1.22807e-20
2.43911e-22
4.6258e-21
1.93825e-21
1.93784e-21
1.93704e-21
1.93586e-21
1.93428e-21
1.93248e-21
1.93039e-21
1.92816e-21
1.92579e-21
1.92342e-21
1.92104e-21
1.91879e-21
1.91666e-21
1.91481e-21
1.91314e-21
1.91177e-21
1.91067e-21
1.90989e-21
1.90949e-21
1.9094e-21
0
1.4596e-20
2.6952e-21
2.12981e-21
1.87835e-21
1.86217e-21
1.88703e-21
1.89873e-21
1.9102e-21
1.91755e-21
1.92354e-21
1.928e-21
1.93146e-21
1.93405e-21
1.93597e-21
1.93738e-21
1.93822e-21
1.9385e-21
1.93843e-21
1.93825e-21
)
;
    }
    frontAndBack
    {
        type            empty;
    }
}


// ************************************************************************* //
