/*--------------------------------*- C++ -*----------------------------------*\
| =========                 |                                                 |
| \\      /  F ield         | OpenFOAM: The Open Source CFD Toolbox           |
|  \\    /   O peration     | Version:  2312                                  |
|   \\  /    A nd           | Website:  www.openfoam.com                      |
|    \\/     M anipulation  |                                                 |
\*---------------------------------------------------------------------------*/
FoamFile
{
    version     2.0;
    format      ascii;
    arch        "LSB;label=32;scalar=64";
    class       volScalarField;
    location    "3.75";
    object      QField;
}
// * * * * * * * * * * * * * * * * * * * * * * * * * * * * * * * * * * * * * //

dimensions      [0 0 -2 0 0 0 0];

internalField   nonuniform List<scalar> 
400
(
3.14979e-12
9.65029e-13
9.4772e-14
5.98338e-15
4.47003e-16
3.72569e-17
1.63561e-18
2.7241e-19
-6.75743e-21
3.90402e-21
-5.14568e-22
8.86591e-23
-2.43463e-23
-1.69439e-24
-3.32277e-24
-2.55453e-24
-3.16093e-24
-3.50407e-24
-1.10904e-24
-5.6211e-25
5.89034e-12
1.70279e-12
1.67476e-13
9.73062e-15
7.72587e-16
5.53781e-17
3.35591e-18
2.86196e-19
1.3317e-20
1.62555e-21
-3.64138e-23
-1.27404e-24
-1.50239e-23
-7.06152e-24
-4.3994e-24
-2.93699e-24
-2.96622e-24
-3.18661e-24
-2.13966e-25
-4.2608e-25
5.48371e-12
1.43649e-12
1.44824e-13
7.19313e-15
6.31232e-16
3.77051e-17
2.76657e-18
1.5279e-19
1.58832e-20
2.31023e-23
1.42186e-22
-3.54526e-23
-6.81663e-24
-7.86358e-24
-3.93661e-24
-2.43354e-24
-2.60039e-24
-3.18674e-24
-4.53008e-27
-4.51771e-25
5.19174e-12
1.30812e-12
1.35987e-13
6.48681e-15
5.68715e-16
3.58166e-17
2.19219e-18
1.85336e-19
6.70572e-21
1.28446e-21
-8.83678e-23
1.22564e-23
-1.35026e-23
-5.11072e-24
-3.69893e-24
-2.16177e-24
-2.0004e-24
-2.23223e-24
9.23246e-26
-2.87954e-25
4.43284e-12
1.06841e-12
1.14984e-13
5.17673e-15
4.5812e-16
2.79289e-17
1.76254e-18
1.18023e-19
9.55729e-21
7.89643e-24
1.15934e-22
-2.86253e-23
-2.82988e-24
-6.12754e-24
-2.89673e-24
-1.62578e-24
-1.40088e-24
-2.22285e-24
2.9801e-25
-3.76442e-25
3.5519e-12
8.12555e-13
9.23171e-14
3.78771e-15
3.54786e-16
2.04608e-17
1.26035e-18
9.51371e-20
3.99871e-21
6.54156e-22
-6.65122e-23
1.25139e-23
-9.61956e-24
-3.42755e-24
-2.98257e-24
-1.38716e-24
-9.46275e-25
-1.08444e-24
8.27938e-25
-1.68156e-25
2.49937e-12
5.27501e-13
6.52604e-14
2.26749e-15
2.31638e-16
1.25962e-17
6.92126e-19
5.41007e-20
3.14393e-21
-4.4685e-23
6.32485e-23
-1.88216e-23
-8.66709e-25
-4.23778e-24
-2.00596e-24
-9.50207e-25
-4.55904e-25
-1.00564e-24
1.29517e-24
-1.81213e-25
1.45401e-12
2.58133e-13
3.92475e-14
8.38706e-16
1.26171e-16
4.69578e-18
2.86784e-19
1.82508e-20
1.63976e-22
1.90998e-22
-5.34226e-23
8.94793e-24
-6.56344e-24
-2.36833e-24
-1.96108e-24
-7.89742e-25
-2.43287e-25
-3.63816e-25
1.00719e-24
-6.38215e-26
3.89978e-13
-7.44838e-15
1.2331e-14
-4.82438e-16
1.1286e-17
-2.03714e-18
-2.16627e-19
-1.27641e-20
-1.10267e-21
-2.85359e-22
3.58091e-23
-1.63614e-23
-6.253e-25
-3.35788e-24
-1.73757e-24
-6.6507e-25
-3.68033e-27
-2.45151e-25
1.03441e-24
-7.66072e-26
-6.10854e-13
-2.48107e-13
-1.29008e-14
-1.64824e-15
-8.94296e-17
-8.46171e-18
-5.97996e-19
-4.02951e-20
-4.10504e-21
-1.62308e-23
-7.3113e-23
6.77607e-24
-5.33249e-24
-1.86279e-24
-1.32709e-24
-4.23826e-25
4.90449e-26
6.11677e-27
1.24637e-24
-1.34132e-26
-1.54772e-12
-4.68639e-13
-3.68825e-14
-2.67741e-15
-1.85792e-16
-1.41602e-17
-9.35354e-19
-7.46215e-20
-3.54124e-21
-6.26729e-22
2.88898e-23
-1.80977e-23
-1.01777e-24
-3.05879e-24
-1.21208e-24
-3.59359e-25
7.10392e-26
-1.66159e-25
1.66944e-24
-1.22549e-26
-2.38553e-12
-6.59944e-13
-5.86849e-14
-3.53828e-15
-2.73589e-16
-1.87327e-17
-1.31836e-18
-8.34552e-20
-8.12209e-21
-7.33373e-23
-1.12127e-22
5.50662e-24
-6.2464e-24
-2.27112e-24
-2.01068e-24
-5.19522e-25
5.17442e-26
-2.96855e-25
1.6014e-24
-1.06547e-26
-3.10978e-12
-8.22318e-13
-7.76992e-14
-4.26672e-15
-3.44818e-16
-2.33687e-17
-1.46478e-18
-1.24506e-19
-4.91569e-21
-9.6483e-22
3.20696e-23
-2.21053e-23
-2.6723e-24
-3.46643e-24
-1.70638e-24
-6.2382e-25
-1.20952e-25
-1.95126e-25
1.34445e-24
-7.86588e-26
-3.73123e-12
-9.58964e-13
-9.46123e-14
-4.85019e-15
-4.14949e-16
-2.61554e-17
-1.84914e-18
-1.13319e-19
-1.13064e-20
-7.57214e-23
-1.40379e-22
2.91667e-24
-8.21296e-24
-3.9025e-24
-2.23457e-24
-7.55005e-25
-2.73139e-25
-8.66734e-25
1.409e-24
-1.72079e-25
-4.21253e-12
-1.06155e-12
-1.0767e-13
-5.30312e-15
-4.58545e-16
-2.97219e-17
-1.80787e-18
-1.61017e-19
-5.56919e-21
-1.23801e-21
3.6094e-23
-2.91379e-23
-6.05668e-24
-5.75273e-24
-2.9522e-24
-1.19302e-24
-7.04376e-25
-9.97992e-25
1.22251e-24
-2.34362e-25
-4.60858e-12
-1.14585e-12
-1.19008e-13
-5.65096e-15
-5.08585e-16
-3.08431e-17
-2.18868e-18
-1.3095e-19
-1.33093e-20
-1.0236e-22
-1.64074e-22
-4.59409e-24
-1.14699e-23
-6.48902e-24
-3.75237e-24
-1.61213e-24
-1.06207e-24
-1.5179e-24
7.05609e-25
-4.04669e-25
-4.86179e-12
-1.19565e-12
-1.26267e-13
-5.88784e-15
-5.24889e-16
-3.35352e-17
-1.9793e-18
-1.81039e-19
-6.15461e-21
-1.29958e-21
7.73654e-24
-3.24754e-23
-1.05224e-23
-7.09925e-24
-3.84989e-24
-1.8001e-24
-1.66641e-24
-1.87467e-24
3.32237e-25
-4.22056e-25
-4.91017e-12
-1.18761e-12
-1.29068e-13
-5.90533e-15
-5.4961e-16
-3.28553e-17
-2.38278e-18
-1.41767e-19
-1.40832e-20
-2.80355e-22
-1.62061e-22
-1.42138e-23
-1.52095e-23
-8.36545e-24
-4.61752e-24
-2.29052e-24
-1.85239e-24
-2.26493e-24
6.47701e-25
-5.37799e-25
-5.19181e-12
-1.11935e-12
-1.19553e-13
-4.70336e-15
-4.09179e-16
-2.5453e-17
-1.26055e-18
-1.2159e-19
-3.61352e-21
-8.40268e-22
-1.00341e-23
-3.65685e-23
-1.53644e-23
-1.09472e-23
-5.80097e-24
-2.99588e-24
-2.52917e-24
-3.12223e-24
3.89907e-25
-8.40199e-25
-2.80545e-12
-5.54611e-13
-5.67142e-14
-1.92398e-15
-1.29142e-16
-1.21429e-17
4.69976e-19
-1.55859e-19
2.36751e-20
-4.46464e-21
7.87434e-22
-1.61582e-22
1.67798e-23
-1.06724e-23
-2.69341e-24
-2.73498e-24
-4.21746e-24
-5.31981e-24
-2.06353e-24
-1.3346e-24
)
;

boundaryField
{
    movingWall
    {
        type            calculated;
        value           nonuniform List<scalar> 
20
(
4.03964e-14
2.03301e-13
1.6312e-13
8.23178e-16
6.1598e-16
1.22815e-17
3.34508e-18
-1.82239e-19
6.47623e-20
-9.87241e-21
1.93939e-21
-3.45669e-22
6.1035e-23
-1.23062e-23
9.5737e-25
-2.37188e-24
-4.9481e-24
-5.90251e-24
-4.05929e-24
-1.45726e-24
)
;
    }
    fixedWalls
    {
        type            calculated;
        value           nonuniform List<scalar> 
60
(
1.64731e-11
3.07983e-11
2.86677e-11
2.71447e-11
2.31924e-11
1.86081e-11
1.31288e-11
7.6844e-12
2.13478e-12
-3.09322e-12
-7.99885e-12
-1.23965e-11
-1.62101e-11
-1.94921e-11
-2.2044e-11
-2.41504e-11
-2.55051e-11
-2.57804e-11
-2.72759e-11
-1.476e-11
-1.85054e-25
-4.84746e-25
-2.84686e-25
-3.40991e-25
-5.22845e-25
-4.6772e-25
-7.42249e-26
-2.64445e-25
-5.21585e-25
-2.54165e-25
-2.61426e-25
-4.98763e-27
-1.0671e-24
-6.33975e-25
-6.50221e-25
-5.43588e-25
-3.59578e-25
-3.64605e-25
-1.17059e-24
-6.95159e-25
5.4558e-13
5.08961e-13
-3.31988e-14
3.25884e-15
-1.44223e-16
1.5381e-17
-1.48473e-18
2.72179e-19
-4.36164e-20
7.60997e-21
-1.29116e-21
2.23744e-22
-4.13485e-23
5.16028e-24
-2.39054e-24
-2.20074e-24
-3.22595e-24
-3.05566e-24
-1.95908e-24
-5.87003e-25
)
;
    }
    frontAndBack
    {
        type            empty;
    }
}


// ************************************************************************* //
