/*--------------------------------*- C++ -*----------------------------------*\
| =========                 |                                                 |
| \\      /  F ield         | OpenFOAM: The Open Source CFD Toolbox           |
|  \\    /   O peration     | Version:  2312                                  |
|   \\  /    A nd           | Website:  www.openfoam.com                      |
|    \\/     M anipulation  |                                                 |
\*---------------------------------------------------------------------------*/
FoamFile
{
    version     2.0;
    format      ascii;
    arch        "LSB;label=32;scalar=64";
    class       volScalarField;
    location    "3.75";
    object      staticCoeffP;
}
// * * * * * * * * * * * * * * * * * * * * * * * * * * * * * * * * * * * * * //

dimensions      [0 0 0 0 0 0 0];

internalField   nonuniform List<scalar> 
400
(
0
2.41628e-10
1.03831e-10
9.22995e-11
8.668e-11
8.63056e-11
8.68798e-11
8.7149e-11
8.74119e-11
8.75797e-11
8.77165e-11
8.78178e-11
8.78968e-11
8.79554e-11
8.79994e-11
8.80314e-11
8.80505e-11
8.80567e-11
8.80553e-11
8.80509e-11
3.72517e-10
0
9.89968e-11
4.02238e-11
9.2041e-11
8.40186e-11
8.74882e-11
8.68754e-11
8.73959e-11
8.75189e-11
8.76916e-11
8.7796e-11
8.78813e-11
8.79425e-11
8.79883e-11
8.80211e-11
8.80402e-11
8.80469e-11
8.8046e-11
8.8042e-11
0
1.13336e-09
6.11178e-11
1.53288e-10
7.42433e-11
8.85447e-11
8.50506e-11
8.70997e-11
8.7129e-11
8.74887e-11
8.7629e-11
8.77622e-11
8.78502e-11
8.79177e-11
8.79661e-11
8.80003e-11
8.80207e-11
8.80283e-11
8.80269e-11
8.80234e-11
6.31147e-10
0
9.32969e-11
0
9.64473e-11
8.07225e-11
8.77849e-11
8.63669e-11
8.72284e-11
8.73488e-11
8.75855e-11
8.77107e-11
8.78129e-11
8.7883e-11
8.7935e-11
8.79705e-11
8.79914e-11
8.79989e-11
8.79994e-11
8.79967e-11
0
1.96094e-09
7.26308e-11
2.09921e-10
6.82387e-11
9.04361e-11
8.38321e-11
8.69824e-11
8.68723e-11
8.7359e-11
8.75109e-11
8.76703e-11
8.77689e-11
8.7844e-11
8.78959e-11
8.79328e-11
8.7955e-11
8.79639e-11
8.79639e-11
8.79612e-11
7.25102e-10
0
7.50227e-11
0
1.01206e-10
7.90199e-11
8.8435e-11
8.61635e-11
8.71689e-11
8.7236e-11
8.74953e-11
8.76224e-11
8.77294e-11
8.78009e-11
8.78537e-11
8.78906e-11
8.79115e-11
8.79194e-11
8.79212e-11
8.79199e-11
0
2.58221e-09
9.79994e-11
2.50997e-10
6.55627e-11
9.21854e-11
8.34355e-11
8.71232e-11
8.68368e-11
8.73337e-11
8.74532e-11
8.76019e-11
8.76912e-11
8.77609e-11
8.78093e-11
8.78435e-11
8.78639e-11
8.78724e-11
8.78737e-11
8.78724e-11
6.99785e-10
0
5.08171e-11
0
1.04312e-10
7.8844e-11
8.92748e-11
8.63687e-11
8.73155e-11
8.72733e-11
8.74882e-11
8.75802e-11
8.76654e-11
8.77223e-11
8.77654e-11
8.77955e-11
8.78129e-11
8.78191e-11
8.78217e-11
8.78217e-11
0
2.90181e-09
1.2909e-10
2.74184e-10
6.67288e-11
9.38627e-11
8.38956e-11
8.7558e-11
8.70615e-11
8.7458e-11
8.74962e-11
8.75926e-11
8.76454e-11
8.76907e-11
8.77227e-11
8.77458e-11
8.77596e-11
8.77654e-11
8.77671e-11
8.77676e-11
6.13076e-10
0
3.04707e-11
0
1.0584e-10
8.00449e-11
9.02292e-11
8.69411e-11
8.76645e-11
8.74691e-11
8.75815e-11
8.76033e-11
8.76397e-11
8.76628e-11
8.76832e-11
8.76983e-11
8.77063e-11
8.7709e-11
8.77116e-11
8.77138e-11
0
2.91089e-09
1.52462e-10
2.77169e-10
7.0278e-11
9.5191e-11
8.50147e-11
8.82161e-11
8.75038e-11
8.77169e-11
8.76361e-11
8.76463e-11
8.76397e-11
8.76437e-11
8.76477e-11
8.76526e-11
8.76552e-11
8.76557e-11
8.7657e-11
8.76592e-11
5.05488e-10
0
2.29443e-11
0
1.06333e-10
8.22933e-11
9.11671e-11
8.77556e-11
8.81526e-11
8.7788e-11
8.776e-11
8.76863e-11
8.76548e-11
8.76303e-11
8.76184e-11
8.76121e-11
8.76064e-11
8.76028e-11
8.76046e-11
8.76081e-11
0
2.64476e-09
1.61482e-10
2.61136e-10
7.50453e-11
9.60059e-11
8.65445e-11
8.89848e-11
8.80811e-11
8.80647e-11
8.78484e-11
8.77538e-11
8.76748e-11
8.76264e-11
8.75948e-11
8.75762e-11
8.75628e-11
8.75562e-11
8.75566e-11
8.75593e-11
4.00232e-10
0
2.97491e-11
0
1.05969e-10
8.51541e-11
9.19576e-11
8.86717e-11
8.86997e-11
8.81752e-11
8.79918e-11
8.7816e-11
8.77072e-11
8.76281e-11
8.75788e-11
8.75477e-11
8.75255e-11
8.75136e-11
8.75136e-11
8.75171e-11
0
2.1638e-09
1.56431e-10
2.299e-10
8.03118e-11
9.62515e-11
8.82352e-11
8.97411e-11
8.86966e-11
8.84435e-11
8.80971e-11
8.78964e-11
8.77418e-11
8.76392e-11
8.757e-11
8.75251e-11
8.74953e-11
8.74789e-11
8.74762e-11
8.74789e-11
3.05695e-10
0
4.77605e-11
0
1.04758e-10
8.81828e-11
9.24798e-11
8.95426e-11
8.92109e-11
8.85607e-11
8.82339e-11
8.79643e-11
8.77818e-11
8.76521e-11
8.75668e-11
8.75096e-11
8.74709e-11
8.74496e-11
8.74452e-11
8.74478e-11
0
1.53759e-09
1.4127e-10
1.88387e-10
8.56066e-11
9.58891e-11
8.98295e-11
9.03366e-11
8.92335e-11
8.87717e-11
8.83253e-11
8.80336e-11
8.78169e-11
8.76677e-11
8.75664e-11
8.7498e-11
8.74518e-11
8.74265e-11
8.74198e-11
8.74225e-11
2.21637e-10
0
7.25153e-11
3.14513e-11
1.02629e-10
9.08762e-11
9.26001e-11
9.01976e-11
8.95746e-11
8.88587e-11
8.84253e-11
8.80873e-11
8.78511e-11
8.76832e-11
8.75695e-11
8.74922e-11
8.74389e-11
8.74087e-11
8.74012e-11
8.74048e-11
3.12355e-11
8.28495e-10
1.24141e-10
1.40608e-10
9.09486e-11
9.46825e-11
9.11378e-11
9.06506e-11
8.96194e-11
8.89995e-11
8.84968e-11
8.81428e-11
8.78844e-11
8.77027e-11
8.75784e-11
8.74922e-11
8.74327e-11
8.74008e-11
8.73928e-11
8.73954e-11
1.36026e-10
0
1.14488e-10
7.23448e-11
1.00481e-10
9.20757e-11
9.2518e-11
9.05689e-11
8.98073e-11
8.90537e-11
8.85576e-11
8.81788e-11
8.79106e-11
8.77192e-11
8.75873e-11
8.74958e-11
8.74327e-11
8.74008e-11
8.73932e-11
8.73932e-11
)
;

boundaryField
{
    movingWall
    {
        type            calculated;
        value           nonuniform List<scalar> 
20
(
1.36026e-10
0
1.14488e-10
7.23448e-11
1.00481e-10
9.20757e-11
9.2518e-11
9.05689e-11
8.98073e-11
8.90537e-11
8.85576e-11
8.81788e-11
8.79106e-11
8.77192e-11
8.75873e-11
8.74958e-11
8.74327e-11
8.74008e-11
8.73932e-11
8.73932e-11
)
;
    }
    fixedWalls
    {
        type            calculated;
        value           nonuniform List<scalar> 
60
(
0
3.72517e-10
0
6.31147e-10
0
7.25102e-10
0
6.99785e-10
0
6.13076e-10
0
5.05488e-10
0
4.00232e-10
0
3.05695e-10
0
2.21637e-10
3.12355e-11
1.36026e-10
8.80509e-11
8.8042e-11
8.80234e-11
8.79967e-11
8.79612e-11
8.79199e-11
8.78724e-11
8.78217e-11
8.77676e-11
8.77138e-11
8.76592e-11
8.76081e-11
8.75593e-11
8.75171e-11
8.74789e-11
8.74478e-11
8.74225e-11
8.74048e-11
8.73954e-11
8.73932e-11
0
2.41628e-10
1.03831e-10
9.22995e-11
8.668e-11
8.63056e-11
8.68798e-11
8.7149e-11
8.74119e-11
8.75797e-11
8.77165e-11
8.78178e-11
8.78968e-11
8.79554e-11
8.79994e-11
8.80314e-11
8.80505e-11
8.80567e-11
8.80553e-11
8.80509e-11
)
;
    }
    frontAndBack
    {
        type            empty;
    }
}


// ************************************************************************* //
