/*--------------------------------*- C++ -*----------------------------------*\
| =========                 |                                                 |
| \\      /  F ield         | OpenFOAM: The Open Source CFD Toolbox           |
|  \\    /   O peration     | Version:  2312                                  |
|   \\  /    A nd           | Website:  www.openfoam.com                      |
|    \\/     M anipulation  |                                                 |
\*---------------------------------------------------------------------------*/
FoamFile
{
    version     2.0;
    format      ascii;
    arch        "LSB;label=32;scalar=64";
    class       volScalarField;
    location    "3.75";
    object      Uy;
}
// * * * * * * * * * * * * * * * * * * * * * * * * * * * * * * * * * * * * * //

dimensions      [0 1 -1 0 0 0 0];

internalField   nonuniform List<scalar> 
400
(
1.31377e-07
-3.08945e-08
7.32691e-09
-1.72206e-09
4.064e-10
-9.55851e-11
2.25248e-11
-5.21979e-12
1.26554e-12
-2.64971e-13
8.27035e-14
-3.58207e-15
1.2852e-14
6.37481e-15
5.68278e-15
4.5859e-15
4.66436e-15
4.19617e-15
2.52941e-15
-1.80677e-15
-1.314e-07
3.08752e-08
-7.30676e-09
1.71648e-09
-4.0269e-10
9.51955e-11
-2.19061e-11
5.31375e-12
-1.11272e-12
3.41493e-13
-1.81535e-14
4.94906e-14
2.41389e-14
2.1954e-14
1.61774e-14
1.31775e-14
1.30298e-14
1.41564e-14
6.35514e-15
-5.34165e-15
1.3147e-07
-3.0871e-08
7.31628e-09
-1.71507e-09
4.0511e-10
-9.47363e-11
2.2554e-11
-5.05048e-12
1.35063e-12
-1.9176e-13
1.36681e-13
3.92339e-14
4.73281e-14
3.32873e-14
2.66411e-14
2.13855e-14
2.13194e-14
2.26454e-14
1.03918e-14
-8.72949e-15
-1.31693e-07
3.09182e-08
-7.32474e-09
1.71901e-09
-4.04617e-10
9.56553e-11
-2.20717e-11
5.43651e-12
-1.08259e-12
3.97573e-13
2.0455e-14
8.53049e-14
5.36239e-14
4.6031e-14
3.51087e-14
2.87118e-14
2.84779e-14
3.08887e-14
1.37241e-14
-1.17522e-14
1.32116e-07
-3.10425e-08
7.35509e-09
-1.72767e-09
4.07744e-10
-9.58245e-11
2.27451e-11
-5.13352e-12
1.39128e-12
-1.71926e-13
1.66597e-13
6.50278e-14
7.14952e-14
5.34016e-14
4.2951e-14
3.48204e-14
3.49648e-14
3.7641e-14
1.67943e-14
-1.47411e-14
-1.32784e-07
3.12367e-08
-7.40222e-09
1.74154e-09
-4.10956e-10
9.72105e-11
-2.26333e-11
5.54646e-12
-1.1227e-12
4.21042e-13
3.48553e-14
1.05369e-13
7.19529e-14
6.23049e-14
4.86945e-14
4.00828e-14
4.01267e-14
4.36193e-14
1.89685e-14
-1.74718e-14
1.33712e-07
-3.15084e-08
7.46871e-09
-1.76005e-09
4.16244e-10
-9.81859e-11
2.33379e-11
-5.32692e-12
1.43399e-12
-1.7883e-13
1.81546e-13
7.77922e-14
8.58846e-14
6.591e-14
5.3764e-14
4.40766e-14
4.43997e-14
4.77891e-14
2.05452e-14
-1.97435e-14
-1.34893e-07
3.18436e-08
-7.55019e-09
1.78249e-09
-4.2185e-10
9.99755e-11
-2.34347e-11
5.73795e-12
-1.17756e-12
4.41742e-13
3.99836e-14
1.16996e-13
8.25736e-14
7.21249e-14
5.6904e-14
4.71818e-14
4.73421e-14
5.10235e-14
2.15216e-14
-2.16502e-14
1.36299e-07
-3.22379e-08
7.64481e-09
-1.80824e-09
4.28703e-10
-1.01375e-10
2.42048e-11
-5.54312e-12
1.49888e-12
-1.86199e-13
1.94487e-13
8.56405e-14
9.48406e-14
7.33864e-14
6.00077e-14
4.92613e-14
4.95261e-14
5.29494e-14
2.19149e-14
-2.30889e-14
-1.37896e-07
3.26769e-08
-7.74925e-09
1.83677e-09
-4.35495e-10
1.03523e-10
-2.43384e-11
5.99171e-12
-1.22515e-12
4.69139e-13
4.54931e-14
1.26223e-13
8.93223e-14
7.78265e-14
6.11179e-14
5.04304e-14
5.0193e-14
5.35394e-14
2.18096e-14
-2.40062e-14
1.39617e-07
-3.31424e-08
7.86021e-09
-1.86591e-09
4.43259e-10
-1.04969e-10
2.52086e-11
-5.75318e-12
1.581e-12
-1.88246e-13
2.0842e-13
9.18746e-14
1.00349e-13
7.69583e-14
6.23954e-14
5.0565e-14
5.02792e-14
5.33255e-14
2.12346e-14
-2.44649e-14
-1.4142e-07
3.3625e-08
-7.97375e-09
1.8967e-09
-4.50186e-10
1.07326e-10
-2.52527e-11
6.26525e-12
-1.26453e-12
4.98941e-13
5.03445e-14
1.32619e-13
9.1868e-14
7.92917e-14
6.16207e-14
5.01976e-14
4.95108e-14
5.1933e-14
2.05279e-14
-2.44365e-14
1.43216e-07
-3.40964e-08
8.08629e-09
-1.92511e-09
4.57985e-10
-1.08537e-10
2.61985e-11
-5.94995e-12
1.66063e-12
-1.91108e-13
2.1834e-13
9.31068e-14
1.00554e-13
7.57795e-14
6.05883e-14
4.84755e-14
4.75846e-14
4.98239e-14
1.922e-14
-2.39033e-14
-1.44973e-07
3.45564e-08
-8.19387e-09
1.95414e-09
-4.64126e-10
1.10884e-10
-2.60942e-11
6.51165e-12
-1.30423e-12
5.19796e-13
4.81915e-14
1.31369e-13
8.78769e-14
7.50124e-14
5.7228e-14
4.61895e-14
4.48412e-14
4.63579e-14
1.80185e-14
-2.2722e-14
1.46594e-07
-3.49713e-08
8.2934e-09
-1.97823e-09
4.71074e-10
-1.11683e-10
2.70424e-11
-6.13063e-12
1.71581e-12
-2.0518e-13
2.1557e-13
8.46801e-14
9.21575e-14
6.75743e-14
5.35673e-14
4.2294e-14
4.07543e-14
4.21148e-14
1.59391e-14
-2.07222e-14
-1.48068e-07
3.53502e-08
-8.38164e-09
2.00209e-09
-4.75722e-10
1.1378e-10
-2.67958e-11
6.68762e-12
-1.35598e-12
5.17356e-13
3.05733e-14
1.17004e-13
7.31144e-14
6.21514e-14
4.6528e-14
3.71456e-14
3.55986e-14
3.61302e-14
1.37127e-14
-1.81986e-14
1.49307e-07
-3.56599e-08
8.45659e-09
-2.01916e-09
4.81087e-10
-1.14092e-10
2.76306e-11
-6.30063e-12
1.72165e-12
-2.44331e-13
1.89406e-13
5.86933e-14
6.97046e-14
4.8725e-14
3.83826e-14
2.98552e-14
2.88903e-14
2.98469e-14
1.08891e-14
-1.51526e-14
-1.50319e-07
3.59156e-08
-8.51644e-09
2.03575e-09
-4.83954e-10
1.15776e-10
-2.73516e-11
6.75795e-12
-1.44216e-12
4.78346e-13
-1.18506e-14
8.38522e-14
4.45964e-14
3.98199e-14
2.90973e-14
2.32627e-14
2.2234e-14
2.24013e-14
8.49238e-15
-1.19702e-14
1.51044e-07
-3.60946e-08
8.55862e-09
-2.04245e-09
4.86599e-10
-1.15371e-10
2.7778e-11
-6.44361e-12
1.65676e-12
-3.05277e-13
1.41299e-13
1.92332e-14
3.70422e-14
2.31247e-14
1.87766e-14
1.42901e-14
1.41833e-14
1.59136e-14
6.88773e-15
-8.31073e-15
-1.51585e-07
3.63353e-08
-8.62322e-09
2.06573e-09
-4.93044e-10
1.17797e-10
-2.81889e-11
6.80233e-12
-1.58999e-12
4.14295e-13
-7.62261e-14
3.59729e-14
4.76477e-15
8.90242e-15
5.28351e-15
4.38243e-15
4.90471e-15
6.23579e-15
3.1946e-15
-3.10426e-15
)
;

boundaryField
{
    movingWall
    {
        type            calculated;
        value           uniform -0;
    }
    fixedWalls
    {
        type            calculated;
        value           uniform -0;
    }
    frontAndBack
    {
        type            empty;
    }
}


// ************************************************************************* //
