/*--------------------------------*- C++ -*----------------------------------*\
| =========                 |                                                 |
| \\      /  F ield         | OpenFOAM: The Open Source CFD Toolbox           |
|  \\    /   O peration     | Version:  2312                                  |
|   \\  /    A nd           | Website:  www.openfoam.com                      |
|    \\/     M anipulation  |                                                 |
\*---------------------------------------------------------------------------*/
FoamFile
{
    version     2.0;
    format      ascii;
    arch        "LSB;label=32;scalar=64";
    class       volVectorField;
    location    "3.75";
    object      vorticityField;
}
// * * * * * * * * * * * * * * * * * * * * * * * * * * * * * * * * * * * * * //

dimensions      [0 0 -1 0 0 0 0];

internalField   nonuniform List<vector> 
400
(
(0 -0 1.03617e-05)
(0 -0 -1.24827e-05)
(0 -0 2.94972e-06)
(0 -0 -7.00692e-07)
(0 -0 1.65395e-07)
(0 -0 -3.93577e-08)
(0 -0 9.21753e-09)
(0 -0 -2.25416e-09)
(0 -0 4.82227e-10)
(0 -0 -1.5184e-10)
(0 -0 8.03277e-12)
(0 -0 -2.27061e-11)
(0 -0 -1.00632e-11)
(0 -0 -8.95685e-12)
(0 -0 -6.1149e-12)
(0 -0 -4.33023e-12)
(0 -0 -2.61395e-12)
(0 -0 -8.09806e-13)
(0 -0 5.65223e-13)
(0 -0 1.98787e-13)
(0 -0 -1.06388e-05)
(0 -0 1.25465e-05)
(0 -0 -2.97327e-06)
(0 -0 7.04465e-07)
(0 -0 -1.66888e-07)
(0 -0 3.95263e-08)
(0 -0 -9.36182e-09)
(0 -0 2.21521e-09)
(0 -0 -5.25415e-10)
(0 -0 1.23416e-10)
(0 -0 -3.00676e-11)
(0 -0 6.39765e-12)
(0 -0 -2.18446e-12)
(0 -0 -1.72734e-13)
(0 -0 -5.25279e-13)
(0 -0 -9.79249e-14)
(0 -0 2.33419e-13)
(0 -0 -6.13254e-13)
(0 -0 -2.00402e-12)
(0 -0 -1.55559e-13)
(0 -0 1.06066e-05)
(0 -0 -1.25313e-05)
(0 -0 2.96535e-06)
(0 -0 -7.01547e-07)
(0 -0 1.65945e-07)
(0 -0 -3.92468e-08)
(0 -0 9.27948e-09)
(0 -0 -2.19452e-09)
(0 -0 5.17883e-10)
(0 -0 -1.23238e-10)
(0 -0 2.83577e-11)
(0 -0 -7.39027e-12)
(0 -0 9.23232e-13)
(0 -0 -1.20134e-12)
(0 -0 -5.12556e-13)
(0 -0 -1.52694e-13)
(0 -0 4.24143e-13)
(0 -0 -9.57239e-13)
(0 -0 -3.2188e-12)
(0 -0 -1.6623e-13)
(0 -0 -1.05975e-05)
(0 -0 1.25432e-05)
(0 -0 -2.96674e-06)
(0 -0 7.01535e-07)
(0 -0 -1.65867e-07)
(0 -0 3.92092e-08)
(0 -0 -9.26859e-09)
(0 -0 2.18918e-09)
(0 -0 -5.1845e-10)
(0 -0 1.21228e-10)
(0 -0 -2.98173e-11)
(0 -0 6.00029e-12)
(0 -0 -2.49083e-12)
(0 -0 -7.40215e-13)
(0 -0 -1.00009e-12)
(0 -0 -9.38691e-14)
(0 -0 5.42953e-13)
(0 -0 -1.33986e-12)
(0 -0 -4.3183e-12)
(0 -0 -2.24291e-13)
(0 -0 1.05562e-05)
(0 -0 -1.25645e-05)
(0 -0 2.97133e-06)
(0 -0 -7.02518e-07)
(0 -0 1.66076e-07)
(0 -0 -3.92575e-08)
(0 -0 9.27691e-09)
(0 -0 -2.19374e-09)
(0 -0 5.16949e-10)
(0 -0 -1.23526e-10)
(0 -0 2.77611e-11)
(0 -0 -7.77543e-12)
(0 -0 5.44999e-13)
(0 -0 -1.74312e-12)
(0 -0 -1.07208e-12)
(0 -0 -2.2941e-13)
(0 -0 6.88636e-13)
(0 -0 -1.60021e-12)
(0 -0 -5.31952e-12)
(0 -0 -2.59534e-13)
(0 -0 -1.05222e-05)
(0 -0 1.26078e-05)
(0 -0 -2.98185e-06)
(0 -0 7.05095e-07)
(0 -0 -1.66718e-07)
(0 -0 3.94148e-08)
(0 -0 -9.31979e-09)
(0 -0 2.20142e-09)
(0 -0 -5.2211e-10)
(0 -0 1.21746e-10)
(0 -0 -3.02933e-11)
(0 -0 5.82395e-12)
(0 -0 -2.9512e-12)
(0 -0 -1.18742e-12)
(0 -0 -1.35484e-12)
(0 -0 -2.33362e-13)
(0 -0 7.87331e-13)
(0 -0 -1.9803e-12)
(0 -0 -6.24463e-12)
(0 -0 -2.03883e-13)
(0 -0 1.04908e-05)
(0 -0 -1.2673e-05)
(0 -0 2.99826e-06)
(0 -0 -7.0923e-07)
(0 -0 1.67758e-07)
(0 -0 -3.96822e-08)
(0 -0 9.38381e-09)
(0 -0 -2.22159e-09)
(0 -0 5.23401e-10)
(0 -0 -1.25922e-10)
(0 -0 2.77764e-11)
(0 -0 -8.34641e-12)
(0 -0 -2.26973e-14)
(0 -0 -2.29049e-12)
(0 -0 -1.47861e-12)
(0 -0 -3.94332e-13)
(0 -0 7.23621e-13)
(0 -0 -2.24993e-12)
(0 -0 -6.943e-12)
(0 -0 -8.01618e-14)
(0 -0 -1.04798e-05)
(0 -0 1.27634e-05)
(0 -0 -3.02101e-06)
(0 -0 7.14962e-07)
(0 -0 -1.6921e-07)
(0 -0 4.00443e-08)
(0 -0 -9.48011e-09)
(0 -0 2.24141e-09)
(0 -0 -5.329e-10)
(0 -0 1.23706e-10)
(0 -0 -3.16073e-11)
(0 -0 5.50583e-12)
(0 -0 -3.48419e-12)
(0 -0 -1.6996e-12)
(0 -0 -1.84379e-12)
(0 -0 -4.68296e-13)
(0 -0 7.63637e-13)
(0 -0 -2.50074e-12)
(0 -0 -7.4029e-12)
(0 -0 -1.42431e-14)
(0 -0 1.04841e-05)
(0 -0 -1.28753e-05)
(0 -0 3.04915e-06)
(0 -0 -7.22043e-07)
(0 -0 1.70984e-07)
(0 -0 -4.04959e-08)
(0 -0 9.58791e-09)
(0 -0 -2.27387e-09)
(0 -0 5.35828e-10)
(0 -0 -1.29653e-10)
(0 -0 2.81326e-11)
(0 -0 -8.90755e-12)
(0 -0 -2.22526e-13)
(0 -0 -2.67014e-12)
(0 -0 -1.73487e-12)
(0 -0 -5.06064e-13)
(0 -0 6.94065e-13)
(0 -0 -2.70691e-12)
(0 -0 -7.73935e-12)
(0 -0 6.31828e-14)
(0 -0 -1.05084e-05)
(0 -0 1.30068e-05)
(0 -0 -3.0821e-06)
(0 -0 7.30278e-07)
(0 -0 -1.73049e-07)
(0 -0 4.10052e-08)
(0 -0 -9.72123e-09)
(0 -0 2.30094e-09)
(0 -0 -5.4849e-10)
(0 -0 1.27037e-10)
(0 -0 -3.29634e-11)
(0 -0 5.27739e-12)
(0 -0 -3.97233e-12)
(0 -0 -2.14281e-12)
(0 -0 -2.27882e-12)
(0 -0 -7.40125e-13)
(0 -0 5.27739e-13)
(0 -0 -2.83835e-12)
(0 -0 -7.91719e-12)
(0 -0 1.92556e-13)
(0 -0 1.05483e-05)
(0 -0 -1.31516e-05)
(0 -0 3.11815e-06)
(0 -0 -7.39254e-07)
(0 -0 1.75272e-07)
(0 -0 -4.15642e-08)
(0 -0 9.85304e-09)
(0 -0 -2.34007e-09)
(0 -0 5.51804e-10)
(0 -0 -1.34086e-10)
(0 -0 2.87439e-11)
(0 -0 -9.47895e-12)
(0 -0 -6.24264e-13)
(0 -0 -3.00932e-12)
(0 -0 -2.17854e-12)
(0 -0 -9.13468e-13)
(0 -0 5.19993e-13)
(0 -0 -2.85025e-12)
(0 -0 -7.99588e-12)
(0 -0 2.95925e-13)
(0 -0 -1.06029e-05)
(0 -0 1.33061e-05)
(0 -0 -3.15649e-06)
(0 -0 7.48739e-07)
(0 -0 -1.77625e-07)
(0 -0 4.21377e-08)
(0 -0 -1.00015e-08)
(0 -0 2.36987e-09)
(0 -0 -5.6568e-10)
(0 -0 1.31054e-10)
(0 -0 -3.40573e-11)
(0 -0 5.34497e-12)
(0 -0 -4.16718e-12)
(0 -0 -2.29289e-12)
(0 -0 -2.23179e-12)
(0 -0 -7.77316e-13)
(0 -0 4.71703e-13)
(0 -0 -2.87118e-12)
(0 -0 -7.85379e-12)
(0 -0 3.90863e-13)
(0 -0 1.0668e-05)
(0 -0 -1.3462e-05)
(0 -0 3.19493e-06)
(0 -0 -7.58214e-07)
(0 -0 1.79948e-07)
(0 -0 -4.2716e-08)
(0 -0 1.01361e-08)
(0 -0 -2.40982e-09)
(0 -0 5.68783e-10)
(0 -0 -1.38347e-10)
(0 -0 2.96683e-11)
(0 -0 -9.85417e-12)
(0 -0 -5.40112e-13)
(0 -0 -3.12916e-12)
(0 -0 -2.1883e-12)
(0 -0 -9.20898e-13)
(0 -0 2.70366e-13)
(0 -0 -2.86357e-12)
(0 -0 -7.56245e-12)
(0 -0 3.59908e-13)
(0 -0 -1.07388e-05)
(0 -0 1.36161e-05)
(0 -0 -3.23284e-06)
(0 -0 7.67507e-07)
(0 -0 -1.82233e-07)
(0 -0 4.32676e-08)
(0 -0 -1.02781e-08)
(0 -0 2.43763e-09)
(0 -0 -5.82055e-10)
(0 -0 1.35187e-10)
(0 -0 -3.51293e-11)
(0 -0 5.67616e-12)
(0 -0 -4.11781e-12)
(0 -0 -2.08911e-12)
(0 -0 -2.25887e-12)
(0 -0 -8.04999e-13)
(0 -0 2.87891e-13)
(0 -0 -2.65516e-12)
(0 -0 -7.12483e-12)
(0 -0 4.16139e-13)
(0 -0 1.08131e-05)
(0 -0 -1.37599e-05)
(0 -0 3.26797e-06)
(0 -0 -7.76093e-07)
(0 -0 1.84321e-07)
(0 -0 -4.37834e-08)
(0 -0 1.03971e-08)
(0 -0 -2.47279e-09)
(0 -0 5.84603e-10)
(0 -0 -1.41703e-10)
(0 -0 3.10731e-11)
(0 -0 -9.71207e-12)
(0 -0 -1.11374e-13)
(0 -0 -2.6664e-12)
(0 -0 -1.79619e-12)
(0 -0 -8.47616e-13)
(0 -0 1.44705e-13)
(0 -0 -2.48153e-12)
(0 -0 -6.50054e-12)
(0 -0 4.24103e-13)
(0 -0 -1.08838e-05)
(0 -0 1.38915e-05)
(0 -0 -3.30007e-06)
(0 -0 7.83902e-07)
(0 -0 -1.86226e-07)
(0 -0 4.42399e-08)
(0 -0 -1.0514e-08)
(0 -0 2.49549e-09)
(0 -0 -5.95586e-10)
(0 -0 1.39008e-10)
(0 -0 -3.54002e-11)
(0 -0 6.28699e-12)
(0 -0 -3.80478e-12)
(0 -0 -1.60155e-12)
(0 -0 -1.82296e-12)
(0 -0 -6.0505e-13)
(0 -0 2.23727e-13)
(0 -0 -2.2699e-12)
(0 -0 -5.59552e-12)
(0 -0 4.21483e-13)
(0 -0 1.09509e-05)
(0 -0 -1.40034e-05)
(0 -0 3.32718e-06)
(0 -0 -7.90472e-07)
(0 -0 1.87811e-07)
(0 -0 -4.4629e-08)
(0 -0 1.06026e-08)
(0 -0 -2.52199e-09)
(0 -0 5.97146e-10)
(0 -0 -1.4409e-10)
(0 -0 3.2254e-11)
(0 -0 -9.42229e-12)
(0 -0 3.31314e-13)
(0 -0 -2.23773e-12)
(0 -0 -1.39909e-12)
(0 -0 -6.78181e-13)
(0 -0 8.04812e-14)
(0 -0 -1.85433e-12)
(0 -0 -4.60836e-12)
(0 -0 4.26344e-13)
(0 -0 -1.10192e-05)
(0 -0 1.40984e-05)
(0 -0 -3.35025e-06)
(0 -0 7.96054e-07)
(0 -0 -1.89164e-07)
(0 -0 4.49515e-08)
(0 -0 -1.06846e-08)
(0 -0 2.53776e-09)
(0 -0 -6.04731e-10)
(0 -0 1.42272e-10)
(0 -0 -3.51396e-11)
(0 -0 7.16258e-12)
(0 -0 -2.93956e-12)
(0 -0 -7.63871e-13)
(0 -0 -1.11362e-12)
(0 -0 -3.61068e-13)
(0 -0 1.307e-13)
(0 -0 -1.31995e-12)
(0 -0 -3.65399e-12)
(0 -0 3.47778e-13)
(0 -0 1.10473e-05)
(0 -0 -1.41712e-05)
(0 -0 3.37036e-06)
(0 -0 -8.01514e-07)
(0 -0 1.90618e-07)
(0 -0 -4.53388e-08)
(0 -0 1.07825e-08)
(0 -0 -2.56586e-09)
(0 -0 6.09523e-10)
(0 -0 -1.45719e-10)
(0 -0 3.41045e-11)
(0 -0 -8.47412e-12)
(0 -0 1.69019e-12)
(0 -0 -7.42359e-13)
(0 -0 -1.6101e-14)
(0 -0 3.80929e-13)
(0 -0 7.85771e-13)
(0 -0 -5.94033e-13)
(0 -0 -2.66638e-12)
(0 -0 -2.03301e-14)
(0 -0 -1.12823e-05)
(0 -0 1.42577e-05)
(0 -0 -3.4105e-06)
(0 -0 8.10712e-07)
(0 -0 -1.94147e-07)
(0 -0 4.62342e-08)
(0 -0 -1.11437e-08)
(0 -0 2.60362e-09)
(0 -0 -6.75477e-10)
(0 -0 1.23485e-10)
(0 -0 -5.90283e-11)
(0 -0 -7.67606e-12)
(0 -0 -1.43893e-11)
(0 -0 -8.21517e-12)
(0 -0 -6.03564e-12)
(0 -0 -3.99522e-12)
(0 -0 -2.47096e-12)
(0 -0 -6.58902e-13)
(0 -0 7.19403e-13)
(0 -0 4.51753e-13)
)
;

boundaryField
{
    movingWall
    {
        type            calculated;
        value           nonuniform List<vector> 
20
(
(0 -0 -1.23858e-05)
(0 -0 1.45051e-05)
(0 -0 -3.5214e-06)
(0 -0 8.35891e-07)
(0 -0 -2.03192e-07)
(0 -0 4.86682e-08)
(0 -0 -1.19277e-08)
(0 -0 2.76781e-09)
(0 -0 -7.77182e-10)
(0 -0 1.1052e-10)
(0 -0 -8.73037e-11)
(0 -0 -2.36977e-11)
(0 -0 -2.77537e-11)
(0 -0 -1.76229e-11)
(0 -0 -1.27089e-11)
(0 -0 -8.91966e-12)
(0 -0 -5.85428e-12)
(0 -0 -1.23683e-12)
(0 -0 2.70753e-12)
(0 -0 1.10119e-12)
)
;
    }
    fixedWalls
    {
        type            calculated;
        value           nonuniform List<vector> 
60
(
(0 -0 5.28641e-05)
(0 -0 -5.31463e-05)
(0 -0 5.31345e-05)
(0 -0 -5.31971e-05)
(0 -0 5.32952e-05)
(0 -0 -5.34811e-05)
(0 -0 5.37552e-05)
(0 -0 -5.41321e-05)
(0 -0 5.45977e-05)
(0 -0 -5.51449e-05)
(0 -0 5.57477e-05)
(0 -0 -5.63915e-05)
(0 -0 5.70425e-05)
(0 -0 -5.76863e-05)
(0 -0 5.82885e-05)
(0 -0 -5.88392e-05)
(0 -0 5.93091e-05)
(0 -0 -5.97065e-05)
(0 -0 5.99698e-05)
(0 -0 -6.03912e-05)
(0 -0 9.93758e-13)
(0 -0 2.08245e-12)
(0 -0 3.4918e-12)
(0 -0 4.67377e-12)
(0 -0 5.84221e-12)
(0 -0 6.93449e-12)
(0 -0 7.89741e-12)
(0 -0 8.63299e-12)
(0 -0 9.18134e-12)
(0 -0 9.57537e-12)
(0 -0 9.75884e-12)
(0 -0 9.7746e-12)
(0 -0 9.4529e-12)
(0 -0 9.0346e-12)
(0 -0 8.23467e-12)
(0 -0 7.25234e-12)
(0 -0 6.06102e-12)
(0 -0 4.78807e-12)
(0 -0 3.16166e-12)
(0 -0 1.70249e-12)
(0 -0 9.60232e-06)
(0 -0 -1.23416e-05)
(0 -0 2.89037e-06)
(0 -0 -6.90404e-07)
(0 -0 1.61322e-07)
(0 -0 -3.84986e-08)
(0 -0 8.87341e-09)
(0 -0 -2.23242e-09)
(0 -0 4.20164e-10)
(0 -0 -1.74994e-10)
(0 -0 -1.51614e-11)
(0 -0 -3.80714e-11)
(0 -0 -2.19193e-11)
(0 -0 -1.74591e-11)
(0 -0 -1.23025e-11)
(0 -0 -8.76158e-12)
(0 -0 -5.50127e-12)
(0 -0 -1.45694e-12)
(0 -0 1.88661e-12)
(0 -0 4.60643e-13)
)
;
    }
    frontAndBack
    {
        type            empty;
    }
}


// ************************************************************************* //
