/*--------------------------------*- C++ -*----------------------------------*\
| =========                 |                                                 |
| \\      /  F ield         | OpenFOAM: The Open Source CFD Toolbox           |
|  \\    /   O peration     | Version:  2312                                  |
|   \\  /    A nd           | Website:  www.openfoam.com                      |
|    \\/     M anipulation  |                                                 |
\*---------------------------------------------------------------------------*/
FoamFile
{
    version     2.0;
    format      ascii;
    arch        "LSB;label=32;scalar=64";
    class       volScalarField;
    location    "3.75";
    object      zeroGradient(epsilon);
}
// * * * * * * * * * * * * * * * * * * * * * * * * * * * * * * * * * * * * * //

dimensions      [0 2 -3 0 0 0 0];

internalField   nonuniform List<scalar> 
400
(
3.04897e-05
3.04892e-05
3.04886e-05
3.04885e-05
3.04878e-05
3.04879e-05
3.04872e-05
3.04873e-05
3.04868e-05
3.04867e-05
3.04866e-05
3.04864e-05
3.04863e-05
3.04862e-05
3.04862e-05
3.04861e-05
3.04861e-05
3.0486e-05
3.0486e-05
3.0486e-05
4.35701e-05
4.19467e-05
4.20686e-05
4.21199e-05
4.22234e-05
4.22769e-05
4.2382e-05
4.24376e-05
4.25444e-05
4.26023e-05
4.27105e-05
4.27711e-05
4.28804e-05
4.2944e-05
4.30541e-05
4.3121e-05
4.32318e-05
4.33024e-05
4.3358e-05
4.34497e-05
6.21901e-05
5.95174e-05
5.97167e-05
5.98008e-05
5.99704e-05
6.00577e-05
6.023e-05
6.03206e-05
6.04956e-05
6.05897e-05
6.0767e-05
6.08652e-05
6.10443e-05
6.11473e-05
6.13275e-05
6.14359e-05
6.16167e-05
6.17311e-05
6.18218e-05
6.1971e-05
7.81105e-05
7.44292e-05
7.46997e-05
7.48138e-05
7.50444e-05
7.51636e-05
7.5398e-05
7.55222e-05
7.57604e-05
7.58899e-05
7.61316e-05
7.6267e-05
7.65114e-05
7.66537e-05
7.69e-05
7.70502e-05
7.72976e-05
7.74565e-05
7.75808e-05
7.77863e-05
8.87457e-05
8.43438e-05
8.46638e-05
8.47991e-05
8.50726e-05
8.52142e-05
8.54923e-05
8.56402e-05
8.5923e-05
8.60775e-05
8.63646e-05
8.65266e-05
8.6817e-05
8.69876e-05
8.72805e-05
8.74608e-05
8.77552e-05
8.79461e-05
8.80943e-05
8.83399e-05
9.50373e-05
9.01963e-05
9.05461e-05
9.06942e-05
9.09934e-05
9.11486e-05
9.14531e-05
9.16154e-05
9.19251e-05
9.20949e-05
9.24093e-05
9.25875e-05
9.29058e-05
9.30936e-05
9.34148e-05
9.36134e-05
9.39364e-05
9.41468e-05
9.43095e-05
9.45796e-05
9.86584e-05
9.35615e-05
9.39286e-05
9.4084e-05
9.43982e-05
9.45613e-05
9.4881e-05
9.50516e-05
9.53769e-05
9.55556e-05
9.58859e-05
9.60736e-05
9.64081e-05
9.66059e-05
9.69434e-05
9.71528e-05
9.74923e-05
9.77142e-05
9.78852e-05
9.81696e-05
0.000100866
9.56126e-05
9.59902e-05
9.61501e-05
9.64734e-05
9.66413e-05
9.69703e-05
9.71461e-05
9.74808e-05
9.7665e-05
9.8005e-05
9.81984e-05
9.85427e-05
9.87467e-05
9.90943e-05
9.93102e-05
9.96599e-05
9.98887e-05
0.000100065
0.000100358
0.0001024
9.70374e-05
9.7422e-05
9.75852e-05
9.79148e-05
9.8086e-05
9.84215e-05
9.86008e-05
9.89422e-05
9.91301e-05
9.94768e-05
9.96743e-05
0.000100025
0.000100234
0.000100588
0.000100809
0.000101165
0.000101399
0.000101579
0.000101878
0.00010365
9.81991e-05
9.85897e-05
9.87554e-05
9.90901e-05
9.9264e-05
9.96047e-05
9.9787e-05
0.000100134
0.000100325
0.000100677
0.000100878
0.000101234
0.000101446
0.000101806
0.00010203
0.000102393
0.00010263
0.000102813
0.000103117
0.000104821
9.92878e-05
9.9684e-05
9.9852e-05
0.000100192
0.000100368
0.000100714
0.000100899
0.00010125
0.000101444
0.000101801
0.000102005
0.000102367
0.000102582
0.000102948
0.000103175
0.000103543
0.000103784
0.00010397
0.000104278
0.000106028
0.000100409
0.000100811
0.000100982
0.000101326
0.000101505
0.000101856
0.000102044
0.0001024
0.000102597
0.00010296
0.000103167
0.000103534
0.000103753
0.000104123
0.000104355
0.000104728
0.000104973
0.000105161
0.000105475
0.000107343
0.00010163
0.000102039
0.000102212
0.000102562
0.000102744
0.0001031
0.000103291
0.000103653
0.000103853
0.000104222
0.000104432
0.000104805
0.000105027
0.000105404
0.000105639
0.000106018
0.000106268
0.000106459
0.000106778
0.000108822
0.000103004
0.00010342
0.000103596
0.000103952
0.000104137
0.000104499
0.000104694
0.000105062
0.000105266
0.000105641
0.000105855
0.000106235
0.000106461
0.000106845
0.000107085
0.000107471
0.000107725
0.000107919
0.000108244
0.000110523
0.000104584
0.000105008
0.000105187
0.00010555
0.000105739
0.000106109
0.000106307
0.000106683
0.000106891
0.000107273
0.000107492
0.00010788
0.000108111
0.000108502
0.000108747
0.000109141
0.0001094
0.000109599
0.00010993
0.000112513
0.000106431
0.000106864
0.000107047
0.000107419
0.000107612
0.00010799
0.000108193
0.000108578
0.000108791
0.000109182
0.000109406
0.000109802
0.000110039
0.000110439
0.00011069
0.000111093
0.000111359
0.000111563
0.000111902
0.000114845
0.000108594
0.000109038
0.000109227
0.000109608
0.000109806
0.000110194
0.000110403
0.000110797
0.000111016
0.000111418
0.000111648
0.000112055
0.000112299
0.000112709
0.000112967
0.000113381
0.000113655
0.000113864
0.000114213
0.00011745
0.000111013
0.000111469
0.000111663
0.000112054
0.000112258
0.000112657
0.000112872
0.000113277
0.000113503
0.000113916
0.000114153
0.000114571
0.000114823
0.000115245
0.000115511
0.000115937
0.00011622
0.000116434
0.000116794
0.000119901
0.000113451
0.000113897
0.000114087
0.000114473
0.000114675
0.000115069
0.000115283
0.000115686
0.000115913
0.000116325
0.000116565
0.000116985
0.00011724
0.000117666
0.000117939
0.00011837
0.000118663
0.00011888
0.000119249
0.000120831
0.000120827
0.000120827
0.000120824
0.000120824
0.000120821
0.000120821
0.00012082
0.000120819
0.000120819
0.000120818
0.000120818
0.000120817
0.000120817
0.000120817
0.000120817
0.000120817
0.000120817
0.000120817
0.000120817
)
;

boundaryField
{
    movingWall
    {
        type            zeroGradient;
    }
    fixedWalls
    {
        type            zeroGradient;
    }
    frontAndBack
    {
        type            empty;
    }
}


// ************************************************************************* //
