/*--------------------------------*- C++ -*----------------------------------*\
| =========                 |                                                 |
| \\      /  F ield         | OpenFOAM: The Open Source CFD Toolbox           |
|  \\    /   O peration     | Version:  2312                                  |
|   \\  /    A nd           | Website:  www.openfoam.com                      |
|    \\/     M anipulation  |                                                 |
\*---------------------------------------------------------------------------*/
FoamFile
{
    version     2.0;
    format      ascii;
    arch        "LSB;label=32;scalar=64";
    class       volScalarField;
    location    "3.75";
    object      zeroGradient(p);
}
// * * * * * * * * * * * * * * * * * * * * * * * * * * * * * * * * * * * * * //

dimensions      [0 2 -2 0 0 0 0];

internalField   nonuniform List<scalar> 
400
(
0
1.20814e-10
5.19153e-11
4.61498e-11
4.33399e-11
4.31529e-11
4.344e-11
4.35744e-11
4.37059e-11
4.37898e-11
4.38582e-11
4.3909e-11
4.39483e-11
4.39778e-11
4.39997e-11
4.40157e-11
4.40252e-11
4.40284e-11
4.40277e-11
4.40255e-11
1.86259e-10
0
4.94985e-11
2.0112e-11
4.60206e-11
4.20092e-11
4.37442e-11
4.34378e-11
4.36978e-11
4.37594e-11
4.38457e-11
4.38981e-11
4.39406e-11
4.39712e-11
4.39942e-11
4.40106e-11
4.40202e-11
4.40234e-11
4.40231e-11
4.4021e-11
0
5.66682e-10
3.05589e-11
7.6644e-11
3.71215e-11
4.42725e-11
4.25254e-11
4.35499e-11
4.35645e-11
4.37443e-11
4.38146e-11
4.38812e-11
4.39252e-11
4.39589e-11
4.3983e-11
4.40001e-11
4.40104e-11
4.40141e-11
4.40136e-11
4.40118e-11
3.15573e-10
0
4.66486e-11
0
4.82237e-11
4.03614e-11
4.38924e-11
4.31836e-11
4.36142e-11
4.36744e-11
4.37928e-11
4.38553e-11
4.39065e-11
4.39416e-11
4.39674e-11
4.39853e-11
4.39957e-11
4.39995e-11
4.39998e-11
4.39984e-11
0
9.8047e-10
3.63155e-11
1.0496e-10
3.41194e-11
4.52181e-11
4.19161e-11
4.34913e-11
4.34361e-11
4.36794e-11
4.37554e-11
4.38351e-11
4.38845e-11
4.39219e-11
4.39481e-11
4.39663e-11
4.39774e-11
4.39818e-11
4.3982e-11
4.39805e-11
3.62551e-10
0
3.75114e-11
0
5.06029e-11
3.95101e-11
4.42174e-11
4.30818e-11
4.35844e-11
4.3618e-11
4.37476e-11
4.38112e-11
4.38647e-11
4.39005e-11
4.39269e-11
4.39452e-11
4.39558e-11
4.39598e-11
4.39606e-11
4.39599e-11
0
1.29111e-09
4.89997e-11
1.25499e-10
3.27813e-11
4.60926e-11
4.17177e-11
4.35617e-11
4.34185e-11
4.36668e-11
4.37266e-11
4.3801e-11
4.38456e-11
4.38805e-11
4.39047e-11
4.39217e-11
4.3932e-11
4.39362e-11
4.39368e-11
4.39362e-11
3.49892e-10
0
2.54085e-11
0
5.21561e-11
3.9422e-11
4.46374e-11
4.31844e-11
4.36577e-11
4.36366e-11
4.37442e-11
4.37901e-11
4.38327e-11
4.38611e-11
4.38826e-11
4.38978e-11
4.39063e-11
4.39095e-11
4.39108e-11
4.39108e-11
0
1.4509e-09
6.45448e-11
1.37092e-10
3.33644e-11
4.69315e-11
4.19478e-11
4.3779e-11
4.35308e-11
4.37291e-11
4.3748e-11
4.37963e-11
4.38226e-11
4.38453e-11
4.38613e-11
4.3873e-11
4.38797e-11
4.38826e-11
4.38836e-11
4.38838e-11
3.06538e-10
0
1.52354e-11
0
5.29202e-11
4.00223e-11
4.51147e-11
4.34706e-11
4.38322e-11
4.37346e-11
4.37908e-11
4.38017e-11
4.38198e-11
4.38314e-11
4.38417e-11
4.38492e-11
4.38531e-11
4.38545e-11
4.38558e-11
4.38568e-11
0
1.45545e-09
7.62313e-11
1.38585e-10
3.51389e-11
4.75954e-11
4.25072e-11
4.41081e-11
4.37519e-11
4.38584e-11
4.3818e-11
4.38231e-11
4.38199e-11
4.38218e-11
4.38239e-11
4.38263e-11
4.38275e-11
4.38279e-11
4.38286e-11
4.38297e-11
2.52744e-10
0
1.14722e-11
0
5.31664e-11
4.11467e-11
4.55836e-11
4.38778e-11
4.40762e-11
4.38939e-11
4.38799e-11
4.38431e-11
4.38273e-11
4.38153e-11
4.38091e-11
4.3806e-11
4.38032e-11
4.38014e-11
4.38024e-11
4.3804e-11
0
1.32238e-09
8.07412e-11
1.30568e-10
3.75226e-11
4.80029e-11
4.32722e-11
4.44924e-11
4.40405e-11
4.40324e-11
4.39243e-11
4.38769e-11
4.38373e-11
4.38132e-11
4.37974e-11
4.3788e-11
4.37814e-11
4.37781e-11
4.37783e-11
4.37797e-11
2.00116e-10
0
1.48745e-11
0
5.29848e-11
4.2577e-11
4.59788e-11
4.43358e-11
4.43499e-11
4.40876e-11
4.39959e-11
4.3908e-11
4.38536e-11
4.38141e-11
4.37895e-11
4.37738e-11
4.37628e-11
4.37568e-11
4.37567e-11
4.37585e-11
0
1.0819e-09
7.82154e-11
1.1495e-10
4.01558e-11
4.81257e-11
4.41177e-11
4.48705e-11
4.43483e-11
4.42218e-11
4.40486e-11
4.39481e-11
4.38708e-11
4.38195e-11
4.3785e-11
4.37625e-11
4.37476e-11
4.37395e-11
4.37382e-11
4.37395e-11
1.52847e-10
0
2.38801e-11
0
5.23787e-11
4.40914e-11
4.624e-11
4.47714e-11
4.46055e-11
4.42803e-11
4.41169e-11
4.39821e-11
4.38909e-11
4.38261e-11
4.37833e-11
4.37547e-11
4.37354e-11
4.37249e-11
4.37226e-11
4.37238e-11
0
7.68796e-10
7.06349e-11
9.41934e-11
4.28033e-11
4.79446e-11
4.49147e-11
4.51683e-11
4.46167e-11
4.43859e-11
4.41627e-11
4.40169e-11
4.39085e-11
4.38338e-11
4.37831e-11
4.3749e-11
4.3726e-11
4.37132e-11
4.37099e-11
4.37112e-11
1.10818e-10
0
3.62576e-11
1.57256e-11
5.13145e-11
4.5438e-11
4.63e-11
4.50988e-11
4.47872e-11
4.44293e-11
4.42125e-11
4.40437e-11
4.39255e-11
4.38415e-11
4.37847e-11
4.3746e-11
4.37194e-11
4.37044e-11
4.37006e-11
4.37023e-11
1.56177e-11
4.14248e-10
6.20703e-11
7.03041e-11
4.54742e-11
4.73413e-11
4.5569e-11
4.53254e-11
4.48098e-11
4.44998e-11
4.42484e-11
4.40714e-11
4.39422e-11
4.38515e-11
4.37892e-11
4.37462e-11
4.37164e-11
4.37003e-11
4.36964e-11
4.36978e-11
6.80133e-11
0
5.72443e-11
3.61723e-11
5.02408e-11
4.60378e-11
4.6259e-11
4.52844e-11
4.49036e-11
4.45267e-11
4.42788e-11
4.40893e-11
4.39553e-11
4.38597e-11
4.37937e-11
4.37479e-11
4.37164e-11
4.37005e-11
4.36966e-11
4.36966e-11
)
;

boundaryField
{
    movingWall
    {
        type            zeroGradient;
    }
    fixedWalls
    {
        type            zeroGradient;
    }
    frontAndBack
    {
        type            empty;
    }
}


// ************************************************************************* //
