/*--------------------------------*- C++ -*----------------------------------*\
| =========                 |                                                 |
| \\      /  F ield         | OpenFOAM: The Open Source CFD Toolbox           |
|  \\    /   O peration     | Version:  2312                                  |
|   \\  /    A nd           | Website:  www.openfoam.com                      |
|    \\/     M anipulation  |                                                 |
\*---------------------------------------------------------------------------*/
FoamFile
{
    version     2.0;
    format      ascii;
    arch        "LSB;label=32;scalar=64";
    class       volScalarField;
    location    "0.75";
    object      blendingFactorField;
}
// * * * * * * * * * * * * * * * * * * * * * * * * * * * * * * * * * * * * * //

dimensions      [0 0 0 0 0 0 0];

internalField   nonuniform List<scalar> 
400
(
0
0
0
0
0
0
0
0
0
0
0.00454365
0.00471041
0.00471041
0
0
0
0
0
0
0
0
0
0
0
0
0
0
0
0.0207882
0.0365951
0.0452886
0.0455908
0.0455908
0.0362421
0.0164535
0
0
0
0
0
0
0
0
0
0
0
0
0.0128963
0.0361655
0.0538227
0.0645447
0.0669461
0.0669461
0.0596965
0.0417011
0.0124053
0
0
0
0
0
0
0
0
0
0
0
0.0258254
0.0516653
0.072478
0.0868449
0.0931035
0.0931035
0.0895647
0.0744202
0.0462462
0.00445353
0
0
0
0
0
0
0
0
0
0.00871364
0.0413714
0.07104
0.0965641
0.116426
0.128641
0.130837
0.130837
0.120098
0.0935104
0.0489171
0.0483065
0.0577666
0.0131717
0
0
0
0
0
0
0.0233568
0.0600209
0.0948343
0.126814
0.154426
0.175351
0.186415
0.186415
0.183023
0.159906
0.112052
0.143826
0.161893
0.10129
0
0
0.00761169
0.00906295
0.00549032
0
0.0397157
0.0812104
0.122406
0.162708
0.200802
0.234152
0.258917
0.268088
0.268088
0.252745
0.202392
0.268214
0.296152
0.20385
0.000228246
0.0424314
0.0523285
0.0536929
0.05004
0.0423541
0.0568398
0.103609
0.152129
0.202559
0.254277
0.305146
0.350115
0.380923
0.381841
0.381841
0.331912
0.440866
0.476769
0.315677
0.0401289
0.0884972
0.0992974
0.100617
0.0969564
0.0898358
0.079879
0.125101
0.181219
0.243053
0.311463
0.385621
0.46094
0.52777
0.561878
0.561878
0.522323
0.701643
0.734388
0.413597
0.0817755
0.13684
0.148467
0.149454
0.145542
0.139037
0.131225
0.142788
0.205554
0.278778
0.365973
0.469578
0.588624
0.713809
0.820357
0.835076
0.835076
1
1
0.502234
0.125866
0.18785
0.199727
0.199556
0.194623
0.188271
0.182714
0.17956
0.219572
0.301478
0.406299
0.54265
0.718863
0.941173
1
1
1
1
1
0.787999
0.173554
0.242116
0.252889
0.249952
0.242496
0.235096
0.231052
0.233206
0.244306
0.300075
0.414259
0.576514
0.812692
1
1
1
1
1
1
1
0.226842
0.300464
0.307543
0.29923
0.286923
0.276417
0.272018
0.277727
0.298118
0.338926
0.407063
0.524042
0.775209
1
1
1
1
1
1
1
0.288707
0.363881
0.362914
0.345404
0.325162
0.308765
0.30113
0.306735
0.331264
0.38263
0.471317
0.611241
0.822231
1
1
1
1
1
1
1
0.364765
0.432598
0.416623
0.385262
0.353866
0.328728
0.314724
0.315491
0.336399
0.385721
0.47436
0.615141
0.822231
1
1
0.824589
0.145352
1
1
1
0.457173
0.506998
0.465793
0.413999
0.368755
0.333683
0.314724
0.315491
0.336399
0.385721
0.47436
0.615141
0.821069
1
1
0.798076
0.637562
1
1
1
0.590379
0.576673
0.490819
0.418907
0.368755
0.333683
0.311008
0.302525
0.312125
0.346564
0.414369
0.522701
0.675577
0.853439
0.913014
1
1
1
1
1
0.755112
0.604546
0.490819
0.418907
0.364265
0.319345
0.286611
0.266927
0.261776
0.273601
0.307261
0.369652
0.572852
0.870518
1
1
1
1
1
1
0.925494
0.604546
0.469271
0.390973
0.327062
0.395577
0.573356
0.74479
0.914384
1
1
1
1
1
1
1
1
1
1
1
0.925494
1
1
1
1
1
1
1
1
1
1
1
1
1
1
1
1
1
1
1
)
;

boundaryField
{
    movingWall
    {
        type            zeroGradient;
    }
    fixedWalls
    {
        type            zeroGradient;
    }
    frontAndBack
    {
        type            empty;
    }
}


// ************************************************************************* //
