/*--------------------------------*- C++ -*----------------------------------*\
| =========                 |                                                 |
| \\      /  F ield         | OpenFOAM: The Open Source CFD Toolbox           |
|  \\    /   O peration     | Version:  2312                                  |
|   \\  /    A nd           | Website:  www.openfoam.com                      |
|    \\/     M anipulation  |                                                 |
\*---------------------------------------------------------------------------*/
FoamFile
{
    version     2.0;
    format      ascii;
    arch        "LSB;label=32;scalar=64";
    class       volVectorField;
    location    "0.75";
    object      diffU;
}
// * * * * * * * * * * * * * * * * * * * * * * * * * * * * * * * * * * * * * //

dimensions      [0 1 -1 0 0 0 0];

internalField   nonuniform List<vector> 
400
(
(0 0 0)
(-0.000672838 0.000343077 0)
(-0.00187016 0.000544374 0)
(-0.00317912 0.000597385 0)
(-0.00449875 0.00057647 0)
(-0.0057573 0.000524636 0)
(-0.00691478 0.000457678 0)
(-0.00794255 0.000378776 0)
(-0.0088124 0.00028453 0)
(-0.00949648 0.000167683 0)
(-0.00993545 2.794e-05 0)
(-0.0100977 -0.000128957 0)
(-0.00993043 -0.000336446 0)
(-0.00937471 -0.000562672 0)
(-0.00840843 -0.000800217 0)
(-0.00703552 -0.00102224 0)
(-0.0053195 -0.0011825 0)
(-0.00340837 -0.00120141 0)
(-0.00151846 -0.000969919 0)
(-0.000249811 -0.000517433 0)
(-0.000337857 0.00067151 0)
(-0.00140276 0.00141874 0)
(-0.00273731 0.00179293 0)
(-0.00414545 0.00190633 0)
(-0.00555765 0.00187033 0)
(-0.00692212 0.0017497 0)
(-0.00819561 0.0015739 0)
(-0.00933777 0.00135148 0)
(-0.0103091 0.00107863 0)
(-0.0110681 0.000744547 0)
(-0.0115659 0.00034094 0)
(-0.0117543 -0.000138857 0)
(-0.0115793 -0.000696414 0)
(-0.0109977 -0.00131361 0)
(-0.00998842 -0.00194864 0)
(-0.0085602 -0.00253308 0)
(-0.00676714 -0.00296415 0)
(-0.00472787 -0.00309744 0)
(-0.00260851 -0.00275815 0)
(-0.000731656 -0.00179981 0)
(-0.000556452 0.00185617 0)
(-0.00180841 0.00274854 0)
(-0.00318237 0.00315222 0)
(-0.00459735 0.00328054 0)
(-0.00600734 0.0032269 0)
(-0.00737927 0.00304831 0)
(-0.00867757 0.00277313 0)
(-0.00986238 0.00240988 0)
(-0.0108918 0.00195356 0)
(-0.0117207 0.00139122 0)
(-0.0122989 0.000709547 0)
(-0.0125718 -0.000100002 0)
(-0.0124834 -0.00103168 0)
(-0.0119832 -0.00205652 0)
(-0.0110358 -0.00311026 0)
(-0.0096333 -0.00408966 0)
(-0.00780704 -0.00484971 0)
(-0.00565528 -0.00521253 0)
(-0.00332716 -0.0049949 0)
(-0.00105771 -0.0038629 0)
(-0.000644641 0.00319222 0)
(-0.00200657 0.00418194 0)
(-0.00344168 0.00457642 0)
(-0.00489639 0.00469701 0)
(-0.00633558 0.00462175 0)
(-0.00773952 0.00439362 0)
(-0.00908386 0.0040339 0)
(-0.0103355 0.00354715 0)
(-0.0114559 0.00292438 0)
(-0.0124004 0.00214765 0)
(-0.0131165 0.00119704 0)
(-0.0135427 5.9332e-05 0)
(-0.0136107 -0.0012608 0)
(-0.0132483 -0.00272768 0)
(-0.0123875 -0.00425951 0)
(-0.0109818 -0.00571954 0)
(-0.00902881 -0.00691345 0)
(-0.00662174 -0.00761011 0)
(-0.00393382 -0.00758557 0)
(-0.00126697 -0.00627797 0)
(-0.000672784 0.00461014 0)
(-0.00210664 0.00569622 0)
(-0.00361471 0.0060691 0)
(-0.00513645 0.00616909 0)
(-0.00663887 0.00606929 0)
(-0.00810948 0.00579989 0)
(-0.00953459 0.00537316 0)
(-0.0108909 0.00478681 0)
(-0.0121471 0.00402504 0)
(-0.0132628 0.0030615 0)
(-0.0141854 0.00186514 0)
(-0.0148451 0.000410723 0)
(-0.0151546 -0.00130827 0)
(-0.0150061 -0.00326296 0)
(-0.0142775 -0.00536342 0)
(-0.0128564 -0.00744036 0)
(-0.0106864 -0.00922925 0)
(-0.00786549 -0.0103987 0)
(-0.00462929 -0.010627 0)
(-0.00146286 -0.00906452 0)
(-0.000682697 0.00606921 0)
(-0.00217196 0.00727942 0)
(-0.00375797 0.00763772 0)
(-0.00536214 0.00771543 0)
(-0.00695077 0.00759268 0)
(-0.00851501 0.00729261 0)
(-0.0100512 0.00682 0)
(-0.011548 0.00616516 0)
(-0.0129854 0.00530343 0)
(-0.0143326 0.00419582 0)
(-0.0155411 0.00279355 0)
(-0.0165351 0.00104775 0)
(-0.0172067 -0.00107528 0)
(-0.0173994 -0.00357524 0)
(-0.0169087 -0.00637573 0)
(-0.0155098 -0.00928212 0)
(-0.0130408 -0.0119234 0)
(-0.00960046 -0.0137758 0)
(-0.00553256 -0.0143144 0)
(-0.00168355 -0.0122933 0)
(-0.00069167 0.00755832 0)
(-0.00223323 0.00893085 0)
(-0.0039006 0.00929113 0)
(-0.00559523 0.00935301 0)
(-0.00728244 0.00921405 0)
(-0.00895618 0.00889767 0)
(-0.0106233 0.00840524 0)
(-0.0122873 0.0077215 0)
(-0.0139455 0.00681266 0)
(-0.0155843 0.00562422 0)
(-0.0171685 0.00408146 0)
(-0.018626 0.0020964 0)
(-0.0198323 -0.000416972 0)
(-0.020575 -0.00351157 0)
(-0.0205301 -0.00718326 0)
(-0.0192741 -0.0112427 0)
(-0.0164267 -0.0151634 0)
(-0.0120449 -0.0180478 0)
(-0.0066665 -0.0189619 0)
(-0.00187854 -0.0160655 0)
(-0.000706541 0.00908105 0)
(-0.00230472 0.0106535 0)
(-0.00405676 0.0110337 0)
(-0.00584438 0.0110889 0)
(-0.00763243 0.010943 0)
(-0.0094181 0.0106275 0)
(-0.0112207 0.0101464 0)
(-0.0130628 0.00948357 0)
(-0.0149667 0.00859896 0)
(-0.0169484 0.00742244 0)
(-0.0190039 0.00584804 0)
(-0.0210845 0.00373318 0)
(-0.0230579 0.000907313 0)
(-0.0246739 -0.00280198 0)
(-0.0254559 -0.00754894 0)
(-0.0246171 -0.0132599 0)
(-0.0213027 -0.0192138 0)
(-0.0153859 -0.0237581 0)
(-0.00777616 -0.0250516 0)
(-0.00178239 -0.0203745 0)
(-0.000730494 0.0106483 0)
(-0.00239438 0.0124532 0)
(-0.00423437 0.0128668 0)
(-0.00611221 0.0129214 0)
(-0.0079922 0.0127755 0)
(-0.00987588 0.0124772 0)
(-0.0117973 0.0120414 0)
(-0.0138032 0.0114588 0)
(-0.0159504 0.0106903 0)
(-0.0183001 0.00965645 0)
(-0.0209052 0.00822164 0)
(-0.0237767 0.00617638 0)
(-0.0268286 0.00322251 0)
(-0.0298144 -0.001027 0)
(-0.0321001 -0.0070272 0)
(-0.0323119 -0.0151448 0)
(-0.0285454 -0.0245109 0)
(-0.020033 -0.0319411 0)
(-0.00819636 -0.0331979 0)
(-0.000570826 -0.0246849 0)
(-0.000766516 0.0122762 0)
(-0.00251022 0.0143385 0)
(-0.00444205 0.0147897 0)
(-0.00640159 0.0148402 0)
(-0.00835184 0.0146925 0)
(-0.0102995 0.0144208 0)
(-0.0122953 0.0140608 0)
(-0.0144146 0.0136214 0)
(-0.0167568 0.0130786 0)
(-0.0194471 0.0123599 0)
(-0.0226305 0.0113161 0)
(-0.0264393 0.00967427 0)
(-0.0309244 0.00697981 0)
(-0.0359716 0.00254759 0)
(-0.0410281 -0.00467719 0)
(-0.0440313 -0.015992 0)
(-0.041207 -0.0309422 0)
(-0.0298173 -0.0439367 0)
(-0.0107696 -0.0453101 0)
(0.00252545 -0.0281897 0)
(-0.000820479 0.0139871 0)
(-0.00266653 0.0163218 0)
(-0.00469521 0.0167993 0)
(-0.0067213 0.0168254 0)
(-0.00870527 0.0166574 0)
(-0.0106594 0.016406 0)
(-0.0126518 0.0161389 0)
(-0.0147862 0.0158975 0)
(-0.0172082 0.0156932 0)
(-0.0201176 0.0154918 0)
(-0.023785 0.0151737 0)
(-0.0285382 0.0144503 0)
(-0.0347041 0.0127522 0)
(-0.0427001 0.00913892 0)
(-0.0527221 0.00178689 0)
(-0.0625965 -0.0125182 0)
(-0.0662587 -0.0359253 0)
(-0.0550257 -0.0608693 0)
(-0.0278788 -0.0658579 0)
(0.00292702 -0.032173 0)
(-0.000904888 0.0158209 0)
(-0.00288869 0.0184236 0)
(-0.00502087 0.0188904 0)
(-0.00708989 0.0188453 0)
(-0.009054 0.0186132 0)
(-0.0109321 0.0183507 0)
(-0.0128074 0.0181671 0)
(-0.0148054 0.0181494 0)
(-0.0171062 0.0183688 0)
(-0.0199742 0.0188726 0)
(-0.0238083 0.0196461 0)
(-0.0291723 0.0205172 0)
(-0.0367507 0.0210561 0)
(-0.0479369 0.0205063 0)
(-0.0651702 0.0161245 0)
(-0.086272 -0.000388744 0)
(-0.098901 -0.0378774 0)
(-0.0906657 -0.0841968 0)
(-0.0594279 -0.0998077 0)
(-0.01204 -0.0484654 0)
(-0.00104429 0.0178207 0)
(-0.00322184 0.0206692 0)
(-0.00546003 0.0210525 0)
(-0.00753417 0.0208541 0)
(-0.00940512 0.0204818 0)
(-0.0111018 0.0201436 0)
(-0.012717 0.019993 0)
(-0.0143813 0.0201686 0)
(-0.0162779 0.0208175 0)
(-0.0186833 0.0221063 0)
(-0.0220467 0.0242056 0)
(-0.027044 0.0272529 0)
(-0.0344412 0.0313926 0)
(-0.046279 0.0365173 0)
(-0.0669456 0.0377418 0)
(-0.0925463 0.0185101 0)
(-0.108262 -0.0365002 0)
(-0.106843 -0.108092 0)
(-0.0852236 -0.151264 0)
(-0.0354311 -0.0995482 0)
(-0.00127412 0.0201724 0)
(-0.00371105 0.0231167 0)
(-0.00605404 0.0232717 0)
(-0.00807334 0.0227887 0)
(-0.00975536 0.0221648 0)
(-0.0111474 0.0216511 0)
(-0.0123481 0.0214355 0)
(-0.0134718 0.0216956 0)
(-0.0146554 0.0226445 0)
(-0.0160974 0.0245643 0)
(-0.0181248 0.0278184 0)
(-0.0212218 0.0328836 0)
(-0.0257643 0.0404648 0)
(-0.0325878 0.0507702 0)
(-0.0456682 0.0564195 0)
(-0.0634539 0.0349419 0)
(-0.0748472 -0.0258366 0)
(-0.0796998 -0.112704 0)
(-0.081423 -0.191632 0)
(-0.0450761 -0.173248 0)
(-0.00168627 0.0226636 0)
(-0.00447011 0.0257072 0)
(-0.00683957 0.0254592 0)
(-0.00868945 0.0245308 0)
(-0.0100487 0.0235286 0)
(-0.011003 0.0227246 0)
(-0.0116511 0.0223156 0)
(-0.0120781 0.0224823 0)
(-0.0123248 0.0234609 0)
(-0.01244 0.025591 0)
(-0.0124928 0.0293289 0)
(-0.0125476 0.035251 0)
(-0.0124278 0.04407 0)
(-0.0114155 0.0557873 0)
(-0.0106066 0.0628171 0)
(-0.0113945 0.0469176 0)
(-0.0114885 -0.00646882 0)
(-0.0178649 -0.0873739 0)
(-0.0466644 -0.186409 0)
(-0.0370114 -0.234464 0)
(-0.00215073 0.0267898 0)
(-0.00534868 0.0287771 0)
(-0.00768914 0.0275748 0)
(-0.00919986 0.0259337 0)
(-0.010038 0.0244284 0)
(-0.0104183 0.0232304 0)
(-0.0104335 0.022524 0)
(-0.0101052 0.0224076 0)
(-0.00935895 0.0230777 0)
(-0.00809805 0.0248609 0)
(-0.00613203 0.0281687 0)
(-0.00315244 0.0334347 0)
(0.00134826 0.0410296 0)
(0.00865265 0.0504254 0)
(0.0192941 0.0553101 0)
(0.0295389 0.0416581 0)
(0.0351076 -0.00249277 0)
(0.0337847 -0.0646902 0)
(-0.00368301 -0.143986 0)
(-0.0214086 -0.26719 0)
(-0.00353641 0.0275085 0)
(-0.0071775 0.0299127 0)
(-0.00862939 0.0283175 0)
(-0.00914915 0.0262996 0)
(-0.00917703 0.0244444 0)
(-0.00879749 0.0229477 0)
(-0.00801184 0.0219129 0)
(-0.00681513 0.0214126 0)
(-0.00512234 0.0215745 0)
(-0.00272239 0.0226071 0)
(0.000752274 0.0247948 0)
(0.00586888 0.028406 0)
(0.0131619 0.0334226 0)
(0.023401 0.0389142 0)
(0.0366169 0.0404363 0)
(0.0497906 0.0279178 0)
(0.0548161 -0.00477008 0)
(0.0541553 -0.0548919 0)
(0.023157 -0.113217 0)
(-0.00832387 -0.275591 0)
(-0.0047674 0.0461819 0)
(-0.00768402 0.0419725 0)
(-0.00734686 0.0352602 0)
(-0.00623604 0.0299864 0)
(-0.00492703 0.0264692 0)
(-0.00319265 0.0238114 0)
(-0.000959796 0.0218733 0)
(0.0017022 0.0205806 0)
(0.00484302 0.0198678 0)
(0.0086562 0.0197465 0)
(0.013451 0.0203362 0)
(0.0196985 0.0218413 0)
(0.0278955 0.0241526 0)
(0.0384354 0.0263119 0)
(0.0505891 0.0257091 0)
(0.0629323 0.0168923 0)
(0.0650001 -0.00334868 0)
(0.0708021 -0.0420086 0)
(0.0292768 -0.0876442 0)
(0.00738487 -0.275189 0)
(-0.00596732 0.0191846 0)
(-0.00771437 0.0114463 0)
(-0.000824611 0.0106689 0)
(0.00631723 0.0131918 0)
(0.0143888 0.0138582 0)
(0.0221782 0.0132751 0)
(0.0295482 0.0126281 0)
(0.0365499 0.0122117 0)
(0.0433593 0.011955 0)
(0.050194 0.011839 0)
(0.057317 0.0119004 0)
(0.0650384 0.012197 0)
(0.0736699 0.0127215 0)
(0.0835876 0.0130784 0)
(0.0938275 0.0123635 0)
(0.104867 0.00796036 0)
(0.103579 -0.000879585 0)
(0.117225 -0.0224249 0)
(0.0336861 -0.0467308 0)
(0.074141 -0.230612 0)
(0.0409414 0.0922726 0)
(0.0633713 0.0695175 0)
(0.0888313 0.043612 0)
(0.110604 0.0290876 0)
(0.127171 0.0213956 0)
(0.140874 0.0168388 0)
(0.153201 0.0138115 0)
(0.164561 0.0116689 0)
(0.175129 0.0100663 0)
(0.185092 0.0088258 0)
(0.194658 0.00786559 0)
(0.204026 0.00711029 0)
(0.213315 0.00648575 0)
(0.222724 0.00591754 0)
(0.231173 0.00524811 0)
(0.240344 0.00406457 0)
(0.237018 0.0022776 0)
(0.257865 -0.00312156 0)
(0.132522 0.00263931 0)
(0.381268 -0.0992841 0)
)
;

boundaryField
{
    movingWall
    {
        type            calculated;
        value           uniform (1.00014 -0.00013998 0);
    }
    fixedWalls
    {
        type            calculated;
        value           uniform (0.000138193 -0.00013998 0);
    }
    frontAndBack
    {
        type            empty;
    }
}


// ************************************************************************* //
