/*--------------------------------*- C++ -*----------------------------------*\
| =========                 |                                                 |
| \\      /  F ield         | OpenFOAM: The Open Source CFD Toolbox           |
|  \\    /   O peration     | Version:  2312                                  |
|   \\  /    A nd           | Website:  www.openfoam.com                      |
|    \\/     M anipulation  |                                                 |
\*---------------------------------------------------------------------------*/
FoamFile
{
    version     2.0;
    format      ascii;
    arch        "LSB;label=32;scalar=64";
    class       volScalarField;
    location    "0.75";
    object      diffP;
}
// * * * * * * * * * * * * * * * * * * * * * * * * * * * * * * * * * * * * * //

dimensions      [0 2 -2 0 0 0 0];

internalField   nonuniform List<scalar> 
400
(
-3
-3
-3.00001
-3.00004
-3.00011
-3.0002
-3.00032
-3.00048
-3.00066
-3.00087
-3.0011
-3.00135
-3.00162
-3.00189
-3.00215
-3.00238
-3.00256
-3.00269
-3.00275
-3.00276
-3.00001
-3
-3.00001
-3.00006
-3.00012
-3.00021
-3.00033
-3.00048
-3.00066
-3.00086
-3.00109
-3.00134
-3.0016
-3.00187
-3.00212
-3.00235
-3.00254
-3.00268
-3.00275
-3.00276
-3
-3
-3
-3.00003
-3.0001
-3.00019
-3.00031
-3.00045
-3.00063
-3.00083
-3.00106
-3.00131
-3.00158
-3.00185
-3.00212
-3.00237
-3.00258
-3.00273
-3.00281
-3.00281
-3
-3
-3
-3
-3.00003
-3.00012
-3.00023
-3.00038
-3.00055
-3.00076
-3.00099
-3.00126
-3.00154
-3.00185
-3.00215
-3.00243
-3.00267
-3.00284
-3.00292
-3.00291
-3
-3
-3
-3
-3
-3
-3.00012
-3.00026
-3.00044
-3.00065
-3.0009
-3.00118
-3.0015
-3.00184
-3.00219
-3.00253
-3.00282
-3.00302
-3.00309
-3.00306
-3
-3
-3
-3
-3
-3
-3
-3.0001
-3.00027
-3.00049
-3.00075
-3.00106
-3.00142
-3.00181
-3.00224
-3.00266
-3.00302
-3.00325
-3.00333
-3.00327
-3
-3
-3
-3
-3
-3
-3
-3
-3.00006
-3.00027
-3.00054
-3.00088
-3.00128
-3.00174
-3.00226
-3.0028
-3.00327
-3.00356
-3.00364
-3.00352
-3
-3
-3
-3
-3
-3
-3
-3
-3
-3
-3.00025
-3.0006
-3.00104
-3.00159
-3.00223
-3.00293
-3.00357
-3.00396
-3.00402
-3.00378
-3
-3
-3
-3
-3
-3
-3
-3
-3
-3
-3
-3.0002
-3.00066
-3.00127
-3.00205
-3.003
-3.00394
-3.00448
-3.00446
-3.00398
-3
-3
-3
-3
-3
-3
-3
-3
-3
-3
-3
-3
-3.00006
-3.0007
-3.00159
-3.00289
-3.00436
-3.00517
-3.0048
-3.00392
-3
-3
-3
-3
-3
-3
-3
-3
-3
-3
-3
-3
-3
-3
-3.0006
-3.00211
-3.00415
-3.00543
-3.00481
-3.0036
-3
-3
-3
-3
-3
-3
-3
-3
-3
-3
-3
-3
-3
-3
-3
-3
-3
-3.00228
-3.0039
-3.00301
-3
-3
-3
-3
-3
-3
-3
-3
-3
-3
-3
-3
-3
-3
-3
-3
-3
-3
-3
-3.00067
-3
-3
-3
-3
-3
-3
-3
-3
-3
-3
-3
-3
-3
-3
-3
-3
-3
-3
-3
-3
-3
-3
-3
-3
-3
-3
-3
-3
-3
-3
-3
-3
-3
-3
-3
-3
-3
-3
-3
-3
-3
-3
-3
-3
-3
-3
-3
-3
-3
-3
-3
-3
-3
-3
-3
-3
-3
-3
-3
-3
-3
-3
-3
-3
-3
-3
-3
-3
-3
-3
-3
-3
-3
-3
-3
-3
-3
-3
-3
-3
-3
-3
-3
-3
-3
-3
-3
-3
-3
-3
-3
-3
-3
-3
-3
-3
-3
-3
-3
-3
-3
-3
-3
-3
-3
-3
-3
-3
-3
-3
-3
-3
-3
-3
-3
-3
-3
-3
-3
-3.02312
-3.00056
-3.00367
-3.00189
-3
-3
-3
-3
-3
-3
-3
-3
-3
-3
-3
-3
-3
-3
-3
-3.00179
-3.11193
)
;

boundaryField
{
    movingWall
    {
        type            calculated;
        value           nonuniform List<scalar> 
20
(
-3.00056
-3.00367
-3.00189
-3
-3
-3
-3
-3
-3
-3
-3
-3
-3
-3
-3
-3
-3
-3
-3.00179
-3.11193
)
;
    }
    fixedWalls
    {
        type            calculated;
        value           nonuniform List<scalar> 
60
(
-3
-3.00001
-3
-3
-3
-3
-3
-3
-3
-3
-3
-3
-3
-3
-3
-3
-3
-3
-3
-3.00056
-3.00276
-3.00276
-3.00281
-3.00291
-3.00306
-3.00327
-3.00352
-3.00378
-3.00398
-3.00392
-3.0036
-3.00301
-3.00067
-3
-3
-3
-3
-3
-3.02312
-3.11193
-3
-3
-3.00001
-3.00004
-3.00011
-3.0002
-3.00032
-3.00048
-3.00066
-3.00087
-3.0011
-3.00135
-3.00162
-3.00189
-3.00215
-3.00238
-3.00256
-3.00269
-3.00275
-3.00276
)
;
    }
    frontAndBack
    {
        type            empty;
    }
}


// ************************************************************************* //
