/*--------------------------------*- C++ -*----------------------------------*\
| =========                 |                                                 |
| \\      /  F ield         | OpenFOAM: The Open Source CFD Toolbox           |
|  \\    /   O peration     | Version:  2312                                  |
|   \\  /    A nd           | Website:  www.openfoam.com                      |
|    \\/     M anipulation  |                                                 |
\*---------------------------------------------------------------------------*/
FoamFile
{
    version     2.0;
    format      ascii;
    arch        "LSB;label=32;scalar=64";
    class       volScalarField;
    location    "0.75";
    object      divPhi;
}
// * * * * * * * * * * * * * * * * * * * * * * * * * * * * * * * * * * * * * //

dimensions      [0 0 -1 0 0 0 0];

internalField   nonuniform List<scalar> 
400
(
-2.28098e-07
9.35536e-10
-1.11386e-08
2.57174e-08
7.61888e-08
1.20409e-07
1.57854e-07
1.86333e-07
2.10821e-07
2.29531e-07
2.46948e-07
2.62334e-07
2.78163e-07
2.90004e-07
2.98694e-07
3.01341e-07
2.87752e-07
2.72627e-07
3.44159e-07
1.37359e-07
1.43868e-07
8.48706e-08
5.7953e-08
7.69509e-08
1.05615e-07
1.41419e-07
1.68706e-07
1.95906e-07
2.15436e-07
2.35181e-07
2.50263e-07
2.66264e-07
2.79832e-07
2.93222e-07
3.00527e-07
2.98675e-07
2.97073e-07
3.02521e-07
2.62568e-07
1.97808e-07
2.37493e-07
1.70186e-07
1.35757e-07
1.29945e-07
1.43917e-07
1.62012e-07
1.82885e-07
2.01015e-07
2.18822e-07
2.33897e-07
2.4896e-07
2.62473e-07
2.76062e-07
2.878e-07
2.96018e-07
2.97874e-07
2.81841e-07
2.66512e-07
3.79024e-07
1.19724e-07
2.84364e-07
2.21196e-07
1.81168e-07
1.68039e-07
1.68894e-07
1.78942e-07
1.91219e-07
2.05419e-07
2.18779e-07
2.32504e-07
2.45279e-07
2.58195e-07
2.7075e-07
2.82661e-07
2.89322e-07
2.85009e-07
2.86016e-07
3.15288e-07
2.22211e-07
2.16904e-07
2.23867e-07
2.14885e-07
1.96396e-07
1.85206e-07
1.84054e-07
1.88277e-07
1.96735e-07
2.06577e-07
2.17792e-07
2.2914e-07
2.40955e-07
2.52801e-07
2.64547e-07
2.74838e-07
2.82611e-07
2.84948e-07
2.64188e-07
2.36493e-07
4.13059e-07
9.68327e-08
2.71895e-07
2.22936e-07
1.98531e-07
1.87932e-07
1.84776e-07
1.87296e-07
1.92855e-07
2.00872e-07
2.10109e-07
2.20301e-07
2.30965e-07
2.42e-07
2.52905e-07
2.63649e-07
2.68527e-07
2.61016e-07
2.65787e-07
3.15424e-07
1.65919e-07
2.21441e-07
1.4598e-07
1.74833e-07
1.7548e-07
1.72753e-07
1.7269e-07
1.75208e-07
1.80364e-07
1.87233e-07
1.95495e-07
2.04561e-07
2.14539e-07
2.24468e-07
2.34136e-07
2.42151e-07
2.48901e-07
2.50804e-07
2.23304e-07
1.79305e-07
4.13915e-07
5.6071e-08
2.15872e-07
1.68317e-07
1.53749e-07
1.49775e-07
1.49828e-07
1.52699e-07
1.57321e-07
1.63557e-07
1.70771e-07
1.78994e-07
1.87424e-07
1.95786e-07
2.04205e-07
2.1222e-07
2.13476e-07
2.01121e-07
2.09405e-07
2.76496e-07
6.96552e-08
1.92358e-07
5.64504e-08
1.0106e-07
1.10542e-07
1.1307e-07
1.15517e-07
1.18717e-07
1.23245e-07
1.28576e-07
1.34772e-07
1.41387e-07
1.48138e-07
1.55254e-07
1.60347e-07
1.64134e-07
1.69217e-07
1.71974e-07
1.38448e-07
7.34365e-08
3.47006e-07
-1.33947e-08
1.34306e-07
8.46717e-08
7.31553e-08
7.17025e-08
7.29301e-08
7.57096e-08
7.90575e-08
8.32358e-08
8.76498e-08
9.23482e-08
9.71412e-08
1.00742e-07
1.0439e-07
1.09398e-07
1.06609e-07
8.93531e-08
9.99889e-08
1.79445e-07
-7.88489e-08
1.18695e-07
-4.08597e-08
5.33952e-09
1.63295e-08
1.92955e-08
2.12398e-08
2.28187e-08
2.5048e-08
2.70953e-08
2.9578e-08
3.16279e-08
3.3963e-08
3.56217e-08
3.60351e-08
3.33465e-08
3.51639e-08
4.32977e-08
1.09209e-08
-7.36153e-08
1.98657e-07
-9.50912e-08
2.42524e-08
-2.22774e-08
-3.24201e-08
-3.41537e-08
-3.49532e-08
-3.47408e-08
-3.51265e-08
-3.48988e-08
-3.5428e-08
-3.52799e-08
-3.59144e-08
-3.74437e-08
-3.98306e-08
-3.83491e-08
-3.99347e-08
-5.76722e-08
-4.1114e-08
4.16105e-08
-2.21599e-07
1.43584e-08
-1.40684e-07
-1.02382e-07
-9.32885e-08
-9.28319e-08
-9.35664e-08
-9.60506e-08
-9.79984e-08
-1.01e-07
-1.03362e-07
-1.0641e-07
-1.09434e-07
-1.13196e-07
-1.17629e-07
-1.24403e-07
-1.26861e-07
-1.13068e-07
-1.32038e-07
-2.0925e-07
6.95729e-09
-1.52716e-07
-1.00133e-07
-1.35447e-07
-1.42835e-07
-1.45925e-07
-1.49811e-07
-1.54061e-07
-1.5892e-07
-1.64119e-07
-1.69315e-07
-1.74752e-07
-1.8022e-07
-1.87707e-07
-1.96073e-07
-2.00537e-07
-2.03659e-07
-2.22228e-07
-2.02263e-07
-1.14077e-07
-3.19031e-07
-8.05684e-08
-2.21779e-07
-1.97393e-07
-1.93197e-07
-1.95132e-07
-2.00355e-07
-2.06246e-07
-2.14392e-07
-2.21878e-07
-2.30114e-07
-2.37146e-07
-2.45698e-07
-2.53817e-07
-2.62573e-07
-2.72736e-07
-2.83846e-07
-2.76678e-07
-2.79018e-07
-3.27218e-07
-1.68707e-07
-1.73016e-07
-2.09577e-07
-2.25552e-07
-2.29684e-07
-2.33744e-07
-2.40185e-07
-2.48938e-07
-2.59484e-07
-2.69457e-07
-2.79334e-07
-2.88551e-07
-2.97793e-07
-3.07004e-07
-3.16555e-07
-3.23226e-07
-3.27171e-07
-3.35661e-07
-3.13732e-07
-2.44152e-07
-3.75232e-07
-1.46281e-07
-2.65859e-07
-2.63182e-07
-2.62529e-07
-2.70025e-07
-2.75952e-07
-2.891e-07
-2.98367e-07
-3.11472e-07
-3.20955e-07
-3.32965e-07
-3.42375e-07
-3.52498e-07
-3.58939e-07
-3.65508e-07
-3.6824e-07
-3.5367e-07
-3.35248e-07
-3.71704e-07
-3.14539e-07
-1.87668e-07
-2.75488e-07
-2.84218e-07
-2.91115e-07
-2.9703e-07
-3.07809e-07
-3.16967e-07
-3.2873e-07
-3.38413e-07
-3.49594e-07
-3.59162e-07
-3.69382e-07
-3.77179e-07
-3.83279e-07
-3.85507e-07
-3.82017e-07
-3.71392e-07
-3.50269e-07
-3.27734e-07
-3.94666e-07
-1.84827e-07
-2.83255e-07
-2.8683e-07
-2.9273e-07
-2.97514e-07
-3.05028e-07
-3.11163e-07
-3.18802e-07
-3.24877e-07
-3.31689e-07
-3.38093e-07
-3.45674e-07
-3.52075e-07
-3.57162e-07
-3.60812e-07
-3.58956e-07
-3.41008e-07
-3.16189e-07
-3.44903e-07
-3.78424e-07
-1.80941e-07
-1.3843e-07
-1.37276e-07
-1.36327e-07
-1.37859e-07
-1.38912e-07
-1.41728e-07
-1.43935e-07
-1.47151e-07
-1.49952e-07
-1.53405e-07
-1.56344e-07
-1.59071e-07
-1.61444e-07
-1.62643e-07
-1.57462e-07
-1.44404e-07
-1.40907e-07
-1.71493e-07
-1.8242e-07
0
)
;

boundaryField
{
    movingWall
    {
        type            extrapolatedCalculated;
        value           nonuniform List<scalar> 
20
(
-1.3843e-07
-1.37276e-07
-1.36327e-07
-1.37859e-07
-1.38912e-07
-1.41728e-07
-1.43935e-07
-1.47151e-07
-1.49952e-07
-1.53405e-07
-1.56344e-07
-1.59071e-07
-1.61444e-07
-1.62643e-07
-1.57462e-07
-1.44404e-07
-1.40907e-07
-1.71493e-07
-1.8242e-07
0
)
;
    }
    fixedWalls
    {
        type            extrapolatedCalculated;
        value           nonuniform List<scalar> 
60
(
-2.28098e-07
1.43868e-07
2.37493e-07
2.84364e-07
2.23867e-07
2.71895e-07
1.4598e-07
2.15872e-07
5.64504e-08
1.34306e-07
-4.08597e-08
2.42524e-08
-1.40684e-07
-1.00133e-07
-2.21779e-07
-2.09577e-07
-2.65859e-07
-2.75488e-07
-2.83255e-07
-1.3843e-07
1.37359e-07
1.97808e-07
1.19724e-07
2.16904e-07
9.68327e-08
2.21441e-07
5.6071e-08
1.92358e-07
-1.33947e-08
1.18695e-07
-9.50912e-08
1.43584e-08
-1.52716e-07
-8.05684e-08
-1.73016e-07
-1.46281e-07
-1.87668e-07
-1.84827e-07
-1.80941e-07
0
-2.28098e-07
9.35536e-10
-1.11386e-08
2.57174e-08
7.61888e-08
1.20409e-07
1.57854e-07
1.86333e-07
2.10821e-07
2.29531e-07
2.46948e-07
2.62334e-07
2.78163e-07
2.90004e-07
2.98694e-07
3.01341e-07
2.87752e-07
2.72627e-07
3.44159e-07
1.37359e-07
)
;
    }
    frontAndBack
    {
        type            empty;
    }
}


// ************************************************************************* //
