/*--------------------------------*- C++ -*----------------------------------*\
| =========                 |                                                 |
| \\      /  F ield         | OpenFOAM: The Open Source CFD Toolbox           |
|  \\    /   O peration     | Version:  2312                                  |
|   \\  /    A nd           | Website:  www.openfoam.com                      |
|    \\/     M anipulation  |                                                 |
\*---------------------------------------------------------------------------*/
FoamFile
{
    version     2.0;
    format      ascii;
    arch        "LSB;label=32;scalar=64";
    class       volScalarField;
    location    "0.75";
    object      divU;
}
// * * * * * * * * * * * * * * * * * * * * * * * * * * * * * * * * * * * * * //

dimensions      [0 0 -1 0 0 0 0];

internalField   nonuniform List<scalar> 
400
(
0.000224638
0.0171622
0.0110977
0.0155076
0.0148584
0.0138275
0.0126292
0.0112596
0.00891944
0.00691383
0.00476422
0.00171675
-0.00299293
-0.00743175
-0.0129707
-0.018644
-0.0239544
-0.0217844
-0.0289553
0.000737465
-0.0160834
0.000601097
-0.0134847
-0.0137184
-0.0126236
-0.011428
-0.0100193
-0.00823577
-0.00612603
-0.00332934
-0.000465415
0.00155929
0.00613562
0.00969869
0.0127497
0.0153869
0.0165118
0.0147502
-0.00287671
0.0271092
-0.0120531
0.0137281
-0.00054519
-0.00342895
-0.00305
-0.0026316
-0.00231108
-0.00185355
-0.00126163
-0.000405394
0.000507923
0.00137584
0.00242126
0.00334775
0.00389885
0.00423201
0.00287332
-0.00327883
-0.0229858
0.0183096
-0.0173631
0.0150645
0.00270682
-0.000535136
-7.48489e-05
0.000329586
0.000400836
0.0004926
0.00066521
0.000961978
0.00132306
0.00165831
0.0017813
0.00166755
0.0013402
0.000803814
-0.00195323
-0.00912162
-0.0277366
0.0275552
-0.0178829
0.0155555
0.00314832
-0.000574181
-0.000209762
0.000326823
0.000468661
0.000550677
0.000711246
0.000991097
0.00142449
0.00192063
0.002455
0.00295056
0.00334885
0.00285446
-0.00191069
-0.0108662
-0.0326218
0.0353196
-0.0182866
0.0159352
0.0031852
-0.000887931
-0.000811066
-0.00026583
-8.79502e-05
4.65243e-05
0.000295351
0.000708675
0.00138176
0.00200183
0.00270487
0.00494519
0.00697863
0.0065464
-0.00248084
-0.0140768
-0.0417964
0.0491484
-0.0189433
0.0165193
0.00339775
-0.000836575
-0.00106282
-0.000603332
-0.00046772
-0.000377592
-0.000146674
0.000362339
0.00128171
0.00216706
0.00335242
0.00754381
0.0127699
0.0125572
-0.00611641
-0.0221988
-0.0570815
0.0740261
-0.0197624
0.0172174
0.00360431
-0.000730484
-0.00122977
-0.000872167
-0.000851011
-0.000877548
-0.000797317
-0.000500347
0.000413704
0.00259879
0.00500893
0.00866023
0.0212825
0.0251209
-0.0116353
-0.0366813
-0.0632412
0.121556
-0.0206068
0.0181033
0.00381695
-0.00065345
-0.00141631
-0.00117079
-0.00129239
-0.00152876
-0.00172943
-0.00173714
-0.000849694
0.00176701
0.0034739
0.0078083
0.0374302
0.0822622
0.0550456
0.0170401
-0.0796214
0.122833
-0.02144
0.0193023
0.00411294
-0.000580294
-0.00159597
-0.00146331
-0.0017576
-0.00227688
-0.00297163
-0.00383548
-0.00400473
-0.0020058
-0.000259016
0.0062217
0.075437
0.244768
0.279962
0.150921
-0.0317348
0.103245
-0.0218738
0.0210421
0.00459113
-0.000495169
-0.00173526
-0.00165581
-0.00205609
-0.0028395
-0.00411881
-0.0064191
-0.00905112
-0.00761942
-0.00856029
-0.00592062
0.0905245
0.206662
0.063555
-0.188017
0.345505
0.49525
-0.0236338
0.0231423
0.00519538
-0.000441563
-0.0017826
-0.00159065
-0.00192786
-0.00276632
-0.00444698
-0.00874832
-0.0166277
-0.0139712
-0.0124206
-0.104114
-0.238031
-0.270251
-0.49685
-0.774937
-0.67802
0.436903
-0.0190967
0.0277359
0.00689862
-0.000165319
-0.001602
-0.00115107
-0.00111681
-0.00147764
-0.00262751
-0.00770918
-0.0188443
-0.00281194
0.0173656
-0.224054
-0.597224
-0.59854
-0.225616
-0.546961
-2.04124
-0.38517
-0.0418667
0.0258127
0.00444734
-0.0024554
-0.00272892
-0.00117026
-0.00017688
0.000636539
0.00178129
0.00152673
-0.00010912
0.0358524
0.131144
-0.0633846
-0.579078
-0.0771534
1.37855
1.41419
-0.0521744
-0.81398
0.0184564
0.0507063
0.00837296
-0.00641082
-0.00499934
-0.00231872
0.00135154
0.00383252
0.00712865
0.0128717
0.0242749
0.0616132
0.169679
0.147643
-0.108836
0.583428
1.68733
1.28383
2.85001
-0.998935
-0.293087
-0.133292
-0.0992889
-0.058015
-0.0302586
-0.0172447
-0.00895214
0.000490139
0.0120713
0.0243052
0.0411515
0.0635327
0.115777
0.107278
-0.149454
-0.318629
0.594461
-0.630864
1.7999
-1.57592
0.840187
0.810248
0.571376
0.350503
0.23924
0.174619
0.133162
0.106253
0.088288
0.0760185
0.0758763
0.0816211
0.0655124
-0.0658455
-0.32114
-0.656654
0.350884
-0.897751
-0.613772
-2.25561
-2.10517
-2.10459
-1.62006
-1.06879
-0.754282
-0.570528
-0.438994
-0.339813
-0.266547
-0.216022
-0.185215
-0.176445
-0.196424
-0.314225
-0.357589
-0.55464
1.17603
-0.325624
0.306881
0.859365
3.21326
3.26877
2.23835
1.43146
1.07874
0.818683
0.630987
0.489935
0.384248
0.303703
0.237383
0.162178
0.0882449
-0.0236714
0.0818239
-0.307636
1.79846
-3.10057
4.71994
6.83542
-0.770089
-3.33539
-0.732852
-0.422001
-0.526369
-0.436405
-0.303266
-0.223202
-0.176974
-0.141603
-0.111162
-0.0930108
-0.0789414
-0.141768
-0.0271576
-0.646049
1.58431
-7.9229
16.7214
-18.3897
)
;

boundaryField
{
    movingWall
    {
        type            extrapolatedCalculated;
        value           nonuniform List<scalar> 
20
(
-0.770089
-3.33539
-0.732852
-0.422001
-0.526369
-0.436405
-0.303266
-0.223202
-0.176974
-0.141603
-0.111162
-0.0930108
-0.0789414
-0.141768
-0.0271576
-0.646049
1.58431
-7.9229
16.7214
-18.3897
)
;
    }
    fixedWalls
    {
        type            extrapolatedCalculated;
        value           nonuniform List<scalar> 
60
(
0.000224638
-0.0160834
-0.0120531
-0.0173631
-0.0178829
-0.0182866
-0.0189433
-0.0197624
-0.0206068
-0.02144
-0.0218738
-0.0236338
-0.0190967
-0.0418667
0.0184564
-0.293087
0.840187
-2.10517
3.21326
-0.770089
0.000737465
0.0271092
0.0183096
0.0275552
0.0353196
0.0491484
0.0740261
0.121556
0.122833
0.103245
0.49525
0.436903
-0.38517
-0.81398
-0.998935
-1.57592
-2.25561
0.859365
6.83542
-18.3897
0.000224638
0.0171622
0.0110977
0.0155076
0.0148584
0.0138275
0.0126292
0.0112596
0.00891944
0.00691383
0.00476422
0.00171675
-0.00299293
-0.00743175
-0.0129707
-0.018644
-0.0239544
-0.0217844
-0.0289553
0.000737465
)
;
    }
    frontAndBack
    {
        type            empty;
    }
}


// ************************************************************************* //
