/*--------------------------------*- C++ -*----------------------------------*\
| =========                 |                                                 |
| \\      /  F ield         | OpenFOAM: The Open Source CFD Toolbox           |
|  \\    /   O peration     | Version:  2312                                  |
|   \\  /    A nd           | Website:  www.openfoam.com                      |
|    \\/     M anipulation  |                                                 |
\*---------------------------------------------------------------------------*/
FoamFile
{
    version     2.0;
    format      ascii;
    arch        "LSB;label=32;scalar=64";
    class       volScalarField;
    location    "0.75";
    object      enstrophyField;
}
// * * * * * * * * * * * * * * * * * * * * * * * * * * * * * * * * * * * * * //

dimensions      [0 0 -2 0 0 0 0];

internalField   nonuniform List<scalar> 
400
(
0.00765431
0.0419445
0.132004
0.291318
0.526342
0.823945
1.16143
1.51094
1.84066
2.11858
2.30719
2.36836
2.27961
2.03718
1.65869
1.19967
0.742232
0.371971
0.129405
0.0303872
0.0428268
0.02547
0.0161963
0.0111846
0.00913906
0.00878527
0.00931016
0.0101467
0.0108406
0.0110495
0.0109532
0.010321
0.00949697
0.00919679
0.0099111
0.012518
0.0184931
0.0300838
0.0482464
0.129332
0.134756
0.0180472
0.00764292
0.00340824
0.00148895
0.000661148
0.000312041
0.000158783
8.21011e-05
3.89657e-05
1.76518e-05
1.11273e-05
2.8049e-05
0.000147914
0.000669756
0.00232639
0.00648437
0.0152894
0.0357765
0.415247
0.3019
0.0141529
0.00448784
0.00170782
0.000538365
0.000101332
5.56252e-07
3.28188e-05
0.000103938
0.000171587
0.000203784
0.000170224
6.70416e-05
2.92888e-06
0.000312068
0.00161942
0.00488826
0.0118286
0.0346967
0.978423
0.564387
0.0131927
0.00311383
0.00108545
0.000302581
3.14816e-05
1.04583e-05
9.20521e-05
0.000191552
0.000259035
0.000255922
0.000163793
3.01295e-05
4.60188e-05
0.000590745
0.00219242
0.00555078
0.0124967
0.0430109
1.96578
0.931267
0.0143668
0.00260576
0.000855926
0.000243676
2.73944e-05
7.49712e-06
7.2218e-05
0.000146083
0.000177517
0.000136015
3.86904e-05
1.49555e-05
0.000360526
0.00148891
0.00378519
0.00777027
0.0159931
0.0619429
3.57606
1.41002
0.0174017
0.00259885
0.000820778
0.000256092
4.44524e-05
2.25106e-07
3.02248e-05
6.72668e-05
6.66085e-05
2.10876e-05
1.29425e-05
0.000295787
0.00129116
0.00332978
0.00635314
0.0106113
0.0197388
0.0892889
6.07133
2.01069
0.0223408
0.00295775
0.000908536
0.000308284
7.58119e-05
4.51771e-06
4.98289e-06
1.5824e-05
6.15806e-06
1.12593e-05
0.000220481
0.00106367
0.0030666
0.00618382
0.0094247
0.0131307
0.0231169
0.120709
9.60904
2.74752
0.0293782
0.00364172
0.00108512
0.000378756
0.000108529
1.58012e-05
1.95919e-09
7.51822e-07
4.51482e-06
0.000107222
0.000632654
0.0021984
0.00549158
0.010577
0.0186338
0.0482989
0.164992
0.525274
14.2018
3.64085
0.0387982
0.00463295
0.0013101
0.000431175
0.000115233
1.51922e-05
3.67583e-09
7.06154e-08
1.51354e-05
0.00018854
0.000903969
0.00280344
0.00754802
0.0216801
0.0807884
0.47714
2.1269
6.27622
24.3058
4.7208
0.0509034
0.00585777
0.00149268
0.000400009
6.52089e-05
6.29795e-08
1.50497e-05
1.58185e-05
2.89015e-07
9.29388e-05
0.000485032
0.00132582
0.00499956
0.0308744
0.102538
0.436453
4.77894
29.9187
63.0748
6.03721
0.0656961
0.00703919
0.001435
0.000210647
6.93468e-08
9.2572e-05
0.000206462
0.000214455
0.000123411
4.38552e-05
3.54081e-05
0.000374628
0.00914967
0.222547
2.89252
8.73836
0.51132
43.3159
173.634
7.65934
0.0821795
0.00741822
0.000851963
4.19331e-07
0.000374121
0.000943056
0.00129643
0.00131622
0.00119416
0.00144147
0.00291442
0.0148262
0.404988
7.03468
47.1034
113.486
79.0395
4.66303
402.055
9.7731
0.0945062
0.00552903
1.17115e-05
0.00122076
0.00342892
0.00521555
0.00598668
0.00588037
0.00571809
0.00762227
0.0171114
0.0851518
1.78771
26.0407
133.511
298.704
324.549
49.1071
670.442
12.2648
0.0982692
0.001052
0.00323297
0.0116063
0.01886
0.0232616
0.0246711
0.0239318
0.0227119
0.0272075
0.0553896
0.216242
2.52975
27.2557
131.672
298.281
430.491
252.742
787.749
16.6447
0.0609848
0.00554949
0.0360904
0.0639038
0.084459
0.0995495
0.110889
0.11277
0.107026
0.109102
0.154321
0.369719
2.10862
15.6748
70.7906
149.045
227.94
370.794
730.415
18.1912
0.0494343
0.0782276
0.233718
0.358103
0.476007
0.605964
0.737601
0.845974
0.915831
0.949999
1.01149
1.28626
2.59215
8.94286
30.8897
63.509
105.799
321.714
647.043
41.2825
0.539228
1.9584
2.9421
4.4226
6.3267
8.31944
10.2924
12.1602
13.754
14.8349
15.3198
15.701
17.1874
22.1979
35.3927
57.9573
108.583
296.972
392.248
1.0949
31.6577
44.5877
64.5821
87.139
105.555
120.472
133.713
145.622
155.745
163.531
168.374
170.271
170.472
172.426
181.747
204.834
271.246
484.95
46.8706
16258.2
19865.8
19065.2
18156
17502.6
17016.6
16611.1
16252.4
15924.5
15614.8
15312.8
15009.4
14697.3
14368.6
14063.8
13745.4
13892.2
13200.3
18629
10490.8
)
;

boundaryField
{
    movingWall
    {
        type            calculated;
        value           nonuniform List<scalar> 
20
(
67517.7
72037.8
67920.4
64094.7
61394.2
59327.8
57559.5
55980.4
54545.1
53215.8
51959.2
50747.5
49564.8
48388.3
47361.6
46273.3
46807.9
44066.8
63604.1
28301
)
;
    }
    fixedWalls
    {
        type            calculated;
        value           nonuniform List<scalar> 
60
(
0.0068933
0.0722917
0.343736
0.90386
1.81233
3.08901
4.74845
6.81652
9.33694
12.3777
16.0442
20.5231
26.0728
33.5312
42.4037
60.027
64.0833
176.191
4.98952
12730.5
0.0382999
0.277306
1.18996
3.11429
6.52137
12.0192
20.3529
31.7049
44.0596
59.0797
101.813
268.331
927.379
2408.27
4173.57
5402.92
5756.75
5178.89
1501.55
6592.86
0.00691264
0.0717635
0.343431
0.884631
1.70663
2.75261
3.93851
5.16806
6.33369
7.32759
7.99917
8.23331
7.93643
7.06422
5.68752
4.008
2.34396
1.03663
0.267223
0.0380717
)
;
    }
    frontAndBack
    {
        type            empty;
    }
}


// ************************************************************************* //
