/*--------------------------------*- C++ -*----------------------------------*\
| =========                 |                                                 |
| \\      /  F ield         | OpenFOAM: The Open Source CFD Toolbox           |
|  \\    /   O peration     | Version:  2312                                  |
|   \\  /    A nd           | Website:  www.openfoam.com                      |
|    \\/     M anipulation  |                                                 |
\*---------------------------------------------------------------------------*/
FoamFile
{
    version     2.0;
    format      ascii;
    arch        "LSB;label=32;scalar=64";
    class       volScalarField;
    location    "0.75";
    object      flowTypeField;
}
// * * * * * * * * * * * * * * * * * * * * * * * * * * * * * * * * * * * * * //

dimensions      [0 0 0 0 0 0 0];

internalField   nonuniform List<scalar> 
400
(
0.21142
0.196477
0.146794
0.0987703
0.0647516
0.0429126
0.0296079
0.021728
0.0174447
0.0153066
0.0144227
0.0164671
0.0210084
0.0278547
0.0399152
0.0597056
0.0906291
0.135678
0.197236
0.246966
0.187773
0.360802
0.501109
0.582328
0.615383
0.612037
0.584406
0.542102
0.49274
0.444277
0.408363
0.419322
0.487576
0.569373
0.625541
0.641887
0.616192
0.548891
0.442503
0.209621
0.14134
0.481975
0.636977
0.745256
0.823128
0.875206
0.907874
0.927968
0.942002
0.954738
0.966503
0.973774
0.964555
0.935841
0.892321
0.836203
0.766602
0.681177
0.557962
0.143852
0.0970493
0.553188
0.719486
0.817019
0.892238
0.950893
0.99615
0.969364
0.943003
0.92365
0.915761
0.926507
0.958673
0.992573
0.937147
0.880042
0.819326
0.748186
0.613311
0.0961287
0.0650817
0.583642
0.770673
0.857218
0.921542
0.973803
0.98464
0.954463
0.934261
0.924266
0.927194
0.945567
0.978893
0.977378
0.931474
0.886719
0.840887
0.782901
0.635004
0.0670468
0.0441049
0.585024
0.79767
0.878495
0.933184
0.977156
0.988078
0.963976
0.950437
0.947855
0.957285
0.979154
0.98851
0.951842
0.91648
0.884628
0.852464
0.804637
0.644225
0.0522816
0.0308417
0.568271
0.807237
0.887198
0.935644
0.973006
0.998101
0.979013
0.970517
0.972821
0.986094
0.990366
0.960638
0.930512
0.905559
0.887445
0.86982
0.833967
0.6638
0.0505739
0.0223454
0.541383
0.804922
0.887766
0.933598
0.967135
0.992163
0.992222
0.987243
0.992825
0.991501
0.968114
0.941627
0.918167
0.903886
0.899628
0.895077
0.869132
0.700598
0.0656615
0.0166923
0.509886
0.795041
0.883578
0.930127
0.962775
0.986243
0.999856
0.997467
0.994585
0.977805
0.95582
0.933678
0.916397
0.908029
0.901929
0.86765
0.780758
0.591699
0.0926333
0.012672
0.477271
0.780896
0.877504
0.927985
0.962747
0.986926
0.999812
0.999274
0.991053
0.974463
0.955999
0.940112
0.92567
0.906897
0.867538
0.756715
0.578421
0.295301
0.0584403
0.00948857
0.445913
0.765675
0.872999
0.931192
0.971713
0.999145
0.988044
0.989491
0.998843
0.983992
0.972529
0.966638
0.954197
0.922055
0.898975
0.839437
0.590618
0.192605
-0.0838023
0.00646165
0.418018
0.754037
0.876432
0.948457
0.999013
0.965413
0.953789
0.961042
0.977144
0.989949
0.993525
0.985471
0.953196
0.849873
0.630289
0.501643
0.868105
0.280333
-0.0252248
0.00354559
0.398513
0.755246
0.902333
0.99748
0.920978
0.875918
0.871686
0.898884
0.930474
0.947106
0.948735
0.924059
0.761437
0.396426
-0.0240949
-0.174447
-0.0401599
0.687738
0.0729077
-0.00123192
0.393723
0.789378
0.987535
0.85613
0.725798
0.647763
0.682763
0.776495
0.851859
0.88692
0.888481
0.837302
0.544785
-0.0201857
-0.478737
-0.55404
-0.509711
-0.150651
0.100033
-2.5715e-05
0.421266
0.90275
0.795279
0.535153
0.247307
0.11809
0.35998
0.588406
0.733707
0.805541
0.815849
0.757593
0.454959
-0.136344
-0.727767
-0.706413
-0.464666
-0.382531
0.0933463
-0.0191435
0.48311
0.772642
0.343978
-0.116537
-0.70566
-0.210953
0.136581
0.373512
0.5527
0.671779
0.721967
0.696951
0.491281
0.0168183
-0.544195
-0.619516
-0.363243
-0.189639
0.0757556
0.0254361
0.729
0.494293
-0.0774114
-0.42483
-0.318577
-0.130376
0.0122189
0.134877
0.255243
0.373818
0.471431
0.518426
0.450765
0.170222
-0.271426
-0.357924
-0.234515
-0.0659624
0.0748957
-0.0123295
0.469293
0.123914
-0.0962585
-0.120432
-0.0810046
-0.0433519
-0.0138843
0.0120427
0.0401289
0.0756252
0.117347
0.151418
0.145492
0.0327066
-0.318761
-0.740829
-0.346681
0.0280851
0.235321
0.747714
-0.0360233
0.0316707
0.0352217
0.00844336
-0.00180656
-0.00117215
0.000950203
0.00265191
0.00468778
0.0076128
0.0114218
0.0140311
0.00992358
-0.0145817
-0.0698999
-0.172225
-0.125617
-0.277465
0.760964
0.0850097
-0.0237898
-0.0204006
-0.0113231
-0.00627059
-0.00388896
-0.00265045
-0.00191655
-0.00145052
-0.00111494
-0.000856648
-0.000674798
-0.000571795
-0.00061016
-0.000993506
-0.00176081
-0.00427311
0.00240001
-0.0496159
0.122857
)
;

boundaryField
{
    movingWall
    {
        type            calculated;
        value           nonuniform List<scalar> 
20
(
0.0468009
-0.0100819
-0.0098302
-0.00563922
-0.00316377
-0.00198178
-0.00136549
-0.000998908
-0.00076552
-0.000596481
-0.000465727
-0.000374631
-0.000325839
-0.00035112
-0.000561421
-0.000960212
-0.0023326
0.000748277
-0.0270361
0.0687924
)
;
    }
    fixedWalls
    {
        type            calculated;
        value           nonuniform List<scalar> 
60
(
0.140215
0.0974412
0.0590806
0.036675
0.0228567
0.0145672
0.00961633
0.00655211
0.00453894
0.00307225
0.00180581
0.00042937
-0.00112873
-0.00367683
-0.00373444
-0.0124352
0.000519234
-0.00641719
0.639018
0.191522
0.134884
0.0931893
0.0510672
0.0293129
0.0175591
0.0125141
0.0140641
0.0258174
0.0471392
0.0366099
-0.0939459
-0.087184
0.0244765
0.0460296
0.0414306
0.0306144
0.0266055
0.0759704
0.432782
0.438048
0.140472
0.103554
0.0620496
0.0385505
0.0244772
0.0162665
0.0116086
0.00907255
0.00793014
0.00757837
0.00760824
0.00890032
0.0111127
0.0139259
0.0185731
0.0259981
0.0378811
0.0567388
0.0920313
0.133675
)
;
    }
    frontAndBack
    {
        type            empty;
    }
}


// ************************************************************************* //
