/*--------------------------------*- C++ -*----------------------------------*\
| =========                 |                                                 |
| \\      /  F ield         | OpenFOAM: The Open Source CFD Toolbox           |
|  \\    /   O peration     | Version:  2312                                  |
|   \\  /    A nd           | Website:  www.openfoam.com                      |
|    \\/     M anipulation  |                                                 |
\*---------------------------------------------------------------------------*/
FoamFile
{
    version     2.0;
    format      ascii;
    arch        "LSB;label=32;scalar=64";
    class       volTensorField;
    location    "0.75";
    object      gradU;
}
// * * * * * * * * * * * * * * * * * * * * * * * * * * * * * * * * * * * * * //

dimensions      [0 0 -1 0 0 0 0];

internalField   nonuniform List<tensor> 
400
(
(-0.0949224 0.0623037 0 -0.0614243 0.095147 0 0 0 0)
(-0.187016 0.0544374 0 -0.235199 0.204178 0 0 0 0)
(-0.250629 0.0254308 0 -0.488386 0.261726 0 0 0 0)
(-0.26286 0.00320963 0 -0.760096 0.278367 0 0 0 0)
(-0.257818 -0.00727491 0 -1.03328 0.272676 0 0 0 0)
(-0.241603 -0.0118792 0 -1.29558 0.25543 0 0 0 0)
(-0.218525 -0.0145859 0 -1.53868 0.231154 0 0 0 0)
(-0.189762 -0.0173148 0 -1.75567 0.201021 0 0 0 0)
(-0.155393 -0.0211093 0 -1.93978 0.164312 0 0 0 0)
(-0.112305 -0.025659 0 -2.08409 0.119219 0 0 0 0)
(-0.0601198 -0.029664 0 -2.17777 0.064884 0 0 0 0)
(0.000502082 -0.0364386 0 -2.21284 0.00121467 0 0 0 0)
(0.0722971 -0.0433715 0 -2.17861 -0.07529 0 0 0 0)
(0.1522 -0.0463771 0 -2.06488 -0.159632 0 0 0 0)
(0.233919 -0.0459568 0 -1.86732 -0.24689 0 0 0 0)
(0.308892 -0.0382286 0 -1.58721 -0.327536 0 0 0 0)
(0.362715 -0.0179165 0 -1.2363 -0.386669 0 0 0 0)
(0.380104 0.0212584 0 -0.841262 -0.401889 0 0 0 0)
(0.315856 0.0683972 0 -0.440336 -0.344811 0 0 0 0)
(0.204466 0.120739 0 -0.125785 -0.203728 0 0 0 0)
(-0.201701 0.237021 0 -0.0556452 0.185617 0 0 0 0)
(-0.239946 0.112142 0 -0.113557 0.240547 0 0 0 0)
(-0.274269 0.0487584 0 -0.131221 0.260784 0 0 0 0)
(-0.282034 0.00774054 0 -0.141823 0.268315 0 0 0 0)
(-0.277667 -0.0156622 0 -0.150859 0.265043 0 0 0 0)
(-0.263796 -0.0296429 0 -0.162197 0.252368 0 0 0 0)
(-0.241565 -0.0398229 0 -0.176279 0.231545 0 0 0 0)
(-0.211346 -0.0495275 0 -0.191983 0.20311 0 0 0 0)
(-0.17303 -0.0606929 0 -0.207938 0.166904 0 0 0 0)
(-0.125683 -0.073769 0 -0.222426 0.122353 0 0 0 0)
(-0.0686261 -0.0883403 0 -0.236348 0.0681607 0 0 0 0)
(-0.00133623 -0.103735 0 -0.247409 0.00289551 0 0 0 0)
(0.0756588 -0.117475 0 -0.255294 -0.0695232 0 0 0 0)
(0.159083 -0.125223 0 -0.260845 -0.149385 0 0 0 0)
(0.243754 -0.121948 0 -0.262739 -0.231004 0 0 0 0)
(0.322128 -0.101551 0 -0.259779 -0.306742 0 0 0 0)
(0.383232 -0.0564357 0 -0.248754 -0.366721 0 0 0 0)
(0.415862 0.0206001 0 -0.224691 -0.401112 0 0 0 0)
(0.399622 0.129763 0 -0.18087 -0.402498 0 0 0 0)
(0.361655 0.4278 0 -0.0807903 -0.334546 0 0 0 0)
(-0.264124 0.488468 0 -0.0306784 0.252071 0 0 0 0)
(-0.262592 0.129604 0 -0.0603808 0.27632 0 0 0 0)
(-0.278894 0.0531995 0 -0.0704364 0.278349 0 0 0 0)
(-0.282497 0.00746841 0 -0.0750936 0.279068 0 0 0 0)
(-0.278192 -0.0232226 0 -0.0777926 0.275142 0 0 0 0)
(-0.267023 -0.0453769 0 -0.0817403 0.264391 0 0 0 0)
(-0.248311 -0.0638436 0 -0.0888253 0.246 0 0 0 0)
(-0.221421 -0.0819567 0 -0.0997771 0.219567 0 0 0 0)
(-0.185836 -0.101866 0 -0.11468 0.184575 0 0 0 0)
(-0.140715 -0.124402 0 -0.13323 0.14031 0 0 0 0)
(-0.085102 -0.149122 0 -0.155064 0.0856099 0 0 0 0)
(-0.018443 -0.174123 0 -0.17884 0.0198188 0 0 0 0)
(0.0588603 -0.195652 0 -0.203142 -0.056439 0 0 0 0)
(0.144755 -0.207858 0 -0.225058 -0.141407 0 0 0 0)
(0.234986 -0.203314 0 -0.239913 -0.231087 0 0 0 0)
(0.322877 -0.173945 0 -0.242156 -0.318645 0 0 0 0)
(0.397803 -0.112287 0 -0.226168 -0.39493 0 0 0 0)
(0.447988 -0.0145193 0 -0.189387 -0.451267 0 0 0 0)
(0.459756 0.134963 0 -0.132531 -0.482742 0 0 0 0)
(0.466126 0.857784 0 -0.0535311 -0.447816 0 0 0 0)
(-0.29276 0.765413 0 -0.0116332 0.275397 0 0 0 0)
(-0.279704 0.13842 0 -0.0298234 0.294768 0 0 0 0)
(-0.288982 0.0515066 0 -0.0432335 0.291689 0 0 0 0)
(-0.28939 0.00453324 0 -0.0539103 0.288855 0 0 0 0)
(-0.284313 -0.030339 0 -0.0631525 0.284239 0 0 0 0)
(-0.274828 -0.0587849 0 -0.073021 0.275158 0 0 0 0)
(-0.259601 -0.0846472 0 -0.085702 0.260002 0 0 0 0)
(-0.2372 -0.110953 0 -0.102851 0.237693 0 0 0 0)
(-0.206482 -0.13995 0 -0.125532 0.207147 0 0 0 0)
(-0.166067 -0.172734 0 -0.154209 0.167029 0 0 0 0)
(-0.114236 -0.208831 0 -0.188643 0.11556 0 0 0 0)
(-0.0494142 -0.245784 0 -0.227333 0.0510725 0 0 0 0)
(0.0294408 -0.278701 0 -0.267121 -0.0276595 0 0 0 0)
(0.122312 -0.29987 0 -0.30229 -0.120644 0 0 0 0)
(0.226656 -0.299186 0 -0.324169 -0.225316 0 0 0 0)
(0.335874 -0.265394 0 -0.322305 -0.33507 0 0 0 0)
(0.436001 -0.189057 0 -0.287933 -0.437955 0 0 0 0)
(0.509499 -0.0672123 0 -0.221021 -0.518621 0 0 0 0)
(0.535478 0.133213 0 -0.130213 -0.563214 0 0 0 0)
(0.547717 1.35836 0 -0.0405145 -0.520162 0 0 0 0)
(-0.305581 1.05863 0 -0.00380557 0.287698 0 0 0 0)
(-0.294192 0.145896 0 -0.0165393 0.309748 0 0 0 0)
(-0.302981 0.0472863 0 -0.0316292 0.30613 0 0 0 0)
(-0.302416 1.83548e-05 0 -0.0465746 0.301842 0 0 0 0)
(-0.297303 -0.0369195 0 -0.0615196 0.297093 0 0 0 0)
(-0.289572 -0.0696132 0 -0.0775482 0.289899 0 0 0 0)
(-0.278141 -0.101308 0 -0.096735 0.27861 0 0 0 0)
(-0.261251 -0.134812 0 -0.121243 0.261801 0 0 0 0)
(-0.237194 -0.17253 0 -0.152957 0.237905 0 0 0 0)
(-0.203826 -0.21599 0 -0.193228 0.204818 0 0 0 0)
(-0.158226 -0.265078 0 -0.242454 0.159651 0 0 0 0)
(-0.0969212 -0.317342 0 -0.299242 0.0988418 0 0 0 0)
(-0.016097 -0.367369 0 -0.359606 0.018552 0 0 0 0)
(0.0877071 -0.405515 0 -0.415108 -0.0847565 0 0 0 0)
(0.214971 -0.417739 0 -0.452112 -0.211622 0 0 0 0)
(0.359113 -0.386583 0 -0.452801 -0.356259 0 0 0 0)
(0.499087 -0.295838 0 -0.401202 -0.500997 0 0 0 0)
(0.605708 -0.139779 0 -0.297872 -0.616574 0 0 0 0)
(0.640263 0.133421 0 -0.159873 -0.672885 0 0 0 0)
(0.636854 1.94116 0 -0.0416582 -0.601534 0 0 0 0)
(-0.313105 1.36286 0 -0.00188854 0.294818 0 0 0 0)
(-0.307527 0.156851 0 -0.0126585 0.323462 0 0 0 0)
(-0.319017 0.043601 0 -0.0285899 0.322202 0 0 0 0)
(-0.31928 -0.00450356 0 -0.0458781 0.318392 0 0 0 0)
(-0.315287 -0.0422817 0 -0.0643578 0.314476 0 0 0 0)
(-0.310044 -0.0772679 0 -0.0846699 0.309778 0 0 0 0)
(-0.303297 -0.112745 0 -0.108873 0.303209 0 0 0 0)
(-0.293423 -0.151657 0 -0.139639 0.293469 0 0 0 0)
(-0.278467 -0.196934 0 -0.179841 0.278763 0 0 0 0)
(-0.255563 -0.250988 0 -0.232146 0.256272 0 0 0 0)
(-0.22025 -0.314807 0 -0.298314 0.221632 0 0 0 0)
(-0.166566 -0.386883 0 -0.378087 0.168568 0 0 0 0)
(-0.0864253 -0.462299 0 -0.467768 0.0891301 0 0 0 0)
(0.029806 -0.530044 0 -0.556897 -0.0248608 0 0 0 0)
(0.188963 -0.570688 0 -0.625258 -0.181984 0 0 0 0)
(0.386784 -0.554769 0 -0.641777 -0.380238 0 0 0 0)
(0.590931 -0.449373 0 -0.574034 -0.593412 0 0 0 0)
(0.750827 -0.239099 0 -0.417946 -0.764904 0 0 0 0)
(0.791691 0.148253 0 -0.203721 -0.833488 0 0 0 0)
(0.749249 2.63278 0 -0.0415681 -0.700101 0 0 0 0)
(-0.320128 1.67691 0 -0.00238443 0.301185 0 0 0 0)
(-0.320893 0.173281 0 -0.013276 0.337413 0 0 0 0)
(-0.336201 0.0422163 0 -0.0298788 0.339599 0 0 0 0)
(-0.338184 -0.00770802 0 -0.0482241 0.337348 0 0 0 0)
(-0.336094 -0.045534 0 -0.0681655 0.335032 0 0 0 0)
(-0.334087 -0.0808805 0 -0.0903095 0.333484 0 0 0 0)
(-0.333111 -0.117617 0 -0.116946 0.332643 0 0 0 0)
(-0.332219 -0.159258 0 -0.151483 0.331841 0 0 0 0)
(-0.3297 -0.209727 0 -0.198128 0.329554 0 0 0 0)
(-0.322299 -0.27312 0 -0.261578 0.322662 0 0 0 0)
(-0.304167 -0.352782 0 -0.346288 0.305449 0 0 0 0)
(-0.266376 -0.449844 0 -0.454931 0.268543 0 0 0 0)
(-0.194907 -0.560798 0 -0.58512 0.19826 0 0 0 0)
(-0.0697826 -0.676629 0 -0.727446 0.0773264 0 0 0 0)
(0.130091 -0.773116 0 -0.854723 -0.117321 0 0 0 0)
(0.410337 -0.798011 0 -0.910733 -0.39778 0 0 0 0)
(0.722918 -0.680503 0 -0.826183 -0.729034 0 0 0 0)
(0.976022 -0.379855 0 -0.578545 -0.99822 0 0 0 0)
(1.01664 0.198225 0 -0.22436 -1.07372 0 0 0 0)
(0.882143 3.47475 0 -0.0098843 -0.808116 0 0 0 0)
(-0.328765 2.00146 0 -0.00388245 0.309003 0 0 0 0)
(-0.335022 0.195265 0 -0.0161152 0.352239 0 0 0 0)
(-0.353965 0.0435358 0 -0.0333765 0.35757 0 0 0 0)
(-0.357567 -0.00907067 0 -0.0516978 0.356836 0 0 0 0)
(-0.357372 -0.0461452 0 -0.0709759 0.356143 0 0 0 0)
(-0.358825 -0.0796567 0 -0.0919702 0.357952 0 0 0 0)
(-0.36447 -0.114388 0 -0.117394 0.363619 0 0 0 0)
(-0.374605 -0.154747 0 -0.15159 0.373727 0 0 0 0)
(-0.388562 -0.206114 0 -0.200488 0.387765 0 0 0 0)
(-0.403723 -0.275093 0 -0.271583 0.403222 0 0 0 0)
(-0.413604 -0.368926 0 -0.373671 0.414017 0 0 0 0)
(-0.405398 -0.494072 0 -0.515071 0.407997 0 0 0 0)
(-0.35894 -0.653515 0 -0.699638 0.363949 0 0 0 0)
(-0.239797 -0.845625 0 -0.92394 0.248457 0 0 0 0)
(0.00567599 -1.04579 0 -1.157 0.0156065 0 0 0 0)
(0.415324 -1.16648 0 -1.30378 -0.390203 0 0 0 0)
(0.923119 -1.04981 0 -1.21187 -0.934754 0 0 0 0)
(1.35265 -0.583788 0 -0.798808 -1.38933 0 0 0 0)
(1.36035 0.338357 0 -0.152986 -1.42359 0 0 0 0)
(0.983494 4.51462 0 0.130771 -0.861937 0 0 0 0)
(-0.340126 2.33815 0 -0.00599751 0.319519 0 0 0 0)
(-0.350387 0.221848 0 -0.0205498 0.368491 0 0 0 0)
(-0.371784 0.0468138 0 -0.0385293 0.3756 0 0 0 0)
(-0.375784 -0.00913502 0 -0.0557209 0.37513 0 0 0 0)
(-0.376367 -0.0444181 0 -0.071941 0.374951 0 0 0 0)
(-0.380505 -0.073404 0 -0.0881369 0.379334 0 0 0 0)
(-0.39273 -0.101843 0 -0.107464 0.391438 0 0 0 0)
(-0.415313 -0.135112 0 -0.135175 0.413785 0 0 0 0)
(-0.449694 -0.180232 0 -0.179006 0.447964 0 0 0 0)
(-0.495482 -0.246867 0 -0.249872 0.493745 0 0 0 0)
(-0.547656 -0.348007 0 -0.362651 0.546806 0 0 0 0)
(-0.592343 -0.499912 0 -0.535484 0.59411 0 0 0 0)
(-0.603776 -0.720338 0 -0.786646 0.60725 0 0 0 0)
(-0.527148 -1.02497 0 -1.12977 0.534957 0 0 0 0)
(-0.249745 -1.41178 0 -1.55722 0.287175 0 0 0 0)
(0.355474 -1.74837 0 -1.94142 -0.273212 0 0 0 0)
(1.22788 -1.67963 0 -1.99043 -1.17284 0 0 0 0)
(2.0349 -0.868694 0 -1.44314 -2.01786 0 0 0 0)
(1.94622 0.725619 0 -0.299344 -2.02584 0 0 0 0)
(0.904357 5.76028 0 0.430784 -0.781524 0 0 0 0)
(-0.355312 2.68947 0 -0.00899845 0.333872 0 0 0 0)
(-0.367553 0.251347 0 -0.0272148 0.386856 0 0 0 0)
(-0.389136 0.0501752 0 -0.0460844 0.393249 0 0 0 0)
(-0.390979 -0.00972061 0 -0.0609085 0.390398 0 0 0 0)
(-0.389788 -0.0419409 0 -0.0713067 0.388192 0 0 0 0)
(-0.394348 -0.0631694 0 -0.0783505 0.392884 0 0 0 0)
(-0.411508 -0.0799377 0 -0.0854499 0.409751 0 0 0 0)
(-0.446147 -0.0982204 0 -0.0983062 0.44387 0 0 0 0)
(-0.503259 -0.126153 0 -0.125777 0.500287 0 0 0 0)
(-0.587367 -0.176251 0 -0.181753 0.583532 0 0 0 0)
(-0.699215 -0.268562 0 -0.28798 0.69521 0 0 0 0)
(-0.829394 -0.433629 0 -0.476148 0.827388 0 0 0 0)
(-0.953228 -0.712668 0 -0.787547 0.952969 0 0 0 0)
(-1.01037 -1.1657 0 -1.28857 1.01659 0 0 0 0)
(-0.805972 -1.85396 0 -2.06219 0.881409 0 0 0 0)
(-0.0178885 -2.6265 0 -3.02846 0.262656 0 0 0 0)
(1.4214 -2.79446 0 -3.77134 -1.14144 0 0 0 0)
(3.04374 -1.43679 0 -3.49926 -2.89282 0 0 0 0)
(3.23427 1.5747 0 -1.96825 -3.26601 0 0 0 0)
(0.852054 7.32198 0 0.349784 -0.748809 0 0 0 0)
(-0.376339 3.05888 0 -0.0138372 0.354465 0 0 0 0)
(-0.387473 0.281225 0 -0.0378473 0.408515 0 0 0 0)
(-0.405477 0.0503564 0 -0.0578819 0.410068 0 0 0 0)
(-0.401006 -0.014192 0 -0.0688305 0.400511 0 0 0 0)
(-0.393809 -0.041932 0 -0.0702166 0.392074 0 0 0 0)
(-0.394648 -0.0518457 0 -0.0632657 0.392993 0 0 0 0)
(-0.412686 -0.0508573 0 -0.0512122 0.41063 0 0 0 0)
(-0.45564 -0.0445757 0 -0.0390894 0.452801 0 0 0 0)
(-0.53314 -0.0405701 0 -0.0349454 0.529021 0 0 0 0)
(-0.657686 -0.0519442 0 -0.0527045 0.651266 0 0 0 0)
(-0.842051 -0.10415 0 -0.117784 0.833 0 0 0 0)
(-1.09191 -0.242154 0 -0.273299 1.08429 0 0 0 0)
(-1.41619 -0.531134 0 -0.582628 1.40763 0 0 0 0)
(-1.8018 -1.09653 0 -1.19653 1.79587 0 0 0 0)
(-1.98964 -2.16571 0 -2.41421 2.08017 0 0 0 0)
(-1.35367 -3.77122 0 -4.22407 1.56033 0 0 0 0)
(0.757084 -4.83511 0 -5.7694 -0.693529 0 0 0 0)
(3.83799 -2.99326 0 -6.08484 -4.02601 0 0 0 0)
(5.79527 2.86963 0 -4.86583 -5.44976 0 0 0 0)
(2.52282 9.77509 0 -1.45654 -2.02757 0 0 0 0)
(-0.406997 3.45245 0 -0.0223807 0.383363 0 0 0 0)
(-0.411598 0.30695 0 -0.055531 0.43474 0 0 0 0)
(-0.42012 0.0421705 0 -0.0764819 0.425315 0 0 0 0)
(-0.403313 -0.0277153 0 -0.0812876 0.402872 0 0 0 0)
(-0.384224 -0.049459 0 -0.0699845 0.382441 0 0 0 0)
(-0.375343 -0.0446133 0 -0.0442409 0.373753 0 0 0 0)
(-0.387332 -0.0201294 0 -0.00652263 0.385404 0 0 0 0)
(-0.42988 0.0201712 0 0.0404917 0.427113 0 0 0 0)
(-0.516874 0.0723127 0 0.0930228 0.512427 0 0 0 0)
(-0.670206 0.127728 0 0.143438 0.661458 0 0 0 0)
(-0.91981 0.164463 0 0.173828 0.903182 0 0 0 0)
(-1.29424 0.141004 0 0.149419 1.28027 0 0 0 0)
(-1.87646 -0.0010841 0 0.0262884 1.86404 0 0 0 0)
(-2.84195 -0.493166 0 -0.357891 2.73783 0 0 0 0)
(-3.83352 -2.08951 0 -1.42235 3.59549 0 0 0 0)
(-3.37308 -5.40019 0 -2.99498 3.10283 0 0 0 0)
(-0.439362 -8.3808 0 -4.20029 -0.0574878 0 0 0 0)
(3.94731 -6.19302 0 -5.18177 -4.72224 0 0 0 0)
(7.86257 3.57314 0 -5.73448 -8.54059 0 0 0 0)
(7.17443 14.7993 0 -3.83581 -6.73752 0 0 0 0)
(-0.454251 3.87699 0 -0.0369231 0.435154 0 0 0 0)
(-0.441575 0.323176 0 -0.0822356 0.46931 0 0 0 0)
(-0.431234 0.0184879 0 -0.103317 0.438133 0 0 0 0)
(-0.394509 -0.057066 0 -0.0983447 0.394343 0 0 0 0)
(-0.356762 -0.0710512 0 -0.0701355 0.35516 0 0 0 0)
(-0.331187 -0.0488826 0 -0.0215286 0.330035 0 0 0 0)
(-0.327953 0.00250352 0 0.0459329 0.326836 0 0 0 0)
(-0.356095 0.0824475 0 0.133368 0.354617 0 0 0 0)
(-0.430194 0.193774 0 0.245081 0.427566 0 0 0 0)
(-0.57688 0.338811 0 0.387681 0.569171 0 0 0 0)
(-0.83607 0.514659 0 0.568352 0.817226 0 0 0 0)
(-1.23945 0.7187 0 0.795046 1.23664 0 0 0 0)
(-1.9235 0.926435 0 1.09863 1.94087 0 0 0 0)
(-3.25044 0.634921 0 1.53491 3.02639 0 0 0 0)
(-4.62673 -1.80071 0 1.9502 4.02951 0 0 0 0)
(-4.1316 -7.4242 0 2.28182 3.53306 0 0 0 0)
(-1.4297 -12.6602 0 2.40538 1.20409 0 0 0 0)
(2.3038 -11.4764 0 1.09659 -2.85076 0 0 0 0)
(7.14123 0.854349 0 -2.19951 -9.18246 0 0 0 0)
(12.0931 25.0532 0 -3.30362 -12.4783 0 0 0 0)
(-0.526156 4.35691 0 -0.0641987 0.484289 0 0 0 0)
(-0.477992 0.309928 0 -0.124827 0.503805 0 0 0 0)
(-0.436229 -0.0327967 0 -0.137954 0.440676 0 0 0 0)
(-0.370132 -0.110688 0 -0.115527 0.367676 0 0 0 0)
(-0.307408 -0.113767 0 -0.064355 0.304679 0 0 0 0)
(-0.259275 -0.0729369 0 0.00987516 0.258105 0 0 0 0)
(-0.232436 0.00445245 0 0.106585 0.232259 0 0 0 0)
(-0.230731 0.120901 0 0.230324 0.231368 0 0 0 0)
(-0.262561 0.286867 0 0.395313 0.264342 0 0 0 0)
(-0.346936 0.517388 0 0.624328 0.348463 0 0 0 0)
(-0.512445 0.831929 0 0.955398 0.512336 0 0 0 0)
(-0.763956 1.26465 0 1.44964 0.799808 0 0 0 0)
(-1.1366 1.78866 0 2.20134 1.26774 0 0 0 0)
(-1.99038 1.59547 0 3.48635 1.927 0 0 0 0)
(-3.08661 -1.58283 0 5.63391 2.50753 0 0 0 0)
(-2.9179 -8.22561 0 8.11518 2.84075 0 0 0 0)
(-1.62459 -14.7646 0 9.67731 3.00314 0 0 0 0)
(-0.657588 -16.5796 0 8.89784 2.07178 0 0 0 0)
(3.46237 -6.05439 0 3.85593 -3.51454 0 0 0 0)
(12.6776 36.4601 0 -0.158038 -13.4915 0 0 0 0)
(-0.643277 4.86508 0 -0.0876612 0.661733 0 0 0 0)
(-0.51533 0.279564 0 -0.163763 0.566036 0 0 0 0)
(-0.421934 -0.117641 0 -0.16351 0.430307 0 0 0 0)
(-0.32091 -0.193063 0 -0.112652 0.314499 0 0 0 0)
(-0.231359 -0.180623 0 -0.0282662 0.22636 0 0 0 0)
(-0.160246 -0.121302 0 0.0729139 0.157928 0 0 0 0)
(-0.107505 -0.0242334 0 0.191459 0.108856 0 0 0 0)
(-0.0673667 0.114531 0 0.336662 0.0711992 0 0 0 0)
(-0.0361896 0.310869 0 0.529647 0.0433183 0 0 0 0)
(-0.0167961 0.586805 0 0.799933 0.0296678 0 0 0 0)
(-0.0107572 0.966004 0 1.19927 0.0350321 0 0 0 0)
(0.0064948 1.4741 0 1.80694 0.0551184 0 0 0 0)
(0.113206 2.05362 0 2.71126 0.0564731 0 0 0 0)
(0.182126 1.87471 0 4.12404 -0.0344824 0 0 0 0)
(0.00210376 -0.886967 0 6.49622 -0.11094 0 0 0 0)
(-0.0881929 -6.92859 0 9.29927 0.671621 0 0 0 0)
(-0.647048 -13.4291 0 10.9955 2.33438 0 0 0 0)
(-3.51759 -17.994 0 11.3485 4.80142 0 0 0 0)
(-1.91465 -14.709 0 7.774 4.76466 0 0 0 0)
(8.39522 42.0593 0 2.36675 -9.39416 0 0 0 0)
(-0.77758 5.58468 0 -0.185013 0.484493 0 0 0 0)
(-0.553841 0.0785021 0 -0.270739 0.420549 0 0 0 0)
(-0.385118 -0.284334 0 -0.178982 0.285829 0 0 0 0)
(-0.234888 -0.314635 0 -0.0459697 0.176873 0 0 0 0)
(-0.121841 -0.270338 0 0.087164 0.0915827 0 0 0 0)
(-0.0395496 -0.190441 0 0.220556 0.0223049 0 0 0 0)
(0.0313122 -0.082276 0 0.363929 -0.0402644 0 0 0 0)
(0.107456 0.055363 0 0.526296 -0.106966 0 0 0 0)
(0.200711 0.245335 0 0.720245 -0.188639 0 0 0 0)
(0.322692 0.509101 0 0.971759 -0.298387 0 0 0 0)
(0.49456 0.85738 0 1.3245 -0.453409 0 0 0 0)
(0.748029 1.28609 0 1.84164 -0.684497 0 0 0 0)
(1.18051 1.69906 0 2.55897 -1.06473 0 0 0 0)
(1.79458 1.42806 0 3.48165 -1.6873 0 0 0 0)
(2.08862 -0.876731 0 4.72234 -2.23808 0 0 0 0)
(1.58135 -5.78029 0 6.1185 -1.89998 0 0 0 0)
(0.424587 -10.6348 0 6.63046 0.169874 0 0 0 0)
(-3.87906 -14.1493 0 7.20203 3.2482 0 0 0 0)
(-5.51934 -20.25 0 6.98214 7.31924 0 0 0 0)
(2.5368 41.0896 0 2.86876 -4.11272 0 0 0 0)
(-1.09903 5.77012 0 -0.261667 1.93922 0 0 0 0)
(-0.509299 0.0809001 0 -0.233534 1.31955 0 0 0 0)
(-0.197164 -0.361316 0 0.0342278 0.76854 0 0 0 0)
(-0.0547633 -0.38731 0 0.296383 0.405267 0 0 0 0)
(0.0351659 -0.335191 0 0.511099 0.204074 0 0 0 0)
(0.116519 -0.253149 0 0.722562 0.0581005 0 0 0 0)
(0.198236 -0.153504 0 0.947372 -0.0650733 0 0 0 0)
(0.28895 -0.033844 0 1.18074 -0.182696 0 0 0 0)
(0.409274 0.119448 0 1.4202 -0.320986 0 0 0 0)
(0.587462 0.322035 0 1.67542 -0.511443 0 0 0 0)
(0.859127 0.579894 0 1.9583 -0.783251 0 0 0 0)
(1.24096 0.862779 0 2.2851 -1.15934 0 0 0 0)
(1.75321 1.05082 0 2.65473 -1.6877 0 0 0 0)
(2.3455 0.701369 0 2.97828 -2.41135 0 0 0 0)
(2.63896 -1.09965 0 3.12951 -2.9601 0 0 0 0)
(1.81992 -4.52064 0 3.33935 -2.47658 0 0 0 0)
(0.436476 -8.28097 0 2.98925 -0.0855917 0 0 0 0)
(-3.16591 -10.8447 0 3.70174 2.26816 0 0 0 0)
(-6.24792 -22.0699 0 3.29598 5.63415 0 0 0 0)
(-1.45568 38.8528 0 2.87935 -0.799929 0 0 0 0)
(-1.27278 8.84344 0 -0.243091 -0.832389 0 0 0 0)
(-0.257946 -1.09217 0 -0.0536868 -1.84664 0 0 0 0)
(0.144798 -1.19861 0 0.780478 -1.76486 0 0 0 0)
(0.241983 -0.879101 0 1.54664 -1.31078 0 0 0 0)
(0.304339 -0.617504 0 2.35659 -1.05862 0 0 0 0)
(0.396724 -0.459588 0 3.09757 -0.967252 0 0 0 0)
(0.489485 -0.323073 0 3.75601 -0.928479 0 0 0 0)
(0.580282 -0.200549 0 4.33651 -0.920095 0 0 0 0)
(0.6954 -0.0834116 0 4.84816 -0.961947 0 0 0 0)
(0.860793 0.0468364 0 5.29163 -1.07681 0 0 0 0)
(1.10423 0.209483 0 5.65648 -1.28945 0 0 0 0)
(1.44446 0.38164 0 5.91695 -1.6209 0 0 0 0)
(1.87369 0.447056 0 6.0508 -2.07011 0 0 0 0)
(2.26936 0.155656 0 6.01866 -2.58359 0 0 0 0)
(2.44969 -0.941962 0 5.72106 -2.80728 0 0 0 0)
(1.4411 -2.90578 0 5.50763 -1.99574 0 0 0 0)
(0.786977 -5.89009 0 4.87627 0.389049 0 0 0 0)
(-3.57233 -8.42955 0 6.30698 3.24671 0 0 0 0)
(-6.34172 -23.318 0 1.05291 6.6486 0 0 0 0)
(-3.63853 36.2553 0 8.24649 4.49789 0 0 0 0)
(-1.39581 3.09109 0 4.57088 4.60907 0 0 0 0)
(0.514271 -0.851569 0 7.10553 2.7545 0 0 0 0)
(1.40316 0.174552 0 9.61782 0.835186 0 0 0 0)
(1.52134 0.318928 0 11.684 -0.0898811 0 0 0 0)
(1.5861 0.00833397 0 13.2098 -0.507362 0 0 0 0)
(1.51594 -0.123008 0 14.4066 -0.697256 0 0 0 0)
(1.43717 -0.106348 0 15.416 -0.806183 0 0 0 0)
(1.38111 -0.0673117 0 16.2858 -0.891171 0 0 0 0)
(1.3644 -0.0372713 0 17.0286 -0.980153 0 0 0 0)
(1.39578 -0.00546509 0 17.6436 -1.09207 0 0 0 0)
(1.48444 0.0358072 0 18.1207 -1.24706 0 0 0 0)
(1.63528 0.0821118 0 18.4328 -1.47311 0 0 0 0)
(1.85493 0.0881357 0 18.5419 -1.76668 0 0 0 0)
(2.01576 -0.0357998 0 18.4289 -2.03944 0 0 0 0)
(2.12793 -0.511802 0 18.0584 -2.0461 0 0 0 0)
(0.975136 -1.32431 0 17.7412 -1.28277 0 0 0 0)
(1.23583 -3.03852 0 17.2017 0.562628 0 0 0 0)
(-6.98927 -4.58512 0 18.7063 3.88871 0 0 0 0)
(-4.30841 -20.8187 0 10.3245 9.02835 0 0 0 0)
(-10.7551 27.7063 0 37.3883 17.5905 0 0 0 0)
(10.4036 16.207 0 196.53 -11.1737 0 0 0 0)
(4.78899 -4.86605 0 194.462 -8.12438 0 0 0 0)
(4.72324 -4.04299 0 191.227 -5.45609 0 0 0 0)
(3.83393 -2.22165 0 188.336 -4.25593 0 0 0 0)
(3.027 -1.22488 0 185.872 -3.55337 0 0 0 0)
(2.60298 -0.758409 0 183.722 -3.03939 0 0 0 0)
(2.36869 -0.516988 0 181.753 -2.67196 0 0 0 0)
(2.19285 -0.374519 0 179.917 -2.41605 0 0 0 0)
(2.05315 -0.284312 0 178.179 -2.23013 0 0 0 0)
(1.95287 -0.220068 0 176.499 -2.09447 0 0 0 0)
(1.89343 -0.171551 0 174.83 -2.00459 0 0 0 0)
(1.86572 -0.137984 0 173.121 -1.95873 0 0 0 0)
(1.86978 -0.119275 0 171.329 -1.94872 0 0 0 0)
(1.78582 -0.123764 0 169.396 -1.92759 0 0 0 0)
(1.762 -0.185297 0 167.528 -1.78916 0 0 0 0)
(0.584441 -0.297051 0 165.507 -1.23049 0 0 0 0)
(1.75211 -0.718613 0 165.968 -0.167797 0 0 0 0)
(-10.4495 0.0361709 0 162.519 2.52665 0 0 0 0)
(12.3402 -9.61626 0 183.407 4.38115 0 0 0 0)
(-51.3513 9.63649 0 154.487 32.9616 0 0 0 0)
)
;

boundaryField
{
    movingWall
    {
        type            extrapolatedCalculated;
        value           nonuniform List<tensor> 
20
(
(10.4036 16.207 0 383.679 -36.965 0 0 0 0)
(4.78899 -4.86605 0 374.707 -27.863 0 0 0 0)
(4.72324 -4.04299 0 364.523 -17.5008 0 0 0 0)
(3.83393 -2.22165 0 355.814 -11.691 0 0 0 0)
(3.027 -1.22488 0 349.187 -8.61422 0 0 0 0)
(2.60298 -0.758409 0 343.706 -6.79151 0 0 0 0)
(2.36869 -0.516988 0 338.775 -5.58058 0 0 0 0)
(2.19285 -0.374519 0 334.231 -4.72356 0 0 0 0)
(2.05315 -0.284312 0 330.004 -4.0825 0 0 0 0)
(1.95287 -0.220068 0 326.018 -3.58631 0 0 0 0)
(1.89343 -0.171551 0 322.192 -3.20223 0 0 0 0)
(1.86572 -0.137984 0 318.445 -2.90011 0 0 0 0)
(1.86978 -0.119275 0 314.729 -2.65029 0 0 0 0)
(1.78582 -0.123764 0 310.966 -2.42301 0 0 0 0)
(1.762 -0.185297 0 307.586 -2.15523 0 0 0 0)
(0.584441 -0.297051 0 303.918 -1.68182 0 0 0 0)
(1.75211 -0.718613 0 305.248 -0.967032 0 0 0 0)
(-10.4495 0.0361709 0 296.909 1.19263 0 0 0 0)
(12.3402 -9.61626 0 347.046 -1.11172 0 0 0 0)
(-51.3513 9.63649 0 247.548 39.6577 0 0 0 0)
)
;
    }
    fixedWalls
    {
        type            extrapolatedCalculated;
        value           nonuniform List<tensor> 
60
(
(-0.0552772 0.055992 0 -0.0614243 0.095147 0 0 0 0)
(-0.19042 0.324596 0 -0.0556452 0.185617 0 0 0 0)
(-0.277858 0.798461 0 -0.0306784 0.252071 0 0 0 0)
(-0.313134 1.33288 0 -0.0116332 0.275397 0 0 0 0)
(-0.324391 1.90005 0 -0.00380557 0.287698 0 0 0 0)
(-0.328356 2.48367 0 -0.00188854 0.294818 0 0 0 0)
(-0.331945 3.07932 0 -0.00238443 0.301185 0 0 0 0)
(-0.337894 3.68841 0 -0.00388245 0.309003 0 0 0 0)
(-0.347475 4.31533 0 -0.00599751 0.319519 0 0 0 0)
(-0.361884 4.96649 0 -0.00899845 0.333872 0 0 0 0)
(-0.383469 5.65082 0 -0.0138372 0.354465 0 0 0 0)
(-0.417232 6.38435 0 -0.0223807 0.383363 0 0 0 0)
(-0.472991 7.18427 0 -0.0369231 0.435154 0 0 0 0)
(-0.564925 8.12497 0 -0.0641987 0.484289 0 0 0 0)
(-0.729786 9.12143 0 -0.0876612 0.661733 0 0 0 0)
(-0.91557 10.7719 0 -0.185013 0.484493 0 0 0 0)
(-1.46984 11.0594 0 -0.261667 1.93922 0 0 0 0)
(-1.96224 18.5288 0 -0.243091 -0.832389 0 0 0 0)
(-2.4422 7.72984 0 4.57088 4.60907 0 0 0 0)
(16.3213 36.965 0 196.53 -11.1737 0 0 0 0)
(0.155202 0.150981 0 -0.125785 -0.203728 0 0 0 0)
(0.34794 0.663932 0 -0.0807903 -0.334546 0 0 0 0)
(0.478363 1.48917 0 -0.0535311 -0.447816 0 0 0 0)
(0.562064 2.4552 0 -0.0405145 -0.520162 0 0 0 0)
(0.640421 3.56982 0 -0.0416582 -0.601534 0 0 0 0)
(0.728697 4.86133 0 -0.0415681 -0.700101 0 0 0 0)
(0.806694 6.37022 0 -0.0098843 -0.808116 0 0 0 0)
(0.768234 8.0938 0 0.130771 -0.861937 0 0 0 0)
(0.283608 9.81797 0 0.430784 -0.781524 0 0 0 0)
(-0.954901 11.2199 0 0.349784 -0.748809 0 0 0 0)
(-1.11553 12.8132 0 -1.45654 -2.02757 0 0 0 0)
(4.87126 19.3302 0 -3.83581 -6.73752 0 0 0 0)
(14.2277 39.7633 0 -3.30362 -12.4783 0 0 0 0)
(18.0857 69.2433 0 -0.158038 -13.4915 0 0 0 0)
(14.8599 93.7294 0 2.36675 -9.39416 0 0 0 0)
(8.61873 106.82 0 2.86876 -4.11272 0 0 0 0)
(3.38482 110.18 0 2.87935 -0.799929 0 0 0 0)
(-2.89867 110.02 0 8.24649 4.49789 0 0 0 0)
(-29.6011 92.1887 0 37.3883 17.5905 0 0 0 0)
(-152.452 39.6577 0 154.487 32.9616 0 0 0 0)
(-0.0949224 0.0623037 0 -0.0552772 0.055992 0 0 0 0)
(-0.187016 0.0544374 0 -0.324412 0.193223 0 0 0 0)
(-0.250629 0.0254308 0 -0.80334 0.273741 0 0 0 0)
(-0.26286 0.00320963 0 -1.32693 0.294946 0 0 0 0)
(-0.257818 -0.00727491 0 -1.85478 0.28658 0 0 0 0)
(-0.241603 -0.0118792 0 -2.3582 0.265846 0 0 0 0)
(-0.218525 -0.0145859 0 -2.82119 0.239063 0 0 0 0)
(-0.189762 -0.0173148 0 -3.2323 0.207503 0 0 0 0)
(-0.155393 -0.0211093 0 -3.58024 0.169804 0 0 0 0)
(-0.112305 -0.025659 0 -3.85387 0.123065 0 0 0 0)
(-0.0601198 -0.029664 0 -4.02946 0.067168 0 0 0 0)
(0.000502082 -0.0364386 0 -4.09435 0.00440928 0 0 0 0)
(0.0722971 -0.0433715 0 -4.02745 -0.0785865 0 0 0 0)
(0.1522 -0.0463771 0 -3.80516 -0.169077 0 0 0 0)
(0.233919 -0.0459568 0 -3.41865 -0.264095 0 0 0 0)
(0.308892 -0.0382286 0 -2.86948 -0.352904 0 0 0 0)
(0.362715 -0.0179165 0 -2.18308 -0.417009 0 0 0 0)
(0.380104 0.0212584 0 -1.41862 -0.42457 0 0 0 0)
(0.315856 0.0683972 0 -0.662661 -0.331976 0 0 0 0)
(0.204466 0.120739 0 -0.155202 -0.150981 0 0 0 0)
)
;
    }
    frontAndBack
    {
        type            empty;
    }
}


// ************************************************************************* //
