/*--------------------------------*- C++ -*----------------------------------*\
| =========                 |                                                 |
| \\      /  F ield         | OpenFOAM: The Open Source CFD Toolbox           |
|  \\    /   O peration     | Version:  2312                                  |
|   \\  /    A nd           | Website:  www.openfoam.com                      |
|    \\/     M anipulation  |                                                 |
\*---------------------------------------------------------------------------*/
FoamFile
{
    version     2.0;
    format      ascii;
    arch        "LSB;label=32;scalar=64";
    class       volVectorField;
    location    "0.75";
    object      gradPhi;
}
// * * * * * * * * * * * * * * * * * * * * * * * * * * * * * * * * * * * * * //

dimensions      [0 2 -1 0 0 0 0];

internalField   nonuniform List<vector> 
400
(
(-4.38095e-06 4.38094e-06 0)
(-9.67314e-06 9.67314e-06 0)
(-1.24513e-05 1.24513e-05 0)
(-1.32271e-05 1.32271e-05 0)
(-1.29372e-05 1.29372e-05 0)
(-1.21064e-05 1.21064e-05 0)
(-1.09512e-05 1.09512e-05 0)
(-9.52608e-06 9.52609e-06 0)
(-7.79496e-06 7.79497e-06 0)
(-5.66797e-06 5.66798e-06 0)
(-3.10109e-06 3.1011e-06 0)
(-6.6704e-08 6.67171e-08 0)
(3.53917e-06 -3.53916e-06 0)
(7.54514e-06 -7.54513e-06 0)
(1.16983e-05 -1.16983e-05 0)
(1.55527e-05 -1.55527e-05 0)
(1.84065e-05 -1.84065e-05 0)
(1.91764e-05 -1.91764e-05 0)
(1.64189e-05 -1.64189e-05 0)
(9.54708e-06 -9.54707e-06 0)
(-9.56176e-06 9.56177e-06 0)
(-1.25608e-05 1.25608e-05 0)
(-1.36774e-05 1.36774e-05 0)
(-1.40758e-05 1.40758e-05 0)
(-1.38866e-05 1.38866e-05 0)
(-1.32023e-05 1.32023e-05 0)
(-1.20928e-05 1.20928e-05 0)
(-1.05859e-05 1.05859e-05 0)
(-8.67198e-06 8.67199e-06 0)
(-6.32276e-06 6.32277e-06 0)
(-3.47742e-06 3.47743e-06 0)
(-1.2087e-07 1.20884e-07 0)
(3.73946e-06 -3.73945e-06 0)
(7.91546e-06 -7.91544e-06 0)
(1.21769e-05 -1.21769e-05 0)
(1.61202e-05 -1.61202e-05 0)
(1.92186e-05 -1.92186e-05 0)
(2.09418e-05 -2.09417e-05 0)
(2.08957e-05 -2.08957e-05 0)
(1.72282e-05 -1.72282e-05 0)
(-1.25564e-05 1.25564e-05 0)
(-1.38175e-05 1.38175e-05 0)
(-1.39753e-05 1.39753e-05 0)
(-1.40614e-05 1.40614e-05 0)
(-1.38887e-05 1.38887e-05 0)
(-1.33535e-05 1.33535e-05 0)
(-1.24232e-05 1.24232e-05 0)
(-1.10825e-05 1.10825e-05 0)
(-9.30767e-06 9.30768e-06 0)
(-7.06289e-06 7.06291e-06 0)
(-4.28878e-06 4.28879e-06 0)
(-9.60562e-07 9.60575e-07 0)
(2.89983e-06 -2.89982e-06 0)
(7.19817e-06 -7.19815e-06 0)
(1.17183e-05 -1.17183e-05 0)
(1.61045e-05 -1.61045e-05 0)
(1.98844e-05 -1.98844e-05 0)
(2.2621e-05 -2.2621e-05 0)
(2.4096e-05 -2.4096e-05 0)
(2.22561e-05 -2.22561e-05 0)
(-1.38791e-05 1.38791e-05 0)
(-1.47389e-05 1.47389e-05 0)
(-1.45463e-05 1.45463e-05 0)
(-1.4403e-05 1.4403e-05 0)
(-1.41808e-05 1.41808e-05 0)
(-1.37348e-05 1.37348e-05 0)
(-1.29813e-05 1.29813e-05 0)
(-1.1866e-05 1.1866e-05 0)
(-1.03359e-05 1.03359e-05 0)
(-8.32509e-06 8.32511e-06 0)
(-5.74677e-06 5.74678e-06 0)
(-2.50342e-06 2.50343e-06 0)
(1.41551e-06 -1.4155e-06 0)
(6.05781e-06 -6.0578e-06 0)
(1.12696e-05 -1.12696e-05 0)
(1.67171e-05 -1.67171e-05 0)
(2.18096e-05 -2.18096e-05 0)
(2.58162e-05 -2.58162e-05 0)
(2.80867e-05 -2.80867e-05 0)
(2.6069e-05 -2.6069e-05 0)
(-1.44428e-05 1.44428e-05 0)
(-1.54965e-05 1.54965e-05 0)
(-1.52901e-05 1.52901e-05 0)
(-1.50641e-05 1.50641e-05 0)
(-1.4824e-05 1.4824e-05 0)
(-1.44654e-05 1.44654e-05 0)
(-1.39026e-05 1.39026e-05 0)
(-1.30631e-05 1.30631e-05 0)
(-1.18674e-05 1.18674e-05 0)
(-1.02096e-05 1.02096e-05 0)
(-7.94491e-06 7.94492e-06 0)
(-4.88596e-06 4.88597e-06 0)
(-8.78472e-07 8.78485e-07 0)
(4.29588e-06 -4.29587e-06 0)
(1.06349e-05 -1.06349e-05 0)
(1.78373e-05 -1.78373e-05 0)
(2.50218e-05 -2.50218e-05 0)
(3.07673e-05 -3.07673e-05 0)
(3.36094e-05 -3.36093e-05 0)
(3.01683e-05 -3.01683e-05 0)
(-1.47617e-05 1.47617e-05 0)
(-1.61872e-05 1.61872e-05 0)
(-1.61157e-05 1.61157e-05 0)
(-1.59191e-05 1.59191e-05 0)
(-1.57203e-05 1.57203e-05 0)
(-1.5484e-05 1.54841e-05 0)
(-1.51548e-05 1.51548e-05 0)
(-1.46656e-05 1.46656e-05 0)
(-1.39254e-05 1.39254e-05 0)
(-1.27919e-05 1.27919e-05 0)
(-1.10447e-05 1.10447e-05 0)
(-8.37011e-06 8.37012e-06 0)
(-4.42549e-06 4.4255e-06 0)
(1.35692e-06 -1.35691e-06 0)
(9.24655e-06 -9.24654e-06 0)
(1.91416e-05 -1.91416e-05 0)
(2.97151e-05 -2.97151e-05 0)
(3.82077e-05 -3.82077e-05 0)
(4.16507e-05 -4.16507e-05 0)
(3.52474e-05 -3.52474e-05 0)
(-1.50631e-05 1.50631e-05 0)
(-1.68806e-05 1.68806e-05 0)
(-1.69886e-05 1.69886e-05 0)
(-1.68746e-05 1.68746e-05 0)
(-1.67585e-05 1.67585e-05 0)
(-1.66815e-05 1.66815e-05 0)
(-1.66395e-05 1.66395e-05 0)
(-1.65979e-05 1.65979e-05 0)
(-1.64781e-05 1.64781e-05 0)
(-1.6121e-05 1.6121e-05 0)
(-1.52376e-05 1.52377e-05 0)
(-1.334e-05 1.334e-05 0)
(-9.90587e-06 9.90588e-06 0)
(-3.66861e-06 3.66863e-06 0)
(6.13747e-06 -6.13746e-06 0)
(2.0141e-05 -2.0141e-05 0)
(3.64738e-05 -3.64738e-05 0)
(4.97555e-05 -4.97555e-05 0)
(5.37036e-05 -5.37036e-05 0)
(4.10239e-05 -4.10239e-05 0)
(-1.54454e-05 1.54454e-05 0)
(-1.7618e-05 1.7618e-05 0)
(-1.78867e-05 1.78867e-05 0)
(-1.7852e-05 1.7852e-05 0)
(-1.78199e-05 1.78199e-05 0)
(-1.79136e-05 1.79136e-05 0)
(-1.82003e-05 1.82003e-05 0)
(-1.87077e-05 1.87077e-05 0)
(-1.94081e-05 1.94081e-05 0)
(-2.0172e-05 2.0172e-05 0)
(-2.06872e-05 2.06873e-05 0)
(-2.03476e-05 2.03476e-05 0)
(-1.79874e-05 1.79874e-05 0)
(-1.23232e-05 1.23232e-05 0)
(-3.67231e-07 3.67242e-07 0)
(1.99718e-05 -1.99718e-05 0)
(4.6727e-05 -4.6727e-05 0)
(6.90605e-05 -6.90605e-05 0)
(7.22465e-05 -7.22465e-05 0)
(4.47307e-05 -4.47307e-05 0)
(-1.59603e-05 1.59603e-05 0)
(-1.84263e-05 1.84263e-05 0)
(-1.87875e-05 1.87875e-05 0)
(-1.87695e-05 1.87695e-05 0)
(-1.87666e-05 1.87666e-05 0)
(-1.89927e-05 1.89927e-05 0)
(-1.96059e-05 1.96059e-05 0)
(-2.07318e-05 2.07318e-05 0)
(-2.24469e-05 2.2447e-05 0)
(-2.47336e-05 2.47336e-05 0)
(-2.73641e-05 2.73641e-05 0)
(-2.96633e-05 2.96634e-05 0)
(-3.01275e-05 3.01275e-05 0)
(-2.67319e-05 2.6732e-05 0)
(-1.36433e-05 1.36433e-05 0)
(1.58219e-05 -1.58219e-05 0)
(6.24023e-05 -6.24023e-05 0)
(0.000104311 -0.000104311 0)
(0.000103048 -0.000103048 0)
(3.91684e-05 -3.91684e-05 0)
(-1.66587e-05 1.66587e-05 0)
(-1.93373e-05 1.93373e-05 0)
(-1.9668e-05 1.9668e-05 0)
(-1.95349e-05 1.95349e-05 0)
(-1.94344e-05 1.94344e-05 0)
(-1.96805e-05 1.96805e-05 0)
(-2.05385e-05 2.05385e-05 0)
(-2.2263e-05 2.2263e-05 0)
(-2.51061e-05 2.51061e-05 0)
(-2.92898e-05 2.92898e-05 0)
(-3.4878e-05 3.4878e-05 0)
(-4.14421e-05 4.14421e-05 0)
(-4.76182e-05 4.76182e-05 0)
(-5.00742e-05 5.00742e-05 0)
(-4.26193e-05 4.26193e-05 0)
(-5.88741e-06 5.88741e-06 0)
(7.23862e-05 -7.23862e-05 0)
(0.000160833 -0.000160833 0)
(0.000165357 -0.000165357 0)
(3.54544e-05 -3.54544e-05 0)
(-1.76361e-05 1.76361e-05 0)
(-2.04038e-05 2.04038e-05 0)
(-2.05039e-05 2.05039e-05 0)
(-2.0041e-05 2.0041e-05 0)
(-1.96322e-05 1.96322e-05 0)
(-1.96934e-05 1.96934e-05 0)
(-2.05956e-05 2.05956e-05 0)
(-2.27341e-05 2.27341e-05 0)
(-2.65886e-05 2.65886e-05 0)
(-3.27624e-05 3.27624e-05 0)
(-4.19283e-05 4.19283e-05 0)
(-5.45404e-05 5.45404e-05 0)
(-7.04851e-05 7.04851e-05 0)
(-8.89242e-05 8.89242e-05 0)
(-0.000101674 0.000101674 0)
(-7.76205e-05 7.76205e-05 0)
(3.81087e-05 -3.81087e-05 0)
(0.000210766 -0.000210766 0)
(0.000292583 -0.000292583 0)
(0.000114306 -0.000114306 0)
(-1.90751e-05 1.90751e-05 0)
(-2.17064e-05 2.17064e-05 0)
(-2.12648e-05 2.12648e-05 0)
(-2.01582e-05 2.01582e-05 0)
(-1.91492e-05 1.91492e-05 0)
(-1.873e-05 1.873e-05 0)
(-1.9335e-05 1.9335e-05 0)
(-2.14587e-05 2.14587e-05 0)
(-2.5791e-05 2.5791e-05 0)
(-3.33614e-05 3.33614e-05 0)
(-4.56737e-05 4.56737e-05 0)
(-6.49022e-05 6.49022e-05 0)
(-9.4471e-05 9.4471e-05 0)
(-0.000139763 0.000139763 0)
(-0.000189531 0.000189531 0)
(-0.000175919 0.000175919 0)
(-3.11867e-05 3.11867e-05 0)
(0.000203358 -0.000203358 0)
(0.000420116 -0.000420116 0)
(0.000338002 -0.000338002 0)
(-2.13154e-05 2.13154e-05 0)
(-2.33393e-05 2.33393e-05 0)
(-2.18614e-05 2.18614e-05 0)
(-1.97114e-05 1.97114e-05 0)
(-1.77709e-05 1.77709e-05 0)
(-1.65286e-05 1.65286e-05 0)
(-1.63864e-05 1.63864e-05 0)
(-1.78083e-05 1.78083e-05 0)
(-2.15249e-05 2.15249e-05 0)
(-2.87502e-05 2.87502e-05 0)
(-4.14524e-05 4.14524e-05 0)
(-6.31676e-05 6.31676e-05 0)
(-0.000100467 0.000100467 0)
(-0.000158512 0.000158512 0)
(-0.000215198 0.000215198 0)
(-0.000202526 0.000202526 0)
(-9.60545e-05 9.60545e-05 0)
(8.61305e-05 -8.61305e-05 0)
(0.000402843 -0.000402843 0)
(0.000593402 -0.000593402 0)
(-2.47461e-05 2.47461e-05 0)
(-2.53667e-05 2.53667e-05 0)
(-2.21487e-05 2.21487e-05 0)
(-1.84695e-05 1.84695e-05 0)
(-1.52955e-05 1.52954e-05 0)
(-1.29391e-05 1.29391e-05 0)
(-1.1645e-05 1.1645e-05 0)
(-1.16033e-05 1.16033e-05 0)
(-1.32582e-05 1.32582e-05 0)
(-1.74813e-05 1.74813e-05 0)
(-2.57018e-05 2.57018e-05 0)
(-4.01855e-05 4.01855e-05 0)
(-6.41203e-05 6.41203e-05 0)
(-9.76927e-05 9.76927e-05 0)
(-0.00012163 0.00012163 0)
(-0.000125291 0.000125291 0)
(-0.000122256 0.000122256 0)
(-7.4982e-05 7.4982e-05 0)
(0.000169821 -0.000169821 0)
(0.000674992 -0.000674992 0)
(-3.04231e-05 3.04231e-05 0)
(-2.74869e-05 2.74868e-05 0)
(-2.14834e-05 2.14834e-05 0)
(-1.59432e-05 1.59432e-05 0)
(-1.14816e-05 1.14816e-05 0)
(-7.9854e-06 7.98539e-06 0)
(-5.43746e-06 5.43745e-06 0)
(-3.50241e-06 3.5024e-06 0)
(-2.05436e-06 2.05435e-06 0)
(-1.23631e-06 1.2363e-06 0)
(-1.21709e-06 1.21708e-06 0)
(-1.56004e-06 1.56002e-06 0)
(4.64764e-07 -4.64777e-07 0)
(1.04053e-05 -1.04053e-05 0)
(2.46255e-05 -2.46255e-05 0)
(1.06052e-05 -1.06052e-05 0)
(-7.44304e-05 7.44304e-05 0)
(-0.000164049 0.000164049 0)
(-0.00017383 0.00017383 0)
(0.00049602 -0.00049602 0)
(-3.69632e-05 3.69631e-05 0)
(-2.97599e-05 2.97599e-05 0)
(-1.96681e-05 1.96681e-05 0)
(-1.14947e-05 1.14947e-05 0)
(-5.95557e-06 5.95556e-06 0)
(-1.98183e-06 1.98182e-06 0)
(1.48662e-06 -1.48664e-06 0)
(5.18638e-06 -5.18639e-06 0)
(9.70969e-06 -9.7097e-06 0)
(1.56624e-05 -1.56625e-05 0)
(2.39961e-05 -2.39962e-05 0)
(3.69759e-05 -3.6976e-05 0)
(5.81966e-05 -5.81967e-05 0)
(9.15401e-05 -9.15401e-05 0)
(0.00012195 -0.00012195 0)
(9.61439e-05 -9.61439e-05 0)
(-1.9578e-05 1.9578e-05 0)
(-0.000168416 0.000168416 0)
(-0.00034757 0.000347569 0)
(0.000180538 -0.000180538 0)
(-5.32824e-05 5.32824e-05 0)
(-2.78699e-05 2.78699e-05 0)
(-1.00103e-05 1.00103e-05 0)
(-1.96324e-06 1.96323e-06 0)
(1.79565e-06 -1.79567e-06 0)
(5.73524e-06 -5.73526e-06 0)
(9.75858e-06 -9.75859e-06 0)
(1.42394e-05 -1.42394e-05 0)
(2.01395e-05 -2.01395e-05 0)
(2.91854e-05 -2.91854e-05 0)
(4.28433e-05 -4.28433e-05 0)
(6.12197e-05 -6.12198e-05 0)
(8.711e-05 -8.711e-05 0)
(0.000122029 -0.000122029 0)
(0.000141959 -0.000141959 0)
(0.000103061 -0.000103061 0)
(-9.84358e-06 9.84357e-06 0)
(-0.000149745 0.000149745 0)
(-0.000329375 0.000329375 0)
(-5.69855e-05 5.69855e-05 0)
(-6.58933e-05 6.58933e-05 0)
(-1.11492e-05 1.11492e-05 0)
(8.61887e-06 -8.61888e-06 0)
(1.11736e-05 -1.11736e-05 0)
(1.48814e-05 -1.48815e-05 0)
(1.99657e-05 -1.99657e-05 0)
(2.45541e-05 -2.45541e-05 0)
(2.87567e-05 -2.87567e-05 0)
(3.4315e-05 -3.4315e-05 0)
(4.24187e-05 -4.24188e-05 0)
(5.44605e-05 -5.44605e-05 0)
(7.22002e-05 -7.22002e-05 0)
(9.48384e-05 -9.48384e-05 0)
(0.000119066 -0.000119066 0)
(0.000128144 -0.000128144 0)
(8.87334e-05 -8.87335e-05 0)
(-1.93954e-05 1.93954e-05 0)
(-0.00015841 0.00015841 0)
(-0.000299049 0.000299049 0)
(-0.00018823 0.00018823 0)
(-6.81528e-05 6.81528e-05 0)
(1.91524e-05 -1.91525e-05 0)
(7.2489e-05 -7.2489e-05 0)
(8.10334e-05 -8.10334e-05 0)
(7.88476e-05 -7.88476e-05 0)
(7.48611e-05 -7.48611e-05 0)
(7.11116e-05 -7.11116e-05 0)
(6.85735e-05 -6.85736e-05 0)
(6.78377e-05 -6.78377e-05 0)
(6.9407e-05 -6.9407e-05 0)
(7.38194e-05 -7.38194e-05 0)
(8.20336e-05 -8.20336e-05 0)
(9.41209e-05 -9.41209e-05 0)
(0.00010676 -0.00010676 0)
(0.000108736 -0.000108736 0)
(7.44937e-05 -7.44937e-05 0)
(-2.32271e-05 2.32271e-05 0)
(-0.000183741 0.000183741 0)
(-0.000455531 0.000455531 0)
(-0.000412626 0.000412626 0)
(0.000470198 -0.000470198 0)
(0.000322666 -0.000322666 0)
(0.00021522 -0.00021522 0)
(0.000175356 -0.000175356 0)
(0.000151977 -0.000151977 0)
(0.000132911 -0.000132911 0)
(0.000118979 -0.000118979 0)
(0.00010944 -0.00010944 0)
(0.000102558 -0.000102558 0)
(9.76146e-05 -9.76146e-05 0)
(9.46246e-05 -9.46246e-05 0)
(9.3627e-05 -9.3627e-05 0)
(9.41616e-05 -9.41616e-05 0)
(9.35201e-05 -9.35201e-05 0)
(8.63667e-05 -8.63667e-05 0)
(5.67985e-05 -5.67985e-05 0)
(5.81764e-06 -5.81765e-06 0)
(-0.000142402 0.000142402 0)
(-0.000239121 0.000239121 0)
(-0.00204031 0.00204031 0)
)
;

boundaryField
{
    movingWall
    {
        type            extrapolatedCalculated;
        value           nonuniform List<vector> 
20
(
(0.000470198 -0.000470198 0)
(0.000322666 -0.000322666 0)
(0.00021522 -0.00021522 0)
(0.000175356 -0.000175356 0)
(0.000151977 -0.000151977 0)
(0.000132911 -0.000132911 0)
(0.000118979 -0.000118979 0)
(0.00010944 -0.00010944 0)
(0.000102558 -0.000102558 0)
(9.76146e-05 -9.76146e-05 0)
(9.46246e-05 -9.46246e-05 0)
(9.3627e-05 -9.3627e-05 0)
(9.41616e-05 -9.41616e-05 0)
(9.35201e-05 -9.35201e-05 0)
(8.63667e-05 -8.63667e-05 0)
(5.67985e-05 -5.67985e-05 0)
(5.81764e-06 -5.81765e-06 0)
(-0.000142402 0.000142402 0)
(-0.000239121 0.000239121 0)
(-0.00204031 0.00204031 0)
)
;
    }
    fixedWalls
    {
        type            extrapolatedCalculated;
        value           nonuniform List<vector> 
60
(
(-4.38095e-06 4.38094e-06 0)
(-9.56176e-06 9.56177e-06 0)
(-1.25564e-05 1.25564e-05 0)
(-1.38791e-05 1.38791e-05 0)
(-1.44428e-05 1.44428e-05 0)
(-1.47617e-05 1.47617e-05 0)
(-1.50631e-05 1.50631e-05 0)
(-1.54454e-05 1.54454e-05 0)
(-1.59603e-05 1.59603e-05 0)
(-1.66587e-05 1.66587e-05 0)
(-1.76361e-05 1.76361e-05 0)
(-1.90751e-05 1.90751e-05 0)
(-2.13154e-05 2.13154e-05 0)
(-2.47461e-05 2.47461e-05 0)
(-3.04231e-05 3.04231e-05 0)
(-3.69632e-05 3.69631e-05 0)
(-5.32824e-05 5.32824e-05 0)
(-6.58933e-05 6.58933e-05 0)
(-6.81528e-05 6.81528e-05 0)
(0.000470198 -0.000470198 0)
(9.54708e-06 -9.54707e-06 0)
(1.72282e-05 -1.72282e-05 0)
(2.22561e-05 -2.22561e-05 0)
(2.6069e-05 -2.6069e-05 0)
(3.01683e-05 -3.01683e-05 0)
(3.52474e-05 -3.52474e-05 0)
(4.10239e-05 -4.10239e-05 0)
(4.47307e-05 -4.47307e-05 0)
(3.91684e-05 -3.91684e-05 0)
(3.54544e-05 -3.54544e-05 0)
(0.000114306 -0.000114306 0)
(0.000338002 -0.000338002 0)
(0.000593402 -0.000593402 0)
(0.000674992 -0.000674992 0)
(0.00049602 -0.00049602 0)
(0.000180538 -0.000180538 0)
(-5.69855e-05 5.69855e-05 0)
(-0.00018823 0.00018823 0)
(-0.000412626 0.000412626 0)
(-0.00204031 0.00204031 0)
(-4.38095e-06 4.38094e-06 0)
(-9.67314e-06 9.67314e-06 0)
(-1.24513e-05 1.24513e-05 0)
(-1.32271e-05 1.32271e-05 0)
(-1.29372e-05 1.29372e-05 0)
(-1.21064e-05 1.21064e-05 0)
(-1.09512e-05 1.09512e-05 0)
(-9.52608e-06 9.52609e-06 0)
(-7.79496e-06 7.79497e-06 0)
(-5.66797e-06 5.66798e-06 0)
(-3.10109e-06 3.1011e-06 0)
(-6.6704e-08 6.67171e-08 0)
(3.53917e-06 -3.53916e-06 0)
(7.54514e-06 -7.54513e-06 0)
(1.16983e-05 -1.16983e-05 0)
(1.55527e-05 -1.55527e-05 0)
(1.84065e-05 -1.84065e-05 0)
(1.91764e-05 -1.91764e-05 0)
(1.64189e-05 -1.64189e-05 0)
(9.54708e-06 -9.54707e-06 0)
)
;
    }
    frontAndBack
    {
        type            empty;
    }
}


// ************************************************************************* //
