/*--------------------------------*- C++ -*----------------------------------*\
| =========                 |                                                 |
| \\      /  F ield         | OpenFOAM: The Open Source CFD Toolbox           |
|  \\    /   O peration     | Version:  2312                                  |
|   \\  /    A nd           | Website:  www.openfoam.com                      |
|    \\/     M anipulation  |                                                 |
\*---------------------------------------------------------------------------*/
FoamFile
{
    version     2.0;
    format      ascii;
    arch        "LSB;label=32;scalar=64";
    class       volScalarField;
    location    "0.75";
    object      magP;
}
// * * * * * * * * * * * * * * * * * * * * * * * * * * * * * * * * * * * * * //

dimensions      [0 2 -2 0 0 0 0];

internalField   nonuniform List<scalar> 
400
(
8.5374e-10
0
3.02819e-06
2.18623e-05
5.41395e-05
0.000100683
0.000161891
0.000237878
0.000328442
0.000432836
0.000549667
0.000676922
0.000811034
0.000945841
0.00107466
0.00118916
0.00128089
0.00134342
0.0013753
0.00137812
3.60215e-06
0
7.20537e-06
2.78967e-05
6.10596e-05
0.00010731
0.000167248
0.000241209
0.000329186
0.000430688
0.000544639
0.000669153
0.00080032
0.000933274
0.00106146
0.00117714
0.00127239
0.00134005
0.00137561
0.001379
0
0
0
1.46444e-05
4.82797e-05
9.43632e-05
0.000153534
0.000226378
0.000313231
0.000414022
0.000528103
0.000653841
0.000787925
0.000925858
0.00106113
0.00118567
0.00129044
0.0013657
0.00140351
0.00140404
0
0
0
0
1.33656e-05
5.87047e-05
0.000117201
0.000189646
0.000276803
0.000379202
0.000496864
0.000628804
0.000772451
0.00092343
0.00107475
0.00121672
0.00133711
0.00142173
0.00145997
0.00145434
0
0
0
0
0
1.91627e-06
5.90576e-05
0.000130935
0.00021885
0.000324123
0.000447731
0.000589725
0.000748458
0.00091996
0.00109647
0.00126558
0.00140965
0.00150759
0.00154644
0.00153192
0
0
0
0
0
0
0
4.95697e-05
0.000137334
0.000245154
0.00037536
0.000529585
0.000707701
0.000906953
0.00111908
0.00132822
0.00150816
0.00162608
0.00166538
0.00163591
0
0
0
0
0
0
0
0
2.86426e-05
0.000136686
0.000271835
0.0004381
0.000638096
0.000871581
0.00113147
0.00139872
0.00163368
0.00178178
0.00181869
0.00176034
0
0
0
0
0
0
0
0
0
0
0.000126705
0.000301041
0.000521872
0.000792717
0.00111292
0.00146389
0.0017858
0.00198111
0.00200798
0.00189061
0
0
0
0
0
0
0
0
0
0
0
9.92226e-05
0.00033137
0.000635667
0.00102473
0.00149779
0.00196886
0.00224188
0.0022286
0.00199054
0
0
0
0
0
0
0
0
0
0
0
0
3.0636e-05
0.000348415
0.000796569
0.00144509
0.00218195
0.00258382
0.00240149
0.00196237
0
0
0
0
0
0
0
0
0
0
0
0
0
0
0.000300133
0.00105571
0.00207489
0.00271657
0.00240474
0.0017981
0
0
0
0
0
0
0
0
0
0
0
0
0
0
0
0
0
0.00113865
0.00194971
0.0015043
0
0
0
0
0
0
0
0
0
0
0
0
0
0
0
0
0
0
0
0.000337097
0
0
0
0
0
0
0
0
0
0
0
0
0
0
0
0
0
0
0
0
0
0
0
0
0
0
0
0
0
0
0
0
0
0
0
0
0
0
0
0
0
0
0
0
0
0
0
0
0
0
0
0
0
0
0
0
0
0
0
0
0
0
0
0
0
0
0
0
0
0
0
0
0
0
0
0
0
0
0
0
0
0
0
0
0
0
0
0
0
0
0
0
0
0
0
0
0
0
0
0
0
0
0
0
0
0
0
0
0
0
0
0
0
0
0
0
0
0
0
0.0115584
0.000277636
0.00183529
0.000944301
0
0
0
0
0
0
0
0
0
0
0
0
0
0
0
0.000893384
0.0559631
)
;

boundaryField
{
    movingWall
    {
        type            calculated;
        value           nonuniform List<scalar> 
20
(
0.000277636
0.00183529
0.000944301
0
0
0
0
0
0
0
0
0
0
0
0
0
0
0
0.000893384
0.0559631
)
;
    }
    fixedWalls
    {
        type            calculated;
        value           nonuniform List<scalar> 
60
(
8.5374e-10
3.60215e-06
0
0
0
0
0
0
0
0
0
0
0
0
0
0
0
0
0
0.000277636
0.00137812
0.001379
0.00140404
0.00145434
0.00153192
0.00163591
0.00176034
0.00189061
0.00199054
0.00196237
0.0017981
0.0015043
0.000337097
0
0
0
0
0
0.0115584
0.0559631
8.5374e-10
0
3.02819e-06
2.18623e-05
5.41395e-05
0.000100683
0.000161891
0.000237878
0.000328442
0.000432836
0.000549667
0.000676922
0.000811034
0.000945841
0.00107466
0.00118916
0.00128089
0.00134342
0.0013753
0.00137812
)
;
    }
    frontAndBack
    {
        type            empty;
    }
}


// ************************************************************************* //
