/*--------------------------------*- C++ -*----------------------------------*\
| =========                 |                                                 |
| \\      /  F ield         | OpenFOAM: The Open Source CFD Toolbox           |
|  \\    /   O peration     | Version:  2312                                  |
|   \\  /    A nd           | Website:  www.openfoam.com                      |
|    \\/     M anipulation  |                                                 |
\*---------------------------------------------------------------------------*/
FoamFile
{
    version     2.0;
    format      ascii;
    arch        "LSB;label=32;scalar=64";
    class       volScalarField;
    location    "0.75";
    object      magSqrU;
}
// * * * * * * * * * * * * * * * * * * * * * * * * * * * * * * * * * * * * * //

dimensions      [0 2 -2 0 0 0 0];

internalField   nonuniform List<scalar> 
400
(
3.86917e-08
8.91115e-07
4.50181e-06
1.15483e-05
2.20146e-05
3.51986e-05
5.01016e-05
6.55676e-05
8.02932e-05
9.29216e-05
0.000101506
0.000104773
0.000101416
9.06739e-05
7.34806e-05
5.22405e-05
3.08733e-05
1.37047e-05
3.4333e-06
2.93018e-07
8.8514e-07
4.80416e-06
1.20047e-05
2.2537e-05
3.6484e-05
5.3419e-05
7.23896e-05
9.20183e-05
0.00011063
0.000126363
0.000137217
0.000141432
0.000137608
0.000125386
0.00010582
8.13889e-05
5.56595e-05
3.24252e-05
1.43992e-05
3.51167e-06
4.46716e-06
1.21328e-05
2.18647e-05
3.41253e-05
4.91035e-05
6.66775e-05
8.62039e-05
0.000106513
0.000126043
0.000142979
0.000155404
0.000161545
0.000160099
0.0001506
0.000133681
0.000111082
8.53083e-05
5.9295e-05
3.55789e-05
1.52903e-05
1.17164e-05
2.3279e-05
3.50599e-05
4.87435e-05
6.45838e-05
8.2612e-05
0.000102468
0.000123294
0.000143812
0.000162449
0.000177475
0.000187207
0.000190287
0.000185895
0.000173865
0.000154785
0.000129914
0.0001015
7.20181e-05
3.96494e-05
2.32213e-05
3.91005e-05
5.2637e-05
6.76262e-05
8.44835e-05
0.000103306
0.000123957
0.000145914
0.000168276
0.000189837
0.000209185
0.000224802
0.000235234
0.000239102
0.000235097
0.000222154
0.000199786
0.000169301
0.000132707
8.22108e-05
3.92278e-05
6.03843e-05
7.56726e-05
9.19611e-05
0.000110047
0.000130121
0.000152265
0.000176321
0.00020186
0.000228204
0.000254445
0.000279411
0.000301721
0.000319368
0.00032948
0.000328438
0.000312536
0.000280778
0.000233072
0.000151022
5.99525e-05
8.79035e-05
0.000105258
0.000122989
0.000142564
0.000164387
0.000188831
0.000216195
0.00024669
0.000280422
0.000317342
0.000357095
0.000398896
0.000440405
0.000476785
0.000500109
0.000500098
0.000469118
0.000400569
0.00025769
8.5741e-05
0.000122468
0.000142449
0.000161879
0.000183215
0.00020726
0.000234834
0.000266879
0.000304528
0.000349143
0.000402278
0.000465402
0.000539157
0.000622724
0.00070995
0.000784957
0.000823519
0.000798811
0.000683228
0.000413124
0.000117143
0.000165003
0.000188296
0.000209667
0.000232912
0.000259475
0.000290842
0.000328893
0.000376138
0.000435941
0.000512742
0.000611817
0.000738517
0.000897946
0.00108674
0.00127815
0.00141669
0.00141819
0.00116229
0.000602956
0.000154981
0.000216639
0.000243874
0.000267175
0.000292083
0.000320961
0.000356254
0.000401159
0.000460171
0.000539832
0.000649653
0.000802683
0.00101558
0.00131114
0.00171525
0.00220223
0.0026582
0.00281548
0.00215932
0.000792487
0.000200493
0.000278856
0.000310302
0.000334875
0.000360359
0.000390358
0.000428586
0.000479938
0.000551585
0.00065465
0.00080683
0.00103521
0.00138019
0.00192122
0.00279792
0.00408886
0.00568915
0.0067311
0.0051038
0.00103389
0.000255838
0.000353769
0.000388771
0.000412687
0.00043618
0.000464458
0.000502739
0.000557815
0.000639946
0.000765984
0.000964923
0.00128582
0.00181006
0.00273748
0.00452971
0.00746679
0.0112329
0.0153109
0.0134818
0.00248365
0.000323984
0.000444312
0.00048046
0.000499616
0.000516333
0.00053776
0.000570592
0.000623255
0.000708703
0.000849146
0.00108488
0.00148924
0.00219004
0.00349831
0.00593526
0.00893824
0.0130726
0.0230986
0.0301251
0.0111472
0.000414589
0.00055569
0.000586451
0.000593156
0.000595387
0.000602215
0.000621408
0.000662024
0.000737983
0.000873894
0.0011152
0.0015468
0.00231969
0.00366283
0.0052972
0.00527469
0.00628312
0.0190448
0.0433215
0.0320108
0.000523332
0.000689316
0.000704009
0.000686577
0.000663974
0.000646917
0.00064324
0.000661004
0.000712327
0.000820292
0.00102796
0.00141345
0.00211242
0.00326134
0.00407904
0.00234742
0.000175234
0.00793387
0.0368867
0.0562876
0.00073045
0.000866302
0.000829375
0.000767038
0.000707163
0.000657611
0.000625418
0.000613319
0.000629255
0.000692882
0.000840696
0.00113809
0.00169639
0.00262935
0.00344166
0.00261148
0.00122839
0.00529882
0.0207062
0.0717799
0.000777942
0.000956685
0.0008867
0.000785305
0.000691166
0.000612886
0.000552754
0.000512863
0.000499191
0.000525613
0.000622122
0.000847716
0.00129606
0.00206639
0.00297713
0.0032526
0.00301111
0.00591563
0.0133162
0.0759448
0.00216978
0.00183465
0.0013092
0.000948229
0.000733704
0.000584761
0.00048579
0.00043179
0.000422447
0.000468029
0.000596502
0.000865785
0.0013606
0.00216638
0.00321347
0.0042332
0.00421737
0.00674637
0.00850605
0.0757045
0.000410718
0.000195904
0.00011776
0.000215917
0.00039903
0.00066573
0.00102797
0.00147838
0.00201435
0.00264907
0.00341439
0.00436423
0.00557232
0.00713853
0.00893402
0.0110337
0.0107005
0.014206
0.00329617
0.0585937
0.010205
0.00885059
0.00978071
0.0130569
0.016601
0.0200948
0.0236227
0.0271742
0.030726
0.0342883
0.0379019
0.041623
0.0454882
0.0495812
0.0534062
0.0577166
0.0561177
0.0664321
0.0175332
0.155089
)
;

boundaryField
{
    movingWall
    {
        type            calculated;
        value           uniform 1;
    }
    fixedWalls
    {
        type            calculated;
        value           uniform 0;
    }
    frontAndBack
    {
        type            empty;
    }
}


// ************************************************************************* //
