/*--------------------------------*- C++ -*----------------------------------*\
| =========                 |                                                 |
| \\      /  F ield         | OpenFOAM: The Open Source CFD Toolbox           |
|  \\    /   O peration     | Version:  2312                                  |
|   \\  /    A nd           | Website:  www.openfoam.com                      |
|    \\/     M anipulation  |                                                 |
\*---------------------------------------------------------------------------*/
FoamFile
{
    version     2.0;
    format      ascii;
    arch        "LSB;label=32;scalar=64";
    class       volScalarField;
    location    "0.75";
    object      magSqrP;
}
// * * * * * * * * * * * * * * * * * * * * * * * * * * * * * * * * * * * * * //

dimensions      [0 4 -4 0 0 0 0];

internalField   nonuniform List<scalar> 
400
(
7.28872e-19
0
9.16994e-12
4.77961e-10
2.93108e-09
1.0137e-08
2.62086e-08
5.65862e-08
1.07874e-07
1.87347e-07
3.02134e-07
4.58223e-07
6.57775e-07
8.94614e-07
1.1549e-06
1.41411e-06
1.64069e-06
1.80478e-06
1.89146e-06
1.89922e-06
1.29755e-11
0
5.19174e-11
7.78225e-10
3.72827e-09
1.15155e-08
2.79719e-08
5.81818e-08
1.08364e-07
1.85492e-07
2.96632e-07
4.47766e-07
6.40512e-07
8.71e-07
1.12669e-06
1.38566e-06
1.61897e-06
1.79574e-06
1.89229e-06
1.90163e-06
0
0
0
2.1446e-10
2.33093e-09
8.90442e-09
2.35727e-08
5.12471e-08
9.81136e-08
1.71414e-07
2.78892e-07
4.27508e-07
6.20826e-07
8.57212e-07
1.126e-06
1.40581e-06
1.66522e-06
1.86515e-06
1.96983e-06
1.97133e-06
0
0
0
0
1.78639e-10
3.44625e-09
1.3736e-08
3.59655e-08
7.662e-08
1.43794e-07
2.46874e-07
3.95394e-07
5.96681e-07
8.52722e-07
1.15509e-06
1.48041e-06
1.78787e-06
2.02131e-06
2.13152e-06
2.1151e-06
0
0
0
0
0
3.67208e-12
3.4878e-09
1.71441e-08
4.78953e-08
1.05056e-07
2.00463e-07
3.47776e-07
5.6019e-07
8.46326e-07
1.20224e-06
1.6017e-06
1.9871e-06
2.27284e-06
2.39148e-06
2.34678e-06
0
0
0
0
0
0
0
2.45715e-09
1.88605e-08
6.01003e-08
1.40895e-07
2.8046e-07
5.0084e-07
8.22564e-07
1.25233e-06
1.76417e-06
2.27456e-06
2.64414e-06
2.7735e-06
2.67619e-06
0
0
0
0
0
0
0
0
8.20398e-10
1.86831e-08
7.38945e-08
1.91931e-07
4.07167e-07
7.59654e-07
1.28023e-06
1.95642e-06
2.66892e-06
3.17473e-06
3.30762e-06
3.09879e-06
0
0
0
0
0
0
0
0
0
0
1.60543e-08
9.06255e-08
2.7235e-07
6.28401e-07
1.23858e-06
2.14297e-06
3.18909e-06
3.92479e-06
4.03199e-06
3.57439e-06
0
0
0
0
0
0
0
0
0
0
0
9.84512e-09
1.09806e-07
4.04072e-07
1.05007e-06
2.24338e-06
3.87641e-06
5.02603e-06
4.96667e-06
3.96223e-06
0
0
0
0
0
0
0
0
0
0
0
0
9.38567e-10
1.21393e-07
6.34523e-07
2.08829e-06
4.76092e-06
6.67615e-06
5.76717e-06
3.8509e-06
0
0
0
0
0
0
0
0
0
0
0
0
0
0
9.00798e-08
1.11453e-06
4.30516e-06
7.37976e-06
5.78277e-06
3.23316e-06
0
0
0
0
0
0
0
0
0
0
0
0
0
0
0
0
0
1.29652e-06
3.80139e-06
2.2629e-06
0
0
0
0
0
0
0
0
0
0
0
0
0
0
0
0
0
0
0
1.13635e-07
0
0
0
0
0
0
0
0
0
0
0
0
0
0
0
0
0
0
0
0
0
0
0
0
0
0
0
0
0
0
0
0
0
0
0
0
0
0
0
0
0
0
0
0
0
0
0
0
0
0
0
0
0
0
0
0
0
0
0
0
0
0
0
0
0
0
0
0
0
0
0
0
0
0
0
0
0
0
0
0
0
0
0
0
0
0
0
0
0
0
0
0
0
0
0
0
0
0
0
0
0
0
0
0
0
0
0
0
0
0
0
0
0
0
0
0
0
0
0
0.000133598
7.70816e-08
3.3683e-06
8.91704e-07
0
0
0
0
0
0
0
0
0
0
0
0
0
0
0
7.98135e-07
0.00313187
)
;

boundaryField
{
    movingWall
    {
        type            calculated;
        value           nonuniform List<scalar> 
20
(
7.70816e-08
3.3683e-06
8.91704e-07
0
0
0
0
0
0
0
0
0
0
0
0
0
0
0
7.98135e-07
0.00313187
)
;
    }
    fixedWalls
    {
        type            calculated;
        value           nonuniform List<scalar> 
60
(
7.28872e-19
1.29755e-11
0
0
0
0
0
0
0
0
0
0
0
0
0
0
0
0
0
7.70816e-08
1.89922e-06
1.90163e-06
1.97133e-06
2.1151e-06
2.34678e-06
2.67619e-06
3.09879e-06
3.57439e-06
3.96223e-06
3.8509e-06
3.23316e-06
2.2629e-06
1.13635e-07
0
0
0
0
0
0.000133598
0.00313187
7.28872e-19
0
9.16994e-12
4.77961e-10
2.93108e-09
1.0137e-08
2.62086e-08
5.65862e-08
1.07874e-07
1.87347e-07
3.02134e-07
4.58223e-07
6.57775e-07
8.94614e-07
1.1549e-06
1.41411e-06
1.64069e-06
1.80478e-06
1.89146e-06
1.89922e-06
)
;
    }
    frontAndBack
    {
        type            empty;
    }
}


// ************************************************************************* //
