/*--------------------------------*- C++ -*----------------------------------*\
| =========                 |                                                 |
| \\      /  F ield         | OpenFOAM: The Open Source CFD Toolbox           |
|  \\    /   O peration     | Version:  2312                                  |
|   \\  /    A nd           | Website:  www.openfoam.com                      |
|    \\/     M anipulation  |                                                 |
\*---------------------------------------------------------------------------*/
FoamFile
{
    version     2.0;
    format      ascii;
    arch        "LSB;label=32;scalar=64";
    class       volScalarField;
    location    "0.75";
    object      magU;
}
// * * * * * * * * * * * * * * * * * * * * * * * * * * * * * * * * * * * * * //

dimensions      [0 1 -1 0 0 0 0];

internalField   nonuniform List<scalar> 
400
(
0.000196702
0.000943989
0.00212175
0.00339828
0.00469197
0.00593284
0.00707825
0.00809738
0.00896065
0.00963958
0.010075
0.0102359
0.0100705
0.00952228
0.00857208
0.00722776
0.00555637
0.00370199
0.00185292
0.000541311
0.000940819
0.00219184
0.00346477
0.00474732
0.0060402
0.00730883
0.00850821
0.00959262
0.0105181
0.0112411
0.011714
0.0118925
0.0117307
0.0111976
0.0102869
0.00902158
0.00746053
0.00569431
0.00379463
0.00187395
0.00211357
0.00348322
0.00467597
0.00584169
0.00700739
0.00816563
0.00928461
0.0103205
0.0112269
0.0119574
0.0124661
0.01271
0.012653
0.0122719
0.0115621
0.0105395
0.00923625
0.00770033
0.00596481
0.00391028
0.00342292
0.00482483
0.00592114
0.00698165
0.0080364
0.00908911
0.0101226
0.0111038
0.0119922
0.0127455
0.013322
0.0136824
0.0137945
0.0136343
0.0131858
0.0124413
0.011398
0.0100747
0.00848635
0.00629678
0.00481885
0.00625304
0.00725513
0.00822352
0.00919149
0.010164
0.0111336
0.0120795
0.0129721
0.0137781
0.0144632
0.0149934
0.0153373
0.0154629
0.0153329
0.0149048
0.0141346
0.0130116
0.0115199
0.00906701
0.00626321
0.00777073
0.008699
0.00958963
0.0104904
0.0114071
0.0123396
0.0132786
0.0142078
0.0151064
0.0159513
0.0167156
0.0173701
0.0178709
0.0181516
0.0181228
0.0176787
0.0167564
0.0152667
0.0122891
0.0077429
0.00937569
0.0102595
0.01109
0.01194
0.0128213
0.0137416
0.0147036
0.0157064
0.0167458
0.0178141
0.018897
0.0199724
0.0209858
0.0218354
0.0223631
0.0223629
0.0216591
0.0200142
0.0160527
0.00925965
0.0110665
0.0119352
0.0127232
0.0135357
0.0143965
0.0153243
0.0163364
0.0174507
0.0186854
0.0200569
0.0215732
0.0232198
0.0249544
0.0266449
0.0280171
0.028697
0.0282632
0.0261386
0.0203254
0.0108232
0.0128454
0.0137221
0.0144799
0.0152615
0.0161082
0.0170541
0.0181354
0.0193943
0.0208792
0.0226438
0.0247349
0.0271757
0.0299658
0.0329658
0.0357512
0.0376389
0.0376588
0.0340923
0.0245552
0.0124491
0.0147187
0.0156165
0.0163455
0.0170904
0.0179154
0.0188747
0.0200289
0.0214516
0.0232343
0.0254883
0.0283317
0.0318681
0.0362096
0.0414156
0.0469279
0.0515577
0.0530611
0.0464684
0.0281511
0.0141595
0.016699
0.0176154
0.0182996
0.0189831
0.0197575
0.0207023
0.0219075
0.0234858
0.0255861
0.0284048
0.0321747
0.037151
0.0438317
0.0528954
0.0639442
0.0754264
0.0820433
0.0714409
0.0321542
0.0159949
0.0188087
0.0197173
0.0203147
0.0208849
0.0215513
0.0224218
0.0236181
0.0252972
0.0276764
0.0310632
0.0358584
0.0425448
0.0523209
0.0673031
0.0864106
0.105985
0.123737
0.116111
0.0498363
0.0179996
0.0210787
0.0219194
0.0223521
0.022723
0.0231896
0.0238871
0.0249651
0.0266215
0.0291401
0.0329375
0.0385907
0.0467978
0.0591465
0.0770407
0.0945423
0.114335
0.151982
0.173566
0.10558
0.0203615
0.0235731
0.0242168
0.0243548
0.0244006
0.0245401
0.0249281
0.0257298
0.0271658
0.0295617
0.0333947
0.0393294
0.0481632
0.0605214
0.0727819
0.072627
0.0792661
0.138003
0.208138
0.178916
0.0228764
0.0262548
0.0265332
0.0262026
0.0257677
0.0254346
0.0253622
0.02571
0.0266894
0.0286407
0.0320618
0.0375959
0.0459611
0.0571082
0.0638674
0.0484501
0.0132376
0.0890723
0.192059
0.23725
0.0270268
0.029433
0.0287989
0.0276954
0.0265925
0.0256439
0.0250084
0.0247653
0.0250849
0.0263226
0.0289948
0.0337356
0.0411873
0.0512772
0.0586657
0.0511026
0.0350485
0.072793
0.143896
0.267918
0.0278916
0.0309303
0.0297775
0.0280233
0.02629
0.0247565
0.0235107
0.0226465
0.0223426
0.0229262
0.0249424
0.0291156
0.0360009
0.0454576
0.0545631
0.0570315
0.0548736
0.0769131
0.115396
0.275581
0.0465809
0.0428328
0.0361828
0.0307933
0.027087
0.0241818
0.0220406
0.0207796
0.0205535
0.021634
0.0244234
0.0294242
0.0368863
0.0465444
0.0566875
0.0650631
0.0649413
0.0821363
0.0922283
0.275145
0.0202662
0.0139966
0.0108517
0.0146941
0.0199757
0.0258017
0.032062
0.0384497
0.0448815
0.0514692
0.0584328
0.0660623
0.074648
0.0844898
0.09452
0.105041
0.103443
0.119189
0.0574123
0.242061
0.10102
0.0940776
0.0988975
0.114267
0.128845
0.141756
0.153697
0.164846
0.175288
0.185171
0.194684
0.204017
0.21328
0.222668
0.231098
0.240243
0.236892
0.257744
0.132413
0.393814
)
;

boundaryField
{
    movingWall
    {
        type            calculated;
        value           uniform 1;
    }
    fixedWalls
    {
        type            calculated;
        value           uniform 0;
    }
    frontAndBack
    {
        type            empty;
    }
}


// ************************************************************************* //
