/*--------------------------------*- C++ -*----------------------------------*\
| =========                 |                                                 |
| \\      /  F ield         | OpenFOAM: The Open Source CFD Toolbox           |
|  \\    /   O peration     | Version:  2312                                  |
|   \\  /    A nd           | Website:  www.openfoam.com                      |
|    \\/     M anipulation  |                                                 |
\*---------------------------------------------------------------------------*/
FoamFile
{
    version     2.0;
    format      ascii;
    arch        "LSB;label=32;scalar=64";
    class       volScalarField;
    location    "0.75";
    object      QField;
}
// * * * * * * * * * * * * * * * * * * * * * * * * * * * * * * * * * * * * * //

dimensions      [0 0 -2 0 0 0 0];

internalField   nonuniform List<scalar> 
400
(
-0.00520462
-0.0253809
-0.053176
-0.0707319
-0.0778179
-0.077103
-0.072956
-0.0685452
-0.0664804
-0.0668646
-0.0685022
-0.0806322
-0.0999327
-0.120059
-0.143568
-0.16185
-0.162401
-0.134876
-0.0787927
-0.0264682
-0.02425
-0.0449836
-0.065127
-0.0745762
-0.0759565
-0.0713815
-0.0629532
-0.0524348
-0.0414996
-0.0317859
-0.0255567
-0.0256689
-0.0352507
-0.0564284
-0.0883487
-0.125191
-0.154578
-0.162179
-0.137377
-0.0864284
-0.0515928
-0.0647337
-0.0738829
-0.0782751
-0.0783488
-0.0743077
-0.0667554
-0.0567941
-0.0459826
-0.0363178
-0.030409
-0.0315056
-0.043067
-0.0672495
-0.10308
-0.145005
-0.1825
-0.204912
-0.204057
-0.162821
-0.0717209
-0.0783195
-0.0820659
-0.0833473
-0.0827289
-0.0799137
-0.0747514
-0.0677925
-0.0603404
-0.0543749
-0.0525957
-0.0583986
-0.0752612
-0.105404
-0.148056
-0.198079
-0.245385
-0.279092
-0.284242
-0.229869
-0.0838864
-0.0887123
-0.0912559
-0.091281
-0.0905977
-0.0893452
-0.0872929
-0.0847408
-0.0828194
-0.0834825
-0.0895302
-0.104542
-0.132407
-0.175766
-0.234358
-0.302983
-0.368732
-0.4151
-0.409492
-0.302224
-0.0897351
-0.097488
-0.101542
-0.101863
-0.101871
-0.102587
-0.104237
-0.107288
-0.113043
-0.12376
-0.142726
-0.174353
-0.223952
-0.295921
-0.391216
-0.503108
-0.608621
-0.674241
-0.629663
-0.41511
-0.0924192
-0.105973
-0.112912
-0.114457
-0.115706
-0.118717
-0.124562
-0.134369
-0.150207
-0.175436
-0.215072
-0.276181
-0.366776
-0.497607
-0.676062
-0.889998
-1.08925
-1.19405
-1.04712
-0.678528
-0.0938188
-0.114861
-0.125114
-0.128062
-0.130551
-0.135768
-0.145957
-0.163458
-0.191994
-0.2375
-0.309096
-0.419884
-0.58786
-0.840886
-1.2099
-1.68289
-2.13512
-2.34561
-1.88482
-1.43809
-0.0946535
-0.124556
-0.137838
-0.141477
-0.144314
-0.150808
-0.164674
-0.190114
-0.233709
-0.306327
-0.425666
-0.619611
-0.933294
-1.43999
-2.27017
-3.49144
-4.78331
-5.3598
-3.72552
-3.18821
-0.094428
-0.13535
-0.150715
-0.15323
-0.154304
-0.159882
-0.175447
-0.207687
-0.267641
-0.374782
-0.563442
-0.892703
-1.46966
-2.52922
-4.53362
-7.95895
-12.1613
-13.8327
-7.46376
-3.19914
-0.0910727
-0.147645
-0.163359
-0.161584
-0.157346
-0.158374
-0.172066
-0.208057
-0.28346
-0.431066
-0.713696
-1.25013
-2.30293
-4.54783
-9.36726
-18.0421
-28.4207
-33.6653
-17.6197
9.12262
-0.0787596
-0.161893
-0.175458
-0.164737
-0.150404
-0.142259
-0.149411
-0.184424
-0.271587
-0.461634
-0.859345
-1.67804
-3.49775
-7.95729
-16.7554
-26.6396
-35.1765
-50.7309
-46.6609
8.42945
-0.0545186
-0.180659
-0.187027
-0.161184
-0.131691
-0.110356
-0.107302
-0.137273
-0.231427
-0.459694
-0.975765
-2.10415
-4.75108
-10.8116
-15.1317
2.34347
28.7311
6.01727
-63.6949
-68.135
0.0248966
-0.202127
-0.19676
-0.148876
-0.100982
-0.0661998
-0.0544598
-0.0812301
-0.182808
-0.443914
-1.05737
-2.4443
-5.37837
-9.39783
1.17777
58.4633
138.003
146.16
11.1766
-165.278
0.000801067
-0.245913
-0.200797
-0.122675
-0.0574761
-0.0164627
-0.00706284
-0.0433546
-0.166218
-0.469903
-1.15888
-2.66326
-5.56152
-7.73767
5.7617
64.3716
146.149
187.315
105.225
-178.41
0.656508
-0.211663
-0.160969
-0.056009
0.0124052
0.0411206
0.0286819
-0.0406315
-0.214563
-0.591011
-1.35984
-2.88054
-5.60478
-7.99999
-0.534271
32.3622
70.5859
89.3037
100.991
-128.309
-0.621407
-0.653151
-0.139162
0.0925982
0.178492
0.189686
0.132526
-0.0128292
-0.301011
-0.839998
-1.80852
-3.41023
-5.74853
-7.74468
-4.37023
10.5888
24.7166
32.9634
37.5402
-110.706
3.20921
0.4177
0.679944
1.04246
1.13302
1.03988
0.758987
0.33577
-0.264544
-1.17476
-2.60878
-4.59946
-6.5838
-6.79993
-1.48796
13.1279
29.0279
41.5667
-17.6118
-315.345
-20.5624
7.46741
-0.506908
-3.86308
-0.914818
0.71513
0.480835
-0.134574
-0.702642
-1.42786
-2.50003
-3.92249
-4.91127
-3.45127
4.88837
22.2439
52.9632
58.5915
176.045
-1225.08
-3301.41
907.355
747.359
402.098
216.914
131.425
87.635
62.0841
46.0796
34.7516
26.1966
20.2336
16.7916
17.5229
27.8899
48.4447
118.973
-32.2807
1817.75
-3181.33
)
;

boundaryField
{
    movingWall
    {
        type            calculated;
        value           nonuniform List<scalar> 
20
(
-6602.85
1689.91
1391.1
745.671
401.636
242.992
161.924
114.818
85.4421
64.7428
49.209
38.5296
32.5838
34.1594
53.1973
89.296
217.661
-23.2019
3323.57
-4421.97
)
;
    }
    fixedWalls
    {
        type            calculated;
        value           nonuniform List<scalar> 
60
(
-0.00182019
-0.017283
-0.0455445
-0.0707303
-0.0860959
-0.0921148
-0.0926344
-0.09009
-0.0851435
-0.0761323
-0.0577347
-0.0170656
0.0594416
0.248025
0.316672
1.54936
0.0435398
6.13753
-46.5885
-7447.11
-0.0126277
-0.0627627
-0.134502
-0.192893
-0.236523
-0.308084
-0.588937
-1.72061
-4.45107
-3.2095
20.9247
41.3266
-46.1745
-233.061
-361.43
-341.887
-319.955
-920.314
-3967.48
-11151.6
-0.00187092
-0.0184756
-0.0481778
-0.0732704
-0.0873788
-0.0922427
-0.093391
-0.0953426
-0.101963
-0.112707
-0.123568
-0.14919
-0.180358
-0.202206
-0.218887
-0.218706
-0.190369
-0.131223
-0.0595321
-0.0121316
)
;
    }
    frontAndBack
    {
        type            empty;
    }
}


// ************************************************************************* //
