/*--------------------------------*- C++ -*----------------------------------*\
| =========                 |                                                 |
| \\      /  F ield         | OpenFOAM: The Open Source CFD Toolbox           |
|  \\    /   O peration     | Version:  2312                                  |
|   \\  /    A nd           | Website:  www.openfoam.com                      |
|    \\/     M anipulation  |                                                 |
\*---------------------------------------------------------------------------*/
FoamFile
{
    version     2.0;
    format      ascii;
    arch        "LSB;label=32;scalar=64";
    class       volScalarField;
    location    "0.75";
    object      staticCoeffP;
}
// * * * * * * * * * * * * * * * * * * * * * * * * * * * * * * * * * * * * * //

dimensions      [0 0 0 0 0 0 0];

internalField   nonuniform List<scalar> 
400
(
1.70748e-09
0
6.05638e-06
4.37246e-05
0.000108279
0.000201366
0.000323781
0.000475757
0.000656885
0.000865672
0.00109933
0.00135384
0.00162207
0.00189168
0.00214932
0.00237833
0.00256179
0.00268684
0.00275061
0.00275624
7.2043e-06
0
1.44107e-05
5.57934e-05
0.000122119
0.000214621
0.000334496
0.000482418
0.000658372
0.000861376
0.00108928
0.00133831
0.00160064
0.00186655
0.00212292
0.00235428
0.00254477
0.00268011
0.00275121
0.00275799
0
0
0
2.92889e-05
9.65594e-05
0.000188726
0.000307068
0.000452756
0.000626462
0.000828043
0.00105621
0.00130768
0.00157585
0.00185172
0.00212226
0.00237133
0.00258087
0.00273141
0.00280701
0.00280808
0
0
0
0
2.67312e-05
0.000117409
0.000234402
0.000379291
0.000553606
0.000758405
0.000993729
0.00125761
0.0015449
0.00184686
0.0021495
0.00243344
0.00267423
0.00284346
0.00291995
0.00290867
0
0
0
0
0
3.83253e-06
0.000118115
0.000261871
0.0004377
0.000648247
0.000895462
0.00117945
0.00149692
0.00183992
0.00219294
0.00253117
0.00281929
0.00301519
0.00309288
0.00306384
0
0
0
0
0
0
0
9.91394e-05
0.000274667
0.000490307
0.00075072
0.00105917
0.0014154
0.00181391
0.00223815
0.00265644
0.00301633
0.00325216
0.00333077
0.00327181
0
0
0
0
0
0
0
0
5.72852e-05
0.000273373
0.000543671
0.0008762
0.00127619
0.00174316
0.00226295
0.00279744
0.00326737
0.00356355
0.00363737
0.00352068
0
0
0
0
0
0
0
0
0
0
0.000253411
0.000602082
0.00104374
0.00158543
0.00222583
0.00292778
0.0035716
0.00396222
0.00401596
0.00378121
0
0
0
0
0
0
0
0
0
0
0
0.000198445
0.000662739
0.00127133
0.00204946
0.00299558
0.00393772
0.00448376
0.00445721
0.00398107
0
0
0
0
0
0
0
0
0
0
0
0
6.12721e-05
0.000696831
0.00159314
0.00289019
0.00436391
0.00516765
0.00480299
0.00392474
0
0
0
0
0
0
0
0
0
0
0
0
0
0
0.000600266
0.00211143
0.00414977
0.00543314
0.00480948
0.0035962
0
0
0
0
0
0
0
0
0
0
0
0
0
0
0
0
0
0.0022773
0.00389943
0.00300859
0
0
0
0
0
0
0
0
0
0
0
0
0
0
0
0
0
0
0
0.000674195
0
0
0
0
0
0
0
0
0
0
0
0
0
0
0
0
0
0
0
0
0
0
0
0
0
0
0
0
0
0
0
0
0
0
0
0
0
0
0
0
0
0
0
0
0
0
0
0
0
0
0
0
0
0
0
0
0
0
0
0
0
0
0
0
0
0
0
0
0
0
0
0
0
0
0
0
0
0
0
0
0
0
0
0
0
0
0
0
0
0
0
0
0
0
0
0
0
0
0
0
0
0
0
0
0
0
0
0
0
0
0
0
0
0
0
0
0
0
0
0.0231169
0.000555272
0.00367058
0.0018886
0
0
0
0
0
0
0
0
0
0
0
0
0
0
0
0.00178677
0.111926
)
;

boundaryField
{
    movingWall
    {
        type            calculated;
        value           nonuniform List<scalar> 
20
(
0.000555272
0.00367058
0.0018886
0
0
0
0
0
0
0
0
0
0
0
0
0
0
0
0.00178677
0.111926
)
;
    }
    fixedWalls
    {
        type            calculated;
        value           nonuniform List<scalar> 
60
(
1.70748e-09
7.2043e-06
0
0
0
0
0
0
0
0
0
0
0
0
0
0
0
0
0
0.000555272
0.00275624
0.00275799
0.00280808
0.00290867
0.00306384
0.00327181
0.00352068
0.00378121
0.00398107
0.00392474
0.0035962
0.00300859
0.000674195
0
0
0
0
0
0.0231169
0.111926
1.70748e-09
0
6.05638e-06
4.37246e-05
0.000108279
0.000201366
0.000323781
0.000475757
0.000656885
0.000865672
0.00109933
0.00135384
0.00162207
0.00189168
0.00214932
0.00237833
0.00256179
0.00268684
0.00275061
0.00275624
)
;
    }
    frontAndBack
    {
        type            empty;
    }
}


// ************************************************************************* //
