/*--------------------------------*- C++ -*----------------------------------*\
| =========                 |                                                 |
| \\      /  F ield         | OpenFOAM: The Open Source CFD Toolbox           |
|  \\    /   O peration     | Version:  2312                                  |
|   \\  /    A nd           | Website:  www.openfoam.com                      |
|    \\/     M anipulation  |                                                 |
\*---------------------------------------------------------------------------*/
FoamFile
{
    version     2.0;
    format      ascii;
    arch        "LSB;label=32;scalar=64";
    class       volScalarField;
    location    "0.75";
    object      staticP;
}
// * * * * * * * * * * * * * * * * * * * * * * * * * * * * * * * * * * * * * //

dimensions      [1 -1 -2 0 0 0 0];

internalField   nonuniform List<scalar> 
400
(
1
1
1
1.00002
1.00005
1.0001
1.00016
1.00024
1.00033
1.00043
1.00055
1.00068
1.00081
1.00095
1.00107
1.00119
1.00128
1.00134
1.00138
1.00138
1
1
1.00001
1.00003
1.00006
1.00011
1.00017
1.00024
1.00033
1.00043
1.00054
1.00067
1.0008
1.00093
1.00106
1.00118
1.00127
1.00134
1.00138
1.00138
1
1
1
1.00001
1.00005
1.00009
1.00015
1.00023
1.00031
1.00041
1.00053
1.00065
1.00079
1.00093
1.00106
1.00119
1.00129
1.00137
1.0014
1.0014
1
1
1
1
1.00001
1.00006
1.00012
1.00019
1.00028
1.00038
1.0005
1.00063
1.00077
1.00092
1.00107
1.00122
1.00134
1.00142
1.00146
1.00145
1
1
1
1
1
1
1.00006
1.00013
1.00022
1.00032
1.00045
1.00059
1.00075
1.00092
1.0011
1.00127
1.00141
1.00151
1.00155
1.00153
1
1
1
1
1
1
1
1.00005
1.00014
1.00025
1.00038
1.00053
1.00071
1.00091
1.00112
1.00133
1.00151
1.00163
1.00167
1.00164
1
1
1
1
1
1
1
1
1.00003
1.00014
1.00027
1.00044
1.00064
1.00087
1.00113
1.0014
1.00163
1.00178
1.00182
1.00176
1
1
1
1
1
1
1
1
1
1
1.00013
1.0003
1.00052
1.00079
1.00111
1.00146
1.00179
1.00198
1.00201
1.00189
1
1
1
1
1
1
1
1
1
1
1
1.0001
1.00033
1.00064
1.00102
1.0015
1.00197
1.00224
1.00223
1.00199
1
1
1
1
1
1
1
1
1
1
1
1
1.00003
1.00035
1.0008
1.00145
1.00218
1.00258
1.0024
1.00196
1
1
1
1
1
1
1
1
1
1
1
1
1
1
1.0003
1.00106
1.00207
1.00272
1.0024
1.0018
1
1
1
1
1
1
1
1
1
1
1
1
1
1
1
1
1
1.00114
1.00195
1.0015
1
1
1
1
1
1
1
1
1
1
1
1
1
1
1
1
1
1
1
1.00034
1
1
1
1
1
1
1
1
1
1
1
1
1
1
1
1
1
1
1
1
1
1
1
1
1
1
1
1
1
1
1
1
1
1
1
1
1
1
1
1
1
1
1
1
1
1
1
1
1
1
1
1
1
1
1
1
1
1
1
1
1
1
1
1
1
1
1
1
1
1
1
1
1
1
1
1
1
1
1
1
1
1
1
1
1
1
1
1
1
1
1
1
1
1
1
1
1
1
1
1
1
1
1
1
1
1
1
1
1
1
1
1
1
1
1
1
1
1
1
1.01156
1.00028
1.00184
1.00094
1
1
1
1
1
1
1
1
1
1
1
1
1
1
1
1.00089
1.05596
)
;

boundaryField
{
    movingWall
    {
        type            calculated;
        value           nonuniform List<scalar> 
20
(
1.00028
1.00184
1.00094
1
1
1
1
1
1
1
1
1
1
1
1
1
1
1
1.00089
1.05596
)
;
    }
    fixedWalls
    {
        type            calculated;
        value           nonuniform List<scalar> 
60
(
1
1
1
1
1
1
1
1
1
1
1
1
1
1
1
1
1
1
1
1.00028
1.00138
1.00138
1.0014
1.00145
1.00153
1.00164
1.00176
1.00189
1.00199
1.00196
1.0018
1.0015
1.00034
1
1
1
1
1
1.01156
1.05596
1
1
1
1.00002
1.00005
1.0001
1.00016
1.00024
1.00033
1.00043
1.00055
1.00068
1.00081
1.00095
1.00107
1.00119
1.00128
1.00134
1.00138
1.00138
)
;
    }
    frontAndBack
    {
        type            empty;
    }
}


// ************************************************************************* //
