/*--------------------------------*- C++ -*----------------------------------*\
| =========                 |                                                 |
| \\      /  F ield         | OpenFOAM: The Open Source CFD Toolbox           |
|  \\    /   O peration     | Version:  2312                                  |
|   \\  /    A nd           | Website:  www.openfoam.com                      |
|    \\/     M anipulation  |                                                 |
\*---------------------------------------------------------------------------*/
FoamFile
{
    version     2.0;
    format      ascii;
    arch        "LSB;label=32;scalar=64";
    class       volVectorField;
    location    "0.75";
    object      URandom;
}
// * * * * * * * * * * * * * * * * * * * * * * * * * * * * * * * * * * * * * //

dimensions      [0 1 -1 0 0 0 0];

internalField   nonuniform List<vector> 
400
(
(0.0908104 -0.00179226 -0.0415285)
(0.0698492 -0.0369231 -0.0600658)
(0.0117426 0.0491966 -0.0863566)
(-0.0783004 0.030239 -0.0592215)
(-0.0726991 -0.0418659 0.0596178)
(-0.0943769 0.0195049 0.0426155)
(0.0330182 0.0198049 0.0895845)
(0.0718156 0.0598699 0.00969639)
(-0.0880692 0.0109899 0.060238)
(-0.0954669 0.033859 -0.0388219)
(0.00785338 -0.098211 0.000458146)
(0.0165843 -0.0681228 -0.0681063)
(-0.0661053 -0.0686149 -0.0466777)
(-0.0934258 0.0416173 0.0345147)
(0.0382681 -0.088249 0.0116875)
(-0.075444 -0.067612 -0.029771)
(0.0459731 0.0279264 -0.0807197)
(-0.0376857 -0.0678807 0.0661037)
(-0.07633 -0.0620749 0.0259411)
(-0.0621588 -0.0523137 0.0590508)
(0.0388866 -0.0622856 0.0668531)
(0.0517277 -0.0264759 0.079853)
(0.0362715 -0.0817948 0.0381731)
(0.0670188 0.0567499 -0.0438576)
(-0.0650405 0.0621945 -0.0534423)
(-0.0376381 -0.0293225 0.0899488)
(-0.0685964 0.0813872 0.00453629)
(0.0314541 0.0804271 -0.045759)
(-0.0656109 -0.0772306 -0.028332)
(-0.0694687 0.0821347 -0.0019737)
(-0.0808303 -0.0183645 0.0697597)
(0.00995425 0.0235876 -0.0946911)
(0.0185508 0.092752 -0.0194262)
(-0.0422677 0.0209764 -0.0924131)
(-0.0820194 -0.0654078 -0.0280459)
(-0.00999548 0.0970733 0.0102352)
(0.0910363 0.0172243 -0.00234655)
(-0.0132806 -0.0766554 0.0670657)
(0.00547819 -0.0685601 0.0747263)
(-0.00188307 0.0937389 -0.0299677)
(0.0241994 -0.0411892 -0.0866909)
(0.0545154 0.0734476 0.042819)
(-0.0477224 -0.0756774 -0.0423353)
(0.0254122 0.0927847 0.0332439)
(-0.0350448 -0.0288594 0.090146)
(0.0847824 -0.0326684 0.0139653)
(-0.0701975 0.0032312 -0.0789441)
(-0.067435 -0.0206542 0.0785039)
(-0.0886328 -0.0506701 0.0345514)
(0.0356961 -0.0847758 -0.0170183)
(-0.068879 0.0742676 -0.0377373)
(0.0104726 -0.0872796 0.0428702)
(0.0217194 0.0803474 -0.0471265)
(-0.078036 0.000369049 0.0751667)
(-0.0782052 -0.0269521 0.070226)
(0.0297375 0.0337003 -0.0837945)
(0.0279731 -0.0679654 -0.0686192)
(0.0353958 -0.0422246 0.0832056)
(0.063807 -0.0782288 0.00952383)
(-0.0271591 -0.0810851 0.0578014)
(-0.075181 0.0250871 0.0631794)
(-0.0631461 -0.00437741 0.0787601)
(-0.0458927 0.0894082 -0.0322011)
(-0.0496473 0.0223023 -0.0877762)
(0.0857162 0.0355321 0.0235414)
(0.0659468 -0.0379921 0.0523594)
(-0.0236164 -0.0757482 -0.0583546)
(0.00855144 -0.0237674 0.0942565)
(0.0740535 -0.0072127 0.0505854)
(0.0583629 -0.0646325 0.0222414)
(-0.0151412 0.0322117 0.0950957)
(0.0493418 -0.0336557 -0.0698711)
(0.0058696 -0.0541693 0.082468)
(0.0256542 -0.0694447 -0.0632927)
(-0.0803463 -0.0251527 -0.0704129)
(-0.0362057 0.0908402 0.00859801)
(-0.101809 -0.0392267 -0.0190843)
(0.0499017 0.0519078 -0.0571289)
(-0.0249964 -0.102337 0.0236179)
(-0.00237901 -0.104263 0.0192512)
(-0.0514611 0.044799 0.0763587)
(-0.0988055 -0.0201358 -0.00122472)
(0.0412828 0.0709533 0.0614815)
(-0.101531 -0.0135896 -0.0184048)
(-0.0869353 0.00788175 -0.0597651)
(0.0073664 -0.0878672 0.0309262)
(0.0767169 -0.0324215 -0.0331328)
(-0.0600586 0.0716395 -0.0560849)
(-0.0777336 0.0788409 0.0118332)
(0.00427425 0.062572 0.078503)
(0.0103998 0.0397871 0.089226)
(0.0731431 0.0412369 -0.0240495)
(0.00280365 0.0547597 0.0808986)
(0.0375076 0.0276391 -0.0792558)
(0.0262969 0.0634487 -0.0602214)
(-0.089251 0.0118851 0.0617809)
(0.0867079 0.00266305 -0.0186896)
(0.0123777 0.0537003 0.0741205)
(0.0543345 -0.065005 -0.0594537)
(0.0587262 0.0194449 -0.0745373)
(-0.0466889 -0.0424504 -0.074353)
(0.0262845 0.0846033 0.056789)
(-0.0917152 0.0100049 0.0477793)
(0.0645882 0.045413 -0.0606385)
(-0.0208166 0.0506411 -0.0892772)
(0.00997567 -0.0291033 -0.0912036)
(-0.0621503 0.0921407 -0.00665653)
(0.0239088 -0.00619028 0.0926114)
(0.06213 0.0546987 0.0437129)
(0.0280866 0.0153354 0.0898214)
(-0.0926723 -0.0115567 -0.0621458)
(0.0168211 0.0389228 0.0863376)
(0.0571052 -0.0599495 0.031217)
(-0.0254319 0.0957133 -0.0103555)
(-0.0780584 0.0462514 -0.0593523)
(0.00936008 -0.0402482 0.0916898)
(0.0507493 -0.0777968 0.0394386)
(0.00463203 -0.0869862 0.0664321)
(-0.00829424 -0.0775332 -0.0773226)
(0.069045 0.0363278 -0.0512589)
(0.0312865 0.0853491 -0.0542116)
(0.0907103 -0.0215135 0.0200098)
(-0.0661613 0.0557957 -0.0631754)
(0.074527 -0.0501183 0.00218348)
(0.0336963 -0.026259 0.0839113)
(-0.0579472 0.0915154 -0.028475)
(0.0780636 -0.0302538 0.0245913)
(0.0331392 0.0955792 -0.0151481)
(-0.00809411 -0.019682 0.0962014)
(0.0193883 0.0705952 0.0675587)
(0.0748877 -0.000141238 0.0384858)
(-0.064229 -0.0836012 -0.0237666)
(0.0657915 -0.0340824 -0.0387568)
(-0.0760716 0.0152802 0.0811638)
(-0.00758652 -0.0230071 0.0978469)
(0.0342172 -0.0955025 -0.000748011)
(0.0225056 -0.106496 0.0103098)
(0.0215601 0.0361694 0.0770523)
(0.0603732 -0.041979 -0.0703625)
(0.0746084 0.0251746 -0.04939)
(0.0575106 0.0559085 0.066445)
(0.0629423 -0.0498411 0.0452572)
(0.000656291 0.0674366 -0.0825285)
(0.0340392 -0.0496371 0.0685098)
(-0.0649196 -0.0540839 -0.0498725)
(0.0153861 0.0603308 -0.0831947)
(-0.0179515 -0.0799452 -0.0426004)
(0.000433913 -0.0825646 -0.0362688)
(-0.0387576 0.0084917 0.0971622)
(0.055146 -0.055897 0.0274835)
(0.023925 0.036725 0.0848555)
(-0.00820833 -0.0581311 -0.0773699)
(-0.0975988 0.0217879 0.0635143)
(-0.0465122 0.0429769 -0.0862913)
(-0.0761806 -0.0885668 -0.0292302)
(0.0539474 -0.0747908 -0.00160806)
(-0.0913047 -0.0467241 0.0659887)
(-0.0407626 0.0729608 0.00596221)
(-0.0906905 -0.0577054 0.0455266)
(-0.0675203 0.0462794 -0.0356733)
(-0.0718368 0.0780084 0.0210946)
(0.0599361 0.071093 0.0517247)
(-0.0703544 0.03177 0.0727622)
(0.06261 0.0116029 -0.0724991)
(-0.0608456 0.0491867 -0.0768473)
(0.0233518 -0.056938 0.0636301)
(0.0612386 0.00417921 -0.0676869)
(-0.0311341 -0.084243 -0.0227766)
(-0.0507552 0.000532769 -0.0932319)
(0.0524199 0.0785852 -0.0157232)
(-0.0165982 0.0742797 0.0750669)
(-0.0753624 0.0920655 0.00047712)
(-0.095613 -0.00489568 -0.0722462)
(-0.0141605 0.0841942 -0.0501178)
(0.0437269 -0.0524295 -0.046424)
(-0.0906136 0.0529236 0.044752)
(-0.00651151 -0.0984398 0.0634209)
(0.0790055 -0.0379071 0.0112557)
(-0.0525009 0.0134367 -0.0767306)
(0.0298692 0.029137 0.0786334)
(-0.0207813 0.0553276 0.0881109)
(-0.0607758 0.0956314 0.00594933)
(0.0832048 -0.0273667 -0.0224676)
(-0.0501319 -0.0528263 -0.0591777)
(-0.0344585 0.110541 0.0128667)
(0.0112072 0.0990422 0.0489324)
(0.0617497 -0.0264974 -0.0532965)
(-0.0995528 -0.0195211 0.0408321)
(0.0239009 0.0827955 -0.0591164)
(-0.086358 0.0704566 -0.0467164)
(-0.0893556 -0.0127087 -0.070585)
(0.0377431 -0.0297212 0.065573)
(0.0260485 -0.0706203 -0.0263591)
(-0.0927207 -0.0245388 0.077807)
(-0.0315946 0.0382612 0.0898704)
(-0.056112 0.0281041 -0.0890238)
(0.034372 -0.0941705 0.0158541)
(-0.126254 -0.0584787 0.0226038)
(0.0706058 -0.0991221 -0.0210883)
(0.0170541 -0.121 -0.0338405)
(0.0370568 -0.0782655 0.00429423)
(-0.0629837 0.0437211 -0.0750695)
(0.0672405 -0.0279398 0.052832)
(-0.0567423 0.0692403 -0.0691305)
(-0.0133186 -0.0156707 -0.0944764)
(0.0623844 -0.0157227 0.060026)
(0.0511782 -0.0566291 -0.0243413)
(0.0125096 -0.0369234 0.0802653)
(0.0320671 0.0972457 0.030501)
(-0.0625689 -0.0461006 0.0663228)
(-0.0926414 0.084745 -0.0213801)
(-0.0125119 -0.0645531 0.0589494)
(0.0511503 0.061709 0.014906)
(-0.098048 0.0402936 -0.0773949)
(-0.10802 0.0146902 -0.0824286)
(-0.0924074 0.0545088 -0.0681591)
(-0.0968558 -0.0200837 -0.0939453)
(0.0331051 -0.0480331 -0.0452482)
(-0.081242 -0.00717402 -0.0611532)
(0.0607351 -0.0403428 0.0810751)
(0.0763988 -0.0053008 -0.0595877)
(0.0427475 -0.0702722 0.00359207)
(-0.0657699 -0.060094 0.008103)
(-0.0104033 0.1021 -0.0555153)
(0.0209341 0.0533846 -0.088843)
(-0.0795819 0.0521834 -0.064583)
(-0.0529358 0.0781199 0.0694494)
(-0.084694 -0.0378286 0.0445608)
(-0.0566145 0.0241256 0.0917521)
(-0.0898385 0.0330065 -0.0703025)
(-0.0315669 -0.033867 0.0840433)
(0.0562084 -0.0217439 0.0298106)
(0.0145658 0.0869977 -0.0549779)
(-0.0686036 0.0799074 0.077889)
(-0.0677007 -0.0482803 -0.076343)
(-0.0271871 0.0292829 0.07497)
(-0.0743058 0.0477055 0.0456919)
(-0.0820121 0.0140806 0.0170807)
(0.0229388 -0.12656 -0.0496963)
(0.012024 -0.101239 -0.0813293)
(-0.0780431 -0.039755 0.0275923)
(0.0670311 0.055057 0.0622268)
(-0.00202607 0.111423 -0.0429611)
(-0.0736837 -0.052055 -0.0175027)
(0.0590354 0.0585228 -0.0621327)
(-0.000646344 0.115076 0.0300375)
(0.0732108 0.00977934 -0.0498543)
(-0.0728474 -0.0602035 0.0107543)
(-0.049413 -0.0251502 -0.0823729)
(-0.05218 0.0112954 -0.0936338)
(0.0429825 -0.00318492 0.0706773)
(-0.00355289 -0.0673854 0.0214179)
(0.0102738 0.0563743 0.085855)
(-0.0754447 0.119926 0.0471559)
(0.00151577 -0.0313197 -0.0224779)
(-0.0468412 0.0766218 0.0673623)
(-0.081588 -0.0266936 0.0958524)
(-0.190318 -0.0551028 0.0161895)
(0.00033219 -0.102569 -0.0172915)
(0.0098222 -0.181617 -0.0343705)
(-0.0517494 0.0757217 -0.0663022)
(-0.0512295 0.0534562 -0.082723)
(0.0667666 0.091354 -0.00780053)
(0.0596821 0.0939571 -0.0185856)
(-0.0245169 -0.0460509 -0.0715098)
(-0.0879284 0.0252002 -0.0641425)
(0.0538785 0.0241382 0.0747606)
(-0.104451 0.0302273 0.0409564)
(0.0610169 0.0764696 0.0370226)
(0.0757535 0.0553619 0.0244564)
(0.0143048 0.121873 0.0109224)
(-0.0109925 0.0435505 0.0989025)
(-0.1125 0.0873428 0.0177907)
(0.0427622 0.0478847 0.0655163)
(-0.0374948 0.15091 -0.0320773)
(0.00633423 -0.0133032 0.0526232)
(-0.0630494 0.0611253 -0.0481611)
(-0.00332589 -0.0661569 0.0446345)
(-0.0130665 -0.220743 0.06673)
(-0.109772 -0.156499 -0.0745416)
(0.0653015 -0.0504741 -0.0111575)
(-0.0569799 -0.0246486 0.0686104)
(0.0748273 0.0543911 0.0497892)
(-0.0457528 0.0923157 0.0637236)
(0.0557698 0.0895145 -0.0362495)
(0.0318629 -0.0384772 0.0662407)
(-0.0475532 -0.057 -0.049069)
(-0.0401186 0.0519504 0.0914402)
(-0.0505662 0.0762129 0.0760271)
(-0.0391674 0.110378 0.0461292)
(0.0469866 -0.0256934 0.0583342)
(-0.064477 -0.00705134 -0.0742719)
(0.0521054 0.0901328 -0.0608991)
(0.0254112 0.118936 -0.0682897)
(-0.0928679 0.119569 -0.00713378)
(0.0644348 0.0263174 0.0616343)
(0.0159797 -0.0243968 -0.0944004)
(-0.10437 -0.103606 -0.0476723)
(-0.120342 -0.132679 0.0414724)
(-0.0287804 -0.333612 -0.00847581)
(0.0291708 0.115983 0.0328597)
(0.0368647 0.100326 -0.055741)
(-0.0284248 -0.00325038 0.0928273)
(-0.0669647 0.0760163 0.0646909)
(0.083871 0.0514991 0.0207332)
(-0.0988065 0.0444171 0.0420591)
(-0.0217028 -0.076541 0.00587075)
(0.0543918 0.0427898 -0.07357)
(-0.0274642 -0.073074 -0.0201272)
(0.0636321 -0.0170897 -0.0553473)
(-0.0580432 -0.0512476 0.0314698)
(-0.0682653 -0.0380868 0.0253558)
(-0.0519816 0.0512898 0.0840728)
(0.024201 0.131602 0.0564531)
(-0.0209517 0.146876 0.00572339)
(0.0615409 0.0695073 -0.0905495)
(0.0266245 0.0682373 -0.0703378)
(0.0785793 -0.0814295 -0.0877276)
(-0.0168326 -0.121717 0.096649)
(0.0134955 -0.286278 -0.0916641)
(0.0550786 -0.0150436 -0.0687419)
(0.0821142 0.0677144 -0.0241639)
(-0.0608649 -0.0561818 -0.0110481)
(-0.0813392 0.0208504 -0.069118)
(-0.0577955 -0.0585814 -0.027076)
(-0.0559891 -0.00759564 0.0827316)
(0.015649 0.11756 0.0176644)
(0.0485703 -0.0203049 -0.0718684)
(0.0723031 0.0673105 0.0436451)
(0.0744761 -0.00306532 0.057903)
(0.0449755 -0.0486941 0.0510965)
(0.0476613 -0.0496502 -0.0461214)
(-0.00224944 0.132341 -0.00310715)
(-0.0520903 0.104794 0.000373853)
(-0.0365517 0.107322 0.0145446)
(0.10659 0.0709281 0.0701443)
(0.0448059 -0.0933731 -0.0450248)
(0.037026 -0.0951918 0.0898661)
(-0.0202144 -0.0532471 -0.0674632)
(-0.0295411 -0.37072 0.0218948)
(0.0169595 0.136922 -0.0362429)
(0.0759056 0.0195337 0.0497981)
(0.0387549 -0.031816 -0.057826)
(0.0527287 -0.0498884 -0.0102219)
(0.079927 0.0598844 -0.0408544)
(-0.0468087 -0.0367581 -0.0665135)
(-0.0344052 0.0633752 0.0847338)
(0.0820231 -0.0343001 0.0223397)
(-0.0473959 0.101159 0.0264579)
(0.0579849 0.0562506 -0.0789346)
(0.0829175 -0.00985226 -0.0650797)
(0.0678978 0.0974677 -0.0443317)
(0.0819196 -0.0587937 0.0127719)
(-0.0322969 -0.0358262 -0.0337328)
(0.0294124 0.00569609 0.0956621)
(-0.00399496 -0.0407627 -0.046893)
(-0.0185531 -0.0492274 -0.0304008)
(0.0796642 0.0133792 -0.0828654)
(0.0855541 -0.165205 0.0279268)
(-0.0673496 -0.334942 -0.0291251)
(-0.048824 -0.0474385 0.0609739)
(-0.0301759 -0.0374897 0.0842212)
(0.0322495 -0.025724 -0.0869614)
(0.0788945 0.0232165 -0.067932)
(0.0296694 -0.0398468 -0.0828431)
(0.0361296 -0.0315347 -0.08821)
(-0.0610567 -0.0293658 -0.00636465)
(0.0372358 0.0451565 -0.0944625)
(0.0163138 0.0859345 -0.0618363)
(0.114903 0.0837863 0.0252689)
(0.0331868 -0.0540998 0.0710624)
(0.0706479 0.0802774 0.073151)
(0.0606642 0.0564162 0.0890921)
(0.103219 -0.00455621 0.0964014)
(0.178227 -0.0200519 -0.0423493)
(0.170356 -0.0361267 0.0611307)
(0.0720504 0.0715185 0.0615907)
(0.186558 -0.0761571 0.0476604)
(-0.0545434 -0.0401934 0.0468934)
(0.105043 -0.170608 -0.0738433)
(0.0822792 0.144514 0.0746004)
(-0.000422102 0.0121606 -0.0514017)
(0.0232934 0.0222867 -0.0725404)
(0.175016 0.00172435 -0.0712521)
(0.112089 -0.0417973 0.0759319)
(0.216811 0.0815756 0.00630887)
(0.102073 -0.0502568 -0.0572481)
(0.140192 0.073934 -0.0745208)
(0.0950872 0.035541 0.0545303)
(0.0972146 -0.028584 0.0298635)
(0.163846 -0.0721616 -0.0513068)
(0.241741 0.0838268 0.0519923)
(0.178188 -0.0551188 -0.0704514)
(0.167119 -0.0187316 0.0794284)
(0.270839 0.00927197 -0.0916547)
(0.266801 0.080644 -0.0587342)
(0.187092 0.0526998 -0.0706607)
(0.354837 0.020884 -0.000365736)
(0.198622 -0.0284474 0.0680984)
(0.318267 -0.176308 -0.0096982)
)
;

boundaryField
{
    movingWall
    {
        type            fixedValue;
        value           uniform (1 0 0);
    }
    fixedWalls
    {
        type            noSlip;
    }
    frontAndBack
    {
        type            empty;
    }
}


// ************************************************************************* //
