/*--------------------------------*- C++ -*----------------------------------*\
| =========                 |                                                 |
| \\      /  F ield         | OpenFOAM: The Open Source CFD Toolbox           |
|  \\    /   O peration     | Version:  2312                                  |
|   \\  /    A nd           | Website:  www.openfoam.com                      |
|    \\/     M anipulation  |                                                 |
\*---------------------------------------------------------------------------*/
FoamFile
{
    version     2.0;
    format      ascii;
    arch        "LSB;label=32;scalar=64";
    class       volScalarField;
    location    "0.75";
    object      Ux;
}
// * * * * * * * * * * * * * * * * * * * * * * * * * * * * * * * * * * * * * //

dimensions      [0 1 -1 0 0 0 0];

internalField   nonuniform List<scalar> 
400
(
-0.000138193
-0.000811031
-0.00200835
-0.00331732
-0.00463695
-0.0058955
-0.00705297
-0.00808075
-0.00895059
-0.00963467
-0.0100736
-0.0102359
-0.0100686
-0.0095129
-0.00854662
-0.00717371
-0.0054577
-0.00354656
-0.00165665
-0.000388004
-0.00047605
-0.00154096
-0.00287551
-0.00428365
-0.00569584
-0.00706031
-0.0083338
-0.00947596
-0.0104473
-0.0112063
-0.0117041
-0.0118925
-0.0117174
-0.0111359
-0.0101266
-0.00869839
-0.00690533
-0.00486607
-0.00274671
-0.000869849
-0.000694645
-0.0019466
-0.00332056
-0.00473554
-0.00614553
-0.00751746
-0.00881576
-0.0100006
-0.01103
-0.0118589
-0.0124371
-0.01271
-0.0126216
-0.0121214
-0.011174
-0.0097715
-0.00794523
-0.00579347
-0.00346535
-0.00119591
-0.000782834
-0.00214476
-0.00357987
-0.00503458
-0.00647377
-0.00787772
-0.00922205
-0.0104737
-0.0115941
-0.0125386
-0.0132547
-0.0136809
-0.0137489
-0.0133865
-0.0125257
-0.0111199
-0.009167
-0.00675994
-0.00407201
-0.00140516
-0.000810977
-0.00224483
-0.0037529
-0.00527465
-0.00677706
-0.00824767
-0.00967278
-0.0110291
-0.0122853
-0.013401
-0.0143236
-0.0149833
-0.0152928
-0.0151443
-0.0144157
-0.0129945
-0.0108246
-0.00800368
-0.00476748
-0.00160105
-0.00082089
-0.00231016
-0.00389616
-0.00550033
-0.00708896
-0.0086532
-0.0101894
-0.0116862
-0.0131236
-0.0144708
-0.0156793
-0.0166733
-0.0173449
-0.0175376
-0.0170469
-0.015648
-0.013179
-0.00973865
-0.00567075
-0.00182174
-0.000829863
-0.00237142
-0.0040388
-0.00573343
-0.00742064
-0.00909437
-0.0107615
-0.0124255
-0.0140837
-0.0157225
-0.0173067
-0.0187642
-0.0199704
-0.0207132
-0.0206683
-0.0194123
-0.0165649
-0.0121831
-0.00680469
-0.00201673
-0.000844734
-0.00244292
-0.00419495
-0.00598257
-0.00777062
-0.00955629
-0.0113589
-0.013201
-0.0151049
-0.0170866
-0.0191421
-0.0212227
-0.0231961
-0.0248121
-0.0255941
-0.0247553
-0.0214408
-0.0155241
-0.00791435
-0.00192058
-0.000868687
-0.00253257
-0.00437256
-0.00625041
-0.0081304
-0.0100141
-0.0119354
-0.0139414
-0.0160886
-0.0184383
-0.0210434
-0.0239149
-0.0269668
-0.0299526
-0.0322383
-0.0324501
-0.0286836
-0.0201712
-0.00833455
-0.000709019
-0.000904709
-0.00264841
-0.00458024
-0.00653978
-0.00849003
-0.0104377
-0.0124335
-0.0145527
-0.016895
-0.0195853
-0.0227686
-0.0265775
-0.0310626
-0.0361098
-0.0411663
-0.0441695
-0.0413452
-0.0299555
-0.0109078
0.00238725
-0.000958672
-0.00280472
-0.0048334
-0.00685949
-0.00884346
-0.0107976
-0.0127899
-0.0149244
-0.0173464
-0.0202558
-0.0239232
-0.0286764
-0.0348423
-0.0428383
-0.0528603
-0.0627347
-0.0663969
-0.0551639
-0.028017
0.00278882
-0.00104308
-0.00302689
-0.00515906
-0.00722808
-0.0091922
-0.0110703
-0.0129456
-0.0149436
-0.0172444
-0.0201124
-0.0239465
-0.0293105
-0.0368889
-0.048075
-0.0653084
-0.0864102
-0.0990392
-0.0908039
-0.0595661
-0.0121781
-0.00118248
-0.00336003
-0.00559822
-0.00767237
-0.00954331
-0.01124
-0.0128552
-0.0145195
-0.0164161
-0.0188215
-0.0221849
-0.0271822
-0.0345794
-0.0464172
-0.0670838
-0.0926845
-0.1084
-0.106982
-0.0853618
-0.0355693
-0.00141231
-0.00384924
-0.00619223
-0.00821153
-0.00989355
-0.0112856
-0.0124863
-0.01361
-0.0147936
-0.0162356
-0.018263
-0.02136
-0.0259025
-0.032726
-0.0458064
-0.0635921
-0.0749854
-0.079838
-0.0815612
-0.0452143
-0.00182446
-0.0046083
-0.00697776
-0.00882764
-0.0101869
-0.0111412
-0.0117893
-0.0122163
-0.012463
-0.0125782
-0.012631
-0.0126858
-0.012566
-0.0115537
-0.0107447
-0.0115327
-0.0116267
-0.0180031
-0.0468026
-0.0371496
-0.00228892
-0.00548687
-0.00782733
-0.00933805
-0.0101762
-0.0105565
-0.0105717
-0.0102433
-0.00949715
-0.00823624
-0.00627023
-0.00329064
0.00121007
0.00851446
0.0191559
0.0294007
0.0349694
0.0336465
-0.0038212
-0.0215468
-0.0036746
-0.00731569
-0.00876759
-0.00928734
-0.00931522
-0.00893568
-0.00815003
-0.00695332
-0.00526053
-0.00286059
0.000614081
0.00573068
0.0130237
0.0232628
0.0364787
0.0496524
0.0546779
0.0540171
0.0230189
-0.00846206
-0.00490559
-0.00782221
-0.00748505
-0.00637423
-0.00506523
-0.00333084
-0.00109799
0.00156401
0.00470483
0.008518
0.0133128
0.0195603
0.0277573
0.0382972
0.0504509
0.0627941
0.0648619
0.0706639
0.0291386
0.00724668
-0.00610551
-0.00785256
-0.000962804
0.00617903
0.0142506
0.0220401
0.02941
0.0364118
0.0432211
0.0500558
0.0571788
0.0649002
0.0735317
0.0834494
0.0936893
0.104729
0.103441
0.117087
0.0335479
0.0740028
0.0408032
0.0632331
0.0886931
0.110465
0.127032
0.140736
0.153062
0.164422
0.174991
0.184954
0.19452
0.203888
0.213177
0.222586
0.231035
0.240206
0.236879
0.257727
0.132384
0.381129
)
;

boundaryField
{
    movingWall
    {
        type            calculated;
        value           uniform 1;
    }
    fixedWalls
    {
        type            calculated;
        value           uniform 0;
    }
    frontAndBack
    {
        type            empty;
    }
}


// ************************************************************************* //
