/*--------------------------------*- C++ -*----------------------------------*\
| =========                 |                                                 |
| \\      /  F ield         | OpenFOAM: The Open Source CFD Toolbox           |
|  \\    /   O peration     | Version:  2312                                  |
|   \\  /    A nd           | Website:  www.openfoam.com                      |
|    \\/     M anipulation  |                                                 |
\*---------------------------------------------------------------------------*/
FoamFile
{
    version     2.0;
    format      ascii;
    arch        "LSB;label=32;scalar=64";
    class       volScalarField;
    location    "0.75";
    object      Uy;
}
// * * * * * * * * * * * * * * * * * * * * * * * * * * * * * * * * * * * * * //

dimensions      [0 1 -1 0 0 0 0];

internalField   nonuniform List<scalar> 
400
(
0.00013998
0.000483057
0.000684354
0.000737365
0.00071645
0.000664616
0.000597658
0.000518756
0.00042451
0.000307663
0.00016792
1.10232e-05
-0.000196466
-0.000422692
-0.000660237
-0.00088226
-0.00104252
-0.00106143
-0.000829939
-0.000377453
0.00081149
0.00155872
0.00193291
0.00204631
0.00201031
0.00188968
0.00171388
0.00149146
0.00121861
0.000884527
0.00048092
1.12351e-06
-0.000556434
-0.00117363
-0.00180866
-0.0023931
-0.00282417
-0.00295746
-0.00261817
-0.00165983
0.00199615
0.00288852
0.0032922
0.00342052
0.00336688
0.00318829
0.00291311
0.00254986
0.00209354
0.0015312
0.000849527
3.99783e-05
-0.000891698
-0.00191654
-0.00297028
-0.00394968
-0.00470973
-0.00507255
-0.00485492
-0.00372292
0.0033322
0.00432192
0.0047164
0.00483699
0.00476173
0.0045336
0.00417388
0.00368713
0.00306436
0.00228763
0.00133702
0.000199312
-0.00112082
-0.0025877
-0.00411953
-0.00557956
-0.00677347
-0.00747013
-0.00744559
-0.00613799
0.00475012
0.0058362
0.00620908
0.00630907
0.00620927
0.00593987
0.00551314
0.00492679
0.00416502
0.00320148
0.00200512
0.000550703
-0.00116829
-0.00312298
-0.00522344
-0.00730038
-0.00908927
-0.0102588
-0.0104871
-0.00892454
0.00620919
0.0074194
0.0077777
0.00785541
0.00773266
0.00743259
0.00695998
0.00630514
0.00544341
0.0043358
0.00293353
0.00118773
-0.000935304
-0.00343526
-0.00623575
-0.00914214
-0.0117834
-0.0136359
-0.0141744
-0.0121533
0.0076983
0.00907083
0.00943111
0.00949299
0.00935403
0.00903765
0.00854522
0.00786148
0.00695264
0.0057642
0.00422144
0.00223638
-0.000276992
-0.00337159
-0.00704328
-0.0111028
-0.0150234
-0.0179078
-0.0188219
-0.0159255
0.00922103
0.0107935
0.0111737
0.0112289
0.011083
0.0107674
0.0102864
0.00962355
0.00873894
0.00756242
0.00598802
0.00387316
0.00104729
-0.002662
-0.00740896
-0.0131199
-0.0190738
-0.0236181
-0.0249117
-0.0202345
0.0107883
0.0125932
0.0130068
0.0130614
0.0129155
0.0126172
0.0121814
0.0115987
0.0108303
0.00979643
0.00836162
0.00631636
0.00336249
-0.000887024
-0.00688722
-0.0150048
-0.0243709
-0.0318011
-0.0330579
-0.0245449
0.0124162
0.0144784
0.0149297
0.0149802
0.0148325
0.0145608
0.0142008
0.0137614
0.0132186
0.0124999
0.0114561
0.00981425
0.00711979
0.00268757
-0.00453721
-0.0158521
-0.0308022
-0.0437967
-0.0451701
-0.0280497
0.0141271
0.0164618
0.0169393
0.0169653
0.0167974
0.016546
0.0162789
0.0160374
0.0158332
0.0156317
0.0153137
0.0145902
0.0128922
0.0092789
0.00192687
-0.0123782
-0.0357853
-0.0607293
-0.0657179
-0.032033
0.0159609
0.0185636
0.0190304
0.0189853
0.0187532
0.0184907
0.0183071
0.0182894
0.0185088
0.0190125
0.0197861
0.0206572
0.0211961
0.0206463
0.0162645
-0.000248764
-0.0377375
-0.0840568
-0.0996677
-0.0483254
0.0179607
0.0208092
0.0211924
0.0209941
0.0206218
0.0202835
0.020133
0.0203086
0.0209574
0.0222463
0.0243455
0.0273929
0.0315325
0.0366573
0.0378817
0.0186501
-0.0363602
-0.107952
-0.151124
-0.0994082
0.0203124
0.0232567
0.0234117
0.0229287
0.0223048
0.0217911
0.0215755
0.0218356
0.0227845
0.0247042
0.0279583
0.0330235
0.0406048
0.0509102
0.0565595
0.0350818
-0.0256966
-0.112564
-0.191492
-0.173108
0.0228036
0.0258472
0.0255992
0.0246708
0.0236686
0.0228646
0.0224556
0.0226223
0.0236009
0.0257309
0.0294689
0.035391
0.0442099
0.0559272
0.0629571
0.0470576
-0.00632884
-0.0872339
-0.186269
-0.234324
0.0269297
0.0289171
0.0277148
0.0260737
0.0245684
0.0233703
0.022664
0.0225476
0.0232176
0.0250009
0.0283087
0.0335747
0.0411695
0.0505653
0.0554501
0.041798
-0.00235279
-0.0645502
-0.143846
-0.26705
0.0276485
0.0300527
0.0284575
0.0264396
0.0245844
0.0230876
0.0220529
0.0215526
0.0217145
0.0227471
0.0249348
0.028546
0.0335626
0.0390542
0.0405763
0.0280577
-0.0046301
-0.054752
-0.113077
-0.275451
0.0463219
0.0421125
0.0354002
0.0301264
0.0266092
0.0239513
0.0220133
0.0207206
0.0200078
0.0198865
0.0204761
0.0219813
0.0242925
0.0264519
0.0258491
0.0170323
-0.0032087
-0.0418686
-0.0875042
-0.275049
0.0193246
0.0115863
0.0108089
0.0133318
0.0139982
0.0134151
0.0127681
0.0123516
0.012095
0.0119789
0.0120404
0.012337
0.0128615
0.0132184
0.0125035
0.00810034
-0.000739605
-0.0222849
-0.0465908
-0.230472
0.0924126
0.0696575
0.043752
0.0292276
0.0215355
0.0169788
0.0139514
0.0118089
0.0102063
0.00896578
0.00800557
0.00725027
0.00662573
0.00605752
0.00538809
0.00420455
0.00241758
-0.00298158
0.00277929
-0.0991441
)
;

boundaryField
{
    movingWall
    {
        type            calculated;
        value           uniform 0;
    }
    fixedWalls
    {
        type            calculated;
        value           uniform 0;
    }
    frontAndBack
    {
        type            empty;
    }
}


// ************************************************************************* //
