/*--------------------------------*- C++ -*----------------------------------*\
| =========                 |                                                 |
| \\      /  F ield         | OpenFOAM: The Open Source CFD Toolbox           |
|  \\    /   O peration     | Version:  2312                                  |
|   \\  /    A nd           | Website:  www.openfoam.com                      |
|    \\/     M anipulation  |                                                 |
\*---------------------------------------------------------------------------*/
FoamFile
{
    version     2.0;
    format      ascii;
    arch        "LSB;label=32;scalar=64";
    class       volVectorField;
    location    "0.75";
    object      UzeroGrad;
}
// * * * * * * * * * * * * * * * * * * * * * * * * * * * * * * * * * * * * * //

dimensions      [0 1 -1 0 0 0 0];

internalField   nonuniform List<vector> 
400
(
(-0.000138193 0.00013998 0)
(-0.000811031 0.000483057 0)
(-0.00200835 0.000684354 0)
(-0.00331732 0.000737365 0)
(-0.00463695 0.00071645 0)
(-0.0058955 0.000664616 0)
(-0.00705297 0.000597658 0)
(-0.00808075 0.000518756 0)
(-0.00895059 0.00042451 0)
(-0.00963467 0.000307663 0)
(-0.0100736 0.00016792 0)
(-0.0102359 1.10232e-05 0)
(-0.0100686 -0.000196466 0)
(-0.0095129 -0.000422692 0)
(-0.00854662 -0.000660237 0)
(-0.00717371 -0.00088226 0)
(-0.0054577 -0.00104252 0)
(-0.00354656 -0.00106143 0)
(-0.00165665 -0.000829939 0)
(-0.000388004 -0.000377453 0)
(-0.00047605 0.00081149 0)
(-0.00154096 0.00155872 0)
(-0.00287551 0.00193291 0)
(-0.00428365 0.00204631 0)
(-0.00569584 0.00201031 0)
(-0.00706031 0.00188968 0)
(-0.0083338 0.00171388 0)
(-0.00947596 0.00149146 0)
(-0.0104473 0.00121861 0)
(-0.0112063 0.000884527 0)
(-0.0117041 0.00048092 0)
(-0.0118925 1.12351e-06 0)
(-0.0117174 -0.000556434 0)
(-0.0111359 -0.00117363 0)
(-0.0101266 -0.00180866 0)
(-0.00869839 -0.0023931 0)
(-0.00690533 -0.00282417 0)
(-0.00486607 -0.00295746 0)
(-0.00274671 -0.00261817 0)
(-0.000869849 -0.00165983 0)
(-0.000694645 0.00199615 0)
(-0.0019466 0.00288852 0)
(-0.00332056 0.0032922 0)
(-0.00473554 0.00342052 0)
(-0.00614553 0.00336688 0)
(-0.00751746 0.00318829 0)
(-0.00881576 0.00291311 0)
(-0.0100006 0.00254986 0)
(-0.01103 0.00209354 0)
(-0.0118589 0.0015312 0)
(-0.0124371 0.000849527 0)
(-0.01271 3.99783e-05 0)
(-0.0126216 -0.000891698 0)
(-0.0121214 -0.00191654 0)
(-0.011174 -0.00297028 0)
(-0.0097715 -0.00394968 0)
(-0.00794523 -0.00470973 0)
(-0.00579347 -0.00507255 0)
(-0.00346535 -0.00485492 0)
(-0.00119591 -0.00372292 0)
(-0.000782834 0.0033322 0)
(-0.00214476 0.00432192 0)
(-0.00357987 0.0047164 0)
(-0.00503458 0.00483699 0)
(-0.00647377 0.00476173 0)
(-0.00787772 0.0045336 0)
(-0.00922205 0.00417388 0)
(-0.0104737 0.00368713 0)
(-0.0115941 0.00306436 0)
(-0.0125386 0.00228763 0)
(-0.0132547 0.00133702 0)
(-0.0136809 0.000199312 0)
(-0.0137489 -0.00112082 0)
(-0.0133865 -0.0025877 0)
(-0.0125257 -0.00411953 0)
(-0.0111199 -0.00557956 0)
(-0.009167 -0.00677347 0)
(-0.00675994 -0.00747013 0)
(-0.00407201 -0.00744559 0)
(-0.00140516 -0.00613799 0)
(-0.000810977 0.00475012 0)
(-0.00224483 0.0058362 0)
(-0.0037529 0.00620908 0)
(-0.00527465 0.00630907 0)
(-0.00677706 0.00620927 0)
(-0.00824767 0.00593987 0)
(-0.00967278 0.00551314 0)
(-0.0110291 0.00492679 0)
(-0.0122853 0.00416502 0)
(-0.013401 0.00320148 0)
(-0.0143236 0.00200512 0)
(-0.0149833 0.000550703 0)
(-0.0152928 -0.00116829 0)
(-0.0151443 -0.00312298 0)
(-0.0144157 -0.00522344 0)
(-0.0129945 -0.00730038 0)
(-0.0108246 -0.00908927 0)
(-0.00800368 -0.0102588 0)
(-0.00476748 -0.0104871 0)
(-0.00160105 -0.00892454 0)
(-0.00082089 0.00620919 0)
(-0.00231016 0.0074194 0)
(-0.00389616 0.0077777 0)
(-0.00550033 0.00785541 0)
(-0.00708896 0.00773266 0)
(-0.0086532 0.00743259 0)
(-0.0101894 0.00695998 0)
(-0.0116862 0.00630514 0)
(-0.0131236 0.00544341 0)
(-0.0144708 0.0043358 0)
(-0.0156793 0.00293353 0)
(-0.0166733 0.00118773 0)
(-0.0173449 -0.000935304 0)
(-0.0175376 -0.00343526 0)
(-0.0170469 -0.00623575 0)
(-0.015648 -0.00914214 0)
(-0.013179 -0.0117834 0)
(-0.00973865 -0.0136359 0)
(-0.00567075 -0.0141744 0)
(-0.00182174 -0.0121533 0)
(-0.000829863 0.0076983 0)
(-0.00237142 0.00907083 0)
(-0.0040388 0.00943111 0)
(-0.00573343 0.00949299 0)
(-0.00742064 0.00935403 0)
(-0.00909437 0.00903765 0)
(-0.0107615 0.00854522 0)
(-0.0124255 0.00786148 0)
(-0.0140837 0.00695264 0)
(-0.0157225 0.0057642 0)
(-0.0173067 0.00422144 0)
(-0.0187642 0.00223638 0)
(-0.0199704 -0.000276992 0)
(-0.0207132 -0.00337159 0)
(-0.0206683 -0.00704328 0)
(-0.0194123 -0.0111028 0)
(-0.0165649 -0.0150234 0)
(-0.0121831 -0.0179078 0)
(-0.00680469 -0.0188219 0)
(-0.00201673 -0.0159255 0)
(-0.000844734 0.00922103 0)
(-0.00244292 0.0107935 0)
(-0.00419495 0.0111737 0)
(-0.00598257 0.0112289 0)
(-0.00777062 0.011083 0)
(-0.00955629 0.0107674 0)
(-0.0113589 0.0102864 0)
(-0.013201 0.00962355 0)
(-0.0151049 0.00873894 0)
(-0.0170866 0.00756242 0)
(-0.0191421 0.00598802 0)
(-0.0212227 0.00387316 0)
(-0.0231961 0.00104729 0)
(-0.0248121 -0.002662 0)
(-0.0255941 -0.00740896 0)
(-0.0247553 -0.0131199 0)
(-0.0214408 -0.0190738 0)
(-0.0155241 -0.0236181 0)
(-0.00791435 -0.0249117 0)
(-0.00192058 -0.0202345 0)
(-0.000868687 0.0107883 0)
(-0.00253257 0.0125932 0)
(-0.00437256 0.0130068 0)
(-0.00625041 0.0130614 0)
(-0.0081304 0.0129155 0)
(-0.0100141 0.0126172 0)
(-0.0119354 0.0121814 0)
(-0.0139414 0.0115987 0)
(-0.0160886 0.0108303 0)
(-0.0184383 0.00979643 0)
(-0.0210434 0.00836162 0)
(-0.0239149 0.00631636 0)
(-0.0269668 0.00336249 0)
(-0.0299526 -0.000887024 0)
(-0.0322383 -0.00688722 0)
(-0.0324501 -0.0150048 0)
(-0.0286836 -0.0243709 0)
(-0.0201712 -0.0318011 0)
(-0.00833455 -0.0330579 0)
(-0.000709019 -0.0245449 0)
(-0.000904709 0.0124162 0)
(-0.00264841 0.0144784 0)
(-0.00458024 0.0149297 0)
(-0.00653978 0.0149802 0)
(-0.00849003 0.0148325 0)
(-0.0104377 0.0145608 0)
(-0.0124335 0.0142008 0)
(-0.0145527 0.0137614 0)
(-0.016895 0.0132186 0)
(-0.0195853 0.0124999 0)
(-0.0227686 0.0114561 0)
(-0.0265775 0.00981425 0)
(-0.0310626 0.00711979 0)
(-0.0361098 0.00268757 0)
(-0.0411663 -0.00453721 0)
(-0.0441695 -0.0158521 0)
(-0.0413452 -0.0308022 0)
(-0.0299555 -0.0437967 0)
(-0.0109078 -0.0451701 0)
(0.00238725 -0.0280497 0)
(-0.000958672 0.0141271 0)
(-0.00280472 0.0164618 0)
(-0.0048334 0.0169393 0)
(-0.00685949 0.0169653 0)
(-0.00884346 0.0167974 0)
(-0.0107976 0.016546 0)
(-0.0127899 0.0162789 0)
(-0.0149244 0.0160374 0)
(-0.0173464 0.0158332 0)
(-0.0202558 0.0156317 0)
(-0.0239232 0.0153137 0)
(-0.0286764 0.0145902 0)
(-0.0348423 0.0128922 0)
(-0.0428383 0.0092789 0)
(-0.0528603 0.00192687 0)
(-0.0627347 -0.0123782 0)
(-0.0663969 -0.0357853 0)
(-0.0551639 -0.0607293 0)
(-0.028017 -0.0657179 0)
(0.00278882 -0.032033 0)
(-0.00104308 0.0159609 0)
(-0.00302689 0.0185636 0)
(-0.00515906 0.0190304 0)
(-0.00722808 0.0189853 0)
(-0.0091922 0.0187532 0)
(-0.0110703 0.0184907 0)
(-0.0129456 0.0183071 0)
(-0.0149436 0.0182894 0)
(-0.0172444 0.0185088 0)
(-0.0201124 0.0190125 0)
(-0.0239465 0.0197861 0)
(-0.0293105 0.0206572 0)
(-0.0368889 0.0211961 0)
(-0.048075 0.0206463 0)
(-0.0653084 0.0162645 0)
(-0.0864102 -0.000248764 0)
(-0.0990392 -0.0377375 0)
(-0.0908039 -0.0840568 0)
(-0.0595661 -0.0996677 0)
(-0.0121781 -0.0483254 0)
(-0.00118248 0.0179607 0)
(-0.00336003 0.0208092 0)
(-0.00559822 0.0211924 0)
(-0.00767237 0.0209941 0)
(-0.00954331 0.0206218 0)
(-0.01124 0.0202835 0)
(-0.0128552 0.020133 0)
(-0.0145195 0.0203086 0)
(-0.0164161 0.0209574 0)
(-0.0188215 0.0222463 0)
(-0.0221849 0.0243455 0)
(-0.0271822 0.0273929 0)
(-0.0345794 0.0315325 0)
(-0.0464172 0.0366573 0)
(-0.0670838 0.0378817 0)
(-0.0926845 0.0186501 0)
(-0.1084 -0.0363602 0)
(-0.106982 -0.107952 0)
(-0.0853618 -0.151124 0)
(-0.0355693 -0.0994082 0)
(-0.00141231 0.0203124 0)
(-0.00384924 0.0232567 0)
(-0.00619223 0.0234117 0)
(-0.00821153 0.0229287 0)
(-0.00989355 0.0223048 0)
(-0.0112856 0.0217911 0)
(-0.0124863 0.0215755 0)
(-0.01361 0.0218356 0)
(-0.0147936 0.0227845 0)
(-0.0162356 0.0247042 0)
(-0.018263 0.0279583 0)
(-0.02136 0.0330235 0)
(-0.0259025 0.0406048 0)
(-0.032726 0.0509102 0)
(-0.0458064 0.0565595 0)
(-0.0635921 0.0350818 0)
(-0.0749854 -0.0256966 0)
(-0.079838 -0.112564 0)
(-0.0815612 -0.191492 0)
(-0.0452143 -0.173108 0)
(-0.00182446 0.0228036 0)
(-0.0046083 0.0258472 0)
(-0.00697776 0.0255992 0)
(-0.00882764 0.0246708 0)
(-0.0101869 0.0236686 0)
(-0.0111412 0.0228646 0)
(-0.0117893 0.0224556 0)
(-0.0122163 0.0226223 0)
(-0.012463 0.0236009 0)
(-0.0125782 0.0257309 0)
(-0.012631 0.0294689 0)
(-0.0126858 0.035391 0)
(-0.012566 0.0442099 0)
(-0.0115537 0.0559272 0)
(-0.0107447 0.0629571 0)
(-0.0115327 0.0470576 0)
(-0.0116267 -0.00632884 0)
(-0.0180031 -0.0872339 0)
(-0.0468026 -0.186269 0)
(-0.0371496 -0.234324 0)
(-0.00228892 0.0269297 0)
(-0.00548687 0.0289171 0)
(-0.00782733 0.0277148 0)
(-0.00933805 0.0260737 0)
(-0.0101762 0.0245684 0)
(-0.0105565 0.0233703 0)
(-0.0105717 0.022664 0)
(-0.0102433 0.0225476 0)
(-0.00949715 0.0232176 0)
(-0.00823624 0.0250009 0)
(-0.00627023 0.0283087 0)
(-0.00329064 0.0335747 0)
(0.00121007 0.0411695 0)
(0.00851446 0.0505653 0)
(0.0191559 0.0554501 0)
(0.0294007 0.041798 0)
(0.0349694 -0.00235279 0)
(0.0336465 -0.0645502 0)
(-0.0038212 -0.143846 0)
(-0.0215468 -0.26705 0)
(-0.0036746 0.0276485 0)
(-0.00731569 0.0300527 0)
(-0.00876759 0.0284575 0)
(-0.00928734 0.0264396 0)
(-0.00931522 0.0245844 0)
(-0.00893568 0.0230876 0)
(-0.00815003 0.0220529 0)
(-0.00695332 0.0215526 0)
(-0.00526053 0.0217145 0)
(-0.00286059 0.0227471 0)
(0.000614081 0.0249348 0)
(0.00573068 0.028546 0)
(0.0130237 0.0335626 0)
(0.0232628 0.0390542 0)
(0.0364787 0.0405763 0)
(0.0496524 0.0280577 0)
(0.0546779 -0.0046301 0)
(0.0540171 -0.054752 0)
(0.0230189 -0.113077 0)
(-0.00846206 -0.275451 0)
(-0.00490559 0.0463219 0)
(-0.00782221 0.0421125 0)
(-0.00748505 0.0354002 0)
(-0.00637423 0.0301264 0)
(-0.00506523 0.0266092 0)
(-0.00333084 0.0239513 0)
(-0.00109799 0.0220133 0)
(0.00156401 0.0207206 0)
(0.00470483 0.0200078 0)
(0.008518 0.0198865 0)
(0.0133128 0.0204761 0)
(0.0195603 0.0219813 0)
(0.0277573 0.0242925 0)
(0.0382972 0.0264519 0)
(0.0504509 0.0258491 0)
(0.0627941 0.0170323 0)
(0.0648619 -0.0032087 0)
(0.0706639 -0.0418686 0)
(0.0291386 -0.0875042 0)
(0.00724668 -0.275049 0)
(-0.00610551 0.0193246 0)
(-0.00785256 0.0115863 0)
(-0.000962804 0.0108089 0)
(0.00617903 0.0133318 0)
(0.0142506 0.0139982 0)
(0.0220401 0.0134151 0)
(0.02941 0.0127681 0)
(0.0364118 0.0123516 0)
(0.0432211 0.012095 0)
(0.0500558 0.0119789 0)
(0.0571788 0.0120404 0)
(0.0649002 0.012337 0)
(0.0735317 0.0128615 0)
(0.0834494 0.0132184 0)
(0.0936893 0.0125035 0)
(0.104729 0.00810034 0)
(0.103441 -0.000739605 0)
(0.117087 -0.0222849 0)
(0.0335479 -0.0465908 0)
(0.0740028 -0.230472 0)
(0.0408032 0.0924126 0)
(0.0632331 0.0696575 0)
(0.0886931 0.043752 0)
(0.110465 0.0292276 0)
(0.127032 0.0215355 0)
(0.140736 0.0169788 0)
(0.153062 0.0139514 0)
(0.164422 0.0118089 0)
(0.174991 0.0102063 0)
(0.184954 0.00896578 0)
(0.19452 0.00800557 0)
(0.203888 0.00725027 0)
(0.213177 0.00662573 0)
(0.222586 0.00605752 0)
(0.231035 0.00538809 0)
(0.240206 0.00420455 0)
(0.236879 0.00241758 0)
(0.257727 -0.00298158 0)
(0.132384 0.00277929 0)
(0.381129 -0.0991441 0)
)
;

boundaryField
{
    movingWall
    {
        type            zeroGradient;
    }
    fixedWalls
    {
        type            zeroGradient;
    }
    frontAndBack
    {
        type            empty;
    }
}


// ************************************************************************* //
