/*--------------------------------*- C++ -*----------------------------------*\
| =========                 |                                                 |
| \\      /  F ield         | OpenFOAM: The Open Source CFD Toolbox           |
|  \\    /   O peration     | Version:  2312                                  |
|   \\  /    A nd           | Website:  www.openfoam.com                      |
|    \\/     M anipulation  |                                                 |
\*---------------------------------------------------------------------------*/
FoamFile
{
    version     2.0;
    format      ascii;
    arch        "LSB;label=32;scalar=64";
    class       volVectorField;
    location    "0.75";
    object      vorticityField;
}
// * * * * * * * * * * * * * * * * * * * * * * * * * * * * * * * * * * * * * //

dimensions      [0 0 -1 0 0 0 0];

internalField   nonuniform List<vector> 
400
(
(0 -0 0.123728)
(0 -0 0.289636)
(0 -0 0.513816)
(0 -0 0.763306)
(0 -0 1.026)
(0 -0 1.2837)
(0 -0 1.52409)
(0 -0 1.73836)
(0 -0 1.91868)
(0 -0 2.05843)
(0 -0 2.14811)
(0 -0 2.1764)
(0 -0 2.13524)
(0 -0 2.01851)
(0 -0 1.82137)
(0 -0 1.54898)
(0 -0 1.21839)
(0 -0 0.862521)
(0 -0 0.508733)
(0 -0 0.246525)
(0 -0 0.292666)
(0 -0 0.225699)
(0 -0 0.17998)
(0 -0 0.149563)
(0 -0 0.135197)
(0 -0 0.132554)
(0 -0 0.136456)
(0 -0 0.142455)
(0 -0 0.147245)
(0 -0 0.148657)
(0 -0 0.148008)
(0 -0 0.143673)
(0 -0 0.137818)
(0 -0 0.135623)
(0 -0 0.140791)
(0 -0 0.158228)
(0 -0 0.192318)
(0 -0 0.245291)
(0 -0 0.310633)
(0 -0 0.50859)
(0 -0 0.519146)
(0 -0 0.189985)
(0 -0 0.123636)
(0 -0 0.082562)
(0 -0 0.0545701)
(0 -0 0.0363634)
(0 -0 0.0249816)
(0 -0 0.0178204)
(0 -0 0.0128141)
(0 -0 0.00882787)
(0 -0 0.00594168)
(0 -0 0.00471748)
(0 -0 0.00748986)
(0 -0 0.0171997)
(0 -0 0.0365993)
(0 -0 0.0682113)
(0 -0 0.11388)
(0 -0 0.174868)
(0 -0 0.267494)
(0 -0 0.911315)
(0 -0 0.777046)
(0 -0 0.168243)
(0 -0 0.0947401)
(0 -0 0.0584435)
(0 -0 0.0328136)
(0 -0 0.014236)
(0 -0 0.00105475)
(0 -0 -0.00810171)
(0 -0 -0.0144179)
(0 -0 -0.0185249)
(0 -0 -0.0201883)
(0 -0 -0.0184512)
(0 -0 -0.0115794)
(0 -0 0.00242028)
(0 -0 0.0249827)
(0 -0 0.0569109)
(0 -0 0.0988763)
(0 -0 0.153809)
(0 -0 0.263426)
(0 -0 1.39887)
(0 -0 1.06244)
(0 -0 0.162436)
(0 -0 0.0789155)
(0 -0 0.0465929)
(0 -0 0.0246)
(0 -0 0.00793494)
(0 -0 -0.00457346)
(0 -0 -0.0135685)
(0 -0 -0.019573)
(0 -0 -0.0227612)
(0 -0 -0.022624)
(0 -0 -0.0180993)
(0 -0 -0.00776267)
(0 -0 0.00959362)
(0 -0 0.0343728)
(0 -0 0.0662182)
(0 -0 0.105364)
(0 -0 0.158093)
(0 -0 0.293295)
(0 -0 1.98282)
(0 -0 1.36475)
(0 -0 0.16951)
(0 -0 0.0721909)
(0 -0 0.0413745)
(0 -0 0.022076)
(0 -0 0.00740194)
(0 -0 -0.00387224)
(0 -0 -0.0120182)
(0 -0 -0.0170929)
(0 -0 -0.0188423)
(0 -0 -0.0164933)
(0 -0 -0.00879664)
(0 -0 0.00546909)
(0 -0 0.0268524)
(0 -0 0.0545695)
(0 -0 0.0870079)
(0 -0 0.124662)
(0 -0 0.178847)
(0 -0 0.351974)
(0 -0 2.67435)
(0 -0 1.6793)
(0 -0 0.186557)
(0 -0 0.0720951)
(0 -0 0.0405161)
(0 -0 0.0226315)
(0 -0 0.00942893)
(0 -0 -0.000670978)
(0 -0 -0.00777493)
(0 -0 -0.0115989)
(0 -0 -0.011542)
(0 -0 -0.00649424)
(0 -0 0.00508772)
(0 -0 0.0243223)
(0 -0 0.0508165)
(0 -0 0.0816061)
(0 -0 0.112722)
(0 -0 0.14568)
(0 -0 0.19869)
(0 -0 0.422585)
(0 -0 3.48463)
(0 -0 2.00534)
(0 -0 0.21138)
(0 -0 0.0769123)
(0 -0 0.0426271)
(0 -0 0.0248308)
(0 -0 0.0123136)
(0 -0 0.0030059)
(0 -0 -0.00315686)
(0 -0 -0.00562566)
(0 -0 -0.00350943)
(0 -0 0.00474537)
(0 -0 0.0209991)
(0 -0 0.046123)
(0 -0 0.0783148)
(0 -0 0.11121)
(0 -0 0.137293)
(0 -0 0.162054)
(0 -0 0.215021)
(0 -0 0.491343)
(0 -0 4.38384)
(0 -0 2.34415)
(0 -0 0.242397)
(0 -0 0.0853431)
(0 -0 0.0465859)
(0 -0 0.0275229)
(0 -0 0.0147329)
(0 -0 0.0056216)
(0 -0 6.2597e-05)
(0 -0 -0.00122623)
(0 -0 0.00300494)
(0 -0 0.0146439)
(0 -0 0.0355712)
(0 -0 0.0663084)
(0 -0 0.104801)
(0 -0 0.145444)
(0 -0 0.193048)
(0 -0 0.310802)
(0 -0 0.574441)
(0 -0 1.02496)
(0 -0 5.32949)
(0 -0 2.69846)
(0 -0 0.278561)
(0 -0 0.0962596)
(0 -0 0.0511879)
(0 -0 0.0293658)
(0 -0 0.0151811)
(0 -0 0.0055122)
(0 -0 8.57418e-05)
(0 -0 -0.000375807)
(0 -0 0.00550189)
(0 -0 0.0194185)
(0 -0 0.0425199)
(0 -0 0.0748791)
(0 -0 0.122866)
(0 -0 0.208231)
(0 -0 0.401966)
(0 -0 0.976873)
(0 -0 2.06247)
(0 -0 3.54294)
(0 -0 6.9722)
(0 -0 3.07272)
(0 -0 0.319072)
(0 -0 0.108238)
(0 -0 0.0546385)
(0 -0 0.0282846)
(0 -0 0.0114201)
(0 -0 0.000354907)
(0 -0 -0.00548629)
(0 -0 -0.00562468)
(0 -0 0.000760283)
(0 -0 0.0136337)
(0 -0 0.0311458)
(0 -0 0.0514942)
(0 -0 0.0999956)
(0 -0 0.248493)
(0 -0 0.452853)
(0 -0 0.934294)
(0 -0 3.09158)
(0 -0 7.73546)
(0 -0 11.2316)
(0 -0 3.47483)
(0 -0 0.362481)
(0 -0 0.118652)
(0 -0 0.0535723)
(0 -0 0.0205255)
(0 -0 -0.000372416)
(0 -0 -0.0136068)
(0 -0 -0.0203205)
(0 -0 -0.0207102)
(0 -0 -0.0157106)
(0 -0 -0.00936538)
(0 -0 -0.00841523)
(0 -0 -0.0273725)
(0 -0 -0.135275)
(0 -0 -0.667153)
(0 -0 -2.40521)
(0 -0 -4.18052)
(0 -0 -1.01126)
(0 -0 9.30762)
(0 -0 18.6351)
(0 -0 3.91391)
(0 -0 0.405412)
(0 -0 0.121805)
(0 -0 0.0412786)
(0 -0 -0.000915785)
(0 -0 -0.027354)
(0 -0 -0.0434294)
(0 -0 -0.0509202)
(0 -0 -0.0513074)
(0 -0 -0.0488703)
(0 -0 -0.053693)
(0 -0 -0.0763469)
(0 -0 -0.172199)
(0 -0 -0.899987)
(0 -0 -3.75091)
(0 -0 -9.70602)
(0 -0 -15.0656)
(0 -0 -12.5729)
(0 -0 3.05386)
(0 -0 28.3568)
(0 -0 4.42111)
(0 -0 0.434756)
(0 -0 0.105157)
(0 -0 0.00483972)
(0 -0 -0.0494118)
(0 -0 -0.0828121)
(0 -0 -0.102133)
(0 -0 -0.109423)
(0 -0 -0.108447)
(0 -0 -0.10694)
(0 -0 -0.123469)
(0 -0 -0.184994)
(0 -0 -0.412679)
(0 -0 -1.89088)
(0 -0 -7.21674)
(0 -0 -16.3408)
(0 -0 -24.4419)
(0 -0 -25.4774)
(0 -0 -9.91031)
(0 -0 36.6181)
(0 -0 4.95274)
(0 -0 0.443327)
(0 -0 0.0458693)
(0 -0 -0.0804111)
(0 -0 -0.152357)
(0 -0 -0.194216)
(0 -0 -0.215693)
(0 -0 -0.222131)
(0 -0 -0.218778)
(0 -0 -0.213129)
(0 -0 -0.23327)
(0 -0 -0.332835)
(0 -0 -0.657636)
(0 -0 -2.24933)
(0 -0 -7.38319)
(0 -0 -16.2279)
(0 -0 -24.4246)
(0 -0 -29.3425)
(0 -0 -22.483)
(0 -0 39.6925)
(0 -0 5.76969)
(0 -0 0.349241)
(0 -0 -0.105352)
(0 -0 -0.268665)
(0 -0 -0.357502)
(0 -0 -0.410996)
(0 -0 -0.446205)
(0 -0 -0.470933)
(0 -0 -0.47491)
(0 -0 -0.462658)
(0 -0 -0.467123)
(0 -0 -0.555556)
(0 -0 -0.859906)
(0 -0 -2.05359)
(0 -0 -5.59907)
(0 -0 -11.8988)
(0 -0 -17.2653)
(0 -0 -21.3513)
(0 -0 -27.2321)
(0 -0 38.2208)
(0 -0 6.03179)
(0 -0 0.314434)
(0 -0 -0.395544)
(0 -0 -0.683692)
(0 -0 -0.84629)
(0 -0 -0.975712)
(0 -0 -1.10088)
(0 -0 -1.21458)
(0 -0 -1.30075)
(0 -0 -1.35339)
(0 -0 -1.3784)
(0 -0 -1.42232)
(0 -0 -1.60391)
(0 -0 -2.27691)
(0 -0 -4.22915)
(0 -0 -7.85999)
(0 -0 -11.2702)
(0 -0 -14.5464)
(0 -0 -25.3659)
(0 -0 35.9734)
(0 -0 9.08653)
(0 -0 -1.03849)
(0 -0 -1.97909)
(0 -0 -2.42574)
(0 -0 -2.97409)
(0 -0 -3.55716)
(0 -0 -4.07908)
(0 -0 -4.53706)
(0 -0 -4.93157)
(0 -0 -5.2448)
(0 -0 -5.44699)
(0 -0 -5.53531)
(0 -0 -5.60374)
(0 -0 -5.86301)
(0 -0 -6.66302)
(0 -0 -8.41341)
(0 -0 -10.7664)
(0 -0 -14.7365)
(0 -0 -24.371)
(0 -0 28.0088)
(0 -0 -1.47979)
(0 -0 -7.9571)
(0 -0 -9.44327)
(0 -0 -11.365)
(0 -0 -13.2014)
(0 -0 -14.5296)
(0 -0 -15.5224)
(0 -0 -16.3532)
(0 -0 -17.0659)
(0 -0 -17.6491)
(0 -0 -18.0849)
(0 -0 -18.3507)
(0 -0 -18.4538)
(0 -0 -18.4647)
(0 -0 -18.5702)
(0 -0 -19.0655)
(0 -0 -20.2403)
(0 -0 -23.2914)
(0 -0 -31.1432)
(0 -0 -9.68201)
(0 -0 -180.323)
(0 -0 -199.328)
(0 -0 -195.27)
(0 -0 -190.557)
(0 -0 -187.097)
(0 -0 -184.481)
(0 -0 -182.27)
(0 -0 -180.291)
(0 -0 -178.463)
(0 -0 -176.719)
(0 -0 -175.002)
(0 -0 -173.259)
(0 -0 -171.448)
(0 -0 -169.52)
(0 -0 -167.713)
(0 -0 -165.804)
(0 -0 -166.687)
(0 -0 -162.482)
(0 -0 -193.023)
(0 -0 -144.85)
)
;

boundaryField
{
    movingWall
    {
        type            calculated;
        value           nonuniform List<vector> 
20
(
(0 -0 -367.472)
(0 -0 -379.573)
(0 -0 -368.566)
(0 -0 -358.035)
(0 -0 -350.412)
(0 -0 -344.464)
(0 -0 -339.292)
(0 -0 -334.606)
(0 -0 -330.288)
(0 -0 -326.238)
(0 -0 -322.364)
(0 -0 -318.583)
(0 -0 -314.849)
(0 -0 -311.089)
(0 -0 -307.771)
(0 -0 -304.215)
(0 -0 -305.967)
(0 -0 -296.873)
(0 -0 -356.663)
(0 -0 -237.912)
)
;
    }
    fixedWalls
    {
        type            calculated;
        value           nonuniform List<vector> 
60
(
(0 -0 0.117416)
(0 -0 0.380241)
(0 -0 0.82914)
(0 -0 1.34451)
(0 -0 1.90385)
(0 -0 2.48556)
(0 -0 3.08171)
(0 -0 3.6923)
(0 -0 4.32133)
(0 -0 4.97549)
(0 -0 5.66466)
(0 -0 6.40673)
(0 -0 7.2212)
(0 -0 8.18916)
(0 -0 9.20909)
(0 -0 10.9569)
(0 -0 11.3211)
(0 -0 18.7719)
(0 -0 3.15896)
(0 -0 -159.565)
(0 -0 0.276767)
(0 -0 0.744722)
(0 -0 1.5427)
(0 -0 2.49571)
(0 -0 3.61147)
(0 -0 4.9029)
(0 -0 6.3801)
(0 -0 7.96303)
(0 -0 9.38718)
(0 -0 10.8701)
(0 -0 14.2697)
(0 -0 23.166)
(0 -0 43.0669)
(0 -0 69.4013)
(0 -0 91.3627)
(0 -0 103.951)
(0 -0 107.301)
(0 -0 101.773)
(0 -0 54.8005)
(0 -0 -114.829)
(0 -0 0.117581)
(0 -0 0.37885)
(0 -0 0.828771)
(0 -0 1.33014)
(0 -0 1.8475)
(0 -0 2.34632)
(0 -0 2.8066)
(0 -0 3.21498)
(0 -0 3.55913)
(0 -0 3.82821)
(0 -0 3.99979)
(0 -0 4.05791)
(0 -0 3.98408)
(0 -0 3.75878)
(0 -0 3.37269)
(0 -0 2.83126)
(0 -0 2.16516)
(0 -0 1.43988)
(0 -0 0.731059)
(0 -0 0.275941)
)
;
    }
    frontAndBack
    {
        type            empty;
    }
}


// ************************************************************************* //
