/*--------------------------------*- C++ -*----------------------------------*\
| =========                 |                                                 |
| \\      /  F ield         | OpenFOAM: The Open Source CFD Toolbox           |
|  \\    /   O peration     | Version:  2312                                  |
|   \\  /    A nd           | Website:  www.openfoam.com                      |
|    \\/     M anipulation  |                                                 |
\*---------------------------------------------------------------------------*/
FoamFile
{
    version     2.0;
    format      ascii;
    arch        "LSB;label=32;scalar=64";
    class       volScalarField;
    location    "0.75";
    object      zeroGradient(epsilon);
}
// * * * * * * * * * * * * * * * * * * * * * * * * * * * * * * * * * * * * * //

dimensions      [0 2 -3 0 0 0 0];

internalField   nonuniform List<scalar> 
400
(
0.000492897
0.000766784
0.00101638
0.00118892
0.00130263
0.0013796
0.00143553
0.00147956
0.00151592
0.00154583
0.00156852
0.00158216
0.00158647
0.00157267
0.00152913
0.00144298
0.00129833
0.0010795
0.000780261
0.000501094
0.000769103
0.00076942
0.000887821
0.000972289
0.00102312
0.00105234
0.00106963
0.00108085
0.00108898
0.0010952
0.00109982
0.00110244
0.00110323
0.00109816
0.00108181
0.00104743
0.000986283
0.000889127
0.000773153
0.000783321
0.00105401
0.000889882
0.000959939
0.00102195
0.00106088
0.00108288
0.001095
0.0011021
0.00110687
0.00111061
0.00111375
0.00111557
0.00111571
0.00111145
0.00109899
0.00107326
0.0010284
0.000960572
0.000895307
0.00104391
0.00126712
0.000987821
0.00103019
0.00108095
0.00111495
0.00113463
0.00114536
0.00115128
0.00115502
0.00115798
0.00116058
0.00116208
0.00116202
0.00115784
0.00114625
0.00112286
0.00108312
0.00102607
0.000983645
0.00122828
0.00142016
0.00105391
0.00107934
0.0011243
0.00115613
0.00117508
0.00118554
0.00119133
0.00119496
0.0011978
0.00120029
0.00120178
0.00120173
0.00119766
0.00118632
0.00116346
0.00112489
0.00107107
0.00104
0.00135752
0.00153239
0.00109774
0.00111189
0.00115368
0.0011846
0.00120341
0.001214
0.00122001
0.00122391
0.00122714
0.0012302
0.0012326
0.0012335
0.0012308
0.00122098
0.00119945
0.00116128
0.00110735
0.0010816
0.00146181
0.00162052
0.00112801
0.0011336
0.00117345
0.00120397
0.00122287
0.00123375
0.00124019
0.00124477
0.00124899
0.00125359
0.00125852
0.00126264
0.00126459
0.00126089
0.00124588
0.00121185
0.00115668
0.00112906
0.00156882
0.00169712
0.00115112
0.00114912
0.00118737
0.00121759
0.00123658
0.00124777
0.00125483
0.0012605
0.00126657
0.00127423
0.00128416
0.00129659
0.00131145
0.00132655
0.001336
0.00132438
0.00127263
0.00122202
0.00170277
0.00177104
0.00117117
0.00116175
0.00119817
0.00122789
0.00124677
0.00125819
0.00126597
0.00127317
0.0012822
0.0012953
0.00131517
0.00134566
0.00139256
0.0014632
0.00156092
0.00164373
0.00164909
0.0015247
0.00192142
0.00184825
0.00119107
0.0011735
0.00120759
0.00123635
0.00125476
0.00126615
0.00127461
0.00128378
0.0012972
0.00131952
0.00135833
0.00142742
0.00155179
0.00177185
0.00213525
0.0026512
0.00294194
0.00272034
0.00246453
0.00193325
0.00121266
0.00118567
0.0012166
0.00124373
0.00126108
0.00127199
0.00128094
0.00129242
0.00131204
0.00134923
0.00142249
0.00156979
0.00186719
0.00245257
0.0035353
0.005331
0.00670225
0.00676525
0.004504
0.00203026
0.00123722
0.00119905
0.00122567
0.00125029
0.00126584
0.0012757
0.00128478
0.00129877
0.00132652
0.00138576
0.00151521
0.00180124
0.0024254
0.00370177
0.00602311
0.00960609
0.0135138
0.0157129
0.0122003
0.00214335
0.0012658
0.00121409
0.00123503
0.00125628
0.00126951
0.001278
0.00128698
0.00130335
0.00134019
0.00142626
0.00162759
0.00209282
0.00310385
0.00490964
0.00743924
0.0109038
0.0156032
0.0243681
0.0295431
0.00228129
0.00129929
0.00123119
0.00124553
0.00126357
0.00127521
0.00128301
0.00129225
0.00131091
0.00135485
0.00146184
0.00171421
0.00226894
0.0033094
0.00479313
0.00666471
0.00917696
0.0135087
0.0268302
0.0476179
0.00243489
0.00133747
0.00125219
0.0012628
0.0012805
0.00129285
0.00130228
0.00131389
0.00133594
0.00138524
0.00149818
0.00175035
0.00226586
0.00313076
0.00419153
0.00500228
0.00554467
0.00824741
0.0254355
0.0587338
0.00265821
0.00138586
0.00129412
0.00131048
0.00133685
0.00135877
0.0013781
0.00139946
0.00143047
0.0014866
0.00160031
0.001833
0.00226651
0.00288426
0.003427
0.00362176
0.00353398
0.00532915
0.0210177
0.0678778
0.00279623
0.00149852
0.00144094
0.0015023
0.00157059
0.0016326
0.00169065
0.00174871
0.00181317
0.00189618
0.00202256
0.00223448
0.00257946
0.00305671
0.00344259
0.00340214
0.00340127
0.00515932
0.0198977
0.0788999
0.00325127
0.0019797
0.00226889
0.00259636
0.00287918
0.00313916
0.00338383
0.00361424
0.00383706
0.00405862
0.00429482
0.00456278
0.00487554
0.00521021
0.00532159
0.00520828
0.00542388
0.00907366
0.0281236
0.096224
0.00462822
0.00695626
0.0106202
0.0133459
0.0152843
0.0168663
0.0182277
0.0193792
0.020377
0.0212061
0.0219216
0.0224913
0.0228714
0.0231022
0.023017
0.022974
0.0236631
0.0328448
0.0515759
0.128052
0.0449454
0.0856731
0.125774
0.151292
0.166912
0.176815
0.183047
0.186454
0.188169
0.188078
0.187445
0.185948
0.183761
0.180664
0.17788
0.175189
0.176592
0.177058
0.191448
0.166909
)
;

boundaryField
{
    movingWall
    {
        type            zeroGradient;
    }
    fixedWalls
    {
        type            zeroGradient;
    }
    frontAndBack
    {
        type            empty;
    }
}


// ************************************************************************* //
