/*--------------------------------*- C++ -*----------------------------------*\
| =========                 |                                                 |
| \\      /  F ield         | OpenFOAM: The Open Source CFD Toolbox           |
|  \\    /   O peration     | Version:  2312                                  |
|   \\  /    A nd           | Website:  www.openfoam.com                      |
|    \\/     M anipulation  |                                                 |
\*---------------------------------------------------------------------------*/
FoamFile
{
    version     2.0;
    format      ascii;
    arch        "LSB;label=32;scalar=64";
    class       volVectorField;
    location    "3.125";
    object      diffU;
}
// * * * * * * * * * * * * * * * * * * * * * * * * * * * * * * * * * * * * * //

dimensions      [0 1 -1 0 0 0 0];

internalField   nonuniform List<vector> 
400
(
(0 0 0)
(-6.8645e-09 -3.70459e-07 0)
(-6.27053e-09 -2.86324e-07 0)
(-6.52008e-09 -3.06127e-07 0)
(-6.58514e-09 -3.01626e-07 0)
(-6.55408e-09 -3.02671e-07 0)
(-6.55926e-09 -3.02427e-07 0)
(-6.54952e-09 -3.02481e-07 0)
(-6.54935e-09 -3.02467e-07 0)
(-6.54851e-09 -3.02469e-07 0)
(-6.54978e-09 -3.02468e-07 0)
(-6.55146e-09 -3.02468e-07 0)
(-6.55353e-09 -3.02468e-07 0)
(-6.55556e-09 -3.02468e-07 0)
(-6.5574e-09 -3.02468e-07 0)
(-6.55886e-09 -3.02468e-07 0)
(-6.55995e-09 -3.02468e-07 0)
(-6.56081e-09 -3.02468e-07 0)
(-6.56126e-09 -3.02469e-07 0)
(-6.56097e-09 -3.02469e-07 0)
(-4.54647e-08 -6.18434e-07 0)
(-4.15334e-10 -2.31752e-07 0)
(-9.69186e-09 -3.1928e-07 0)
(-6.14753e-09 -2.98711e-07 0)
(-6.75805e-09 -3.03367e-07 0)
(-6.51666e-09 -3.02279e-07 0)
(-6.56384e-09 -3.02525e-07 0)
(-6.54544e-09 -3.02463e-07 0)
(-6.5482e-09 -3.02473e-07 0)
(-6.54731e-09 -3.02467e-07 0)
(-6.549e-09 -3.02467e-07 0)
(-6.5509e-09 -3.02466e-07 0)
(-6.55317e-09 -3.02466e-07 0)
(-6.55534e-09 -3.02466e-07 0)
(-6.55727e-09 -3.02466e-07 0)
(-6.55878e-09 -3.02467e-07 0)
(-6.55995e-09 -3.02467e-07 0)
(-6.56081e-09 -3.02468e-07 0)
(-6.56122e-09 -3.02469e-07 0)
(-6.56097e-09 -3.02469e-07 0)
(4.76074e-08 4.21744e-08 0)
(-1.35019e-08 -3.78623e-07 0)
(-2.63444e-09 -2.84498e-07 0)
(-6.91132e-09 -3.06511e-07 0)
(-6.39437e-09 -3.01588e-07 0)
(-6.58396e-09 -3.02704e-07 0)
(-6.5457e-09 -3.02437e-07 0)
(-6.54628e-09 -3.02487e-07 0)
(-6.54501e-09 -3.02468e-07 0)
(-6.54571e-09 -3.02467e-07 0)
(-6.54783e-09 -3.02464e-07 0)
(-6.55016e-09 -3.02463e-07 0)
(-6.55269e-09 -3.02463e-07 0)
(-6.55504e-09 -3.02464e-07 0)
(-6.55708e-09 -3.02464e-07 0)
(-6.55867e-09 -3.02465e-07 0)
(-6.55983e-09 -3.02466e-07 0)
(-6.56076e-09 -3.02467e-07 0)
(-6.56123e-09 -3.02468e-07 0)
(-6.56097e-09 -3.02469e-07 0)
(-1.25436e-07 -6.93014e-07 0)
(1.31782e-08 -2.17241e-07 0)
(-1.60598e-08 -3.22741e-07 0)
(-5.15037e-09 -2.98131e-07 0)
(-7.13039e-09 -3.03525e-07 0)
(-6.40966e-09 -3.02274e-07 0)
(-6.57389e-09 -3.02536e-07 0)
(-6.52943e-09 -3.02466e-07 0)
(-6.54375e-09 -3.02472e-07 0)
(-6.54285e-09 -3.02464e-07 0)
(-6.54653e-09 -3.02462e-07 0)
(-6.54925e-09 -3.02461e-07 0)
(-6.55217e-09 -3.02461e-07 0)
(-6.55473e-09 -3.02461e-07 0)
(-6.55689e-09 -3.02462e-07 0)
(-6.55856e-09 -3.02464e-07 0)
(-6.55985e-09 -3.02465e-07 0)
(-6.56074e-09 -3.02466e-07 0)
(-6.56116e-09 -3.02468e-07 0)
(-6.56098e-09 -3.02469e-07 0)
(1.50242e-07 1.62269e-07 0)
(-3.13415e-08 -4.046e-07 0)
(5.69823e-09 -2.78476e-07 0)
(-8.20977e-09 -3.07873e-07 0)
(-5.83368e-09 -3.01315e-07 0)
(-6.68622e-09 -3.02782e-07 0)
(-6.49527e-09 -3.02426e-07 0)
(-6.54525e-09 -3.02489e-07 0)
(-6.53491e-09 -3.02464e-07 0)
(-6.54157e-09 -3.02462e-07 0)
(-6.54459e-09 -3.02459e-07 0)
(-6.54837e-09 -3.02458e-07 0)
(-6.55158e-09 -3.02458e-07 0)
(-6.55439e-09 -3.02459e-07 0)
(-6.5567e-09 -3.0246e-07 0)
(-6.55845e-09 -3.02462e-07 0)
(-6.5597e-09 -3.02464e-07 0)
(-6.56068e-09 -3.02466e-07 0)
(-6.56118e-09 -3.02468e-07 0)
(-6.56099e-09 -3.02469e-07 0)
(-2.41709e-07 -8.59892e-07 0)
(3.28063e-08 -1.82216e-07 0)
(-2.5185e-08 -3.30961e-07 0)
(-3.68884e-09 -2.96463e-07 0)
(-7.63011e-09 -3.03891e-07 0)
(-6.25137e-09 -3.02195e-07 0)
(-6.5835e-09 -3.02544e-07 0)
(-6.50684e-09 -3.02456e-07 0)
(-6.53774e-09 -3.02465e-07 0)
(-6.53747e-09 -3.02457e-07 0)
(-6.54381e-09 -3.02455e-07 0)
(-6.54759e-09 -3.02454e-07 0)
(-6.55128e-09 -3.02454e-07 0)
(-6.55424e-09 -3.02456e-07 0)
(-6.55662e-09 -3.02458e-07 0)
(-6.55841e-09 -3.02461e-07 0)
(-6.55977e-09 -3.02463e-07 0)
(-6.56068e-09 -3.02465e-07 0)
(-6.56109e-09 -3.02468e-07 0)
(-6.561e-09 -3.02469e-07 0)
(3.38259e-07 3.88652e-07 0)
(-6.72284e-08 -4.53747e-07 0)
(2.14798e-08 -2.66963e-07 0)
(-1.10606e-08 -3.1033e-07 0)
(-4.70417e-09 -3.00757e-07 0)
(-6.92955e-09 -3.02886e-07 0)
(-6.40372e-09 -3.0239e-07 0)
(-6.558e-09 -3.02481e-07 0)
(-6.52241e-09 -3.02452e-07 0)
(-6.53959e-09 -3.02452e-07 0)
(-6.54212e-09 -3.0245e-07 0)
(-6.54756e-09 -3.0245e-07 0)
(-6.55115e-09 -3.02451e-07 0)
(-6.55428e-09 -3.02453e-07 0)
(-6.55667e-09 -3.02456e-07 0)
(-6.55844e-09 -3.02459e-07 0)
(-6.55969e-09 -3.02462e-07 0)
(-6.56063e-09 -3.02464e-07 0)
(-6.56111e-09 -3.02468e-07 0)
(-6.561e-09 -3.02469e-07 0)
(-4.45351e-07 -1.15723e-06 0)
(7.10947e-08 -1.14746e-07 0)
(-4.19683e-08 -3.46744e-07 0)
(-5.62389e-10 -2.92821e-07 0)
(-8.70759e-09 -3.04676e-07 0)
(-5.93907e-09 -3.01977e-07 0)
(-6.64025e-09 -3.02563e-07 0)
(-6.47491e-09 -3.02428e-07 0)
(-6.53921e-09 -3.02452e-07 0)
(-6.53418e-09 -3.02444e-07 0)
(-6.54386e-09 -3.02445e-07 0)
(-6.54769e-09 -3.02445e-07 0)
(-6.55175e-09 -3.02448e-07 0)
(-6.55467e-09 -3.02451e-07 0)
(-6.55694e-09 -3.02454e-07 0)
(-6.5586e-09 -3.02458e-07 0)
(-6.55988e-09 -3.02461e-07 0)
(-6.56067e-09 -3.02464e-07 0)
(-6.56102e-09 -3.02467e-07 0)
(-6.56102e-09 -3.02469e-07 0)
(5.73798e-07 7.52966e-07 0)
(-1.12303e-07 -5.36364e-07 0)
(4.13379e-08 -2.4745e-07 0)
(-1.47381e-08 -3.14636e-07 0)
(-3.32277e-09 -2.99714e-07 0)
(-7.26254e-09 -3.03071e-07 0)
(-6.30704e-09 -3.02314e-07 0)
(-6.58625e-09 -3.0247e-07 0)
(-6.51583e-09 -3.02432e-07 0)
(-6.54311e-09 -3.02439e-07 0)
(-6.54334e-09 -3.02439e-07 0)
(-6.54947e-09 -3.02441e-07 0)
(-6.5526e-09 -3.02444e-07 0)
(-6.55542e-09 -3.02448e-07 0)
(-6.55742e-09 -3.02452e-07 0)
(-6.5589e-09 -3.02456e-07 0)
(-6.55992e-09 -3.0246e-07 0)
(-6.56067e-09 -3.02463e-07 0)
(-6.56105e-09 -3.02467e-07 0)
(-6.56103e-09 -3.02469e-07 0)
(-7.23966e-07 -1.58842e-06 0)
(1.27185e-07 -1.47206e-08 0)
(-6.61019e-08 -3.70474e-07 0)
(4.30363e-09 -2.87346e-07 0)
(-1.04284e-08 -3.05878e-07 0)
(-5.47515e-09 -3.01642e-07 0)
(-6.7657e-09 -3.02593e-07 0)
(-6.43869e-09 -3.02389e-07 0)
(-6.55434e-09 -3.02437e-07 0)
(-6.53627e-09 -3.0243e-07 0)
(-6.54906e-09 -3.02434e-07 0)
(-6.55098e-09 -3.02437e-07 0)
(-6.55448e-09 -3.02441e-07 0)
(-6.55655e-09 -3.02446e-07 0)
(-6.55819e-09 -3.02451e-07 0)
(-6.55934e-09 -3.02455e-07 0)
(-6.56025e-09 -3.02459e-07 0)
(-6.56078e-09 -3.02462e-07 0)
(-6.56097e-09 -3.02467e-07 0)
(-6.56104e-09 -3.02469e-07 0)
(8.44722e-07 1.21839e-06 0)
(-1.69065e-07 -6.49873e-07 0)
(6.67743e-08 -2.1994e-07 0)
(-1.97364e-08 -3.20826e-07 0)
(-1.41184e-09 -2.98044e-07 0)
(-7.77021e-09 -3.03365e-07 0)
(-6.18811e-09 -3.02191e-07 0)
(-6.64519e-09 -3.02466e-07 0)
(-6.51688e-09 -3.02411e-07 0)
(-6.55548e-09 -3.02428e-07 0)
(-6.54937e-09 -3.02429e-07 0)
(-6.55496e-09 -3.02434e-07 0)
(-6.55635e-09 -3.02439e-07 0)
(-6.5581e-09 -3.02444e-07 0)
(-6.55913e-09 -3.02449e-07 0)
(-6.55992e-09 -3.02454e-07 0)
(-6.56043e-09 -3.02458e-07 0)
(-6.56083e-09 -3.02462e-07 0)
(-6.56102e-09 -3.02467e-07 0)
(-6.56106e-09 -3.02469e-07 0)
(-9.1283e-07 -1.97468e-06 0)
(1.71143e-07 9.35007e-08 0)
(-8.66219e-08 -3.95543e-07 0)
(8.45471e-09 -2.80453e-07 0)
(-1.23237e-08 -3.07466e-07 0)
(-5.09435e-09 -3.01207e-07 0)
(-6.94564e-09 -3.02672e-07 0)
(-6.41946e-09 -3.02349e-07 0)
(-6.58226e-09 -3.02431e-07 0)
(-6.54481e-09 -3.02419e-07 0)
(-6.55903e-09 -3.02428e-07 0)
(-6.55737e-09 -3.02432e-07 0)
(-6.55937e-09 -3.02438e-07 0)
(-6.55984e-09 -3.02443e-07 0)
(-6.56033e-09 -3.02449e-07 0)
(-6.56059e-09 -3.02454e-07 0)
(-6.56088e-09 -3.02458e-07 0)
(-6.56098e-09 -3.02462e-07 0)
(-6.56095e-09 -3.02467e-07 0)
(-6.56107e-09 -3.02469e-07 0)
(8.97106e-07 1.47382e-06 0)
(-1.8885e-07 -7.29325e-07 0)
(7.42632e-08 -2.01639e-07 0)
(-2.26286e-08 -3.26497e-07 0)
(-5.11884e-10 -2.96693e-07 0)
(-8.14544e-09 -3.03746e-07 0)
(-6.11878e-09 -3.02085e-07 0)
(-6.70328e-09 -3.02485e-07 0)
(-6.52502e-09 -3.02398e-07 0)
(-6.57215e-09 -3.02425e-07 0)
(-6.55874e-09 -3.02425e-07 0)
(-6.56289e-09 -3.02432e-07 0)
(-6.56182e-09 -3.02437e-07 0)
(-6.56196e-09 -3.02443e-07 0)
(-6.5616e-09 -3.02449e-07 0)
(-6.56138e-09 -3.02454e-07 0)
(-6.56119e-09 -3.02458e-07 0)
(-6.56108e-09 -3.02462e-07 0)
(-6.561e-09 -3.02467e-07 0)
(-6.56108e-09 -3.02469e-07 0)
(-8.49471e-07 -2.16135e-06 0)
(1.64599e-07 1.47499e-07 0)
(-8.23673e-08 -4.08835e-07 0)
(8.53769e-09 -2.76761e-07 0)
(-1.23007e-08 -3.08529e-07 0)
(-5.07808e-09 -3.0095e-07 0)
(-6.98953e-09 -3.02759e-07 0)
(-6.43185e-09 -3.02328e-07 0)
(-6.60215e-09 -3.02435e-07 0)
(-6.55742e-09 -3.02416e-07 0)
(-6.5702e-09 -3.02427e-07 0)
(-6.56549e-09 -3.02432e-07 0)
(-6.56544e-09 -3.02438e-07 0)
(-6.56402e-09 -3.02444e-07 0)
(-6.56305e-09 -3.02449e-07 0)
(-6.5622e-09 -3.02454e-07 0)
(-6.56171e-09 -3.02459e-07 0)
(-6.56127e-09 -3.02462e-07 0)
(-6.56096e-09 -3.02467e-07 0)
(-6.5611e-09 -3.02469e-07 0)
(7.59908e-07 1.62032e-06 0)
(-1.65027e-07 -7.70531e-07 0)
(6.27905e-08 -1.91737e-07 0)
(-2.08555e-08 -3.29431e-07 0)
(-1.19915e-09 -2.95961e-07 0)
(-8.00084e-09 -3.03967e-07 0)
(-6.1653e-09 -3.02026e-07 0)
(-6.70814e-09 -3.02501e-07 0)
(-6.5418e-09 -3.02393e-07 0)
(-6.58527e-09 -3.02427e-07 0)
(-6.56986e-09 -3.02426e-07 0)
(-6.57151e-09 -3.02434e-07 0)
(-6.56816e-09 -3.02439e-07 0)
(-6.56639e-09 -3.02445e-07 0)
(-6.56449e-09 -3.0245e-07 0)
(-6.56312e-09 -3.02455e-07 0)
(-6.56211e-09 -3.02459e-07 0)
(-6.56141e-09 -3.02463e-07 0)
(-6.561e-09 -3.02467e-07 0)
(-6.5611e-09 -3.02469e-07 0)
(-6.60216e-07 -2.27099e-06 0)
(1.28341e-07 1.74436e-07 0)
(-6.53297e-08 -4.15253e-07 0)
(5.54833e-09 -2.75114e-07 0)
(-1.10295e-08 -3.08911e-07 0)
(-5.37447e-09 -3.00839e-07 0)
(-6.91427e-09 -3.02777e-07 0)
(-6.4754e-09 -3.02319e-07 0)
(-6.61149e-09 -3.02437e-07 0)
(-6.57371e-09 -3.02418e-07 0)
(-6.58114e-09 -3.02431e-07 0)
(-6.57455e-09 -3.02436e-07 0)
(-6.5719e-09 -3.02442e-07 0)
(-6.56855e-09 -3.02448e-07 0)
(-6.56599e-09 -3.02452e-07 0)
(-6.56397e-09 -3.02457e-07 0)
(-6.56263e-09 -3.0246e-07 0)
(-6.56162e-09 -3.02463e-07 0)
(-6.56099e-09 -3.02467e-07 0)
(-6.56111e-09 -3.02469e-07 0)
(6.31959e-07 1.70622e-06 0)
(-1.4506e-07 -7.95543e-07 0)
(5.21267e-08 -1.85386e-07 0)
(-1.94527e-08 -3.31129e-07 0)
(-1.83149e-09 -2.95412e-07 0)
(-7.8839e-09 -3.04073e-07 0)
(-6.21379e-09 -3.01972e-07 0)
(-6.71882e-09 -3.02508e-07 0)
(-6.56175e-09 -3.02393e-07 0)
(-6.6006e-09 -3.02434e-07 0)
(-6.58212e-09 -3.02433e-07 0)
(-6.58064e-09 -3.02441e-07 0)
(-6.57466e-09 -3.02446e-07 0)
(-6.57084e-09 -3.02451e-07 0)
(-6.56734e-09 -3.02455e-07 0)
(-6.56482e-09 -3.02459e-07 0)
(-6.56301e-09 -3.02462e-07 0)
(-6.56175e-09 -3.02464e-07 0)
(-6.56103e-09 -3.02467e-07 0)
(-6.56112e-09 -3.02469e-07 0)
(-3.13319e-07 -2.34066e-06 0)
(5.24808e-08 1.97598e-07 0)
(-3.35773e-08 -4.20608e-07 0)
(-1.42033e-09 -2.72958e-07 0)
(-8.53757e-09 -3.09313e-07 0)
(-6.08748e-09 -3.00602e-07 0)
(-6.75045e-09 -3.0281e-07 0)
(-6.56779e-09 -3.02301e-07 0)
(-6.61902e-09 -3.0245e-07 0)
(-6.59639e-09 -3.02428e-07 0)
(-6.59238e-09 -3.02443e-07 0)
(-6.58381e-09 -3.02447e-07 0)
(-6.57785e-09 -3.02452e-07 0)
(-6.57259e-09 -3.02455e-07 0)
(-6.56849e-09 -3.02458e-07 0)
(-6.56542e-09 -3.02461e-07 0)
(-6.56333e-09 -3.02463e-07 0)
(-6.56186e-09 -3.02465e-07 0)
(-6.56103e-09 -3.02468e-07 0)
(-6.56113e-09 -3.02469e-07 0)
(3.31059e-07 1.74228e-06 0)
(-8.022e-08 -7.91381e-07 0)
(2.37054e-08 -1.86225e-07 0)
(-1.34938e-08 -3.29513e-07 0)
(-4.38082e-09 -2.95727e-07 0)
(-7.36812e-09 -3.03844e-07 0)
(-6.49136e-09 -3.02035e-07 0)
(-6.7024e-09 -3.02502e-07 0)
(-6.60866e-09 -3.02418e-07 0)
(-6.61339e-09 -3.02449e-07 0)
(-6.5958e-09 -3.0245e-07 0)
(-6.58806e-09 -3.02455e-07 0)
(-6.58006e-09 -3.02458e-07 0)
(-6.57418e-09 -3.0246e-07 0)
(-6.56945e-09 -3.02462e-07 0)
(-6.56605e-09 -3.02464e-07 0)
(-6.56369e-09 -3.02465e-07 0)
(-6.56199e-09 -3.02466e-07 0)
(-6.56102e-09 -3.02468e-07 0)
(-6.56112e-09 -3.02469e-07 0)
(-3.53901e-07 -2.37468e-06 0)
(7.87784e-08 2.1818e-07 0)
(-4.05748e-08 -4.25975e-07 0)
(1.56302e-09 -2.71104e-07 0)
(-9.87196e-09 -3.10056e-07 0)
(-5.9084e-09 -3.00508e-07 0)
(-6.97019e-09 -3.02931e-07 0)
(-6.57707e-09 -3.02328e-07 0)
(-6.6578e-09 -3.02489e-07 0)
(-6.60653e-09 -3.02452e-07 0)
(-6.60268e-09 -3.02465e-07 0)
(-6.58909e-09 -3.02463e-07 0)
(-6.58179e-09 -3.02465e-07 0)
(-6.57507e-09 -3.02466e-07 0)
(-6.57019e-09 -3.02467e-07 0)
(-6.56658e-09 -3.02467e-07 0)
(-6.56408e-09 -3.02468e-07 0)
(-6.56217e-09 -3.02468e-07 0)
(-6.56099e-09 -3.02468e-07 0)
(-6.56108e-09 -3.02469e-07 0)
)
;

boundaryField
{
    movingWall
    {
        type            calculated;
        value           uniform (-6.56105e-09 -3.02469e-07 0);
    }
    fixedWalls
    {
        type            calculated;
        value           uniform (-6.56105e-09 -3.02469e-07 0);
    }
    frontAndBack
    {
        type            empty;
    }
}


// ************************************************************************* //
