/*--------------------------------*- C++ -*----------------------------------*\
| =========                 |                                                 |
| \\      /  F ield         | OpenFOAM: The Open Source CFD Toolbox           |
|  \\    /   O peration     | Version:  2312                                  |
|   \\  /    A nd           | Website:  www.openfoam.com                      |
|    \\/     M anipulation  |                                                 |
\*---------------------------------------------------------------------------*/
FoamFile
{
    version     2.0;
    format      ascii;
    arch        "LSB;label=32;scalar=64";
    class       volScalarField;
    location    "3.125";
    object      divU;
}
// * * * * * * * * * * * * * * * * * * * * * * * * * * * * * * * * * * * * * //

dimensions      [0 0 -1 0 0 0 0];

internalField   nonuniform List<scalar> 
400
(
-7.23912e-07
-3.5447e-07
-3.22456e-08
-2.15487e-08
-8.98805e-09
1.32512e-09
-9.3498e-10
3.65268e-10
-1.28681e-10
4.84478e-11
-1.04274e-11
1.23749e-11
6.61011e-12
7.44627e-12
6.87735e-12
7.68222e-12
1.55061e-12
-7.60657e-13
5.90394e-12
9.81203e-12
9.41652e-07
2.76094e-06
-3.90558e-07
2.55071e-07
-3.30597e-08
1.61468e-08
-3.93822e-09
9.74292e-10
-3.2468e-10
8.67512e-11
-1.83502e-11
1.28289e-11
4.28122e-12
6.18057e-12
6.82742e-12
2.3382e-12
-1.87373e-12
8.60804e-12
5.19543e-12
7.18284e-12
-2.73525e-06
-3.57304e-06
3.12932e-07
-3.18012e-07
1.69458e-08
-1.46628e-08
2.61466e-09
-2.23868e-10
1.36552e-10
1.78899e-11
1.52868e-12
1.04146e-11
5.75272e-12
5.19629e-12
6.2422e-12
8.48498e-12
-1.88098e-12
-3.2744e-12
4.7801e-12
1.00831e-11
2.09589e-06
8.33987e-06
-1.23073e-06
7.56704e-07
-9.86052e-08
4.78795e-08
-1.08866e-08
2.78484e-09
-9.01311e-10
2.20312e-10
-5.19035e-11
2.37987e-11
2.31545e-12
7.53372e-12
7.39523e-12
9.30858e-13
-2.7586e-12
9.86733e-12
7.02229e-12
4.63496e-12
-3.4855e-06
-1.0952e-05
1.49116e-06
-9.86376e-07
1.1572e-07
-5.82973e-08
1.33397e-08
-3.03384e-09
1.08464e-09
-2.01627e-10
6.62166e-11
-9.54161e-12
9.30178e-12
2.85427e-12
5.48738e-12
7.48002e-12
-2.0021e-12
-4.63197e-12
5.47213e-12
8.37546e-12
3.06023e-06
1.67378e-05
-2.49818e-06
1.50975e-06
-2.00509e-07
9.42163e-08
-2.1868e-08
5.3451e-09
-1.84348e-09
3.98328e-10
-1.1074e-10
3.51622e-11
-3.11004e-12
7.55945e-12
6.77847e-12
-2.33236e-12
-5.25939e-12
1.08459e-11
8.42105e-12
1.5992e-12
-1.31886e-06
-2.49308e-05
4.03856e-06
-2.25421e-06
3.34614e-07
-1.48129e-07
3.52467e-08
-9.06047e-09
3.10742e-09
-6.91885e-10
2.13732e-10
-5.54022e-11
1.73655e-11
-2.28111e-12
4.46756e-12
5.09609e-12
-3.07882e-12
-5.87559e-12
6.05344e-12
5.85469e-12
3.1797e-07
3.20766e-05
-5.21442e-06
2.89546e-06
-4.33307e-07
1.88288e-07
-4.60014e-08
1.12729e-08
-3.98503e-09
8.54922e-10
-2.63892e-10
6.99382e-11
-1.77235e-11
8.85092e-12
4.74206e-12
-5.53036e-12
-7.71946e-12
1.12995e-11
9.57039e-12
-1.68051e-12
4.34325e-06
-4.32435e-05
7.3834e-06
-3.91861e-06
6.27367e-07
-2.64884e-07
6.46155e-08
-1.69214e-08
5.82125e-09
-1.31597e-09
3.96039e-10
-1.15833e-10
2.73062e-11
-8.2255e-12
3.99725e-12
2.1793e-12
-4.38399e-12
-6.31289e-12
6.63317e-12
2.95445e-12
-1.1824e-05
5.44355e-05
-9.53711e-06
4.94842e-06
-8.10902e-07
3.36869e-07
-8.40849e-08
2.15213e-08
-7.65909e-09
1.62933e-09
-5.40856e-10
1.37224e-10
-3.93576e-11
1.42912e-11
2.66388e-12
-7.56069e-12
-9.73613e-12
1.12147e-11
1.04106e-11
-4.55365e-12
3.02521e-05
-6.69727e-05
1.2426e-05
-6.12926e-06
1.03784e-06
-4.34184e-07
1.04554e-07
-2.89591e-08
9.59869e-09
-2.21621e-09
6.97743e-10
-1.90093e-10
5.09692e-11
-1.32877e-11
5.71213e-12
-4.27007e-13
-4.95884e-12
-5.94658e-12
7.12829e-12
5.42101e-14
-4.73134e-05
7.46756e-05
-1.44388e-05
6.86272e-06
-1.21985e-06
4.99624e-07
-1.21947e-07
3.4449e-08
-1.12004e-08
2.67186e-09
-8.17594e-10
2.31206e-10
-5.88522e-11
2.32432e-11
1.17639e-12
-8.56159e-12
-1.12075e-11
1.03631e-11
1.05786e-11
-6.47811e-12
5.34707e-05
-7.68845e-05
1.52929e-05
-7.10827e-06
1.34198e-06
-5.34993e-07
1.35583e-07
-3.84545e-08
1.27024e-08
-3.02444e-09
9.88855e-10
-2.59269e-10
7.60133e-11
-1.8961e-11
7.36526e-12
-3.49915e-12
-5.233e-12
-4.56676e-12
6.72275e-12
-2.1413e-12
-5.25246e-05
7.25898e-05
-1.4616e-05
6.71323e-06
-1.28836e-06
5.09103e-07
-1.29439e-07
3.71096e-08
-1.20761e-08
2.97778e-09
-9.2462e-10
2.58439e-10
-7.32311e-11
2.43377e-11
-1.6283e-12
-9.33836e-12
-1.2052e-11
8.32283e-12
9.14769e-12
-6.85758e-12
4.98358e-05
-6.70181e-05
1.37753e-05
-6.23429e-06
1.24727e-06
-4.85481e-07
1.27413e-07
-3.68149e-08
1.20411e-08
-3.06821e-09
9.48315e-10
-2.83668e-10
6.90907e-11
-2.54006e-11
4.49431e-12
-8.4571e-12
-6.76205e-12
-2.91897e-12
4.56129e-12
-3.44234e-12
-4.32849e-05
5.69874e-05
-1.16441e-05
5.26017e-06
-1.03739e-06
4.00914e-07
-1.04684e-07
2.95675e-08
-9.79251e-09
2.34015e-09
-7.93935e-10
1.75391e-10
-7.96536e-11
7.9805e-12
-8.66221e-12
-1.36817e-11
-1.32295e-11
5.51184e-12
7.0447e-12
-6.451e-12
4.30359e-05
-5.56671e-05
1.20252e-05
-5.18018e-06
1.11669e-06
-4.14484e-07
1.13232e-07
-3.30017e-08
1.05183e-08
-2.9535e-09
8.13723e-10
-2.87519e-10
5.81296e-11
-2.40199e-11
7.40936e-12
-5.47927e-12
-2.43521e-12
1.51223e-12
4.35927e-12
-5.25838e-12
-2.11663e-05
2.83904e-05
-5.47397e-06
2.66559e-06
-4.98234e-07
2.01618e-07
-5.43168e-08
1.37648e-08
-5.43139e-09
1.09322e-09
-4.22643e-10
9.53648e-11
-3.54023e-11
1.29337e-11
3.06563e-12
-6.80741e-12
-1.12593e-11
1.90083e-12
7.25197e-12
-5.3668e-12
2.29934e-05
-2.86772e-05
6.13586e-06
-2.62323e-06
5.38235e-07
-2.01742e-07
5.44358e-08
-1.44004e-08
5.03006e-09
-1.17525e-09
3.8123e-10
-1.11607e-10
1.90408e-11
-1.17322e-11
-4.41956e-12
-2.05064e-11
-1.30639e-11
4.73552e-12
4.54101e-12
-2.87314e-12
-2.3453e-05
2.8159e-05
-6.99527e-06
2.63823e-06
-6.62501e-07
2.31648e-07
-6.39784e-08
2.05182e-08
-5.92961e-09
1.94064e-09
-5.00901e-10
1.94154e-10
-3.75947e-11
3.05474e-11
2.73761e-12
-2.54788e-12
4.74338e-12
1.06523e-11
-5.3668e-12
-2.08709e-12
)
;

boundaryField
{
    movingWall
    {
        type            extrapolatedCalculated;
        value           nonuniform List<scalar> 
20
(
-2.3453e-05
2.8159e-05
-6.99527e-06
2.63823e-06
-6.62501e-07
2.31648e-07
-6.39784e-08
2.05182e-08
-5.92961e-09
1.94064e-09
-5.00901e-10
1.94154e-10
-3.75947e-11
3.05474e-11
2.73761e-12
-2.54788e-12
4.74338e-12
1.06523e-11
-5.3668e-12
-2.08709e-12
)
;
    }
    fixedWalls
    {
        type            extrapolatedCalculated;
        value           nonuniform List<scalar> 
60
(
-7.23912e-07
9.41652e-07
-2.73525e-06
2.09589e-06
-3.4855e-06
3.06023e-06
-1.31886e-06
3.1797e-07
4.34325e-06
-1.1824e-05
3.02521e-05
-4.73134e-05
5.34707e-05
-5.25246e-05
4.98358e-05
-4.32849e-05
4.30359e-05
-2.11663e-05
2.29934e-05
-2.3453e-05
9.81203e-12
7.18284e-12
1.00831e-11
4.63496e-12
8.37546e-12
1.5992e-12
5.85469e-12
-1.68051e-12
2.95445e-12
-4.55365e-12
5.42101e-14
-6.47811e-12
-2.1413e-12
-6.85758e-12
-3.44234e-12
-6.451e-12
-5.25838e-12
-5.3668e-12
-2.87314e-12
-2.08709e-12
-7.23912e-07
-3.5447e-07
-3.22456e-08
-2.15487e-08
-8.98805e-09
1.32512e-09
-9.3498e-10
3.65268e-10
-1.28681e-10
4.84478e-11
-1.04274e-11
1.23749e-11
6.61011e-12
7.44627e-12
6.87735e-12
7.68222e-12
1.55061e-12
-7.60657e-13
5.90394e-12
9.81203e-12
)
;
    }
    frontAndBack
    {
        type            empty;
    }
}


// ************************************************************************* //
