/*--------------------------------*- C++ -*----------------------------------*\
| =========                 |                                                 |
| \\      /  F ield         | OpenFOAM: The Open Source CFD Toolbox           |
|  \\    /   O peration     | Version:  2312                                  |
|   \\  /    A nd           | Website:  www.openfoam.com                      |
|    \\/     M anipulation  |                                                 |
\*---------------------------------------------------------------------------*/
FoamFile
{
    version     2.0;
    format      ascii;
    arch        "LSB;label=32;scalar=64";
    class       volScalarField;
    location    "3.125";
    object      epsilonzeroGrad;
}
// * * * * * * * * * * * * * * * * * * * * * * * * * * * * * * * * * * * * * //

dimensions      [0 2 -3 0 0 0 0];

internalField   nonuniform List<scalar> 
400
(
6.63559e-05
6.63513e-05
6.63498e-05
6.63445e-05
6.63445e-05
6.63393e-05
6.63398e-05
6.63356e-05
6.63355e-05
6.63329e-05
6.63325e-05
6.6331e-05
6.63302e-05
6.63294e-05
6.63288e-05
6.63283e-05
6.6328e-05
6.63278e-05
6.63276e-05
6.63276e-05
0.000131369
0.000124711
0.00012517
0.00012536
0.000125751
0.000125962
0.000126356
0.000126584
0.000126982
0.000127227
0.000127631
0.000127891
0.000128302
0.000128577
0.000128996
0.000129284
0.000129712
0.000130014
0.000130233
0.000130606
0.000251712
0.000234867
0.000235977
0.00023644
0.000237394
0.000237913
0.000238875
0.000239442
0.000240416
0.000241028
0.000242018
0.000242673
0.000243682
0.000244376
0.00024541
0.00024614
0.0002472
0.000247967
0.000248512
0.000249447
0.000368325
0.000339374
0.000341193
0.000341957
0.000343536
0.000344403
0.000346
0.000346956
0.000348579
0.000349619
0.000351274
0.000352393
0.000354089
0.000355282
0.000357025
0.00035829
0.000360083
0.000361419
0.000362345
0.000363953
0.000450156
0.00041179
0.000414126
0.000415114
0.000417156
0.000418283
0.000420354
0.000421603
0.000423712
0.000425079
0.000427234
0.000428713
0.000430925
0.000432508
0.000434786
0.00043647
0.000438821
0.000440606
0.000441823
0.000443952
0.000499147
0.000454859
0.000457507
0.00045863
0.000460954
0.000462241
0.000464601
0.000466032
0.000468438
0.000470009
0.000472471
0.000474173
0.000476704
0.000478531
0.000481141
0.000483089
0.000485785
0.000487854
0.000489252
0.000491708
0.000527878
0.00048004
0.000482867
0.000484072
0.000486561
0.000487942
0.000490472
0.000492011
0.000494592
0.000496284
0.000498927
0.000500763
0.000503483
0.000505455
0.000508262
0.000510367
0.000513269
0.000515508
0.000517013
0.000519664
0.000546049
0.000495955
0.000498893
0.000500151
0.000502744
0.000504185
0.000506822
0.00050843
0.000511122
0.00051289
0.000515649
0.00051757
0.000520408
0.000522475
0.000525405
0.000527612
0.000530644
0.000532992
0.000534565
0.000537341
0.00055936
0.000507605
0.000510628
0.000511922
0.000514591
0.000516076
0.000518791
0.000520449
0.000523222
0.000525047
0.000527889
0.000529872
0.000532799
0.000534933
0.000537955
0.000540236
0.000543363
0.000545791
0.000547415
0.000550282
0.000570757
0.000517577
0.000520669
0.000521996
0.00052473
0.000526252
0.000529035
0.000530736
0.000533578
0.000535451
0.000538365
0.000540402
0.000543404
0.000545597
0.000548697
0.000551042
0.00055425
0.000556747
0.000558413
0.000561359
0.000581831
0.000527264
0.000530421
0.000531782
0.000534579
0.000536138
0.000538986
0.000540728
0.000543638
0.000545558
0.000548542
0.000550631
0.000553706
0.000555955
0.000559132
0.000561538
0.000564827
0.00056739
0.000569099
0.00057212
0.000593529
0.000537482
0.00054073
0.000542109
0.000544977
0.000546572
0.00054949
0.000551276
0.000554258
0.000556227
0.000559286
0.00056143
0.000564582
0.000566892
0.00057015
0.000572622
0.000575995
0.000578629
0.000580382
0.000583484
0.000606503
0.000548818
0.000552135
0.000553559
0.000556499
0.000558138
0.000561133
0.000562968
0.00056603
0.000568054
0.000571196
0.000573401
0.000576639
0.000579017
0.000582365
0.00058491
0.000588377
0.000591091
0.000592893
0.000596086
0.000621333
0.000561747
0.000565158
0.000566622
0.000569648
0.000571336
0.000574419
0.000576311
0.000579463
0.000581552
0.000584789
0.000587064
0.000590402
0.000592856
0.000596308
0.000598937
0.000602513
0.000605318
0.000607177
0.000610474
0.000638616
0.000576799
0.000580344
0.000581835
0.000584967
0.00058671
0.000589897
0.000591854
0.000595115
0.000597277
0.000600626
0.000602984
0.000606437
0.000608983
0.000612556
0.000615285
0.000618987
0.0006219
0.000623826
0.000627245
0.000659203
0.00059471
0.000598388
0.000599934
0.000603185
0.000604997
0.000608308
0.000610344
0.000613733
0.000615985
0.000619467
0.000621925
0.000625517
0.000628173
0.000631891
0.00063474
0.000638594
0.000641637
0.000643643
0.000647209
0.000684307
0.000616515
0.000620351
0.000621966
0.000625365
0.000627261
0.000630723
0.000632856
0.000636401
0.000638763
0.000642408
0.000644989
0.000648752
0.000651542
0.000655439
0.000658435
0.000662477
0.000665679
0.000667783
0.00067153
0.000714651
0.000642896
0.000646919
0.000648613
0.000652184
0.00065418
0.000657821
0.000660071
0.000663803
0.000666298
0.000670138
0.000672869
0.000676836
0.000679792
0.000683902
0.000687081
0.000691346
0.000694747
0.000696969
0.000700937
0.000745953
0.000672437
0.000676382
0.000678084
0.000681637
0.000683656
0.000687297
0.000689602
0.000693353
0.000695937
0.00069982
0.000702673
0.000706711
0.000709824
0.000714041
0.00071741
0.000721823
0.000725451
0.000727769
0.000731956
0.000753966
0.000753867
0.000753831
0.00075379
0.000753741
0.000753724
0.00075368
0.000753675
0.000753637
0.000753636
0.00075361
0.00075361
0.000753594
0.000753594
0.000753586
0.000753586
0.000753583
0.000753583
0.000753582
0.000753582
)
;

boundaryField
{
    movingWall
    {
        type            zeroGradient;
    }
    fixedWalls
    {
        type            zeroGradient;
    }
    frontAndBack
    {
        type            empty;
    }
}


// ************************************************************************* //
