/*--------------------------------*- C++ -*----------------------------------*\
| =========                 |                                                 |
| \\      /  F ield         | OpenFOAM: The Open Source CFD Toolbox           |
|  \\    /   O peration     | Version:  2312                                  |
|   \\  /    A nd           | Website:  www.openfoam.com                      |
|    \\/     M anipulation  |                                                 |
\*---------------------------------------------------------------------------*/
FoamFile
{
    version     2.0;
    format      ascii;
    arch        "LSB;label=32;scalar=64";
    class       volScalarField;
    location    "3.125";
    object      flowTypeField;
}
// * * * * * * * * * * * * * * * * * * * * * * * * * * * * * * * * * * * * * //

dimensions      [0 0 0 0 0 0 0];

internalField   nonuniform List<scalar> 
400
(
-0.135291
-0.0201076
-0.0440762
-0.0294548
-0.0637645
-0.0634463
-0.00219999
-0.523185
0.485083
-0.039474
0.0687602
0.0449349
0.0670166
0.0843482
0.114261
0.159846
0.260279
0.478948
0.866654
-0.0537046
-0.161125
-0.0144441
-0.0498426
-0.00705334
-0.0475175
-0.00769747
-0.0580654
0.104552
-0.464373
0.467582
0.928118
0.959837
0.832297
0.757174
0.679914
0.626877
0.581491
0.357473
0.0120621
0.167056
-0.212949
-0.0280536
-0.0820216
-0.0319144
-0.0923266
-0.106264
-0.0288325
-0.503081
0.229913
0.865845
0.765408
0.929821
0.803564
0.664543
0.554635
0.477499
0.42349
0.210567
-0.0131396
0.0999265
-0.153624
-0.00190948
-0.0702006
0.0350519
-0.0784717
0.043634
-0.045315
0.105317
0.442564
0.476309
0.946334
0.965637
0.743215
0.58678
0.456308
0.377329
0.314186
0.120437
-0.00944573
0.0347153
-0.103701
0.0111142
-0.0580852
0.0524649
-0.0460862
0.0269791
0.0680582
-0.00459003
0.25203
0.980869
0.771325
0.900994
0.712463
0.527846
0.389864
0.302352
0.243539
0.0900456
-0.0116856
0.0338304
-0.12006
0.0171608
-0.0729016
0.0761957
-0.0744393
0.0760132
0.0662309
0.00835703
0.577199
0.430964
0.962398
0.929067
0.668297
0.482227
0.339153
0.25779
0.193467
0.0577023
-0.00844756
0.0245421
-0.0506368
0.0511371
-0.0290943
0.134091
0.0110439
0.17321
0.155072
0.301589
0.157311
0.926924
0.748664
0.855535
0.642421
0.444842
0.303606
0.218034
0.157953
0.0502675
-0.00779173
0.0209814
-0.0334904
0.0584258
-0.0207022
0.143072
0.0203178
0.167834
0.212559
0.0882546
0.598457
0.289705
0.98055
0.882989
0.603504
0.412248
0.274311
0.195273
0.13263
0.0359117
-0.00582546
0.0208937
-0.0200317
0.0702063
-0.00518253
0.162781
0.0452432
0.216148
0.19085
0.336596
0.184973
0.819227
0.709361
0.792334
0.579928
0.385519
0.253468
0.1724
0.112528
0.0339882
-0.00371357
0.0181269
0.00503986
0.0800545
0.0109421
0.175071
0.0718021
0.216778
0.271274
0.188114
0.573943
0.128838
0.887917
0.834707
0.543859
0.364684
0.237732
0.161612
0.100793
0.0279086
-0.00302042
0.0183883
0.0443769
0.0920175
0.0358426
0.194241
0.0882209
0.262906
0.237216
0.360767
0.320273
0.701177
0.666852
0.720784
0.534028
0.351
0.231045
0.153009
0.0924247
0.028381
-0.000784181
0.0157862
0.104919
0.099377
0.0638508
0.196643
0.121759
0.260632
0.282305
0.291597
0.518821
0.291552
0.780843
0.807638
0.508945
0.354257
0.233978
0.157481
0.0955761
0.0295904
-0.00157517
0.0140023
0.156282
0.101683
0.0827154
0.198397
0.148686
0.278647
0.291269
0.375434
0.406891
0.620541
0.693106
0.673291
0.539007
0.364578
0.252122
0.171061
0.104158
0.0347957
0.00113415
0.0106876
0.17905
0.0927688
0.0841478
0.181813
0.145024
0.259347
0.284155
0.317433
0.486784
0.371612
0.718701
0.818272
0.538487
0.406879
0.284973
0.201279
0.130503
0.0479464
0.000327126
0.00769964
0.190669
0.0825003
0.0837059
0.161806
0.144037
0.243254
0.264661
0.350491
0.378782
0.579796
0.751405
0.697777
0.615587
0.451508
0.338788
0.247834
0.167829
0.0663143
0.00739259
0.00520699
0.13302
0.0565978
0.0570258
0.11545
0.0982431
0.17344
0.207878
0.212909
0.396682
0.357466
0.70155
0.876799
0.639786
0.532495
0.407855
0.313625
0.225812
0.0999737
0.0128657
0.00848654
0.261096
0.0800542
0.0983611
0.150992
0.157951
0.241067
0.260663
0.368458
0.37673
0.594739
0.826329
0.774869
0.741923
0.600536
0.495476
0.395449
0.299506
0.141445
0.0273664
0.0166788
0.204361
0.0434968
0.0661452
0.0753583
0.103829
0.109984
0.190738
0.100106
0.392103
0.376631
0.784795
0.950767
0.788193
0.713086
0.611957
0.526605
0.43688
0.240079
0.0368798
0.00765495
-0.0111206
-0.000857227
-0.00455055
0.00542953
-0.0217842
0.0249036
-0.028584
0.067084
0.203781
0.45288
0.823276
0.873699
0.913891
0.831112
0.779755
0.729825
0.683304
0.469986
0.101389
-0.0545923
0.00792148
0.00688503
0.0047837
0.0238028
-0.00539684
0.0928406
-0.102691
0.454758
-0.621225
0.352834
-0.0675504
0.0991437
0.0532531
0.0940074
0.108592
0.148128
0.222947
0.376195
0.554297
-0.289097
)
;

boundaryField
{
    movingWall
    {
        type            calculated;
        value           nonuniform List<scalar> 
20
(
0.599059
0.192855
0.116626
0.150035
0.0492375
0.13043
-0.106795
0.466965
-0.275169
0.206464
-0.0565555
0.0293128
-0.000886927
0.0157628
0.0150587
0.0267328
0.0560564
0.161336
0.664149
-0.339504
)
;
    }
    fixedWalls
    {
        type            calculated;
        value           nonuniform List<scalar> 
60
(
-0.0264185
-0.0290425
-0.0429456
-0.0148922
-0.0014201
0.00820603
0.0447886
0.0537241
0.0689615
0.081493
0.0977345
0.109187
0.11146
0.101721
0.090551
0.0645901
0.0856062
0.0472163
0.00844856
0.0125306
0.562159
0.787405
0.737918
0.750308
0.87633
0.793843
0.444998
0.207648
0.108662
0.0667305
0.0533196
0.0501832
0.0506223
0.0558814
0.0617863
0.09783
0.203474
0.471009
0.867215
0.624429
0.785218
0.255009
0.280338
0.24762
0.242762
0.250641
0.256148
-0.0971526
0.261046
-0.0205536
0.0330205
0.0145379
0.0199164
0.0206096
0.0267677
0.0413064
0.0862382
0.30015
0.410626
-0.0882656
)
;
    }
    frontAndBack
    {
        type            empty;
    }
}


// ************************************************************************* //
