/*--------------------------------*- C++ -*----------------------------------*\
| =========                 |                                                 |
| \\      /  F ield         | OpenFOAM: The Open Source CFD Toolbox           |
|  \\    /   O peration     | Version:  2312                                  |
|   \\  /    A nd           | Website:  www.openfoam.com                      |
|    \\/     M anipulation  |                                                 |
\*---------------------------------------------------------------------------*/
FoamFile
{
    version     2.0;
    format      ascii;
    arch        "LSB;label=32;scalar=64";
    class       surfaceScalarField;
    location    "3.125";
    object      fluxField;
}
// * * * * * * * * * * * * * * * * * * * * * * * * * * * * * * * * * * * * * //

dimensions      [0 3 -1 0 0 0 0];

oriented        oriented;

internalField   nonuniform List<scalar> 
760
(
-5e-05
-3.37418e-13
-5e-05
6.81459e-14
-5e-05
-1.66717e-14
-5e-05
2.47814e-15
-5e-05
-1.39701e-15
-5e-05
-3.15941e-16
-5e-05
-3.47817e-16
-5e-05
-1.56349e-16
-5e-05
-5.74592e-17
-5e-05
2.29675e-17
-5e-05
7.10579e-17
-5e-05
9.6701e-17
-5e-05
1.04367e-16
-5e-05
9.86876e-17
-5e-05
8.40509e-17
-5e-05
6.55497e-17
-5e-05
4.92852e-17
-5e-05
3.26137e-17
-5e-05
5.31813e-18
-4.54627e-19
-5e-05
7.16942e-13
-5e-05
-1.3594e-13
-5e-05
2.89939e-14
-5e-05
-7.09947e-15
-5e-05
-4.33717e-16
-5e-05
-1.13461e-15
-5e-05
-6.12925e-16
-5e-05
-3.03732e-16
-5e-05
-9.19239e-17
-5e-05
6.46222e-17
-5e-05
1.56376e-16
-5e-05
2.04164e-16
-5e-05
2.16393e-16
-5e-05
2.02685e-16
-5e-05
1.71771e-16
-5e-05
1.33291e-16
-5e-05
9.9434e-17
-5e-05
6.64249e-17
-5e-05
1.06772e-17
-6.79179e-19
-5e-05
-1.14756e-12
-5e-05
2.26846e-13
-5e-05
-5.75387e-14
-5e-05
7.3957e-15
-5e-05
-4.3814e-15
-5e-05
-1.01694e-15
-5e-05
-9.01115e-16
-5e-05
-3.76925e-16
-5e-05
-7.21478e-17
-5e-05
1.39503e-16
-5e-05
2.68045e-16
-5e-05
3.28291e-16
-5e-05
3.3975e-16
-5e-05
3.1378e-16
-5e-05
2.64053e-16
-5e-05
2.04074e-16
-5e-05
1.51291e-16
-5e-05
1.00737e-16
-5e-05
1.72344e-17
-6.60906e-19
-5e-05
1.85481e-12
-5e-05
-4.22589e-13
-5e-05
9.29927e-14
-5e-05
-2.66626e-14
-5e-05
2.44954e-15
-5e-05
-2.95974e-15
-5e-05
-6.28697e-16
-5e-05
-4.3418e-16
-5e-05
3.82283e-17
-5e-05
2.64207e-16
-5e-05
4.1485e-16
-5e-05
4.75165e-16
-5e-05
4.77411e-16
-5e-05
4.33755e-16
-5e-05
3.61709e-16
-5e-05
2.78114e-16
-5e-05
2.05078e-16
-5e-05
1.36102e-16
-5e-05
2.50049e-17
-3.49791e-19
-5e-05
-2.31714e-12
-5e-05
4.53018e-13
-5e-05
-1.1251e-13
-5e-05
1.50412e-14
-5e-05
-6.70914e-15
-5e-05
-9.94268e-16
-5e-05
-8.18154e-16
-5e-05
-2.01628e-16
-5e-05
2.17518e-16
-5e-05
4.55848e-16
-5e-05
6.01332e-16
-5e-05
6.47424e-16
-5e-05
6.30383e-16
-5e-05
5.62615e-16
-5e-05
4.64435e-16
-5e-05
3.55022e-16
-5e-05
2.60291e-16
-5e-05
1.7186e-16
-5e-05
3.40838e-17
2.99847e-19
-5e-05
3.34244e-12
-5e-05
-7.75644e-13
-5e-05
1.75322e-13
-5e-05
-4.63948e-14
-5e-05
7.22688e-15
-5e-05
-3.6054e-15
-5e-05
1.01507e-16
-5e-05
-9.42311e-18
-5e-05
5.22365e-16
-5e-05
7.07142e-16
-5e-05
8.26727e-16
-5e-05
8.43071e-16
-5e-05
7.95976e-16
-5e-05
6.98063e-16
-5e-05
5.70203e-16
-5e-05
4.33206e-16
-5e-05
3.15686e-16
-5e-05
2.07436e-16
-5e-05
4.41994e-17
1.28681e-18
-5e-05
-4.09108e-12
-5e-05
9.11118e-13
-5e-05
-2.19231e-13
-5e-05
4.46506e-14
-5e-05
-1.23969e-14
-5e-05
1.8513e-15
-5e-05
-3.75719e-16
-5e-05
6.92566e-16
-5e-05
8.39047e-16
-5e-05
1.02698e-15
-5e-05
1.0795e-15
-5e-05
1.05506e-15
-5e-05
9.68285e-16
-5e-05
8.35309e-16
-5e-05
6.75416e-16
-5e-05
5.10117e-16
-5e-05
3.6956e-16
-5e-05
2.4148e-16
-5e-05
5.50526e-17
2.55727e-18
-5e-05
5.01677e-12
-5e-05
-1.15431e-12
-5e-05
2.6859e-13
-5e-05
-6.30004e-14
-5e-05
1.36934e-14
-5e-05
-2.76034e-15
-5e-05
1.51986e-15
-5e-05
9.84914e-16
-5e-05
1.32454e-15
-5e-05
1.35699e-15
-5e-05
1.35134e-15
-5e-05
1.26966e-15
-5e-05
1.13823e-15
-5e-05
9.67403e-16
-5e-05
7.75035e-16
-5e-05
5.82115e-16
-5e-05
4.19371e-16
-5e-05
2.72737e-16
-5e-05
6.60149e-17
4.00705e-18
-5e-05
-5.76286e-12
-5e-05
1.34632e-12
-5e-05
-3.24681e-13
-5e-05
7.38645e-14
-5e-05
-1.63528e-14
-5e-05
5.62533e-15
-5e-05
7.66574e-16
-5e-05
1.97431e-15
-5e-05
1.7014e-15
-5e-05
1.71574e-15
-5e-05
1.60932e-15
-5e-05
1.47223e-15
-5e-05
1.29384e-15
-5e-05
1.08594e-15
-5e-05
8.63069e-16
-5e-05
6.45117e-16
-5e-05
4.62522e-16
-5e-05
2.99417e-16
-5e-05
7.6536e-17
5.46475e-18
-5e-05
5.87262e-12
-5e-05
-1.49142e-12
-5e-05
3.63083e-13
-5e-05
-8.08686e-14
-5e-05
2.53913e-14
-5e-05
-1.72393e-15
-5e-05
3.83386e-15
-5e-05
2.07041e-15
-5e-05
2.22623e-15
-5e-05
1.99116e-15
-5e-05
1.8418e-15
-5e-05
1.64219e-15
-5e-05
1.42329e-15
-5e-05
1.18213e-15
-5e-05
9.33358e-16
-5e-05
6.94764e-16
-5e-05
4.96075e-16
-5e-05
3.20136e-16
-5e-05
8.58423e-17
6.74085e-18
-5e-05
-3.78385e-12
-5e-05
1.21412e-12
-5e-05
-2.6363e-13
-5e-05
9.14695e-14
-5e-05
-1.43044e-14
-5e-05
9.13688e-15
-5e-05
1.84709e-15
-5e-05
3.04994e-15
-5e-05
2.38314e-15
-5e-05
2.24932e-15
-5e-05
2.00315e-15
-5e-05
1.76919e-15
-5e-05
1.5146e-15
-5e-05
1.2483e-15
-5e-05
9.80185e-16
-5e-05
7.27169e-16
-5e-05
5.17558e-16
-5e-05
3.33193e-16
-5e-05
9.33836e-17
7.65572e-18
-5e-05
2.6019e-12
-5e-05
-7.72175e-13
-5e-05
1.93883e-13
-5e-05
-5.03046e-14
-5e-05
1.94591e-14
-5e-05
-4.09705e-16
-5e-05
4.48782e-15
-5e-05
2.57747e-15
-5e-05
2.71698e-15
-5e-05
2.33669e-15
-5e-05
2.11277e-15
-5e-05
1.83553e-15
-5e-05
1.56164e-15
-5e-05
1.27796e-15
-5e-05
9.99041e-16
-5e-05
7.38898e-16
-5e-05
5.24588e-16
-5e-05
3.37514e-16
-5e-05
9.83797e-17
8.11431e-18
-5e-05
-2.06489e-12
-5e-05
5.77774e-13
-5e-05
-1.38413e-13
-5e-05
4.20027e-14
-5e-05
-7.12636e-15
-5e-05
6.01445e-15
-5e-05
2.3296e-15
-5e-05
3.11977e-15
-5e-05
2.61426e-15
-5e-05
2.42348e-15
-5e-05
2.12868e-15
-5e-05
1.8479e-15
-5e-05
1.55728e-15
-5e-05
1.26768e-15
-5e-05
9.8648e-16
-5e-05
7.27675e-16
-5e-05
5.15633e-16
-5e-05
3.31702e-16
-5e-05
1.00235e-16
8.11837e-18
-5e-05
1.5977e-12
-5e-05
-4.52364e-13
-5e-05
1.0913e-13
-5e-05
-3.13546e-14
-5e-05
1.11784e-14
-5e-05
5.10019e-16
-5e-05
3.81399e-15
-5e-05
2.71268e-15
-5e-05
2.73455e-15
-5e-05
2.3691e-15
-5e-05
2.09927e-15
-5e-05
1.79361e-15
-5e-05
1.50221e-15
-5e-05
1.21407e-15
-5e-05
9.40633e-16
-5e-05
6.91724e-16
-5e-05
4.89283e-16
-5e-05
3.15029e-16
-5e-05
9.81846e-17
7.74531e-18
-5e-05
-1.14344e-12
-5e-05
2.21058e-13
-5e-05
-5.13195e-14
-5e-05
9.81354e-15
-5e-05
1.62902e-15
-5e-05
3.29339e-15
-5e-05
3.3498e-15
-5e-05
2.92152e-15
-5e-05
2.67289e-15
-5e-05
2.30337e-15
-5e-05
1.9925e-15
-5e-05
1.68031e-15
-5e-05
1.39152e-15
-5e-05
1.11588e-15
-5e-05
8.59866e-16
-5e-05
6.30152e-16
-5e-05
4.44926e-16
-5e-05
2.86591e-16
-5e-05
9.15763e-17
7.03631e-18
-5e-05
1.00417e-12
-5e-05
-4.04253e-13
-5e-05
1.07466e-13
-5e-05
-3.26506e-14
-5e-05
1.53518e-14
-5e-05
6.41094e-16
-5e-05
4.70216e-15
-5e-05
2.74389e-15
-5e-05
2.6824e-15
-5e-05
2.12979e-15
-5e-05
1.81491e-15
-5e-05
1.49304e-15
-5e-05
1.22178e-15
-5e-05
9.70161e-16
-5e-05
7.43251e-16
-5e-05
5.42733e-16
-5e-05
3.82777e-16
-5e-05
2.46882e-16
-5e-05
8.04743e-17
5.74816e-18
-5e-05
-7.37374e-13
-5e-05
1.74796e-13
-5e-05
-2.64138e-14
-5e-05
2.12583e-14
-5e-05
5.30272e-15
-5e-05
6.5776e-15
-5e-05
3.88338e-15
-5e-05
3.19263e-15
-5e-05
2.35648e-15
-5e-05
1.90065e-15
-5e-05
1.51932e-15
-5e-05
1.23473e-15
-5e-05
9.91358e-16
-5e-05
7.81058e-16
-5e-05
5.94531e-16
-5e-05
4.33158e-16
-5e-05
3.05509e-16
-5e-05
1.97588e-16
-5e-05
6.56676e-17
3.58403e-18
-5e-05
1.63951e-13
-5e-05
2.78853e-13
-5e-05
-4.73788e-14
-5e-05
6.16627e-14
-5e-05
-2.57706e-15
-5e-05
1.23041e-14
-5e-05
2.3119e-15
-5e-05
3.34817e-15
-5e-05
1.71375e-15
-5e-05
1.50786e-15
-5e-05
1.09912e-15
-5e-05
8.95343e-16
-5e-05
7.02108e-16
-5e-05
5.50315e-16
-5e-05
4.16016e-16
-5e-05
3.02471e-16
-5e-05
2.13755e-16
-5e-05
1.40439e-16
-5e-05
4.91452e-17
1.00824e-18
-5e-05
-6.8675e-13
-5e-05
7.93406e-13
-5e-05
-1.81568e-13
-5e-05
1.08012e-13
-5e-05
-2.11603e-14
-5e-05
1.46322e-14
-5e-05
-7.21988e-16
-5e-05
2.68037e-15
-5e-05
7.458e-16
-5e-05
8.92637e-16
-5e-05
5.61277e-16
-5e-05
4.73908e-16
-5e-05
3.59938e-16
-5e-05
2.82232e-16
-5e-05
2.11541e-16
-5e-05
1.5333e-16
-5e-05
1.09118e-16
-5e-05
7.47267e-17
-5e-05
2.84504e-17
-4.00532e-19
-5e-05
-5e-05
-5e-05
-5e-05
-5e-05
-5e-05
-5e-05
-5e-05
-5e-05
-5e-05
-5e-05
-5e-05
-5e-05
-5e-05
-5e-05
-5e-05
-5e-05
-5e-05
-5e-05
)
;

boundaryField
{
    movingWall
    {
        type            calculated;
        value           uniform -0;
    }
    fixedWalls
    {
        type            calculated;
        value           nonuniform List<scalar> 
60
(
5e-05
5e-05
5e-05
5e-05
5e-05
5e-05
5e-05
5e-05
5e-05
5e-05
5e-05
5e-05
5e-05
5e-05
5e-05
5e-05
5e-05
5e-05
5e-05
5e-05
-5e-05
-5e-05
-5e-05
-5e-05
-5e-05
-5e-05
-5e-05
-5e-05
-5e-05
-5e-05
-5e-05
-5e-05
-5e-05
-5e-05
-5e-05
-5e-05
-5e-05
-5e-05
-5e-05
-5e-05
0
0
0
0
0
0
0
0
0
0
0
0
0
0
0
0
0
0
0
0
)
;
    }
    frontAndBack
    {
        type            empty;
        value           nonuniform List<scalar> 0();
    }
}


// ************************************************************************* //
