/*--------------------------------*- C++ -*----------------------------------*\
| =========                 |                                                 |
| \\      /  F ield         | OpenFOAM: The Open Source CFD Toolbox           |
|  \\    /   O peration     | Version:  2312                                  |
|   \\  /    A nd           | Website:  www.openfoam.com                      |
|    \\/     M anipulation  |                                                 |
\*---------------------------------------------------------------------------*/
FoamFile
{
    version     2.0;
    format      ascii;
    arch        "LSB;label=32;scalar=64";
    class       volTensorField;
    location    "3.125";
    object      gradU;
}
// * * * * * * * * * * * * * * * * * * * * * * * * * * * * * * * * * * * * * //

dimensions      [0 0 -1 0 0 0 0];

internalField   nonuniform List<tensor> 
400
(
(6.25761e-07 2.34478e-05 0 -3.23426e-06 -1.34967e-06 0 0 0 0)
(-6.27053e-07 -2.86324e-05 0 5.84228e-07 2.72584e-07 0 0 0 0)
(3.44413e-08 6.43319e-06 0 -2.84029e-07 -6.66869e-08 0 0 0 0)
(-3.14613e-08 -1.53021e-06 0 4.54492e-08 9.91257e-09 0 0 0 0)
(-3.4e-09 3.45623e-07 0 -2.21088e-08 -5.58805e-09 0 0 0 0)
(2.58889e-09 -8.00266e-08 0 5.13627e-09 -1.26376e-09 0 0 0 0)
(4.56286e-10 1.90252e-08 0 -9.84456e-11 -1.39127e-09 0 0 0 0)
(9.90663e-10 -4.01694e-09 0 2.71479e-09 -6.25395e-10 0 0 0 0)
(1.01156e-10 1.18693e-09 0 2.45602e-09 -2.29837e-10 0 0 0 0)
(-4.34223e-11 -1.05908e-10 0 2.62914e-09 9.18701e-11 0 0 0 0)
(-2.94659e-10 1.29123e-10 0 2.33272e-09 2.84232e-10 0 0 0 0)
(-3.74429e-10 2.17739e-11 0 1.97482e-09 3.86804e-10 0 0 0 0)
(-4.10858e-10 6.38665e-12 0 1.5413e-09 4.17469e-10 0 0 0 0)
(-3.87304e-10 -1.98039e-11 0 1.12014e-09 3.9475e-10 0 0 0 0)
(-3.29326e-10 -3.11584e-11 0 7.44196e-10 3.36204e-10 0 0 0 0)
(-2.54516e-10 -3.28398e-11 0 4.46773e-10 2.62199e-10 0 0 0 0)
(-1.9559e-10 -3.42568e-11 0 2.20988e-10 1.97141e-10 0 0 0 0)
(-1.31216e-10 -4.34734e-11 0 4.87349e-11 1.30455e-10 0 0 0 0)
(-1.53686e-11 -3.13181e-11 0 -3.68629e-11 2.12725e-11 0 0 0 0)
(1.16281e-11 -5.49361e-12 0 1.71033e-11 -1.81851e-12 0 0 0 0)
(-3.27579e-06 -2.45249e-05 0 4.76074e-06 4.21744e-06 0 0 0 0)
(3.57728e-06 2.99154e-05 0 -6.63745e-07 -8.16342e-07 0 0 0 0)
(-5.7322e-07 -6.69586e-06 0 3.63609e-07 1.82662e-07 0 0 0 0)
(2.93381e-07 1.59131e-06 0 -3.9124e-08 -3.83105e-08 0 0 0 0)
(-3.69129e-08 -3.56799e-07 0 1.90776e-08 3.85318e-09 0 0 0 0)
(1.94214e-08 8.42233e-08 0 -2.98744e-09 -3.27469e-09 0 0 0 0)
(-2.8778e-09 -1.83869e-08 0 1.35523e-09 -1.06043e-09 0 0 0 0)
(1.56383e-09 5.17837e-09 0 3.23743e-10 -5.89535e-10 0 0 0 0)
(-1.86808e-10 -4.69662e-10 0 4.33437e-10 -1.37859e-10 0 0 0 0)
(-7.98786e-11 6.19976e-10 0 2.79995e-10 1.66619e-10 0 0 0 0)
(-3.5963e-10 1.65811e-10 0 1.95211e-10 3.41272e-10 0 0 0 0)
(-4.17011e-10 1.11463e-10 0 1.29508e-10 4.29852e-10 0 0 0 0)
(-4.43818e-10 1.55966e-12 0 8.35649e-11 4.48103e-10 0 0 0 0)
(-4.09801e-10 -6.14608e-11 0 5.26651e-11 4.1599e-10 0 0 0 0)
(-3.44044e-10 -1.01393e-10 0 3.16858e-11 3.50879e-10 0 0 0 0)
(-2.68638e-10 -1.06223e-10 0 1.91362e-11 2.70965e-10 0 0 0 0)
(-2.02475e-10 -9.7487e-11 0 1.15739e-11 2.00595e-10 0 0 0 0)
(-1.26635e-10 -1.32395e-10 0 5.42101e-12 1.35245e-10 0 0 0 0)
(-1.62359e-11 -1.00955e-10 0 2.27682e-12 2.14363e-11 0 0 0 0)
(8.07731e-12 -1.39604e-11 0 -6.77626e-13 -8.98209e-13 0 0 0 0)
(4.72275e-06 2.68489e-05 0 -7.99712e-06 -7.458e-06 0 0 0 0)
(-5.02418e-06 -3.26672e-05 0 1.35935e-06 1.45114e-06 0 0 0 0)
(6.59063e-07 7.21122e-06 0 -6.3679e-07 -3.4613e-07 0 0 0 0)
(-3.75993e-07 -1.70902e-06 0 9.9716e-08 5.79807e-08 0 0 0 0)
(3.27365e-08 3.80659e-07 0 -3.72342e-08 -1.57907e-08 0 0 0 0)
(-1.51335e-08 -8.49402e-08 0 1.06999e-08 4.70708e-10 0 0 0 0)
(3.76741e-09 2.17104e-08 0 -1.00487e-09 -1.15276e-09 0 0 0 0)
(6.8901e-11 -3.09437e-09 0 1.60137e-09 -2.9277e-10 0 0 0 0)
(5.74356e-11 1.94308e-09 0 4.45201e-10 7.91043e-11 0 0 0 0)
(-2.81622e-10 3.73223e-10 0 4.45417e-10 2.99523e-10 0 0 0 0)
(-4.45146e-10 3.92357e-10 0 2.46575e-10 4.46675e-10 0 0 0 0)
(-4.86102e-10 1.28605e-10 0 1.6591e-10 4.96508e-10 0 0 0 0)
(-4.87674e-10 -7.47612e-12 0 9.9855e-11 4.93428e-10 0 0 0 0)
(-4.39183e-10 -1.17028e-10 0 6.13929e-11 4.44379e-10 0 0 0 0)
(-3.62882e-10 -1.76183e-10 0 3.72694e-11 3.69128e-10 0 0 0 0)
(-2.74656e-10 -1.83124e-10 0 2.2199e-11 2.83133e-10 0 0 0 0)
(-2.09305e-10 -1.69977e-10 0 1.07065e-11 2.07428e-10 0 0 0 0)
(-1.40513e-10 -2.22632e-10 0 6.77626e-12 1.3725e-10 0 0 0 0)
(-2.14401e-11 -1.67461e-10 0 5.71917e-12 2.62289e-11 0 0 0 0)
(1.00289e-11 -2.60317e-11 0 -1.02999e-12 7.30914e-14 0 0 0 0)
(-9.91356e-06 -3.05317e-05 0 1.02635e-05 1.20094e-05 0 0 0 0)
(1.09376e-05 3.70273e-05 0 -1.78396e-06 -2.59774e-06 0 0 0 0)
(-1.83286e-06 -8.08903e-06 0 8.33268e-07 6.02126e-07 0 0 0 0)
(8.92937e-07 1.92165e-06 0 -1.29845e-07 -1.36233e-07 0 0 0 0)
(-1.25929e-07 -4.14309e-07 0 5.60691e-08 2.73237e-08 0 0 0 0)
(5.56508e-08 9.88613e-08 0 -1.02263e-08 -7.77122e-09 0 0 0 0)
(-1.19763e-08 -1.91504e-08 0 5.04349e-09 1.08967e-09 0 0 0 0)
(3.01387e-09 6.41024e-09 0 1.03731e-10 -2.29019e-10 0 0 0 0)
(-1.34281e-09 1.22632e-10 0 1.01058e-09 4.41504e-10 0 0 0 0)
(-2.78504e-10 9.87547e-10 0 4.13759e-10 4.98815e-10 0 0 0 0)
(-6.39137e-10 3.62795e-10 0 3.24014e-10 5.87223e-10 0 0 0 0)
(-5.63704e-10 1.58216e-10 0 1.79192e-10 5.87496e-10 0 0 0 0)
(-5.48335e-10 -5.05699e-11 0 1.11564e-10 5.50644e-10 0 0 0 0)
(-4.7236e-10 -1.85761e-10 0 6.4239e-11 4.79901e-10 0 0 0 0)
(-3.83238e-10 -2.62639e-10 0 3.8191e-11 3.90626e-10 0 0 0 0)
(-2.95228e-10 -2.67923e-10 0 2.1684e-11 2.96158e-10 0 0 0 0)
(-2.17898e-10 -2.43371e-10 0 1.26852e-11 2.1515e-10 0 0 0 0)
(-1.31595e-10 -3.13594e-10 0 8.13152e-12 1.41457e-10 0 0 0 0)
(-2.40693e-11 -2.38132e-10 0 5.55654e-12 3.1082e-11 0 0 0 0)
(3.38813e-12 -4.02624e-11 0 -1.24683e-12 1.24446e-12 0 0 0 0)
(1.32023e-05 3.62606e-05 0 -1.16274e-05 -1.66878e-05 0 0 0 0)
(-1.44544e-05 -4.40745e-05 0 1.96281e-06 3.50243e-06 0 0 0 0)
(2.31318e-06 9.67273e-06 0 -9.12524e-07 -8.22011e-07 0 0 0 0)
(-1.15319e-06 -2.28382e-06 0 1.46153e-07 1.66815e-07 0 0 0 0)
(1.52355e-07 5.0912e-07 0 -4.99715e-08 -3.66347e-08 0 0 0 0)
(-6.61592e-08 -1.11174e-07 0 1.58291e-08 7.86189e-09 0 0 0 0)
(1.40975e-08 2.92526e-08 0 -9.61362e-10 -7.57828e-10 0 0 0 0)
(-3.96406e-09 -3.74253e-09 0 2.25872e-09 9.30206e-10 0 0 0 0)
(3.67463e-10 2.67091e-09 0 6.01055e-10 7.17159e-10 0 0 0 0)
(-9.68193e-10 5.18941e-10 0 5.38659e-10 7.66564e-10 0 0 0 0)
(-6.79713e-10 4.81038e-10 0 2.72677e-10 7.45927e-10 0 0 0 0)
(-6.98579e-10 9.20266e-11 0 1.65531e-10 6.89036e-10 0 0 0 0)
(-6.026e-10 -1.15071e-10 0 8.89046e-11 6.1189e-10 0 0 0 0)
(-5.12584e-10 -2.77046e-10 0 4.84096e-11 5.15439e-10 0 0 0 0)
(-4.0541e-10 -3.59926e-10 0 2.70779e-11 4.10902e-10 0 0 0 0)
(-3.00161e-10 -3.586e-10 0 1.53415e-11 3.07632e-10 0 0 0 0)
(-2.22858e-10 -3.24678e-10 0 7.20994e-12 2.2085e-10 0 0 0 0)
(-1.47668e-10 -4.067e-10 0 6.34258e-12 1.43035e-10 0 0 0 0)
(-3.08456e-11 -3.07674e-10 0 7.37257e-12 3.63156e-11 0 0 0 0)
(5.77338e-12 -5.83581e-11 0 -1.65341e-12 2.59855e-12 0 0 0 0)
(-1.95781e-05 -4.37171e-05 0 1.88017e-05 2.26383e-05 0 0 0 0)
(2.16524e-05 5.2893e-05 0 -3.58868e-06 -4.91465e-06 0 0 0 0)
(-3.64951e-06 -1.14246e-05 0 1.57815e-06 1.15133e-06 0 0 0 0)
(1.75549e-06 2.70703e-06 0 -2.85087e-07 -2.45744e-07 0 0 0 0)
(-2.56253e-07 -5.73262e-07 0 1.12951e-07 5.57441e-08 0 0 0 0)
(1.04661e-07 1.34738e-07 0 -2.43331e-08 -1.04445e-08 0 0 0 0)
(-2.55467e-08 -2.6082e-08 0 9.15457e-09 3.67865e-09 0 0 0 0)
(4.57628e-09 7.88522e-09 0 -1.27499e-09 7.6882e-10 0 0 0 0)
(-3.06287e-09 -4.10101e-11 0 1.25014e-09 1.21939e-09 0 0 0 0)
(-6.06855e-10 1.01632e-09 0 1.98219e-10 1.00518e-09 0 0 0 0)
(-1.01232e-09 2.85268e-10 0 2.47144e-10 9.01581e-10 0 0 0 0)
(-7.47422e-10 2.41786e-11 0 8.05833e-11 7.82585e-10 0 0 0 0)
(-6.65483e-10 -2.24167e-10 0 4.2311e-11 6.62369e-10 0 0 0 0)
(-5.34241e-10 -3.86749e-10 0 1.1357e-11 5.41792e-10 0 0 0 0)
(-4.16307e-10 -4.70446e-10 0 3.55076e-12 4.23073e-10 0 0 0 0)
(-3.15069e-10 -4.57976e-10 0 4.33681e-13 3.12738e-10 0 0 0 0)
(-2.26842e-10 -4.07968e-10 0 1.19262e-12 2.21579e-10 0 0 0 0)
(-1.3146e-10 -4.98128e-10 0 4.68917e-12 1.42302e-10 0 0 0 0)
(-3.20382e-11 -3.78568e-10 0 6.77626e-12 4.04623e-11 0 0 0 0)
(-2.35814e-12 -7.91766e-11 0 -1.81604e-12 3.94784e-12 0 0 0 0)
(2.84152e-05 5.39843e-05 0 -2.03642e-05 -2.97341e-05 0 0 0 0)
(-3.16779e-05 -6.55615e-05 0 3.82884e-06 6.74705e-06 0 0 0 0)
(5.61677e-06 1.43416e-05 0 -1.67833e-06 -1.57821e-06 0 0 0 0)
(-2.61839e-06 -3.37941e-06 0 3.12645e-07 3.64181e-07 0 0 0 0)
(4.13109e-07 7.4442e-07 0 -1.07748e-07 -7.84951e-08 0 0 0 0)
(-1.69955e-07 -1.6324e-07 0 3.123e-08 2.18268e-08 0 0 0 0)
(3.71556e-08 4.0466e-08 0 -5.67488e-09 -1.90891e-09 0 0 0 0)
(-1.18684e-08 -6.20179e-09 0 3.19289e-09 2.80796e-09 0 0 0 0)
(1.8407e-09 2.90727e-09 0 -1.47587e-10 1.26673e-09 0 0 0 0)
(-1.97122e-09 2.01132e-10 0 3.28757e-10 1.27934e-09 0 0 0 0)
(-7.97376e-10 2.58447e-10 0 -5.80048e-12 1.0111e-09 0 0 0 0)
(-9.03357e-10 -1.47186e-10 0 -1.02186e-11 8.47948e-10 0 0 0 0)
(-6.7188e-10 -3.55864e-10 0 -4.68104e-11 6.89239e-10 0 0 0 0)
(-5.51263e-10 -5.16342e-10 0 -4.22297e-11 5.48984e-10 0 0 0 0)
(-4.16388e-10 -5.8898e-10 0 -3.20924e-11 4.20853e-10 0 0 0 0)
(-3.02547e-10 -5.60093e-10 0 -1.97054e-11 3.07644e-10 0 0 0 0)
(-2.18575e-10 -4.95113e-10 0 -1.05168e-11 2.15497e-10 0 0 0 0)
(-1.42058e-10 -5.87817e-10 0 1.6263e-13 1.36178e-10 0 0 0 0)
(-3.73508e-11 -4.46028e-10 0 7.20994e-12 4.34128e-11 0 0 0 0)
(7.86047e-13 -1.02768e-10 0 -2.03288e-12 5.08186e-12 0 0 0 0)
(-3.61134e-05 -6.67041e-05 0 2.3554e-05 3.64314e-05 0 0 0 0)
(4.03383e-05 8.10489e-05 0 -4.50746e-06 -8.26172e-06 0 0 0 0)
(-7.16571e-06 -1.78075e-05 0 1.98581e-06 1.95129e-06 0 0 0 0)
(3.32607e-06 4.20674e-06 0 -3.67742e-07 -4.30604e-07 0 0 0 0)
(-5.37668e-07 -9.15617e-07 0 1.38139e-07 1.04361e-07 0 0 0 0)
(2.06734e-07 2.11324e-07 0 -3.32985e-08 -1.84465e-08 0 0 0 0)
(-5.35837e-08 -4.51009e-08 0 9.66851e-09 7.5823e-09 0 0 0 0)
(1.01035e-08 1.10609e-08 0 -2.82549e-09 1.16939e-09 0 0 0 0)
(-5.92701e-09 -1.56963e-09 0 6.57948e-10 1.94199e-09 0 0 0 0)
(-4.65123e-10 7.60685e-10 0 -3.52366e-10 1.32005e-09 0 0 0 0)
(-1.35127e-09 -1.46122e-10 0 -1.21891e-10 1.08737e-09 0 0 0 0)
(-7.88459e-10 -2.9768e-10 0 -1.90847e-10 8.58397e-10 0 0 0 0)
(-6.97494e-10 -5.23131e-10 0 -1.44633e-10 6.7978e-10 0 0 0 0)
(-5.19523e-10 -6.55134e-10 0 -1.14112e-10 5.28378e-10 0 0 0 0)
(-3.93728e-10 -7.11786e-10 0 -7.56773e-11 3.98475e-10 0 0 0 0)
(-2.93521e-10 -6.63332e-10 0 -4.58618e-11 2.8799e-10 0 0 0 0)
(-2.06974e-10 -5.79433e-10 0 -2.29851e-11 1.99244e-10 0 0 0 0)
(-1.13733e-10 -6.70212e-10 0 -4.25549e-12 1.25026e-10 0 0 0 0)
(-3.42879e-11 -5.09665e-10 0 6.04443e-12 4.38493e-11 0 0 0 0)
(-7.48099e-12 -1.27671e-10 0 -2.33103e-12 5.79914e-12 0 0 0 0)
(4.74618e-05 8.2154e-05 0 -2.78615e-05 -4.31185e-05 0 0 0 0)
(-5.32461e-05 -0.000100042 0 5.60905e-06 1.00025e-05 0 0 0 0)
(9.75649e-06 2.21728e-05 0 -2.41336e-06 -2.37309e-06 0 0 0 0)
(-4.46607e-06 -5.22633e-06 0 4.86602e-07 5.4746e-07 0 0 0 0)
(7.47552e-07 1.15658e-06 0 -1.72078e-07 -1.20185e-07 0 0 0 0)
(-2.98426e-07 -2.60019e-07 0 4.63926e-08 3.35427e-08 0 0 0 0)
(6.76287e-08 6.00819e-08 0 -1.25457e-08 -3.01313e-09 0 0 0 0)
(-2.0879e-08 -1.18421e-08 0 3.62229e-09 3.9576e-09 0 0 0 0)
(4.31382e-09 3.05793e-09 0 -1.5123e-09 1.50742e-09 0 0 0 0)
(-2.751e-09 -6.53488e-10 0 -2.09115e-10 1.43503e-09 0 0 0 0)
(-6.35857e-10 -2.03202e-10 0 -5.19495e-10 1.03189e-09 0 0 0 0)
(-9.26125e-10 -5.54774e-10 0 -3.28649e-10 8.10286e-10 0 0 0 0)
(-5.95119e-10 -6.85883e-10 0 -2.73653e-10 6.22422e-10 0 0 0 0)
(-4.82362e-10 -7.97647e-10 0 -1.8838e-10 4.74148e-10 0 0 0 0)
(-3.48137e-10 -8.29368e-10 0 -1.24575e-10 3.52136e-10 0 0 0 0)
(-2.49827e-10 -7.59325e-10 0 -7.31565e-11 2.52008e-10 0 0 0 0)
(-1.76996e-10 -6.58077e-10 0 -3.72423e-11 1.72607e-10 0 0 0 0)
(-1.13028e-10 -7.43211e-10 0 -1.00831e-11 1.06719e-10 0 0 0 0)
(-3.54534e-11 -5.65255e-10 0 4.79759e-12 4.20843e-11 0 0 0 0)
(-2.87314e-12 -1.52417e-10 0 -2.62919e-12 5.83077e-12 0 0 0 0)
(-5.83659e-05 -9.98201e-05 0 2.70924e-05 4.65419e-05 0 0 0 0)
(6.57865e-05 0.000121794 0 -5.67616e-06 -1.13509e-05 0 0 0 0)
(-1.22882e-05 -2.72626e-05 0 2.54364e-06 2.75106e-06 0 0 0 0)
(5.56735e-06 6.45965e-06 0 -4.99834e-07 -6.18933e-07 0 0 0 0)
(-9.77878e-07 -1.42953e-06 0 1.91094e-07 1.66976e-07 0 0 0 0)
(3.66266e-07 3.28496e-07 0 -5.0767e-08 -2.9397e-08 0 0 0 0)
(-9.63541e-08 -7.4686e-08 0 1.18925e-08 1.22691e-08 0 0 0 0)
(2.1137e-08 1.55814e-08 0 -5.89418e-09 3.84379e-10 0 0 0 0)
(-9.75842e-09 -4.09221e-09 0 -1.05656e-10 2.09933e-09 0 0 0 0)
(5.27681e-10 2.85162e-10 0 -1.23694e-09 1.10164e-09 0 0 0 0)
(-1.4708e-09 -7.70862e-10 0 -6.03521e-10 9.29939e-10 0 0 0 0)
(-5.42616e-10 -7.07152e-10 0 -5.48769e-10 6.79853e-10 0 0 0 0)
(-5.57199e-10 -8.59268e-10 0 -3.75432e-10 5.1783e-10 0 0 0 0)
(-3.70445e-10 -9.2542e-10 0 -2.67933e-10 3.84749e-10 0 0 0 0)
(-2.78504e-10 -9.33927e-10 0 -1.71087e-10 2.81156e-10 0 0 0 0)
(-2.06161e-10 -8.42861e-10 0 -1.01373e-10 1.98589e-10 0 0 0 0)
(-1.43955e-10 -7.24722e-10 0 -5.12828e-11 1.34212e-10 0 0 0 0)
(-7.16658e-11 -8.00734e-10 0 -1.52601e-11 8.28779e-11 0 0 0 0)
(-2.68069e-11 -6.10553e-10 0 3.57787e-12 3.7225e-11 0 0 0 0)
(-9.6765e-12 -1.75586e-10 0 -2.90024e-12 5.10441e-12 0 0 0 0)
(6.8878e-05 0.000117345 0 -1.88863e-05 -3.86259e-05 0 0 0 0)
(-7.77948e-05 -0.000143833 0 4.39576e-06 1.08221e-05 0 0 0 0)
(1.49328e-05 3.29048e-05 0 -2.05201e-06 -2.50685e-06 0 0 0 0)
(-6.81862e-06 -7.81041e-06 0 4.15108e-07 6.89352e-07 0 0 0 0)
(1.19662e-06 1.74611e-06 0 -1.89538e-07 -1.58783e-07 0 0 0 0)
(-4.77627e-07 -4.14726e-07 0 3.80793e-08 4.34432e-08 0 0 0 0)
(1.12501e-07 8.98633e-08 0 -1.7994e-08 -7.94707e-09 0 0 0 0)
(-3.28772e-08 -2.20119e-08 0 1.9231e-09 3.9181e-09 0 0 0 0)
(8.97107e-09 3.77519e-09 0 -2.79206e-09 6.27634e-10 0 0 0 0)
(-3.24887e-09 -1.82287e-09 0 -8.54216e-10 1.03267e-09 0 0 0 0)
(5.23399e-11 -6.24994e-10 0 -9.9733e-10 6.45405e-10 0 0 0 0)
(-6.98064e-10 -9.66883e-10 0 -6.3949e-10 5.07979e-10 0 0 0 0)
(-3.14256e-10 -9.80987e-10 0 -4.88867e-10 3.65226e-10 0 0 0 0)
(-2.77989e-10 -1.03432e-09 0 -3.29272e-10 2.64695e-10 0 0 0 0)
(-1.81604e-10 -1.01553e-09 0 -2.13805e-10 1.87308e-10 0 0 0 0)
(-1.3005e-10 -9.06268e-10 0 -1.25036e-10 1.29621e-10 0 0 0 0)
(-9.08832e-11 -7.73789e-10 0 -6.31277e-11 8.59298e-11 0 0 0 0)
(-5.81674e-11 -8.40198e-10 0 -2.04101e-11 5.22276e-11 0 0 0 0)
(-2.30393e-11 -6.43028e-10 0 1.6263e-12 3.01654e-11 0 0 0 0)
(-3.60497e-12 -1.94746e-10 0 -3.00866e-12 3.6595e-12 0 0 0 0)
(-7.28565e-05 -0.000127624 0 5.23842e-06 2.5543e-05 0 0 0 0)
(8.26208e-05 0.000157913 0 -1.97851e-06 -7.94516e-06 0 0 0 0)
(-1.62688e-05 -3.73954e-05 0 7.48883e-07 1.83005e-06 0 0 0 0)
(7.42982e-06 8.80772e-06 0 -2.89222e-07 -5.67096e-07 0 0 0 0)
(-1.35491e-06 -2.07544e-06 0 8.99954e-08 1.35054e-07 0 0 0 0)
(5.3781e-07 4.79332e-07 0 -3.75229e-08 -3.81863e-08 0 0 0 0)
(-1.3251e-07 -1.14211e-07 0 6.93296e-09 1.05629e-08 0 0 0 0)
(3.63389e-08 2.41561e-08 0 -5.80867e-09 -1.88985e-09 0 0 0 0)
(-1.25357e-08 -6.97765e-09 0 -8.13585e-10 1.33538e-09 0 0 0 0)
(2.32239e-09 3.02933e-10 0 -1.66645e-09 3.49462e-10 0 0 0 0)
(-1.25605e-09 -1.29555e-09 0 -9.36317e-10 4.38449e-10 0 0 0 0)
(-3.41795e-11 -9.8733e-10 0 -7.93582e-10 2.65391e-10 0 0 0 0)
(-2.47008e-10 -1.10255e-09 0 -5.47034e-10 1.88144e-10 0 0 0 0)
(-9.53827e-11 -1.10334e-09 0 -3.85868e-10 1.18632e-10 0 0 0 0)
(-7.42407e-11 -1.069e-09 0 -2.46873e-10 7.54242e-11 0 0 0 0)
(-5.5484e-11 -9.4424e-10 0 -1.46665e-10 4.69158e-11 0 0 0 0)
(-3.93294e-11 -8.02116e-10 0 -7.54605e-11 2.81205e-11 0 0 0 0)
(-6.91179e-12 -8.56499e-10 0 -2.51535e-11 1.72855e-11 0 0 0 0)
(-9.40545e-12 -6.59121e-10 0 1.40946e-12 1.99844e-11 0 0 0 0)
(-8.29415e-12 -2.09411e-10 0 -2.76472e-12 1.83434e-12 0 0 0 0)
(7.21379e-05 0.000134943 0 6.33589e-06 -1.86672e-05 0 0 0 0)
(-8.22843e-05 -0.000167545 0 -6.54373e-07 5.3998e-06 0 0 0 0)
(1.66221e-05 4.02828e-05 0 4.2546e-07 -1.32918e-06 0 0 0 0)
(-7.4775e-06 -9.50541e-06 0 8.2981e-09 3.69229e-07 0 0 0 0)
(1.44832e-06 2.27502e-06 0 2.30057e-09 -1.06342e-07 0 0 0 0)
(-5.6069e-07 -5.39217e-07 0 1.62674e-09 2.56966e-08 0 0 0 0)
(1.44216e-07 1.2616e-07 0 -4.3885e-09 -8.63287e-09 0 0 0 0)
(-4.06237e-08 -3.12395e-08 0 -1.2393e-09 2.1692e-09 0 0 0 0)
(1.31133e-08 6.0145e-09 0 -1.98935e-09 -4.10879e-10 0 0 0 0)
(-3.3716e-09 -2.7198e-09 0 -1.26085e-09 3.47153e-10 0 0 0 0)
(9.25204e-10 -7.09065e-10 0 -1.11651e-09 6.36487e-11 0 0 0 0)
(-3.08727e-10 -1.21719e-09 0 -8.11742e-10 4.94576e-11 0 0 0 0)
(9.34311e-11 -1.12775e-09 0 -6.06665e-10 -1.74107e-11 0 0 0 0)
(2.21719e-11 -1.14704e-09 0 -4.17743e-10 -4.11199e-11 0 0 0 0)
(5.75982e-11 -1.08724e-09 0 -2.72514e-10 -5.02439e-11 0 0 0 0)
(4.13894e-11 -9.53572e-10 0 -1.61736e-10 -4.48922e-11 0 0 0 0)
(3.06016e-11 -8.03419e-10 0 -8.2562e-11 -3.58215e-11 0 0 0 0)
(1.86754e-11 -8.48334e-10 0 -2.90295e-11 -2.32511e-11 0 0 0 0)
(-7.04731e-13 -6.5848e-10 0 -7.04731e-13 7.41982e-12 0 0 0 0)
(-2.1684e-12 -2.16565e-10 0 -2.30393e-12 1.62688e-14 0 0 0 0)
(-6.71749e-05 -0.000140891 0 -1.37198e-05 1.46504e-05 0 0 0 0)
(7.67103e-05 0.000175251 0 2.38228e-06 -4.12055e-06 0 0 0 0)
(-1.56061e-05 -4.24259e-05 0 -1.14727e-06 9.90175e-07 0 0 0 0)
(7.00666e-06 1.00306e-05 0 1.77306e-07 -2.93429e-07 0 0 0 0)
(-1.36158e-06 -2.41898e-06 0 -6.87267e-08 7.32189e-08 0 0 0 0)
(5.31121e-07 5.77041e-07 0 1.44596e-08 -2.20177e-08 0 0 0 0)
(-1.35376e-07 -1.37739e-07 0 -4.65177e-09 5.93754e-09 0 0 0 0)
(3.8738e-08 3.23781e-08 0 -4.864e-10 -1.62837e-09 0 0 0 0)
(-1.25572e-08 -8.79969e-09 0 -1.67832e-09 4.81132e-10 0 0 0 0)
(3.19528e-09 7.7746e-10 0 -1.31197e-09 -2.17498e-10 0 0 0 0)
(-8.06999e-10 -1.59324e-09 0 -1.11193e-09 -1.1763e-10 0 0 0 0)
(4.75612e-10 -1.06839e-09 0 -8.61805e-10 -2.17165e-10 0 0 0 0)
(1.47045e-10 -1.19313e-09 0 -6.33716e-10 -2.20287e-10 0 0 0 0)
(2.38768e-10 -1.13617e-09 0 -4.4333e-10 -2.14443e-10 0 0 0 0)
(1.81766e-10 -1.07277e-09 0 -2.88506e-10 -1.83387e-10 0 0 0 0)
(1.34468e-10 -9.29817e-10 0 -1.73337e-10 -1.43804e-10 0 0 0 0)
(9.33498e-11 -7.80475e-10 0 -9.2103e-11 -1.054e-10 0 0 0 0)
(7.50268e-11 -8.13257e-10 0 -3.33663e-11 -6.66909e-11 0 0 0 0)
(1.73472e-11 -6.35853e-10 0 8.13152e-14 -8.20024e-12 0 0 0 0)
(-5.3668e-12 -2.16847e-10 0 -1.5992e-12 -1.49227e-12 0 0 0 0)
(6.08003e-05 0.000145473 0 1.89254e-05 -1.09646e-05 0 0 0 0)
(-6.97118e-05 -0.000181206 0 -3.62584e-06 2.69369e-06 0 0 0 0)
(1.44171e-05 4.411e-05 0 1.70376e-06 -6.41799e-07 0 0 0 0)
(-6.39897e-06 -1.04224e-05 0 -2.98936e-07 1.64673e-07 0 0 0 0)
(1.28547e-06 2.54643e-06 0 1.27123e-07 -3.81974e-08 0 0 0 0)
(-4.96615e-07 -6.06498e-07 0 -2.96389e-08 1.11335e-08 0 0 0 0)
(1.2927e-07 1.46549e-07 0 7.52596e-09 -1.85675e-09 0 0 0 0)
(-3.76502e-08 -3.66959e-08 0 -4.35559e-09 8.35348e-10 0 0 0 0)
(1.22877e-08 7.42538e-09 0 -9.3404e-10 -2.46625e-10 0 0 0 0)
(-2.80529e-09 -3.31857e-09 0 -1.62888e-09 -2.62908e-10 0 0 0 0)
(1.37539e-09 -7.08732e-10 0 -1.09488e-09 -4.27065e-10 0 0 0 0)
(1.69542e-10 -1.31984e-09 0 -9.05417e-10 -4.53203e-10 0 0 0 0)
(5.11852e-10 -1.12503e-09 0 -6.46022e-10 -4.42768e-10 0 0 0 0)
(3.67355e-10 -1.11014e-09 0 -4.53197e-10 -3.92753e-10 0 0 0 0)
(3.27565e-10 -1.0166e-09 0 -2.93954e-10 -3.23068e-10 0 0 0 0)
(2.3782e-10 -8.75585e-10 0 -1.77132e-10 -2.4629e-10 0 0 0 0)
(1.70653e-10 -7.26306e-10 0 -9.2374e-11 -1.77425e-10 0 0 0 0)
(1.10833e-10 -7.51134e-10 0 -3.51282e-11 -1.13753e-10 0 0 0 0)
(3.09811e-11 -5.93281e-10 0 -3.00866e-12 -2.64331e-11 0 0 0 0)
(-5.96311e-13 -2.06872e-10 0 -1.0571e-12 -2.83598e-12 0 0 0 0)
(-5.18754e-05 -0.000149162 0 -1.27949e-05 8.59044e-06 0 0 0 0)
(5.94887e-05 0.000185574 0 1.99668e-06 -2.50124e-06 0 0 0 0)
(-1.22792e-05 -4.49549e-05 0 -1.06638e-06 6.35141e-07 0 0 0 0)
(5.43002e-06 1.06342e-05 0 1.40284e-07 -1.69857e-07 0 0 0 0)
(-1.09228e-06 -2.57251e-06 0 -6.32337e-08 5.4891e-08 0 0 0 0)
(4.11524e-07 6.13381e-07 0 1.16944e-08 -1.06092e-08 0 0 0 0)
(-1.10093e-07 -1.48037e-07 0 -4.84853e-09 5.40943e-09 0 0 0 0)
(3.0278e-08 3.39882e-08 0 -1.06767e-09 -7.10493e-10 0 0 0 0)
(-9.83054e-09 -9.89795e-09 0 -1.99496e-09 3.80322e-11 0 0 0 0)
(3.03449e-09 5.9702e-10 0 -1.53336e-09 -6.9434e-10 0 0 0 0)
(-8.35649e-11 -1.78354e-09 0 -1.22656e-09 -7.10361e-10 0 0 0 0)
(9.24445e-10 -1.08409e-09 0 -9.12681e-10 -7.49068e-10 0 0 0 0)
(5.9932e-10 -1.13268e-09 0 -6.50413e-10 -6.78973e-10 0 0 0 0)
(5.90863e-10 -1.01647e-09 0 -4.44713e-10 -5.82879e-10 0 0 0 0)
(4.57804e-10 -9.2631e-10 0 -2.85335e-10 -4.66461e-10 0 0 0 0)
(3.35994e-10 -7.84174e-10 0 -1.70138e-10 -3.49676e-10 0 0 0 0)
(2.3538e-10 -6.47939e-10 0 -9.03411e-11 -2.48597e-10 0 0 0 0)
(1.64338e-10 -6.62265e-10 0 -3.40982e-11 -1.58834e-10 0 0 0 0)
(5.14454e-11 -5.24936e-10 0 -2.46656e-12 -4.44083e-11 0 0 0 0)
(-1.30104e-12 -1.87578e-10 0 -1.51788e-12 -5.1526e-12 0 0 0 0)
(5.00021e-05 0.000151562 0 3.46897e-05 -6.96619e-06 0 0 0 0)
(-5.79833e-05 -0.000189161 0 -7.58599e-06 2.31619e-06 0 0 0 0)
(1.25607e-05 4.64414e-05 0 3.17525e-06 -5.35518e-07 0 0 0 0)
(-5.39582e-06 -1.10026e-05 0 -6.96865e-07 2.15635e-07 0 0 0 0)
(1.15688e-06 2.70568e-06 0 2.49194e-07 -4.01962e-08 0 0 0 0)
(-4.3823e-07 -6.5598e-07 0 -7.13003e-08 2.3746e-08 0 0 0 0)
(1.16508e-07 1.56448e-07 0 1.63822e-08 -3.2751e-09 0 0 0 0)
(-3.47966e-08 -4.20673e-08 0 -9.23816e-09 1.79495e-09 0 0 0 0)
(1.1822e-08 7.44153e-09 0 -7.53195e-10 -1.30368e-09 0 0 0 0)
(-2.03694e-09 -4.06696e-09 0 -2.26804e-09 -9.16565e-10 0 0 0 0)
(1.9961e-09 -7.6346e-10 0 -1.12337e-09 -1.18237e-09 0 0 0 0)
(7.45714e-10 -1.28846e-09 0 -9.26288e-10 -1.03323e-09 0 0 0 0)
(9.79794e-10 -9.58837e-10 0 -5.94929e-10 -9.21672e-10 0 0 0 0)
(7.32379e-10 -8.9763e-10 0 -4.04028e-10 -7.5641e-10 0 0 0 0)
(6.02274e-10 -7.83401e-10 0 -2.49881e-10 -5.94876e-10 0 0 0 0)
(4.32814e-10 -6.5772e-10 0 -1.44633e-10 -4.38299e-10 0 0 0 0)
(3.06639e-10 -5.35465e-10 0 -6.99853e-11 -3.09072e-10 0 0 0 0)
(1.9868e-10 -5.46946e-10 0 -2.42319e-11 -1.97177e-10 0 0 0 0)
(6.35885e-11 -4.39599e-10 0 -3.90313e-12 -5.92266e-11 0 0 0 0)
(3.38813e-12 -1.57311e-10 0 -2.35814e-12 -8.65654e-12 0 0 0 0)
(-2.47717e-05 -0.000153812 0 -3.009e-05 3.6053e-06 0 0 0 0)
(2.79742e-05 0.000192005 0 6.48401e-06 4.16228e-07 0 0 0 0)
(-5.39011e-06 -4.70555e-05 0 -2.84213e-06 -8.38599e-08 0 0 0 0)
(2.50397e-06 1.11295e-05 0 5.95892e-07 1.61618e-07 0 0 0 0)
(-4.66715e-07 -2.7644e-06 0 -2.54933e-07 -3.15191e-08 0 0 0 0)
(1.78712e-07 6.50302e-07 0 5.15778e-08 2.29062e-08 0 0 0 0)
(-4.80309e-08 -1.69988e-07 0 -2.77578e-08 -6.28593e-09 0 0 0 0)
(1.31426e-08 3.59596e-08 0 1.64156e-09 6.22146e-10 0 0 0 0)
(-2.86048e-09 -1.26095e-08 0 -4.69045e-09 -2.5709e-09 0 0 0 0)
(2.66435e-09 7.18328e-10 0 -1.27863e-09 -1.57113e-09 0 0 0 0)
(1.25816e-09 -1.9002e-09 0 -1.3678e-09 -1.68081e-09 0 0 0 0)
(1.45291e-09 -8.23392e-10 0 -7.42163e-10 -1.35756e-09 0 0 0 0)
(1.12161e-09 -8.55863e-10 0 -5.39363e-10 -1.157e-09 0 0 0 0)
(9.3591e-10 -6.89676e-10 0 -3.34232e-10 -9.22972e-10 0 0 0 0)
(7.17118e-10 -6.08199e-10 0 -2.11203e-10 -7.14062e-10 0 0 0 0)
(5.15945e-10 -4.9837e-10 0 -1.2303e-10 -5.22748e-10 0 0 0 0)
(3.55754e-10 -4.06817e-10 0 -6.78982e-11 -3.67017e-10 0 0 0 0)
(2.30501e-10 -4.12419e-10 0 -2.41777e-11 -2.28595e-10 0 0 0 0)
(7.33463e-11 -3.36415e-10 0 1.02999e-12 -6.60897e-11 0 0 0 0)
(4.93312e-12 -1.19695e-10 0 -3.79471e-13 -1.03031e-11 0 0 0 0)
(2.63962e-05 0.000155583 0 -4.05816e-06 -3.4028e-06 0 0 0 0)
(-3.07354e-05 -0.00019285 0 2.62977e-06 2.05821e-06 0 0 0 0)
(6.67262e-06 4.61867e-05 0 -6.99751e-07 -5.36756e-07 0 0 0 0)
(-2.80862e-06 -1.09503e-05 0 2.98335e-07 1.85397e-07 0 0 0 0)
(6.12568e-07 2.56697e-06 0 -1.3344e-07 -7.4333e-08 0 0 0 0)
(-2.11054e-07 -6.30747e-07 0 1.79073e-08 9.31217e-09 0 0 0 0)
(6.65713e-08 1.34164e-07 0 -2.19744e-08 -1.21356e-08 0 0 0 0)
(-1.17293e-08 -3.83522e-08 0 -9.28185e-10 -2.67119e-09 0 0 0 0)
(8.90187e-09 5.24825e-09 0 -3.8773e-09 -3.87181e-09 0 0 0 0)
(1.28567e-09 -3.17687e-09 0 -1.01416e-09 -2.46091e-09 0 0 0 0)
(2.53259e-09 -5.49887e-10 0 -1.03045e-09 -2.15136e-09 0 0 0 0)
(1.57413e-09 -7.64649e-10 0 -5.28142e-10 -1.68574e-09 0 0 0 0)
(1.38772e-09 -5.24249e-10 0 -3.93538e-10 -1.36868e-09 0 0 0 0)
(1.06059e-09 -4.54694e-10 0 -2.47578e-10 -1.07233e-09 0 0 0 0)
(8.13477e-10 -3.83177e-10 0 -1.70003e-10 -8.17899e-10 0 0 0 0)
(5.76064e-10 -3.10675e-10 0 -1.15766e-10 -5.96566e-10 0 0 0 0)
(4.05492e-10 -2.41312e-10 0 -7.52165e-11 -4.18545e-10 0 0 0 0)
(2.67581e-10 -2.46018e-10 0 -3.03577e-11 -2.62849e-10 0 0 0 0)
(8.73325e-11 -2.21307e-10 0 3.93023e-12 -8.27793e-11 0 0 0 0)
(2.76472e-12 -8.09186e-11 0 4.68917e-12 -5.63508e-12 0 0 0 0)
(-2.62e-05 -0.000155157 0 9.71941e-07 2.747e-06 0 0 0 0)
(3.13326e-05 0.000194871 0 -1.16806e-06 -3.17363e-06 0 0 0 0)
(-7.72154e-06 -4.89283e-05 0 3.74724e-07 7.26272e-07 0 0 0 0)
(3.07028e-06 1.15919e-05 0 -1.19133e-07 -4.32048e-07 0 0 0 0)
(-7.47142e-07 -2.94049e-06 0 1.13068e-07 8.46412e-08 0 0 0 0)
(2.90177e-07 7.125e-07 0 1.54414e-08 -5.85287e-08 0 0 0 0)
(-6.68664e-08 -1.81971e-07 0 3.39449e-08 2.88795e-09 0 0 0 0)
(3.12396e-08 4.42234e-08 0 1.57364e-08 -1.07215e-08 0 0 0 0)
(-2.9464e-09 -1.23992e-08 0 1.44344e-08 -2.9832e-09 0 0 0 0)
(5.51119e-09 2.43878e-09 0 9.78102e-09 -3.57055e-09 0 0 0 0)
(1.74421e-09 -1.12503e-09 0 7.63753e-09 -2.24511e-09 0 0 0 0)
(2.08977e-09 -4.07078e-11 0 5.50425e-09 -1.89563e-09 0 0 0 0)
(1.40214e-09 -2.42452e-10 0 3.97357e-09 -1.43975e-09 0 0 0 0)
(1.15947e-09 -1.38894e-10 0 2.71441e-09 -1.12893e-09 0 0 0 0)
(8.48903e-10 -1.32435e-10 0 1.75353e-09 -8.46164e-10 0 0 0 0)
(6.10758e-10 -9.90158e-11 0 1.052e-09 -6.13318e-10 0 0 0 0)
(4.41216e-10 -7.30996e-11 0 5.6674e-10 -4.36473e-10 0 0 0 0)
(3.09567e-10 -7.6654e-11 0 2.05294e-10 -2.98907e-10 0 0 0 0)
(1.08447e-10 -7.92014e-11 0 -1.04626e-11 -1.13801e-10 0 0 0 0)
(-3.68629e-12 -3.12807e-11 0 9.51387e-12 1.60213e-12 0 0 0 0)
)
;

boundaryField
{
    movingWall
    {
        type            extrapolatedCalculated;
        value           nonuniform List<tensor> 
20
(
(-2.62e-05 -0.000155157 0 0.000138936 0.000828886 0 0 0 0)
(3.13326e-05 0.000194871 0 -3.41358e-05 -0.000208259 0 0 0 0)
(-7.72154e-06 -4.89283e-05 0 1.36055e-05 4.94027e-05 0 0 0 0)
(3.07028e-06 1.15919e-05 0 -3.24963e-06 -1.2546e-05 0 0 0 0)
(-7.47142e-07 -2.94049e-06 0 1.32436e-06 3.0351e-06 0 0 0 0)
(2.90177e-07 7.125e-07 0 -2.6106e-07 -7.84085e-07 0 0 0 0)
(-6.68664e-08 -1.81971e-07 0 1.63655e-07 1.85098e-07 0 0 0 0)
(3.12396e-08 4.42234e-08 0 6.40563e-09 -5.62011e-08 0 0 0 0)
(-2.9464e-09 -1.23992e-08 0 3.86967e-08 8.20442e-09 0 0 0 0)
(5.51119e-09 2.43878e-09 0 1.81913e-08 -6.6044e-09 0 0 0 0)
(1.74421e-09 -1.12503e-09 0 1.66519e-08 -1.55068e-09 0 0 0 0)
(2.08977e-09 -4.07078e-11 0 1.12146e-08 -2.10428e-09 0 0 0 0)
(1.40214e-09 -2.42452e-10 0 8.29266e-09 -1.38785e-09 0 0 0 0)
(1.15947e-09 -1.38894e-10 0 5.60609e-09 -1.13447e-09 0 0 0 0)
(8.48903e-10 -1.32435e-10 0 3.65477e-09 -8.32274e-10 0 0 0 0)
(6.10758e-10 -9.90158e-11 0 2.21032e-09 -6.04732e-10 0 0 0 0)
(4.41216e-10 -7.30996e-11 0 1.21192e-09 -4.36211e-10 0 0 0 0)
(3.09567e-10 -7.6654e-11 0 4.4551e-10 -3.12334e-10 0 0 0 0)
(1.08447e-10 -7.92014e-11 0 -2.64677e-11 -1.29595e-10 0 0 0 0)
(-3.68629e-12 -3.12807e-11 0 1.1724e-11 4.47209e-12 0 0 0 0)
)
;
    }
    fixedWalls
    {
        type            extrapolatedCalculated;
        value           nonuniform List<tensor> 
60
(
(2.62442e-06 0.000120987 0 -3.23426e-06 -1.34967e-06 0 0 0 0)
(-1.55614e-05 -0.000126386 0 4.76074e-06 4.21744e-06 0 0 0 0)
(2.16674e-05 0.000137857 0 -7.99712e-06 -7.458e-06 0 0 0 0)
(-4.75499e-05 -0.000156218 0 1.02635e-05 1.20094e-05 0 0 0 0)
(6.27213e-05 0.000185895 0 -1.16274e-05 -1.66878e-05 0 0 0 0)
(-9.40594e-05 -0.000222969 0 1.88017e-05 2.26383e-05 0 0 0 0)
(0.000137928 0.000276448 0 -2.03642e-05 -2.97341e-05 0 0 0 0)
(-0.000175516 -0.000341906 0 2.3554e-05 3.64314e-05 0 0 0 0)
(0.000232144 0.000422174 0 -2.78615e-05 -4.31185e-05 0 0 0 0)
(-0.000286962 -0.00051438 0 2.70924e-05 4.65419e-05 0 0 0 0)
(0.000340513 0.000608342 0 -1.88863e-05 -3.86259e-05 0 0 0 0)
(-0.000362507 -0.000668883 0 5.23842e-06 2.5543e-05 0 0 0 0)
(0.000361467 0.000710514 0 6.33589e-06 -1.86672e-05 0 0 0 0)
(-0.000337164 -0.000743552 0 -1.37198e-05 1.46504e-05 0 0 0 0)
(0.000306588 0.000769115 0 1.89254e-05 -1.09646e-05 0 0 0 0)
(-0.000261462 -0.00078741 0 -1.27949e-05 8.59044e-06 0 0 0 0)
(0.000255408 0.000803477 0 3.46897e-05 -6.96619e-06 0 0 0 0)
(-0.000122703 -0.000815275 0 -3.009e-05 3.6053e-06 0 0 0 0)
(0.000135048 0.000817898 0 -4.05816e-06 -3.4028e-06 0 0 0 0)
(-0.000138936 -0.000828886 0 9.71941e-07 2.747e-06 0 0 0 0)
(-3.47722e-11 2.2722e-12 0 1.71033e-11 -1.81851e-12 0 0 0 0)
(-3.36176e-11 5.00184e-12 0 -6.77626e-13 -8.98209e-13 0 0 0 0)
(-3.21521e-11 5.86503e-12 0 -1.02999e-12 7.30914e-14 0 0 0 0)
(-2.93987e-11 4.70947e-12 0 -1.24683e-12 1.24446e-12 0 0 0 0)
(-2.71339e-11 8.87193e-13 0 -1.65341e-12 2.59855e-12 0 0 0 0)
(-2.28706e-11 -5.68474e-12 0 -1.81604e-12 3.94784e-12 0 0 0 0)
(-1.98064e-11 -1.49042e-11 0 -2.03288e-12 5.08186e-12 0 0 0 0)
(-1.46994e-11 -2.60122e-11 0 -2.33103e-12 5.79914e-12 0 0 0 0)
(-1.04805e-11 -3.81007e-11 0 -2.62919e-12 5.83077e-12 0 0 0 0)
(-4.26326e-12 -4.93352e-11 0 -2.90024e-12 5.10441e-12 0 0 0 0)
(1.06581e-12 -5.85183e-11 0 -3.00866e-12 3.6595e-12 0 0 0 0)
(7.72715e-12 -6.39732e-11 0 -2.76472e-12 1.83434e-12 0 0 0 0)
(1.22569e-11 -6.58557e-11 0 -2.30393e-12 1.62688e-14 0 0 0 0)
(1.67866e-11 -6.40383e-11 0 -1.5992e-12 -1.49227e-12 0 0 0 0)
(1.87406e-11 -5.98866e-11 0 -1.0571e-12 -2.83598e-12 0 0 0 0)
(2.10498e-11 -5.26944e-11 0 -1.51788e-12 -5.1526e-12 0 0 0 0)
(2.47802e-11 -3.92762e-11 0 -2.35814e-12 -8.65654e-12 0 0 0 0)
(3.05533e-11 -1.80682e-11 0 -3.79471e-13 -1.03031e-11 0 0 0 0)
(2.63789e-11 1.93643e-12 0 4.68917e-12 -5.63508e-12 0 0 0 0)
(1.1724e-11 4.47209e-12 0 9.51387e-12 1.60213e-12 0 0 0 0)
(6.25761e-07 2.34478e-05 0 2.62442e-06 0.000120987 0 0 0 0)
(-6.27053e-07 -2.86324e-05 0 -1.21377e-07 -2.71963e-05 0 0 0 0)
(3.44413e-08 6.43319e-06 0 1.16209e-07 6.45776e-06 0 0 0 0)
(-3.14613e-08 -1.53021e-06 0 1.63884e-08 -1.4635e-06 0 0 0 0)
(-3.4e-09 3.45623e-07 0 -9.6362e-09 3.36919e-07 0 0 0 0)
(2.58889e-09 -8.00266e-08 0 2.78844e-09 -8.10061e-08 0 0 0 0)