/*--------------------------------*- C++ -*----------------------------------*\
| =========                 |                                                 |
| \\      /  F ield         | OpenFOAM: The Open Source CFD Toolbox           |
|  \\    /   O peration     | Version:  2312                                  |
|   \\  /    A nd           | Website:  www.openfoam.com                      |
|    \\/     M anipulation  |                                                 |
\*---------------------------------------------------------------------------*/
FoamFile
{
    version     2.0;
    format      ascii;
    arch        "LSB;label=32;scalar=64";
    class       volScalarField;
    location    "3.125";
    object      Lambda2Field;
}
// * * * * * * * * * * * * * * * * * * * * * * * * * * * * * * * * * * * * * //

dimensions      [0 0 -2 0 0 0 0];

internalField   nonuniform List<scalar> 
400
(
0
-1.63347e-11
0
-6.85571e-14
0
-4.04336e-16
0
-9.92373e-18
2.92534e-18
-2.70005e-19
3.88032e-19
1.83197e-19
1.78648e-19
1.27821e-19
8.52679e-20
5.01067e-20
3.06851e-20
1.48998e-20
1.39067e-21
0
0
-7.05928e-12
0
0
0
0
0
2.02401e-18
0
1.79971e-19
1.4905e-19
1.88334e-19
1.97105e-19
1.647e-19
1.15154e-19
7.01338e-20
3.98677e-20
1.53187e-20
3.37478e-23
1.02667e-23
0
-1.91638e-11
0
-2.90463e-14
0
-6.79832e-16
0
-4.8695e-18
8.68359e-19
2.45551e-19
2.94901e-19
2.57632e-19
2.3708e-19
1.85697e-19
1.25117e-19
7.13705e-20
4.19888e-20
1.73288e-20
0
2.68178e-23
0
0
0
0
0
0
4.68474e-17
7.1739e-19
5.15971e-19
4.86171e-19
4.62758e-19
3.46113e-19
2.9503e-19
2.11191e-19
1.36841e-19
8.13501e-20
4.43921e-20
1.47673e-20
0
5.17492e-23
0
0
0
0
0
0
1.70618e-16
0
1.74039e-18
8.67153e-19
5.93178e-19
4.90004e-19
3.52896e-19
2.4933e-19
1.54611e-19
8.45954e-20
4.73247e-20
1.78796e-20
0
1.03242e-22
0
0
0
0
9.15356e-16
0
8.51673e-17
0
1.85241e-18
5.69726e-19
8.83714e-19
5.60588e-19
4.33383e-19
2.81021e-19
1.71641e-19
9.76063e-20
5.09708e-20
1.49458e-20
0
1.49349e-22
0
0
7.47817e-12
0
9.04488e-14
0
3.06249e-16
0
2.95912e-18
1.70283e-18
6.3431e-19
7.2052e-19
4.68081e-19
3.23189e-19
1.92281e-19
1.02571e-19
5.29821e-20
1.84489e-20
0
2.09533e-22
0
0
1.5985e-11
0
1.62009e-13
0
3.71355e-16
0
3.97911e-18
0
1.20033e-18
6.78479e-19
5.6216e-19
3.44663e-19
2.08888e-19
1.1336e-19
5.61566e-20
1.57872e-20
0
3.31236e-22
0
0
4.16783e-11
0
2.56754e-13
0
5.74001e-16
0
2.86955e-18
2.19595e-18
5.09877e-19
8.38889e-19
5.4186e-19
3.75078e-19
2.24518e-19
1.17963e-19
5.58359e-20
1.88827e-20
0
4.08987e-22
7.02214e-10
0
8.16526e-11
0
4.11315e-13
0
1.13629e-15
0
8.81268e-18
0
1.33702e-18
6.82495e-19
6.33067e-19
3.8518e-19
2.37348e-19
1.24881e-19
5.78888e-20
1.73553e-20
0
5.35298e-22
2.52796e-09
0
1.55468e-10
0
6.30943e-13
0
1.35446e-15
0
6.3556e-19
2.62353e-18
6.26065e-19
8.76354e-19
5.78329e-19
4.10637e-19
2.50104e-19
1.30118e-19
5.71073e-20
1.98763e-20
0
5.98921e-22
4.397e-09
0
2.36669e-10
0
1.00374e-12
0
2.98872e-15
0
1.69591e-17
0
1.43754e-18
7.84696e-19
6.64147e-19
4.3484e-19
2.69419e-19
1.40688e-19
6.20749e-20
2.15917e-20
0
5.82327e-22
5.33838e-09
1.38795e-10
2.93433e-10
5.74533e-14
1.30786e-12
0
3.78159e-15
4.34204e-17
4.21929e-18
3.54977e-18
8.37233e-19
9.90489e-19
6.92894e-19
4.7966e-19
2.99607e-19
1.5594e-19
6.72684e-20
2.49755e-20
4.64548e-22
4.98951e-22
6.19078e-09
4.34476e-10
2.92225e-10
1.86458e-12
1.55253e-12
8.82856e-15
5.104e-15
0
2.76786e-17
0
1.84333e-18
9.67904e-19
7.77728e-19
5.49685e-19
3.42541e-19
1.79253e-19
8.05983e-20
3.15831e-20
2.49222e-22
3.49009e-22
6.44981e-09
6.64279e-10
2.83007e-10
3.14274e-12
1.78844e-12
1.80999e-14
5.93823e-15
1.6053e-16
1.05952e-17
5.47466e-18
9.9564e-19
1.22375e-18
9.80195e-19
6.38062e-19
4.06134e-19
2.11652e-19
9.62144e-20
3.86698e-20
2.74481e-21
2.1904e-22
4.59957e-09
3.76789e-10
1.98719e-10
1.52065e-12
1.35575e-12
7.28568e-15
5.87273e-15
0
3.53617e-17
0
2.1946e-18
1.55053e-18
1.09589e-18
7.91786e-19
4.73893e-19
2.4631e-19
1.13939e-19
4.78104e-20
3.94141e-21
2.86415e-22
7.75785e-09
1.44034e-09
3.05235e-10
7.71384e-12
2.01261e-12
4.73354e-14
7.47828e-15
3.91846e-16
1.2883e-17
1.00641e-17
2.28804e-18
1.74957e-18
1.45303e-18
8.99046e-19
5.58492e-19
2.82455e-19
1.31502e-19
5.21324e-20
5.7593e-21
3.82442e-22
5.24184e-09
1.24514e-09
1.62791e-10
6.65809e-12
9.22562e-13
3.40659e-14
7.02545e-15
5.94171e-17
6.73263e-17
1.54998e-18
4.18207e-18
2.45406e-18
1.71962e-18
1.08239e-18
6.42712e-19
3.27513e-19
1.54183e-19
6.2227e-20
5.03317e-21
6.97565e-23
6.53749e-11
0
1.22046e-11
0
3.27035e-14
0
1.48357e-15
4.27333e-17
1.54608e-17
4.87482e-18
5.25274e-18
2.88172e-18
2.08387e-18
1.23743e-18
7.26886e-19
3.67815e-19
1.82574e-19
7.65582e-20
6.75717e-21
-3.47687e-22
5.35639e-10
0
4.12876e-11
0
2.25746e-13
1.44276e-14
0
8.10869e-16
0
3.66025e-17
0
3.36935e-18
1.00261e-18
8.97466e-19
4.88407e-19
2.68861e-19
1.53243e-19
7.36086e-20
1.25895e-20
-2.84012e-22
)
;

boundaryField
{
    movingWall
    {
        type            calculated;
        value           nonuniform List<scalar> 
20
(
0
0
0
0
0
0
0
1.25919e-15
0
7.47377e-17
0
3.91063e-18
0
5.08372e-19
2.36618e-19
1.46844e-19
1.06081e-19
6.16815e-20
1.38571e-20
-3.46734e-22
)
;
    }
    fixedWalls
    {
        type            calculated;
        value           nonuniform List<scalar> 
60
(
0
-3.59533e-10
0
0
1.77249e-09
0
1.33945e-08
0
4.07298e-08
0
8.83564e-08
0
1.28817e-07
1.0416e-08
1.08552e-07
1.01486e-08
9.31057e-08
2.45446e-08
1.49189e-08
0
9.71593e-23
0
5.84975e-24
0
6.89925e-24
2.59091e-23
9.75411e-23
9.42652e-23
2.10015e-22
1.61259e-22
1.77198e-22
1.80233e-22
3.01958e-22
1.04637e-22
4.14515e-22
1.06533e-22
5.0829e-22
1.13011e-22
4.27288e-23
4.51137e-23
6.19285e-11
3.86851e-12
7.48781e-13
0
0
0
1.38954e-17
0
5.56757e-18
-5.06689e-19
6.68975e-19
2.12563e-19
1.88033e-19
1.04474e-19
6.29152e-20
3.59231e-20
2.30652e-20
1.09397e-20
2.78415e-21
-5.58127e-23
)
;
    }
    frontAndBack
    {
        type            empty;
    }
}


// ************************************************************************* //
