/*--------------------------------*- C++ -*----------------------------------*\
| =========                 |                                                 |
| \\      /  F ield         | OpenFOAM: The Open Source CFD Toolbox           |
|  \\    /   O peration     | Version:  2312                                  |
|   \\  /    A nd           | Website:  www.openfoam.com                      |
|    \\/     M anipulation  |                                                 |
\*---------------------------------------------------------------------------*/
FoamFile
{
    version     2.0;
    format      ascii;
    arch        "LSB;label=32;scalar=64";
    class       volScalarField;
    location    "3.125";
    object      QField;
}
// * * * * * * * * * * * * * * * * * * * * * * * * * * * * * * * * * * * * * //

dimensions      [0 0 -2 0 0 0 0];

internalField   nonuniform List<scalar> 
400
(
7.49916e-11
1.65569e-11
1.82492e-12
6.92351e-14
7.6603e-15
4.07766e-16
1.23813e-18
1.02856e-17
-2.93836e-18
2.74456e-19
-3.8496e-19
-1.8783e-19
-1.81364e-19
-1.30705e-19
-8.75328e-20
-5.20619e-20
-3.09884e-20
-1.4999e-20
-1.4814e-21
7.2813e-23
1.02941e-10
1.69359e-11
2.32997e-12
5.10188e-14
6.66465e-15
1.88013e-16
2.79701e-17
-2.59839e-18
2.29322e-19
-1.869e-19
-1.55099e-19
-1.93689e-19
-1.99007e-19
-1.67236e-19
-1.17505e-19
-7.07588e-20
-3.94872e-20
-1.6409e-20
-1.18181e-22
-1.6715e-23
1.79492e-10
3.71154e-11
4.36392e-12
1.48616e-13
1.36566e-14
9.01731e-16
1.74731e-17
4.93504e-18
-8.60517e-19
-2.50592e-19
-2.95581e-19
-2.62691e-19
-2.39886e-19
-1.87979e-19
-1.27384e-19
-7.3699e-20
-4.15958e-20
-1.77767e-20
3.95386e-22
-2.60794e-23
1.94306e-10
3.7642e-11
5.63671e-12
1.27868e-13
1.97891e-14
5.78514e-16
8.35344e-17
-1.35517e-18
-7.16787e-19
-5.47528e-19
-4.92867e-19
-3.59525e-19
-2.96296e-19
-2.14753e-19
-1.39672e-19
-8.16246e-20
-4.37934e-20
-1.60651e-20
5.75067e-22
-4.59841e-23
2.01299e-10
3.58845e-11
6.92515e-12
1.41419e-13
1.986e-14
1.23965e-15
1.74388e-17
4.76594e-18
-1.34184e-18
-1.02171e-18
-6.38185e-19
-4.96579e-19
-3.58494e-19
-2.50794e-19
-1.56838e-19
-8.68378e-20
-4.68771e-20
-1.85423e-20
1.14817e-21
-8.14874e-23
3.78738e-10
8.34022e-11
1.3828e-11
3.40336e-13
5.04658e-14
2.18546e-15
1.44793e-16
1.3572e-17
-3.68357e-18
-8.11449e-19
-9.8319e-19
-5.86869e-19
-4.3131e-19
-2.85055e-19
-1.74458e-19
-9.83354e-20
-4.97769e-20
-1.63712e-20
1.26894e-21
-1.53097e-22
2.54444e-10
3.72924e-11
1.52055e-11
1.02985e-13
4.7783e-14
1.38839e-15
1.58713e-16
-1.35244e-17
2.76075e-18
-2.58797e-18
-8.04726e-19
-7.67504e-19
-4.79744e-19
-3.24439e-19
-1.9414e-19
-1.04114e-19
-5.23094e-20
-1.92495e-20
1.59433e-21
-2.04921e-22
2.55485e-10
3.2061e-11
2.138e-11
1.14778e-13
7.03711e-14
3.22325e-15
2.97703e-17
4.30673e-17
-1.04774e-17
-3.45944e-19
-1.48714e-18
-7.33622e-19
-5.49804e-19
-3.49263e-19
-2.10757e-19
-1.14953e-19
-5.45566e-20
-1.70716e-20
1.57713e-21
-3.40989e-22
2.42454e-10
2.85434e-11
3.03578e-11
9.81535e-14
1.09177e-13
2.05292e-15
5.49998e-16
-3.97352e-17
1.11272e-17
-4.08441e-18
-7.61699e-19
-9.32752e-19
-5.58108e-19
-3.78972e-19
-2.2591e-19
-1.18508e-19
-5.5059e-20
-1.9556e-20
1.21983e-21
-4.17485e-22
-1.20971e-11
-5.54144e-11
3.55409e-11
-2.17065e-13
1.09893e-13
5.9096e-15
-2.93981e-16
9.99642e-17
-2.09185e-17
9.34045e-19
-1.83299e-18
-7.56962e-19
-6.11131e-19
-3.90479e-19
-2.38086e-19
-1.26385e-19
-5.64862e-20
-1.81588e-20
1.18659e-21
-5.58635e-22
-4.44261e-10
-2.09652e-10
3.00865e-11
-1.45827e-12
1.40952e-13
-4.9572e-15
7.2294e-16
-8.64849e-17
1.61711e-17
-4.91212e-18
-5.89545e-19
-9.72913e-19
-5.94347e-19
-4.14156e-19
-2.5114e-19
-1.30173e-19
-5.66571e-20
-2.01865e-20
3.5077e-22
-5.99117e-22
-1.19243e-09
-3.44001e-10
-1.76802e-12
-1.66604e-12
3.79456e-15
-2.55108e-15
-6.07875e-16
7.16398e-17
-2.24169e-17
1.31641e-18
-1.76376e-18
-7.92598e-19
-6.49607e-19
-4.37058e-19
-2.69507e-19
-1.4109e-19
-6.1634e-20
-2.16634e-20
7.41044e-22
-5.94177e-22
-2.20159e-09
-5.53956e-10
-3.92326e-11
-2.68204e-12
-1.59251e-13
-1.35307e-14
-6.91343e-16
-1.26836e-16
6.57699e-18
-4.59971e-18
-7.32791e-19
-1.00331e-18
-6.85791e-19
-4.8008e-19
-2.99183e-19
-1.56085e-19
-6.74281e-20
-2.5061e-20
-4.6928e-22
-4.98986e-22
-2.91714e-09
-7.33586e-10
-6.41266e-11
-3.83444e-12
-2.65942e-13
-2.00379e-14
-1.44453e-15
-4.73311e-17
-2.08104e-17
3.25036e-19
-1.67665e-18
-1.02403e-18
-7.88498e-19
-5.54901e-19
-3.42835e-19
-1.80509e-19
-8.17232e-20
-3.2139e-20
-9.05469e-23
-3.38773e-22
-3.41978e-09
-8.44805e-10
-8.44056e-11
-4.16936e-12
-3.72813e-13
-2.3505e-14
-1.34294e-15
-1.91283e-16
3.90515e-18
-4.66801e-18
-1.36336e-18
-1.27185e-18
-9.53422e-19
-6.47392e-19
-4.04661e-19
-2.13666e-19
-9.737e-20
-3.89935e-20
-2.60391e-21
-2.16993e-22
-2.35414e-09
-5.19328e-10
-5.57381e-11
-2.41412e-12
-2.22626e-13
-1.15391e-14
-1.3133e-15
1.47758e-17
-2.01199e-17
-1.19152e-18
-2.12825e-18
-1.6819e-18
-1.14363e-18
-7.9644e-19
-4.77857e-19
-2.50907e-19
-1.1705e-19
-4.86846e-20
-3.57939e-21
-2.78018e-22
-5.60596e-09
-1.56927e-09
-1.54189e-10
-8.83087e-12
-7.20742e-13
-5.71778e-14
-2.94453e-15
-4.51082e-16
-9.8072e-18
-7.35704e-18
-3.21778e-18
-1.96397e-18
-1.47349e-18
-9.16646e-19
-5.54036e-19
-2.8483e-19
-1.32248e-19
-5.24287e-20
-5.48194e-21
-4.00292e-22
-4.71751e-09
-1.23332e-09
-1.33286e-10
-6.22728e-12
-6.90029e-13
-2.94476e-14
-4.41657e-15
-5.08534e-17
-5.179e-17
-3.26757e-18
-4.71383e-18
-2.58351e-18
-1.75932e-18
-1.09433e-18
-6.40521e-19
-3.31024e-19
-1.5819e-19
-6.26628e-20
-4.50093e-21
-9.62475e-23
5.41562e-10
4.43891e-10
2.87376e-11
2.74613e-12
2.97002e-13
9.32958e-15
2.14029e-15
-4.2669e-18
-1.41173e-17
-6.38579e-18
-6.01515e-18
-3.05741e-18
-2.10566e-18
-1.24988e-18
-7.30483e-19
-3.79626e-19
-1.87867e-19
-7.7802e-20
-6.35953e-21
3.63862e-22
7.88316e-11
1.28183e-10
1.27267e-11
5.44728e-14
2.69236e-13
-2.79857e-14
5.98387e-15
-1.03085e-15
1.87765e-16
-4.35317e-17
4.67651e-18
-3.73737e-18
-1.05534e-18
-9.31947e-19
-4.86082e-19
-2.70424e-19
-1.51151e-19
-7.6795e-20
-1.31701e-20
2.91695e-22
)
;

boundaryField
{
    movingWall
    {
        type            calculated;
        value           nonuniform List<scalar> 
20
(
-1.60005e-10
1.26762e-10
2.84228e-10
-8.50468e-13
1.62663e-12
-4.15185e-14
1.74037e-14
-2.03898e-15
4.55634e-16
-8.07626e-17
1.60292e-17
-3.94094e-18
6.45986e-20
-5.36735e-19
-2.22502e-19
-1.50488e-19
-1.03872e-19
-6.2538e-20
-1.61505e-20
3.50248e-22
)
;
    }
    fixedWalls
    {
        type            calculated;
        value           nonuniform List<scalar> 
60
(
3.87762e-10
5.36062e-10
9.40866e-10
1.03229e-09
1.11479e-09
2.06284e-09
1.52848e-09
1.65894e-09
1.75271e-09
5.79999e-10
-1.66331e-09
-5.75564e-09
-1.12493e-08
-1.5141e-08
-1.79174e-08
-1.23209e-08
-2.96516e-08
-2.4974e-08
2.85962e-09
4.23971e-10
2.43715e-23
3.3585e-23
3.6909e-24
-3.07136e-23
-6.90419e-23
-1.00613e-22
-1.30952e-22
-1.45879e-22
-1.61283e-22
-1.64845e-22
-1.72161e-22
-1.62694e-22
-1.51527e-22
-1.2746e-22
-1.16454e-22
-1.88445e-22
-3.07129e-22
-3.21652e-22
-1.57728e-22
-2.37636e-23
1.41723e-11
1.35782e-11
-5.25181e-13
7.11213e-14
2.18496e-15
1.34335e-17
-6.01568e-18
1.36729e-17
-5.48195e-18
5.38291e-19
-6.76919e-19
-2.18062e-19
-1.87153e-19
-1.05491e-19
-6.29721e-20
-3.73258e-20
-2.3564e-20
-1.19501e-20
-2.92059e-21
1.64603e-22
)
;
    }
    frontAndBack
    {
        type            empty;
    }
}


// ************************************************************************* //
