/*--------------------------------*- C++ -*----------------------------------*\
| =========                 |                                                 |
| \\      /  F ield         | OpenFOAM: The Open Source CFD Toolbox           |
|  \\    /   O peration     | Version:  2312                                  |
|   \\  /    A nd           | Website:  www.openfoam.com                      |
|    \\/     M anipulation  |                                                 |
\*---------------------------------------------------------------------------*/
FoamFile
{
    version     2.0;
    format      ascii;
    arch        "LSB;label=32;scalar=64";
    class       volVectorField;
    location    "3.125";
    object      U;
}
// * * * * * * * * * * * * * * * * * * * * * * * * * * * * * * * * * * * * * //

dimensions      [0 1 -1 0 0 0 0];

internalField   nonuniform List<vector> 
400
(
(-1 3.02469e-07 0)
(-1 -6.79907e-08 0)
(-1 1.61444e-08 0)
(-1 -3.65874e-09 0)
(-1 8.42298e-10 0)
(-1 -2.02515e-10 0)
(-1 4.20325e-11 0)
(-1 -1.22627e-11 0)
(-1 1.86312e-12 0)
(-1 -3.93448e-13 0)
(-1 8.04049e-13 0)
(-1 8.97787e-13 0)
(-1 1.02179e-12 0)
(-1 9.61653e-13 0)
(-1 8.23749e-13 0)
(-1 6.50069e-13 0)
(-1 4.9535e-13 0)
(-1 3.07501e-13 0)
(-1 6.06166e-14 0)
(-1 -5.68049e-15 0)
(-1 -3.15965e-07 0)
(-1 7.07165e-08 0)
(-1 -1.68113e-08 0)
(-1 3.75787e-09 0)
(-1 -8.98179e-10 0)
(-1 1.89878e-10 0)
(-1 -5.59452e-11 0)
(-1 6.00877e-12 0)
(-1 -4.16149e-12 0)
(-1 1.31215e-12 0)
(-1 2.03827e-12 0)
(-1 2.97025e-12 0)
(-1 3.1529e-12 0)
(-1 2.98585e-12 0)
(-1 2.53829e-12 0)
(-1 1.97192e-12 0)
(-1 1.47606e-12 0)
(-1 9.97048e-13 0)
(-1 1.52109e-13 0)
(-1 -1.25046e-14 0)
(-1 3.44643e-07 0)
(-1 -7.61541e-08 0)
(-1 1.7971e-08 0)
(-1 -4.04185e-09 0)
(-1 8.8083e-10 0)
(-1 -2.35262e-10 0)
(-1 3.14282e-11 0)
(-1 -1.81581e-11 0)
(-1 4.84538e-13 0)
(-1 1.27274e-12 0)
(-1 4.21676e-12 0)
(-1 5.19631e-12 0)
(-1 5.50282e-12 0)
(-1 5.12155e-12 0)
(-1 4.33254e-12 0)
(-1 3.35972e-12 0)
(-1 2.5013e-12 0)
(-1 1.65995e-12 0)
(-1 2.7498e-13 0)
(-1 -1.46626e-14 0)
(-1 -3.90545e-07 0)
(-1 8.52279e-08 0)
(-1 -2.02726e-08 0)
(-1 4.33768e-09 0)
(-1 -1.05609e-09 0)
(-1 1.94585e-10 0)
(-1 -6.74728e-11 0)
(-1 3.08107e-12 0)
(-1 -3.37045e-12 0)
(-1 4.30738e-12 0)
(-1 6.50502e-12 0)
(-1 7.93534e-12 0)
(-1 8.08718e-12 0)
(-1 7.42964e-12 0)
(-1 6.22957e-12 0)
(-1 4.80325e-12 0)
(-1 3.55033e-12 0)
(-1 2.36954e-12 0)
(-1 4.14398e-13 0)
(-1 -1.17737e-14 0)
(-1 4.64738e-07 0)
(-1 -1.02132e-07 0)
(-1 2.39923e-08 0)
(-1 -5.40418e-09 0)
(-1 1.15407e-09 0)
(-1 -3.12974e-10 0)
(-1 4.23249e-11 0)
(-1 -2.04483e-11 0)
(-1 4.89958e-12 0)
(-1 6.26089e-12 0)
(-1 1.0089e-11 0)
(-1 1.10713e-11 0)
(-1 1.10093e-11 0)
(-1 9.92056e-12 0)
(-1 8.2388e-12 0)
(-1 6.3213e-12 0)
(-1 4.6528e-12 0)
(-1 3.07452e-12 0)
(-1 5.85799e-13 0)
(-1 -2.21798e-15 0)
(-1 -5.57423e-07 0)
(-1 1.20252e-07 0)
(-1 -2.84927e-08 0)
(-1 6.00583e-09 0)
(-1 -1.42243e-09 0)
(-1 2.73204e-10 0)
(-1 -7.50511e-11 0)
(-1 1.23831e-11 0)
(-1 3.80114e-12 0)
(-1 1.1973e-11 0)
(-1 1.39643e-11 0)
(-1 1.48257e-11 0)
(-1 1.42061e-11 0)
(-1 1.2584e-11 0)
(-1 1.03386e-11 0)
(-1 7.87957e-12 0)
(-1 5.75883e-12 0)
(-1 3.7999e-12 0)
(-1 7.77554e-13 0)
(-1 1.42119e-14 0)
(-1 6.91121e-07 0)
(-1 -1.51278e-07 0)
(-1 3.55056e-08 0)
(-1 -7.86162e-09 0)
(-1 1.71151e-09 0)
(-1 -4.1742e-10 0)
(-1 7.91114e-11 0)
(-1 -1.27601e-11 0)
(-1 1.70935e-11 0)
(-1 1.63126e-11 0)
(-1 1.91048e-11 0)
(-1 1.88971e-11 0)
(-1 1.76329e-11 0)
(-1 1.53385e-11 0)
(-1 1.24695e-11 0)
(-1 9.44868e-12 0)
(-1 6.86859e-12 0)
(-1 4.49754e-12 0)
(-1 9.90423e-13 0)
(-1 3.72604e-14 0)
(-1 -8.54764e-07 0)
(-1 1.87723e-07 0)
(-1 -4.42748e-08 0)
(-1 9.64764e-09 0)
(-1 -2.20738e-09 0)
(-1 4.91472e-10 0)
(-1 -9.41402e-11 0)
(-1 4.04627e-11 0)
(-1 1.64684e-11 0)
(-1 2.47664e-11 0)
(-1 2.40753e-11 0)
(-1 2.33052e-11 0)
(-1 2.10985e-11 0)
(-1 1.80739e-11 0)
(-1 1.45471e-11 0)
(-1 1.0956e-11 0)
(-1 7.9138e-12 0)
(-1 5.16168e-12 0)
(-1 1.21168e-12 0)
(-1 6.50304e-14 0)
(-0.999999 1.05543e-06 0)
(-1 -2.33895e-07 0)
(-1 5.50185e-08 0)
(-1 -1.21677e-08 0)
(-1 2.75512e-09 0)
(-1 -6.01885e-10 0)
(-1 1.54934e-10 0)
(-1 -1.06617e-12 0)
(-1 3.65134e-11 0)
(-1 2.95131e-11 0)
(-1 2.99785e-11 0)
(-1 2.74811e-11 0)
(-1 2.44307e-11 0)
(-1 2.06223e-11 0)
(-1 1.64543e-11 0)
(-1 1.23286e-11 0)
(-1 8.86103e-12 0)
(-1 5.7478e-12 0)
(-1 1.42892e-12 0)
(-1 9.52518e-14 0)
(-1 -1.28595e-06 0)
(-1 2.87748e-07 0)
(-1 -6.80057e-08 0)
(-1 1.51222e-08 0)
(-1 -3.40923e-09 0)
(-1 8.26898e-10 0)
(-1 -1.24271e-10 0)
(-1 8.00388e-11 0)
(-1 3.15426e-11 0)
(-1 3.91167e-11 0)
(-1 3.43942e-11 0)
(-1 3.1408e-11 0)
(-1 2.73227e-11 0)
(-1 2.28154e-11 0)
(-1 1.80685e-11 0)
(-1 1.34761e-11 0)
(-1 9.63987e-12 0)
(-1 6.22886e-12 0)
(-1 1.63252e-12 0)
(-1 1.23338e-13 0)
(-0.999999 1.52085e-06 0)
(-1 -3.47405e-07 0)
(-1 8.2529e-08 0)
(-1 -1.8357e-08 0)
(-1 4.42488e-09 0)
(-1 -8.95855e-10 0)
(-1 2.77626e-10 0)
(-1 2.77762e-12 0)
(-1 5.75066e-11 0)
(-1 4.05296e-11 0)
(-1 3.92779e-11 0)
(-1 3.42796e-11 0)
(-1 2.9609e-11 0)
(-1 2.44697e-11 0)
(-1 1.92658e-11 0)
(-1 1.43145e-11 0)
(-1 1.02031e-11 0)
(-1 6.57658e-12 0)
(-1 1.80117e-12 0)
(-1 1.46296e-13 0)
(-1 -1.67221e-06 0)
(-1 3.95969e-07 0)
(-1 -9.30742e-08 0)
(-1 2.20158e-08 0)
(-1 -4.99706e-09 0)
(-1 1.26133e-09 0)
(-1 -2.03742e-10 0)
(-1 1.1922e-10 0)
(-1 3.78189e-11 0)
(-1 4.94433e-11 0)
(-1 4.08482e-11 0)
(-1 3.64878e-11 0)
(-1 3.09749e-11 0)
(-1 2.54623e-11 0)
(-1 1.99416e-11 0)
(-1 1.47723e-11 0)
(-1 1.04992e-11 0)
(-1 6.75114e-12 0)
(-1 1.93418e-12 0)
(-1 1.59933e-13 0)
(-0.999999 1.77628e-06 0)
(-1 -4.26856e-07 0)
(-1 1.0083e-07 0)
(-1 -2.40279e-08 0)
(-1 5.77542e-09 0)
(-1 -1.27772e-09 0)
(-1 3.83255e-10 0)
(-1 -1.61209e-11 0)
(-1 7.08604e-11 0)
(-1 4.40242e-11 0)
(-1 4.36624e-11 0)
(-1 3.69335e-11 0)
(-1 3.14905e-11 0)
(-1 2.56561e-11 0)
(-1 2.00201e-11 0)
(-1 1.47836e-11 0)
(-1 1.04844e-11 0)
(-1 6.74944e-12 0)
(-1 2.00101e-12 0)
(-1 1.64639e-13 0)
(-1 -1.85888e-06 0)
(-1 4.49967e-07 0)
(-1 -1.06366e-07 0)
(-1 2.57081e-08 0)
(-1 -6.06048e-09 0)
(-1 1.5183e-09 0)
(-1 -2.90071e-10 0)
(-1 1.40912e-10 0)
(-1 3.37101e-11 0)
(-1 5.29149e-11 0)
(-1 4.14847e-11 0)
(-1 3.69824e-11 0)
(-1 3.08008e-11 0)
(-1 2.50511e-11 0)
(-1 1.94391e-11 0)
(-1 1.43234e-11 0)
(-1 1.0141e-11 0)
(-1 6.51863e-12 0)
(-1 2.00838e-12 0)
(-1 1.60096e-13 0)
(-0.999999 1.92279e-06 0)
(-1 -4.68062e-07 0)
(-1 1.10731e-07 0)
(-1 -2.69622e-08 0)
(-1 6.50761e-09 0)
(-1 -1.4979e-09 0)
(-1 4.4263e-10 0)
(-1 -3.24046e-11 0)
(-1 7.56717e-11 0)
(-1 4.18492e-11 0)
(-1 4.24861e-11 0)
(-1 3.47619e-11 0)
(-1 2.92876e-11 0)
(-1 2.35116e-11 0)
(-1 1.81862e-11 0)
(-1 1.33456e-11 0)
(-1 9.43035e-12 0)
(-1 6.08253e-12 0)
(-1 1.91901e-12 0)
(-1 1.49716e-13 0)
(-1 -1.96853e-06 0)
(-1 4.76904e-07 0)
(-1 -1.12784e-07 0)
(-1 2.73548e-08 0)
(-1 -6.44245e-09 0)
(-1 1.62963e-09 0)
(-1 -3.08638e-10 0)
(-1 1.49265e-10 0)
(-1 3.12439e-11 0)
(-1 5.02858e-11 0)
(-1 3.72141e-11 0)
(-1 3.24504e-11 0)
(-1 2.63732e-11 0)
(-1 2.11236e-11 0)
(-1 1.62084e-11 0)
(-1 1.18605e-11 0)
(-1 8.3667e-12 0)
(-1 5.3811e-12 0)
(-1 1.74405e-12 0)
(-1 1.31736e-13 0)
(-0.999999 2.00869e-06 0)
(-1 -4.93074e-07 0)
(-1 1.17083e-07 0)
(-1 -2.86608e-08 0)
(-1 7.05652e-09 0)
(-1 -1.60399e-09 0)
(-1 4.96725e-10 0)
(-1 -3.95095e-11 0)
(-1 7.6052e-11 0)
(-1 3.49058e-11 0)
(-1 3.53825e-11 0)
(-1 2.72712e-11 0)
(-1 2.24979e-11 0)
(-1 1.76828e-11 0)
(-1 1.35216e-11 0)
(-1 9.84883e-12 0)
(-1 6.94438e-12 0)
(-1 4.49418e-12 0)
(-1 1.47492e-12 0)
(-1 9.81904e-14 0)
(-1 -2.03819e-06 0)
(-1 5.00066e-07 0)
(-1 -1.18139e-07 0)
(-1 2.95111e-08 0)
(-1 -6.84441e-09 0)
(-1 1.86709e-09 0)
(-1 -3.41389e-10 0)
(-1 1.67215e-10 0)
(-1 1.82071e-11 0)
(-1 4.11201e-11 0)
(-1 2.53904e-11 0)
(-1 2.21181e-11 0)
(-1 1.71564e-11 0)
(-1 1.35595e-11 0)
(-1 1.02597e-11 0)
(-1 7.47749e-12 0)
(-1 5.27597e-12 0)
(-1 3.40932e-12 0)
(-1 1.15178e-12 0)
(-1 4.51706e-14 0)
(-1 2.04475e-06 0)
(-1 -4.88912e-07 0)
(-1 1.16244e-07 0)
(-1 -2.70446e-08 0)
(-1 6.74133e-09 0)
(-1 -1.37493e-09 0)
(-1 4.33865e-10 0)
(-1 -3.32881e-11 0)
(-1 5.0343e-11 0)
(-1 1.91945e-11 0)
(-1 1.85744e-11 0)
(-1 1.36956e-11 0)
(-1 1.09279e-11 0)
(-1 8.45312e-12 0)
(-1 6.38096e-12 0)
(-1 4.62135e-12 0)
(-1 3.27421e-12 0)
(-1 2.20823e-12 0)
(-1 8.14027e-13 0)
(-1 -4.84106e-15 0)
(-1 -2.07222e-06 0)
(-1 5.20648e-07 0)
(-1 -1.23507e-07 0)
(-1 3.13651e-08 0)
(-1 -7.58774e-09 0)
(-1 1.96021e-09 0)
(-1 -4.62745e-10 0)
(-1 1.40503e-10 0)
(-1 -2.0511e-11 0)
(-1 1.6511e-11 0)
(-1 3.87671e-12 0)
(-1 5.2607e-12 0)
(-1 3.46963e-12 0)
(-1 2.83618e-12 0)
(-1 2.08069e-12 0)
(-1 1.51183e-12 0)
(-1 1.09053e-12 0)
(-1 7.80834e-13 0)
(-1 3.23988e-13 0)
(-1 -1.11802e-14 0)
)
;

boundaryField
{
    movingWall
    {
        type            fixedValue;
        value           uniform (-1 -0 -0);
    }
    fixedWalls
    {
        type            noSlip;
    }
    frontAndBack
    {
        type            empty;
    }
}


// ************************************************************************* //
