/*--------------------------------*- C++ -*----------------------------------*\
| =========                 |                                                 |
| \\      /  F ield         | OpenFOAM: The Open Source CFD Toolbox           |
|  \\    /   O peration     | Version:  2312                                  |
|   \\  /    A nd           | Website:  www.openfoam.com                      |
|    \\/     M anipulation  |                                                 |
\*---------------------------------------------------------------------------*/
FoamFile
{
    version     2.0;
    format      ascii;
    arch        "LSB;label=32;scalar=64";
    class       volScalarField;
    location    "3.125";
    object      Uy;
}
// * * * * * * * * * * * * * * * * * * * * * * * * * * * * * * * * * * * * * //

dimensions      [0 1 -1 0 0 0 0];

internalField   nonuniform List<scalar> 
400
(
3.02469e-07
-6.79907e-08
1.61444e-08
-3.65874e-09
8.42298e-10
-2.02515e-10
4.20325e-11
-1.22627e-11
1.86312e-12
-3.93448e-13
8.04049e-13
8.97787e-13
1.02179e-12
9.61653e-13
8.23749e-13
6.50069e-13
4.9535e-13
3.07501e-13
6.06166e-14
-5.68049e-15
-3.15965e-07
7.07165e-08
-1.68113e-08
3.75787e-09
-8.98179e-10
1.89878e-10
-5.59452e-11
6.00877e-12
-4.16149e-12
1.31215e-12
2.03827e-12
2.97025e-12
3.1529e-12
2.98585e-12
2.53829e-12
1.97192e-12
1.47606e-12
9.97048e-13
1.52109e-13
-1.25046e-14
3.44643e-07
-7.61541e-08
1.7971e-08
-4.04185e-09
8.8083e-10
-2.35262e-10
3.14282e-11
-1.81581e-11
4.84538e-13
1.27274e-12
4.21676e-12
5.19631e-12
5.50282e-12
5.12155e-12
4.33254e-12
3.35972e-12
2.5013e-12
1.65995e-12
2.7498e-13
-1.46626e-14
-3.90545e-07
8.52279e-08
-2.02726e-08
4.33768e-09
-1.05609e-09
1.94585e-10
-6.74728e-11
3.08107e-12
-3.37045e-12
4.30738e-12
6.50502e-12
7.93534e-12
8.08718e-12
7.42964e-12
6.22957e-12
4.80325e-12
3.55033e-12
2.36954e-12
4.14398e-13
-1.17737e-14
4.64738e-07
-1.02132e-07
2.39923e-08
-5.40418e-09
1.15407e-09
-3.12974e-10
4.23249e-11
-2.04483e-11
4.89958e-12
6.26089e-12
1.0089e-11
1.10713e-11
1.10093e-11
9.92056e-12
8.2388e-12
6.3213e-12
4.6528e-12
3.07452e-12
5.85799e-13
-2.21798e-15
-5.57423e-07
1.20252e-07
-2.84927e-08
6.00583e-09
-1.42243e-09
2.73204e-10
-7.50511e-11
1.23831e-11
3.80114e-12
1.1973e-11
1.39643e-11
1.48257e-11
1.42061e-11
1.2584e-11
1.03386e-11
7.87957e-12
5.75883e-12
3.7999e-12
7.77554e-13
1.42119e-14
6.91121e-07
-1.51278e-07
3.55056e-08
-7.86162e-09
1.71151e-09
-4.1742e-10
7.91114e-11
-1.27601e-11
1.70935e-11
1.63126e-11
1.91048e-11
1.88971e-11
1.76329e-11
1.53385e-11
1.24695e-11
9.44868e-12
6.86859e-12
4.49754e-12
9.90423e-13
3.72604e-14
-8.54764e-07
1.87723e-07
-4.42748e-08
9.64764e-09
-2.20738e-09
4.91472e-10
-9.41402e-11
4.04627e-11
1.64684e-11
2.47664e-11
2.40753e-11
2.33052e-11
2.10985e-11
1.80739e-11
1.45471e-11
1.0956e-11
7.9138e-12
5.16168e-12
1.21168e-12
6.50304e-14
1.05543e-06
-2.33895e-07
5.50185e-08
-1.21677e-08
2.75512e-09
-6.01885e-10
1.54934e-10
-1.06617e-12
3.65134e-11
2.95131e-11
2.99785e-11
2.74811e-11
2.44307e-11
2.06223e-11
1.64543e-11
1.23286e-11
8.86103e-12
5.7478e-12
1.42892e-12
9.52518e-14
-1.28595e-06
2.87748e-07
-6.80057e-08
1.51222e-08
-3.40923e-09
8.26898e-10
-1.24271e-10
8.00388e-11
3.15426e-11
3.91167e-11
3.43942e-11
3.1408e-11
2.73227e-11
2.28154e-11
1.80685e-11
1.34761e-11
9.63987e-12
6.22886e-12
1.63252e-12
1.23338e-13
1.52085e-06
-3.47405e-07
8.2529e-08
-1.8357e-08
4.42488e-09
-8.95855e-10
2.77626e-10
2.77762e-12
5.75066e-11
4.05296e-11
3.92779e-11
3.42796e-11
2.9609e-11
2.44697e-11
1.92658e-11
1.43145e-11
1.02031e-11
6.57658e-12
1.80117e-12
1.46296e-13
-1.67221e-06
3.95969e-07
-9.30742e-08
2.20158e-08
-4.99706e-09
1.26133e-09
-2.03742e-10
1.1922e-10
3.78189e-11
4.94433e-11
4.08482e-11
3.64878e-11
3.09749e-11
2.54623e-11
1.99416e-11
1.47723e-11
1.04992e-11
6.75114e-12
1.93418e-12
1.59933e-13
1.77628e-06
-4.26856e-07
1.0083e-07
-2.40279e-08
5.77542e-09
-1.27772e-09
3.83255e-10
-1.61209e-11
7.08604e-11
4.40242e-11
4.36624e-11
3.69335e-11
3.14905e-11
2.56561e-11
2.00201e-11
1.47836e-11
1.04844e-11
6.74944e-12
2.00101e-12
1.64639e-13
-1.85888e-06
4.49967e-07
-1.06366e-07
2.57081e-08
-6.06048e-09
1.5183e-09
-2.90071e-10
1.40912e-10
3.37101e-11
5.29149e-11
4.14847e-11
3.69824e-11
3.08008e-11
2.50511e-11
1.94391e-11
1.43234e-11
1.0141e-11
6.51863e-12
2.00838e-12
1.60096e-13
1.92279e-06
-4.68062e-07
1.10731e-07
-2.69622e-08
6.50761e-09
-1.4979e-09
4.4263e-10
-3.24046e-11
7.56717e-11
4.18492e-11
4.24861e-11
3.47619e-11
2.92876e-11
2.35116e-11
1.81862e-11
1.33456e-11
9.43035e-12
6.08253e-12
1.91901e-12
1.49716e-13
-1.96853e-06
4.76904e-07
-1.12784e-07
2.73548e-08
-6.44245e-09
1.62963e-09
-3.08638e-10
1.49265e-10
3.12439e-11
5.02858e-11
3.72141e-11
3.24504e-11
2.63732e-11
2.11236e-11
1.62084e-11
1.18605e-11
8.3667e-12
5.3811e-12
1.74405e-12
1.31736e-13
2.00869e-06
-4.93074e-07
1.17083e-07
-2.86608e-08
7.05652e-09
-1.60399e-09
4.96725e-10
-3.95095e-11
7.6052e-11
3.49058e-11
3.53825e-11
2.72712e-11
2.24979e-11
1.76828e-11
1.35216e-11
9.84883e-12
6.94438e-12
4.49418e-12
1.47492e-12
9.81904e-14
-2.03819e-06
5.00066e-07
-1.18139e-07
2.95111e-08
-6.84441e-09
1.86709e-09
-3.41389e-10
1.67215e-10
1.82071e-11
4.11201e-11
2.53904e-11
2.21181e-11
1.71564e-11
1.35595e-11
1.02597e-11
7.47749e-12
5.27597e-12
3.40932e-12
1.15178e-12
4.51706e-14
2.04475e-06
-4.88912e-07
1.16244e-07
-2.70446e-08
6.74133e-09
-1.37493e-09
4.33865e-10
-3.32881e-11
5.0343e-11
1.91945e-11
1.85744e-11
1.36956e-11
1.09279e-11
8.45312e-12
6.38096e-12
4.62135e-12
3.27421e-12
2.20823e-12
8.14027e-13
-4.84106e-15
-2.07222e-06
5.20648e-07
-1.23507e-07
3.13651e-08
-7.58774e-09
1.96021e-09
-4.62745e-10
1.40503e-10
-2.0511e-11
1.6511e-11
3.87671e-12
5.2607e-12
3.46963e-12
2.83618e-12
2.08069e-12
1.51183e-12
1.09053e-12
7.80834e-13
3.23988e-13
-1.11802e-14
)
;

boundaryField
{
    movingWall
    {
        type            calculated;
        value           uniform -0;
    }
    fixedWalls
    {
        type            calculated;
        value           uniform -0;
    }
    frontAndBack
    {
        type            empty;
    }
}


// ************************************************************************* //
