/*--------------------------------*- C++ -*----------------------------------*\
| =========                 |                                                 |
| \\      /  F ield         | OpenFOAM: The Open Source CFD Toolbox           |
|  \\    /   O peration     | Version:  2312                                  |
|   \\  /    A nd           | Website:  www.openfoam.com                      |
|    \\/     M anipulation  |                                                 |
\*---------------------------------------------------------------------------*/
FoamFile
{
    version     2.0;
    format      ascii;
    arch        "LSB;label=32;scalar=64";
    class       volVectorField;
    location    "3.125";
    object      vorticityField;
}
// * * * * * * * * * * * * * * * * * * * * * * * * * * * * * * * * * * * * * //

dimensions      [0 0 -1 0 0 0 0];

internalField   nonuniform List<vector> 
400
(
(0 -0 2.66821e-05)
(0 -0 -2.92167e-05)
(0 -0 6.71722e-06)
(0 -0 -1.57566e-06)
(0 -0 3.67732e-07)
(0 -0 -8.51628e-08)
(0 -0 1.91237e-08)
(0 -0 -6.73173e-09)
(0 -0 -1.26909e-09)
(0 -0 -2.73504e-09)
(0 -0 -2.20359e-09)
(0 -0 -1.95305e-09)
(0 -0 -1.53492e-09)
(0 -0 -1.13995e-09)
(0 -0 -7.75355e-10)
(0 -0 -4.79612e-10)
(0 -0 -2.55244e-10)
(0 -0 -9.22083e-11)
(0 -0 5.54475e-12)
(0 -0 -2.25969e-11)
(0 -0 -2.92856e-05)
(0 -0 3.05792e-05)
(0 -0 -7.05947e-06)
(0 -0 1.63043e-06)
(0 -0 -3.75877e-07)
(0 -0 8.72108e-08)
(0 -0 -1.97421e-08)
(0 -0 4.85463e-09)
(0 -0 -9.03099e-10)
(0 -0 3.39981e-10)
(0 -0 -2.94001e-11)
(0 -0 -1.8045e-11)
(0 -0 -8.20052e-11)
(0 -0 -1.14126e-10)
(0 -0 -1.33079e-10)
(0 -0 -1.25359e-10)
(0 -0 -1.09061e-10)
(0 -0 -1.37816e-10)
(0 -0 -1.03232e-10)
(0 -0 -1.32828e-11)
(0 -0 3.4846e-05)
(0 -0 -3.40266e-05)
(0 -0 7.84801e-06)
(0 -0 -1.80874e-06)
(0 -0 4.17893e-07)
(0 -0 -9.56401e-08)
(0 -0 2.27153e-08)
(0 -0 -4.69573e-09)
(0 -0 1.49788e-09)
(0 -0 -7.21947e-11)
(0 -0 1.45782e-10)
(0 -0 -3.73048e-11)
(0 -0 -1.07331e-10)
(0 -0 -1.78421e-10)
(0 -0 -2.13452e-10)
(0 -0 -2.05323e-10)
(0 -0 -1.80684e-10)
(0 -0 -2.29409e-10)
(0 -0 -1.7318e-10)
(0 -0 -2.50017e-11)
(0 -0 -4.07952e-05)
(0 -0 3.88112e-05)
(0 -0 -8.92229e-06)
(0 -0 2.05149e-06)
(0 -0 -4.70378e-07)
(0 -0 1.09088e-07)
(0 -0 -2.41939e-08)
(0 -0 6.3065e-09)
(0 -0 -8.87953e-10)
(0 -0 5.73788e-10)
(0 -0 3.87817e-11)
(0 -0 -2.09754e-11)
(0 -0 -1.62134e-10)
(0 -0 -2.5e-10)
(0 -0 -3.0083e-10)
(0 -0 -2.89607e-10)
(0 -0 -2.56056e-10)
(0 -0 -3.21725e-10)
(0 -0 -2.43688e-10)
(0 -0 -3.90156e-11)
(0 -0 4.7888e-05)
(0 -0 -4.60373e-05)
(0 -0 1.05853e-05)
(0 -0 -2.42998e-06)
(0 -0 5.59092e-07)
(0 -0 -1.27003e-07)
(0 -0 3.0214e-08)
(0 -0 -6.00125e-09)
(0 -0 2.06986e-09)
(0 -0 -1.97175e-11)
(0 -0 2.08361e-10)
(0 -0 -7.3504e-11)
(0 -0 -2.03976e-10)
(0 -0 -3.25456e-10)
(0 -0 -3.87004e-10)
(0 -0 -3.73941e-10)
(0 -0 -3.31888e-10)
(0 -0 -4.13043e-10)
(0 -0 -3.15046e-10)
(0 -0 -5.67047e-11)
(0 -0 -6.25187e-05)
(0 -0 5.64817e-05)
(0 -0 -1.30028e-05)
(0 -0 2.99211e-06)
(0 -0 -6.86213e-07)
(0 -0 1.59071e-07)
(0 -0 -3.52366e-08)
(0 -0 9.16022e-09)
(0 -0 -1.29115e-09)
(0 -0 8.18096e-10)
(0 -0 3.81238e-11)
(0 -0 -5.64048e-11)
(0 -0 -2.66478e-10)
(0 -0 -3.98106e-10)
(0 -0 -4.73997e-10)
(0 -0 -4.5841e-10)
(0 -0 -4.0916e-10)
(0 -0 -5.02817e-10)
(0 -0 -3.85345e-10)
(0 -0 -7.73605e-11)
(0 -0 7.43485e-05)
(0 -0 -6.93904e-05)
(0 -0 1.602e-05)
(0 -0 -3.69205e-06)
(0 -0 8.52168e-07)
(0 -0 -1.9447e-07)
(0 -0 4.61408e-08)
(0 -0 -9.39468e-09)
(0 -0 3.05486e-09)
(0 -0 -1.27625e-10)
(0 -0 2.64248e-10)
(0 -0 -1.36967e-10)
(0 -0 -3.09053e-10)
(0 -0 -4.74112e-10)
(0 -0 -5.56888e-10)
(0 -0 -5.40388e-10)
(0 -0 -4.84597e-10)
(0 -0 -5.8798e-10)
(0 -0 -4.53238e-10)
(0 -0 -1.00735e-10)
(0 -0 -9.02581e-05)
(0 -0 8.55564e-05)
(0 -0 -1.97933e-05)
(0 -0 4.57449e-06)
(0 -0 -1.05376e-06)
(0 -0 2.44623e-07)
(0 -0 -5.47694e-08)
(0 -0 1.38863e-08)
(0 -0 -2.22758e-09)
(0 -0 1.11305e-09)
(0 -0 -2.42307e-11)
(0 -0 -1.06833e-10)
(0 -0 -3.78498e-10)
(0 -0 -5.41022e-10)
(0 -0 -6.36109e-10)
(0 -0 -6.1747e-10)
(0 -0 -5.56448e-10)
(0 -0 -6.65957e-10)
(0 -0 -5.15709e-10)
(0 -0 -1.2534e-10)
(0 -0 0.000110015)
(0 -0 -0.000105651)
(0 -0 2.45861e-05)
(0 -0 -5.71294e-06)
(0 -0 1.32865e-06)
(0 -0 -3.06411e-07)
(0 -0 7.26276e-08)
(0 -0 -1.54644e-08)
(0 -0 4.57023e-09)
(0 -0 -4.44373e-10)
(0 -0 3.16294e-10)
(0 -0 -2.26125e-10)
(0 -0 -4.1223e-10)
(0 -0 -6.09267e-10)
(0 -0 -7.04793e-10)
(0 -0 -6.86168e-10)
(0 -0 -6.20835e-10)
(0 -0 -7.33128e-10)
(0 -0 -5.70053e-10)
(0 -0 -1.49788e-10)
(0 -0 -0.000126912)
(0 -0 0.000127471)
(0 -0 -2.98062e-05)
(0 -0 6.95948e-06)
(0 -0 -1.62063e-06)
(0 -0 3.79263e-07)
(0 -0 -8.65784e-08)
(0 -0 2.14756e-08)
(0 -0 -3.98655e-09)
(0 -0 1.5221e-09)
(0 -0 -1.67341e-10)
(0 -0 -1.58383e-10)
(0 -0 -4.83836e-10)
(0 -0 -6.57487e-10)
(0 -0 -7.6284e-10)
(0 -0 -7.41488e-10)
(0 -0 -6.7344e-10)
(0 -0 -7.85474e-10)
(0 -0 -6.1413e-10)
(0 -0 -1.72686e-10)
(0 -0 0.000136231)
(0 -0 -0.000148228)
(0 -0 3.49568e-05)
(0 -0 -8.22552e-06)
(0 -0 1.93565e-06)
(0 -0 -4.52805e-07)
(0 -0 1.07857e-07)
(0 -0 -2.3935e-08)
(0 -0 6.56726e-09)
(0 -0 -9.68659e-10)
(0 -0 3.72337e-10)
(0 -0 -3.27393e-10)
(0 -0 -4.92121e-10)
(0 -0 -7.05049e-10)
(0 -0 -8.01723e-10)
(0 -0 -7.81233e-10)
(0 -0 -7.10661e-10)
(0 -0 -8.19788e-10)
(0 -0 -6.44655e-10)
(0 -0 -1.91737e-10)
(0 -0 -0.000132862)
(0 -0 0.000159892)
(0 -0 -3.81442e-05)
(0 -0 9.09694e-06)
(0 -0 -2.16544e-06)
(0 -0 5.16855e-07)
(0 -0 -1.21144e-07)
(0 -0 2.99648e-08)
(0 -0 -6.16406e-09)
(0 -0 1.96938e-09)
(0 -0 -3.59232e-10)
(0 -0 -1.93749e-10)
(0 -0 -5.55518e-10)
(0 -0 -7.1747e-10)
(0 -0 -8.22128e-10)
(0 -0 -7.97574e-10)
(0 -0 -7.26656e-10)
(0 -0 -8.31345e-10)
(0 -0 -6.6053e-10)
(0 -0 -2.06646e-10)
(0 -0 0.000128607)
(0 -0 -0.000166891)
(0 -0 3.98574e-05)
(0 -0 -9.51371e-06)
(0 -0 2.27272e-06)
(0 -0 -5.40844e-07)
(0 -0 1.30548e-07)
(0 -0 -3.00002e-08)
(0 -0 8.00385e-09)
(0 -0 -1.45896e-09)
(0 -0 4.07446e-10)
(0 -0 -4.05445e-10)
(0 -0 -5.21081e-10)
(0 -0 -7.29298e-10)
(0 -0 -8.1473e-10)
(0 -0 -7.91836e-10)
(0 -0 -7.20857e-10)
(0 -0 -8.19305e-10)
(0 -0 -6.57775e-10)
(0 -0 -2.14261e-10)
(0 -0 -0.000127171)
(0 -0 0.000172869)
(0 -0 -4.12787e-05)
(0 -0 9.85325e-06)
(0 -0 -2.35025e-06)
(0 -0 5.62581e-07)
(0 -0 -1.33087e-07)
(0 -0 3.28645e-08)
(0 -0 -7.12137e-09)
(0 -0 2.08943e-09)
(0 -0 -4.81314e-10)
(0 -0 -2.06585e-10)
(0 -0 -5.59414e-10)
(0 -0 -6.92841e-10)
(0 -0 -7.84267e-10)
(0 -0 -7.5648e-10)
(0 -0 -6.88372e-10)
(0 -0 -7.79891e-10)
(0 -0 -6.35935e-10)
(0 -0 -2.15248e-10)
(0 -0 0.000126547)
(0 -0 -0.00017758)
(0 -0 4.24062e-05)
(0 -0 -1.01234e-05)
(0 -0 2.41931e-06)
(0 -0 -5.76859e-07)
(0 -0 1.39023e-07)
(0 -0 -3.23403e-08)
(0 -0 8.35942e-09)
(0 -0 -1.68969e-09)
(0 -0 3.86149e-10)
(0 -0 -4.14427e-10)
(0 -0 -4.79003e-10)
(0 -0 -6.56945e-10)
(0 -0 -7.2265e-10)
(0 -0 -6.98453e-10)
(0 -0 -6.33932e-10)
(0 -0 -7.16006e-10)
(0 -0 -5.90272e-10)
(0 -0 -2.05815e-10)
(0 -0 -0.000136367)
(0 -0 0.000183577)
(0 -0 -4.38886e-05)
(0 -0 1.04939e-05)
(0 -0 -2.50928e-06)
(0 -0 6.01687e-07)
(0 -0 -1.43188e-07)
(0 -0 3.50559e-08)
(0 -0 -7.90299e-09)
(0 -0 2.13038e-09)
(0 -0 -5.56981e-10)
(0 -0 -1.71412e-10)
(0 -0 -4.82267e-10)
(0 -0 -5.71759e-10)
(0 -0 -6.40975e-10)
(0 -0 -6.14036e-10)
(0 -0 -5.57597e-10)
(0 -0 -6.28167e-10)
(0 -0 -5.2247e-10)
(0 -0 -1.8606e-10)
(0 -0 0.000116872)
(0 -0 -0.000181575)
(0 -0 4.32661e-05)
(0 -0 -1.03058e-05)
(0 -0 2.45649e-06)
(0 -0 -5.8468e-07)
(0 -0 1.40066e-07)
(0 -0 -3.28291e-08)
(0 -0 8.19473e-09)
(0 -0 -1.79892e-09)
(0 -0 3.59909e-10)
(0 -0 -3.62169e-10)
(0 -0 -3.63908e-10)
(0 -0 -4.93602e-10)
(0 -0 -5.33519e-10)
(0 -0 -5.13087e-10)
(0 -0 -4.6548e-10)
(0 -0 -5.22714e-10)
(0 -0 -4.35696e-10)
(0 -0 -1.54953e-10)
(0 -0 -0.000123722)
(0 -0 0.000185521)
(0 -0 -4.42134e-05)
(0 -0 1.05336e-05)
(0 -0 -2.50947e-06)
(0 -0 5.98725e-07)
(0 -0 -1.4223e-07)
(0 -0 3.43181e-08)
(0 -0 -7.91901e-09)
(0 -0 1.99695e-09)
(0 -0 -5.32398e-10)
(0 -0 -8.12281e-11)
(0 -0 -3.165e-10)
(0 -0 -3.55443e-10)
(0 -0 -3.96997e-10)
(0 -0 -3.7534e-10)
(0 -0 -3.38919e-10)
(0 -0 -3.88242e-10)
(0 -0 -3.37445e-10)
(0 -0 -1.19316e-10)
(0 -0 0.000159641)
(0 -0 -0.00019548)
(0 -0 4.68865e-05)
(0 -0 -1.12486e-05)
(0 -0 2.70041e-06)
(0 -0 -6.48654e-07)
(0 -0 1.56138e-07)
(0 -0 -3.74241e-08)
(0 -0 9.12555e-09)
(0 -0 -2.1627e-09)
(0 -0 4.80566e-10)
(0 -0 -2.36507e-10)
(0 -0 -1.30711e-10)
(0 -0 -2.07116e-10)
(0 -0 -2.13174e-10)
(0 -0 -1.94909e-10)
(0 -0 -1.66095e-10)
(0 -0 -2.1566e-10)
(0 -0 -2.25238e-10)
(0 -0 -8.56078e-11)
(0 -0 -0.000156129)
(0 -0 0.000196039)
(0 -0 -4.9303e-05)
(0 -0 1.1711e-05)
(0 -0 -3.05356e-06)
(0 -0 6.97058e-07)
(0 -0 -2.15916e-07)
(0 -0 2.8487e-08)
(0 -0 -2.68336e-08)
(0 -0 -7.34225e-09)
(0 -0 -8.76256e-09)
(0 -0 -5.54496e-09)
(0 -0 -4.21603e-09)
(0 -0 -2.8533e-09)
(0 -0 -1.88597e-09)
(0 -0 -1.15102e-09)
(0 -0 -6.39839e-10)
(0 -0 -2.81948e-10)
(0 -0 -6.87389e-11)
(0 -0 -4.07946e-11)
)
;

boundaryField
{
    movingWall
    {
        type            calculated;
        value           nonuniform List<vector> 
20
(
(0 -0 -0.000294093)
(0 -0 0.000229007)
(0 -0 -6.25338e-05)
(0 -0 1.48415e-05)
(0 -0 -4.26485e-06)
(0 -0 9.7356e-07)
(0 -0 -3.45626e-07)
(0 -0 3.78178e-08)
(0 -0 -5.10959e-08)
(0 -0 -1.57525e-08)
(0 -0 -1.7777e-08)
(0 -0 -1.12553e-08)
(0 -0 -8.53511e-09)
(0 -0 -5.74499e-09)
(0 -0 -3.7872e-09)
(0 -0 -2.30934e-09)
(0 -0 -1.28502e-09)
(0 -0 -5.22164e-10)
(0 -0 -5.27337e-11)
(0 -0 -4.30047e-11)
)
;
    }
    fixedWalls
    {
        type            calculated;
        value           nonuniform List<vector> 
60
(
(0 -0 0.000124222)
(0 -0 -0.000131147)
(0 -0 0.000145854)
(0 -0 -0.000166482)
(0 -0 0.000197522)
(0 -0 -0.000241771)
(0 -0 0.000296813)
(0 -0 -0.00036546)
(0 -0 0.000450035)
(0 -0 -0.000541472)
(0 -0 0.000627228)
(0 -0 -0.000674122)
(0 -0 0.000704178)
(0 -0 -0.000729832)
(0 -0 0.00075019)
(0 -0 -0.000774615)
(0 -0 0.000768787)
(0 -0 -0.000785185)
(0 -0 0.000821956)
(0 -0 -0.000829858)
(0 -0 -1.48311e-11)
(0 -0 5.67946e-12)
(0 -0 6.89502e-12)
(0 -0 5.9563e-12)
(0 -0 2.5406e-12)
(0 -0 -3.8687e-12)
(0 -0 -1.28713e-11)
(0 -0 -2.36811e-11)
(0 -0 -3.54715e-11)
(0 -0 -4.6435e-11)
(0 -0 -5.55097e-11)
(0 -0 -6.12085e-11)
(0 -0 -6.35517e-11)
(0 -0 -6.24391e-11)
(0 -0 -5.88295e-11)
(0 -0 -5.11765e-11)
(0 -0 -3.6918e-11)
(0 -0 -1.76888e-11)
(0 -0 -2.75275e-12)
(0 -0 -5.04179e-12)
(0 -0 2.08234e-05)
(0 -0 -2.85111e-05)
(0 -0 6.31698e-06)
(0 -0 -1.5466e-06)
(0 -0 3.55259e-07)
(0 -0 -8.2815e-08)
(0 -0 1.83058e-08)
(0 -0 -8.63045e-09)
(0 -0 -3.49519e-09)
(0 -0 -5.12403e-09)
(0 -0 -4.37936e-09)
(0 -0 -3.81764e-09)
(0 -0 -3.0044e-09)
(0 -0 -2.21583e-09)
(0 -0 -1.49274e-09)
(0 -0 -9.11515e-10)
(0 -0 -4.7768e-10)
(0 -0 -1.39841e-10)
(0 -0 5.0039e-11)
(0 -0 -4.02658e-11)
)
;
    }
    frontAndBack
    {
        type            empty;
    }
}


// ************************************************************************* //
