/*--------------------------------*- C++ -*----------------------------------*\
| =========                 |                                                 |
| \\      /  F ield         | OpenFOAM: The Open Source CFD Toolbox           |
|  \\    /   O peration     | Version:  2312                                  |
|   \\  /    A nd           | Website:  www.openfoam.com                      |
|    \\/     M anipulation  |                                                 |
\*---------------------------------------------------------------------------*/
FoamFile
{
    version     2.0;
    format      ascii;
    arch        "LSB;label=32;scalar=64";
    class       volScalarField;
    location    "50";
    object      epsilon;
}
// * * * * * * * * * * * * * * * * * * * * * * * * * * * * * * * * * * * * * //

dimensions      [0 2 -3 0 0 0 0];

internalField   nonuniform List<scalar> 
12225
(
936.699
1509.24
1777.55
1793.07
1751.87
1667.69
1567.06
1476.91
1399.96
1335.38
1281.55
1236.91
1198.86
1167.68
1139.24
1118.68
1093.95
1085.56
109.964
259.913
333.958
359.174
363.975
361.63
352.701
342.993
335.31
329.039
324.849
322.179
320.306
319.36
318.863
318.779
318.413
321.091
30.0999
67.1201
93.204
106.984
113.365
114.838
114.047
112.452
110.164
108.082
106.516
105.506
104.891
104.889
105.034
105.66
106.005
107.882
17.8805
29.1827
39.3904
46.5804
51.2841
53.7943
55.0709
55.1506
54.9156
54.3594
53.5856
52.8591
52.1453
51.6275
51.1001
50.8793
50.4749
50.7471
15.3557
19.0019
23.4001
27.0723
29.9176
31.8492
33.171
33.8556
34.2329
34.2396
34.1532
33.9529
33.6247
33.3432
32.9555
32.7205
32.2815
32.2901
14.8215
15.8181
17.5563
19.4174
21.0258
22.2703
23.2306
23.8771
24.3249
24.5613
24.6833
24.6786
24.633
24.5379
24.3672
24.2319
23.9755
23.9575
14.6761
14.8247
15.2846
16.1004
16.917
17.6248
18.2201
18.6741
19.0197
19.2531
19.4065
19.4867
19.5078
19.4927
19.4514
19.3828
19.2569
19.2531
14.6551
14.4547
14.4766
14.6433
14.9542
15.2755
15.5757
15.8279
16.0333
16.1869
16.2962
16.3653
16.4013
16.4001
16.3908
16.3524
16.2912
16.2915
14.668
14.3515
14.1557
14.0538
14.0621
14.1047
14.1843
14.2657
14.3382
14.3957
14.4355
14.4602
14.4639
14.4564
14.4389
14.4096
14.3569
14.3508
14.6758
14.3358
14.0557
13.8297
13.6741
13.563
13.4903
13.4408
13.404
13.3731
13.3426
13.3122
13.2765
13.2399
13.1953
13.1581
13.0958
13.0718
14.6777
14.3377
14.032
13.7592
13.5283
13.3336
13.1717
13.0362
12.9208
12.8208
12.731
12.6501
12.5732
12.5028
12.4306
12.3694
12.295
12.2476
14.6775
14.3396
14.0285
13.7426
13.4853
13.2556
13.0519
12.8718
12.7119
12.5693
12.4403
12.3237
12.2155
12.1172
12.0222
11.9383
11.85
11.7817
14.6772
14.3402
14.0281
13.7389
13.4722
13.2275
13.0039
12.8002
12.6145
12.4454
12.2904
12.1487
12.0174
11.897
11.7833
11.6805
11.5788
11.4927
14.677
14.3402
14.028
13.738
13.4688
13.2188
12.987
12.7723
12.5734
12.3893
12.2185
12.0603
11.9129
11.7764
11.6482
11.53
11.4167
11.3151
14.6769
14.34
14.0276
13.7375
13.4677
13.2164
12.9823
12.7639
12.5601
12.3699
12.1921
12.026
11.8704
11.7249
11.5882
11.4605
11.3397
11.2278
14.6768
14.3399
14.0273
13.737
13.4669
13.2154
12.9807
12.7614
12.5564
12.3644
12.1844
12.0157
11.8571
11.7082
11.5681
11.4364
11.3121
11.1954
14.6768
14.3397
14.0271
13.7366
13.4664
13.2146
12.9797
12.7602
12.5549
12.3625
12.1821
12.0127
11.8535
11.7038
11.5628
11.4299
11.3046
11.1865
14.6768
14.3397
14.0269
13.7363
13.466
13.2141
12.9791
12.7595
12.5541
12.3616
12.1811
12.0117
11.8524
11.7025
11.5614
11.4284
11.303
11.1846
14.6768
14.3396
14.0269
13.7363
13.4659
13.214
12.979
12.7595
12.554
12.3616
12.1812
12.0118
11.8526
11.7029
11.562
11.4291
11.3039
11.1857
14.6768
14.3397
14.0269
13.7365
13.4662
13.2145
12.9796
12.7603
12.5552
12.3633
12.1834
12.0147
11.8562
11.7074
11.5674
11.4356
11.3115
11.1944
14.6768
14.3398
14.0271
13.7367
13.4668
13.2157
12.9819
12.7642
12.5612
12.3719
12.1953
12.0302
11.8759
11.7314
11.5961
11.4689
11.35
11.2373
14.677
14.3398
14.0272
13.7379
13.4708
13.2247
12.9985
12.7908
12.6001
12.4246
12.2631
12.1138
11.9758
11.8473
11.7282
11.616
11.5125
11.4127
14.6779
14.3384
14.0297
13.7523
13.5067
13.2918
13.1046
12.9409
12.7968
12.6684
12.553
12.4475
12.3506
12.2597
12.1754
12.0935
12.0192
11.942
14.6794
14.337
14.0751
13.8733
13.7319
13.6394
13.5795
13.5396
13.5104
13.4851
13.4607
13.4332
13.4036
13.3685
13.3312
13.2869
13.2465
13.191
14.6846
14.4109
14.4213
14.4956
14.6885
14.9174
15.1388
15.3371
15.5013
15.6309
15.7275
15.7909
15.8309
15.8406
15.8334
15.8144
15.7847
15.7279
14.8081
15.0391
15.8726
16.8998
17.865
18.7087
19.3919
19.9335
20.3308
20.6194
20.8057
20.9134
20.9594
20.9503
20.9094
20.8371
20.7634
20.6268
15.6355
18.1164
21.7893
24.9217
27.3698
29.2331
30.5389
31.4432
31.9609
32.2664
32.3234
32.2709
32.1532
31.9082
31.6771
31.3503
31.1045
30.749
19.9125
33.9034
45.0985
53.0502
58.3227
61.6844
63.44
64.21
64.1431
63.8037
63.181
62.3197
61.5078
60.6065
59.9041
59.0863
58.5845
57.8781
57.9103
118.775
155.047
177.155
189.499
195.417
196.201
195.251
192.931
189.777
186.688
183.831
181.388
179.207
177.561
175.968
175.085
173.882
557.191
767.349
897.542
964.715
980.369
974.048
957.248
929.972
901.242
873.334
847.391
823.822
802.683
783.816
767.057
752.166
738.912
727.133
1.25928
1.31244
2.17852
2.97236
3.61783
4.09401
4.41163
4.58445
4.63976
4.63174
4.57473
4.44116
4.29611
4.27476
4.34448
4.56531
4.93565
5.30764
5.64786
6.00341
6.52144
7.67253
9.96367
13.0604
16.6866
20.7656
25.1907
29.6249
34.1216
38.6456
43.1726
47.6339
52.0307
56.3752
60.6499
64.8798
69.0415
73.1654
77.2219
81.2447
85.1974
89.1155
92.9581
96.7647
100.494
104.191
107.814
111.412
114.937
118.425
121.808
125.109
128.277
131.403
134.404
137.313
140.069
142.665
145.21
147.829
150.637
153.476
156.184
158.263
159.772
161.548
163.344
163.911
164.237
164.096
162.384
164.414
161.496
162.774
161.781
157.075
158.306
156.403
153.501
150.868
147.02
139.495
138.856
136.765
127.91
126.143
122.378
119.043
115.594
112.176
108.774
105.399
102.057
98.7642
95.5266
92.3569
89.2571
86.237
83.2964
80.442
77.6659
74.9498
72.1869
69.5218
66.971
64.528
62.1928
59.9572
57.8176
55.7641
53.8017
51.9338
50.1753
48.643
47.5444
46.6242
45.7658
44.9418
44.1488
43.3812
42.64
41.9241
41.2369
40.5739
39.9404
39.3311
38.7367
38.1778
37.6271
37.0481
36.4742
35.9167
35.3855
34.8788
34.3953
33.9206
33.4558
33.0041
32.5737
32.1643
31.7758
31.4065
31.0566
30.7236
30.4028
30.0863
29.7662
29.4321
29.0736
28.6791
28.2381
27.7408
27.1819
26.5598
25.8825
25.1617
24.4175
23.6764
22.9627
22.3018
21.7107
21.1982
20.7775
20.4312
20.1753
19.9791
19.8552
19.7792
19.7315
19.7305
19.7483
19.7675
19.8079
19.8153
19.8316
19.8478
19.7249
19.6622
19.2668
18.5471
6.8346
4.72909
4.0821
3.6661
3.36208
3.1721
3.06572
3.03323
3.06144
3.17357
3.39882
3.72741
4.20536
4.86732
5.77731
6.9309
8.31705
10.0851
12.2691
14.6825
17.1687
19.6487
22.0358
24.0512
25.8233
27.451
28.9557
30.3789
31.7971
32.8618
33.9178
34.9357
35.9467
36.9594
37.9776
39.0076
40.0456
41.0951
42.1489
43.2093
44.2681
45.3274
46.3795
47.4274
48.4642
49.4936
50.5086
51.5117
52.4944
53.4572
54.3904
55.2969
56.1729
57.0258
57.8464
58.6418
59.4139
60.1813
60.9677
61.7874
62.6415
63.5282
64.3521
65.0941
65.7779
66.4384
67.0646
67.6863
67.9556
68.0149
67.7023
68.1495
67.6844
68.0113
67.6686
66.4989
66.6898
65.1565
64.5177
63.6515
62.5723
61.3523
60.5502
59.3783
57.792
56.8064
55.5407
54.2959
53.0113
51.7078
50.3805
49.0114
47.6299
46.2637
44.9169
43.5937
42.2973
41.0306
39.7948
38.5913
37.4183
36.2723
35.1445
34.0525
32.9999
31.9869
31.0121
30.0745
29.1719
28.3028
27.4665
26.665
25.9035
25.2012
24.5857
24.0262
23.5005
22.998
22.5143
22.0473
21.5955
21.1584
20.736
20.3278
19.9335
19.5532
19.1836
18.8287
18.4715
18.11
17.7505
17.3975
17.0534
16.7166
16.3881
16.0658
15.7483
15.4362
15.1317
14.8358
14.5487
14.2701
13.9995
13.7363
13.4789
13.2248
12.9712
12.7149
12.4522
12.1795
11.8934
11.5912
11.2712
10.9327
10.578
10.211
9.83767
9.46679
9.10695
8.76747
8.45588
8.17685
7.93546
7.72944
7.56057
7.42508
7.31936
7.24324
7.18813
7.15207
7.13167
7.12192
7.13071
7.15486
7.19303
7.25839
7.33115
7.49566
7.61505
8.32647
16.5288
8.30381
5.93291
4.9925
4.50154
4.23942
4.14422
4.19538
4.39926
4.79644
5.45079
6.45146
7.8938
9.82153
12.0948
14.4658
16.6699
18.4678
19.8158
20.8021
21.6261
22.3815
23.1208
23.9009
24.593
25.1935
25.7808
26.3435
26.8613
27.6173
28.4302
29.2764
30.1487
31.0373
31.9329
32.8289
33.7185
34.5982
35.4636
36.3134
37.1456
37.9607
38.7578
39.5386
40.3029
41.0526
41.7879
42.5106
43.2207
43.9201
44.6096
45.2921
45.969
46.6437
47.3176
47.9947
48.6778
49.3711
50.0756
50.7892
51.5053
52.2133
52.8947
53.5459
54.1658
54.7503
55.2875
55.7621
56.1398
56.4329
56.6316
56.8541
56.9039
57.0805
56.9547
56.6854
56.4338
55.9005
55.4021
54.7819
54.0573
53.2598
52.4395
51.4938
50.4606
49.4665
48.3949
47.2915
46.1569
45.0008
43.8278
42.6432
41.4588
40.2839
39.1242
37.9836
36.8657
35.7729
34.7073
33.6698
32.6605
31.6789
30.7242
29.8004
28.9086
28.0489
27.2203
26.4219
25.6521
24.9103
24.1956
23.5088
22.852
22.2311
21.6521
21.1061
20.5875
20.0911
19.6133
19.1522
18.7061
18.2743
17.8564
17.4519
17.0602
16.6811
16.3133
15.9571
15.608
15.2637
14.9248
14.5927
14.2667
13.9405
13.6191
13.3029
12.9897
12.6797
12.3741
12.0735
11.7778
11.4869
11.2005
10.9188
10.641
10.3659
10.0923
9.81843
9.54245
9.26236
8.97635
8.68287
8.38081
8.06972
7.75061
7.42565
7.09847
6.77409
6.45838
6.15763
5.87767
5.6228
5.39641
5.19936
5.03109
4.89106
4.77522
4.68382
4.61
4.55553
4.51145
4.48222
4.46029
4.45517
4.45471
4.47107
4.4931
4.55604
4.61619
4.91464
24.5295
10.4581
7.52523
6.51734
6.06333
5.89298
5.94905
6.25009
6.83454
7.75015
9.03425
10.6802
12.5944
14.5754
16.3598
17.6762
18.6034
19.2539
19.7925
20.2671
20.6252
21.0028
21.4097
21.8301
22.3695
23.0268
23.7405
24.5067
25.3267
26.2126
27.1236
28.0462
28.9711
29.8905
30.7978
31.6889
32.5603
33.4112
34.2394
35.0451
35.8284
36.5911
37.3342
38.06
38.7701
39.467
40.1526
40.8295
41.4998
42.1663
42.8312
43.4973
44.1669
44.8426
45.5264
46.2201
46.9247
47.6406
48.3663
49.0993
49.8357
50.5685
51.29
51.9957
52.6802
53.3368
53.9572
54.5315
55.0472
55.4995
55.8865
56.2027
56.4086
56.6029
56.6365
56.6569
56.4981
56.1987
55.8014
55.2889
54.6678
53.9502
53.1449
52.2462
51.2721
50.2462
49.1609
48.0303
46.8641
45.6718
44.4626
43.245
42.0277
40.8186
39.6235
38.4474
37.2943
36.1674
35.0688
34.0002
32.9623
31.9556
30.9804
30.0376
29.1274
28.2495
27.4029
26.5868
25.8002
25.0425
24.3132
23.6121
22.9397
22.2974
21.686
21.101
20.544
20.0096
19.495
18.9984
18.5182
18.0535
17.6036
17.168
16.7461
16.3373
15.9408
15.5561
15.1812
14.8149
14.4566
14.1064
13.7638
13.4269
13.0962
12.7715
12.4481
12.1257
11.8066
11.4899
11.1759
10.8642
10.5535
10.2454
9.94015
9.63743
9.33675
9.03736
8.73824
8.43821
8.13615
7.83095
7.52163
7.20772
6.88976
6.56904
6.24787
5.92976
5.61919
5.32131
5.04122
4.78322
4.55059
4.34515
4.16672
4.01506
3.88721
3.78242
3.6957
3.62735
3.57111
3.52938
3.49524
3.47298
3.45795
3.45537
3.46138
3.48712
3.52745
3.67659
30.209
12.4769
9.49725
8.53847
8.17272
8.10139
8.29491
8.78252
9.57203
10.6451
11.9356
13.3255
14.6617
15.7684
16.6485
17.3761
17.8264
18.1116
18.3348
18.6066
19.0188
19.5202
20.1017
20.7615
21.5051
22.3175
23.1801
24.085
25.0227
25.9835
26.9535
27.9243
28.8887
29.8414
30.7775
31.6935
32.5861
33.4587
34.3091
35.1378
35.9451
36.7327
37.5021
38.2554
38.9946
39.7223
40.441
41.1534
41.8622
42.5703
43.2806
43.996
44.719
45.4525
46.1985
46.9589
47.7348
48.5264
49.3329
50.1523
50.9811
51.8159
52.6527
53.4867
54.3122
55.1219
55.9074
56.6587
57.3643
58.0135
58.596
59.1
59.5145
59.8272
60.0029
60.1584
60.1372
59.966
59.6558
59.2085
58.63
57.9283
57.1112
56.1869
55.1686
54.07
52.9008
51.674
50.4021
49.0976
47.7713
46.4342
45.0959
43.7649
42.4482
41.1519
39.8807
38.6386
37.4284
36.252
35.111
34.0057
32.9368
31.9042
30.9079
29.9474
29.0221
28.1309
27.2733
26.448
25.6544
24.8915
24.1591
23.4568
22.7841
22.1391
21.5204
20.9256
20.3526
19.7997
19.2655
18.7488
18.249
17.7652
17.2967
16.8427
16.4027
15.9757
15.5608
15.1567
14.763
14.3791
14.0046
13.6383
13.28
12.9292
12.5841
12.2437
11.9069
11.5691
11.232
10.8949
10.557
10.2211
9.88723
9.55561
9.22644
8.89957
8.57455
8.25073
7.92743
7.60385
7.27905
6.9518
6.62345
6.29473
5.96706
5.64297
5.32604
5.02065
4.73144
4.46267
4.21784
3.99919
3.80718
3.64171
3.5007
3.38281
3.2843
3.20411
3.13782
3.08562
3.04287
3.01096
2.98638
2.97409
2.97249
2.97836
3.00457
3.08313
34.5922
14.9357
11.7761
10.8214
10.4808
10.4178
10.5871
10.9994
11.6223
12.3969
13.2371
14.0486
14.771
15.4086
15.8563
16.1548
16.4505
16.7873
17.186
17.6735
18.2574
18.9219
19.6576
20.4578
21.3164
22.2199
23.1575
24.1188
25.1023
26.1026
27.1115
28.1222
29.129
30.1277
31.1144
32.0864
33.0422
33.98
34.8983
35.7972
36.6767
37.5381
38.3824
39.2115
40.0272
40.8318
41.6277
42.4176
43.2042
43.9906
44.7797
45.5747
46.3784
47.1941
48.0243
48.8717
49.7382
50.6253
51.5337
52.4634
53.4134
54.3817
55.3651
56.359
57.3572
58.352
59.3338
60.2911
61.2108
62.0785
62.8793
63.5974
64.2165
64.7208
65.0999
65.3118
65.456
65.4107
65.1895
64.8007
64.2511
63.5486
62.7027
61.725
60.6292
59.4303
58.1432
56.7834
55.3666
53.9074
52.4201
50.9176
49.4116
47.9121
46.4279
44.9661
43.5327
42.1323
40.7685
39.4437
38.1595
36.917
35.7166
34.5585
33.4425
32.3681
31.3344
30.3404
29.3848
28.4664
27.584
26.7364
25.9224
25.141
24.3909
23.6707
22.9785
22.3125
21.6708
21.0519
20.4543
19.8768
19.3184
18.7782
18.2553
17.7489
17.2583
16.7826
16.3208
15.872
15.4355
15.0107
14.5969
14.1933
13.7994
13.4146
13.0377
12.6678
12.3037
11.9428
11.5814
11.2172
10.8506
10.4836
10.1179
9.75433
9.39375
9.03647
8.68249
8.33158
7.98336
7.63727
7.29251
6.94789
6.60487
6.26333
5.92417
5.58931
5.26163
4.94499
4.64359
4.36129
4.10214
3.86868
3.66187
3.48181
3.32711
3.19615
3.08592
2.99458
2.91871
2.85713
2.80656
2.76661
2.73558
2.71224
2.70535
2.70457
2.71964
2.76192
37.0169
16.8922
13.7439
12.8001
12.4263
12.299
12.307
12.4638
12.7513
13.1233
13.5316
13.9494
14.3218
14.6384
14.9592
15.2977
15.692
16.1575
16.6996
17.3198
18.0138
18.7734
19.5909
20.4565
21.3605
22.3058
23.2889
24.304
25.3428
26.398
27.4639
28.5352
29.6071
30.6752
31.7358
32.7864
33.8246
34.8485
35.8563
36.8474
37.8212
38.7781
39.7185
40.6437
41.5548
42.4538
43.3427
44.2241
45.1005
45.9751
46.8511
47.7319
48.6211
49.5226
50.44
51.3771
52.3371
53.3234
54.3384
55.3838
56.4603
57.5675
58.7029
59.8627
61.0409
62.2294
63.4177
64.5931
65.7401
66.8417
67.8789
68.8315
69.6788
70.4005
70.9772
71.3942
71.6105
71.7232
71.6061
71.2855
70.7698
70.0677
69.1902
68.1511
66.9662
65.6534
64.231
62.7182
61.1337
59.4956
57.8209
56.1256
54.4238
52.7278
51.0479
49.393
47.7701
46.1849
44.6416
43.1435
41.6927
40.2908
38.9384
37.6356
36.3818
35.1765
34.0182
32.9059
31.8377
30.8123
29.8278
28.8829
27.9757
27.1049
26.2686
25.4653
24.6928
23.9497
23.2338
22.5437
21.8777
21.2346
20.6131
20.0123
19.4311
18.8686
18.3238
17.7959
17.2839
16.7869
16.3041
15.8348
15.3781
14.9334
14.4999
14.077
13.6636
13.2588
12.8614
12.4694
12.0798
11.6875
11.2899
10.8905
10.4916
10.0951
9.70207
9.31337
8.92934
8.55006
8.17538
7.80494
7.43812
7.07435
6.71372
6.35629
6.00265
5.6542
5.31331
4.98339
4.66827
4.37162
4.098
3.84982
3.62835
3.43398
3.26553
3.12161
2.99968
2.89749
2.8121
2.74162
2.68341
2.63611
2.59865
2.5689
2.55048
2.54872
2.55574
2.57584
37.81
18.101
15.0226
14.0771
13.6495
13.4022
13.2528
13.1941
13.2035
13.2842
13.4434
13.6329
13.8684
14.1489
14.4876
14.8916
15.3678
15.917
16.5371
17.224
17.9726
18.7775
19.6313
20.5344
21.4847
22.475
23.4998
24.5561
25.6391
26.7435
27.8646
28.9976
30.138
31.2815
32.4244
33.5632
34.695
35.817
36.9271
38.0235
39.1051
40.1712
41.2214
42.2561
43.2758
44.2818
45.2756
46.2592
47.2351
48.2063
49.176
50.1479
51.1262
52.1153
53.1198
54.1447
55.1948
56.2749
57.3894
58.542
59.7354
60.9709
62.2478
63.5635
64.9131
66.2887
67.6798
69.0726
70.4501
71.7925
73.0772
74.2797
75.3745
76.3359
77.1396
77.7642
78.1435
78.3922
78.3971
78.1622
77.6948
77.0041
76.1025
75.0055
73.7318
72.3024
70.7393
69.0652
67.3028
65.4736
63.5983
61.6956
59.7828
57.8745
55.9829
54.1188
52.2911
50.5065
48.7705
47.0871
45.4589
43.8874
42.3732
40.9164
39.5162
38.1716
36.881
35.6428
34.4551
33.316
32.2234
31.1754
30.1699
29.2049
28.2785
27.3886
26.5333
25.7105
24.9184
24.1551
23.419
22.7087
22.0228
21.3601
20.7193
20.0995
19.4996
18.9185
18.3553
17.809
17.2788
16.7637
16.2629
15.7756
15.3009
14.8381
14.3862
13.9441
13.5106
13.0837
12.6609
12.2377
11.8074
11.3746
10.9423
10.5128
10.0876
9.66764
9.25359
8.84575
8.44416
8.04864
7.65881
7.27422
6.89465
6.52
6.15055
5.78733
5.43227
5.08837
4.75927
4.44878
4.16073
3.89795
3.662
3.45357
3.2717
3.11537
2.9821
2.86947
2.7747
2.69557
2.62971
2.57536
2.53131
2.49599
2.46919
2.45654
2.46234
2.47198
38.8063
18.7142
15.5508
14.5515
14.0748
13.7545
13.5052
13.3187
13.2142
13.1916
13.2299
13.3578
13.5713
13.8665
14.2413
14.6927
15.2176
15.8117
16.4708
17.1902
17.9656
18.7961
19.6797
20.6121
21.59
22.6101
23.6693
24.7641
25.8907
27.0448
28.2222
29.4186
30.6296
31.851
33.0788
34.309
35.5381
36.7628
37.98
39.1874
40.3828
41.5645
42.7313
43.8826
45.0181
46.1381
47.2435
48.3357
49.4166
50.4889
51.5555
52.6203
53.6876
54.7623
55.8497
56.9558
58.0866
59.2487
60.4482
61.6912
62.9825
64.3259
65.7229
67.1732
68.6734
70.2173
71.7948
73.3921
74.9913
76.5703
78.1035
79.562
80.9148
82.1302
83.177
84.0264
84.6435
85.0017
85.1598
85.0316
84.6312
83.9683
83.0563
81.9127
80.559
79.0194
77.3199
75.4869
73.5471
71.526
69.4474
67.3339
65.206
63.0811
60.9743
58.8984
56.8637
54.8782
52.9484
51.0783
49.2713
47.5288
45.8516
44.2394
42.6915
41.2063
39.7822
38.4171
37.109
35.8553
34.6538
33.5021
32.3978
31.3385
30.3221
29.3461
28.4084
27.5068
26.6393
25.8038
24.9987
24.2222
23.4729
22.7492
22.05
21.3739
20.7199
20.0866
19.4732
18.8785
18.3015
17.7412
17.1968
16.6672
16.1516
15.6489
15.1582
14.6782
14.2076
13.7445
13.286
12.8282
12.3638
11.8976
11.4326
10.9711
10.5148
10.0648
9.62179
9.18629
8.75845
8.33822
7.92537
7.51958
7.12056
6.72814
6.34237
5.96392
5.59438
5.23641
4.89345
4.56922
4.26733
3.99068
3.74107
3.51927
3.32479
3.15636
3.01188
2.88893
2.78478
2.69723
2.62383
2.56259
2.51205
2.47093
2.4374
2.42095
2.41489
2.41638
41.4971
19.082
15.5198
14.4233
13.9214
13.5949
13.338
13.1337
12.9894
12.9296
12.9585
13.0908
13.3213
13.6427
14.0478
14.5298
15.0828
15.7016
16.3819
17.12
17.9138
18.7602
19.6573
20.6046
21.6015
22.647
23.7369
24.8679
26.0365
27.2376
28.4685
29.7255
31.0043
32.3007
33.6104
34.9292
36.2532
37.5786
38.9017
40.2193
41.5283
42.8263
44.1109
45.3808
46.6345
47.8716
49.0917
50.2958
51.4847
52.6606
53.826
54.9843
56.1398
57.2974
58.4628
59.6427
60.844
62.0747
63.3427
64.6563
66.0228
67.4488
68.9388
70.495
72.1168
73.8001
75.5367
77.3136
79.113
80.9115
82.6809
84.3883
85.9975
87.4703
88.7686
89.8567
90.7035
91.2425
91.5471
91.54
91.2239
90.6064
89.7009
88.5266
87.1075
85.4713
83.6475
81.6668
79.5601
77.3569
75.0855
72.7719
70.44
68.1101
65.7995
63.5227
61.2913
59.1146
56.9995
54.951
52.9726
51.066
49.232
47.4704
45.78
44.1595
42.6067
41.1193
39.6949
38.3309
37.0245
35.7729
34.5736
33.4238
32.3209
31.2625
30.2461
29.2694
28.33
27.4259
26.5551
25.7158
24.9062
24.1248
23.3701
22.6408
21.9354
21.2528
20.5917
19.951
19.3296
18.7264
18.1403
17.5702
17.0151
16.474
15.9455
15.4284
14.9212
14.4217
13.9269
13.4322
12.9335
12.4347
11.9385
11.4469
10.9616
10.4835
10.0135
9.55208
9.09949
8.65577
8.2208
7.79433
7.37613
6.96599
6.56388
6.17024
5.78634
5.41459
5.05823
4.72083
4.40588
4.11624
3.85381
3.61948
3.41294
3.233
3.07773
2.94478
2.83154
2.73557
2.65452
2.58627
2.52922
2.48197
2.44323
2.41409
2.39704
2.39386
43.4065
19.0455
15.1308
13.912
13.3778
13.061
12.8284
12.6527
12.5555
12.537
12.6086
12.7759
13.0366
13.3848
13.8133
14.3153
14.8851
15.5181
16.211
16.9617
17.7685
18.6283
19.5393
20.5009
21.5127
22.5726
23.6793
24.831
26.0261
27.2653
28.5423
29.8527
31.1922
32.5565
33.9398
35.339
36.75
38.1685
39.5905
41.0118
42.4289
43.8385
45.2375
46.6234
47.9938
49.3472
50.6825
51.9993
53.2978
54.579
55.8448
57.0979
58.342
59.5817
60.8227
62.0717
63.3364
64.6254
65.9482
67.315
68.7356
70.2196
71.7743
73.4054
75.1153
76.9031
78.763
80.6842
82.6497
84.6363
86.6142
88.5472
90.3942
92.1105
93.6508
94.9718
96.0349
96.79
97.236
97.3601
97.1398
96.5808
95.6964
94.5074
93.0405
91.3267
89.3996
87.2942
85.0453
82.6867
80.2494
77.7628
75.2533
72.744
70.2539
67.7992
65.3926
63.0447
60.7631
58.5537
56.42
54.3644
52.3876
50.4895
48.6688
46.9242
45.2531
43.6534
42.1222
40.6566
39.2536
37.9102
36.6234
35.3904
34.2082
33.0741
31.9855
30.9399
29.9347
28.9678
28.0369
27.1402
26.2756
25.4416
24.6363
23.8583
23.1061
22.3785
21.6739
20.9911
20.329
19.6863
19.0617
18.4542
17.8624
17.2852
16.7211
16.1688
15.6263
15.0914
14.5606
14.0291
13.4975
12.9684
12.4435
11.9246
11.4129
10.9095
10.4151
9.93013
9.45492
8.98956
8.53401
8.0881
7.65162
7.22441
6.80643
6.398
6.0002
5.61526
5.24623
4.89651
4.56943
4.26779
3.99353
3.74755
3.5297
3.33889
3.17329
3.03064
2.9084
2.8041
2.71535
2.64001
2.57635
2.52279
2.47837
2.44174
2.41572
2.39689
43.3342
18.4917
14.3347
13.0558
12.5286
12.2619
12.1038
12.0166
11.9952
12.0454
12.1745
12.3867
12.6811
13.0539
13.5003
14.0149
14.5936
15.2329
15.9304
16.6845
17.494
18.3582
19.2767
20.249
21.2736
22.3493
23.4747
24.6477
25.8667
27.1282
28.4305
29.771
31.1471
32.5584
34
35.466
36.9511
38.4507
39.9607
41.4745
42.9893
44.5015
46.007
47.5026
48.9847
50.451
51.8993
53.3282
54.7367
56.1249
57.4935
58.8444
60.1802
61.5049
62.8235
64.1423
65.469
66.8127
68.1833
69.5927
71.0526
72.5751
74.1707
75.8482
77.6134
79.4686
81.4115
83.4338
85.5207
87.6501
89.7919
91.9082
93.9539
95.8781
97.6277
99.1527
100.407
101.349
101.952
102.19
102.064
101.567
100.714
99.5267
98.0347
96.2718
94.2746
92.0809
89.7289
87.2547
84.6918
82.0715
79.4233
76.7725
74.1396
71.5418
68.9932
66.505
64.0861
61.7427
59.479
57.2978
55.2
53.1855
51.2534
49.4019
47.6289
45.9319
44.308
42.7543
41.2674
39.8442
38.4813
37.1757
35.9244
34.7243
33.5728
32.4671
31.4046
30.3829
29.3997
28.4529
27.5405
26.6605
25.8112
24.9909
24.1979
23.4308
22.6882
21.9685
21.2706
20.593
19.9344
19.2934
18.6687
18.0588
17.4622
16.8771
16.3017
15.7328
15.1664
14.6023
14.0416
13.4856
12.9356
12.3928
11.8582
11.3327
10.8168
10.3112
9.81592
9.33125
8.85713
8.39349
7.94017
7.49703
7.06408
6.64162
6.23073
5.83348
5.45275
5.09176
4.75367
4.44116
4.15613
3.8995
3.67118
3.47018
3.29476
3.14275
3.01169
2.89909
2.8026
2.72003
2.6496
2.58954
2.53909
2.49596
2.46296
2.43268
42.2394
17.5717
13.3773
12.0908
11.5925
11.3839
11.3061
11.3026
11.3621
11.4831
11.6701
11.9262
12.2519
12.6457
13.1048
13.6262
14.2074
14.8461
15.541
16.2912
17.0964
17.9564
18.8711
19.8404
20.864
21.9413
23.072
24.2557
25.4898
26.7717
28.099
29.4688
30.8774
32.3207
33.7959
35.3002
36.8296
38.3812
39.9546
41.5437
43.1419
44.7443
46.3462
47.9438
49.5305
51.1043
52.6622
54.202
55.7211
57.2185
58.6938
60.1477
61.5817
62.9986
64.4023
65.7983
67.1934
68.5962
70.0169
71.4675
72.9613
74.5121
76.1328
77.8349
79.6272
81.5152
83.4997
85.5757
87.7306
89.9446
92.189
94.4265
96.6092
98.6803
100.578
102.248
103.644
104.72
105.444
105.77
105.725
105.285
104.469
103.299
101.808
100.029
98.0007
95.7621
93.3539
90.8135
88.1753
85.4706
82.7334
79.9914
77.2646
74.5705
71.9242
69.3379
66.821
64.3803
62.021
59.7459
57.5567
55.4532
53.435
51.5003
49.647
47.8729
46.1756
44.5517
42.9979
41.5106
40.0866
38.7225
37.4153
36.1619
34.9593
33.8048
32.6956
31.6293
30.6035
29.616
28.6646
27.7472
26.8619
26.0069
25.1805
24.381
23.607
22.8568
22.1291
21.4222
20.7348
20.0653
19.4122
18.7738
18.1483
17.5337
16.9279
16.3266
15.7304
15.1395
14.5546
13.9763
13.4054
12.8427
12.2891
11.7451
11.2113
10.6881
10.1757
9.67437
9.18406
8.70476
8.23639
7.77887
7.33226
6.89695
6.4741
6.06572
5.67452
5.30353
4.9557
4.63358
4.33897
4.07276
3.83489
3.62443
3.43977
3.27877
3.13909
3.01827
2.91399
2.82403
2.74663
2.67985
2.62306
2.57338
2.53433
2.49465
39.764
16.4451
12.3774
11.1287
10.6694
10.5151
10.5021
10.5713
10.7009
10.885
11.1238
11.419
11.7715
12.1815
12.6481
13.1702
13.747
14.3777
15.0619
15.7996
16.5912
17.4368
18.3371
19.2923
20.3026
21.3681
22.4885
23.6634
24.8914
26.1713
27.5014
28.8801
30.3052
31.7722
33.2783
34.8201
36.3937
37.994
39.6142
41.253
42.9069
44.572
46.2447
47.9248
49.6062
51.2821
52.9476
54.5996
56.232
57.8432
59.4322
60.9984
62.542
64.0643
65.5676
67.0559
68.5346
70.011
71.4944
72.9962
74.5298
76.1099
77.7507
79.4655
81.2651
83.1573
85.1451
87.2258
89.3896
91.6187
93.8875
96.1636
98.3796
100.473
102.39
104.089
105.521
106.64
107.409
107.795
107.79
107.386
106.605
105.47
104.009
102.256
100.245
98.0222
95.6263
93.0932
90.4546
87.7358
84.9799
82.2093
79.4484
76.7158
74.0268
71.3944
68.8285
66.3367
63.9244
61.5956
59.3519
57.1939
55.1211
53.1326
51.2257
49.3998
47.6528
45.9811
44.3813
42.8497
41.383
39.9778
38.6311
37.3396
36.1005
34.9108
33.768
32.6693
31.6124
30.5952
29.6153
28.6706
27.7589
26.8783
26.0271
25.2034
24.4057
23.6323
22.8816
22.1521
21.442
20.7496
20.0732
19.411
18.7607
18.1198
17.4866
16.8607
16.2424
15.6314
15.0281
14.4326
13.8456
13.2676
12.6991
12.1405
11.5924
11.055
10.5287
10.0135
9.50964
9.01704
8.5357
8.06566
7.60707
7.16048
6.72718
6.30917
5.90899
5.52947
5.17336
4.84302
4.54012
4.26548
4.01906
3.79998
3.60668
3.43714
3.28907
3.16013
3.04801
2.95052
2.86592
2.79217
2.72876
2.67228
2.62723
2.57912
36.0618
15.3073
11.4243
10.2362
9.81692
9.70486
9.7423
9.86587
10.0504
10.2847
10.5655
10.8925
11.2664
11.6877
12.157
12.6744
13.2406
13.856
14.5213
15.2374
16.0054
16.8261
17.7005
18.6296
19.6139
20.654
21.7501
22.9021
24.1095
25.3716
26.6872
28.055
29.4732
30.9393
32.4507
34.0049
35.599
37.2302
38.8935
40.5851
42.301
44.0371
45.788
47.5448
49.305
51.066
52.8245
54.582
56.3333
58.0661
59.7796
61.4721
63.1423
64.7896
66.4144
68.0185
69.6051
71.1794
72.7487
74.3227
75.9136
77.5354
79.2026
80.9282
82.7237
84.5971
86.5522
88.5872
90.6932
92.8537
95.0443
97.2301
99.3226
101.282
103.108
104.738
106.119
107.204
107.957
108.334
108.329
107.93
107.166
106.059
104.633
102.92
100.953
98.7755
96.4246
93.935
91.336
88.6426
85.926
83.1992
80.4778
77.7784
75.1157
72.503
69.9504
67.4659
65.0557
62.7243
60.4737
58.3041
56.2178
54.2142
52.2878
50.4415
48.6733
46.9805
45.3596
43.8069
42.3192
40.8933
39.5261
38.2146
36.9558
35.7469
34.5854
33.4683
32.3936
31.3594
30.3633
29.4028
28.4756
27.5798
26.7135
25.8748
25.062
24.2737
23.5078
22.7628
22.0368
21.3276
20.6336
19.9524
19.2813
18.6208
17.9699
17.3282
16.6954
16.0712
15.4555
14.8485
14.2505
13.6617
13.0826
12.5135
11.9548
11.4069
10.8698
10.3439
9.8292
9.32584
8.83389
8.35348
7.88493
7.42901
6.98714
6.5613
6.1539
5.76755
5.40479
5.06775
4.75798
4.47619
4.2223
3.99547
3.79421
3.6166
3.46045
3.32349
3.20352
3.09838
3.00636
2.92536
2.85504
2.7915
2.74019
2.68405
30.98
14.0585
10.5066
9.41027
9.03623
8.96148
9.03495
9.19905
9.42539
9.69849
10.0124
10.3648
10.7553
11.1841
11.6523
12.161
12.7118
13.3061
13.9457
14.6324
15.368
16.1542
16.9927
17.8848
18.8319
19.8351
20.895
22.0121
23.1867
24.4184
25.707
27.0516
28.4512
29.9043
31.4091
32.9638
34.566
36.2131
37.9019
39.6291
41.391
43.1837
45.0028
46.8436
48.703
50.5755
52.4548
54.3289
56.2005
58.0667
59.9216
61.762
63.5838
65.3845
67.1614
68.9137
70.6414
72.3469
74.034
75.7096
77.3829
79.066
80.7708
82.5092
84.2904
86.1214
88.0043
89.9364
91.9079
93.9032
95.9021
97.8232
99.6861
101.429
103.022
104.423
105.595
106.503
107.137
107.381
107.304
106.857
106.089
105.01
103.642
102.01
100.143
98.0756
95.84
93.4676
90.9865
88.4128
85.7944
83.1527
80.5085
77.8792
75.28
72.7238
70.2212
67.7802
65.4075
63.1081
60.8846
58.7369
56.6687
54.679
52.7557
50.9192
49.1628
47.4806
45.8684
44.3228
42.8406
41.4189
40.0547
38.7454
37.4874
36.2791
35.1179
33.9995
32.9237
31.8878
30.8892
29.9257
28.995
28.0953
27.2246
26.3807
25.5622
24.7678
23.9949
23.2419
22.5071
21.787
21.0806
20.3875
19.7064
19.0366
18.3774
17.728
17.0881
16.4573
15.8353
15.2222
14.6181
14.0232
13.4377
12.862
12.2965
11.7413
11.1967
10.663
10.1403
9.62885
9.12873
8.64027
8.16402
7.70097
7.25266
6.82102
6.40833
6.01699
5.64932
5.30722
4.99203
4.70438
4.44413
4.21043
4.00188
3.81666
3.65269
3.50782
3.37993
3.26695
3.16724
3.07868
3.00107
2.93013
2.87216
2.80807
25.1492
12.523
9.58685
8.6616
8.35939
8.32812
8.43116
8.629
8.88686
9.18955
9.52933
9.90213
10.3063
10.7416
11.2089
11.7096
12.2459
12.82
13.4345
14.0919
14.7948
15.5458
16.3472
17.2012
18.1097
19.0744
20.0966
21.1775
22.3177
23.5179
24.7781
26.0984
27.4785
28.9177
30.4151
31.9697
33.5798
35.2438
36.9593
38.7238
40.5344
42.3877
44.2799
46.2067
48.1661
50.1506
52.1543
54.1715
56.1863
58.203
60.2189
62.2278
64.2246
66.2048
68.162
70.0915
71.9897
73.8551
75.6873
77.4889
79.2646
81.0224
82.77
84.515
86.2628
88.0155
89.7724
91.5259
93.265
94.9708
96.6185
98.1616
99.6047
100.915
102.068
103.043
103.814
104.362
104.681
104.7
104.425
103.864
103.043
101.966
100.65
99.1117
97.3744
95.4612
93.3976
91.2083
88.9173
86.5474
84.1225
81.6647
79.1934
76.7253
74.2754
71.8563
69.4787
67.1511
64.8806
62.6728
60.5314
58.4573
56.4543
54.5224
52.6517
50.8589
49.1387
47.4881
45.9043
44.3845
42.926
41.5258
40.1816
38.8907
37.6496
36.457
35.3105
34.2029
33.1404
32.1186
31.1337
30.1829
29.2634
28.3739
27.5125
26.6755
25.8629
25.0729
24.3025
23.5496
22.8143
22.0946
21.3892
20.6971
20.0171
19.3484
18.6901
18.0415
17.4021
16.7716
16.1496
15.5362
14.9314
14.3353
13.7482
13.1703
12.602
12.0435
11.4952
10.9573
10.43
9.91356
9.40842
8.91501
8.43412
7.96695
7.51506
7.08036
6.66501
6.27119
5.90095
5.55596
5.23736
4.94561
4.68052
4.44123
4.22643
4.03438
3.86315
3.71072
3.5751
3.45431
3.34684
3.25054
3.1654
3.08686
3.02187
2.94988
19.7857
10.8562
8.68529
7.99716
7.79881
7.82406
7.9632
8.19601
8.48522
8.81722
9.18346
9.57879
10.0005
10.4478
10.9212
11.4217
11.9537
12.519
13.1203
13.7609
14.4439
15.1728
15.9504
16.7798
17.6634
18.6036
19.6022
20.661
21.7813
22.9642
24.2107
25.5213
26.8965
28.3366
29.8413
31.4103
33.043
34.7384
36.495
38.3111
40.1845
42.1124
44.0907
46.1167
48.1765
50.2708
52.396
54.5472
56.7199
58.9081
61.1046
63.3015
65.4915
67.6638
69.8106
71.924
73.9974
76.0243
78
79.9211
81.7879
83.6014
85.3639
87.0765
88.7383
90.3463
91.8926
93.368
94.7557
96.0428
97.1591
98.1832
99.0553
99.7693
100.332
100.738
100.978
101.052
100.972
100.662
100.151
99.4538
98.5661
97.491
96.2351