/*--------------------------------*- C++ -*----------------------------------*\
| =========                 |                                                 |
| \\      /  F ield         | OpenFOAM: The Open Source CFD Toolbox           |
|  \\    /   O peration     | Version:  2312                                  |
|   \\  /    A nd           | Website:  www.openfoam.com                      |
|    \\/     M anipulation  |                                                 |
\*---------------------------------------------------------------------------*/
FoamFile
{
    version     2.0;
    format      ascii;
    arch        "LSB;label=32;scalar=64";
    class       volScalarField;
    location    "50";
    object      epsilon;
}
// * * * * * * * * * * * * * * * * * * * * * * * * * * * * * * * * * * * * * //

dimensions      [0 2 -3 0 0 0 0];

internalField   nonuniform List<scalar> 
12225
(
430.922
270.371
194.613
149.492
122.589
106.799
96.8713
90.0263
84.9605
81.0192
77.8852
75.3956
73.4861
72.1041
71.2814
71.1309
71.6844
72.8875
96.1427
89.302
68.5681
52.9473
43.5175
37.5709
33.6635
30.9375
28.9098
27.3147
26.0177
24.9376
24.0384
23.2591
22.6483
22.1154
21.7815
20.9991
40.0511
44.954
39.5392
31.8814
26.5121
22.8377
20.2869
18.4483
17.0592
15.9627
15.0692
14.3209
13.6871
13.13
12.6474
12.206
11.7786
11.3374
24.7501
29.2875
27.6433
23.9044
20.3787
17.6967
15.6964
14.1871
13.0181
12.0854
11.3221
10.6826
10.1385
9.66357
9.24387
8.86499
8.49331
8.1524
18.9909
21.9795
21.4108
19.5383
17.1359
15.1119
13.4882
12.1995
11.1682
10.3294
9.63538
9.05088
8.55165
8.11742
7.73346
7.38982
7.06434
6.77116
16.4244
18.0559
17.7789
16.7037
15.0307
13.4832
12.1563
11.0506
10.1346
9.3719
8.73095
8.186
7.71752
7.30958
6.94935
6.62825
6.33241
6.06712
15.187
15.7949
15.5287
14.745
13.5303
12.3238
11.2312
10.2812
9.46835
8.77519
8.18243
7.67232
7.23004
6.84317
6.50126
6.19673
5.92043
5.67286
14.5757
14.4631
14.0728
13.3633
12.4224
11.4499
10.5358
9.7146
8.99255
8.36333
7.81605
7.33902
6.92143
6.55379
6.22784
5.93706
5.67491
5.43969
14.2763
13.6795
13.0984
12.4031
11.6004
10.7781
9.99338
9.27396
8.62875
8.05654
7.55144
7.10586
6.71208
6.36289
6.05182
5.77344
5.52272
5.29711
14.1343
13.2139
12.4648
11.7378
10.9951
10.2621
9.56599
8.92303
8.33975
7.81616
7.34869
6.93214
6.56087
6.22935
5.93245
5.66568
5.42499
5.20762
14.0699
12.9441
12.0602
11.2836
10.557
9.87145
9.23169
8.64286
8.1069
7.62271
7.18724
6.79638
6.44563
6.13056
5.84699
5.59113
5.35962
5.14977
14.0444
12.8056
11.8299
11.0063
10.2734
9.60637
8.99643
8.4403
7.93549
7.479
7.06721
6.69617
6.36182
6.06026
5.78783
5.5412
5.31742
5.11398
14.033
12.7251
11.6828
10.8173
10.0697
9.40767
8.81397
8.27894
7.79619
7.36057
6.96752
6.61277
6.29234
6.00255
5.74002
5.50173
5.28498
5.08743
14.0281
12.6775
11.5855
10.682
9.91469
9.24864
8.66176
8.13971
7.67267
7.25331
6.87581
6.53527
6.22747
5.94871
5.69572
5.46564
5.25592
5.06439
14.0264
12.6532
11.5294
10.5967
9.80957
9.13421
8.54666
8.02995
7.57182
7.16315
6.79684
6.46723
6.16967
5.90025
5.65562
5.43294
5.22974
5.0439
14.0259
12.6429
11.5019
10.5505
9.74784
9.06227
8.46999
7.9531
7.49813
7.09474
6.73495
6.41236
6.12188
5.85927
5.62104
5.40424
5.2064
5.02537
14.0258
12.6391
11.4906
10.5296
9.71738
9.02406
8.42657
7.90707
7.45173
7.04973
6.69253
6.37334
6.08667
5.82804
5.59378
5.38083
5.18662
5.00899
14.0258
12.638
11.4869
10.5222
9.70572
9.0084
8.40764
7.88586
7.42921
7.02679
6.66989
6.35153
6.06605
5.80885
5.57614
5.36478
5.17213
4.99598
14.0258
12.6382
11.4875
10.5232
9.70712
9.01003
8.40927
7.88723
7.43009
7.027
6.66928
6.35003
6.06362
5.80548
5.57184
5.35958
5.16607
4.98912
14.0259
12.6415
11.4972
10.5412
9.73355
9.0434
8.44736
7.92767
7.47072
7.06606
6.70546
6.38241
6.09164
5.82886
5.59049
5.37358
5.17557
4.99435
14.0266
12.6549
11.5314
10.5975
9.80803
9.12977
8.53921
8.01959
7.55871
7.14739
6.77855
6.44646
6.14648
5.87467
5.62774
5.40283
5.19749
5.00958
14.0313
12.7042
11.6361
10.7489
9.98831
9.32152
8.7289
8.19824
7.72118
7.29137
6.90353
6.55311
6.23606
5.94877
5.688
5.45088
5.23485
5.03764
14.0551
12.8564
11.9058
11.0924
10.3584
9.68398
9.06382
8.49641
7.98018
7.51263
7.09039
6.70965
6.36641
6.05682
5.77722
5.52431
5.29507
5.0868
14.1519
13.2599
12.5076
11.7759
11.0286
10.2921
9.59238
8.94497
8.35621
7.82635
7.35223
6.92905
6.55149
6.21428
5.91254
5.64187
5.39843
5.17866
14.4813
14.2091
13.7173
13.0188
12.1414
11.2336
10.3699
9.58288
8.88169
8.26395
7.72219
7.2473
6.83027
6.46289
6.138
5.84947
5.59227
5.36147
15.4705
16.2826
16.0131
15.1855
13.9037
12.6389
11.4935
10.4962
9.64233
8.91502
8.29467
7.76307
7.30463
6.90665
6.55875
6.25264
5.982
5.73999
18.3032
20.8556
20.4021
18.833
16.6895
14.801
13.2278
11.9448
10.9016
10.0475
9.34031
8.74746
8.24418
7.81236
7.43779
7.11017
6.82204
6.56382
27.0841
31.543
29.5778
25.4053
21.6396
18.7316
16.5306
14.8612
13.5735
12.5565
11.7335
11.0529
10.479
9.98836
9.56229
9.18974
8.86133
8.5642
62.9948
62.4195
52.4767
41.5201
34.3505
29.4475
26.026
23.5742
21.7489
20.3322
19.19
18.241
17.4329
16.7352
16.1203
15.5792
15.0929
14.6503
317.811
196.888
144.124
113.545
93.878
81.0787
72.4932
66.4261
61.8969
58.3381
55.4161
52.9398
50.7929
48.9082
47.2239
45.7231
44.3456
43.1129
0.150095
0.114161
0.168457
0.232963
0.3152
0.423795
0.559709
0.720467
0.902246
1.1015
1.31406
1.53602
1.7635
1.99361
2.22379
2.45202
2.67265
2.88473
3.08668
3.27772
3.45692
3.62382
3.77788
3.91896
4.04714
4.1633
4.26974
4.36779
4.45371
4.52897
4.594
4.64867
4.69368
4.72863
4.75366
4.77075
4.77627
4.77601
4.76556
4.7458
4.71774
4.68173
4.63953
4.58991
4.53489
4.47335
4.40753
4.33625
4.26184
4.183
4.10218
4.01797
3.93287
3.84547
3.75818
3.66949
3.58185
3.49422
3.41551
3.36112
3.33336
3.31516
3.30107
3.28706
3.27408
3.26032
3.24727
3.23352
3.22049
3.20688
3.19403
3.18075
3.16824
3.15538
3.1433
3.13099
3.11944
3.10781
3.0969
3.0859
3.07558
3.06511
3.0556
3.04642
3.03774
3.02974
3.0221
3.01037
3.00655
2.9945
2.99202
2.97904
2.97748
2.96424
2.96405
2.95148
2.94515
2.94078
2.94079
2.93231
2.92301
2.92455
2.91372
2.91656
2.9037
2.90099
2.9034
2.89897
2.9003
2.88733
2.88804
2.88728
2.87494
2.87136
2.8666
2.86555
2.86958
2.85781
2.85597
2.85794
2.85901
2.84861
2.84792
2.85083
2.85163
2.84141
2.84446
2.8475
2.83656
2.84039
2.83007
2.82897
2.83219
2.83114
2.82852
2.82907
2.82053
2.82438
2.81368
2.81463
2.79852
2.79903
2.80526
2.81107
2.80632
2.80796
2.81175
2.81361
2.80788
2.81147
2.80505
2.8089
2.8022
2.80229
2.80386
2.79954
2.79803
2.79898
2.79349
2.79415
2.78484
2.78457
2.7797
2.77923
2.78167
2.78612
2.79163
2.79232
2.7913
2.78692
2.78183
2.77451
2.76626
2.75454
2.7401
2.7168
2.68931
2.63499
2.59089
2.3814
0.449626
0.244748
0.239704
0.280909
0.345765
0.427269
0.517873
0.611969
0.708756
0.805658
0.900055
0.990574
1.07633
1.15697
1.23228
1.30229
1.3669
1.42653
1.48149
1.5322
1.57894
1.62206
1.66183
1.69865
1.73298
1.76557
1.79747
1.83056
1.86185
1.89047
1.91625
1.9391
1.95903
1.97596
1.98992
2.00096
2.00897
2.01398
2.01548
2.01407
2.00979
2.00275
1.9932
1.98112
1.96674
1.95009
1.93145
1.91085
1.88861
1.86476
1.83963
1.81326
1.78599
1.75786
1.72921
1.70011
1.67101
1.64227
1.61532
1.59205
1.57302
1.55655
1.54148
1.52697
1.51283
1.49879
1.48494
1.47113
1.4575
1.44395
1.43061
1.41739
1.4044
1.39155
1.37895
1.36651
1.35435
1.34239
1.3307
1.3192
1.30799
1.29696
1.28623
1.27576
1.26555
1.25561
1.24607
1.23606
1.2272
1.21759
1.20933
1.20018
1.19254
1.18382
1.17671
1.16862
1.1611
1.15394
1.14781
1.14111
1.13399
1.12833
1.12158
1.1164
1.10988
1.10401
1.09926
1.09438
1.08624
1.08339
1.07814
1.07472
1.07043
1.06077
1.05958
1.05158
1.04844
1.04331
1.0395
1.0366
1.03351
1.02977
1.02642
1.02651
1.02569
1.01822
1.01545
1.01677
1.00988
1.0075
1.00816
1.00178
0.999688
1.00139
0.995411
0.99361
0.990651
0.988861
0.988884
0.988682
0.979423
0.976606
0.976454
0.976789
0.975972
0.978516
0.974817
0.977694
0.972969
0.972127
0.970567
0.973027
0.969059
0.968003
0.967229
0.965829
0.967281
0.967533
0.962674
0.964699
0.958319
0.957016
0.953596
0.952107
0.95439
0.95761
0.960298
0.957855
0.96104
0.957861
0.956715
0.958873
0.956609
0.955772
0.955542
0.956824
0.958451
0.958464
0.965196
0.97563
0.813169
0.426836
0.382364
0.399778
0.441773
0.496253
0.557677
0.621871
0.68428
0.743863
0.800261
0.853403
0.903363
0.950332
0.994512
1.03613
1.0754
1.11256
1.14782
1.18137
1.21339
1.24402
1.2734
1.30168
1.329
1.35552
1.38137
1.40654
1.43054
1.45307
1.47397
1.4931
1.51037
1.52569
1.539
1.55023
1.55935
1.56633
1.57094
1.57307
1.57314
1.57114
1.56714
1.56119
1.55337
1.54378
1.53252
1.51971
1.50548
1.48995
1.47328
1.45558
1.43702
1.41773
1.39788
1.37763
1.3572
1.33689
1.31712
1.29832
1.28067
1.26392
1.2478
1.23206
1.21658
1.20128
1.18614
1.17115
1.15633
1.14167
1.1272
1.11291
1.09884
1.08498
1.07135
1.05794
1.04477
1.03184
1.01916
1.00672
0.994532
0.982584
0.97089
0.959451
0.948267
0.937333
0.926661
0.916127
0.90594
0.895867
0.886157
0.876531
0.867296
0.858127
0.849364
0.840672
0.832214
0.823991
0.816149
0.808429
0.800764
0.793479
0.786205
0.779323
0.772415
0.76567
0.759339
0.753339
0.74684
0.741229
0.735565
0.730304
0.725153
0.719079
0.714285
0.708767
0.703957
0.699095
0.694494
0.690229
0.686126
0.682027
0.678051
0.674769
0.671738
0.667628
0.66396
0.661319
0.657573
0.654235
0.651719
0.648214
0.645076
0.642929
0.639601
0.636832
0.632209
0.63062
0.627793
0.626536
0.622851
0.619962
0.618098
0.616676
0.614972
0.611547
0.609647
0.610181
0.606128
0.604583
0.604717
0.601833
0.601927
0.601024
0.598448
0.597462
0.596731
0.593506
0.591616
0.592297
0.590296
0.587869
0.586401
0.581799
0.58111
0.583058
0.581344
0.5807
0.582607
0.579577
0.578661
0.578607
0.580019
0.578306
0.577831
0.578347
0.579624
0.582672
0.587786
0.601417
1.5112
0.662115
0.525842
0.505499
0.520792
0.552918
0.593421
0.637651
0.682851
0.726612
0.768779
0.809194
0.84777
0.884579
0.919747
0.953437
0.985802
1.017
1.04718
1.07646
1.10494
1.13272
1.15985
1.18639
1.21236
1.23777
1.26257
1.28663
1.30974
1.33172
1.35241
1.37166
1.38936
1.40539
1.41964
1.43202
1.44247
1.45092
1.45732
1.46153
1.46352
1.46354
1.46162
1.45781
1.45217
1.44478
1.43574
1.42516
1.41316
1.39986
1.38539
1.36988
1.35348
1.33632
1.31855
1.30031
1.28179
1.26317
1.24464
1.22638
1.20849
1.19096
1.17372
1.15672
1.13992
1.12331
1.10687
1.09061
1.07454
1.05868
1.04303
1.02761
1.01243
0.997497
0.982815
0.968392
0.954234
0.940343
0.926723
0.913373
0.900294
0.887487
0.874952
0.862697
0.850714
0.838996
0.827538
0.816322
0.805374
0.794661
0.784209
0.773981
0.764015
0.754269
0.744787
0.735517
0.726472
0.717661
0.709107
0.700764
0.692603
0.684674
0.676921
0.669396
0.662032
0.654846
0.647895
0.641177
0.634513
0.62814
0.621935
0.615954
0.610142
0.604249
0.598678
0.593114
0.587781
0.582581
0.577543
0.572708
0.568035
0.5635
0.559136
0.55506
0.551202
0.547206
0.543305
0.539738
0.536059
0.532473
0.529167
0.525748
0.522401
0.51937
0.516198
0.513132
0.509683
0.506856
0.503981
0.501513
0.498592
0.495783
0.493344
0.49119
0.489126
0.486625
0.484392
0.482876
0.480465
0.478462
0.477016
0.474998
0.473554
0.4721
0.470236
0.468577
0.467129
0.465112
0.463268
0.462135
0.460388
0.457208
0.456603
0.452972
0.451754
0.452231
0.449572
0.448812
0.449611
0.446883
0.446007
0.445628
0.446578
0.446192
0.44444
0.445148
0.444574
0.446751
0.449794
0.458639
2.34743
0.911355
0.659025
0.596395
0.586969
0.600345
0.625735
0.657384
0.692057
0.72823
0.763999
0.798978
0.833041
0.866141
0.898287
0.929541
0.959983
0.98971
1.01881
1.04737
1.07545
1.10311
1.13036
1.15722
1.18368
1.20969
1.23516
1.25993
1.28385
1.30674
1.32845
1.34883
1.36773
1.38501
1.40056
1.41425
1.426
1.43573
1.44338
1.44893
1.45217
1.4533
1.4524
1.44954
1.44477
1.43817
1.42984
1.41989
1.40845
1.39564
1.38159
1.36645
1.35036
1.33344
1.31587
1.29776
1.27929
1.26057
1.24176
1.22296
1.20426
1.1857
1.16729
1.14905
1.13097
1.11306
1.09534
1.07782
1.06051
1.04344
1.0266
1.01003
0.993716
0.977679
0.961924
0.946455
0.931278
0.916395
0.901809
0.887519
0.873526
0.859829
0.846427
0.833312
0.820474
0.807918
0.795646
0.783652
0.771939
0.760499
0.749328
0.738419
0.727776
0.71739
0.707264
0.697388
0.687758
0.678373
0.669235
0.660332
0.651652
0.643197
0.634956
0.626933
0.619113
0.611493
0.604086
0.596889
0.589861
0.58304
0.57641
0.569975
0.563719
0.557576
0.551613
0.54578
0.540113
0.534598
0.529239
0.524043
0.519003
0.514109
0.509367
0.504807
0.500418
0.496098
0.491878
0.487825
0.483841
0.479947
0.476202
0.47251
0.468893
0.465426
0.462004
0.458661
0.455295
0.452129
0.449048
0.446142
0.443187
0.440285
0.437553
0.434999
0.432569
0.430068
0.427653
0.425499
0.423181
0.420986
0.41902
0.416974
0.415094
0.413285
0.411394
0.40954
0.407783
0.405895
0.404038
0.402413
0.400652
0.39845
0.396913
0.394681
0.393061
0.392173
0.389576
0.388563
0.388448
0.386099
0.385165
0.385051
0.384689
0.384077
0.383046
0.382821
0.381611
0.38289
0.384525
0.389903
3.20923
1.15399
0.78208
0.676575
0.646166
0.644795
0.659088
0.682165
0.710153
0.740773
0.772857
0.805472
0.837974
0.870074
0.901653
0.93269
0.963211
0.993273
1.02293
1.05226
1.08128
1.11005
1.13855
1.16677
1.19468
1.22218
1.24917
1.2755
1.30103
1.32559
1.34901
1.37112
1.39175
1.41074
1.42794
1.44322
1.45647
1.46758
1.47649
1.48315
1.48745
1.48943
1.48922
1.48687
1.48245
1.47605
1.46778
1.45775
1.4461
1.43298
1.41852
1.40288
1.38621
1.36865
1.35037
1.33149
1.31216
1.2925
1.27265
1.25268
1.2327
1.21276
1.1929
1.17318
1.1536
1.1342
1.11501
1.09604
1.07732
1.05885
1.04066
1.02277
1.00517
0.987878
0.970905
0.954252
0.937925
0.921925
0.906253
0.89091
0.875895
0.861208
0.846848
0.83282
0.819106
0.805705
0.792613
0.779828
0.767346
0.755161
0.743268
0.731663
0.720341
0.709301
0.698537
0.688044
0.677817
0.667852
0.658146
0.648691
0.639481
0.63051
0.621773
0.613265
0.60498
0.596913
0.589063
0.581426
0.573984
0.566744
0.559701
0.552854
0.546194
0.5397
0.533378
0.527216
0.521219
0.515381
0.509702
0.50418
0.498813
0.493595
0.488526
0.483611
0.478847
0.474202
0.469676
0.465282
0.460995
0.456814
0.452752
0.448784
0.444905
0.441138
0.437454
0.43385
0.430297
0.426854
0.423504
0.420269
0.417086
0.413968
0.410961
0.408082
0.405316
0.40259
0.399935
0.397411
0.394897
0.392486
0.390209
0.387969
0.385815
0.383731
0.381659
0.379615
0.377629
0.37563
0.373655
0.371776
0.369881
0.367856
0.36604
0.36407
0.362313
0.360883
0.358956
0.35752
0.356482
0.354834
0.35358
0.35272
0.351895
0.35101
0.350027
0.349409
0.348128
0.348624
0.349408
0.352597
4.04076
1.38282
0.89637
0.751216
0.701171
0.688664
0.69466
0.711673
0.735208
0.762662
0.792423
0.82346
0.855137
0.887042
0.918929
0.950671
0.98221
1.01354
1.04467
1.07563
1.10643
1.13708
1.16756
1.19784
1.22784
1.25749
1.28666
1.31521
1.34299
1.3698
1.39547
1.41979
1.44258
1.46363
1.48278
1.49987
1.51476
1.52733
1.53751
1.54522
1.5504
1.55303
1.55325
1.5511
1.54667
1.54006
1.5314
1.52082
1.50847
1.49452
1.47912
1.46245
1.44466
1.42592
1.40639
1.38621
1.36551
1.34444
1.32311
1.30162
1.28005
1.2585
1.237
1.21563
1.19441
1.17339
1.1526
1.13206
1.11179
1.09182
1.07217
1.05284
1.03384
1.0152
0.996905
0.97897
0.961397
0.944186
0.927339
0.910856
0.894736
0.878976
0.863576
0.848532
0.833839
0.819493
0.805487
0.791819
0.778484
0.765474
0.752785
0.74041
0.728345
0.716586
0.705127
0.693963
0.683089
0.672497
0.662183
0.652141
0.642363
0.632845
0.62358
0.614561
0.605783
0.597241
0.588929
0.580848
0.57298
0.565322
0.557872
0.550625
0.543573
0.536709
0.530025
0.523517
0.517179
0.51101
0.505004
0.499159
0.493471
0.487936
0.48255
0.477314
0.472223
0.467265
0.462436
0.457735
0.453153
0.448687
0.444335
0.44009
0.435945
0.431905
0.427958
0.424099
0.420316
0.416625
0.413026
0.409524
0.4061
0.402755
0.399504
0.396359
0.393316
0.390347
0.387456
0.384657
0.381916
0.379258
0.376696
0.374199
0.371774
0.369415
0.367098
0.364822
0.362595
0.360394
0.358228
0.35612
0.354032
0.351939
0.349939
0.347931
0.34603
0.344296
0.342437
0.340776
0.339313
0.337699
0.33624
0.334991
0.333832
0.332696
0.331576
0.330667
0.329558
0.329151
0.329529
0.331285
4.81108
1.59531
1.00313
0.822055
0.754717
0.732726
0.732222
0.744692
0.765038
0.790342
0.818789
0.849212
0.880839
0.913168
0.945874
0.978762
1.01172
1.0447
1.07767
1.11063
1.14358
1.17651
1.20939
1.24217
1.27477
1.30709
1.339
1.37033
1.40089
1.43048
1.45889
1.48588
1.51123
1.53471
1.55611
1.57525
1.59196
1.60611
1.61759
1.62635
1.6323
1.63546
1.63592
1.63374
1.62902
1.6219
1.61251
1.60103
1.58762
1.57246
1.55574
1.53765
1.51835
1.49804
1.47688
1.45502
1.43261
1.40979
1.38668
1.36339
1.34002
1.31664
1.29334
1.27016
1.24716
1.22438
1.20186
1.17962
1.1577
1.13612
1.11489
1.09402
1.07354
1.05344
1.03373
1.01443
0.995519
0.977013
0.95891
0.941208
0.923905
0.906999
0.890487
0.874366
0.85863
0.843274
0.828294
0.813683
0.799437
0.785548
0.772008
0.758813
0.745956
0.733432
0.721234
0.709357
0.697793
0.686535
0.675578
0.664914
0.654537
0.644439
0.634614
0.625055
0.615756
0.606708
0.597907
0.589347
0.581018
0.572915
0.565032
0.557363
0.549901
0.542639
0.535571
0.52869
0.52199
0.515466
0.509114
0.50293
0.496908
0.491044
0.485334
0.479775
0.474363
0.469091
0.463954
0.458948
0.454069
0.449311
0.444671
0.440144
0.435725
0.431413
0.427201
0.423083
0.419054
0.415115
0.411268
0.407513
0.403846
0.400264
0.396773
0.393379
0.390081
0.386867
0.383736
0.380689
0.377715
0.374819
0.372007
0.369267
0.366596
0.363991
0.361439
0.358936
0.356484
0.354074
0.351706
0.349388
0.347106
0.344848
0.342649
0.340485
0.338397
0.336412
0.334427
0.332551
0.330792
0.329026
0.327352
0.325809
0.324372
0.322993
0.321674
0.320503
0.31932
0.318556
0.318389
0.319166
5.49702
1.78853
1.10242
0.889552
0.807111
0.776543
0.770944
0.779733
0.797621
0.821361
0.848962
0.879136
0.911021
0.944045
0.977822
1.01211
1.04675
1.08166
1.11679
1.15211
1.1876
1.22324
1.25899
1.29477
1.3305
1.36605
1.40126
1.43594
1.46987
1.50281
1.53449
1.56465
1.59301
1.61932
1.64332
1.66479
1.68354
1.69941
1.71229
1.7221
1.72878
1.73237
1.73292
1.73051
1.72527
1.71736
1.70698
1.69429
1.67951
1.66284
1.64448
1.62464
1.60353
1.58134
1.55824
1.53441
1.51001
1.48518
1.46005
1.43474
1.40935
1.38398
1.35869
1.33356
1.30863
1.28397
1.25959
1.23555
1.21187
1.18856
1.16565
1.14315
1.12107
1.09943
1.07822
1.05745
1.03712
1.01724
0.997803
0.978806
0.960248
0.942125
0.924435
0.907172
0.890331
0.873907
0.857894
0.842285
0.827075
0.812255
0.797816
0.783753
0.770058
0.756725
0.743747
0.731117
0.718826
0.706867
0.695232
0.683914
0.672905
0.662198
0.651785
0.641658
0.631809
0.62223
0.612914
0.603855
0.595043
0.586472
0.578134
0.570023
0.562132
0.554453
0.54698
0.539705
0.532621
0.525724
0.519007
0.512465
0.506093
0.499886
0.493839
0.487947
0.482206
0.47661
0.471156
0.465837
0.46065
0.45559
0.450653
0.445834
0.441129
0.436534
0.432045
0.427657
0.423364
0.419166
0.415063
0.411053
0.407134
0.403305
0.399567
0.395924
0.392374
0.388913
0.385538
0.382246
0.379033
0.375899
0.372844
0.369864
0.366955
0.364111
0.361327
0.358598
0.355923
0.353298
0.350721
0.348194
0.34571
0.343265
0.340872
0.338527
0.336248
0.334047
0.331887
0.329808
0.327812
0.325858
0.323978
0.322193
0.320496
0.318867
0.317313
0.315879
0.314508
0.313411
0.31282
0.312818
6.08062
1.96003
1.19337
0.952943
0.857348
0.819272
0.809234
0.815018
0.830926
0.853456
0.88047
0.910589
0.942888
0.976742
1.01173
1.04756
1.08407
1.12114
1.15869
1.1967
1.23511
1.2739
1.313
1.35232
1.39176
1.43115
1.4703
1.50898
1.54692
1.58383
1.61939
1.65328
1.68518
1.71476
1.74175
1.76587
1.7869
1.80467
1.81905
1.82995
1.83735
1.84127
1.84176
1.83893
1.83295
1.82403
1.81239
1.79824
1.78181
1.76335
1.74307
1.72121
1.69801
1.67366
1.64837
1.62232
1.59569
1.56863
1.54128
1.51376
1.48618
1.45864
1.43123
1.404
1.37702
1.35033
1.32399
1.29803
1.27247
1.24733
1.22264
1.19841
1.17465
1.15136
1.12856
1.10625
1.08442
1.06308
1.04223
1.02186
1.00198
0.98257
0.963635
0.945167
0.927161
0.90961
0.892508
0.875847
0.85962
0.843819
0.828433
0.813456
0.79888
0.784697
0.770899
0.757477
0.744423
0.731727
0.719382
0.707378
0.695708
0.684362
0.673333
0.66261
0.652186
0.642051
0.632197
0.622615
0.613298
0.604237
0.595424
0.586851
0.578511
0.570396
0.562498
0.55481
0.547325
0.540035
0.532935
0.526018
0.519279
0.512713
0.506313
0.500075
0.493993
0.488062
0.482277
0.476634
0.471128
0.465754
0.460508
0.455386
0.450382
0.445493
0.440715
0.436044
0.431474
0.427004
0.422632
0.418356
0.414175
0.410088
0.406094
0.402195
0.398389
0.394674
0.391047
0.387506
0.384046
0.380668
0.377368
0.374145
0.370993
0.36791
0.364891
0.361931
0.359028
0.356181
0.353387
0.350645
0.347952
0.345307
0.342713
0.340174
0.337696
0.335286
0.332933
0.33065
0.328439
0.326284
0.324199
0.322193
0.320267
0.318407
0.316629
0.314954
0.313368
0.311986
0.310953
0.310312
6.54387
2.10525
1.27401
1.01082
0.904102
0.859563
0.845618
0.848825
0.863048
0.884569
0.911133
0.941293
0.974077
1.00883
1.04511
1.08261
1.12114
1.16057
1.20083
1.24185
1.2836
1.326
1.369
1.41247
1.45626
1.50019
1.544
1.58742
1.6301
1.67169
1.71181
1.75005
1.78604
1.81939
1.84976
1.87686
1.90041
1.92024
1.9362
1.94822
1.95629
1.96044
1.96072
1.95728
1.95034
1.94019
1.92705
1.91118
1.89286
1.87234
1.84989
1.82577
1.80023
1.7735
1.7458
1.71733
1.68828
1.6588
1.62905
1.59916
1.56925
1.53941
1.50972
1.48027
1.45112
1.42231
1.39389
1.3659
1.33836
1.3113
1.28474
1.25868
1.23314
1.20813
1.18366
1.15971
1.13631
1.11343
1.09109
1.06929
1.048
1.02724
1.007
0.987261
0.968029
0.949293
0.931045
0.913279
0.895985
0.879153
0.862774
0.846838
0.831337
0.816262
0.801604
0.787353
0.773499
0.760032
0.746944
0.734224
0.721862
0.709849
0.698175
0.686831
0.675805
0.665089
0.654673
0.644547
0.634703
0.62513
0.615821
0.606766
0.597958
0.589387
0.581046
0.572926
0.565019
0.557319
0.549818
0.542509
0.535387
0.528445
0.521677
0.515077
0.50864
0.50236
0.496232
0.490252
0.484414
0.478713
0.473145
0.467705
0.46239
0.457195
0.452116
0.447148
0.442287
0.437531
0.432878
0.428324
0.423869
0.419512
0.41525
0.411085
0.407015
0.403038
0.399152
0.395353
0.391639
0.388008
0.384458
0.380986
0.377588
0.37426
0.371
0.367803
0.364667
0.36159
0.35857
0.355606
0.352696
0.349837
0.347034
0.344287
0.341601
0.338981
0.336421
0.333929
0.331504
0.329142
0.326847
0.324625
0.322477
0.3204
0.318401
0.316498
0.31469
0.313046
0.311654
0.310536
6.87556
2.22328
1.34334
1.06189
0.945978
0.895969
0.878593
0.879566
0.892309
0.912946
0.939134
0.96938
1.00269
1.0384
1.07604
1.11532
1.15604
1.19807
1.24133
1.28575
1.33128
1.37785
1.42536
1.47366
1.52256
1.57181
1.6211
1.67007
1.7183
1.76535
1.81073
1.85397
1.8946
1.93217
1.9663
1.99663
2.0229
2.04488
2.06246
2.07556
2.08419
2.08844
2.08834
2.08406
2.07594
2.0643
2.04942
2.0316
2.01114
1.98835
1.96351
1.93693
1.90886
1.87957
1.84928
1.81823
1.7866
1.75456
1.72229
1.6899
1.65753
1.62528
1.59323
1.56146
1.53004
1.49902
1.46843
1.43833
1.40873
1.37966
1.35114
1.32318
1.29578
1.26897
1.24274
1.21709
1.19203
1.16755
1.14366
1.12034
1.09759
1.07541
1.0538
1.03273
1.01222
0.99224
0.972793
0.953869
0.935457
0.917546
0.900126
0.883187
0.866718
0.850711
0.835154
0.820036
0.805347
0.791075
0.777211
0.763742
0.750659
0.73795
0.725605
0.713611
0.701959
0.690637
0.679634
0.668941
0.658546
0.648441
0.638614
0.629057
0.61976
0.610714
0.60191
0.593339
0.584993
0.576864
0.568944
0.561226
0.553704
0.546369
0.539217
0.53224
0.525432
0.518788
0.512303
0.50597
0.499786
0.493744
0.487841
0.482071
0.476431
0.470916
0.465522
0.460244
0.455079
0.450024
0.445075
0.440231
0.43549
0.430849
0.426309
0.421867
0.417522
0.413273
0.409117
0.405052
0.401075
0.397183
0.393373
0.389644
0.385992
0.382413
0.378904
0.375463
0.372085
0.368771
0.365517
0.362322
0.359184
0.356104
0.353081
0.350118
0.347216
0.344379
0.341606
0.3389
0.336261
0.333687
0.33118
0.328744
0.32638
0.324087
0.321873
0.319746
0.317716
0.315821
0.314116
0.312596
7.02016
2.2942
1.39406
1.10279
0.980961
0.926966
0.906834
0.905973
0.917435
0.937298
0.963172
0.993548
1.02743
1.06415
1.10326
1.14448
1.1876
1.23251
1.27913
1.3274
1.37726
1.42862
1.48134
1.53526
1.59011
1.64556
1.70122
1.75663
1.81124
1.8645
1.91583
1.96464
2.01038
2.05254
2.09066
2.12437
2.15339
2.17751
2.1966
2.21064
2.21966
2.22377
2.22305
2.21766
2.2081
2.19473
2.17787
2.15787
2.13507
2.10981
2.08241
2.0532
2.02246
1.99048
1.9575
1.92375
1.88945
1.85478
1.81989
1.78494
1.75005
1.71532
1.68084
1.6467
1.61295
1.57965
1.54684
1.51457
1.48285
1.45171
1.42117
1.39124
1.36194
1.33326
1.30521
1.2778
1.25102
1.22488
1.19937
1.17448
1.15021
1.12655
1.10351
1.08106
1.05921
1.03794
1.01724
0.997112
0.977534
0.958499
0.939994
0.922009
0.904532
0.887552
0.871058
0.855037
0.839478
0.824367
0.809694
0.795446
0.781612
0.768178
0.755132
0.742463
0.730157
0.718204
0.70659
0.695306
0.684338
0.673677
0.663311
0.65323
0.643424
0.633883
0.624596
0.615555
0.60675
0.598173
0.589816
0.581671
0.57373
0.565986
0.558432
0.551061
0.543867
0.536843
0.529985
0.523285
0.51674
0.510343
0.504089
0.497975
0.491996
0.486147
0.480424
0.474822
0.469339
0.46397
0.458713
0.453566
0.448525
0.443589
0.438757
0.434026
0.429396
0.424864
0.420429
0.416086
0.411835
0.407672
0.403595
0.3996
0.395685
0.391846
0.388081
0.384385
0.380758
0.377197
0.3737
0.370265
0.366892
0.36358
0.360328
0.357139
0.354013
0.350954
0.34796
0.345034
0.342176
0.339385
0.336664
0.334013
0.331433
0.328926
0.326496
0.324151
0.321899
0.319767
0.317786
0.315932
6.97344
2.34543
1.43291
1.13494
1.00899
0.952078
0.929748
0.927404
0.93781
0.957036
0.982695
1.01329
1.04784
1.08572
1.12648
1.16986
1.21568
1.26386
1.31431
1.36699
1.42182
1.47871
1.53748
1.59789
1.65961
1.72221
1.78516
1.84786
1.90964
1.96978
2.02759
2.08236
2.13345
2.1803
2.2224
2.25939
2.29097
2.31696
2.33729
2.35197
2.36107
2.3647
2.36304
2.35618
2.3449
2.32953
2.31047
2.2881
2.26279
2.23492
2.20485
2.17291
2.13943
2.10469
2.06897
2.0325
1.9955
1.95817
1.92067
1.88314
1.84571
1.8085
1.77159
1.73505
1.69896
1.66337
1.62833
1.59386
1.56
1.52676
1.49418
1.46225
1.43099
1.40042
1.37052
1.3413
1.31277
1.28491
1.25773
1.23123
1.2054
1.18022
1.1557
1.13183
1.10859
1.08599
1.064
1.04262
1.02183
1.00163
0.982002
0.962931
0.944408
0.926419
0.908952
0.891994
0.875531
0.859549
0.844036
0.828979
0.814363
0.800176
0.786402
0.77303
0.760046
0.747435
0.735186
0.723286
0.711722
0.700482
0.689555
0.678928
0.668592
0.658533
0.648744
0.639212
0.629928
0.620884
0.612071
0.603479
0.595101
0.586929
0.578956
0.571174
0.563576
0.556156
0.548907
0.541825
0.534902
0.528134
0.521516
0.515043
0.508709
0.502511
0.496445
0.490506
0.484689
0.478993
0.473414
0.467949
0.462595
0.45735
0.452214
0.447182
0.442255
0.437429
0.432702
0.428072
0.423537
0.419092
0.414736
0.410466
0.406279
0.402171
0.39814
0.394182
0.390296
0.38648
0.38273
0.379047
0.375429
0.371875
0.368386
0.364962
0.361604
0.358314
0.355093
0.35194
0.348858
0.345846
0.342905
0.340036
0.33724
0.334517
0.331872
0.32931
0.326839
0.324477
0.322241
0.320101
6.76463
2.35826
1.45749
1.1584
1.03038
0.971581
0.947717
0.944241
0.953757
0.972542
0.99819
1.02923
1.06472
1.10405
1.14682
1.19279
1.24181
1.29382
1.34875
1.40657
1.4672
1.53049
1.59625
1.66413
1.73369
1.80436
1.87543
1.94614
2.01562
2.08301
2.14745
2.20815
2.26439
2.31558
2.36122
2.40096
2.43454
2.46186
2.48289
2.49771
2.50655
2.50917
2.50602
2.49736
2.48404
2.46644
2.44498
2.42008
2.39215
2.3616
2.32881
2.29413
2.25791
2.22045
2.18202
2.14288
2.10324
2.0633
2.02324
1.9832
1.9433
1.90366
1.86436
1.82549
1.78711
1.74926
1.71201
1.67537
1.63938
1.60407
1.56945
1.53553
1.50232
1.46984
1.43807
1.40704
1.37673
1.34715
1.31829
1.29015
1.26272
1.236
1.20997
1.18464
1.15999
1.13602
1.1127
1.09004
1.06802
1.04662
1.02583
1.00564
0.986043
0.967015
0.948544
0.930618
0.913221
0.896339
0.879958
0.864063
0.848638
0.83367
0.819143
0.805042
0.791352
0.77806
0.765151
0.752611
0.740427
0.728585
0.717073
0.705878
0.694988
0.684392
0.674077
0.664033
0.654251
0.644719
0.635429
0.626371
0.617537
0.608918
0.600507
0.592295
0.584275
0.576441
0.568785
0.561302
0.553986
0.54683
0.539831
0.532982
0.526279
0.519717
0.513292
0.507
0.500836
0.494798
0.488882
0.483084
0.477404
0.471837
0.466383
0.461038
0.4558
0.450668
0.445639
0.44071
0.435879
0.431143
0.426498
0.421943
0.417473
0.413087
0.40878
0.404551
0.400397
0.396315
0.392305
0.388364
0.384492
0.380688
0.376952
0.373285
0.369687
0.366159
0.362702
0.359318
0.356006
0.352768
0.349602
0.346511
0.343495
0.340555
0.337693
0.334914
0.332224
0.329637
0.327163
0.324767
6.27163
2.31225
1.45526
1.16829
1.0434
0.985213
0.96124
0.957575
0.966884
0.985851
1.01212
1.04427
1.08141
1.12298
1.16862
1.21812
1.27136
1.3283
1.38888
1.45306
1.52075
1.59176
1.66578
1.74237
1.82089
1.90057
1.9805
2.05966
2.137
2.21147
2.28209
2.34803
2.40854
2.46306
2.51117
2.55259
2.58715
2.61483
2.63567
2.64984
2.65758
2.65866
2.65346
2.64259
2.62688
2.60676
2.58267
2.55508
2.52441
2.49109
2.45554
2.41811
2.37915
2.33899
2.29789
2.25612
2.2139
2.17143
2.12886
2.08636
2.04405
2.00204
1.9604
1.91923
1.87859
1.83852
1.79908
1.76029
1.72219
1.6848
1.64813
1.61221
1.57703
1.54262
1.50897
1.47608
1.44397
1.41262
1.38203
1.35221
1.32314
1.29482
1.26724
1.2404
1.21429
1.18889
1.1642
1.1402
1.11688
1.09423
1.07223
1.05088
1.03014
1.01002
0.990496
0.97155
0.953169
0.935337
0.918039
0.901257
0.884977
0.869181
0.853854
0.838979
0.82454
0.810522
0.79691
0.783688
0.770842
0.758358
0.746221
0.734419
0.722937
0.711763
0.700886
0.690294
0.679976
0.669921
0.660119
0.650561
0.641237
0.632138
0.623255
0.614582
0.606109
0.597829
0.589737
0.581824
0.574085
0.566514
0.559105
0.551853
0.544754
0.537802
0.530992
0.524322
0.517785
0.511381
0.505103
0.498951
0.49292
0.487009
0.481215
0.475535
0.469967
0.464508
0.459157
0.45391
0.448765
0.443718
0.438768
0.43391
0.429141
0.42446
0.419862
0.415345
0.410908
0.406547
0.40226
0.398048
0.393908
0.38984
0.385844
0.38192
0.378069
0.374292
0.370589
0.366962
0.363411
0.359936
0.356538
0.353217
0.349974
0.34681
0.343726
0.340726
0.337815
0.335003
0.332297
0.329665
5.50789
2.19057
1.42949
1.16401
1.04766
0.993591
0.972005
0.970143
0.980891
1.00165
1.03012
1.06498
1.10541
1.15089
1.20108
1.25582
1.31498
1.37851
1.44635
1.5184
1.59451
1.67437
1.75752
1.84332
1.93091
2.01926
2.10719
2.19346
2.27686
2.35626
2.43067
2.49931
2.56156
2.617
2.66534
2.70643
2.74023
2.7668
2.78629
2.79886
2.80462
2.80351
2.79563
2.78227
2.76398
2.74122
2.71448
2.68423
2.65093
2.615
2.57687
2.5369
2.49546
2.45285
2.40936
2.36524
2.32071
2.27597
2.23119
2.1865
2.14203
2.0979
2.05417
2.01094