/*--------------------------------*- C++ -*----------------------------------*\
| =========                 |                                                 |
| \\      /  F ield         | OpenFOAM: The Open Source CFD Toolbox           |
|  \\    /   O peration     | Version:  2312                                  |
|   \\  /    A nd           | Website:  www.openfoam.com                      |
|    \\/     M anipulation  |                                                 |
\*---------------------------------------------------------------------------*/
FoamFile
{
    version     2.0;
    format      ascii;
    arch        "LSB;label=32;scalar=64";
    class       volScalarField;
    location    "50";
    object      k;
}
// * * * * * * * * * * * * * * * * * * * * * * * * * * * * * * * * * * * * * //

dimensions      [0 2 -2 0 0 0 0];

internalField   nonuniform List<scalar> 
12225
(
0.308577
0.226153
0.181638
0.152346
0.133468
0.121743
0.114071
0.108627
0.104507
0.101243
0.0986063
0.0964835
0.0948354
0.0936285
0.0928951
0.0927473
0.0931783
0.0942127
0.352585
0.25517
0.191044
0.157139
0.137554
0.125201
0.116602
0.110033
0.10469
0.100178
0.0963219
0.0929975
0.09015
0.08765
0.0856029
0.0837056
0.0821254
0.080936
0.358281
0.290229
0.233364
0.195779
0.171393
0.154911
0.143091
0.13406
0.126794
0.120761
0.115651
0.11126
0.107476
0.104159
0.101323
0.0987026
0.0964343
0.0942188
0.361093
0.310644
0.263728
0.227471
0.2012
0.182012
0.167612
0.156408
0.147383
0.139915
0.133615
0.12822
0.123565
0.119494
0.115961
0.112782
0.110015
0.107366
0.362499
0.32286
0.283711
0.250557
0.224501
0.204276
0.18843
0.175777
0.16545
0.156855
0.149584
0.143352
0.137964
0.133256
0.12914
0.12548
0.122279
0.119296
0.363254
0.330523
0.297244
0.267491
0.242669
0.222455
0.206021
0.192549
0.181363
0.171952
0.163937
0.157036
0.151047
0.145806
0.141202
0.137124
0.133537
0.130243
0.363658
0.335497
0.306662
0.280038
0.256866
0.237272
0.220839
0.207039
0.195377
0.185438
0.176895
0.169491
0.163031
0.157358
0.152354
0.147918
0.143993
0.14041
0.363867
0.338782
0.313323
0.289389
0.267957
0.2493
0.23325
0.219484
0.207652
0.197435
0.188564
0.180816
0.174012
0.168007
0.162686
0.157953
0.153742
0.149903
0.363966
0.340957
0.318053
0.296361
0.276584
0.258997
0.243555
0.230071
0.218304
0.208016
0.198991
0.191043
0.184015
0.177776
0.172219
0.167255
0.16281
0.158758
0.364005
0.342385
0.321389
0.301528
0.28324
0.266733
0.252013
0.238968
0.227435
0.217236
0.208202
0.20018
0.193036
0.186655
0.18094
0.175808
0.171187
0.166965
0.364014
0.343302
0.323704
0.305305
0.288303
0.272817
0.258851
0.246332
0.235143
0.225149
0.216219
0.208227
0.20106
0.194619
0.188818
0.18358
0.178837
0.174494
0.36401
0.343824
0.32514
0.307782
0.291766
0.277121
0.263826
0.251817
0.240999
0.231265
0.222505
0.214615
0.207497
0.201065
0.195242
0.189959
0.185152
0.18074
0.364003
0.344157
0.326133
0.309585
0.294386
0.280478
0.267806
0.256297
0.245868
0.236425
0.227876
0.220132
0.213108
0.206728
0.200925
0.195635
0.190801
0.186352
0.363995
0.344375
0.326852
0.310979
0.296511
0.283306
0.271261
0.260286
0.250294
0.241201
0.232924
0.225384
0.218509
0.212233
0.206494
0.201238
0.196413
0.19196
0.363988
0.344497
0.327309
0.311939
0.298065
0.285471
0.274008
0.263556
0.254019
0.245307
0.237343
0.230055
0.223378
0.217252
0.211624
0.206445
0.201669
0.197248
0.363983
0.344551
0.327553
0.312505
0.299051
0.286928
0.275943
0.265949
0.256829
0.248488
0.240844
0.233826
0.227372
0.221427
0.215942
0.210872
0.20618
0.201823
0.363981
0.344568
0.327653
0.312772
0.299561
0.287736
0.277079
0.267419
0.258622
0.250581
0.243206
0.236425
0.230174
0.2244
0.219055
0.2141
0.209497
0.205214
0.363979
0.344569
0.327677
0.312852
0.299735
0.288036
0.277529
0.268031
0.259399
0.251515
0.244287
0.237636
0.231499
0.225821
0.220555
0.215663
0.211109
0.206862
0.36398
0.344565
0.327658
0.312805
0.299645
0.287893
0.277324
0.26776
0.259058
0.251105
0.243807
0.237089
0.230886
0.225144
0.219818
0.214867
0.210257
0.20596
0.363982
0.344544
0.327547
0.312516
0.299095
0.287014
0.276074
0.266118
0.257023
0.24869
0.241035
0.233986
0.227482
0.22147
0.215902
0.210736
0.205937
0.201476
0.363986
0.344465
0.327223
0.311782
0.297827
0.285145
0.273582
0.26302
0.253359
0.24451
0.236395
0.228942
0.222088
0.215774
0.209948
0.204565
0.199583
0.19497
0.363994
0.344224
0.326396
0.310118
0.295205
0.28155
0.269072
0.257688
0.247312
0.237857
0.229235
0.221366
0.214174
0.207589
0.201548
0.195997
0.190888
0.186182
0.364002
0.343615
0.324608
0.306882
0.290497
0.275498
0.261866
0.249535
0.238403
0.22836
0.219294
0.211096
0.203668
0.196922
0.190779
0.185172
0.180041
0.175346
0.363989
0.342283
0.321201
0.301258
0.282867
0.266224
0.251328
0.238067
0.226284
0.215808
0.206475
0.198135
0.190658
0.183929
0.177852
0.172343
0.167334
0.162778
0.363902
0.339665
0.31525
0.292193
0.271325
0.25291
0.236843
0.222877
0.210727
0.200122
0.190822
0.182621
0.17535
0.168867
0.163058
0.157828
0.153096
0.148819
0.363618
0.334825
0.305336
0.278182
0.254586
0.234594
0.217774
0.203601
0.191587
0.181318
0.172461
0.164753
0.157989
0.152007
0.14668
0.14191
0.137608
0.133742
0.362909
0.325994
0.288994
0.256907
0.230889
0.210088
0.193407
0.179882
0.168747
0.159429
0.151511
0.144692
0.13875
0.133522
0.128881
0.12474
0.121004
0.117664
0.361262
0.309481
0.261515
0.224707
0.197807
0.177949
0.162987
0.151386
0.1421
0.134449
0.127996
0.122455
0.117629
0.113383
0.109604
0.10624
0.103181
0.10047
0.355887
0.276245
0.215104
0.177698
0.154065
0.138424
0.127461
0.119259
0.112757
0.107376
0.102792
0.0988157
0.0953146
0.0922136
0.0894224
0.0869415
0.0846435
0.0826302
0.302816
0.220062
0.178741
0.152469
0.134313
0.121811
0.113055
0.106657
0.101755
0.0978186
0.094527
0.0916924
0.0891993
0.0869818
0.0849759
0.0831687
0.0814928
0.0799784
0.00212277
0.00291874
0.0037648
0.00465029
0.00565519
0.00686853
0.00826176
0.00978308
0.0113808
0.0130195
0.0146666
0.0162992
0.0178951
0.0194442
0.0209362
0.0223698
0.0237135
0.0249726
0.0261428
0.0272282
0.028227
0.0291438
0.0299775
0.0307328
0.0314103
0.0320173
0.0325622
0.0330663
0.0335056
0.0338887
0.0342178
0.0344947
0.0347223
0.0349002
0.0350328
0.0351003
0.0351374
0.0351499
0.0350999
0.0350083
0.0348748
0.0346972
0.0344904
0.0342447
0.0339705
0.0336613
0.0333284
0.0329647
0.0325826
0.0321741
0.0317524
0.0313088
0.0308576
0.0303896
0.0299188
0.0294356
0.0289551
0.0284679
0.0279944
0.0275731
0.0273104
0.0271601
0.0270578
0.026963
0.0268766
0.0267861
0.0266999
0.0266094
0.0265229
0.0264328
0.0263469
0.0262583
0.0261739
0.0260874
0.0260051
0.0259214
0.0258419
0.0257618
0.0256858
0.025609
0.025536
0.0254628
0.0253923
0.0253236
0.0252596
0.0251952
0.0251372
0.0250791
0.0250007
0.0249634
0.0248813
0.0248502
0.0247647
0.0247391
0.0246547
0.0246305
0.0245805
0.0245413
0.024457
0.0244412
0.0244026
0.0243208
0.0243131
0.0242338
0.0242213
0.0241923
0.0241125
0.0241231
0.0240419
0.0240443
0.0239666
0.0239165
0.0239112
0.0238723
0.0238565
0.0237734
0.0237441
0.0237416
0.0237171
0.0236492
0.0236131
0.0236107
0.0235929
0.023526
0.0234999
0.0235048
0.0234319
0.0234084
0.023377
0.0233468
0.0233368
0.0233203
0.0232494
0.0232491
0.0232304
0.0231612
0.0231606
0.0230967
0.0230962
0.0230253
0.0230069
0.0229052
0.022909
0.0228833
0.0228923
0.0228882
0.0228369
0.0228195
0.0228208
0.022769
0.0227633
0.0227088
0.0226985
0.0226769
0.0226211
0.0226059
0.0225836
0.0225284
0.0225133
0.0224596
0.0224285
0.0223667
0.022326
0.0223056
0.0222589
0.0222179
0.0222199
0.0222222
0.022199
0.0221627
0.0221099
0.0220454
0.0219741
0.0218867
0.0217815
0.0216362
0.0214592
0.0211746
0.0208074
0.0197807
0.00440476
0.00715472
0.00966989
0.0117361
0.013682
0.0156578
0.017704
0.0198128
0.0219682
0.024159
0.0263735
0.028599
0.0308211
0.0330277
0.0352058
0.037345
0.0394336
0.0414646
0.0434309
0.0453276
0.0471494
0.0488928
0.0505534
0.0521285
0.0536137
0.0550055
0.0562991
0.0574892
0.0585938
0.0596208
0.0605718
0.0614467
0.0622451
0.0629657
0.0636081
0.0641711
0.0646575
0.0650666
0.0653987
0.0656546
0.0658258
0.0659081
0.0659315
0.0658866
0.065777
0.0656046
0.0653742
0.0650883
0.0647521
0.0643684
0.0639427
0.0634779
0.0629798
0.0624509
0.0618969
0.0613203
0.0607272
0.0601212
0.0595101
0.0589006
0.0583024
0.0577125
0.0571266
0.0565399
0.0559529
0.0553647
0.0547775
0.0541911
0.0536078
0.0530273
0.0524515
0.05188
0.0513143
0.0507539
0.0502002
0.0496525
0.0491122
0.0485785
0.0480525
0.0475335
0.0470222
0.0465181
0.0460218
0.0455326
0.0450515
0.0445773
0.044111
0.0436537
0.0432001
0.0427593
0.0423191
0.0418922
0.0414646
0.0410536
0.0406447
0.0402516
0.0398648
0.0394869
0.0391092
0.0387459
0.0383903
0.0380348
0.0376944
0.0373534
0.0370265
0.0367066
0.0363853
0.0360831
0.0357833
0.0354915
0.0351975
0.0349076
0.0346268
0.034359
0.0340954
0.0338405
0.0335877
0.0333538
0.0331156
0.0328841
0.0326547
0.0324399
0.0322264
0.0320132
0.0318038
0.031613
0.0314116
0.0312139
0.0310313
0.0308427
0.0306529
0.0304831
0.0303049
0.0301297
0.0299644
0.0298103
0.0296566
0.0295013
0.0293403
0.0291612
0.0289642
0.0286732
0.0285674
0.0285695
0.0284904
0.0283858
0.0282703
0.0281574
0.0280531
0.0279303
0.0278092
0.0276862
0.0275754
0.0274701
0.0273554
0.0272535
0.0271445
0.02703
0.0269172
0.0268032
0.0266465
0.0265073
0.0264103
0.0263524
0.0261465
0.0260933
0.02613
0.026115
0.0260541
0.0259752
0.0258728
0.0257567
0.0256584
0.0255554
0.0254455
0.0253168
0.0251696
0.025015
0.024696
0.0239984
0.00648774
0.0125816
0.0166021
0.0196937
0.0224383
0.0250669
0.0276671
0.0302659
0.0328648
0.0354574
0.0380362
0.040592
0.0431144
0.0455937
0.0480199
0.0503853
0.0526826
0.0549073
0.0570557
0.0591255
0.061115
0.0630234
0.0648499
0.0665941
0.0682557
0.0698347
0.0713308
0.0727442
0.0740752
0.0753234
0.0764877
0.077566
0.0785564
0.0794566
0.0802651
0.0809801
0.0816011
0.0821273
0.0825592
0.0828973
0.0831414
0.0832825
0.0833365
0.0833075
0.0831982
0.0830113
0.082751
0.0824217
0.0820283
0.0815758
0.0810693
0.0805139
0.079915
0.0792775
0.0786064
0.0779068
0.0771841
0.076444
0.0756924
0.0749342
0.0741728
0.0734087
0.0726422
0.071873
0.0711022
0.0703306
0.0695599
0.0687911
0.0680257
0.0672646
0.066509
0.0657595
0.065017
0.0642818
0.0635548
0.0628361
0.0621262
0.0614253
0.0607339
0.0600518
0.0593793
0.0587165
0.0580635
0.0574201
0.0567866
0.0561627
0.0555486
0.0549448
0.0543502
0.0537663
0.0531907
0.0526255
0.0520683
0.0515223
0.0509851
0.0504593
0.049943
0.0494371
0.0489389
0.0484512
0.0479734
0.047503
0.0470433
0.046591
0.0461491
0.045717
0.0452913
0.0448747
0.0444699
0.0440716
0.0436814
0.0432973
0.0429211
0.0425556
0.0421974
0.0418528
0.041516
0.0411884
0.0408701
0.0405557
0.0402497
0.0399507
0.0396598
0.0393715
0.0390894
0.0388178
0.0385506
0.0382848
0.0380284
0.0377769
0.0375256
0.037283
0.0370448
0.03681
0.0365833
0.0363641
0.0361543
0.0359461
0.0357369
0.0355216
0.0353044
0.035072
0.0348792
0.0347255
0.0345707
0.0344168
0.0342572
0.0340942
0.0339408
0.0337808
0.033619
0.0334606
0.0333042
0.0331533
0.0330054
0.0328643
0.0327201
0.0325795
0.0324378
0.0322937
0.032145
0.0319955
0.031868
0.0317603
0.0316204
0.0315125
0.031436
0.0313466
0.0312476
0.0311424
0.0310187
0.0308855
0.0307562
0.0306372
0.0305117
0.0303808
0.030242
0.0300954
0.029839
0.0292605
0.00977925
0.0175031
0.0225247
0.0262482
0.0294491
0.0324355
0.035341
0.0382143
0.0410664
0.0438935
0.0466857
0.0494337
0.0521277
0.0547599
0.0573235
0.0598139
0.0622276
0.064563
0.0668193
0.0689967
0.0710956
0.0731167
0.0750608
0.0769282
0.078719
0.0804329
0.082069
0.0836258
0.0851011
0.0864922
0.0877961
0.0890096
0.0901292
0.0911518
0.0920744
0.0928946
0.0936105
0.0942207
0.0947248
0.0951231
0.0954164
0.0955991
0.0956791
0.095664
0.0955562
0.0953593
0.0950781
0.0947175
0.094283
0.0937802
0.093215
0.0925931
0.0919204
0.0912026
0.0904455
0.089655
0.0888369
0.0879967
0.0871397
0.0862702
0.0853917
0.0845064
0.0836159
0.0827219
0.0818258
0.0809293
0.080034
0.0791414
0.078253
0.0773699
0.0764932
0.0756239
0.0747627
0.0739104
0.0730675
0.0722345
0.0714117
0.0705996
0.0697983
0.0690081
0.0682292
0.0674615
0.0667053
0.0659606
0.0652274
0.0645057
0.0637955
0.063097
0.0624099
0.0617345
0.06107
0.0604169
0.0597747
0.059144
0.0585244
0.0579165
0.0573198
0.0567345
0.0561597
0.0555961
0.0550434
0.0545009
0.0539692
0.0534476
0.0529367
0.0524365
0.051946
0.051465
0.0509953
0.0505348
0.0500841
0.049642
0.0492088
0.0487855
0.0483704
0.0479662
0.0475715
0.0471857
0.0468098
0.0464409
0.0460805
0.0457276
0.0453832
0.0450445
0.0447127
0.0443893
0.0440731
0.0437614
0.0434569
0.0431591
0.0428652
0.0425775
0.0422958
0.042021
0.0417541
0.0414929
0.0412413
0.0409933
0.0407502
0.0405065
0.0402643
0.0400211
0.0397918
0.039581
0.039378
0.0391799
0.0389855
0.0387892
0.0385998
0.0384125
0.0382226
0.0380373
0.0378546
0.0376761
0.0375016
0.0373308
0.0371622
0.0369966
0.0368335
0.0366692
0.0365056
0.0363436
0.0361882
0.0360484
0.0359032
0.0357648
0.0356463
0.0355228
0.0353958
0.0352697
0.035133
0.0349897
0.0348436
0.034706
0.0345703
0.0344277
0.0342886
0.034142
0.03393
0.0334647
0.0131521
0.0215407
0.0273249
0.0315615
0.0351415
0.0384229
0.0415678
0.0446461
0.0476806
0.0506734
0.0536179
0.0565046
0.0593252
0.0620732
0.0647441
0.0673354
0.0698458
0.0722757
0.074626
0.0768983
0.0790942
0.0812154
0.0832631
0.0852381
0.0871403
0.0889689
0.0907223
0.0923981
0.0939929
0.095503
0.0969241
0.0982517
0.0994815
0.100609
0.10163
0.102542
0.103341
0.104026
0.104595
0.105047
0.105385
0.105604
0.105708
0.105707
0.105603
0.105399
0.105101
0.104714
0.104246
0.103701
0.103086
0.102408
0.101673
0.100887
0.100058
0.0991917
0.0982935
0.0973694
0.0964246
0.0954636
0.0944902
0.0935076
0.0925183
0.0915247
0.0905289
0.0895329
0.0885386
0.0875475
0.0865613
0.0855813
0.0846087
0.0836444
0.0826893
0.0817442
0.0808097
0.0798863
0.0789744
0.0780744
0.0771866
0.0763113
0.0754485
0.0745984
0.0737611
0.0729367
0.0721252
0.0713267
0.0705411
0.0697685
0.069009
0.0682623
0.0675282
0.0668067
0.0660978
0.0654016
0.064718
0.064047
0.0633884
0.0627424
0.0621084
0.0614867
0.0608769
0.0602789
0.0596927
0.0591181
0.058555
0.0580034
0.057463
0.0569333
0.0564151
0.0559074
0.0554104
0.0549235
0.0544466
0.0539798
0.0535223
0.0530752
0.0526379
0.0522102
0.0517922
0.0513828
0.0509823
0.0505901
0.0502066
0.0498305
0.0494621
0.0491018
0.0487492
0.048403
0.0480637
0.0477315
0.0474051
0.0470848
0.0467707
0.0464631
0.0461624
0.0458675
0.0455804
0.0452988
0.0450229
0.0447502
0.0444809
0.0442149
0.043957
0.0437102
0.0434716
0.0432392
0.0430124
0.0427874
0.0425677
0.0423521
0.0421372
0.0419278
0.041722
0.04152
0.0413222
0.0411277
0.0409365
0.0407485
0.0405635
0.0403792
0.0401957
0.0400164
0.0398396
0.0396736
0.0395106
0.0393489
0.0392003
0.0390533
0.0389028
0.0387572
0.0386082
0.0384537
0.0382962
0.038143
0.0379933
0.0378391
0.0376909
0.0375383
0.0373504
0.036954
0.0162335
0.0247428
0.0311563
0.03586
0.0398004
0.0433694
0.0467466
0.050017
0.0532157
0.0563526
0.0594262
0.0624313
0.0653619
0.0682133
0.0709823
0.0736677
0.0762697
0.0787899
0.0812303
0.0835935
0.085882
0.0880981
0.0902434
0.0923189
0.0943244
0.0962591
0.0981207
0.0999062
0.101611
0.103232
0.104762
0.106196
0.10753
0.108756
0.109871
0.11087
0.111748
0.112504
0.113134
0.113639
0.114019
0.114272
0.1144
0.114412
0.11431
0.1141
0.113786
0.113375
0.112874
0.112289
0.111628
0.110898
0.110107
0.10926
0.108366
0.107431
0.10646
0.105461
0.104439
0.103398
0.102342
0.101276
0.100203
0.0991241
0.0980434
0.0969628
0.0958844
0.0948098
0.0937409
0.0926789
0.0916251
0.0905806
0.0895464
0.0885231
0.0875114
0.0865119
0.0855251
0.0845513
0.0835908
0.0826439
0.0817108
0.0807916
0.0798864
0.0789953
0.0781183
0.0772555
0.0764069
0.0755726
0.0747525
0.0739464
0.0731542
0.0723758
0.0716113
0.0708606
0.0701237
0.0694004
0.0686907
0.0679945
0.0673116
0.0666419
0.0659852
0.0653414
0.0647103
0.0640918
0.0634858
0.0628921
0.0623104
0.0617406
0.0611826
0.0606362
0.0601011
0.059577
0.0590636
0.0585609
0.0580684
0.0575864
0.0571145
0.0566527
0.0562007
0.0557581
0.0553248
0.0549003
0.0544848
0.0540776
0.0536787
0.0532879
0.0529052
0.0525298
0.0521617
0.0518009
0.0514467
0.051099
0.0507579
0.0504232
0.0500952
0.0497734
0.0494586
0.0491498
0.0488472
0.0485495
0.0482565
0.0479684
0.0476871
0.0474141
0.0471486
0.0468896
0.0466365
0.0463874
0.0461431
0.0459035
0.0456667
0.0454339
0.0452049
0.0449798
0.0447586
0.0445411
0.0443271
0.0441165
0.0439091
0.0437038
0.0435002
0.0433006
0.0431038
0.0429143
0.0427295
0.0425468
0.0423716
0.0422027
0.0420321
0.0418666
0.0417021
0.0415345
0.0413646
0.0411967
0.0410321
0.0408657
0.0407029
0.0405395
0.0403577
0.0399999
0.0189546
0.0272855
0.0342333
0.0393706
0.0436551
0.0475042
0.0511113
0.0545712
0.057929
0.0612032
0.0643987
0.0675146
0.070548
0.0734964
0.0763584
0.0791342
0.0818249
0.0844332
0.0869619
0.0894145
0.0917942
0.0941038
0.0963453
0.0985199
0.100628
0.102667
0.104636
0.106531
0.108346
0.110077
0.111718
0.11326
0.114699
0.116026
0.117236
0.118323
0.119283
0.12011
0.120804
0.121362
0.121784
0.12207
0.122222
0.122246
0.122147
0.121929
0.121599
0.121163
0.120629
0.120006
0.1193
0.11852
0.117673
0.116768
0.115811
0.114811
0.113773
0.112705
0.11161
0.110496
0.109366
0.108224
0.107074
0.10592
0.104764
0.103608
0.102455
0.101306
0.100164
0.0990294
0.0979041
0.0967891
0.0956852
0.0945933
0.093514
0.092448
0.0913956
0.0903573
0.0893335
0.0883243
0.08733
0.0863507
0.0853865
0.0844376
0.0835039
0.0825856
0.0816825
0.0807948
0.0799224
0.0790652
0.078223
0.0773957
0.0765833
0.0757858
0.0750031
0.0742351
0.0734816
0.0727425
0.0720177
0.071307
0.0706102
0.0699272
0.0692578
0.0686018
0.0679591
0.0673295
0.0667126
0.0661084
0.0655166
0.0649369
0.0643692
0.0638131
0.0632684
0.0627348
0.0622121
0.0617001
0.0611987
0.0607076
0.0602266
0.0597555
0.0592939
0.0588417
0.0583986
0.0579643
0.0575387
0.0571215
0.0567125
0.0563114
0.0559179
0.0555319
0.055153
0.0547811
0.0544159
0.0540574
0.0537055
0.0533602
0.0530215
0.0526891
0.0523631
0.0520428
0.051728
0.0514189
0.0511163
0.0508209
0.0505325
0.0502506
0.0499747
0.0497037
0.0494378
0.0491767
0.0489195
0.0486662
0.0484169
0.0481714
0.0479299
0.0476921
0.047458
0.0472275
0.0470003
0.0467758
0.0465539
0.0463357
0.0461209
0.0459115
0.045707
0.0455057
0.0453097
0.0451192
0.0449293
0.0447435
0.0445601
0.0443761
0.0441915
0.0440082
0.0438274
0.0436467
0.043467
0.0432885
0.0430947
0.0427636
0.0213097
0.029333
0.0367293
0.0422608
0.0468656
0.0509794
0.0548065
0.0584493
0.0619608
0.0653666
0.0686775
0.0718975
0.0750271
0.0780666
0.0810165
0.0838782
0.0866544
0.0893485
0.0919643
0.094506
0.0969775
0.099382
0.101722
0.103999
0.106213
0.108363
0.110445
0.112456
0.11439
0.11624
0.117999
0.119659
0.121211
0.122648
0.123962
0.125145
0.126192
0.127098
0.12786
0.128474
0.128942
0.129263
0.12944
0.129477
0.129379
0.129153
0.128805
0.128343
0.127777
0.127113
0.126362
0.125531
0.12463
0.123667
0.122649
0.121585
0.120482
0.119346
0.118183
0.116999
0.115798
0.114586
0.113366
0.112141
0.110915
0.109689
0.108467
0.107251
0.106042
0.104842
0.103651
0.102472
0.101305
0.100151
0.0990108
0.0978847
0.0967734
0.0956772
0.0945965
0.0935315
0.0924824
0.0914494
0.0904327
0.0894322
0.088448
0.0874803
0.0865289
0.0855939
0.0846753
0.0837728
0.0828864
0.082016
0.0811614
0.0803227
0.0794998
0.0786924
0.0779005
0.0771238
0.0763623
0.0756157
0.0748838
0.0741666
0.0734637
0.072775
0.0721002
0.0714392
0.0707916
0.0701572
0.0695357
0.068927
0.0683307
0.0677465
0.0671742
0.0666135
0.0660641
0.0655258
0.0649983
0.0644814
0.0639749
0.0634785
0.062992
0.062515
0.0620475
0.061589
0.0611394
0.0606985
0.060266
0.0598416
0.0594251
0.0590163
0.0586149
0.0582207
0.0578336
0.0574533
0.0570797
0.0567128
0.0563526
0.0559988
0.0556515
0.0553103
0.0549751
0.054646
0.0543234
0.0540076
0.0536985
0.0533958
0.0530991
0.0528079
0.0525218
0.0522407
0.0519641
0.0516916
0.0514232
0.0511588
0.0508983
0.0506416
0.0503887
0.0501395
0.0498937
0.0496511
0.0494115
0.0491755
0.0489433
0.0487158
0.0484929
0.0482738
0.0480594
0.0478497
0.0476423
0.0474384
0.0472376
0.0470378
0.0468387
0.046641
0.0464455
0.0462509
0.0460562
0.0458625
0.0456551
0.0453414
0.0232969
0.0309703
0.0387473
0.0446316
0.0495263
0.0538809
0.0579094
0.0617211
0.0653748
0.0689022
0.0723193
0.0756345
0.0788521
0.081975
0.0850058
0.0879478
0.090805
0.093582
0.0962834
0.0989145
0.10148
0.103983
0.106427
0.108814
0.111144
0.113415
0.115624
0.117765
0.119832
0.121818
0.123712
0.125506
0.127189
0.128751
0.130183
0.131476
0.132624
0.133619
0.134457
0.135136
0.135656
0.136016
0.13622
0.136272
0.136177
0.135942
0.135576
0.135088
0.134487
0.133783
0.132985
0.132103
0.131146
0.130124
0.129045
0.127917
0.126748
0.125546
0.124316
0.123064
0.121795
0.120515
0.119227
0.117935
0.116642
0.115351
0.114064
0.112784
0.111512
0.11025
0.108998
0.107759
0.106534
0.105322
0.104125
0.102943
0.101777
0.100628
0.0994946
0.0983783
0.097279
0.0961968
0.0951319
0.0940844
0.0930542
0.0920415
0.0910462
0.0900684
0.0891078
0.0881645
0.0872382
0.0863289
0.0854364
0.0845607
0.0837016
0.082859
0.0820326
0.0812224
0.0804281
0.0796495
0.0788864
0.0781386
0.0774059
0.0766881
0.0759847
0.0752957
0.0746207
0.0739594
0.0733116
0.0726769
0.0720551
0.0714458
0.0708488
0.0702638
0.0696904
0.0691283
0.0685774
0.0680373
0.0675078
0.0669886
0.0664795
0.0659801
0.0654903
0.0650098
0.0645384
0.0640757
0.0636216
0.0631758
0.0627381
0.0623082
0.0618859
0.061471
0.0610633
0.0606626
0.0602688
0.0598818
0.0595014
0.0591277
0.0587605
0.0583997
0.0580451
0.0576969
0.0573551
0.05702
0.0566915
0.0563693
0.0560531
0.0557426
0.0554375
0.0551374
0.054842
0.054551
0.0542642
0.0539815
0.0537028
0.053428
0.053157
0.0528897
0.052626
0.0523657
0.0521088
0.0518555
0.0516061
0.0513611
0.0511206
0.0508842
0.0506522
0.0504247
0.0502004
0.0499797
0.0497623
0.0495471
0.0493335
0.0491217
0.048912
0.0487035
0.048495
0.0482864
0.0480657
0.047763
0.0249138
0.0322454
0.0403394
0.0465304
0.0516788
0.0562437
0.060448
0.0644073
0.0681853
0.0718188
0.0753284
0.0787264
0.0820205
0.0852164
0.0883193
0.0913342
0.0942668
0.0971229
0.0999086
0.10263
0.105292
0.107901
0.110458
0.112967
0.115427
0.117835
0.120189
0.122482
0.124705
0.126849
0.128903
0.130855
0.132693
0.134403
0.135975
0.137399
0.138664
0.139764
0.140693
0.141448
0.142029
0.142436
0.142673
0.142743
0.142654
0.142412
0.142029
0.141514
0.140878
0.140132
0.139286
0.138351
0.137337
0.136255
0.135114
0.133922
0.132687
0.131418
0.13012
0.128801
0.127466
0.126119
0.124764
0.123407
0.122049
0.120694
0.119345
0.118003
0.11667
0.115348
0.114038
0.112742
0.11146
0.110193
0.108942
0.107708
0.10649
0.10529
0.104107
0.102943
0.101796
0.100668
0.0995577
0.0984661
0.0973931
0.0963385
0.0953024
0.0942847
0.0932854
0.0923043
0.0913413
0.0903961
0.0894687
0.0885591
0.0876669
0.086792
0.0859343
0.0850935
0.0842693
0.0834617
0.0826702
0.0818947
0.081135
0.0803907
0.0796615
0.0789471
0.0782472
0.0775616
0.0768898
0.0762315
0.0755865
0.0749544
0.0743349
0.0737277
0.0731324
0.0725487
0.0719763
0.0714149
0.0708643
0.0703241
0.0697942
0.0692742
0.0687638
0.0682629
0.0677711
0.0672882
0.066814
0.0663481
0.0658905
0.0654407
0.0649987
0.0645642
0.064137
0.063717
0.0633039
0.0628978
0.0624984
0.0621056
0.0617195
0.0613399
0.0609667
0.0605999
0.0602397
0.059886
0.0595388
0.059198
0.0588631
0.058534
0.0582103
0.0578919
0.0575782
0.0572692
0.0569644
0.0566639
0.0563673
0.0560747
0.055786
0.055501
0.0552197
0.0549419
0.0546677
0.0543973
0.0541308
0.0538687
0.0536109
0.0533574
0.0531084
0.0528638
0.0526229
0.0523859
0.0521525
0.051922
0.0516938
0.0514679
0.0512441
0.0510217
0.0507994
0.0505765
0.050343
0.0500468
0.0261477
0.0331708
0.0415176
0.0479651
0.0533264
0.0580666
0.0624162
0.0664966
0.0703761
0.0740956
0.0776797
0.0811443
0.0845004
0.0877566
0.0909203
0.0939988
0.0969996
0.0999301
0.102798
0.105611
0.108375
0.111096
0.113778
0.116423
0.119031
0.121599
0.124123
0.126594
0.129003
0.131336
0.133581
0.135723
0.137746
0.139635
0.141375
0.142954
0.144361
0.145586
0.146624
0.147471
0.148126
0.14859
0.148868
0.148962
0.148883
0.148637
0.148238
0.147698
0.147027
0.146238
0.145344
0.144355
0.143284
0.142141
0.140936
0.139678
0.138378
0.137041
0.135677
0.13429
0.132888
0.131474
0.130054
0.128632
0.12721
0.125792
0.124381
0.122978
0.121586
0.120206
0.118839
0.117487
0.11615
0.114829
0.113526
0.11224
0.110973
0.109723
0.108493
0.107282
0.10609
0.104917
0.103764
0.10263
0.101516
0.100421
0.0993465
0.0982911
0.0972551
0.0962383
0.0952405
0.0942616
0.0933015
0.09236
0.0914369
0.0905319
0.0896449
0.0887756
0.0879238
0.0870891
0.0862714
0.0854703
0.0846855
0.0839168
0.0831637
0.0824259
0.0817031
0.0809949
0.080301
0.0796209
0.0789545
0.0783013
0.0776609
0.0770331
0.0764174
0.0758135
0.0752211
0.0746399
0.0740696
0.0735099
0.0729605
0.0724211
0.0718914
0.0713712
0.0708602
0.0703582
0.0698649
0.06938
0.0689034
0.0684348
0.0679739
0.0675206
0.0670747
0.0666361
0.0662045
0.0657798
0.065362
0.0649509
0.0645464
0.0641486
0.0637573
0.0633725
0.0629942
0.0626224
0.0622571
0.061898
0.061545
0.0611977
0.0608559
0.0605194
0.0601878
0.0598608
0.0595383
0.0592201
0.0589059
0.0585956
0.0582893
0.0579868
0.0576879
0.0573928
0.0571014
0.0568138
0.0565302
0.056251
0.0559761
0.0557056
0.0554397
0.0551783
0.0549211
0.054668
0.0544188
0.0541731
0.0539302
0.05369
0.0534521
0.0532157
0.0529797
0.0527429
0.052497
0.0522039
0.0269989
0.0337613
0.0422759
0.0489208
0.0544497
0.0593272
0.0637889
0.067961
0.0719158
0.0756979
0.0793354
0.0828476
0.0862484
0.0895492
0.0927601
0.0958907
0.0989505
0.101949
0.104896
0.1078
0.110669
0.113511
0.116329
0.119128
0.121905
0.124659
0.127381
0.130063
0.132692
0.135253
0.137727
0.140097
0.142343
0.144446
0.146388
0.148154
0.149731
0.151107
0.152276
0.153233
0.153978
0.154512
0.15484
0.154969
0.154907
0.154661
0.154249
0.153684
0.15298
0.15215
0.151207
0.150164
0.149035
0.147831
0.146562
0.14524
0.143872
0.142469
0.141037
0.139584
0.138115
0.136635
0.13515
0.133664
0.132179
0.130699
0.129226
0.127763
0.126312
0.124874
0.123451
0.122043
0.120652
0.119279
0.117924
0.116587
0.11527
0.113973
0.112696
0.111439
0.110202
0.108986
0.10779
0.106615
0.105461
0.104328
0.103216
0.102124
0.101052
0.100001
0.0989696
0.0979583
0.0969668
0.0959948
0.0950421
0.0941084
0.0931936
0.0922972
0.0914191
0.0905589
0.0897163
0.088891
0.0880826
0.0872908
0.0865152
0.0857553
0.0850109
0.0842815
0.0835667
0.0828662
0.0821795
0.0815064
0.0808464
0.080199
0.0795641
0.0789411
0.0783298
0.0777298
0.0771407
0.0765624
0.0759944
0.0754365
0.0748884
0.0743498
0.0738205
0.0733001
0.0727884
0.0722852
0.0717903
0.0713033
0.0708242
0.0703527
0.0698886
0.0694318
0.0689822
0.0685394
0.0681036
0.0676745
0.0672522
0.0668364
0.0664273
0.0660247
0.0656286
0.0652391
0.0648558
0.0644788
0.0641079
0.0637427
0.063383
0.0630286
0.0626791
0.0623344
0.0619942
0.0616582
0.0613264
0.0609986
0.0606746
0.0603545
0.0600382
0.0597256
0.0594168
0.059112
0.0588113
0.0585148
0.0582228
0.0579354
0.0576527
0.0573746
0.057101
0.0568319
0.0565669
0.0563058
0.0560481
0.0557934
0.0555412
0.0552907
0.0550409
0.0547904
0.0545323
0.0542396
0.0273259
0.033778
0.0425172
0.0493457
0.0550094
0.0599909
0.0645334
0.0687681
0.0727713
0.0765911
0.080259
0.0837973
0.0872231
0.0905506
0.0937923
0.0969606
0.100067
0.103125
0.106144
0.109136
0.112112
0.11508
0.118047
0.121016
0.123985
0.126951
0.129905
0.132834
0.135724
0.138553
0.141301
0.143943
0.146456
0.148815
0.150999
0.152988
0.154767
0.156323
0.157648
0.158737
0.159589
0.160209
0.1606
0.160773
0.160734
0.160495
0.160075
0.159489
0.158753
0.157883
0.156894
0.155799
0.154613
0.153349
0.152018
0.150632
0.1492
0.147731
0.146233
0.144714
0.14318
0.141636
0.140086
0.138537
0.136989
0.135448
0.133915
0.132393
0.130884
0.129389
0.127909
0.126447
0.125002
0.123576
0.12217
0.120783
0.119417
0.118072
0.116748
0.115446
0.114165
0.112906
0.111668
0.110453
0.109259
0.108088
0.106938
0.10581
0.104703
0.103618
0.102554
0.101511
0.100489
0.0994873
0.0985058
0.0975443
0.0966023
0.0956798
0.0947762
0.0938913
0.0930247
0.092176
0.0913449
0.0905309
0.0897335
0.0889525
0.0881872
0.0874374
0.0867026
0.0859824
0.0852763
0.084584
0.083905
0.083239
0.0825854
0.081944
0.0813144
0.0806962
0.0800891
0.0794927
0.0789068
0.078331
0.077765
0.0772085
0.0766612
0.076123
0.0755934
0.0750723
0.0745594
0.0740546
0.0735576
0.0730682
0.0725862
0.0721115
0.071644
0.0711834
0.0707298
0.0702829
0.0698428
0.0694094
0.0689826
0.0685623
0.0681485
0.0677412
0.0673402
0.0669454
0.0665566
0.0661736
0.065796
0.0654238
0.0650565
0.064694
0.064336
0.0639823
0.0636327
0.0632871
0.0629455
0.0626077
0.0622737
0.0619435
0.0616173
0.061295
0.0609769
0.0606631
0.060354
0.0600495
0.0597498
0.059455
0.059165
0.0588797
0.0585989
0.0583223
0.0580495
0.05778
0.0575133
0.0572485
0.0569848
0.0567206
0.0564506
0.0561557
0.0271839
0.0335521
0.0423245
0.0492331
0.0549728
0.060027
0.0646236
0.068895
0.0729213
0.0767541
0.0804284
0.08397
0.0873989
0.0907323
0.0939856
0.0971738
0.100311
0.103413
0.106494
0.109567
0.112646
0.115742
0.118863
0.122014
0.125197
0.128405
0.131626
0.134841
0.138033
0.141178
0.144248
0.147212
0.15004
0.152702
0.155172
0.157425
0.159442
0.161209
0.162716
0.16396
0.16494
0.165661
0.16613
0.166357
0.166351
0.166125
0.165702
0.1651
0.164337
0.163431
0.162399
0.161255
0.160016
0.158696
0.157306
0.155858
0.154365
0.152833
0.151273
0.149691
0.148094
0.146488
0.144877
0.143267
0.141659
0.140058
0.138467
0.136887
0.135321
0.13377
0.132236
0.13072
0.129222
0.127744
0.126287
0.124851
0.123436
0.122044
0.120673
0.119326
0.118001
0.116699
0.11542
0.114164
0.112931
0.111721
0.110534
0.109371
0.108229
0.107111
0.106014
0.10494
0.103887
0.102856
0.101846
0.100857
0.0998881
0.0989397
0.0980111
0.0971019
0.0962117
0.09534
0.0944865
0.0936507
0.0928321
0.0920302
0.0912446
0.0904748
0.0897203
0.0889808
0.0882556
0.0875445
0.0868469
0.0861625
0.0854907
0.0848312
0.0841836
0.0835475
0.0829225
0.0823084
0.0817048
0.0811113
0.0805277
0.0799535
0.0793886
0.0788326
0.0782854
0.0777465
0.0772159
0.0766933
0.0761785
0.0756712
0.0751715
0.074679
0.0741936
0.0737153
0.0732439
0.0727793
0.0723214
0.0718703
0.0714257
0.0709877
0.0705563
0.0701312
0.0697124
0.0692997
0.068893
0.0684921
0.0680966
0.0677064
0.0673211
0.0669407
0.0665647
0.0661931
0.0658256
0.0654621
0.0651026
0.0647469
0.0643951
0.0640471
0.0637031
0.0633631
0.0630274
0.0626962
0.0623696
0.0620479
0.0617311
0.0614194
0.0611128