/*--------------------------------*- C++ -*----------------------------------*\
| =========                 |                                                 |
| \\      /  F ield         | OpenFOAM: The Open Source CFD Toolbox           |
|  \\    /   O peration     | Version:  2312                                  |
|   \\  /    A nd           | Website:  www.openfoam.com                      |
|    \\/     M anipulation  |                                                 |
\*---------------------------------------------------------------------------*/
FoamFile
{
    version     2.0;
    format      ascii;
    arch        "LSB;label=32;scalar=64";
    class       volScalarField;
    location    "50";
    object      k;
}
// * * * * * * * * * * * * * * * * * * * * * * * * * * * * * * * * * * * * * //

dimensions      [0 2 -2 0 0 0 0];

internalField   nonuniform List<scalar> 
12225
(
0.517808
0.71165
0.793689
0.798292
0.787234
0.759821
0.729506
0.701422
0.676893
0.655932
0.638198
0.623301
0.610476
0.599856
0.590145
0.582903
0.574872
0.569879
0.435945
0.440204
0.42849
0.403628
0.382722
0.36592
0.353395
0.34418
0.339142
0.335753
0.335206
0.33563
0.336761
0.33863
0.341133
0.343592
0.34644
0.349146
0.392662
0.393601
0.385411
0.366663
0.344595
0.324186
0.30684
0.291598
0.279786
0.269848
0.262723
0.25687
0.253125
0.250049
0.248493
0.247323
0.247201
0.247372
0.379377
0.377784
0.372772
0.36255
0.349737
0.336057
0.322887
0.310218
0.298955
0.288447
0.279585
0.271374
0.26475
0.258533
0.253815
0.249253
0.245958
0.242622
0.374832
0.372713
0.368505
0.361884
0.353755
0.34471
0.335516
0.326256
0.317507
0.309007
0.301319
0.293884
0.28743
0.281059
0.275749
0.270256
0.266049
0.261322
0.373321
0.370311
0.366497
0.361522
0.355665
0.34916
0.342418
0.335503
0.328762
0.322083
0.31581
0.309662
0.304063
0.298526
0.293671
0.288686
0.284604
0.280065
0.372808
0.369123
0.365379
0.36115
0.356464
0.35139
0.346132
0.34073
0.33538
0.330041
0.324913
0.319859
0.315122
0.310447
0.306189
0.30188
0.298165
0.294136
0.372669
0.368557
0.364704
0.360792
0.356716
0.352461
0.34811
0.343677
0.339268
0.334871
0.330594
0.326379
0.322354
0.318395
0.314698
0.311001
0.307692
0.304188
0.372648
0.368314
0.364324
0.360497
0.35671
0.352911
0.349106
0.34529
0.34151
0.337762
0.334101
0.330502
0.327033
0.323631
0.320404
0.317207
0.314271
0.311226
0.372653
0.368224
0.36413
0.36029
0.356614
0.35304
0.349545
0.346107
0.342736
0.339425
0.336197
0.333039
0.329986
0.327003
0.324151
0.321345
0.318725
0.316056
0.372658
0.368195
0.364043
0.360164
0.356509
0.353028
0.349688
0.346462
0.343339
0.340307
0.33737
0.334517
0.331762
0.329085
0.326517
0.324008
0.321639
0.319266
0.37266
0.368187
0.364009
0.360103
0.356438
0.35298
0.349698
0.346565
0.343566
0.340683
0.337911
0.335238
0.332668
0.330184
0.327802
0.32549
0.323296
0.321126
0.372659
0.368183
0.363994
0.360071
0.356392
0.352932
0.349669
0.346578
0.343641
0.340842
0.338168
0.335609
0.33316
0.330808
0.328557
0.326387
0.324322
0.322304
0.372658
0.36818
0.363984
0.360051
0.356361
0.352893
0.349629
0.34655
0.343639
0.34088
0.338261
0.33577
0.333397
0.331132
0.328973
0.326905
0.324937
0.323036
0.372658
0.368177
0.363977
0.360039
0.356341
0.352865
0.349595
0.346514
0.343607
0.34086
0.338261
0.335798
0.333462
0.331243
0.329134
0.327125
0.325215
0.323388
0.372657
0.368174
0.363972
0.360029
0.356327
0.352846
0.34957
0.346485
0.343575
0.340827
0.338231
0.335775
0.33345
0.331247
0.329157
0.327173
0.325289
0.323498
0.372656
0.368172
0.363967
0.360022
0.356316
0.352832
0.349554
0.346465
0.343551
0.340802
0.338204
0.335748
0.333424
0.331224
0.329138
0.327161
0.325286
0.323506
0.372656
0.36817
0.363965
0.360018
0.35631
0.352824
0.349544
0.346453
0.343538
0.340787
0.338189
0.335732
0.333408
0.331208
0.329124
0.327149
0.325276
0.323499
0.372656
0.36817
0.363964
0.360016
0.356309
0.352823
0.349542
0.346451
0.343537
0.340787
0.338189
0.335734
0.333411
0.331213
0.32913
0.327156
0.325284
0.323508
0.372656
0.368171
0.363965
0.360019
0.356313
0.35283
0.349551
0.346464
0.343552
0.340805
0.338209
0.335756
0.333433
0.331235
0.329151
0.327175
0.325299
0.323518
0.372656
0.368172
0.363968
0.360025
0.356324
0.352844
0.349571
0.346487
0.343578
0.34083
0.338231
0.33577
0.333436
0.331222
0.329118
0.327118
0.325215
0.323405
0.372656
0.368173
0.363974
0.360039
0.356348
0.352879
0.349611
0.346524
0.3436
0.340826
0.338187
0.335674
0.333277
0.330989
0.328802
0.326713
0.324711
0.322805
0.372654
0.368177
0.363999
0.360094
0.356428
0.352964
0.349672
0.346526
0.343508
0.340607
0.337814
0.335124
0.332532
0.330038
0.327632
0.325325
0.323096
0.320974
0.372643
0.368214
0.364128
0.360302
0.35665
0.353111
0.349651
0.346258
0.342929
0.339672
0.336489
0.333392
0.33038
0.327469
0.324647
0.321938
0.319308
0.316817
0.372635
0.368467
0.364634
0.360893
0.357088
0.353175
0.349176
0.345133
0.341085
0.337079
0.333136
0.329294
0.325551
0.321946
0.318453
0.315125
0.311892
0.308865
0.37284
0.369538
0.366149
0.362226
0.357699
0.352704
0.347418
0.342003
0.336561
0.331204
0.325958
0.320907
0.316023
0.311392
0.306932
0.302761
0.298719
0.295016
0.37432
0.373099
0.370172
0.365157
0.358392
0.350691
0.342627
0.334539
0.326609
0.319008
0.311736
0.304941
0.298494
0.292575
0.28696
0.281894
0.277035
0.272749
0.381265
0.385733
0.382122
0.372958
0.359523
0.345728
0.332503
0.320168
0.308816
0.298581
0.289261
0.281078
0.273684
0.267287
0.261512
0.256567
0.252109
0.24829
0.407693
0.411605
0.403612
0.38658
0.368812
0.352447
0.338817
0.327351
0.317568
0.309739
0.303379
0.298441
0.294522
0.291578
0.289353
0.287721
0.286685
0.285864
0.440276
0.544999
0.605017
0.634838
0.641686
0.638925
0.631553
0.619497
0.60667
0.594079
0.582252
0.571402
0.561581
0.552744
0.544834
0.537758
0.531423
0.525758
0.00847246
0.0147107
0.0207975
0.0257179
0.0294355
0.0320671
0.0338021
0.0347729
0.0351637
0.0351365
0.0348907
0.0343026
0.0334929
0.0331327
0.0333525
0.0342463
0.0360317
0.0379074
0.0395509
0.0410824
0.0429429
0.0464776
0.0541453
0.0648649
0.0767858
0.0892822
0.102281
0.114751
0.126732
0.138289
0.149486
0.160119
0.170275
0.180011
0.189336
0.19833
0.206975
0.215352
0.223426
0.231278
0.238858
0.246247
0.253387
0.260361
0.26711
0.273719
0.280124
0.286402
0.292477
0.298407
0.304096
0.30961
0.314888
0.32003
0.324908
0.3296
0.334016
0.338256
0.34242
0.346624
0.350839
0.354907
0.358495
0.361402
0.364067
0.36717
0.369651
0.370833
0.37302
0.372052
0.375038
0.374964
0.374037
0.372844
0.366996
0.368334
0.365929
0.357118
0.355053
0.350437
0.346333
0.344866
0.332858
0.331311
0.327341
0.313742
0.310249
0.303775
0.29795
0.291851
0.285765
0.279664
0.273537
0.267426
0.261338
0.255302
0.249325
0.243429
0.237617
0.231907
0.22629
0.220753
0.215175
0.209572
0.204174
0.198937
0.193872
0.188969
0.184229
0.179636
0.175189
0.170894
0.166783
0.163008
0.160095
0.157779
0.155639
0.153579
0.151586
0.149649
0.147768
0.14594
0.144174
0.142465
0.140813
0.139217
0.13767
0.136163
0.134737
0.13327
0.131776
0.130297
0.128869
0.127493
0.12618
0.124907
0.123657
0.122424
0.121226
0.120069
0.118959
0.117891
0.116868
0.115891
0.114956
0.114052
0.113164
0.112273
0.11136
0.110399
0.109364
0.108226
0.106957
0.105534
0.103944
0.102183
0.100269
0.0982404
0.0961507
0.0940683
0.0920665
0.0901975
0.0885334
0.0870702
0.0858614
0.0848587
0.0840839
0.083493
0.0830468
0.0827416
0.0825419
0.0824237
0.0823497
0.082251
0.0821683
0.0818656
0.0817492
0.0808902
0.0808286
0.0774669
0.0262627
0.0335192
0.0467681
0.05552
0.0605058
0.0630967
0.0643366
0.0648778
0.0650494
0.0649272
0.064776
0.065152
0.0668985
0.0714977
0.0794714
0.0895711
0.100336
0.110649
0.12053
0.130636
0.14161
0.153569
0.166271
0.178944
0.19117
0.20303
0.214677
0.226203
0.237793
0.249505
0.261212
0.27298
0.284789
0.296636
0.308484
0.32032
0.332104
0.343833
0.355474
0.367034
0.37849
0.389857
0.40112
0.412299
0.423382
0.434392
0.445319
0.456181
0.466965
0.477686
0.488322
0.498883
0.509343
0.519708
0.52994
0.540029
0.549925
0.559615
0.569058
0.578234
0.587077
0.595556
0.603745
0.611636
0.619227
0.62649
0.633266
0.639486
0.645196
0.650172
0.654922
0.65874
0.662716
0.664279
0.665183
0.665372
0.66236
0.661087
0.658793
0.655618
0.651613
0.646928
0.640652
0.634543
0.627492
0.618872
0.610656
0.601341
0.591549
0.581433
0.571102
0.560617
0.550036
0.539404
0.528771
0.518185
0.507682
0.497297
0.487055
0.47698
0.467084
0.457382
0.447871
0.438574
0.429511
0.420689
0.412104
0.403758
0.395641
0.387748
0.380067
0.372601
0.365357
0.358381
0.351705
0.345276
0.33902
0.332916
0.326957
0.321141
0.31546
0.309914
0.304501
0.299223
0.294071
0.289044
0.284136
0.279332
0.274628
0.269849
0.265102
0.260425
0.25585
0.251383
0.247018
0.24273
0.238465
0.234236
0.230077
0.226016
0.222058
0.218194
0.214418
0.210734
0.20713
0.203582
0.200057
0.196523
0.192944
0.189276
0.185475
0.181492
0.17728
0.17279
0.167986
0.162843
0.157365
0.151597
0.145613
0.139539
0.133517
0.127696
0.122239
0.11722
0.112768
0.108842
0.105518
0.102673
0.100342
0.0984041
0.0968808
0.0955639
0.0945865
0.0936984
0.0930251
0.0923492
0.0919229
0.0913748
0.091437
0.0897467
0.048027
0.058089
0.0738379
0.0831829
0.088501
0.091641
0.0938339
0.0959871
0.098824
0.103
0.109159
0.117858
0.129327
0.143187
0.158287
0.173034
0.186229
0.197496
0.207138
0.215964
0.224873
0.234498
0.245138
0.256783
0.269468
0.283045
0.297421
0.312453
0.327984
0.343844
0.359978
0.376222
0.392441
0.408526
0.424378
0.439933
0.45514
0.469975
0.484421
0.498489
0.51219
0.525549
0.538588
0.551341
0.563832
0.576096
0.588156
0.600042
0.611775
0.623378
0.634866
0.64626
0.657568
0.668808
0.679982
0.691098
0.702152
0.713146
0.724067
0.734896
0.745592
0.756109
0.766404
0.776417
0.786078
0.795302
0.803993
0.812106
0.819554
0.826263
0.832239
0.837226
0.841118
0.843505
0.845385
0.846007
0.846035
0.844554
0.841681
0.837619
0.832319
0.825935
0.818327
0.809826
0.800445
0.790069
0.779101
0.767424
0.755206
0.742562
0.729587
0.716373
0.70301
0.689568
0.676116
0.662712
0.649408
0.636246
0.623263
0.610486
0.597937
0.585632
0.573583
0.56181
0.55032
0.539122
0.528209
0.517581
0.507227
0.497146
0.487326
0.477768
0.468477
0.459474
0.450767
0.442328
0.434111
0.426094
0.418262
0.41061
0.403127
0.395813
0.388663
0.381676
0.374847
0.36817
0.36164
0.355245
0.348972
0.342781
0.33668
0.330679
0.324788
0.319016
0.313359
0.307803
0.302232
0.296682
0.291219
0.285873
0.280652
0.275528
0.270498
0.265574
0.260754
0.256005
0.251294
0.246591
0.241861
0.237057
0.232131
0.227032
0.221701
0.216077
0.2101
0.203722
0.196918
0.189695
0.18211
0.174273
0.166343
0.158507
0.150972
0.143895
0.137439
0.131651
0.126608
0.122242
0.11857
0.115467
0.112941
0.110799
0.109104
0.107639
0.106477
0.105416
0.104631
0.103829
0.103519
0.102269
0.0630655
0.0851421
0.103917
0.114302
0.120203
0.123943
0.127108
0.130927
0.136376
0.144163
0.154643
0.167654
0.182367
0.197358
0.211088
0.222619
0.231968
0.240085
0.248228
0.257462
0.268281
0.280777
0.294869
0.310339
0.326943
0.344482
0.362721
0.381434
0.400424
0.419526
0.43858
0.457444
0.476005
0.49418
0.511903
0.529141
0.545869
0.562088
0.577806
0.593046
0.607832
0.6222
0.636184
0.649824
0.663155
0.676219
0.689051
0.701688
0.714162
0.726508
0.738751
0.750921
0.763041
0.775133
0.787212
0.799292
0.811379
0.823472
0.83556
0.84762
0.859615
0.871503
0.883227
0.894722
0.905908
0.916698
0.927002
0.936732
0.945784
0.954054
0.961445
0.967794
0.972989
0.976893
0.979533
0.980878
0.981889
0.980787
0.978038
0.973779
0.968056
0.960958
0.952527
0.942899
0.932171
0.920408
0.907777
0.894366
0.880309
0.865723
0.850727
0.835429
0.819932
0.804326
0.78869
0.773097
0.757607
0.742273
0.727139
0.712239
0.697599
0.68324
0.669181
0.655433
0.642007
0.628903
0.616121
0.603657
0.591507
0.57967
0.568141
0.556919
0.546001
0.535391
0.525085
0.515065
0.505301
0.495773
0.486466
0.47737
0.468475
0.459776
0.451267
0.442946
0.434807
0.426843
0.419049
0.411414
0.403926
0.396568
0.389338
0.382236
0.375256
0.368405
0.361681
0.355077
0.348562
0.342134
0.335819
0.329636
0.32359
0.317615
0.311708
0.305915
0.300238
0.294639
0.289077
0.283536
0.277988
0.272384
0.266678
0.260822
0.254757
0.248411
0.241715
0.234606
0.227029
0.218963
0.21043
0.201518
0.192373
0.183195
0.174212
0.16564
0.157675
0.150437
0.144015
0.138405
0.133604
0.129524
0.126131
0.123281
0.120959
0.11901
0.117444
0.116103
0.115093
0.114156
0.113843
0.112875
0.0727054
0.111524
0.134641
0.147463
0.1548
0.15946
0.163387
0.168033
0.174398
0.182916
0.193391
0.205092
0.217007
0.228228
0.238309
0.247534
0.256724
0.266705
0.278093
0.291162
0.305933
0.322265
0.339915
0.358626
0.378163
0.398304
0.418845
0.439609
0.460438
0.481196
0.501758
0.522022
0.541903
0.561339
0.580283
0.598709
0.616602
0.633961
0.650795
0.667125
0.682973
0.698371
0.713352
0.727953
0.742211
0.756167
0.769859
0.783327
0.796609
0.809745
0.822767
0.835713
0.848613
0.861498
0.874392
0.887318
0.900289
0.913313
0.926387
0.939499
0.952621
0.965718
0.978737
0.991614
1.00427
1.01661
1.02854
1.03994
1.05069
1.06066
1.0697
1.07768
1.08445
1.08986
1.09384
1.09613
1.09791
1.09759
1.09535
1.09131
1.08556
1.07818
1.06924
1.05887
1.04718
1.03428
1.02033
1.00546
0.989815
0.973536
0.956756
0.939605
0.9222
0.904648
0.887044
0.86947
0.852
0.834695
0.817605
0.800771
0.784226
0.767992
0.75209
0.736529
0.721322
0.70647
0.691979
0.677846
0.664071
0.650648
0.637575
0.624843
0.612451
0.60039
0.588653
0.577222
0.566079
0.555204
0.544582
0.534198
0.524045
0.514113
0.504397
0.494891
0.485589
0.476484
0.46757
0.458837
0.450276
0.441874
0.433628
0.425531
0.417581
0.409774
0.40211
0.39458
0.387174
0.379887
0.37273
0.365718
0.35886
0.352139
0.345547
0.339091
0.33276
0.3265
0.320248
0.314027
0.307815
0.301559
0.295213
0.288741
0.282085
0.27517
0.267925
0.260274
0.252143
0.243482
0.234284
0.224605
0.214573
0.204385
0.194282
0.184513
0.175309
0.166843
0.159235
0.152523
0.146712
0.141742
0.137557
0.134044
0.131139
0.128722
0.126759
0.125129
0.123882
0.122786
0.122429
0.121529
0.0796593
0.135547
0.164546
0.180486
0.189407
0.194607
0.198303
0.202074
0.206945
0.213329
0.221081
0.229734
0.238834
0.248203
0.257991
0.268538
0.280252
0.293451
0.308248
0.324582
0.342289
0.361154
0.380959
0.4015
0.422601
0.444097
0.465844
0.487712
0.509579
0.531342
0.552904
0.574181
0.595101
0.61561
0.635659
0.65522
0.674272
0.692807
0.710823
0.728332
0.745346
0.761889
0.777984
0.793663
0.808958
0.823906
0.838543
0.852911
0.867048
0.880998
0.894799
0.908494
0.922123
0.935726
0.949339
0.962996
0.976723
0.990543
1.00447
1.0185
1.03263
1.04683
1.06106
1.07525
1.08934
1.10323
1.1168
1.12993
1.14248
1.15428
1.16517
1.17498
1.18352
1.19065
1.19621
1.20008
1.20213
1.20313
1.20171
1.19819
1.19269
1.18528
1.17608
1.16519
1.15275
1.1389
1.1238
1.10762
1.09053
1.07267
1.05422
1.03532
1.01611
0.996704
0.977222
0.957757
0.938394
0.919202
0.900239
0.881552
0.863177
0.845141
0.827468
0.810174
0.793272
0.776768
0.760665
0.744963
0.729658
0.714746
0.700219
0.686071
0.672292
0.658874
0.645804
0.633067
0.620644
0.608519
0.596675
0.5851
0.57378
0.562708
0.551875
0.541275
0.530901
0.520746
0.510801
0.501059
0.49151
0.482146
0.472959
0.463945
0.455097
0.446411
0.437884
0.429511
0.421283
0.413197
0.405254
0.397462
0.38983
0.382361
0.375051
0.367895
0.36088
0.353974
0.347137
0.340355
0.333599
0.326793
0.319897
0.312898
0.30574
0.298341
0.290638
0.282549
0.273983
0.264868
0.255165
0.244901
0.234183
0.223197
0.212191
0.201434
0.191187
0.181661
0.173009
0.165308
0.158578
0.152783
0.147861
0.143713
0.140257
0.137383
0.13503
0.133097
0.131595
0.130317
0.129769
0.128865
0.0835207
0.15551
0.18998
0.208893
0.219281
0.224784
0.227835
0.23017
0.233026
0.237117
0.242684
0.249686
0.258049
0.267734
0.278803
0.291349
0.305425
0.321003
0.337976
0.356185
0.375452
0.395601
0.416471
0.437916
0.459808
0.482029
0.504472
0.527041
0.549641
0.572185
0.594588
0.616775
0.638676
0.660234
0.681397
0.702128
0.722394
0.742177
0.761461
0.780244
0.798526
0.816318
0.833633
0.850493
0.866921
0.882947
0.898604
0.913929
0.92896
0.943741
0.958315
0.972731
0.987035
1.00128
1.01551
1.02977
1.04411
1.05858
1.07319
1.08797
1.10293
1.11807
1.13335
1.14872
1.16412
1.17946
1.19461
1.20945
1.2238
1.23748
1.25031
1.26207
1.27256
1.28156
1.28889
1.29438
1.29765
1.29973
1.29936
1.29661
1.2916
1.2844
1.27513
1.26391
1.25089
1.23624
1.22013
1.20277
1.18432
1.16499
1.14495
1.12438
1.10343
1.08225
1.06095
1.03966
1.01847
0.997449
0.976672
0.956194
0.936056
0.916295
0.896936
0.877999
0.859495
0.841432
0.82381
0.806629
0.789884
0.773569
0.757675
0.742194
0.727114
0.712423
0.698107
0.684151
0.670537
0.657249
0.644269
0.631585
0.619183
0.607053
0.595186
0.583574
0.572208
0.561082
0.550187
0.539515
0.529056
0.518804
0.508749
0.498887
0.48921
0.479714
0.470393
0.461243
0.452257
0.443432
0.434764
0.426254
0.417908
0.409732
0.401729
0.393889
0.3862
0.378638
0.371173
0.363783
0.35644
0.349097
0.341715
0.334263
0.326681
0.318857
0.310763
0.302311
0.293392
0.283917
0.273818
0.263092
0.251825
0.240195
0.228448
0.216869
0.205737
0.195296
0.185728
0.177141
0.169577
0.163018
0.157408
0.152658
0.148675
0.145355
0.14262
0.140373
0.138607
0.137137
0.136296
0.135337
0.0849213
0.169023
0.207674
0.229085
0.24093
0.247029
0.250035
0.251751
0.253664
0.256781
0.261648
0.268466
0.277225
0.287842
0.300214
0.314224
0.329739
0.346608
0.36467
0.383767
0.40375
0.424485
0.445853
0.467749
0.490082
0.512764
0.535711
0.558842
0.582075
0.605331
0.628532
0.651604
0.674478
0.697092
0.719387
0.741316
0.762835
0.783912
0.804518
0.824637
0.844256
0.86337
0.881979
0.900095
0.917727
0.934899
0.951633
0.967961
0.983918
0.999545
1.01489
1.03
1.04492
1.05973
1.07447
1.08921
1.10401
1.11892
1.13401
1.14932
1.16488
1.18071
1.19679
1.21311
1.22959
1.24617
1.26273
1.27912
1.29518
1.3107
1.32545
1.3392
1.3517
1.3627
1.37196
1.37925
1.3843
1.38719
1.38822
1.38649
1.38218
1.3754
1.36626
1.3549
1.34148
1.32618
1.30922
1.29079
1.27113
1.25043
1.22891
1.20676
1.18417
1.16129
1.13826
1.11523
1.09228
1.06953
1.04704
1.02487
1.00309
0.981721
0.960796
0.940332
0.920343
0.900833
0.881804
0.863253
0.845176
0.827563
0.810405
0.79369
0.777407
0.761542
0.746078
0.731001
0.716292
0.701935
0.687914
0.674213
0.660819
0.647721
0.634908
0.622371
0.610101
0.598091
0.586331
0.574813
0.563527
0.552467
0.541623
0.53099
0.520559
0.510326
0.500284
0.490428
0.480752
0.471252
0.461921
0.452759
0.443764
0.434942
0.426294
0.417813
0.409487
0.401295
0.393215
0.385222
0.377291
0.369385
0.361469
0.35351
0.34546
0.337249
0.328821
0.320071
0.310865
0.301103
0.290689
0.279589
0.267873
0.255714
0.243356
0.231091
0.219213
0.207987
0.197621
0.188249
0.179936
0.172679
0.166433
0.161116
0.156632
0.152879
0.149769
0.147205
0.145161
0.143491
0.142353
0.141247
0.0854234
0.175745
0.21661
0.23969
0.253068
0.260464
0.26438
0.266738
0.269092
0.272582
0.277895
0.285297
0.294804
0.306284
0.319551
0.334408
0.350666
0.368148
0.386698
0.406179
0.426472
0.447475
0.469099
0.491268
0.513909
0.536951
0.560323
0.583954
0.607771
0.631701
0.655668
0.679601
0.703427
0.72708
0.750495
0.773616
0.796388
0.818767
0.840711
0.86219
0.883176
0.90365
0.923599
0.943018
0.961908
0.980276
0.998137
1.01551
1.03243
1.04893
1.06504
1.08083
1.09634
1.11165
1.12681
1.1419
1.15699
1.17218
1.18752
1.2031
1.21897
1.23518
1.25175
1.26867
1.28592
1.30343
1.3211
1.33879
1.35632
1.37349
1.39004
1.4057
1.42019
1.43321
1.44446
1.45368
1.46064
1.46492
1.46722
1.46665
1.46325
1.4571
1.4483
1.437
1.42337
1.40762
1.38997
1.37066
1.34993
1.32802
1.30516
1.28157
1.25746
1.23302
1.20841
1.18377
1.15924
1.13491
1.11087
1.08719
1.06393
1.04111
1.01878
0.996939
0.975614
0.954803
0.934509
0.914726
0.895449
0.876668
0.858372
0.840548
0.823183
0.806261
0.789767
0.773684
0.757994
0.742679
0.727725
0.713114
0.698833
0.684869
0.671211
0.65785
0.644775
0.631978
0.61945
0.60718
0.595161
0.583384
0.571841
0.560524
0.549425
0.538538
0.527857
0.517374
0.507085
0.496983
0.487062
0.477317
0.467745
0.458344
0.449116
0.440052
0.431142
0.422369
0.413711
0.405148
0.396654
0.388199
0.379752
0.37128
0.362742
0.354085
0.345255
0.336175
0.326733
0.316754
0.30609
0.294679
0.282588
0.269987
0.257122
0.244285
0.231781
0.219891
0.20884
0.198784
0.189806
0.181921
0.175093
0.169249
0.164293
0.160125
0.15665
0.15377
0.151438
0.149549
0.148114
0.146962
0.0891145
0.175909
0.216916
0.240956
0.255901
0.265164
0.270995
0.275105
0.279014
0.283827
0.290246
0.298585
0.308896
0.321066
0.334914
0.350242
0.366867
0.384627
0.403385
0.423029
0.443463
0.464609
0.486398
0.508767
0.531655
0.555004
0.578753
0.60284
0.627195
0.651752
0.676435
0.701176
0.7259
0.750537
0.775019
0.799281
0.823261
0.846903
0.870154
0.892971
0.915312
0.937146
0.958443
0.979186
0.99936
1.01896
1.03799
1.05645
1.07437
1.09177
1.10869
1.12516
1.14125
1.15702
1.17254
1.18788
1.20315
1.21842
1.23381
1.2494
1.26529
1.28155
1.29824
1.31539
1.33301
1.35104
1.36943
1.38803
1.40669
1.42519
1.44327
1.46063
1.47694
1.49187
1.50507
1.51622
1.52504
1.53111
1.5346
1.5354
1.53308
1.52775
1.51951
1.50849
1.49487
1.47888
1.46076
1.44076
1.41918
1.39627
1.37228
1.34749
1.3221
1.29634
1.27038
1.24439
1.2185
1.19283
1.16747
1.14249
1.11795
1.09389
1.07035
1.04733
1.02486
1.00293
0.981543
0.960698
0.940386
0.920595
0.901315
0.882531
0.864229
0.846392
0.829006
0.812051
0.795511
0.779369
0.763607
0.748209
0.733162
0.718451
0.704065
0.689993
0.676226
0.662753
0.649564
0.636652
0.624005
0.611615
0.599473
0.587571
0.575901
0.564455
0.553226
0.542208
0.531392
0.520773
0.510343
0.500094
0.490022
0.480119
0.470383
0.460807
0.45138
0.442086
0.432907
0.423822
0.414809
0.405841
0.39689
0.387925
0.378908
0.369797
0.360542
0.351078
0.341316
0.331117
0.32026
0.308579
0.296164
0.283188
0.269898
0.256589
0.243567
0.231123
0.219494
0.208852
0.199296
0.190855
0.183504
0.177176
0.171781
0.167218
0.16339
0.160199
0.15758
0.155448
0.153732
0.152672
0.0920733
0.172588
0.212707
0.23703
0.252908
0.263554
0.271106
0.27737
0.283416
0.290059
0.297918
0.307353
0.318474
0.331228
0.345489
0.361101
0.377915
0.395798
0.414638
0.434344
0.454841
0.476067
0.497966
0.520487
0.543578
0.567188
0.591262
0.615741
0.640564
0.665666
0.690978
0.716433
0.741955
0.767476
0.792922
0.818224
0.843314
0.868128
0.892605
0.916689
0.940327
0.963475
0.986091
1.00814
1.0296
1.05045
1.07067
1.09025
1.10921
1.12756
1.14532
1.16252
1.17921
1.19545
1.21131
1.22687
1.24223
1.25748
1.27274
1.28814
1.30378
1.31979
1.33625
1.35323
1.37077
1.38888
1.4075
1.42655
1.44586
1.46524
1.48442
1.5031
1.5209
1.53747
1.5524
1.56533
1.57591
1.58378
1.58875
1.59083
1.58968
1.58533
1.57784
1.56731
1.55394
1.53795
1.51962
1.49924
1.47712
1.45354
1.42878
1.40311
1.37679
1.35005
1.32307
1.29604
1.2691
1.24238
1.21598
1.18997
1.16442
1.13938
1.11487
1.09091
1.06751
1.04468
1.02242
1.00071
0.97956
0.958948
0.938864
0.919295
0.900225
0.881638
0.863518
0.845848
0.828609
0.811786
0.795361
0.779317
0.763639
0.748314
0.733331
0.718677
0.704343
0.690318
0.676592
0.663155
0.649998
0.637111
0.624483
0.612108
0.599974
0.588076
0.576403
0.564949
0.553705
0.542663
0.531815
0.521152
0.510664
0.500343
0.490182
0.480173
0.470304
0.460561
0.450927
0.441384
0.431908
0.422478
0.413065
0.403642
0.394175
0.384625
0.374947
0.365086
0.354962
0.344462
0.333399
0.32146
0.308749
0.295449
0.281805
0.268109
0.254667
0.241771
0.229667
0.218535
0.208488
0.199565
0.191751
0.184988
0.179189
0.174256
0.170091
0.166594
0.163692
0.161301
0.159357
0.157795
0.0921517
0.164577
0.203268
0.227836
0.245038
0.257637
0.267347
0.275394
0.283056
0.291336
0.300687
0.311304
0.323274
0.336575
0.35118
0.366991
0.383908
0.401835
0.420686
0.440392
0.460893
0.48214
0.504087
0.52669
0.549907
0.573692
0.597996
0.622767
0.647947
0.673476
0.699288
0.725316
0.751491
0.777741
0.803997
0.830187
0.85624
0.882087
0.90766
0.932892
0.957722
0.982095
1.00596
1.02927
1.05198
1.07406
1.09548
1.11622
1.13626
1.15561
1.17427
1.19226
1.20962
1.2264
1.24264
1.25844
1.27388
1.28906
1.30412
1.31918
1.33439
1.34989
1.36581
1.38225
1.3993
1.417
1.43535
1.45429
1.47369
1.49337
1.51309
1.53252
1.55131
1.56904
1.5853
1.59966
1.61172
1.62111
1.62758
1.63087
1.63092
1.62768
1.62111
1.61132
1.59848
1.58283
1.56466
1.54428
1.52205
1.49824
1.47314
1.44704
1.42022
1.3929
1.3653
1.33761
1.31
1.28259
1.25549
1.22879
1.20255
1.17682
1.15163
1.12701
1.10296
1.07949
1.05659
1.03427
1.0125
0.991282
0.970603
0.950448
0.930802
0.911651
0.892978
0.874766
0.857
0.839661
0.822732
0.806197
0.790042
0.774252
0.758815
0.743721
0.728959
0.714519
0.700389
0.68656
0.673022
0.659763
0.646775
0.634047
0.62157
0.609335
0.597333
0.585554
0.573989
0.562629
0.551465
0.540483
0.529674
0.519026
0.50853
0.498174
0.487948
0.477837
0.467824
0.457892
0.44802
0.438186
0.428365
0.41853
0.408651
0.398692
0.388611
0.378357
0.367859
0.357014
0.345652
0.333451
0.320458
0.306871
0.292933
0.278927
0.265155
0.251904
0.239422
0.227895
0.217442
0.208113
0.1999
0.192752
0.186588
0.181312
0.176827
0.173034
0.169854
0.167196
0.16503
0.1631
0.0907183
0.153982
0.190972
0.215474
0.233563
0.247719
0.259416
0.269757
0.279513
0.289287
0.299667
0.311035
0.323564
0.337337
0.352241
0.368212
0.385187
0.403103
0.421905
0.441543
0.461973
0.483158
0.505059
0.527642
0.550869
0.5747
0.599093
0.623999
0.649369
0.675147
0.701274
0.727687
0.754321
0.781109
0.807979
0.834864
0.861693
0.888396
0.914916
0.94114
0.967017
0.99249
1.0175
1.04199
1.0659
1.08918
1.1118
1.1337
1.15487
1.17528
1.19492
1.2138
1.23193
1.24934
1.26607
1.2822
1.29779
1.31295
1.32781
1.3425
1.35718
1.37201
1.38715
1.40275
1.4189
1.4357
1.45316
1.47126
1.48994
1.50906
1.52842
1.54773
1.56665
1.58475
1.60162
1.6168
1.62985
1.64039
1.64807
1.65262
1.65386
1.65194
1.6466
1.63793
1.62612
1.61137
1.59391
1.57413
1.55233
1.5288
1.50388
1.47786
1.45103
1.42363
1.39589
1.36801
1.34016
1.31248
1.2851
1.25809
1.23151
1.20545
1.17993
1.15497
1.13058
1.10677
1.08352
1.06084
1.03871
1.01713
0.996094
0.975577
0.955572
0.936063
0.917036
0.898476
0.880369
0.862696
0.845441
0.828587
0.81212
0.796027
0.780296
0.764915
0.749876
0.735168
0.720781
0.706702
0.692923
0.67943
0.666215
0.653266
0.640575
0.62813
0.61592
0.603937
0.592168
0.580604
0.569231
0.558037
0.547009
0.536133
0.525397
0.514789
0.504296
0.493902
0.483592
0.473348
0.463151
0.45298
0.44281
0.432617
0.422372
0.412041
0.401585
0.390954
0.380082
0.368871
0.35716
0.344641
0.331369
0.317527
0.303349
0.289105
0.275087
0.261573
0.248808
0.236978
0.226205
0.216545
0.207997
0.200516
0.194028
0.18844
0.183656
0.179579
0.176129
0.173201
0.170819
0.168502
0.0872797
0.142184
0.177338
0.20165
0.220374
0.235743
0.249009
0.261047
0.272529
0.283998
0.2958
0.308208
0.321392
0.335486
0.350542
0.366548
0.383475
0.401283
0.419935
0.439397
0.459637
0.480626
0.502333
0.52473
0.547786
0.571466
0.595732
0.620544
0.645856
0.671619
0.69778
0.724283
0.751067
0.77807
0.805228
0.832476
0.859748
0.886982
0.91413
0.941128
0.96788
0.994309
1.02034
1.04592
1.07096
1.09543
1.11926
1.14236
1.16469
1.18624
1.20697
1.22686
1.24591
1.26411
1.2815
1.29811
1.31401
1.32929
1.34405
1.35843
1.37259
1.38669
1.40091
1.41539
1.43028
1.4457
1.46176
1.47854
1.49599
1.51399
1.53237
1.55087
1.56918
1.5869
1.60361
1.61887
1.63223
1.64328
1.65165
1.65708
1.65918
1.6583
1.65406
1.64646
1.6357
1.62192
1.60523
1.58641
1.56557
1.54296
1.51885
1.49357
1.46737
1.44053
1.41327
1.3858
1.35827
1.33088
1.30375
1.27694
1.25049
1.22452
1.19906
1.17414
1.14976
1.12593
1.10265
1.07991
1.05771
1.03605
1.01491
0.994275
0.974145
0.954505
0.935338
0.91664
0.898396
0.880588
0.863198
0.846212
0.829613
0.813391
0.797536
0.782035
0.76688
0.752065
0.737575
0.7234
0.709528
0.695948
0.68265
0.669622
0.656854
0.644333
0.632048
0.619988
0.60814
0.596491
0.585027
0.573733
0.562594
0.551596
0.540722
0.529959
0.519292
0.508707
0.498185
0.48771
0.477263
0.466824
0.456369
0.445875
0.435313
0.424652
0.413853
0.402868
0.391629
0.380039
0.367936
0.355066
0.341522
0.327461
0.313096
0.298685
0.284501
0.270814
0.257858
0.245815
0.234806
0.224891
0.216074
0.208315
0.201544
0.195676
0.190616
0.186269
0.182558
0.179365
0.176759
0.174123
0.0818971
0.129305
0.163038
0.18719
0.206376
0.222652
0.23712
0.250502
0.263333
0.276028
0.288895
0.302173
0.316042
0.330574
0.345827
0.361842
0.378633
0.396201
0.41454
0.43364
0.453486
0.474065
0.49536
0.51735
0.540015
0.563328
0.587259
0.611775
0.636837
0.662404
0.688431
0.714868
0.741662
0.768758
0.796095
0.823609
0.85123
0.878889
0.9065
0.934006
0.961345
0.988449
1.01524
1.04166
1.06763
1.09308
1.11797
1.14225
1.16581
1.18859
1.21053
1.2316
1.25177
1.27098
1.28923
1.30656
1.323
1.33861
1.35347
1.3677
1.38144
1.39485
1.40812
1.42142
1.43495
1.44886
1.46326
1.47819
1.49367
1.50966
1.52604
1.54263
1.55918
1.57537
1.59085
1.6052
1.61804
1.62896
1.63759
1.64363
1.64679
1.64692
1.64404
1.63794
1.62871
1.6165
1.60153
1.58406
1.56442
1.54292
1.51987
1.49558
1.47031
1.44431
1.41785
1.3911
1.36423
1.33745
1.31087
1.28458
1.25852
1.23303
1.20806
1.1836
1.15964
1.13619
1.11325
1.09081
1.06888
1.04746
1.02653
1.00607
0.986106
0.966611
0.947541
0.92893
0.910769
0.893039
0.875721
0.858802
0.842265
0.826102
0.810303
0.794855
0.779757
0.765004
0.750579
0.73647
0.722663
0.709151
0.695921
0.682963
0.670262
0.657808
0.645586
0.633583
0.621786
0.610178
0.598745
0.587469
0.576333
0.56532
0.554414
0.543597
0.532854
0.522168
0.511522
0.500899
0.490279
0.479642
0.468968
0.45823
0.447403
0.436455
0.425346
0.414029
0.402432
0.390452
0.377914
0.364715
0.350927
0.336689
0.322197
0.307689
0.293422
0.279648
0.26659
0.254422
0.243261
0.233166
0.224145
0.216162
0.209154
0.203039
0.197728
0.193128
0.189165
0.185715
0.182876
0.179964
0.074271
0.115066
0.14777
0.171917
0.191567
0.208592
0.224018
0.238474
0.2524
0.266119
0.279876
0.293856
0.308201
0.323007
0.338344
0.354267
0.370813
0.38801
0.405878
0.42443
0.443673
0.463613
0.484246
0.505569
0.52757
0.550234
0.573541
0.597467
0.621983
0.647056
0.672648
0.69872
0.725226
0.752119
0.779348
0.806859
0.834597
0.862498
0.890492
0.918512
0.946491
0.974356
1.00203
1.02944
1.05649
1.08311
1.10917
1.13461
1.15937
1.18337
1.20656
1.22886
1.25022
1.27063
1.29001
1.30832
1.32557
1.34177
1.35698
1.37128
1.38478
1.39763
1.41001
1.4221
1.43406
1.44606
1.45822
1.47065
1.48339
1.49645
1.50979
1.52331
1.53684
1.5502
1.56311
1.57531
1.58646
1.59622
1.60426
1.61028
1.61397
1.61486
1.61324
1.60864
1.60114
1.59083
1.57786
1.56244
1.54484
1.52533
1.5042
1.48174
1.45822
1.43388
1.40896
1.38367