/*--------------------------------*- C++ -*----------------------------------*\
| =========                 |                                                 |
| \\      /  F ield         | OpenFOAM: The Open Source CFD Toolbox           |
|  \\    /   O peration     | Version:  2312                                  |
|   \\  /    A nd           | Website:  www.openfoam.com                      |
|    \\/     M anipulation  |                                                 |
\*---------------------------------------------------------------------------*/
FoamFile
{
    version     2.0;
    format      ascii;
    arch        "LSB;label=32;scalar=64";
    class       volScalarField;
    location    "50";
    object      mag(U);
}
// * * * * * * * * * * * * * * * * * * * * * * * * * * * * * * * * * * * * * //

dimensions      [0 1 -1 0 0 0 0];

internalField   nonuniform List<scalar> 
12225
(
0.984916
0.877421
0.765753
0.663404
0.59488
0.552944
0.525114
0.50512
0.490069
0.478355
0.469207
0.462323
0.457658
0.455317
0.455663
0.459284
0.468749
0.485884
1.04741
1.02197
0.978691
0.92911
0.885209
0.849529
0.821028
0.798778
0.781608
0.76829
0.757974
0.750208
0.744813
0.74179
0.741545
0.744616
0.752836
0.765781
1.00434
1.00822
1.00936
0.99652
0.977262
0.956749
0.937385
0.920716
0.907148
0.896369
0.887984
0.88173
0.877476
0.875215
0.875126
0.877496
0.882778
0.889096
0.99914
1.00566
1.01639
1.01621
1.00917
0.998823
0.987175
0.976034
0.966365
0.958391
0.952081
0.947367
0.944208
0.942601
0.942593
0.944193
0.947197
0.949683
0.999562
1.0059
1.01748
1.02209
1.02146
1.01747
1.01137
1.00466
0.998372
0.992944
0.988552
0.985264
0.983109
0.982092
0.982185
0.983228
0.984814
0.985308
0.99982
1.00559
1.01644
1.0231
1.026
1.02599
1.02378
1.02047
1.01696
1.01373
1.01105
1.00906
1.00783
1.00736
1.00759
1.00829
1.00904
1.00856
0.999814
1.00497
1.01482
1.02225
1.02704
1.02951
1.02997
1.0292
1.02791
1.02653
1.02534
1.0245
1.0241
1.02415
1.02456
1.0251
1.0254
1.02453
0.999826
1.00438
1.01315
1.02069
1.02641
1.03036
1.03263
1.03372
1.03414
1.03426
1.03431
1.03447
1.0348
1.03533
1.03595
1.03647
1.03658
1.03567
0.999894
1.00387
1.01159
1.01886
1.02496
1.02975
1.03319
1.03559
1.0373
1.03858
1.03965
1.04063
1.04159
1.04254
1.04339
1.04398
1.04408
1.04332
0.999974
1.00343
1.01016
1.01699
1.02312
1.02833
1.0325
1.03578
1.0384
1.04057
1.04242
1.04405
1.04553
1.04684
1.04791
1.04863
1.04884
1.04832
1.00004
1.00303
1.00888
1.01518
1.02114
1.02648
1.03105
1.03489
1.03814
1.04093
1.04335
1.04548
1.04736
1.04896
1.05024
1.05112
1.0515
1.05125
1.00007
1.0027
1.00782
1.01361
1.0193
1.0246
1.02932
1.03345
1.03705
1.04022
1.04301
1.04547
1.04761
1.04942
1.05087
1.0519
1.05244
1.05244
1.0001
1.0024
1.00688
1.01215
1.01752
1.02267
1.02741
1.03167
1.03549
1.0389
1.04193
1.04461
1.04694
1.04891
1.0505
1.05166
1.05237
1.05261
1.00012
1.00209
1.00592
1.01064
1.0156
1.02049
1.02512
1.0294
1.03331
1.03685
1.04003
1.04285
1.04532
1.04741
1.04911
1.0504
1.05128
1.05175
1.00012
1.00178
1.005
1.00912
1.0136
1.01814
1.02255
1.02672
1.03059
1.03415
1.03736
1.04024
1.04276
1.04492
1.0467
1.0481
1.04912
1.04979
1.00011
1.00149
1.00416
1.0077
1.01165
1.01577
1.01985
1.02379
1.02751
1.03096
1.03411
1.03694
1.03944
1.04159
1.0434
1.04487
1.04599
1.04682
1.0001
1.00124
1.00346
1.00646
1.00991
1.01358
1.01729
1.02091
1.02438
1.02762
1.03061
1.0333
1.0357
1.03778
1.03956
1.04103
1.0422
1.0431
1.00009
1.00106
1.00295
1.00556
1.0086
1.01186
1.01521
1.01851
1.02167
1.02466
1.02741
1.0299
1.03213
1.03407
1.03574
1.03714
1.03828
1.03919
1.00008
1.00098
1.00274
1.00517
1.008
1.01104
1.01414
1.01719
1.0201
1.02282
1.02532
1.02757
1.02957
1.03131
1.0328
1.03404
1.03505
1.03585
1.00008
1.00104
1.00295
1.00554
1.0085
1.0116
1.0147
1.01767
1.02045
1.023
1.02528
1.02729
1.02903
1.03051
1.03173
1.03272
1.03348
1.03405
1.00008
1.00115
1.00335
1.0063
1.00955
1.01286
1.01606
1.01902
1.0217
1.02407
1.02612
1.02785
1.02928
1.03043
1.03132
1.03197
1.0324
1.03264
1.00005
1.00124
1.00389
1.00736
1.01102
1.01459
1.01788
1.0208
1.02328
1.02535
1.02703
1.02833
1.0293
1.02997
1.03037
1.03053
1.03048
1.03026
0.999963
1.00124
1.00451
1.00863
1.01274
1.01654
1.01982
1.02249
1.02457
1.02609
1.02714
1.02776
1.02803
1.02799
1.0277
1.02718
1.02648
1.02564
0.999821
1.0011
1.0052
1.01006
1.01455
1.0184
1.02138
1.02345
1.0247
1.02528
1.02531
1.02491
1.02416
1.02314
1.0219
1.0205
1.01896
1.01734
0.999529
1.00068
1.00597
1.01159
1.01619
1.01965
1.02174
1.02254
1.02232
1.02136
1.01987
1.01799
1.01586
1.01354
1.01111
1.00861
1.00605
1.00352
0.998536
0.999451
1.00667
1.01298
1.01701
1.01909
1.0192
1.01765
1.01501
1.01172
1.00806
1.00421
1.00029
0.996374
0.992505
0.988705
0.984983
0.981394
0.99638
0.997019
1.00668
1.01307
1.01501
1.01378
1.00994
1.00436
0.997957
0.991325
0.984747
0.978371
0.972264
0.966442
0.960896
0.955609
0.950554
0.945777
0.997531
0.998325
1.00642
1.00824
1.0037
0.99503
0.98374
0.971482
0.959498
0.948303
0.937986
0.928506
0.91978
0.911711
0.904203
0.897182
0.890567
0.884397
1.03262
1.02586
1.00795
0.982928
0.956292
0.930148
0.905372
0.883049
0.863669
0.846947
0.832336
0.819373
0.807725
0.797141
0.787423
0.778436
0.770031
0.762257
1.00441
0.957475
0.881382
0.795027
0.725493
0.67614
0.64044
0.613376
0.592009
0.574376
0.559225
0.545866
0.5339
0.523063
0.513139
0.504016
0.495491
0.487679
0.0106331
0.0132196
0.0106714
0.00698263
0.00930539
0.0189698
0.0318612
0.0466534
0.0627391
0.0797006
0.0971579
0.114759
0.132174
0.149109
0.165309
0.180565
0.19471
0.207622
0.219216
0.229443
0.23828
0.245727
0.251796
0.256511
0.2599
0.261986
0.262809
0.262451
0.261128
0.258889
0.255811
0.251953
0.247373
0.242121
0.236247
0.229794
0.222811
0.215337
0.207418
0.199096
0.190415
0.181417
0.172143
0.162633
0.152925
0.143056
0.13306
0.122968
0.112813
0.102623
0.0924256
0.0822478
0.0721179
0.0620705
0.052142
0.0423809
0.032871
0.0238094
0.0157764
0.0107465
0.0127263
0.0195932
0.0278115
0.036346
0.0449104
0.0533964
0.061761
0.0699797
0.0780422
0.0859381
0.0936659
0.101223
0.10861
0.115827
0.122875
0.129756
0.136473
0.143024
0.149408
0.155626
0.161682
0.167577
0.173311
0.178889
0.184311
0.189577
0.194696
0.199655
0.204467
0.209107
0.213607
0.217958
0.222189
0.226268
0.230223
0.234029
0.237715
0.241253
0.24467
0.247954
0.251113
0.254158
0.257066
0.259874
0.262566
0.265137
0.2676
0.26997
0.272209
0.274361
0.276387
0.278321
0.280157
0.28189
0.283572
0.285132
0.286619
0.288051
0.289356
0.290636
0.291803
0.292941
0.293972
0.294982
0.295911
0.296772
0.297546
0.2983
0.298969
0.299569
0.300138
0.300661
0.301114
0.30153
0.301865
0.302201
0.302439
0.302641
0.302801
0.302937
0.302952
0.303016
0.303139
0.303221
0.303266
0.303253
0.303195
0.303145
0.303038
0.302907
0.302684
0.302508
0.302265
0.302016
0.301739
0.301395
0.301074
0.300709
0.300294
0.299866
0.299309
0.298765
0.298205
0.297719
0.297201
0.296766
0.296241
0.295561
0.294824
0.293919
0.292828
0.29158
0.290067
0.288189
0.285816
0.28265
0.278485
0.271908
0.264895
0.242671
0.0161909
0.00594486
0.0187802
0.0371954
0.0547548
0.0716391
0.0883448
0.105003
0.121435
0.137345
0.152461
0.166591
0.179615
0.191469
0.202129
0.211599
0.2199
0.227065
0.233134
0.238151
0.24216
0.24521
0.24735
0.248632
0.249112
0.248845
0.247889
0.246271
0.243921
0.240843
0.237054
0.232581
0.227456
0.221715
0.215396
0.208535
0.201172
0.193347
0.185102
0.176473
0.167503
0.158228
0.148689
0.138926
0.128979
0.118886
0.108686
0.0984181
0.0881259
0.0778572
0.0676719
0.0576504
0.0479213
0.03871
0.0304705
0.0241548
0.0214442
0.0235221
0.0292928
0.0369545
0.045441
0.0542821
0.0632766
0.0723121
0.0813243
0.0902717
0.0991289
0.107877
0.116504
0.125001
0.133362
0.141582
0.149659
0.15759
0.165375
0.173013
0.180504
0.187847
0.195039
0.202082
0.208977
0.215723
0.222322
0.228773
0.235079
0.241242
0.247259
0.253132
0.258854
0.26443
0.269862
0.275165
0.280333
0.285369
0.290267
0.295035
0.299666
0.304169
0.30854
0.312784
0.316903
0.320895
0.32477
0.328522
0.332156
0.335673
0.339071
0.342346
0.345515
0.348574
0.351532
0.354386
0.357141
0.359795
0.362338
0.364796
0.367158
0.369423
0.371611
0.373706
0.375723
0.377652
0.379512
0.381282
0.382978
0.384609
0.386176
0.387657
0.389081
0.390442
0.391736
0.392964
0.394136
0.395252
0.396325
0.397342
0.398309
0.399234
0.400091
0.400912
0.401721
0.402439
0.403071
0.403663
0.404232
0.404794
0.405291
0.405755
0.406176
0.406542
0.406916
0.407204
0.407476
0.407707
0.407901
0.408093
0.408222
0.40832
0.408379
0.408418
0.408468
0.408471
0.408459
0.408355
0.408161
0.407914
0.40761
0.407241
0.406824
0.406308
0.405666
0.404858
0.403869
0.402606
0.400961
0.398799
0.395971
0.391629
0.387159
0.375207
0.00603521
0.0282529
0.0521968
0.0734849
0.0919626
0.107922
0.121902
0.13437
0.145597
0.155737
0.164905
0.173197
0.180702
0.187502
0.193659
0.199216
0.204198
0.208613
0.212459
0.215727
0.218404
0.220477
0.221933
0.222763
0.222956
0.222503
0.221396
0.219627
0.217197
0.214116
0.2104
0.206068
0.201146
0.195661
0.189645
0.183129
0.176149
0.16874
0.160941
0.152793
0.144334
0.135606
0.126652
0.117519
0.108257
0.0989227
0.08958
0.0803077
0.0712089
0.0624267
0.054173
0.0467723
0.0407234
0.0367086
0.035417
0.0371018
0.0413516
0.0474251
0.0546631
0.0626089
0.0709702
0.0795658
0.0882868
0.0970607
0.105838
0.114582
0.123268
0.131876
0.140391
0.148802
0.157101
0.165281
0.173338
0.181268
0.189068
0.196736
0.20427
0.211668
0.21893
0.226053
0.23304
0.239887
0.246597
0.253169
0.259603
0.265901
0.272062
0.278085
0.283968
0.289712
0.295322
0.300805
0.306157
0.311382
0.316477
0.321444
0.326281
0.330994
0.335582
0.340047
0.34439
0.348613
0.35272
0.356709
0.360581
0.364339
0.367984
0.371515
0.374941
0.378258
0.381475
0.384592
0.387608
0.390528
0.393345
0.396074
0.39871
0.40125
0.40371
0.406078
0.40837
0.410572
0.412703
0.414749
0.416722
0.418622
0.420458
0.422217
0.423911
0.425545
0.427111
0.428612
0.430056
0.431438
0.43277
0.434034
0.435254
0.436424
0.43755
0.43863
0.439672
0.440644
0.441546
0.442397
0.443203
0.443972
0.444706
0.445387
0.446038
0.446654
0.447238
0.447772
0.448271
0.44873
0.449153
0.449542
0.449892
0.450213
0.45051
0.450777
0.451035
0.451234
0.451397
0.451483
0.451504
0.451453
0.451351
0.451192
0.450972
0.450674
0.45027
0.449725
0.449005
0.448065
0.44683
0.445181
0.443061
0.44
0.436879
0.430358
0.026905
0.0592552
0.0834597
0.103011
0.119072
0.132047
0.142445
0.150788
0.157542
0.163103
0.167787
0.171844
0.17546
0.178766
0.181842
0.184728
0.18743
0.18993
0.192193
0.194175
0.195828
0.197106
0.197963
0.19836
0.198259
0.19763
0.196452
0.19471
0.192399
0.189522
0.186088
0.182109
0.177606
0.172599
0.167116
0.161186
0.154843
0.148123
0.141066
0.133715
0.126121
0.118333
0.110411
0.102424
0.0944523
0.0865955
0.0789777
0.0717593
0.0651501
0.0594206
0.054902
0.0519515
0.0508675
0.0517739
0.0545612
0.058941
0.0645613
0.0710946
0.0782771
0.0859103
0.093849
0.101989
0.110255
0.118591
0.126955
0.135315
0.143645
0.151925
0.160139
0.168273
0.176319
0.184266
0.19211
0.199844
0.207465
0.214968
0.222351
0.229612
0.236747
0.243756
0.250638
0.257391
0.264015
0.27051
0.276875
0.283111
0.289216
0.295191
0.301033
0.306744
0.312328
0.317787
0.323122
0.328333
0.333419
0.338382
0.343221
0.34794
0.352539
0.357018
0.361381
0.365628
0.369761
0.373781
0.377689
0.381485
0.385173
0.388754
0.392232
0.395604
0.398878
0.402053
0.405131
0.408115
0.411005
0.413806
0.416516
0.419137
0.421675
0.424127
0.426501
0.428793
0.431011
0.433151
0.435218
0.437213
0.43914
0.440999
0.442791
0.444522
0.446188
0.447792
0.449338
0.450824
0.452255
0.453623
0.454944
0.456211
0.457436
0.458608
0.459732
0.460803
0.461822
0.46279
0.463707
0.464576
0.465411
0.466198
0.466952
0.467674
0.468352
0.468995
0.469599
0.470163
0.47069
0.471176
0.471631
0.472054
0.47245
0.472809
0.473134
0.473417
0.473649
0.473834
0.473972
0.474041
0.474067
0.474034
0.473933
0.473762
0.473501
0.47312
0.47258
0.471852
0.470888
0.469595
0.467977
0.465782
0.463645
0.459898
0.0567285
0.0921067
0.113362
0.128984
0.141193
0.150513
0.157367
0.162208
0.165482
0.167606
0.168941
0.169784
0.170364
0.170847
0.171338
0.171893
0.172529
0.173226
0.173946
0.174632
0.175224
0.175656
0.175865
0.175792
0.175385
0.174599
0.173398
0.171759
0.169664
0.167107
0.164087
0.16061
0.156689
0.152343
0.147596
0.142477
0.137022
0.13127
0.125269
0.119073
0.112746
0.106359
0.0999951
0.0937562
0.0877618
0.0821547
0.0771031
0.0727988
0.0694482
0.0672494
0.06636
0.0668612
0.0687371
0.0718826
0.076134
0.0813044
0.0872121
0.0936958
0.10062
0.107875
0.115372
0.123044
0.130836
0.138705
0.146615
0.15454
0.162454
0.17034
0.17818
0.185963
0.193675
0.20131
0.208858
0.216313
0.22367
0.230924
0.238072
0.24511
0.252036
0.258846
0.265539
0.272114
0.278569
0.284903
0.291116
0.297206
0.303175
0.309019
0.314739
0.320335
0.325809
0.331164
0.3364
0.341516
0.346514
0.351393
0.356154
0.360798
0.365328
0.369743
0.374045
0.378237
0.382319
0.386291
0.390155
0.393913
0.397566
0.401117
0.404567
0.407917
0.41117
0.414328
0.417393
0.420366
0.42325
0.426047
0.428757
0.431382
0.433925
0.436388
0.438773
0.441081
0.443315
0.445476
0.447566
0.449586
0.451538
0.453425
0.455248
0.457009
0.458708
0.460348
0.46193
0.463454
0.464923
0.466335
0.467698
0.469008
0.47027
0.471481
0.472642
0.473757
0.474825
0.475845
0.476818
0.477744
0.47863
0.479475
0.480283
0.481053
0.481785
0.482481
0.483139
0.483759
0.484342
0.484888
0.485401
0.485879
0.486325
0.486733
0.487101
0.487435
0.487721
0.487966
0.488169
0.488316
0.488416
0.488467
0.488448
0.488367
0.488206
0.487939
0.487538
0.486977
0.486225
0.485226
0.484004
0.482447
0.481056
0.478924
0.0862438
0.12396
0.141544
0.152789
0.160858
0.166453
0.169949
0.171703
0.172076
0.171416
0.170049
0.16826
0.166288
0.164316
0.162477
0.160854
0.159488
0.158384
0.157518
0.156841
0.156295
0.155809
0.155314
0.154738
0.154017
0.153096
0.151925
0.150469
0.148698
0.146594
0.144149
0.141361
0.138237
0.134793
0.131053
0.127046
0.122811
0.118395
0.113855
0.109255
0.104674
0.100199
0.0959294
0.0919788
0.0884701
0.0855339
0.0833001
0.0818876
0.0813911
0.0818685
0.0833327
0.0857528
0.0890617
0.0931681
0.0979689
0.10336
0.109241
0.115524
0.12213
0.128991
0.13605
0.143259
0.150579
0.157976
0.165421
0.172892
0.180366
0.187828
0.195261
0.202652
0.209991
0.217268
0.224475
0.231605
0.238652
0.245609
0.252474
0.259242
0.265908
0.272471
0.278928
0.285277
0.291515
0.297642
0.303656
0.309556
0.315342
0.321012
0.326564
0.331999
0.33732
0.342527
0.347621
0.352601
0.357468
0.362221
0.366863
0.371393
0.375813
0.380123
0.384326
0.388423
0.392414
0.3963
0.400083
0.403764
0.407344
0.410827
0.414212
0.417502
0.420699
0.423804
0.42682
0.429747
0.432589
0.435347
0.438022
0.440616
0.443131
0.445569
0.447932
0.450222
0.45244
0.454588
0.456667
0.458679
0.460625
0.462508
0.46433
0.46609
0.467792
0.469436
0.471023
0.472556
0.474034
0.475461
0.476836
0.478162
0.479437
0.480663
0.48184
0.482973
0.484063
0.485107
0.486107
0.487062
0.487978
0.488854
0.489691
0.49049
0.491252
0.491979
0.492669
0.493323
0.493941
0.494524
0.495073
0.495587
0.496067
0.496511
0.496917
0.497287
0.497616
0.497906
0.498156
0.49836
0.498516
0.498628
0.498677
0.498667
0.498584
0.498411
0.498127
0.49771
0.497145
0.496405
0.49552
0.494464
0.493656
0.492574
0.112854
0.153021
0.167323
0.174601
0.17886
0.181015
0.181445
0.180439
0.178272
0.175218
0.171542
0.167491
0.163284
0.159107
0.155109
0.151401
0.148058
0.145117
0.142586
0.140446
0.138654
0.137155
0.135881
0.134762
0.133726
0.132708
0.131648
0.130497
0.129214
0.127767
0.126137
0.124314
0.122299
0.1201
0.117739
0.115243
0.112651
0.110011
0.107379
0.104821
0.10241
0.100225
0.0983509
0.0968709
0.0958672
0.0954139
0.0955713
0.096382
0.0978672
0.100027
0.10284
0.106272
0.110275
0.114794
0.11977
0.125146
0.130865
0.136877
0.143132
0.149589
0.156208
0.162956
0.169804
0.176726
0.1837
0.190705
0.197724
0.204742
0.211745
0.218721
0.225658
0.232549
0.239384
0.246156
0.252859
0.259487
0.266035
0.272498
0.278872
0.285154
0.291341
0.29743
0.303419
0.309306
0.31509
0.320768
0.326339
0.331803
0.337158
0.342403
0.347541
0.352571
0.357495
0.362312
0.367021
0.371623
0.376118
0.380508
0.384793
0.388975
0.393054
0.397032
0.400909
0.404686
0.408365
0.411946
0.415432
0.418824
0.422124
0.425333
0.428453
0.431485
0.434432
0.437294
0.440075
0.442775
0.445396
0.44794
0.450409
0.452804
0.455127
0.457381
0.459565
0.461683
0.463734
0.465721
0.467645
0.469508
0.471312
0.473057
0.474745
0.476378
0.477957
0.479482
0.480957
0.48238
0.483755
0.48508
0.486357
0.487586
0.488768
0.489907
0.491005
0.492059
0.493071
0.494042
0.494973
0.495866
0.49672
0.497537
0.498318
0.499064
0.499776
0.500452
0.501094
0.501702
0.502277
0.502817
0.503324
0.503796
0.504232
0.504634
0.504998
0.505325
0.505615
0.505865
0.506071
0.506233
0.506342
0.506395
0.506382
0.506292
0.506114
0.505831
0.505438
0.504928
0.50434
0.503696
0.503358
0.503006
0.135666
0.178484
0.19023
0.194228
0.195251
0.194427
0.192167
0.188726
0.18432
0.179159
0.17345
0.167395
0.161184
0.15499
0.148966
0.14324
0.13792
0.133082
0.128779
0.125037
0.121855
0.119209
0.117059
0.115347
0.114008
0.112972
0.112171
0.111538
0.111016
0.110556
0.110119
0.109676
0.109213
0.108722
0.108209
0.107689
0.107184
0.106726
0.106354
0.10611
0.106042
0.106198
0.106627
0.107372
0.108474
0.109962
0.111859
0.114178
0.116922
0.120087
0.123658
0.127617
0.131939
0.136597
0.14156
0.146798
0.152281
0.157978
0.163861
0.169902
0.176076
0.182361
0.188734
0.195177
0.201672
0.208203
0.214755
0.221315
0.227871
0.234411
0.240926
0.247408
0.253847
0.260236
0.266569
0.272841
0.279044
0.285176
0.29123
0.297204
0.303094
0.308897
0.31461
0.320231
0.325758
0.331188
0.336521
0.341755
0.346889
0.35192
0.356851
0.361683
0.366415
0.371047
0.375577
0.380008
0.384338
0.388568
0.392701
0.396735
0.400673
0.404514
0.408261
0.411913
0.415471
0.418938
0.422314
0.425602
0.428802
0.431915
0.434945
0.437891
0.440756
0.443541
0.446248
0.448879
0.451435
0.453918
0.456329
0.45867
0.460943
0.463149
0.46529
0.467367
0.469381
0.471333
0.473226
0.47506
0.476837
0.478558
0.480225
0.481839
0.4834
0.484911
0.486373
0.487786
0.489151
0.490469
0.491741
0.492966
0.494148
0.495287
0.496386
0.497443
0.498461
0.499439
0.500379
0.501281
0.502147
0.502976
0.50377
0.50453
0.505256
0.505949
0.506609
0.507237
0.507831
0.508393
0.508922
0.509418
0.509881
0.51031
0.510706
0.511066
0.511392
0.511681
0.511931
0.51214
0.512303
0.512414
0.512469
0.512459
0.51238
0.512223
0.511989
0.511688
0.511365
0.511067
0.511113
0.511292
0.154481
0.200076
0.210016
0.211448
0.209852
0.206554
0.202012
0.196472
0.190114
0.1831
0.175592
0.167747
0.159723
0.151671
0.143735
0.136052
0.128747
0.121937
0.115723
0.110193
0.105415
0.101434
0.0982673
0.0959065
0.0943145
0.09343
0.0931729
0.0934515
0.0941706
0.0952381
0.0965711
0.098098
0.099761
0.101516
0.103332
0.10519
0.107083
0.109012
0.110987
0.113024
0.115143
0.117368
0.119721
0.122226
0.124902
0.127769
0.130841
0.134132
0.137648
0.141394
0.145371
0.149574
0.153998
0.158633
0.163467
0.168488
0.17368
0.179028
0.184516
0.190129
0.19585
0.201665
0.207558
0.213515
0.219523
0.22557
0.231643
0.237731
0.243824
0.249912
0.255987
0.262039
0.268061
0.274045
0.279986
0.285878
0.291714
0.29749
0.303201
0.308843
0.314412
0.319904
0.325318
0.330649
0.335896
0.341057
0.34613
0.351112
0.356002
0.360799
0.365504
0.370118
0.374639
0.379067
0.383402
0.387643
0.391791
0.395846
0.39981
0.403682
0.407463
0.411155
0.414757
0.41827
0.421696
0.425036
0.42829
0.431461
0.43455
0.437558
0.440487
0.443337
0.446111
0.44881
0.451435
0.453987
0.45647
0.458883
0.461229
0.463509
0.465725
0.467877
0.469967
0.471997
0.473967
0.475879
0.477734
0.479533
0.481278
0.48297
0.48461
0.4862
0.48774
0.489232
0.490676
0.492073
0.493426
0.494733
0.495995
0.497214
0.498391
0.499527
0.500623
0.501681
0.502701
0.503682
0.504627
0.505536
0.506409
0.507247
0.508051
0.508822
0.509561
0.510268
0.510943
0.511587
0.512199
0.51278
0.513329
0.513848
0.514335
0.51479
0.515214
0.515606
0.515965
0.516292
0.516582
0.516836
0.517049
0.517218
0.517338
0.517407
0.517423
0.517385
0.517301
0.517189
0.517103
0.5171
0.517462
0.51804
0.169321
0.217737
0.226557
0.226074
0.222431
0.217143
0.210724
0.20342
0.195394
0.186775
0.177689
0.168257
0.158603
0.14885
0.139123
0.129551
0.120265
0.111403
0.103112
0.0955497
0.0888801
0.0832693
0.0788692
0.0757943
0.0740976
0.0737491
0.0746362
0.0765826
0.0793808
0.0828222
0.0867179
0.0909086
0.0952672
0.0996965
0.104126
0.108506
0.112806
0.117011
0.121115
0.125124
0.129047
0.132902
0.136707
0.140485
0.144257
0.148046
0.151871
0.155754
0.159711
0.163758
0.167906
0.172166
0.176542
0.18104
0.185658
0.190397
0.195252
0.200219
0.205289
0.210456
0.215711
0.221044
0.226446
0.231908
0.237419
0.24297
0.248552
0.254155
0.259771
0.265391
0.271006
0.276611
0.282196
0.287756
0.293284
0.298774
0.30422
0.309618
0.314963
0.32025
0.325475
0.330636
0.335727
0.340747
0.345693
0.350562
0.355353
0.360063
0.364691
0.369234
0.373693
0.37807
0.382362
0.386569
0.390691
0.394727
0.398677
0.402541
0.406321
0.410017
0.413629
0.417157
0.420602
0.423965
0.427246
0.430448
0.43357
0.436615
0.439583
0.442476
0.445295
0.448041
0.450715
0.453319
0.455855
0.458323
0.460725
0.463063
0.465337
0.46755
0.469702
0.471795
0.47383
0.475807
0.477729
0.479595
0.481408
0.483169
0.484878
0.486538
0.488148
0.48971
0.491225
0.492694
0.494118
0.495498
0.496834
0.498128
0.499379
0.500589
0.501758
0.502889
0.503982
0.505038
0.506057
0.50704
0.507988
0.508902
0.509781
0.510627
0.511439
0.51222
0.51297
0.51369
0.514378
0.515037
0.515666
0.516265
0.516834
0.517374
0.517885
0.518366
0.518818
0.519239
0.519632
0.519994
0.520324
0.520621
0.520884
0.521109
0.521294
0.521441
0.521549
0.521626
0.521682
0.521743
0.521868
0.522119
0.522742
0.52363
0.180215
0.231441
0.239752
0.237928
0.232751
0.225917
0.218002
0.209263
0.199853
0.189883
0.179449
0.168644
0.157557
0.146284
0.13492
0.12357
0.112349
0.101391
0.0908581
0.0809584
0.0719634
0.0642298
0.058199
0.0543374
0.0529848
0.0541653
0.0575456
0.0625879
0.0687493
0.0755865
0.0827742
0.0900839
0.0973588
0.104493
0.111416
0.118084
0.124471
0.130567
0.136373
0.141899
0.147162
0.152187
0.157
0.161629
0.166105
0.170456
0.174713
0.178904
0.183057
0.187194
0.191338
0.195508
0.199719
0.203984
0.208312
0.21271
0.217183
0.221732
0.226357
0.231056
0.235826
0.240663
0.245561
0.250514
0.255515
0.260558
0.265635
0.270739
0.275862
0.280998
0.286138
0.291277
0.296407
0.301522
0.306617
0.311685
0.31672
0.321719
0.326676
0.331586
0.336446
0.341251
0.345999
0.350686
0.355309
0.359866
0.364354
0.368771
0.373116
0.377385
0.38158
0.385701
0.389747
0.393716
0.397607
0.401421
0.405158
0.408817
0.412399
0.415904
0.419332
0.422684
0.42596
0.42916
0.432286
0.435338
0.438318
0.441226
0.444064
0.446833
0.449534
0.452167
0.454734
0.457237
0.459676
0.462052
0.464368
0.466624
0.468821
0.470961
0.473045
0.475074
0.477048
0.478969
0.480837
0.482655
0.484422
0.486141
0.487811
0.489434
0.491012
0.492543
0.494031
0.495475
0.496877
0.498236
0.499555
0.500833
0.502071
0.50327
0.504431
0.505556
0.506644
0.507696
0.508714
0.509698
0.510647
0.511564
0.512448
0.513301
0.514121
0.514912
0.515672
0.516403
0.517105
0.517779
0.518424
0.519041
0.51963
0.520191
0.520724
0.52123
0.52171
0.522161
0.522586
0.522983
0.523353
0.523693
0.524005
0.524285
0.524536
0.524758
0.524957
0.525143
0.525331
0.525552
0.525866
0.526337
0.527179
0.528313
0.187083
0.241099
0.249462
0.246815
0.240564
0.232596
0.223548
0.213701
0.203204
0.192155
0.180632
0.168701
0.156425
0.143868
0.131094
0.118172
0.10518
0.0922114
0.0793872
0.0668851
0.054995
0.0442445
0.0356499
0.0309448
0.0317144
0.0373992
0.0459837
0.0559195
0.0663795
0.0769376
0.0873602
0.0975073
0.10729
0.116652
0.125557
0.133987
0.141935
0.149407
0.156415
0.162982
0.169136
0.174908
0.180335
0.185454
0.190304
0.194923
0.199347
0.203614
0.207757
0.211809
0.215799
0.219752
0.223691
0.227635
0.2316
0.235598
0.23964
0.243732
0.24788
0.252085
0.256349
0.260671
0.265048
0.269477
0.273955
0.278475
0.283033
0.287623
0.292238
0.296873
0.301522
0.306177
0.310834
0.315486
0.320127
0.324753
0.329357
0.333935
0.338483
0.342995
0.347467
0.351896
0.356278
0.36061
0.364889
0.369112
0.373277
0.377381
0.381422
0.385398
0.38931
0.393156
0.396936
0.400649
0.404294
0.407869
0.411376
0.414814
0.418183
0.421482
0.424713
0.427875
0.430969
0.433995
0.436953
0.439845
0.442672
0.445433
0.448131
0.450767
0.45334
0.455852
0.458304
0.460697
0.463032
0.465311
0.467533
0.469701
0.471816
0.473878
0.475888
0.477847
0.479756
0.481616
0.483427
0.485192
0.48691
0.488583
0.490211
0.491795
0.493336
0.494835
0.496293
0.497709
0.499086
0.500424
0.501722
0.502983
0.504207
0.505394
0.506545
0.507661
0.508743
0.509791
0.510806
0.511789
0.512739
0.513659
0.514547
0.515405
0.516233
0.517032
0.517802
0.518545
0.51926
0.519948
0.520609
0.521243
0.521851
0.522434
0.52299
0.523521
0.524027
0.524509
0.524966
0.525398
0.525806
0.52619
0.52655
0.526886
0.5272
0.527497
0.527784
0.528074
0.528386
0.528755
0.529239
0.529902
0.530929
0.532264
0.189695
0.246541
0.255475
0.252488
0.245604
0.236901
0.227092
0.21648
0.205222
0.19341
0.181108
0.168366
0.155226
0.141728
0.12791
0.113809
0.0994646
0.0849175
0.0702131
0.0554043
0.0405628
0.025825
0.0117744
0.00764814
0.0204365
0.0346379
0.0487952
0.06269
0.0762197
0.0893108
0.101904
0.11395
0.125411
0.136258
0.146475
0.156053
0.164998
0.173322
0.181048
0.188206
0.19483
0.200964
0.206651
0.211937
0.216868
0.221489
0.225843
0.229975
0.233924
0.237729
0.241424
0.24504
0.248604
0.25214
0.255668
0.259206
0.262766
0.26636
0.269996
0.273678
0.277411
0.281197
0.285035
0.288924
0.292861
0.296844
0.300868
0.304929
0.309021
0.31314
0.317281
0.321436
0.325602
0.329773
0.333942
0.338106
0.342259
0.346397
0.350514
0.354607
0.358671
0.362702
0.366697
0.370653
0.374566
0.378434
0.382255
0.386025
0.389742
0.393404
0.397012
0.400565
0.404061
0.4075
0.410879
0.414199
0.417459
0.420659
0.423799
0.426879
0.429897
0.432856
0.435754
0.438592
0.44137
0.44409
0.446752
0.449356
0.451904
0.454396
0.456832
0.459214
0.461543
0.463818
0.466042
0.468214
0.470337
0.47241
0.474436
0.476413
0.478343
0.480228
0.482067
0.483861
0.485611
0.487318
0.488983
0.490606
0.492188
0.493729
0.495231
0.496694
0.498119
0.499505
0.500855
0.502168
0.503445
0.504687
0.505893
0.507066
0.508205
0.509311
0.510385
0.511427
0.512439
0.513419
0.514369
0.51529
0.516181
0.517044
0.517878
0.518685
0.519465
0.520219
0.520946
0.521648
0.522325
0.522976
0.523603
0.524206
0.524785
0.52534
0.525873
0.526384
0.526872
0.527339
0.527786
0.528212
0.528619
0.52901
0.529387
0.529757
0.530129
0.530518
0.530947
0.531452
0.532088
0.53292
0.534106
0.535607
0.187083
0.247693
0.257571
0.254674
0.247587
0.238569
0.228401
0.217418
0.205786
0.1936
0.180921
0.167792
0.154248
0.140322
0.12605
0.111474
0.0966461
0.081645
0.066595
0.0517325
0.0376069
0.0258399
0.0211733
0.0275593
0.0399377
0.0541976
0.0689772
0.083766
0.0983086
0.112446
0.126064
0.139079
0.151428
0.163067
0.173971
0.184127
0.19354
0.202226
0.210211
0.217532
0.224233
0.230362
0.235973
0.241119
0.245852
0.250223
0.254282
0.258078
0.261655
0.265057
0.268321
0.271482
0.27457
0.277612
0.280631
0.283646
0.286673
0.289725
0.292812
0.295941
0.299117
0.302344
0.305623
0.308954
0.312336
0.315766
0.319242
0.32276
0.326315
0.329904
0.333521
0.337161
0.34082
0.344492
0.348173
0.351857
0.35554
0.359218
0.362885
0.366538
0.370173
0.373786
0.377373
0.380932
0.384459
0.387951
0.391405
0.39482
0.398193
0.401522
0.404806
0.408046
0.411239
0.414384
0.41748
0.420527
0.423523
0.426469
0.429363
0.432207
0.434998
0.437738
0.440426
0.443063
0.445649
0.448184
0.450669
0.453104
0.45549
0.457828
0.460118
0.46236
0.464555
0.466704
0.468808
0.470867
0.472882
0.474853
0.476782
0.478669
0.480513
0.482317
0.484079
0.485802
0.487486
0.489131
0.490737
0.492306
0.493837
0.495332
0.496791
0.498214
0.499602
0.500956
0.502275
0.50356
0.504813
0.506032
0.50722
0.508376
0.509501
0.510595
0.511659
0.512693
0.513698
0.514675
0.515623
0.516544
0.517437
0.518303
0.519142
0.519956
0.520744
0.521507
0.522246
0.522961
0.523652
0.52432
0.524965
0.525587
0.526188
0.526768
0.527326
0.527865
0.528384
0.528885
0.529369
0.529837
0.530291
0.530735
0.531173
0.531613
0.532066
0.532549
0.533088
0.533717
0.534491
0.535471
0.536795
0.538435
0.179172
0.243905
0.255339
0.253045
0.246242
0.237384
0.227329
0.216445
0.20492
0.19286
0.180334
0.167395
0.154094
0.140489
0.126659
0.112718
0.0988446
0.0853319
0.072677
0.0617394
0.0539144
0.0509544
0.0538567
0.0618712
0.0733006
0.0866784
0.101042
0.11579
0.130528
0.144987
0.15897
0.172339
0.184993
0.196866
0.207918
0.218136
0.227522
0.236098
0.243898
0.250964
0.25735
0.263114
0.268318
0.27302
0.277281
0.281156
0.284699
0.287963
0.290997
0.293844
0.296546
0.299137
0.301652
0.304116
0.306554
0.308987
0.31143
0.313897
0.3164
0.318945
0.321539
0.324186
0.326887
0.329644
0.332455
0.335319
0.338233
0.341195
0.344201
0.347246
0.350326
0.353437
0.356574
0.359733
0.362909
0.366097
0.369293
0.372493
0.375692
0.378887
0.382074
0.385249
0.388409
0.39155
0.39467
0.397765
0.400834
0.403874
0.406882
0.409857
0.412799
0.415705
0.418576
0.421409
0.424204
0.426959
0.429674
0.432348
0.434981
0.437572
0.44012
0.442626
0.44509
0.447511
0.44989
0.452227
0.454523
0.456777
0.45899
0.461163
0.463295
0.465387
0.467439
0.469452
0.471427
0.473363
0.475262
0.477123
0.478948
0.480736
0.482487
0.484203
0.485883
0.487529
0.48914
0.490716
0.492259
0.493768
0.495244
0.496688
0.498099
0.499478
0.500825
0.502141
0.503426
0.504681
0.505905
0.5071
0.508265
0.509401
0.510508
0.511587
0.512639
0.513663
0.51466
0.51563
0.516574
0.517492
0.518385
0.519252
0.520095
0.520913
0.521708
0.522479
0.523228
0.523955
0.524659
0.525342
0.526003
0.526645
0.527266
0.527867
0.528451
0.529016
0.529565
0.530099
0.530618
0.531126
0.531625
0.53212
0.532617
0.533123
0.533654
0.534226
0.534865
0.535608
0.536506
0.537618
0.53906
0.54082
0.165009
0.233953
0.247834
0.246889
0.241044
0.23299
0.223679
0.213534
0.202773
0.191532
0.179907
0.167983
0.155856
0.14365
0.131535
0.119762
0.108694
0.0988587
0.0909704
0.085893
0.0844381
0.0870311
0.0934911
0.103151
0.115159
0.128722
0.143186
0.15804
0.172888
0.187427
0.201431
0.214733
0.22722
0.238821
0.2495
0.259252
0.268093
0.276056
0.283188
0.289546
0.295195
0.300202
0.304638
0.308571
0.312064
0.315177
0.317967
0.320487
0.322788
0.324915
0.326907