/*--------------------------------*- C++ -*----------------------------------*\
| =========                 |                                                 |
| \\      /  F ield         | OpenFOAM: The Open Source CFD Toolbox           |
|  \\    /   O peration     | Version:  2312                                  |
|   \\  /    A nd           | Website:  www.openfoam.com                      |
|    \\/     M anipulation  |                                                 |
\*---------------------------------------------------------------------------*/
FoamFile
{
    version     2.0;
    format      ascii;
    arch        "LSB;label=32;scalar=64";
    class       volScalarField;
    location    "50";
    object      mag(U);
}
// * * * * * * * * * * * * * * * * * * * * * * * * * * * * * * * * * * * * * //

dimensions      [0 1 -1 0 0 0 0];

internalField   nonuniform List<scalar> 
12225
(
4.91712
4.7035
4.45376
4.2026
3.97723
3.78618
3.62549
3.49105
3.3792
3.28566
3.20678
3.13944
3.08147
3.03136
2.98762
2.95052
2.91431
2.89315
5.07622
5.14488
5.13391
5.08598
5.02595
4.95923
4.88668
4.81043
4.73399
4.65986
4.58919
4.52244
4.46004
4.40194
4.34824
4.29862
4.25409
4.21271
5.0044
5.02823
5.05621
5.07452
5.08481
5.08818
5.0837
5.07213
5.05536
5.03511
5.01236
4.98795
4.96256
4.93677
4.91106
4.88554
4.86131
4.8356
4.99799
5.00983
5.03424
5.05321
5.06695
5.07794
5.08561
5.08971
5.09089
5.08978
5.0867
5.082
5.07596
5.06896
5.0612
5.05274
5.04388
5.03306
4.99927
5.00876
5.02751
5.04242
5.05407
5.06477
5.0739
5.08094
5.08615
5.08987
5.09228
5.09355
5.09386
5.09338
5.09218
5.09025
5.08755
5.08339
5.00012
5.00809
5.02295
5.03563
5.04615
5.05614
5.06509
5.07252
5.07857
5.08353
5.08752
5.09067
5.09309
5.09487
5.09603
5.09651
5.09623
5.09481
5.00027
5.00699
5.01943
5.03087
5.04068
5.04996
5.05843
5.0657
5.07186
5.07712
5.08161
5.08541
5.08861
5.09124
5.09333
5.0948
5.09556
5.09544
5.00027
5.00593
5.01656
5.02703
5.03624
5.04492
5.05292
5.05995
5.06604
5.07136
5.076
5.08004
5.08354
5.08653
5.08901
5.09093
5.09223
5.09284
5.00029
5.00505
5.01413
5.02364
5.03228
5.04045
5.04805
5.05485
5.06084
5.06614
5.07082
5.07495
5.07858
5.08174
5.08442
5.0866
5.08823
5.08933
5.0003
5.00432
5.01204
5.02059
5.02866
5.03634
5.04357
5.05016
5.05604
5.06129
5.06597
5.07015
5.07385
5.07711
5.07993
5.0823
5.0842
5.08568
5.00029
5.0037
5.01026
5.01788
5.02535
5.03256
5.03942
5.04577
5.05153
5.05671
5.06138
5.06559
5.06935
5.0727
5.07564
5.07818
5.08032
5.08213
5.00027
5.00321
5.00888
5.01572
5.02264
5.0294
5.03591
5.04202
5.04764
5.05275
5.0574
5.06162
5.06543
5.06886
5.07192
5.07462
5.07698
5.07906
5.00025
5.0028
5.00773
5.01385
5.02023
5.02656
5.03272
5.03858
5.04403
5.04907
5.05369
5.05792
5.06177
5.06527
5.06844
5.0713
5.07387
5.0762
5.00023
5.00242
5.00664
5.01205
5.01785
5.02372
5.0295
5.03506
5.04031
5.04523
5.0498
5.05404
5.05794
5.06152
5.06481
5.06783
5.07063
5.07323
5.0002
5.00206
5.00566
5.01039
5.0156
5.021
5.0264
5.03165
5.03668
5.04145
5.04596
5.05019
5.05414
5.0578
5.06122
5.06442
5.06745
5.07032
5.00018
5.00176
5.00483
5.00897
5.01363
5.01856
5.02361
5.02858
5.03339
5.038
5.04245
5.04668
5.05068
5.05445
5.058
5.06138
5.06462
5.06775
5.00016
5.00152
5.00418
5.00785
5.01207
5.01661
5.02134
5.02609
5.03074
5.03524
5.03962
5.04387
5.04795
5.05183
5.05554
5.05909
5.06254
5.06589
5.00014
5.00137
5.00377
5.00714
5.01108
5.01537
5.01989
5.02451
5.02908
5.03354
5.03792
5.04223
5.04641
5.05043
5.05429
5.05802
5.06166
5.06521
5.00014
5.00133
5.00367
5.00697
5.01088
5.01515
5.01967
5.02432
5.02895
5.03349
5.03798
5.0424
5.04672
5.05091
5.05495
5.05886
5.06268
5.0664
5.00015
5.00144
5.00398
5.00756
5.01175
5.01631
5.02108
5.02596
5.0308
5.03555
5.04023
5.04484
5.04933
5.05366
5.05785
5.0619
5.06585
5.06969
5.00016
5.0016
5.00449
5.00852
5.01317
5.01812
5.02326
5.02844
5.03355
5.03854
5.04343
5.04821
5.05283
5.05727
5.06156
5.0657
5.06974
5.07365
5.00017
5.00177
5.00516
5.00987
5.01511
5.02056
5.0261
5.03162
5.03702
5.04226
5.04735
5.05228
5.057
5.06153
5.06588
5.07008
5.07417
5.0781
5.00013
5.00185
5.0059
5.01148
5.01742
5.02341
5.0294
5.03527
5.04093
5.04639
5.05164
5.05668
5.06149
5.06607
5.07047
5.07471
5.07882
5.08275
5.00007
5.00184
5.00671
5.01323
5.01983
5.02638
5.0329
5.03919
5.04514
5.05081
5.05622
5.06136
5.06623
5.07086
5.07529
5.07954
5.08365
5.08755
4.99982
5.00136
5.00752
5.01511
5.02225
5.0294
5.03661
5.04347
5.04985
5.05582
5.06144
5.06671
5.07163
5.07625
5.08064
5.08482
5.08882
5.09258
4.9983
4.99857
5.00765
5.0176
5.02582
5.03381
5.0418
5.04928
5.05609
5.06236
5.06812
5.07339
5.07818
5.08256
5.0866
5.09036
5.09389
5.09711
4.99442
4.99246
5.00632
5.02124
5.03285
5.04299
5.05215
5.06
5.06668
5.07246
5.07745
5.08166
5.08514
5.088
5.09036
5.0923
5.09393
5.09519
4.99496
4.99739
5.01345
5.03105
5.04676
5.06024
5.07035
5.07669
5.07995
5.08096
5.08019
5.07792
5.07445
5.07005
5.06499
5.05945
5.05362
5.04761
5.04124
5.09323
5.1023
5.09284
5.08106
5.06741
5.04853
5.02405
4.9957
4.96522
4.93376
4.90205
4.8706
4.83982
4.81
4.78135
4.75391
4.72796
4.97375
4.89726
4.76681
4.60803
4.45041
4.30738
4.18042
4.06832
3.97014
3.88471
3.81024
3.74493
3.68733
3.63638
3.59117
3.55092
3.51468
3.48219
0.0105122
0.0748755
0.138393
0.19998
0.253958
0.297126
0.328821
0.348808
0.358082
0.354783
0.341349
0.320621
0.295804
0.27012
0.245689
0.222582
0.199335
0.174103
0.144792
0.109332
0.0659413
0.0300215
0.0665594
0.141452
0.228171
0.322382
0.421771
0.524378
0.628518
0.732654
0.835369
0.935892
1.03343
1.12749
1.21774
1.30405
1.38636
1.46476
1.53935
1.6103
1.67777
1.74193
1.80295
1.86097
1.91611
1.96847
2.01811
2.06509
2.10941
2.15106
2.18999
2.22612
2.25934
2.28951
2.31648
2.34007
2.36005
2.37623
2.38837
2.39646
2.40034
2.40066
2.39755
2.39097
2.3809
2.36732
2.3502
2.32952
2.30532
2.27765
2.24646
2.21186
2.17403
2.13269
2.0887
2.04185
1.99173
1.93951
1.88514
1.82892
1.77084
1.71129
1.6501
1.58798
1.52551
1.46205
1.3985
1.33496
1.27165
1.20875
1.14635
1.08456
1.02355
0.963458
0.904393
0.846439
0.789657
0.734093
0.679783
0.626743
0.574977
0.524478
0.475236
0.427242
0.380497
0.335006
0.290771
0.247792
0.206063
0.165611
0.126553
0.089293
0.0554306
0.0323099
0.0412192
0.0700393
0.10245
0.135196
0.167532
0.19926
0.230349
0.260811
0.290655
0.31988
0.348496
0.376533
0.403996
0.430929
0.45738
0.483378
0.508957
0.534132
0.558936
0.583403
0.607554
0.631385
0.654893
0.678071
0.700889
0.723307
0.745317
0.766926
0.78814
0.808956
0.829365
0.849352
0.868878
0.887886
0.906325
0.924109
0.941117
0.957224
0.972331
0.986355
0.999225
1.01092
1.0215
1.03109
1.03981
1.04781
1.05521
1.06214
1.06868
1.07488
1.08076
1.08629
1.09149
1.0963
1.10074
1.10473
1.10821
1.11102
1.11282
1.11303
1.11123
1.10631
1.09754
1.07988
1.05768
0.985397
0.116206
0.230926
0.262167
0.265749
0.263299
0.259515
0.25482
0.249075
0.24206
0.234983
0.225586
0.211195
0.189288
0.159035
0.123127
0.0903854
0.0860363
0.129974
0.206369
0.300835
0.406012
0.516605
0.629261
0.740986
0.84985
0.954592
1.05434
1.14853
1.23682
1.31917
1.39587
1.46726
1.53371
1.59566
1.65351
1.70766
1.75848
1.80628
1.85133
1.89385
1.93402
1.97198
2.00783
2.04165
2.07349
2.10338
2.13131
2.1573
2.18131
2.20334
2.22336
2.24135
2.25729
2.27115
2.28295
2.29272
2.3005
2.30635
2.31033
2.31239
2.31252
2.30996
2.30434
2.29551
2.28336
2.26781
2.24884
2.2264
2.20043
2.17098
2.13815
2.10185
2.06228
2.01981
1.97417
1.92548
1.87462
1.82134
1.76559
1.70792
1.64857
1.58782
1.52598
1.46335
1.39987
1.33602
1.27216
1.20831
1.14478
1.08172
1.01927
0.957534
0.896661
0.836761
0.777931
0.720251
0.663774
0.608543
0.554587
0.501928
0.450572
0.400522
0.351794
0.30442
0.258459
0.214021
0.171335
0.130914
0.0941143
0.0650991
0.055068
0.0708855
0.0999906
0.13321
0.16741
0.201584
0.235468
0.268929
0.301885
0.334313
0.366218
0.397605
0.428471
0.458817
0.488652
0.517989
0.54684
0.575234
0.603205
0.63078
0.657973
0.684803
0.711305
0.737498
0.763384
0.788954
0.814219
0.839182
0.863819
0.88811
0.912058
0.935667
0.958934
0.98185
1.0044
1.02655
1.04825
1.06947
1.09014
1.11021
1.1296
1.14822
1.16603
1.18301
1.19912
1.21438
1.22886
1.24265
1.25583
1.26845
1.28059
1.29228
1.30354
1.31438
1.32476
1.33465
1.34403
1.35287
1.36116
1.36883
1.37585
1.38208
1.38765
1.39246
1.39626
1.39846
1.39907
1.39534
1.39192
1.36864
0.263878
0.326776
0.291693
0.244082
0.198873
0.15773
0.121356
0.0918752
0.0739826
0.0740473
0.0911554
0.118137
0.152262
0.196313
0.254751
0.32953
0.418931
0.518822
0.623757
0.728969
0.830728
0.92649
1.01461
1.09432
1.16559
1.22911
1.28596
1.33727
1.38418
1.42776
1.46882
1.50795
1.54564
1.58221
1.61787
1.65275
1.68693
1.72041
1.75319
1.78523
1.81649
1.8469
1.87643
1.90499
1.93253
1.95899
1.9843
2.00839
2.03121
2.05267
2.07272
2.09127
2.10823
2.12352
2.13703
2.14866
2.15829
2.16578
2.17096
2.17364
2.17364
2.17077
2.16489
2.1559
2.14369
2.12819
2.10934
2.0871
2.06144
2.03237
1.99994
1.96418
1.92523
1.88325
1.83827
1.79052
1.7404
1.68782
1.63305
1.57635
1.51806
1.45841
1.39771
1.33618
1.27401
1.21153
1.14897
1.08653
1.02444
0.962881
0.901977
0.841844
0.782611
0.72439
0.667277
0.611354
0.556688
0.503337
0.451359
0.400818
0.351789
0.304389
0.258818
0.21544
0.174938
0.138698
0.109618
0.0930526
0.0943817
0.111864
0.138682
0.169831
0.202843
0.236562
0.270386
0.304015
0.33732
0.370224
0.402685
0.434691
0.466241
0.497334
0.527965
0.558134
0.587846
0.617107
0.645932
0.674343
0.702365
0.730013
0.757294
0.784225
0.81083
0.83712
0.863094
0.88876
0.914136
0.939219
0.963989
0.988434
1.01256
1.03637
1.05986
1.08302
1.10581
1.12821
1.15016
1.17163
1.19259
1.21298
1.23274
1.25183
1.27024
1.28797
1.30499
1.32133
1.33706
1.35223
1.36688
1.38103
1.39472
1.40795
1.42073
1.43304
1.44485
1.45614
1.46689
1.47711
1.48676
1.49579
1.50417
1.51186
1.51882
1.52495
1.53009
1.5339
1.53632
1.5358
1.53544
1.52587
0.348073
0.333384
0.273843
0.211105
0.150231
0.0940614
0.056032
0.0728254
0.124169
0.184189
0.248526
0.317173
0.391231
0.471773
0.558831
0.650722
0.744193
0.835275
0.920545
0.997676
1.06557
1.12415
1.17401
1.21617
1.252
1.28302
1.31064
1.33614
1.36054
1.38463
1.4089
1.43366
1.45907
1.48515
1.51187
1.53912
1.56678
1.59469
1.62273
1.65073
1.67856
1.70609
1.73321
1.75979
1.78573
1.81092
1.83526
1.85866
1.88102
1.90224
1.92222
1.94084
1.95799
1.97354
1.98736
1.9993
2.00922
2.01694
2.02232
2.02518
2.02539
2.02281
2.01732
2.00882
1.99721
1.98239
1.96431
1.94292
1.91819
1.89013
1.85878
1.8242
1.78647
1.74571
1.70204
1.65566
1.6068
1.5556
1.50229
1.44713
1.3904
1.33236
1.27328
1.21341
1.15299
1.09231
1.03158
0.971047
0.910915
0.851361
0.792518
0.734522
0.67751
0.621616
0.566966
0.513681
0.461892
0.411746
0.363438
0.317243
0.273575
0.233105
0.196956
0.166999
0.14602
0.137127
0.141644
0.157583
0.181263
0.209523
0.2403
0.272377
0.305046
0.337896
0.370672
0.40323
0.435488
0.467393
0.498914
0.530042
0.560769
0.591091
0.621001
0.650497
0.67958
0.708254
0.736529
0.764424
0.791954
0.819126
0.845945
0.872422
0.898572
0.924405
0.949919
0.975125
1.00003
1.02464
1.04894
1.07293
1.09662
1.12001
1.14308
1.16582
1.1882
1.21017
1.2317
1.25275
1.27331
1.29331
1.31274
1.33156
1.34978
1.36739
1.3844
1.40082
1.41673
1.43215
1.44708
1.46156
1.4756
1.48919
1.50231
1.51497
1.52711
1.53874
1.54985
1.56044
1.57048
1.57995
1.58882
1.59707
1.60466
1.6115
1.61746
1.62236
1.62618
1.62808
1.63052
1.62792
0.350851
0.300204
0.238964
0.182952
0.145265
0.142163
0.176865
0.234706
0.304248
0.380414
0.460917
0.54437
0.629494
0.714741
0.798094
0.877098
0.949251
1.01271
1.06664
1.11116
1.14717
1.17591
1.1988
1.2173
1.23279
1.24649
1.25942
1.27239
1.28602
1.30071
1.31669
1.33406
1.35281
1.37288
1.39414
1.41642
1.43955
1.46335
1.48765
1.51228
1.53707
1.56188
1.58655
1.61097
1.635
1.65851
1.6814
1.70355
1.72484
1.74515
1.76438
1.78239
1.79907
1.81426
1.82783
1.83964
1.84952
1.85733
1.86292
1.86612
1.86682
1.86486
1.86013
1.85251
1.84188
1.82817
1.81129
1.79119
1.76784
1.74123
1.7114
1.6784
1.64229
1.6032
1.56121
1.51656
1.46944
1.42005
1.36862
1.3154
1.26066
1.20465
1.14766
1.08995
1.03178
0.973418
0.915107
0.85709
0.799583
0.742786
0.686864
0.631988
0.578354
0.526168
0.475657
0.427087
0.380797
0.337242
0.297056
0.261148
0.2308
0.207679
0.193579
0.189759
0.196096
0.21102
0.232317
0.257938
0.286323
0.316392
0.347425
0.378949
0.410655
0.44234
0.47387
0.505163
0.536171
0.566856
0.597198
0.627188
0.65682
0.686088
0.714986
0.743509
0.771657
0.799432
0.826842
0.853899
0.880611
0.906985
0.933022
0.958729
0.984117
1.00919
1.03395
1.05839
1.08251
1.10633
1.12984
1.15303
1.17593
1.19853
1.22081
1.24275
1.26433
1.2855
1.30624
1.32652
1.3463
1.36556
1.38428
1.40244
1.42007
1.43715
1.45369
1.46972
1.48528
1.5004
1.51507
1.52932
1.54314
1.55653
1.56947
1.58195
1.59395
1.60546
1.61648
1.627
1.63703
1.64654
1.65551
1.66395
1.6718
1.67901
1.6855
1.69118
1.69609
1.69984
1.70456
1.70636
0.295263
0.237798
0.185131
0.163206
0.182307
0.233128
0.301474
0.379186
0.461993
0.54713
0.632348
0.715511
0.794645
0.867811
0.933223
0.989615
1.03648
1.07403
1.10307
1.12481
1.14064
1.15192
1.15995
1.16591
1.17079
1.17541
1.18045
1.18641
1.19364
1.20237
1.21272
1.22473
1.23835
1.25349
1.27002
1.28779
1.30664
1.32638
1.34686
1.36791
1.38937
1.41107
1.43289
1.45467
1.47629
1.49762
1.51853
1.5389
1.55861
1.57754
1.59557
1.61256
1.6284
1.64293
1.65603
1.66755
1.67733
1.68524
1.6911
1.69479
1.69616
1.69505
1.69133
1.68488
1.67559
1.66333
1.64804
1.62964
1.6081
1.58339
1.55553
1.52457
1.49057
1.45364
1.4139
1.37153
1.32672
1.27973
1.23078
1.18012
1.12802
1.07476
1.02061
0.965862
0.910802
0.855707
0.800854
0.746514
0.692955
0.640429
0.589188
0.539518
0.491754
0.446299
0.403638
0.364376
0.32928
0.299304
0.275554
0.259123
0.250851
0.250961
0.258882
0.273416
0.293129
0.316651
0.342856
0.370871
0.400062
0.429967
0.46026
0.490708
0.521148
0.551467
0.581588
0.61146
0.641053
0.670343
0.699319
0.727975
0.756306
0.784306
0.81197
0.839293
0.866274
0.892914
0.919219
0.945195
0.970848
0.99618
1.02119
1.04589
1.07028
1.09436
1.11813
1.14158
1.16471
1.18753
1.21003
1.23221
1.25409
1.27565
1.29689
1.31778
1.3383
1.35841
1.37809
1.39731
1.41606
1.43432
1.45208
1.46934
1.4861
1.50237
1.51817
1.53351
1.54843
1.56293
1.57702
1.59071
1.604
1.61688
1.62933
1.64136
1.65294
1.66407
1.67476
1.68501
1.69481
1.70415
1.71303
1.72145
1.72938
1.73679
1.74364
1.7499
1.75569
1.76085
1.76731
1.77205
0.206057
0.153577
0.137423
0.177805
0.245459
0.323879
0.407461
0.493336
0.57919
0.66275
0.7418
0.814424
0.879022
0.934477
0.98034
1.01678
1.04449
1.06451
1.07807
1.08646
1.09092
1.09258
1.09244
1.09135
1.09002
1.08903
1.08885
1.08981
1.09219
1.09612
1.10171
1.10895
1.11783
1.12826
1.14015
1.15337
1.16778
1.18323
1.19957
1.21666
1.23434
1.25248
1.27093
1.28956
1.30825
1.32685
1.34526
1.36334
1.38099
1.39807
1.41447
1.43006
1.44472
1.45832
1.47071
1.48176
1.49133
1.49927
1.50543
1.50966
1.5118
1.51171
1.50924
1.50425
1.49661
1.48622
1.47296
1.45676
1.43757
1.41535
1.39011
1.36187
1.33071
1.29672
1.26003
1.2208
1.17927
1.13565
1.0902
1.04319
0.994888
0.945606
0.895649
0.845335
0.794988
0.744941
0.695536
0.64713
0.600091
0.554811
0.511718
0.471302
0.434147
0.400923
0.372383
0.349304
0.332392
0.322184
0.318879
0.322232
0.331602
0.346101
0.364754
0.386633
0.410928
0.436978
0.464261
0.492373
0.521006
0.549932
0.578976
0.60801
0.63694
0.665698
0.694237
0.722526
0.750545
0.77828
0.805725
0.832876
0.85973
0.886283
0.912529
0.938465
0.964089
0.989401
1.01441
1.0391
1.0635
1.0876
1.11139
1.13488
1.15808
1.18097
1.20356
1.22584
1.2478
1.26944
1.29076
1.31176
1.33244
1.3528
1.37281
1.39246
1.41172
1.43057
1.44899
1.46696
1.48448
1.50153
1.51813
1.53427
1.54997
1.56524
1.58009
1.59453
1.60859
1.62226
1.63556
1.64848
1.66103
1.67319
1.68497
1.69637
1.70736
1.71797
1.72818
1.738
1.74745
1.75651
1.76517
1.77346
1.78136
1.78886
1.79595
1.80265
1.80916
1.81545
1.82322
1.83002
0.102468
0.0930236
0.152088
0.233821
0.318974
0.404897
0.490475
0.574242
0.654343
0.728782
0.795818
0.854147
0.903063
0.942504
0.972919
0.995128
1.01018
1.01924
1.02345
1.02392
1.02163
1.01748
1.01221
1.00646
1.00077
0.995586
0.991242
0.988011
0.986092
0.985618
0.986666
0.989267
0.993411
0.999056
1.00613
1.01455
1.0242
1.03497
1.04675
1.05939
1.07278
1.0868
1.10131
1.11619
1.13133
1.14661
1.16191
1.17711
1.19211
1.20679
1.22104
1.23474
1.24778
1.26002
1.27135
1.28164
1.29075
1.29854
1.30486
1.30958
1.31254
1.31357
1.31254
1.3093
1.30371
1.29564
1.28499
1.27166
1.25558
1.23671
1.21504
1.19059
1.16341
1.13361
1.10131
1.06668
1.02994
0.991336
0.951157
0.909683
0.86723
0.824141
0.780777
0.737521
0.694775
0.65297
0.612564
0.574041
0.537917
0.504732
0.47506
0.449495
0.428606
0.412869
0.402641
0.398056
0.398981
0.405044
0.415697
0.430301
0.448181
0.468707
0.491307
0.515495
0.540861
0.567077
0.593876
0.621052
0.648436
0.675902
0.703351
0.730707
0.757911
0.784923
0.811712
0.838258
0.864549
0.890577
0.916339
0.941833
0.967056
0.992005
1.01667
1.04106
1.06517
1.08899
1.11253
1.13578
1.15876
1.18145
1.20386
1.22598
1.24782
1.26937
1.29061
1.31156
1.33219
1.3525
1.37249
1.39216
1.41151
1.43051
1.44915
1.46742
1.48528
1.50273
1.51974
1.53631
1.55245
1.56815
1.58342
1.59828
1.61275
1.62685
1.64057
1.65395
1.66698
1.67967
1.69202
1.70402
1.71568
1.727
1.73798
1.74862
1.75892
1.76889
1.77852
1.78784
1.79685
1.80554
1.81391
1.82199
1.82978
1.83729
1.84454
1.85158
1.85865
1.86583
1.8746
1.88285
0.0544998
0.143161
0.227039
0.310263
0.392699
0.473763
0.552444
0.627257
0.696478
0.758474
0.812012
0.856484
0.891916
0.918786
0.937893
0.95021
0.956781
0.958638
0.956755
0.952018
0.945213
0.937022
0.928033
0.918743
0.909563
0.900834
0.892831
0.885771
0.879822
0.875104
0.871698
0.86965
0.868974
0.869659
0.871671
0.874957
0.87945
0.885071
0.891731
0.899337
0.90779
0.916988
0.926831
0.937214
0.948036
0.959196
0.970593
0.982126
0.993698
1.00521
1.01655
1.02764
1.03836
1.04861
1.05828
1.06726
1.07544
1.08269
1.08887
1.09387
1.09755
1.09975
1.10032
1.09914
1.09606
1.09095
1.0837
1.07421
1.0624
1.04821
1.03162
1.01265
0.991339
0.96778
0.942104
0.914498
0.885171
0.8544
0.822488
0.789771
0.756612
0.723411
0.690595
0.658619
0.627958
0.599112
0.572596
0.54892
0.528557
0.511917
0.499337
0.491063
0.487191
0.487651
0.492228
0.500603
0.512379
0.527112
0.544358
0.563692
0.584727
0.607115
0.630558
0.654799
0.679626
0.70486
0.730357
0.756
0.781693
0.807362
0.832948
0.858402
0.883688
0.908781
0.93366
0.958312
0.98273
1.00691
1.03085
1.05455
1.078
1.10121
1.12417
1.14687
1.16931
1.1915
1.21343
1.23511
1.25652
1.27767
1.29855
1.31917
1.33951
1.35957
1.37934
1.39881
1.41798
1.43683
1.45537
1.47357
1.49145
1.50897
1.52612
1.54288
1.55922
1.57515
1.59064
1.60571
1.62036
1.6346
1.64844
1.66191
1.67502
1.68781
1.70028
1.71246
1.72433
1.73591
1.74719
1.75816
1.76883
1.77921
1.78929
1.7991
1.80863
1.81788
1.82688
1.83563
1.84414
1.8524
1.86044
1.86825
1.87588
1.88333
1.89066
1.89794
1.90543
1.91327
1.92282
1.93206
0.146073
0.240204
0.316383
0.388742
0.460436
0.530578
0.597743
0.660324
0.716743
0.765759
0.806622
0.839161
0.863712
0.880932
0.891671
0.89685
0.897393
0.894172
0.887983
0.879537
0.869455
0.858272
0.846444
0.834353
0.822321
0.810612
0.799443
0.788987
0.779379
0.770723
0.763095
0.756546
0.751107
0.746788
0.743586
0.74148
0.74044
0.740423
0.741378
0.743249
0.745971
0.749478
0.7537
0.758563
0.763994
0.769917
0.776258
0.782942
0.789893
0.797037
0.804299
0.811605
0.818881
0.82605
0.833037
0.839763
0.846147
0.852104
0.857543
0.862362
0.866488
0.869778
0.872128
0.87342
0.873539
0.872371
0.86981
0.865758
0.860136
0.852883
0.843963
0.833373
0.821144
0.80735
0.792109
0.775586
0.757997
0.739596
0.720686
0.701615
0.682737
0.664442
0.647135
0.631225
0.617105
0.605139
0.595649
0.588893
0.585056
0.584224
0.586392
0.591487
0.599368
0.609829
0.622626
0.637499
0.654183
0.672415
0.691952
0.712567
0.734059
0.756244
0.778965
0.802082
0.825481
0.849059
0.872737
0.896444
0.920125
0.943733
0.967232
0.990592
1.01379
1.0368
1.05962
1.08224
1.10465
1.12686
1.14885
1.17063
1.19219
1.21353
1.23465
1.25554
1.27621
1.29665
1.31685
1.33682
1.35655
1.37604
1.39528
1.41426
1.43299
1.45145
1.46963
1.48751
1.5051
1.52238
1.53934
1.55597
1.57226
1.58819
1.60373
1.61888
1.63361
1.64793
1.66183
1.67531
1.68839
1.70109
1.71342
1.72542
1.7371
1.7485
1.75962
1.77049
1.78111
1.79148
1.80159
1.81145
1.82106
1.83042
1.83955
1.84847
1.85717
1.86567
1.87399
1.88212
1.89008
1.89788
1.90553
1.91304
1.92046
1.9278
1.93514
1.94258
1.95038
1.95868
1.96878
1.97869
0.243321
0.33472
0.400232
0.459939
0.518604
0.575694
0.62983
0.679488
0.723342
0.760463
0.79039
0.813143
0.829125
0.838985
0.843497
0.843471
0.839693
0.832889
0.823711
0.812732
0.800446
0.787274
0.773569
0.759623
0.745674
0.73192
0.718513
0.705577
0.693205
0.681473
0.670432
0.660118
0.650555
0.641752
0.63371
0.626426
0.619887
0.614077
0.608973
0.604552
0.600785
0.597643
0.595096
0.593109
0.591652
0.590692
0.590196
0.590135
0.590479
0.591202
0.592278
0.593688
0.595413
0.59744
0.599758
0.602362
0.605247
0.608412
0.611855
0.615557
0.619553
0.623781
0.628218
0.632817
0.63752
0.642254
0.646939
0.651481
0.655782
0.659743
0.663268
0.666276
0.668705
0.670524
0.67173
0.67236
0.672495
0.672251
0.671788
0.671305
0.671019
0.671167
0.67196
0.673599
0.676284
0.680185
0.685421
0.692076
0.700204
0.709817
0.720896
0.733394
0.747232
0.762306
0.778503
0.795705
0.813789
0.832636
0.852132
0.87217
0.892648
0.913474
0.934564
0.955843
0.977245
0.998716
1.02021
1.04168
1.06309
1.08442
1.10564
1.12674
1.14769
1.16848
1.18911
1.20957
1.22985
1.24996
1.26988
1.28963
1.30919
1.32856
1.34773
1.36671
1.38549
1.40407
1.42244
1.4406
1.45855
1.47627
1.49377
1.51103
1.52804
1.54479
1.56128
1.57748
1.59339
1.60899
1.62428
1.63923
1.65384
1.66807
1.68193
1.69538
1.70843
1.72107
1.73331
1.74515
1.75662
1.76773
1.7785
1.78897
1.79917
1.80911
1.81882
1.82832
1.83762
1.84672
1.85561
1.86429
1.87278
1.88109
1.88924
1.89722
1.90506
1.91278
1.92037
1.92786
1.93524
1.94254
1.94977
1.95695
1.96411
1.9713
1.97859
1.98611
1.9941
2.00272
2.01316
2.02348
0.322068
0.413456
0.469741
0.518131
0.56458
0.609184
0.650925
0.688653
0.721394
0.748443
0.769461
0.784517
0.793994
0.798466
0.798597
0.795075
0.78856
0.779659
0.768911
0.756785
0.743677
0.729921
0.715788
0.701496
0.687218
0.673083
0.659188
0.645599
0.632358
0.619488
0.606994
0.594871
0.583105
0.571676
0.560559
0.549724
0.539139
0.528771
0.518588
0.508558
0.498656
0.488856
0.479137
0.469482
0.459879
0.450325
0.440823
0.431387
0.422044
0.412833
0.403817
0.395075
0.386718
0.378883
0.371745
0.365514
0.360436
0.356794
0.354891
0.355026
0.357545
0.362661
0.370546
0.381264
0.394766
0.410894
0.429397
0.449944
0.472155
0.49561
0.519878
0.544536
0.569198
0.593519
0.617205
0.640024
0.661829
0.682528
0.702064
0.720464
0.737837
0.754311
0.770017
0.785104
0.799751
0.814131
0.828403
0.842706
0.857156
0.871853
0.886881
0.9023
0.918139
0.934404
0.951086
0.96817
0.985626
1.00342
1.02151
1.03987
1.05843
1.07717
1.09603
1.11498
1.13399
1.15302
1.17204
1.19104
1.20998
1.22885
1.24763
1.26631
1.28487
1.30332
1.32163
1.33981
1.35786
1.37576
1.39351
1.41112
1.42858
1.44588
1.46302
1.47999
1.49679
1.51342
1.52987
1.54614
1.56221
1.57808
1.59374
1.60918
1.62439
1.63936
1.65406
1.6685
1.68264
1.69649
1.71001
1.7232
1.73604
1.74851
1.7606
1.77231
1.78362
1.79454
1.80508
1.81524
1.82506
1.83455
1.84374
1.85265
1.86133
1.8698
1.87807
1.88617
1.89411
1.9019
1.90952
1.91701
1.92436
1.93159
1.93872
1.94576
1.95272
1.95962
1.96648
1.97329
1.98008
1.98686
1.99363
2.00044
2.00731
2.0143
2.02149
2.02901
2.03711
2.04591
2.05651
2.06703
0.376859
0.47168
0.521086
0.560422
0.596689
0.630744
0.662088
0.68994
0.713599
0.7326
0.746766
0.756191
0.761192
0.76224
0.759883
0.754694
0.747236
0.73802
0.727501
0.71607
0.704052
0.691712
0.67926
0.666854
0.654609
0.642598
0.630865
0.619422
0.608262
0.597357
0.586664
0.576131
0.565695
0.555289
0.544842
0.534283
0.523534
0.512526
0.50119
0.489453
0.477245
0.464494
0.451132
0.437087
0.422292
0.406678
0.390179
0.372728
0.35426
0.334706
0.314008
0.292111
0.268981
0.244608
0.219028
0.192372
0.16495
0.137462
0.111498
0.0906787
0.0820252
0.091807
0.117523
0.152802
0.193567
0.237761
0.284243
0.332249
0.381173
0.430479
0.479659
0.528201
0.575623
0.621496
0.665442
0.707148
0.746385
0.783003
0.816946
0.848245
0.877031
0.903481
0.92779
0.950183
0.970917
0.990248
1.00843
1.02569
1.04224
1.05826
1.07394
1.0894
1.10477
1.1201
1.13548
1.15094
1.1665
1.18219
1.198
1.21394
1.22998
1.24612
1.26234
1.27861
1.29492
1.31125
1.32758
1.3439
1.36019
1.37644
1.39264
1.40877
1.42483
1.44081
1.45671
1.47251
1.48821
1.50381
1.51931
1.53469
1.54996
1.5651
1.58012
1.595
1.60975
1.62435
1.6388
1.65308
1.66721
1.68115
1.6949
1.70845
1.72179
1.73489
1.74775
1.76034
1.77265
1.78466
1.79635
1.8077
1.81871
1.82936
1.83964
1.84956
1.8591
1.86828
1.87709
1.88557
1.89373
1.90159
1.90918
1.91654
1.92369
1.93067
1.93749
1.94419
1.95076
1.95723
1.96359
1.96987
1.97607
1.98222
1.98833
1.99441
2.00049
2.00657
2.01267
2.0188
2.02497
2.0312
2.0375
2.0439
2.05045
2.05719
2.06423
2.07169
2.07979
2.08867
2.09932
2.10991
0.406038
0.507014
0.552554
0.585599
0.6143
0.640293
0.663631
0.683952
0.700868
0.714115
0.72362
0.729513
0.732085
0.731736
0.728924
0.724129
0.71782
0.710429
0.702336
0.693866
0.68528
0.676783
0.668528
0.660617
0.653109
0.646027
0.639361
0.633076
0.627117
0.621414
0.615885
0.610442
0.604994
0.599445
0.593702
0.587673
0.581268
0.574396
0.566973
0.55892
0.550159
0.540619
0.530231
0.518931
0.506654
0.493343
0.478941
0.4634
0.446677
0.428742
0.40958
0.389203
0.367661
0.345065
0.321613
0.29765
0.273747
0.250823
0.230317
0.21436
0.205666
0.207013
0.220054
0.244553
0.278873
0.320945
0.368871
0.421086
0.476298
0.533408
0.591435
0.649486
0.706738
0.762458
0.815996
0.866815
0.914501
0.958778
0.999504
1.03668
1.0704
1.10087
1.12834
1.15307
1.17539
1.19563
1.2141
1.2311
1.24691
1.26177
1.27592
1.28954
1.3028
1.31582
1.3287
1.34151
1.35432
1.36718
1.38009
1.39309
1.40618
1.41935
1.43259
1.44591
1.45928
1.47271
1.48617
1.49965
1.51315
1.52665
1.54015
1.55363
1.56708
1.58049
1.59387
1.6072
1.62048
1.6337
1.64685
1.65993
1.67293
1.68584
1.69866
1.71139
1.72401
1.73651
1.74889
1.76114
1.77324
1.78519
1.79697
1.80857
1.81996
1.83114
1.84208
1.85276
1.86317
1.87328
1.88308
1.89256
1.90169
1.91049
1.91895
1.92705
1.93482
1.94224
1.94934
1.95613
1.96263
1.96887
1.97487
1.98068
1.98632
1.99183
1.99722
2.00252
2.00774
2.0129
2.01802
2.0231
2.02818
2.03325
2.03835
2.04349
2.04867
2.05393
2.05927
2.0647
2.07024
2.07591
2.08171
2.08768
2.09386
2.10032
2.10715
2.11447
2.12251
2.13138
2.14198
2.15255
0.405293
0.520983
0.564874
0.59401
0.617667
0.638125
0.655936
0.67113
0.683628
0.693377
0.700431
0.704963
0.70725
0.707645
0.706542
0.704337
0.701415
0.698117
0.694742
0.691529
0.688664
0.686277
0.68445
0.683219
0.682582
0.682505
0.682929
0.683776
0.684953
0.68636
0.687891
0.689438
0.690894
0.692157
0.693126
0.693708
0.693817
0.69337
0.692295
0.690524
0.687997
0.68466
0.680467
0.675375
0.669353
0.662375
0.654429
0.645519
0.635657
0.624876
0.613235
0.600828
0.587786
0.574301
0.56063
0.547122
0.534234
0.522556
0.512827
0.505951
0.502921
0.50483
0.512724
0.527414
0.549383
0.578705
0.615038
0.657687
0.705688
0.757901
0.8131
0.870021
0.927451
0.984263
1.03945
1.09216
1.14171
1.18764
1.22965
1.26767
1.30173
1.33204
1.35884
1.38247
1.40327
1.42161
1.43788
1.45242
1.46554
1.47754
1.48867
1.49917
1.50922
1.51896
1.52852
1.538
1.54746
1.55696
1.56654
1.57623
1.58603
1.59594
1.60598
1.61613
1.62639
1.63675
1.64719
1.65771
1.6683
1.67894
1.68963
1.70036
1.71112
1.72189
1.73267
1.74346
1.75424
1.765
1.77574
1.78645
1.79712
1.80774
1.81831
1.82881
1.83924
1.84958
1.85984
1.86999
1.88002
1.88991
1.89966
1.90925
1.91865
1.92784
1.93681
1.94553
1.95399
1.96216
1.97004
1.97761
1.98486
1.9918
1.99842
2.00472
2.01071
2.01639
2.02179
2.02691
2.03178
2.03642
2.04087
2.04516
2.04931
2.05337
2.05736
2.0613
2.06521
2.0691
2.07301
2.07694
2.08091
2.08494
2.08905
2.09325
2.09756
2.10199
2.10657
2.1113
2.11619
2.12127
2.12655
2.13206
2.13785
2.14398
2.15055
2.15767
2.16556
2.17433
2.1848
2.19526
0.373779
0.511877
0.558233
0.585939
0.606878
0.624093
0.638635
0.650937
0.661227
0.669677
0.676476
0.681861
0.686113
0.689537
0.692448
0.695143
0.697892
0.700923
0.704416
0.708502
0.713263
0.718733
0.724913
0.731766
0.739233
0.74723
0.755666
0.764435
0.773428
0.782535
0.791646
0.800656
0.809464
0.817974
0.826096
0.833748
0.840854
0.847347
0.853163
0.858249
0.862557
0.866047
0.868684
0.870444
0.871311
0.871278
0.870347
0.868532
0.865858
0.862373
0.858141
0.853252
0.84783
0.842038
0.836089
0.830253
0.824868
0.820349
0.817203
0.816044
0.817534
0.82245
0.831583
0.845661
0.865291
0.890881
0.922566
0.960173
1.0032
1.05085
1.10208
1.15569
1.21039
1.26493
1.31814
1.36902
1.4167
1.46059
1.50032
1.53575
1.5669
1.59396
1.61725
1.63711
1.65397
1.66824
1.68033
1.69064
1.6995
1.70724
1.71414
1.72044
1.72633
1.73197
1.73749
1.74299
1.74856
1.75423
1.76005
1.76605
1.77223
1.7786
1.78516
1.79191
1.79883
1.80592
1.81316
1.82054
1.82806
1.83569
1.84343
1.85126
1.85918
1.86717
1.87523
1.88333
1.89149
1.89967
1.90787
1.91609
1.9243
1.93251
1.94071
1.94887
1.957
1.96509
1.9731
1.98105
1.9889
1.99664
2.00426
2.01173
2.01903
2.02614
2.03304
2.03971
2.04614
2.0523
2.0582
2.06381
2.06913
2.07418
2.07894
2.08341
2.08761
2.09155
2.09523
2.09868
2.10191
2.10497
2.10787
2.11064
2.11333
2.11596
2.11856
2.12116
2.12378
2.12645
2.12917
2.13197
2.13486
2.13785
2.14097
2.14424
2.14766
2.15127
2.15506
2.15906
2.16328
2.16773
2.17245
2.17745
2.18279
2.18853
2.19476
2.20161
2.20928
2.21785
2.2281
2.23835
0.320342
0.478282
0.532361
0.561807
0.582532
0.598827
0.612369
0.624038
0.634367
0.643743
0.652479
0.660861
0.669151
0.677587
0.686374
0.695682
0.705636
0.716325
0.727792
0.740048
0.75307
0.766809
0.781197
0.79615
0.811576
0.827374
0.843443
0.85968
0.875983
0.892255
0.908401
0.924331
0.939964
0.955221
0.970029
0.984321
0.998036
1.01112
1.02352
1.0352
1.04612
1.05624
1.06555
1.07402
1.08164
1.0884
1.09432
1.0994
1.10367
1.10717
1.10996
1.11211
1.11375
1.115
1.11604
1.1171
1.11845
1.12043
1.12343
1.12797
1.13456
1.14384
1.15647
1.17308
1.19422
1.22033
1.25164
1.28811
1.32941
1.3749
1.42365
1.47454
1.52632
1.57773
1.62758
1.67479
1.71849
1.75807
1.79314
1.8236
1.84951
1.87113
1.88882
1.90301
1.91418
1.92281
1.92934
1.93419
1.93773
1.94027
1.94213
1.94353
1.94467