/*--------------------------------*- C++ -*----------------------------------*\
| =========                 |                                                 |
| \\      /  F ield         | OpenFOAM: The Open Source CFD Toolbox           |
|  \\    /   O peration     | Version:  2312                                  |
|   \\  /    A nd           | Website:  www.openfoam.com                      |
|    \\/     M anipulation  |                                                 |
\*---------------------------------------------------------------------------*/
FoamFile
{
    version     2.0;
    format      ascii;
    arch        "LSB;label=32;scalar=64";
    class       volScalarField;
    location    "50";
    object      nut;
}
// * * * * * * * * * * * * * * * * * * * * * * * * * * * * * * * * * * * * * //

dimensions      [0 2 -1 0 0 0 0];

internalField   nonuniform List<scalar> 
12225
(
1.9887e-05
1.7025e-05
1.52576e-05
1.3973e-05
1.30781e-05
1.24899e-05
1.20893e-05
1.17965e-05
1.15696e-05
1.13863e-05
1.12356e-05
1.11123e-05
1.10148e-05
1.09421e-05
1.08956e-05
1.0884e-05
1.09005e-05
1.096e-05
0.000116373
6.56206e-05
4.79055e-05
4.19725e-05
3.91314e-05
3.755e-05
3.63494e-05
3.52213e-05
3.41199e-05
3.30666e-05
3.20941e-05
3.12126e-05
3.04276e-05
2.97272e-05
2.91196e-05
2.85139e-05
2.78682e-05
2.80754e-05
0.000288453
0.000168638
0.000123961
0.000108202
9.97207e-05
9.45703e-05
9.08348e-05
8.76767e-05
8.48162e-05
8.22224e-05
7.98819e-05
7.77946e-05
7.59552e-05
7.43655e-05
7.30561e-05
7.18333e-05
7.10575e-05
7.04699e-05
0.000474137
0.000296542
0.000226446
0.000194812
0.000178781
0.000168481
0.000161084
0.000155191
0.000150173
0.000145785
0.000141914
0.00013851
0.000135538
0.000132984
0.000130921
0.000129135
0.000128252
0.00012726
0.000622746
0.000426827
0.000338347
0.000289179
0.000264711
0.000248519
0.000236913
0.000227942
0.000220594
0.000214369
0.000208999
0.000204344
0.00020032
0.000196879
0.000194083
0.000191761
0.00019049
0.000189161
0.000723062
0.000544536
0.000447265
0.000385523
0.000352609
0.000330321
0.000314242
0.000301953
0.000292104
0.000283942
0.000277034
0.000271126
0.000266065
0.000261757
0.000258214
0.000255311
0.000253439
0.000251633
0.000783712
0.000641361
0.000545041
0.000478664
0.000438882
0.00041114
0.000390812
0.000375236
0.000362839
0.000352682
0.000344183
0.000336986
0.00033086
0.00032566
0.000321332
0.000317775
0.000315189
0.000312779
0.00081752
0.000714204
0.000627839
0.000564018
0.000520195
0.000488522
0.000464748
0.000446296
0.000431549
0.000419481
0.000409423
0.000400938
0.000393736
0.000387619
0.000382478
0.000378207
0.000374858
0.000371783
0.000835118
0.000764846
0.000695065
0.000637316
0.000593508
0.00056013
0.000534226
0.00051369
0.000497071
0.000483379
0.000471932
0.000462261
0.000454037
0.000447029
0.000441083
0.000436079
0.00043197
0.000428226
0.000843692
0.000798441
0.000745795
0.00069713
0.000656677
0.000623962
0.00059753
0.000575986
0.000558218
0.000543391
0.000530887
0.000520253
0.000511159
0.000503361
0.000496682
0.000490985
0.000486165
0.000481788
0.000847594
0.000819448
0.000781959
0.00074347
0.000708599
0.000678586
0.000653224
0.00063187
0.000613833
0.000598513
0.00058542
0.000574167
0.000564454
0.000556051
0.000548778
0.000542492
0.00053706
0.000532128
0.000849114
0.00083084
0.000804271
0.000774616
0.000745753
0.000719483
0.000696319
0.000676169
0.00065872
0.000643606
0.000630485
0.000619063
0.000609095
0.000600379
0.000592753
0.000586081
0.000580227
0.000574898
0.000849771
0.000837712
0.000819376
0.000797415
0.000774567
0.000752589
0.000732336
0.000714094
0.000697852
0.000683468
0.000670753
0.000659514
0.000649574
0.000640778
0.000632989
0.000626089
0.000619954
0.000614344
0.000850032
0.000841925
0.00082991
0.000814799
0.000798078
0.000781044
0.000764557
0.000749091
0.000734849
0.00072188
0.000710144
0.00069956
0.000690034
0.000681467
0.000673766
0.000666841
0.000660593
0.000654841
0.000850102
0.000844134
0.000836284
0.000826441
0.000815106
0.000802965
0.000790628
0.000778533
0.00076696
0.000756064
0.000745915
0.000736527
0.000727883
0.000719948
0.000712677
0.000706018
0.000699908
0.000694228
0.000850108
0.000845094
0.000839531
0.000833074
0.000825703
0.000817617
0.000809091
0.00080039
0.000791733
0.000783281
0.000775141
0.000767379
0.000760031
0.000753111
0.000746618
0.000740538
0.000734846
0.000729487
0.000850103
0.000845427
0.000840869
0.000836156
0.000831121
0.000825713
0.000819971
0.000813975
0.000807824
0.000801615
0.00079543
0.000789336
0.000783385
0.000777614
0.000772048
0.000766702
0.00076158
0.000756669
0.0008501
0.000845507
0.000841261
0.000837174
0.000833084
0.000828877
0.00082449
0.000819907
0.000815146
0.00081024
0.000805237
0.000800182
0.000795122
0.000790094
0.000785134
0.000780266
0.000775511
0.000770873
0.0008501
0.000845474
0.000841123
0.000836839
0.000832464
0.000827902
0.000823114
0.000818106
0.00081291
0.000807575
0.000802151
0.000796689
0.000791234
0.000785824
0.000780492
0.000775265
0.000770164
0.000765215
0.000850103
0.000845152
0.000839842
0.000833867
0.000827159
0.00081982
0.000812029
0.000803978
0.000795837
0.000787739
0.000779784
0.000772038
0.000764547
0.000757337
0.000750419
0.000743801
0.000737486
0.000731489
0.000850079
0.000843866
0.000835694
0.000825543
0.000813933
0.000801518
0.000788861
0.00077637
0.000764306
0.000752814
0.000741961
0.000731764
0.000722211
0.000713272
0.000704909
0.000697081
0.000689756
0.000682932
0.000849832
0.000839416
0.000823992
0.000805259
0.000785231
0.000765364
0.000746486
0.000728974
0.000712936
0.000698335
0.000685067
0.000673003
0.000662009
0.000651962
0.000642749
0.000634274
0.00062646
0.000619287
0.000848429
0.000826545
0.000796531
0.000764121
0.00073322
0.000705382
0.000680912
0.000659582
0.000640994
0.00062473
0.000610414
0.000597725
0.000586397
0.000576214
0.000567001
0.000558616
0.000550951
0.000543986
0.000842569
0.000795197
0.000742376
0.000693627
0.000652963
0.000619775
0.000592649
0.000570248
0.000551496
0.000535573
0.000521865
0.000509909
0.000499359
0.000489952
0.000481489
0.000473815
0.000466811
0.000460489
0.000823006
0.000730766
0.000652055
0.000590216
0.000545697
0.000512454
0.000486842
0.000466527
0.000449976
0.000436161
0.000424383
0.000414159
0.000405148
0.000397106
0.000389853
0.000383259
0.000377208
0.000371773
0.000769183
0.000619662
0.000523988
0.00045864
0.000419548
0.000391894
0.000371364
0.000355444
0.000342604
0.000331896
0.00032272
0.000314686
0.000307537
0.000301095
0.000295234
0.000289873
0.000284896
0.000280458
0.000647604
0.000458604
0.00036842
0.00031541
0.00028748
0.000268382
0.000254507
0.000243802
0.000235084
0.000227676
0.000221193
0.000215402
0.000210164
0.000205385
0.000200991
0.000196959
0.000193164
0.000189834
0.000433685
0.000273279
0.000208099
0.000178876
0.000162733
0.000152145
0.00014463
0.000138791
0.000133887
0.000129565
0.000125664
0.000122102
0.000118837
0.000115837
0.000113066
0.000110539
0.000108128
0.00010608
0.000180951
0.00011003
7.93544e-05
6.84461e-05
6.21896e-05
5.85623e-05
5.61809e-05
5.42988e-05
5.26127e-05
5.10351e-05
4.95552e-05
4.81776e-05
4.6902e-05
4.573e-05
4.46439e-05
4.36668e-05
4.27224e-05
4.19445e-05
2.59675e-05
2.21367e-05
1.99506e-05
1.84263e-05
1.72947e-05
1.64705e-05
1.58679e-05
1.5413e-05
1.50551e-05
1.47616e-05
1.45117e-05
1.42931e-05
1.40982e-05
1.39225e-05
1.37617e-05
1.36153e-05
1.34782e-05
1.3353e-05
2.70198e-06
6.71612e-06
7.57248e-06
8.35442e-06
9.1317e-06
1.00188e-05
1.09755e-05
1.19558e-05
1.29199e-05
1.38498e-05
1.47328e-05
1.5566e-05
1.63431e-05
1.7068e-05
1.77395e-05
1.83671e-05
1.89362e-05
1.94565e-05
1.99276e-05
2.03567e-05
2.07436e-05
2.10945e-05
2.14084e-05
2.16908e-05
2.19401e-05
2.21603e-05
2.23496e-05
2.25296e-05
2.26858e-05
2.2822e-05
2.29381e-05
2.30367e-05
2.31177e-05
2.31826e-05
2.32362e-05
2.32423e-05
2.32644e-05
2.32823e-05
2.3267e-05
2.32421e-05
2.32023e-05
2.31432e-05
2.30763e-05
2.29945e-05
2.29024e-05
2.27966e-05
2.26817e-05
2.25542e-05
2.24191e-05
2.22724e-05
2.21198e-05
2.19568e-05
2.179e-05
2.16144e-05
2.14365e-05
2.12512e-05
2.10662e-05
2.08738e-05
2.06504e-05
2.03577e-05
2.01381e-05
2.00263e-05
1.99605e-05
1.99054e-05
1.98565e-05
1.98062e-05
1.9758e-05
1.97077e-05
1.96591e-05
1.96086e-05
1.95597e-05
1.95095e-05
1.94609e-05
1.94112e-05
1.93631e-05
1.93143e-05
1.92671e-05
1.92195e-05
1.91735e-05
1.9127e-05
1.90819e-05
1.90374e-05
1.89911e-05
1.89454e-05
1.89035e-05
1.8857e-05
1.88178e-05
1.88038e-05
1.87102e-05
1.87295e-05
1.86219e-05
1.86563e-05
1.85378e-05
1.85822e-05
1.84568e-05
1.84991e-05
1.84637e-05
1.84322e-05
1.83057e-05
1.83349e-05
1.83352e-05
1.82029e-05
1.8259e-05
1.81223e-05
1.81839e-05
1.81573e-05
1.80228e-05
1.80662e-05
1.79365e-05
1.80206e-05
1.78999e-05
1.78298e-05
1.78986e-05
1.78626e-05
1.78685e-05
1.77508e-05
1.76822e-05
1.77513e-05
1.77261e-05
1.76126e-05
1.75522e-05
1.76128e-05
1.75904e-05
1.74729e-05
1.74294e-05
1.74993e-05
1.73723e-05
1.73189e-05
1.73391e-05
1.72711e-05
1.73193e-05
1.73014e-05
1.71769e-05
1.71828e-05
1.7171e-05
1.70655e-05
1.71164e-05
1.69988e-05
1.70628e-05
1.69525e-05
1.70228e-05
1.68696e-05
1.68376e-05
1.67652e-05
1.68068e-05
1.67909e-05
1.66933e-05
1.66569e-05
1.66927e-05
1.65958e-05
1.66254e-05
1.65233e-05
1.65476e-05
1.65157e-05
1.64254e-05
1.64286e-05
1.6405e-05
1.63194e-05
1.63295e-05
1.62479e-05
1.6257e-05
1.61692e-05
1.61386e-05
1.61119e-05
1.60305e-05
1.59458e-05
1.59172e-05
1.59166e-05
1.58892e-05
1.58621e-05
1.58156e-05
1.5765e-05
1.57098e-05
1.56515e-05
1.5583e-05
1.55077e-05
1.54109e-05
1.53142e-05
1.50393e-05
1.47875e-05
3.88361e-06
1.88239e-05
3.51084e-05
4.41292e-05
4.87259e-05
5.16418e-05
5.44706e-05
5.77305e-05
6.12821e-05
6.52004e-05
6.95517e-05
7.43118e-05
7.94319e-05
8.48554e-05
9.05235e-05
9.63828e-05
0.000102385
0.000108472
0.000114588
0.000120685
0.000126715
0.000132637
0.000138406
0.000143975
0.000149279
0.000154231
0.000158703
0.000162491
0.000165959
0.000169227
0.000172319
0.000175242
0.000177996
0.000180581
0.000182992
0.000185218
0.000187287
0.000189193
0.000190986
0.000192619
0.000194036
0.000195206
0.000196281
0.000197208
0.000197989
0.000198635
0.000199146
0.000199536
0.000199806
0.00019997
0.00020003
0.000199999
0.000199878
0.000199681
0.000199403
0.000199056
0.000198624
0.000198085
0.000197317
0.000196121
0.000194483
0.000192584
0.000190538
0.000188418
0.00018625
0.000184063
0.000181861
0.000179659
0.000177456
0.000175263
0.000173076
0.000170905
0.000168745
0.000166604
0.000164477
0.000162372
0.000160283
0.000158217
0.000156169
0.000154145
0.00015214
0.000150162
0.000148201
0.000146258
0.000144338
0.000142434
0.000140539
0.000138754
0.000136866
0.000135145
0.000133282
0.000131602
0.000129755
0.000128133
0.000126351
0.000124777
0.000123183
0.000121609
0.000119931
0.000118405
0.00011697
0.00011539
0.000114016
0.000112481
0.000111171
0.000109839
0.000108391
0.000107073
0.00010609
0.000104643
0.000103417
0.000102044
0.000100812
0.000100161
9.87418e-05
9.80109e-05
9.6841e-05
9.59664e-05
9.49481e-05
9.38869e-05
9.28574e-05
9.19729e-05
9.10629e-05
8.98541e-05
8.87534e-05
8.8335e-05
8.74502e-05
8.62414e-05
8.5817e-05
8.49774e-05
8.38791e-05
8.34815e-05
8.26804e-05
8.15889e-05
8.11806e-05
8.04931e-05
7.99033e-05
7.92116e-05
7.83479e-05
7.74099e-05
7.70896e-05
7.5766e-05
7.52197e-05
7.52051e-05
7.48519e-05
7.41099e-05
7.3787e-05
7.29834e-05
7.27954e-05
7.22224e-05
7.17123e-05
7.08998e-05
7.06216e-05
7.01592e-05
6.96303e-05
6.92128e-05
6.85571e-05
6.79621e-05
6.77364e-05
6.7023e-05
6.66826e-05
6.60779e-05
6.583e-05
6.56441e-05
6.44678e-05
6.39899e-05
6.39903e-05
6.40802e-05
6.35701e-05
6.33955e-05
6.29718e-05
6.22675e-05
6.19395e-05
6.1497e-05
6.09839e-05
6.02877e-05
5.94875e-05
5.8758e-05
5.68696e-05
5.31278e-05
4.65853e-06
3.33774e-05
6.4877e-05
8.73131e-05
0.00010257
0.000113957
0.000123534
0.000132571
0.000142059
0.000152112
0.000162706
0.000173767
0.000185193
0.000196869
0.000208678
0.000220513
0.000232277
0.000243882
0.000255251
0.000266321
0.000277038
0.000287356
0.000297233
0.000306627
0.000315497
0.000323801
0.000331502
0.000338601
0.000345214
0.000351411
0.000357221
0.000362657
0.000367724
0.000372423
0.000376754
0.000380717
0.000384318
0.000387557
0.000390494
0.000393165
0.000395466
0.000397315
0.000398846
0.000400089
0.000401047
0.000401728
0.000402145
0.000402314
0.000402249
0.000401969
0.000401486
0.000400819
0.000399977
0.000398976
0.000397821
0.000396516
0.000395051
0.000393399
0.000391492
0.000389243
0.00038663
0.000383722
0.000380604
0.000377347
0.000373995
0.000370583
0.000367132
0.000363658
0.00036017
0.000356678
0.000353186
0.000349701
0.000346226
0.000342765
0.000339319
0.000335892
0.000332484
0.000329097
0.000325733
0.000322393
0.000319076
0.000315786
0.00031252
0.000309277
0.000306058
0.000302862
0.000299686
0.000296579
0.000293458
0.000290415
0.000287344
0.000284359
0.000281333
0.000278408
0.000275445
0.000272582
0.000269747
0.000266948
0.000264108
0.000261342
0.000258665
0.000255947
0.00025334
0.000250685
0.000248152
0.000245672
0.000243129
0.000240578
0.000238312
0.000235835
0.000233461
0.000231026
0.000228641
0.000226662
0.000224358
0.000222427
0.000220358
0.000218402
0.000216464
0.000214464
0.000212502
0.000210615
0.000208776
0.000206752
0.00020472
0.000203128
0.000201448
0.000199473
0.000197931
0.000196318
0.000194464
0.000192995
0.000191464
0.000189675
0.000188321
0.00018688
0.000186081
0.000184407
0.000183088
0.000181252
0.000180101
0.000178566
0.000177141
0.000175988
0.000174905
0.000174322
0.000173248
0.000171453
0.00017105
0.000169874
0.000168213
0.00016743
0.000165843
0.00016459
0.000163827
0.000162698
0.000161471
0.000160956
0.000160068
0.000158467
0.000157543
0.000156726
0.000155868
0.000156041
0.000154853
0.000153284
0.000152991
0.000152291
0.000150835
0.000150604
0.000149647
0.000148378
0.000146779
0.000146077
0.000145002
0.000143632
0.000142009
0.0001399
0.00013633
0.000128124
5.69549e-06
4.16427e-05
8.68373e-05
0.000122665
0.000149873
0.000171247
0.000189424
0.000206116
0.000222274
0.000238638
0.000255158
0.000271791
0.000288471
0.000305092
0.000321544
0.000337718
0.000353524
0.000368882
0.000383729
0.000398016
0.000411706
0.000424769
0.000437185
0.000448936
0.000460011
0.000470404
0.000480113
0.00048918
0.000497653
0.000505573
0.000512963
0.000519839
0.000526209
0.00053208
0.000537455
0.000542341
0.000546744
0.00055067
0.000554133
0.000557195
0.000559873
0.000562013
0.00056369
0.000564986
0.000565903
0.000566457
0.000566666
0.000566551
0.000566134
0.000565434
0.000564472
0.000563269
0.00056184
0.000560203
0.000558369
0.000556345
0.00055413
0.000551714
0.000549073
0.000546183
0.000543038
0.000539667
0.000536114
0.00053242
0.000528624
0.000524753
0.000520829
0.000516869
0.000512886
0.000508887
0.000504882
0.000500876
0.000496875
0.000492881
0.000488899
0.000484931
0.000480979
0.000477046
0.000473132
0.00046924
0.00046537
0.000461523
0.000457699
0.000453893
0.00045011
0.000446353
0.000442623
0.000438933
0.000435263
0.000431635
0.000428022
0.000424452
0.000420896
0.000417385
0.00041389
0.000410445
0.000407036
0.000403662
0.000400296
0.000396971
0.000393702
0.00039045
0.000387255
0.000384075
0.000380958
0.000377896
0.000374837
0.000371782
0.000368861
0.000365905
0.000362992
0.000360075
0.000357189
0.000354494
0.000351729
0.00034912
0.000346514
0.000343959
0.000341454
0.00033893
0.000336435
0.000333969
0.000331524
0.000328992
0.000326432
0.000324077
0.000321771
0.000319332
0.000317065
0.000314839
0.000312508
0.000310332
0.0003082
0.000305983
0.000303966
0.000301968
0.000300335
0.000298389
0.000296543
0.000294449
0.000292642
0.000290756
0.000288854
0.000287056
0.000285318
0.000283906
0.000282392
0.000280432
0.000279094
0.000277549
0.000275644
0.000274139
0.00027234
0.000270607
0.000269171
0.000267668
0.000266077
0.000264855
0.000263571
0.000261865
0.000260518
0.000260006
0.00025813
0.000258193
0.000256806
0.000254562
0.000254373
0.000253041
0.00025079
0.000250525
0.000249075
0.000247259
0.000244676
0.000242957
0.000242011
0.000239637
0.000238012
0.00023483
0.000230354
0.000219758
6.63189e-06
4.58223e-05
0.000101967
0.000150322
0.000189352
0.000221321
0.000248523
0.000272892
0.000295654
0.000317347
0.000338664
0.000359647
0.000380237
0.000400371
0.000419979
0.000438996
0.000457362
0.000475028
0.000491959
0.000508131
0.000523529
0.000538149
0.00055199
0.000565057
0.00057736
0.000588906
0.00059972
0.000609847
0.000619326
0.000628184
0.000636444
0.000644118
0.000651219
0.000657753
0.000663726
0.000669145
0.000674017
0.000678348
0.000682149
0.000685434
0.000688305
0.00069063
0.000692431
0.000693781
0.000694694
0.00069519
0.000695293
0.000695025
0.000694412
0.000693477
0.000692244
0.000690736
0.000688974
0.000686976
0.000684759
0.000682335
0.000679712
0.000676893
0.000673878
0.000670664
0.00066726
0.000663684
0.00065996
0.000656116
0.000652179
0.00064817
0.000644107
0.000640006
0.000635879
0.000631734
0.00062758
0.000623424
0.000619269
0.000615121
0.000610983
0.000606858
0.000602748
0.000598656
0.000594583
0.00059053
0.000586499
0.000582491
0.000578506
0.000574549
0.000570626
0.000566733
0.000562868
0.000559034
0.000555227
0.00055145
0.000547698
0.000543976
0.00054028
0.000536617
0.000532979
0.000529377
0.000525808
0.000522271
0.000518758
0.000515278
0.000511838
0.000508428
0.000505058
0.00050172
0.000498425
0.000495174
0.000491949
0.000488745
0.000485605
0.000482485
0.000479396
0.000476325
0.000473283
0.000470328
0.000467389
0.000464524
0.000461695
0.000458908
0.000456163
0.000453431
0.000450724
0.000448042
0.000445382
0.000442699
0.000440003
0.00043739
0.00043483
0.000432237
0.00042971
0.000427228
0.000424719
0.000422272
0.000419873
0.000417454
0.000415119
0.00041282
0.000410683
0.000408463
0.000406272
0.000403979
0.000401793
0.000399618
0.000397437
0.000395293
0.000393187
0.000391256
0.000389348
0.000387237
0.000385369
0.000383464
0.000381363
0.000379435
0.000377421
0.000375412
0.000373552
0.00037172
0.000369858
0.000368173
0.000366515
0.000364658
0.000362939
0.000361696
0.000359896
0.000358921
0.000357444
0.000355328
0.000355001
0.000353262
0.000350648
0.000350145
0.000348302
0.000345622
0.000343118
0.000340921
0.00033916
0.00033661
0.000335038
0.00033122
0.000326519
0.000315215
7.3904e-06
4.77462e-05
0.000111708
0.00017106
0.000220634
0.000262536
0.0002984
0.000330056
0.000358897
0.000385821
0.000411244
0.000435509
0.00045884
0.000481309
0.000502924
0.000523672
0.000543533
0.000562491
0.000580538
0.000597676
0.000613914
0.000629267
0.000643757
0.00065741
0.000670255
0.000682324
0.000693654
0.000704279
0.000714231
0.000723533
0.000732205
0.000740263
0.000747718
0.000754577
0.000760849
0.000766539
0.000771654
0.000776202
0.000780192
0.000783634
0.0007866
0.000789042
0.000790928
0.00079234
0.000793289
0.000793796
0.000793887
0.000793587
0.000792922
0.000791918
0.0007906
0.000788993
0.000787121
0.000785005
0.000782665
0.000780119
0.000777379
0.000774459
0.000771367
0.000768114
0.000764712
0.000761175
0.000757521
0.000753768
0.000749936
0.000746039
0.000742094
0.000738112
0.000734104
0.000730078
0.000726041
0.000722
0.00071796
0.000713924
0.000709897
0.00070588
0.000701878
0.000697891
0.000693921
0.00068997
0.000686039
0.000682129
0.000678239
0.000674363
0.000670514
0.000666692
0.000662898
0.000659132
0.000655394
0.000651683
0.000648
0.000644346
0.000640719
0.000637121
0.000633553
0.000630015
0.000626508
0.000623032
0.000619584
0.000616168
0.000612785
0.000609434
0.000606118
0.000602835
0.000599589
0.00059638
0.000593201
0.000590052
0.000586947
0.000583875
0.000580833
0.000577815
0.000574825
0.000571881
0.000568968
0.0005661
0.000563269
0.000560473
0.000557712
0.000554974
0.00055226
0.000549569
0.000546898
0.000544229
0.000541564
0.000538936
0.000536341
0.00053375
0.00053119
0.00052866
0.000526134
0.000523637
0.000521173
0.000518716
0.0005163
0.000513923
0.000511631
0.00050934
0.000507066
0.000504759
0.000502491
0.000500249
0.000498016
0.000495804
0.000493613
0.00049151
0.000489446
0.000487307
0.000485258
0.000483181
0.000480998
0.000478857
0.000476688
0.000474514
0.000472411
0.000470349
0.00046829
0.000466319
0.000464389
0.00046238
0.00046043
0.000458724
0.000456821
0.000455262
0.000453538
0.00045145
0.000450145
0.000448356
0.000446033
0.000444583
0.000442662
0.000440179
0.00043761
0.000435159
0.000432901
0.000430158
0.000428307
0.00042427
0.000419531
0.000408396
8.00214e-06
4.8455e-05
0.000117666
0.000185704
0.000244619
0.000294916
0.000338457
0.000376607
0.000410794
0.000442037
0.00047102
0.00049819
0.000523813
0.000548063
0.00057105
0.000592844
0.000613492
0.000633035
0.000651509
0.000668953
0.000685408
0.000700917
0.000715525
0.000729278
0.000742221
0.000754397
0.000765844
0.000776595
0.00078668
0.000796122
0.000804942
0.000813154
0.000820768
0.000827793
0.000834233
0.000840095
0.000845382
0.0008501
0.000854256
0.000857859
0.000860955
0.000863537
0.000865565
0.000867108
0.000868177
0.000868793
0.000868981
0.000868769
0.000868184
0.000867251
0.000865999
0.000864453
0.00086264
0.000860582
0.000858302
0.00085582
0.000853154
0.000850321
0.000847335
0.000844211
0.000840962
0.000837603
0.000834148
0.000830611
0.000827007
0.000823349
0.000819649
0.000815916
0.000812159
0.000808387
0.000804605
0.000800819
0.000797034
0.000793254
0.000789481
0.00078572
0.000781971
0.000778237
0.000774519
0.00077082
0.000767139
0.000763479
0.000759837
0.000756216
0.000752617
0.000749041
0.000745491
0.000741965
0.000738466
0.000734992
0.000731544
0.000728122
0.000724726
0.000721357
0.000718015
0.000714701
0.000711414
0.000708156
0.000704925
0.000701722
0.000698548
0.000695403
0.000692289
0.000689205
0.000686152
0.00068313
0.000680136
0.000677163
0.000674226
0.00067132
0.000668442
0.00066559
0.000662762
0.000659965
0.000657197
0.000654462
0.000651757
0.000649082
0.000646435
0.000643812
0.000641211
0.000638631
0.00063607
0.00063352
0.00063098
0.000628461
0.000625964
0.000623478
0.000621011
0.000618564
0.000616127
0.000613708
0.000611311
0.000608926
0.000606567
0.00060424
0.000601963
0.000599707
0.00059747
0.000595229
0.000593008
0.000590809
0.000588626
0.00058646
0.000584309
0.000582203
0.000580124
0.000578026
0.00057596
0.000573887
0.000571761
0.000569633
0.000567488
0.000565336
0.000563213
0.000561119
0.000559037
0.000556998
0.00055499
0.000552955
0.000550951
0.000549042
0.000547073
0.000545247
0.000543369
0.000541305
0.000539566
0.000537646
0.000535429
0.000533547
0.000531478
0.000529064
0.000526493
0.000523916
0.000521376
0.000518507
0.000515976
0.00051238
0.00050722
0.000496811
8.49485e-06
4.85412e-05
0.000121034
0.000195532
0.000261919
0.00031922
0.000369202
0.000412881
0.000451641
0.000486563
0.000518442
0.00054784
0.000575152
0.000600652
0.000624534
0.00064694
0.00066798
0.000687745
0.000706312
0.000723755
0.000740145
0.000755547
0.000770027
0.000783646
0.000796462
0.000808528
0.000819888
0.000830583
0.000840644
0.000850099
0.000858965
0.000867256
0.000874981
0.000882143
0.000888746
0.00089479
0.000900275
0.000905204
0.000909579
0.000913405
0.00091671
0.0009195
0.000921753
0.000923511
0.000924789
0.000925605
0.000925986
0.000925959
0.000925552
0.000924794
0.000923714
0.000922337
0.000920693
0.000918806
0.0009167
0.000914398
0.00091192
0.000909285
0.000906511
0.000903613
0.000900607
0.000897506
0.000894324
0.000891073
0.000887767
0.000884415
0.000881027
0.000877613
0.000874179
0.000870733
0.000867281
0.000863826
0.000860374
0.000856928
0.00085349
0.000850065
0.000846652
0.000843255
0.000839875
0.000836513
0.00083317
0.000829846
0.000826543
0.00082326
0.000819998
0.000816759
0.000813543
0.000810351
0.000807182
0.000804037
0.000800916
0.000797819
0.000794747
0.000791698
0.000788675
0.000785676
0.000782701
0.000779752
0.000776827
0.000773928
0.000771053
0.000768205
0.000765382
0.000762585
0.000759814
0.000757069
0.000754348
0.00075165
0.000748978
0.00074633
0.000743706
0.000741103
0.000738522
0.000735963
0.000733427
0.000730914
0.000728425
0.000725959
0.000723514
0.000721089
0.000718683
0.000716294
0.00071392
0.000711559
0.000709209
0.000706873
0.000704551
0.00070224
0.000699941
0.000697654
0.000695377
0.000693112
0.00069086
0.000688618
0.000686394
0.000684194
0.000682025
0.00067988
0.000677754
0.000675636
0.000673534
0.00067145
0.000669383
0.00066733
0.000665292
0.000663277
0.00066128
0.00065928
0.000657292
0.000655299
0.000653278
0.000651242
0.000649192
0.000647132
0.00064508
0.000643043
0.000641016
0.00063901
0.00063702
0.000635025
0.000633048
0.000631121
0.000629186
0.000627312
0.000625421
0.000623439
0.000621581
0.000619645
0.000617551
0.000615563
0.000613482
0.000611186
0.000608708
0.000606158
0.000603551
0.00060069
0.000597852
0.000594255
0.0005892
0.000579717
8.88608e-06
4.82658e-05
0.000122568
0.000201537
0.000273515
0.00033647
0.000391487
0.000439708
0.000482244
0.000520205
0.000554451
0.000585635
0.000614243
0.000640637
0.000665089
0.000687806
0.000708957
0.00072868
0.000747095
0.00076431
0.000780423
0.000795527
0.000809706
0.000823041
0.000835603
0.000847454
0.00085865
0.000869235
0.000879246
0.000888709
0.000897641
0.000906052
0.000913947
0.000921323
0.000928176
0.0009345
0.000940288
0.000945535
0.000950238
0.000954398
0.000958028
0.000961129
0.000963712
0.000965784
0.00096737
0.000968472
0.000969129
0.000969369
0.000969219
0.00096871
0.000967873
0.000966736
0.000965329
0.000963679
0.000961812
0.000959753
0.000957524
0.000955144
0.000952635
0.000950011
0.00094729
0.000944486
0.000941611
0.000938678
0.000935698
0.00093268
0.000929634
0.000926567
0.000923486
0.000920398
0.000917306
0.000914217
0.000911132
0.000908057
0.000904992
0.000901942
0.000898906
0.000895888
0.000892888
0.000889907
0.000886946
0.000884006
0.000881087
0.000878189
0.000875313
0.000872458
0.000869627
0.000866818
0.000864032
0.000861268
0.000858526
0.000855807
0.00085311
0.000850435
0.000847782
0.000845152
0.000842543
0.000839956
0.000837391
0.000834847
0.000832325
0.000829824
0.000827345
0.000824887
0.00082245
0.000820034
0.000817639
0.000815262
0.000812904
0.000810566
0.000808245
0.000805942
0.000803654
0.000801384
0.000799129
0.000796891
0.000794669
0.000792463
0.000790273
0.000788098
0.000785936
0.000783787
0.000781649
0.000779521
0.000777402
0.000775293
0.000773192
0.000771099
0.000769013
0.000766935
0.000764863
0.000762798
0.000760741
0.000758693
0.000756655
0.000754634
0.000752633
0.000750651
0.000748686
0.000746734
0.000744796
0.000742872
0.000740964
0.00073907
0.000737187
0.000735317
0.000733458
0.000731601
0.000729747
0.000727887
0.000726008
0.000724112
0.000722201
0.000720277
0.00071835
0.000716428
0.000714509
0.000712597
0.000710692
0.000708786
0.000706891
0.000705022
0.000703158
0.000701322
0.000699479
0.000697591
0.000695744
0.000693856
0.000691881
0.000689925
0.000687904
0.000685745
0.000683444
0.000681052
0.000678555
0.000675836
0.000672983
0.000669541
0.000664689
0.000656349
9.18703e-06
4.77435e-05
0.000122723
0.000204479
0.000280356
0.000347506
0.00040638
0.000458084
0.000503573
0.000543924
0.000580023
0.000612577
0.000642136
0.000669129
0.00069389
0.000716687
0.000737739
0.000757229
0.000775319
0.000792149
0.00080785
0.000822539
0.000836325
0.000849306
0.00086157
0.000873192
0.000884236
0.000894754
0.000904782
0.000914348
0.000923464
0.000932134
0.000940352
0.000948107
0.000955384
0.000962163
0.000968429
0.000974165
0.000979361
0.000984008
0.000988108
0.000991665
0.000994706
0.000997211
0.000999214
0.0010007
0.00100171
0.00100229
0.00100246
0.00100225
0.00100171
0.00100086
0.000999726
0.000998349
0.000996752
0.000994963
0.000993006
0.000990903
0.000988675
0.00098634
0.000983914
0.000981412
0.000978849
0.000976235
0.000973582
0.000970899
0.000968194
0.000965475
0.000962747
0.000960018
0.00095729
0.000954569
0.000951858
0.000949159
0.000946476
0.000943809
0.000941161
0.000938533
0.000935926
0.000933341
0.000930778
0.000928237
0.00092572
0.000923225
0.000920754
0.000918305
0.000915879
0.000913476
0.000911095
0.000908736
0.000906398
0.000904082
0.000901786
0.000899511
0.000897256
0.00089502
0.000892804
0.000890607
0.000888428
0.000886268
0.000884125
0.000882
0.000879892
0.0008778
0.000875725
0.000873666
0.000871622
0.000869592
0.000867577
0.000865574
0.000863585
0.000861607
0.00085964
0.000857683
0.000855737
0.000853801
0.000851876
0.00084996
0.000848053
0.000846156
0.000844267
0.000842386
0.000840511
0.000838643
0.000836779
0.000834921
0.000833067
0.000831217
0.00082937
0.000827526
0.000825685
0.000823848
0.000822014
0.000820185
0.000818363
0.00081655
0.000814751
0.000812966
0.000811195
0.000809435
0.000807688
0.000805954
0.000804233
0.000802523
0.000800822
0.00079913
0.000797444
0.000795758
0.000794071
0.000792376
0.000790667
0.000788941
0.000787198
0.00078544
0.000783673
0.000781901
0.000780124
0.000778347
0.000776568
0.000774787
0.00077301
0.000771245
0.000769487
0.00076774
0.000765989
0.000764216
0.000762451
0.00076066
0.000758819
0.000756964
0.000755059
0.000753057
0.000750943
0.000748742
0.000746414
0.000743884
0.000741149
0.000737915
0.000733544
0.000726436
9.4032e-06
4.70382e-05
0.000121768
0.000204842
0.00028308
0.000353035
0.000414632
0.000468838
0.000516486
0.000558593
0.00059604
0.000629556
0.000659731
0.000687041
0.000711872
0.000734538
0.000755303
0.000774395
0.000792012
0.000808331
0.000823514
0.000837709
0.000851049
0.000863655
0.000875632
0.000887071
0.000898045
0.000908611
0.000918808
0.000928658
0.000938165
0.000947323
0.00095611
0.0009645
0.000972458
0.000979949
0.000986941
0.000993404
0.000999314
0.00100465
0.00100942
0.0010136
0.00101726
0.00102033
0.00102288
0.00102484
0.00102629
0.00102728
0.00102782
0.00102797
0.00102775
0.00102721
0.00102638
0.00102529
0.00102397
0.00102246
0.00102078
0.00101895
0.00101699
0.00101494
0.00101279
0.00101058
0.00100831
0.001006
0.00100365
0.00100128
0.000998897
0.000996504
0.00099411
0.00099172
0.000989338
0.000986968
0.000984613
0.000982276
0.000979959
0.000977663
0.000975392
0.000973144
0.000970921
0.000968724
0.000966553
0.000964408
0.000962288
0.000960194
0.000958125
0.000956081
0.000954062
0.000952066
0.000950093
0.000948143
0.000946213
0.000944305
0.000942416
0.000940547
0.000938697
0.000936864
0.000935049
0.00093325
0.000931467
0.000929698
0.000927945
0.000926205
0.000924478
0.000922764
0.000921061
0.000919369
0.000917688
0.000916016
0.000914353
0.000912697
0.00091105