/*--------------------------------*- C++ -*----------------------------------*\
| =========                 |                                                 |
| \\      /  F ield         | OpenFOAM: The Open Source CFD Toolbox           |
|  \\    /   O peration     | Version:  2312                                  |
|   \\  /    A nd           | Website:  www.openfoam.com                      |
|    \\/     M anipulation  |                                                 |
\*---------------------------------------------------------------------------*/
FoamFile
{
    version     2.0;
    format      ascii;
    arch        "LSB;label=32;scalar=64";
    class       volScalarField;
    location    "50";
    object      nut;
}
// * * * * * * * * * * * * * * * * * * * * * * * * * * * * * * * * * * * * * //

dimensions      [0 2 -1 0 0 0 0];

internalField   nonuniform List<scalar> 
12225
(
2.5762e-05
3.02007e-05
3.1895e-05
3.19866e-05
3.18382e-05
3.11565e-05
3.05644e-05
2.99811e-05
2.94556e-05
2.89972e-05
2.86033e-05
2.82684e-05
2.79776e-05
2.77339e-05
2.75133e-05
2.73356e-05
2.71886e-05
2.69249e-05
0.000155545
6.71e-05
4.94802e-05
4.08226e-05
3.62191e-05
3.33235e-05
3.18681e-05
3.10835e-05
3.08717e-05
3.08344e-05
3.11305e-05
3.14678e-05
3.18654e-05
3.23156e-05
3.28462e-05
3.33301e-05
3.39241e-05
3.41686e-05
0.000461015
0.000207732
0.000143436
0.000113099
9.42722e-05
8.23657e-05
7.42989e-05
6.80527e-05
6.39524e-05
6.06357e-05
5.83209e-05
5.62847e-05
5.4976e-05
5.36489e-05
5.29105e-05
5.21029e-05
5.18822e-05
5.10499e-05
0.000724444
0.000440155
0.000317496
0.000253966
0.000214656
0.000188944
0.000170381
0.000157046
0.000146473
0.000137752
0.000131287
0.000125389
0.000120976
0.000116518
0.000113463
0.000109896
0.000107867
0.000104398
0.000823467
0.000657952
0.00052229
0.000435367
0.000376462
0.000335778
0.000305429
0.000282962
0.000265036
0.000250987
0.000239257
0.000228938
0.00022113
0.000213222
0.000207655
0.000200897
0.000197339
0.000190338
0.00084628
0.000780229
0.000688572
0.00060579
0.000541467
0.000492682
0.000454249
0.000424282
0.000399905
0.000380125
0.000363656
0.000349701
0.000337796
0.000326866
0.000318537
0.000309533
0.000304058
0.000294659
0.00085232
0.000827179
0.000786093
0.00072909
0.000676006
0.000630519
0.000591799
0.000559528
0.000532247
0.000509189
0.000489586
0.000472521
0.000458134
0.000444985
0.000433783
0.00042315
0.000415498
0.000404425
0.000852906
0.000845752
0.000826907
0.000800048
0.000765815
0.00073193
0.000700209
0.000671613
0.000646108
0.000623496
0.000603596
0.00058582
0.000570203
0.000556325
0.000543789
0.000532333
0.000523023
0.000511172
0.000852059
0.000850712
0.000843891
0.000832242
0.000814372
0.000794709
0.0007733
0.000752173
0.000732074
0.000713232
0.000695932
0.000679855
0.000665489
0.00065205
0.000639888
0.000628455
0.000619146
0.000607464
0.00085163
0.000851225
0.000848994
0.000844762
0.000837027
0.000827057
0.000815132
0.000802116
0.00078873
0.000775346
0.000762409
0.000749866
0.000738156
0.000726877
0.000716667
0.000706305
0.000698137
0.000687757
0.000851545
0.000850982
0.00085002
0.0008485
0.000845554
0.000841226
0.000835535
0.000828709
0.000821106
0.00081296
0.000804622
0.000796132
0.000787863
0.000779566
0.000771897
0.000763847
0.000757269
0.000749026
0.000851557
0.000850833
0.000850075
0.000849232
0.000847911
0.000845949
0.000843246
0.000839793
0.000835705
0.000831063
0.00082607
0.000820746
0.000815364
0.000809754
0.00080442
0.000798685
0.000793823
0.000787746
0.000851575
0.000850776
0.000850022
0.000849311
0.000848514
0.000847512
0.000846217
0.000844552
0.000842522
0.000840116
0.000837418
0.000834414
0.000831264
0.000827855
0.00082451
0.000820819
0.000817582
0.000813492
0.000851583
0.000850761
0.000849988
0.000849271
0.000848583
0.000847881
0.000847124
0.000846261
0.000845269
0.000844113
0.000842811
0.000841332
0.000839745
0.000837977
0.000836191
0.000834173
0.000832336
0.000830014
0.000851585
0.000850756
0.000849976
0.000849244
0.000848556
0.000847901
0.00084727
0.000846641
0.000846003
0.000845335
0.000844634
0.000843878
0.000843087
0.000842221
0.000841341
0.000840357
0.000839426
0.000838298
0.000851584
0.000850753
0.000849969
0.000849231
0.000848535
0.000847878
0.000847257
0.000846666
0.000846099
0.00084555
0.000845016
0.000844487
0.000843967
0.000843439
0.000842918
0.000842378
0.000841857
0.000841291
0.000851584
0.00085075
0.000849964
0.000849223
0.000848523
0.000847862
0.000847238
0.000846647
0.000846085
0.000845552
0.000845043
0.000844557
0.000844093
0.000843645
0.000843216
0.000842798
0.000842398
0.000842004
0.000851583
0.000850748
0.000849961
0.000849217
0.000848516
0.000847853
0.000847227
0.000846634
0.000846072
0.000845538
0.000845032
0.00084455
0.000844092
0.000843656
0.00084324
0.000842844
0.000842465
0.000842104
0.000851583
0.000850748
0.00084996
0.000849216
0.000848514
0.000847851
0.000847225
0.000846632
0.00084607
0.000845537
0.00084503
0.000844547
0.000844087
0.000843649
0.000843229
0.000842829
0.000842443
0.000842077
0.000851583
0.000850749
0.000849961
0.000849219
0.00084852
0.000847859
0.000847232
0.000846636
0.000846064
0.000845513
0.000844978
0.000844457
0.000843944
0.000843441
0.000842939
0.000842448
0.000841949
0.000841475
0.000851583
0.00085075
0.000849966
0.000849228
0.000848527
0.000847849
0.000847176
0.000846495
0.000845788
0.000845049
0.000844264
0.000843439
0.000842562
0.000841651
0.000840684
0.000839709
0.000838657
0.000837668
0.000851574
0.000850755
0.000849987
0.000849224
0.000848398
0.000847439
0.000846288
0.00084491
0.000843289
0.000841441
0.000839375
0.000837138
0.000834735
0.000832243
0.000829622
0.000827024
0.000824263
0.000821737
0.000851515
0.00085085
0.000849952
0.000848596
0.00084652
0.000843567
0.00083973
0.00083512
0.000829878
0.00082419
0.000818181
0.000812032
0.000805788
0.000799632
0.000793478
0.000787635
0.000781682
0.000776435
0.000851373
0.000851107
0.000847814
0.000842164
0.000833671
0.000822752
0.000810267
0.00079696
0.0007834
0.000770028
0.000757033
0.000744682
0.000732906
0.000721939
0.000711533
0.000702044
0.000692725
0.000684829
0.000851034
0.00084791
0.00082976
0.000808658
0.000781297
0.000752544
0.000724833
0.000698993
0.000675458
0.00065422
0.000635076
0.000618021
0.000602523
0.000588894
0.000576447
0.000565139
0.000554643
0.000545895
0.000844867
0.000817218
0.000760169
0.000698751
0.000644578
0.000598438
0.000560182
0.000528104
0.000501438
0.000478804
0.000459601
0.000443176
0.000428846
0.00041655
0.000405495
0.000395916
0.000386784
0.000379753
0.00080652
0.000691543
0.000565986
0.000481532
0.000422363
0.000378632
0.000345964
0.000320339
0.000300385
0.000283855
0.000270583
0.000259337
0.000249396
0.000241443
0.000233959
0.000228124
0.000222069
0.000217741
0.000657009
0.000394978
0.000291397
0.00023598
0.000199461
0.000174396
0.000156845
0.00014368
0.000133811
0.000125753
0.000119189
0.000114096
0.0001096
0.000106091
0.000102747
0.000100267
9.76417e-05
9.58618e-05
0.000258317
0.000128374
9.456e-05
7.59219e-05
6.46021e-05
5.72095e-05
5.2659e-05
4.93943e-05
4.70451e-05
4.54978e-05
4.43709e-05
4.36054e-05
4.30396e-05
4.26971e-05
4.24374e-05
4.23401e-05
4.22477e-05
4.22967e-05
3.13103e-05
3.48371e-05
3.67048e-05
3.75985e-05
3.78005e-05
3.77191e-05
3.75006e-05
3.71408e-05
3.67541e-05
3.63706e-05
3.60065e-05
3.56691e-05
3.53609e-05
3.50813e-05
3.48292e-05
3.46021e-05
3.43977e-05
3.42137e-05
5.13028e-06
1.48399e-05
1.78691e-05
2.00268e-05
2.15545e-05
2.26054e-05
2.33094e-05
2.37376e-05
2.39848e-05
2.39891e-05
2.39495e-05
2.38452e-05
2.35003e-05
2.31124e-05
2.30442e-05
2.31205e-05
2.36737e-05
2.43662e-05
2.49271e-05
2.53021e-05
2.54497e-05
2.53391e-05
2.64816e-05
2.89939e-05
3.18006e-05
3.45484e-05
3.7376e-05
4.00036e-05
4.23626e-05
4.45368e-05
4.65836e-05
4.84408e-05
5.01517e-05
5.17314e-05
5.31962e-05
5.45644e-05
5.58426e-05
5.7047e-05
5.81793e-05
5.92538e-05
6.02693e-05
6.12395e-05
6.21618e-05
6.30491e-05
6.38975e-05
6.47179e-05
6.55036e-05
6.6262e-05
6.69833e-05
6.76733e-05
6.83262e-05
6.8958e-05
6.9567e-05
7.01484e-05
7.06889e-05
7.12042e-05
7.16864e-05
7.218e-05
7.26715e-05
7.31476e-05
7.35401e-05
7.38636e-05
7.40582e-05
7.4275e-05
7.46632e-05
7.51058e-05
7.52875e-05
7.55073e-05
7.6249e-05
7.59192e-05
7.7956e-05
7.69632e-05
7.79668e-05
7.68616e-05
7.49269e-05
7.77352e-05
7.61269e-05
7.33872e-05
7.39123e-05
7.32597e-05
7.34263e-05
7.67333e-05
7.18118e-05
7.22339e-05
7.53946e-05
7.02306e-05
7.07879e-05
6.97654e-05
6.91185e-05
6.83381e-05
6.75669e-05
6.67848e-05
6.59834e-05
6.51702e-05
6.43461e-05
6.35156e-05
6.26801e-05
6.18433e-05
6.10059e-05
6.01709e-05
5.93391e-05
5.85176e-05
5.77254e-05
5.68577e-05
5.60219e-05
5.51982e-05
5.43915e-05
5.36019e-05
5.28324e-05
5.20804e-05
5.13403e-05
5.06112e-05
4.9895e-05
4.91632e-05
4.85174e-05
4.80541e-05
4.7636e-05
4.72339e-05
4.68428e-05
4.64608e-05
4.60878e-05
4.57223e-05
4.53663e-05
4.5021e-05
4.46801e-05
4.43497e-05
4.40352e-05
4.37067e-05
4.34227e-05
4.31458e-05
4.2848e-05
4.25417e-05
4.22388e-05
4.19425e-05
4.16605e-05
4.13954e-05
4.11347e-05
4.08701e-05
4.06035e-05
4.03392e-05
4.00808e-05
3.98278e-05
3.95806e-05
3.93429e-05
3.91193e-05
3.89115e-05
3.872e-05
3.85455e-05
3.83886e-05
3.82479e-05
3.81205e-05
3.80001e-05
3.78777e-05
3.77401e-05
3.75694e-05
3.73477e-05
3.70573e-05
3.66865e-05
3.62346e-05
3.571e-05
3.51377e-05
3.45408e-05
3.39519e-05
3.33955e-05
3.28866e-05
3.24384e-05
3.20474e-05
3.17201e-05
3.14578e-05
3.12286e-05
3.105e-05
3.0931e-05
3.08125e-05
3.07274e-05
3.06402e-05
3.03902e-05
3.04927e-05
2.99504e-05
3.05185e-05
2.91204e-05
9.08258e-06
2.13822e-05
4.82235e-05
7.56722e-05
9.80005e-05
0.000112956
0.000121514
0.000124891
0.000124395
0.00011955
0.000111107
0.000102492
9.57793e-05
9.45228e-05
9.83871e-05
0.000104181
0.000108941
0.000109258
0.000106566
0.000104608
0.000105122
0.000108023
0.000112913
0.000119822
0.00012737
0.000135147
0.000143245
0.00015159
0.00016005
0.000170494
0.000181051
0.00019197
0.000203063
0.000214272
0.000225517
0.000236734
0.000247877
0.00025891
0.000269819
0.000280594
0.000291247
0.000301782
0.000312223
0.00032258
0.000332878
0.000343129
0.000353361
0.000363589
0.00037385
0.000384168
0.000394578
0.000405079
0.000415658
0.000426275
0.000436937
0.000447579
0.000458102
0.000468339
0.00047803
0.000487023
0.000495189
0.000502483
0.000509784
0.000517234
0.000524641
0.000531682
0.000538172
0.000543755
0.000551316
0.000559365
0.000570188
0.00057307
0.000583993
0.000583933
0.000588488
0.00059918
0.000592067
0.000603672
0.000605427
0.000607765
0.000610717
0.000613937
0.000610058
0.000610291
0.000613186
0.000606802
0.00060426
0.0005994
0.000594093
0.000588418
0.000582648
0.000577136
0.00057167
0.000566018
0.000560234
0.000554355
0.00054842
0.000542458
0.000536503
0.000530583
0.000524747
0.000519069
0.000513679
0.000508369
0.000503127
0.000497958
0.000492862
0.000487849
0.000482925
0.000478092
0.000473326
0.000468586
0.000463789
0.000458683
0.00045281
0.000446571
0.000440165
0.000433733
0.000427333
0.000420996
0.000414733
0.000408548
0.000402436
0.000396407
0.000390448
0.000384548
0.000378761
0.000372961
0.000367475
0.000361881
0.000356336
0.00035085
0.000345462
0.000340224
0.000335097
0.000330056
0.000324982
0.000319895
0.000314848
0.000309891
0.000305036
0.000300262
0.000295565
0.000290965
0.000286468
0.000282054
0.000277696
0.000273375
0.000269066
0.000264732
0.000260319
0.000255759
0.000250954
0.000245785
0.000240096
0.00023373
0.000226551
0.000218484
0.000209542
0.000199875
0.000189738
0.000179479
0.000169469
0.000159991
0.000151378
0.000143592
0.000136906
0.000130986
0.000126065
0.000121853
0.000118448
0.000115407
0.000112919
0.000110435
0.000108276
0.000105747
0.000103733
0.00010025
9.88129e-05
8.70601e-05
1.25595e-05
3.65724e-05
8.27054e-05
0.000124736
0.000156595
0.000178285
0.000191213
0.00019765
0.000199796
0.000199067
0.000196744
0.000193776
0.000190694
0.000187875
0.000186439
0.000186279
0.000187242
0.000190083
0.000194872
0.000201788
0.000210446
0.000221121
0.000233916
0.00024829
0.000265733
0.000286197
0.000308807
0.000333533
0.00036043
0.000385287
0.000410217
0.000435123
0.000459752
0.000483948
0.000507587
0.000530591
0.000552921
0.000574563
0.000595532
0.000615867
0.000635618
0.00065484
0.000673592
0.000691931
0.000709915
0.000727598
0.000745035
0.000762271
0.000779352
0.00079631
0.000813165
0.000829918
0.000846564
0.000863084
0.000879457
0.000895629
0.000911534
0.000927099
0.000942266
0.000957024
0.000971388
0.00098544
0.000999415
0.00101323
0.00102671
0.00103973
0.00105225
0.00106446
0.00107678
0.0010888
0.00110073
0.0011096
0.00111896
0.00112184
0.00112933
0.00113637
0.00114151
0.00114837
0.00115083
0.00115265
0.00115337
0.00115275
0.00114931
0.00114623
0.00114275
0.00113569
0.00112884
0.00112081
0.00111208
0.00110278
0.00109307
0.0010831
0.00107287
0.00106234
0.00105157
0.00104063
0.00102957
0.00101845
0.00100731
0.000996216
0.000985213
0.000974366
0.000963727
0.000953233
0.00094286
0.000932611
0.000922491
0.000912506
0.000902662
0.000892958
0.000883374
0.000873869
0.000864359
0.00085468
0.000844591
0.000834301
0.000823837
0.000813297
0.000802764
0.000792287
0.000781888
0.000771581
0.000761369
0.000751261
0.000741251
0.000731331
0.000721527
0.000711778
0.000702225
0.000692812
0.000683544
0.000674407
0.000665454
0.000657034
0.0006489
0.000640976
0.000632883
0.000624768
0.000616833
0.000609198
0.000601885
0.000594803
0.000587939
0.000581355
0.000575072
0.000569026
0.00056314
0.000557385
0.000551713
0.000546042
0.000540267
0.00053426
0.000527829
0.000520715
0.000512576
0.00050302
0.00049164
0.000478084
0.000462153
0.000443904
0.000423687
0.000402148
0.000380126
0.000358411
0.00033791
0.000318926
0.000302113
0.000287132
0.00027447
0.000263404
0.000254467
0.000246503
0.000240192
0.000234055
0.000229053
0.00022369
0.000219291
0.000212958
0.000208928
0.000191529
1.45928e-05
6.23847e-05
0.000129151
0.000180419
0.000214468
0.000234612
0.000244423
0.000246838
0.00024491
0.000241346
0.000238238
0.00023686
0.000237662
0.000240508
0.000245126
0.000252335
0.000260319
0.000269435
0.000280185
0.00029436
0.000314067
0.000337822
0.000365503
0.000397063
0.000430062
0.000463813
0.000498766
0.000534312
0.000569776
0.000604298
0.000638253
0.000671498
0.000703884
0.000735325
0.00076577
0.000795202
0.000823628
0.000851059
0.000877568
0.000903217
0.000928071
0.000952198
0.000975665
0.000998539
0.00102088
0.00104276
0.00106422
0.00108532
0.00110609
0.00112657
0.00114678
0.00116673
0.00118643
0.00120588
0.00122507
0.00124401
0.00126267
0.00128104
0.00129914
0.00131695
0.00133448
0.00135176
0.00136884
0.00138564
0.00140205
0.00141797
0.00143336
0.00144819
0.00146248
0.00147605
0.00148862
0.00149986
0.00151047
0.00151739
0.0015247
0.00152834
0.0015358
0.00154051
0.0015428
0.00154357
0.00154281
0.00154049
0.00153651
0.0015315
0.00152529
0.0015174
0.00150862
0.00149885
0.00148824
0.0014769
0.00146497
0.00145253
0.00143967
0.00142642
0.00141287
0.00139908
0.00138512
0.00137105
0.00135693
0.0013428
0.00132873
0.00131475
0.0013009
0.00128717
0.00127356
0.00126008
0.00124674
0.00123355
0.0012205
0.00120761
0.00119485
0.0011822
0.00116961
0.00115699
0.00114425
0.00113152
0.00111856
0.00110553
0.00109251
0.00107954
0.00106664
0.00105384
0.00104114
0.00102855
0.00101606
0.00100369
0.000991429
0.000979266
0.000967248
0.000955387
0.000943691
0.000932154
0.000920787
0.000909739
0.000898975
0.000888479
0.00087841
0.000868815
0.000859664
0.00085113
0.000843235
0.000835698
0.000828591
0.000822084
0.000816172
0.000810706
0.000805516
0.000800605
0.000795922
0.000791328
0.000786682
0.000781839
0.000776571
0.000770521
0.000763216
0.000754084
0.000742463
0.000727689
0.000709227
0.000686833
0.000660687
0.000631462
0.00060025
0.000568288
0.000537
0.000507291
0.0004802
0.000455803
0.000434693
0.000416251
0.000400943
0.000387557
0.000376741
0.000367034
0.000358995
0.000351103
0.000344421
0.000336338
0.000330671
0.000311881
1.57485e-05
8.97174e-05
0.00017179
0.000229207
0.000263886
0.00028248
0.000289645
0.000289344
0.000285971
0.000282875
0.000282014
0.000284091
0.00028907
0.000297298
0.000307007
0.000317367
0.000332746
0.000353467
0.000379618
0.000410059
0.000442907
0.000478834
0.000517307
0.000557526
0.000598492
0.000639773
0.000681136
0.000722152
0.000762521
0.000802029
0.000840651
0.00087829
0.000914865
0.000950329
0.000984667
0.0010179
0.00105007
0.00108108
0.00111102
0.00113994
0.00116791
0.00119498
0.00122122
0.00124669
0.00127143
0.00129552
0.00131899
0.00134191
0.0013643
0.00138622
0.00140768
0.00142871
0.00144934
0.00146958
0.00148946
0.00150898
0.00152817
0.00154705
0.00156564
0.00158396
0.00160204
0.00161987
0.0016374
0.00165456
0.00167127
0.00168744
0.001703
0.00171787
0.00173201
0.00174527
0.00175753
0.00176862
0.00177842
0.00178685
0.00179463
0.00179751
0.00180399
0.00180809
0.00181008
0.00181033
0.00180897
0.00180606
0.00180167
0.00179595
0.00178892
0.00178059
0.00177118
0.00176077
0.00174945
0.00173735
0.00172456
0.00171118
0.00169729
0.00168297
0.0016683
0.00165334
0.00163817
0.00162284
0.00160742
0.00159194
0.00157646
0.00156101
0.00154561
0.00153029
0.00151506
0.00149993
0.00148491
0.00147001
0.00145524
0.0014406
0.00142608
0.00141167
0.00139734
0.00138306
0.00136877
0.00135447
0.00134013
0.00132578
0.00131144
0.00129715
0.00128292
0.00126878
0.00125472
0.00124077
0.00122692
0.00121319
0.00119956
0.00118604
0.00117265
0.0011594
0.00114631
0.00113337
0.00112061
0.00110808
0.00109581
0.00108379
0.00107209
0.00106081
0.0010501
0.00104049
0.0010319
0.00102434
0.00101793
0.00101246
0.00100793
0.00100404
0.00100042
0.000997258
0.000994515
0.000991959
0.000989419
0.000986791
0.000983848
0.000980274
0.000975406
0.000968561
0.000958906
0.000945514
0.00092752
0.000904315
0.00087579
0.000842452
0.000805408
0.000766166
0.000726519
0.000687946
0.000651872
0.000618924
0.000589834
0.000564327
0.000542726
0.000524074
0.000508653
0.000495271
0.000484236
0.00047381
0.000464668
0.000455576
0.000448985
0.000431129
1.65097e-05
0.000110713
0.000206925
0.000270923
0.000308063
0.000327178
0.000334292
0.000334113
0.000331634
0.00033039
0.000332316
0.00033811
0.000347555
0.000359827
0.000377789
0.000401747
0.000429695
0.000461673
0.000497588
0.000536501
0.000577548
0.000620388
0.00066446
0.000709178
0.000754029
0.000798833
0.000843399
0.000887592
0.000931008
0.000973436
0.00101482
0.00105509
0.00109421
0.00113211
0.00116877
0.00120419
0.00123835
0.00127129
0.00130305
0.00133368
0.00136323
0.00139173
0.00141923
0.00144578
0.00147143
0.00149623
0.00152024
0.00154349
0.00156604
0.00158793
0.00160921
0.00162991
0.00165008
0.00166975
0.00168898
0.00170779
0.00172622
0.0017443
0.00176207
0.00177955
0.00179673
0.0018136
0.00183014
0.00184629
0.00186201
0.00187723
0.00189187
0.00190587
0.00191915
0.00193163
0.00194318
0.00195372
0.00196313
0.00197136
0.00197823
0.00198459
0.00198699
0.00199167
0.0019937
0.00199395
0.00199258
0.00198967
0.00198531
0.00197958
0.00197255
0.00196428
0.0019549
0.00194449
0.00193316
0.001921
0.00190813
0.00189463
0.00188058
0.00186608
0.00185119
0.00183598
0.00182053
0.00180488
0.0017891
0.00177321
0.00175727
0.0017413
0.00172534
0.0017094
0.00169351
0.00167767
0.00166191
0.00164623
0.00163064
0.00161515
0.00159975
0.00158445
0.00156922
0.00155405
0.00153892
0.00152381
0.00150871
0.00149363
0.00147857
0.00146356
0.0014486
0.00143371
0.00141891
0.00140419
0.00138957
0.00137506
0.00136066
0.00134636
0.00133219
0.00131816
0.00130427
0.00129055
0.001277
0.00126365
0.00125055
0.00123769
0.00122515
0.00121298
0.00120133
0.00119049
0.00118096
0.00117302
0.00116673
0.00116193
0.00115845
0.00115608
0.00115453
0.00115374
0.00115358
0.00115362
0.00115366
0.00115374
0.00115364
0.00115296
0.00115102
0.00114716
0.00114042
0.00112965
0.00111369
0.00109159
0.00106292
0.00102803
0.000987838
0.000943943
0.00089837
0.000853025
0.000809681
0.000769494
0.000733408
0.000701544
0.000674149
0.000650589
0.000630834
0.000613989
0.000599864
0.000587827
0.000576104
0.000565125
0.000557281
0.000541129
1.69602e-05
0.000128846
0.000236344
0.000306817
0.000348259
0.000369746
0.000379605
0.00038255
0.000383263
0.000385589
0.00039172
0.000402231
0.000418457
0.000440714
0.000467659
0.000499394
0.000535025
0.000573967
0.000615614
0.000659253
0.000704284
0.000750267
0.000796815
0.000843713
0.000890811
0.000937498
0.000983487
0.00102862
0.00107287
0.00111621
0.00115854
0.00119981
0.00123996
0.00127894
0.00131672
0.00135326
0.00138854
0.00142257
0.00145537
0.00148695
0.00151735
0.00154659
0.00157471
0.00160174
0.00162772
0.0016527
0.00167673
0.00169984
0.00172209
0.00174351
0.00176417
0.0017841
0.00180336
0.001822
0.00184007
0.00185761
0.00187469
0.00189133
0.0019076
0.00192351
0.00193909
0.00195435
0.00196929
0.00198388
0.00199811
0.00201193
0.00202529
0.00203812
0.00205036
0.00206193
0.00207274
0.00208269
0.00209169
0.00209964
0.00210647
0.00211204
0.00211631
0.00211978
0.00212202
0.00212257
0.00212153
0.00211897
0.00211497
0.0021096
0.00210292
0.00209502
0.00208599
0.00207592
0.00206492
0.00205307
0.00204049
0.00202726
0.00201347
0.0019992
0.00198453
0.00196953
0.00195425
0.00193876
0.00192309
0.0019073
0.00189141
0.00187546
0.00185946
0.00184345
0.00182745
0.00181146
0.0017955
0.00177958
0.00176371
0.0017479
0.00173216
0.00171647
0.00170085
0.00168528
0.00166974
0.00165424
0.00163877
0.00162332
0.00160789
0.00159251
0.00157717
0.0015619
0.00154669
0.00153157
0.00151654
0.0015016
0.00148678
0.00147207
0.00145748
0.00144303
0.00142874
0.0014146
0.00140065
0.00138691
0.0013734
0.00136017
0.00134725
0.00133472
0.0013227
0.0013114
0.0013012
0.00129277
0.00128652
0.00128217
0.00127946
0.00127815
0.001278
0.00127885
0.00128055
0.00128282
0.00128547
0.0012884
0.0012913
0.00129345
0.00129461
0.00129403
0.00129061
0.00128308
0.00126999
0.00125006
0.0012226
0.00118776
0.00114616
0.0010995
0.00104993
0.000999615
0.000950699
0.000904695
0.000862784
0.000825452
0.00079299
0.000765028
0.000741369
0.000721342
0.000704458
0.000690339
0.000677935
0.000664091
0.000654173
0.000639962
1.7166e-05
0.000142046
0.000258382
0.000335524
0.000382743
0.00040979
0.000424558
0.000432319
0.000438602
0.000446716
0.000458319
0.000475811
0.000498747
0.000527019
0.000559895
0.000596731
0.000636755
0.000679293
0.000723744
0.000769566
0.000816313
0.000863631
0.000911332
0.000958932
0.00100612
0.00105288
0.00109911
0.00114462
0.00118932
0.00123313
0.00127598
0.00131779
0.00135851
0.00139809
0.00143647
0.00147362
0.00150951
0.00154414
0.0015775
0.00160959
0.00164043
0.00167002
0.00169839
0.00172556
0.00175156
0.00177642
0.00180018
0.00182289
0.00184457
0.00186528
0.00188506
0.00190397
0.00192206
0.00193939
0.00195601
0.001972
0.00198741
0.0020023
0.00201673
0.00203077
0.00204445
0.00205781
0.00207088
0.00208368
0.0020962
0.00210843
0.00212033
0.00213187
0.00214299
0.00215361
0.00216365
0.00217303
0.00218163
0.00218935
0.00219607
0.00220166
0.00220703
0.00220922
0.00221239
0.00221348
0.00221298
0.00221099
0.00220756
0.00220275
0.00219662
0.00218926
0.00218075
0.00217119
0.00216067
0.00214929
0.00213716
0.00212438
0.00211102
0.00209718
0.00208293
0.00206833
0.00205345
0.00203835
0.00202306
0.00200762
0.00199206
0.00197642
0.00196071
0.00194495
0.00192915
0.00191333
0.00189751
0.00188169
0.00186588
0.00185008
0.00183432
0.00181858
0.00180288
0.0017872
0.00177156
0.00175593
0.00174033
0.00172475
0.00170919
0.00169367
0.00167818
0.00166274
0.00164737
0.00163207
0.00161685
0.00160174
0.00158673
0.00157184
0.00155708
0.00154246
0.001528
0.00151372
0.00149964
0.00148577
0.00147217
0.00145886
0.0014459
0.00143337
0.00142136
0.00141008
0.00139986
0.00139125
0.00138518
0.00138125
0.00137916
0.00137864
0.00137948
0.00138148
0.00138447
0.00138824
0.00139261
0.00139741
0.00140242
0.0014072
0.0014114
0.00141413
0.00141407
0.00140992
0.00139997
0.00138262
0.00135694
0.00132285
0.00128103
0.00123302
0.00118102
0.00112732
0.00107432
0.00102377
0.000977136
0.000935235
0.000898474
0.000866699
0.000839647
0.000816773
0.00079752
0.000781352
0.000768044
0.000754343
0.000740675
0.000726362
1.69237e-05
0.000148539
0.000271548
0.000355333
0.00040952
0.000443908
0.0004658
0.000480782
0.000493175
0.000506921
0.000525349
0.000548408
0.000576351
0.000608867
0.000645318
0.000685007
0.00072725
0.000771449
0.000817096
0.000863769
0.000911132
0.000958764
0.00100636
0.0010538
0.00110093
0.00114765
0.00119381
0.0012393
0.00128404
0.00132795
0.00137094
0.00141296
0.00145392
0.00149377
0.00153246
0.00156995
0.00160619
0.00164118
0.00167487
0.00170727
0.00173836
0.00176816
0.00179665
0.00182386
0.00184979
0.00187447
0.00189793
0.00192019
0.00194129
0.00196127
0.00198017
0.00199804
0.00201494
0.00203093
0.00204607
0.00206043
0.00207409
0.00208713
0.00209962
0.00211165
0.00212329
0.0021346
0.00214565
0.00215647
0.00216711
0.00217757
0.00218785
0.00219794
0.00220778
0.00221733
0.00222651
0.00223524
0.00224341
0.00225091
0.00225762
0.00226342
0.00226849
0.00227218
0.00227509
0.00227674
0.00227692
0.00227564
0.00227294
0.00226885
0.00226343
0.00225673
0.00224886
0.0022399
0.00222996
0.00221915
0.00220756
0.00219529
0.00218245
0.00216912
0.00215538
0.0021413
0.00212694
0.00211235
0.00209759
0.00208267
0.00206763
0.00205248
0.00203725
0.00202195
0.00200658
0.00199116
0.0019757
0.0019602
0.00194467
0.00192912
0.00191356
0.001898
0.00188244
0.00186688
0.00185132
0.00183577
0.00182023
0.0018047
0.00178918
0.00177368
0.00175821
0.00174278
0.00172741
0.0017121
0.00169688
0.00168175
0.00166674
0.00165185
0.0016371
0.0016225
0.00160808
0.00159385
0.00157984
0.00156607
0.0015526
0.00153946
0.00152671
0.00151444
0.00150276
0.00149186
0.00148206
0.00147387
0.00146827
0.00146485
0.00146332
0.00146344
0.001465
0.0014678
0.00147167
0.00147642
0.00148189
0.0014879
0.00149423
0.00150059
0.00150664
0.00151174
0.00151488
0.0015141
0.00150726
0.00149247
0.00146871
0.00143578
0.00139433
0.00134582
0.00129242
0.00123653
0.0011806
0.00112673
0.00107653
0.00103103
0.000990811
0.000955816
0.000925862
0.000900494
0.000879169
0.000861248
0.000846809
0.000831421
0.00081759
0.000804427
1.72235e-05
0.000145948
0.000272862
0.000362287
0.000423353
0.000465475
0.000495537
0.000518626
0.000539393
0.000560745
0.000585086
0.000612932
0.000644645
0.000680035
0.000718622
0.000759836
0.000803116
0.000847966
0.000893963
0.00094076
0.000988029
0.00103557
0.00108318
0.00113061
0.00117765
0.00122412
0.00127
0.00131525
0.00135977
0.00140358
0.00144654
0.00148856
0.00152959
0.00156955
0.0016084
0.00164609
0.00168256
0.00171779
0.00175173
0.00178436
0.00181567
0.00184564
0.00187426
0.00190152
0.00192743
0.001952
0.00197523
0.00199715
0.00201777
0.00203713
0.00205526
0.00207221
0.00208802
0.00210276
0.00211648
0.00212927
0.00214122
0.0021524
0.00216292
0.00217287
0.00218236
0.00219149
0.00220034
0.002209
0.00221754
0.00222599
0.0022344
0.00224277
0.00225109
0.00225933
0.00226742
0.0022753
0.00228288
0.00229004
0.00229665
0.00230259
0.00230771
0.00231236
0.00231519
0.00231778
0.0023188
0.00231841
0.00231662
0.00231342
0.00230885
0.00230297
0.00229586
0.00228762
0.00227836
0.00226819
0.00225723
0.00224557
0.00223333
0.00222058
0.00220743
0.00219395
0.0021802
0.00216624
0.0021521
0.00213783
0.00212343
0.00210893
0.00209433
0.00207965
0.00206487
0.00205002
0.00203509
0.00202009
0.00200502
0.0019899
0.00197473
0.00195951
0.00194427
0.00192899
0.0019137
0.00189839
0.00188306
0.00186773
0.0018524
0.00183708
0.00182177
0.0018065
0.00179127
0.0017761
0.00176102
0.00174604
0.00173118
0.00171645
0.00170187
0.00168746
0.00167324
0.00165924
0.00164549
0.00163202
0.00161887
0.00160611
0.0015938
0.00158204
0.00157095
0.00156074
0.00155173
0.00154452
0.00153968
0.0015369
0.00153595
0.00153662
0.00153872
0.00154207
0.00154651
0.00155188
0.001558
0.0015647
0.0015718
0.00157903
0.00158608
0.00159246
0.00159733
0.0015992
0.00159531
0.00158274
0.00156066
0.00152888
0.00148803
0.00143952
0.00138545
0.00132826
0.00127045
0.00121427
0.00116147
0.00111326
0.00107031
0.00103277
0.00100048
0.000973053
0.000949966
0.00093061
0.000914702
0.000900866
0.000887353
0.000876325
1.75774e-05
0.000140757
0.000269119
0.000363462
0.000430313
0.000478638
0.00051564
0.000547238
0.000575778
0.000603978
0.000633532
0.000665468
0.000700203
0.000737707
0.000777701
0.000819784
0.000863534
0.000908554
0.000954486
0.00100101
0.00104788
0.00109497
0.00114218
0.00118929
0.00123615
0.00128267
0.00132872
0.00137418
0.00141892
0.00146266
0.00150551
0.00154743
0.00158837
0.0016283
0.00166722
0.00170503
0.00174166
0.00177707
0.00181122
0.00184407
0.00187559
0.00190576
0.00193454
0.00196193
0.00198791
0.00201246
0.0020356
0.00205731
0.00207761
0.00209651
0.00211403
0.00213021
0.00214509
0.00215872
0.00217115
0.00218247
0.00219276
0.00220212
0.00221065
0.00221848
0.00222572
0.00223251
0.00223896
0.00224521
0.00225136
0.00225749
0.0022637
0.00227
0.00227643
0.00228299
0.00228965
0.00229636
0.00230306
0.00230965
0.00231601
0.002322
0.00232742
0.0023324
0.00233629
0.00233941
0.00234134
0.00234203
0.00234138
0.00233931
0.00233581
0.00233094
0.00232476
0.00231741
0.002309
0.00229964
0.00228945
0.00227854
0.00226702
0.00225498
0.00224252
0.00222974
0.00221669
0.00220345
0.00219005
0.00217652
0.00216288
0.00214914
0.00213531
0.00212138
0.00210735
0.00209322
0.00207898
0.00206464
0.00205019
0.00203565
0.00202101
0.0020063
0.00199152
0.00197669
0.0019618
0.00194688
0.00193192
0.00191694
0.00190193
0.00188693
0.00187192
0.00185694
0.001842
0.00182712
0.00181232
0.00179763
0.00178307
0.00176866
0.00175441
0.00174035
0.00172651
0.00171291
0.0016996
0.00168661
0.001674
0.00166183
0.00165019
0.00163918
0.00162895
0.00161973
0.00161188
0.00160601
0.00160215
0.00160012
0.00159977
0.00160093
0.00160346
0.0016072
0.00161199
0.00161769
0.00162414
0.00163116
0.00163858
0.00164615
0.0016536
0.00166046
0.00166605
0.00166909
0.00166727
0.00165626
0.00163534
0.00160443
0.00156415
0.00151587
0.00146161
0.00140379
0.00134493
0.00128731
0.0012328
0.00118271
0.0011378
0.00109834
0.00106424
0.00103518
0.00101065
0.000990106
0.000973035
0.000958989
0.000946095
0.00093493
1.76367e-05
0.000131827
0.000259413
0.000357834
0.000431327
0.000487191
0.00053146
0.00056803
0.000601147
0.000634175
0.000668372
0.000704136
0.000741697
0.000781026
0.000822166
0.000864894
0.000908938
0.000954011
0.00099984
0.00104618
0.00109283