/*--------------------------------*- C++ -*----------------------------------*\
| =========                 |                                                 |
| \\      /  F ield         | OpenFOAM: The Open Source CFD Toolbox           |
|  \\    /   O peration     | Version:  2312                                  |
|   \\  /    A nd           | Website:  www.openfoam.com                      |
|    \\/     M anipulation  |                                                 |
\*---------------------------------------------------------------------------*/
FoamFile
{
    version     2.0;
    format      ascii;
    arch        "LSB;label=32;scalar=64";
    class       surfaceScalarField;
    location    "50";
    object      phi;
}
// * * * * * * * * * * * * * * * * * * * * * * * * * * * * * * * * * * * * * //

dimensions      [0 3 -1 0 0 0 0];

oriented        oriented;

internalField   nonuniform List<scalar> 
24170
(
1.53236e-06
6.18403e-08
1.44679e-06
8.55723e-08
1.37208e-06
7.47055e-08
1.30172e-06
7.03611e-08
1.23712e-06
6.46026e-08
1.18104e-06
5.60757e-08
1.13397e-06
4.70688e-08
1.09485e-06
3.91169e-08
1.06221e-06
3.26439e-08
1.03474e-06
2.74644e-08
1.01145e-06
2.32878e-08
9.91531e-07
1.9919e-08
9.74354e-07
1.71769e-08
9.59432e-07
1.49203e-08
9.46455e-07
1.29747e-08
9.35144e-07
1.13067e-08
9.24997e-07
1.01375e-08
6.38395e-09
9.18605e-07
1.74831e-06
2.21586e-08
1.75305e-06
8.08245e-08
1.74285e-06
8.49082e-08
1.72666e-06
8.65454e-08
1.70582e-06
8.54446e-08
1.68192e-06
7.99674e-08
1.65642e-06
7.25649e-08
1.63039e-06
6.51464e-08
1.60471e-06
5.83269e-08
1.57998e-06
5.21936e-08
1.55653e-06
4.67381e-08
1.53451e-06
4.19365e-08
1.51396e-06
3.77249e-08
1.49487e-06
3.40081e-08
1.47721e-06
3.06234e-08
1.46101e-06
2.74997e-08
1.44681e-06
2.43353e-08
1.91271e-08
1.43406e-06
1.83575e-06
1.76681e-08
1.84795e-06
6.86189e-08
1.85499e-06
7.78708e-08
1.86034e-06
8.12001e-08
1.86307e-06
8.27143e-08
1.86269e-06
8.03449e-08
1.85961e-06
7.56404e-08
1.85441e-06
7.03455e-08
1.84763e-06
6.51073e-08
1.83974e-06
6.00825e-08
1.83111e-06
5.5366e-08
1.82202e-06
5.10315e-08
1.81267e-06
4.7078e-08
1.80323e-06
4.34394e-08
1.79385e-06
4.00094e-08
1.78472e-06
3.66237e-08
1.77596e-06
3.30972e-08
2.83017e-08
1.76678e-06
1.96286e-06
1.75011e-08
1.97274e-06
5.8734e-08
1.97985e-06
7.0762e-08
1.98596e-06
7.5094e-08
1.99109e-06
7.7582e-08
1.99474e-06
7.66928e-08
1.99696e-06
7.34127e-08
1.99799e-06
6.93188e-08
1.99801e-06
6.50879e-08
1.99718e-06
6.09055e-08
1.99566e-06
5.68842e-08
1.99357e-06
5.31197e-08
1.99103e-06
4.96229e-08
1.98813e-06
4.634e-08
1.98495e-06
4.31856e-08
1.98155e-06
4.00145e-08
1.97786e-06
3.6784e-08
3.29245e-08
1.97323e-06
2.10459e-06
1.64709e-08
2.1121e-06
5.12242e-08
2.11821e-06
6.46597e-08
2.12354e-06
6.97649e-08
2.1285e-06
7.26162e-08
2.1327e-06
7.24913e-08
2.13603e-06
7.00855e-08
2.13858e-06
6.67669e-08
2.14046e-06
6.32076e-08
2.14176e-06
5.96116e-08
2.14254e-06
5.61011e-08
2.14288e-06
5.27755e-08
2.14285e-06
4.96548e-08
2.14249e-06
4.66977e-08
2.14184e-06
4.38382e-08
2.14087e-06
4.09857e-08
2.13951e-06
3.8146e-08
3.5075e-08
2.13736e-06
2.25606e-06
1.49529e-08
2.26211e-06
4.51793e-08
2.26771e-06
5.90508e-08
2.27274e-06
6.47363e-08
2.27755e-06
6.78042e-08
2.28185e-06
6.81963e-08
2.28547e-06
6.64604e-08
2.28848e-06
6.37538e-08
2.29097e-06
6.07194e-08
2.293e-06
5.75843e-08
2.29461e-06
5.44815e-08
2.29588e-06
5.15121e-08
2.29682e-06
4.87058e-08
2.29748e-06
4.60369e-08
2.29786e-06
4.3463e-08
2.29791e-06
4.09368e-08
2.29756e-06
3.84864e-08
3.60454e-08
2.29659e-06
2.41787e-06
1.34443e-08
2.42315e-06
3.99027e-08
2.42854e-06
5.36596e-08
2.43348e-06
5.97986e-08
2.4382e-06
6.30754e-08
2.44251e-06
6.38861e-08
2.44626e-06
6.27143e-08
2.44948e-06
6.0535e-08
2.45225e-06
5.7954e-08
2.45461e-06
5.52189e-08
2.45662e-06
5.24733e-08
2.45831e-06
4.98199e-08
2.45972e-06
4.72977e-08
2.46086e-06
4.48984e-08
2.46172e-06
4.26018e-08
2.46226e-06
4.03924e-08
2.46243e-06
3.83148e-08
3.63913e-08
2.46209e-06
2.59118e-06
1.20521e-08
2.59593e-06
3.51508e-08
2.60115e-06
4.8445e-08
2.60604e-06
5.49012e-08
2.61074e-06
5.8376e-08
2.61509e-06
5.9543e-08
2.61894e-06
5.88629e-08
2.62231e-06
5.7159e-08
2.62527e-06
5.49953e-08
2.62786e-06
5.26323e-08
2.63011e-06
5.0222e-08
2.63206e-06
4.78679e-08
2.63374e-06
4.56187e-08
2.63515e-06
4.34824e-08
2.63629e-06
4.14583e-08
2.63713e-06
3.95545e-08
2.63762e-06
3.78223e-08
3.6306e-08
2.63771e-06
2.77697e-06
1.07508e-08
2.78125e-06
3.0872e-08
2.78624e-06
4.34504e-08
2.79109e-06
5.00532e-08
2.79579e-06
5.36791e-08
2.80019e-06
5.51431e-08
2.80416e-06
5.48962e-08
2.80769e-06
5.36317e-08
2.81082e-06
5.1864e-08
2.81359e-06
4.98595e-08
2.81604e-06
4.77751e-08
2.81819e-06
4.57157e-08
2.82007e-06
4.37377e-08
2.82169e-06
4.18638e-08
2.82304e-06
4.01087e-08
2.8241e-06
3.8495e-08
2.82485e-06
3.70711e-08
3.58871e-08
2.82527e-06
2.97611e-06
9.52433e-09
2.97996e-06
2.7025e-08
2.9847e-06
3.87103e-08
2.98947e-06
4.52805e-08
2.99417e-06
4.89854e-08
2.99863e-06
5.06795e-08
3.00272e-06
5.08086e-08
3.0064e-06
4.99493e-08
3.0097e-06
4.85583e-08
3.01266e-06
4.6901e-08
3.0153e-06
4.51374e-08
3.01764e-06
4.33726e-08
3.01971e-06
4.16684e-08
3.02151e-06
4.00578e-08
3.02305e-06
3.85671e-08
3.02432e-06
3.72263e-08
3.02531e-06
3.60786e-08
3.51617e-08
3.02604e-06
3.18956e-06
8.3735e-09
3.19302e-06
2.3565e-08
3.19749e-06
3.42392e-08
3.20216e-06
4.0614e-08
3.20682e-06
4.43185e-08
3.21133e-06
4.61721e-08
3.21553e-06
4.66141e-08
3.21936e-06
4.61181e-08
3.22283e-06
4.50799e-08
3.22598e-06
4.37553e-08
3.22881e-06
4.2305e-08
3.23135e-06
4.08329e-08
3.23361e-06
3.94039e-08
3.23561e-06
3.80561e-08
3.23736e-06
3.68231e-08
3.23884e-06
3.57365e-08
3.24009e-06
3.48317e-08
3.41426e-08
3.24111e-06
2.87134e-06
7.45257e-09
2.87399e-06
2.09123e-08
2.87757e-06
3.06638e-08
2.88142e-06
3.67612e-08
2.88532e-06
4.04128e-08
2.88914e-06
4.23508e-08
2.89276e-06
4.30002e-08
2.8961e-06
4.27716e-08
2.89917e-06
4.20103e-08
2.90197e-06
4.09534e-08
2.90452e-06
3.97579e-08
2.90682e-06
3.85294e-08
2.9089e-06
3.73278e-08
2.91076e-06
3.61994e-08
2.9124e-06
3.51757e-08
2.91385e-06
3.42906e-08
2.91511e-06
3.35717e-08
3.30428e-08
2.91621e-06
3.50006e-06
6.46962e-09
3.50287e-06
1.8107e-08
3.50673e-06
2.6796e-08
3.51101e-06
3.24824e-08
3.51543e-06
3.59968e-08
3.51981e-06
3.79695e-08
3.52401e-06
3.88006e-08
3.52794e-06
3.88328e-08
3.5316e-06
3.83544e-08
3.53497e-06
3.75796e-08
3.53807e-06
3.66638e-08
3.54089e-06
3.57017e-08
3.54347e-06
3.4758e-08
3.54579e-06
3.38713e-08
3.54789e-06
3.30778e-08
3.54978e-06
3.24042e-08
3.55148e-06
3.18732e-08
3.15029e-08
3.55303e-06
4.26646e-06
5.43593e-09
4.26939e-06
1.51761e-08
4.27352e-06
2.2668e-08
4.27821e-06
2.77871e-08
4.28315e-06
3.10633e-08
4.28811e-06
3.30014e-08
4.29295e-06
3.3965e-08
4.29755e-06
3.42319e-08
4.30187e-06
3.40302e-08
4.30591e-06
3.35445e-08
4.30966e-06
3.29165e-08
4.31312e-06
3.22404e-08
4.31631e-06
3.15712e-08
4.31924e-06
3.09461e-08
4.32192e-06
3.03932e-08
4.32439e-06
2.99371e-08
4.32668e-06
2.95923e-08
2.93723e-08
4.32881e-06
5.20068e-06
4.36015e-09
5.20372e-06
1.21413e-08
5.20809e-06
1.83016e-08
5.2132e-06
2.26786e-08
5.21867e-06
2.55949e-08
5.22425e-06
2.7414e-08
5.22978e-06
2.84356e-08
5.23513e-06
2.8888e-08
5.24022e-06
2.89397e-08
5.24503e-06
2.87352e-08
5.24956e-06
2.83957e-08
5.25379e-06
2.80074e-08
5.25775e-06
2.76192e-08
5.26143e-06
2.72616e-08
5.26487e-06
2.69532e-08
5.2681e-06
2.67123e-08
5.27115e-06
2.65476e-08
2.64703e-08
5.27405e-06
6.33952e-06
3.23991e-09
6.34266e-06
8.9982e-09
6.34727e-06
1.36896e-08
6.35281e-06
1.71381e-08
6.35887e-06
1.95424e-08
6.36515e-06
2.11323e-08
6.37147e-06
2.21214e-08
6.37767e-06
2.26849e-08
6.38367e-06
2.29453e-08
6.38941e-06
2.29988e-08
6.39487e-06
2.29352e-08
6.40006e-06
2.28245e-08
6.40497e-06
2.2712e-08
6.40961e-06
2.26162e-08
6.41402e-06
2.25489e-08
6.41821e-06
2.25169e-08
6.42223e-06
2.25271e-08
2.25866e-08
6.42611e-06
7.72777e-06
2.06091e-09
7.73108e-06
5.68931e-09
7.73603e-06
8.7422e-09
7.7421e-06
1.10706e-08
7.74886e-06
1.27827e-08
7.75599e-06
1.40048e-08
7.76326e-06
1.4853e-08
7.77051e-06
1.54381e-08
7.77762e-06
1.5839e-08
7.78451e-06
1.6109e-08
7.79115e-06
1.6297e-08
7.79752e-06
1.64492e-08
7.80364e-06
1.65969e-08
7.8095e-06
1.67525e-08
7.81513e-06
1.69176e-08
7.82056e-06
1.7092e-08
7.8258e-06
1.72763e-08
1.74777e-08
7.83091e-06
9.42011e-06
7.74633e-10
9.42374e-06
2.0531e-09
9.42926e-06
3.23123e-09
9.43612e-06
4.21139e-09
9.44387e-06
5.02829e-09
9.45216e-06
5.71917e-09
9.4607e-06
6.30686e-09
9.46932e-06
6.819e-09
9.47788e-06
7.28498e-09
9.48627e-06
7.71886e-09
9.49443e-06
8.13125e-09
9.50235e-06
8.53272e-09
9.51001e-06
8.93349e-09
9.51743e-06
9.33444e-09
9.52462e-06
9.73169e-09
9.53159e-06
1.01203e-08
9.53837e-06
1.04972e-08
1.08666e-08
9.54498e-06
1.14832e-05
-7.53585e-10
1.14875e-05
-2.25745e-09
1.14941e-05
-3.35522e-09
1.15023e-05
-4.04279e-09
1.15117e-05
-4.35609e-09
1.15218e-05
-4.36641e-09
1.15323e-05
-4.15471e-09
1.15429e-05
-3.78512e-09
1.15535e-05
-3.30159e-09
1.15639e-05
-2.72781e-09
1.15741e-05
-2.09573e-09
1.15841e-05
-1.43241e-09
1.15938e-05
-7.61735e-10
1.16032e-05
-9.35349e-11
1.16124e-05
5.61958e-10
1.16213e-05
1.20032e-09
1.163e-05
1.81171e-09
2.39923e-09
1.16385e-05
8.40657e-06
-1.96932e-09
8.40998e-06
-5.67623e-09
8.41521e-06
-8.58632e-09
8.42173e-06
-1.0558e-08
8.42906e-06
-1.16921e-08
8.43689e-06
-1.21953e-08
8.44497e-06
-1.22326e-08
8.45311e-06
-1.19354e-08
8.46121e-06
-1.14006e-08
8.46918e-06
-1.06995e-08
8.47698e-06
-9.88834e-09
8.48456e-06
-9.02145e-09
8.49194e-06
-8.13627e-09
8.4991e-06
-7.25701e-09
8.50606e-06
-6.39383e-09
8.51282e-06
-5.55714e-09
8.51939e-06
-4.75403e-09
-3.98743e-09
8.52578e-06
7.31845e-06
-3.13398e-09
7.32181e-06
-9.04296e-09
7.32698e-06
-1.37526e-08
7.33329e-06
-1.68764e-08
7.34027e-06
-1.8673e-08
7.34763e-06
-1.95561e-08
7.35516e-06
-1.97638e-08
7.36269e-06
-1.94667e-08
7.37011e-06
-1.8824e-08
7.37736e-06
-1.79506e-08
7.38441e-06
-1.69372e-08
7.39124e-06
-1.58537e-08
7.39785e-06
-1.47519e-08
7.40426e-06
-1.36607e-08
7.41046e-06
-1.25953e-08
7.41647e-06
-1.1566e-08
7.42229e-06
-1.05812e-08
-9.64253e-09
7.42795e-06
6.37113e-06
-4.1998e-09
6.37455e-06
-1.2463e-08
6.37985e-06
-1.90544e-08
6.38611e-06
-2.31343e-08
6.39283e-06
-2.53945e-08
6.39981e-06
-2.65392e-08
6.40686e-06
-2.68187e-08
6.41383e-06
-2.64369e-08
6.42062e-06
-2.56198e-08
6.4272e-06
-2.45344e-08
6.43355e-06
-2.32904e-08
6.43967e-06
-2.19727e-08
6.44556e-06
-2.06431e-08
6.45123e-06
-1.9336e-08
6.45671e-06
-1.80711e-08
6.462e-06
-1.68544e-08
6.46711e-06
-1.56959e-08
-1.45936e-08
6.47206e-06
5.54632e-06
-5.05879e-09
5.54984e-06
-1.59804e-08
5.55538e-06
-2.45976e-08
5.56161e-06
-2.93582e-08
5.5681e-06
-3.18923e-08
5.57475e-06
-3.31832e-08
5.58133e-06
-3.34081e-08
5.58773e-06
-3.28383e-08
5.5939e-06
-3.17919e-08
5.59983e-06
-3.04662e-08
5.60552e-06
-2.89784e-08
5.61096e-06
-2.74198e-08
5.61618e-06
-2.58591e-08
5.62118e-06
-2.43403e-08
5.62599e-06
-2.28794e-08
5.63061e-06
-2.14857e-08
5.63508e-06
-2.01605e-08
-1.89041e-08
5.63939e-06
4.82819e-06
-5.63725e-09
4.83187e-06
-1.96645e-08
4.83756e-06
-3.02853e-08
4.8436e-06
-3.53965e-08
4.84987e-06
-3.81627e-08
4.85623e-06
-3.95448e-08
4.86241e-06
-3.95888e-08
4.8683e-06
-3.87286e-08
4.8739e-06
-3.73981e-08
4.87924e-06
-3.58059e-08
4.88432e-06
-3.40586e-08
4.88915e-06
-3.22513e-08
4.89375e-06
-3.04612e-08
4.89814e-06
-2.87327e-08
4.90234e-06
-2.70842e-08
4.90637e-06
-2.55169e-08
4.91025e-06
-2.40344e-08
-2.26262e-08
4.91397e-06
4.20254e-06
-5.50409e-09
4.20685e-06
-2.39733e-08
4.21254e-06
-3.59679e-08
4.21822e-06
-4.10813e-08
4.22428e-06
-4.42241e-08
4.23045e-06
-4.57104e-08
4.23634e-06
-4.54797e-08
4.24186e-06
-4.42486e-08
4.24704e-06
-4.25767e-08
4.2519e-06
-4.06676e-08
4.25646e-06
-3.86201e-08
4.26074e-06
-3.65324e-08
4.26477e-06
-3.44908e-08
4.26858e-06
-3.25394e-08
4.27218e-06
-3.06917e-08
4.27561e-06
-2.89473e-08
4.27888e-06
-2.73054e-08
-2.57503e-08
4.28201e-06
3.65588e-06
-2.74616e-09
3.66209e-06
-3.01796e-08
3.66837e-06
-4.22424e-08
3.67415e-06
-4.68697e-08
3.68028e-06
-5.03465e-08
3.68633e-06
-5.17593e-08
3.69196e-06
-5.11105e-08
3.69714e-06
-4.94314e-08
3.70192e-06
-4.73538e-08
3.70631e-06
-4.50598e-08
3.71033e-06
-4.264e-08
3.71401e-06
-4.02109e-08
3.71738e-06
-3.78616e-08
3.72048e-06
-3.56397e-08
3.72335e-06
-3.35554e-08
3.726e-06
-3.16027e-08
3.72848e-06
-2.978e-08
-2.80627e-08
3.73079e-06
3.17749e-06
4.79342e-09
3.18658e-06
-3.92606e-08
3.1946e-06
-5.0267e-08
3.20192e-06
-5.4187e-08
3.20902e-06
-5.74446e-08
3.2153e-06
-5.8042e-08
3.22067e-06
-5.64771e-08
3.22528e-06
-5.40454e-08
3.22927e-06
-5.13394e-08
3.23269e-06
-4.84791e-08
3.23559e-06
-4.55467e-08
3.23804e-06
-4.26558e-08
3.24008e-06
-3.99026e-08
3.24177e-06
-3.73262e-08
3.24315e-06
-3.49367e-08
3.24428e-06
-3.27315e-08
3.24521e-06
-3.07009e-08
-2.88509e-08
3.24599e-06
2.76716e-06
1.0364e-08
2.7772e-06
-4.92965e-08
2.78552e-06
-5.85837e-08
2.79437e-06
-6.30383e-08
2.80264e-06
-6.57139e-08
2.80904e-06
-6.44484e-08
2.81344e-06
-6.0874e-08
2.81609e-06
-5.66919e-08
2.81729e-06
-5.25386e-08
2.81732e-06
-4.85137e-08
2.81644e-06
-4.46598e-08
2.81484e-06
-4.1052e-08
2.81267e-06
-3.77384e-08
2.81008e-06
-3.47274e-08
2.80715e-06
-3.20073e-08
2.804e-06
-2.95727e-08
2.8007e-06
-2.74046e-08
-2.55444e-08
2.79739e-06
2.44884e-06
-2.46694e-08
2.45706e-06
-5.75218e-08
2.45664e-06
-5.81587e-08
2.45421e-06
-6.06095e-08
2.44928e-06
-6.07778e-08
2.44141e-06
-5.65841e-08
2.43086e-06
-5.03218e-08
2.41821e-06
-4.40354e-08
2.4041e-06
-3.84281e-08
2.38915e-06
-3.35676e-08
2.37388e-06
-2.93893e-08
2.35864e-06
-2.58126e-08
2.34367e-06
-2.27563e-08
2.32908e-06
-2.01439e-08
2.315e-06
-1.79165e-08
2.30147e-06
-1.60411e-08
2.28856e-06
-1.44909e-08
-1.34301e-08
2.27644e-06
2.07667e-06
2.01915e-06
1.96099e-06
1.90038e-06
1.8396e-06
1.78302e-06
1.7327e-06
1.68866e-06
1.65023e-06
1.61666e-06
1.58728e-06
1.56146e-06
1.53871e-06
1.51856e-06
1.50065e-06
1.48461e-06
1.47012e-06
1.45669e-06
2.49377e-08
-2.48944e-08
9.38252e-08
-6.88421e-08
1.70372e-07
-7.65057e-08
2.41083e-07
-7.0697e-08
3.00691e-07
-5.95793e-08
3.469e-07
-4.6202e-08
3.7894e-07
-3.20098e-08
3.96681e-07
-1.77216e-08
4.0033e-07
-3.61452e-09
3.90989e-07
9.37635e-09
3.71277e-07
1.97495e-08
3.44978e-07
2.63361e-08
3.16202e-07
2.88081e-08
2.88109e-07
2.81031e-08
2.61809e-07
2.63187e-08
2.36123e-07
2.56518e-08
2.09068e-07
2.70659e-08
1.78563e-07
3.04607e-08
1.42586e-07
3.60068e-08
9.84962e-08
4.41033e-08
4.45196e-08
5.40542e-08
-2.11034e-08
6.57243e-08
-1.00254e-07
7.92352e-08
-1.91681e-07
9.1525e-08
-2.92889e-07
1.01263e-07
-4.01287e-07
1.08442e-07
-5.14563e-07
1.13295e-07
-6.30579e-07
1.16002e-07
-7.47363e-07
1.16783e-07
-8.63343e-07
1.15929e-07
-9.77106e-07
1.13767e-07
-1.08779e-06
1.10619e-07
-1.19455e-06
1.06775e-07
-1.29708e-06
1.02477e-07
-1.39497e-06
9.79361e-08
-1.48832e-06
9.3306e-08
-1.57699e-06
8.87151e-08
-1.66126e-06
8.42378e-08
-1.74115e-06
7.99375e-08
-1.81702e-06
7.58315e-08
-1.88891e-06
7.19397e-08
-1.95719e-06
6.82429e-08
-2.02188e-06
6.47365e-08
-2.08329e-06
6.13837e-08
-2.14139e-06
5.81688e-08
-2.19646e-06
5.50468e-08
-2.24838e-06
5.19982e-08
-2.29737e-06
4.89759e-08
-2.34326e-06
4.59587e-08
-2.38618e-06
4.2897e-08
-2.4259e-06
3.97749e-08
-2.46248e-06
3.65477e-08
-2.49564e-06
3.32099e-08
-2.5254e-06
2.97169e-08
-2.55138e-06
2.60521e-08
-2.57357e-06
2.21654e-08
-2.59156e-06
1.80634e-08
-2.60532e-06
1.37416e-08
-2.61451e-06
9.29885e-09
-2.61934e-06
4.83279e-09
-2.61984e-06
6.15252e-10
-2.61652e-06
-3.29357e-09
-2.60931e-06
-7.05364e-09
-2.5984e-06
-1.08384e-08
-2.58359e-06
-1.46324e-08
-2.56506e-06
-1.84514e-08
-2.54258e-06
-2.23146e-08
-2.51635e-06
-2.61464e-08
-2.48631e-06
-2.98913e-08
-2.45256e-06
-3.36806e-08
-2.41495e-06
-3.74649e-08
-2.37395e-06
-4.09244e-08
-2.32924e-06
-4.45691e-08
-2.28119e-06
-4.79524e-08
-2.23045e-06
-5.0588e-08
-2.17633e-06
-5.39804e-08
-2.11928e-06
-5.68843e-08
-2.06015e-06
-5.89626e-08
-1.99892e-06
-6.10521e-08
-1.93574e-06
-6.29557e-08
-1.87088e-06
-6.46635e-08
-1.80446e-06
-6.61584e-08
-1.73666e-06
-6.76106e-08
-1.66832e-06
-6.8059e-08
-1.59951e-06
-6.86243e-08
-1.52998e-06
-6.92796e-08
-1.46067e-06
-6.92308e-08
-1.39153e-06
-6.91156e-08
-1.32287e-06
-6.8774e-08
-1.25484e-06
-6.82705e-08
-1.18749e-06
-6.75528e-08
-1.12101e-06
-6.66674e-08
-1.05552e-06
-6.56204e-08
-9.91194e-07
-6.4448e-08
-9.28103e-07
-6.31705e-08
-8.66345e-07
-6.18189e-08
-8.0595e-07
-6.0405e-08
-7.46981e-07
-5.89489e-08
-6.89435e-07
-5.74638e-08
-6.33346e-07
-5.59643e-08
-5.78688e-07
-5.44583e-08
-5.25464e-07
-5.2951e-08
-4.73636e-07
-5.14703e-08
-4.23195e-07
-5.00087e-08
-3.7414e-07
-4.85944e-08
-3.26452e-07
-4.72139e-08
-2.80122e-07
-4.59011e-08
-2.35093e-07
-4.46378e-08
-1.91316e-07
-4.34572e-08
-1.48742e-07
-4.23027e-08
-1.07323e-07
-4.12102e-08
-6.69746e-08
-4.01803e-08
-2.77245e-08
-3.91274e-08
1.05524e-08
-3.81855e-08
4.80459e-08
-3.74434e-08
8.464e-08
-3.65574e-08
1.20202e-07
-3.55568e-08
1.54733e-07
-3.45362e-08
1.88258e-07
-3.35586e-08
2.20867e-07
-3.2617e-08
2.52623e-07
-3.17288e-08
2.83597e-07
-3.08834e-08
3.13804e-07
-3.00978e-08
3.43283e-07
-2.93537e-08
3.72034e-07
-2.86632e-08
4.00121e-07
-2.80066e-08
4.2755e-07
-2.73928e-08
4.54382e-07
-2.67958e-08
4.80629e-07
-2.6248e-08
5.06374e-07
-2.57383e-08
5.31614e-07
-2.52668e-08
5.56405e-07
-2.48063e-08
5.80737e-07
-2.43813e-08
6.04673e-07
-2.3976e-08
6.28196e-07
-2.36006e-08
6.51343e-07
-2.32242e-08
6.74075e-07
-2.28535e-08
6.96392e-07
-2.24584e-08
7.18239e-07
-2.2046e-08
7.39624e-07
-2.16072e-08
7.60532e-07
-2.11434e-08
7.80968e-07
-2.06522e-08
8.00923e-07
-2.01491e-08
8.20401e-07
-1.96469e-08
8.39397e-07
-1.91475e-08
8.5789e-07
-1.8625e-08
8.75833e-07
-1.80618e-08
8.93167e-07
-1.74373e-08
9.09814e-07
-1.67409e-08
9.25688e-07
-1.59556e-08
9.40675e-07
-1.50661e-08
9.5466e-07
-1.40551e-08
9.67537e-07
-1.29477e-08
9.7925e-07
-1.17781e-08
9.89759e-07
-1.0577e-08
9.99092e-07
-9.39688e-09
1.00733e-06
-8.30572e-09
1.01461e-06
-7.34488e-09
1.02107e-06
-6.53626e-09
1.02688e-06
-5.87456e-09
1.03213e-06
-5.32824e-09
1.03692e-06
-4.86643e-09
1.04131e-06
-4.47039e-09
1.04535e-06
-4.11304e-09
1.04904e-06
-3.76882e-09
1.05237e-06
-3.40776e-09
1.05532e-06
-3.02718e-09
1.05785e-06
-2.61277e-09
1.05996e-06
-2.18128e-09
1.06157e-06
-1.6852e-09
1.0626e-06
-1.09459e-09
1.06279e-06
-2.60001e-10
1.06174e-06
9.91496e-10
1.05896e-06
2.73364e-09
1.05378e-06
5.13128e-09
1.0452e-06
8.53797e-09
1.03123e-06
1.39283e-08
1.00854e-06
2.26501e-08
9.68929e-07
3.95815e-08
6.49403e-08
9.03967e-07
6.89976e-08
-9.38557e-08
1.38245e-07
-1.38054e-07
1.91344e-07
-1.29578e-07
2.2899e-07
-1.08331e-07
2.54205e-07
-8.4776e-08
2.69298e-07
-6.12858e-08
2.75818e-07
-3.85096e-08
2.74943e-07
-1.68299e-08
2.67923e-07
3.43026e-09
2.55241e-07
2.20881e-08
2.36342e-07
3.86767e-08
2.10372e-07
5.23376e-08
1.76688e-07
6.25166e-08
1.34875e-07
6.99281e-08
8.43214e-08
7.6884e-08
2.38935e-08
8.60653e-08
-4.82127e-08
9.91718e-08
-1.33909e-07
1.16144e-07
-2.33166e-07
1.3527e-07
-3.43949e-07
1.54896e-07
-4.63533e-07
1.7366e-07
-5.8838e-07
1.90601e-07
-7.14072e-07
2.04954e-07
-8.38312e-07
2.15797e-07
-9.59665e-07
2.22638e-07
-1.07673e-06
2.25522e-07
-1.18828e-06
2.24861e-07
-1.29352e-06
2.21235e-07
-1.39201e-06
2.15268e-07
-1.48372e-06
2.07624e-07
-1.56887e-06
1.98906e-07
-1.64785e-06
1.89573e-07
-1.72107e-06
1.79995e-07
-1.78907e-06
1.70456e-07
-1.85228e-06
1.6116e-07
-1.91123e-06
1.5224e-07
-1.96628e-06
1.43774e-07
-2.01785e-06
1.35794e-07
-2.06619e-06
1.28299e-07
-2.11164e-06
1.21263e-07
-2.15433e-06
1.14646e-07
-2.1945e-06
1.08393e-07
-2.23219e-06
1.02452e-07
-2.26757e-06
9.67583e-08
-2.30064e-06
9.12579e-08
-2.33147e-06
8.58901e-08
-2.36005e-06
8.06034e-08
-2.38641e-06
7.53447e-08
-2.41048e-06
7.0072e-08
-2.43232e-06
6.47404e-08
-2.45184e-06
5.93218e-08
-2.46908e-06
5.37886e-08
-2.48397e-06
4.81274e-08
-2.49656e-06
4.23174e-08
-2.50683e-06
3.63515e-08
-2.51487e-06
3.02207e-08
-2.52071e-06
2.3939e-08
-2.52446e-06
1.7517e-08
-2.52609e-06
1.09798e-08
-2.52556e-06
4.3245e-09
-2.5224e-06
-2.48322e-09
-2.51616e-06
-9.49445e-09
-2.50645e-06
-1.66807e-08
-2.4932e-06
-2.40264e-08
-2.47626e-06
-3.14853e-08
-2.45561e-06
-3.90324e-08
-2.43119e-06
-4.66421e-08
-2.403e-06
-5.42672e-08
-2.37098e-06
-6.18357e-08
-2.33524e-06
-6.93537e-08
-2.29587e-06
-7.67552e-08
-2.25282e-06
-8.39006e-08
-2.20652e-06
-9.07866e-08
-2.15702e-06
-9.73647e-08
-2.10401e-06
-1.03514e-07
-2.04851e-06
-1.09378e-07
-1.99054e-06
-1.14748e-07
-1.92986e-06
-1.19528e-07
-1.86702e-06
-1.23778e-07
-1.8023e-06
-1.27549e-07
-1.73602e-06
-1.30812e-07
-1.66847e-06
-1.33564e-07
-1.60024e-06
-1.35708e-07
-1.53095e-06
-1.37194e-07
-1.46118e-06
-1.38263e-07
-1.39149e-06
-1.38842e-07
-1.32178e-06
-1.38875e-07
-1.25239e-06
-1.38477e-07
-1.18357e-06
-1.37683e-07
-1.11543e-06
-1.36494e-07
-1.04814e-06
-1.34952e-07
-9.81797e-07
-1.33076e-07
-9.16546e-07
-1.30917e-07
-8.52494e-07
-1.28526e-07
-7.89725e-07
-1.25946e-07
-7.28307e-07
-1.23227e-07
-6.68277e-07
-1.204e-07
-6.0967e-07
-1.17502e-07
-5.52489e-07
-1.14558e-07
-4.96748e-07
-1.11599e-07
-4.42418e-07
-1.08637e-07
-3.89495e-07
-1.05694e-07
-3.3794e-07
-1.02792e-07
-2.87755e-07
-9.99494e-08
-2.38899e-07
-9.71811e-08
-1.91368e-07
-9.45036e-08
-1.45108e-07
-9.19304e-08
-1.00093e-07
-8.947e-08
-5.62379e-08
-8.71493e-08
-1.34738e-08
-8.49487e-08
2.82799e-08
-8.28632e-08
6.90078e-08
-8.08426e-08
1.08782e-07
-7.8847e-08
1.47536e-07
-7.6912e-08
1.8515e-07
-7.50339e-08
2.21744e-07
-7.31448e-08
2.57455e-07
-7.12637e-08
2.92323e-07
-6.94178e-08
3.26388e-07
-6.76372e-08
3.59689e-07
-6.59279e-08
3.92278e-07
-6.42989e-08
4.24183e-07
-6.27465e-08
4.55424e-07
-6.12757e-08
4.86009e-07
-5.9881e-08
5.15965e-07
-5.85654e-08
5.45311e-07
-5.7318e-08
5.74081e-07
-5.61346e-08
6.02301e-07
-5.50028e-08
6.30005e-07
-5.39442e-08
6.57221e-07
-5.29574e-08
6.8398e-07
-5.20314e-08
7.10302e-07
-5.1144e-08
7.36208e-07
-5.03065e-08
7.61712e-07
-4.9511e-08
7.86824e-07
-4.8751e-08
8.11545e-07
-4.79992e-08
8.35871e-07
-4.72494e-08
8.59797e-07
-4.64827e-08
8.83309e-07
-4.56821e-08
9.06396e-07
-4.48414e-08
9.2906e-07
-4.3956e-08
9.513e-07
-4.30318e-08
9.7311e-07
-4.20813e-08
9.94477e-07
-4.11227e-08
1.01538e-06
-4.01469e-08
1.03579e-06
-3.91236e-08
1.05567e-06
-3.80116e-08
1.07495e-06
-3.67867e-08
1.09358e-06
-3.54324e-08
1.11149e-06
-3.39287e-08
1.12863e-06
-3.22481e-08
1.14491e-06
-3.03832e-08
1.16029e-06
-2.83753e-08
1.17476e-06
-2.62923e-08
1.18832e-06
-2.41836e-08
1.20101e-06
-2.21308e-08
1.2129e-06
-2.02398e-08
1.22409e-06
-1.85747e-08
1.23465e-06
-1.71484e-08
1.24467e-06
-1.59373e-08
1.25417e-06
-1.48844e-08
1.26319e-06
-1.39401e-08
1.27174e-06
-1.30708e-08
1.2798e-06
-1.2236e-08
1.28736e-06
-1.13959e-08
1.2944e-06
-1.05041e-08
1.30086e-06
-9.55976e-09
1.30674e-06
-8.55652e-09
1.31201e-06
-7.50691e-09
1.31662e-06
-6.35754e-09
1.32051e-06
-5.04284e-09
1.32365e-06
-3.46345e-09
1.32607e-06
-1.47774e-09
1.32761e-06
1.14931e-09
1.32794e-06
4.76141e-09
1.3266e-06
9.84744e-09
1.32284e-06
1.76565e-08
1.31562e-06
2.98417e-08
1.30299e-06
5.21912e-08
8.90208e-08
1.2789e-06
6.45149e-08
-1.5834e-07
9.73034e-08
-1.70813e-07
1.13725e-07
-1.45977e-07
1.21262e-07
-1.15857e-07
1.22267e-07
-8.5764e-08
1.17381e-07
-5.639e-08
1.0683e-07
-2.79413e-08
9.06739e-08
-6.57077e-10
6.87724e-08
2.53534e-08
4.07972e-08
5.00867e-08
6.0681e-09
7.34278e-08
-3.6818e-08
9.52449e-08
-8.99846e-08
1.15698e-07
-1.55615e-07
1.35567e-07
-2.34859e-07
1.56131e-07
-3.27137e-07
1.78339e-07
-4.29999e-07
2.02032e-07
-5.39792e-07
2.2593e-07
-6.5282e-07
2.48297e-07
-7.65675e-07
2.67753e-07
-8.7543e-07
2.83421e-07
-9.79701e-07
2.94885e-07
-1.07677e-06
3.0203e-07
-1.16589e-06
3.04935e-07
-1.24716e-06
3.03921e-07
-1.32117e-06
2.99542e-07
-1.38872e-06
2.9242e-07
-1.45072e-06
2.83226e-07
-1.50805e-06
2.726e-07
-1.56154e-06
2.61105e-07
-1.61182e-06
2.49191e-07
-1.65948e-06
2.37213e-07
-1.70492e-06
2.25435e-07
-1.74851e-06
2.14038e-07
-1.79048e-06
2.03136e-07
-1.83104e-06
1.92788e-07
-1.87027e-06
1.83012e-07
-1.90828e-06
1.73794e-07
-1.94508e-06
1.651e-07
-1.98071e-06
1.56878e-07
-2.01513e-06
1.49069e-07
-2.04835e-06
1.41607e-07
-2.08032e-06
1.34425e-07
-2.11102e-06
1.27455e-07
-2.14038e-06
1.20632e-07
-2.16838e-06
1.13892e-07
-2.19493e-06
1.07178e-07
-2.22e-06
1.00432e-07
-2.24351e-06
9.36046e-08
-2.26541e-06
8.6651e-08
-2.2856e-06
7.95341e-08
-2.30402e-06
7.22216e-08
-2.32055e-06
6.46885e-08
-2.33512e-06
5.69103e-08
-2.34761e-06
4.88673e-08
-2.35791e-06
4.05427e-08
-2.36586e-06
3.19265e-08
-2.37133e-06
2.3007e-08
-2.37409e-06
1.37721e-08
-2.37395e-06
4.20483e-09
-2.37069e-06
-5.70894e-09
-2.36418e-06
-1.59685e-08
-2.35428e-06
-2.65387e-08
-2.3409e-06
-3.73757e-08
-2.32391e-06
-4.84248e-08
-2.30326e-06
-5.96343e-08
-2.27891e-06
-7.09508e-08
-2.25082e-06
-8.23081e-08
-2.21898e-06
-9.36204e-08
-2.18346e-06
-1.04827e-07
-2.14433e-06
-1.15833e-07
-2.10166e-06
-1.26513e-07
-2.05562e-06
-1.36772e-07
-2.00636e-06
-1.46554e-07
-1.95405e-06
-1.55762e-07
-1.899e-06
-1.64351e-07
-1.8414e-06
-1.72275e-07
-1.78138e-06
-1.79474e-07
-1.71923e-06
-1.85847e-07
-1.65527e-06
-1.91417e-07
-1.58985e-06
-1.96151e-07
-1.52327e-06
-2.00054e-07
-1.45581e-06
-2.03067e-07
-1.38766e-06
-2.05252e-07
-1.31914e-06
-2.06683e-07
-1.25058e-06
-2.07323e-07
-1.18216e-06
-2.0724e-07
-1.11413e-06
-2.06492e-07
-1.04669e-06
-2.05126e-07
-9.80033e-07
-2.03204e-07
-9.14254e-07
-2.00757e-07
-8.49476e-07
-1.97849e-07
-7.85821e-07
-1.94554e-07
-7.23375e-07
-1.90934e-07
-6.62216e-07
-1.8706e-07
-6.02392e-07
-1.82989e-07
-5.43943e-07
-1.78778e-07
-4.86884e-07
-1.74471e-07
-4.31226e-07
-1.70114e-07
-3.76963e-07
-1.65741e-07
-3.24073e-07
-1.61381e-07
-2.7254e-07
-1.57062e-07
-2.2233e-07
-1.52808e-07
-1.73431e-07
-1.48655e-07
-1.25801e-07
-1.44611e-07
-7.94214e-08
-1.40714e-07
-3.4212e-08
-1.36982e-07
9.85855e-09
-1.33423e-07
5.28243e-08
-1.30011e-07
9.46858e-08
-1.2674e-07
1.35477e-07
-1.23592e-07
1.75224e-07
-1.20553e-07
2.14009e-07
-1.176e-07
2.51841e-07
-1.14732e-07
2.88746e-07
-1.11927e-07
3.24774e-07
-1.09176e-07
3.59993e-07
-1.06486e-07
3.94433e-07
-1.03875e-07
4.28138e-07
-1.01355e-07
4.61135e-07
-9.89369e-08
4.93469e-07
-9.66205e-08
5.25157e-07
-9.44091e-08
5.56222e-07
-9.22994e-08
5.86669e-07
-9.02939e-08
6.16525e-07
-8.83876e-08
6.45804e-07
-8.65777e-08
6.74541e-07
-8.48538e-08
7.02755e-07
-8.32126e-08
7.30477e-07
-8.16605e-08
7.57717e-07
-8.02024e-08
7.84504e-07
-7.88221e-08
8.10852e-07
-7.75059e-08
8.3678e-07
-7.62478e-08
8.62292e-07
-7.50481e-08
8.87407e-07
-7.38939e-08
9.12132e-07
-7.27662e-08
9.36474e-07
-7.16446e-08
9.60423e-07
-7.05056e-08
9.83973e-07
-6.93244e-08
1.00712e-06
-6.80881e-08
1.02985e-06
-6.67974e-08
1.05219e-06
-6.54586e-08
1.07412e-06
-6.40835e-08
1.0956e-06
-6.26782e-08
1.11663e-06
-6.123e-08
1.13716e-06
-5.97009e-08
1.15715e-06
-5.8049e-08
1.17656e-06
-5.62415e-08
1.19536e-06
-5.42605e-08
1.21348e-06
-5.20827e-08
1.23089e-06
-4.96877e-08
1.24756e-06
-4.70789e-08
1.26347e-06
-4.43082e-08
1.27861e-06
-4.1456e-08
1.293e-06
-3.86015e-08
1.30669e-06
-3.58401e-08
1.31971e-06
-3.32894e-08
1.33213e-06
-3.10188e-08
1.34399e-06
-2.90346e-08
1.35533e-06
-2.7295e-08
1.36615e-06
-2.57347e-08
1.37647e-06
-2.42856e-08
1.38627e-06
-2.29032e-08
1.39555e-06
-2.15386e-08
1.40427e-06
-2.01523e-08
1.41244e-06
-1.86969e-08
1.42001e-06
-1.71698e-08
1.42699e-06
-1.55666e-08
1.43335e-06
-1.38913e-08
1.43905e-06
-1.20895e-08
1.44406e-06
-1.00847e-08
1.44833e-06
-7.76422e-09
1.4518e-06
-4.97718e-09
1.45437e-06
-1.44629e-09
1.45584e-06
3.26992e-09
1.45586e-06
9.80352e-09
1.45405e-06
1.94461e-08
1.44982e-06
3.40475e-08
1.44368e-06
5.83086e-08
9.68388e-08
1.43585e-06
2.69875e-08
-1.85303e-07
2.43923e-08
-1.682e-07
1.48298e-08
-1.36397e-07
1.40971e-09
-1.02426e-07
-1.58947e-08
-6.84461e-08
-3.75543e-08
-3.47208e-08
-6.41333e-08
-1.34685e-09
-9.63574e-08
3.15809e-08
-1.35022e-07
6.4033e-08
-1.80848e-07
9.59298e-08
-2.34621e-07
1.27214e-07
-2.97198e-07
1.57836e-07
-3.69248e-07
1.87755e-07
-4.50622e-07
2.16947e-07
-5.39766e-07
2.45276e-07
-6.33745e-07
2.72314e-07
-7.28913e-07
2.97196e-07
-8.21796e-07
3.18807e-07
-9.09725e-07
3.36222e-07
-9.90967e-07
3.48991e-07
-1.06469e-06
3.5714e-07
-1.13076e-06
3.6096e-07
-1.18961e-06
3.60883e-07
-1.24209e-06
3.57425e-07
-1.28932e-06
3.51149e-07
-1.33241e-06
3.4264e-07
-1.37244e-06
3.32454e-07
-1.41033e-06
3.21111e-07
-1.44678e-06
3.09058e-07
-1.48235e-06
2.96666e-07
-1.51738e-06
2.84218e-07
-1.55211e-06
2.71933e-07
-1.58664e-06
2.59971e-07
-1.62105e-06
2.48435e-07
-1.6553e-06
2.37384e-07
-1.68936e-06
2.26841e-07
-1.72315e-06
2.16799e-07
-1.7566e-06
2.07232e-07
-1.78959e-06
1.98099e-07
-1.82207e-06
1.89346e-07
-1.85392e-06
1.80915e-07
-1.88506e-06
1.72741e-07
-1.9154e-06
1.64758e-07
-1.94485e-06
1.569e-07
-1.97331e-06
1.49104e-07
-2.00072e-06
1.41303e-07
-2.02696e-06
1.33438e-07
-2.05197e-06
1.2545e-07
-2.07563e-06
1.17284e-07
-2.09785e-06
1.08891e-07
-2.11852e-06
1.00224e-07
-2.13752e-06
9.12441e-08
-2.15471e-06
8.19141e-08
-2.16998e-06
7.21998e-08
-2.18315e-06
6.20719e-08
-2.19409e-06
5.15033e-08
-2.2026e-06
4.04722e-08
-2.20853e-06
2.89596e-08
-2.21168e-06
1.69513e-08
-2.2119e-06
4.44264e-09
-2.20903e-06
-8.56077e-09
-2.20294e-06
-2.20371e-08
-2.19351e-06
-3.59447e-08
-2.18064e-06
-5.02304e-08
-2.16421e-06
-6.48279e-08
-2.14415e-06
-7.9665e-08
-2.12041e-06
-9.46621e-08
-2.09297e-06
-1.09725e-07
-2.0618e-06
-1.24745e-07
-2.02698e-06
-1.39614e-07
-1.98856e-06
-1.54207e-07
-1.94664e-06
-1.68386e-07
-1.90133e-06
-1.82026e-07
-1.85282e-06
-1.95015e-07
-1.80129e-06
-2.07235e-07
-1.74698e-06
-2.18598e-07
-1.69011e-06
-2.29088e-07
-1.63092e-06
-2.38594e-07
-1.56969e-06
-2.47011e-07
-1.50673e-06
-2.54312e-07
-1.44235e-06
-2.60468e-07
-1.37685e-06
-2.65479e-07
-1.31051e-06
-2.69335e-07
-1.24359e-06
-2.72088e-07
-1.17642e-06
-2.73783e-07
-1.10923e-06
-2.74444e-07
-1.04227e-06
-2.74148e-07
-9.75762e-07
-2.72964e-07
-9.09918e-07
-2.70977e-07
-8.44872e-07
-2.68245e-07
-7.80747e-07
-2.64862e-07
-7.17654e-07
-2.60897e-07
-6.55698e-07
-2.56444e-07
-5.94967e-07
-2.5159e-07
-5.35518e-07
-2.4642e-07
-4.77399e-07
-2.41012e-07
-4.20635e-07
-2.35433e-07
-3.6524e-07
-2.29749e-07
-3.11213e-07
-2.24011e-07
-2.58545e-07
-2.18267e-07
-2.07211e-07
-2.12555e-07
-1.57183e-07
-2.06913e-07
-1.08438e-07
-2.01366e-07
-6.09358e-08
-1.95969e-07
-1.46347e-08
-1.9074e-07
3.04944e-08
-1.85694e-07
7.44588e-08
-1.80824e-07
1.17277e-07
-1.76143e-07
1.58984e-07
-1.71641e-07