/*--------------------------------*- C++ -*----------------------------------*\
| =========                 |                                                 |
| \\      /  F ield         | OpenFOAM: The Open Source CFD Toolbox           |
|  \\    /   O peration     | Version:  2312                                  |
|   \\  /    A nd           | Website:  www.openfoam.com                      |
|    \\/     M anipulation  |                                                 |
\*---------------------------------------------------------------------------*/
FoamFile
{
    version     2.0;
    format      ascii;
    arch        "LSB;label=32;scalar=64";
    class       surfaceScalarField;
    location    "50";
    object      phi;
}
// * * * * * * * * * * * * * * * * * * * * * * * * * * * * * * * * * * * * * //

dimensions      [0 3 -1 0 0 0 0];

oriented        oriented;

internalField   nonuniform List<scalar> 
24170
(
2.96013e-07
2.28272e-08
2.55663e-07
4.03477e-08
2.24902e-07
3.07595e-08
2.00161e-07
2.47393e-08
1.829e-07
1.72586e-08
1.71662e-07
1.12355e-08
1.64096e-07
7.5639e-09
1.58586e-07
5.50699e-09
1.5434e-07
4.24312e-09
1.51017e-07
3.31975e-09
1.48466e-07
2.54792e-09
1.46627e-07
1.83509e-09
1.45508e-07
1.11549e-09
1.45168e-07
3.35218e-10
1.45773e-07
-6.09073e-10
1.47809e-07
-2.04141e-09
1.52025e-07
-4.22165e-09
-1.30714e-08
1.6509e-07
3.52306e-07
1.22457e-08
3.41695e-07
5.09564e-08
3.25204e-07
4.72474e-08
3.09867e-07
4.00729e-08
2.96306e-07
3.08173e-08
2.85247e-07
2.22903e-08
2.76619e-07
1.61886e-08
2.69945e-07
1.21777e-08
2.64761e-07
9.42327e-09
2.60732e-07
7.3434e-09
2.57652e-07
5.62353e-09
2.5541e-07
4.07194e-09
2.53976e-07
2.54296e-09
2.53412e-07
8.92711e-10
2.53896e-07
-1.09969e-09
2.55741e-07
-3.89423e-09
2.59899e-07
-8.38758e-09
-1.79623e-08
2.64782e-07
3.66877e-07
1.16201e-08
3.70277e-07
4.7556e-08
3.67018e-07
5.05049e-08
3.61238e-07
4.58518e-08
3.54028e-07
3.80267e-08
3.46693e-07
2.96235e-08
3.40131e-07
2.27502e-08
3.34641e-07
1.7666e-08
3.30207e-07
1.38557e-08
3.26711e-07
1.08372e-08
3.24042e-07
8.29063e-09
3.22127e-07
5.98487e-09
3.20941e-07
3.72642e-09
3.20515e-07
1.31658e-09
3.20943e-07
-1.53062e-09
3.22339e-07
-5.29289e-09
3.24708e-07
-1.07597e-08
-1.95012e-08
3.26244e-07
3.92631e-07
1.1528e-08
3.97442e-07
4.27436e-08
3.98646e-07
4.92987e-08
3.97263e-07
4.72333e-08
3.93949e-07
4.13395e-08
3.89625e-07
3.39452e-08
3.85183e-07
2.71907e-08
3.8114e-07
2.17071e-08
3.77702e-07
1.72908e-08
3.74915e-07
1.36216e-08
3.72766e-07
1.04374e-08
3.71233e-07
7.51523e-09
3.70307e-07
4.64932e-09
3.69998e-07
1.62177e-09
3.70323e-07
-1.85861e-09
3.71225e-07
-6.19922e-09
3.72387e-07
-1.19244e-08
-1.96944e-08
3.72577e-07
4.21402e-07
1.08384e-08
4.25937e-07
3.82083e-08
4.28766e-07
4.64697e-08
4.29623e-07
4.63757e-08
4.28733e-07
4.22287e-08
4.26612e-07
3.60654e-08
4.23946e-07
2.98568e-08
4.2125e-07
2.44024e-08
4.18812e-07
1.9728e-08
4.16766e-07
1.5667e-08
4.15167e-07
1.20351e-08
4.14037e-07
8.64457e-09
4.13381e-07
5.30369e-09
4.13196e-07
1.80512e-09
4.13444e-07
-2.10775e-09
4.13985e-07
-6.74143e-09
4.14447e-07
-1.23876e-08
-1.92306e-08
4.13983e-07
4.51802e-07
9.94453e-09
4.56044e-07
3.39656e-08
4.59597e-07
4.2916e-08
4.61748e-07
4.42231e-08
4.62456e-07
4.15194e-08
4.61959e-07
3.65611e-08
4.60739e-07
3.10749e-08
4.59239e-07
2.59019e-08
4.57748e-07
2.12165e-08
4.56439e-07
1.69744e-08
4.55405e-07
1.30672e-08
4.54695e-07
9.35336e-09
4.54324e-07
5.67217e-09
4.54281e-07
1.84667e-09
4.54496e-07
-2.32537e-09
4.54802e-07
-7.04901e-09
4.54859e-07
-1.24461e-08
-1.84669e-08
4.54094e-07
4.84167e-07
9.04893e-09
4.88164e-07
2.99684e-08
4.92048e-07
3.90321e-08
4.94976e-07
4.12946e-08
4.96764e-07
3.97313e-08
4.97475e-07
3.58495e-08
4.97426e-07
3.11238e-08
4.96963e-07
2.63645e-08
4.96346e-07
2.18326e-08
4.95749e-07
1.75712e-08
4.95279e-07
1.35363e-08
4.94998e-07
9.63397e-09
4.94926e-07
5.74265e-09
4.95046e-07
1.72639e-09
4.95277e-07
-2.55734e-09
4.95453e-07
-7.22577e-09
4.95297e-07
-1.22905e-08
-1.76071e-08
4.94438e-07
5.18836e-07
8.17104e-09
5.22579e-07
2.62241e-08
5.26577e-07
3.50329e-08
5.29971e-07
3.79001e-08
5.32497e-07
3.72043e-08
5.3411e-07
3.42347e-08
5.35001e-07
3.02319e-08
5.35424e-07
2.59405e-08
5.35592e-07
2.16628e-08
5.35662e-07
1.75e-08
5.35739e-07
1.34581e-08
5.35885e-07
9.48691e-09
5.3612e-07
5.50559e-09
5.36423e-07
1.42212e-09
5.36715e-07
-2.85021e-09
5.36849e-07
-7.36015e-09
5.36615e-07
-1.20569e-08
-1.67778e-08
5.35785e-07
5.56009e-07
7.29577e-09
5.59487e-07
2.27456e-08
5.63474e-07
3.10459e-08
5.67138e-07
3.42358e-08
5.7017e-07
3.41718e-08
5.72458e-07
3.19463e-08
5.74098e-07
2.85921e-08
5.75264e-07
2.47734e-08
5.76122e-07
2.08046e-08
5.768e-07
1.68216e-08
5.7739e-07
1.28674e-08
5.77947e-07
8.92882e-09
5.78489e-07
4.96313e-09
5.78991e-07
9.19327e-10
5.79383e-07
-3.24238e-09
5.79545e-07
-7.52264e-09
5.7933e-07
-1.18425e-08
-1.60542e-08
5.78607e-07
5.95853e-07
6.42002e-09
5.99071e-07
1.95263e-08
6.02973e-07
2.71431e-08
6.06781e-07
3.04272e-08
6.10157e-07
3.07947e-08
6.12946e-07
2.91556e-08
6.15176e-07
2.63607e-08
6.16958e-07
2.29908e-08
6.18408e-07
1.93537e-08
6.19625e-07
1.56033e-08
6.20682e-07
1.18084e-08
6.21624e-07
7.98541e-09
6.22462e-07
4.12428e-09
6.23172e-07
2.08558e-10
6.23695e-07
-3.76556e-09
6.2394e-07
-7.76857e-09
6.23812e-07
-1.17146e-08
-1.5486e-08
6.23243e-07
6.38551e-07
5.54972e-09
6.4152e-07
1.65572e-08
6.45295e-07
2.33676e-08
6.4916e-07
2.65624e-08
6.52762e-07
2.71918e-08
6.5592e-07
2.59965e-08
6.58611e-07
2.36691e-08
6.60893e-07
2.07089e-08
6.6284e-07
1.74054e-08
6.64523e-07
1.39193e-08
6.65995e-07
1.03356e-08
6.67287e-07
6.69309e-09
6.68403e-07
3.00747e-09
6.69321e-07
-7.10605e-10
6.69995e-07
-4.44049e-09
6.70363e-07
-8.13636e-09
6.70366e-07
-1.17185e-08
-1.50976e-08
6.69977e-07
5.74814e-07
4.81886e-09
5.7713e-07
1.42404e-08
5.80206e-07
2.02914e-08
5.83469e-07
2.32986e-08
5.86619e-07
2.40407e-08
5.89493e-07
2.3122e-08
5.92039e-07
2.11216e-08
5.94275e-07
1.84729e-08
5.96236e-07
1.54436e-08
5.97961e-07
1.21936e-08
5.99479e-07
8.81614e-09
6.00808e-07
5.3639e-09
6.01947e-07
1.8688e-09
6.02879e-07
-1.64275e-09
6.03574e-07
-5.13548e-09
6.03997e-07
-8.55882e-09
6.04119e-07
-1.18407e-08
-1.49183e-08
6.03939e-07
7.00618e-07
4.01586e-09
7.03095e-07
1.17627e-08
7.06463e-07
1.69231e-08
7.10153e-07
1.96076e-08
7.13828e-07
2.03649e-08
7.17286e-07
1.96637e-08
7.20442e-07
1.79645e-08
7.23284e-07
1.56297e-08
7.25828e-07
1.28991e-08
7.28095e-07
9.92549e-09
7.30104e-07
6.80647e-09
7.31864e-07
3.60393e-09
7.3337e-07
3.62439e-10
7.34607e-07
-2.87868e-09
7.35548e-07
-6.07688e-09
7.36171e-07
-9.17991e-09
7.36459e-07
-1.21299e-08
-1.48818e-08
7.36423e-07
8.53948e-07
3.15289e-09
8.56543e-07
9.16664e-09
8.60162e-07
1.33031e-08
8.64252e-07
1.55176e-08
8.68447e-07
1.6169e-08
8.72509e-07
1.56007e-08
8.76316e-07
1.41565e-08
8.79821e-07
1.21242e-08
8.83012e-07
9.70789e-09
8.85889e-07
7.04766e-09
8.88457e-07
4.23796e-09
8.90714e-07
1.34672e-09
8.92652e-07
-1.57543e-09
8.94256e-07
-4.48205e-09
8.95508e-07
-7.32813e-09
8.96395e-07
-1.00661e-08
8.96916e-07
-1.26504e-08
-1.50553e-08
8.97089e-07
1.04083e-06
2.24498e-09
1.04349e-06
6.50341e-09
1.04731e-06
9.48648e-09
1.05175e-06
1.1079e-08
1.05643e-06
1.14882e-08
1.06108e-06
1.09462e-08
1.06555e-06
9.69136e-09
1.06973e-06
7.93433e-09
1.07361e-06
5.83773e-09
1.07713e-06
3.51942e-09
1.0803e-06
1.06728e-09
1.0831e-06
-1.45557e-09
1.08552e-06
-3.9954e-09
1.08755e-06
-6.50785e-09
1.08917e-06
-8.94872e-09
1.09039e-06
-1.12802e-08
1.0912e-06
-1.34676e-08
-1.55001e-08
1.09165e-06
1.26861e-06
1.30996e-09
1.27131e-06
3.81053e-09
1.27526e-06
5.53001e-09
1.27999e-06
6.35381e-09
1.28509e-06
6.37989e-09
1.29029e-06
5.74634e-09
1.29539e-06
4.59983e-09
1.30024e-06
3.07792e-09
1.30478e-06
1.29436e-09
1.30896e-06
-6.6035e-10
1.31275e-06
-2.71709e-09
1.31611e-06
-4.82002e-09
1.31904e-06
-6.92444e-09
1.32152e-06
-8.98945e-09
1.32355e-06
-1.0981e-08
1.32514e-06
-1.28679e-08
1.3263e-06
-1.46295e-08
-1.62614e-08
1.32706e-06
1.54627e-06
3.5547e-10
1.54899e-06
1.08932e-09
1.55307e-06
1.45262e-09
1.55805e-06
1.37622e-09
1.56354e-06
8.89171e-10
1.56923e-06
5.14426e-11
1.5749e-06
-1.06799e-09
1.58037e-06
-2.39969e-09
1.58555e-06
-3.88134e-09
1.59035e-06
-5.45903e-09
1.59472e-06
-7.08784e-09
1.59863e-06
-8.73001e-09
1.60205e-06
-1.03531e-08
1.60499e-06
-1.19286e-08
1.60744e-06
-1.34318e-08
1.60941e-06
-1.48428e-08
1.61093e-06
-1.61489e-08
-1.73536e-08
1.61202e-06
1.88476e-06
-6.38177e-10
1.88759e-06
-1.74138e-09
1.89188e-06
-2.83915e-09
1.89719e-06
-3.93483e-09
1.90312e-06
-5.04076e-09
1.90933e-06
-6.1658e-09
1.91557e-06
-7.31269e-09
1.92165e-06
-8.47815e-09
1.92742e-06
-9.65468e-09
1.93279e-06
-1.08316e-08
1.9377e-06
-1.19963e-08
1.9421e-06
-1.3135e-08
1.94598e-06
-1.42337e-08
1.94933e-06
-1.52785e-08
1.95216e-06
-1.6257e-08
1.95447e-06
-1.71594e-08
1.9563e-06
-1.79807e-08
-1.87281e-08
1.95768e-06
2.29744e-06
-1.7425e-09
2.30063e-06
-4.94012e-09
2.3055e-06
-7.70689e-09
2.31152e-06
-9.96088e-09
2.31824e-06
-1.17576e-08
2.32526e-06
-1.3188e-08
2.33228e-06
-1.43394e-08
2.33909e-06
-1.52853e-08
2.34552e-06
-1.60859e-08
2.35147e-06
-1.67821e-08
2.35687e-06
-1.74023e-08
2.36169e-06
-1.79606e-08
2.36592e-06
-1.84653e-08
2.36956e-06
-1.89178e-08
2.37262e-06
-1.93189e-08
2.37513e-06
-1.96669e-08
2.37711e-06
-1.99637e-08
-2.02168e-08
2.3786e-06
1.68193e-06
-2.59891e-09
1.68444e-06
-7.4548e-09
1.68824e-06
-1.15127e-08
1.69287e-06
-1.45923e-08
1.69793e-06
-1.68164e-08
1.7031e-06
-1.8367e-08
1.70817e-06
-1.94084e-08
1.71297e-06
-2.00893e-08
1.71741e-06
-2.05251e-08
1.72143e-06
-2.0802e-08
1.725e-06
-2.09733e-08
1.72811e-06
-2.10764e-08
1.73078e-06
-2.11297e-08
1.733e-06
-2.11471e-08
1.73482e-06
-2.11325e-08
1.73624e-06
-2.10908e-08
1.7373e-06
-2.1023e-08
-2.09385e-08
1.73802e-06
1.46425e-06
-3.39436e-09
1.46676e-06
-9.9617e-09
1.47053e-06
-1.52895e-08
1.47501e-06
-1.90682e-08
1.47975e-06
-2.15681e-08
1.48447e-06
-2.30867e-08
1.48894e-06
-2.38821e-08
1.49304e-06
-2.41878e-08
1.4967e-06
-2.41869e-08
1.4999e-06
-2.40007e-08
1.50263e-06
-2.37103e-08
1.50492e-06
-2.33641e-08
1.50678e-06
-2.29927e-08
1.50825e-06
-2.26116e-08
1.50934e-06
-2.22299e-08
1.5101e-06
-2.18507e-08
1.51055e-06
-2.14762e-08
-2.1111e-08
1.51073e-06
1.27469e-06
-4.07406e-09
1.27729e-06
-1.25586e-08
1.28118e-06
-1.91796e-08
1.28562e-06
-2.35116e-08
1.29016e-06
-2.61147e-08
1.2945e-06
-2.74214e-08
1.29841e-06
-2.78005e-08
1.30182e-06
-2.7599e-08
1.3047e-06
-2.70683e-08
1.30706e-06
-2.63661e-08
1.30894e-06
-2.55895e-08
1.31037e-06
-2.47966e-08
1.3114e-06
-2.40207e-08
1.31206e-06
-2.32768e-08
1.31241e-06
-2.25723e-08
1.31246e-06
-2.19068e-08
1.31226e-06
-2.12795e-08
-2.06903e-08
1.31184e-06
1.10955e-06
-4.53484e-09
1.1123e-06
-1.53065e-08
1.11636e-06
-2.32427e-08
1.12079e-06
-2.79407e-08
1.12512e-06
-3.0443e-08
1.12901e-06
-3.13141e-08
1.13228e-06
-3.10708e-08
1.13489e-06
-3.0209e-08
1.13687e-06
-2.90535e-08
1.13829e-06
-2.77862e-08
1.13921e-06
-2.65116e-08
1.1397e-06
-2.52888e-08
1.13982e-06
-2.4144e-08
1.13963e-06
-2.30874e-08
1.13917e-06
-2.21165e-08
1.13849e-06
-2.12271e-08
1.13762e-06
-2.04092e-08
-1.96591e-08
1.13659e-06
9.65669e-07
-4.6823e-09
9.68619e-07
-1.8257e-08
9.72847e-07
-2.74713e-08
9.77194e-07
-3.22884e-08
9.81186e-07
-3.44366e-08
9.84457e-07
-3.45859e-08
9.86862e-07
-3.34764e-08
9.88449e-07
-3.17978e-08
9.89335e-07
-2.99395e-08
9.89635e-07
-2.80883e-08
9.89462e-07
-2.63397e-08
9.8891e-07
-2.47381e-08
9.88058e-07
-2.32939e-08
9.86971e-07
-2.20002e-08
9.85697e-07
-2.08438e-08
9.84277e-07
-1.98082e-08
9.82744e-07
-1.88764e-08
-1.8037e-08
9.81121e-07
8.40189e-07
-4.33584e-09
8.43494e-07
-2.15623e-08
8.47841e-07
-3.18192e-08
8.51938e-07
-3.63862e-08
8.55337e-07
-3.78355e-08
8.57651e-07
-3.6901e-08
8.58838e-07
-3.46642e-08
8.59083e-07
-3.2044e-08
8.58605e-07
-2.94615e-08
8.57589e-07
-2.70726e-08
8.56185e-07
-2.49372e-08
8.5451e-07
-2.30643e-08
8.52649e-07
-2.14335e-08
8.50662e-07
-2.00142e-08
8.48593e-07
-1.87758e-08
8.46474e-07
-1.76899e-08
8.44328e-07
-1.67311e-08
-1.58807e-08
8.42171e-07
7.30236e-07
-2.8435e-09
7.34395e-07
-2.57213e-08
7.38823e-07
-3.62479e-08
7.42356e-07
-3.99203e-08
7.44674e-07
-4.01542e-08
7.45471e-07
-3.76975e-08
7.44922e-07
-3.41159e-08
7.43408e-07
-3.05307e-08
7.41265e-07
-2.73193e-08
7.38741e-07
-2.4549e-08
7.36007e-07
-2.22038e-08
7.33177e-07
-2.02355e-08
7.30322e-07
-1.85789e-08
7.27482e-07
-1.71756e-08
7.24684e-07
-1.5978e-08
7.2194e-07
-1.49465e-08
7.19259e-07
-1.40508e-08
-1.32677e-08
7.16644e-07
6.33351e-07
8.11515e-10
6.39086e-07
-3.14558e-08
6.43255e-07
-4.04173e-08
6.45576e-07
-4.2243e-08
6.45932e-07
-4.05096e-08
6.44312e-07
-3.60784e-08
6.41297e-07
-3.11013e-08
6.37511e-07
-2.67455e-08
6.33394e-07
-2.32019e-08
6.29208e-07
-2.03633e-08
6.25098e-07
-1.80964e-08
6.21137e-07
-1.62741e-08
6.17349e-07
-1.47907e-08
6.13736e-07
-1.35635e-08
6.10292e-07
-1.2535e-08
6.07006e-07
-1.1661e-08
6.03868e-07
-1.09132e-08
-1.02691e-08
6.00867e-07
5.50619e-07
4.73882e-09
5.57107e-07
-3.79439e-08
5.58553e-07
-4.18644e-08
5.57579e-07
-4.12702e-08
5.54019e-07
-3.69501e-08
5.48425e-07
-3.04845e-08
5.41888e-07
-2.45645e-08
5.35215e-07
-2.0073e-08
5.28826e-07
-1.68129e-08
5.22881e-07
-1.44204e-08
5.17408e-07
-1.26243e-08
5.12373e-07
-1.124e-08
5.07726e-07
-1.01435e-08
5.03414e-07
-9.25185e-09
4.99391e-07
-8.51224e-09
4.95617e-07
-7.8878e-09
4.92063e-07
-7.36119e-09
-6.91453e-09
4.88707e-07
4.94471e-07
-6.97191e-09
4.90741e-07
-3.42142e-08
4.79561e-07
-3.06847e-08
4.679e-07
-2.96118e-08
4.55301e-07
-2.43512e-08
4.42842e-07
-1.80252e-08
4.31455e-07
-1.31788e-08
4.21456e-07
-1.00741e-08
4.12786e-07
-8.14305e-09
4.05241e-07
-6.87711e-09
3.98598e-07
-5.98337e-09
3.9267e-07
-5.31181e-09
3.87311e-07
-4.78526e-09
3.82417e-07
-4.35771e-09
3.77906e-07
-4.00129e-09
3.73716e-07
-3.69907e-09
3.69799e-07
-3.44634e-09
-3.24017e-09
3.66122e-07
4.13296e-07
3.79081e-07
3.48397e-07
3.18785e-07
2.94434e-07
2.76408e-07
2.63229e-07
2.53155e-07
2.45012e-07
2.38135e-07
2.32151e-07
2.2684e-07
2.22054e-07
2.17696e-07
2.13695e-07
2.09996e-07
2.06549e-07
2.03309e-07
7.35249e-09
-7.30231e-09
1.12967e-08
-3.86898e-09
9.16206e-09
2.21506e-09
1.5386e-09
7.69041e-09
-1.00553e-08
1.16693e-08
-2.44101e-08
1.44118e-08
-4.06984e-08
1.63552e-08
-5.84627e-08
1.781e-08
-7.72911e-08
1.88876e-08
-9.68565e-08
1.96003e-08
-1.16744e-07
1.99388e-08
-1.36621e-07
1.99028e-08
-1.56089e-07
1.95127e-08
-1.74873e-07
1.88056e-08
-1.92663e-07
1.78309e-08
-2.09285e-07
1.6641e-08
-2.24536e-07
1.52885e-08
-2.38337e-07
1.38194e-08
-2.50578e-07
1.22772e-08
-2.61256e-07
1.06954e-08
-2.70325e-07
9.10293e-09
-2.77826e-07
7.51863e-09
-2.83752e-07
5.95828e-09
-2.88161e-07
4.42973e-09
-2.91072e-07
2.94337e-09
-2.9256e-07
1.51391e-09
-2.92698e-07
1.74953e-10
-2.9163e-07
-1.03379e-09
-2.89482e-07
-2.10957e-09
-2.86355e-07
-3.0869e-09
-2.82332e-07
-3.98508e-09
-2.7747e-07
-4.81724e-09
-2.71845e-07
-5.58973e-09
-2.65493e-07
-6.30692e-09
-2.58494e-07
-6.97117e-09
-2.50866e-07
-7.58199e-09
-2.42701e-07
-8.14371e-09
-2.33998e-07
-8.65677e-09
-2.24861e-07
-9.12029e-09
-2.1528e-07
-9.53557e-09
-2.05364e-07
-9.90405e-09
-1.95097e-07
-1.0224e-08
-1.8459e-07
-1.05006e-08
-1.73817e-07
-1.07325e-08
-1.62893e-07
-1.09248e-08
-1.51779e-07
-1.10754e-08
-1.40592e-07
-1.11907e-08
-1.29282e-07
-1.12683e-08
-1.17969e-07
-1.13154e-08
-1.06588e-07
-1.13292e-08
-9.52631e-08
-1.13184e-08
-8.39181e-08
-1.12786e-08
-7.26813e-08
-1.12192e-08
-6.14713e-08
-1.11364e-08
-5.04167e-08
-1.10406e-08
-3.94177e-08
-1.09246e-08
-2.86039e-08
-1.08004e-08
-1.78725e-08
-1.06612e-08
-7.36989e-09
-1.05015e-08
3.06864e-09
-1.03796e-08
1.33421e-08
-1.02785e-08
2.34986e-08
-1.0114e-08
3.34061e-08
-9.92757e-09
4.31574e-08
-9.72434e-09
5.26499e-08
-9.51834e-09
6.1976e-08
-9.30532e-09
7.10469e-08
-9.09461e-09
7.99475e-08
-8.88079e-09
8.85977e-08
-8.67052e-09
9.70743e-08
-8.45822e-09
1.05307e-07
-8.25098e-09
1.13367e-07
-8.04278e-09
1.21191e-07
-7.83955e-09
1.28844e-07
-7.63566e-09
1.36271e-07
-7.43703e-09
1.43529e-07
-7.23862e-09
1.5057e-07
-7.0453e-09
1.57439e-07
-6.85212e-09
1.64093e-07
-6.66375e-09
1.70579e-07
-6.47578e-09
1.76857e-07
-6.29191e-09
1.82968e-07
-6.10871e-09
1.88878e-07
-5.92958e-09
1.94626e-07
-5.75123e-09
2.00182e-07
-5.57499e-09
2.05573e-07
-5.39731e-09
2.10782e-07
-5.23112e-09
2.15819e-07
-5.05888e-09
2.20673e-07
-4.88958e-09
2.25346e-07
-4.71949e-09
2.29862e-07
-4.55348e-09
2.3422e-07
-4.38649e-09
2.38425e-07
-4.22595e-09
2.42473e-07
-4.06519e-09
2.46363e-07
-3.90563e-09
2.50104e-07
-3.75528e-09
2.53694e-07
-3.60355e-09
2.5713e-07
-3.44812e-09
2.60419e-07
-3.29867e-09
2.63574e-07
-3.16396e-09
2.66582e-07
-3.01459e-09
2.69458e-07
-2.87948e-09
2.72196e-07
-2.73884e-09
2.74804e-07
-2.60497e-09
2.77299e-07
-2.49226e-09
2.79659e-07
-2.35549e-09
2.81891e-07
-2.23057e-09
2.84009e-07
-2.11611e-09
2.86009e-07
-1.99997e-09
2.87887e-07
-1.87872e-09
2.89639e-07
-1.75476e-09
2.9129e-07
-1.65244e-09
2.92839e-07
-1.55319e-09
2.94285e-07
-1.44939e-09
2.9564e-07
-1.35928e-09
2.96893e-07
-1.25756e-09
2.98055e-07
-1.16709e-09
2.99144e-07
-1.09516e-09
3.00134e-07
-9.9747e-10
3.01036e-07
-9.08797e-10
3.01872e-07
-8.42603e-10
3.0264e-07
-7.72742e-10
3.03329e-07
-6.92623e-10
3.03944e-07
-6.17149e-10
3.04492e-07
-5.52279e-10
3.04968e-07
-4.80179e-10
3.05365e-07
-4.02781e-10
3.05703e-07
-3.42372e-10
3.05969e-07
-2.72781e-10
3.06175e-07
-2.10925e-10
3.06335e-07
-1.67303e-10
3.06431e-07
-1.02233e-10
3.06466e-07
-4.21249e-11
3.06449e-07
9.98624e-12
3.06371e-07
7.09324e-11
3.06244e-07
1.19355e-10
3.06058e-07
1.77621e-10
3.05821e-07
2.28224e-10
3.05526e-07
2.85164e-10
3.05172e-07
3.4242e-10
3.04812e-07
3.48466e-10
3.04462e-07
3.39582e-10
3.04108e-07
3.43164e-10
3.03729e-07
3.70072e-10
3.03302e-07
4.1729e-10
3.02827e-07
4.66777e-10
3.02315e-07
5.03973e-10
3.01775e-07
5.31906e-10
3.01194e-07
5.73661e-10
3.00563e-07
6.23818e-10
2.99899e-07
6.56696e-10
2.99214e-07
6.78723e-10
2.98505e-07
7.01715e-10
2.97762e-07
7.36747e-10
2.96981e-07
7.74721e-10
2.96176e-07
7.9835e-10
2.95342e-07
8.27712e-10
2.94475e-07
8.60059e-10
2.93562e-07
9.07389e-10
2.92585e-07
9.71251e-10
2.91562e-07
1.01691e-09
2.90521e-07
1.03561e-09
2.89502e-07
1.01347e-09
2.88518e-07
9.79172e-10
2.87547e-07
9.65474e-10
2.86544e-07
9.984e-10
2.85461e-07
1.07953e-09
2.84265e-07
1.19103e-09
2.82936e-07
1.32502e-09
2.81463e-07
1.46901e-09
2.79827e-07
1.63261e-09
2.77976e-07
1.84753e-09
2.7583e-07
2.14298e-09
2.73283e-07
2.54395e-09
2.70147e-07
3.13276e-09
2.66119e-07
4.02586e-09
2.60731e-07
5.38528e-09
2.53097e-07
7.63248e-09
2.41483e-07
1.16124e-08
1.85716e-08
2.2291e-07
-1.63298e-09
-5.61876e-09
-9.71739e-09
4.28156e-09
-2.19654e-08
1.45143e-08
-3.69784e-08
2.27423e-08
-5.41976e-08
2.89282e-08
-7.30287e-08
3.32747e-08
-9.2765e-08
3.61272e-08
-1.12748e-07
3.78198e-08
-1.32415e-07
3.85859e-08
-1.51359e-07
3.85649e-08
-1.69253e-07
3.78602e-08
-1.85902e-07
3.65688e-08
-2.01155e-07
3.47896e-08
-2.14956e-07
3.26214e-08
-2.27263e-07
3.01598e-08
-2.38101e-07
2.74917e-08
-2.47486e-07
2.46934e-08
-2.55482e-07
2.18285e-08
-2.62134e-07
1.89483e-08
-2.67519e-07
1.60927e-08
-2.7169e-07
1.32922e-08
-2.74728e-07
1.05691e-08
-2.76694e-07
7.94086e-09
-2.77671e-07
5.42059e-09
-2.7773e-07
3.01994e-09
-2.76949e-07
7.47919e-10
-2.75363e-07
-1.39148e-09
-2.72971e-07
-3.40697e-09
-2.69752e-07
-5.30798e-09
-2.65718e-07
-7.09943e-09
-2.60898e-07
-8.78502e-09
-2.55325e-07
-1.03682e-08
-2.49044e-07
-1.18515e-08
-2.42093e-07
-1.32364e-08
-2.34523e-07
-1.45242e-08
-2.2637e-07
-1.57152e-08
-2.17689e-07
-1.68105e-08
-2.08515e-07
-1.78107e-08
-1.98905e-07
-1.87178e-08
-1.8889e-07
-1.95331e-08
-1.78525e-07
-2.02575e-08
-1.67842e-07
-2.08911e-08
-1.56897e-07
-2.14377e-08
-1.45715e-07
-2.19001e-08
-1.34352e-07
-2.22823e-08
-1.22829e-07
-2.25872e-08
-1.11196e-07
-2.28196e-08
-9.9469e-08
-2.29829e-08
-8.76961e-08
-2.30829e-08
-7.58881e-08
-2.31231e-08
-6.4087e-08
-2.31098e-08
-5.22989e-08
-2.30467e-08
-4.05642e-08
-2.29406e-08
-2.88847e-08
-2.27956e-08
-1.72914e-08
-2.26204e-08
-5.77623e-09
-2.24187e-08
5.63078e-09
-2.21948e-08
1.69325e-08
-2.19455e-08
2.81129e-08
-2.16724e-08
3.91286e-08
-2.13803e-08
4.99247e-08
-2.10682e-08
6.05488e-08
-2.07279e-08
7.09902e-08
-2.03678e-08
8.12639e-08
-1.99923e-08
9.13519e-08
-1.96082e-08
1.01267e-07
-1.92168e-08
1.10994e-07
-1.88229e-08
1.20543e-07
-1.84262e-08
1.29901e-07
-1.80302e-08
1.3908e-07
-1.76337e-08
1.48066e-07
-1.72398e-08
1.56874e-07
-1.68472e-08
1.65491e-07
-1.64583e-08
1.7393e-07
-1.60714e-08
1.82181e-07
-1.56889e-08
1.90258e-07
-1.5309e-08
1.98148e-07
-1.49343e-08
2.05862e-07
-1.45624e-08
2.13391e-07
-1.41951e-08
2.20748e-07
-1.38305e-08
2.27922e-07
-1.34707e-08
2.34924e-07
-1.31137e-08
2.41748e-07
-1.2761e-08
2.48403e-07
-1.24108e-08
2.54884e-07
-1.20645e-08
2.612e-07
-1.17201e-08
2.6734e-07
-1.13823e-08
2.73313e-07
-1.10453e-08
2.79111e-07
-1.07105e-08
2.8474e-07
-1.03766e-08
2.90211e-07
-1.00469e-08
2.95528e-07
-9.72104e-09
3.00689e-07
-9.39917e-09
3.05694e-07
-9.08106e-09
3.10546e-07
-8.76623e-09
3.1524e-07
-8.45816e-09
3.19782e-07
-8.15269e-09
3.24176e-07
-7.84942e-09
3.28423e-07
-7.55115e-09
3.32517e-07
-7.2636e-09
3.36474e-07
-6.97432e-09
3.40286e-07
-6.69312e-09
3.43964e-07
-6.41503e-09
3.47505e-07
-6.14373e-09
3.50904e-07
-5.88688e-09
3.54176e-07
-5.62456e-09
3.57309e-07
-5.36178e-09
3.6031e-07
-5.11602e-09
3.63186e-07
-4.87592e-09
3.65942e-07
-4.63541e-09
3.68588e-07
-4.40134e-09
3.71111e-07
-4.17784e-09
3.7352e-07
-3.9649e-09
3.75813e-07
-3.74593e-09
3.7799e-07
-3.53854e-09
3.80069e-07
-3.34063e-09
3.82039e-07
-3.1412e-09
3.83901e-07
-2.96236e-09
3.85673e-07
-2.77569e-09
3.87351e-07
-2.592e-09
3.88929e-07
-2.42558e-09
3.90417e-07
-2.26344e-09
3.91818e-07
-2.09651e-09
3.93128e-07
-1.9295e-09
3.94354e-07
-1.78092e-09
3.95505e-07
-1.63496e-09
3.96578e-07
-1.47989e-09
3.97564e-07
-1.33234e-09
3.98484e-07
-1.19822e-09
3.99333e-07
-1.06424e-09
4.00096e-07
-9.35367e-10
4.00797e-07
-8.09656e-10
4.01436e-07
-6.86592e-10
4.02014e-07
-5.73364e-10
4.02534e-07
-4.55966e-10
4.02993e-07
-3.45515e-10
4.03401e-07
-2.37018e-10
4.03743e-07
-1.2153e-10
4.04029e-07
-1.01623e-11
4.04286e-07
7.64154e-11
4.0448e-07
1.4516e-10
4.0458e-07
2.29887e-10
4.04611e-07
3.03937e-10
4.04604e-07
3.69107e-10
4.04568e-07
4.4492e-10
4.04501e-07
5.26598e-10
4.04381e-07
6.17918e-10
4.04201e-07
7.05167e-10
4.03979e-07
7.89331e-10
4.03726e-07
8.70789e-10
4.03426e-07
9.50927e-10
4.03073e-07
1.0257e-09
4.0268e-07
1.08945e-09
4.0225e-07
1.16061e-09
4.01793e-07
1.22593e-09
4.01293e-07
1.29284e-09
4.00744e-07
1.37095e-09
4.00156e-07
1.44246e-09
3.99534e-07
1.5235e-09
3.989e-07
1.60024e-09
3.98252e-07
1.66013e-09
3.97565e-07
1.7179e-09
3.96808e-07
1.76536e-09
3.95977e-07
1.80572e-09
3.95063e-07
1.87498e-09
3.94075e-07
1.98208e-09
3.93048e-07
2.10233e-09
3.91957e-07
2.27791e-09
3.90776e-07
2.50226e-09
3.89498e-07
2.74377e-09
3.88082e-07
3.04499e-09
3.86489e-07
3.43737e-09
3.84673e-07
3.95566e-09
3.82552e-07
4.66273e-09
3.80011e-07
5.67147e-09
3.76876e-07
7.15805e-09
3.72836e-07
9.42344e-09
3.67525e-07
1.29424e-08
3.60152e-07
1.8984e-08
2.89101e-08
3.49812e-07
-1.13382e-08
5.75421e-09
-2.68896e-08
1.98725e-08
-4.33571e-08
3.10105e-08
-6.00039e-08
3.94097e-08
-7.66992e-08
4.56446e-08
-9.33618e-08
4.99542e-08
-1.09798e-07
5.25814e-08
-1.25748e-07
5.37839e-08
-1.40948e-07
5.38029e-08
-1.55224e-07
5.2852e-08
-1.68461e-07
5.11121e-08
-1.80622e-07
4.87397e-08
-1.91693e-07
4.58731e-08
-2.01698e-07
4.26341e-08
-2.10655e-07
3.91285e-08
-2.18602e-07
3.54465e-08
-2.25561e-07
3.1663e-08
-2.31563e-07
2.7839e-08
-2.36628e-07
2.4023e-08
-2.40779e-07
2.02524e-08
-2.44033e-07
1.65561e-08
-2.46412e-07
1.29558e-08
-2.47929e-07
9.46805e-09
-2.48605e-07
6.10497e-09
-2.4845e-07
2.87544e-09
-2.47477e-07
-2.15547e-10
-2.45689e-07
-3.16811e-09
-2.431e-07
-5.98543e-09
-2.39727e-07
-8.66928e-09
-2.35594e-07
-1.12201e-08
-2.30729e-07
-1.36378e-08
-2.25163e-07
-1.59219e-08
-2.18932e-07
-1.80717e-08
-2.1207e-07
-2.00866e-08
-2.04618e-07
-2.19658e-08
-1.96614e-07
-2.37086e-08
-1.881e-07
-2.53148e-08
-1.79116e-07
-2.67845e-08
-1.69707e-07
-2.81188e-08
-1.5991e-07
-2.93199e-08
-1.49771e-07
-3.03896e-08
-1.39324e-07
-3.13291e-08
-1.28615e-07
-3.21414e-08
-1.17676e-07
-3.28312e-08
-1.06551e-07
-3.34035e-08
-9.52689e-08
-3.38634e-08
-8.38682e-08
-3.42171e-08
-7.23753e-08
-3.44706e-08
-6.08238e-08
-3.46309e-08
-4.92359e-08
-3.4705e-08
-3.76402e-08
-3.47004e-08
-2.60542e-08
-3.46248e-08
-1.45011e-08
-3.4487e-08
-2.99446e-09
-3.4294e-08
8.4426e-09
-3.40505e-08
1.9793e-08
-3.37606e-08
3.10342e-08
-3.3429e-08
4.21558e-08
-3.30595e-08
5.31452e-08
-3.26554e-08
6.39915e-08
-3.22195e-08
7.46828e-08
-3.1754e-08
8.52214e-08
-3.1261e-08
9.56024e-08
-3.07453e-08
1.05825e-07
-3.02113e-08
1.15883e-07
-2.96642e-08
1.25776e-07
-2.91072e-08
1.35499e-07
-2.85439e-08
1.45052e-07
-2.79766e-08
1.5443e-07
-2.74074e-08
1.63636e-07
-2.68376e-08
1.72665e-07
-2.62688e-08
1.81521e-07
-2.57018e-08
1.902e-07
-2.51377e-08
1.98706e-07
-2.45767e-08
2.07037e-07
-2.40196e-08
2.15196e-07
-2.34666e-08
2.23181e-07
-2.29185e-08
2.30994e-07
-2.23747e-08
2.38634e-07
-2.18358e-08
2.46104e-07
-2.13011e-08
2.53402e-07
-2.07714e-08
2.60532e-07
-2.02461e-08
2.67493e-07
-1.97256e-08
2.74288e-07
-1.92092e-08
2.80917e-07
-1.86974e-08
2.87383e-07
-1.81897e-08
2.93683e-07
-1.76872e-08
2.99818e-07
-1.71884e-08
3.05788e-07
-1.66925e-08
3.11596e-07
-1.62005e-08
3.17249e-07
-1.5713e-08
3.22751e-07
-1.52309e-08
3.28099e-07
-1.47543e-08
3.33296e-07
-1.42826e-08
3.38342e-07
-1.38164e-08
3.43237e-07
-1.33565e-08
3.47983e-07
-1.29023e-08
3.52584e-07
-1.24533e-08
3.57041e-07
-1.20108e-08
3.61353e-07
-1.15769e-08
3.65527e-07
-1.11484e-08
3.69562e-07
-1.07272e-08
3.73462e-07
-1.03127e-08
3.77228e-07
-9.90668e-09
3.80856e-07
-9.51123e-09
3.84353e-07
-9.11949e-09
3.87725e-07
-8.73146e-09
3.90966e-07
-8.35671e-09
3.94083e-07
-7.99225e-09
3.97081e-07
-7.63417e-09
3.99965e-07
-7.28553e-09
4.02731e-07
-6.94602e-09
4.05382e-07
-6.61638e-09
4.07922e-07
-6.2888e-09
4.10352e-07
-5.97036e-09
4.12674e-07
-5.66509e-09
4.14895e-07
-5.3644e-09
4.17007e-07
-5.07786e-09
4.19022e-07
-4.79517e-09
4.20944e-07
-4.51774e-09
4.22769e-07
-4.25241e-09
4.24497e-07
-3.99385e-09
4.26138e-07
-3.73799e-09
4.27693e-07
-3.48628e-09
4.29161e-07
-3.24976e-09
4.30544e-07
-3.02022e-09
4.3185e-07
-2.78881e-09
4.33078e-07
-2.5632e-09
4.34229e-07
-2.35201e-09
4.35306e-07
-2.14425e-09
4.36307e-07
-1.93984e-09
4.37238e-07
-1.74391e-09
4.38101e-07
-1.55376e-09
4.38896e-07
-1.37179e-09
4.39626e-07
-1.18938e-09
4.40291e-07
-1.01478e-09
4.40895e-07
-8.46119e-10
4.41446e-07
-6.77793e-10
4.41951e-07
-5.20236e-10
4.424e-07
-3.78795e-10
4.42779e-07
-2.40158e-10
4.4309e-07
-8.64531e-11
4.43334e-07
5.48348e-11
4.43519e-07
1.79587e-10
4.43653e-07
3.05969e-10
4.43743e-07
4.3232e-10
4.43787e-07
5.70333e-10
4.43779e-07
7.09353e-10
4.43733e-07
8.32263e-10
4.43644e-07
9.56006e-10
4.43508e-07
1.08321e-09
4.43327e-07
1.2038e-09
4.43097e-07
1.31677e-09
4.42826e-07
1.42823e-09
4.42511e-07
1.53709e-09
4.42152e-07
1.64919e-09
4.41757e-07
1.76335e-09
4.41325e-07
1.87098e-09
4.40865e-07
1.98111e-09
4.40375e-07
2.08733e-09
4.39846e-07
2.18585e-09
4.39267e-07
2.29495e-09
4.38621e-07
2.40805e-09
4.37906e-07
2.51858e-09
4.37116e-07
2.66313e-09
4.36258e-07
2.83722e-09
4.35345e-07
3.01302e-09
4.3437e-07
3.25153e-09
4.33319e-07
3.55065e-09
4.32177e-07
3.88398e-09
4.30915e-07
4.30609e-09
4.29496e-07
4.85454e-09
4.27882e-07
5.56762e-09
4.26019e-07
6.52387e-09
4.23824e-07
7.86549e-09
4.21182e-07
9.79845e-09
4.17936e-07
1.26688e-08
4.13921e-07
1.69556e-08
4.09047e-07
2.38568e-08
3.45871e-08
4.03369e-07
-1.56835e-08
2.14664e-08
-3.3769e-08
3.79863e-08
-5.11863e-08
4.84483e-08
-6.74828e-08
5.57205e-08
-8.27096e-08
6.08856e-08
-9.70074e-08
6.42627e-08
-1.10469e-07
6.60556e-08
-1.23141e-07
6.64643e-08
-1.35022e-07
6.56949e-08
-1.46112e-07
6.39496e-08
-1.56407e-07
6.14159e-08
-1.6592e-07
5.8259e-08
-1.7466e-07
5.46211e-08
-1.82644e-07
5.06236e-08
-1.89877e-07
4.63689e-08
-1.96368e-07
4.19429e-08
-2.02114e-07
3.7416e-08
-2.07115e-07
3.28459e-08
-2.11363e-07
2.82788e-08
-2.14857e-07
2.37513e-08
-2.17586e-07
1.92925e-08
-2.19549e-07
1.49249e-08
-2.2074e-07
1.0666e-08
-2.21158e-07
6.52936e-09
-2.20799e-07
2.52476e-09
-2.19667e-07
-1.34083e-09
-2.17764e-07
-5.06269e-09
-2.15104e-07
-8.63729e-09
-2.11704e-07
-1.20613e-08
-2.07585e-07
-1.53311e-08
-2.02771e-07
-1.84432e-08
-1.9729e-07
-2.1394e-08
-1.91175e-07
-2.41799e-08
-1.84455e-07
-2.67977e-08
-1.77169e-07
-2.92448e-08
-1.6935e-07
-3.15188e-08
-1.6104e-07
-3.36181e-08
-1.52275e-07
-3.55421e-08
-1.43096e-07
-3.72909e-08
-1.33543e-07
-3.88664e-08
-1.23655e-07
-4.02714e-08
-1.1347e-07
-4.15079e-08
-1.03027e-07
-4.25795e-08
-9.23613e-08
-4.34918e-08
-8.15104e-08
-4.42509e-08
-7.05058e-08
-4.48639e-08
-5.9382e-08
-4.53384e-08
-4.81661e-08
-4.56828e-08
-3.68888e-08
-4.5906e-08
-2.55727e-08
-4.60175e-08
-1.4243e-08
-4.60273e-08
-2.91862e-09
-4.59449e-08
8.37559e-09
-4.57778e-08
1.96194e-08
-4.55333e-08
3.0791e-08
-4.52183e-08
4.18755e-08
-4.48402e-08
5.28563e-08
-4.44056e-08
6.3723e-08
-4.39212e-08
7.44643e-08
-4.33923e-08
8.50734e-08
-4.28235e-08
9.5543e-08
-4.22192e-08
1.0587e-07
-4.15835e-08
1.1605e-07
-4.09214e-08
1.2608e-07
-4.02374e-08
1.35955e-07
-3.95365e-08
1.45674e-07
-3.88227e-08
1.55232e-07
-3.80996e-08
1.64628e-07
-3.73702e-08
1.7386e-07
-3.6637e-08
1.82926e-07
-3.59021e-08
1.91825e-07
-3.51671e-08
2.00557e-07
-3.44333e-08
2.09121e-07
-3.37019e-08
2.17518e-07
-3.29737e-08
2.25748e-07
-3.22494e-08
2.33811e-07
-3.15295e-08
2.41706e-07
-3.08145e-08
2.49436e-07
-3.01046e-08
2.56999e-07
-2.93998e-08
2.64397e-07
-2.87002e-08
2.7163e-07
-2.80059e-08
2.78699e-07
-2.73171e-08
2.85604e-07
-2.66336e-08
2.92348e-07
-2.59554e-08
2.98931e-07
-2.52826e-08
3.05354e-07
-2.46151e-08
3.11616e-07
-2.3953e-08
3.17719e-07
-2.3296e-08
3.23662e-07
-2.26439e-08
3.29448e-07
-2.19965e-08
3.35083e-07
-2.13555e-08
3.40568e-07
-2.07209e-08
3.45903e-07
-2.0093e-08
3.5109e-07
-1.94718e-08
3.5613e-07
-1.88575e-08
3.61022e-07
-1.82507e-08
3.6577e-07
-1.76514e-08
3.70376e-07
-1.70596e-08
3.74841e-07
-1.64761e-08
3.79166e-07
-1.59017e-08
3.83355e-07
-1.53357e-08
3.87409e-07
-1.47787e-08
3.9133e-07
-1.42306e-08
3.95119e-07
-1.36927e-08
3.98776e-07
-1.31652e-08
4.02306e-07
-1.26464e-08
4.05712e-07
-1.21358e-08
4.08993e-07
-1.16376e-08
4.12153e-07
-1.11518e-08
4.15196e-07
-1.06769e-08
4.18123e-07