/*--------------------------------*- C++ -*----------------------------------*\
| =========                 |                                                 |
| \\      /  F ield         | OpenFOAM: The Open Source CFD Toolbox           |
|  \\    /   O peration     | Version:  2312                                  |
|   \\  /    A nd           | Website:  www.openfoam.com                      |
|    \\/     M anipulation  |                                                 |
\*---------------------------------------------------------------------------*/
FoamFile
{
    version     2.0;
    format      ascii;
    arch        "LSB;label=32;scalar=64";
    class       volVectorField;
    location    "50";
    object      U;
}
// * * * * * * * * * * * * * * * * * * * * * * * * * * * * * * * * * * * * * //

dimensions      [0 1 -1 0 0 0 0];

internalField   nonuniform List<vector> 
12225
(
(4.84795 -0.821819 0)
(4.65511 -0.672965 0)
(4.43762 -0.378881 0)
(4.19848 -0.186148 0)
(3.97639 -0.0819452 0)
(3.78605 -0.0307735 0)
(3.62548 -0.00745928 0)
(3.49105 0.00256106 0)
(3.37919 0.00639157 0)
(3.28565 0.00741861 0)
(3.20678 0.00723972 0)
(3.13943 0.00662456 0)
(3.08146 0.00592086 0)
(3.03135 0.00521791 0)
(2.98762 0.00463923 0)
(2.95052 0.00357218 0)
(2.9143 0.00583897 0)
(2.89313 -0.0120505 0)
(5.07189 0.209574 0)
(5.13579 0.305722 0)
(5.12798 0.246489 0)
(5.0829 0.176952 0)
(5.02432 0.128019 0)
(4.9583 0.0959807 0)
(4.8861 0.0750364 0)
(4.81004 0.0610882 0)
(4.7337 0.0515223 0)
(4.65964 0.0446516 0)
(4.58902 0.0394618 0)
(4.5223 0.0353705 0)
(4.45992 0.032048 0)
(4.40184 0.0292921 0)
(4.34816 0.0267977 0)
(4.29855 0.0247522 0)
(4.25404 0.0217152 0)
(4.21265 0.0213535 0)
(5.00411 0.0540431 0)
(5.02791 0.0570533 0)
(5.05607 0.0380513 0)
(5.07438 0.0377726 0)
(5.0846 0.0457376 0)
(5.08791 0.0517748 0)
(5.08341 0.0543468 0)
(5.07184 0.0547159 0)
(5.05507 0.0538685 0)
(5.03483 0.0523054 0)
(5.0121 0.0503374 0)
(4.98772 0.048226 0)
(4.96234 0.0461141 0)
(4.93657 0.0440466 0)
(4.91088 0.0419872 0)
(4.88537 0.039791 0)
(4.86117 0.037351 0)
(4.83549 0.0327479 0)
(4.99797 0.0107811 0)
(5.00975 0.0292924 0)
(5.03408 0.0410028 0)
(5.05294 0.0519314 0)
(5.0666 0.0593276 0)
(5.07757 0.0618846 0)
(5.08524 0.0614806 0)
(5.08936 0.0600081 0)
(5.09056 0.0582393 0)
(5.08947 0.0563574 0)
(5.08641 0.0544583 0)
(5.08172 0.0526463 0)
(5.07571 0.050955 0)
(5.06872 0.0493455 0)
(5.06098 0.047712 0)
(5.05254 0.0458598 0)
(5.04369 0.0436372 0)
(5.0329 0.0396475 0)
(4.99926 0.00755247 0)
(5.00865 0.0333922 0)
(5.02729 0.0465045 0)
(5.04214 0.052974 0)
(5.05375 0.0567942 0)
(5.06443 0.0582047 0)
(5.07357 0.0580311 0)
(5.08062 0.0572423 0)
(5.08584 0.0562193 0)
(5.08957 0.0550405 0)
(5.092 0.0537922 0)
(5.09328 0.0525729 0)
(5.0936 0.0514095 0)
(5.09313 0.0502531 0)
(5.09194 0.0490169 0)
(5.09002 0.0475597 0)
(5.08734 0.0458127 0)
(5.0832 0.0433028 0)
(5.00011 0.009307 0)
(5.00798 0.0321452 0)
(5.02276 0.04309 0)
(5.0354 0.048338 0)
(5.04588 0.05214 0)
(5.05585 0.0542926 0)
(5.0648 0.05494 0)
(5.07222 0.0547809 0)
(5.07828 0.0542308 0)
(5.08325 0.0534522 0)
(5.08725 0.0525671 0)
(5.09041 0.0516756 0)
(5.09284 0.0508053 0)
(5.09463 0.0499213 0)
(5.0958 0.0489681 0)
(5.09629 0.0478684 0)
(5.09601 0.04664 0)
(5.09461 0.0451452 0)
(5.00026 0.0091009 0)
(5.00691 0.0282498 0)
(5.01928 0.038646 0)
(5.03068 0.044305 0)
(5.04044 0.0484868 0)
(5.04971 0.0510458 0)
(5.05816 0.0520743 0)
(5.06543 0.0522248 0)
(5.07159 0.0519491 0)
(5.07686 0.0514414 0)
(5.08136 0.0508199 0)
(5.08517 0.0501721 0)
(5.08837 0.0495288 0)
(5.09101 0.0488755 0)
(5.0931 0.048186 0)
(5.09457 0.0474327 0)
(5.09535 0.0466679 0)
(5.09523 0.0458897 0)
(5.00027 0.00811335 0)
(5.00587 0.0245963 0)
(5.01644 0.0348204 0)
(5.02686 0.0408218 0)
(5.03604 0.0450949 0)
(5.04469 0.0477814 0)
(5.05268 0.0490409 0)
(5.0597 0.0494495 0)
(5.0658 0.0494293 0)
(5.07112 0.0491695 0)
(5.07577 0.0487805 0)
(5.07981 0.048345 0)
(5.08331 0.0479043 0)
(5.08631 0.0474651 0)
(5.08879 0.0470259 0)
(5.09072 0.0465932 0)
(5.09202 0.0462342 0)
(5.09263 0.0460127 0)
(5.00028 0.00718761 0)
(5.00501 0.0215823 0)
(5.01403 0.0313566 0)
(5.0235 0.0374036 0)
(5.03211 0.041635 0)
(5.04025 0.044393 0)
(5.04784 0.0458683 0)
(5.05463 0.0465339 0)
(5.06063 0.0467595 0)
(5.06592 0.046727 0)
(5.07061 0.046548 0)
(5.07474 0.046307 0)
(5.07837 0.0460568 0)
(5.08153 0.0458217 0)
(5.08421 0.0456192 0)
(5.0864 0.0454782 0)
(5.08803 0.0454713 0)
(5.08913 0.0456823 0)
(5.0003 0.00638428 0)
(5.00429 0.0189481 0)
(5.01196 0.0280504 0)
(5.02047 0.0339653 0)
(5.02851 0.0381242 0)
(5.03618 0.0409385 0)
(5.04339 0.0426039 0)
(5.04997 0.0434996 0)
(5.05585 0.0439446 0)
(5.0611 0.0441183 0)
(5.06578 0.0441348 0)
(5.06995 0.0440812 0)
(5.07366 0.0440176 0)
(5.07692 0.0439802 0)
(5.07974 0.0440012 0)
(5.08211 0.0441224 0)
(5.08401 0.0444144 0)
(5.08548 0.0449572 0)
(5.00029 0.00564397 0)
(5.00367 0.016573 0)
(5.0102 0.0249024 0)
(5.01779 0.0305768 0)
(5.02523 0.0346253 0)
(5.03242 0.0374536 0)
(5.03927 0.0392566 0)
(5.04561 0.0403374 0)
(5.05136 0.0409692 0)
(5.05654 0.0413284 0)
(5.06121 0.0415297 0)
(5.06541 0.0416592 0)
(5.06918 0.0417784 0)
(5.07253 0.0419308 0)
(5.07547 0.042159 0)
(5.07801 0.0425108 0)
(5.08014 0.0430498 0)
(5.08194 0.0438447 0)
(5.00027 0.00498913 0)
(5.00319 0.0145845 0)
(5.00883 0.0221742 0)
(5.01565 0.0275589 0)
(5.02254 0.0314554 0)
(5.02928 0.034248 0)
(5.03578 0.0361281 0)
(5.04188 0.0373361 0)
(5.04749 0.0381082 0)
(5.0526 0.0386169 0)
(5.05725 0.0389786 0)
(5.06146 0.0392729 0)
(5.06528 0.0395556 0)
(5.0687 0.0398733 0)
(5.07176 0.0402734 0)
(5.07446 0.0408076 0)
(5.07681 0.0415314 0)
(5.07888 0.0425028 0)
(5.00025 0.00437465 0)
(5.00279 0.0127635 0)
(5.00769 0.019599 0)
(5.01379 0.0246338 0)
(5.02015 0.0283361 0)
(5.02647 0.0310473 0)
(5.03261 0.0329589 0)
(5.03846 0.0342632 0)
(5.04391 0.0351523 0)
(5.04894 0.0357857 0)
(5.05356 0.0362833 0)
(5.05778 0.0367239 0)
(5.06164 0.037158 0)
(5.06513 0.037629 0)
(5.0683 0.0381826 0)
(5.07115 0.0388686 0)
(5.07371 0.039736 0)
(5.07604 0.0408332 0)
(5.00023 0.00373669 0)
(5.00241 0.0108731 0)
(5.00661 0.0168424 0)
(5.012 0.0214108 0)
(5.01778 0.0248401 0)
(5.02364 0.0274016 0)
(5.02941 0.0292902 0)
(5.03497 0.0306608 0)
(5.04021 0.0316536 0)
(5.04512 0.0324014 0)
(5.0497 0.0330242 0)
(5.05393 0.0336033 0)
(5.05782 0.0341889 0)
(5.0614 0.0348159 0)
(5.06468 0.0355222 0)
(5.0677 0.0363494 0)
(5.07049 0.037338 0)
(5.07308 0.0385276 0)
(5.0002 0.00307557 0)
(5.00205 0.00891336 0)
(5.00564 0.0139278 0)
(5.01036 0.0178992 0)
(5.01556 0.0209608 0)
(5.02094 0.0232974 0)
(5.02634 0.0250857 0)
(5.03158 0.026462 0)
(5.0366 0.0275245 0)
(5.04137 0.0283689 0)
(5.04587 0.0290968 0)
(5.05011 0.0297909 0)
(5.05404 0.0305038 0)
(5.0577 0.0312671 0)
(5.06112 0.0321061 0)
(5.06432 0.0330502 0)
(5.06733 0.0341258 0)
(5.07019 0.0353658 0)
(5.00018 0.00238746 0)
(5.00175 0.00688704 0)
(5.00482 0.0108558 0)
(5.00895 0.0140909 0)
(5.0136 0.0166687 0)
(5.01853 0.0186965 0)
(5.02356 0.0202971 0)
(5.02854 0.0215913 0)
(5.03334 0.0226586 0)
(5.03795 0.0235607 0)
(5.04239 0.024365 0)
(5.04662 0.0251412 0)
(5.05062 0.0259413 0)
(5.05437 0.0267966 0)
(5.05793 0.0277246 0)
(5.0613 0.0287397 0)
(5.06453 0.0298554 0)
(5.06765 0.0310939 0)
(5.00016 0.00166517 0)
(5.00152 0.00477505 0)
(5.00418 0.00759145 0)
(5.00784 0.00995412 0)
(5.01206 0.0119108 0)
(5.01659 0.0135168 0)
(5.02132 0.0148337 0)
(5.02607 0.0159469 0)
(5.03071 0.0169254 0)
(5.0352 0.0178089 0)
(5.03959 0.0186337 0)
(5.04383 0.0194432 0)
(5.04791 0.0202793 0)
(5.05179 0.0211676 0)
(5.05549 0.0221201 0)
(5.05904 0.0231417 0)
(5.06248 0.0242374 0)
(5.06583 0.0254186 0)
(5.00014 0.000889514 0)
(5.00137 0.00251108 0)
(5.00377 0.00404421 0)
(5.00713 0.00538466 0)
(5.01108 0.00655235 0)
(5.01536 0.0075801 0)
(5.01988 0.0084887 0)
(5.0245 0.00931363 0)
(5.02907 0.0100954 0)
(5.03353 0.0108592 0)
(5.03791 0.0116199 0)
(5.04221 0.012395 0)
(5.04639 0.0132046 0)
(5.05041 0.014062 0)
(5.05427 0.0149717 0)
(5.058 0.0159346 0)
(5.06163 0.0169488 0)
(5.06518 0.018021 0)
(5.00014 7.87939e-06 0)
(5.00133 -5.35847e-05 0)
(5.00367 -1.09037e-05 0)
(5.00697 0.000107906 0)
(5.01088 0.000303907 0)
(5.01515 0.000581436 0)
(5.01967 0.000934891 0)
(5.02432 0.00134948 0)
(5.02895 0.00182418 0)
(5.03349 0.00236042 0)
(5.03798 0.00295815 0)
(5.0424 0.00361076 0)
(5.04672 0.00431478 0)
(5.05091 0.00506645 0)
(5.05494 0.00586344 0)
(5.05885 0.00670078 0)
(5.06267 0.00757431 0)
(5.06639 0.00848701 0)
(5.00015 -0.000854737 0)
(5.00144 -0.00256446 0)
(5.00398 -0.00400079 0)
(5.00755 -0.00508862 0)
(5.01175 -0.00583758 0)
(5.0163 -0.00629227 0)
(5.02108 -0.00649695 0)
(5.02595 -0.00649855 0)
(5.0308 -0.00633786 0)
(5.03555 -0.00603536 0)
(5.04023 -0.00561323 0)
(5.04484 -0.00509641 0)
(5.04932 -0.00451136 0)
(5.05366 -0.00387395 0)
(5.05784 -0.00319553 0)
(5.0619 -0.00248108 0)
(5.06585 -0.00173906 0)
(5.06969 -0.00096597 0)
(5.00016 -0.00160705 0)
(5.0016 -0.00479616 0)
(5.00448 -0.00755008 0)
(5.00851 -0.00965062 0)
(5.01315 -0.0111438 0)
(5.01811 -0.0121572 0)
(5.02324 -0.0127797 0)
(5.02842 -0.0130861 0)
(5.03353 -0.0131449 0)
(5.03852 -0.013 0)
(5.04342 -0.0126911 0)
(5.04819 -0.0122604 0)
(5.05281 -0.0117488 0)
(5.05726 -0.0111822 0)
(5.06155 -0.0105758 0)
(5.06569 -0.00993667 0)
(5.06974 -0.00927465 0)
(5.07364 -0.00858967 0)
(5.00016 -0.00231432 0)
(5.00176 -0.00700968 0)
(5.00515 -0.0111085 0)
(5.00985 -0.014148 0)
(5.01508 -0.0162721 0)
(5.02052 -0.0177338 0)
(5.02607 -0.018661 0)
(5.03159 -0.0191665 0)
(5.03698 -0.0193548 0)
(5.04222 -0.0193001 0)
(5.04732 -0.019057 0)
(5.05224 -0.0186811 0)
(5.05697 -0.0182179 0)
(5.0615 -0.0176988 0)
(5.06585 -0.0171379 0)
(5.07005 -0.0165479 0)
(5.07414 -0.0159364 0)
(5.07808 -0.0153115 0)
(5.00013 -0.00296732 0)
(5.00185 -0.0092619 0)
(5.00588 -0.0146953 0)
(5.01145 -0.018539 0)
(5.01738 -0.021219 0)
(5.02336 -0.0230904 0)
(5.02934 -0.0242535 0)
(5.03521 -0.0248535 0)
(5.04087 -0.0250665 0)
(5.04632 -0.0250109 0)
(5.05158 -0.0247639 0)
(5.05662 -0.0243901 0)
(5.06143 -0.0239379 0)
(5.06602 -0.023436 0)
(5.07042 -0.0228993 0)
(5.07466 -0.022337 0)
(5.07878 -0.0217611 0)
(5.08271 -0.0211764 0)
(5.00007 -0.00354767 0)
(5.00183 -0.0119288 0)
(5.00668 -0.0185422 0)
(5.01318 -0.0227312 0)
(5.01976 -0.0257602 0)
(5.0263 -0.0280144 0)
(5.03282 -0.0294116 0)
(5.0391 -0.0300964 0)
(5.04505 -0.0303107 0)
(5.05072 -0.0302179 0)
(5.05613 -0.0299188 0)
(5.06127 -0.0294913 0)
(5.06615 -0.0289953 0)
(5.07078 -0.0284655 0)
(5.07521 -0.0279182 0)
(5.07947 -0.0273585 0)
(5.08358 -0.0267972 0)
(5.08748 -0.0262333 0)
(4.99982 -0.00334669 0)
(5.00133 -0.0152831 0)
(5.00746 -0.0234706 0)
(5.01504 -0.027483 0)
(5.02216 -0.030301 0)
(5.02929 -0.0325255 0)
(5.03649 -0.0339291 0)
(5.04336 -0.0346447 0)
(5.04973 -0.0349053 0)
(5.0557 -0.0348406 0)
(5.06132 -0.0345361 0)
(5.06659 -0.0340775 0)
(5.07152 -0.0335399 0)
(5.07615 -0.032971 0)
(5.08054 -0.0323922 0)
(5.08472 -0.0318109 0)
(5.08872 -0.0312337 0)
(5.09249 -0.0306563 0)
(4.9983 -0.00010029 0)
(4.99854 -0.0161373 0)
(5.00757 -0.027929 0)
(5.01748 -0.0334706 0)
(5.02569 -0.0364988 0)
(5.03366 -0.0381502 0)
(5.04165 -0.0387876 0)
(5.04913 -0.038921 0)
(5.05594 -0.038836 0)
(5.06221 -0.0385708 0)
(5.06798 -0.0381367 0)
(5.07325 -0.0375901 0)
(5.07805 -0.0369953 0)
(5.08243 -0.036391 0)
(5.08648 -0.035792 0)
(5.09024 -0.0352021 0)
(5.09377 -0.0346248 0)
(5.09699 -0.0340417 0)
(4.99442 0.00185556 0)
(4.99245 -0.0102377 0)
(5.00627 -0.0228538 0)
(5.02113 -0.0340201 0)
(5.03268 -0.0420048 0)
(5.04279 -0.0459044 0)
(5.05193 -0.0469293 0)
(5.05978 -0.0466556 0)
(5.06647 -0.0459016 0)
(5.07227 -0.0449067 0)
(5.07726 -0.0437617 0)
(5.08148 -0.0425671 0)
(5.08497 -0.0414071 0)
(5.08784 -0.0403239 0)
(5.09021 -0.0393253 0)
(5.09216 -0.0384072 0)
(5.09379 -0.0375704 0)
(5.09505 -0.036793 0)
(4.99488 -0.0275591 0)
(4.99733 -0.0241016 0)
(5.01344 -0.00721955 0)
(5.03105 -0.00671377 0)
(5.04673 -0.0157187 0)
(5.06018 -0.0245926 0)
(5.07025 -0.0308372 0)
(5.07657 -0.0349722 0)
(5.07981 -0.0376352 0)
(5.08081 -0.0391541 0)
(5.08003 -0.0397958 0)
(5.07776 -0.0398295 0)
(5.0743 -0.039485 0)
(5.0699 -0.0389225 0)
(5.06485 -0.0382443 0)
(5.05932 -0.0375199 0)
(5.05348 -0.0368024 0)
(5.04748 -0.0361623 0)
(5.03825 -0.173405 0)
(5.08574 -0.276024 0)
(5.09662 -0.240598 0)
(5.08947 -0.185268 0)
(5.07907 -0.142361 0)
(5.06618 -0.111631 0)
(5.04774 -0.0896399 0)
(5.02351 -0.0740223 0)
(4.9953 -0.0628845 0)
(4.96491 -0.0547265 0)
(4.93352 -0.0485261 0)
(4.90185 -0.0436674 0)
(4.87044 -0.0397784 0)
(4.83968 -0.0366089 0)
(4.80988 -0.0339972 0)
(4.78125 -0.0318472 0)
(4.75382 -0.0300719 0)
(4.72787 -0.0287902 0)
(4.92935 0.663094 0)
(4.86256 0.58195 0)
(4.75304 0.362049 0)
(4.60349 0.204412 0)
(4.44907 0.109041 0)
(4.30703 0.0546329 0)
(4.18035 0.0244101 0)
(4.06831 0.00781362 0)
(3.97014 -0.00122593 0)
(3.88471 -0.00598754 0)
(3.81023 -0.00828717 0)
(3.74492 -0.00918414 0)
(3.68731 -0.00930531 0)
(3.63637 -0.00902188 0)
(3.59116 -0.00855406 0)
(3.55092 -0.00803619 0)
(3.51468 -0.00753098 0)
(3.48218 -0.00724481 0)
(0.0105081 0.000293619 1.10246e-16)
(0.0546666 -0.0511654 -6.52286e-17)
(0.11569 -0.0759496 0)
(0.182495 -0.0817775 0)
(0.242162 -0.0764994 0)
(0.28993 -0.064996 2.68821e-17)
(0.32495 -0.0503088 0)
(0.347122 -0.0342623 0)
(0.357642 -0.017754 0)
(0.354777 -0.00199964 0)
(0.341178 0.0107921 -2.51501e-17)
(0.320064 0.0189002 0)
(0.294983 0.0220243 0)
(0.269291 0.0211427 0)
(0.24505 0.0177124 0)
(0.222183 0.0133154 -3.3255e-17)
(0.199132 0.00898121 0)
(0.174034 0.00489277 0)
(0.14477 0.00255306 0)
(0.109227 0.00479218 0)
(0.0645766 0.0133464 0)
(0.0134147 0.0268577 0)
(-0.0498738 0.0440768 0)
(-0.127141 0.0619986 -3.29969e-17)
(-0.214609 0.0774903 2.5957e-17)
(-0.309663 0.0896606 -2.11926e-17)
(-0.410071 0.0986569 -1.78176e-17)
(-0.513842 0.104587 0)
(-0.619222 0.107701 0)
(-0.724582 0.108459 1.20542e-17)
(-0.828443 0.107348 1.09165e-17)
(-0.929994 0.104908 0)
(-1.02843 0.101535 0)
(-1.12326 0.0975811 8.64139e-18)
(-1.21416 0.0933166 0)
(-1.30101 0.0889394 0)
(-1.38378 0.0845985 -7.31409e-18)
(-1.46255 0.0803787 0)
(-1.53746 0.076335 -6.70915e-18)
(-1.60867 0.0724752 -1.29234e-17)
(-1.67636 0.0688017 0)
(-1.74071 0.0652848 0)
(-1.80189 0.0619033 0)
(-1.86005 0.0586156 0)
(-1.91531 0.0554006 0)
(-1.96777 0.0522235 -1.09023e-17)
(-2.01752 0.0490729 -1.06725e-17)
(-2.06458 0.0459227 -1.04641e-17)
(-2.10898 0.0427665 0)
(-2.1507 0.0395802 1.01058e-17)
(-2.18969 0.0363721 0)
(-2.22587 0.033147 -9.81628e-18)
(-2.25914 0.029941 -9.69513e-18)
(-2.28935 0.0267418 0)
(-2.31636 0.0235388 0)
(-2.33998 0.0203039 0)
(-2.35999 0.017046 -9.35951e-18)
(-2.37619 0.0137775 0)
(-2.38835 0.0105826 0)
(-2.39644 0.00750001 0)
(-2.40033 0.00464231 0)
(-2.40066 0.00196043 0)
(-2.39755 -0.000732123 0)
(-2.39097 -0.00358356 0)
(-2.38089 -0.00647831 0)
(-2.3673 -0.00932192 9.34702e-18)
(-2.35017 -0.0121819 0)
(-2.32947 -0.0148799 0)
(-2.30525 -0.0174685 -9.5389e-18)
(-2.27756 -0.0203019 -9.63539e-18)
(-2.24633 -0.0234117 0)
(-2.2117 -0.0260179 9.88967e-18)
(-2.17383 -0.0293516 -1.0031e-17)
(-2.13245 -0.0320314 0)
(-2.08843 -0.0332288 1.03609e-17)
(-2.04152 -0.0368647 0)
(-1.99134 -0.0393368 0)
(-1.93909 -0.0400646 -1.09923e-17)
(-1.88468 -0.0414408 0)
(-1.82842 -0.0428656 1.15384e-17)
(-1.77029 -0.0443256 0)
(-1.71067 -0.0458789 -1.22144e-17)
(-1.6494 -0.047808 -1.25678e-17)
(-1.58727 -0.0474254 -1.29231e-17)
(-1.52476 -0.0478257 -2.67734e-17)
(-1.46123 -0.0491041 2.76941e-17)
(-1.39764 -0.0489704 0)
(-1.33406 -0.0489952 0)
(-1.27071 -0.0488061 0)
(-1.20778 -0.0485079 3.21103e-17)
(-1.14534 -0.0480578 3.34221e-17)
(-1.08352 -0.0474953 -3.48246e-17)
(-1.02248 -0.0468219 0)
(-0.962356 -0.0460668 3.79468e-17)
(-0.903261 -0.0452432 3.96818e-17)
(-0.845275 -0.0443752 4.15447e-17)
(-0.78846 -0.0434711 0)
(-0.732859 -0.0425452 0)
(-0.678508 -0.0416094 0)
(-0.625422 -0.0406763 5.05312e-17)
(-0.573602 -0.0397482 0)
(-0.523038 -0.0388342 0)
(-0.473718 -0.0379565 -5.93621e-17)
(-0.425626 -0.0371167 0)
(-0.378759 -0.0363332 0)
(-0.33311 -0.0355972 -7.08097e-17)
(-0.288666 -0.0349278 0)
(-0.245404 -0.0343179 0)
(-0.203274 -0.033788 8.60721e-17)
(-0.162229 -0.033297 9.23519e-17)
(-0.122214 -0.0328529 0)
(-0.0831832 -0.0324622 -1.0744e-16)
(-0.0452185 -0.03206 0)
(-0.00812118 -0.0312726 1.21001e-16)
(0.0283373 -0.0299337 0)
(0.0640387 -0.0283646 1.08727e-16)
(0.0988718 -0.026838 1.0241e-16)
(0.13279 -0.0253904 0)
(0.165796 -0.0240553 0)
(0.197949 -0.0228219 0)
(0.229326 -0.0216844 0)
(0.259994 -0.020626 0)
(0.289989 -0.019659 0)
(0.319329 -0.0187724 0)
(0.348033 -0.0179589 7.25622e-17)
(0.37614 -0.017204 -7.0265e-17)
(0.40366 -0.0164948 0)
(0.430639 -0.015816 0)
(0.457127 -0.0152096 0)
(0.483155 -0.0146692 0)
(0.508759 -0.0141717 -1.22357e-16)
(0.533956 -0.0137038 0)
(0.558779 -0.0132789 1.1672e-16)
(0.583261 -0.0128791 -1.14148e-16)
(0.607426 -0.0124994 0)
(0.631268 -0.0121386 0)
(0.654787 -0.0118125 0)
(0.677974 -0.0114992 1.05297e-16)
(0.7008 -0.0111866 1.03406e-16)
(0.723226 -0.0108779 0)
(0.745242 -0.0105628 9.99473e-17)
(0.766857 -0.0102337 9.83658e-17)
(0.788078 -0.00990222 -9.68705e-17)
(0.808899 -0.00958448 0)
(0.829313 -0.0092827 0)
(0.849305 -0.00897583 -9.28541e-17)
(0.868835 -0.00864841 0)
(0.887848 -0.00830365 0)
(0.90629 -0.00794049 0)
(0.924078 -0.00754392 0)
(0.94109 -0.00710098 8.78438e-17)
(0.957202 -0.00660903 8.71507e-17)
(0.972312 -0.00609228 0)
(0.986339 -0.0055571 8.61425e-17)
(0.999213 -0.00500199 0)
(1.01091 -0.00447057 0)
(1.0215 -0.0040042 8.56209e-17)
(1.03108 -0.00360336 0)
(1.03981 -0.0032646 8.58307e-17)
(1.0478 -0.00297437 0)
(1.05521 -0.00271821 0)
(1.06214 -0.00249534 8.65067e-17)
(1.06868 -0.00230525 0)
(1.07488 -0.00213849 8.6911e-17)
(1.08076 -0.00197451 0)
(1.08629 -0.00180097 0)
(1.09149 -0.00161538 0)
(1.0963 -0.00142758 -8.72845e-17)
(1.10073 -0.00123107 0)
(1.10473 -0.00100266 8.73098e-17)
(1.10821 -0.000779064 0)
(1.11102 -0.00049315 0)
(1.11282 -7.11138e-05 0)
(1.11303 0.000530418 0)
(1.11123 0.00136425 0)
(1.1063 0.00242461 0)
(1.09753 0.00417676 0)
(1.07985 0.00677649 -1.79764e-16)
(1.05761 0.0122043 0)
(0.985217 0.018842 0)
(0.03401 -0.111117 -2.0227e-16)
(0.0939628 -0.210945 1.09721e-16)
(0.149355 -0.215463 0)
(0.188743 -0.18708 -3.91156e-17)
(0.216212 -0.150261 0)
(0.234086 -0.112035 -1.55543e-17)
(0.243647 -0.0746288 3.01541e-17)
(0.245995 -0.0390505 3.02827e-17)
(0.241989 -0.00585918 0)
(0.233783 0.0237199 3.19073e-17)
(0.220452 0.0478535 1.67736e-17)
(0.201085 0.0645605 0)
(0.174798 0.0726348 0)
(0.140994 0.0735716 0)
(0.099552 0.072455 0)
(0.0500494 0.0752635 2.23297e-17)
(-0.00782763 0.0856794 0)
(-0.0777221 0.104176 -3.75766e-17)
(-0.161309 0.128716 0)
(-0.256568 0.157081 0)
(-0.360611 0.186561 2.53751e-17)
(-0.470072 0.214274 0)
(-0.582489 0.238067 -1.97211e-17)
(-0.695174 0.256502 8.83858e-18)
(-0.806191 0.268889 -8.02404e-18)
(-0.914027 0.275319 7.36967e-18)
(-1.01744 0.276504 6.83546e-18)
(-1.11553 0.273318 0)
(-1.20773 0.266676 0)
(-1.29379 0.257533 -5.69916e-18)
(-1.3739 0.246725 5.42312e-18)
(-1.44834 0.234864 0)
(-1.51749 0.222493 0)
(-1.58177 0.21003 -4.79376e-18)
(-1.64163 0.197791 0)
(-1.6975 0.185988 0)
(-1.74977 0.174766 4.35622e-18)
(-1.7988 0.164192 0)
(-1.84489 0.154298 -4.13156e-18)
(-1.88828 0.145063 8.06805e-18)
(-1.9292 0.136456 0)
(-1.96779 0.128409 0)
(-2.00419 0.12086 1.51448e-17)
(-2.03848 0.113725 1.48632e-17)
(-2.07073 0.106935 1.4602e-17)
(-2.10098 0.100405 -7.17977e-18)
(-2.12923 0.0940685 7.06676e-18)
(-2.15551 0.0878479 2.08855e-17)
(-2.17978 0.0816909 -1.37284e-17)
(-2.20205 0.0755322 -6.77316e-18)
(-2.22228 0.0693395 0)
(-2.24047 0.0630674 6.60943e-18)
(-2.25657 0.0567042 -6.53617e-18)
(-2.2706 0.0502226 0)
(-2.28253 0.0436257 0)
(-2.29242 0.0369008 0)
(-2.3003 0.0300822 6.2965e-18)
(-2.30623 0.0231933 0)
(-2.31027 0.0163141 -1.24234e-17)
(-2.31237 0.00949976 0)
(-2.31252 0.00285969 -1.22849e-17)
(-2.30995 -0.00362743 0)
(-2.30431 -0.0100255 1.21773e-17)
(-2.29545 -0.0164094 0)
(-2.28325 -0.0227679 -1.2112e-17)
(-2.26763 -0.029127 6.04472e-18)
(-2.24856 -0.0354814 0)
(-2.22601 -0.0418002 1.20643e-17)
(-2.1999 -0.0479846 6.03251e-18)
(-2.17031 -0.0540481 6.03873e-18)
(-2.13731 -0.0598937 0)
(-2.10083 -0.0654078 6.10339e-18)
(-2.06107 -0.0706159 6.13335e-18)
(-2.01839 -0.0756572 0)
(-1.97253 -0.0803273 -6.22169e-18)
(-1.92362 -0.0845038 1.25636e-17)
(-1.87253 -0.0883873 0)
(-1.81902 -0.0918585 6.38808e-18)
(-1.76305 -0.0947673 0)
(-1.70515 -0.0972608 -1.96963e-17)
(-1.64558 -0.0993252 0)
(-1.5846 -0.100941 2.03559e-17)
(-1.52257 -0.101998 6.90086e-18)
(-1.45974 -0.102727 -7.01399e-18)
(-1.39607 -0.103096 -1.43403e-17)
(-1.33205 -0.102949 1.46484e-17)
(-1.26802 -0.102468 0)
(-1.20403 -0.101656 0)
(-1.14035 -0.100551 0)
(-1.07717 -0.0991687 -4.84207e-17)
(-1.01459 -0.0975258 -1.65623e-17)
(-0.952744 -0.0956576 1.6998e-17)
(-0.891762 -0.0936006 0)
(-0.831755 -0.0913951 1.79278e-17)
(-0.772815 -0.0890762 -1.84273e-17)
(-0.715015 -0.0866848 -1.89455e-17)
(-0.658406 -0.0842427 0)
(-0.603023 -0.0817779 0)
(-0.548887 -0.0793096 0)
(-0.496008 -0.0768594 -2.12272e-17)
(-0.44438 -0.074437 0)
(-0.393987 -0.0720582 4.49778e-17)
(-0.344812 -0.0697433 6.94414e-17)
(-0.296842 -0.0675025 -4.76544e-17)
(-0.250061 -0.0653464 0)
(-0.204451 -0.0632827 -2.52578e-17)
(-0.159984 -0.0613249 0)
(-0.116628 -0.0594667 -5.35755e-17)
(-0.0743349 -0.057722 2.75902e-17)
(-0.0330561 -0.056082 2.8368e-17)
(0.00734736 -0.0545756 0)
(0.0468863 -0.0531641 8.47695e-17)
(0.0855364 -0.0517846 -5.59231e-17)
(0.123336 -0.0503301 -2.77034e-17)
(0.160173 -0.0486901 0)
(0.196042 -0.0469418 -2.72959e-17)
(0.231086 -0.045214 -8.13736e-17)
(0.26538 -0.0435463 0)
(0.298955 -0.0419629 -5.36304e-17)
(0.331854 -0.0404683 -5.33439e-17)
(0.364128 -0.0390662 -5.30693e-17)
(0.395809 -0.0377488 0)
(0.426912 -0.0365142 0)
(0.457452 -0.0353563 0)
(0.487449 -0.0342727 2.60309e-17)
(0.51692 -0.0332544 2.59152e-17)
(0.545886 -0.032295 0)
(0.574377 -0.031385 5.13885e-17)
(0.602431 -0.0305375 5.11701e-17)
(0.630078 -0.0297487 0)
(0.657333 -0.0290102 5.07585e-17)
(0.684218 -0.0283048 1.01117e-16)
(0.710768 -0.027645 -5.03525e-17)
(0.737003 -0.0270237 -5.01413e-17)
(0.762926 -0.0264358 0)
(0.78853 -0.0258591 0)
(0.813826 -0.0252906 0)
(0.838818 -0.0247205 -4.93749e-17)
(0.863482 -0.0241362 4.91982e-17)
(0.887798 -0.0235419 9.80453e-17)
(0.91177 -0.0229351 -4.88488e-17)
(0.935401 -0.0223154 4.86762e-17)
(0.958689 -0.021694 4.85061e-17)
(0.981623 -0.0210829 0)
(1.00419 -0.0204796 0)
(1.02635 -0.0198656 -4.8006e-17)
(1.04808 -0.0192187 0)
(1.06931 -0.0185269 0)
(1.09 -0.0177829 9.5218e-17)
(1.11009 -0.0169741 0)
(1.12949 -0.0160891 4.74756e-17)
(1.14812 -0.0151178 -4.7477e-17)
(1.16595 -0.0140837 0)
(1.18294 -0.0130243 4.76804e-17)
(1.19907 -0.0119536 0)
(1.21434 -0.0109155 0)
(1.22882 -0.00997025 -4.87209e-17)
(1.24262 -0.00913934 9.86005e-17)
(1.2558 -0.00842689 -4.99892e-17)
(1.26843 -0.00783064 0)
(1.28057 -0.00732023 0)
(1.29226 -0.00687167 5.24376e-17)
(1.30353 -0.00647554 0)
(1.31436 -0.00611017 5.40342e-17)
(1.32475 -0.00575582 0)
(1.33464 -0.00538896 0)
(1.34402 -0.00501936 0)
(1.35286 -0.00463312 5.62917e-17)
(1.36116 -0.00423669 0)
(1.36882 -0.00379918 -5.69147e-17)
(1.37585 -0.00329356 0)
(1.38208 -0.00268068 0)
(1.38765 -0.00187911 1.14962e-16)
(1.39246 -0.000782866 -1.15239e-16)
(1.39626 0.000724931 0)
(1.39846 0.00282549 0)
(1.39906 0.00603023 0)
(1.3953 0.0110756 3.4828e-16)
(1.39177 0.020491 0)
(1.36819 0.0352206 -2.35687e-16)
(0.0361372 -0.261392 7.08605e-22)
(0.0748546 -0.318087 -1.1327e-16)
(0.0957984 -0.275513 0)
(0.105351 -0.220175 6.30033e-17)
(0.109025 -0.166325 0)
(0.107457 -0.115464 0)
(0.100682 -0.0677527 -3.14785e-22)
(0.0888436 -0.0234066 -2.56126e-17)
(0.0719271 0.0173182 -2.58014e-17)
(0.0499535 0.0546594 -2.61852e-17)
(0.0225418 0.0883242 0)
(-0.0113683 0.117589 0)
(-0.0536904 0.142481 2.5208e-17)
(-0.106478 0.164928 4.76884e-17)
(-0.171228 0.188625 -4.44665e-17)
(-0.24809 0.216891 0)
(-0.335734 0.25057 -3.75183e-17)
(-0.431741 0.287709 1.71247e-17)
(-0.532549 0.324752 0)
(-0.634728 0.35849 -2.87111e-17)
(-0.73523 0.386711 -1.3237e-17)
(-0.831643 0.408356 2.45496e-17)
(-0.922231 0.422985 1.14506e-17)
(-1.00612 0.430427 0)
(-1.08295 0.43107 -2.02157e-17)
(-1.15301 0.425765 -1.90973e-17)
(-1.21698 0.415516 0)
(-1.27559 0.40147 -1.72137e-17)
(-1.32964 0.384729 0)
(-1.37997 0.366292 -1.57506e-17)
(-1.42723 0.347022 -7.57536e-18)
(-1.47194 0.327587 0)
(-1.51454 0.308476 0)
(-1.5554 0.290029 0)
(-1.59476 0.272466 0)
(-1.63282 0.255905 0)
(-1.66971 0.240388 0)
(-1.70552 0.225902 -1.22658e-17)
(-1.74028 0.212393 1.79748e-17)
(-1.77402 0.199783 0)
(-1.80673 0.187979 0)
(-1.83841 0.176879 0)
(-1.86903 0.166381 -1.32854e-23)
(-1.89856 0.156384 -1.08527e-17)
(-1.92695 0.146794 -2.13408e-17)
(-1.95416 0.137519 2.09992e-17)
(-1.98013 0.128479 1.03394e-17)
(-2.00483 0.119595 -1.01886e-17)
(-2.02818 0.110804 -1.22082e-22)
(-2.05014 0.102046 -9.91335e-18)
(-2.07062 0.0932773 0)
(-2.08956 0.0844613 -9.66921e-18)
(-2.10687 0.0755743 -1.16108e-22)
(-2.12247 0.0665885 0)
(-2.13625 0.057488 0)
(-2.14812 0.0482563 9.26788e-18)
(-2.15794 0.0388929 0)
(-2.16558 0.0293897 0)
(-2.17087 0.0197428 -9.04692e-18)
(-2.17362 0.00993254 -1.79635e-17)
(-2.17364 -5.77321e-05 8.90968e-18)
(-2.17074 -0.0102313 0)
(-2.16479 -0.0205375 -8.78646e-18)
(-2.15568 -0.0309361 0)
(-2.14329 -0.0413704 -8.68735e-18)
(-2.12756 -0.051795 -8.64706e-18)
(-2.10843 -0.0621588 1.72251e-17)
(-2.08584 -0.0724017 8.58626e-18)
(-2.05979 -0.0824352 0)
(-2.03028 -0.0922219 -1.71145e-17)
(-1.99735 -0.101679 0)
(-1.96106 -0.11069 -2.57411e-17)
(-1.92154 -0.119174 -1.72075e-17)
(-1.87896 -0.127084 -1.72603e-17)
(-1.83335 -0.134374 1.73508e-17)
(-1.78496 -0.14108 -2.61395e-17)
(-1.73418 -0.147048 0)
(-1.68094 -0.152271 0)
(-1.62552 -0.156708 1.78112e-17)
(-1.56817 -0.160414 2.70045e-17)
(-1.50924 -0.163354 0)
(-1.44898 -0.16557 -9.22271e-18)
(-1.3877 -0.166994 0)
(-1.32562 -0.167674 2.8428e-17)
(-1.26292 -0.167763 1.48533e-21)
(-1.19994 -0.167199 -1.48068e-21)
(-1.13691 -0.16604 -1.99293e-17)
(-1.07403 -0.164364 0)
(-1.01152 -0.162215 2.06858e-17)
(-0.949556 -0.159637 1.42559e-21)
(-0.888267 -0.156666 0)
(-0.827759 -0.153354 0)
(-0.768147 -0.149768 0)
(-0.709531 -0.145968 -2.28828e-17)
(-0.65199 -0.142013 0)
(-0.595586 -0.137953 0)
(-0.540361 -0.133834 0)
(-0.486341 -0.129692 0)
(-0.433543 -0.12556 0)
(-0.38197 -0.121467 -2.60465e-17)
(-0.33161 -0.117432 0)
(-0.282446 -0.113476 -2.72113e-17)
(-0.234459 -0.109616 -2.78091e-17)
(-0.187628 -0.105878 2.84194e-17)
(-0.141932 -0.102267 0)
(-0.0973409 -0.0988018 2.96782e-17)
(-0.0538237 -0.0954945 0)
(-0.0113089 -0.0923629 3.07436e-17)
(0.0302382 -0.0894067 -3.08028e-17)
(0.0708114 -0.0865986 -9.22506e-17)
(0.110429 -0.083895 0)
(0.14912 -0.0812772 -9.1975e-17)
(0.186935 -0.0787437 -3.06218e-17)
(0.22392 -0.0763 0)
(0.26008 -0.0739375 -6.11955e-17)
(0.295455 -0.0716352 -6.12109e-17)
(0.330104 -0.0693954 9.18691e-17)
(0.364068 -0.067232 0)
(0.397379 -0.0651572 3.06746e-17)
(0.430076 -0.0631759 3.07046e-17)
(0.462195 -0.0612889 9.22074e-17)
(0.493762 -0.0594959 0)
(0.524792 -0.0577948 0)
(0.555299 -0.056183 0)
(0.585299 -0.0546574 3.08693e-17)
(0.614809 -0.0532119 0)
(0.643848 -0.0518405 0)
(0.672446 -0.0505365 -3.09757e-17)
(0.700632 -0.0493053 -3.10083e-17)
(0.728424 -0.048149 0)
(0.75583 -0.0470566 0)
(0.782874 -0.0460138 -6.21945e-17)
(0.809579 -0.0450193 0)
(0.835959 -0.0440725 6.22447e-17)
(0.862014 -0.0431682 6.22528e-17)
(0.887753 -0.0422926 0)
(0.913196 -0.0414313 0)
(0.938343 -0.0405673 -6.22906e-17)
(0.963171 -0.039691 -6.00852e-22)
(0.987672 -0.0387954 -5.87074e-22)
(1.01185 -0.0378799 0)
(1.03571 -0.0369491 -1.24345e-16)
(1.05925 -0.036012 0)
(1.08245 -0.0350758 0)
(1.10529 -0.0341326 0)
(1.12772 -0.0331611 6.18489e-17)
(1.14971 -0.0321395 0)
(1.17122 -0.0310484 -1.23352e-16)
(1.19222 -0.0298773 -6.16093e-17)
(1.21264 -0.0286167 0)
(1.23243 -0.0272555 -6.15643e-17)
(1.25156 -0.0257956 0)
(1.27001 -0.0242653 0)
(1.28777 -0.0227108 -1.85949e-16)
(1.30481 -0.0211746 1.24721e-16)
(1.32118 -0.019707 0)
(1.33693 -0.0183665 1.27356e-16)
(1.35212 -0.0171866 -6.46749e-17)
(1.36678 -0.0161689 0)
(1.38094 -0.015292 0)
(1.39464 -0.0145183 0)
(1.40788 -0.0138095 -2.12456e-16)
(1.42067 -0.0131415 0)
(1.43299 -0.0124906 -7.44822e-17)
(1.4448 -0.0118388 0)
(1.4561 -0.0111615 0)
(1.46686 -0.0104597 0)
(1.47707 -0.00972955 0)
(1.48673 -0.00897933 0)
(1.49577 -0.00818015 0)
(1.50416 -0.00729813 -1.66261e-16)
(1.51185 -0.00628278 0)
(1.51881 -0.00506264 -8.42872e-17)
(1.52494 -0.00352273 2.54389e-16)
(1.53009 -0.00147894 0)
(1.5339 0.001352 0)
(1.53631 0.00557216 -1.7117e-16)
(1.53575 0.0120202 -1.7176e-16)
(1.53526 0.023088 1.71832e-16)
(1.52531 0.0411985 1.74385e-16)
(0.0173873 -0.347639 2.40769e-16)
(0.0234696 -0.332557 1.45052e-16)
(0.0184593 -0.27322 6.65753e-17)
(0.00789063 -0.210958 2.66556e-17)
(-0.00581772 -0.150118 0)
(-0.022925 -0.0912249 -4.4084e-17)
(-0.0441428 -0.0345109 2.13722e-17)
(-0.0701062 0.0197142 0)
(-0.101509 0.0715111 1.99263e-17)
(-0.138922 0.120939 0)
(-0.183009 0.168146 -3.68403e-17)
(-0.234604 0.213447 0)
(-0.294616 0.257416 -1.65092e-17)
(-0.363415 0.300831 -3.09143e-17)
(-0.440188 0.344277 2.88183e-17)
(-0.52278 0.38748 0)
(-0.608189 0.42887 2.50083e-17)
(-0.693171 0.466047 0)
(-0.774927 0.49688 0)
(-0.85134 0.520172 2.0591e-17)
(-0.921172 0.535606 0)
(-0.984083 0.543414 -1.00264e-22)
(-1.04028 0.544165 0)
(-1.09039 0.538625 0)
(-1.13535 0.527722 4.41337e-22)
(-1.17619 0.512564 1.4703e-17)
(-1.21388 0.494246 1.40478e-17)
(-1.24931 0.4738 1.34594e-17)
(-1.28322 0.452131 0)
(-1.31617 0.429987 2.49211e-17)
(-1.34856 0.407914 0)
(-1.38063 0.38633 1.16466e-17)
(-1.41254 0.365525 0)
(-1.44436 0.345681 0)
(-1.47611 0.326892 -1.06762e-17)
(-1.50775 0.309182 0)
(-1.53923 0.292531 1.01568e-17)
(-1.57047 0.276879 2.28981e-22)
(-1.60141 0.262148 -1.94324e-17)
(-1.63195 0.24824 1.904e-17)
(-1.66202 0.235053 0)
(-1.69153 0.222481 0)
(-1.72039 0.21042 9.0102e-18)
(-1.74853 0.19877 0)
(-1.77586 0.187436 8.72396e-18)
(-1.80231 0.176327 -8.59402e-18)
(-1.8278 0.16536 -8.47196e-18)
(-1.85223 0.154459 0)
(-1.87554 0.143557 8.24915e-18)
(-1.89762 0.132593 8.14748e-18)
(-1.91837 0.121518 -1.61038e-17)
(-1.9377 0.110289 7.96201e-18)