/*--------------------------------*- C++ -*----------------------------------*\
| =========                 |                                                 |
| \\      /  F ield         | OpenFOAM: The Open Source CFD Toolbox           |
|  \\    /   O peration     | Version:  2312                                  |
|   \\  /    A nd           | Website:  www.openfoam.com                      |
|    \\/     M anipulation  |                                                 |
\*---------------------------------------------------------------------------*/
FoamFile
{
    version     2.0;
    format      ascii;
    arch        "LSB;label=32;scalar=64";
    class       volVectorField;
    location    "50";
    object      U;
}
// * * * * * * * * * * * * * * * * * * * * * * * * * * * * * * * * * * * * * //

dimensions      [0 1 -1 0 0 0 0];

internalField   nonuniform List<vector> 
12225
(
(0.908928 -0.379354 0)
(0.8652 -0.145935 0)
(0.765528 -0.0185706 0)
(0.663322 0.0104101 0)
(0.594799 0.00976444 0)
(0.552915 0.00569402 0)
(0.525103 0.00329865 0)
(0.505115 0.00225224 0)
(0.490066 0.00176965 0)
(0.478353 0.00145031 0)
(0.469205 0.00116181 0)
(0.462322 0.000863224 0)
(0.457658 0.000525275 0)
(0.455317 0.000120043 0)
(0.455663 -0.000410302 0)
(0.459281 -0.00138722 0)
(0.468743 -0.00227953 0)
(0.485587 -0.0169949 0)
(1.04413 0.0828039 0)
(1.01933 0.0733605 0)
(0.977823 0.0412075 0)
(0.928724 0.0267943 0)
(0.884994 0.0195044 0)
(0.849411 0.0141829 0)
(0.820962 0.0104229 0)
(0.798739 0.00797785 0)
(0.781582 0.00634099 0)
(0.768273 0.00511049 0)
(0.757963 0.00405974 0)
(0.750202 0.00304805 0)
(0.74481 0.00196097 0)
(0.74179 0.000678658 0)
(0.741544 -0.00101329 0)
(0.744607 -0.00359563 0)
(0.752792 -0.00814536 0)
(0.765568 -0.0180589 0)
(1.0039 0.0297624 0)
(1.00742 0.0401908 0)
(1.00874 0.035387 0)
(0.996015 0.0317133 0)
(0.976898 0.0266832 0)
(0.956517 0.021064 0)
(0.937241 0.0164473 0)
(0.920623 0.0130922 0)
(0.907086 0.0106075 0)
(0.896328 0.00861433 0)
(0.887958 0.00686557 0)
(0.881715 0.00517934 0)
(0.877469 0.0033878 0)
(0.875214 0.00129375 0)
(0.875125 -0.00142952 0)
(0.87748 -0.00541011 0)
(0.882698 -0.0118704 0)
(0.88877 -0.0240725 0)
(0.999113 0.00728696 0)
(1.00528 0.0276568 0)
(1.01584 0.0335859 0)
(1.01566 0.0335328 0)
(1.00873 0.0300182 0)
(0.998507 0.025117 0)
(0.98696 0.0205809 0)
(0.975888 0.0169053 0)
(0.966264 0.0139245 0)
(0.958324 0.0113852 0)
(0.952037 0.00908126 0)
(0.947343 0.00682643 0)
(0.944198 0.00442761 0)
(0.942599 0.00164847 0)
(0.942591 -0.00187672 0)
(0.944169 -0.00675642 0)
(0.947095 -0.0139529 0)
(0.949351 -0.0251136 0)
(0.999547 0.00545351 0)
(1.00557 0.0256255 0)
(1.01696 0.032708 0)
(1.02153 0.0336234 0)
(1.02098 0.0313578 0)
(1.0171 0.0274319 0)
(1.0111 0.0233249 0)
(1.00447 0.0196533 0)
(0.998236 0.016438 0)
(0.992852 0.013547 0)
(0.988492 0.0108294 0)
(0.985231 0.00811784 0)
(0.983095 0.00521949 0)
(0.98209 0.0018926 0)
(0.982182 -0.00221225 0)
(0.983199 -0.00759614 0)
(0.984701 -0.0148838 0)
(0.984997 -0.0247462 0)
(0.9998 0.00624227 0)
(1.00531 0.0236742 0)
(1.01598 0.0307006 0)
(1.02258 0.0324684 0)
(1.02552 0.0313276 0)
(1.0256 0.0283651 0)
(1.02347 0.0248313 0)
(1.02024 0.0213741 0)
(1.01679 0.0181298 0)
(1.01362 0.0150596 0)
(1.01098 0.0120682 0)
(1.00902 0.00901988 0)
(1.00781 0.00574065 0)
(1.00736 0.00200916 0)
(1.00759 -0.00247216 0)
(1.00826 -0.00807358 0)
(1.00893 -0.0151462 0)
(1.00828 -0.0238724 0)
(0.999796 0.00607838 0)
(1.00475 0.0210567 0)
(1.01443 0.0280943 0)
(1.02179 0.0305826 0)
(1.0266 0.0303324 0)
(1.02912 0.0282175 0)
(1.02966 0.0252883 0)
(1.02896 0.0221588 0)
(1.02773 0.0190247 0)
(1.02641 0.0159113 0)
(1.02526 0.012771 0)
(1.02446 0.00950301 0)
(1.02408 0.00596329 0)
(1.02415 0.00196694 0)
(1.02456 -0.0027162 0)
(1.02507 -0.00833339 0)
(1.02529 -0.0150424 0)
(1.02428 -0.0227947 0)
(0.999811 0.00548107 0)
(1.00421 0.0184375 0)
(1.01284 0.0253402 0)
(1.02029 0.0282826 0)
(1.02601 0.0286777 0)
(1.03 0.0272619 0)
(1.03233 0.0248986 0)
(1.03348 0.0221355 0)
(1.03396 0.0191909 0)
(1.03413 0.0161303 0)
(1.03423 0.0129425 0)
(1.03443 0.00955974 0)
(1.03479 0.00587225 0)
(1.03532 0.00173889 0)
(1.03594 -0.00300199 0)
(1.03643 -0.00849484 0)
(1.03648 -0.014773 0)
(1.03544 -0.0216953 0)
(0.999882 0.00487974 0)
(1.00374 0.0160368 0)
(1.01134 0.0225869 0)
(1.01854 0.0257384 0)
(1.02461 0.0265735 0)
(1.02942 0.025707 0)
(1.03292 0.0238354 0)
(1.03537 0.0214304 0)
(1.03713 0.0187111 0)
(1.03846 0.0157653 0)
(1.03957 0.0126074 0)
(1.04059 0.00919854 0)
(1.04158 0.00546307 0)
(1.04254 0.00130386 0)
(1.04338 -0.00337939 0)
(1.04394 -0.00865295 0)
(1.04398 -0.014479 0)
(1.04311 -0.0206958 0)
(0.999965 0.00431978 0)
(1.00333 0.0138389 0)
(1.00997 0.0198799 0)
(1.01673 0.023054 0)
(1.02284 0.0241632 0)
(1.02805 0.0237068 0)
(1.03226 0.0222391 0)
(1.03558 0.0201583 0)
(1.03825 0.0176718 0)
(1.04046 0.0148768 0)
(1.04235 0.0118051 0)
(1.04402 0.00844176 0)
(1.04552 0.00474241 0)
(1.04684 0.000649512 0)
(1.0479 -0.00388723 0)
(1.04859 -0.0088798 0)
(1.04875 -0.0142563 0)
(1.04813 -0.0198689 0)
(1.00003 0.00377146 0)
(1.00296 0.0118124 0)
(1.00873 0.017247 0)
(1.01498 0.0203028 0)
(1.02091 0.0215486 0)
(1.02626 0.0213776 0)
(1.03085 0.0202253 0)
(1.03472 0.0184227 0)
(1.03801 0.0161584 0)
(1.04084 0.0135314 0)
(1.0433 0.0105846 0)
(1.04546 0.00732223 0)
(1.04735 0.00372628 0)
(1.04896 -0.000227902 0)
(1.05023 -0.00455322 0)
(1.05108 -0.0092277 0)
(1.05141 -0.0141691 0)
(1.05108 -0.0192568 0)
(1.00007 0.00326635 0)
(1.00265 0.0100896 0)
(1.00771 0.0149134 0)
(1.01346 0.0177617 0)
(1.01913 0.0190292 0)
(1.02442 0.0190212 0)
(1.02916 0.0180825 0)
(1.03331 0.0164887 0)
(1.03695 0.0144086 0)
(1.04015 0.0119384 0)
(1.04297 0.009127 0)
(1.04545 0.00599235 0)
(1.04761 0.00253557 0)
(1.04942 -0.001245 0)
(1.05086 -0.00533825 0)
(1.05185 -0.00970532 0)
(1.05234 -0.0142664 0)
(1.05227 -0.0189279 0)
(1.0001 0.00277378 0)
(1.00236 0.00849493 0)
(1.0068 0.0126851 0)
(1.01204 0.0152592 0)
(1.01739 0.016473 0)
(1.02254 0.0165541 0)
(1.02729 0.0157701 0)
(1.03157 0.0143465 0)
(1.03542 0.0124313 0)
(1.03885 0.0101153 0)
(1.0419 0.00745136 0)
(1.0446 0.00446714 0)
(1.04694 0.0011784 0)
(1.04891 -0.00239957 0)
(1.05048 -0.00623999 0)
(1.05161 -0.0102956 0)
(1.05227 -0.0144944 0)
(1.05244 -0.0187677 0)
(1.00011 0.00224204 0)
(1.00206 0.00681486 0)
(1.00587 0.0102711 0)
(1.01056 0.012459 0)
(1.01551 0.0135226 0)
(1.0204 0.0136184 0)
(1.02504 0.0129396 0)
(1.02934 0.0116604 0)
(1.03326 0.0099047 0)
(1.03682 0.00775532 0)
(1.04002 0.00526568 0)
(1.04285 0.0024709 0)
(1.04531 -0.000602624 0)
(1.0474 -0.0039269 0)
(1.04908 -0.00746604 0)
(1.05034 -0.0111707 0)
(1.05117 -0.0149809 0)
(1.05158 -0.0188488 0)
(1.00012 0.00168049 0)
(1.00176 0.00507729 0)
(1.00497 0.00770584 0)
(1.00908 0.00939101 0)
(1.01355 0.0101943 0)
(1.01809 0.0102122 0)
(1.0225 0.00957214 0)
(1.02668 0.008398 0)
(1.03057 0.00678685 0)
(1.03413 0.00480963 0)
(1.03736 0.00251763 0)
(1.04024 -5.12097e-05 0)
(1.04276 -0.00286382 0)
(1.0449 -0.00588634 0)
(1.04666 -0.00907937 0)
(1.04803 -0.0123981 0)
(1.049 -0.0157945 0)
(1.04962 -0.0192403 0)
(1.00011 0.00109825 0)
(1.00148 0.0033122 0)
(1.00415 0.00503066 0)
(1.00768 0.00609908 0)
(1.01163 0.00652666 0)
(1.01575 0.00636269 0)
(1.01984 0.00568103 0)
(1.02378 0.00456024 0)
(1.02751 0.00306855 0)
(1.03096 0.00126128 0)
(1.03411 -0.000816969 0)
(1.03693 -0.00312996 0)
(1.03942 -0.00564399 0)
(1.04156 -0.00832513 0)
(1.04334 -0.0111369 0)
(1.04477 -0.0140417 0)
(1.04586 -0.0170048 0)
(1.04663 -0.0200113 0)
(1.0001 0.000503452 0)
(1.00124 0.00153541 0)
(1.00346 0.00227771 0)
(1.00646 0.00262672 0)
(1.00991 0.0025679 0)
(1.01357 0.00211719 0)
(1.01728 0.00130786 0)
(1.02091 0.000180776 0)
(1.02438 -0.00122457 0)
(1.02762 -0.00287169 0)
(1.03059 -0.00472841 0)
(1.03328 -0.00676502 0)
(1.03566 -0.00895369 0)
(1.03772 -0.0112654 0)
(1.03947 -0.0136713 0)
(1.0409 -0.0161428 0)
(1.04203 -0.0186568 0)
(1.04289 -0.0212078 0)
(1.00009 -0.000106079 0)
(1.00106 -0.000273358 0)
(1.00295 -0.000567268 0)
(1.00556 -0.00102682 0)
(1.0086 -0.00166886 0)
(1.01186 -0.00249828 0)
(1.0152 -0.0035117 0)
(1.01849 -0.00469944 0)
(1.02166 -0.00604915 0)
(1.02463 -0.00754633 0)
(1.02737 -0.00917554 0)
(1.02985 -0.01092 0)
(1.03205 -0.0127618 0)
(1.03397 -0.0146821 0)
(1.03561 -0.0166616 0)
(1.03697 -0.018682 0)
(1.03807 -0.0207294 0)
(1.03894 -0.0228053 0)
(1.00008 -0.000751668 0)
(1.00098 -0.00219495 0)
(1.00273 -0.00361118 0)
(1.00516 -0.00496537 0)
(1.00798 -0.00626704 0)
(1.01101 -0.00753719 0)
(1.0141 -0.00879861 0)
(1.01714 -0.0100716 0)
(1.02003 -0.0113727 0)
(1.02274 -0.0127124 0)
(1.02522 -0.0140967 0)
(1.02745 -0.0155259 0)
(1.02943 -0.0169964 0)
(1.03114 -0.0185016 0)
(1.0326 -0.0200331 0)
(1.03381 -0.0215827 0)
(1.03479 -0.0231447 0)
(1.03556 -0.0247246 0)
(1.00008 -0.00136058 0)
(1.00104 -0.00403437 0)
(1.00292 -0.00651644 0)
(1.0055 -0.00868904 0)
(1.00844 -0.010561 0)
(1.01153 -0.0121796 0)
(1.01461 -0.0135999 0)
(1.01756 -0.0148786 0)
(1.02033 -0.0160653 0)
(1.02285 -0.0171994 0)
(1.02512 -0.0183083 0)
(1.02711 -0.0194101 0)
(1.02883 -0.0205142 0)
(1.03028 -0.0216252 0)
(1.03148 -0.0227433 0)
(1.03244 -0.0238676 0)
(1.03318 -0.0249971 0)
(1.03372 -0.0261395 0)
(1.00008 -0.00188408 0)
(1.00114 -0.00567655 0)
(1.00331 -0.009094 0)
(1.00623 -0.0119196 0)
(1.00945 -0.0141923 0)
(1.01274 -0.0160022 0)
(1.01591 -0.0174455 0)
(1.01885 -0.0186227 0)
(1.02151 -0.0196206 0)
(1.02386 -0.0205051 0)
(1.02589 -0.0213228 0)
(1.02761 -0.0221053 0)
(1.02903 -0.0228719 0)
(1.03016 -0.0236348 0)
(1.03103 -0.0243996 0)
(1.03166 -0.0251693 0)
(1.03207 -0.0259456 0)
(1.0323 -0.0267361 0)
(1.00005 -0.00235758 0)
(1.00121 -0.00734195 0)
(1.00382 -0.0117013 0)
(1.00724 -0.0150951 0)
(1.01087 -0.0176518 0)
(1.0144 -0.01952 0)
(1.01767 -0.0208515 0)
(1.02056 -0.0218073 0)
(1.02304 -0.0225196 0)
(1.02509 -0.0230814 0)
(1.02676 -0.023557 0)
(1.02805 -0.0239888 0)
(1.02901 -0.0244046 0)
(1.02967 -0.0248204 0)
(1.03006 -0.0252456 0)
(1.03021 -0.0256846 0)
(1.03015 -0.0261396 0)
(1.02992 -0.0266169 0)
(0.99996 -0.00276639 0)
(1.0012 -0.00910906 0)
(1.00441 -0.0144117 0)
(1.00847 -0.0182597 0)
(1.01252 -0.0209664 0)
(1.01628 -0.0227378 0)
(1.01954 -0.0237969 0)
(1.0222 -0.0243917 0)
(1.02427 -0.0247083 0)
(1.02579 -0.0248666 0)
(1.02684 -0.0249451 0)
(1.02746 -0.0249951 0)
(1.02773 -0.0250475 0)
(1.02769 -0.02512 0)
(1.02739 -0.0252215 0)
(1.02687 -0.0253554 0)
(1.02616 -0.0255218 0)
(1.02532 -0.0257244 0)
(0.999816 -0.00306731 0)
(1.00104 -0.0110999 0)
(1.00505 -0.0173024 0)
(1.00983 -0.021417 0)
(1.01427 -0.0240923 0)
(1.01808 -0.0255659 0)
(1.02105 -0.0261582 0)
(1.02311 -0.0262352 0)
(1.02436 -0.0260435 0)
(1.02495 -0.0257247 0)
(1.025 -0.0253663 0)
(1.0246 -0.0250217 0)
(1.02386 -0.0247193 0)
(1.02284 -0.0244723 0)
(1.02161 -0.0242848 0)
(1.02021 -0.0241561 0)
(1.01867 -0.0240812 0)
(1.01705 -0.02406 0)
(0.999525 -0.00276872 0)
(1.00059 -0.0131808 0)
(1.00577 -0.0203496 0)
(1.01129 -0.0245195 0)
(1.01584 -0.0269123 0)
(1.01927 -0.0278141 0)
(1.02136 -0.0277066 0)
(1.02218 -0.0271064 0)
(1.02198 -0.0263131 0)
(1.02104 -0.0254762 0)
(1.01957 -0.0246796 0)
(1.01771 -0.0239677 0)
(1.01559 -0.023356 0)
(1.01328 -0.0228457 0)
(1.01086 -0.022431 0)
(1.00836 -0.0221037 0)
(1.00582 -0.0218524 0)
(1.00328 -0.021671 0)
(0.998536 -0.000808444 0)
(0.999345 -0.0144952 0)
(1.0064 -0.0230273 0)
(1.01261 -0.0272814 0)
(1.0166 -0.0291417 0)
(1.01868 -0.0291357 0)
(1.01881 -0.0280827 0)
(1.0173 -0.0266812 0)
(1.0147 -0.0252547 0)
(1.01144 -0.0239293 0)
(1.0078 -0.0227617 0)
(1.00397 -0.0217693 0)
(1.00007 -0.0209426 0)
(0.996168 -0.0202628 0)
(0.992309 -0.0197109 0)
(0.988518 -0.0192683 0)
(0.984801 -0.0189182 0)
(0.981217 -0.0186489 0)
(0.99638 0.000167169 0)
(0.996896 -0.0156287 0)
(1.00638 -0.0246168 0)
(1.01265 -0.0290353 0)
(1.01456 -0.0302163 0)
(1.01337 -0.029003 0)
(1.00959 -0.0268275 0)
(1.00405 -0.0246056 0)
(0.9977 -0.0226306 0)
(0.991103 -0.0209544 0)
(0.984553 -0.0195713 0)
(0.978197 -0.0184502 0)
(0.972105 -0.0175471 0)
(0.966295 -0.0168201 0)
(0.960759 -0.0162367 0)
(0.955479 -0.0157696 0)
(0.950429 -0.0153997 0)
(0.945657 -0.0151133 0)
(0.997401 -0.0161137 0)
(0.997926 -0.0282368 0)
(1.00601 -0.028849 0)
(1.00779 -0.0301011 0)
(1.00326 -0.0295852 0)
(0.994668 -0.0268345 0)
(0.983458 -0.0235159 0)
(0.971263 -0.0206274 0)
(0.959323 -0.0183408 0)
(0.948158 -0.0165665 0)
(0.937863 -0.0151981 0)
(0.928398 -0.0141413 0)
(0.919684 -0.0133188 0)
(0.911622 -0.0126708 0)
(0.904122 -0.0121567 0)
(0.897105 -0.0117458 0)
(0.890493 -0.0114246 0)
(0.884326 -0.0111777 0)
(1.02979 -0.0764209 0)
(1.02294 -0.0774364 0)
(1.00678 -0.0485445 0)
(0.982358 -0.0334616 0)
(0.955932 -0.0262649 0)
(0.929911 -0.0210358 0)
(0.905214 -0.0169358 0)
(0.882939 -0.0139815 0)
(0.863587 -0.0119313 0)
(0.846882 -0.0104954 0)
(0.832282 -0.00946776 0)
(0.819327 -0.00871315 0)
(0.807684 -0.00814436 0)
(0.797103 -0.00770313 0)
(0.787388 -0.00735446 0)
(0.778404 -0.00707312 0)
(0.770001 -0.00685625 0)
(0.762227 -0.00669298 0)
(0.947751 0.332579 0)
(0.943841 0.161004 0)
(0.880545 0.0384018 0)
(0.795014 -0.00449151 0)
(0.725385 -0.0125409 0)
(0.676058 -0.0105066 0)
(0.640398 -0.00739357 0)
(0.613354 -0.00529138 0)
(0.591995 -0.00412555 0)
(0.574365 -0.00349369 0)
(0.559216 -0.00312029 0)
(0.545859 -0.00286809 0)
(0.533894 -0.00267908 0)
(0.523057 -0.00252838 0)
(0.513133 -0.00240507 0)
(0.504011 -0.00230383 0)
(0.495486 -0.0022239 0)
(0.487674 -0.0021747 0)
(0.00380786 -0.00992784 1.21606e-14)
(0.00914932 -0.00954189 -1.19228e-14)
(0.0102309 -0.00303412 0)
(0.00578548 0.00390964 0)
(-0.00303392 0.00879691 0)
(-0.0147988 0.011868 8.49448e-15)
(-0.0285706 0.0141017 0)
(-0.0438189 0.0160138 0)
(-0.0601946 0.0176864 0)
(-0.0773911 0.0190475 0)
(-0.0950768 0.0200014 -4.63179e-15)
(-0.112915 0.02049 0)
(-0.130573 0.0205076 0)
(-0.14775 0.0200886 0)
(-0.16418 0.0192931 0)
(-0.179647 0.0181897 -3.22644e-15)
(-0.19398 0.016845 0)
(-0.207056 0.0153182 0)
(-0.21879 0.0136676 0)
(-0.229132 0.0119411 0)
(-0.238062 0.0101831 0)
(-0.245582 0.00842938 0)
(-0.251707 0.00671417 0)
(-0.256461 0.00506243 -2.54851e-15)
(-0.259876 0.00349805 2.52452e-15)
(-0.261978 0.00204166 -2.50964e-15)
(-0.262808 0.000715859 -2.50132e-15)
(-0.262451 -0.00045495 0)
(-0.261124 -0.00148313 0)
(-0.258878 -0.00241392 2.50495e-15)
(-0.25579 -0.00326799 2.5182e-15)
(-0.25192 -0.00406011 0)
(-0.247327 -0.00479739 0)
(-0.242059 -0.00548468 2.59024e-15)
(-0.236167 -0.0061248 0)
(-0.229696 -0.00671494 0)
(-0.222693 -0.0072655 -2.70977e-15)
(-0.215196 -0.00777656 0)
(-0.207255 -0.0082384 -2.81673e-15)
(-0.198908 -0.00865903 -5.75855e-15)
(-0.190201 -0.00903821 0)
(-0.181175 -0.00937638 0)
(-0.171871 -0.00967756 0)
(-0.162329 -0.00994041 0)
(-0.152587 -0.010169 0)
(-0.142681 -0.0103619 -6.80029e-15)
(-0.132643 -0.0105246 -7.03031e-15)
(-0.122506 -0.0106554 -7.28081e-15)
(-0.112299 -0.0107606 0)
(-0.10205 -0.0108388 7.84623e-15)
(-0.0917809 -0.0108976 0)
(-0.0815178 -0.0109338 -8.51262e-15)
(-0.0712808 -0.0109562 -8.88911e-15)
(-0.0610949 -0.0109617 0)
(-0.0509773 -0.0109592 0)
(-0.040944 -0.0109418 0)
(-0.0310052 -0.0109172 -1.07757e-14)
(-0.0211823 -0.0108717 0)
(-0.0115165 -0.0107826 0)
(-0.00194634 -0.0105688 0)
(0.00756302 -0.0102352 0)
(0.0169331 -0.00985703 0)
(0.0261474 -0.00947588 0)
(0.0351891 -0.0090974 0)
(0.0440533 -0.00873209 0)
(0.0527354 -0.00837583 9.46085e-15)
(0.0612361 -0.008035 0)
(0.0695542 -0.00770519 0)
(0.0776915 -0.00739026 -8.62746e-15)
(0.0856455 -0.00708481 -8.39457e-15)
(0.0934192 -0.00679375 0)
(0.101013 -0.00651241 7.9798e-15)
(0.108431 -0.00624412 -7.7946e-15)
(0.115672 -0.00598439 0)
(0.122741 -0.00573657 7.46334e-15)
(0.129639 -0.005497 0)
(0.136371 -0.00526849 0)
(0.142935 -0.00504699 -7.04544e-15)
(0.14933 -0.0048349 0)
(0.155557 -0.00462969 6.80946e-15)
(0.161621 -0.00443385 0)
(0.167523 -0.00424423 -6.60184e-15)
(0.173264 -0.00406194 -6.50728e-15)
(0.178846 -0.00388582 -6.4187e-15)
(0.184273 -0.0037127 -1.26703e-14)
(0.189544 -0.00354031 1.25129e-14)
(0.194667 -0.0033931 0)
(0.199629 -0.00323579 0)
(0.204443 -0.00308768 0)
(0.209086 -0.00293747 1.19703e-14)
(0.213589 -0.00279932 1.18519e-14)
(0.217942 -0.00265938 -1.17453e-14)
(0.222174 -0.00253253 0)
(0.226255 -0.00240373 1.15446e-14)
(0.230211 -0.00227774 1.14496e-14)
(0.234019 -0.00217212 1.13654e-14)
(0.237706 -0.00205665 0)
(0.241245 -0.00192893 0)
(0.244663 -0.00181971 0)
(0.247948 -0.00174466 1.10627e-14)
(0.251108 -0.00162797 0)
(0.254154 -0.00153862 0)
(0.257061 -0.00143516 -1.0881e-14)
(0.259871 -0.00135192 0)
(0.262562 -0.00130924 0)
(0.265135 -0.00119612 -1.07291e-14)
(0.267597 -0.00110991 0)
(0.269968 -0.00105123 0)
(0.272207 -0.000996351 1.0598e-14)
(0.27436 -0.000922298 1.05602e-14)
(0.276386 -0.000833527 0)
(0.27832 -0.000806185 -1.04952e-14)
(0.280156 -0.000766591 0)
(0.28189 -0.000699858 1.04478e-14)
(0.283571 -0.000646142 0)
(0.285131 -0.000560615 1.03941e-14)
(0.286618 -0.000523399 1.03702e-14)
(0.28805 -0.000519878 0)
(0.289355 -0.000442756 0)
(0.290635 -0.00038504 0)
(0.291803 -0.00038773 0)
(0.292941 -0.000372395 0)
(0.293971 -0.000309838 0)
(0.294982 -0.000265886 0)
(0.295911 -0.000262531 1.02402e-14)
(0.296772 -0.000237625 -1.02342e-14)
(0.297546 -0.000184668 0)
(0.2983 -0.000172962 0)
(0.298969 -0.000133762 0)
(0.299569 -0.000114337 0)
(0.300138 -0.000128541 -2.04133e-14)
(0.300661 -6.79577e-05 0)
(0.301114 -2.66491e-05 2.04015e-14)
(0.30153 -2.26336e-05 -2.03927e-14)
(0.301865 -6.56471e-06 0)
(0.302201 -1.09208e-05 0)
(0.302439 1.88085e-05 0)
(0.302641 4.01666e-05 2.03946e-14)
(0.302801 6.9407e-05 2.03948e-14)
(0.302937 7.43173e-05 0)
(0.302952 2.2058e-05 2.04381e-14)
(0.303016 3.13575e-05 2.04457e-14)
(0.303139 5.80287e-05 -2.04221e-14)
(0.303221 5.55444e-05 0)
(0.303266 5.63369e-05 0)
(0.303253 9.43043e-05 -2.04345e-14)
(0.303195 0.000112422 0)
(0.303145 9.3558e-05 0)
(0.303038 0.000112214 0)
(0.302907 0.000128043 0)
(0.302684 0.00013526 2.04886e-14)
(0.302508 0.000135478 2.04877e-14)
(0.302265 0.000126791 0)
(0.302016 0.000154065 2.05205e-14)
(0.301739 0.000157676 0)
(0.301395 0.000151527 0)
(0.301074 0.000176152 2.05689e-14)
(0.300709 0.000183356 0)
(0.300294 0.000193859 2.06097e-14)
(0.299866 0.000200436 0)
(0.299309 0.00020058 0)
(0.298765 0.0001899 2.07043e-14)
(0.298205 0.000151942 0)
(0.297719 0.000145155 2.07401e-14)
(0.297201 0.000147136 0)
(0.296766 0.000172832 0)
(0.296241 0.00021753 0)
(0.29556 0.000252904 -2.07826e-14)
(0.294824 0.000287584 0)
(0.293919 0.000326555 2.08371e-14)
(0.292827 0.000368841 0)
(0.291579 0.00042121 0)
(0.290067 0.000497877 0)
(0.288188 0.000610826 0)
(0.285815 0.00078695 0)
(0.282648 0.00105839 0)
(0.278482 0.00145757 0)
(0.2719 0.00217776 -4.35413e-14)
(0.264875 0.00330301 0)
(0.242616 0.0051564 0)
(-0.000228175 -0.0161893 -3.25581e-14)
(-0.00476193 -0.00355885 2.17122e-14)
(-0.0134128 0.0131451 0)
(-0.0254284 0.0271458 -7.2893e-15)
(-0.0399413 0.0374537 0)
(-0.0561919 0.0444368 -2.86961e-15)
(-0.0735443 0.0489493 5.2641e-15)
(-0.0913727 0.0517355 4.8551e-15)
(-0.109153 0.0532176 0)
(-0.126463 0.0535781 4.18826e-15)
(-0.142976 0.0529358 1.95777e-15)
(-0.158462 0.0514066 0)
(-0.172768 0.0491224 0)
(-0.185805 0.0462266 0)
(-0.197532 0.0428661 0)
(-0.20794 0.0391782 1.48905e-15)
(-0.21705 0.0352872 0)
(-0.224898 0.0312957 -2.74268e-15)
(-0.231531 0.0272883 0)
(-0.237005 0.0233282 0)
(-0.241377 0.0194634 2.48469e-15)
(-0.244705 0.0157259 0)
(-0.247051 0.0121403 -2.36103e-15)
(-0.248479 0.00872279 1.15558e-15)
(-0.249051 0.00549111 -1.13436e-15)
(-0.248833 0.00246435 1.11677e-15)
(-0.247889 -0.000328734 1.1006e-15)
(-0.246255 -0.00287551 0)
(-0.243865 -0.00519316 0)
(-0.240731 -0.00731473 -1.068e-15)
(-0.236873 -0.00926231 1.06124e-15)
(-0.232318 -0.0110526 0)
(-0.227102 -0.0126959 0)
(-0.22126 -0.0142004 -1.05073e-15)
(-0.214832 -0.0155716 0)
(-0.207856 -0.0168138 0)
(-0.200371 -0.0179313 1.0532e-15)
(-0.192418 -0.018929 0)
(-0.184038 -0.0198126 -1.06088e-15)
(-0.175269 -0.0205839 2.13315e-15)
(-0.16615 -0.0212462 0)
(-0.156719 -0.0218012 0)
(-0.147014 -0.0222567 4.36517e-15)
(-0.137073 -0.0226174 4.40686e-15)
(-0.126932 -0.0228902 4.45277e-15)
(-0.116625 -0.0230788 -2.25145e-15)
(-0.106183 -0.023191 2.27858e-15)
(-0.0956371 -0.0232309 6.92326e-15)
(-0.0850154 -0.0232068 -4.67781e-15)
(-0.0743443 -0.023123 -2.37204e-15)
(-0.0636476 -0.0229886 0)
(-0.0529472 -0.0228072 2.44409e-15)
(-0.0422639 -0.022588 -2.48296e-15)
(-0.031617 -0.0223345 0)
(-0.0210225 -0.0220568 0)
(-0.0104911 -0.0217575 0)
(-2.38342e-05 -0.0214442 2.60582e-15)
(0.0103616 -0.021117 0)
(0.020653 -0.0207732 -5.15345e-15)
(0.030827 -0.0203797 0)
(0.0408388 -0.0199267 -5.12973e-15)
(0.0506843 -0.0194333 0)
(0.0603813 -0.0189217 5.12423e-15)
(0.0699317 -0.0184009 0)
(0.0793342 -0.0178809 -5.12587e-15)
(0.0885861 -0.0173633 2.56408e-15)
(0.0976857 -0.0168536 0)
(0.106631 -0.0163504 5.13455e-15)
(0.11542 -0.0158579 2.56922e-15)
(0.124052 -0.0153736 2.57139e-15)
(0.132527 -0.0149009 0)
(0.140844 -0.0144376 2.57618e-15)
(0.149004 -0.0139861 2.57877e-15)
(0.157007 -0.0135439 0)
(0.164854 -0.0131137 -2.58434e-15)
(0.172547 -0.0126927 5.17456e-15)
(0.180086 -0.0122835 0)
(0.18747 -0.0118835 2.59343e-15)
(0.1947 -0.0114941 0)
(0.201776 -0.0111129 -7.79984e-15)
(0.208701 -0.0107421 0)
(0.215473 -0.0103793 7.82046e-15)
(0.222095 -0.0100263 2.61044e-15)
(0.228568 -0.00968041 -2.61419e-15)
(0.234893 -0.00934348 -5.2362e-15)
(0.241074 -0.00901253 5.2441e-15)
(0.247107 -0.00869184 0)
(0.252993 -0.00837708 0)
(0.258729 -0.00806816 0)
(0.264316 -0.00776478 -1.58303e-14)
(0.269759 -0.00746889 -5.28485e-15)
(0.275071 -0.00718089 5.29507e-15)
(0.280248 -0.00689935 0)
(0.285292 -0.00662525 5.3138e-15)
(0.290198 -0.00635736 -5.32213e-15)
(0.294972 -0.00609772 -5.33238e-15)
(0.299609 -0.00584599 0)
(0.304117 -0.00560015 0)
(0.308494 -0.00535895 0)
(0.312742 -0.00512846 -5.36982e-15)
(0.316865 -0.00490211 0)
(0.32086 -0.00468388 1.07772e-14)
(0.324739 -0.00447208 1.61977e-14)
(0.328494 -0.00426437 -1.08142e-14)
(0.332131 -0.0040712 0)
(0.335651 -0.00388337 -5.42787e-15)
(0.33905 -0.00369004 0)
(0.342328 -0.00351404 -1.08798e-14)
(0.345499 -0.00334284 5.4523e-15)
(0.34856 -0.00317443 5.46016e-15)
(0.351519 -0.00301502 0)
(0.354375 -0.00285619 1.645e-14)
(0.357131 -0.00271157 -1.09916e-14)
(0.359786 -0.00256375 -5.50766e-15)
(0.36233 -0.00243097 0)
(0.364788 -0.00231234 -5.52241e-15)
(0.367152 -0.00217772 -1.65948e-14)
(0.369417 -0.00206245 0)
(0.371606 -0.00195207 -1.10983e-14)
(0.373702 -0.00184045 -1.11034e-14)
(0.375719 -0.00173559 -1.11262e-14)
(0.377649 -0.00163963 0)
(0.379509 -0.00154727 0)
(0.381279 -0.00144904 0)
(0.382975 -0.00136119 5.59039e-15)
(0.384607 -0.00128152 5.60064e-15)
(0.386174 -0.00119732 0)
(0.387656 -0.00111141 1.12371e-14)
(0.38908 -0.00104253 1.12552e-14)
(0.390441 -0.000967629 0)
(0.391735 -0.000892784 1.12931e-14)
(0.392963 -0.00083817 2.26103e-14)
(0.394135 -0.000778428 -1.13269e-14)
(0.395251 -0.000717116 -1.13414e-14)
(0.396325 -0.000653542 0)
(0.397341 -0.000593552 0)
(0.398309 -0.000546481 0)
(0.399234 -0.000489044 -1.13903e-14)
(0.400091 -0.00043347 1.1402e-14)
(0.400912 -0.00039608 2.2833e-14)
(0.401721 -0.000365696 -1.14547e-14)
(0.402439 -0.000335025 1.14685e-14)
(0.403071 -0.000314354 1.14557e-14)
(0.403663 -0.000290292 0)
(0.404232 -0.000260466 0)
(0.404794 -0.00023553 -1.14721e-14)
(0.405291 -0.000195667 0)
(0.405755 -0.000153956 0)
(0.406176 -0.000121305 2.29868e-14)
(0.406542 -9.02488e-05 0)
(0.406916 -5.80793e-05 1.15282e-14)
(0.407204 -2.60249e-05 -1.15327e-14)
(0.407476 -4.14858e-06 0)
(0.407707 1.55631e-05 1.15519e-14)
(0.407901 3.70848e-05 0)
(0.408093 6.0695e-05 0)
(0.408222 8.71144e-05 -1.15735e-14)
(0.40832 0.000113031 2.31572e-14)
(0.408379 0.000144253 -1.16011e-14)
(0.408418 0.00017093 0)
(0.408468 0.000189616 0)
(0.408471 0.000208794 1.16613e-14)
(0.408459 0.000222255 0)
(0.408354 0.000223021 1.16586e-14)
(0.408161 0.000234496 0)
(0.407914 0.00026317 0)
(0.40761 0.000298776 0)
(0.407241 0.000365011 1.16557e-14)
(0.406823 0.000454848 0)
(0.406308 0.000548624 -1.166e-14)
(0.405665 0.000665577 0)
(0.404857 0.000817972 0)
(0.403868 0.00101893 2.34268e-14)
(0.402603 0.0012936 -2.34634e-14)
(0.400958 0.00168477 0)
(0.398792 0.00226953 0)
(0.395958 0.00317029 0)
(0.391603 0.00456911 7.14764e-14)
(0.387095 0.00702993 0)
(0.375041 0.0111698 -4.93757e-14)
(-0.00593512 -0.00109457 -5.61986e-22)
(-0.0180728 0.0217163 -1.81281e-14)
(-0.0310717 0.0419412 0)
(-0.0456145 0.0576138 8.13546e-15)
(-0.0605693 0.0691988 0)
(-0.0755199 0.0770966 0)
(-0.0903356 0.0818509 7.97631e-24)
(-0.104843 0.0840436 -2.63974e-15)
(-0.118795 0.0841794 -2.46921e-15)
(-0.13199 0.0826599 -2.31884e-15)
(-0.144309 0.0798035 0)
(-0.155687 0.075886 0)
(-0.166103 0.0711552 1.96156e-15)
(-0.175565 0.0658325 3.7354e-15)
(-0.184093 0.0601129 -3.56851e-15)
(-0.191712 0.0541622 0)
(-0.198447 0.0481178 -3.28852e-15)
(-0.204323 0.0420892 1.58583e-15)
(-0.209359 0.0361611 0)
(-0.213575 0.030396 -2.9764e-15)
(-0.216987 0.0248394 -1.44768e-15)
(-0.219611 0.0195223 2.82395e-15)
(-0.221461 0.0144657 1.38063e-15)
(-0.222553 0.00968247 0)
(-0.222896 0.00517955 -2.65931e-15)
(-0.222501 0.000957017 -2.61686e-15)
(-0.221375 -0.00299498 0)
(-0.219525 -0.00669376 -2.54145e-15)
(-0.21696 -0.0101504 0)
(-0.213698 -0.0133715 -2.48741e-15)
(-0.209763 -0.0163637 -1.23332e-15)
(-0.205178 -0.0191333 0)
(-0.199974 -0.0216859 0)
(-0.19418 -0.0240269 0)
(-0.187832 -0.0261611 0)
(-0.180961 -0.0280928 0)
(-0.173605 -0.0298266 0)
(-0.165799 -0.0313672 -2.41294e-15)
(-0.15758 -0.0327215 3.62416e-15)
(-0.148985 -0.0338966 0)
(-0.140052 -0.0348981 0)
(-0.130814 -0.0357302 0)
(-0.121308 -0.036401 -1.25132e-22)
(-0.111569 -0.0369193 -2.46805e-15)
(-0.10163 -0.0372947 -4.96987e-15)
(-0.0915248 -0.0375356 5.00755e-15)
(-0.0812827 -0.0376524 2.5245e-15)
(-0.0709329 -0.0376542 -2.54704e-15)
(-0.0605025 -0.037552 1.42771e-22)
(-0.0500167 -0.0373555 -2.59729e-15)
(-0.0394982 -0.0370756 0)
(-0.0289677 -0.0367222 -2.65405e-15)
(-0.0184446 -0.0363069 1.50464e-22)
(-0.00794374 -0.0358388 0)
(0.00252033 -0.0353272 0)
(0.0129268 -0.034777 2.7114e-15)
(0.0232566 -0.0341919 0)
(0.0334952 -0.033574 0)
(0.043632 -0.0329287 -2.71575e-15)
(0.0536567 -0.0322619 -5.4428e-15)
(0.0635588 -0.031576 2.72905e-15)
(0.0733338 -0.0308686 0)
(0.0829806 -0.030146 -2.74843e-15)
(0.0924967 -0.0294132 0)
(0.101879 -0.0286769 -2.77092e-15)
(0.111123 -0.02794 -2.78285e-15)
(0.120228 -0.0272072 5.59014e-15)
(0.12919 -0.0264799 2.80753e-15)
(0.138007 -0.0257611 0)
(0.146678 -0.0250511 -5.66596e-15)
(0.155202 -0.0243522 0)
(0.163579 -0.023664 -8.57677e-15)
(0.171807 -0.0229884 -5.74405e-15)
(0.179888 -0.0223244 -5.7704e-15)
(0.187821 -0.0216734 5.79685e-15)
(0.195608 -0.0210347 -8.73508e-15)
(0.203248 -0.0204094 0)
(0.21074 -0.0197963 0)
(0.218086 -0.0191961 5.9034e-15)
(0.225286 -0.0186076 8.89526e-15)
(0.232341 -0.0180316 0)
(0.239251 -0.017467 -2.99192e-15)
(0.246016 -0.0169144 0)
(0.252639 -0.0163725 9.05675e-15)
(0.25912 -0.0158419 1.5133e-22)
(0.26546 -0.0153217 -1.46821e-22)
(0.271658 -0.0148134 -6.11899e-15)
(0.277716 -0.0143145 0)
(0.283631 -0.0138243 6.17295e-15)
(0.289405 -0.0133435 1.29598e-22)
(0.295041 -0.0128728 0)
(0.300548 -0.0124129 0)
(0.305924 -0.0119636 0)
(0.311169 -0.0115245 -6.30913e-15)
(0.316282 -0.0110954 0)
(0.321266 -0.0106775 0)
(0.32612 -0.010269 0)
(0.330847 -0.00987007 0)
(0.335448 -0.00948141 0)
(0.339925 -0.00910494 -6.46992e-15)
(0.34428 -0.00873719 0)
(0.348512 -0.0083803 -6.52241e-15)
(0.352628 -0.0080328 -6.54879e-15)
(0.356626 -0.00769669 6.57378e-15)
(0.360506 -0.00737358 0)
(0.36427 -0.00705637 6.62496e-15)
(0.367922 -0.00674635 0)
(0.371459 -0.00644947 6.67169e-15)
(0.374891 -0.00616386 -6.69814e-15)
(0.378212 -0.00588607 -2.01642e-14)
(0.381434 -0.00561906 0)
(0.384554 -0.00536239 -2.03187e-14)
(0.387574 -0.00511655 -6.7988e-15)
(0.390498 -0.00487553 0)
(0.393318 -0.00464328 -1.36879e-14)
(0.396049 -0.0044232 -1.37353e-14)
(0.398688 -0.00420994 2.06702e-14)
(0.40123 -0.00400859 0)
(0.403692 -0.00381168 6.93133e-15)
(0.406062 -0.00362141 6.94817e-15)
(0.408356 -0.0034423 2.09105e-14)
(0.410559 -0.00326931 0)
(0.412692 -0.00310068 0)
(0.414739 -0.0029365 0)
(0.416713 -0.00278336 7.04405e-15)
(0.418614 -0.00263592 0)
(0.42045 -0.00248979 0)
(0.42221 -0.00234935 -7.10231e-15)
(0.423906 -0.00221964 -7.12006e-15)
(0.42554 -0.00209489 0)
(0.427106 -0.00197326 0)
(0.428608 -0.00185728 -1.43471e-14)
(0.430052 -0.00174794 0)
(0.431435 -0.00164454 1.44166e-14)
(0.432768 -0.00154002 1.44486e-14)
(0.434032 -0.0014428 0)
(0.435252 -0.00134838 0)
(0.436422 -0.0012578 -1.45057e-14)
(0.437548 -0.00117495 -3.92557e-23)
(0.438629 -0.00109883 -3.87169e-23)
(0.439671 -0.00103118 0)
(0.440643 -0.000960336 -2.92621e-14)
(0.441545 -0.000895367 0)
(0.442397 -0.000835583 0)
(0.443202 -0.000770769 0)
(0.443972 -0.000710911 1.46706e-14)
(0.444706 -0.000646634 0)
(0.445386 -0.000579835 -2.93874e-14)
(0.446037 -0.000526062 -1.47087e-14)
(0.446654 -0.000468029 0)
(0.447238 -0.000412123 -1.47548e-14)
(0.447771 -0.00036391 0)
(0.448271 -0.000315901 0)
(0.44873 -0.000269188 -4.44157e-14)
(0.449153 -0.000221288 2.96336e-14)
(0.449542 -0.00017491 0)
(0.449892 -0.000131327 2.9632e-14)
(0.450213 -9.17365e-05 -1.48229e-14)
(0.45051 -4.88376e-05 0)
(0.450777 -4.15799e-06 0)
(0.451035 3.27395e-05 0)
(0.451234 7.18562e-05 -4.46653e-14)
(0.451397 0.000107299 0)
(0.451483 0.000135625 -1.48585e-14)
(0.451504 0.000185325 0)
(0.451453 0.000253077 0)
(0.451351 0.000320014 0)
(0.451192 0.000419003 0)
(0.450972 0.000545459 0)
(0.450674 0.000680139 0)
(0.45027 0.000851085 -2.97989e-14)
(0.449724 0.00107983 0)
(0.449003 0.00137902 -1.49127e-14)
(0.448062 0.00177752 4.4759e-14)
(0.446823 0.00234622 0)
(0.44517 0.00317361 0)
(0.443039 0.00441002 -2.99787e-14)
(0.439955 0.00628131 -3.01501e-14)
(0.436779 0.00937636 3.02998e-14)
(0.43012 0.0143326 3.11548e-14)
(-0.00867429 0.0254683 4.66609e-14)
(-0.0237996 0.0542656 2.12596e-14)
(-0.0380415 0.0742857 8.19164e-15)
(-0.0526964 0.0885116 3.00162e-15)
(-0.066775 0.0985859 0)
(-0.079964 0.105082 -4.37953e-15)
(-0.092345 0.108457 1.99099e-15)
(-0.104006 0.109177 0)
(-0.114975 0.107705 1.72125e-15)
(-0.125248 0.104477 0)
(-0.134819 0.0998802 -3.05788e-15)