/*--------------------------------*- C++ -*----------------------------------*\
| =========                 |                                                 |
| \\      /  F ield         | OpenFOAM: The Open Source CFD Toolbox           |
|  \\    /   O peration     | Version:  2312                                  |
|   \\  /    A nd           | Website:  www.openfoam.com                      |
|    \\/     M anipulation  |                                                 |
\*---------------------------------------------------------------------------*/
FoamFile
{
    version     2.0;
    format      ascii;
    arch        "LSB;label=32;scalar=64";
    class       volVectorField;
    location    "4";
    object      ddtU;
}
// * * * * * * * * * * * * * * * * * * * * * * * * * * * * * * * * * * * * * //

dimensions      [0 1 -2 0 0 0 0];

internalField   nonuniform List<vector> 
400
(
(-6.13376e-10 -1.92083e-07 0)
(1.40998e-11 4.53975e-08 0)
(4.79616e-12 -1.07643e-08 0)
(-1.09024e-11 2.54668e-09 0)
(5.86198e-12 -6.02141e-10 0)
(-8.65974e-13 1.42588e-10 0)
(1.28786e-12 -3.36162e-11 0)
(3.9968e-13 7.99673e-12 0)
(5.32907e-13 -1.82349e-12 0)
(4.21885e-13 4.75869e-13 0)
(3.77476e-13 -8.03602e-14 0)
(3.33067e-13 5.18648e-14 0)
(2.88658e-13 1.02804e-14 0)
(2.44249e-13 1.1447e-14 0)
(1.9984e-13 -1.25263e-14 0)
(2.44249e-13 4.83727e-16 0)
(1.9984e-13 1.62299e-14 0)
(1.9984e-13 -3.14114e-16 0)
(1.77636e-13 -1.53182e-14 0)
(1.77636e-13 1.2045e-13 0)
(3.06817e-09 1.92097e-07 0)
(-6.67155e-10 -4.53359e-08 0)
(2.81997e-10 1.07328e-08 0)
(-6.68132e-11 -2.53381e-09 0)
(2.26041e-11 5.97186e-10 0)
(-5.88418e-12 -1.40804e-10 0)
(2.62013e-12 3.33373e-11 0)
(2.22045e-14 -7.60438e-12 0)
(6.66134e-13 1.97341e-12 0)
(3.55271e-13 -3.33506e-13 0)
(3.77476e-13 1.72632e-13 0)
(2.88658e-13 4.82573e-14 0)
(2.44249e-13 5.7855e-14 0)
(1.9984e-13 3.76994e-14 0)
(1.9984e-13 -3.24345e-15 0)
(1.55431e-13 3.12008e-15 0)
(1.9984e-13 4.11409e-14 0)
(1.33227e-13 1.36632e-14 0)
(1.33227e-13 -7.27415e-14 0)
(1.77636e-13 3.2098e-13 0)
(-5.35492e-09 -1.92189e-07 0)
(1.19345e-09 4.53003e-08 0)
(-4.91251e-10 -1.07318e-08 0)
(1.21192e-10 2.52992e-09 0)
(-3.56604e-11 -5.96476e-10 0)
(1.25233e-11 1.41433e-10 0)
(-2.28706e-12 -3.27375e-11 0)
(1.55431e-12 8.15548e-12 0)
(1.9984e-13 -1.57381e-12 0)
(5.10703e-13 6.07007e-13 0)
(3.10862e-13 3.82953e-14 0)
(2.66454e-13 1.52808e-13 0)
(1.9984e-13 1.01454e-13 0)
(2.22045e-13 4.71582e-14 0)
(2.44249e-13 -3.50008e-15 0)
(1.9984e-13 -2.56035e-15 0)
(1.9984e-13 5.06908e-14 0)
(1.77636e-13 2.27342e-14 0)
(1.77636e-13 -1.2428e-13 0)
(1.33227e-13 5.0897e-13 0)
(8.2037e-09 1.92321e-07 0)
(-1.77061e-09 -4.52748e-08 0)
(7.52021e-10 1.07288e-08 0)
(-1.70419e-10 -2.5222e-09 0)
(5.83089e-11 5.96818e-10 0)
(-1.61426e-11 -1.39544e-10 0)
(5.24025e-12 3.36803e-11 0)
(-9.99201e-13 -7.25085e-12 0)
(7.54952e-13 2.20617e-12 0)
(1.55431e-13 -1.49379e-13 0)
(2.66454e-13 3.04925e-13 0)
(1.77636e-13 1.44171e-13 0)
(2.22045e-13 1.21133e-13 0)
(1.9984e-13 2.19202e-14 0)
(1.77636e-13 -1.59307e-14 0)
(1.77636e-13 -3.46719e-15 0)
(1.9984e-13 7.35958e-14 0)
(1.55431e-13 3.9284e-14 0)
(1.9984e-13 -1.61194e-13 0)
(8.88178e-14 7.19092e-13 0)
(-1.11163e-08 -1.92678e-07 0)
(2.41016e-09 4.53665e-08 0)
(-1.01967e-09 -1.07418e-08 0)
(2.33324e-10 2.53051e-09 0)
(-7.72049e-11 -5.94726e-10 0)
(2.30038e-11 1.41927e-10 0)
(-5.75096e-12 -3.21326e-11 0)
(2.13163e-12 8.45563e-12 0)
(-3.55271e-13 -1.35019e-12 0)
(3.10862e-13 7.84925e-13 0)
(8.88178e-14 1.49977e-13 0)
(1.77636e-13 1.79412e-13 0)
(1.77636e-13 9.44703e-14 0)
(1.33227e-13 1.81183e-14 0)
(1.11022e-13 -2.3907e-14 0)
(1.55431e-13 -2.66822e-15 0)
(8.88178e-14 9.10642e-14 0)
(1.55431e-13 4.58312e-14 0)
(8.88178e-14 -1.92775e-13 0)
(1.55431e-13 9.01329e-13 0)
(1.38682e-08 1.93198e-07 0)
(-2.94684e-09 -4.54796e-08 0)
(1.25917e-09 1.07796e-08 0)
(-2.78111e-10 -2.53225e-09 0)
(9.58789e-11 6.00447e-10 0)
(-2.75779e-11 -1.3974e-10 0)
(7.4607e-12 3.42081e-11 0)
(-2.33147e-12 -7.08017e-12 0)
(7.10543e-13 2.35551e-12 0)
(-6.66134e-14 -5.72083e-14 0)
(1.33227e-13 3.59556e-13 0)
(6.66134e-14 1.34136e-13 0)
(8.88178e-14 1.01775e-13 0)
(8.88178e-14 1.10807e-14 0)
(1.77636e-13 -4.76601e-14 0)
(1.11022e-13 5.24036e-15 0)
(1.77636e-13 1.27256e-13 0)
(1.33227e-13 5.93278e-14 0)
(1.33227e-13 -2.3854e-13 0)
(1.11022e-13 1.05153e-12 0)
(-1.65457e-08 -1.94028e-07 0)
(3.52807e-09 4.5724e-08 0)
(-1.51408e-09 -1.08275e-08 0)
(3.33022e-10 2.5533e-09 0)
(-1.16351e-10 -6.00348e-10 0)
(3.20632e-11 1.43572e-10 0)
(-9.12603e-12 -3.24403e-11 0)
(2.53131e-12 8.61185e-12 0)
(-9.32587e-13 -1.34917e-12 0)
(1.77636e-13 7.74996e-13 0)
(-4.44089e-14 1.24203e-13 0)
(4.44089e-14 1.71132e-13 0)
(8.88178e-14 6.68389e-14 0)
(4.44089e-14 1.00537e-15 0)
(4.44089e-14 -4.16917e-14 0)
(6.66134e-14 1.09597e-14 0)
(1.33227e-13 1.44586e-13 0)
(8.88178e-14 7.50678e-14 0)
(4.44089e-14 -2.70436e-13 0)
(4.44089e-14 1.17509e-12 0)
(1.85917e-08 1.95025e-07 0)
(-3.89981e-09 -4.59861e-08 0)
(1.67759e-09 1.09001e-08 0)
(-3.64153e-10 -2.56625e-09 0)
(1.26166e-10 6.08727e-10 0)
(-3.68816e-11 -1.42194e-10 0)
(9.10383e-12 3.46771e-11 0)
(-3.5083e-12 -7.34807e-12 0)
(5.32907e-13 2.3259e-12 0)
(-4.88498e-13 -1.49264e-13 0)
(-8.88178e-14 2.86024e-13 0)
(-4.44089e-14 8.85855e-14 0)
(-8.88178e-14 7.94589e-14 0)
(-4.44089e-14 -9.25105e-15 0)
(4.44089e-14 -6.89387e-14 0)
(0 -1.24059e-14 0)
(0 1.26533e-13 0)
(4.44089e-14 5.88753e-14 0)
(8.88178e-14 -2.92382e-13 0)
(4.44089e-14 1.26665e-12 0)
(-2.052e-08 -1.9632e-07 0)
(4.31948e-09 4.63609e-08 0)
(-1.87139e-09 -1.09825e-08 0)
(4.02434e-10 2.59505e-09 0)
(-1.43885e-10 -6.12042e-10 0)
(3.81473e-11 1.45969e-10 0)
(-1.15907e-11 -3.35727e-11 0)
(2.53131e-12 8.55591e-12 0)
(-1.33227e-12 -1.60038e-12 0)
(-4.44089e-14 6.71448e-13 0)
(-3.55271e-13 2.76962e-14 0)
(-1.33227e-13 1.0351e-13 0)
(-1.33227e-13 5.26248e-14 0)
(-8.88178e-14 -4.62494e-14 0)
(-8.88178e-14 -1.16952e-13 0)
(-4.44089e-14 -5.59426e-14 0)
(0 1.14624e-13 0)
(4.44089e-14 5.08605e-14 0)
(8.88178e-14 -3.17209e-13 0)
(4.44089e-14 1.33395e-12 0)
(2.14853e-08 1.97775e-07 0)
(-4.45279e-09 -4.67604e-08 0)
(1.92841e-09 1.10839e-08 0)
(-4.12959e-10 -2.6194e-09 0)
(1.43308e-10 6.21075e-10 0)
(-4.21885e-11 -1.46333e-10 0)
(9.90319e-12 3.51229e-11 0)
(-4.21885e-12 -7.96043e-12 0)
(3.9968e-13 2.09275e-12 0)
(-6.88338e-13 -3.72893e-13 0)
(-1.33227e-13 1.55754e-13 0)
(-2.22045e-13 1.30553e-14 0)
(-1.77636e-13 1.30364e-14 0)
(-4.44089e-14 -1.00691e-13 0)
(-8.88178e-14 -1.34117e-13 0)
(-8.88178e-14 -6.84303e-14 0)
(0 1.0046e-13 0)
(0 4.31978e-14 0)
(4.44089e-14 -3.20032e-13 0)
(-4.44089e-14 1.37324e-12 0)
(-2.23249e-08 -1.99448e-07 0)
(4.64384e-09 4.72331e-08 0)
(-2.02738e-09 -1.11951e-08 0)
(4.29656e-10 2.65192e-09 0)
(-1.54654e-10 -6.28188e-10 0)
(4.04121e-11 1.49e-10 0)
(-1.25011e-11 -3.52475e-11 0)
(2.62013e-12 8.37815e-12 0)
(-1.5099e-12 -1.97634e-12 0)
(-2.22045e-13 4.44133e-13 0)
(-4.88498e-13 -1.5389e-13 0)
(-3.10862e-13 9.39347e-15 0)
(-2.22045e-13 -5.38058e-14 0)
(-1.77636e-13 -1.43722e-13 0)
(-1.33227e-13 -1.70897e-13 0)
(-1.77636e-13 -7.07277e-14 0)
(0 7.49927e-14 0)
(0 -5.62429e-15 0)
(0 -3.36433e-13 0)
(-2.22045e-14 1.38378e-12 0)
(2.20229e-08 2.0125e-07 0)
(-4.51026e-09 -4.77336e-08 0)
(1.967e-09 1.13154e-08 0)
(-4.16556e-10 -2.6855e-09 0)
(1.4464e-10 6.36355e-10 0)
(-4.24771e-11 -1.51472e-10 0)
(9.81437e-12 3.55644e-11 0)
(-4.24105e-12 -8.75033e-12 0)
(2.22045e-13 1.85791e-12 0)
(-6.66134e-13 -6.35039e-13 0)
(-2.66454e-13 -3.73427e-15 0)
(-2.66454e-13 -1.20915e-13 0)
(-1.33227e-13 -9.34627e-14 0)
(-1.33227e-13 -1.6963e-13 0)
(-1.33227e-13 -1.94194e-13 0)
(-8.88178e-14 -1.04088e-13 0)
(-1.33227e-13 4.61358e-14 0)
(-4.44089e-14 -3.87583e-14 0)
(-4.44089e-14 -3.58323e-13 0)
(-6.66134e-14 1.35108e-12 0)
(-2.16266e-08 -2.03131e-07 0)
(4.44849e-09 4.82505e-08 0)
(-1.95526e-09 -1.14435e-08 0)
(4.10294e-10 2.71744e-09 0)
(-1.47393e-10 -6.46611e-10 0)
(3.85025e-11 1.52507e-10 0)
(-1.17462e-11 -3.70985e-11 0)
(2.44249e-12 8.19188e-12 0)
(-1.42109e-12 -2.42432e-12 0)
(-1.33227e-13 1.89706e-13 0)
(-3.10862e-13 -3.48058e-13 0)
(-1.77636e-13 -1.40881e-13 0)
(-1.33227e-13 -1.59426e-13 0)
(-1.33227e-13 -1.78894e-13 0)
(-4.44089e-14 -1.79116e-13 0)
(-1.33227e-13 -9.9169e-14 0)
(-8.88178e-14 3.59917e-14 0)
(-8.88178e-14 -5.25755e-14 0)
(-6.66134e-14 -3.54808e-13 0)
(-1.33227e-13 1.28794e-12 0)
(2.00814e-08 2.05066e-07 0)
(-4.06644e-09 -4.87908e-08 0)
(1.78622e-09 1.1568e-08 0)
(-3.74278e-10 -2.75583e-09 0)
(1.30074e-10 6.52808e-10 0)
(-3.7792e-11 -1.56807e-10 0)
(8.9706e-12 3.61511e-11 0)
(-3.64153e-12 -9.49332e-12 0)
(3.9968e-13 1.59168e-12 0)
(-5.77316e-13 -8.88728e-13 0)
(-2.22045e-13 -1.96044e-13 0)
(-2.22045e-13 -2.60708e-13 0)
(-1.77636e-13 -1.82972e-13 0)
(-1.33227e-13 -2.02957e-13 0)
(-1.33227e-13 -2.04387e-13 0)
(-1.33227e-13 -1.20596e-13 0)
(-4.44089e-14 3.16764e-14 0)
(-8.88178e-14 -4.50626e-14 0)
(-1.33227e-13 -3.29034e-13 0)
(-6.66134e-14 1.19265e-12 0)
(-1.84914e-08 -2.06899e-07 0)
(3.76685e-09 4.92815e-08 0)
(-1.66471e-09 -1.16946e-08 0)
(3.47367e-10 2.78306e-09 0)
(-1.23301e-10 -6.64641e-10 0)
(3.28626e-11 1.56102e-10 0)
(-9.4369e-12 -3.87207e-11 0)
(2.35367e-12 8.15832e-12 0)
(-1.04361e-12 -2.74557e-12 0)
(0 5.79899e-14 0)
(-2.22045e-13 -4.70127e-13 0)
(-1.33227e-13 -2.28307e-13 0)
(-1.77636e-13 -1.96939e-13 0)
(-1.33227e-13 -2.16926e-13 0)
(-1.33227e-13 -2.19406e-13 0)
(-2.22045e-13 -1.26331e-13 0)
(-1.77636e-13 4.01362e-14 0)
(-1.33227e-13 -3.7827e-14 0)
(-1.33227e-13 -3.16144e-13 0)
(-1.11022e-13 1.05571e-12 0)
(1.59131e-08 2.08682e-07 0)
(-3.18887e-09 -4.97818e-08 0)
(1.41118e-09 1.18046e-08 0)
(-2.92522e-10 -2.82046e-09 0)
(1.02141e-10 6.68237e-10 0)
(-2.8888e-11 -1.61332e-10 0)
(7.32747e-12 3.68832e-11 0)
(-2.44249e-12 -9.97855e-12 0)
(5.77316e-13 1.54031e-12 0)
(-2.88658e-13 -9.95946e-13 0)
(-4.44089e-14 -2.395e-13 0)
(-1.77636e-13 -2.85129e-13 0)
(-8.88178e-14 -1.92199e-13 0)
(-1.33227e-13 -2.1756e-13 0)
(-1.33227e-13 -1.82966e-13 0)
(-1.33227e-13 -1.01949e-13 0)
(-8.88178e-14 3.30128e-14 0)
(-8.88178e-14 -5.28914e-14 0)
(-1.33227e-13 -2.86722e-13 0)
(-1.11022e-13 9.02288e-13 0)
(-1.33296e-08 -2.10185e-07 0)
(2.69504e-09 5.01712e-08 0)
(-1.19462e-09 -1.19095e-08 0)
(2.50067e-10 2.83909e-09 0)
(-8.59535e-11 -6.79223e-10 0)
(2.4114e-11 1.59532e-10 0)
(-6.01741e-12 -3.97443e-11 0)
(2.08722e-12 8.31471e-12 0)
(-4.44089e-13 -2.80732e-12 0)
(2.22045e-13 7.30267e-14 0)
(4.44089e-14 -4.54671e-13 0)
(-4.44089e-14 -1.88703e-13 0)
(-8.88178e-14 -2.02461e-13 0)
(-1.33227e-13 -1.91395e-13 0)
(-8.88178e-14 -1.75182e-13 0)
(-1.77636e-13 -1.13076e-13 0)
(-1.33227e-13 2.33901e-15 0)
(-1.33227e-13 -4.44233e-14 0)
(-1.11022e-13 -2.35395e-13 0)
(-1.77636e-13 7.33466e-13 0)
(1.00619e-08 2.11513e-07 0)
(-1.99589e-09 -5.05455e-08 0)
(8.90266e-10 1.19895e-08 0)
(-1.82543e-10 -2.86864e-09 0)
(6.45706e-11 6.80569e-10 0)
(-1.70752e-11 -1.64286e-10 0)
(5.37348e-12 3.78395e-11 0)
(-9.99201e-13 -1.0052e-11 0)
(7.10543e-13 1.65747e-12 0)
(8.88178e-14 -9.46433e-13 0)
(8.88178e-14 -1.68823e-13 0)
(1.33227e-13 -2.29909e-13 0)
(4.44089e-14 -1.50618e-13 0)
(-4.44089e-14 -1.67673e-13 0)
(-8.88178e-14 -1.44341e-13 0)
(-1.33227e-13 -8.58331e-14 0)
(-2.22045e-13 -1.16734e-14 0)
(-2.22045e-13 -5.18403e-14 0)
(-2.22045e-13 -2.11695e-13 0)
(-1.11022e-13 5.36397e-13 0)
(-7.00471e-09 -2.12445e-07 0)
(1.42708e-09 5.0778e-08 0)
(-6.19749e-10 -1.20539e-08 0)
(1.32605e-10 2.87431e-09 0)
(-4.13891e-11 -6.87297e-10 0)
(1.35003e-11 1.62082e-10 0)
(-2.04281e-12 -3.96311e-11 0)
(1.59872e-12 8.84676e-12 0)
(2.44249e-13 -2.51834e-12 0)
(3.9968e-13 3.0841e-13 0)
(1.33227e-13 -2.87206e-13 0)
(4.44089e-14 -9.44727e-14 0)
(4.44089e-14 -6.65699e-14 0)
(-4.44089e-14 -5.40529e-14 0)
(-8.88178e-14 -6.24901e-14 0)
(-1.33227e-13 -1.97463e-14 0)
(-1.33227e-13 3.64914e-14 0)
(-6.66134e-14 -6.48203e-16 0)
(-1.9984e-13 -1.5118e-13 0)
(-1.9984e-13 3.12565e-13 0)
(3.17724e-09 2.13201e-07 0)
(-7.57971e-10 -5.11343e-08 0)
(3.47145e-10 1.21418e-08 0)
(-8.11573e-11 -2.91066e-09 0)
(3.23741e-11 6.9503e-10 0)
(-7.03881e-12 -1.66416e-10 0)
(3.86358e-12 3.97239e-11 0)
(1.11022e-13 -9.653e-12 0)
(7.99361e-13 2.26023e-12 0)
(3.55271e-13 -5.74409e-13 0)
(2.22045e-13 1.25479e-13 0)
(1.77636e-13 -4.87116e-14 0)
(0 1.95098e-14 0)
(0 1.37972e-14 0)
(-1.33227e-13 -2.5123e-15 0)
(-1.33227e-13 8.09024e-15 0)
(-8.88178e-14 3.92946e-14 0)
(-4.44089e-14 2.75358e-14 0)
(-1.55431e-13 -4.27614e-14 0)
(-1.9984e-13 9.93535e-14 0)
)
;

boundaryField
{
    movingWall
    {
        type            calculated;
        value           uniform (0 0 0);
    }
    fixedWalls
    {
        type            calculated;
        value           uniform (0 0 0);
    }
    frontAndBack
    {
        type            empty;
    }
}


// ************************************************************************* //
