/*--------------------------------*- C++ -*----------------------------------*\
| =========                 |                                                 |
| \\      /  F ield         | OpenFOAM: The Open Source CFD Toolbox           |
|  \\    /   O peration     | Version:  2312                                  |
|   \\  /    A nd           | Website:  www.openfoam.com                      |
|    \\/     M anipulation  |                                                 |
\*---------------------------------------------------------------------------*/
FoamFile
{
    version     2.0;
    format      ascii;
    arch        "LSB;label=32;scalar=64";
    class       volVectorField;
    location    "4";
    object      diffU;
}
// * * * * * * * * * * * * * * * * * * * * * * * * * * * * * * * * * * * * * //

dimensions      [0 1 -1 0 0 0 0];

internalField   nonuniform List<vector> 
400
(
(0 0 0)
(7.48803e-11 -7.66533e-08 0)
(8.97815e-12 -5.8468e-08 0)
(3.83052e-11 -6.2785e-08 0)
(2.60922e-11 -6.17609e-08 0)
(2.97657e-11 -6.20041e-08 0)
(2.82794e-11 -6.19465e-08 0)
(2.85931e-11 -6.19602e-08 0)
(2.84028e-11 -6.1957e-08 0)
(2.84026e-11 -6.19577e-08 0)
(2.83644e-11 -6.19576e-08 0)
(2.83494e-11 -6.19576e-08 0)
(2.8335e-11 -6.19576e-08 0)
(2.83258e-11 -6.19576e-08 0)
(2.83183e-11 -6.19576e-08 0)
(2.83137e-11 -6.19576e-08 0)
(2.83098e-11 -6.19576e-08 0)
(2.83067e-11 -6.19576e-08 0)
(2.83042e-11 -6.19576e-08 0)
(2.83042e-11 -6.19576e-08 0)
(-1.48138e-10 -1.23898e-07 0)
(7.01801e-11 -4.72686e-08 0)
(1.21823e-11 -6.54368e-08 0)
(3.35397e-11 -6.11315e-08 0)
(2.72162e-11 -6.21524e-08 0)
(2.90982e-11 -6.19111e-08 0)
(2.83649e-11 -6.19684e-08 0)
(2.85036e-11 -6.19549e-08 0)
(2.83971e-11 -6.19581e-08 0)
(2.83866e-11 -6.19574e-08 0)
(2.83589e-11 -6.19576e-08 0)
(2.83452e-11 -6.19576e-08 0)
(2.83327e-11 -6.19576e-08 0)
(2.8324e-11 -6.19576e-08 0)
(2.83177e-11 -6.19576e-08 0)
(2.83129e-11 -6.19576e-08 0)
(2.83091e-11 -6.19576e-08 0)
(2.83062e-11 -6.19576e-08 0)
(2.83042e-11 -6.19576e-08 0)
(2.8304e-11 -6.19576e-08 0)
(3.26206e-10 -7.86312e-11 0)
(-4.58924e-11 -7.66137e-08 0)
(5.56674e-11 -5.84808e-08 0)
(2.03249e-11 -6.27802e-08 0)
(3.06157e-11 -6.1762e-08 0)
(2.76528e-11 -6.20035e-08 0)
(2.86168e-11 -6.19464e-08 0)
(2.83316e-11 -6.196e-08 0)
(2.8396e-11 -6.19569e-08 0)
(2.83552e-11 -6.19577e-08 0)
(2.83488e-11 -6.19575e-08 0)
(2.83357e-11 -6.19576e-08 0)
(2.83273e-11 -6.19576e-08 0)
(2.83206e-11 -6.19576e-08 0)
(2.83155e-11 -6.19576e-08 0)
(2.83116e-11 -6.19576e-08 0)
(2.83085e-11 -6.19576e-08 0)
(2.8306e-11 -6.19576e-08 0)
(2.83042e-11 -6.19576e-08 0)
(2.8304e-11 -6.19576e-08 0)
(-5.80666e-10 -1.23801e-07 0)
(1.69033e-10 -4.73224e-08 0)
(-2.79761e-11 -6.54269e-08 0)
(4.22613e-11 -6.1136e-08 0)
(2.38001e-11 -6.21516e-08 0)
(2.96482e-11 -6.19113e-08 0)
(2.79454e-11 -6.19683e-08 0)
(2.84558e-11 -6.19549e-08 0)
(2.83065e-11 -6.19581e-08 0)
(2.83469e-11 -6.19574e-08 0)
(2.83285e-11 -6.19576e-08 0)
(2.83265e-11 -6.19575e-08 0)
(2.83203e-11 -6.19576e-08 0)
(2.83165e-11 -6.19576e-08 0)
(2.83128e-11 -6.19576e-08 0)
(2.831e-11 -6.19576e-08 0)
(2.8308e-11 -6.19576e-08 0)
(2.83057e-11 -6.19576e-08 0)
(2.83046e-11 -6.19576e-08 0)
(2.8304e-11 -6.19576e-08 0)
(9.62817e-10 -1.40129e-10 0)
(-1.8265e-10 -7.65805e-08 0)
(1.13434e-10 -5.84905e-08 0)
(7.41762e-12 -6.27775e-08 0)
(3.47427e-11 -6.17632e-08 0)
(2.62479e-11 -6.20033e-08 0)
(2.88186e-11 -6.19466e-08 0)
(2.81315e-11 -6.196e-08 0)
(2.83588e-11 -6.19569e-08 0)
(2.83014e-11 -6.19577e-08 0)
(2.83203e-11 -6.19575e-08 0)
(2.83138e-11 -6.19576e-08 0)
(2.83139e-11 -6.19576e-08 0)
(2.83115e-11 -6.19576e-08 0)
(2.83098e-11 -6.19576e-08 0)
(2.8308e-11 -6.19576e-08 0)
(2.83066e-11 -6.19576e-08 0)
(2.83051e-11 -6.19576e-08 0)
(2.83036e-11 -6.19576e-08 0)
(2.83046e-11 -6.19576e-08 0)
(-1.26421e-09 -1.23775e-07 0)
(3.12867e-10 -4.73363e-08 0)
(-8.96501e-11 -6.54238e-08 0)
(5.55004e-11 -6.11375e-08 0)
(1.92157e-11 -6.21515e-08 0)
(3.08408e-11 -6.19115e-08 0)
(2.75273e-11 -6.19683e-08 0)
(2.84941e-11 -6.19549e-08 0)
(2.82263e-11 -6.19581e-08 0)
(2.83169e-11 -6.19574e-08 0)
(2.82983e-11 -6.19576e-08 0)
(2.83076e-11 -6.19575e-08 0)
(2.83066e-11 -6.19576e-08 0)
(2.83074e-11 -6.19576e-08 0)
(2.8307e-11 -6.19576e-08 0)
(2.83066e-11 -6.19576e-08 0)
(2.83058e-11 -6.19576e-08 0)
(2.8305e-11 -6.19576e-08 0)
(2.83042e-11 -6.19576e-08 0)
(2.83044e-11 -6.19576e-08 0)
(1.65577e-09 -1.18338e-10 0)
(-3.2627e-10 -7.65864e-08 0)
(1.76053e-10 -5.84893e-08 0)
(-5.75273e-12 -6.2778e-08 0)
(3.93406e-11 -6.17632e-08 0)
(2.49338e-11 -6.20035e-08 0)
(2.91205e-11 -6.19466e-08 0)
(2.79838e-11 -6.19601e-08 0)
(2.83517e-11 -6.19569e-08 0)
(2.82638e-11 -6.19577e-08 0)
(2.83003e-11 -6.19575e-08 0)
(2.82967e-11 -6.19576e-08 0)
(2.83022e-11 -6.19576e-08 0)
(2.83027e-11 -6.19576e-08 0)
(2.83038e-11 -6.19576e-08 0)
(2.83044e-11 -6.19576e-08 0)
(2.83045e-11 -6.19576e-08 0)
(2.8304e-11 -6.19576e-08 0)
(2.83036e-11 -6.19576e-08 0)
(2.8304e-11 -6.19576e-08 0)
(-1.89739e-09 -1.23845e-07 0)
(4.42867e-10 -4.73133e-08 0)
(-1.46463e-10 -6.54295e-08 0)
(6.74256e-11 -6.1136e-08 0)
(1.50737e-11 -6.21521e-08 0)
(3.199e-11 -6.19114e-08 0)
(2.72047e-11 -6.19684e-08 0)
(2.85677e-11 -6.19549e-08 0)
(2.81788e-11 -6.19581e-08 0)
(2.83044e-11 -6.19574e-08 0)
(2.82796e-11 -6.19576e-08 0)
(2.82954e-11 -6.19576e-08 0)
(2.82963e-11 -6.19576e-08 0)
(2.82998e-11 -6.19576e-08 0)
(2.83016e-11 -6.19576e-08 0)
(2.83025e-11 -6.19576e-08 0)
(2.83029e-11 -6.19576e-08 0)
(2.83036e-11 -6.19576e-08 0)
(2.8304e-11 -6.19576e-08 0)
(2.83042e-11 -6.19576e-08 0)
(2.20969e-09 4.34006e-13 0)
(-4.38981e-10 -7.66249e-08 0)
(2.25852e-10 -5.848e-08 0)
(-1.59663e-11 -6.27808e-08 0)
(4.30196e-11 -6.17626e-08 0)
(2.3948e-11 -6.20037e-08 0)
(2.93872e-11 -6.19466e-08 0)
(2.78932e-11 -6.19601e-08 0)
(2.8363e-11 -6.19569e-08 0)
(2.82465e-11 -6.19577e-08 0)
(2.8292e-11 -6.19575e-08 0)
(2.82874e-11 -6.19576e-08 0)
(2.82947e-11 -6.19576e-08 0)
(2.82971e-11 -6.19576e-08 0)
(2.83e-11 -6.19576e-08 0)
(2.83011e-11 -6.19576e-08 0)
(2.83025e-11 -6.19576e-08 0)
(2.83031e-11 -6.19576e-08 0)
(2.83036e-11 -6.19576e-08 0)
(2.83042e-11 -6.19576e-08 0)
(-2.33523e-09 -1.24008e-07 0)
(5.30822e-10 -4.72615e-08 0)
(-1.8549e-10 -6.54422e-08 0)
(7.54169e-11 -6.11323e-08 0)
(1.22802e-11 -6.21531e-08 0)
(3.27779e-11 -6.19112e-08 0)
(2.70088e-11 -6.19685e-08 0)
(2.86308e-11 -6.1955e-08 0)
(2.81586e-11 -6.19582e-08 0)
(2.8304e-11 -6.19574e-08 0)
(2.82727e-11 -6.19576e-08 0)
(2.82905e-11 -6.19576e-08 0)
(2.82918e-11 -6.19576e-08 0)
(2.82965e-11 -6.19576e-08 0)
(2.82989e-11 -6.19576e-08 0)
(2.83009e-11 -6.19576e-08 0)
(2.83025e-11 -6.19576e-08 0)
(2.83031e-11 -6.19576e-08 0)
(2.83038e-11 -6.19576e-08 0)
(2.83042e-11 -6.19576e-08 0)
(2.52058e-09 2.00831e-10 0)
(-5.00174e-10 -7.66877e-08 0)
(2.5348e-10 -5.84648e-08 0)
(-2.14164e-11 -6.27853e-08 0)
(4.50132e-11 -6.17614e-08 0)
(2.34368e-11 -6.20041e-08 0)
(2.95362e-11 -6.19465e-08 0)
(2.78553e-11 -6.19602e-08 0)
(2.83756e-11 -6.1957e-08 0)
(2.82421e-11 -6.19577e-08 0)
(2.82903e-11 -6.19575e-08 0)
(2.82845e-11 -6.19576e-08 0)
(2.82925e-11 -6.19576e-08 0)
(2.82954e-11 -6.19576e-08 0)
(2.8298e-11 -6.19576e-08 0)
(2.82998e-11 -6.19576e-08 0)
(2.83018e-11 -6.19576e-08 0)
(2.83029e-11 -6.19576e-08 0)
(2.83038e-11 -6.19576e-08 0)
(2.83042e-11 -6.19576e-08 0)
(-2.49972e-09 -1.24238e-07 0)
(5.61275e-10 -4.71899e-08 0)
(-1.99733e-10 -6.54595e-08 0)
(7.80898e-11 -6.11272e-08 0)
(1.1352e-11 -6.21545e-08 0)
(3.30435e-11 -6.19109e-08 0)
(2.69564e-11 -6.19687e-08 0)
(2.86562e-11 -6.1955e-08 0)
(2.81566e-11 -6.19582e-08 0)
(2.83066e-11 -6.19574e-08 0)
(2.82718e-11 -6.19576e-08 0)
(2.82896e-11 -6.19576e-08 0)
(2.82909e-11 -6.19576e-08 0)
(2.82956e-11 -6.19576e-08 0)
(2.82983e-11 -6.19576e-08 0)
(2.83007e-11 -6.19576e-08 0)
(2.83022e-11 -6.19576e-08 0)
(2.83029e-11 -6.19576e-08 0)
(2.83042e-11 -6.19576e-08 0)
(2.83044e-11 -6.19576e-08 0)
(2.53332e-09 4.52783e-10 0)
(-4.99047e-10 -7.67649e-08 0)
(2.54039e-10 -5.84461e-08 0)
(-2.11635e-11 -6.27907e-08 0)
(4.49414e-11 -6.176e-08 0)
(2.34808e-11 -6.20045e-08 0)
(2.95305e-11 -6.19465e-08 0)
(2.78664e-11 -6.19602e-08 0)
(2.83784e-11 -6.1957e-08 0)
(2.82456e-11 -6.19577e-08 0)
(2.82923e-11 -6.19576e-08 0)
(2.82856e-11 -6.19576e-08 0)
(2.82934e-11 -6.19576e-08 0)
(2.82956e-11 -6.19576e-08 0)
(2.82989e-11 -6.19576e-08 0)
(2.83007e-11 -6.19576e-08 0)
(2.8302e-11 -6.19576e-08 0)
(2.83031e-11 -6.19576e-08 0)
(2.8304e-11 -6.19576e-08 0)
(2.83038e-11 -6.19576e-08 0)
(-2.35761e-09 -1.24501e-07 0)
(5.28065e-10 -4.71097e-08 0)
(-1.86314e-10 -6.5479e-08 0)
(7.49163e-11 -6.11216e-08 0)
(1.24865e-11 -6.2156e-08 0)
(3.27329e-11 -6.19105e-08 0)
(2.70581e-11 -6.19688e-08 0)
(2.86363e-11 -6.19549e-08 0)
(2.81726e-11 -6.19582e-08 0)
(2.83098e-11 -6.19574e-08 0)
(2.82772e-11 -6.19576e-08 0)
(2.82927e-11 -6.19576e-08 0)
(2.82929e-11 -6.19576e-08 0)
(2.82969e-11 -6.19576e-08 0)
(2.82994e-11 -6.19576e-08 0)
(2.83007e-11 -6.19576e-08 0)
(2.83022e-11 -6.19576e-08 0)
(2.83034e-11 -6.19576e-08 0)
(2.83042e-11 -6.19576e-08 0)
(2.83045e-11 -6.19576e-08 0)
(2.23711e-09 7.16377e-10 0)
(-4.34108e-10 -7.68444e-08 0)
(2.26704e-10 -5.84268e-08 0)
(-1.50833e-11 -6.27963e-08 0)
(4.27789e-11 -6.17585e-08 0)
(2.40938e-11 -6.20049e-08 0)
(2.93725e-11 -6.19464e-08 0)
(2.79299e-11 -6.19603e-08 0)
(2.83727e-11 -6.1957e-08 0)
(2.8257e-11 -6.19577e-08 0)
(2.82963e-11 -6.19576e-08 0)
(2.82898e-11 -6.19576e-08 0)
(2.82956e-11 -6.19576e-08 0)
(2.82969e-11 -6.19576e-08 0)
(2.82994e-11 -6.19576e-08 0)
(2.83009e-11 -6.19576e-08 0)
(2.83018e-11 -6.19576e-08 0)
(2.83031e-11 -6.19576e-08 0)
(2.83042e-11 -6.19576e-08 0)
(2.83044e-11 -6.19576e-08 0)
(-1.92247e-09 -1.24754e-07 0)
(4.34687e-10 -4.7034e-08 0)
(-1.46592e-10 -6.54974e-08 0)
(6.62261e-11 -6.11165e-08 0)
(1.55547e-11 -6.21574e-08 0)
(3.18922e-11 -6.19102e-08 0)
(2.73059e-11 -6.19689e-08 0)
(2.8577e-11 -6.19549e-08 0)
(2.82034e-11 -6.19582e-08 0)
(2.83124e-11 -6.19575e-08 0)
(2.82854e-11 -6.19576e-08 0)
(2.82965e-11 -6.19576e-08 0)
(2.82963e-11 -6.19576e-08 0)
(2.82987e-11 -6.19576e-08 0)
(2.82998e-11 -6.19576e-08 0)
(2.83016e-11 -6.19576e-08 0)
(2.83025e-11 -6.19576e-08 0)
(2.83036e-11 -6.19576e-08 0)
(2.83048e-11 -6.19576e-08 0)
(2.83046e-11 -6.19576e-08 0)
(1.6682e-09 9.48063e-10 0)
(-3.13415e-10 -7.69129e-08 0)
(1.74911e-10 -5.84103e-08 0)
(-3.8658e-12 -6.28009e-08 0)
(3.88459e-11 -6.17574e-08 0)
(2.52169e-11 -6.20052e-08 0)
(2.90945e-11 -6.19463e-08 0)
(2.8042e-11 -6.19603e-08 0)
(2.83616e-11 -6.1957e-08 0)
(2.82754e-11 -6.19578e-08 0)
(2.83025e-11 -6.19576e-08 0)
(2.8296e-11 -6.19576e-08 0)
(2.82996e-11 -6.19576e-08 0)
(2.82998e-11 -6.19576e-08 0)
(2.83014e-11 -6.19576e-08 0)
(2.83025e-11 -6.19576e-08 0)
(2.83031e-11 -6.19576e-08 0)
(2.8304e-11 -6.19576e-08 0)
(2.83049e-11 -6.19576e-08 0)
(2.83046e-11 -6.19576e-08 0)
(-1.25719e-09 -1.24953e-07 0)
(2.94456e-10 -4.6976e-08 0)
(-8.62108e-11 -6.55122e-08 0)
(5.32591e-11 -6.11127e-08 0)
(2.01228e-11 -6.21586e-08 0)
(3.06839e-11 -6.19099e-08 0)
(2.76779e-11 -6.1969e-08 0)
(2.84971e-11 -6.19549e-08 0)
(2.82476e-11 -6.19583e-08 0)
(2.83159e-11 -6.19575e-08 0)
(2.82949e-11 -6.19576e-08 0)
(2.83014e-11 -6.19576e-08 0)
(2.83005e-11 -6.19576e-08 0)
(2.83011e-11 -6.19576e-08 0)
(2.8302e-11 -6.19576e-08 0)
(2.83027e-11 -6.19576e-08 0)
(2.83029e-11 -6.19576e-08 0)
(2.83036e-11 -6.19576e-08 0)
(2.83044e-11 -6.19576e-08 0)
(2.83046e-11 -6.19576e-08 0)
(9.30028e-10 1.1121e-09 0)
(-1.60512e-10 -7.69609e-08 0)
(1.07853e-10 -5.84002e-08 0)
(1.11298e-11 -6.28032e-08 0)
(3.38786e-11 -6.17569e-08 0)
(2.67639e-11 -6.20053e-08 0)
(2.87312e-11 -6.19463e-08 0)
(2.81948e-11 -6.19603e-08 0)
(2.83426e-11 -6.1957e-08 0)
(2.82971e-11 -6.19578e-08 0)
(2.8306e-11 -6.19576e-08 0)
(2.83011e-11 -6.19576e-08 0)
(2.8302e-11 -6.19576e-08 0)
(2.83016e-11 -6.19576e-08 0)
(2.83025e-11 -6.19576e-08 0)
(2.83027e-11 -6.19576e-08 0)
(2.83029e-11 -6.19576e-08 0)
(2.8304e-11 -6.19576e-08 0)
(2.83047e-11 -6.19576e-08 0)
(2.83045e-11 -6.19576e-08 0)
(-4.57433e-10 -1.25089e-07 0)
(1.69538e-10 -4.69141e-08 0)
(-3.32407e-11 -6.55293e-08 0)
(4.62591e-11 -6.1107e-08 0)
(2.24887e-11 -6.21603e-08 0)
(3.02188e-11 -6.19094e-08 0)
(2.77969e-11 -6.19691e-08 0)
(2.84938e-11 -6.19549e-08 0)
(2.82645e-11 -6.19583e-08 0)
(2.83228e-11 -6.19574e-08 0)
(2.83003e-11 -6.19576e-08 0)
(2.83042e-11 -6.19576e-08 0)
(2.8302e-11 -6.19576e-08 0)
(2.83022e-11 -6.19576e-08 0)
(2.8302e-11 -6.19576e-08 0)
(2.83027e-11 -6.19576e-08 0)
(2.83031e-11 -6.19576e-08 0)
(2.83042e-11 -6.19576e-08 0)
(2.83054e-11 -6.19576e-08 0)
(2.83047e-11 -6.19576e-08 0)
)
;

boundaryField
{
    movingWall
    {
        type            calculated;
        value           uniform (2.83042e-11 -6.19576e-08 0);
    }
    fixedWalls
    {
        type            calculated;
        value           uniform (2.83042e-11 -6.19576e-08 0);
    }
    frontAndBack
    {
        type            empty;
    }
}


// ************************************************************************* //
