/*--------------------------------*- C++ -*----------------------------------*\
| =========                 |                                                 |
| \\      /  F ield         | OpenFOAM: The Open Source CFD Toolbox           |
|  \\    /   O peration     | Version:  2312                                  |
|   \\  /    A nd           | Website:  www.openfoam.com                      |
|    \\/     M anipulation  |                                                 |
\*---------------------------------------------------------------------------*/
FoamFile
{
    version     2.0;
    format      ascii;
    arch        "LSB;label=32;scalar=64";
    class       volScalarField;
    location    "4";
    object      divPhi;
}
// * * * * * * * * * * * * * * * * * * * * * * * * * * * * * * * * * * * * * //

dimensions      [0 0 -1 0 0 0 0];

internalField   nonuniform List<scalar> 
400
(
1.11131e-12
4.43054e-14
4.20526e-14
3.64911e-14
3.64675e-14
1.69345e-14
4.43602e-14
2.00208e-14
-4.59881e-15
2.97498e-14
7.50367e-15
1.62183e-14
4.01528e-15
1.56029e-14
2.21803e-14
4.02024e-15
-6.07059e-15
2.72779e-14
2.78729e-15
2.71051e-14
5.42101e-14
1.10008e-14
-2.12799e-15
4.78288e-14
3.49119e-14
2.02193e-14
2.80329e-15
2.02083e-14
2.24388e-16
1.02852e-14
2.39115e-14
4.0143e-15
-5.92736e-15
2.53769e-14
6.30615e-16
8.4437e-15
2.00342e-14
7.94282e-15
1.43446e-16
0
-2.71051e-14
4.07203e-15
2.1237e-14
3.66268e-14
3.00043e-14
-3.94868e-15
1.03836e-14
1.30568e-14
1.46727e-14
3.1304e-14
2.6362e-14
-4.99132e-15
2.06503e-14
8.25443e-15
2.8143e-14
-3.65447e-15
-6.06515e-15
2.81551e-14
6.51404e-15
2.71051e-14
2.71051e-14
3.47082e-14
1.50079e-14
2.37066e-14
2.71897e-14
3.62639e-16
2.31961e-14
2.45785e-14
-1.6276e-14
3.33642e-14
1.52943e-14
7.41792e-15
2.1864e-15
1.30364e-14
-1.88611e-14
3.81616e-14
2.24038e-15
-1.03139e-14
1.50521e-14
-2.71051e-14
-8.13152e-14
3.5458e-14
-1.21367e-14
2.55663e-14
-4.03668e-15
2.62847e-14
1.07314e-14
-9.49182e-15
3.45512e-14
1.35065e-14
-7.3188e-15
1.73358e-14
2.10566e-14
2.31112e-14
-1.17501e-14
3.98106e-14
2.25772e-14
-1.93314e-14
-8.35149e-15
2.71051e-14
2.71051e-14
3.31204e-14
4.33525e-16
-5.83213e-15
-1.92196e-14
4.06997e-15
3.90197e-15
2.57776e-15
1.55364e-14
6.76542e-15
-9.03043e-15
8.05782e-15
5.96817e-15
9.65734e-15
-5.00703e-15
9.1263e-15
2.81425e-15
4.11562e-14
-2.58402e-14
0
-2.71051e-14
-1.45302e-14
4.47272e-15
2.13885e-15
1.89123e-14
5.53244e-15
1.27329e-14
2.43582e-14
1.92861e-14
-1.4398e-16
3.90192e-15
3.15136e-14
-4.59739e-16
1.40748e-14
1.1449e-14
-4.03245e-16
1.22362e-14
-2.1033e-14
1.17657e-14
0
0
6.88404e-15
2.09259e-14
1.5891e-14
-1.71434e-14
1.38501e-14
3.53443e-15
-2.77495e-14
-1.8089e-14
1.16194e-14
8.36486e-16
2.26898e-14
-6.34125e-15
8.50783e-15
7.67817e-15
-1.09002e-14
-2.1644e-14
2.26665e-14
-1.5515e-14
0
-2.71051e-14
-1.35566e-14
-2.39521e-14
-3.84838e-14
3.54251e-14
-2.8918e-14
1.04506e-14
-1.28239e-14
2.57432e-16
1.29541e-14
-3.40654e-15
-3.50035e-15
1.82046e-14
5.66035e-15
2.48056e-14
-2.32359e-14
1.93028e-14
-2.94656e-15
3.80408e-14
0
2.71051e-14
2.24718e-14
-2.25184e-14
-1.16662e-14
-1.94562e-14
-1.18696e-14
-1.03848e-14
1.02807e-14
-6.5308e-15
1.7434e-14
-2.3335e-14
2.72679e-14
-2.43488e-14
-1.71261e-14
8.64491e-15
-9.83103e-15
2.3646e-14
-1.07927e-14
-1.09668e-15
0
-5.42101e-14
-1.67662e-14
2.17638e-14
-2.33627e-14
-5.93307e-15
-1.78671e-14
-2.60287e-14
3.56585e-16
-6.77173e-15
-1.65341e-14
6.70576e-15
9.41618e-16
-2.13398e-14
1.00741e-14
9.20282e-15
-1.50897e-14
-9.13073e-15
-1.24442e-14
7.49758e-15
0
-2.71051e-14
3.13767e-14
-2.6498e-14
-2.22638e-14
-1.32901e-14
2.40554e-15
-2.13424e-14
-9.57689e-15
-5.47038e-15
1.44362e-14
-3.25948e-14
1.86714e-14
-1.20916e-14
5.80502e-15
-5.4497e-15
-1.62044e-14
-2.79961e-14
-1.39483e-14
5.11707e-15
0
-2.71051e-14
-1.73541e-14
-1.13664e-14
-1.57729e-14
-2.96386e-14
-1.38552e-15
-2.01401e-14
-2.78416e-14
-4.76785e-15
-3.64413e-14
-3.4821e-14
-9.7978e-15
-1.98559e-14
8.95147e-15
-2.61553e-14
-2.94802e-15
1.03139e-14
1.08139e-14
-3.29108e-15
0
-2.71051e-14
-2.284e-14
-2.90143e-14
7.69024e-15
-4.51927e-14
-1.13096e-14
-2.08718e-14
9.49457e-15
-3.53579e-14
-2.37614e-14
-3.04573e-14
-9.44248e-15
-1.60175e-14
3.42783e-14
-2.88436e-14
-2.97593e-14
9.97759e-15
-1.57412e-14
-3.11271e-14
0
-2.71051e-14
1.6406e-15
-3.7376e-15
-7.68733e-15
-7.43358e-15
-2.6755e-14
1.45172e-15
-7.8848e-15
-2.25968e-14
-7.80439e-15
-2.81202e-14
2.87932e-15
-1.84714e-15
6.54598e-15
-1.51294e-14
-1.05372e-14
2.15356e-14
7.62672e-15
-9.15843e-15
0
-2.71051e-14
-2.02597e-14
-3.80965e-14
-9.49567e-15
-1.5064e-14
-2.81702e-14
-4.22925e-14
-2.30955e-14
7.9297e-16
-5.17539e-14
-1.63054e-14
-5.18478e-15
-2.40458e-14
5.80007e-15
7.54303e-15
-3.45236e-14
-1.65979e-14
-1.14634e-14
-6.34045e-16
-2.71051e-14
-5.42101e-14
1.52947e-14
-3.31921e-14
-5.90465e-14
1.13593e-14
-3.43843e-14
1.00088e-14
4.15187e-15
-1.98832e-14
-3.00055e-14
5.9113e-15
-2.12125e-14
-2.13799e-15
-1.96457e-14
-2.4743e-14
-7.56834e-15
-2.09277e-16
-1.03241e-14
-2.48638e-14
0
-2.71051e-14
-1.05053e-14
-2.80987e-14
-3.69543e-14
-1.27265e-14
-4.69771e-14
1.93054e-14
-1.95864e-14
-3.65041e-15
-4.65561e-14
2.23014e-14
-1.52164e-14
-2.27947e-14
-3.34025e-15
-3.19795e-14
7.05791e-15
-1.80729e-14
-2.37118e-14
-2.88447e-14
0
-5.42101e-14
-1.73081e-14
-2.8399e-14
-3.04939e-14
-3.0303e-14
-1.75107e-14
-7.78085e-15
-2.36961e-14
-1.11163e-14
-1.84896e-14
-3.21309e-14
-6.13606e-15
6.24797e-16
-1.27701e-14
-1.23717e-14
5.63424e-15
-2.83386e-16
-5.1968e-15
-2.99733e-14
0
-2.71051e-14
2.71051e-14
-2.71051e-14
2.71051e-14
0
0
-2.71051e-14
0
0
0
-2.71051e-14
0
0
-2.71051e-14
-5.42101e-14
2.71051e-14
-2.71051e-14
0
0
-2.71051e-14
)
;

boundaryField
{
    movingWall
    {
        type            extrapolatedCalculated;
        value           nonuniform List<scalar> 
20
(
-2.71051e-14
2.71051e-14
-2.71051e-14
2.71051e-14
0
0
-2.71051e-14
0
0
0
-2.71051e-14
0
0
-2.71051e-14
-5.42101e-14
2.71051e-14
-2.71051e-14
0
0
-2.71051e-14
)
;
    }
    fixedWalls
    {
        type            extrapolatedCalculated;
        value           nonuniform List<scalar> 
60
(
1.11131e-12
5.42101e-14
-2.71051e-14
2.71051e-14
-8.13152e-14
2.71051e-14
-2.71051e-14
0
-2.71051e-14
2.71051e-14
-5.42101e-14
-2.71051e-14
-2.71051e-14
-2.71051e-14
-2.71051e-14
-2.71051e-14
-5.42101e-14
-2.71051e-14
-5.42101e-14
-2.71051e-14
2.71051e-14
0
2.71051e-14
-2.71051e-14
2.71051e-14
0
0
0
0
0
0
0
0
0
0
-2.71051e-14
0
0
0
-2.71051e-14
1.11131e-12
4.43054e-14
4.20526e-14
3.64911e-14
3.64675e-14
1.69345e-14
4.43602e-14
2.00208e-14
-4.59881e-15
2.97498e-14
7.50367e-15
1.62183e-14
4.01528e-15
1.56029e-14
2.21803e-14
4.02024e-15
-6.07059e-15
2.72779e-14
2.78729e-15
2.71051e-14
)
;
    }
    frontAndBack
    {
        type            empty;
    }
}


// ************************************************************************* //
