/*--------------------------------*- C++ -*----------------------------------*\
| =========                 |                                                 |
| \\      /  F ield         | OpenFOAM: The Open Source CFD Toolbox           |
|  \\    /   O peration     | Version:  2312                                  |
|   \\  /    A nd           | Website:  www.openfoam.com                      |
|    \\/     M anipulation  |                                                 |
\*---------------------------------------------------------------------------*/
FoamFile
{
    version     2.0;
    format      ascii;
    arch        "LSB;label=32;scalar=64";
    class       volScalarField;
    location    "4";
    object      divU;
}
// * * * * * * * * * * * * * * * * * * * * * * * * * * * * * * * * * * * * * //

dimensions      [0 0 -1 0 0 0 0];

internalField   nonuniform List<scalar> 
400
(
3.53076e-09
2.3667e-10
-2.61789e-09
1.57952e-09
-6.60768e-10
2.21691e-10
-8.01352e-11
2.25839e-11
-8.38744e-12
1.97524e-12
-8.53498e-13
9.3731e-14
-9.84657e-14
-2.54525e-14
1.59574e-14
5.03105e-14
-5.72071e-14
-2.41418e-14
5.05791e-14
0
-2.13197e-08
1.99843e-08
-4.95049e-09
1.98548e-09
-5.5689e-10
1.78072e-10
-5.71796e-11
1.71771e-11
-5.58222e-12
1.55174e-12
-5.85929e-13
1.23603e-13
-9.60157e-14
-1.01932e-14
3.34147e-14
-3.26963e-14
-4.55271e-14
7.94653e-16
-2.59543e-15
5.42101e-14
3.20494e-08
-3.24354e-08
7.61696e-09
-2.95076e-09
8.0974e-10
-2.23022e-10
7.68774e-11
-1.88811e-11
6.3896e-12
-1.58611e-12
5.68695e-13
-1.44021e-13
4.71644e-14
-1.29817e-14
2.61749e-14
-2.09771e-14
-2.0927e-14
1.46531e-14
-2.329e-14
5.42101e-14
-5.2974e-08
5.8592e-08
-1.36429e-08
5.44545e-09
-1.38005e-09
4.28473e-10
-1.31207e-10
3.75484e-11
-1.08193e-11
3.59203e-12
-8.4474e-13
3.36355e-13
-1.65202e-14
1.51929e-14
-1.72315e-14
2.35608e-14
1.99616e-14
-1.56293e-14
6.46963e-15
0
7.49602e-08
-8.63333e-08
1.9316e-08
-8.02338e-09
1.89503e-09
-6.13583e-10
1.8396e-10
-4.98843e-11
1.57234e-11
-4.22272e-12
1.39799e-12
-3.20944e-13
1.94267e-13
-1.66533e-14
2.21293e-14
2.50034e-14
-3.86287e-14
-1.4525e-16
6.64501e-14
2.71051e-14
-9.86157e-08
1.16864e-07
-2.56222e-08
1.08383e-08
-2.47098e-09
8.18404e-10
-2.40741e-10
6.54838e-11
-2.0093e-11
5.86611e-12
-1.62695e-12
5.58376e-13
-8.95766e-14
9.14149e-14
4.44303e-14
1.96551e-14
-1.84283e-14
1.10865e-14
5.23569e-14
-5.42101e-14
1.20279e-07
-1.45671e-07
3.14767e-08
-1.35173e-08
3.01167e-09
-1.01762e-09
2.95401e-10
-8.00592e-11
2.49173e-11
-6.84631e-12
2.08993e-12
-5.33306e-13
2.11403e-13
-3.85931e-14
2.10689e-14
5.39408e-14
-4.09705e-14
-1.44759e-14
2.68417e-14
5.42101e-14
-1.39236e-07
1.71247e-07
-3.6613e-08
1.58702e-08
-3.47447e-09
1.18692e-09
-3.41284e-10
9.2151e-11
-2.86579e-11
8.00804e-12
-2.29168e-12
7.5782e-13
-1.91662e-13
1.25044e-13
6.85049e-15
-3.86492e-14
6.82085e-15
6.70427e-14
3.75465e-14
-5.42101e-14
1.55188e-07
-1.93205e-07
4.10394e-08
-1.79145e-08
3.88616e-09
-1.34069e-09
3.83083e-10
-1.0351e-10
3.21936e-11
-8.8681e-12
2.62066e-12
-7.27355e-13
1.82586e-13
-5.38929e-14
8.06099e-14
-5.399e-14
5.08555e-14
-1.42762e-14
4.17757e-14
0
-1.66062e-07
2.08696e-07
-4.40171e-08
1.93279e-08
-4.14679e-09
1.43801e-09
-4.08738e-10
1.09934e-10
-3.42216e-11
9.40967e-12
-2.75677e-12
8.22525e-13
-1.81548e-13
6.91273e-14
-2.73678e-14
8.00981e-14
-4.31584e-14
1.26549e-14
-3.28027e-14
2.71051e-14
1.73325e-07
-2.19549e-07
4.61402e-08
-2.03404e-08
4.3481e-09
-1.51425e-09
4.29394e-10
-1.15624e-10
3.60019e-11
-9.99763e-12
2.88172e-12
-7.90168e-13
2.54312e-13
-5.91911e-14
-2.79423e-14
-2.53936e-14
8.31373e-14
-2.9545e-14
8.47696e-15
2.71051e-14
-1.7431e-07
2.22272e-07
-4.64451e-08
2.05656e-08
-4.362e-09
1.52057e-09
-4.30176e-10
1.15246e-10
-3.59412e-11
9.81255e-12
-2.90779e-12
8.66465e-13
-2.0651e-13
3.57883e-14
3.61322e-14
-2.1259e-14
-4.92058e-14
2.61206e-14
5.0951e-14
-8.13152e-14
1.71453e-07
-2.19902e-07
4.58438e-08
-2.03506e-08
4.3141e-09
-1.50408e-09
4.25716e-10
-1.14185e-10
3.55314e-11
-9.77508e-12
2.79731e-12
-8.00321e-13
1.90378e-13
-7.24307e-14
4.76463e-14
-2.50011e-14
-3.41665e-14
3.55363e-14
-5.74296e-14
8.13152e-14
-1.62256e-07
2.09179e-07
-4.33892e-08
1.9329e-08
-4.07543e-09
1.41691e-09
-4.01241e-10
1.06939e-10
-3.3362e-11
9.06879e-12
-2.65498e-12
7.59334e-13
-2.09347e-13
1.0536e-13
-9.00762e-15
-3.25197e-14
-2.47857e-14
2.16632e-14
-7.70377e-15
-5.42101e-14
1.49377e-07
-1.93473e-07
4.00607e-08
-1.78778e-08
3.7762e-09
-1.30776e-09
3.71476e-10
-9.90445e-11
3.07758e-11
-8.51559e-12
2.47705e-12
-7.27996e-13
1.70739e-13
-4.8243e-14
-2.15416e-14
-3.07324e-14
-3.54422e-14
3.39296e-14
-2.48656e-14
0
-1.31271e-07
1.70737e-07
-3.51986e-08
1.57474e-08
-3.31843e-09
1.14055e-09
-3.25354e-10
8.61441e-11
-2.6879e-11
7.30613e-12
-2.1603e-12
6.14389e-13
-2.65571e-13
-5.33841e-15
9.8762e-15
-5.64858e-15
-3.76431e-14
6.14257e-15
-1.4945e-14
-5.42101e-14
1.09876e-07
-1.43533e-07
2.94711e-08
-1.32255e-08
2.79229e-09
-9.49103e-10
2.72985e-10
-7.17682e-11
2.21988e-11
-6.14529e-12
1.70389e-12
-6.21754e-13
1.25128e-13
-1.13064e-13
1.08576e-13
-3.65795e-14
-5.92256e-14
2.40328e-14
-3.90136e-14
-2.71051e-14
-8.55303e-08
1.12307e-07
-2.31015e-08
1.0401e-08
-2.20729e-09
7.47836e-10
-2.17231e-10
5.75377e-11
-1.79331e-11
4.93445e-12
-1.49937e-12
4.839e-13
-1.5193e-13
-2.73673e-14
-1.54862e-14
-5.71247e-15
-9.49469e-14
3.17361e-15
1.63038e-14
0
5.77775e-08
-7.60298e-08
1.54593e-08
-6.82979e-09
1.39421e-09
-4.60716e-10
1.30608e-10
-3.28323e-11
1.00096e-11
-2.73657e-12
5.72481e-13
-3.20493e-13
-6.07801e-15
-5.78199e-14
1.74018e-14
-1.19703e-13
-7.2193e-14
4.23013e-14
-5.29847e-14
2.71051e-14
-2.83277e-08
3.8398e-08
-1.09057e-08
5.07756e-09
-1.4099e-09
4.80789e-10
-1.49484e-10
4.32868e-11
-1.40133e-11
3.7676e-12
-1.35525e-12
2.98156e-13
-1.6263e-13
-8.13152e-14
0
-2.71051e-14
5.42101e-14
-2.71051e-14
-2.71051e-14
-5.42101e-14
)
;

boundaryField
{
    movingWall
    {
        type            extrapolatedCalculated;
        value           nonuniform List<scalar> 
20
(
-2.83277e-08
3.8398e-08
-1.09057e-08
5.07756e-09
-1.4099e-09
4.80789e-10
-1.49484e-10
4.32868e-11
-1.40133e-11
3.7676e-12
-1.35525e-12
2.98156e-13
-1.6263e-13
-8.13152e-14
0
-2.71051e-14
5.42101e-14
-2.71051e-14
-2.71051e-14
-5.42101e-14
)
;
    }
    fixedWalls
    {
        type            extrapolatedCalculated;
        value           nonuniform List<scalar> 
60
(
3.53076e-09
-2.13197e-08
3.20494e-08
-5.2974e-08
7.49602e-08
-9.86157e-08
1.20279e-07
-1.39236e-07
1.55188e-07
-1.66062e-07
1.73325e-07
-1.7431e-07
1.71453e-07
-1.62256e-07
1.49377e-07
-1.31271e-07
1.09876e-07
-8.55303e-08
5.77775e-08
-2.83277e-08
0
5.42101e-14
5.42101e-14
0
2.71051e-14
-5.42101e-14
5.42101e-14
-5.42101e-14
0
2.71051e-14
2.71051e-14
-8.13152e-14
8.13152e-14
-5.42101e-14
0
-5.42101e-14
-2.71051e-14
0
2.71051e-14
-5.42101e-14
3.53076e-09
2.3667e-10
-2.61789e-09
1.57952e-09
-6.60768e-10
2.21691e-10
-8.01352e-11
2.25839e-11
-8.38744e-12
1.97524e-12
-8.53498e-13
9.3731e-14
-9.84657e-14
-2.54525e-14
1.59574e-14
5.03105e-14
-5.72071e-14
-2.41418e-14
5.05791e-14
0
)
;
    }
    frontAndBack
    {
        type            empty;
    }
}


// ************************************************************************* //
