/*--------------------------------*- C++ -*----------------------------------*\
| =========                 |                                                 |
| \\      /  F ield         | OpenFOAM: The Open Source CFD Toolbox           |
|  \\    /   O peration     | Version:  2312                                  |
|   \\  /    A nd           | Website:  www.openfoam.com                      |
|    \\/     M anipulation  |                                                 |
\*---------------------------------------------------------------------------*/
FoamFile
{
    version     2.0;
    format      ascii;
    arch        "LSB;label=32;scalar=64";
    class       volScalarField;
    location    "4";
    object      dpdt2;
}
// * * * * * * * * * * * * * * * * * * * * * * * * * * * * * * * * * * * * * //

dimensions      [0 4 -6 0 0 0 0];

internalField   nonuniform List<scalar> 
400
(
1.02243e-25
7.50746e-21
7.9175e-21
8.54191e-21
1.15944e-20
1.34412e-20
1.52968e-20
1.66743e-20
1.78306e-20
1.87604e-20
1.95214e-20
2.0175e-20
2.07615e-20
2.12894e-20
2.18077e-20
2.22872e-20
2.27199e-20
2.31208e-20
2.34523e-20
2.36876e-20
2.11248e-20
3.01638e-20
8.47788e-21
7.49733e-21
1.30666e-20
1.41779e-20
1.60866e-20
1.73117e-20
1.84306e-20
1.92865e-20
1.99831e-20
2.05896e-20
2.11373e-20
2.16363e-20
2.21163e-20
2.25672e-20
2.29884e-20
2.33716e-20
2.37124e-20
2.39571e-20
1.09023e-20
2.33418e-19
7.17821e-21
1.69733e-20
1.2909e-20
1.62807e-20
1.73918e-20
1.87102e-20
1.96075e-20
2.03362e-20
2.09149e-20
2.14321e-20
2.18989e-20
2.2339e-20
2.27367e-20
2.31421e-20
2.35281e-20
2.38818e-20
2.42069e-20
2.44232e-20
1.10858e-19
2.75554e-19
1.51566e-20
7.69033e-21
1.89932e-20
1.82584e-20
2.00729e-20
2.07009e-20
2.14518e-20
2.19299e-20
2.23454e-20
2.27134e-20
2.30436e-20
2.33578e-20
2.36605e-20
2.39994e-20
2.43328e-20
2.46442e-20
2.49382e-20
2.51473e-20
2.58916e-20
9.67064e-19
1.6212e-20
3.74728e-20
1.88583e-20
2.30107e-20
2.27602e-20
2.35994e-20
2.38669e-20
2.41067e-20
2.42486e-20
2.44106e-20
2.45512e-20
2.47049e-20
2.49015e-20
2.51171e-20
2.53849e-20
2.56545e-20
2.59182e-20
2.61117e-20
2.38024e-19
8.39762e-19
2.69007e-20
9.23292e-21
2.98851e-20
2.60388e-20
2.7462e-20
2.6979e-20
2.69758e-20
2.67933e-20
2.66302e-20
2.64988e-20
2.6416e-20
2.63971e-20
2.64284e-20
2.65359e-20
2.66979e-20
2.6895e-20
2.7119e-20
2.72921e-20
3.55667e-20
2.15098e-18
3.23357e-20
6.98553e-20
2.87959e-20
3.36017e-20
3.13114e-20
3.13079e-20
3.05474e-20
2.99916e-20
2.94533e-20
2.89858e-20
2.86343e-20
2.83925e-20
2.8229e-20
2.82081e-20
2.8259e-20
2.83564e-20
2.85184e-20
2.86752e-20
3.53063e-19
1.56029e-18
4.09795e-20
1.24593e-20
4.48001e-20
3.71398e-20
3.78522e-20
3.58515e-20
3.47862e-20
3.36007e-20
3.26503e-20
3.18108e-20
3.1147e-20
3.0671e-20
3.03133e-20
3.00977e-20
3.00149e-20
3.00354e-20
3.01226e-20
3.0235e-20
3.23349e-20
3.3714e-18
5.33018e-20
1.06812e-19
4.17211e-20
4.70765e-20
4.24455e-20
4.12846e-20
3.92598e-20
3.76478e-20
3.61805e-20
3.49377e-20
3.39368e-20
3.31759e-20
3.25742e-20
3.21963e-20
3.19695e-20
3.18735e-20
3.18767e-20
3.19318e-20
4.13222e-19
2.1024e-18
5.54869e-20
1.81512e-20
6.1779e-20
5.04924e-20
5.02201e-20
4.65379e-20
4.42118e-20
4.19299e-20
3.99943e-20
3.82786e-20
3.69312e-20
3.58351e-20
3.50048e-20
3.44242e-20
3.40686e-20
3.38776e-20
3.37769e-20
3.37725e-20
1.54792e-20
4.13173e-18
7.63264e-20
1.38938e-19
5.62966e-20
6.1728e-20
5.49722e-20
5.25378e-20
4.91483e-20
4.64082e-20
4.39251e-20
4.17981e-20
4.00821e-20
3.86557e-20
3.75618e-20
3.67813e-20
3.6264e-20
3.59399e-20
3.5764e-20
3.56809e-20
4.05878e-19
2.16906e-18
6.94685e-20
2.74429e-20
7.83992e-20
6.45325e-20
6.31406e-20
5.79294e-20
5.43456e-20
5.08904e-20
4.79281e-20
4.5368e-20
4.32658e-20
4.15337e-20
4.01848e-20
3.91986e-20
3.84749e-20
3.80154e-20
3.77577e-20
3.76422e-20
1.1037e-21
4.09293e-18
9.74812e-20
1.58607e-19
7.09665e-20
7.56895e-20
6.73995e-20
6.37664e-20
5.91807e-20
5.53263e-20
5.18881e-20
4.89039e-20
4.64156e-20
4.43935e-20
4.27824e-20
4.15633e-20
4.0675e-20
4.00827e-20
3.97314e-20
3.95598e-20
3.50556e-19
1.69626e-18
8.26049e-20
4.11239e-20
9.24421e-20
7.75998e-20
7.49203e-20
6.85875e-20
6.39475e-20
5.94679e-20
5.56235e-20
5.22866e-20
4.94413e-20
4.71431e-20
4.53045e-20
4.3862e-20
4.27845e-20
4.20631e-20
4.16511e-20
4.14399e-20
5.34755e-21
3.26147e-18
1.13238e-19
1.62624e-19
8.40794e-20
8.70947e-20
7.82691e-20
7.35599e-20
6.80752e-20
6.33369e-20
5.90659e-20
5.53884e-20
5.22538e-20
4.96968e-20
4.76004e-20
4.5983e-20
4.47719e-20
4.39534e-20
4.34464e-20
4.31715e-20
2.76098e-19
9.14327e-19
9.38143e-20
5.91066e-20
1.01992e-19
8.80373e-20
8.4201e-20
7.73489e-20
7.18816e-20
6.66945e-20
6.21342e-20
5.81695e-20
5.47854e-20
5.19746e-20
4.96981e-20
4.79242e-20
4.65848e-20
4.5632e-20
4.50474e-20
4.47296e-20
3.2347e-20
1.9939e-18
1.21015e-19
1.51698e-19
9.4216e-20
9.47661e-20
8.62972e-20
8.08357e-20
7.48643e-20
6.95308e-20
6.47006e-20
6.0531e-20
5.6916e-20
5.39389e-20
5.15017e-20
4.95776e-20
4.81299e-20
4.70745e-20
4.64299e-20
4.60409e-20
2.05486e-19
2.25287e-19
1.03704e-19
8.01887e-20
1.06454e-19
9.4894e-20
8.9941e-20
8.30925e-20
7.72501e-20
7.16527e-20
6.67174e-20
6.23934e-20
5.86111e-20
5.54989e-20
5.29546e-20
5.08958e-20
4.93278e-20
4.82129e-20
4.7532e-20
4.70978e-20
7.45629e-20
7.96474e-19
1.22085e-19
1.30528e-19
1.00702e-19
9.79112e-20
9.06608e-20
8.47197e-20
7.86401e-20
7.30776e-20
6.8064e-20
6.36418e-20
5.97927e-20
5.65724e-20
5.39289e-20
5.18174e-20
5.01712e-20
4.90122e-20
4.82594e-20
4.78261e-20
1.38834e-19
6.50609e-21
1.19498e-19
9.77086e-20
1.06012e-19
9.70761e-20
9.17614e-20
8.52036e-20
7.9296e-20
7.37026e-20
6.86905e-20
6.4214e-20
6.03644e-20
5.71131e-20
5.44048e-20
5.22797e-20
5.06038e-20
4.94322e-20
4.86439e-20
4.81982e-20
)
;

boundaryField
{
    movingWall
    {
        type            calculated;
        value           nonuniform List<scalar> 
20
(
1.38834e-19
6.50609e-21
1.19498e-19
9.77086e-20
1.06012e-19
9.70761e-20
9.17614e-20
8.52036e-20
7.9296e-20
7.37026e-20
6.86905e-20
6.4214e-20
6.03644e-20
5.71131e-20
5.44048e-20
5.22797e-20
5.06038e-20
4.94322e-20
4.86439e-20
4.81982e-20
)
;
    }
    fixedWalls
    {
        type            calculated;
        value           nonuniform List<scalar> 
60
(
1.02243e-25
2.11248e-20
1.09023e-20
1.10858e-19
2.58916e-20
2.38024e-19
3.55667e-20
3.53063e-19
3.23349e-20
4.13222e-19
1.54792e-20
4.05878e-19
1.1037e-21
3.50556e-19
5.34755e-21
2.76098e-19
3.2347e-20
2.05486e-19
7.45629e-20
1.38834e-19
2.36876e-20
2.39571e-20
2.44232e-20
2.51473e-20
2.61117e-20
2.72921e-20
2.86752e-20
3.0235e-20
3.19318e-20
3.37725e-20
3.56809e-20
3.76422e-20
3.95598e-20
4.14399e-20
4.31715e-20
4.47296e-20
4.60409e-20
4.70978e-20
4.78261e-20
4.81982e-20
1.02243e-25
7.50746e-21
7.9175e-21
8.54191e-21
1.15944e-20
1.34412e-20
1.52968e-20
1.66743e-20
1.78306e-20
1.87604e-20
1.95214e-20
2.0175e-20
2.07615e-20
2.12894e-20
2.18077e-20
2.22872e-20
2.27199e-20
2.31208e-20
2.34523e-20
2.36876e-20
)
;
    }
    frontAndBack
    {
        type            empty;
    }
}


// ************************************************************************* //
