/*--------------------------------*- C++ -*----------------------------------*\
| =========                 |                                                 |
| \\      /  F ield         | OpenFOAM: The Open Source CFD Toolbox           |
|  \\    /   O peration     | Version:  2312                                  |
|   \\  /    A nd           | Website:  www.openfoam.com                      |
|    \\/     M anipulation  |                                                 |
\*---------------------------------------------------------------------------*/
FoamFile
{
    version     2.0;
    format      ascii;
    arch        "LSB;label=32;scalar=64";
    class       volScalarField;
    location    "4";
    object      dUdt2;
}
// * * * * * * * * * * * * * * * * * * * * * * * * * * * * * * * * * * * * * //

dimensions      [0 2 -4 0 0 0 0];

internalField   nonuniform List<scalar> 
400
(
3.68964e-14
2.06093e-15
1.1587e-16
6.48568e-18
3.62608e-19
2.03322e-20
1.13171e-21
6.41075e-23
3.60912e-24
4.04438e-25
1.48946e-25
1.13624e-25
8.34291e-26
5.97886e-26
4.0093e-26
5.96578e-26
4.01995e-26
3.99362e-26
3.17891e-26
4.60626e-26
3.69106e-14
2.05579e-15
1.15273e-16
6.42464e-18
3.57142e-19
1.98605e-20
1.11824e-21
5.78271e-23
4.33809e-24
2.37444e-25
1.7229e-25
8.56522e-26
6.30048e-26
4.13573e-26
3.99466e-26
2.41686e-26
4.16287e-26
1.79361e-26
2.30407e-26
1.34583e-25
3.69653e-14
2.05354e-15
1.15412e-16
6.41519e-18
3.57055e-19
2.016e-20
1.07697e-21
6.89278e-23
2.51682e-24
6.29275e-25
9.8102e-26
9.43479e-26
5.02291e-26
5.15277e-26
5.96699e-26
3.99426e-26
4.25056e-26
3.20713e-26
4.69999e-26
2.768e-25
3.70545e-14
2.05295e-15
1.15673e-16
6.39054e-18
3.59591e-19
1.97331e-20
1.16182e-21
5.35732e-23
5.43712e-24
4.64731e-26
1.63977e-25
5.23397e-26
6.39771e-26
4.04166e-26
3.18082e-26
3.15665e-26
4.53524e-26
2.57021e-26
6.59196e-26
5.24982e-25
3.72484e-14
2.06393e-15
1.16426e-16
6.45793e-18
3.5966e-19
2.06723e-20
1.06557e-21
7.60416e-23
1.94923e-24
7.12743e-25
3.03818e-26
6.37432e-26
4.04791e-26
1.80776e-26
1.28975e-26
2.4166e-26
1.61813e-26
2.62594e-26
4.50508e-26
8.36553e-25
3.75179e-14
2.07708e-15
1.17784e-16
6.48963e-18
3.69729e-19
2.02878e-20
1.22585e-21
5.55646e-23
6.05331e-24
7.71013e-27
1.4703e-25
2.24299e-26
1.82468e-26
8.01139e-27
3.38259e-26
1.23534e-26
4.77484e-26
2.12692e-26
7.46506e-26
1.11803e-24
3.79207e-14
2.10313e-15
1.19527e-16
6.63023e-18
3.73956e-19
2.16409e-20
1.13566e-21
8.05715e-23
2.68999e-24
6.32173e-25
1.73985e-26
3.12584e-26
1.2356e-26
1.97316e-27
3.71035e-27
4.55746e-27
3.86545e-26
1.35238e-26
7.5108e-26
1.3828e-24
3.83804e-14
2.12993e-15
1.21627e-16
6.71823e-18
3.86466e-19
2.15794e-20
1.28538e-21
6.63023e-23
5.69378e-24
2.6091e-25
8.96981e-26
9.81953e-27
1.42023e-26
2.05773e-27
6.72469e-27
1.53908e-28
1.60107e-26
5.43846e-27
9.33759e-26
1.60637e-24
3.89624e-14
2.16799e-15
1.24118e-16
6.89626e-18
3.95299e-19
2.27623e-20
1.26147e-21
7.96111e-23
4.33617e-24
4.52814e-25
1.26985e-25
2.84637e-26
2.05187e-26
1.00276e-26
2.15663e-26
5.10173e-27
1.31387e-26
4.55895e-27
1.0851e-25
1.78139e-24
3.95764e-14
2.20636e-15
1.26571e-16
7.0318e-18
4.06271e-19
2.31932e-20
1.33169e-21
8.11671e-23
4.53935e-24
6.12859e-25
4.20087e-26
4.94742e-26
3.17244e-26
1.21108e-26
2.5876e-26
1.25713e-26
1.00922e-26
1.86605e-27
1.04393e-25
1.88775e-24
4.02781e-14
2.25254e-15
1.2944e-16
7.21731e-18
4.18538e-19
2.38342e-20
1.39866e-21
7.70584e-23
6.18574e-24
2.46558e-25
2.62313e-25
9.67237e-26
5.21989e-26
5.22104e-26
4.6955e-26
3.65568e-26
5.62391e-27
3.16326e-29
1.13187e-25
1.91533e-24
4.09868e-14
2.29884e-15
1.31908e-16
7.38544e-18
4.25869e-19
2.47479e-20
1.36115e-21
9.45547e-23
3.50113e-24
8.47009e-25
7.10114e-26
8.5618e-26
2.64846e-26
4.65236e-26
5.54607e-26
1.87229e-26
1.98779e-26
3.47436e-27
1.30368e-25
1.82986e-24
4.17298e-14
2.3479e-15
1.34777e-16
7.55283e-18
4.39831e-19
2.47407e-20
1.51427e-21
7.30727e-23
7.89684e-24
5.37377e-26
2.1778e-25
5.14018e-26
4.31659e-26
4.97525e-26
3.40547e-26
2.75839e-26
9.18401e-27
1.06528e-26
1.30326e-25
1.67654e-24
4.24555e-14
2.39708e-15
1.37009e-16
7.73468e-18
4.43078e-19
2.60166e-20
1.38738e-21
1.03384e-22
2.69319e-24
1.12313e-24
8.77369e-26
1.17272e-25
6.50333e-26
5.89408e-26
5.95233e-26
3.22928e-26
2.97555e-27
9.91925e-27
1.26013e-25
1.42685e-24
4.31493e-14
2.44286e-15
1.39535e-16
7.86608e-18
4.56951e-19
2.54477e-20
1.58835e-21
7.2098e-23
8.62726e-24
3.36283e-27
2.70324e-25
6.98733e-26
7.03395e-26
6.48062e-26
6.58886e-26
6.52632e-26
3.31654e-26
1.91803e-26
1.17696e-25
1.12685e-24
4.38014e-14
2.48839e-15
1.41339e-16
8.04059e-18
4.56973e-19
2.68625e-20
1.41406e-21
1.05537e-22
2.70584e-24
1.07523e-24
5.93323e-26
1.12853e-25
4.48291e-26
6.50815e-26
5.12258e-26
2.8143e-26
8.97845e-27
1.06861e-26
9.99586e-26
8.26449e-25
4.43555e-14
2.52441e-15
1.43263e-16
8.12296e-18
4.68732e-19
2.60318e-20
1.61582e-21
7.3491e-23
8.07829e-24
5.46367e-26
2.08698e-25
3.75811e-26
4.88789e-26
5.43813e-26
3.85774e-26
4.43407e-26
1.77548e-26
1.97228e-26
6.77368e-26
5.69527e-25
4.4839e-14
2.55883e-15
1.44542e-16
8.26242e-18
4.67343e-19
2.72813e-20
1.4607e-21
1.02042e-22
3.25209e-24
9.03625e-25
3.63898e-26
7.06077e-26
2.4658e-26
3.00864e-26
2.8723e-26
2.51167e-26
4.94401e-26
5.19912e-26
9.41185e-26
3.00048e-25
4.5182e-14
2.58044e-15
1.4568e-16
8.27923e-18
4.7409e-19
2.64528e-20
1.5748e-21
8.0821e-23
6.40167e-24
2.54861e-25
1.00236e-25
1.08972e-26
6.4037e-27
4.89387e-27
1.17936e-26
1.81393e-26
1.9081e-26
4.43776e-27
6.27915e-26
1.37633e-25
4.5465e-14
2.61529e-15
1.47543e-16
8.47851e-18
4.84115e-19
2.77437e-20
1.59291e-21
9.31928e-23
5.74763e-24
4.56163e-25
6.50488e-26
3.39273e-26
3.80631e-28
1.90363e-28
1.77557e-26
1.78148e-26
9.43268e-27
2.73037e-27
2.59874e-26
4.98072e-26
)
;

boundaryField
{
    movingWall
    {
        type            calculated;
        value           uniform 0;
    }
    fixedWalls
    {
        type            calculated;
        value           uniform 0;
    }
    frontAndBack
    {
        type            empty;
    }
}


// ************************************************************************* //
