/*--------------------------------*- C++ -*----------------------------------*\
| =========                 |                                                 |
| \\      /  F ield         | OpenFOAM: The Open Source CFD Toolbox           |
|  \\    /   O peration     | Version:  2312                                  |
|   \\  /    A nd           | Website:  www.openfoam.com                      |
|    \\/     M anipulation  |                                                 |
\*---------------------------------------------------------------------------*/
FoamFile
{
    version     2.0;
    format      ascii;
    arch        "LSB;label=32;scalar=64";
    class       volScalarField;
    location    "4";
    object      enstrophyField;
}
// * * * * * * * * * * * * * * * * * * * * * * * * * * * * * * * * * * * * * //

dimensions      [0 0 -2 0 0 0 0];

internalField   nonuniform List<scalar> 
400
(
1.12654e-11
1.71443e-11
9.66564e-13
5.47191e-14
3.07472e-15
1.76417e-16
9.63371e-18
6.02541e-19
2.56692e-20
3.06632e-21
1.36237e-24
7.79658e-23
1.50726e-23
1.04815e-23
4.26766e-24
1.92372e-24
6.63024e-25
1.3591e-25
7.39441e-27
3.76785e-27
1.13182e-11
1.71593e-11
9.67392e-13
5.45301e-14
3.07374e-15
1.73232e-16
9.76607e-18
5.49832e-19
3.11097e-20
1.72679e-21
1.0292e-22
4.65365e-24
5.53998e-25
3.00523e-27
4.79029e-26
1.47331e-26
1.01729e-26
2.83726e-26
7.63164e-26
1.26681e-26
1.13552e-11
1.71119e-11
9.62399e-13
5.4117e-14
3.04287e-15
1.71093e-16
9.61715e-18
5.41152e-19
3.03071e-20
1.73105e-21
9.13315e-23
6.3502e-24
9.2849e-26
1.83736e-25
5.65805e-26
5.81287e-26
4.85976e-26
8.97131e-26
2.07853e-25
5.16728e-26
1.14458e-11
1.71178e-11
9.62074e-13
5.40603e-14
3.03761e-15
1.70659e-16
9.59048e-18
5.38236e-19
3.03668e-20
1.67606e-21
1.01026e-22
4.22447e-24
7.79457e-25
4.78216e-26
1.45241e-25
8.44063e-26
6.38458e-26
1.25174e-25
2.68447e-25
1.19031e-25
1.14616e-11
1.71079e-11
9.61146e-13
5.39871e-14
3.03218e-15
1.70308e-16
9.56171e-18
5.37574e-19
3.00419e-20
1.72189e-21
8.831e-23
7.27028e-24
2.47913e-26
2.80161e-25
1.44115e-25
1.39245e-25
7.47228e-26
2.12263e-25
4.42183e-25
1.6097e-25
1.1467e-11
1.71084e-11
9.61026e-13
5.39713e-14
3.03092e-15
1.7019e-16
9.55877e-18
5.3609e-19
3.02507e-20
1.66117e-21
1.02548e-22
3.6202e-24
9.92864e-25
7.97498e-26
1.72278e-25
1.03335e-25
9.01482e-26
2.13092e-25
5.93702e-25
1.27303e-25
1.14451e-11
1.71118e-11
9.61226e-13
5.39831e-14
3.0315e-15
1.70248e-16
9.55653e-18
5.37369e-19
2.99879e-20
1.72381e-21
8.76733e-23
7.465e-24
3.49988e-26
2.54507e-25
1.18905e-25
6.74147e-26
4.167e-26
1.99485e-25
6.82452e-25
1.38542e-25
1.1423e-11
1.7128e-11
9.62226e-13
5.40444e-14
3.03541e-15
1.70457e-16
9.57656e-18
5.36945e-19
3.03536e-20
1.65421e-21
1.04997e-22
3.54588e-24
8.29138e-25
9.05503e-26
2.04503e-25
9.10299e-26
4.34317e-26
1.97629e-25
7.00514e-25
1.82096e-25
1.13901e-11
1.71513e-11
9.637e-13
5.41372e-14
3.04104e-15
1.70839e-16
9.59238e-18
5.39649e-19
3.01115e-20
1.74149e-21
8.64591e-23
7.48781e-24
1.39568e-26
3.08419e-25
1.2497e-25
1.36253e-25
7.43547e-26
2.23598e-25
6.22649e-25
1.15795e-25
1.13597e-11
1.71854e-11
9.65826e-13
5.42683e-14
3.04926e-15
1.71314e-16
9.6285e-18
5.40197e-19
3.05544e-20
1.67174e-21
1.02721e-22
3.88373e-24
1.00546e-24
9.1546e-26
1.4053e-25
6.05483e-26
3.90291e-26
1.72393e-25
7.07371e-25
8.49526e-26
1.13254e-11
1.72262e-11
9.68357e-13
5.44254e-14
3.05883e-15
1.71929e-16
9.66037e-18
5.43576e-19
3.04159e-20
1.74166e-21
9.00054e-23
6.87593e-24
5.76002e-26
2.78314e-25
1.19498e-25
9.10547e-26
3.80729e-26
1.61299e-25
5.83189e-25
6.52e-26
1.12934e-11
1.7274e-11
9.71321e-13
5.46075e-14
3.0701e-15
1.72599e-16
9.70601e-18
5.45256e-19
3.07785e-20
1.70202e-21
1.02525e-22
4.19625e-24
8.30694e-25
3.59164e-26
1.5766e-25
7.36318e-26
2.3349e-26
1.16387e-25
5.18304e-25
1.54861e-26
1.12627e-11
1.73258e-11
9.74515e-13
5.48042e-14
3.08208e-15
1.7335e-16
9.74711e-18
5.48837e-19
3.07192e-20
1.7631e-21
9.11921e-23
7.01801e-24
9.2952e-26
1.8039e-25
4.76372e-26
1.79512e-26
3.95062e-27
1.25791e-25
3.97988e-25
2.89173e-26
1.12336e-11
1.73799e-11
9.77852e-13
5.50086e-14
3.09468e-15
1.74099e-16
9.79777e-18
5.50733e-19
3.10962e-20
1.72679e-21
1.0285e-22
4.52941e-24
5.60241e-25
3.5435e-27
3.57303e-26
3.36763e-27
9.66185e-29
5.60574e-26
3.2625e-25
1.60149e-26
1.12111e-11
1.74344e-11
9.81185e-13
5.52125e-14
3.10705e-15
1.7487e-16
9.84082e-18
5.54257e-19
3.11248e-20
1.77025e-21
9.50107e-23
6.09527e-24
1.45842e-25
7.7265e-26
3.81929e-27
7.61931e-27
8.11318e-28
3.68558e-26
2.86576e-25
1.74531e-27
1.11883e-11
1.74853e-11
9.84306e-13
5.54028e-14
3.11871e-15
1.75565e-16
9.88614e-18
5.56296e-19
3.14032e-20
1.75088e-21
1.03677e-22
4.91961e-24
5.5435e-25
4.73686e-27
3.76919e-26
1.30422e-26
6.17663e-27
4.9372e-26
2.06482e-25
9.75115e-29
1.11794e-11
1.7534e-11
9.87242e-13
5.55803e-14
3.12938e-15
1.76219e-16
9.92322e-18
5.5905e-19
3.14534e-20
1.78317e-21
9.94734e-23
6.09614e-24
1.94037e-25
5.50957e-26
5.53559e-27
1.18308e-27
8.66164e-28
7.66967e-27
7.32027e-26
4.12046e-29
1.11751e-11
1.75755e-11
9.89769e-13
5.57329e-14
3.1386e-15
1.76768e-16
9.95731e-18
5.60846e-19
3.16369e-20
1.77327e-21
1.00707e-22
5.51932e-24
3.81246e-25
4.85687e-27
1.03043e-26
1.33941e-28
8.11681e-27
4.98815e-27
4.83626e-26
8.40277e-29
1.11707e-11
1.76343e-11
9.94703e-13
5.61032e-14
3.16468e-15
1.78538e-16
1.0073e-17
5.68514e-19
3.20629e-20
1.81663e-21
1.00632e-22
5.81941e-24
3.38439e-25
3.38703e-26
3.5193e-27
7.87946e-28
1.44503e-28
9.97346e-27
6.0491e-26
4.52375e-28
1.13628e-11
1.77082e-11
1.00463e-12
5.67772e-14
3.2211e-15
1.83389e-16
1.03737e-17
5.99109e-19
3.3455e-20
2.00222e-21
1.10822e-22
5.5142e-24
7.65926e-25
2.08368e-26
9.85392e-26
3.50642e-26
1.62462e-26
2.39455e-30
2.8299e-27
2.01371e-27
)
;

boundaryField
{
    movingWall
    {
        type            calculated;
        value           nonuniform List<scalar> 
20
(
1.25152e-11
1.80746e-11
1.04243e-12
5.91963e-14
3.40852e-15
1.97604e-16
1.12805e-17
6.75604e-19
3.76566e-20
2.41731e-21
1.3235e-22
6.54879e-24
1.43173e-24
1.62348e-25
4.2831e-25
1.731e-25
8.30302e-26
2.39455e-30
6.36141e-26
1.74635e-26
)
;
    }
    fixedWalls
    {
        type            calculated;
        value           nonuniform List<scalar> 
60
(
3.07607e-10
3.07739e-10
3.07392e-10
3.07549e-10
3.07404e-10
3.0743e-10
3.07496e-10
3.07781e-10
3.0819e-10
3.08789e-10
3.09503e-10
3.10342e-10
3.1125e-10
3.12197e-10
3.13152e-10
3.14043e-10
3.14898e-10
3.1562e-10
3.16209e-10
3.17792e-10
1.74142e-28
1.26015e-27
2.55368e-28
1.0812e-27
4.17699e-28
8.03145e-27
1.7519e-26
1.46526e-26
6.35084e-26
1.08283e-25
1.30809e-25
2.31774e-25
1.7681e-25
2.06069e-25
2.49246e-25
2.02907e-25
1.311e-25
9.31545e-26
6.05004e-26
1.87878e-26
1.1222e-11
1.72016e-11
9.72393e-13
5.55416e-14
3.11838e-15
1.83226e-16
9.69317e-18
6.78028e-19
2.12759e-20
4.95793e-21
5.96932e-23
2.40732e-22
7.06009e-23
4.11678e-23
1.68011e-23
7.68403e-24
2.67936e-24
5.6677e-25
7.39441e-27
3.76785e-27
)
;
    }
    frontAndBack
    {
        type            empty;
    }
}


// ************************************************************************* //
