/*--------------------------------*- C++ -*----------------------------------*\
| =========                 |                                                 |
| \\      /  F ield         | OpenFOAM: The Open Source CFD Toolbox           |
|  \\    /   O peration     | Version:  2312                                  |
|   \\  /    A nd           | Website:  www.openfoam.com                      |
|    \\/     M anipulation  |                                                 |
\*---------------------------------------------------------------------------*/
FoamFile
{
    version     2.0;
    format      ascii;
    arch        "LSB;label=32;scalar=64";
    class       volScalarField;
    location    "4";
    object      epsilonzeroGrad;
}
// * * * * * * * * * * * * * * * * * * * * * * * * * * * * * * * * * * * * * //

dimensions      [0 2 -3 0 0 0 0];

internalField   nonuniform List<scalar> 
400
(
2.29751e-05
2.29749e-05
2.29746e-05
2.29744e-05
2.29743e-05
2.29741e-05
2.2974e-05
2.29738e-05
2.29737e-05
2.29736e-05
2.29735e-05
2.29734e-05
2.29734e-05
2.29733e-05
2.29733e-05
2.29733e-05
2.29733e-05
2.29732e-05
2.29732e-05
2.29732e-05
3.05376e-05
2.9517e-05
2.95952e-05
2.96282e-05
2.96938e-05
2.97289e-05
2.97945e-05
2.98318e-05
2.98974e-05
2.99369e-05
3.00026e-05
3.0044e-05
3.01103e-05
3.01533e-05
3.02203e-05
3.02649e-05
3.03328e-05
3.03786e-05
3.04132e-05
3.0471e-05
4.10041e-05
3.94625e-05
3.95807e-05
3.96305e-05
3.97296e-05
3.97825e-05
3.98813e-05
3.99377e-05
4.00362e-05
4.00957e-05
4.01943e-05
4.02566e-05
4.03558e-05
4.04204e-05
4.05206e-05
4.05871e-05
4.06887e-05
4.0757e-05
4.08087e-05
4.08947e-05
4.98938e-05
4.78655e-05
4.8019e-05
4.8084e-05
4.82131e-05
4.82823e-05
4.84111e-05
4.84848e-05
4.86134e-05
4.86915e-05
4.88203e-05
4.89021e-05
4.90318e-05
4.91169e-05
4.9248e-05
4.93358e-05
4.94688e-05
4.95591e-05
4.96268e-05
4.974e-05
5.58444e-05
5.34708e-05
5.36492e-05
5.37247e-05
5.38749e-05
5.39554e-05
5.41054e-05
5.41914e-05
5.43411e-05
5.44323e-05
5.45824e-05
5.46781e-05
5.48293e-05
5.49289e-05
5.50819e-05
5.51848e-05
5.53401e-05
5.54459e-05
5.55251e-05
5.56576e-05
5.93821e-05
5.67972e-05
5.69905e-05
5.70725e-05
5.72354e-05
5.73229e-05
5.74856e-05
5.75791e-05
5.77417e-05
5.78408e-05
5.80039e-05
5.8108e-05
5.82723e-05
5.83808e-05
5.8547e-05
5.86592e-05
5.88279e-05
5.89435e-05
5.90295e-05
5.91738e-05
6.14186e-05
5.87111e-05
5.89132e-05
5.89988e-05
5.91692e-05
5.92606e-05
5.94308e-05
5.95286e-05
5.96986e-05
5.98024e-05
5.9973e-05
6.0082e-05
6.02539e-05
6.03675e-05
6.05415e-05
6.0659e-05
6.08357e-05
6.09567e-05
6.10468e-05
6.11979e-05
6.26513e-05
5.98688e-05
6.00761e-05
6.0164e-05
6.03388e-05
6.04327e-05
6.06074e-05
6.07078e-05
6.08823e-05
6.09889e-05
6.1164e-05
6.1276e-05
6.14525e-05
6.15693e-05
6.17479e-05
6.18687e-05
6.20501e-05
6.21746e-05
6.22671e-05
6.24224e-05
6.34942e-05
6.0661e-05
6.08719e-05
6.09613e-05
6.11392e-05
6.12348e-05
6.14125e-05
6.15147e-05
6.16923e-05
6.18008e-05
6.1979e-05
6.2093e-05
6.22727e-05
6.23915e-05
6.25734e-05
6.26964e-05
6.28811e-05
6.30079e-05
6.31021e-05
6.32602e-05
6.41711e-05
6.12968e-05
6.15104e-05
6.16012e-05
6.17815e-05
6.18784e-05
6.20586e-05
6.21622e-05
6.23423e-05
6.24523e-05
6.2633e-05
6.27487e-05
6.29308e-05
6.30514e-05
6.32358e-05
6.33606e-05
6.35479e-05
6.36766e-05
6.37721e-05
6.39325e-05
6.47971e-05
6.18854e-05
6.21018e-05
6.21935e-05
6.23762e-05
6.24743e-05
6.26567e-05
6.27617e-05
6.29441e-05
6.30555e-05
6.32385e-05
6.33557e-05
6.35401e-05
6.36623e-05
6.3849e-05
6.39756e-05
6.41652e-05
6.42956e-05
6.43924e-05
6.45549e-05
6.54374e-05
6.2487e-05
6.27061e-05
6.2799e-05
6.2984e-05
6.30833e-05
6.32681e-05
6.33744e-05
6.35591e-05
6.3672e-05
6.38574e-05
6.3976e-05
6.41629e-05
6.42867e-05
6.44759e-05
6.4604e-05
6.47962e-05
6.49283e-05
6.50263e-05
6.5191e-05
6.61312e-05
6.3139e-05
6.33611e-05
6.34553e-05
6.36427e-05
6.37434e-05
6.39307e-05
6.40385e-05
6.42258e-05
6.43402e-05
6.45281e-05
6.46485e-05
6.48379e-05
6.49634e-05
6.51553e-05
6.52852e-05
6.54801e-05
6.56141e-05
6.57135e-05
6.58805e-05
6.69096e-05
6.38702e-05
6.40955e-05
6.41911e-05
6.43814e-05
6.44836e-05
6.46737e-05
6.47832e-05
6.49733e-05
6.50895e-05
6.52803e-05
6.54025e-05
6.55949e-05
6.57224e-05
6.59171e-05
6.60492e-05
6.62471e-05
6.63833e-05
6.64842e-05
6.66538e-05
6.78018e-05
6.47082e-05
6.49374e-05
6.50346e-05
6.52281e-05
6.53321e-05
6.55255e-05
6.56368e-05
6.58302e-05
6.59484e-05
6.61426e-05
6.62669e-05
6.64627e-05
6.65924e-05
6.67906e-05
6.69251e-05
6.71264e-05
6.7265e-05
6.73677e-05
6.75404e-05
6.88397e-05
6.56826e-05
6.59162e-05
6.60153e-05
6.62126e-05
6.63187e-05
6.65159e-05
6.66294e-05
6.68266e-05
6.69472e-05
6.71452e-05
6.72721e-05
6.74717e-05
6.76041e-05
6.78063e-05
6.79435e-05
6.81488e-05
6.82904e-05
6.83952e-05
6.85714e-05
7.00414e-05
6.68104e-05
6.70491e-05
6.71504e-05
6.73521e-05
6.74605e-05
6.76622e-05
6.77782e-05
6.79799e-05
6.81032e-05
6.83057e-05
6.84355e-05
6.86397e-05
6.87752e-05
6.89819e-05
6.91224e-05
6.93324e-05
6.94773e-05
6.95845e-05
6.97648e-05
7.13543e-05
6.80444e-05
6.82884e-05
6.83921e-05
6.85985e-05
6.87094e-05
6.89157e-05
6.90346e-05
6.9241e-05
6.93673e-05
6.95746e-05
6.97076e-05
6.99167e-05
7.00555e-05
7.02673e-05
7.04112e-05
7.06264e-05
7.0775e-05
7.08848e-05
7.10695e-05
7.25619e-05
6.92577e-05
6.94956e-05
6.95972e-05
6.97995e-05
6.99096e-05
7.0112e-05
7.02313e-05
7.04342e-05
7.05623e-05
7.07665e-05
7.09025e-05
7.11092e-05
7.12521e-05
7.14624e-05
7.16114e-05
7.18262e-05
7.19807e-05
7.2091e-05
7.22794e-05
7.30424e-05
7.30412e-05
7.30406e-05
7.30399e-05
7.30394e-05
7.30389e-05
7.30386e-05
7.30379e-05
7.3038e-05
7.30373e-05
7.30376e-05
7.30369e-05
7.30373e-05
7.30367e-05
7.30371e-05
7.30367e-05
7.30369e-05
7.30368e-05
7.30368e-05
7.30368e-05
)
;

boundaryField
{
    movingWall
    {
        type            zeroGradient;
    }
    fixedWalls
    {
        type            zeroGradient;
    }
    frontAndBack
    {
        type            empty;
    }
}


// ************************************************************************* //
