/*--------------------------------*- C++ -*----------------------------------*\
| =========                 |                                                 |
| \\      /  F ield         | OpenFOAM: The Open Source CFD Toolbox           |
|  \\    /   O peration     | Version:  2312                                  |
|   \\  /    A nd           | Website:  www.openfoam.com                      |
|    \\/     M anipulation  |                                                 |
\*---------------------------------------------------------------------------*/
FoamFile
{
    version     2.0;
    format      ascii;
    arch        "LSB;label=32;scalar=64";
    class       volScalarField;
    location    "4";
    object      flowTypeField;
}
// * * * * * * * * * * * * * * * * * * * * * * * * * * * * * * * * * * * * * //

dimensions      [0 0 0 0 0 0 0];

internalField   nonuniform List<scalar> 
400
(
-0.00433202
-0.0015128
-0.00255228
-0.00461345
-0.0041623
-0.0120819
0.00120541
-0.04641
0.0812339
-0.287957
0.88275
-0.239814
0.175853
0.0392839
0.0963972
0.101757
0.193746
0.362605
0.638848
0.00210506
-0.00689809
-0.00206185
-0.00336395
-0.00546282
-0.00578542
-0.0114554
-0.00759467
-0.0254779
0.00409493
-0.0790592
0.142823
0.271408
0.643748
0.952575
0.770414
0.826197
0.811521
0.624667
0.231018
0.27216
-0.00914574
-0.00168144
-0.00289118
-0.00262793
-0.00435315
-0.00292058
-0.00952046
0.00478992
-0.0379658
0.0665673
-0.216944
0.402971
0.789529
0.677491
0.737922
0.662097
0.600977
0.397501
0.0775549
0.0138368
-0.0134337
-0.00229758
-0.00413919
-0.00381464
-0.00518815
-0.00740123
-0.00423843
-0.0190302
0.0158745
-0.101226
0.173723
-0.0768958
0.558541
0.790628
0.593207
0.568138
0.511669
0.33416
0.140994
-0.124788
-0.0143624
-0.00235853
-0.00437248
-0.00375397
-0.00562282
-0.00597525
-0.00868065
-0.00272196
-0.0310989
0.0505202
-0.279307
0.333496
0.843048
0.567507
0.544539
0.43275
0.453026
0.174272
0.0410539
-0.0980926
-0.0144475
-0.00225777
-0.00436173
-0.00346753
-0.00542774
-0.00613273
-0.00547044
-0.0120607
0.00545656
-0.0589699
0.124807
-0.291067
0.446892
0.684552
0.50524
0.462119
0.341032
0.176289
0.00493186
0.0988031
-0.0130378
-0.00190451
-0.00384279
-0.00276567
-0.00455544
-0.00469937
-0.00493564
-0.00434289
-0.0126953
0.0251003
-0.108112
0.246243
0.782591
0.528812
0.530301
0.544235
0.485268
0.182195
0.000301267
0.102971
-0.0111983
-0.0014787
-0.0032312
-0.00189666
-0.00369198
-0.00317136
-0.00301782
-0.0042619
0.00115949
-0.0135884
0.0582783
0.0405581
0.399586
0.615064
0.400596
0.429215
0.441536
0.156762
0.00301514
-0.0923484
-0.00858422
-0.000927165
-0.00234956
-0.000879989
-0.00226871
-0.00152888
-0.000387942
-0.00118639
0.00219461
0.00757763
0.00586414
0.134721
0.834547
0.400794
0.469978
0.27871
0.240837
0.0558413
0.0521167
0.0210941
-0.00577511
-0.000370114
-0.00145071
0.000151087
-0.00105649
0.000413039
0.0010851
0.00245464
0.00358178
0.0123163
0.0234115
0.147834
0.227977
0.553912
0.412528
0.482673
0.371518
0.133265
-0.040592
0.0143096
-0.00259452
0.000228017
-0.000430245
0.00118514
0.000460242
0.00204614
0.00383238
0.00375254
0.0112215
0.00706531
0.0485114
0.0570396
0.694451
0.324037
0.381947
0.328512
0.430359
0.0880528
-0.0104914
-0.0604389
0.000626522
0.000784407
0.000561117
0.00210882
0.00173961
0.00373752
0.00503702
0.00756175
0.00848331
0.0247278
-0.000555684
0.209674
0.164286
0.677154
0.332332
0.329084
0.406894
0.132952
-0.0327065
0.320933
0.00385668
0.00131159
0.00154418
0.00293808
0.00304712
0.00504674
0.00714167
0.00779138
0.0176053
0.00477939
0.0766149
-0.0526057
0.635124
0.337644
0.528717
0.576794
0.68729
0.0212676
0.00905112
-0.147664
0.00699644
0.00177542
0.00247211
0.00360791
0.00416052
0.00626854
0.00773323
0.0114582
0.0107293
0.0330963
-0.0188358
0.210937
0.0880302
0.864717
0.512529
0.770282
0.944121
0.23208
0.0180866
-0.365433
0.00977442
0.00215492
0.00327031
0.00412074
0.00509145
0.0069885
0.00918067
0.00997772
0.0202256
0.00389511
0.0809585
-0.086504
0.531881
0.37327
0.781509
0.642313
0.841239
0.356202
-0.0464617
0.107384
0.0124029
0.00248432
0.0040181
0.0045274
0.00588086
0.00787139
0.00890659
0.013978
0.00983077
0.0382709
-0.0370649
0.200496
-0.20063
0.804633
0.415256
0.566899
0.641212
0.172073
-0.112168
0.804373
0.014239
0.00267766
0.00451772
0.00469341
0.00640146
0.00770768
0.010218
0.00982455
0.0214184
-0.000965312
0.07
-0.148279
0.439061
0.101033
0.701132
0.767938
0.788129
0.509502
0.137479
0.86669
0.0155981
0.00276562
0.00488794
0.00496936
0.00662628
0.00894277
0.00923872
0.0155918
0.00998802
0.0378435
-0.0194273
0.148468
-0.385489
0.699885
0.371569
0.890826
0.262498
0.538203
0.139435
0.754594
0.0167487
0.00219459
0.00381511
0.00232854
0.00315811
0.00282647
0.00314995
0.000982529
0.00738458
-0.0102409
0.0372224
-0.0760437
0.144568
-0.192523
0.534621
0.674342
0.885568
0.474014
-0.347631
0.623537
0.00867664
0.00082447
0.00130663
-9.37054e-05
-9.78683e-05
-0.00156808
-0.00103627
-0.00644069
0.00172728
-0.0170176
-0.00594125
0.0838765
-0.457948
0.531093
-0.0522817
0.174157
0.400438
0.98547
0.581643
0.639274
)
;

boundaryField
{
    movingWall
    {
        type            calculated;
        value           nonuniform List<scalar> 
20
(
0.756022
0.265316
0.25935
0.257994
0.253472
0.246371
0.245348
0.228743
0.237911
0.196798
0.222054
0.251914
-0.10916
0.305941
-0.037188
0.0656274
0.168193
0.985659
0.218257
0.298799
)
;
    }
    fixedWalls
    {
        type            calculated;
        value           nonuniform List<scalar> 
60
(
-0.000826049
-0.00131249
-0.00173577
-0.00252471
-0.00264947
-0.0025827
-0.00221192
-0.00175166
-0.00114526
-0.000526063
0.000142474
0.000771937
0.00137309
0.00190941
0.00235436
0.00274522
0.00298206
0.00313655
0.00327181
0.00167685
0.040813
0.466429
0.692739
0.497669
0.749172
-0.250436
-0.0848156
0.25772
0.013753
0.00473754
0.0520047
-0.130532
0.113687
0.0848191
0.00218569
0.0235853
0.0360698
0.0472621
0.049264
0.239532
0.763725
0.267647
0.266528
0.262045
0.263376
0.249476
0.271034
0.197256
0.38589
-0.123786
0.617179
-0.194054
0.076769
-0.0175858
0.0178523
0.012294
0.0487526
0.126897
0.657569
0.0219243
)
;
    }
    frontAndBack
    {
        type            empty;
    }
}


// ************************************************************************* //
