/*--------------------------------*- C++ -*----------------------------------*\
| =========                 |                                                 |
| \\      /  F ield         | OpenFOAM: The Open Source CFD Toolbox           |
|  \\    /   O peration     | Version:  2312                                  |
|   \\  /    A nd           | Website:  www.openfoam.com                      |
|    \\/     M anipulation  |                                                 |
\*---------------------------------------------------------------------------*/
FoamFile
{
    version     2.0;
    format      ascii;
    arch        "LSB;label=32;scalar=64";
    class       surfaceScalarField;
    location    "4";
    object      fluxField;
}
// * * * * * * * * * * * * * * * * * * * * * * * * * * * * * * * * * * * * * //

dimensions      [0 3 -1 0 0 0 0];

oriented        oriented;

internalField   nonuniform List<scalar> 
760
(
-5e-05
4.25893e-16
-5e-05
-1.6529e-16
-5e-05
2.59904e-16
-5e-05
-3.29729e-17
-5e-05
4.83008e-17
-5e-05
7.44981e-19
-5e-05
9.28031e-18
-5e-05
2.556e-18
-5e-05
2.66685e-18
-5e-05
1.45604e-18
-5e-05
1.11477e-18
-5e-05
7.62045e-19
-5e-05
5.64919e-19
-5e-05
4.13765e-19
-5e-05
3.02145e-19
-5e-05
2.22642e-19
-5e-05
1.68657e-19
-5e-05
1.2949e-19
-5e-05
7.36311e-20
1.41687e-21
-5e-05
-1.53989e-15
-5e-05
8.2278e-16
-5e-05
-6.17101e-17
-5e-05
8.75521e-17
-5e-05
2.01146e-17
-5e-05
1.65457e-17
-5e-05
9.85571e-18
-5e-05
6.04255e-18
-5e-05
4.20164e-18
-5e-05
2.80029e-18
-5e-05
2.00837e-18
-5e-05
1.44036e-18
-5e-05
1.06697e-18
-5e-05
7.90275e-19
-5e-05
5.84336e-19
-5e-05
4.32283e-19
-5e-05
3.27431e-19
-5e-05
2.5092e-19
-5e-05
1.34876e-19
-1.162e-21
-5e-05
8.79855e-16
-5e-05
-5.22611e-16
-5e-05
1.87089e-16
-5e-05
-2.38451e-17
-5e-05
3.93507e-17
-5e-05
1.07603e-17
-5e-05
1.2111e-17
-5e-05
6.84004e-18
-5e-05
5.20915e-18
-5e-05
3.58114e-18
-5e-05
2.63584e-18
-5e-05
1.93589e-18
-5e-05
1.45514e-18
-5e-05
1.08773e-18
-5e-05
8.12919e-19
-5e-05
6.04619e-19
-5e-05
4.6233e-19
-5e-05
3.56029e-19
-5e-05
1.90689e-19
-1.89424e-21
-5e-05
-6.57597e-16
-5e-05
3.08136e-16
-5e-05
-5.43276e-17
-5e-05
4.31091e-17
-5e-05
9.66497e-18
-5e-05
1.42427e-17
-5e-05
9.12294e-18
-5e-05
7.1916e-18
-5e-05
5.23697e-18
-5e-05
3.92022e-18
-5e-05
2.93978e-18
-5e-05
2.22539e-18
-5e-05
1.69671e-18
-5e-05
1.28451e-18
-5e-05
9.71474e-19
-5e-05
7.3095e-19
-5e-05
5.6742e-19
-5e-05
4.43326e-19
-5e-05
2.38787e-19
-2.06346e-21
-5e-05
-6.51222e-18
-5e-05
-4.06134e-17
-5e-05
2.29708e-17
-5e-05
4.56514e-18
-5e-05
1.26589e-17
-5e-05
8.94994e-18
-5e-05
8.01583e-18
-5e-05
6.21786e-18
-5e-05
4.92697e-18
-5e-05
3.82323e-18
-5e-05
2.97869e-18
-5e-05
2.31178e-18
-5e-05
1.79684e-18
-5e-05
1.38497e-18
-5e-05
1.06263e-18
-5e-05
8.12626e-19
-5e-05
6.40864e-19
-5e-05
5.08183e-19
-5e-05
2.74111e-19
-6.11476e-21
-5e-05
5.38277e-16
-5e-05
-1.88588e-16
-5e-05
5.15731e-17
-5e-05
-7.50473e-18
-5e-05
1.14112e-17
-5e-05
5.76516e-18
-5e-05
6.49324e-18
-5e-05
5.11558e-18
-5e-05
4.33478e-18
-5e-05
3.48585e-18
-5e-05
2.81199e-18
-5e-05
2.24024e-18
-5e-05
1.78009e-18
-5e-05
1.39844e-18
-5e-05
1.08853e-18
-5e-05
8.4517e-19
-5e-05
6.79796e-19
-5e-05
5.51649e-19
-5e-05
2.97692e-19
-1.2844e-20
-5e-05
-1.21436e-15
-5e-05
3.86658e-16
-5e-05
-9.21919e-17
-5e-05
3.09671e-17
-5e-05
-2.83186e-18
-5e-05
6.86622e-18
-5e-05
4.08866e-18
-5e-05
4.32554e-18
-5e-05
3.56626e-18
-5e-05
3.05213e-18
-5e-05
2.5147e-18
-5e-05
2.06218e-18
-5e-05
1.67915e-18
-5e-05
1.3456e-18
-5e-05
1.06236e-18
-5e-05
8.33413e-19
-5e-05
6.80936e-19
-5e-05
5.65587e-19
-5e-05
3.04866e-19
-2.23982e-20
-5e-05
1.75493e-15
-5e-05
-5.74772e-16
-5e-05
1.40597e-16
-5e-05
-3.9898e-17
-5e-05
1.44371e-17
-5e-05
3.21798e-19
-5e-05
4.32218e-18
-5e-05
3.00035e-18
-5e-05
2.98637e-18
-5e-05
2.53056e-18
-5e-05
2.17824e-18
-5e-05
1.82253e-18
-5e-05
1.52418e-18
-5e-05
1.24421e-18
-5e-05
9.97823e-19
-5e-05
7.89937e-19
-5e-05
6.52227e-19
-5e-05
5.52085e-19
-5e-05
2.9399e-19
-3.6362e-20
-5e-05
-2.30062e-15
-5e-05
7.19805e-16
-5e-05
-1.74912e-16
-5e-05
5.2286e-17
-5e-05
-1.18796e-17
-5e-05
5.95741e-18
-5e-05
1.4587e-18
-5e-05
2.72522e-18
-5e-05
2.21403e-18
-5e-05
2.0859e-18
-5e-05
1.80713e-18
-5e-05
1.56644e-18
-5e-05
1.33314e-18
-5e-05
1.10461e-18
-5e-05
9.01067e-19
-5e-05
7.25115e-19
-5e-05
6.09025e-19
-5e-05
5.2498e-19
-5e-05
2.74718e-19
-5.13601e-20
-5e-05
2.7093e-15
-5e-05
-8.49712e-16
-5e-05
2.05931e-16
-5e-05
-5.99868e-17
-5e-05
1.73898e-17
-5e-05
-2.75685e-18
-5e-05
2.95591e-18
-5e-05
1.4627e-18
-5e-05
1.81907e-18
-5e-05
1.5867e-18
-5e-05
1.46566e-18
-5e-05
1.29661e-18
-5e-05
1.13368e-18
-5e-05
9.52406e-19
-5e-05
7.85981e-19
-5e-05
6.43441e-19
-5e-05
5.5164e-19
-5e-05
4.84278e-19
-5e-05
2.49297e-19
-6.27473e-20
-5e-05
-3.05457e-15
-5e-05
9.40711e-16
-5e-05
-2.27957e-16
-5e-05
6.66119e-17
-5e-05
-1.69243e-17
-5e-05
5.6168e-18
-5e-05
-1.63751e-19
-5e-05
1.56688e-18
-5e-05
1.14678e-18
-5e-05
1.22754e-18
-5e-05
1.12023e-18
-5e-05
1.03574e-18
-5e-05
9.3094e-19
-5e-05
7.98354e-19
-5e-05
6.63865e-19
-5e-05
5.49305e-19
-5e-05
4.8157e-19
-5e-05
4.33071e-19
-5e-05
2.1896e-19
-7.11325e-20
-5e-05
3.24424e-15
-5e-05
-9.90917e-16
-5e-05
2.40402e-16
-5e-05
-6.90946e-17
-5e-05
1.87281e-17
-5e-05
-4.34972e-18
-5e-05
1.96711e-18
-5e-05
3.78329e-19
-5e-05
9.01261e-19
-5e-05
7.99728e-19
-5e-05
8.18042e-19
-5e-05
7.7227e-19
-5e-05
7.20867e-19
-5e-05
6.32363e-19
-5e-05
5.37582e-19
-5e-05
4.55471e-19
-5e-05
4.14603e-19
-5e-05
3.86001e-19
-5e-05
1.88921e-19
-7.80249e-20
-5e-05
-3.33417e-15
-5e-05
1.01559e-15
-5e-05
-2.45742e-16
-5e-05
7.06806e-17
-5e-05
-1.88567e-17
-5e-05
4.8997e-18
-5e-05
-1.24577e-18
-5e-05
6.39028e-19
-5e-05
3.04098e-19
-5e-05
5.10681e-19
-5e-05
5.16368e-19
-5e-05
5.38532e-19
-5e-05
5.21933e-19
-5e-05
4.7656e-19
-5e-05
4.18487e-19
-5e-05
3.66444e-19
-5e-05
3.506e-19
-5e-05
3.40921e-19
-5e-05
1.61825e-19
-8.40663e-20
-5e-05
3.25568e-15
-5e-05
-9.72058e-16
-5e-05
2.35671e-16
-5e-05
-6.70642e-17
-5e-05
1.68667e-17
-5e-05
-5.16399e-18
-5e-05
8.59381e-19
-5e-05
-4.85536e-19
-5e-05
1.23058e-19
-5e-05
1.5978e-19
-5e-05
2.84931e-19
-5e-05
3.32135e-19
-5e-05
3.61015e-19
-5e-05
3.44824e-19
-5e-05
3.16232e-19
-5e-05
2.83249e-19
-5e-05
2.85183e-19
-5e-05
2.90019e-19
-5e-05
1.33599e-19
-8.76393e-20
-5e-05
-3.05996e-15
-5e-05
9.19992e-16
-5e-05
-2.2476e-16
-5e-05
6.16201e-17
-5e-05
-1.85124e-17
-5e-05
3.05823e-18
-5e-05
-2.17491e-18
-5e-05
-2.51386e-19
-5e-05
-3.69795e-19
-5e-05
-4.18081e-20
-5e-05
7.03843e-20
-5e-05
1.70367e-19
-5e-05
2.25644e-19
-5e-05
2.31885e-19
-5e-05
2.25008e-19
-5e-05
2.09157e-19
-5e-05
2.21532e-19
-5e-05
2.32099e-19
-5e-05
1.02204e-19
-8.39422e-20
-5e-05
2.73217e-15
-5e-05
-7.92771e-16
-5e-05
1.87116e-16
-5e-05
-5.5211e-17
-5e-05
1.02217e-17
-5e-05
-5.58515e-18
-5e-05
-6.33232e-19
-5e-05
-1.1509e-18
-5e-05
-4.78814e-19
-5e-05
-2.67333e-19
-5e-05
-7.25126e-20
-5e-05
4.5177e-20
-5e-05
1.16566e-19
-5e-05
1.40967e-19
-5e-05
1.44771e-19
-5e-05
1.40889e-19
-5e-05
1.59996e-19
-5e-05
1.77718e-19
-5e-05
7.75789e-20
-7.18182e-20
-5e-05
-2.25329e-15
-5e-05
6.56098e-16
-5e-05
-1.83848e-16
-5e-05
4.00288e-17
-5e-05
-1.87828e-17
-5e-05
9.23472e-19
-5e-05
-3.0062e-18
-5e-05
-7.7777e-19
-5e-05
-7.59009e-19
-5e-05
-3.23371e-19
-5e-05
-1.70339e-19
-5e-05
-2.66895e-20
-5e-05
4.48345e-20
-5e-05
8.01543e-20
-5e-05
8.81303e-20
-5e-05
9.24991e-20
-5e-05
1.13943e-19
-5e-05
1.34757e-19
-5e-05
5.80092e-20
-5.89806e-20
-5e-05
1.84765e-15
-5e-05
-5.41627e-16
-5e-05
7.06989e-17
-5e-05
-1.80707e-17
-5e-05
-6.23246e-18
-5e-05
-9.87426e-19
-5e-05
-2.65239e-18
-5e-05
-6.3854e-19
-5e-05
-7.15673e-19
-5e-05
-2.70717e-19
-5e-05
-1.71555e-19
-5e-05
-4.84315e-20
-5e-05
9.45136e-21
-5e-05
4.0592e-20
-5e-05
5.03386e-20
-5e-05
5.95583e-20
-5e-05
7.79072e-20
-5e-05
9.56611e-20
-5e-05
3.79573e-20
-4.87179e-20
-5e-05
-1.53066e-15
-5e-05
1.00529e-15
-5e-05
-3.55537e-16
-5e-05
1.23845e-16
-5e-05
-4.85299e-17
-5e-05
1.25063e-17
-5e-05
-5.76258e-18
-5e-05
8.65335e-19
-5e-05
-7.70545e-19
-5e-05
-4.03976e-20
-5e-05
-1.2793e-19
-5e-05
-2.5913e-20
-5e-05
-8.29577e-21
-5e-05
1.26501e-20
-5e-05
1.7903e-20
-5e-05
2.42843e-20
-5e-05
3.61619e-20
-5e-05
5.12329e-20
-5e-05
2.06351e-20
-3.04679e-20
-5e-05
-5e-05
-5e-05
-5e-05
-5e-05
-5e-05
-5e-05
-5e-05
-5e-05
-5e-05
-5e-05
-5e-05
-5e-05
-5e-05
-5e-05
-5e-05
-5e-05
-5e-05
-5e-05
)
;

boundaryField
{
    movingWall
    {
        type            calculated;
        value           uniform -0;
    }
    fixedWalls
    {
        type            calculated;
        value           nonuniform List<scalar> 
60
(
5e-05
5e-05
5e-05
5e-05
5e-05
5e-05
5e-05
5e-05
5e-05
5e-05
5e-05
5e-05
5e-05
5e-05
5e-05
5e-05
5e-05
5e-05
5e-05
5e-05
-5e-05
-5e-05
-5e-05
-5e-05
-5e-05
-5e-05
-5e-05
-5e-05
-5e-05
-5e-05
-5e-05
-5e-05
-5e-05
-5e-05
-5e-05
-5e-05
-5e-05
-5e-05
-5e-05
-5e-05
0
0
0
0
0
0
0
0
0
0
0
0
0
0
0
0
0
0
0
0
)
;
    }
    frontAndBack
    {
        type            empty;
        value           nonuniform List<scalar> 0();
    }
}


// ************************************************************************* //
