/*--------------------------------*- C++ -*----------------------------------*\
| =========                 |                                                 |
| \\      /  F ield         | OpenFOAM: The Open Source CFD Toolbox           |
|  \\    /   O peration     | Version:  2312                                  |
|   \\  /    A nd           | Website:  www.openfoam.com                      |
|    \\/     M anipulation  |                                                 |
\*---------------------------------------------------------------------------*/
FoamFile
{
    version     2.0;
    format      ascii;
    arch        "LSB;label=32;scalar=64";
    class       volVectorField;
    location    "4";
    object      gradPhi;
}
// * * * * * * * * * * * * * * * * * * * * * * * * * * * * * * * * * * * * * //

dimensions      [0 2 -1 0 0 0 0];

internalField   nonuniform List<vector> 
400
(
(-0.02 -1.34924e-13 0)
(-6.54962e-14 6.54989e-14 0)
(-5.66089e-14 5.6611e-14 0)
(1.13985e-15 -1.13794e-15 0)
(-9.43648e-15 9.43845e-15 0)
(-4.74802e-16 4.75185e-16 0)
(-1.92071e-15 1.92261e-15 0)
(-5.70755e-16 5.72918e-16 0)
(-5.52557e-16 5.52713e-16 0)
(-3.01094e-16 3.02354e-16 0)
(-2.28302e-16 2.28058e-16 0)
(-1.53856e-16 1.5531e-16 0)
(-1.14151e-16 1.14042e-16 0)
(-8.27181e-17 8.34506e-17 0)
(-5.9557e-17 6.07401e-17 0)
(-4.46678e-17 4.49244e-17 0)
(-3.47416e-17 3.35778e-17 0)
(-2.31611e-17 2.57584e-17 0)
(-1.48893e-17 1.50471e-17 0)
(0 1.12027e-18 0)
(-0.02 1.22638e-13 0)
(8.86423e-14 -8.8642e-14 0)
(4.21118e-14 -4.21113e-14 0)
(-2.74624e-15 2.74766e-15 0)
(-9.16516e-16 9.18784e-16 0)
(-1.97034e-15 1.97206e-15 0)
(-6.51818e-16 6.52509e-16 0)
(-5.59174e-16 5.59729e-16 0)
(-3.50725e-16 3.51252e-16 0)
(-2.59735e-16 2.60591e-16 0)
(-1.85288e-16 1.85135e-16 0)
(-1.35658e-16 1.3627e-16 0)
(-1.0257e-16 1.02502e-16 0)
(-7.44463e-17 7.63828e-17 0)
(-5.62483e-17 5.71984e-17 0)
(-4.30134e-17 4.2234e-17 0)
(-3.14329e-17 3.24761e-17 0)
(-2.31611e-17 2.4783e-17 0)
(-1.32349e-17 1.20651e-17 0)
(1.65436e-18 -1.71419e-18 0)
(-0.02 -2.87401e-13 0)
(-2.91851e-13 2.91851e-13 0)
(1.96803e-14 -1.96785e-14 0)
(-2.63457e-14 2.63469e-14 0)
(1.32349e-14 -1.32329e-14 0)
(-1.94057e-15 1.94087e-15 0)
(1.10015e-15 -1.10009e-15 0)
(-5.12852e-16 5.13283e-16 0)
(-8.60268e-17 8.74586e-17 0)
(-1.88597e-16 1.89431e-16 0)
(-1.14151e-16 1.15319e-16 0)
(-1.0257e-16 1.02549e-16 0)
(-7.61006e-17 7.7223e-17 0)
(-5.9557e-17 6.01303e-17 0)
(-4.46678e-17 4.6099e-17 0)
(-3.47416e-17 3.46317e-17 0)
(-2.81241e-17 2.71553e-17 0)
(-1.98523e-17 2.13394e-17 0)
(-1.15805e-17 1.11606e-17 0)
(1.65436e-18 1.64732e-19 0)
(-0.02 8.39979e-13 0)
(8.2102e-13 -8.21019e-13 0)
(-3.72033e-14 3.72041e-14 0)
(7.20689e-14 -7.20676e-14 0)
(-1.90632e-14 1.90642e-14 0)
(4.89525e-15 -4.89496e-15 0)
(-1.8016e-15 1.80177e-15 0)
(5.47594e-16 -5.46946e-16 0)
(-1.6709e-16 1.67859e-16 0)
(-4.96308e-18 5.52402e-18 0)
(-7.27919e-17 7.39855e-17 0)
(-5.12852e-17 5.21201e-17 0)
(-4.96308e-17 4.92212e-17 0)
(-3.80503e-17 3.81862e-17 0)
(-3.14329e-17 3.15311e-17 0)
(-2.31611e-17 2.51301e-17 0)
(-2.15067e-17 2.07441e-17 0)
(-1.65436e-17 1.70501e-17 0)
(-9.92617e-18 9.91367e-18 0)
(-1.65436e-18 7.89731e-19 0)
(-0.02 -1.46158e-12 0)
(-1.43876e-12 1.43876e-12 0)
(6.83119e-14 -6.83129e-14 0)
(-1.19614e-13 1.19616e-13 0)
(3.19656e-14 -3.19666e-14 0)
(-6.75972e-15 6.7613e-15 0)
(3.70908e-15 -3.70859e-15 0)
(-5.85644e-16 5.85121e-16 0)
(3.17637e-16 -3.15943e-16 0)
(-5.29396e-17 5.32172e-17 0)
(1.65436e-17 -1.60384e-17 0)
(-2.15067e-17 2.21799e-17 0)
(-1.65436e-17 1.72065e-17 0)
(-1.98523e-17 2.08325e-17 0)
(-1.98523e-17 1.79738e-17 0)
(-1.48893e-17 1.63455e-17 0)
(-1.32349e-17 1.45694e-17 0)
(-1.32349e-17 1.31017e-17 0)
(-6.61744e-18 6.96133e-18 0)
(1.65436e-18 -1.72174e-18 0)
(-0.02 2.15948e-12 0)
(2.10287e-12 -2.10287e-12 0)
(-8.38099e-14 8.38095e-14 0)
(1.72803e-13 -1.72803e-13 0)
(-4.00422e-14 4.00415e-14 0)
(1.07666e-14 -1.07659e-14 0)
(-4.29307e-15 4.29174e-15 0)
(1.20934e-15 -1.20828e-15 0)
(-2.01832e-16 2.02337e-16 0)
(1.68745e-16 -1.68388e-16 0)
(8.27181e-18 -8.2171e-18 0)
(2.31611e-17 -2.35032e-17 0)
(3.30872e-18 -2.10967e-18 0)
(0 6.82557e-19 0)
(-4.96308e-18 4.40291e-18 0)
(-6.61744e-18 6.5973e-18 0)
(-8.27181e-18 8.49862e-18 0)
(-6.61744e-18 8.44539e-18 0)
(-4.96308e-18 4.54657e-18 0)
(0 -6.12111e-19 0)
(-0.02 -2.81461e-12 0)
(-2.73762e-12 2.73762e-12 0)
(9.86578e-14 -9.86581e-14 0)
(-2.1892e-13 2.1892e-13 0)
(5.00891e-14 -5.00882e-14 0)
(-1.26095e-14 1.26093e-14 0)
(6.12775e-15 -6.12666e-15 0)
(-1.01578e-15 1.01753e-15 0)
(5.50902e-16 -5.50045e-16 0)
(-3.14329e-17 3.08253e-17 0)
(9.42986e-17 -9.28658e-17 0)
(2.81241e-17 -2.72875e-17 0)
(2.31611e-17 -2.33607e-17 0)
(9.92617e-18 -9.2659e-18 0)
(4.96308e-18 -4.59821e-18 0)
(3.30872e-18 -3.18698e-18 0)
(0 -8.84157e-19 0)
(-3.30872e-18 3.66681e-18 0)
(-1.65436e-18 1.8803e-18 0)
(3.30872e-18 -2.10643e-18 0)
(-0.02 3.4228e-12 0)
(3.31395e-12 -3.31395e-12 0)
(-1.07001e-13 1.07002e-13 0)
(2.61788e-13 -2.61788e-13 0)
(-5.66817e-14 5.66816e-14 0)
(1.57015e-14 -1.57002e-14 0)
(-6.63895e-15 6.63757e-15 0)
(1.60473e-15 -1.60587e-15 0)
(-3.45761e-16 3.45076e-16 0)
(2.41537e-16 -2.40647e-16 0)
(3.14329e-17 -3.13241e-17 0)
(6.12114e-17 -6.00723e-17 0)
(2.81241e-17 -2.87544e-17 0)
(2.31611e-17 -2.19624e-17 0)
(1.32349e-17 -1.37411e-17 0)
(8.27181e-18 -8.65636e-18 0)
(3.30872e-18 -5.75977e-18 0)
(6.61744e-18 -4.59129e-18 0)
(0 -2.71929e-18 0)
(3.30872e-18 -2.82014e-18 0)
(-0.02 -3.93149e-12 0)
(-3.80228e-12 3.80228e-12 0)
(1.13392e-13 -1.13392e-13 0)
(-2.96107e-13 2.96106e-13 0)
(6.32793e-14 -6.32782e-14 0)
(-1.71739e-14 1.7173e-14 0)
(7.93597e-15 -7.93466e-15 0)
(-1.42275e-15 1.42105e-15 0)
(6.70016e-16 -6.69933e-16 0)
(-6.12114e-17 6.10531e-17 0)
(1.14151e-16 -1.14053e-16 0)
(3.80503e-17 -3.79013e-17 0)
(4.1359e-17 -4.07855e-17 0)
(2.81241e-17 -2.72474e-17 0)
(1.98523e-17 -1.94724e-17 0)
(1.15805e-17 -1.28141e-17 0)
(9.92617e-18 -8.79468e-18 0)
(3.30872e-18 -3.99116e-18 0)
(6.61744e-18 -4.09847e-18 0)
(3.30872e-18 -3.9483e-18 0)
(-0.02 4.33359e-12 0)
(4.18167e-12 -4.18167e-12 0)
(-1.16015e-13 1.16014e-13 0)
(3.2269e-13 -3.22688e-13 0)
(-6.73408e-14 6.73384e-14 0)
(1.89854e-14 -1.89862e-14 0)
(-8.23541e-15 8.23483e-15 0)
(1.82476e-15 -1.82301e-15 0)
(-4.76456e-16 4.75354e-16 0)
(2.61389e-16 -2.6134e-16 0)
(2.64698e-17 -2.67462e-17 0)
(6.94832e-17 -6.75795e-17 0)
(3.63959e-17 -3.73642e-17 0)
(3.14329e-17 -3.23101e-17 0)
(2.31611e-17 -2.38473e-17 0)
(1.65436e-17 -1.6948e-17 0)
(1.32349e-17 -1.06249e-17 0)
(6.61744e-18 -8.52383e-18 0)
(4.96308e-18 -4.66738e-18 0)
(1.65436e-18 -1.47138e-18 0)
(-0.02 -4.60388e-12 0)
(-4.43958e-12 4.43958e-12 0)
(1.16378e-13 -1.16376e-13 0)
(-3.39664e-13 3.39662e-13 0)
(7.04195e-14 -7.04196e-14 0)
(-1.96058e-14 1.96048e-14 0)
(8.90046e-15 -8.90208e-15 0)
(-1.64444e-15 1.64478e-15 0)
(7.09721e-16 -7.10164e-16 0)
(-9.5953e-17 9.58798e-17 0)
(1.12497e-16 -1.12339e-16 0)
(3.97047e-17 -3.92634e-17 0)
(4.30134e-17 -4.45729e-17 0)
(2.81241e-17 -2.84555e-17 0)
(2.31611e-17 -2.30114e-17 0)
(1.8198e-17 -1.78812e-17 0)
(1.48893e-17 -1.51914e-17 0)
(9.92617e-18 -1.09246e-17 0)
(6.61744e-18 -6.34655e-18 0)
(3.30872e-18 -2.45653e-18 0)
(-0.02 4.73362e-12 0)
(4.55905e-12 -4.55904e-12 0)
(-1.13717e-13 1.13717e-13 0)
(3.46508e-13 -3.4651e-13 0)
(-7.12897e-14 7.129e-14 0)
(2.00608e-14 -2.00621e-14 0)
(-8.80451e-15 8.80396e-15 0)
(1.86943e-15 -1.86939e-15 0)
(-5.32704e-16 5.31324e-16 0)
(2.54772e-16 -2.54594e-16 0)
(1.48893e-17 -1.68728e-17 0)
(6.78288e-17 -6.68761e-17 0)
(3.80503e-17 -3.74847e-17 0)
(3.47416e-17 -3.545e-17 0)
(2.48154e-17 -2.64824e-17 0)
(1.98523e-17 -2.03845e-17 0)
(1.15805e-17 -1.31405e-17 0)
(9.92617e-18 -9.56198e-18 0)
(6.61744e-18 -6.89529e-18 0)
(0 -4.47927e-19 0)
(-0.02 -4.7138e-12 0)
(-4.53912e-12 4.53911e-12 0)
(1.09003e-13 -1.09004e-13 0)
(-3.43043e-13 3.43042e-13 0)
(7.07785e-14 -7.07789e-14 0)
(-1.95016e-14 1.95005e-14 0)
(8.86903e-15 -8.87007e-15 0)
(-1.64609e-15 1.64572e-15 0)
(6.8656e-16 -6.87078e-16 0)
(-1.07533e-16 1.07232e-16 0)
(1.0257e-16 -1.04466e-16 0)
(3.30872e-17 -3.25943e-17 0)
(4.46678e-17 -4.51116e-17 0)
(2.97785e-17 -2.96582e-17 0)
(2.31611e-17 -2.40746e-17 0)
(1.65436e-17 -1.69555e-17 0)
(1.32349e-17 -1.29923e-17 0)
(8.27181e-18 -8.24866e-18 0)
(3.30872e-18 -4.48617e-18 0)
(3.30872e-18 -1.95022e-18 0)
(-0.02 4.54302e-12 0)
(4.37149e-12 -4.3715e-12 0)
(-1.01593e-13 1.01592e-13 0)
(3.29021e-13 -3.29022e-13 0)
(-6.79942e-14 6.79923e-14 0)
(1.86992e-14 -1.87003e-14 0)
(-8.25195e-15 8.25074e-15 0)
(1.73873e-15 -1.73828e-15 0)
(-4.99617e-16 4.98559e-16 0)
(2.28302e-16 -2.28404e-16 0)
(3.30872e-18 -5.20283e-18 0)
(5.62483e-17 -5.55476e-17 0)
(2.64698e-17 -2.82684e-17 0)
(2.97785e-17 -2.85492e-17 0)
(1.98523e-17 -2.04632e-17 0)
(1.48893e-17 -1.76036e-17 0)
(1.48893e-17 -1.35693e-17 0)
(8.27181e-18 -1.08145e-17 0)
(4.96308e-18 -5.45756e-18 0)
(0 -5.11359e-19 0)
(-0.02 -4.22304e-12 0)
(-4.06563e-12 4.06563e-12 0)
(9.30297e-14 -9.30287e-14 0)
(-3.04641e-13 3.0464e-13 0)
(6.3994e-14 -6.39945e-14 0)
(-1.68579e-14 1.68572e-14 0)
(7.80031e-15 -7.80107e-15 0)
(-1.43599e-15 1.4357e-15 0)
(5.85644e-16 -5.87542e-16 0)
(-1.0257e-16 1.02442e-16 0)
(7.94093e-17 -8.11983e-17 0)
(2.15067e-17 -2.1068e-17 0)
(3.14329e-17 -3.04623e-17 0)
(2.15067e-17 -2.17154e-17 0)
(1.65436e-17 -1.82878e-17 0)
(1.32349e-17 -1.39467e-17 0)
(1.32349e-17 -1.16194e-17 0)
(9.92617e-18 -1.10289e-17 0)
(6.61744e-18 -7.03308e-18 0)
(0 -6.33176e-21 0)
(-0.02 3.77115e-12 0)
(3.62868e-12 -3.62868e-12 0)
(-8.13036e-14 8.13012e-14 0)
(2.71456e-13 -2.71456e-13 0)
(-5.73187e-14 5.73187e-14 0)
(1.50017e-14 -1.50027e-14 0)
(-6.65715e-15 6.65481e-15 0)
(1.41117e-15 -1.41158e-15 0)
(-4.03664e-16 4.0368e-16 0)
(1.6709e-16 -1.70249e-16 0)
(-4.96308e-18 4.6565e-18 0)
(3.30872e-17 -3.42845e-17 0)
(1.8198e-17 -1.87282e-17 0)
(1.8198e-17 -1.76556e-17 0)
(1.48893e-17 -1.51294e-17 0)
(1.15805e-17 -1.33966e-17 0)
(1.15805e-17 -1.27487e-17 0)
(1.15805e-17 -1.17965e-17 0)
(4.96308e-18 -4.99479e-18 0)
(-3.30872e-18 3.18629e-18 0)
(-0.02 -3.1875e-12 0)
(-3.07293e-12 3.07293e-12 0)
(7.10482e-14 -7.10502e-14 0)
(-2.2895e-13 2.28948e-13 0)
(5.04067e-14 -5.04073e-14 0)
(-1.2191e-14 1.21888e-14 0)
(5.79357e-15 -5.7938e-15 0)
(-1.1018e-15 1.10183e-15 0)
(4.06973e-16 -4.0761e-16 0)
(-9.42986e-17 9.32446e-17 0)
(4.63221e-17 -4.6323e-17 0)
(3.30872e-18 -4.86715e-18 0)
(1.65436e-17 -1.65229e-17 0)
(1.15805e-17 -1.21143e-17 0)
(9.92617e-18 -1.24563e-17 0)
(1.15805e-17 -1.08495e-17 0)
(8.27181e-18 -1.00226e-17 0)
(8.27181e-18 -8.07455e-18 0)
(1.65436e-18 -2.56674e-18 0)
(-3.30872e-18 3.38546e-18 0)
(-0.02 2.53505e-12 0)
(2.4429e-12 -2.44291e-12 0)
(-5.34441e-14 5.34433e-14 0)
(1.79172e-13 -1.79173e-13 0)
(-3.89023e-14 3.89e-14 0)
(8.94182e-15 -8.94394e-15 0)
(-4.24509e-15 4.24647e-15 0)
(7.94093e-16 -7.95365e-16 0)
(-2.79587e-16 2.78638e-16 0)
(7.27919e-17 -7.53664e-17 0)
(-1.65436e-17 1.84378e-17 0)
(1.32349e-17 -1.4608e-17 0)
(4.96308e-18 -6.45385e-18 0)
(8.27181e-18 -8.6715e-18 0)
(4.96308e-18 -7.13809e-18 0)
(6.61744e-18 -6.04495e-18 0)
(6.61744e-18 -6.31419e-18 0)
(6.61744e-18 -7.44565e-18 0)
(3.30872e-18 -5.62006e-18 0)
(-1.65436e-18 1.07868e-18 0)
(-0.02 -1.86597e-12 0)
(-1.85329e-12 1.85329e-12 0)
(1.06418e-13 -1.0642e-13 0)
(-1.48378e-13 1.48376e-13 0)
(3.54033e-14 -3.54041e-14 0)
(-8.9716e-15 8.97054e-15 0)
(3.61643e-15 -3.61717e-15 0)
(-8.93355e-16 8.92906e-16 0)
(2.11758e-16 -2.13148e-16 0)
(-1.05879e-16 1.05758e-16 0)
(3.30872e-18 -5.43212e-18 0)
(-1.32349e-17 1.26513e-17 0)
(3.30872e-18 -2.89478e-18 0)
(3.30872e-18 -4.53725e-18 0)
(4.96308e-18 -5.79587e-18 0)
(6.61744e-18 -5.49219e-18 0)
(6.61744e-18 -7.24204e-18 0)
(8.27181e-18 -8.56102e-18 0)
(0 -2.76694e-18 0)
(-1.65436e-18 2.73821e-18 0)
(-0.02 7.62868e-13 0)
(7.96261e-13 -7.9626e-13 0)
(-8.73387e-14 8.7338e-14 0)
(7.17612e-14 -7.17605e-14 0)
(-2.05869e-14 2.05864e-14 0)
(4.99783e-15 -4.9973e-15 0)
(-2.35912e-15 2.35717e-15 0)
(3.92084e-16 -3.91838e-16 0)
(-2.465e-16 2.47212e-16 0)
(8.27181e-18 -8.56229e-18 0)
(-3.63959e-17 3.54879e-17 0)
(-4.96308e-18 4.37256e-18 0)
(-1.65436e-18 2.67927e-18 0)
(1.65436e-18 -2.072e-18 0)
(0 -3.44717e-18 0)
(8.27181e-18 -5.70272e-18 0)
(6.61744e-18 -8.11735e-18 0)
(9.92617e-18 -1.05822e-17 0)
(4.96308e-18 -3.92234e-18 0)
(-8.27181e-18 7.30328e-18 0)
)
;

boundaryField
{
    movingWall
    {
        type            extrapolatedCalculated;
        value           nonuniform List<vector> 
20
(
(-0.02 7.62868e-13 0)
(7.96261e-13 -7.9626e-13 0)
(-8.73387e-14 8.7338e-14 0)
(7.17612e-14 -7.17605e-14 0)
(-2.05869e-14 2.05864e-14 0)
(4.99783e-15 -4.9973e-15 0)
(-2.35912e-15 2.35717e-15 0)
(3.92084e-16 -3.91838e-16 0)
(-2.465e-16 2.47212e-16 0)
(8.27181e-18 -8.56229e-18 0)
(-3.63959e-17 3.54879e-17 0)
(-4.96308e-18 4.37256e-18 0)
(-1.65436e-18 2.67927e-18 0)
(1.65436e-18 -2.072e-18 0)
(0 -3.44717e-18 0)
(8.27181e-18 -5.70272e-18 0)
(6.61744e-18 -8.11735e-18 0)
(9.92617e-18 -1.05822e-17 0)
(4.96308e-18 -3.92234e-18 0)
(-8.27181e-18 7.30328e-18 0)
)
;
    }
    fixedWalls
    {
        type            extrapolatedCalculated;
        value           nonuniform List<vector> 
60
(
(-0.02 -1.34924e-13 0)
(-0.02 1.22638e-13 0)
(-0.02 -2.87401e-13 0)
(-0.02 8.39979e-13 0)
(-0.02 -1.46158e-12 0)
(-0.02 2.15948e-12 0)
(-0.02 -2.81461e-12 0)
(-0.02 3.4228e-12 0)
(-0.02 -3.93149e-12 0)
(-0.02 4.33359e-12 0)
(-0.02 -4.60388e-12 0)
(-0.02 4.73362e-12 0)
(-0.02 -4.7138e-12 0)
(-0.02 4.54302e-12 0)
(-0.02 -4.22304e-12 0)
(-0.02 3.77115e-12 0)
(-0.02 -3.1875e-12 0)
(-0.02 2.53505e-12 0)
(-0.02 -1.86597e-12 0)
(-0.02 7.62868e-13 0)
(0 1.12027e-18 0)
(1.65436e-18 -1.71419e-18 0)
(1.65436e-18 1.64732e-19 0)
(-1.65436e-18 7.89731e-19 0)
(1.65436e-18 -1.72174e-18 0)
(0 -6.12111e-19 0)
(3.30872e-18 -2.10643e-18 0)
(3.30872e-18 -2.82014e-18 0)
(3.30872e-18 -3.9483e-18 0)
(1.65436e-18 -1.47138e-18 0)
(3.30872e-18 -2.45653e-18 0)
(0 -4.47927e-19 0)
(3.30872e-18 -1.95022e-18 0)
(0 -5.11359e-19 0)
(0 -6.33176e-21 0)
(-3.30872e-18 3.18629e-18 0)
(-3.30872e-18 3.38546e-18 0)
(-1.65436e-18 1.07868e-18 0)
(-1.65436e-18 2.73821e-18 0)
(-8.27181e-18 7.30328e-18 0)
(-0.02 -1.34924e-13 0)
(-6.54962e-14 6.54989e-14 0)
(-5.66089e-14 5.6611e-14 0)
(1.13985e-15 -1.13794e-15 0)
(-9.43648e-15 9.43845e-15 0)
(-4.74802e-16 4.75185e-16 0)
(-1.92071e-15 1.92261e-15 0)
(-5.70755e-16 5.72918e-16 0)
(-5.52557e-16 5.52713e-16 0)
(-3.01094e-16 3.02354e-16 0)
(-2.28302e-16 2.28058e-16 0)
(-1.53856e-16 1.5531e-16 0)
(-1.14151e-16 1.14042e-16 0)
(-8.27181e-17 8.34506e-17 0)
(-5.9557e-17 6.07401e-17 0)
(-4.46678e-17 4.49244e-17 0)
(-3.47416e-17 3.35778e-17 0)
(-2.31611e-17 2.57584e-17 0)
(-1.48893e-17 1.50471e-17 0)
(0 1.12027e-18 0)
)
;
    }
    frontAndBack
    {
        type            empty;
    }
}


// ************************************************************************* //
