/*--------------------------------*- C++ -*----------------------------------*\
| =========                 |                                                 |
| \\      /  F ield         | OpenFOAM: The Open Source CFD Toolbox           |
|  \\    /   O peration     | Version:  2312                                  |
|   \\  /    A nd           | Website:  www.openfoam.com                      |
|    \\/     M anipulation  |                                                 |
\*---------------------------------------------------------------------------*/
FoamFile
{
    version     2.0;
    format      ascii;
    arch        "LSB;label=32;scalar=64";
    class       volTensorField;
    location    "4";
    object      gradU;
}
// * * * * * * * * * * * * * * * * * * * * * * * * * * * * * * * * * * * * * //

dimensions      [0 0 -1 0 0 0 0];

internalField   nonuniform List<tensor> 
400
(
(1.82718e-09 4.72619e-06 0 -2.04746e-08 1.70357e-09 0 0 0 0)
(8.97828e-10 -5.8468e-06 0 8.84517e-09 -6.61158e-10 0 0 0 0)
(-3.6575e-09 1.38683e-06 0 -3.5448e-09 1.03962e-09 0 0 0 0)
(1.71141e-09 -3.29291e-07 0 1.52368e-09 -1.31892e-10 0 0 0 0)
(-8.53972e-10 7.80884e-08 0 -3.29977e-10 1.93203e-10 0 0 0 0)
(2.18711e-10 -1.85583e-08 0 2.25541e-10 2.97992e-12 0 0 0 0)
(-1.17256e-10 4.39304e-09 0 3.57787e-12 3.71212e-11 0 0 0 0)
(1.23599e-11 -1.04895e-09 0 4.88162e-11 1.0224e-11 0 0 0 0)
(-1.90549e-11 2.45716e-10 0 1.91362e-11 1.06674e-11 0 0 0 0)
(-3.84892e-12 -6.02321e-11 0 1.80791e-11 5.82416e-12 0 0 0 0)
(-5.31259e-12 1.31432e-11 0 1.14925e-11 4.45909e-12 0 0 0 0)
(-2.95445e-12 -3.86785e-12 0 8.61941e-12 3.04818e-12 0 0 0 0)
(-2.35814e-12 4.18434e-13 0 5.9089e-12 2.25967e-12 0 0 0 0)
(-1.68051e-12 -4.58571e-13 0 4.11997e-12 1.65506e-12 0 0 0 0)
(-1.19262e-12 -1.56813e-13 0 2.76472e-12 1.20858e-12 0 0 0 0)
(-8.40257e-13 -1.45453e-13 0 1.81604e-12 8.90567e-13 0 0 0 0)
(-7.31836e-13 -9.44441e-14 0 1.0571e-12 6.74629e-13 0 0 0 0)
(-5.42101e-13 -8.76824e-14 0 4.33681e-13 5.17959e-13 0 0 0 0)
(-2.43945e-13 -1.21609e-13 0 0 2.94525e-13 0 0 0 0)
(0 -8.68084e-14 0 0 5.66747e-15 0 0 0 0)
(-1.34566e-08 -4.72515e-06 0 3.26206e-08 -7.86312e-09 0 0 0 0)
(1.6032e-08 5.84613e-06 0 -1.20773e-08 3.95228e-09 0 0 0 0)
(-3.66403e-09 -1.3863e-06 0 4.6689e-09 -1.28646e-09 0 0 0 0)
(1.50338e-09 3.28445e-07 0 -1.79807e-09 4.821e-10 0 0 0 0)
(-4.44143e-10 -7.79535e-08 0 4.52356e-10 -1.12745e-10 0 0 0 0)
(1.14871e-10 1.84023e-08 0 -2.11284e-10 6.32029e-11 0 0 0 0)
(-5.94685e-11 -4.3858e-09 0 3.37187e-11 2.3016e-12 0 0 0 0)
(3.2255e-12 1.02249e-09 0 -2.61564e-11 1.39462e-11 0 0 0 0)
(-1.17094e-11 -2.50116e-10 0 -6.77626e-13 6.13914e-12 0 0 0 0)
(-3.82181e-12 5.40238e-11 0 -4.74338e-12 5.37698e-12 0 0 0 0)
(-4.14707e-12 -1.59192e-11 0 -1.57209e-12 3.57439e-12 0 0 0 0)
(-2.60209e-12 1.66843e-12 0 -1.38236e-12 2.71327e-12 0 0 0 0)
(-2.11419e-12 -1.81156e-12 0 -7.58942e-13 2.00822e-12 0 0 0 0)
(-1.51788e-12 -5.92523e-13 0 -5.14996e-13 1.50604e-12 0 0 0 0)
(-1.0842e-12 -6.07681e-13 0 -2.98156e-13 1.12876e-12 0 0 0 0)
(-8.67362e-13 -3.88498e-13 0 -2.1684e-13 8.38565e-13 0 0 0 0)
(-6.77626e-13 -2.78164e-13 0 -1.35525e-13 6.35096e-13 0 0 0 0)
(-4.87891e-13 -2.92422e-13 0 -5.42101e-14 4.85722e-13 0 0 0 0)
(-2.43945e-13 -3.90683e-13 0 0 2.44981e-13 0 0 0 0)
(5.42101e-14 -2.13384e-13 0 -5.42101e-14 -1.03155e-14 0 0 0 0)
(2.23705e-08 4.72228e-06 0 -4.32528e-08 9.67897e-09 0 0 0 0)
(-2.70539e-08 -5.84022e-06 0 9.88532e-09 -5.38156e-09 0 0 0 0)
(6.62176e-09 1.38336e-06 0 -4.01583e-09 9.95195e-10 0 0 0 0)
(-2.50518e-09 -3.28117e-07 0 8.72186e-10 -4.45589e-10 0 0 0 0)
(7.32785e-10 7.76695e-08 0 -3.41632e-10 7.69441e-11 0 0 0 0)
(-1.99873e-10 -1.84433e-08 0 5.49691e-11 -2.31415e-11 0 0 0 0)
(6.7844e-11 4.34379e-09 0 -4.19044e-11 9.02134e-12 0 0 0 0)
(-2.20635e-11 -1.04511e-09 0 -4.77049e-12 3.18995e-12 0 0 0 0)
(2.35814e-12 2.37147e-10 0 -9.05309e-12 4.03004e-12 0 0 0 0)
(-4.71628e-12 -6.27969e-11 0 -3.95734e-12 3.12341e-12 0 0 0 0)
(-1.95156e-12 1.04795e-11 0 -3.03577e-12 2.50988e-12 0 0 0 0)
(-2.11419e-12 -5.43401e-12 0 -1.87025e-12 1.9821e-12 0 0 0 0)
(-1.51788e-12 -7.88801e-13 0 -1.21973e-12 1.55264e-12 0 0 0 0)
(-1.19262e-12 -1.33803e-12 0 -7.31836e-13 1.18983e-12 0 0 0 0)
(-8.94467e-13 -8.24285e-13 0 -4.87891e-13 9.14332e-13 0 0 0 0)
(-7.04731e-13 -6.39121e-13 0 -2.98156e-13 6.89346e-13 0 0 0 0)
(-5.69206e-13 -4.47287e-13 0 -1.35525e-13 5.39596e-13 0 0 0 0)
(-4.06576e-13 -4.77798e-13 0 -5.42101e-14 4.20434e-13 0 0 0 0)
(-2.43945e-13 -6.17647e-13 0 2.71051e-14 2.23251e-13 0 0 0 0)
(5.42101e-14 -3.21474e-13 0 0 -2.92899e-15 0 0 0 0)
(-4.68242e-08 -4.72085e-06 0 6.36612e-08 -6.14981e-09 0 0 0 0)
(5.5269e-08 5.83745e-06 0 -1.36758e-08 3.32299e-09 0 0 0 0)
(-1.26772e-08 -1.38136e-06 0 5.77671e-09 -9.65665e-10 0 0 0 0)
(5.17763e-09 3.27526e-07 0 -1.29074e-09 2.67817e-10 0 0 0 0)
(-1.26131e-09 -7.75311e-08 0 4.12702e-10 -1.18743e-10 0 0 0 0)
(4.14545e-10 1.83343e-08 0 -1.40458e-10 1.39294e-11 0 0 0 0)
(-1.19262e-10 -4.35947e-09 0 2.01391e-11 -1.19524e-11 0 0 0 0)
(3.6131e-11 1.0175e-09 0 -2.00306e-11 1.40623e-12 0 0 0 0)
(-1.09233e-11 -2.50182e-10 0 -3.7405e-12 1.11272e-13 0 0 0 0)
(2.22261e-12 5.25036e-11 0 -5.39391e-12 1.35633e-12 0 0 0 0)
(-2.05998e-12 -1.70605e-11 0 -2.84603e-12 1.21576e-12 0 0 0 0)
(-8.13152e-13 7.11195e-13 0 -2.19551e-12 1.158e-12 0 0 0 0)
(-9.75782e-13 -2.60382e-12 0 -1.35525e-12 9.66307e-13 0 0 0 0)
(-7.58942e-13 -1.23083e-12 0 -9.21572e-13 7.87116e-13 0 0 0 0)
(-6.50521e-13 -1.10817e-12 0 -5.69206e-13 6.3422e-13 0 0 0 0)
(-4.87891e-13 -7.63234e-13 0 -3.52366e-13 5.05324e-13 0 0 0 0)
(-4.06576e-13 -5.47075e-13 0 -1.89735e-13 4.20359e-13 0 0 0 0)
(-3.52366e-13 -6.08768e-13 0 -1.0842e-13 3.49188e-13 0 0 0 0)
(-1.89735e-13 -8.14046e-13 0 -8.13152e-14 1.9239e-13 0 0 0 0)
(0 -4.33706e-13 0 5.42101e-14 -6.76848e-16 0 0 0 0)
(7.23559e-08 4.71946e-06 0 -6.83541e-08 2.60434e-09 0 0 0 0)
(-8.49383e-08 -5.83504e-06 0 1.43834e-08 -1.395e-09 0 0 0 0)
(1.90068e-08 1.3803e-06 0 -6.16738e-09 3.09193e-10 0 0 0 0)
(-7.86919e-09 -3.2727e-07 0 1.32392e-09 -1.54176e-10 0 0 0 0)
(1.88304e-09 7.74156e-08 0 -4.58455e-10 1.19756e-11 0 0 0 0)
(-5.92408e-10 -1.83365e-08 0 1.19262e-10 -2.11709e-11 0 0 0 0)
(1.8838e-10 4.33126e-09 0 -4.17689e-11 -4.42844e-12 0 0 0 0)
(-4.59973e-11 -1.03304e-09 0 3.84892e-12 -3.89493e-12 0 0 0 0)
(1.69678e-11 2.37097e-10 0 -8.0231e-12 -1.23998e-12 0 0 0 0)
(-3.82181e-12 -6.16924e-11 0 -3.00866e-12 -3.87964e-13 0 0 0 0)
(1.24683e-12 1.02812e-11 0 -3.00866e-12 1.55641e-13 0 0 0 0)
(-6.77626e-13 -5.68346e-12 0 -1.87025e-12 3.45588e-13 0 0 0 0)
(-2.1684e-13 -1.15969e-12 0 -1.38236e-12 4.00523e-13 0 0 0 0)
(-4.06576e-13 -1.67012e-12 0 -9.21572e-13 4.01835e-13 0 0 0 0)
(-3.52366e-13 -1.10608e-12 0 -5.69206e-13 3.64621e-13 0 0 0 0)
(-2.98156e-13 -8.52981e-13 0 -3.25261e-13 3.26703e-13 0 0 0 0)
(-3.25261e-13 -6.03422e-13 0 -2.1684e-13 2.93775e-13 0 0 0 0)
(-2.71051e-13 -7.05767e-13 0 -5.42101e-14 2.5943e-13 0 0 0 0)
(-8.13152e-14 -9.67512e-13 0 -2.71051e-14 1.41296e-13 0 0 0 0)
(5.42101e-14 -5.13187e-13 0 5.42101e-14 -1.62052e-14 0 0 0 0)
(-1.00795e-07 -4.71965e-06 0 6.92955e-08 2.17916e-09 0 0 0 0)
(1.17456e-07 5.83515e-06 0 -1.4362e-08 -5.91898e-10 0 0 0 0)
(-2.57366e-08 -1.38012e-06 0 6.26178e-09 1.1441e-10 0 0 0 0)
(1.08866e-08 3.27229e-07 0 -1.31703e-09 -4.82795e-11 0 0 0 0)
(-2.46599e-09 -7.7398e-08 0 4.5981e-10 -4.99058e-12 0 0 0 0)
(8.31149e-10 1.83179e-08 0 -1.31432e-10 -1.27391e-11 0 0 0 0)
(-2.34648e-10 -4.34219e-09 0 3.01679e-11 -6.09033e-12 0 0 0 0)
(6.99039e-11 1.02069e-09 0 -1.47723e-11 -4.40914e-12 0 0 0 0)
(-1.77267e-11 -2.46675e-10 0 -7.04731e-13 -2.36878e-12 0 0 0 0)
(7.20994e-12 5.38993e-11 0 -3.7405e-12 -1.34951e-12 0 0 0 0)
(-9.48677e-13 -1.6327e-11 0 -2.00577e-12 -6.66798e-13 0 0 0 0)
(8.40257e-13 9.56077e-13 0 -1.73472e-12 -2.86197e-13 0 0 0 0)
(-2.71051e-14 -2.54757e-12 0 -1.13841e-12 -6.70035e-14 0 0 0 0)
(2.71051e-14 -1.26674e-12 0 -8.67362e-13 5.38581e-14 0 0 0 0)
(-5.42101e-14 -1.1833e-12 0 -5.96311e-13 1.03616e-13 0 0 0 0)
(-1.0842e-13 -8.3408e-13 0 -3.79471e-13 1.30177e-13 0 0 0 0)
(-1.6263e-13 -6.14349e-13 0 -1.89735e-13 1.55726e-13 0 0 0 0)
(-1.6263e-13 -7.61247e-13 0 -1.0842e-13 1.73862e-13 0 0 0 0)
(-5.42101e-14 -1.08968e-12 0 0 9.4327e-14 0 0 0 0)
(-2.71051e-14 -5.58796e-13 0 -5.42101e-14 -2.69168e-14 0 0 0 0)
(1.27289e-07 4.72104e-06 0 -6.33185e-08 -7.01056e-09 0 0 0 0)
(-1.47972e-07 -5.8371e-06 0 1.3e-08 2.30099e-09 0 0 0 0)
(3.20517e-08 1.38084e-06 0 -5.68127e-09 -5.7506e-10 0 0 0 0)
(-1.36712e-08 -3.2739e-07 0 1.19251e-09 1.53887e-10 0 0 0 0)
(3.06864e-09 7.74511e-08 0 -4.14192e-10 -5.69723e-11 0 0 0 0)
(-1.02202e-09 -1.83376e-08 0 1.14925e-10 4.40425e-12 0 0 0 0)
(3.05013e-10 4.33959e-09 0 -3.2255e-11 -9.61832e-12 0 0 0 0)
(-7.6897e-11 -1.02932e-09 0 7.37257e-12 -3.16014e-12 0 0 0 0)
(2.79995e-11 2.40156e-10 0 -4.74338e-12 -3.07408e-12 0 0 0 0)
(-5.12286e-12 -5.99904e-11 0 -1.27394e-12 -1.73487e-12 0 0 0 0)
(3.27971e-12 1.13445e-11 0 -1.89735e-12 -1.18914e-12 0 0 0 0)
(1.89735e-13 -5.08366e-12 0 -1.21973e-12 -7.12212e-13 0 0 0 0)
(6.23416e-13 -8.19632e-13 0 -1.0842e-12 -4.03752e-13 0 0 0 0)
(1.6263e-13 -1.4995e-12 0 -7.86047e-13 -2.11323e-13 0 0 0 0)
(1.35525e-13 -1.02976e-12 0 -5.42101e-13 -1.04677e-13 0 0 0 0)
(1.0842e-13 -8.00872e-13 0 -4.33681e-13 -4.70294e-14 0 0 0 0)
(-5.42101e-14 -5.59737e-13 0 -2.71051e-13 4.56281e-15 0 0 0 0)
(-8.13152e-14 -7.67166e-13 0 -1.35525e-13 5.57528e-14 0 0 0 0)
(0 -1.16829e-12 0 0 2.86949e-14 0 0 0 0)
(8.13152e-14 -5.80597e-13 0 -5.42101e-14 -3.8217e-14 0 0 0 0)
(-1.51113e-07 -4.72435e-06 0 5.53914e-08 1.18772e-08 0 0 0 0)
(1.75093e-07 5.84159e-06 0 -1.12711e-08 -3.84572e-09 0 0 0 0)
(-3.75441e-08 -1.38227e-06 0 4.97988e-09 9.31154e-10 0 0 0 0)
(1.61537e-08 3.27747e-07 0 -1.02135e-09 -2.8346e-10 0 0 0 0)
(-3.54355e-09 -7.75475e-08 0 3.67897e-10 6.90758e-11 0 0 0 0)
(1.21309e-09 1.83653e-08 0 -9.85811e-11 -2.61777e-11 0 0 0 0)
(-3.42228e-10 -4.34976e-09 0 2.66714e-11 9.34075e-13 0 0 0 0)
(9.74427e-11 1.02723e-09 0 -9.05309e-12 -5.3008e-12 0 0 0 0)
(-2.63461e-11 -2.4525e-10 0 1.13841e-12 -2.31955e-12 0 0 0 0)
(1.00831e-11 5.57842e-11 0 -1.73472e-12 -2.0863e-12 0 0 0 0)
(-9.48677e-13 -1.53043e-11 0 -8.13152e-13 -1.34584e-12 0 0 0 0)
(1.70762e-12 1.74146e-12 0 -9.21572e-13 -9.58593e-13 0 0 0 0)
(4.33681e-13 -2.04668e-12 0 -7.58942e-13 -6.19906e-13 0 0 0 0)
(5.42101e-13 -9.6766e-13 0 -5.42101e-13 -4.05569e-13 0 0 0 0)
(2.71051e-13 -1.01901e-12 0 -3.79471e-13 -2.58164e-13 0 0 0 0)
(1.35525e-13 -7.2484e-13 0 -2.98156e-13 -1.73905e-13 0 0 0 0)
(1.0842e-13 -5.11566e-13 0 -2.1684e-13 -1.14839e-13 0 0 0 0)
(1.0842e-13 -7.37115e-13 0 -1.0842e-13 -5.40067e-14 0 0 0 0)
(8.13152e-14 -1.18365e-12 0 0 -4.35052e-14 0 0 0 0)
(0 -5.49274e-13 0 5.42101e-14 -5.5855e-14 0 0 0 0)
(1.7141e-07 4.72908e-06 0 -4.3784e-08 -1.62222e-08 0 0 0 0)
(-1.98384e-07 -5.84805e-06 0 8.79554e-09 5.17831e-09 0 0 0 0)
(4.23014e-08 1.38441e-06 0 -3.90264e-09 -1.26203e-09 0 0 0 0)
(-1.82832e-08 -3.28252e-07 0 7.99138e-10 3.68736e-10 0 0 0 0)
(3.99144e-09 7.77084e-08 0 -2.79345e-10 -1.05267e-10 0 0 0 0)
(-1.36325e-09 -1.84058e-08 0 7.87944e-11 2.25424e-11 0 0 0 0)
(3.94541e-10 4.36047e-09 0 -1.95698e-11 -1.14539e-11 0 0 0 0)
(-1.02403e-10 -1.03258e-09 0 6.31548e-12 -1.10052e-12 0 0 0 0)
(3.52908e-11 2.43371e-10 0 -2.03288e-12 -3.08937e-12 0 0 0 0)
(-7.10152e-12 -5.90167e-11 0 0 -1.77863e-12 0 0 0 0)
(4.09286e-12 1.24722e-11 0 -6.77626e-13 -1.48445e-12 0 0 0 0)
(2.98156e-13 -4.35773e-12 0 -4.87891e-13 -1.02439e-12 0 0 0 0)
(9.48677e-13 -2.66607e-13 0 -4.33681e-13 -7.64164e-13 0 0 0 0)
(5.14996e-13 -1.13776e-12 0 -3.52366e-13 -5.58408e-13 0 0 0 0)
(4.60786e-13 -7.98095e-13 0 -2.98156e-13 -3.87027e-13 0 0 0 0)
(2.1684e-13 -6.57547e-13 0 -1.35525e-13 -2.59286e-13 0 0 0 0)
(2.1684e-13 -4.39839e-13 0 -5.42101e-14 -1.72806e-13 0 0 0 0)
(8.13152e-14 -6.95832e-13 0 -2.71051e-14 -1.08424e-13 0 0 0 0)
(1.0842e-13 -1.17014e-12 0 -5.42101e-14 -7.7086e-14 0 0 0 0)
(8.13152e-14 -4.81237e-13 0 0 -5.99923e-14 0 0 0 0)
(-1.86102e-07 -4.7354e-06 0 3.10898e-08 2.00397e-08 0 0 0 0)
(2.14974e-07 5.85655e-06 0 -6.11937e-09 -6.27807e-09 0 0 0 0)
(-4.55405e-08 -1.38708e-06 0 2.76285e-09 1.52337e-09 0 0 0 0)
(1.9777e-08 3.28904e-07 0 -5.45028e-10 -4.49091e-10 0 0 0 0)
(-4.26387e-09 -7.78937e-08 0 1.99331e-10 1.17078e-10 0 0 0 0)
(1.47286e-09 1.84591e-08 0 -5.11201e-11 -3.4857e-11 0 0 0 0)
(-4.14734e-10 -4.3734e-09 0 1.48807e-11 5.98881e-12 0 0 0 0)
(1.1498e-10 1.0356e-09 0 -3.82181e-12 -5.05007e-12 0 0 0 0)
(-3.26345e-11 -2.45928e-10 0 1.27394e-12 -1.57984e-12 0 0 0 0)
(1.14112e-11 5.73891e-11 0 -4.33681e-13 -1.99681e-12 0 0 0 0)
(-1.38236e-12 -1.45501e-11 0 -2.1684e-13 -1.36588e-12 0 0 0 0)
(1.89735e-12 2.46175e-12 0 -3.25261e-13 -1.07931e-12 0 0 0 0)
(6.23416e-13 -1.5807e-12 0 -1.6263e-13 -7.97815e-13 0 0 0 0)
(6.77626e-13 -5.90523e-13 0 -1.6263e-13 -6.08816e-13 0 0 0 0)
(4.33681e-13 -7.19885e-13 0 -1.89735e-13 -4.60343e-13 0 0 0 0)
(4.06576e-13 -5.1062e-13 0 -1.6263e-13 -3.26698e-13 0 0 0 0)
(1.89735e-13 -3.60704e-13 0 -8.13152e-14 -2.29539e-13 0 0 0 0)
(1.6263e-13 -6.41396e-13 0 -5.42101e-14 -1.62804e-13 0 0 0 0)
(8.13152e-14 -1.13522e-12 0 5.42101e-14 -1.01683e-13 0 0 0 0)
(5.42101e-14 -4.12196e-13 0 0 -4.55492e-14 0 0 0 0)
(1.9638e-07 4.74284e-06 0 -1.64485e-08 -2.30555e-08 0 0 0 0)
(-2.2671e-07 -5.86656e-06 0 3.04525e-09 7.16169e-09 0 0 0 0)
(4.78758e-08 1.39023e-06 0 -1.42429e-09 -1.73555e-09 0 0 0 0)
(-2.08467e-08 -3.29658e-07 0 2.67283e-10 5.06395e-10 0 0 0 0)
(4.48534e-09 7.81226e-08 0 -9.28077e-11 -1.37257e-10 0 0 0 0)
(-1.54775e-09 -1.85168e-08 0 2.6563e-11 3.34946e-11 0 0 0 0)
(4.41867e-10 4.39028e-09 0 -5.25838e-12 -1.24786e-11 0 0 0 0)
(-1.16037e-10 -1.04015e-09 0 2.52077e-12 4.16715e-13 0 0 0 0)
(3.86789e-11 2.46424e-10 0 -2.1684e-13 -2.68913e-12 0 0 0 0)
(-8.5652e-12 -5.88027e-11 0 2.1684e-13 -1.43665e-12 0 0 0 0)
(4.25549e-12 1.33897e-11 0 -2.71051e-14 -1.38172e-12 0 0 0 0)
(2.43945e-13 -3.78966e-12 0 -8.13152e-14 -1.04349e-12 0 0 0 0)
(1.0571e-12 2.03886e-13 0 -1.35525e-13 -8.10972e-13 0 0 0 0)
(5.69206e-13 -8.00285e-13 0 -5.42101e-14 -6.16209e-13 0 0 0 0)
(4.60786e-13 -5.15976e-13 0 -2.71051e-14 -4.88465e-13 0 0 0 0)
(3.52366e-13 -4.26743e-13 0 0 -3.76542e-13 0 0 0 0)
(3.52366e-13 -2.75945e-13 0 0 -2.8028e-13 0 0 0 0)
(1.6263e-13 -5.67976e-13 0 0 -2.0483e-13 0 0 0 0)
(1.35525e-13 -1.05288e-12 0 2.71051e-14 -1.21351e-13 0 0 0 0)
(5.42101e-14 -3.34004e-13 0 2.71051e-14 -3.35405e-14 0 0 0 0)
(-1.99505e-07 -4.75129e-06 0 1.27326e-09 2.51952e-08 0 0 0 0)
(2.29999e-07 5.87787e-06 0 1.12757e-10 -7.72651e-09 0 0 0 0)
(-4.83185e-08 -1.39373e-06 0 5.58364e-11 1.87344e-09 0 0 0 0)
(2.11085e-08 3.30502e-07 0 2.5289e-11 -5.42826e-10 0 0 0 0)
(-4.50462e-09 -7.83666e-08 0 -7.18284e-12 1.4261e-10 0 0 0 0)
(1.56044e-09 1.85839e-08 0 4.39102e-12 -3.98661e-11 0 0 0 0)
(-4.38695e-10 -4.40648e-09 0 -5.69206e-13 8.52346e-12 0 0 0 0)
(1.19994e-10 1.04539e-09 0 1.11131e-12 -4.75419e-12 0 0 0 0)
(-3.49655e-11 -2.47781e-10 0 3.25261e-13 -9.82088e-13 0 0 0 0)
(1.15196e-11 5.86965e-11 0 3.52366e-13 -1.71123e-12 0 0 0 0)
(-1.70762e-12 -1.41569e-11 0 1.6263e-13 -1.20875e-12 0 0 0 0)
(1.92446e-12 3.03251e-12 0 1.35525e-13 -1.05387e-12 0 0 0 0)
(6.23416e-13 -1.15342e-12 0 1.35525e-13 -8.40293e-13 0 0 0 0)
(7.04731e-13 -2.68016e-13 0 0 -6.63962e-13 0 0 0 0)
(5.42101e-13 -4.80218e-13 0 8.13152e-14 -5.05132e-13 0 0 0 0)
(3.52366e-13 -3.02434e-13 0 8.13152e-14 -3.75336e-13 0 0 0 0)
(2.1684e-13 -1.88992e-13 0 2.71051e-14 -2.67868e-13 0 0 0 0)
(2.1684e-13 -4.82466e-13 0 0 -1.8828e-13 0 0 0 0)
(1.6263e-13 -9.63929e-13 0 5.42101e-14 -1.20156e-13 0 0 0 0)
(-2.71051e-14 -2.57304e-13 0 -8.13152e-14 -2.75699e-14 0 0 0 0)
(1.97766e-07 4.76031e-06 0 1.42103e-08 -2.63136e-08 0 0 0 0)
(-2.27928e-07 -5.88988e-06 0 -3.32099e-09 8.02602e-09 0 0 0 0)
(4.77883e-08 1.39742e-06 0 1.34192e-09 -1.94458e-09 0 0 0 0)
(-2.09097e-08 -3.31389e-07 0 -3.17373e-10 5.59101e-10 0 0 0 0)
(4.46445e-09 7.86256e-08 0 1.13462e-10 -1.50339e-10 0 0 0 0)
(-1.54108e-09 -1.86509e-08 0 -3.10624e-11 3.69977e-11 0 0 0 0)
(4.3856e-10 4.42539e-09 0 1.01644e-11 -1.28515e-11 0 0 0 0)
(-1.15224e-10 -1.04965e-09 0 -1.95156e-12 1.0428e-12 0 0 0 0)
(3.792e-11 2.49467e-10 0 1.5992e-12 -2.38865e-12 0 0 0 0)
(-8.61941e-12 -5.90294e-11 0 3.52366e-13 -1.15619e-12 0 0 0 0)
(4.01155e-12 1.40471e-11 0 5.42101e-13 -1.2067e-12 0 0 0 0)
(1.35525e-13 -3.42121e-12 0 3.25261e-13 -9.3495e-13 0 0 0 0)
(9.75782e-13 5.93796e-13 0 1.6263e-13 -7.95734e-13 0 0 0 0)
(5.42101e-13 -4.65124e-13 0 1.35525e-13 -6.23215e-13 0 0 0 0)
(5.14996e-13 -2.2735e-13 0 8.13152e-14 -4.76377e-13 0 0 0 0)
(3.25261e-13 -1.8948e-13 0 0 -3.56108e-13 0 0 0 0)
(2.1684e-13 -8.88889e-14 0 0 -2.56011e-13 0 0 0 0)
(2.1684e-13 -4.20264e-13 0 8.13152e-14 -1.8032e-13 0 0 0 0)
(5.42101e-14 -8.92174e-13 0 0 -1.08381e-13 0 0 0 0)
(8.13152e-14 -1.86278e-13 0 5.42101e-14 -2.41653e-14 0 0 0 0)
(-1.88616e-07 -4.76958e-06 0 -2.96206e-08 2.63594e-08 0 0 0 0)
(2.1713e-07 5.90224e-06 0 6.49391e-09 -7.95058e-09 0 0 0 0)
(-4.53149e-08 -1.4012e-06 0 -2.73346e-09 1.92565e-09 0 0 0 0)
(1.988e-08 3.32296e-07 0 6.08048e-10 -5.50979e-10 0 0 0 0)
(-4.21833e-09 -7.88887e-08 0 -2.16244e-10 1.42894e-10 0 0 0 0)
(1.45717e-09 1.87214e-08 0 6.13116e-11 -4.02548e-11 0 0 0 0)
(-4.09666e-10 -4.44243e-09 0 -1.5748e-11 8.42061e-12 0 0 0 0)
(1.11429e-10 1.05585e-09 0 6.34258e-12 -4.49826e-12 0 0 0 0)
(-3.26345e-11 -2.4998e-10 0 -5.96311e-13 -7.2416e-13 0 0 0 0)
(1.04626e-11 5.98785e-11 0 1.11131e-12 -1.4036e-12 0 0 0 0)
(-1.73472e-12 -1.39357e-11 0 4.06576e-13 -9.25746e-13 0 0 0 0)
(1.57209e-12 3.44347e-12 0 4.33681e-13 -8.25589e-13 0 0 0 0)
(4.33681e-13 -8.41687e-13 0 2.1684e-13 -6.43671e-13 0 0 0 0)
(6.23416e-13 5.13409e-14 0 1.35525e-13 -5.26941e-13 0 0 0 0)
(4.06576e-13 -2.13111e-13 0 5.42101e-14 -4.0902e-13 0 0 0 0)
(2.98156e-13 -8.20687e-14 0 0 -3.32779e-13 0 0 0 0)
(2.43945e-13 -1.32041e-14 0 -2.71051e-14 -2.6167e-13 0 0 0 0)
(2.1684e-13 -3.34835e-13 0 0 -2.03608e-13 0 0 0 0)
(1.0842e-13 -8.07775e-13 0 0 -1.12905e-13 0 0 0 0)
(-2.71051e-14 -1.24759e-13 0 5.42101e-14 -1.42923e-14 0 0 0 0)
(1.74639e-07 4.77871e-06 0 4.35143e-08 -2.52626e-08 0 0 0 0)
(-2.01041e-07 -5.91432e-06 0 -9.33785e-09 7.5682e-09 0 0 0 0)
(4.19025e-08 1.40482e-06 0 3.97214e-09 -1.84172e-09 0 0 0 0)
(-1.83925e-08 -3.33172e-07 0 -8.69015e-10 5.14737e-10 0 0 0 0)
(3.91771e-09 7.91363e-08 0 3.06802e-10 -1.41517e-10 0 0 0 0)
(-1.34064e-09 -1.87854e-08 0 -8.40799e-11 3.28889e-11 0 0 0 0)
(3.83618e-10 4.46115e-09 0 2.47469e-11 -1.21371e-11 0 0 0 0)
(-9.99905e-11 -1.0588e-09 0 -5.93601e-12 9.36601e-13 0 0 0 0)
(3.27429e-11 2.52562e-10 0 3.06287e-12 -1.97141e-12 0 0 0 0)
(-7.69784e-12 -5.9231e-11 0 2.71051e-13 -8.06353e-13 0 0 0 0)
(3.33392e-12 1.46251e-11 0 8.40257e-13 -8.58186e-13 0 0 0 0)
(-8.13152e-14 -3.13913e-12 0 3.52366e-13 -6.47073e-13 0 0 0 0)
(7.04731e-13 8.92444e-13 0 3.52366e-13 -5.41486e-13 0 0 0 0)
(4.06576e-13 -2.30473e-13 0 1.6263e-13 -4.51758e-13 0 0 0 0)
(3.52366e-13 -3.31888e-14 0 5.42101e-14 -3.649e-13 0 0 0 0)
(2.71051e-13 -4.21296e-14 0 8.13152e-14 -2.96368e-13 0 0 0 0)
(2.1684e-13 4.0282e-14 0 0 -2.54602e-13 0 0 0 0)
(2.71051e-13 -2.71499e-13 0 0 -2.31679e-13 0 0 0 0)
(1.0842e-13 -7.02858e-13 0 5.42101e-14 -1.25582e-13 0 0 0 0)
(-2.71051e-14 -5.90814e-14 0 0 1.47885e-14 0 0 0 0)
(-1.54439e-07 -4.78727e-06 0 -5.68914e-08 2.31685e-08 0 0 0 0)
(1.77588e-07 5.92566e-06 0 1.20694e-08 -6.85105e-09 0 0 0 0)
(-3.68461e-08 -1.40825e-06 0 -5.17937e-09 1.6475e-09 0 0 0 0)
(1.62147e-08 3.33997e-07 0 1.12177e-09 -4.67324e-10 0 0 0 0)
(-3.43337e-09 -7.93706e-08 0 -3.93294e-10 1.14937e-10 0 0 0 0)
(1.17511e-09 1.88508e-08 0 1.12296e-10 -3.45735e-11 0 0 0 0)
(-3.31522e-10 -4.47438e-09 0 -2.77827e-11 6.1667e-12 0 0 0 0)
(8.97448e-11 1.06602e-09 0 1.12215e-11 -3.59805e-12 0 0 0 0)
(-2.64545e-11 -2.51723e-10 0 -1.11131e-12 -4.36075e-13 0 0 0 0)
(8.21283e-12 6.09917e-11 0 1.81604e-12 -9.02101e-13 0 0 0 0)
(-1.5992e-12 -1.37764e-11 0 6.23416e-13 -5.71588e-13 0 0 0 0)
(1.11131e-12 3.76017e-12 0 6.23416e-13 -5.00759e-13 0 0 0 0)
(1.6263e-13 -6.46373e-13 0 4.06576e-13 -4.3631e-13 0 0 0 0)
(3.52366e-13 2.27928e-13 0 3.25261e-13 -3.63671e-13 0 0 0 0)
(3.25261e-13 -5.77208e-14 0 2.1684e-13 -3.20948e-13 0 0 0 0)
(2.71051e-13 2.8229e-14 0 1.89735e-13 -2.73072e-13 0 0 0 0)
(2.1684e-13 5.14851e-14 0 1.6263e-13 -2.46146e-13 0 0 0 0)
(2.1684e-13 -2.05815e-13 0 1.0842e-13 -2.17522e-13 0 0 0 0)
(8.13152e-14 -5.61307e-13 0 8.13152e-14 -9.84996e-14 0 0 0 0)
(-8.13152e-14 -1.39651e-14 0 0 4.84962e-14 0 0 0 0)
(1.29817e-07 4.79503e-06 0 6.65282e-08 -1.99419e-08 0 0 0 0)
(-1.49329e-07 -5.93584e-06 0 -1.4023e-08 5.79547e-09 0 0 0 0)
(3.09549e-08 1.4112e-06 0 6.03819e-09 -1.48385e-09 0 0 0 0)
(-1.36065e-08 -3.34704e-07 0 -1.29671e-09 3.80959e-10 0 0 0 0)
(2.90829e-09 7.95691e-08 0 4.56801e-10 -1.16018e-10 0 0 0 0)
(-9.75131e-10 -1.88942e-08 0 -1.20834e-10 2.60345e-11 0 0 0 0)
(2.82489e-10 4.49212e-09 0 3.71881e-11 -9.49188e-12 0 0 0 0)
(-7.3265e-11 -1.0654e-09 0 -7.99599e-12 1.49251e-12 0 0 0 0)
(2.33103e-11 2.55258e-10 0 4.44523e-12 -1.12078e-12 0 0 0 0)
(-5.9089e-12 -5.93665e-11 0 3.52366e-13 -2.24152e-13 0 0 0 0)
(2.08709e-12 1.50264e-11 0 9.21572e-13 -3.91305e-13 0 0 0 0)
(-3.25261e-13 -3.00385e-12 0 4.87891e-13 -2.87466e-13 0 0 0 0)
(4.06576e-13 1.02953e-12 0 4.06576e-13 -2.86927e-13 0 0 0 0)
(1.35525e-13 -1.1511e-13 0 2.1684e-13 -2.43251e-13 0 0 0 0)
(3.25261e-13 5.74107e-14 0 1.6263e-13 -2.26561e-13 0 0 0 0)
(1.6263e-13 3.26719e-14 0 8.13152e-14 -1.93561e-13 0 0 0 0)
(1.35525e-13 9.58313e-14 0 5.42101e-14 -1.84213e-13 0 0 0 0)
(1.89735e-13 -1.23852e-13 0 0 -1.71845e-13 0 0 0 0)
(2.71051e-14 -4.3684e-13 0 -5.42101e-14 -7.82788e-14 0 0 0 0)
(-8.13152e-14 -9.07795e-15 0 0 5.13501e-14 0 0 0 0)
(-1.01934e-07 -4.80142e-06 0 -7.38169e-08 1.64038e-08 0 0 0 0)
(1.17098e-07 5.94412e-06 0 1.52902e-08 -4.7909e-09 0 0 0 0)
(-2.41197e-08 -1.41367e-06 0 -6.70579e-09 1.01819e-09 0 0 0 0)
(1.06334e-08 3.35364e-07 0 1.49956e-09 -2.32398e-10 0 0 0 0)
(-2.2575e-09 -7.97255e-08 0 -4.96727e-10 5.02014e-11 0 0 0 0)
(7.55472e-10 1.89573e-08 0 1.54743e-10 -7.64359e-12 0 0 0 0)
(-2.18656e-10 -4.49893e-09 0 -3.63479e-11 1.41524e-12 0 0 0 0)
(5.69748e-11 1.07439e-09 0 1.52873e-11 5.5692e-13 0 0 0 0)
(-1.81062e-11 -2.5344e-10 0 -1.89735e-12 1.7334e-13 0 0 0 0)
(4.71628e-12 6.17212e-11 0 2.1684e-12 2.10617e-13 0 0 0 0)
(-1.49078e-12 -1.38397e-11 0 3.52366e-13 -4.86451e-15 0 0 0 0)
(5.69206e-13 3.86455e-12 0 5.42101e-13 -8.69681e-14 0 0 0 0)
(0 -6.02157e-13 0 2.71051e-13 -1.41533e-13 0 0 0 0)
(1.35525e-13 2.88294e-13 0 1.89735e-13 -1.58249e-13 0 0 0 0)
(1.35525e-13 -8.03142e-15 0 1.35525e-13 -1.51167e-13 0 0 0 0)
(1.35525e-13 7.05772e-14 0 5.42101e-14 -1.31763e-13 0 0 0 0)
(5.42101e-14 7.32011e-14 0 -5.42101e-14 -1.44141e-13 0 0 0 0)
(1.6263e-13 -9.98814e-14 0 0 -1.56384e-13 0 0 0 0)
(1.0842e-13 -3.38112e-13 0 -2.71051e-14 -8.02078e-14 0 0 0 0)
(-5.42101e-14 1.29636e-14 0 0 4.10508e-14 0 0 0 0)
(7.12907e-08 4.80664e-06 0 7.99755e-08 -1.35132e-08 0 0 0 0)
(-8.22175e-08 -5.95123e-06 0 -1.24919e-08 6.18767e-09 0 0 0 0)
(1.71642e-08 1.41576e-06 0 5.29701e-09 -1.70494e-09 0 0 0 0)
(-7.39746e-09 -3.35672e-07 0 -7.00015e-10 5.67663e-10 0 0 0 0)
(1.56339e-09 7.97938e-08 0 2.366e-10 -1.6919e-10 0 0 0 0)
(-5.14698e-10 -1.8943e-08 0 -4.65123e-11 5.39747e-11 0 0 0 0)
(1.4306e-10 4.50032e-09 0 1.18991e-11 -1.24407e-11 0 0 0 0)
(-3.88415e-11 -1.06664e-09 0 -3.25261e-13 6.0155e-12 0 0 0 0)
(1.02186e-11 2.54911e-10 0 1.68051e-12 -2.19487e-13 0 0 0 0)
(-3.65918e-12 -5.95447e-11 0 7.31836e-13 9.21278e-13 0 0 0 0)
(4.06576e-13 1.47288e-11 0 5.42101e-13 1.74499e-13 0 0 0 0)
(-4.06576e-13 -3.14052e-12 0 2.71051e-13 9.0074e-14 0 0 0 0)
(5.42101e-14 9.58251e-13 0 1.35525e-13 -7.09885e-14 0 0 0 0)
(5.42101e-14 -1.24745e-13 0 1.35525e-13 -1.11768e-13 0 0 0 0)
(1.35525e-13 8.38963e-14 0 0 -1.29742e-13 0 0 0 0)
(2.71051e-14 3.96975e-14 0 0 -1.41096e-13 0 0 0 0)
(8.13152e-14 7.12103e-14 0 5.42101e-14 -1.66982e-13 0 0 0 0)
(2.1684e-13 -5.99184e-14 0 8.13152e-14 -1.77713e-13 0 0 0 0)
(2.71051e-14 -2.39404e-13 0 1.0842e-13 -6.92885e-14 0 0 0 0)
(-5.42101e-14 3.00791e-14 0 0 7.30002e-14 0 0 0 0)
(-3.44504e-08 -4.80875e-06 0 -4.15986e-08 6.12263e-09 0 0 0 0)
(4.24192e-08 5.95593e-06 0 4.75832e-09 -4.02116e-09 0 0 0 0)
(-1.23279e-08 -1.41929e-06 0 -1.80037e-09 1.42215e-09 0 0 0 0)
(5.57293e-09 3.369e-07 0 -7.80355e-11 -4.9538e-10 0 0 0 0)
(-1.60402e-09 -8.02392e-08 0 2.41235e-11 1.9412e-10 0 0 0 0)
(5.30825e-10 1.9114e-08 0 -3.74321e-11 -5.0025e-11 0 0 0 0)
(-1.72524e-10 -4.54689e-09 0 8.0502e-12 2.30503e-11 0 0 0 0)
(4.67562e-11 1.08661e-09 0 -8.0231e-12 -3.46134e-12 0 0 0 0)
(-1.71033e-11 -2.58534e-10 0 1.35525e-13 3.08218e-12 0 0 0 0)
(3.60497e-12 6.21152e-11 0 -1.16552e-12 1.6159e-13 0 0 0 0)
(-1.87025e-12 -1.46709e-11 0 2.1684e-13 5.11721e-13 0 0 0 0)
(1.89735e-13 3.61906e-12 0 2.98156e-13 1.03652e-13 0 0 0 0)
(-1.89735e-13 -8.03999e-13 0 4.33681e-13 3.31831e-14 0 0 0 0)
(-2.71051e-14 2.2954e-13 0 4.33681e-13 -5.06003e-14 0 0 0 0)
(8.13152e-14 -3.73594e-14 0 4.06576e-13 -7.16119e-14 0 0 0 0)
(8.13152e-14 3.3338e-14 0 2.98156e-13 -9.71372e-14 0 0 0 0)
(1.89735e-13 3.65841e-14 0 2.1684e-13 -1.44647e-13 0 0 0 0)
(1.89735e-13 -2.1884e-15 0 0 -2.04932e-13 0 0 0 0)
(5.42101e-14 -8.73987e-14 0 -1.6263e-13 -8.25406e-14 0 0 0 0)
(-1.6263e-13 9.25191e-15 0 -5.42101e-14 1.21872e-13 0 0 0 0)
)
;

boundaryField
{
    movingWall
    {
        type            extrapolatedCalculated;
        value           nonuniform List<tensor> 
20
(
(-3.44504e-08 -4.80875e-06 0 1.94295e-07 2.52524e-05 0 0 0 0)
(4.24192e-08 5.95593e-06 0 -5.64934e-08 -6.01738e-06 0 0 0 0)
(-1.23279e-08 -1.41929e-06 0 2.4618e-08 1.42867e-06 0 0 0 0)
(5.57293e-09 3.369e-07 0 -7.18194e-09 -3.40241e-07 0 0 0 0)
(-1.60402e-09 -8.02392e-08 0 2.32623e-09 8.10664e-08 0 0 0 0)
(5.30825e-10 1.9114e-08 0 -7.65832e-10 -1.92838e-08 0 0 0 0)
(-1.72524e-10 -4.54689e-09 0 2.02949e-10 4.61031e-09 0 0 0 0)
(4.67562e-11 1.08661e-09 0 -7.5806e-11 -1.09625e-09 0 0 0 0)
(-1.71033e-11 -2.58534e-10 0 1.58984e-11 2.63877e-10 0 0 0 0)
(3.60497e-12 6.21152e-11 0 -7.41629e-12 -6.21127e-11 0 0 0 0)
(-1.87025e-12 -1.46709e-11 0 1.59872e-12 1.54164e-11 0 0 0 0)
(1.89735e-13 3.61906e-12 0 0 -3.42906e-12 0 0 0 0)
(-1.89735e-13 -8.03999e-13 0 8.88178e-13 9.40131e-13 0 0 0 0)
(-2.71051e-14 2.2954e-13 0 7.99361e-13 -2.13062e-13 0 0 0 0)
(8.13152e-14 -3.73594e-14 0 8.88178e-13 2.19717e-14 0 0 0 0)
(8.13152e-14 3.3338e-14 0 6.21725e-13 -6.36239e-14 0 0 0 0)
(1.89735e-13 3.65841e-14 0 4.44089e-13 -1.1138e-13 0 0 0 0)
(1.89735e-13 -2.1884e-15 0 0 -2.0996e-13 0 0 0 0)
(5.42101e-14 -8.73987e-14 0 -4.44089e-13 -1.02627e-13 0 0 0 0)
(-1.6263e-13 9.25191e-15 0 -1.77636e-13 1.39634e-13 0 0 0 0)
)
;
    }
    fixedWalls
    {
        type            extrapolatedCalculated;
        value           nonuniform List<tensor> 
60
(
(-1.13217e-08 2.4783e-05 0 -2.04746e-08 1.70357e-09 0 0 0 0)
(-7.05769e-08 -2.47762e-05 0 3.26206e-08 -7.86312e-09 0 0 0 0)
(1.19161e-07 2.47516e-05 0 -4.32528e-08 9.67897e-09 0 0 0 0)
(-2.43588e-07 -2.47375e-05 0 6.36612e-08 -6.14981e-09 0 0 0 0)
(3.73805e-07 2.4727e-05 0 -6.83541e-08 2.60434e-09 0 0 0 0)
(-5.17005e-07 -2.47271e-05 0 6.92955e-08 2.17916e-09 0 0 0 0)
(6.50987e-07 2.47357e-05 0 -6.33185e-08 -7.01056e-09 0 0 0 0)
(-7.70279e-07 -2.47551e-05 0 5.53914e-08 1.18772e-08 0 0 0 0)
(8.72553e-07 2.47832e-05 0 -4.3784e-08 -1.62222e-08 0 0 0 0)
(-9.45415e-07 -2.482e-05 0 3.10898e-08 2.00397e-08 0 0 0 0)
(9.96912e-07 2.48634e-05 0 -1.64485e-08 -2.30555e-08 0 0 0 0)
(-1.01121e-06 -2.49122e-05 0 1.27326e-09 2.51952e-08 0 0 0 0)
(1.00201e-06 2.49642e-05 0 1.42103e-08 -2.63136e-08 0 0 0 0)
(-9.54367e-07 -2.50175e-05 0 -2.96206e-08 2.63594e-08 0 0 0 0)
(8.83523e-07 2.50696e-05 0 4.35143e-08 -2.52626e-08 0 0 0 0)
(-7.8031e-07 -2.51186e-05 0 -5.68914e-08 2.31685e-08 0 0 0 0)
(6.55957e-07 2.51623e-05 0 6.65282e-08 -1.99419e-08 0 0 0 0)
(-5.14197e-07 -2.51983e-05 0 -7.38169e-08 1.64038e-08 0 0 0 0)
(3.60689e-07 2.52279e-05 0 7.99755e-08 -1.35132e-08 0 0 0 0)
(-1.94295e-07 -2.52524e-05 0 -4.15986e-08 6.12263e-09 0 0 0 0)
(0 -1.86624e-14 0 0 5.66747e-15 0 0 0 0)
(8.88178e-14 -4.00748e-15 0 -5.42101e-14 -1.03155e-14 0 0 0 0)
(8.88178e-14 2.25995e-14 0 0 -2.92899e-15 0 0 0 0)
(8.88178e-14 7.70847e-15 0 5.42101e-14 -6.76848e-16 0 0 0 0)
(-1.33227e-13 2.53068e-14 0 5.42101e-14 -1.62052e-14 0 0 0 0)
(-4.44089e-14 7.25294e-14 0 -5.42101e-14 -2.69168e-14 0 0 0 0)
(8.88178e-14 1.32974e-13 0 -5.42101e-14 -3.8217e-14 0 0 0 0)
(0 2.25397e-13 0 5.42101e-14 -5.5855e-14 0 0 0 0)
(0 3.56394e-13 0 0 -5.99923e-14 0 0 0 0)
(0 4.65367e-13 0 0 -4.55492e-14 0 0 0 0)
(0 5.38591e-13 0 2.71051e-14 -3.35405e-14 0 0 0 0)
(-4.44089e-14 5.99529e-13 0 -8.13152e-14 -2.75699e-14 0 0 0 0)
(1.77636e-13 6.4887e-13 0 5.42101e-14 -2.41653e-14 0 0 0 0)
(-8.88178e-14 6.9619e-13 0 5.42101e-14 -1.42923e-14 0 0 0 0)
(-4.44089e-14 7.0604e-13 0 0 1.47885e-14 0 0 0 0)
(-1.33227e-13 6.37036e-13 0 0 4.84962e-14 0 0 0 0)
(-1.33227e-13 5.12055e-13 0 0 5.13501e-14 0 0 0 0)
(-1.33227e-13 4.31635e-13 0 0 4.10508e-14 0 0 0 0)
(-8.88178e-14 3.47852e-13 0 0 7.30002e-14 0 0 0 0)
(-1.77636e-13 1.39634e-13 0 -5.42101e-14 1.21872e-13 0 0 0 0)
(1.82718e-09 4.72619e-06 0 -1.13217e-08 2.4783e-05 0 0 0 0)
(8.97828e-10 -5.8468e-06 0 1.86304e-08 -5.87826e-06 0 0 0 0)
(-3.6575e-09 1.38683e-06 0 -7.73044e-09 1.39585e-06 0 0 0 0)
(1.71141e-09 -3.29291e-07 0 4.0004e-09 -3.30961e-07 0 0 0 0)
(-8.53972e-10 7.80884e-08 0 -8.84803e-10 7.86887e-08 0 0 0 0)
(2.18711e-10 -1.85583e-08 0 5.84599e-10 -1.86078e-08 0 0 0 0)
(-1.17256e-10 4.39304e-09 0 -9.9476e-12 4.45528e-09 0 0 0 0)
(1.23599e-11 -1.04895e-09 0 1.15552e-10 -1.0356e-09 0 0 0 0)
(-1.90549e-11 2.45716e-10 0 3.94351e-11 2.59495e-10 0 0 0 0)
(-3.84892e-12 -6.02321e-11 0 3.93463e-11 -5.27365e-11 0 0 0 0)
(-5.31259e-12 1.31432e-11 0 2.40696e-11 1.85668e-11 0 0 0 0)
(-2.95445e-12 -3.86785e-12 0 1.80744e-11 -1.6361e-13 0 0 0 0)
(-2.35814e-12 4.18434e-13 0 1.23013e-11 3.0954e-12 0 0 0 0)
(-1.68051e-12 -4.58571e-13 0 8.61533e-12 1.51013e-12 0 0 0 0)
(-1.19262e-12 -1.56813e-13 0 5.63993e-12 1.26111e-12 0 0 0 0)
(-8.40257e-13 -1.45453e-13 0 3.77476e-12 8.82876e-13 0 0 0 0)