/*--------------------------------*- C++ -*----------------------------------*\
| =========                 |                                                 |
| \\      /  F ield         | OpenFOAM: The Open Source CFD Toolbox           |
|  \\    /   O peration     | Version:  2312                                  |
|   \\  /    A nd           | Website:  www.openfoam.com                      |
|    \\/     M anipulation  |                                                 |
\*---------------------------------------------------------------------------*/
FoamFile
{
    version     2.0;
    format      ascii;
    arch        "LSB;label=32;scalar=64";
    class       volScalarField;
    location    "4";
    object      initialResidual:k;
}
// * * * * * * * * * * * * * * * * * * * * * * * * * * * * * * * * * * * * * //

dimensions      [0 0 0 0 0 0 0];

internalField   nonuniform List<scalar> 
400
(
-5.00083e-12
-5.00274e-12
-5.00392e-12
-5.00082e-12
-5.00535e-12
-5.0001e-12
-5.00474e-12
-5.00055e-12
-5.00318e-12
-5.00112e-12
-5.00357e-12
-5.00167e-12
-5.00174e-12
-5.00219e-12
-5.00219e-12
-5.00221e-12
-5.00224e-12
-5.00219e-12
-5.0021e-12
-5.00207e-12
-7.42361e-12
-7.39003e-12
-7.44394e-12
-7.41508e-12
-7.41997e-12
-7.41271e-12
-7.41907e-12
-7.40402e-12
-7.41205e-12
-7.4089e-12
-7.41263e-12
-7.39686e-12
-7.41176e-12
-7.39811e-12
-7.4043e-12
-7.40269e-12
-7.4022e-12
-7.40095e-12
-7.40231e-12
-7.40113e-12
-1.04599e-11
-1.03804e-11
-1.04941e-11
-1.04481e-11
-1.04516e-11
-1.04325e-11
-1.04481e-11
-1.0417e-11
-1.04306e-11
-1.04263e-11
-1.04298e-11
-1.04197e-11
-1.04322e-11
-1.04124e-11
-1.04229e-11
-1.04165e-11
-1.0418e-11
-1.04152e-11
-1.04175e-11
-1.04158e-11
-1.27463e-11
-1.2887e-11
-1.26486e-11
-1.28128e-11
-1.26769e-11
-1.27901e-11
-1.26879e-11
-1.27258e-11
-1.2725e-11
-1.27126e-11
-1.27297e-11
-1.27111e-11
-1.27244e-11
-1.27038e-11
-1.27166e-11
-1.2704e-11
-1.27146e-11
-1.2708e-11
-1.27086e-11
-1.2707e-11
-1.41878e-11
-1.41471e-11
-1.42001e-11
-1.41654e-11
-1.41757e-11
-1.41501e-11
-1.41713e-11
-1.41301e-11
-1.41534e-11
-1.41314e-11
-1.41401e-11
-1.41332e-11
-1.41374e-11
-1.41296e-11
-1.41317e-11
-1.41106e-11
-1.41281e-11
-1.41207e-11
-1.41235e-11
-1.41207e-11
-1.49724e-11
-1.51328e-11
-1.48592e-11
-1.50405e-11
-1.48995e-11
-1.49797e-11
-1.49294e-11
-1.49448e-11
-1.49449e-11
-1.4928e-11
-1.49468e-11
-1.49199e-11
-1.49374e-11
-1.49156e-11
-1.49305e-11
-1.49139e-11
-1.49265e-11
-1.49184e-11
-1.49188e-11
-1.49172e-11
-1.54435e-11
-1.53871e-11
-1.54594e-11
-1.54346e-11
-1.54114e-11
-1.54142e-11
-1.54119e-11
-1.53794e-11
-1.54145e-11
-1.53672e-11
-1.53893e-11
-1.53746e-11
-1.53798e-11
-1.5373e-11
-1.538e-11
-1.53581e-11
-1.53739e-11
-1.53636e-11
-1.53679e-11
-1.53647e-11
-1.57e-11
-1.58693e-11
-1.55849e-11
-1.56827e-11
-1.56887e-11
-1.56824e-11
-1.56784e-11
-1.56802e-11
-1.56595e-11
-1.56604e-11
-1.56557e-11
-1.56508e-11
-1.56496e-11
-1.56462e-11
-1.56424e-11
-1.56405e-11
-1.56391e-11
-1.56381e-11
-1.56373e-11
-1.56369e-11
-1.59051e-11
-1.59049e-11
-1.59003e-11
-1.58725e-11
-1.58967e-11
-1.58652e-11
-1.58892e-11
-1.58456e-11
-1.58731e-11
-1.58392e-11
-1.58533e-11
-1.58423e-11
-1.58459e-11
-1.58346e-11
-1.58458e-11
-1.58319e-11
-1.58292e-11
-1.58258e-11
-1.58302e-11
-1.58284e-11
-1.60516e-11
-1.62526e-11
-1.59147e-11
-1.60576e-11
-1.60214e-11
-1.60274e-11
-1.60336e-11
-1.60246e-11
-1.60172e-11
-1.60149e-11
-1.60041e-11
-1.60108e-11
-1.59928e-11
-1.59957e-11
-1.5993e-11
-1.59892e-11
-1.59908e-11
-1.59884e-11
-1.59879e-11
-1.59872e-11
-1.62019e-11
-1.639e-11
-1.6073e-11
-1.62202e-11
-1.61674e-11
-1.61731e-11
-1.61959e-11
-1.61497e-11
-1.61843e-11
-1.61479e-11
-1.61683e-11
-1.61435e-11
-1.61573e-11
-1.61395e-11
-1.61518e-11
-1.61355e-11
-1.6147e-11
-1.61398e-11
-1.61419e-11
-1.61377e-11
-1.63701e-11
-1.64468e-11
-1.63107e-11
-1.64072e-11
-1.62926e-11
-1.64127e-11
-1.62695e-11
-1.63515e-11
-1.63033e-11
-1.6327e-11
-1.631e-11
-1.6343e-11
-1.62795e-11
-1.63089e-11
-1.62914e-11
-1.62888e-11
-1.63e-11
-1.6294e-11
-1.62955e-11
-1.62936e-11
-1.65475e-11
-1.65339e-11
-1.65506e-11
-1.65141e-11
-1.65351e-11
-1.65043e-11
-1.6528e-11
-1.64808e-11
-1.65091e-11
-1.64762e-11
-1.6491e-11
-1.6477e-11
-1.64853e-11
-1.6468e-11
-1.64816e-11
-1.64542e-11
-1.64714e-11
-1.6465e-11
-1.64677e-11
-1.64636e-11
-1.67142e-11
-1.69699e-11
-1.65461e-11
-1.67661e-11
-1.66589e-11
-1.67276e-11
-1.66911e-11
-1.66587e-11
-1.67025e-11
-1.66674e-11
-1.66865e-11
-1.66622e-11
-1.66768e-11
-1.66556e-11
-1.66701e-11
-1.6652e-11
-1.66639e-11
-1.66572e-11
-1.66592e-11
-1.66546e-11
-1.69494e-11
-1.70842e-11
-1.68466e-11
-1.70218e-11
-1.68558e-11
-1.69731e-11
-1.68686e-11
-1.69508e-11
-1.68749e-11
-1.6902e-11
-1.68953e-11
-1.68745e-11
-1.68991e-11
-1.68718e-11
-1.68903e-11
-1.68717e-11
-1.68837e-11
-1.68755e-11
-1.68756e-11
-1.68739e-11
-1.71911e-11
-1.74821e-11
-1.69955e-11
-1.72717e-11
-1.71064e-11
-1.72279e-11
-1.71321e-11
-1.72049e-11
-1.71455e-11
-1.71309e-11
-1.71716e-11
-1.71323e-11
-1.71535e-11
-1.7131e-11
-1.7146e-11
-1.71266e-11
-1.71409e-11
-1.71326e-11
-1.71342e-11
-1.71304e-11
-1.75056e-11
-1.77483e-11
-1.73418e-11
-1.7521e-11
-1.74677e-11
-1.74997e-11
-1.74702e-11
-1.74722e-11
-1.74686e-11
-1.74749e-11
-1.74458e-11
-1.74608e-11
-1.74364e-11
-1.74464e-11
-1.74355e-11
-1.74388e-11
-1.7434e-11
-1.74344e-11
-1.74332e-11
-1.74329e-11
-1.78489e-11
-1.81087e-11
-1.76713e-11
-1.78735e-11
-1.77994e-11
-1.78809e-11
-1.77767e-11
-1.78599e-11
-1.77692e-11
-1.78291e-11
-1.7774e-11
-1.7808e-11
-1.77765e-11
-1.77937e-11
-1.77766e-11
-1.77724e-11
-1.77827e-11
-1.77763e-11
-1.7777e-11
-1.77751e-11
-1.81655e-11
-1.83829e-11
-1.8063e-11
-1.81697e-11
-1.81704e-11
-1.81565e-11
-1.81669e-11
-1.81334e-11
-1.81572e-11
-1.8117e-11
-1.8142e-11
-1.81124e-11
-1.81284e-11
-1.81108e-11
-1.81206e-11
-1.81051e-11
-1.8113e-11
-1.81065e-11
-1.81061e-11
-1.81051e-11
-1.83143e-11
-1.8322e-11
-1.8318e-11
-1.83179e-11
-1.83189e-11
-1.83164e-11
-1.83313e-11
-1.83064e-11
-1.83311e-11
-1.83041e-11
-1.83312e-11
-1.83025e-11
-1.83319e-11
-1.83057e-11
-1.83262e-11
-1.83124e-11
-1.83197e-11
-1.83172e-11
-1.83177e-11
-1.83177e-11
)
;

boundaryField
{
    movingWall
    {
        type            zeroGradient;
    }
    fixedWalls
    {
        type            zeroGradient;
    }
    frontAndBack
    {
        type            empty;
    }
}


// ************************************************************************* //
