/*--------------------------------*- C++ -*----------------------------------*\
| =========                 |                                                 |
| \\      /  F ield         | OpenFOAM: The Open Source CFD Toolbox           |
|  \\    /   O peration     | Version:  2312                                  |
|   \\  /    A nd           | Website:  www.openfoam.com                      |
|    \\/     M anipulation  |                                                 |
\*---------------------------------------------------------------------------*/
FoamFile
{
    version     2.0;
    format      ascii;
    arch        "LSB;label=32;scalar=64";
    class       volScalarField;
    location    "4";
    object      initialResidual:p;
}
// * * * * * * * * * * * * * * * * * * * * * * * * * * * * * * * * * * * * * //

dimensions      [0 0 0 0 0 0 0];

internalField   nonuniform List<scalar> 
400
(
-5.29158e-17
4.89017e-17
-1.48742e-18
-1.07096e-19
7.95441e-19
2.81304e-19
2.89724e-19
7.26074e-20
-2.80056e-20
-9.30556e-20
-1.0897e-19
-1.22558e-19
-1.37492e-19
-1.24314e-19
-1.14122e-19
-8.03581e-20
-7.6561e-20
-4.91207e-20
-4.80182e-20
8.16386e-21
1.57762e-16
-2.09999e-16
3.8661e-17
-9.7312e-18
4.73269e-18
-4.97499e-19
5.49301e-19
-3.22921e-20
1.47129e-20
-7.87699e-20
-1.31052e-19
-1.2929e-19
-1.19224e-19
-1.24731e-19
-1.0382e-19
-1.11609e-19
-6.65296e-20
-5.18174e-20
-5.09918e-20
4.3171e-20
-2.90718e-16
3.71805e-16
-6.65775e-17
1.94445e-17
-6.38814e-18
2.0467e-18
-2.6249e-19
2.3308e-19
-5.00208e-20
-8.52134e-20
-1.32932e-19
-1.20582e-19
-1.19551e-19
-1.00921e-19
-1.13184e-19
-9.57646e-20
-7.39648e-20
-5.27566e-20
-3.44079e-20
1.4382e-20
3.78849e-16
-5.60132e-16
9.80909e-17
-2.85883e-17
1.09599e-17
-1.77451e-18
1.05526e-18
-1.48932e-19
5.16157e-20
-1.07619e-19
-1.05761e-19
-1.14202e-19
-1.17083e-19
-1.1565e-19
-1.20676e-19
-8.52098e-20
-6.03734e-20
-6.21931e-20
-6.3546e-20
2.27111e-20
-5.03928e-16
7.5288e-16
-1.30539e-16
4.14772e-17
-1.32024e-17
3.49655e-18
-7.66954e-19
3.82519e-19
-6.50482e-20
-3.64635e-20
-1.28848e-19
-1.0534e-19
-1.22327e-19
-1.19308e-19
-9.97799e-20
-1.10152e-19
-7.79164e-20
-5.41097e-20
-3.99105e-20
2.72643e-20
5.69148e-16
-9.37674e-16
1.59992e-16
-5.06466e-17
1.74322e-17
-3.08594e-18
1.57809e-18
-2.22537e-19
1.13122e-19
-7.97361e-20
-9.96826e-20
-1.16773e-19
-1.53892e-19
-9.45296e-20
-1.21141e-19
-8.51765e-20
-8.02017e-20
-5.93252e-20
-3.27548e-20
1.55204e-20
-6.70859e-16
1.1142e-15
-1.88941e-16
6.29275e-17
-1.95827e-17
4.7353e-18
-1.27948e-18
5.33197e-19
-1.01858e-19
-1.01777e-20
-9.6373e-20
-1.20388e-19
-9.80487e-20
-1.05981e-19
-1.30794e-19
-9.08876e-20
-9.2751e-20
-5.64399e-20
-3.0137e-20
1.97813e-20
7.0264e-16
-1.25572e-15
2.10706e-16
-6.92493e-17
2.27239e-17
-4.23265e-18
1.9614e-18
-3.37908e-19
1.32517e-19
-1.19877e-19
-7.00819e-20
-1.17272e-19
-1.16385e-19
-9.55524e-20
-1.03814e-19
-9.97465e-20
-8.75571e-20
-5.75327e-20
-3.3832e-20
1.48633e-20
-7.64094e-16
1.38006e-15
-2.3047e-16
7.82196e-17
-2.43451e-17
5.49361e-18
-1.69938e-18
5.80202e-19
-1.47314e-19
-3.51862e-20
-1.16399e-19
-8.06753e-20
-1.13575e-19
-8.32847e-20
-1.10194e-19
-8.23801e-20
-6.78694e-20
-5.6384e-20
-4.15113e-20
-1.47868e-20
7.5596e-16
-1.45183e-15
2.40526e-16
-8.01758e-17
2.56818e-17
-4.97534e-18
2.05546e-18
-4.70082e-19
1.14944e-19
-9.87188e-20
-5.54833e-20
-1.40794e-19
-1.10146e-19
-1.2953e-19
-1.07184e-19
-9.3369e-20
-6.02231e-20
-2.76928e-20
-4.07244e-20
-6.29229e-21
-7.64521e-16
1.50074e-15
-2.47794e-16
8.41092e-17
-2.66096e-17
5.5905e-18
-1.99234e-18
5.27779e-19
-1.88416e-19
-3.73963e-20
-1.2194e-19
-1.34632e-19
-8.69669e-20
-1.20248e-19
-1.06887e-19
-9.26218e-20
-5.88132e-20
-2.99342e-20
-7.17487e-21
-2.21505e-20
7.23524e-16
-1.48944e-15
2.44109e-16
-8.13892e-17
2.56979e-17
-5.24884e-18
1.901e-18
-5.72946e-19
5.41081e-20
-1.38642e-19
-1.16998e-19
-1.34647e-19
-1.06587e-19
-1.24713e-19
-1.02521e-19
-7.91696e-20
-6.84092e-20
-5.50203e-20
-3.53095e-20
-1.39267e-20
-6.79489e-16
1.4529e-15
-2.37882e-16
7.9715e-17
-2.59199e-17
5.01157e-18
-2.0917e-18
3.85022e-19
-2.65305e-19
-7.40605e-20
-1.17553e-19
-1.24966e-19
-1.32973e-19
-1.03998e-19
-1.01991e-19
-1.15384e-19
-5.41763e-20
-4.03058e-20
-3.5356e-20
-2.92721e-20
6.20326e-16
-1.35904e-15
2.20744e-16
-7.30056e-17
2.2837e-17
-4.98693e-18
1.4756e-18
-6.62968e-19
-2.69961e-20
-1.99614e-19
-1.27274e-19
-1.20036e-19
-1.35981e-19
-1.16525e-19
-7.882e-20
-8.80643e-20
-6.74417e-20
-7.64864e-20
-2.14441e-20
-2.82211e-20
-5.32911e-16
1.24093e-15
-2.01542e-16
6.61815e-17
-2.23752e-17
3.84649e-18
-1.97135e-18
1.60423e-19
-2.95009e-19
-1.30014e-19
-1.5978e-19
-1.31984e-19
-1.36757e-19
-1.0765e-19
-9.52702e-20
-9.5754e-20
-7.43755e-20
-4.82487e-20
-1.38598e-20
-2.92978e-20
4.68948e-16
-1.07765e-15
1.73257e-16
-5.63816e-17
1.74646e-17
-4.22064e-18
9.18645e-19
-6.32381e-19
-1.13283e-19
-2.02442e-19
-1.54523e-19
-1.21522e-19
-1.3133e-19
-1.0771e-19
-1.03929e-19
-8.62159e-20
-4.40213e-20
-5.92921e-20
-2.22537e-20
-2.88003e-20
-3.4892e-16
8.93015e-16
-1.43811e-16
4.55366e-17
-1.64977e-17
2.33251e-18
-1.66015e-18
-7.43304e-20
-3.08749e-19
-1.74372e-19
-1.75007e-19
-1.25234e-19
-1.34826e-19
-9.90869e-20
-9.42151e-20
-8.08486e-20
-4.73553e-20
-5.46428e-20
-6.30088e-22
-5.64155e-20
2.96904e-16
-6.80876e-16
1.08929e-16
-3.41157e-17
1.04085e-17
-3.0929e-18
2.16382e-19
-6.50098e-19
-2.06056e-19
-2.4751e-19
-1.55801e-19
-1.30629e-19
-1.22216e-19
-1.02994e-19
-6.1957e-20
-7.95542e-20
-6.2629e-20
-5.66124e-20
8.56475e-21
-6.31002e-20
-1.43922e-16
4.53448e-16
-7.20333e-17
2.16022e-17
-8.71008e-18
6.61641e-19
-1.14501e-18
-2.71976e-19
-3.24179e-19
-2.02502e-19
-1.34666e-19
-1.09567e-19
-9.80291e-20
-8.84679e-20
-8.48986e-20
-5.01389e-20
-5.45517e-20
-4.40061e-20
-2.64076e-21
-5.62175e-20
8.82727e-17
-1.90211e-16
4.01527e-17
-1.23711e-17
3.78621e-18
-1.6424e-18
-7.67915e-20
-4.42714e-19
-1.98703e-19
-1.71537e-19
-1.17291e-19
-1.10463e-19
-9.01093e-20
-5.6178e-20
-5.6052e-20
-4.22788e-20
-4.90041e-20
-2.22308e-20
1.15453e-20
-4.74339e-20
)
;

boundaryField
{
    movingWall
    {
        type            zeroGradient;
    }
    fixedWalls
    {
        type            zeroGradient;
    }
    frontAndBack
    {
        type            empty;
    }
}


// ************************************************************************* //
