/*--------------------------------*- C++ -*----------------------------------*\
| =========                 |                                                 |
| \\      /  F ield         | OpenFOAM: The Open Source CFD Toolbox           |
|  \\    /   O peration     | Version:  2312                                  |
|   \\  /    A nd           | Website:  www.openfoam.com                      |
|    \\/     M anipulation  |                                                 |
\*---------------------------------------------------------------------------*/
FoamFile
{
    version     2.0;
    format      ascii;
    arch        "LSB;label=32;scalar=64";
    class       volScalarField;
    location    "4";
    object      initialResidual:Ux;
}
// * * * * * * * * * * * * * * * * * * * * * * * * * * * * * * * * * * * * * //

dimensions      [0 0 0 0 0 0 0];

internalField   nonuniform List<scalar> 
400
(
-1.67483e-16
-3.53043e-18
9.41901e-19
-1.29698e-17
-2.98833e-18
-5.2245e-18
-2.94767e-18
-2.5682e-18
-1.91091e-18
-1.53821e-18
-1.24683e-18
-1.02999e-18
-8.80914e-19
-7.65718e-19
-6.50521e-19
-5.28549e-19
-4.5401e-19
-3.86247e-19
-2.1684e-19
-2.71051e-20
9.99289e-16
-4.04604e-16
1.23714e-16
-4.65394e-17
5.44134e-18
-7.81981e-18
-2.18196e-18
-2.73083e-18
-1.78216e-18
-1.51788e-18
-1.1994e-18
-1.04354e-18
-8.80914e-19
-7.2506e-19
-6.1664e-19
-5.42101e-19
-4.5401e-19
-3.65918e-19
-2.57498e-19
-1.35525e-20
-1.7512e-15
7.02136e-16
-2.41682e-16
6.19283e-17
-2.49028e-17
1.76183e-18
-4.78404e-18
-1.86347e-18
-1.94479e-18
-1.32815e-18
-1.13841e-18
-9.21572e-19
-8.06375e-19
-6.77626e-19
-5.55654e-19
-4.94667e-19
-4.20128e-19
-3.45589e-19
-2.1684e-19
-1.35525e-20
2.65901e-15
-1.06798e-15
3.42228e-16
-1.08705e-16
2.34459e-17
-1.31527e-17
-4.5401e-19
-2.93412e-18
-1.43657e-18
-1.3417e-18
-1.00289e-18
-8.60585e-19
-6.84403e-19
-5.75982e-19
-5.21772e-19
-4.33681e-19
-3.86247e-19
-3.25261e-19
-2.03288e-19
-2.71051e-20
-3.60874e-15
1.43785e-15
-4.86075e-16
1.30382e-16
-4.4581e-17
8.0502e-18
-6.12574e-18
-1.04354e-18
-1.7686e-18
-1.02322e-18
-9.08019e-19
-6.84403e-19
-5.69206e-19
-4.94667e-19
-4.20128e-19
-3.45589e-19
-3.59142e-19
-2.91379e-19
-1.89735e-19
-1.35525e-20
4.47616e-15
-1.78063e-15
5.7626e-16
-1.72937e-16
4.2704e-17
-1.84653e-17
1.53821e-18
-2.968e-18
-8.80914e-19
-9.55453e-19
-6.30193e-19
-5.01444e-19
-4.13352e-19
-3.79471e-19
-2.84603e-19
-3.18484e-19
-2.37169e-19
-2.37169e-19
-1.55854e-19
0
-5.3488e-15
2.11936e-15
-7.11304e-16
1.93293e-16
-6.19418e-17
1.42166e-17
-6.93212e-18
6.77626e-21
-1.36203e-18
-5.0822e-19
-4.33681e-19
-3.04932e-19
-2.37169e-19
-2.1684e-19
-1.76183e-19
-1.96512e-19
-1.6263e-19
-1.55854e-19
-1.21973e-19
-4.06576e-20
5.98344e-15
-2.36113e-15
7.68062e-16
-2.23644e-16
5.89603e-17
-2.20364e-17
3.63885e-18
-2.58176e-18
-1.01644e-19
-4.47233e-19
-1.35525e-19
-8.13152e-20
-6.77626e-20
-8.13152e-20
-5.42101e-20
-8.13152e-20
-9.48677e-20
-8.80914e-20
-1.01644e-19
-1.35525e-20
-6.61289e-15
2.6073e-15
-8.70418e-16
2.38985e-16
-7.28042e-17
1.93191e-17
-6.83047e-18
1.15196e-18
-6.23416e-19
1.96512e-19
8.13152e-20
1.69407e-19
1.55854e-19
1.42302e-19
6.09864e-20
1.35525e-20
-1.35525e-20
-3.38813e-20
-2.71051e-20
0
6.89763e-15
-2.70081e-15
8.82622e-16
-2.51e-16
6.95448e-17
-2.29444e-17
5.64463e-18
-1.70084e-18
8.26704e-19
2.77827e-19
5.28549e-19
4.60786e-19
3.86247e-19
3.59142e-19
2.30393e-19
1.49078e-19
7.45389e-20
4.74338e-20
3.38813e-20
-1.35525e-20
-7.17371e-15
2.81567e-15
-9.34271e-16
2.59971e-16
-7.4959e-17
2.27073e-17
-5.64463e-18
2.51399e-18
3.38813e-19
1.00289e-18
7.99599e-19
7.38613e-19
6.43745e-19
5.01444e-19
4.13352e-19
2.50722e-19
1.82959e-19
1.28749e-19
8.13152e-20
0
7.05414e-15
-2.73993e-15
9.00484e-16
-2.5018e-16
7.29804e-17
-2.0776e-17
7.3929e-18
-3.18484e-19
1.87703e-18
1.15874e-18
1.23328e-18
1.03677e-18
8.87691e-19
7.45389e-19
5.6243e-19
4.60786e-19
2.57498e-19
2.03288e-19
1.0842e-19
0
-6.92976e-15
2.70967e-15
-8.92393e-16
2.52978e-16
-6.80608e-17
2.40693e-17
-3.41524e-18
3.84214e-18
1.50433e-18
1.91091e-18
1.53821e-18
1.38236e-18
1.15196e-18
9.21572e-19
7.65718e-19
5.55654e-19
3.86247e-19
2.64274e-19
1.49078e-19
1.35525e-20
6.4194e-15
-2.47278e-15
8.19393e-16
-2.21001e-16
6.90298e-17
-1.57887e-17
8.75493e-18
1.38913e-18
3.00866e-18
2.13452e-18
1.98545e-18
1.63986e-18
1.38236e-18
1.13841e-18
8.87691e-19
6.84403e-19
5.01444e-19
3.59142e-19
1.6263e-19
2.71051e-20
-5.90948e-15
2.30556e-15
-7.51501e-16
2.19219e-16
-5.30717e-17
2.33239e-17
-4.20128e-19
5.11608e-18
2.75116e-18
2.81215e-18
2.27682e-18
1.95156e-18
1.5992e-18
1.3417e-18
1.06387e-18
7.45389e-19
6.09864e-19
4.06576e-19
2.23617e-19
4.06576e-20
5.079e-15
-1.93849e-15
6.51023e-16
-1.67956e-16
5.84249e-17
-8.7346e-18
9.48677e-18
3.23228e-18
4.07253e-18
3.03577e-18
2.67662e-18
2.18196e-18
1.84314e-18
1.46367e-18
1.18585e-18
8.87691e-19
6.7085e-19
5.14996e-19
2.50722e-19
1.35525e-20
-4.24844e-15
1.65938e-15
-5.30758e-16
1.63633e-16
-3.22889e-17
2.0566e-17
2.87314e-18
6.10541e-18
3.91668e-18
3.59142e-18
2.92735e-18
2.45978e-18
2.01255e-18
1.61953e-18
1.32137e-18
1.00289e-18
7.2506e-19
5.42101e-19
3.18484e-19
2.71051e-20
3.20964e-15
-1.20842e-15
4.17635e-16
-9.81067e-17
4.25956e-17
-6.64074e-19
9.6494e-18
4.91957e-18
4.86536e-18
3.75405e-18
3.15774e-18
2.64952e-18
2.15485e-18
1.78216e-18
1.39591e-18
1.10453e-18
7.92823e-19
5.55654e-19
3.04932e-19
6.77626e-20
-2.22524e-15
8.85082e-16
-2.67425e-16
9.40816e-17
-9.04631e-18
1.61207e-17
5.96989e-18
6.57975e-18
4.84503e-18
4.11319e-18
3.30682e-18
2.75794e-18
2.27682e-18
1.8567e-18
1.45012e-18
1.14519e-18
8.26704e-19
6.43745e-19
3.38813e-19
4.06576e-20
1.05141e-15
-4.55209e-16
1.81868e-16
-3.46741e-17
2.78301e-17
5.31259e-18
9.3919e-18
5.99022e-18
5.26516e-18
4.20128e-18
3.46267e-18
2.90702e-18
2.32426e-18
1.89058e-18
1.49755e-18
1.16552e-18
8.80914e-19
6.7085e-19
3.72694e-19
1.35525e-20
)
;

boundaryField
{
    movingWall
    {
        type            zeroGradient;
    }
    fixedWalls
    {
        type            zeroGradient;
    }
    frontAndBack
    {
        type            empty;
    }
}


// ************************************************************************* //
