/*--------------------------------*- C++ -*----------------------------------*\
| =========                 |                                                 |
| \\      /  F ield         | OpenFOAM: The Open Source CFD Toolbox           |
|  \\    /   O peration     | Version:  2312                                  |
|   \\  /    A nd           | Website:  www.openfoam.com                      |
|    \\/     M anipulation  |                                                 |
\*---------------------------------------------------------------------------*/
FoamFile
{
    version     2.0;
    format      ascii;
    arch        "LSB;label=32;scalar=64";
    class       volScalarField;
    location    "4";
    object      initialResidual:epsilon;
}
// * * * * * * * * * * * * * * * * * * * * * * * * * * * * * * * * * * * * * //

dimensions      [0 0 0 0 0 0 0];

internalField   nonuniform List<scalar> 
400
(
0
0
0
0
0
0
0
0
0
0
0
0
0
0
0
0
0
0
0
0
0
-9.94473e-12
-9.96625e-12
-9.98344e-12
-9.99709e-12
-1.00262e-11
-1.00413e-11
-1.00692e-11
-1.00879e-11
-1.01124e-11
-1.01364e-11
-1.01565e-11
-1.0186e-11
-1.02022e-11
-1.02364e-11
-1.02499e-11
-1.02875e-11
-1.03e-11
-2.06117e-11
0
0
-1.53564e-11
-1.5395e-11
-1.54259e-11
-1.54514e-11
-1.55017e-11
-1.55288e-11
-1.55775e-11
-1.56106e-11
-1.56532e-11
-1.56957e-11
-1.57308e-11
-1.57827e-11
-1.58112e-11
-1.58708e-11
-1.58948e-11
-1.59601e-11
-1.59824e-11
-3.20012e-11
0
0
-1.99234e-11
-1.99999e-11
-2.00352e-11
-2.00715e-11
-2.01397e-11
-2.01805e-11
-2.02464e-11
-2.02951e-11
-2.03542e-11
-2.04141e-11
-2.04644e-11
-2.05363e-11
-2.05782e-11
-2.06609e-11
-2.06964e-11
-2.07874e-11
-2.08206e-11
-4.16908e-11
0
0
-2.29528e-11
-2.30243e-11
-2.30734e-11
-2.31201e-11
-2.32008e-11
-2.32508e-11
-2.33295e-11
-2.33885e-11
-2.34593e-11
-2.35318e-11
-2.35919e-11
-2.36793e-11
-2.37293e-11
-2.38294e-11
-2.38728e-11
-2.39815e-11
-2.40232e-11
-4.81065e-11
0
0
-2.47139e-11
-2.48069e-11
-2.48555e-11
-2.49069e-11
-2.49947e-11
-2.50507e-11
-2.51363e-11
-2.52024e-11
-2.52797e-11
-2.53598e-11
-2.54267e-11
-2.55218e-11
-2.55785e-11
-2.56875e-11
-2.57365e-11
-2.5856e-11
-2.59025e-11
-5.18727e-11
0
0
-2.57324e-11
-2.58218e-11
-2.58765e-11
-2.59312e-11
-2.60234e-11
-2.60828e-11
-2.61729e-11
-2.62424e-11
-2.63243e-11
-2.64081e-11
-2.64787e-11
-2.65793e-11
-2.66384e-11
-2.67541e-11
-2.68054e-11
-2.69313e-11
-2.69809e-11
-5.40335e-11
0
0
-2.63476e-11
-2.64506e-11
-2.65025e-11
-2.65583e-11
-2.66536e-11
-2.67146e-11
-2.68072e-11
-2.68795e-11
-2.6963e-11
-2.70504e-11
-2.71229e-11
-2.72264e-11
-2.72883e-11
-2.74064e-11
-2.74604e-11
-2.75897e-11
-2.7641e-11
-5.53566e-11
0
0
-2.67769e-11
-2.68926e-11
-2.69433e-11
-2.69985e-11
-2.70962e-11
-2.71585e-11
-2.72532e-11
-2.73266e-11
-2.74124e-11
-2.75012e-11
-2.75752e-11
-2.76813e-11
-2.77436e-11
-2.78654e-11
-2.79199e-11
-2.80521e-11
-2.81049e-11
-5.62855e-11
0
0
-2.71351e-11
-2.72566e-11
-2.73058e-11
-2.73626e-11
-2.74612e-11
-2.75249e-11
-2.76208e-11
-2.7696e-11
-2.77826e-11
-2.78734e-11
-2.79488e-11
-2.80563e-11
-2.81205e-11
-2.82432e-11
-2.82995e-11
-2.84336e-11
-2.84873e-11
-5.70519e-11
0
0
-2.74837e-11
-2.75934e-11
-2.76474e-11
-2.77069e-11
-2.78066e-11
-2.78715e-11
-2.79689e-11
-2.80448e-11
-2.81335e-11
-2.8225e-11
-2.83022e-11
-2.84106e-11
-2.84766e-11
-2.86007e-11
-2.86583e-11
-2.87942e-11
-2.8849e-11
-5.77764e-11
0
0
-2.78414e-11
-2.79442e-11
-2.80022e-11
-2.80634e-11
-2.81638e-11
-2.82308e-11
-2.83285e-11
-2.84071e-11
-2.8496e-11
-2.85901e-11
-2.86676e-11
-2.87788e-11
-2.88447e-11
-2.89717e-11
-2.90295e-11
-2.9168e-11
-2.92238e-11
-5.85268e-11
0
0
-2.82219e-11
-2.83342e-11
-2.83913e-11
-2.84524e-11
-2.85551e-11
-2.86227e-11
-2.8723e-11
-2.88018e-11
-2.88928e-11
-2.89882e-11
-2.90668e-11
-2.91804e-11
-2.92472e-11
-2.93766e-11
-2.94357e-11
-2.95759e-11
-2.96334e-11
-5.93467e-11
0
0
-2.86535e-11
-2.87735e-11
-2.88285e-11
-2.88917e-11
-2.89955e-11
-2.90649e-11
-2.91667e-11
-2.9247e-11
-2.934e-11
-2.94368e-11
-2.95178e-11
-2.96322e-11
-2.97019e-11
-2.98323e-11
-2.98936e-11
-3.00361e-11
-3.00947e-11
-6.02709e-11
0
0
-2.91614e-11
-2.92711e-11
-2.93314e-11
-2.93975e-11
-2.95027e-11
-2.95742e-11
-2.96771e-11
-2.97609e-11
-2.98545e-11
-2.99545e-11
-3.00366e-11
-3.01538e-11
-3.02248e-11
-3.03582e-11
-3.04208e-11
-3.05664e-11
-3.06265e-11
-6.13359e-11
0
0
-2.97436e-11
-2.98646e-11
-2.99229e-11
-2.99907e-11
-3.00982e-11
-3.01718e-11
-3.02772e-11
-3.0363e-11
-3.04592e-11
-3.05611e-11
-3.06457e-11
-3.07655e-11
-3.08384e-11
-3.0975e-11
-3.10395e-11
-3.11885e-11
-3.12505e-11
-6.25855e-11
0
0
-3.04336e-11
-3.05636e-11
-3.0622e-11
-3.06909e-11
-3.08015e-11
-3.08773e-11
-3.09853e-11
-3.10738e-11
-3.11723e-11
-3.12779e-11
-3.13642e-11
-3.14882e-11
-3.15629e-11
-3.17035e-11
-3.177e-11
-3.19231e-11
-3.19873e-11
-6.40608e-11
0
0
-3.12125e-11
-3.13542e-11
-3.14115e-11
-3.14825e-11
-3.15955e-11
-3.1675e-11
-3.17849e-11
-3.18774e-11
-3.19778e-11
-3.20875e-11
-3.21762e-11
-3.23041e-11
-3.23815e-11
-3.25261e-11
-3.25954e-11
-3.27525e-11
-3.28196e-11
-6.57265e-11
0
0
-3.20963e-11
-3.22433e-11
-3.23016e-11
-3.236e-11
-3.24834e-11
-3.25505e-11
-3.2671e-11
-3.2753e-11
-3.28621e-11
-3.29648e-11
-3.30596e-11
-3.31849e-11
-3.32652e-11
-3.34117e-11
-3.3481e-11
-3.3644e-11
-3.37095e-11
-6.7419e-11
0
0
0
0
0
0
0
0
0
0
0
0
0
0
0
0
0
0
0
0
0
)
;

boundaryField
{
    movingWall
    {
        type            zeroGradient;
    }
    fixedWalls
    {
        type            zeroGradient;
    }
    frontAndBack
    {
        type            empty;
    }
}


// ************************************************************************* //
