/*--------------------------------*- C++ -*----------------------------------*\
| =========                 |                                                 |
| \\      /  F ield         | OpenFOAM: The Open Source CFD Toolbox           |
|  \\    /   O peration     | Version:  2312                                  |
|   \\  /    A nd           | Website:  www.openfoam.com                      |
|    \\/     M anipulation  |                                                 |
\*---------------------------------------------------------------------------*/
FoamFile
{
    version     2.0;
    format      ascii;
    arch        "LSB;label=32;scalar=64";
    class       volScalarField;
    location    "4";
    object      initialResidual:Uy;
}
// * * * * * * * * * * * * * * * * * * * * * * * * * * * * * * * * * * * * * //

dimensions      [0 0 0 0 0 0 0];

internalField   nonuniform List<scalar> 
400
(
-6.01733e-14
2.57171e-14
-6.08823e-15
1.44141e-15
-3.41213e-16
8.03622e-17
-1.93282e-17
4.25697e-18
-1.28482e-18
5.05508e-20
-2.37139e-19
-1.43499e-19
-1.46471e-19
-1.28589e-19
-1.20219e-19
-1.05366e-19
-9.25178e-20
-7.32083e-20
-1.61902e-19
-4.87731e-20
6.02343e-14
-2.57113e-14
6.07689e-15
-1.43738e-15
3.3785e-16
-8.07722e-17
1.80257e-17
-5.14585e-18
3.77759e-19
-8.39017e-19
-4.76419e-19
-4.86805e-19
-4.26258e-19
-3.85589e-19
-3.47469e-19
-3.18534e-19
-2.69317e-19
-2.35709e-19
-4.69267e-19
-1.35461e-19
-6.02618e-14
2.57032e-14
-6.07638e-15
1.4334e-15
-3.39892e-16
7.84496e-17
-2.01425e-17
3.22196e-18
-2.13006e-18
-7.38078e-19
-9.41416e-19
-7.70046e-19
-6.97457e-19
-6.23892e-19
-5.69375e-19
-5.27108e-19
-4.51397e-19
-3.89668e-19
-7.56801e-19
-2.19549e-19
6.02963e-14
-2.57067e-14
6.06981e-15
-1.43511e-15
3.35543e-16
-8.16493e-17
1.6892e-17
-6.08596e-18
-4.78885e-19
-1.60128e-18
-1.15744e-18
-1.08859e-18
-9.51032e-19
-8.59322e-19
-7.8968e-19
-7.14966e-19
-6.08143e-19
-5.34342e-19
-1.03659e-18
-3.03345e-19
-6.0422e-14
2.57521e-14
-6.08626e-15
1.43236e-15
-3.4098e-16
7.7171e-17
-2.11379e-17
2.27855e-18
-2.95386e-18
-1.46725e-18
-1.57416e-18
-1.33472e-18
-1.20683e-18
-1.08008e-18
-9.87942e-19
-8.95374e-19
-7.60648e-19
-6.69703e-19
-1.29017e-18
-3.75954e-19
6.05755e-14
-2.58301e-14
6.0963e-15
-1.4436e-15
3.35697e-16
-8.32751e-17
1.59687e-17
-7.00582e-18
-1.24189e-18
-2.27421e-18
-1.74834e-18
-1.61341e-18
-1.42359e-18
-1.2765e-18
-1.16398e-18
-1.06444e-18
-8.95463e-19
-7.82068e-19
-1.51124e-18
-4.40926e-19
-6.0861e-14
2.59474e-14
-6.13848e-15
1.44295e-15
-3.45831e-16
7.67682e-17
-2.23674e-17
1.50041e-18
-3.67721e-18
-2.0695e-18
-2.11464e-18
-1.80253e-18
-1.62151e-18
-1.44742e-18
-1.31823e-18
-1.19396e-18
-1.00785e-18
-8.78565e-19
-1.70017e-18
-4.95523e-19
6.11622e-14
-2.61092e-14
6.16378e-15
-1.46399e-15
3.38956e-16
-8.57612e-17
1.53419e-17
-7.86236e-18
-1.84953e-18
-2.81553e-18
-2.20521e-18
-2.00867e-18
-1.75944e-18
-1.5726e-18
-1.43908e-18
-1.30947e-18
-1.10636e-18
-9.70287e-19
-1.84519e-18
-5.34398e-19
-6.16044e-14
2.62904e-14
-6.23018e-15
1.46414e-15
-3.5357e-16
7.7234e-17
-2.36605e-17
9.41931e-19
-4.25113e-18
-2.51313e-18
-2.48635e-18
-2.11239e-18
-1.87377e-18
-1.65716e-18
-1.51921e-18
-1.39165e-18
-1.18272e-18
-1.03519e-18
-1.95829e-18
-5.67347e-19
6.20478e-14
-2.65313e-14
6.2684e-15
-1.49408e-15
3.45029e-16
-8.86944e-17
1.51243e-17
-8.55482e-18
-2.25415e-18
-3.17536e-18
-2.47263e-18
-2.22265e-18
-1.94444e-18
-1.73182e-18
-1.57316e-18
-1.43026e-18
-1.21995e-18
-1.07062e-18
-2.02495e-18
-5.86209e-19
-6.26187e-14
2.67616e-14
-6.35436e-15
1.49425e-15
-3.63194e-16
7.85784e-17
-2.48359e-17
6.63994e-19
-4.59346e-18
-2.71662e-18
-2.6522e-18
-2.23253e-18
-1.9794e-18
-1.76602e-18
-1.60617e-18
-1.4491e-18
-1.21992e-18
-1.07702e-18
-2.03307e-18
-5.8643e-19
6.31703e-14
-2.70611e-14
6.40169e-15
-1.53056e-15
3.53392e-16
-9.16699e-17
1.53481e-17
-8.98135e-18
-2.36104e-18
-3.2774e-18
-2.53074e-18
-2.25714e-18
-1.95536e-18
-1.74884e-18
-1.58633e-18
-1.42985e-18
-1.20049e-18
-1.06014e-18
-1.99904e-18
-5.72801e-19
-6.38104e-14
2.73149e-14
-6.49808e-15
1.53017e-15
-3.73437e-16
8.07281e-17
-2.56487e-17
7.77412e-19
-4.6365e-18
-2.67407e-18
-2.60509e-18
-2.17242e-18
-1.91036e-18
-1.69024e-18
-1.52699e-18
-1.36417e-18
-1.14557e-18
-1.02305e-18
-1.92371e-18
-5.48166e-19
6.44052e-14
-2.7637e-14
6.54814e-15
-1.56866e-15
3.6316e-16
-9.41767e-17
1.60916e-17
-9.0041e-18
-2.15026e-18
-3.10059e-18
-2.33868e-18
-2.08857e-18
-1.79868e-18
-1.58883e-18
-1.4309e-18
-1.28284e-18
-1.07137e-18
-9.56566e-19
-1.80003e-18
-5.12131e-19
-6.50278e-14
2.78798e-14
-6.64178e-15
1.56737e-15
-3.82659e-16
8.35448e-17
-2.58936e-17
1.31626e-18
-4.31849e-18
-2.32046e-18
-2.28483e-18
-1.8805e-18
-1.64875e-18
-1.44138e-18
-1.29743e-18
-1.17265e-18
-9.75323e-19
-8.66688e-19
-1.62522e-18
-4.61458e-19
6.5577e-14
-2.81775e-14
6.68671e-15
-1.60273e-15
3.73122e-16
-9.56496e-17
1.74011e-17
-8.50413e-18
-1.5273e-18
-2.5923e-18
-1.88163e-18
-1.6797e-18
-1.43286e-18
-1.26587e-18
-1.13526e-18
-1.01857e-18
-8.49048e-19
-7.50581e-19
-1.4042e-18
-3.96877e-19
-6.60871e-14
2.83711e-14
-6.7635e-15
1.60045e-15
-3.89259e-16
8.68262e-17
-2.53086e-17
2.38582e-18
-3.53492e-18
-1.60606e-18
-1.6794e-18
-1.34711e-18
-1.18409e-18
-1.04372e-18
-9.4539e-19
-8.41457e-19
-6.90648e-19
-6.11539e-19
-1.14513e-18
-3.23096e-19
6.64977e-14
-2.85935e-14
6.79672e-15
-1.6269e-15
3.82074e-16
-9.57083e-17
1.92478e-17
-7.43471e-18
-5.0042e-19
-1.75866e-18
-1.15559e-18
-1.05305e-18
-8.90522e-19
-7.9047e-19
-7.11474e-19
-6.30971e-19
-5.13956e-19
-4.52364e-19
-8.65494e-19
-2.4611e-19
-6.68078e-14
2.87131e-14
-6.84245e-15
1.62442e-15
-3.91443e-16
9.00731e-17
-2.39212e-17
3.81029e-18
-2.40451e-18
-6.45043e-19
-8.59813e-19
-6.45638e-19
-5.75653e-19
-4.91479e-19
-4.35865e-19
-3.9068e-19
-3.08844e-19
-2.74572e-19
-5.52676e-19
-1.58438e-19
6.69916e-14
-2.88624e-14
6.88393e-15
-1.6444e-15
3.92177e-16
-9.48187e-17
2.18134e-17
-5.93222e-18
8.81418e-19
-6.42926e-19
-1.93687e-19
-2.4506e-19
-1.90303e-19
-1.67123e-19
-1.45394e-19
-1.32484e-19
-1.01272e-19
-8.65032e-20
-1.9086e-19
-5.65283e-20
)
;

boundaryField
{
    movingWall
    {
        type            zeroGradient;
    }
    fixedWalls
    {
        type            zeroGradient;
    }
    frontAndBack
    {
        type            empty;
    }
}


// ************************************************************************* //
