/*--------------------------------*- C++ -*----------------------------------*\
| =========                 |                                                 |
| \\      /  F ield         | OpenFOAM: The Open Source CFD Toolbox           |
|  \\    /   O peration     | Version:  2312                                  |
|   \\  /    A nd           | Website:  www.openfoam.com                      |
|    \\/     M anipulation  |                                                 |
\*---------------------------------------------------------------------------*/
FoamFile
{
    version     2.0;
    format      ascii;
    arch        "LSB;label=32;scalar=64";
    class       volScalarField;
    location    "4";
    object      k;
}
// * * * * * * * * * * * * * * * * * * * * * * * * * * * * * * * * * * * * * //

dimensions      [0 2 -2 0 0 0 0];

internalField   nonuniform List<scalar> 
400
(
2.72865e-05
2.72863e-05
2.72861e-05
2.7286e-05
2.72859e-05
2.72857e-05
2.72856e-05
2.72855e-05
2.72854e-05
2.72853e-05
2.72853e-05
2.72852e-05
2.72852e-05
2.72851e-05
2.72851e-05
2.72851e-05
2.72851e-05
2.7285e-05
2.7285e-05
2.7285e-05
3.29591e-05
3.29592e-05
3.29505e-05
3.29475e-05
3.29418e-05
3.29387e-05
3.29341e-05
3.29312e-05
3.29276e-05
3.29248e-05
3.2922e-05
3.29197e-05
3.29178e-05
3.29157e-05
3.29147e-05
3.2913e-05
3.29125e-05
3.29117e-05
3.29115e-05
3.29113e-05
4.00867e-05
4.00866e-05
4.00735e-05
4.00693e-05
4.00606e-05
4.00561e-05
4.00492e-05
4.00448e-05
4.00399e-05
4.00354e-05
4.00317e-05
4.00279e-05
4.00251e-05
4.00221e-05
4.00205e-05
4.00182e-05
4.00174e-05
4.00162e-05
4.00158e-05
4.00156e-05
4.56721e-05
4.56712e-05
4.56561e-05
4.56486e-05
4.56386e-05
4.56318e-05
4.56232e-05
4.56176e-05
4.561e-05
4.56055e-05
4.55993e-05
4.55956e-05
4.55909e-05
4.5588e-05
4.55848e-05
4.55828e-05
4.55809e-05
4.55799e-05
4.55792e-05
4.55789e-05
4.92267e-05
4.92262e-05
4.92069e-05
4.91999e-05
4.91864e-05
4.918e-05
4.91686e-05
4.91628e-05
4.91539e-05
4.91484e-05
4.91416e-05
4.91368e-05
4.91315e-05
4.9128e-05
4.91241e-05
4.9122e-05
4.91197e-05
4.91185e-05
4.91177e-05
4.91174e-05
5.12798e-05
5.12787e-05
5.12594e-05
5.125e-05
5.12369e-05
5.12287e-05
5.12171e-05
5.12104e-05
5.12003e-05
5.11949e-05
5.11866e-05
5.11822e-05
5.1176e-05
5.11725e-05
5.11682e-05
5.11658e-05
5.11632e-05
5.1162e-05
5.11611e-05
5.11608e-05
5.24438e-05
5.24433e-05
5.24212e-05
5.24131e-05
5.2398e-05
5.23903e-05
5.23775e-05
5.23707e-05
5.23603e-05
5.2354e-05
5.23466e-05
5.23406e-05
5.23353e-05
5.23306e-05
5.23267e-05
5.23238e-05
5.23214e-05
5.232e-05
5.23191e-05
5.23187e-05
5.31415e-05
5.31403e-05
5.31193e-05
5.31099e-05
5.30944e-05
5.30867e-05
5.30731e-05
5.30667e-05
5.30554e-05
5.305e-05
5.30407e-05
5.30363e-05
5.30291e-05
5.30258e-05
5.30208e-05
5.30185e-05
5.30156e-05
5.30144e-05
5.30133e-05
5.3013e-05
5.36163e-05
5.36156e-05
5.35928e-05
5.35841e-05
5.35681e-05
5.35604e-05
5.35467e-05
5.35398e-05
5.35288e-05
5.35225e-05
5.35141e-05
5.35086e-05
5.35021e-05
5.34981e-05
5.34932e-05
5.34907e-05
5.34879e-05
5.34866e-05
5.34856e-05
5.34852e-05
5.39954e-05
5.39941e-05
5.39726e-05
5.39626e-05
5.39469e-05
5.39388e-05
5.39247e-05
5.39182e-05
5.39062e-05
5.39008e-05
5.38911e-05
5.38867e-05
5.38793e-05
5.38759e-05
5.38707e-05
5.38683e-05
5.38653e-05
5.3864e-05
5.38629e-05
5.38626e-05
5.43451e-05
5.43438e-05
5.43221e-05
5.43117e-05
5.42963e-05
5.42875e-05
5.42738e-05
5.42666e-05
5.42555e-05
5.42487e-05
5.42405e-05
5.42344e-05
5.42285e-05
5.42235e-05
5.42195e-05
5.42161e-05
5.42137e-05
5.4212e-05
5.4211e-05
5.42106e-05
5.47016e-05
5.47005e-05
5.46775e-05
5.46675e-05
5.4652e-05
5.4643e-05
5.46299e-05
5.46221e-05
5.46106e-05
5.46043e-05
5.45946e-05
5.45896e-05
5.45826e-05
5.45787e-05
5.45736e-05
5.45711e-05
5.4568e-05
5.45667e-05
5.45656e-05
5.45652e-05
5.50867e-05
5.5086e-05
5.50617e-05
5.50526e-05
5.50358e-05
5.50275e-05
5.50132e-05
5.50057e-05
5.49944e-05
5.49873e-05
5.49788e-05
5.49726e-05
5.49662e-05
5.49615e-05
5.49569e-05
5.49539e-05
5.49512e-05
5.49496e-05
5.49486e-05
5.49482e-05
5.55164e-05
5.55155e-05
5.54926e-05
5.54815e-05
5.54658e-05
5.54561e-05
5.54424e-05
5.54345e-05
5.54231e-05
5.54159e-05
5.54073e-05
5.54009e-05
5.53946e-05
5.53896e-05
5.53853e-05
5.53818e-05
5.53793e-05
5.53775e-05
5.53765e-05
5.53761e-05
5.60076e-05
5.60064e-05
5.59828e-05
5.59718e-05
5.59559e-05
5.59461e-05
5.59324e-05
5.5924e-05
5.59123e-05
5.59055e-05
5.58957e-05
5.58905e-05
5.58828e-05
5.58789e-05
5.58734e-05
5.58708e-05
5.58675e-05
5.58662e-05
5.5865e-05
5.58646e-05
5.65757e-05
5.65747e-05
5.65512e-05
5.65395e-05
5.65235e-05
5.65132e-05
5.64993e-05
5.64905e-05
5.64787e-05
5.64716e-05
5.64619e-05
5.6456e-05
5.6449e-05
5.64441e-05
5.64394e-05
5.6436e-05
5.64332e-05
5.64315e-05
5.64305e-05
5.643e-05
5.72303e-05
5.72288e-05
5.72047e-05
5.71932e-05
5.71758e-05
5.71664e-05
5.7151e-05
5.71433e-05
5.713e-05
5.71237e-05
5.71131e-05
5.71078e-05
5.70998e-05
5.70957e-05
5.709e-05
5.70873e-05
5.70839e-05
5.70824e-05
5.70813e-05
5.70808e-05
5.79408e-05
5.79392e-05
5.79147e-05
5.79028e-05
5.78852e-05
5.78751e-05
5.78601e-05
5.78514e-05
5.78388e-05
5.78316e-05
5.78212e-05
5.78155e-05
5.78073e-05
5.78031e-05
5.77973e-05
5.77945e-05
5.77909e-05
5.77895e-05
5.77883e-05
5.77878e-05
5.85902e-05
5.85899e-05
5.85649e-05
5.85538e-05
5.85359e-05
5.85267e-05
5.85109e-05
5.85032e-05
5.84899e-05
5.84832e-05
5.84728e-05
5.84669e-05
5.84591e-05
5.84545e-05
5.84489e-05
5.84459e-05
5.84425e-05
5.84409e-05
5.84397e-05
5.84393e-05
5.88481e-05
5.88474e-05
5.88472e-05
5.88467e-05
5.88465e-05
5.88462e-05
5.8846e-05
5.88458e-05
5.88457e-05
5.88454e-05
5.88454e-05
5.88452e-05
5.88453e-05
5.88451e-05
5.88452e-05
5.88451e-05
5.88451e-05
5.88451e-05
5.88451e-05
5.88451e-05
)
;

boundaryField
{
    movingWall
    {
        type            kqRWallFunction;
        value           nonuniform List<scalar> 
20
(
5.88481e-05
5.88474e-05
5.88472e-05
5.88467e-05
5.88465e-05
5.88462e-05
5.8846e-05
5.88458e-05
5.88457e-05
5.88454e-05
5.88454e-05
5.88452e-05
5.88453e-05
5.88451e-05
5.88452e-05
5.88451e-05
5.88451e-05
5.88451e-05
5.88451e-05
5.88451e-05
)
;
    }
    fixedWalls
    {
        type            kqRWallFunction;
        value           nonuniform List<scalar> 
60
(
2.72865e-05
3.29591e-05
4.00867e-05
4.56721e-05
4.92267e-05
5.12798e-05
5.24438e-05
5.31415e-05
5.36163e-05
5.39954e-05
5.43451e-05
5.47016e-05
5.50867e-05
5.55164e-05
5.60076e-05
5.65757e-05
5.72303e-05
5.79408e-05
5.85902e-05
5.88481e-05
2.7285e-05
3.29113e-05
4.00156e-05
4.55789e-05
4.91174e-05
5.11608e-05
5.23187e-05
5.3013e-05
5.34852e-05
5.38626e-05
5.42106e-05
5.45652e-05
5.49482e-05
5.53761e-05
5.58646e-05
5.643e-05
5.70808e-05
5.77878e-05
5.84393e-05
5.88451e-05
2.72865e-05
2.72863e-05
2.72861e-05
2.7286e-05
2.72859e-05
2.72857e-05
2.72856e-05
2.72855e-05
2.72854e-05
2.72853e-05
2.72853e-05
2.72852e-05
2.72852e-05
2.72851e-05
2.72851e-05
2.72851e-05
2.72851e-05
2.7285e-05
2.7285e-05
2.7285e-05
)
;
    }
    frontAndBack
    {
        type            empty;
    }
}


// ************************************************************************* //
