/*--------------------------------*- C++ -*----------------------------------*\
| =========                 |                                                 |
| \\      /  F ield         | OpenFOAM: The Open Source CFD Toolbox           |
|  \\    /   O peration     | Version:  2312                                  |
|   \\  /    A nd           | Website:  www.openfoam.com                      |
|    \\/     M anipulation  |                                                 |
\*---------------------------------------------------------------------------*/
FoamFile
{
    version     2.0;
    format      ascii;
    arch        "LSB;label=32;scalar=64";
    class       volScalarField;
    location    "4";
    object      k2;
}
// * * * * * * * * * * * * * * * * * * * * * * * * * * * * * * * * * * * * * //

dimensions      [0 4 -4 0 0 0 0];

internalField   nonuniform List<scalar> 
400
(
7.47277e-10
7.47266e-10
7.47255e-10
7.47246e-10
7.47241e-10
7.47231e-10
7.47227e-10
7.47219e-10
7.47216e-10
7.47211e-10
7.47208e-10
7.47204e-10
7.47202e-10
7.472e-10
7.47199e-10
7.47197e-10
7.47196e-10
7.47196e-10
7.47195e-10
7.47195e-10
1.09117e-09
1.09117e-09
1.09062e-09
1.0904e-09
1.09003e-09
1.08983e-09
1.08951e-09
1.08933e-09
1.08908e-09
1.08891e-09
1.08871e-09
1.08857e-09
1.08843e-09
1.0883e-09
1.08822e-09
1.08812e-09
1.08808e-09
1.08803e-09
1.08801e-09
1.088e-09
1.61528e-09
1.61524e-09
1.61425e-09
1.61387e-09
1.61318e-09
1.61281e-09
1.61225e-09
1.6119e-09
1.61149e-09
1.61116e-09
1.61082e-09
1.61055e-09
1.6103e-09
1.61008e-09
1.60993e-09
1.60976e-09
1.60968e-09
1.60959e-09
1.60956e-09
1.60954e-09
2.09754e-09
2.0975e-09
2.09599e-09
2.09542e-09
2.09439e-09
2.09387e-09
2.09298e-09
2.09254e-09
2.0918e-09
2.09141e-09
2.09082e-09
2.0905e-09
2.09005e-09
2.0898e-09
2.0895e-09
2.08932e-09
2.08914e-09
2.08904e-09
2.08898e-09
2.08895e-09
2.43715e-09
2.43709e-09
2.43521e-09
2.43448e-09
2.43316e-09
2.43252e-09
2.43139e-09
2.43081e-09
2.42993e-09
2.42938e-09
2.4287e-09
2.42825e-09
2.4277e-09
2.42737e-09
2.42697e-09
2.42676e-09
2.42654e-09
2.42642e-09
2.42634e-09
2.42631e-09
2.64492e-09
2.64485e-09
2.6427e-09
2.64188e-09
2.64039e-09
2.63965e-09
2.63838e-09
2.63774e-09
2.63667e-09
2.63613e-09
2.63526e-09
2.63482e-09
2.63417e-09
2.63382e-09
2.63337e-09
2.63312e-09
2.63285e-09
2.63273e-09
2.63264e-09
2.6326e-09
2.76645e-09
2.76637e-09
2.76409e-09
2.7632e-09
2.7616e-09
2.76081e-09
2.75943e-09
2.75873e-09
2.75762e-09
2.75696e-09
2.75617e-09
2.75557e-09
2.75497e-09
2.75451e-09
2.75406e-09
2.75378e-09
2.75352e-09
2.75337e-09
2.75328e-09
2.75323e-09
2.84063e-09
2.84056e-09
2.83814e-09
2.83726e-09
2.83557e-09
2.83475e-09
2.8333e-09
2.83261e-09
2.83139e-09
2.83081e-09
2.82982e-09
2.82935e-09
2.82859e-09
2.82823e-09
2.8277e-09
2.82745e-09
2.82714e-09
2.82701e-09
2.8269e-09
2.82686e-09
2.89166e-09
2.89159e-09
2.88912e-09
2.88818e-09
2.88647e-09
2.88561e-09
2.88415e-09
2.88338e-09
2.88222e-09
2.88151e-09
2.88062e-09
2.88003e-09
2.87932e-09
2.8789e-09
2.87837e-09
2.87809e-09
2.87779e-09
2.87765e-09
2.87755e-09
2.8775e-09
2.93277e-09
2.93269e-09
2.93014e-09
2.92922e-09
2.92744e-09
2.92659e-09
2.92507e-09
2.92434e-09
2.92305e-09
2.92245e-09
2.92141e-09
2.92092e-09
2.92012e-09
2.91974e-09
2.91918e-09
2.91892e-09
2.91859e-09
2.91845e-09
2.91834e-09
2.9183e-09
2.97093e-09
2.97085e-09
2.96827e-09
2.9673e-09
2.96552e-09
2.96462e-09
2.96309e-09
2.96231e-09
2.9611e-09
2.96036e-09
2.95944e-09
2.9588e-09
2.95812e-09
2.95761e-09
2.95714e-09
2.95679e-09
2.95652e-09
2.95634e-09
2.95623e-09
2.95619e-09
3.01009e-09
3.00999e-09
3.00737e-09
3.00636e-09
3.00456e-09
3.00366e-09
3.0021e-09
3.00134e-09
3.00001e-09
2.99936e-09
2.99828e-09
2.99775e-09
2.99693e-09
2.99653e-09
2.99595e-09
2.99568e-09
2.99535e-09
2.9952e-09
2.99508e-09
2.99504e-09
3.05266e-09
3.05258e-09
3.0499e-09
3.04887e-09
3.04702e-09
3.04608e-09
3.0445e-09
3.04366e-09
3.04241e-09
3.04164e-09
3.04068e-09
3.04002e-09
3.03927e-09
3.03878e-09
3.03825e-09
3.03792e-09
3.03762e-09
3.03745e-09
3.03734e-09
3.03729e-09
3.10057e-09
3.10052e-09
3.09773e-09
3.09672e-09
3.09481e-09
3.09384e-09
3.09221e-09
3.09138e-09
3.09009e-09
3.0893e-09
3.08832e-09
3.08764e-09
3.0869e-09
3.08637e-09
3.08587e-09
3.08549e-09
3.0852e-09
3.08501e-09
3.0849e-09
3.08485e-09
3.15575e-09
3.15566e-09
3.15285e-09
3.15176e-09
3.14982e-09
3.14885e-09
3.14718e-09
3.14634e-09
3.14493e-09
3.14423e-09
3.14308e-09
3.14251e-09
3.14164e-09
3.1412e-09
3.1406e-09
3.14029e-09
3.13993e-09
3.13977e-09
3.13965e-09
3.1396e-09
3.22021e-09
3.22016e-09
3.21721e-09
3.21614e-09
3.21412e-09
3.21311e-09
3.2114e-09
3.21051e-09
3.20906e-09
3.20832e-09
3.20719e-09
3.20653e-09
3.20572e-09
3.20518e-09
3.20463e-09
3.20426e-09
3.20393e-09
3.20374e-09
3.20362e-09
3.20356e-09
3.29527e-09
3.29517e-09
3.29213e-09
3.29102e-09
3.28891e-09
3.28788e-09
3.28608e-09
3.28521e-09
3.28368e-09
3.28294e-09
3.28171e-09
3.28112e-09
3.28017e-09
3.27972e-09
3.27906e-09
3.27875e-09
3.27836e-09
3.27819e-09
3.27805e-09
3.278e-09
3.37774e-09
3.37764e-09
3.3745e-09
3.37335e-09
3.37117e-09
3.37008e-09
3.36824e-09
3.36732e-09
3.36576e-09
3.36499e-09
3.36372e-09
3.3631e-09
3.36211e-09
3.36164e-09
3.36095e-09
3.36063e-09
3.36022e-09
3.36004e-09
3.3599e-09
3.35985e-09
3.45403e-09
3.45404e-09
3.45089e-09
3.44974e-09
3.44757e-09
3.4465e-09
3.44464e-09
3.44372e-09
3.44216e-09
3.44136e-09
3.44014e-09
3.43944e-09
3.43852e-09
3.43798e-09
3.43731e-09
3.43696e-09
3.43656e-09
3.43638e-09
3.43624e-09
3.43618e-09
3.48453e-09
3.48444e-09
3.48441e-09
3.48437e-09
3.48434e-09
3.4843e-09
3.48428e-09
3.48425e-09
3.48424e-09
3.48421e-09
3.48421e-09
3.48418e-09
3.4842e-09
3.48417e-09
3.48418e-09
3.48417e-09
3.48417e-09
3.48417e-09
3.48417e-09
3.48417e-09
)
;

boundaryField
{
    movingWall
    {
        type            calculated;
        value           nonuniform List<scalar> 
20
(
3.48453e-09
3.48444e-09
3.48441e-09
3.48437e-09
3.48434e-09
3.4843e-09
3.48428e-09
3.48425e-09
3.48424e-09
3.48421e-09
3.48421e-09
3.48418e-09
3.4842e-09
3.48417e-09
3.48418e-09
3.48417e-09
3.48417e-09
3.48417e-09
3.48417e-09
3.48417e-09
)
;
    }
    fixedWalls
    {
        type            calculated;
        value           nonuniform List<scalar> 
60
(
7.47277e-10
1.09117e-09
1.61528e-09
2.09754e-09
2.43715e-09
2.64492e-09
2.76645e-09
2.84063e-09
2.89166e-09
2.93277e-09
2.97093e-09
3.01009e-09
3.05266e-09
3.10057e-09
3.15575e-09
3.22021e-09
3.29527e-09
3.37774e-09
3.45403e-09
3.48453e-09
7.47195e-10
1.088e-09
1.60954e-09
2.08895e-09
2.42631e-09
2.6326e-09
2.75323e-09
2.82686e-09
2.8775e-09
2.9183e-09
2.95619e-09
2.99504e-09
3.03729e-09
3.08485e-09
3.1396e-09
3.20356e-09
3.278e-09
3.35985e-09
3.43618e-09
3.48417e-09
7.47277e-10
7.47266e-10
7.47255e-10
7.47246e-10
7.47241e-10
7.47231e-10
7.47227e-10
7.47219e-10
7.47216e-10
7.47211e-10
7.47208e-10
7.47204e-10
7.47202e-10
7.472e-10
7.47199e-10
7.47197e-10
7.47196e-10
7.47196e-10
7.47195e-10
7.47195e-10
)
;
    }
    frontAndBack
    {
        type            empty;
    }
}


// ************************************************************************* //
