/*--------------------------------*- C++ -*----------------------------------*\
| =========                 |                                                 |
| \\      /  F ield         | OpenFOAM: The Open Source CFD Toolbox           |
|  \\    /   O peration     | Version:  2312                                  |
|   \\  /    A nd           | Website:  www.openfoam.com                      |
|    \\/     M anipulation  |                                                 |
\*---------------------------------------------------------------------------*/
FoamFile
{
    version     2.0;
    format      ascii;
    arch        "LSB;label=32;scalar=64";
    class       volScalarField;
    location    "4";
    object      kDiff;
}
// * * * * * * * * * * * * * * * * * * * * * * * * * * * * * * * * * * * * * //

dimensions      [0 2 -2 0 0 0 0];

internalField   nonuniform List<scalar> 
400
(
-9.97399e-08
-9.97761e-08
-9.9765e-08
-9.97382e-08
-9.97897e-08
-9.97247e-08
-9.97847e-08
-9.97271e-08
-9.97654e-08
-9.97412e-08
-9.97623e-08
-9.97454e-08
-9.97336e-08
-9.9768e-08
-9.97331e-08
-9.97645e-08
-9.97404e-08
-9.97533e-08
-9.97466e-08
-9.97474e-08
-1.47702e-07
-1.47499e-07
-1.48167e-07
-1.47554e-07
-1.47706e-07
-1.47708e-07
-1.47502e-07
-1.47649e-07
-1.47391e-07
-1.47766e-07
-1.47252e-07
-1.47608e-07
-1.47309e-07
-1.47527e-07
-1.47285e-07
-1.47534e-07
-1.47291e-07
-1.47439e-07
-1.47376e-07
-1.47379e-07
-2.07781e-07
-2.07211e-07
-2.08823e-07
-2.07575e-07
-2.07804e-07
-2.07717e-07
-2.07464e-07
-2.07567e-07
-2.07228e-07
-2.07823e-07
-2.07035e-07
-2.07766e-07
-2.07048e-07
-2.07522e-07
-2.07076e-07
-2.07448e-07
-2.07102e-07
-2.0731e-07
-2.07223e-07
-2.07227e-07
-2.53942e-07
-2.54846e-07
-2.52112e-07
-2.54654e-07
-2.52214e-07
-2.54255e-07
-2.52139e-07
-2.5359e-07
-2.52702e-07
-2.53212e-07
-2.5283e-07
-2.53074e-07
-2.52728e-07
-2.52903e-07
-2.52707e-07
-2.52834e-07
-2.52769e-07
-2.52751e-07
-2.52737e-07
-2.52722e-07
-2.81963e-07
-2.81638e-07
-2.82289e-07
-2.8157e-07
-2.81762e-07
-2.81466e-07
-2.81476e-07
-2.81164e-07
-2.81223e-07
-2.81217e-07
-2.80953e-07
-2.81296e-07
-2.80829e-07
-2.8114e-07
-2.80719e-07
-2.80808e-07
-2.80887e-07
-2.80801e-07
-2.80836e-07
-2.80798e-07
-2.98215e-07
-2.9923e-07
-2.9605e-07
-2.98926e-07
-2.96168e-07
-2.98125e-07
-2.96562e-07
-2.97518e-07
-2.9682e-07
-2.97143e-07
-2.96864e-07
-2.96903e-07
-2.96757e-07
-2.96779e-07
-2.96705e-07
-2.96682e-07
-2.9673e-07
-2.96622e-07
-2.96641e-07
-2.96619e-07
-3.06844e-07
-3.06425e-07
-3.07362e-07
-3.06592e-07
-3.0632e-07
-3.06642e-07
-3.05962e-07
-3.06253e-07
-3.05912e-07
-3.05958e-07
-3.05593e-07
-3.06124e-07
-3.05355e-07
-3.06079e-07
-3.05331e-07
-3.05699e-07
-3.05503e-07
-3.0555e-07
-3.05539e-07
-3.05507e-07
-3.12672e-07
-3.13609e-07
-3.10219e-07
-3.12524e-07
-3.11769e-07
-3.11771e-07
-3.11775e-07
-3.11539e-07
-3.11373e-07
-3.11322e-07
-3.11271e-07
-3.11146e-07
-3.11156e-07
-3.11045e-07
-3.11009e-07
-3.1097e-07
-3.10948e-07
-3.10928e-07
-3.10917e-07
-3.10913e-07
-3.16224e-07
-3.16177e-07
-3.1598e-07
-3.15689e-07
-3.15969e-07
-3.15458e-07
-3.15699e-07
-3.15118e-07
-3.15427e-07
-3.14996e-07
-3.15118e-07
-3.15081e-07
-3.14898e-07
-3.14975e-07
-3.14893e-07
-3.14753e-07
-3.14698e-07
-3.14705e-07
-3.14745e-07
-3.14716e-07
-3.1975e-07
-3.20881e-07
-3.16944e-07
-3.19818e-07
-3.1833e-07
-3.18815e-07
-3.18783e-07
-3.18418e-07
-3.18531e-07
-3.18245e-07
-3.18273e-07
-3.18165e-07
-3.17987e-07
-3.1802e-07
-3.17968e-07
-3.17899e-07
-3.1794e-07
-3.17868e-07
-3.1788e-07
-3.17867e-07
-3.22687e-07
-3.23842e-07
-3.20009e-07
-3.23049e-07
-3.20984e-07
-3.22108e-07
-3.21431e-07
-3.21509e-07
-3.21327e-07
-3.21429e-07
-3.20983e-07
-3.2139e-07
-3.2078e-07
-3.21285e-07
-3.2076e-07
-3.21089e-07
-3.20863e-07
-3.2095e-07
-3.20885e-07
-3.20855e-07
-3.25719e-07
-3.26196e-07
-3.24514e-07
-3.25919e-07
-3.24112e-07
-3.25828e-07
-3.23523e-07
-3.25301e-07
-3.24009e-07
-3.24756e-07
-3.2425e-07
-3.24587e-07
-3.23654e-07
-3.24318e-07
-3.23806e-07
-3.23998e-07
-3.24052e-07
-3.23933e-07
-3.2398e-07
-3.23949e-07
-3.28923e-07
-3.28809e-07
-3.28843e-07
-3.28382e-07
-3.28572e-07
-3.28244e-07
-3.28199e-07
-3.27904e-07
-3.27866e-07
-3.27865e-07
-3.27519e-07
-3.27931e-07
-3.27317e-07
-3.27734e-07
-3.27279e-07
-3.27384e-07
-3.27387e-07
-3.27375e-07
-3.27363e-07
-3.27323e-07
-3.33256e-07
-3.34246e-07
-3.29826e-07
-3.33801e-07
-3.30917e-07
-3.32918e-07
-3.31133e-07
-3.31892e-07
-3.31569e-07
-3.31771e-07
-3.3123e-07
-3.31719e-07
-3.31036e-07
-3.31558e-07
-3.3102e-07
-3.31352e-07
-3.31118e-07
-3.31221e-07
-3.31144e-07
-3.31114e-07
-3.37388e-07
-3.38242e-07
-3.35422e-07
-3.38066e-07
-3.35137e-07
-3.37464e-07
-3.35286e-07
-3.36998e-07
-3.35214e-07
-3.36354e-07
-3.35507e-07
-3.35801e-07
-3.35712e-07
-3.35574e-07
-3.35659e-07
-3.35495e-07
-3.35611e-07
-3.35459e-07
-3.35491e-07
-3.35465e-07
-3.42845e-07
-3.43954e-07
-3.39e-07
-3.43606e-07
-3.40014e-07
-3.42721e-07
-3.40361e-07
-3.42206e-07
-3.40236e-07
-3.41309e-07
-3.40806e-07
-3.40971e-07
-3.40607e-07
-3.40905e-07
-3.40523e-07
-3.40737e-07
-3.4061e-07
-3.40625e-07
-3.40586e-07
-3.40554e-07
-3.4873e-07
-3.50131e-07
-3.45405e-07
-3.48973e-07
-3.47014e-07
-3.47928e-07
-3.47188e-07
-3.47372e-07
-3.47265e-07
-3.47169e-07
-3.4681e-07
-3.47012e-07
-3.46592e-07
-3.46829e-07
-3.46568e-07
-3.46679e-07
-3.46554e-07
-3.46589e-07
-3.46554e-07
-3.46554e-07
-3.5558e-07
-3.571e-07
-3.52042e-07
-3.56004e-07
-3.53706e-07
-3.55212e-07
-3.53413e-07
-3.54839e-07
-3.53211e-07
-3.54399e-07
-3.53262e-07
-3.54005e-07
-3.53304e-07
-3.53698e-07
-3.5328e-07
-3.53403e-07
-3.53468e-07
-3.53331e-07
-3.53371e-07
-3.53342e-07
-3.62022e-07
-3.62966e-07
-3.59365e-07
-3.61946e-07
-3.60802e-07
-3.6107e-07
-3.60807e-07
-3.60587e-07
-3.60618e-07
-3.6028e-07
-3.60383e-07
-3.60178e-07
-3.60156e-07
-3.60121e-07
-3.60018e-07
-3.59964e-07
-3.59979e-07
-3.59892e-07
-3.59897e-07
-3.59883e-07
-3.64081e-07
-3.64193e-07
-3.64063e-07
-3.64141e-07
-3.64111e-07
-3.64131e-07
-3.64221e-07
-3.6403e-07
-3.64184e-07
-3.64004e-07
-3.6418e-07
-3.63995e-07
-3.64194e-07
-3.64009e-07
-3.64159e-07
-3.64053e-07
-3.64114e-07
-3.64092e-07
-3.64097e-07
-3.64097e-07
)
;

boundaryField
{
    movingWall
    {
        type            calculated;
        value           nonuniform List<scalar> 
20
(
-3.64081e-07
-3.64193e-07
-3.64063e-07
-3.64141e-07
-3.64111e-07
-3.64131e-07
-3.64221e-07
-3.6403e-07
-3.64184e-07
-3.64004e-07
-3.6418e-07
-3.63995e-07
-3.64194e-07
-3.64009e-07
-3.64159e-07
-3.64053e-07
-3.64114e-07
-3.64092e-07
-3.64097e-07
-3.64097e-07
)
;
    }
    fixedWalls
    {
        type            calculated;
        value           nonuniform List<scalar> 
60
(
-9.97399e-08
-1.47702e-07
-2.07781e-07
-2.53942e-07
-2.81963e-07
-2.98215e-07
-3.06844e-07
-3.12672e-07
-3.16224e-07
-3.1975e-07
-3.22687e-07
-3.25719e-07
-3.28923e-07
-3.33256e-07
-3.37388e-07
-3.42845e-07
-3.4873e-07
-3.5558e-07
-3.62022e-07
-3.64081e-07
-9.97474e-08
-1.47379e-07
-2.07227e-07
-2.52722e-07
-2.80798e-07
-2.96619e-07
-3.05507e-07
-3.10913e-07
-3.14716e-07
-3.17867e-07
-3.20855e-07
-3.23949e-07
-3.27323e-07
-3.31114e-07
-3.35465e-07
-3.40554e-07
-3.46554e-07
-3.53342e-07
-3.59883e-07
-3.64097e-07
-9.97399e-08
-9.97761e-08
-9.9765e-08
-9.97382e-08
-9.97897e-08
-9.97247e-08
-9.97847e-08
-9.97271e-08
-9.97654e-08
-9.97412e-08
-9.97623e-08
-9.97454e-08
-9.97336e-08
-9.9768e-08
-9.97331e-08
-9.97645e-08
-9.97404e-08
-9.97533e-08
-9.97466e-08
-9.97474e-08
)
;
    }
    frontAndBack
    {
        type            empty;
    }
}


// ************************************************************************* //
