/*--------------------------------*- C++ -*----------------------------------*\
| =========                 |                                                 |
| \\      /  F ield         | OpenFOAM: The Open Source CFD Toolbox           |
|  \\    /   O peration     | Version:  2312                                  |
|   \\  /    A nd           | Website:  www.openfoam.com                      |
|    \\/     M anipulation  |                                                 |
\*---------------------------------------------------------------------------*/
FoamFile
{
    version     2.0;
    format      ascii;
    arch        "LSB;label=32;scalar=64";
    class       volScalarField;
    location    "4";
    object      kTotal;
}
// * * * * * * * * * * * * * * * * * * * * * * * * * * * * * * * * * * * * * //

dimensions      [0 2 -2 0 0 0 0];

internalField   nonuniform List<scalar> 
400
(
5.46728e-05
5.46724e-05
5.4672e-05
5.46717e-05
5.46715e-05
5.46712e-05
5.4671e-05
5.46707e-05
5.46706e-05
5.46704e-05
5.46703e-05
5.46701e-05
5.46701e-05
5.467e-05
5.467e-05
5.46699e-05
5.46699e-05
5.46698e-05
5.46698e-05
5.46698e-05
6.60659e-05
6.60659e-05
6.60491e-05
6.60427e-05
6.60314e-05
6.60252e-05
6.60156e-05
6.60101e-05
6.60026e-05
6.59974e-05
6.59912e-05
6.59871e-05
6.59828e-05
6.5979e-05
6.59766e-05
6.59736e-05
6.59723e-05
6.59709e-05
6.59703e-05
6.597e-05
8.03812e-05
8.03805e-05
8.03559e-05
8.03463e-05
8.03291e-05
8.032e-05
8.03059e-05
8.02973e-05
8.02869e-05
8.02787e-05
8.02703e-05
8.02636e-05
8.02573e-05
8.02518e-05
8.0248e-05
8.02438e-05
8.02418e-05
8.02397e-05
8.02389e-05
8.02384e-05
9.15981e-05
9.15972e-05
9.15643e-05
9.15519e-05
9.15293e-05
9.15179e-05
9.14986e-05
9.14889e-05
9.14727e-05
9.14643e-05
9.14514e-05
9.14443e-05
9.14345e-05
9.14289e-05
9.14224e-05
9.14184e-05
9.14145e-05
9.14125e-05
9.14111e-05
9.14105e-05
9.87353e-05
9.87341e-05
9.86961e-05
9.86813e-05
9.86546e-05
9.86415e-05
9.86187e-05
9.86068e-05
9.85891e-05
9.85779e-05
9.85641e-05
9.85549e-05
9.85438e-05
9.85372e-05
9.8529e-05
9.85248e-05
9.85202e-05
9.85179e-05
9.85162e-05
9.85156e-05
0.000102858
0.000102857
0.000102815
0.000102799
0.00010277
0.000102755
0.000102731
0.000102718
0.000102697
0.000102687
0.00010267
0.000102661
0.000102649
0.000102642
0.000102633
0.000102628
0.000102623
0.000102621
0.000102619
0.000102618
0.000105195
0.000105193
0.00010515
0.000105133
0.000105102
0.000105087
0.000105061
0.000105048
0.000105027
0.000105014
0.000104999
0.000104987
0.000104976
0.000104967
0.000104959
0.000104953
0.000104948
0.000104946
0.000104944
0.000104943
0.000106596
0.000106594
0.000106549
0.000106532
0.000106501
0.000106485
0.000106458
0.000106445
0.000106422
0.000106411
0.000106393
0.000106384
0.000106369
0.000106363
0.000106353
0.000106348
0.000106342
0.00010634
0.000106338
0.000106337
0.000107549
0.000107547
0.000107502
0.000107484
0.000107452
0.000107436
0.000107409
0.000107395
0.000107373
0.00010736
0.000107343
0.000107332
0.000107319
0.000107311
0.000107301
0.000107296
0.000107291
0.000107288
0.000107286
0.000107285
0.000108311
0.000108309
0.000108262
0.000108245
0.000108212
0.000108196
0.000108168
0.000108155
0.000108131
0.00010812
0.000108101
0.000108092
0.000108077
0.00010807
0.000108059
0.000108055
0.000108048
0.000108046
0.000108044
0.000108043
0.000109013
0.000109011
0.000108964
0.000108946
0.000108914
0.000108897
0.000108869
0.000108855
0.000108832
0.000108819
0.000108802
0.00010879
0.000108778
0.000108768
0.00010876
0.000108753
0.000108748
0.000108745
0.000108743
0.000108742
0.000109729
0.000109727
0.000109679
0.000109661
0.000109628
0.000109612
0.000109583
0.000109569
0.000109545
0.000109533
0.000109514
0.000109504
0.000109489
0.000109482
0.000109471
0.000109466
0.00010946
0.000109457
0.000109455
0.000109454
0.000110502
0.000110501
0.000110452
0.000110434
0.0001104
0.000110383
0.000110354
0.000110339
0.000110317
0.000110303
0.000110285
0.000110273
0.00011026
0.000110251
0.000110241
0.000110235
0.00011023
0.000110227
0.000110225
0.000110224
0.000111366
0.000111365
0.000111315
0.000111297
0.000111262
0.000111245
0.000111216
0.000111201
0.000111178
0.000111164
0.000111146
0.000111134
0.00011112
0.000111111
0.000111102
0.000111095
0.00011109
0.000111086
0.000111084
0.000111083
0.000112353
0.000112351
0.000112301
0.000112282
0.000112247
0.00011223
0.0001122
0.000112185
0.00011216
0.000112147
0.000112127
0.000112117
0.000112101
0.000112093
0.000112083
0.000112077
0.000112071
0.000112068
0.000112066
0.000112065
0.000113494
0.000113493
0.000113441
0.000113423
0.000113387
0.000113369
0.000113339
0.000113323
0.000113298
0.000113285
0.000113265
0.000113253
0.000113239
0.000113229
0.000113219
0.000113213
0.000113207
0.000113204
0.000113201
0.000113201
0.000114809
0.000114808
0.000114755
0.000114735
0.000114699
0.000114681
0.000114649
0.000114634
0.000114607
0.000114595
0.000114573
0.000114563
0.000114546
0.000114538
0.000114527
0.000114521
0.000114514
0.000114511
0.000114509
0.000114508
0.000116237
0.000116235
0.000116181
0.000116162
0.000116124
0.000116105
0.000116074
0.000116058
0.000116031
0.000116018
0.000115996
0.000115985
0.000115968
0.00011596
0.000115948
0.000115942
0.000115935
0.000115932
0.00011593
0.000115929
0.000117542
0.000117543
0.000117489
0.00011747
0.000117433
0.000117414
0.000117383
0.000117367
0.00011734
0.000117327
0.000117306
0.000117294
0.000117278
0.000117269
0.000117258
0.000117252
0.000117245
0.000117242
0.000117239
0.000117238
0.00011806
0.000118059
0.000118058
0.000118058
0.000118057
0.000118057
0.000118056
0.000118056
0.000118056
0.000118055
0.000118055
0.000118054
0.000118055
0.000118054
0.000118055
0.000118054
0.000118054
0.000118054
0.000118054
0.000118054
)
;

boundaryField
{
    movingWall
    {
        type            calculated;
        value           nonuniform List<scalar> 
20
(
0.00011806
0.000118059
0.000118058
0.000118058
0.000118057
0.000118057
0.000118056
0.000118056
0.000118056
0.000118055
0.000118055
0.000118054
0.000118055
0.000118054
0.000118055
0.000118054
0.000118054
0.000118054
0.000118054
0.000118054
)
;
    }
    fixedWalls
    {
        type            calculated;
        value           nonuniform List<scalar> 
60
(
5.46728e-05
6.60659e-05
8.03812e-05
9.15981e-05
9.87353e-05
0.000102858
0.000105195
0.000106596
0.000107549
0.000108311
0.000109013
0.000109729
0.000110502
0.000111366
0.000112353
0.000113494
0.000114809
0.000116237
0.000117542
0.00011806
5.46698e-05
6.597e-05
8.02384e-05
9.14105e-05
9.85156e-05
0.000102618
0.000104943
0.000106337
0.000107285
0.000108043
0.000108742
0.000109454
0.000110224
0.000111083
0.000112065
0.000113201
0.000114508
0.000115929
0.000117238
0.000118054
5.46728e-05
5.46724e-05
5.4672e-05
5.46717e-05
5.46715e-05
5.46712e-05
5.4671e-05
5.46707e-05
5.46706e-05
5.46704e-05
5.46703e-05
5.46701e-05
5.46701e-05
5.467e-05
5.467e-05
5.46699e-05
5.46699e-05
5.46698e-05
5.46698e-05
5.46698e-05
)
;
    }
    frontAndBack
    {
        type            empty;
    }
}


// ************************************************************************* //
