/*--------------------------------*- C++ -*----------------------------------*\
| =========                 |                                                 |
| \\      /  F ield         | OpenFOAM: The Open Source CFD Toolbox           |
|  \\    /   O peration     | Version:  2312                                  |
|   \\  /    A nd           | Website:  www.openfoam.com                      |
|    \\/     M anipulation  |                                                 |
\*---------------------------------------------------------------------------*/
FoamFile
{
    version     2.0;
    format      ascii;
    arch        "LSB;label=32;scalar=64";
    class       volVectorField;
    location    "4";
    object      kU;
}
// * * * * * * * * * * * * * * * * * * * * * * * * * * * * * * * * * * * * * //

dimensions      [0 3 -3 0 0 0 0];

internalField   nonuniform List<vector> 
400
(
(-2.72865e-05 1.69061e-12 0)
(-2.72863e-05 -4.0099e-13 0)
(-2.72861e-05 9.52185e-14 0)
(-2.7286e-05 -2.25765e-14 0)
(-2.72859e-05 5.36772e-15 0)
(-2.72857e-05 -1.26932e-15 0)
(-2.72856e-05 3.03912e-16 0)
(-2.72855e-05 -7.06421e-17 0)
(-2.72854e-05 1.77011e-17 0)
(-2.72853e-05 -3.59733e-18 0)
(-2.72853e-05 1.2665e-18 0)
(-2.72852e-05 -1.11603e-20 0)
(-2.72852e-05 2.11146e-19 0)
(-2.72851e-05 1.0301e-19 0)
(-2.72851e-05 8.60239e-20 0)
(-2.72851e-05 6.02233e-20 0)
(-2.72851e-05 4.63369e-20 0)
(-2.7285e-05 3.44542e-20 0)
(-2.7285e-05 2.24127e-20 0)
(-2.7285e-05 1.27301e-21 0)
(-3.29591e-05 -2.04151e-12 0)
(-3.29592e-05 4.84139e-13 0)
(-3.29505e-05 -1.14642e-13 0)
(-3.29475e-05 2.72175e-14 0)
(-3.29418e-05 -6.41673e-15 0)
(-3.29387e-05 1.53327e-15 0)
(-3.29341e-05 -3.54601e-16 0)
(-3.29312e-05 8.86258e-17 0)
(-3.29276e-05 -1.78489e-17 0)
(-3.29248e-05 6.25845e-18 0)
(-3.2922e-05 -6.0117e-20 0)
(-3.29197e-05 1.01692e-18 0)
(-3.29178e-05 4.891e-19 0)
(-3.29157e-05 4.20508e-19 0)
(-3.29147e-05 2.94027e-19 0)
(-3.2913e-05 2.20467e-19 0)
(-3.29125e-05 1.66144e-19 0)
(-3.29117e-05 1.2891e-19 0)
(-3.29115e-05 6.98979e-20 0)
(-3.29113e-05 3.29729e-22 0)
(-4.00867e-05 2.48053e-12 0)
(-4.00866e-05 -5.87515e-13 0)
(-4.00735e-05 1.39326e-13 0)
(-4.00693e-05 -3.29603e-14 0)
(-4.00606e-05 7.83563e-15 0)
(-4.00561e-05 -1.83807e-15 0)
(-4.00492e-05 4.46998e-16 0)
(-4.00448e-05 -9.80914e-17 0)
(-4.00399e-05 2.84335e-17 0)
(-4.00354e-05 -3.12563e-18 0)
(-4.00317e-05 3.28903e-18 0)
(-4.00279e-05 1.06969e-18 0)
(-4.00251e-05 1.11353e-18 0)
(-4.00221e-05 7.53845e-19 0)
(-4.00205e-05 5.77913e-19 0)
(-4.00182e-05 4.23906e-19 0)
(-4.00174e-05 3.22108e-19 0)
(-4.00162e-05 2.44898e-19 0)
(-4.00158e-05 1.30901e-19 0)
(-4.00156e-05 -2.26083e-21 0)
(-4.56721e-05 -2.82453e-12 0)
(-4.56712e-05 6.68408e-13 0)
(-4.56561e-05 -1.58394e-13 0)
(-4.56486e-05 3.75062e-14 0)
(-4.56386e-05 -8.8548e-15 0)
(-4.56318e-05 2.11357e-15 0)
(-4.56232e-05 -4.87109e-16 0)
(-4.56176e-05 1.24223e-16 0)
(-4.561e-05 -2.28855e-17 0)
(-4.56055e-05 1.00933e-17 0)
(-4.55993e-05 1.06122e-18 0)
(-4.55956e-05 2.31223e-18 0)
(-4.55909e-05 1.38526e-18 0)
(-4.5588e-05 1.12482e-18 0)
(-4.55848e-05 8.24007e-19 0)
(-4.55828e-05 6.19558e-19 0)
(-4.55809e-05 4.76047e-19 0)
(-4.55799e-05 3.70163e-19 0)
(-4.55792e-05 1.98558e-19 0)
(-4.55789e-05 -8.78358e-22 0)
(-4.92267e-05 3.04307e-12 0)
(-4.92262e-05 -7.1983e-13 0)
(-4.92069e-05 1.70606e-13 0)
(-4.91999e-05 -4.03392e-14 0)
(-4.91864e-05 9.56218e-15 0)
(-4.918e-05 -2.24989e-15 0)
(-4.91686e-05 5.42905e-16 0)
(-4.91628e-05 -1.19735e-16 0)
(-4.91539e-05 3.49604e-17 0)
(-4.91484e-05 -3.17047e-18 0)
(-4.91416e-05 4.63495e-18 0)
(-4.91368e-05 1.88212e-18 0)
(-4.91315e-05 1.84163e-18 0)
(-4.9128e-05 1.31205e-18 0)
(-4.91241e-05 1.02093e-18 0)
(-4.9122e-05 7.68567e-19 0)
(-4.91197e-05 6.01854e-19 0)
(-4.91185e-05 4.7212e-19 0)
(-4.91177e-05 2.55173e-19 0)
(-4.91174e-05 -3.10751e-21 0)
(-5.12798e-05 -3.17e-12 0)
(-5.12787e-05 7.49761e-13 0)
(-5.12594e-05 -1.77675e-13 0)
(-5.125e-05 4.20294e-14 0)
(-5.12369e-05 -9.93485e-15 0)
(-5.12287e-05 2.36196e-15 0)
(-5.12171e-05 -5.49102e-16 0)
(-5.12104e-05 1.37458e-16 0)
(-5.12003e-05 -2.63253e-17 0)
(-5.11949e-05 1.11317e-17 0)
(-5.11866e-05 1.27092e-18 0)
(-5.11822e-05 2.77242e-18 0)
(-5.1176e-05 1.75994e-18 0)
(-5.11725e-05 1.46824e-18 0)
(-5.11682e-05 1.1115e-18 0)
(-5.11658e-05 8.62603e-19 0)
(-5.11632e-05 6.84654e-19 0)
(-5.1162e-05 5.48226e-19 0)
(-5.11611e-05 2.95163e-19 0)
(-5.11608e-05 -9.27664e-21 0)
(-5.24438e-05 3.24309e-12 0)
(-5.24433e-05 -7.67184e-13 0)
(-5.24212e-05 1.8181e-13 0)
(-5.24131e-05 -4.2999e-14 0)
(-5.2398e-05 1.01839e-14 0)
(-5.23903e-05 -2.40343e-15 0)
(-5.23775e-05 5.75146e-16 0)
(-5.23707e-05 -1.29857e-16 0)
(-5.23603e-05 3.60006e-17 0)
(-5.2354e-05 -4.08378e-18 0)
(-5.23466e-05 4.5882e-18 0)
(-5.23406e-05 1.85504e-18 0)
(-5.23353e-05 1.92666e-18 0)
(-5.23306e-05 1.42577e-18 0)
(-5.23267e-05 1.14171e-18 0)
(-5.23238e-05 8.86777e-19 0)
(-5.23214e-05 7.22562e-19 0)
(-5.232e-05 5.93857e-19 0)
(-5.23191e-05 3.21156e-19 0)
(-5.23187e-05 -1.73926e-20 0)
(-5.31415e-05 -3.28881e-12 0)
(-5.31403e-05 7.78202e-13 0)
(-5.31193e-05 -1.84427e-13 0)
(-5.31099e-05 4.36364e-14 0)
(-5.30944e-05 -1.03253e-14 0)
(-5.30867e-05 2.44996e-15 0)
(-5.30731e-05 -5.74105e-16 0)
(-5.30667e-05 1.40764e-16 0)
(-5.30554e-05 -2.89101e-17 0)
(-5.305e-05 1.06147e-17 0)
(-5.30407e-05 6.86227e-19 0)
(-5.30363e-05 2.49512e-18 0)
(-5.30291e-05 1.60956e-18 0)
(-5.30258e-05 1.40936e-18 0)
(-5.30208e-05 1.09625e-18 0)
(-5.30185e-05 8.68903e-19 0)
(-5.30156e-05 7.11861e-19 0)
(-5.30144e-05 5.97631e-19 0)
(-5.30133e-05 3.21061e-19 0)
(-5.3013e-05 -2.98725e-20 0)
(-5.36163e-05 3.32196e-12 0)
(-5.36156e-05 -7.86395e-13 0)
(-5.35928e-05 1.86372e-13 0)
(-5.35841e-05 -4.41116e-14 0)
(-5.35681e-05 1.04483e-14 0)
(-5.35604e-05 -2.47113e-15 0)
(-5.35467e-05 5.88485e-16 0)
(-5.35398e-05 -1.35594e-16 0)
(-5.35288e-05 3.55624e-17 0)
(-5.35225e-05 -5.29156e-18 0)
(-5.35141e-05 3.97032e-18 0)
(-5.35086e-05 1.38351e-18 0)
(-5.35021e-05 1.63795e-18 0)
(-5.34981e-05 1.24061e-18 0)
(-5.34932e-05 1.02906e-18 0)
(-5.34907e-05 8.1353e-19 0)
(-5.34879e-05 6.77247e-19 0)
(-5.34866e-05 5.78212e-19 0)
(-5.34856e-05 3.05047e-19 0)
(-5.34852e-05 -4.76545e-20 0)
(-5.39954e-05 -3.35042e-12 0)
(-5.39941e-05 7.93501e-13 0)
(-5.39726e-05 -1.88071e-13 0)
(-5.39626e-05 4.4536e-14 0)
(-5.39469e-05 -1.05479e-14 0)
(-5.39388e-05 2.50144e-15 0)
(-5.39247e-05 -5.89493e-16 0)
(-5.39182e-05 1.42429e-16 0)
(-5.39062e-05 -3.10391e-17 0)
(-5.39008e-05 9.82624e-18 0)
(-5.38911e-05 -1.02759e-19 0)
(-5.38867e-05 1.98312e-18 0)
(-5.38793e-05 1.22364e-18 0)
(-5.38759e-05 1.13111e-18 0)
(-5.38707e-05 9.05325e-19 0)
(-5.38683e-05 7.43157e-19 0)
(-5.38653e-05 6.30187e-19 0)
(-5.3864e-05 5.48808e-19 0)
(-5.38629e-05 2.84686e-19 0)
(-5.38626e-05 -6.26646e-20 0)
(-5.43451e-05 3.37801e-12 0)
(-5.43438e-05 -8.00488e-13 0)
(-5.43221e-05 1.89736e-13 0)
(-5.43117e-05 -4.49544e-14 0)
(-5.42963e-05 1.06539e-14 0)
(-5.42875e-05 -2.5236e-15 0)
(-5.42738e-05 5.99726e-16 0)
(-5.42666e-05 -1.40175e-16 0)
(-5.42555e-05 3.5188e-17 0)
(-5.42487e-05 -6.44661e-18 0)
(-5.42405e-05 3.28335e-18 0)
(-5.42344e-05 8.16917e-19 0)
(-5.42285e-05 1.22755e-18 0)
(-5.42235e-05 9.27308e-19 0)
(-5.42195e-05 7.93432e-19 0)
(-5.42161e-05 6.47439e-19 0)
(-5.42137e-05 5.61994e-19 0)
(-5.4212e-05 4.97794e-19 0)
(-5.4211e-05 2.54061e-19 0)
(-5.42106e-05 -7.29934e-20 0)
(-5.47016e-05 -3.40685e-12 0)
(-5.47005e-05 8.07801e-13 0)
(-5.46775e-05 -1.91476e-13 0)
(-5.46675e-05 4.53946e-14 0)
(-5.4652e-05 -1.07607e-14 0)
(-5.4643e-05 2.5524e-15 0)
(-5.46299e-05 -6.04019e-16 0)
(-5.46221e-05 1.44516e-16 0)
(-5.46106e-05 -3.29132e-17 0)
(-5.46043e-05 9.17001e-18 0)
(-5.45946e-05 -8.58447e-19 0)
(-5.45896e-05 1.43935e-18 0)
(-5.45826e-05 7.96962e-19 0)
(-5.45787e-05 8.09542e-19 0)
(-5.45736e-05 6.50565e-19 0)
(-5.45711e-05 5.47369e-19 0)
(-5.4568e-05 4.85465e-19 0)
(-5.45667e-05 4.44198e-19 0)
(-5.45656e-05 2.22184e-19 0)
(-5.45652e-05 -8.17835e-20 0)
(-5.50867e-05 3.43798e-12 0)
(-5.5086e-05 -8.15676e-13 0)
(-5.50617e-05 1.93351e-13 0)
(-5.50526e-05 -4.58666e-14 0)
(-5.50358e-05 1.08775e-14 0)
(-5.50275e-05 -2.57994e-15 0)
(-5.50132e-05 6.12585e-16 0)
(-5.50057e-05 -1.44699e-16 0)
(-5.49944e-05 3.51271e-17 0)
(-5.49873e-05 -7.47535e-18 0)
(-5.49788e-05 2.66349e-18 0)
(-5.49726e-05 2.48696e-19 0)
(-5.49662e-05 7.82368e-19 0)
(-5.49615e-05 5.75005e-19 0)
(-5.49569e-05 5.26619e-19 0)
(-5.49539e-05 4.49988e-19 0)
(-5.49512e-05 4.22443e-19 0)
(-5.49496e-05 4.01108e-19 0)
(-5.49486e-05 1.91494e-19 0)
(-5.49482e-05 -8.91356e-20 0)
(-5.55164e-05 -3.4722e-12 0)
(-5.55155e-05 8.24291e-13 0)
(-5.54926e-05 -1.9541e-13 0)
(-5.54815e-05 4.63807e-14 0)
(-5.54658e-05 -1.10043e-14 0)
(-5.54561e-05 2.6109e-15 0)
(-5.54424e-05 -6.20127e-16 0)
(-5.54345e-05 1.47244e-16 0)
(-5.54231e-05 -3.47268e-17 0)
(-5.54159e-05 8.6656e-18 0)
(-5.54073e-05 -1.53982e-18 0)
(-5.54009e-05 9.42773e-19 0)
(-5.53946e-05 3.68025e-19 0)
(-5.53896e-05 4.76374e-19 0)
(-5.53853e-05 3.96398e-19 0)
(-5.53818e-05 3.58282e-19 0)
(-5.53793e-05 3.50906e-19 0)
(-5.53775e-05 3.50942e-19 0)
(-5.53765e-05 1.65468e-19 0)
(-5.53761e-05 -9.63806e-20 0)
(-5.60076e-05 3.51022e-12 0)
(-5.60064e-05 -8.33757e-13 0)
(-5.59828e-05 1.97663e-13 0)
(-5.59718e-05 -4.69407e-14 0)
(-5.59559e-05 1.11393e-14 0)
(-5.59461e-05 -2.64553e-15 0)
(-5.59324e-05 6.27531e-16 0)
(-5.5924e-05 -1.4963e-16 0)
(-5.59123e-05 3.53085e-17 0)
(-5.59055e-05 -8.38485e-18 0)
(-5.58957e-05 2.19045e-18 0)
(-5.58905e-05 -2.08577e-19 0)
(-5.58828e-05 4.35714e-19 0)
(-5.58789e-05 2.90154e-19 0)
(-5.58734e-05 3.06868e-19 0)
(-5.58708e-05 2.71569e-19 0)
(-5.58675e-05 2.83299e-19 0)
(-5.58662e-05 2.94051e-19 0)
(-5.5865e-05 1.31613e-19 0)
(-5.58646e-05 -9.86066e-20 0)
(-5.65757e-05 -3.55275e-12 0)
(-5.65747e-05 8.443e-13 0)
(-5.65512e-05 -2.00179e-13 0)
(-5.65395e-05 4.75562e-14 0)
(-5.65235e-05 -1.12942e-14 0)
(-5.65132e-05 2.67926e-15 0)
(-5.64993e-05 -6.38806e-16 0)
(-5.64905e-05 1.50578e-16 0)
(-5.64787e-05 -3.65016e-17 0)
(-5.64716e-05 8.37533e-18 0)
(-5.64619e-05 -2.05368e-18 0)
(-5.6456e-05 5.95417e-19 0)
(-5.6449e-05 6.93662e-20 0)
(-5.64441e-05 2.30452e-19 0)
(-5.64394e-05 1.97995e-19 0)
(-5.6436e-05 1.97844e-19 0)
(-5.64332e-05 2.13904e-19 0)
(-5.64315e-05 2.26882e-19 0)
(-5.64305e-05 9.77511e-20 0)
(-5.643e-05 -8.98698e-20 0)
(-5.72303e-05 3.60011e-12 0)
(-5.72288e-05 -8.55876e-13 0)
(-5.72047e-05 2.0292e-13 0)
(-5.71932e-05 -4.82324e-14 0)
(-5.71758e-05 1.14479e-14 0)
(-5.71664e-05 -2.72299e-15 0)
(-5.7151e-05 6.44727e-16 0)
(-5.71433e-05 -1.54949e-16 0)
(-5.713e-05 3.58284e-17 0)
(-5.71237e-05 -9.08288e-18 0)
(-5.71131e-05 1.91171e-18 0)
(-5.71078e-05 -4.99093e-19 0)
(-5.70998e-05 1.9607e-19 0)
(-5.70957e-05 8.88317e-20 0)
(-5.709e-05 1.3032e-19 0)
(-5.70873e-05 1.21593e-19 0)
(-5.70839e-05 1.48957e-19 0)
(-5.70824e-05 1.76285e-19 0)
(-5.70813e-05 7.82537e-20 0)
(-5.70808e-05 -7.30713e-20 0)
(-5.79408e-05 -3.65003e-12 0)
(-5.79392e-05 8.68021e-13 0)
(-5.79147e-05 -2.05865e-13 0)
(-5.79028e-05 4.89235e-14 0)
(-5.78852e-05 -1.16334e-14 0)
(-5.78751e-05 2.75889e-15 0)
(-5.78601e-05 -6.59684e-16 0)
(-5.78514e-05 1.55069e-16 0)
(-5.78388e-05 -3.80289e-17 0)
(-5.78316e-05 8.4474e-18 0)
(-5.78212e-05 -2.32938e-18 0)
(-5.78155e-05 4.43555e-19 0)
(-5.78073e-05 -9.48296e-20 0)
(-5.78031e-05 9.53943e-20 0)
(-5.77973e-05 7.18128e-20 0)
(-5.77945e-05 9.07383e-20 0)
(-5.77909e-05 1.12592e-19 0)
(-5.77895e-05 1.33033e-19 0)
(-5.77883e-05 5.48672e-20 0)
(-5.77878e-05 -6.23582e-20 0)
(-5.85902e-05 3.69527e-12 0)
(-5.85899e-05 -8.79039e-13 0)
(-5.85649e-05 2.08341e-13 0)
(-5.85538e-05 -4.95159e-14 0)
(-5.85359e-05 1.17496e-14 0)
(-5.85267e-05 -2.79226e-15 0)
(-5.85109e-05 6.60897e-16 0)
(-5.85032e-05 -1.5831e-16 0)
(-5.84899e-05 3.67826e-17 0)
(-5.84832e-05 -9.17588e-18 0)
(-5.84728e-05 1.95438e-18 0)
(-5.84669e-05 -5.61818e-19 0)
(-5.84591e-05 1.18e-19 0)
(-5.84545e-05 -1.55786e-21 0)
(-5.84489e-05 4.50669e-20 0)
(-5.84459e-05 4.74763e-20 0)
(-5.84425e-05 6.82622e-20 0)
(-5.84409e-05 8.90882e-20 0)
(-5.84397e-05 3.32428e-20 0)
(-5.84393e-05 -5.08205e-20 0)
(-5.88481e-05 -3.71514e-12 0)
(-5.88474e-05 8.85268e-13 0)
(-5.88472e-05 -2.10183e-13 0)
(-5.88467e-05 5.00551e-14 0)
(-5.88465e-05 -1.19262e-14 0)
(-5.88462e-05 2.83694e-15 0)
(-5.8846e-05 -6.78246e-16 0)
(-5.88458e-05 1.61274e-16 0)
(-5.88457e-05 -3.88201e-17 0)
(-5.88454e-05 9.13762e-18 0)
(-5.88454e-05 -2.26796e-18 0)
(-5.88452e-05 5.04459e-19 0)
(-5.88453e-05 -1.38306e-19 0)
(-5.88451e-05 3.13441e-20 0)
(-5.88452e-05 -3.23232e-21 0)
(-5.88451e-05 9.35989e-21 0)
(-5.88451e-05 1.63855e-20 0)
(-5.88451e-05 3.08878e-20 0)
(-5.88451e-05 1.50977e-20 0)
(-5.88451e-05 -2.0542e-20 0)
)
;

boundaryField
{
    movingWall
    {
        type            calculated;
        value           nonuniform List<vector> 
20
(
(-5.88481e-05 -0 -0)
(-5.88474e-05 -0 -0)
(-5.88472e-05 -0 -0)
(-5.88467e-05 -0 -0)
(-5.88465e-05 -0 -0)
(-5.88462e-05 -0 -0)
(-5.8846e-05 -0 -0)
(-5.88458e-05 -0 -0)
(-5.88457e-05 -0 -0)
(-5.88454e-05 -0 -0)
(-5.88454e-05 -0 -0)
(-5.88452e-05 -0 -0)
(-5.88453e-05 -0 -0)
(-5.88451e-05 -0 -0)
(-5.88452e-05 -0 -0)
(-5.88451e-05 -0 -0)
(-5.88451e-05 -0 -0)
(-5.88451e-05 -0 -0)
(-5.88451e-05 -0 -0)
(-5.88451e-05 -0 -0)
)
;
    }
    fixedWalls
    {
        type            calculated;
        value           nonuniform List<vector> 
60
(
(-2.72865e-05 -0 -0)
(-3.29591e-05 -0 -0)
(-4.00867e-05 -0 -0)
(-4.56721e-05 -0 -0)
(-4.92267e-05 -0 -0)
(-5.12798e-05 -0 -0)
(-5.24438e-05 -0 -0)
(-5.31415e-05 -0 -0)
(-5.36163e-05 -0 -0)
(-5.39954e-05 -0 -0)
(-5.43451e-05 -0 -0)
(-5.47016e-05 -0 -0)
(-5.50867e-05 -0 -0)
(-5.55164e-05 -0 -0)
(-5.60076e-05 -0 -0)
(-5.65757e-05 -0 -0)
(-5.72303e-05 -0 -0)
(-5.79408e-05 -0 -0)
(-5.85902e-05 -0 -0)
(-5.88481e-05 -0 -0)
(-2.7285e-05 -0 -0)
(-3.29113e-05 -0 -0)
(-4.00156e-05 -0 -0)
(-4.55789e-05 -0 -0)
(-4.91174e-05 -0 -0)
(-5.11608e-05 -0 -0)
(-5.23187e-05 -0 -0)
(-5.3013e-05 -0 -0)
(-5.34852e-05 -0 -0)
(-5.38626e-05 -0 -0)
(-5.42106e-05 -0 -0)
(-5.45652e-05 -0 -0)
(-5.49482e-05 -0 -0)
(-5.53761e-05 -0 -0)
(-5.58646e-05 -0 -0)
(-5.643e-05 -0 -0)
(-5.70808e-05 -0 -0)
(-5.77878e-05 -0 -0)
(-5.84393e-05 -0 -0)
(-5.88451e-05 -0 -0)
(-2.72865e-05 -0 -0)
(-2.72863e-05 -0 -0)
(-2.72861e-05 -0 -0)
(-2.7286e-05 -0 -0)
(-2.72859e-05 -0 -0)
(-2.72857e-05 -0 -0)
(-2.72856e-05 -0 -0)
(-2.72855e-05 -0 -0)
(-2.72854e-05 -0 -0)
(-2.72853e-05 -0 -0)
(-2.72853e-05 -0 -0)
(-2.72852e-05 -0 -0)
(-2.72852e-05 -0 -0)
(-2.72851e-05 -0 -0)
(-2.72851e-05 -0 -0)
(-2.72851e-05 -0 -0)
(-2.72851e-05 -0 -0)
(-2.7285e-05 -0 -0)
(-2.7285e-05 -0 -0)
(-2.7285e-05 -0 -0)
)
;
    }
    frontAndBack
    {
        type            empty;
    }
}


// ************************************************************************* //
