/*--------------------------------*- C++ -*----------------------------------*\
| =========                 |                                                 |
| \\      /  F ield         | OpenFOAM: The Open Source CFD Toolbox           |
|  \\    /   O peration     | Version:  2312                                  |
|   \\  /    A nd           | Website:  www.openfoam.com                      |
|    \\/     M anipulation  |                                                 |
\*---------------------------------------------------------------------------*/
FoamFile
{
    version     2.0;
    format      ascii;
    arch        "LSB;label=32;scalar=64";
    class       volTensorField;
    location    "4";
    object      kU2;
}
// * * * * * * * * * * * * * * * * * * * * * * * * * * * * * * * * * * * * * //

dimensions      [0 4 -4 0 0 0 0];

internalField   nonuniform List<tensor> 
400
(
(2.72865e-05 -1.71681e-12 -0 -1.69061e-12 1.0637e-19 0 -0 0 0)
(2.72863e-05 4.07184e-13 -0 4.0099e-13 5.98384e-21 -0 -0 -0 0)
(2.72861e-05 -9.66871e-14 -0 -9.52185e-14 3.37402e-22 0 -0 0 0)
(2.7286e-05 2.2924e-14 -0 2.25765e-14 1.89673e-23 -0 -0 -0 0)
(2.72859e-05 -5.44987e-15 -0 -5.36772e-15 1.07211e-24 0 -0 0 0)
(2.72857e-05 1.28877e-15 -0 1.26932e-15 5.99528e-26 -0 -0 -0 0)
(2.72856e-05 -3.08499e-16 -0 -3.03912e-16 3.43612e-27 0 -0 0 0)
(2.72855e-05 7.17331e-17 -0 7.06421e-17 1.85717e-28 -0 -0 -0 0)
(2.72854e-05 -1.79499e-17 -0 -1.77011e-17 1.16448e-29 0 -0 0 0)
(2.72853e-05 3.66225e-18 -0 3.59733e-18 4.82836e-31 -0 -0 -0 0)
(2.72853e-05 -1.27746e-18 -0 -1.2665e-18 5.9296e-32 0 -0 0 0)
(2.72852e-05 1.8236e-20 -0 1.11603e-20 7.45899e-36 -0 -0 -0 0)
(2.72852e-05 -2.09744e-19 -0 -2.11146e-19 1.6231e-33 0 -0 0 0)
(2.72851e-05 -1.01448e-19 -0 -1.0301e-19 3.83e-34 0 -0 0 0)
(2.72851e-05 -8.77328e-20 -0 -8.60239e-20 2.76602e-34 0 -0 0 0)
(2.72851e-05 -6.01573e-20 -0 -6.02233e-20 1.32779e-34 0 -0 0 0)
(2.72851e-05 -4.41228e-20 -0 -4.63369e-20 7.49315e-35 0 -0 0 0)
(2.7285e-05 -3.4497e-20 -0 -3.44542e-20 4.35611e-35 0 -0 0 0)
(2.7285e-05 -2.45025e-20 -0 -2.24127e-20 2.0127e-35 0 -0 0 0)
(2.7285e-05 1.51594e-20 -0 -1.27301e-21 -7.07277e-37 0 -0 -0 0)
(3.29591e-05 2.07316e-12 -0 2.04151e-12 1.28413e-19 -0 -0 -0 0)
(3.29592e-05 -4.9161e-13 -0 -4.84139e-13 7.22128e-21 0 -0 0 0)
(3.29505e-05 1.16411e-13 -0 1.14642e-13 4.0502e-22 -0 -0 -0 0)
(3.29475e-05 -2.76349e-14 -0 -2.72175e-14 2.28287e-23 0 -0 0 0)
(3.29418e-05 6.51509e-15 -0 6.41673e-15 1.26907e-24 -0 -0 -0 0)
(3.29387e-05 -1.55646e-15 -0 -1.53327e-15 7.24522e-26 0 -0 0 0)
(3.29341e-05 3.6009e-16 -0 3.54601e-16 3.87709e-27 -0 -0 -0 0)
(3.29312e-05 -8.98779e-17 -0 -8.86258e-17 2.41883e-28 0 -0 0 0)
(3.29276e-05 1.81738e-17 -0 1.78489e-17 9.85134e-30 -0 -0 -0 0)
(3.29248e-05 -6.31335e-18 -0 -6.25845e-18 1.20006e-30 0 -0 0 0)
(3.2922e-05 8.85339e-20 -0 6.0117e-20 1.61667e-34 -0 -0 -0 0)
(3.29197e-05 -1.00898e-18 -0 -1.01692e-18 3.11681e-32 0 -0 0 0)
(3.29178e-05 -4.79578e-19 -0 -4.891e-19 7.12569e-33 0 -0 0 0)
(3.29157e-05 -4.14303e-19 -0 -4.20508e-19 5.29285e-33 0 -0 0 0)
(3.29147e-05 -2.94561e-19 -0 -2.94027e-19 2.63132e-33 0 -0 0 0)
(3.2913e-05 -2.19954e-19 -0 -2.20467e-19 1.47336e-33 0 -0 0 0)
(3.29125e-05 -1.59373e-19 -0 -1.66144e-19 8.04524e-34 0 -0 0 0)
(3.29117e-05 -1.26662e-19 -0 -1.2891e-19 4.96114e-34 0 -0 0 0)
(3.29115e-05 -8.18681e-20 -0 -6.98979e-20 1.73873e-34 0 -0 0 0)
(3.29113e-05 5.24896e-20 -0 -3.29729e-22 -5.25878e-37 0 -0 -0 0)
(4.00867e-05 -2.51905e-12 -0 -2.48053e-12 1.55876e-19 0 -0 0 0)
(4.00866e-05 5.96595e-13 -0 5.87515e-13 8.74377e-21 -0 -0 -0 0)
(4.00735e-05 -1.41477e-13 -0 -1.39326e-13 4.91881e-22 0 -0 0 0)
(4.00693e-05 3.34672e-14 -0 3.29603e-14 2.75295e-23 -0 -0 -0 0)
(4.00606e-05 -7.95511e-15 -0 -7.83563e-15 1.55597e-24 0 -0 0 0)
(4.00561e-05 1.8664e-15 -0 1.83807e-15 8.56442e-26 -0 -0 -0 0)
(4.00492e-05 -4.53553e-16 -0 -4.46998e-16 5.06221e-27 0 -0 0 0)
(4.00448e-05 9.97243e-17 -0 9.80914e-17 2.44278e-28 -0 -0 -0 0)
(4.00399e-05 -2.87486e-17 -0 -2.84335e-17 2.04152e-29 0 -0 0 0)
(4.00354e-05 3.24713e-18 -0 3.12563e-18 2.53509e-31 -0 -0 -0 0)
(4.00317e-05 -3.28137e-18 -0 -3.28903e-18 2.696e-31 0 -0 0 0)
(4.00279e-05 -1.03911e-18 -0 -1.06969e-18 2.77689e-32 0 -0 0 0)
(4.00251e-05 -1.09322e-18 -0 -1.11353e-18 3.04143e-32 0 -0 0 0)
(4.00221e-05 -7.44408e-19 -0 -7.53845e-19 1.40214e-32 0 -0 0 0)
(4.00205e-05 -5.78613e-19 -0 -5.77913e-19 8.35542e-33 0 -0 0 0)
(4.00182e-05 -4.24419e-19 -0 -4.23906e-19 4.4958e-33 0 -0 0 0)
(4.00174e-05 -3.11966e-19 -0 -3.22108e-19 2.51108e-33 0 -0 0 0)
(4.00162e-05 -2.40349e-19 -0 -2.44898e-19 1.47093e-33 0 -0 0 0)
(4.00158e-05 -1.55767e-19 -0 -1.30901e-19 5.09552e-34 0 -0 0 0)
(4.00156e-05 1.04095e-19 -0 2.26083e-21 5.8812e-36 -0 -0 -0 0)
(4.56721e-05 2.86845e-12 -0 2.82453e-12 1.77396e-19 -0 -0 -0 0)
(4.56712e-05 -6.78747e-13 -0 -6.68408e-13 9.93362e-21 0 -0 0 0)
(4.56561e-05 1.60843e-13 -0 1.58394e-13 5.5801e-22 -0 -0 -0 0)
(4.56486e-05 -3.80819e-14 -0 -3.75062e-14 3.12892e-23 0 -0 0 0)
(4.56386e-05 8.99099e-15 -0 8.8548e-15 1.74443e-24 -0 -0 -0 0)
(4.56318e-05 -2.14541e-15 -0 -2.11357e-15 9.93705e-26 0 -0 0 0)
(4.56232e-05 4.94792e-16 -0 4.87109e-16 5.28278e-27 -0 -0 -0 0)
(4.56176e-05 -1.25877e-16 -0 -1.24223e-16 3.42781e-28 0 -0 0 0)
(4.561e-05 2.33886e-17 -0 2.28855e-17 1.17355e-29 -0 -0 -0 0)
(4.56055e-05 -1.01273e-17 -0 -1.00933e-17 2.24135e-30 0 -0 0 0)
(4.55993e-05 -9.91698e-19 -0 -1.06122e-18 2.30795e-32 0 -0 0 0)
(4.55956e-05 -2.27937e-18 -0 -2.31223e-18 1.15591e-31 0 -0 0 0)
(4.55909e-05 -1.35765e-18 -0 -1.38526e-18 4.12518e-32 0 -0 0 0)
(4.5588e-05 -1.11983e-18 -0 -1.12482e-18 2.76301e-32 0 -0 0 0)
(4.55848e-05 -8.27638e-19 -0 -8.24007e-19 1.49607e-32 0 -0 0 0)
(4.55828e-05 -6.20349e-19 -0 -6.19558e-19 8.43174e-33 0 -0 0 0)
(4.55809e-05 -4.59274e-19 -0 -4.76047e-19 4.79666e-33 0 -0 0 0)
(4.55799e-05 -3.6121e-19 -0 -3.70163e-19 2.93345e-33 0 -0 0 0)
(4.55792e-05 -2.35293e-19 -0 -1.98558e-19 1.02501e-33 0 -0 0 0)
(4.55789e-05 1.64755e-19 -0 8.78358e-22 3.17503e-36 -0 -0 -0 0)
(4.92267e-05 -3.09049e-12 -0 -3.04307e-12 1.91046e-19 0 -0 0 0)
(4.92262e-05 7.30996e-13 -0 7.1983e-13 1.06893e-20 -0 -0 -0 0)
(4.92069e-05 -1.73249e-13 -0 -1.70606e-13 6.00672e-22 0 -0 0 0)
(4.91999e-05 4.09617e-14 -0 4.03392e-14 3.35846e-23 -0 -0 -0 0)
(4.91864e-05 -9.70844e-15 -0 -9.56218e-15 1.88739e-24 0 -0 0 0)
(4.918e-05 2.28479e-15 -0 2.24989e-15 1.04525e-25 -0 -0 -0 0)
(4.91686e-05 -5.50804e-16 -0 -5.42905e-16 6.08181e-27 0 -0 0 0)
(4.91628e-05 1.21813e-16 -0 1.19735e-16 2.96673e-28 -0 -0 -0 0)
(4.91539e-05 -3.52922e-17 -0 -3.49604e-17 2.51013e-29 0 -0 0 0)
(4.91484e-05 3.36336e-18 -0 3.17047e-18 2.16964e-31 -0 -0 -0 0)
(4.91416e-05 -4.5981e-18 -0 -4.63495e-18 4.33686e-31 0 -0 0 0)
(4.91368e-05 -1.83804e-18 -0 -1.88212e-18 7.04039e-32 0 -0 0 0)
(4.91315e-05 -1.81843e-18 -0 -1.84163e-18 6.81615e-32 0 -0 0 0)
(4.9128e-05 -1.3076e-18 -0 -1.31205e-18 3.4922e-32 0 -0 0 0)
(4.91241e-05 -1.0268e-18 -0 -1.02093e-18 2.13396e-32 0 -0 0 0)
(4.9122e-05 -7.69222e-19 -0 -7.68567e-19 1.20353e-32 0 -0 0 0)
(4.91197e-05 -5.79489e-19 -0 -6.01854e-19 7.10036e-33 0 -0 0 0)
(4.91185e-05 -4.60864e-19 -0 -4.7212e-19 4.42976e-33 0 -0 0 0)
(4.91177e-05 -3.02517e-19 -0 -2.55173e-19 1.57162e-33 0 -0 0 0)
(4.91174e-05 2.24462e-19 -0 3.10751e-21 1.42011e-35 -0 -0 -0 0)
(5.12798e-05 3.21954e-12 -0 3.17e-12 1.99025e-19 -0 -0 -0 0)
(5.12787e-05 -7.61421e-13 -0 -7.49761e-13 1.1133e-20 0 -0 0 0)
(5.12594e-05 1.80437e-13 -0 1.77675e-13 6.25431e-22 -0 -0 -0 0)
(5.125e-05 -4.26783e-14 -0 -4.20294e-14 3.49999e-23 0 -0 0 0)
(5.12369e-05 1.00887e-14 -0 9.93485e-15 1.9562e-24 -0 -0 -0 0)
(5.12287e-05 -2.39775e-15 -0 -2.36196e-15 1.10551e-25 0 -0 0 0)
(5.12171e-05 5.57862e-16 -0 5.49102e-16 5.98087e-27 -0 -0 -0 0)
(5.12104e-05 -1.39271e-16 -0 -1.37458e-16 3.7383e-28 0 -0 0 0)
(5.12003e-05 2.69284e-17 -0 2.63253e-17 1.38456e-29 -0 -0 -0 0)
(5.11949e-05 -1.11463e-17 -0 -1.11317e-17 2.42363e-30 0 -0 0 0)
(5.11866e-05 -1.1789e-18 -0 -1.27092e-18 2.9271e-32 0 -0 0 0)
(5.11822e-05 -2.7381e-18 -0 -2.77242e-18 1.48316e-31 0 -0 0 0)
(5.1176e-05 -1.7339e-18 -0 -1.75994e-18 5.96285e-32 0 -0 0 0)
(5.11725e-05 -1.46541e-18 -0 -1.46824e-18 4.20454e-32 0 -0 0 0)
(5.11682e-05 -1.1237e-18 -0 -1.1115e-18 2.44096e-32 0 -0 0 0)
(5.11658e-05 -8.61263e-19 -0 -8.62603e-19 1.452e-32 0 -0 0 0)
(5.11632e-05 -6.521e-19 -0 -6.84654e-19 8.72624e-33 0 -0 0 0)
(5.1162e-05 -5.33049e-19 -0 -5.48226e-19 5.71188e-33 0 -0 0 0)
(5.11611e-05 -3.56183e-19 -0 -2.95163e-19 2.05492e-33 0 -0 0 0)
(5.11608e-05 2.78261e-19 -0 9.27664e-21 5.04552e-35 -0 -0 -0 0)
(5.24438e-05 -3.29397e-12 -0 -3.24309e-12 2.03696e-19 0 -0 0 0)
(5.24433e-05 7.79174e-13 -0 7.67184e-13 1.13984e-20 -0 -0 -0 0)
(5.24212e-05 -1.84648e-13 -0 -1.8181e-13 6.40406e-22 0 -0 0 0)
(5.24131e-05 4.36681e-14 -0 4.2999e-14 3.58247e-23 -0 -0 -0 0)
(5.2398e-05 -1.03412e-14 -0 -1.01839e-14 2.00988e-24 0 -0 0 0)
(5.23903e-05 2.44104e-15 -0 2.40343e-15 1.11984e-25 -0 -0 -0 0)
(5.23775e-05 -5.83642e-16 -0 -5.75146e-16 6.40885e-27 0 -0 0 0)
(5.23707e-05 1.32112e-16 -0 1.29857e-16 3.2758e-28 -0 -0 -0 0)
(5.23603e-05 -3.63538e-17 -0 -3.60006e-17 2.49952e-29 0 -0 0 0)
(5.2354e-05 4.28665e-18 -0 4.08378e-18 3.34373e-31 -0 -0 -0 0)
(5.23466e-05 -4.55569e-18 -0 -4.5882e-18 3.99308e-31 0 -0 0 0)
(5.23406e-05 -1.81026e-18 -0 -1.85504e-18 6.41587e-32 0 -0 0 0)
(5.23353e-05 -1.90917e-18 -0 -1.92666e-18 7.02838e-32 0 -0 0 0)
(5.23306e-05 -1.42551e-18 -0 -1.42577e-18 3.88386e-32 0 -0 0 0)
(5.23267e-05 -1.15261e-18 -0 -1.14171e-18 2.51486e-32 0 -0 0 0)
(5.23238e-05 -8.83909e-19 -0 -8.86777e-19 1.49804e-32 0 -0 0 0)
(5.23214e-05 -6.84738e-19 -0 -7.22562e-19 9.45627e-33 0 -0 0 0)
(5.232e-05 -5.74219e-19 -0 -5.93857e-19 6.51766e-33 0 -0 0 0)
(5.23191e-05 -3.91901e-19 -0 -3.21156e-19 2.40565e-33 0 -0 0 0)
(5.23187e-05 3.24788e-19 -0 1.73926e-20 1.07971e-34 -0 -0 -0 0)
(5.31415e-05 3.34063e-12 -0 3.28881e-12 2.06744e-19 -0 -0 -0 0)
(5.31403e-05 -7.90421e-13 -0 -7.78202e-13 1.15752e-20 0 -0 0 0)
(5.31193e-05 1.87322e-13 -0 1.84427e-13 6.50372e-22 -0 -0 -0 0)
(5.31099e-05 -4.43179e-14 -0 -4.36364e-14 3.64127e-23 0 -0 0 0)
(5.30944e-05 1.04869e-14 -0 1.03253e-14 2.03938e-24 -0 -0 -0 0)
(5.30867e-05 -2.4877e-15 -0 -2.44996e-15 1.14808e-25 0 -0 0 0)
(5.30731e-05 5.83307e-16 -0 5.74105e-16 6.30977e-27 -0 -0 -0 0)
(5.30667e-05 -1.42714e-16 -0 -1.40764e-16 3.78561e-28 0 -0 0 0)
(5.30554e-05 2.95271e-17 -0 2.89101e-17 1.60894e-29 -0 -0 -0 0)
(5.305e-05 -1.06543e-17 -0 -1.06147e-17 2.1318e-30 0 -0 0 0)
(5.30407e-05 -6.10372e-19 -0 -6.86227e-19 7.89684e-33 0 -0 0 0)
(5.30363e-05 -2.47163e-18 -0 -2.49512e-18 1.16279e-31 0 -0 0 0)
(5.30291e-05 -1.58849e-18 -0 -1.60956e-18 4.82146e-32 0 -0 0 0)
(5.30258e-05 -1.41181e-18 -0 -1.40936e-18 3.75242e-32 0 -0 0 0)
(5.30208e-05 -1.11452e-18 -0 -1.09625e-18 2.30436e-32 0 -0 0 0)
(5.30185e-05 -8.72192e-19 -0 -8.68903e-19 1.42941e-32 0 -0 0 0)
(5.30156e-05 -6.7832e-19 -0 -7.11861e-19 9.10806e-33 0 -0 0 0)
(5.30144e-05 -5.82025e-19 -0 -5.97631e-19 6.56118e-33 0 -0 0 0)
(5.30133e-05 -3.98562e-19 -0 -3.21061e-19 2.41378e-33 0 -0 0 0)
(5.3013e-05 3.65617e-19 -0 2.98725e-20 2.06023e-34 -0 -0 -0 0)
(5.36163e-05 -3.37459e-12 -0 -3.32196e-12 2.09083e-19 0 -0 0 0)
(5.36156e-05 7.98824e-13 -0 7.86395e-13 1.17166e-20 -0 -0 -0 0)
(5.35928e-05 -1.89315e-13 -0 -1.86372e-13 6.58356e-22 0 -0 0 0)
(5.35841e-05 4.48069e-14 -0 4.41116e-14 3.6886e-23 -0 -0 -0 0)
(5.35681e-05 -1.06123e-14 -0 -1.04483e-14 2.0699e-24 0 -0 0 0)
(5.35604e-05 2.51022e-15 -0 2.47113e-15 1.15815e-25 -0 -0 -0 0)
(5.35467e-05 -5.97473e-16 -0 -5.88485e-16 6.56631e-27 0 -0 0 0)
(5.35398e-05 1.37884e-16 -0 1.35594e-16 3.49201e-28 -0 -0 -0 0)
(5.35288e-05 -3.59907e-17 -0 -3.55624e-17 2.39107e-29 0 -0 0 0)
(5.35225e-05 5.47125e-18 -0 5.29156e-18 5.40922e-31 -0 -0 -0 0)
(5.35141e-05 -3.96291e-18 -0 -3.97032e-18 2.94016e-31 0 -0 0 0)
(5.35086e-05 -1.35581e-18 -0 -1.38351e-18 3.50557e-32 0 -0 0 0)
(5.35021e-05 -1.62387e-18 -0 -1.63795e-18 4.97144e-32 0 -0 0 0)
(5.34981e-05 -1.25298e-18 -0 -1.24061e-18 2.90562e-32 0 -0 0 0)
(5.34932e-05 -1.06034e-18 -0 -1.02906e-18 2.03979e-32 0 -0 0 0)
(5.34907e-05 -8.28492e-19 -0 -8.1353e-19 1.26004e-32 0 -0 0 0)
(5.34879e-05 -6.46592e-19 -0 -6.77247e-19 8.18693e-33 0 -0 0 0)
(5.34866e-05 -5.64611e-19 -0 -5.78212e-19 6.10367e-33 0 -0 0 0)
(5.34856e-05 -3.89878e-19 -0 -3.05047e-19 2.22361e-33 0 -0 0 0)
(5.34852e-05 4.04387e-19 -0 4.76545e-20 3.60303e-34 -0 -0 -0 0)
(5.39954e-05 3.40381e-12 -0 3.35042e-12 2.11207e-19 -0 -0 -0 0)
(5.39941e-05 -8.06125e-13 -0 -7.93501e-13 1.18469e-20 0 -0 0 0)
(5.39726e-05 1.91062e-13 -0 1.88071e-13 6.65767e-22 -0 -0 -0 0)
(5.39626e-05 -4.52427e-14 -0 -4.4536e-14 3.73394e-23 0 -0 0 0)
(5.39469e-05 1.07154e-14 -0 1.05479e-14 2.0951e-24 -0 -0 -0 0)
(5.39388e-05 -2.54091e-15 -0 -2.50144e-15 1.17836e-25 0 -0 0 0)
(5.39247e-05 5.98963e-16 -0 5.89493e-16 6.54773e-27 -0 -0 -0 0)
(5.39182e-05 -1.44576e-16 -0 -1.42429e-16 3.81908e-28 0 -0 0 0)
(5.39062e-05 3.16032e-17 -0 3.10391e-17 1.8197e-29 -0 -0 -0 0)
(5.39008e-05 -9.92674e-18 -0 -9.82624e-18 1.80967e-30 0 -0 0 0)
(5.38911e-05 1.44728e-19 -0 1.02759e-19 2.75965e-34 -0 -0 -0 0)
(5.38867e-05 -1.9796e-18 -0 -1.98312e-18 7.28527e-32 0 -0 0 0)
(5.38793e-05 -1.22013e-18 -0 -1.22364e-18 2.771e-32 0 -0 0 0)
(5.38759e-05 -1.15823e-18 -0 -1.13111e-18 2.43167e-32 0 -0 0 0)
(5.38707e-05 -9.4145e-19 -0 -9.05325e-19 1.58216e-32 0 -0 0 0)
(5.38683e-05 -7.61589e-19 -0 -7.43157e-19 1.05067e-32 0 -0 0 0)
(5.38653e-05 -6.03131e-19 -0 -6.30187e-19 7.05623e-33 0 -0 0 0)
(5.3864e-05 -5.37174e-19 -0 -5.48808e-19 5.47314e-33 0 -0 0 0)
(5.38629e-05 -3.70875e-19 -0 -2.84686e-19 1.96021e-33 0 -0 0 0)
(5.38626e-05 4.32495e-19 -0 6.26646e-20 5.03171e-34 -0 -0 -0 0)
(5.43451e-05 -3.4322e-12 -0 -3.37801e-12 2.1334e-19 0 -0 0 0)
(5.43438e-05 8.13322e-13 -0 8.00488e-13 1.19803e-20 -0 -0 -0 0)
(5.43221e-05 -1.92777e-13 -0 -1.89736e-13 6.7333e-22 0 -0 0 0)
(5.43117e-05 4.56746e-14 -0 4.49544e-14 3.78054e-23 -0 -0 -0 0)
(5.42963e-05 -1.08245e-14 -0 -1.06539e-14 2.12396e-24 0 -0 0 0)
(5.42875e-05 2.56405e-15 -0 2.5236e-15 1.19192e-25 -0 -0 -0 0)
(5.42738e-05 -6.09292e-16 -0 -5.99726e-16 6.73268e-27 0 -0 0 0)
(5.42666e-05 1.42448e-16 -0 1.40175e-16 3.67954e-28 -0 -0 -0 0)
(5.42555e-05 -3.57241e-17 -0 -3.5188e-17 2.31693e-29 0 -0 0 0)
(5.42487e-05 6.56708e-18 -0 6.44661e-18 7.80395e-31 -0 -0 -0 0)
(5.42405e-05 -3.32508e-18 -0 -3.28335e-18 2.01278e-31 0 -0 0 0)
(5.42344e-05 -8.14369e-19 -0 -8.16917e-19 1.22666e-32 0 -0 0 0)
(5.42285e-05 -1.24213e-18 -0 -1.22755e-18 2.81177e-32 0 -0 0 0)
(5.42235e-05 -9.66274e-19 -0 -9.27308e-19 1.65248e-32 0 -0 0 0)
(5.42195e-05 -8.39762e-19 -0 -7.93432e-19 1.22888e-32 0 -0 0 0)
(5.42161e-05 -6.66612e-19 -0 -6.47439e-19 7.96056e-33 0 -0 0 0)
(5.42137e-05 -5.41666e-19 -0 -5.61994e-19 5.61506e-33 0 -0 0 0)
(5.4212e-05 -4.99319e-19 -0 -4.97794e-19 4.58493e-33 0 -0 0 0)
(5.4211e-05 -3.45253e-19 -0 -2.54061e-19 1.61804e-33 0 -0 0 0)
(5.42106e-05 4.4807e-19 -0 7.29934e-20 6.03317e-34 -0 -0 -0 0)
(5.47016e-05 3.46189e-12 -0 3.40685e-12 2.15609e-19 -0 -0 -0 0)
(5.47005e-05 -8.20856e-13 -0 -8.07801e-13 1.21221e-20 0 -0 0 0)
(5.46775e-05 1.94569e-13 -0 1.91476e-13 6.81366e-22 -0 -0 -0 0)
(5.46675e-05 -4.61287e-14 -0 -4.53946e-14 3.83042e-23 0 -0 0 0)
(5.4652e-05 1.09346e-14 -0 1.07607e-14 2.15298e-24 -0 -0 -0 0)
(5.4643e-05 -2.59379e-15 -0 -2.5524e-15 1.21157e-25 0 -0 0 0)
(5.46299e-05 6.13734e-16 -0 6.04019e-16 6.78579e-27 -0 -0 -0 0)
(5.46221e-05 -1.46906e-16 -0 -1.44516e-16 3.88677e-28 0 -0 0 0)
(5.46106e-05 3.34205e-17 -0 3.29132e-17 2.01422e-29 -0 -0 -0 0)
(5.46043e-05 -9.34339e-18 -0 -9.17001e-18 1.56909e-30 0 -0 0 0)
(5.45946e-05 8.57428e-19 -0 8.58447e-19 1.34822e-32 -0 -0 -0 0)
(5.45896e-05 -1.47236e-18 -0 -1.43935e-18 3.88214e-32 0 -0 0 0)
(5.45826e-05 -8.22469e-19 -0 -7.96962e-19 1.20089e-32 0 -0 0 0)
(5.45787e-05 -8.55833e-19 -0 -8.09542e-19 1.26942e-32 0 -0 0 0)
(5.45736e-05 -7.03555e-19 -0 -6.50565e-19 8.38698e-33 0 -0 0 0)
(5.45711e-05 -5.7577e-19 -0 -5.47369e-19 5.7752e-33 0 -0 0 0)
(5.4568e-05 -4.72878e-19 -0 -4.85465e-19 4.20697e-33 0 -0 0 0)
(5.45667e-05 -4.54773e-19 -0 -4.44198e-19 3.70206e-33 0 -0 0 0)
(5.45656e-05 -3.19944e-19 -0 -2.22184e-19 1.30277e-33 0 -0 0 0)
(5.45652e-05 4.50393e-19 -0 8.17835e-20 6.75059e-34 -0 -0 -0 0)
(5.50867e-05 -3.49393e-12 -0 -3.43798e-12 2.18058e-19 0 -0 0 0)
(5.5086e-05 8.28965e-13 -0 8.15676e-13 1.22748e-20 -0 -0 -0 0)
(5.50617e-05 -1.96502e-13 -0 -1.93351e-13 6.90022e-22 0 -0 0 0)
(5.50526e-05 4.66146e-14 -0 4.58666e-14 3.88365e-23 -0 -0 -0 0)
(5.50358e-05 -1.10554e-14 -0 -1.08775e-14 2.18505e-24 0 -0 0 0)
(5.50275e-05 2.6219e-15 -0 2.57994e-15 1.22926e-25 -0 -0 -0 0)
(5.50132e-05 -6.2279e-16 -0 -6.12585e-16 6.93492e-27 0 -0 0 0)
(5.50057e-05 1.46952e-16 -0 1.44699e-16 3.86574e-28 -0 -0 -0 0)
(5.49944e-05 -3.57937e-17 -0 -3.51271e-17 2.28629e-29 0 -0 0 0)
(5.49873e-05 7.5275e-18 -0 7.47535e-18 1.02334e-30 -0 -0 -0 0)
(5.49788e-05 -2.75917e-18 -0 -2.66349e-18 1.3367e-31 0 -0 0 0)
(5.49726e-05 -2.87419e-19 -0 -2.48696e-19 1.30028e-33 0 -0 0 0)
(5.49662e-05 -8.26183e-19 -0 -7.82368e-19 1.17596e-32 0 -0 0 0)
(5.49615e-05 -6.24167e-19 -0 -5.75005e-19 6.53001e-33 0 -0 0 0)
(5.49569e-05 -5.75837e-19 -0 -5.26619e-19 5.5179e-33 0 -0 0 0)
(5.49539e-05 -4.77236e-19 -0 -4.49988e-19 3.90783e-33 0 -0 0 0)
(5.49512e-05 -4.12554e-19 -0 -4.22443e-19 3.17155e-33 0 -0 0 0)
(5.49496e-05 -4.15553e-19 -0 -4.01108e-19 3.03336e-33 0 -0 0 0)
(5.49486e-05 -2.88974e-19 -0 -1.91494e-19 1.00706e-33 0 -0 0 0)
(5.49482e-05 4.42986e-19 -0 8.91356e-20 7.18601e-34 -0 -0 -0 0)
(5.55164e-05 3.52912e-12 -0 3.4722e-12 2.20725e-19 -0 -0 -0 0)
(5.55155e-05 -8.37834e-13 -0 -8.24291e-13 1.24401e-20 0 -0 0 0)
(5.54926e-05 1.98619e-13 -0 1.9541e-13 6.99411e-22 -0 -0 -0 0)
(5.54815e-05 -4.71452e-14 -0 -4.63807e-14 3.94119e-23 0 -0 0 0)
(5.54658e-05 1.11854e-14 -0 1.10043e-14 2.21917e-24 -0 -0 -0 0)
(5.54561e-05 -2.65438e-15 -0 -2.6109e-15 1.2497e-25 0 -0 0 0)
(5.54424e-05 6.30149e-16 -0 6.20127e-16 7.04826e-27 -0 -0 -0 0)
(5.54345e-05 -1.49875e-16 -0 -1.47244e-16 3.98095e-28 0 -0 0 0)
(5.54231e-05 3.51678e-17 -0 3.47268e-17 2.20353e-29 -0 -0 -0 0)
(5.54159e-05 -8.91185e-18 -0 -8.6656e-18 1.39358e-30 0 -0 0 0)
(5.54073e-05 1.48551e-18 -0 1.53982e-18 4.12838e-32 -0 -0 -0 0)
(5.54009e-05 -1.01499e-18 -0 -9.42773e-19 1.72724e-32 0 -0 0 0)
(5.53946e-05 -4.18703e-19 -0 -3.68025e-19 2.78174e-33 0 -0 0 0)
(5.53896e-05 -5.32582e-19 -0 -4.76374e-19 4.58043e-33 0 -0 0 0)
(5.53853e-05 -4.52998e-19 -0 -3.96398e-19 3.24216e-33 0 -0 0 0)
(5.53818e-05 -3.91676e-19 -0 -3.58282e-19 2.53388e-33 0 -0 0 0)
(5.53793e-05 -3.42135e-19 -0 -3.50906e-19 2.16791e-33 0 -0 0 0)
(5.53775e-05 -3.63419e-19 -0 -3.50942e-19 2.30309e-33 0 -0 0 0)
(5.53765e-05 -2.56572e-19 -0 -1.65468e-19 7.66653e-34 0 -0 0 0)
(5.53761e-05 4.26602e-19 -0 9.63806e-20 7.42489e-34 -0 -0 -0 0)
(5.60076e-05 -3.56816e-12 -0 -3.51022e-12 2.23631e-19 0 -0 0 0)
(5.60064e-05 8.47558e-13 -0 8.33757e-13 1.26175e-20 -0 -0 -0 0)
(5.59828e-05 -2.00937e-13 -0 -1.97663e-13 7.09466e-22 0 -0 0 0)
(5.59718e-05 4.77196e-14 -0 4.69407e-14 4.00201e-23 -0 -0 -0 0)
(5.59559e-05 -1.13253e-14 -0 -1.11393e-14 2.25457e-24 0 -0 0 0)
(5.59461e-05 2.68919e-15 -0 2.64553e-15 1.27164e-25 -0 -0 -0 0)
(5.59324e-05 -6.38359e-16 -0 -6.27531e-16 7.16204e-27 0 -0 0 0)
(5.5924e-05 1.51911e-16 -0 1.4963e-16 4.06454e-28 -0 -0 -0 0)
(5.59123e-05 -3.60761e-17 -0 -3.53085e-17 2.2782e-29 0 -0 0 0)
(5.59055e-05 8.40106e-18 -0 8.38485e-18 1.26001e-30 -0 -0 -0 0)
(5.58957e-05 -2.32184e-18 -0 -2.19045e-18 9.0989e-32 0 -0 0 0)
(5.58905e-05 1.44776e-19 -0 2.08577e-19 5.40289e-34 -0 -0 -0 0)
(5.58828e-05 -4.90741e-19 -0 -4.35714e-19 3.82627e-33 0 -0 0 0)
(5.58789e-05 -3.50762e-19 -0 -2.90154e-19 1.82135e-33 0 -0 0 0)
(5.58734e-05 -3.68163e-19 -0 -3.06868e-19 2.02202e-33 0 -0 0 0)
(5.58708e-05 -3.0686e-19 -0 -2.71569e-19 1.49154e-33 0 -0 0 0)
(5.58675e-05 -2.72087e-19 -0 -2.83299e-19 1.37973e-33 0 -0 0 0)
(5.58662e-05 -3.04617e-19 -0 -2.94051e-19 1.60335e-33 0 -0 0 0)
(5.5865e-05 -2.1992e-19 -0 -1.31613e-19 5.18113e-34 0 -0 0 0)
(5.58646e-05 3.93491e-19 -0 9.86066e-20 6.94551e-34 -0 -0 -0 0)
(5.65757e-05 3.61178e-12 -0 3.55275e-12 2.26807e-19 -0 -0 -0 0)
(5.65747e-05 -8.58382e-13 -0 -8.443e-13 1.28102e-20 0 -0 0 0)
(5.65512e-05 2.03517e-13 -0 2.00179e-13 7.20404e-22 -0 -0 -0 0)
(5.65395e-05 -4.83535e-14 -0 -4.75562e-14 4.06709e-23 0 -0 0 0)
(5.65235e-05 1.1483e-14 -0 1.12942e-14 2.29447e-24 -0 -0 -0 0)
(5.65132e-05 -2.72484e-15 -0 -2.67926e-15 1.29183e-25 0 -0 0 0)
(5.64993e-05 6.49225e-16 -0 6.38806e-16 7.34044e-27 -0 -0 -0 0)
(5.64905e-05 -1.53396e-16 -0 -1.50578e-16 4.08885e-28 0 -0 0 0)
(5.64787e-05 3.69366e-17 -0 3.65016e-17 2.38718e-29 -0 -0 -0 0)
(5.64716e-05 -8.65654e-18 -0 -8.37533e-18 1.28386e-30 0 -0 0 0)
(5.64619e-05 1.98607e-18 -0 2.05368e-18 7.22389e-32 -0 -0 -0 0)
(5.6456e-05 -6.75903e-19 -0 -5.95417e-19 7.12846e-33 0 -0 0 0)
(5.6449e-05 -1.23613e-19 -0 -6.93662e-20 1.519e-34 0 -0 0 0)
(5.64441e-05 -2.91852e-19 -0 -2.30452e-19 1.19158e-33 0 -0 0 0)
(5.64394e-05 -2.49628e-19 -0 -1.97995e-19 8.7572e-34 0 -0 0 0)
(5.6436e-05 -2.26612e-19 -0 -1.97844e-19 7.94417e-34 0 -0 0 0)
(5.64332e-05 -2.04589e-19 -0 -2.13904e-19 7.75473e-34 0 -0 0 0)
(5.64315e-05 -2.41805e-19 -0 -2.26882e-19 9.72174e-34 0 -0 0 0)
(5.64305e-05 -1.7865e-19 -0 -9.77511e-20 3.09465e-34 0 -0 0 0)
(5.643e-05 3.4445e-19 -0 8.98698e-20 5.48568e-34 -0 -0 -0 0)
(5.72303e-05 -3.66025e-12 -0 -3.60011e-12 2.30251e-19 0 -0 0 0)
(5.72288e-05 8.70232e-13 -0 8.55876e-13 1.30146e-20 -0 -0 -0 0)
(5.72047e-05 -2.06327e-13 -0 -2.0292e-13 7.31895e-22 0 -0 0 0)
(5.71932e-05 4.90443e-14 -0 4.82324e-14 4.13602e-23 -0 -0 -0 0)
(5.71758e-05 -1.16421e-14 -0 -1.14479e-14 2.33101e-24 0 -0 0 0)
(5.71664e-05 2.76859e-15 -0 2.72299e-15 1.31876e-25 -0 -0 -0 0)
(5.7151e-05 -6.56084e-16 -0 -6.44727e-16 7.40137e-27 0 -0 0 0)
(5.71433e-05 1.57324e-16 -0 1.54949e-16 4.26597e-28 -0 -0 -0 0)
(5.713e-05 -3.66303e-17 -0 -3.58284e-17 2.29722e-29 0 -0 0 0)
(5.71237e-05 9.10373e-18 -0 9.08288e-18 1.44753e-30 -0 -0 -0 0)
(5.71131e-05 -2.04155e-18 -0 -1.91171e-18 6.83354e-32 0 -0 0 0)
(5.71078e-05 4.45211e-19 -0 4.99093e-19 3.89091e-33 -0 -0 -0 0)
(5.70998e-05 -2.53873e-19 -0 -1.9607e-19 8.71754e-34 0 -0 0 0)
(5.70957e-05 -1.43471e-19 -0 -8.88317e-20 2.23218e-34 0 -0 0 0)
(5.709e-05 -1.80326e-19 -0 -1.3032e-19 4.11634e-34 0 -0 0 0)
(5.70873e-05 -1.53869e-19 -0 -1.21593e-19 3.27732e-34 0 -0 0 0)
(5.70839e-05 -1.48289e-19 -0 -1.48957e-19 3.86952e-34 0 -0 0 0)
(5.70824e-05 -1.88964e-19 -0 -1.76285e-19 5.83571e-34 0 -0 0 0)
(5.70813e-05 -1.45437e-19 -0 -7.82537e-20 1.99382e-34 0 -0 0 0)
(5.70808e-05 2.82406e-19 -0 7.30713e-20 3.61518e-34 -0 -0 -0 0)
(5.79408e-05 3.7113e-12 -0 3.65003e-12 2.33796e-19 -0 -0 -0 0)
(5.79392e-05 -8.82664e-13 -0 -8.68021e-13 1.32237e-20 0 -0 0 0)
(5.79147e-05 2.09336e-13 -0 2.05865e-13 7.44111e-22 -0 -0 -0 0)
(5.79028e-05 -4.9754e-14 -0 -4.89235e-14 4.20384e-23 0 -0 0 0)
(5.78852e-05 1.18304e-14 -0 1.16334e-14 2.3776e-24 -0 -0 -0 0)
(5.78751e-05 -2.80643e-15 -0 -2.75889e-15 1.33782e-25 0 -0 0 0)
(5.78601e-05 6.70631e-16 -0 6.59684e-16 7.64612e-27 -0 -0 -0 0)
(5.78514e-05 -1.57977e-16 -0 -1.55069e-16 4.23452e-28 0 -0 0 0)
(5.78388e-05 3.85082e-17 -0 3.80289e-17 2.53191e-29 -0 -0 -0 0)
(5.78316e-05 -8.72106e-18 -0 -8.4474e-18 1.27388e-30 0 -0 0 0)
(5.78212e-05 2.28057e-18 -0 2.32938e-18 9.18749e-32 -0 -0 -0 0)
(5.78155e-05 -5.10016e-19 -0 -4.43555e-19 3.9128e-33 0 -0 0 0)
(5.78073e-05 5.12954e-20 -0 9.48296e-20 8.41472e-35 -0 -0 -0 0)
(5.78031e-05 -1.43854e-19 -0 -9.53943e-20 2.37407e-34 0 -0 0 0)
(5.77973e-05 -1.13525e-19 -0 -7.18128e-20 1.41055e-34 0 -0 0 0)
(5.77945e-05 -1.15542e-19 -0 -9.07383e-20 1.81403e-34 0 -0 0 0)
(5.77909e-05 -1.15965e-19 -0 -1.12592e-19 2.25931e-34 0 -0 0 0)
(5.77895e-05 -1.48012e-19 -0 -1.33033e-19 3.40728e-34 0 -0 0 0)
(5.77883e-05 -1.16035e-19 -0 -5.48672e-20 1.10169e-34 0 -0 0 0)
(5.77878e-05 2.17344e-19 -0 6.23582e-20 2.34534e-34 -0 -0 -0 0)
(5.85902e-05 -3.7575e-12 -0 -3.69527e-12 2.36985e-19 0 -0 0 0)
(5.85899e-05 8.93915e-13 -0 8.79039e-13 1.34116e-20 -0 -0 -0 0)
(5.85649e-05 -2.11871e-13 -0 -2.08341e-13 7.5372e-22 0 -0 0 0)
(5.85538e-05 5.03574e-14 -0 4.95159e-14 4.25846e-23 -0 -0 -0 0)
(5.85359e-05 -1.19508e-14 -0 -1.17496e-14 2.39882e-24 0 -0 0 0)
(5.85267e-05 2.83969e-15 -0 2.79226e-15 1.3548e-25 -0 -0 -0 0)
(5.85109e-05 -6.72491e-16 -0 -6.60897e-16 7.59597e-27 0 -0 0 0)
(5.85032e-05 1.60898e-16 -0 1.5831e-16 4.35392e-28 -0 -0 -0 0)
(5.84899e-05 -3.75191e-17 -0 -3.67826e-17 2.35946e-29 0 -0 0 0)
(5.84832e-05 9.26606e-18 -0 9.17588e-18 1.45382e-30 -0 -0 -0 0)
(5.84728e-05 -2.03834e-18 -0 -1.95438e-18 6.8129e-32 0 -0 0 0)
(5.84669e-05 5.34201e-19 -0 5.61818e-19 5.13322e-33 -0 -0 -0 0)
(5.84591e-05 -1.37458e-19 -0 -1.18e-19 2.77458e-34 0 -0 0 0)
(5.84545e-05 -1.42403e-20 -0 1.55786e-21 -3.79516e-37 -0 -0 0 0)
(5.84489e-05 -6.33293e-20 -0 -4.50669e-20 4.88299e-35 0 -0 0 0)
(5.84459e-05 -5.32468e-20 -0 -4.74763e-20 4.3253e-35 0 -0 0 0)
(5.84425e-05 -5.75989e-20 -0 -6.82622e-20 6.72769e-35 0 -0 0 0)
(5.84409e-05 -8.92777e-20 -0 -8.90882e-20 1.36096e-34 0 -0 0 0)
(5.84397e-05 -7.74174e-20 -0 -3.32428e-20 4.4038e-35 0 -0 0 0)
(5.84393e-05 1.42151e-19 -0 5.08205e-20 1.23619e-34 -0 -0 -0 0)
(5.88481e-05 3.77787e-12 -0 3.71514e-12 2.385e-19 -0 -0 -0 0)
(5.88474e-05 -9.00314e-13 -0 -8.85268e-13 1.35438e-20 0 -0 0 0)
(5.88472e-05 2.13755e-13 -0 2.10183e-13 7.63462e-22 -0 -0 -0 0)
(5.88467e-05 -5.09115e-14 -0 -5.00551e-14 4.33054e-23 0 -0 0 0)
(5.88465e-05 1.21307e-14 -0 1.19262e-14 2.45848e-24 -0 -0 -0 0)
(5.88462e-05 -2.88591e-15 -0 -2.83694e-15 1.39128e-25 0 -0 0 0)
(5.8846e-05 6.89934e-16 -0 6.78246e-16 7.95202e-27 -0 -0 -0 0)
(5.88458e-05 -1.64114e-16 -0 -1.61274e-16 4.49776e-28 0 -0 0 0)
(5.88457e-05 3.94851e-17 -0 3.88201e-17 2.6048e-29 -0 -0 -0 0)
(5.88454e-05 -9.30663e-18 -0 -9.13762e-18 1.44515e-30 0 -0 0 0)
(5.88454e-05 2.30488e-18 -0 2.26796e-18 8.8832e-32 -0 -0 -0 0)
(5.88452e-05 -5.18792e-19 -0 -5.04459e-19 4.44742e-33 0 -0 0 0)
(5.88453e-05 1.44046e-19 -0 1.38306e-19 3.38555e-34 -0 -0 -0 0)
(5.88451e-05 -2.72846e-20 -0 -3.13441e-20 1.45333e-35 0 -0 0 0)
(5.88452e-05 2.49313e-21 -0 3.23232e-21 1.36946e-37 -0 -0 -0 0)
(5.88451e-05 -6.97953e-21 -0 -9.35989e-21 1.11016e-36 0 -0 0 0)
(5.88451e-05 -4.82398e-21 -0 -1.63855e-20 1.34324e-36 0 -0 0 0)
(5.88451e-05 -2.27861e-20 -0 -3.08878e-20 1.19605e-35 0 -0 0 0)
(5.88451e-05 -2.76792e-20 -0 -1.50977e-20 7.10156e-36 0 -0 0 0)
(5.88451e-05 4.97743e-20 -0 2.0542e-20 1.73755e-35 -0 -0 -0 0)
)
;

boundaryField
{
    movingWall
    {
        type            calculated;
        value           nonuniform List<tensor> 
20
(
(5.88481e-05 0 0 0 0 0 0 0 0)
(5.88474e-05 0 0 0 0 0 0 0 0)
(5.88472e-05 0 0 0 0 0 0 0 0)
(5.88467e-05 0 0 0 0 0 0 0 0)
(5.88465e-05 0 0 0 0 0 0 0 0)
(5.88462e-05 0 0 0 0 0 0 0 0)
(5.8846e-05 0 0 0 0 0 0 0 0)
(5.88458e-05 0 0 0 0 0 0 0 0)
(5.88457e-05 0 0 0 0 0 0 0 0)
(5.88454e-05 0 0 0 0 0 0 0 0)
(5.88454e-05 0 0 0 0 0 0 0 0)
(5.88452e-05 0 0 0 0 0 0 0 0)
(5.88453e-05 0 0 0 0 0 0 0 0)
(5.88451e-05 0 0 0 0 0 0 0 0)
(5.88452e-05 0 0 0 0 0 0 0 0)
(5.88451e-05 0 0 0 0 0 0 0 0)
(5.88451e-05 0 0 0 0 0 0 0 0)
(5.88451e-05 0 0 0 0 0 0 0 0)
(5.88451e-05 0 0 0 0 0 0 0 0)
(5.88451e-05 0 0 0 0 0 0 0 0)
)
;
    }
    fixedWalls
    {
        type            calculated;
        value           nonuniform List<tensor> 
60
(
(2.72865e-05 0 0 0 0 0 0 0 0)
(3.29591e-05 0 0 0 0 0 0 0 0)
(4.00867e-05 0 0 0 0 0 0 0 0)
(4.56721e-05 0 0 0 0 0 0 0 0)
(4.92267e-05 0 0 0 0 0 0 0 0)
(5.12798e-05 0 0 0 0 0 0 0 0)
(5.24438e-05 0 0 0 0 0 0 0 0)
(5.31415e-05 0 0 0 0 0 0 0 0)
(5.36163e-05 0 0 0 0 0 0 0 0)
(5.39954e-05 0 0 0 0 0 0 0 0)
(5.43451e-05 0 0 0 0 0 0 0 0)
(5.47016e-05 0 0 0 0 0 0 0 0)
(5.50867e-05 0 0 0 0 0 0 0 0)
(5.55164e-05 0 0 0 0 0 0 0 0)
(5.60076e-05 0 0 0 0 0 0 0 0)
(5.65757e-05 0 0 0 0 0 0 0 0)
(5.72303e-05 0 0 0 0 0 0 0 0)
(5.79408e-05 0 0 0 0 0 0 0 0)
(5.85902e-05 0 0 0 0 0 0 0 0)
(5.88481e-05 0 0 0 0 0 0 0 0)
(2.7285e-05 0 0 0 0 0 0 0 0)
(3.29113e-05 0 0 0 0 0 0 0 0)
(4.00156e-05 0 0 0 0 0 0 0 0)
(4.55789e-05 0 0 0 0 0 0 0 0)
(4.91174e-05 0 0 0 0 0 0 0 0)
(5.11608e-05 0 0 0 0 0 0 0 0)
(5.23187e-05 0 0 0 0 0 0 0 0)
(5.3013e-05 0 0 0 0 0 0 0 0)
(5.34852e-05 0 0 0 0 0 0 0 0)
(5.38626e-05 0 0 0 0 0 0 0 0)
(5.42106e-05 0 0 0 0 0 0 0 0)
(5.45652e-05 0 0 0 0 0 0 0 0)
(5.49482e-05 0 0 0 0 0 0 0 0)
(5.53761e-05 0 0 0 0 0 0 0 0)
(5.58646e-05 0 0 0 0 0 0 0 0)
(5.643e-05 0 0 0 0 0 0 0 0)
(5.70808e-05 0 0 0 0 0 0 0 0)
(5.77878e-05 0 0 0 0 0 0 0 0)
(5.84393e-05 0 0 0 0 0 0 0 0)
(5.88451e-05 0 0 0 0 0 0 0 0)
(2.72865e-05 0 0 0 0 0 0 0 0)
(2.72863e-05 0 0 0 0 0 0 0 0)
(2.72861e-05 0 0 0 0 0 0 0 0)
(2.7286e-05 0 0 0 0 0 0 0 0)
(2.72859e-05 0 0 0 0 0 0 0 0)
(2.72857e-05 0 0 0 0 0 0 0 0)
(2.72856e-05 0 0 0 0 0 0 0 0)
(2.72855e-05 0 0 0 0 0 0 0 0)
(2.72854e-05 0 0 0 0 0 0 0 0)
(2.72853e-05 0 0 0 0 0 0 0 0)
(2.72853e-05 0 0 0 0 0 0 0 0)
(2.72852e-05 0 0 0 0 0 0 0 0)
(2.72852e-05 0 0 0 0 0 0 0 0)
(2.72851e-05 0 0 0 0 0 0 0 0)
(2.72851e-05 0 0 0 0 0 0 0 0)
(2.72851e-05 0 0 0 0 0 0 0 0)
(2.72851e-05 0 0 0 0 0 0 0 0)
(2.7285e-05 0 0 0 0 0 0 0 0)
(2.7285e-05 0 0 0 0 0 0 0 0)
(2.7285e-05 0 0 0 0 0 0 0 0)
)
;
    }
    frontAndBack
    {
        type            empty;
    }
}


// ************************************************************************* //
