/*--------------------------------*- C++ -*----------------------------------*\
| =========                 |                                                 |
| \\      /  F ield         | OpenFOAM: The Open Source CFD Toolbox           |
|  \\    /   O peration     | Version:  2312                                  |
|   \\  /    A nd           | Website:  www.openfoam.com                      |
|    \\/     M anipulation  |                                                 |
\*---------------------------------------------------------------------------*/
FoamFile
{
    version     2.0;
    format      ascii;
    arch        "LSB;label=32;scalar=64";
    class       volScalarField;
    location    "4";
    object      L_P;
}
// * * * * * * * * * * * * * * * * * * * * * * * * * * * * * * * * * * * * * //

dimensions      [0 0 0 0 0 0 0];

internalField   nonuniform List<scalar> 
400
(
-169.537
-169.537
-169.537
-169.537
-169.537
-169.537
-169.537
-169.538
-169.538
-169.538
-169.538
-169.538
-169.538
-169.538
-169.538
-169.538
-169.538
-169.538
-169.538
-169.538
-166.25
-166.398
-166.389
-166.386
-166.378
-166.374
-166.366
-166.361
-166.353
-166.348
-166.339
-166.334
-166.325
-166.32
-166.31
-166.305
-166.295
-166.289
-166.284
-166.276
-162.845
-163.011
-163.002
-162.998
-162.989
-162.985
-162.976
-162.971
-162.961
-162.956
-162.946
-162.941
-162.931
-162.925
-162.914
-162.908
-162.897
-162.89
-162.885
-162.876
-160.576
-160.757
-160.747
-160.742
-160.733
-160.729
-160.719
-160.714
-160.704
-160.698
-160.688
-160.682
-160.671
-160.665
-160.654
-160.647
-160.635
-160.628
-160.622
-160.612
-159.273
-159.462
-159.452
-159.447
-159.438
-159.433
-159.424
-159.418
-159.408
-159.402
-159.391
-159.385
-159.374
-159.367
-159.356
-159.348
-159.336
-159.328
-159.322
-159.312
-158.563
-158.756
-158.746
-158.742
-158.732
-158.727
-158.717
-158.712
-158.701
-158.695
-158.685
-158.678
-158.667
-158.66
-158.648
-158.64
-158.628
-158.62
-158.614
-158.603
-158.173
-158.369
-158.358
-158.354
-158.344
-158.339
-158.329
-158.324
-158.313
-158.307
-158.296
-158.29
-158.278
-158.271
-158.26
-158.252
-158.24
-158.231
-158.225
-158.214
-157.943
-158.141
-158.13
-158.125
-158.116
-158.111
-158.101
-158.095
-158.085
-158.079
-158.068
-158.061
-158.05
-158.042
-158.031
-158.023
-158.011
-158.002
-157.996
-157.985
-157.788
-157.987
-157.976
-157.972
-157.962
-157.957
-157.947
-157.941
-157.931
-157.925
-157.914
-157.907
-157.896
-157.888
-157.877
-157.869
-157.857
-157.848
-157.842
-157.831
-157.666
-157.865
-157.854
-157.85
-157.84
-157.835
-157.825
-157.82
-157.809
-157.803
-157.792
-157.785
-157.774
-157.766
-157.755
-157.747
-157.734
-157.726
-157.72
-157.709
-157.554
-157.754
-157.743
-157.738
-157.729
-157.724
-157.714
-157.708
-157.698
-157.691
-157.68
-157.673
-157.662
-157.655
-157.643
-157.635
-157.622
-157.614
-157.608
-157.597
-157.44
-157.641
-157.63
-157.625
-157.616
-157.611
-157.601
-157.595
-157.584
-157.578
-157.567
-157.56
-157.549
-157.541
-157.53
-157.522
-157.509
-157.501
-157.494
-157.483
-157.318
-157.519
-157.509
-157.504
-157.495
-157.489
-157.479
-157.474
-157.463
-157.457
-157.446
-157.439
-157.428
-157.42
-157.408
-157.4
-157.388
-157.379
-157.373
-157.362
-157.183
-157.385
-157.374
-157.37
-157.36
-157.355
-157.345
-157.339
-157.329
-157.322
-157.311
-157.304
-157.293
-157.285
-157.273
-157.265
-157.253
-157.244
-157.238
-157.227
-157.03
-157.233
-157.222
-157.218
-157.208
-157.203
-157.193
-157.187
-157.176
-157.17
-157.159
-157.152
-157.14
-157.133
-157.121
-157.113
-157.1
-157.092
-157.085
-157.074
-156.854
-157.058
-157.047
-157.043
-157.033
-157.028
-157.018
-157.012
-157.002
-156.995
-156.984
-156.977
-156.966
-156.958
-156.946
-156.938
-156.925
-156.917
-156.91
-156.899
-156.654
-156.859
-156.848
-156.844
-156.834
-156.829
-156.819
-156.813
-156.803
-156.796
-156.785
-156.778
-156.767
-156.759
-156.747
-156.739
-156.726
-156.717
-156.711
-156.7
-156.439
-156.646
-156.635
-156.631
-156.621
-156.616
-156.606
-156.6
-156.589
-156.583
-156.572
-156.564
-156.553
-156.545
-156.533
-156.525
-156.512
-156.503
-156.497
-156.485
-156.245
-156.448
-156.438
-156.433
-156.424
-156.419
-156.409
-156.403
-156.393
-156.387
-156.376
-156.369
-156.358
-156.35
-156.338
-156.33
-156.317
-156.308
-156.302
-156.29
-156.169
-156.169
-156.169
-156.17
-156.17
-156.17
-156.17
-156.17
-156.17
-156.17
-156.17
-156.17
-156.17
-156.17
-156.17
-156.17
-156.17
-156.17
-156.17
-156.17
)
;

boundaryField
{
    movingWall
    {
        type            calculated;
        value           nonuniform List<scalar> 
20
(
-156.169
-156.169
-156.169
-156.17
-156.17
-156.17
-156.17
-156.17
-156.17
-156.17
-156.17
-156.17
-156.17
-156.17
-156.17
-156.17
-156.17
-156.17
-156.17
-156.17
)
;
    }
    fixedWalls
    {
        type            calculated;
        value           nonuniform List<scalar> 
60
(
-169.537
-166.25
-162.845
-160.576
-159.273
-158.563
-158.173
-157.943
-157.788
-157.666
-157.554
-157.44
-157.318
-157.183
-157.03
-156.854
-156.654
-156.439
-156.245
-156.169
-169.538
-166.276
-162.876
-160.612
-159.312
-158.603
-158.214
-157.985
-157.831
-157.709
-157.597
-157.483
-157.362
-157.227
-157.074
-156.899
-156.7
-156.485
-156.29
-156.17
-169.537
-169.537
-169.537
-169.537
-169.537
-169.537
-169.537
-169.538
-169.538
-169.538
-169.538
-169.538
-169.538
-169.538
-169.538
-169.538
-169.538
-169.538
-169.538
-169.538
)
;
    }
    frontAndBack
    {
        type            empty;
    }
}


// ************************************************************************* //
