/*--------------------------------*- C++ -*----------------------------------*\
| =========                 |                                                 |
| \\      /  F ield         | OpenFOAM: The Open Source CFD Toolbox           |
|  \\    /   O peration     | Version:  2312                                  |
|   \\  /    A nd           | Website:  www.openfoam.com                      |
|    \\/     M anipulation  |                                                 |
\*---------------------------------------------------------------------------*/
FoamFile
{
    version     2.0;
    format      ascii;
    arch        "LSB;label=32;scalar=64";
    class       volScalarField;
    location    "4";
    object      Lambda2Field;
}
// * * * * * * * * * * * * * * * * * * * * * * * * * * * * * * * * * * * * * //

dimensions      [0 0 -2 0 0 0 0];

internalField   nonuniform List<scalar> 
400
(
0
-5.17151e-14
0
-4.98806e-16
0
-4.13784e-18
2.94668e-20
-5.10528e-20
5.06515e-21
-1.05502e-21
1.71614e-22
-2.40471e-23
8.03331e-24
8.49928e-25
9.88805e-25
4.41884e-25
4.35748e-25
2.30256e-25
5.95094e-26
0
0
-7.03484e-14
0
-5.88305e-16
0
-3.87491e-18
0
-2.65502e-20
3.06595e-22
-2.27344e-22
4.22247e-23
4.46448e-24
5.68483e-24
2.5733e-24
1.35668e-24
7.87433e-25
4.46132e-25
2.51778e-25
5.95094e-26
1.1674e-26
0
-5.70005e-14
0
-2.79903e-16
0
-9.73862e-19
0
4.99585e-21
0
2.58264e-22
0
1.40917e-23
3.26609e-24
2.39492e-24
1.20223e-24
6.65755e-25
3.76081e-25
1.91205e-25
4.2768e-26
8.57897e-30
0
-7.67771e-14
0
-3.95944e-16
0
-2.40337e-18
0
-1.90757e-20
1.05513e-21
-2.7826e-22
5.27983e-23
-2.20468e-25
4.48098e-24
1.71029e-24
1.05395e-24
5.06975e-25
2.69103e-25
1.87935e-25
1.02194e-25
-2.35108e-26
0
-7.6713e-14
0
-3.71355e-16
0
-1.83591e-18
0
-1.86035e-21
0
1.85762e-22
0
1.07489e-23
1.65012e-24
1.7006e-24
7.53748e-25
3.66338e-25
2.36641e-25
1.05563e-25
3.28366e-26
-2.48812e-26
0
-7.00084e-14
0
-3.12454e-16
0
-1.71676e-18
0
-1.01913e-20
4.88076e-22
-1.49627e-22
3.36482e-23
-9.52499e-25
2.90092e-24
1.09945e-24
7.08554e-25
3.28264e-25
1.43012e-25
1.08983e-25
2.93874e-27
3.10169e-26
0
-5.39865e-14
0
-2.03515e-16
0
-1.06293e-18
0
-1.67561e-21
0
7.94338e-23
0
6.23668e-24
1.06916e-24
1.20512e-24
5.766e-25
3.49535e-25
1.54656e-25
1.07079e-25
0
3.29348e-26
0
-3.51834e-14
0
-7.38013e-17
0
-3.38891e-19
1.1063e-21
0
4.14922e-22
0
1.33447e-23
0
1.74139e-24
6.89056e-25
4.60152e-25
2.34482e-25
1.22683e-25
8.28349e-26
6.61216e-27
-2.66564e-26
0
-1.20807e-14
0
0
0
0
7.0329e-20
0
7.50696e-22
3.16353e-24
8.30003e-24
2.21499e-24
7.06548e-25
6.66127e-25
4.50231e-25
1.36134e-25
7.08635e-26
2.54727e-26
7.51883e-26
3.59908e-27
0
0
0
0
2.65398e-18
0
1.06926e-19
0
7.51713e-22
0
5.06596e-24
3.64198e-25
6.45718e-25
4.66694e-25
3.24667e-25
1.89774e-25
6.53302e-26
6.12187e-26
0
2.07473e-27
0
0
3.11995e-16
0
1.28679e-17
0
1.7216e-19
0
1.44262e-21
0
1.77463e-23
3.67667e-25
6.58844e-25
3.67379e-25
2.26309e-25
1.24162e-25
9.75934e-26
2.64486e-26
0
-6.11447e-27
3.37527e-14
7.2247e-16
2.25686e-15
8.65273e-18
2.08545e-17
8.31915e-20
1.94962e-19
1.18435e-21
1.14199e-21
2.3611e-23
6.13619e-25
1.52163e-24
2.3233e-25
4.40846e-25
2.54825e-25
9.95691e-26
4.18971e-26
3.54493e-26
0
2.16574e-26
1.06757e-13
1.96247e-14
4.15894e-15
1.05487e-16
2.88523e-17
5.80711e-19
2.37316e-19
2.04955e-21
1.83687e-21
0
2.37074e-23
-2.38652e-25
7.76238e-25
2.30838e-25
2.32266e-25
1.05794e-25
4.70198e-26
0
2.93874e-27
-3.48601e-27
1.76854e-13
3.83918e-14
5.88356e-15
2.02356e-16
3.48536e-17
1.14946e-18
2.37786e-19
6.71705e-21
1.21408e-21
6.85135e-23
0
2.17496e-24
5.56722e-27
2.84625e-25
1.53751e-25
8.88968e-26
5.98673e-26
4.14564e-26
1.17549e-26
-6.02849e-27
2.38442e-13
5.52843e-14
7.33595e-15
2.89796e-16
3.96276e-17
1.58056e-18
2.57562e-19
6.2859e-21
1.84566e-21
0
2.34039e-23
-6.87418e-25
6.80596e-25
1.27822e-25
1.22362e-25
7.00426e-26
4.70198e-26
5.36752e-26
0
2.187e-28
2.96206e-13
7.15659e-14
8.65149e-15
3.74886e-16
4.3004e-17
2.11806e-18
2.34217e-19
1.19752e-20
9.79584e-22
1.11577e-22
0
2.59491e-24
0
1.98297e-25
9.32783e-26
7.88244e-26
5.53928e-26
2.47052e-26
0
2.35188e-27
3.35858e-13
8.32721e-14
9.47931e-15
4.34158e-16
4.48054e-17
2.28374e-18
2.46854e-19
8.52114e-21
1.67805e-21
0
1.82039e-23
-1.35976e-24
5.83887e-25
0
6.34344e-26
2.91053e-26
2.35621e-26
2.95308e-26
2.44158e-26
2.63683e-27
3.64817e-13
9.09099e-14
1.00615e-14
5.02953e-16
4.46981e-17
2.93356e-18
2.11337e-19
1.64247e-20
8.08699e-22
1.33881e-22
0
2.10254e-24
0
7.30666e-26
1.72786e-26
2.11876e-26
0
2.44561e-26
2.09195e-26
1.68517e-27
3.89496e-13
7.43803e-14
7.7939e-15
2.35298e-16
2.13234e-17
8.83993e-19
7.40162e-20
3.83122e-22
5.32802e-22
-3.01874e-23
8.14982e-24
-6.85936e-25
1.32806e-25
-4.41404e-27
1.83671e-26
7.34684e-28
1.04725e-26
2.67096e-26
0
2.93874e-27
2.01224e-13
2.83564e-14
2.70722e-15
0
6.3724e-19
-4.33702e-19
0
-6.53182e-21
2.57485e-22
-5.94005e-23
3.16586e-25
1.08979e-24
0
1.00282e-25
0
1.65521e-26
3.69789e-26
3.59995e-26
1.71524e-26
1.43511e-26
)
;

boundaryField
{
    movingWall
    {
        type            calculated;
        value           nonuniform List<scalar> 
20
(
0
0
0
0
0
0
0
0
0
0
0
3.59995e-26
0
1.8422e-25
0
2.47751e-26
5.22461e-26
3.59995e-26
4.17515e-26
1.78543e-26
)
;
    }
    fixedWalls
    {
        type            calculated;
        value           nonuniform List<scalar> 
60
(
0
-8.03234e-13
0
-1.51548e-12
0
-1.44618e-12
0
-7.77893e-13
0
0
5.84869e-13
0
1.35876e-12
7.41729e-13
1.8715e-12
1.42957e-12
2.10428e-12
1.86033e-12
2.14771e-12
1.0505e-12
0
3.23655e-28
1.36263e-28
4.18335e-28
1.84335e-27
-1.95967e-27
6.80067e-28
1.22188e-26
0
0
1.45985e-26
-4.67786e-26
6.67298e-26
3.79448e-26
1.97215e-27
2.35188e-27
1.77494e-26
1.68517e-27
7.88861e-27
7.28308e-27
0
0
0
0
0
0
0
0
1.00529e-20
0
3.44576e-22
-6.11804e-23
1.07081e-23
-1.12662e-24
5.37934e-25
1.56983e-25
3.25877e-25
1.6946e-25
5.95094e-26
0
)
;
    }
    frontAndBack
    {
        type            empty;
    }
}


// ************************************************************************* //
