/*--------------------------------*- C++ -*----------------------------------*\
| =========                 |                                                 |
| \\      /  F ield         | OpenFOAM: The Open Source CFD Toolbox           |
|  \\    /   O peration     | Version:  2312                                  |
|   \\  /    A nd           | Website:  www.openfoam.com                      |
|    \\/     M anipulation  |                                                 |
\*---------------------------------------------------------------------------*/
FoamFile
{
    version     2.0;
    format      ascii;
    arch        "LSB;label=32;scalar=64";
    class       volVectorField;
    location    "4";
    object      LambVectorField;
}
// * * * * * * * * * * * * * * * * * * * * * * * * * * * * * * * * * * * * * //

dimensions      [0 1 -2 0 0 0 0];

internalField   nonuniform List<vector> 
400
(
(-2.94092e-13 -4.74667e-06 -4.74667e-06)
(-8.60525e-14 5.85564e-06 -0)
(-4.85188e-15 -1.39037e-06 -1.39037e-06)
(-2.73717e-16 3.30815e-07 -0)
(-1.54266e-17 -7.84183e-08 -7.84183e-08)
(-8.73816e-19 1.87839e-08 -0)
(-4.88907e-20 -4.38947e-09 -4.38947e-09)
(-2.84211e-21 1.09776e-09 -0)
(-1.46991e-22 -2.2658e-10 -2.2658e-10)
(-1.03246e-23 7.83112e-11 -0)
(-7.66196e-26 -1.65068e-12 -1.65068e-12)
(-5.1076e-27 1.24873e-11 -0)
(4.24879e-26 5.49047e-12 5.49047e-12)
(1.72854e-26 4.57854e-12 0)
(9.21093e-27 2.92153e-12 2.92153e-12)
(4.32938e-27 1.96149e-12 0)
(1.95561e-27 1.15154e-12 1.15154e-12)
(6.58351e-28 5.21363e-13 0)
(9.98932e-29 1.21609e-13 1.21609e-13)
(4.05013e-30 8.68084e-14 0)
(-2.94699e-13 4.75777e-06 4.75777e-06)
(-8.60515e-14 -5.85821e-06 0)
(-4.83949e-15 1.39096e-06 1.39096e-06)
(-2.72808e-16 -3.30243e-07 0)
(-1.52726e-17 7.84059e-08 7.84059e-08)
(-8.66447e-19 -1.86136e-08 0)
(-4.75849e-20 4.41952e-09 4.41952e-09)
(-2.82216e-21 -1.04865e-09 0)
(-1.35211e-22 2.49438e-10 2.49438e-10)
(-1.11706e-23 -5.87672e-11 0)
(-2.61985e-26 1.43471e-11 1.43471e-11)
(-9.42414e-26 -3.05079e-12 0)
(1.564e-26 1.05261e-12 1.05261e-12)
(9.90432e-28 7.75272e-14 0)
(2.76499e-27 3.09525e-13 3.09525e-13)
(1.14984e-27 1.71657e-13 0)
(7.20045e-28 1.42638e-13 1.42638e-13)
(9.33041e-28 2.38212e-13 0)
(8.29739e-28 3.90683e-13 3.90683e-13)
(1.59471e-30 1.59174e-13 0)
(-2.94886e-13 -4.76554e-06 -4.76554e-06)
(-8.57399e-14 5.85011e-06 -0)
(-4.82356e-15 -1.38737e-06 -1.38737e-06)
(-2.70621e-16 3.28989e-07 -0)
(-1.52585e-17 -7.80111e-08 -7.80111e-08)
(-8.48838e-19 1.84983e-08 -0)
(-4.89496e-20 -4.38569e-09 -4.38569e-09)
(-2.54835e-21 1.04034e-09 -0)
(-1.74834e-22 -2.462e-10 -2.462e-10)
(-4.59369e-24 5.88395e-11 -0)
(-1.11043e-24 -1.35153e-11 -1.35153e-11)
(9.52369e-26 3.56376e-12 0)
(-1.19887e-26 -4.30927e-13 -4.30927e-13)
(1.14181e-26 6.06194e-13 0)
(4.85767e-27 3.36394e-13 3.36394e-13)
(3.61179e-27 3.40965e-13 0)
(2.50944e-27 3.11762e-13 3.11762e-13)
(2.59234e-27 4.23587e-13 0)
(2.10914e-27 6.44752e-13 6.44752e-13)
(-1.81628e-29 3.21474e-13 -0)
(-2.95893e-13 4.78452e-06 4.78452e-06)
(-8.56326e-14 -5.85112e-06 0)
(-4.81237e-15 1.38714e-06 1.38714e-06)
(-2.70165e-16 -3.28817e-07 0)
(-1.51227e-17 7.79438e-08 7.79438e-08)
(-8.55713e-19 -1.84748e-08 0)
(-4.67601e-20 4.37961e-09 4.37961e-09)
(-2.82534e-21 -1.03753e-09 0)
(-1.23656e-22 2.46442e-10 2.46442e-10)
(-1.28137e-23 -5.78975e-11 0)
(3.3081e-25 1.42145e-11 1.42145e-11)
(-1.47404e-25 -2.9067e-12 0)
(3.79372e-26 1.24856e-12 1.24856e-12)
(7.63062e-27 3.09262e-13 0)
(9.74248e-27 5.38963e-13 5.38963e-13)
(5.58449e-27 4.10868e-13 0)
(3.73206e-27 3.5734e-13 3.5734e-13)
(4.06342e-27 5.00347e-13 0)
(3.19201e-27 7.32731e-13 7.32731e-13)
(-9.4027e-30 4.87916e-13 -0)
(-2.9597e-13 -4.78781e-06 -4.78781e-06)
(-8.55355e-14 5.84942e-06 -0)
(-4.80703e-15 -1.38647e-06 -1.38647e-06)
(-2.69416e-16 3.28594e-07 -0)
(-1.51392e-17 -7.7874e-08 -7.7874e-08)
(-8.44317e-19 1.84558e-08 -0)
(-4.82857e-20 -4.37303e-09 -4.37303e-09)
(-2.52533e-21 1.03689e-09 -0)
(-1.7434e-22 -2.4512e-10 -2.4512e-10)
(-3.78558e-24 5.86837e-11 -0)
(-1.25348e-24 -1.32898e-11 -1.32898e-11)
(1.4606e-25 3.81321e-12 0)
(-8.34657e-27 -2.22671e-13 -2.22671e-13)
(1.99913e-26 7.48546e-13 0)
(1.11576e-26 5.36871e-13 5.36871e-13)
(8.25676e-27 5.27721e-13 0)
(4.73671e-27 3.86582e-13 3.86582e-13)
(6.26267e-27 6.51557e-13 0)
(4.88555e-27 9.40407e-13 9.40407e-13)
(-3.58976e-29 5.67397e-13 -0)
(-2.96041e-13 4.78894e-06 4.78894e-06)
(-8.55274e-14 -5.84952e-06 0)
(-4.80546e-15 1.38638e-06 1.38638e-06)
(-2.69436e-16 -3.28546e-07 0)
(-1.50967e-17 7.78579e-08 7.78579e-08)
(-8.50629e-19 -1.84494e-08 0)
(-4.68763e-20 4.37236e-09 4.37236e-09)
(-2.77938e-21 -1.03546e-09 0)
(-1.26469e-22 2.45971e-10 2.45971e-10)
(-1.2533e-23 -5.76398e-11 0)
(3.55583e-25 1.43212e-11 1.43212e-11)
(-1.45754e-25 -2.6908e-12 0)
(4.84608e-26 1.40916e-12 1.40916e-12)
(1.14588e-26 3.99374e-13 0)
(1.27509e-26 5.86989e-13 5.86989e-13)
(7.66424e-27 4.54609e-13 0)
(5.68207e-27 4.24613e-13 4.24613e-13)
(6.99536e-27 6.52827e-13 0)
(6.28668e-27 1.08968e-12 1.08968e-12)
(-9.14932e-29 5.04586e-13 -0)
(-2.95861e-13 -4.78436e-06 -4.78436e-06)
(-8.55801e-14 5.8501e-06 -0)
(-4.80882e-15 -1.38652e-06 -1.38652e-06)
(-2.69564e-16 3.28582e-07 -0)
(-1.51337e-17 -7.78653e-08 -7.78653e-08)
(-8.4652e-19 1.84525e-08 -0)
(-4.80063e-20 -4.37185e-09 -4.37185e-09)
(-2.57056e-21 1.0367e-09 -0)
(-1.68382e-22 -2.449e-10 -2.449e-10)
(-4.58008e-24 5.87165e-11 -0)
(-1.16065e-24 -1.32419e-11 -1.32419e-11)
(1.36945e-25 3.86394e-12 0)
(-9.73984e-27 -2.64571e-13 -2.64571e-13)
(1.94383e-26 7.13452e-13 0)
(1.06401e-26 4.87658e-13 4.87658e-13)
(6.2231e-27 3.67191e-13 0)
(3.98678e-27 2.88687e-13 2.88687e-13)
(7.16942e-27 6.3164e-13 0)
(7.17145e-27 1.16829e-12 1.16829e-12)
(-1.7499e-28 5.26387e-13 -0)
(-2.95808e-13 4.77975e-06 4.77975e-06)
(-8.5711e-14 -5.85286e-06 0)
(-4.81644e-15 1.38725e-06 1.38725e-06)
(-2.70125e-16 -3.28768e-07 0)
(-1.51522e-17 7.79154e-08 7.79154e-08)
(-8.52111e-19 -1.84639e-08 0)
(-4.73409e-20 4.37643e-09 4.37643e-09)
(-2.74884e-21 -1.03629e-09 0)
(-1.34258e-22 2.46388e-10 2.46388e-10)
(-1.15089e-23 -5.75189e-11 0)
(1.87483e-25 1.44912e-11 1.44912e-11)
(-1.25284e-25 -2.66304e-12 0)
(3.9086e-26 1.28774e-12 1.28774e-12)
(1.13108e-26 4.25559e-13 0)
(1.32229e-26 6.39536e-13 6.39536e-13)
(6.9928e-27 4.26685e-13 0)
(3.9574e-27 2.94726e-13 2.94726e-13)
(7.08729e-27 6.28695e-13 0)
(7.16846e-27 1.18365e-12 1.18365e-12)
(-3.40059e-28 6.03484e-13 -0)
(-2.95717e-13 -4.77286e-06 -4.77286e-06)
(-8.59039e-14 5.85684e-06 -0)
(-4.82793e-15 -1.38831e-06 -1.38831e-06)
(-2.70882e-16 3.29051e-07 -0)
(-1.52113e-17 -7.79878e-08 -7.79878e-08)
(-8.52827e-19 1.84845e-08 -0)
(-4.81372e-20 -4.38004e-09 -4.38004e-09)
(-2.63107e-21 1.03889e-09 -0)
(-1.63036e-22 -2.45404e-10 -2.45404e-10)
(-5.83476e-24 5.90167e-11 -0)
(-9.75612e-25 -1.31498e-11 -1.31498e-11)
(1.00058e-25 3.86983e-12 0)
(-5.11491e-27 -1.67074e-13 -1.67074e-13)
(1.8213e-26 7.85391e-13 0)
(9.6174e-27 4.99939e-13 4.99939e-13)
(7.93932e-27 5.22022e-13 0)
(4.8827e-27 3.85629e-13 3.85629e-13)
(7.22921e-27 6.68727e-13 0)
(6.36454e-27 1.11593e-12 1.11593e-12)
(-4.28775e-28 4.81237e-13 -0)
(-2.95761e-13 4.76649e-06 4.76649e-06)
(-8.61582e-14 -5.86267e-06 0)
(-4.84298e-15 1.38984e-06 1.38984e-06)
(-2.71898e-16 -3.29449e-07 0)
(-1.5269e-17 7.80931e-08 7.80931e-08)
(-8.58423e-19 -1.85102e-08 0)
(-4.79717e-20 4.38828e-09 4.38828e-09)
(-2.74571e-21 -1.03942e-09 0)
(-1.42338e-22 2.47202e-10 2.47202e-10)
(-1.05412e-23 -5.78228e-11 0)
(-2.73304e-26 1.43332e-11 1.43332e-11)
(-1.02567e-25 -2.78701e-12 0)
(3.22054e-26 1.41807e-12 1.41807e-12)
(8.98346e-27 4.27892e-13 0)
(8.90945e-27 5.3015e-13 5.3015e-13)
(4.80079e-27 3.47989e-13 0)
(3.26866e-27 2.79389e-13 2.79389e-13)
(5.9827e-27 5.87185e-13 0)
(6.28657e-27 1.18943e-12 1.18943e-12)
(-4.79555e-28 4.12196e-13 -0)
(-2.9583e-13 -4.75929e-06 -4.75929e-06)
(-8.64597e-14 5.86961e-06 -0)
(-4.86079e-15 -1.39166e-06 -1.39166e-06)
(-2.73083e-16 3.29925e-07 -0)
(-1.53473e-17 -7.82155e-08 -7.82155e-08)
(-8.62006e-19 1.85434e-08 -0)
(-4.85707e-20 -4.39554e-09 -4.39554e-09)
(-2.69329e-21 1.04267e-09 -0)
(-1.59962e-22 -2.46641e-10 -2.46641e-10)
(-7.01355e-24 5.90196e-11 -0)
(-8.12163e-25 -1.34168e-11 -1.34168e-11)
(5.58578e-26 3.70835e-12 0)
(-7.68311e-27 -3.39412e-13 -3.39412e-13)
(1.27591e-26 7.46075e-13 0)
(7.154e-27 4.88871e-13 4.88871e-13)
(5.09609e-27 4.26743e-13 0)
(2.86053e-27 2.75945e-13 2.75945e-13)
(5.21537e-27 5.67976e-13 0)
(5.06139e-27 1.07999e-12 1.07999e-12)
(-4.86226e-28 3.61109e-13 -0)
(-2.95993e-13 4.75257e-06 4.75257e-06)
(-8.68009e-14 -5.87776e-06 0)
(-4.88093e-15 1.39379e-06 1.39379e-06)
(-2.7442e-16 -3.30477e-07 0)
(-1.54286e-17 7.83594e-08 7.83594e-08)
(-8.67858e-19 -1.85795e-08 0)
(-4.87142e-20 4.40591e-09 4.40591e-09)
(-2.76289e-21 -1.04428e-09 0)
(-1.49531e-22 2.48107e-10 2.48107e-10)
(-9.79807e-24 -5.83442e-11 0)
(-2.25161e-25 1.43195e-11 1.43195e-11)
(-7.63841e-26 -2.89698e-12 0)
(1.882e-26 1.28895e-12 1.28895e-12)
(3.97537e-27 2.68016e-13 0)
(6.69397e-27 5.61533e-13 5.61533e-13)
(3.84916e-27 3.83749e-13 0)
(1.92251e-27 2.16097e-13 2.16097e-13)
(3.9275e-27 4.82466e-13 0)
(4.14573e-27 1.01814e-12 1.01814e-12)
(-2.63777e-28 1.75989e-13 -0)
(-2.96206e-13 -4.7461e-06 -4.7461e-06)
(-8.71643e-14 5.88656e-06 -0)
(-4.90237e-15 -1.39608e-06 -1.39608e-06)
(-2.75829e-16 3.31072e-07 -0)
(-1.55175e-17 -7.85121e-08 -7.85121e-08)
(-8.72983e-19 1.86199e-08 -0)
(-4.91646e-20 -4.41523e-09 -4.41523e-09)
(-2.7561e-21 1.0477e-09 -0)
(-1.58323e-22 -2.47868e-10 -2.47868e-10)
(-8.07276e-24 5.93818e-11 -0)
(-6.54257e-25 -1.3505e-11 -1.3505e-11)
(1.6949e-26 3.74647e-12 0)
(-6.13706e-27 -4.31166e-13 -4.31166e-13)
(6.28396e-27 6.00649e-13 0)
(2.95775e-27 3.08666e-13 3.08666e-13)
(1.55154e-27 1.8948e-13 0)
(6.83342e-28 8.88889e-14 8.88889e-14)
(3.66131e-27 5.01579e-13 0)
(3.10919e-27 8.92174e-13 8.92174e-13)
(-3.90114e-28 2.40488e-13 -0)
(-2.96455e-13 4.73996e-06 4.73996e-06)
(-8.75397e-14 -5.89574e-06 0)
(-4.9245e-15 1.39846e-06 1.39846e-06)
(-2.77281e-16 -3.31688e-07 0)
(-1.56085e-17 7.86725e-08 7.86725e-08)
(-8.78525e-19 -1.86601e-08 0)
(-4.95128e-20 4.42668e-09 4.42668e-09)
(-2.78768e-21 -1.04951e-09 0)
(-1.56258e-22 2.49384e-10 2.49384e-10)
(-9.18965e-24 -5.87672e-11 0)
(-3.98585e-25 1.43422e-11 1.43422e-11)
(-5.12184e-26 -3.00979e-12 0)
(7.03253e-27 1.05853e-12 1.05853e-12)
(7.24021e-28 8.41844e-14 0)
(1.91324e-27 2.67321e-13 2.67321e-13)
(5.30928e-28 8.20687e-14 0)
(-8.80823e-29 -1.3901e-14 -1.3901e-14)
(2.12194e-27 3.34835e-13 0)
(2.41368e-27 8.07775e-13 8.07775e-13)
(-3.1149e-28 1.78969e-13 -0)
(-2.96774e-13 -4.7352e-06 -4.7352e-06)
(-8.79065e-14 5.90498e-06 -0)
(-4.94609e-15 -1.40085e-06 -1.40085e-06)
(-2.78686e-16 3.32303e-07 -0)
(-1.56929e-17 -7.88295e-08 -7.88295e-08)
(-8.84331e-19 1.87013e-08 -0)
(-4.9774e-20 -4.4364e-09 -4.4364e-09)
(-2.81703e-21 1.05286e-09 -0)
(-1.57558e-22 -2.49499e-10 -2.49499e-10)
(-8.92428e-24 5.9502e-11 -0)
(-5.40203e-25 -1.37848e-11 -1.37848e-11)
(-1.30299e-26 3.4915e-12 -0)
(-4.21095e-27 -5.40079e-13 -5.40079e-13)
(2.04121e-27 3.93103e-13 0)
(4.80012e-28 8.73989e-14 8.73989e-14)
(6.00024e-28 1.23445e-13 0)
(-2.04266e-28 -4.0282e-14 -4.0282e-14)
(1.42903e-27 2.71499e-13 0)
(1.78359e-27 7.57068e-13 7.57068e-13)
(-1.04285e-28 5.90814e-14 -0)
(-2.97051e-13 4.73038e-06 4.73038e-06)
(-8.82522e-14 -5.91359e-06 0)
(-4.96657e-15 1.40307e-06 1.40307e-06)
(-2.79986e-16 -3.32875e-07 0)
(-1.57808e-17 7.89773e-08 7.89773e-08)
(-8.88379e-19 -1.87385e-08 0)
(-5.02753e-20 4.4466e-09 4.4466e-09)
(-2.8116e-21 -1.05479e-09 0)
(-1.61968e-22 2.50612e-10 2.50612e-10)
(-8.77637e-24 -5.91757e-11 0)
(-5.23762e-25 1.43998e-11 1.43998e-11)
(-3.3082e-26 -3.13675e-12 0)
(1.29389e-27 1.05295e-12 1.05295e-12)
(3.97395e-28 9.7333e-14 0)
(9.6319e-28 2.74561e-13 2.74561e-13)
(5.66182e-28 1.61506e-13 0)
(4.21284e-28 1.11145e-13 1.11145e-13)
(1.26338e-27 3.14236e-13 0)
(1.11318e-27 6.42622e-13 6.42622e-13)
(-2.22406e-29 1.39651e-14 -0)
(-2.9745e-13 -4.7285e-06 -4.7285e-06)
(-8.85628e-14 5.92182e-06 -0)
(-4.98449e-15 -1.40516e-06 -1.40516e-06)
(-2.8117e-16 3.33407e-07 -0)
(-1.58401e-17 -7.91123e-08 -7.91123e-08)
(-8.94227e-19 1.87733e-08 -0)
(-5.02567e-20 -4.45493e-09 -4.45493e-09)
(-2.86723e-21 1.0574e-09 -0)
(-1.57294e-22 -2.50812e-10 -2.50812e-10)
(-9.49552e-24 5.97189e-11 -0)
(-4.72123e-25 -1.41049e-11 -1.41049e-11)
(-3.0516e-26 3.49174e-12 -0)
(-2.13912e-27 -6.22957e-13 -6.22957e-13)
(5.16462e-28 3.31951e-13 0)
(2.40187e-28 1.0522e-13 1.0522e-13)
(1.03608e-28 4.86433e-14 0)
(-1.08608e-28 -4.16212e-14 -4.16212e-14)
(3.82487e-28 1.23852e-13 0)
(5.24553e-28 3.8263e-13 3.8263e-13)
(-1.1621e-29 9.07795e-15 -0)
(-2.97819e-13 4.7276e-06 4.7276e-06)
(-8.88232e-14 -5.92883e-06 0)
(-5.00121e-15 1.40696e-06 1.40696e-06)
(-2.82091e-16 -3.33865e-07 0)
(-1.59229e-17 7.92288e-08 7.92288e-08)
(-8.96312e-19 -1.88025e-08 0)
(-5.08795e-20 4.46258e-09 4.46258e-09)
(-2.83889e-21 -1.0591e-09 0)
(-1.65389e-22 2.51543e-10 2.51543e-10)
(-8.69881e-24 -5.95528e-11 0)
(-5.7174e-25 1.41921e-11 1.41921e-11)
(-2.54895e-26 -3.32245e-12 0)
(-1.43245e-27 8.73208e-13 8.73208e-13)
(-1.62654e-28 -9.85583e-14 0)
(1.78368e-28 1.43557e-13 1.43557e-13)
(-2.56966e-29 -1.63671e-14 0)
(-2.48231e-28 -1.27411e-13 -1.27411e-13)
(2.2993e-28 9.98814e-14 0)
(2.95286e-28 3.11007e-13 3.11007e-13)
(1.39889e-29 -1.29636e-14 -0)
(-2.9811e-13 -4.72667e-06 -4.72667e-06)
(-8.91003e-14 5.93873e-06 -0)
(-5.01765e-15 -1.41046e-06 -1.41046e-06)
(-2.83268e-16 3.34972e-07 -0)
(-1.59691e-17 -7.95572e-08 -7.95572e-08)
(-9.01535e-19 1.88964e-08 -0)
(-5.0698e-20 -4.48842e-09 -4.48842e-09)
(-2.88546e-21 1.06632e-09 -0)
(-1.59249e-22 -2.53231e-10 -2.53231e-10)
(-9.45724e-24 6.02765e-11 -0)
(-4.74173e-25 -1.41867e-11 -1.41867e-11)
(-3.27824e-26 3.41157e-12 -0)
(-1.66067e-27 -8.22726e-13 -8.22726e-13)
(-6.93641e-30 2.6027e-13 -0)
(-6.46881e-29 -8.38963e-14 -8.38963e-14)
(-3.22468e-29 -3.96975e-14 0)
(-1.98566e-29 -1.70001e-14 -1.70001e-14)
(2.15299e-28 1.41234e-13 0)
(1.97856e-28 3.47825e-13 3.47825e-13)
(2.61576e-29 -3.00791e-14 -0)
(-3.00954e-13 4.76715e-06 4.76715e-06)
(-8.95262e-14 -5.95117e-06 0)
(-5.06279e-15 1.41749e-06 1.41749e-06)
(-2.86634e-16 -3.36978e-07 0)
(-1.62666e-17 8.02633e-08 8.02633e-08)
(-9.23282e-19 -1.91515e-08 0)
(-5.24992e-20 4.55494e-09 4.55494e-09)
(-2.99997e-21 -1.09463e-09 0)
(-1.70643e-22 2.5867e-10 2.5867e-10)
(-9.82633e-24 -6.32807e-11 0)
(-5.73787e-25 1.48877e-11 1.48877e-11)
(-2.84689e-26 -3.3209e-12 0)
(-2.90895e-27 1.23768e-12 1.23768e-12)
(1.08737e-28 2.04141e-13 0)
(-2.4385e-29 4.43935e-13 4.43935e-13)
(4.21218e-29 2.64818e-13 0)
(5.01925e-29 1.80256e-13 1.80256e-13)
(1.14869e-30 2.1884e-15 0)
(-1.93019e-29 -7.52317e-14 -7.52317e-14)
(2.21537e-29 -6.3462e-14 -0)
)
;

boundaryField
{
    movingWall
    {
        type            calculated;
        value           nonuniform List<vector> 
20
(
(0 5.00304e-06 -0)
(0 -6.01242e-06 -0)
(0 1.4439e-06 -0)
(0 -3.44082e-07 -0)
(0 8.25654e-08 -0)
(0 -1.98799e-08 -0)
(0 4.74983e-09 -0)
(0 -1.16241e-09 -0)
(0 2.74433e-10 -0)
(0 -6.95315e-11 -0)
(0 1.62696e-11 -0)
(0 -3.61906e-12 -0)
(0 1.69218e-12 -0)
(0 5.69821e-13 -0)
(0 9.25538e-13 -0)
(0 5.88387e-13 -0)
(0 4.07505e-13 -0)
(0 2.1884e-15 -0)
(0 -3.56691e-13 -0)
(0 -1.86888e-13 -0)
)
;
    }
    fixedWalls
    {
        type            calculated;
        value           nonuniform List<vector> 
60
(
(0 -2.48035e-05 -0)
(0 2.48088e-05 -0)
(0 -2.47948e-05 -0)
(0 2.48012e-05 -0)
(0 -2.47953e-05 -0)
(0 2.47964e-05 -0)
(0 -2.4799e-05 -0)
(0 2.48105e-05 -0)
(0 -2.4827e-05 -0)
(0 2.48511e-05 -0)
(0 -2.48798e-05 -0)
(0 2.49135e-05 -0)
(0 -2.49499e-05 -0)
(0 2.49879e-05 -0)
(0 -2.50261e-05 -0)
(0 2.50617e-05 -0)
(0 -2.50957e-05 -0)
(0 2.51245e-05 -0)
(0 -2.51479e-05 -0)
(0 2.52108e-05 -0)
(0 1.86624e-14 -0)
(0 -5.02026e-14 -0)
(0 -2.25995e-14 -0)
(0 4.65016e-14 -0)
(0 2.89033e-14 -0)
(0 -1.26739e-13 -0)
(0 -1.87184e-13 -0)
(0 -1.71187e-13 -0)
(0 -3.56394e-13 -0)
(0 -4.65367e-13 -0)
(0 -5.11486e-13 -0)
(0 -6.80844e-13 -0)
(0 -5.9466e-13 -0)
(0 -6.4198e-13 -0)
(0 -7.0604e-13 -0)
(0 -6.37036e-13 -0)
(0 -5.12055e-13 -0)
(0 -4.31635e-13 -0)
(0 -3.47852e-13 -0)
(0 -1.93844e-13 -0)
(0 -4.73752e-06 -0)
(0 5.86543e-06 -0)
(0 -1.39456e-06 -0)
(0 3.33291e-07 -0)
(0 -7.89732e-08 -0)
(0 1.91429e-08 -0)
(0 -4.40299e-09 -0)
(0 1.1645e-09 -0)
(0 -2.06281e-10 -0)
(0 9.95784e-11 -0)
(0 1.09264e-11 -0)
(0 2.19423e-11 -0)
(0 1.18828e-11 -0)
(0 9.0739e-12 -0)
(0 5.79675e-12 -0)
(0 3.92021e-12 -0)
(0 2.31489e-12 -0)
(0 1.06468e-12 -0)
(0 1.21609e-13 -0)
(0 8.68084e-14 -0)
)
;
    }
    frontAndBack
    {
        type            empty;
    }
}


// ************************************************************************* //
