/*--------------------------------*- C++ -*----------------------------------*\
| =========                 |                                                 |
| \\      /  F ield         | OpenFOAM: The Open Source CFD Toolbox           |
|  \\    /   O peration     | Version:  2312                                  |
|   \\  /    A nd           | Website:  www.openfoam.com                      |
|    \\/     M anipulation  |                                                 |
\*---------------------------------------------------------------------------*/
FoamFile
{
    version     2.0;
    format      ascii;
    arch        "LSB;label=32;scalar=64";
    class       volScalarField;
    location    "4";
    object      magSqrP;
}
// * * * * * * * * * * * * * * * * * * * * * * * * * * * * * * * * * * * * * //

dimensions      [0 4 -4 0 0 0 0];

internalField   nonuniform List<scalar> 
400
(
0
0
8.36078e-23
8.46113e-24
1.87378e-23
1.16404e-23
1.22656e-23
1.13338e-23
1.12248e-23
1.10404e-23
1.09757e-23
1.0927e-23
1.09019e-23
1.08871e-23
1.08762e-23
1.08696e-23
1.08643e-23
1.08563e-23
1.08477e-23
1.08437e-23
2.02373e-22
0
3.0088e-23
6.4839e-24
1.44149e-23
1.107e-23
1.15671e-23
1.10998e-23
1.10529e-23
1.095e-23
1.09137e-23
1.08864e-23
1.08736e-23
1.08656e-23
1.08604e-23
1.08566e-23
1.0854e-23
1.08472e-23
1.08384e-23
1.08341e-23
0
4.85134e-22
2.05727e-26
1.4672e-23
7.37852e-24
1.07472e-23
1.0447e-23
1.07912e-23
1.07672e-23
1.07992e-23
1.0804e-23
1.08131e-23
1.08195e-23
1.08245e-23
1.08295e-23
1.08316e-23
1.08331e-23
1.08288e-23
1.08219e-23
1.08196e-23
8.69125e-22
0
2.63545e-23
1.03509e-25
1.27858e-23
8.67711e-24
1.03966e-23
1.02376e-23
1.05316e-23
1.05985e-23
1.06765e-23
1.0717e-23
1.0749e-23
1.07707e-23
1.07872e-23
1.07971e-23
1.08032e-23
1.08023e-23
1.07986e-23
1.07973e-23
0
4.88011e-21
0
4.17577e-23
4.02192e-24
1.01933e-23
9.11373e-24
1.01305e-23
1.02263e-23
1.04405e-23
1.05377e-23
1.06178e-23
1.06707e-23
1.07104e-23
1.07374e-23
1.07564e-23
1.07671e-23
1.07696e-23
1.07684e-23
1.07677e-23
1.91783e-21
0
2.21487e-23
0
1.52552e-23
7.35876e-24
1.00685e-23
9.63827e-24
1.0127e-23
1.02633e-23
1.04251e-23
1.05203e-23
1.05947e-23
1.06465e-23
1.06847e-23
1.07104e-23
1.07261e-23
1.07329e-23
1.07338e-23
1.0734e-23
0
1.54593e-20
1.82617e-25
9.53406e-23
2.31356e-24
1.06225e-23
8.40912e-24
9.82967e-24
9.88749e-24
1.01836e-23
1.03171e-23
1.044e-23
1.05239e-23
1.05865e-23
1.06325e-23
1.06625e-23
1.06817e-23
1.06929e-23
1.06964e-23
1.06966e-23
3.02464e-21
0
1.77053e-23
0
1.85856e-23
6.69532e-24
1.02185e-23
9.38293e-24
9.94188e-24
1.00675e-23
1.02556e-23
1.0371e-23
1.04652e-23
1.05303e-23
1.05807e-23
1.0617e-23
1.0639e-23
1.06506e-23
1.06566e-23
1.06576e-23
0
2.85109e-20
1.3704e-24
1.58893e-22
1.53931e-24
1.1438e-23
8.15618e-24
9.81218e-24
9.7648e-24
1.00701e-23
1.01964e-23
1.0327e-23
1.04158e-23
1.04831e-23
1.05356e-23
1.05731e-23
1.05973e-23
1.06112e-23
1.06178e-23
1.06196e-23
3.77239e-21
0
1.43502e-23
0
2.16789e-23
6.56321e-24
1.06039e-23
9.40037e-24
9.9471e-24
1.00141e-23
1.0186e-23
1.02917e-23
1.03801e-23
1.04459e-23
1.04966e-23
1.05338e-23
1.05579e-23
1.05708e-23
1.05799e-23
1.05836e-23
0
3.79123e-20
3.95883e-24
2.05326e-22
1.39754e-24
1.23246e-23
8.2763e-24
9.99319e-24
9.82778e-24
1.00893e-23
1.01747e-23
1.02812e-23
1.03555e-23
1.04182e-23
1.04649e-23
1.04986e-23
1.05211e-23
1.05348e-23
1.0544e-23
1.05495e-23
3.82536e-21
0
1.24769e-23
0
2.38625e-23
6.9452e-24
1.10948e-23
9.63288e-24
1.00962e-23
1.00872e-23
1.02113e-23
1.02804e-23
1.0347e-23
1.0398e-23
1.04384e-23
1.04684e-23
1.04907e-23
1.05042e-23
1.05128e-23
1.05178e-23
0
3.8912e-20
7.67286e-24
2.12836e-22
1.83125e-24
1.30893e-23
8.7357e-24
1.03189e-23
1.00364e-23
1.02154e-23
1.02399e-23
1.03039e-23
1.03478e-23
1.03884e-23
1.04208e-23
1.04467e-23
1.04654e-23
1.04777e-23
1.04863e-23
1.04895e-23
3.14837e-21
0
1.22143e-23
0
2.4635e-23
7.8379e-24
1.16132e-23
1.00437e-23
1.03578e-23
1.02618e-23
1.0315e-23
1.0332e-23
1.03633e-23
1.03871e-23
1.04107e-23
1.04301e-23
1.04456e-23
1.0455e-23
1.0462e-23
1.04649e-23
0
3.07475e-20
1.1491e-23
1.77361e-22
3.03102e-24
1.36283e-23
9.50388e-24
1.07494e-23
1.0365e-23
1.04245e-23
1.03767e-23
1.03812e-23
1.0385e-23
1.03954e-23
1.04084e-23
1.04206e-23
1.04304e-23
1.04359e-23
1.04413e-23
1.04452e-23
2.02179e-21
0
1.35607e-23
0
2.38145e-23
9.22495e-24
1.21052e-23
1.05867e-23
1.06954e-23
1.05063e-23
1.04702e-23
1.04291e-23
1.04136e-23
1.04085e-23
1.04091e-23
1.04133e-23
1.04177e-23
1.04213e-23
1.04259e-23
1.043e-23
0
1.73252e-20
1.4588e-23
1.15371e-22
5.4041e-24
1.3925e-23
1.05435e-23
1.12287e-23
1.07575e-23
1.06682e-23
1.05434e-23
1.04831e-23
1.0443e-23
1.04225e-23
1.04122e-23
1.04097e-23
1.04091e-23
1.04111e-23
1.04137e-23
1.04174e-23
8.82424e-22
0
1.71495e-23
0
2.20124e-23
1.10535e-23
1.25677e-23
1.11818e-23
1.1037e-23
1.07547e-23
1.06273e-23
1.05267e-23
1.04718e-23
1.04364e-23
1.04175e-23
1.04098e-23
1.04053e-23
1.04035e-23
1.04038e-23
1.04072e-23
0
5.0631e-21
2.59112e-23
5.47753e-23
1.04633e-23
1.38906e-23
1.17897e-23
1.16221e-23
1.11222e-23
1.08749e-23
1.06872e-23
1.05701e-23
1.04956e-23
1.04496e-23
1.04241e-23
1.04105e-23
1.04022e-23
1.03985e-23
1.04008e-23
1.04026e-23
1.09561e-22
0
8.27424e-23
9.70088e-25
2.26654e-23
1.17922e-23
1.30771e-23
1.15579e-23
1.1292e-23
1.09176e-23
1.07328e-23
1.05936e-23
1.05109e-23
1.04584e-23
1.04293e-23
1.0411e-23
1.04008e-23
1.03966e-23
1.03996e-23
1.0402e-23
)
;

boundaryField
{
    movingWall
    {
        type            calculated;
        value           nonuniform List<scalar> 
20
(
1.09561e-22
0
8.27424e-23
9.70088e-25
2.26654e-23
1.17922e-23
1.30771e-23
1.15579e-23
1.1292e-23
1.09176e-23
1.07328e-23
1.05936e-23
1.05109e-23
1.04584e-23
1.04293e-23
1.0411e-23
1.04008e-23
1.03966e-23
1.03996e-23
1.0402e-23
)
;
    }
    fixedWalls
    {
        type            calculated;
        value           nonuniform List<scalar> 
60
(
0
2.02373e-22
0
8.69125e-22
0
1.91783e-21
0
3.02464e-21
0
3.77239e-21
0
3.82536e-21
0
3.14837e-21
0
2.02179e-21
0
8.82424e-22
0
1.09561e-22
1.08437e-23
1.08341e-23
1.08196e-23
1.07973e-23
1.07677e-23
1.0734e-23
1.06966e-23
1.06576e-23
1.06196e-23
1.05836e-23
1.05495e-23
1.05178e-23
1.04895e-23
1.04649e-23
1.04452e-23
1.043e-23
1.04174e-23
1.04072e-23
1.04026e-23
1.0402e-23
0
0
8.36078e-23
8.46113e-24
1.87378e-23
1.16404e-23
1.22656e-23
1.13338e-23
1.12248e-23
1.10404e-23
1.09757e-23
1.0927e-23
1.09019e-23
1.08871e-23
1.08762e-23
1.08696e-23
1.08643e-23
1.08563e-23
1.08477e-23
1.08437e-23
)
;
    }
    frontAndBack
    {
        type            empty;
    }
}


// ************************************************************************* //
