/*--------------------------------*- C++ -*----------------------------------*\
| =========                 |                                                 |
| \\      /  F ield         | OpenFOAM: The Open Source CFD Toolbox           |
|  \\    /   O peration     | Version:  2312                                  |
|   \\  /    A nd           | Website:  www.openfoam.com                      |
|    \\/     M anipulation  |                                                 |
\*---------------------------------------------------------------------------*/
FoamFile
{
    version     2.0;
    format      ascii;
    arch        "LSB;label=32;scalar=64";
    class       volVectorField;
    location    "4";
    object      momentum1:momentum;
}
// * * * * * * * * * * * * * * * * * * * * * * * * * * * * * * * * * * * * * //

dimensions      [1 1 -1 0 0 0 0];

internalField   nonuniform List<vector> 
400
(
(-2.5e-07 1.54894e-14 0)
(-2.5e-07 -3.67391e-15 0)
(-2.5e-07 8.72408e-16 0)
(-2.5e-07 -2.06851e-16 0)
(-2.5e-07 4.91804e-17 0)
(-2.5e-07 -1.16299e-17 0)
(-2.5e-07 2.78455e-18 0)
(-2.5e-07 -6.4725e-19 0)
(-2.5e-07 1.62185e-19 0)
(-2.5e-07 -3.29603e-20 0)
(-2.5e-07 1.16042e-20 0)
(-2.5e-07 -1.02256e-22 0)
(-2.5e-07 1.93462e-21 0)
(-2.5e-07 9.4383e-22 0)
(-2.5e-07 7.88194e-22 0)
(-2.5e-07 5.51797e-22 0)
(-2.5e-07 4.24563e-22 0)
(-2.5e-07 3.15687e-22 0)
(-2.5e-07 2.05357e-22 0)
(-2.5e-07 1.1664e-23 0)
(-2.5e-07 -1.54851e-14 0)
(-2.5e-07 3.67226e-15 0)
(-2.5e-07 -8.69809e-16 0)
(-2.5e-07 2.06521e-16 0)
(-2.5e-07 -4.86974e-17 0)
(-2.5e-07 1.16373e-17 0)
(-2.5e-07 -2.69175e-18 0)
(-2.5e-07 6.7281e-19 0)
(-2.5e-07 -1.35516e-19 0)
(-2.5e-07 4.75207e-20 0)
(-2.5e-07 -4.56511e-22 0)
(-2.5e-07 7.72271e-21 0)
(-2.5e-07 3.71456e-21 0)
(-2.5e-07 3.19382e-21 0)
(-2.5e-07 2.23326e-21 0)
(-2.5e-07 1.67462e-21 0)
(-2.5e-07 1.26201e-21 0)
(-2.5e-07 9.79211e-22 0)
(-2.5e-07 5.30954e-22 0)
(-2.5e-07 2.50468e-24 0)
(-2.5e-07 1.54697e-14 0)
(-2.5e-07 -3.66403e-15 0)
(-2.5e-07 8.69192e-16 0)
(-2.5e-07 -2.05646e-16 0)
(-2.5e-07 4.88986e-17 0)
(-2.5e-07 -1.14719e-17 0)
(-2.5e-07 2.7903e-18 0)
(-2.5e-07 -6.12384e-19 0)
(-2.5e-07 1.77532e-19 0)
(-2.5e-07 -1.95179e-20 0)
(-2.5e-07 2.05402e-20 0)
(-2.5e-07 6.68092e-21 0)
(-2.5e-07 6.95518e-21 0)
(-2.5e-07 4.70892e-21 0)
(-2.5e-07 3.61011e-21 0)
(-2.5e-07 2.64821e-21 0)
(-2.5e-07 2.0123e-21 0)
(-2.5e-07 1.52999e-21 0)
(-2.5e-07 8.1781e-22 0)
(-2.5e-07 -1.41247e-23 0)
(-2.5e-07 -1.54609e-14 0)
(-2.5e-07 3.65881e-15 0)
(-2.5e-07 -8.67321e-16 0)
(-2.5e-07 2.05407e-16 0)
(-2.5e-07 -4.85051e-17 0)
(-2.5e-07 1.15795e-17 0)
(-2.5e-07 -2.66919e-18 0)
(-2.5e-07 6.80785e-19 0)
(-2.5e-07 -1.25441e-19 0)
(-2.5e-07 5.53293e-20 0)
(-2.5e-07 5.81818e-21 0)
(-2.5e-07 1.2678e-20 0)
(-2.5e-07 7.59617e-21 0)
(-2.5e-07 6.16841e-21 0)
(-2.5e-07 4.51909e-21 0)
(-2.5e-07 3.39798e-21 0)
(-2.5e-07 2.611e-21 0)
(-2.5e-07 2.0303e-21 0)
(-2.5e-07 1.08908e-21 0)
(-2.5e-07 -4.81779e-24 0)
(-2.5e-07 1.54544e-14 0)
(-2.5e-07 -3.65573e-15 0)
(-2.5e-07 8.66777e-16 0)
(-2.5e-07 -2.04976e-16 0)
(-2.5e-07 4.86017e-17 0)
(-2.5e-07 -1.1437e-17 0)
(-2.5e-07 2.76042e-18 0)
(-2.5e-07 -6.08869e-19 0)
(-2.5e-07 1.77811e-19 0)
(-2.5e-07 -1.6127e-20 0)
(-2.5e-07 2.35796e-20 0)
(-2.5e-07 9.57593e-21 0)
(-2.5e-07 9.37095e-21 0)
(-2.5e-07 6.67671e-21 0)
(-2.5e-07 5.19566e-21 0)
(-2.5e-07 3.91152e-21 0)
(-2.5e-07 3.0632e-21 0)
(-2.5e-07 2.40296e-21 0)
(-2.5e-07 1.29878e-21 0)
(-2.5e-07 -1.58168e-23 0)
(-2.5e-07 -1.54544e-14 0)
(-2.5e-07 3.65532e-15 0)
(-2.5e-07 -8.66548e-16 0)
(-2.5e-07 2.05022e-16 0)
(-2.5e-07 -4.84751e-17 0)
(-2.5e-07 1.15265e-17 0)
(-2.5e-07 -2.68026e-18 0)
(-2.5e-07 6.71047e-19 0)
(-2.5e-07 -1.28541e-19 0)
(-2.5e-07 5.43593e-20 0)
(-2.5e-07 6.20728e-21 0)
(-2.5e-07 1.35419e-20 0)
(-2.5e-07 8.59748e-21 0)
(-2.5e-07 7.17299e-21 0)
(-2.5e-07 5.43064e-21 0)
(-2.5e-07 4.21474e-21 0)
(-2.5e-07 3.34544e-21 0)
(-2.5e-07 2.67887e-21 0)
(-2.5e-07 1.44232e-21 0)
(-2.5e-07 -4.53308e-23 0)
(-2.5e-07 1.54598e-14 0)
(-2.5e-07 -3.65721e-15 0)
(-2.5e-07 8.67063e-16 0)
(-2.5e-07 -2.05097e-16 0)
(-2.5e-07 4.85892e-17 0)
(-2.5e-07 -1.14689e-17 0)
(-2.5e-07 2.7452e-18 0)
(-2.5e-07 -6.19892e-19 0)
(-2.5e-07 1.71889e-19 0)
(-2.5e-07 -1.95008e-20 0)
(-2.5e-07 2.19126e-20 0)
(-2.5e-07 8.86044e-21 0)
(-2.5e-07 9.20344e-21 0)
(-2.5e-07 6.81136e-21 0)
(-2.5e-07 5.4547e-21 0)
(-2.5e-07 4.23696e-21 0)
(-2.5e-07 3.45252e-21 0)
(-2.5e-07 2.83762e-21 0)
(-2.5e-07 1.5346e-21 0)
(-2.5e-07 -8.31088e-23 0)
(-2.5e-07 -1.5472e-14 0)
(-2.5e-07 3.66107e-15 0)
(-2.5e-07 -8.67985e-16 0)
(-2.5e-07 2.05406e-16 0)
(-2.5e-07 -4.86175e-17 0)
(-2.5e-07 1.15375e-17 0)
(-2.5e-07 -2.70431e-18 0)
(-2.5e-07 6.63147e-19 0)
(-2.5e-07 -1.36226e-19 0)
(-2.5e-07 5.00222e-20 0)
(-2.5e-07 3.23444e-21 0)
(-2.5e-07 1.17614e-20 0)
(-2.5e-07 7.5881e-21 0)
(-2.5e-07 6.64469e-21 0)
(-2.5e-07 5.16895e-21 0)
(-2.5e-07 4.09717e-21 0)
(-2.5e-07 3.35685e-21 0)
(-2.5e-07 2.81825e-21 0)
(-2.5e-07 1.51406e-21 0)
(-2.5e-07 -1.40873e-22 0)
(-2.5e-07 1.54895e-14 0)
(-2.5e-07 -3.66682e-15 0)
(-2.5e-07 8.69391e-16 0)
(-2.5e-07 -2.05805e-16 0)
(-2.5e-07 4.87619e-17 0)
(-2.5e-07 -1.15343e-17 0)
(-2.5e-07 2.74753e-18 0)
(-2.5e-07 -6.33144e-19 0)
(-2.5e-07 1.6609e-19 0)
(-2.5e-07 -2.47166e-20 0)
(-2.5e-07 1.8548e-20 0)
(-2.5e-07 6.46395e-21 0)
(-2.5e-07 7.65368e-21 0)
(-2.5e-07 5.79744e-21 0)
(-2.5e-07 4.80929e-21 0)
(-2.5e-07 3.8022e-21 0)
(-2.5e-07 3.16542e-21 0)
(-2.5e-07 2.7026e-21 0)
(-2.5e-07 1.42584e-21 0)
(-2.5e-07 -2.22746e-22 0)
(-2.5e-07 -1.55125e-14 0)
(-2.5e-07 3.67402e-15 0)
(-2.5e-07 -8.7114e-16 0)
(-2.5e-07 2.06328e-16 0)
(-2.5e-07 -4.88807e-17 0)
(-2.5e-07 1.15939e-17 0)
(-2.5e-07 -2.73294e-18 0)
(-2.5e-07 6.60396e-19 0)
(-2.5e-07 -1.43949e-19 0)
(-2.5e-07 4.55756e-20 0)
(-2.5e-07 -4.76697e-22 0)
(-2.5e-07 9.20042e-21 0)
(-2.5e-07 5.67769e-21 0)
(-2.5e-07 5.24867e-21 0)
(-2.5e-07 4.20138e-21 0)
(-2.5e-07 3.44895e-21 0)
(-2.5e-07 2.92483e-21 0)
(-2.5e-07 2.54719e-21 0)
(-2.5e-07 1.32134e-21 0)
(-2.5e-07 -2.90854e-22 0)
(-2.5e-07 1.55396e-14 0)
(-2.5e-07 -3.68251e-15 0)
(-2.5e-07 8.732e-16 0)
(-2.5e-07 -2.06928e-16 0)
(-2.5e-07 4.90546e-17 0)
(-2.5e-07 -1.16215e-17 0)
(-2.5e-07 2.7625e-18 0)
(-2.5e-07 -6.45769e-19 0)
(-2.5e-07 1.6214e-19 0)
(-2.5e-07 -2.97086e-20 0)
(-2.5e-07 1.51333e-20 0)
(-2.5e-07 3.76568e-21 0)
(-2.5e-07 5.65914e-21 0)
(-2.5e-07 4.2754e-21 0)
(-2.5e-07 3.65843e-21 0)
(-2.5e-07 2.98545e-21 0)
(-2.5e-07 2.59157e-21 0)
(-2.5e-07 2.29559e-21 0)
(-2.5e-07 1.17163e-21 0)
(-2.5e-07 -3.36619e-22 0)
(-2.5e-07 -1.55702e-14 0)
(-2.5e-07 3.69192e-15 0)
(-2.5e-07 -8.75479e-16 0)
(-2.5e-07 2.07594e-16 0)
(-2.5e-07 -4.92239e-17 0)
(-2.5e-07 1.16776e-17 0)
(-2.5e-07 -2.76414e-18 0)
(-2.5e-07 6.61438e-19 0)
(-2.5e-07 -1.50672e-19 0)
(-2.5e-07 4.1984e-20 0)
(-2.5e-07 -3.93101e-21 0)
(-2.5e-07 6.5917e-21 0)
(-2.5e-07 3.65026e-21 0)
(-2.5e-07 3.70814e-21 0)
(-2.5e-07 2.98022e-21 0)
(-2.5e-07 2.5076e-21 0)
(-2.5e-07 2.22413e-21 0)
(-2.5e-07 2.03512e-21 0)
(-2.5e-07 1.01797e-21 0)
(-2.5e-07 -3.74705e-22 0)
(-2.5e-07 1.56026e-14 0)
(-2.5e-07 -3.70183e-15 0)
(-2.5e-07 8.77883e-16 0)
(-2.5e-07 -2.08285e-16 0)
(-2.5e-07 4.94111e-17 0)
(-2.5e-07 -1.17211e-17 0)
(-2.5e-07 2.78381e-18 0)
(-2.5e-07 -6.57654e-19 0)
(-2.5e-07 1.59685e-19 0)
(-2.5e-07 -3.39867e-20 0)
(-2.5e-07 1.21114e-20 0)
(-2.5e-07 1.131e-21 0)
(-2.5e-07 3.55841e-21 0)
(-2.5e-07 2.61549e-21 0)
(-2.5e-07 2.3956e-21 0)
(-2.5e-07 2.04711e-21 0)
(-2.5e-07 1.9219e-21 0)
(-2.5e-07 1.82489e-21 0)
(-2.5e-07 8.7124e-22 0)
(-2.5e-07 -4.05544e-22 0)
(-2.5e-07 -1.56359e-14 0)
(-2.5e-07 3.71199e-15 0)
(-2.5e-07 -8.80341e-16 0)
(-2.5e-07 2.08992e-16 0)
(-2.5e-07 -4.95997e-17 0)
(-2.5e-07 1.17701e-17 0)
(-2.5e-07 -2.79627e-18 0)
(-2.5e-07 6.64045e-19 0)
(-2.5e-07 -1.56644e-19 0)
(-2.5e-07 3.90935e-20 0)
(-2.5e-07 -6.94775e-21 0)
(-2.5e-07 4.25432e-21 0)
(-2.5e-07 1.66092e-21 0)
(-2.5e-07 2.15011e-21 0)
(-2.5e-07 1.78928e-21 0)
(-2.5e-07 1.61733e-21 0)
(-2.5e-07 1.5841e-21 0)
(-2.5e-07 1.58432e-21 0)
(-2.5e-07 7.47015e-22 0)
(-2.5e-07 -4.35119e-22 0)
(-2.5e-07 1.56685e-14 0)
(-2.5e-07 -3.72171e-15 0)
(-2.5e-07 8.82697e-16 0)
(-2.5e-07 -2.09663e-16 0)
(-2.5e-07 4.97684e-17 0)
(-2.5e-07 -1.18218e-17 0)
(-2.5e-07 2.80486e-18 0)
(-2.5e-07 -6.689e-19 0)
(-2.5e-07 1.57875e-19 0)
(-2.5e-07 -3.74957e-20 0)
(-2.5e-07 9.79706e-21 0)
(-2.5e-07 -9.32973e-22 0)
(-2.5e-07 1.94923e-21 0)
(-2.5e-07 1.29814e-21 0)
(-2.5e-07 1.37305e-21 0)
(-2.5e-07 1.21517e-21 0)
(-2.5e-07 1.26773e-21 0)
(-2.5e-07 1.31587e-21 0)
(-2.5e-07 5.88978e-22 0)
(-2.5e-07 -4.41275e-22 0)
(-2.5e-07 -1.56991e-14 0)
(-2.5e-07 3.73091e-15 0)
(-2.5e-07 -8.84945e-16 0)
(-2.5e-07 2.10279e-16 0)
(-2.5e-07 -4.99535e-17 0)
(-2.5e-07 1.18523e-17 0)
(-2.5e-07 -2.82661e-18 0)
(-2.5e-07 6.66386e-19 0)
(-2.5e-07 -1.61572e-19 0)
(-2.5e-07 3.70776e-20 0)
(-2.5e-07 -9.09321e-21 0)
(-2.5e-07 2.63664e-21 0)
(-2.5e-07 3.07207e-22 0)
(-2.5e-07 1.02071e-21 0)
(-2.5e-07 8.77026e-22 0)
(-2.5e-07 8.76407e-22 0)
(-2.5e-07 9.47599e-22 0)
(-2.5e-07 1.00512e-21 0)
(-2.5e-07 4.3306e-22 0)
(-2.5e-07 -3.98147e-22 0)
(-2.5e-07 1.57264e-14 0)
(-2.5e-07 -3.73884e-15 0)
(-2.5e-07 8.86816e-16 0)
(-2.5e-07 -2.10831e-16 0)
(-2.5e-07 5.00557e-17 0)
(-2.5e-07 -1.19082e-17 0)
(-2.5e-07 2.82028e-18 0)
(-2.5e-07 -6.77895e-19 0)
(-2.5e-07 1.56784e-19 0)
(-2.5e-07 -3.97509e-20 0)
(-2.5e-07 8.36809e-21 0)
(-2.5e-07 -2.18487e-21 0)
(-2.5e-07 8.58456e-22 0)
(-2.5e-07 3.8896e-22 0)
(-2.5e-07 5.7068e-22 0)
(-2.5e-07 5.32486e-22 0)
(-2.5e-07 6.5236e-22 0)
(-2.5e-07 7.72065e-22 0)
(-2.5e-07 3.42729e-22 0)
(-2.5e-07 -3.20034e-22 0)
(-2.5e-07 -1.57489e-14 0)
(-2.5e-07 3.7454e-15 0)
(-2.5e-07 -8.88655e-16 0)
(-2.5e-07 2.11231e-16 0)
(-2.5e-07 -5.02435e-17 0)
(-2.5e-07 1.19174e-17 0)
(-2.5e-07 -2.85034e-18 0)
(-2.5e-07 6.70117e-19 0)
(-2.5e-07 -1.64374e-19 0)
(-2.5e-07 3.65172e-20 0)
(-2.5e-07 -1.00715e-20 0)
(-2.5e-07 1.91798e-21 0)
(-2.5e-07 -4.10111e-22 0)
(-2.5e-07 4.12583e-22 0)
(-2.5e-07 3.10624e-22 0)
(-2.5e-07 3.92504e-22 0)
(-2.5e-07 4.87067e-22 0)
(-2.5e-07 5.75507e-22 0)
(-2.5e-07 2.37363e-22 0)
(-2.5e-07 -2.69772e-22 0)
(-2.5e-07 1.57674e-14 0)
(-2.5e-07 -3.75081e-15 0)
(-2.5e-07 8.89362e-16 0)
(-2.5e-07 -2.11412e-16 0)
(-2.5e-07 5.01812e-17 0)
(-2.5e-07 -1.19273e-17 0)
(-2.5e-07 2.82382e-18 0)
(-2.5e-07 -6.76503e-19 0)
(-2.5e-07 1.57218e-19 0)
(-2.5e-07 -3.92244e-20 0)
(-2.5e-07 8.35593e-21 0)
(-2.5e-07 -2.40229e-21 0)
(-2.5e-07 5.04624e-22 0)
(-2.5e-07 -6.6627e-24 0)
(-2.5e-07 1.92762e-22 0)
(-2.5e-07 2.03078e-22 0)
(-2.5e-07 2.92006e-22 0)
(-2.5e-07 3.81104e-22 0)
(-2.5e-07 1.4221e-22 0)
(-2.5e-07 -2.17407e-22 0)
(-2.5e-07 -1.57827e-14 0)
(-2.5e-07 3.76087e-15 0)
(-2.5e-07 -8.92917e-16 0)
(-2.5e-07 2.1265e-16 0)
(-2.5e-07 -5.06665e-17 0)
(-2.5e-07 1.20524e-17 0)
(-2.5e-07 -2.88144e-18 0)
(-2.5e-07 6.85156e-19 0)
(-2.5e-07 -1.64923e-19 0)
(-2.5e-07 3.88204e-20 0)
(-2.5e-07 -9.63523e-21 0)
(-2.5e-07 2.14316e-21 0)
(-2.5e-07 -5.87582e-22 0)
(-2.5e-07 1.33164e-22 0)
(-2.5e-07 -1.37323e-23 0)
(-2.5e-07 3.97649e-23 0)
(-2.5e-07 6.96127e-23 0)
(-2.5e-07 1.31225e-22 0)
(-2.5e-07 6.41417e-23 0)
(-2.5e-07 -8.72715e-23 0)
)
;

boundaryField
{
    movingWall
    {
        type            calculated;
        value           uniform (0 0 0);
    }
    fixedWalls
    {
        type            calculated;
        value           uniform (0 0 0);
    }
    frontAndBack
    {
        type            empty;
    }
}


// ************************************************************************* //
