/*--------------------------------*- C++ -*----------------------------------*\
| =========                 |                                                 |
| \\      /  F ield         | OpenFOAM: The Open Source CFD Toolbox           |
|  \\    /   O peration     | Version:  2312                                  |
|   \\  /    A nd           | Website:  www.openfoam.com                      |
|    \\/     M anipulation  |                                                 |
\*---------------------------------------------------------------------------*/
FoamFile
{
    version     2.0;
    format      ascii;
    arch        "LSB;label=32;scalar=64";
    class       volVectorField;
    location    "4";
    object      norm_U_composite;
}
// * * * * * * * * * * * * * * * * * * * * * * * * * * * * * * * * * * * * * //

dimensions      [0 0 0 0 0 0 0];

internalField   nonuniform List<vector> 
400
(
(-0.5 3.09788e-08 0)
(-0.5 -7.34783e-09 0)
(-0.5 1.74482e-09 0)
(-0.5 -4.13702e-10 0)
(-0.5 9.83608e-11 0)
(-0.5 -2.32597e-11 0)
(-0.5 5.5691e-12 0)
(-0.5 -1.2945e-12 0)
(-0.5 3.24369e-13 0)
(-0.5 -6.59206e-14 0)
(-0.5 2.32085e-14 0)
(-0.5 -2.04512e-16 0)
(-0.5 3.86924e-15 0)
(-0.5 1.88766e-15 0)
(-0.5 1.57639e-15 0)
(-0.5 1.10359e-15 0)
(-0.5 8.49126e-16 0)
(-0.5 6.31374e-16 0)
(-0.5 4.10714e-16 0)
(-0.5 2.3328e-17 0)
(-0.5 -3.09703e-08 0)
(-0.5 7.34452e-09 0)
(-0.5 -1.73962e-09 0)
(-0.5 4.13042e-10 0)
(-0.5 -9.73948e-11 0)
(-0.5 2.32746e-11 0)
(-0.5 -5.38349e-12 0)
(-0.5 1.34562e-12 0)
(-0.5 -2.71032e-13 0)
(-0.5 9.50414e-14 0)
(-0.5 -9.13022e-16 0)
(-0.5 1.54454e-14 0)
(-0.5 7.42913e-15 0)
(-0.5 6.38764e-15 0)
(-0.5 4.46651e-15 0)
(-0.5 3.34924e-15 0)
(-0.5 2.52402e-15 0)
(-0.5 1.95842e-15 0)
(-0.5 1.06191e-15 0)
(-0.5 5.00935e-18 0)
(-0.5 3.09395e-08 0)
(-0.5 -7.32807e-09 0)
(-0.5 1.73838e-09 0)
(-0.5 -4.11291e-10 0)
(-0.5 9.77971e-11 0)
(-0.5 -2.29437e-11 0)
(-0.5 5.58061e-12 0)
(-0.5 -1.22477e-12 0)
(-0.5 3.55065e-13 0)
(-0.5 -3.90357e-14 0)
(-0.5 4.10804e-14 0)
(-0.5 1.33618e-14 0)
(-0.5 1.39104e-14 0)
(-0.5 9.41785e-15 0)
(-0.5 7.22021e-15 0)
(-0.5 5.29642e-15 0)
(-0.5 4.02461e-15 0)
(-0.5 3.05999e-15 0)
(-0.5 1.63562e-15 0)
(-0.5 -2.82493e-17 0)
(-0.5 -3.09219e-08 0)
(-0.5 7.31761e-09 0)
(-0.5 -1.73464e-09 0)
(-0.5 4.10814e-10 0)
(-0.5 -9.70101e-11 0)
(-0.5 2.31589e-11 0)
(-0.5 -5.33839e-12 0)
(-0.5 1.36157e-12 0)
(-0.5 -2.50882e-13 0)
(-0.5 1.10659e-13 0)
(-0.5 1.16364e-14 0)
(-0.5 2.53559e-14 0)
(-0.5 1.51923e-14 0)
(-0.5 1.23368e-14 0)
(-0.5 9.03817e-15 0)
(-0.5 6.79597e-15 0)
(-0.5 5.222e-15 0)
(-0.5 4.06059e-15 0)
(-0.5 2.17816e-15 0)
(-0.5 -9.63558e-18 0)
(-0.5 3.09087e-08 0)
(-0.5 -7.31145e-09 0)
(-0.5 1.73355e-09 0)
(-0.5 -4.09952e-10 0)
(-0.5 9.72034e-11 0)
(-0.5 -2.28741e-11 0)
(-0.5 5.52084e-12 0)
(-0.5 -1.21774e-12 0)
(-0.5 3.55621e-13 0)
(-0.5 -3.22541e-14 0)
(-0.5 4.71592e-14 0)
(-0.5 1.91519e-14 0)
(-0.5 1.87419e-14 0)
(-0.5 1.33534e-14 0)
(-0.5 1.03913e-14 0)
(-0.5 7.82304e-15 0)
(-0.5 6.1264e-15 0)
(-0.5 4.80593e-15 0)
(-0.5 2.59757e-15 0)
(-0.5 -3.16336e-17 0)
(-0.5 -3.09089e-08 0)
(-0.5 7.31064e-09 0)
(-0.5 -1.7331e-09 0)
(-0.5 4.10043e-10 0)
(-0.5 -9.69502e-11 0)
(-0.5 2.30531e-11 0)
(-0.5 -5.36053e-12 0)
(-0.5 1.34209e-12 0)
(-0.5 -2.57082e-13 0)
(-0.5 1.08719e-13 0)
(-0.5 1.24146e-14 0)
(-0.5 2.70838e-14 0)
(-0.5 1.7195e-14 0)
(-0.5 1.4346e-14 0)
(-0.5 1.08613e-14 0)
(-0.5 8.42948e-15 0)
(-0.5 6.69088e-15 0)
(-0.5 5.35774e-15 0)
(-0.5 2.88464e-15 0)
(-0.5 -9.06617e-17 0)
(-0.5 3.09196e-08 0)
(-0.5 -7.31441e-09 0)
(-0.5 1.73413e-09 0)
(-0.5 -4.10193e-10 0)
(-0.5 9.71785e-11 0)
(-0.5 -2.29378e-11 0)
(-0.5 5.49039e-12 0)
(-0.5 -1.23978e-12 0)
(-0.5 3.43777e-13 0)
(-0.5 -3.90016e-14 0)
(-0.5 4.38252e-14 0)
(-0.5 1.77209e-14 0)
(-0.5 1.84069e-14 0)
(-0.5 1.36227e-14 0)
(-0.5 1.09094e-14 0)
(-0.5 8.47392e-15 0)
(-0.5 6.90503e-15 0)
(-0.5 5.67524e-15 0)
(-0.5 3.0692e-15 0)
(-0.5 -1.66218e-16 0)
(-0.5 -3.09439e-08 0)
(-0.5 7.32214e-09 0)
(-0.5 -1.73597e-09 0)
(-0.5 4.10813e-10 0)
(-0.5 -9.72351e-11 0)
(-0.5 2.30751e-11 0)
(-0.5 -5.40862e-12 0)
(-0.5 1.32629e-12 0)
(-0.5 -2.72452e-13 0)
(-0.5 1.00044e-13 0)
(-0.5 6.46887e-15 0)
(-0.5 2.35228e-14 0)
(-0.5 1.51762e-14 0)
(-0.5 1.32894e-14 0)
(-0.5 1.03379e-14 0)
(-0.5 8.19434e-15 0)
(-0.5 6.71369e-15 0)
(-0.5 5.63651e-15 0)
(-0.5 3.02812e-15 0)
(-0.5 -2.81747e-16 0)
(-0.5 3.0979e-08 0)
(-0.5 -7.33364e-09 0)
(-0.5 1.73878e-09 0)
(-0.5 -4.11611e-10 0)
(-0.5 9.75238e-11 0)
(-0.5 -2.30686e-11 0)
(-0.5 5.49506e-12 0)
(-0.5 -1.26629e-12 0)
(-0.5 3.3218e-13 0)
(-0.5 -4.94331e-14 0)
(-0.5 3.7096e-14 0)
(-0.5 1.29279e-14 0)
(-0.5 1.53074e-14 0)
(-0.5 1.15949e-14 0)
(-0.5 9.61857e-15 0)
(-0.5 7.6044e-15 0)
(-0.5 6.33084e-15 0)
(-0.5 5.4052e-15 0)
(-0.5 2.85168e-15 0)
(-0.5 -4.45493e-16 0)
(-0.5 -3.1025e-08 0)
(-0.5 7.34804e-09 0)
(-0.5 -1.74228e-09 0)
(-0.5 4.12656e-10 0)
(-0.5 -9.77614e-11 0)
(-0.5 2.31878e-11 0)
(-0.5 -5.46589e-12 0)
(-0.5 1.32079e-12 0)
(-0.5 -2.87899e-13 0)
(-0.5 9.11512e-14 0)
(-0.5 -9.53394e-16 0)
(-0.5 1.84008e-14 0)
(-0.5 1.13554e-14 0)
(-0.5 1.04973e-14 0)
(-0.5 8.40276e-15 0)
(-0.5 6.89791e-15 0)
(-0.5 5.84966e-15 0)
(-0.5 5.09439e-15 0)
(-0.5 2.64269e-15 0)
(-0.5 -5.81708e-16 0)
(-0.5 3.10792e-08 0)
(-0.5 -7.36503e-09 0)
(-0.5 1.7464e-09 0)
(-0.5 -4.13856e-10 0)
(-0.5 9.81092e-11 0)
(-0.5 -2.32429e-11 0)
(-0.5 5.52501e-12 0)
(-0.5 -1.29154e-12 0)
(-0.5 3.2428e-13 0)
(-0.5 -5.94172e-14 0)
(-0.5 3.02666e-14 0)
(-0.5 7.53136e-15 0)
(-0.5 1.13183e-14 0)
(-0.5 8.55079e-15 0)
(-0.5 7.31686e-15 0)
(-0.5 5.97091e-15 0)
(-0.5 5.18314e-15 0)
(-0.5 4.59118e-15 0)
(-0.5 2.34326e-15 0)
(-0.5 -6.73238e-16 0)
(-0.5 -3.11403e-08 0)
(-0.5 7.38384e-09 0)
(-0.5 -1.75096e-09 0)
(-0.5 4.15188e-10 0)
(-0.5 -9.84477e-11 0)
(-0.5 2.33553e-11 0)
(-0.5 -5.52828e-12 0)
(-0.5 1.32288e-12 0)
(-0.5 -3.01345e-13 0)
(-0.5 8.39679e-14 0)
(-0.5 -7.86201e-15 0)
(-0.5 1.31834e-14 0)
(-0.5 7.30052e-15 0)
(-0.5 7.41629e-15 0)
(-0.5 5.96043e-15 0)
(-0.5 5.01519e-15 0)
(-0.5 4.44826e-15 0)
(-0.5 4.07023e-15 0)
(-0.5 2.03593e-15 0)
(-0.5 -7.49411e-16 0)
(-0.5 3.12052e-08 0)
(-0.5 -7.40366e-09 0)
(-0.5 1.75577e-09 0)
(-0.5 -4.1657e-10 0)
(-0.5 9.88223e-11 0)
(-0.5 -2.34423e-11 0)
(-0.5 5.56762e-12 0)
(-0.5 -1.31531e-12 0)
(-0.5 3.1937e-13 0)
(-0.5 -6.79733e-14 0)
(-0.5 2.42228e-14 0)
(-0.5 2.262e-15 0)
(-0.5 7.11682e-15 0)
(-0.5 5.23098e-15 0)
(-0.5 4.7912e-15 0)
(-0.5 4.09423e-15 0)
(-0.5 3.8438e-15 0)
(-0.5 3.64978e-15 0)
(-0.5 1.74248e-15 0)
(-0.5 -8.11088e-16 0)
(-0.5 -3.12719e-08 0)
(-0.5 7.42397e-09 0)
(-0.5 -1.76068e-09 0)
(-0.5 4.17984e-10 0)
(-0.5 -9.91994e-11 0)
(-0.5 2.35403e-11 0)
(-0.5 -5.59254e-12 0)
(-0.5 1.32809e-12 0)
(-0.5 -3.13288e-13 0)
(-0.5 7.8187e-14 0)
(-0.5 -1.38955e-14 0)
(-0.5 8.50865e-15 0)
(-0.5 3.32185e-15 0)
(-0.5 4.30021e-15 0)
(-0.5 3.57855e-15 0)
(-0.5 3.23466e-15 0)
(-0.5 3.16821e-15 0)
(-0.5 3.16864e-15 0)
(-0.5 1.49403e-15 0)
(-0.5 -8.70237e-16 0)
(-0.5 3.1337e-08 0)
(-0.5 -7.44342e-09 0)
(-0.5 1.76539e-09 0)
(-0.5 -4.19325e-10 0)
(-0.5 9.95367e-11 0)
(-0.5 -2.36435e-11 0)
(-0.5 5.60973e-12 0)
(-0.5 -1.3378e-12 0)
(-0.5 3.15749e-13 0)
(-0.5 -7.49914e-14 0)
(-0.5 1.95941e-14 0)
(-0.5 -1.86595e-15 0)
(-0.5 3.89846e-15 0)
(-0.5 2.59628e-15 0)
(-0.5 2.7461e-15 0)
(-0.5 2.43033e-15 0)
(-0.5 2.53545e-15 0)
(-0.5 2.63174e-15 0)
(-0.5 1.17796e-15 0)
(-0.5 -8.8255e-16 0)
(-0.5 -3.13982e-08 0)
(-0.5 7.46182e-09 0)
(-0.5 -1.76989e-09 0)
(-0.5 4.20558e-10 0)
(-0.5 -9.9907e-11 0)
(-0.5 2.37047e-11 0)
(-0.5 -5.65323e-12 0)
(-0.5 1.33277e-12 0)
(-0.5 -3.23145e-13 0)
(-0.5 7.41552e-14 0)
(-0.5 -1.81864e-14 0)
(-0.5 5.27328e-15 0)
(-0.5 6.14414e-16 0)
(-0.5 2.04142e-15 0)
(-0.5 1.75405e-15 0)
(-0.5 1.75281e-15 0)
(-0.5 1.8952e-15 0)
(-0.5 2.01024e-15 0)
(-0.5 8.6612e-16 0)
(-0.5 -7.96295e-16 0)
(-0.5 3.14528e-08 0)
(-0.5 -7.47767e-09 0)
(-0.5 1.77363e-09 0)
(-0.5 -4.21662e-10 0)
(-0.5 1.00111e-10 0)
(-0.5 -2.38164e-11 0)
(-0.5 5.64056e-12 0)
(-0.5 -1.35579e-12 0)
(-0.5 3.13569e-13 0)
(-0.5 -7.95019e-14 0)
(-0.5 1.67362e-14 0)
(-0.5 -4.36974e-15 0)
(-0.5 1.71691e-15 0)
(-0.5 7.7792e-16 0)
(-0.5 1.14136e-15 0)
(-0.5 1.06497e-15 0)
(-0.5 1.30472e-15 0)
(-0.5 1.54413e-15 0)
(-0.5 6.85459e-16 0)
(-0.5 -6.40069e-16 0)
(-0.5 -3.14979e-08 0)
(-0.5 7.49079e-09 0)
(-0.5 -1.77731e-09 0)
(-0.5 4.22462e-10 0)
(-0.5 -1.00487e-10 0)
(-0.5 2.38349e-11 0)
(-0.5 -5.70069e-12 0)
(-0.5 1.34023e-12 0)
(-0.5 -3.28749e-13 0)
(-0.5 7.30344e-14 0)
(-0.5 -2.0143e-14 0)
(-0.5 3.83595e-15 0)
(-0.5 -8.20221e-16 0)
(-0.5 8.25166e-16 0)
(-0.5 6.21247e-16 0)
(-0.5 7.85009e-16 0)
(-0.5 9.74133e-16 0)
(-0.5 1.15101e-15 0)
(-0.5 4.74726e-16 0)
(-0.5 -5.39544e-16 0)
(-0.5 3.15348e-08 0)
(-0.5 -7.50163e-09 0)
(-0.5 1.77872e-09 0)
(-0.5 -4.22824e-10 0)
(-0.5 1.00362e-10 0)
(-0.5 -2.38546e-11 0)
(-0.5 5.64764e-12 0)
(-0.5 -1.35301e-12 0)
(-0.5 3.14435e-13 0)
(-0.5 -7.84488e-14 0)
(-0.5 1.67119e-14 0)
(-0.5 -4.80458e-15 0)
(-0.5 1.00925e-15 0)
(-0.5 -1.33254e-17 0)
(-0.5 3.85524e-16 0)
(-0.5 4.06156e-16 0)
(-0.5 5.84012e-16 0)
(-0.5 7.62208e-16 0)
(-0.5 2.84419e-16 0)
(-0.5 -4.34815e-16 0)
(-0.5 -3.15655e-08 0)
(-0.5 7.52173e-09 0)
(-0.5 -1.78583e-09 0)
(-0.5 4.25301e-10 0)
(-0.5 -1.01333e-10 0)
(-0.5 2.41047e-11 0)
(-0.5 -5.76289e-12 0)
(-0.5 1.37031e-12 0)
(-0.5 -3.29846e-13 0)
(-0.5 7.76408e-14 0)
(-0.5 -1.92705e-14 0)
(-0.5 4.28632e-15 0)
(-0.5 -1.17516e-15 0)
(-0.5 2.66327e-16 0)
(-0.5 -2.74646e-17 0)
(-0.5 7.95299e-17 0)
(-0.5 1.39225e-16 0)
(-0.5 2.6245e-16 0)
(-0.5 1.28283e-16 0)
(-0.5 -1.74543e-16 0)
)
;

boundaryField
{
    movingWall
    {
        type            calculated;
        value           uniform (-0.5 -0 -0);
    }
    fixedWalls
    {
        type            calculated;
        value           uniform (-0.5 -0 -0);
    }
    frontAndBack
    {
        type            empty;
    }
}


// ************************************************************************* //
