/*--------------------------------*- C++ -*----------------------------------*\
| =========                 |                                                 |
| \\      /  F ield         | OpenFOAM: The Open Source CFD Toolbox           |
|  \\    /   O peration     | Version:  2312                                  |
|   \\  /    A nd           | Website:  www.openfoam.com                      |
|    \\/     M anipulation  |                                                 |
\*---------------------------------------------------------------------------*/
FoamFile
{
    version     2.0;
    format      ascii;
    arch        "LSB;label=32;scalar=64";
    class       volVectorField;
    location    "4";
    object      norm_U_L1;
}
// * * * * * * * * * * * * * * * * * * * * * * * * * * * * * * * * * * * * * //

dimensions      [0 0 0 0 0 0 0];

internalField   nonuniform List<vector> 
400
(
(-0.0025 1.54894e-10 0)
(-0.0025 -3.67391e-11 0)
(-0.0025 8.72408e-12 0)
(-0.0025 -2.06851e-12 0)
(-0.0025 4.91804e-13 0)
(-0.0025 -1.16299e-13 0)
(-0.0025 2.78455e-14 0)
(-0.0025 -6.4725e-15 0)
(-0.0025 1.62185e-15 0)
(-0.0025 -3.29603e-16 0)
(-0.0025 1.16042e-16 0)
(-0.0025 -1.02256e-18 0)
(-0.0025 1.93462e-17 0)
(-0.0025 9.4383e-18 0)
(-0.0025 7.88194e-18 0)
(-0.0025 5.51797e-18 0)
(-0.0025 4.24563e-18 0)
(-0.0025 3.15687e-18 0)
(-0.0025 2.05357e-18 0)
(-0.0025 1.1664e-19 0)
(-0.0025 -1.54851e-10 0)
(-0.0025 3.67226e-11 0)
(-0.0025 -8.69809e-12 0)
(-0.0025 2.06521e-12 0)
(-0.0025 -4.86974e-13 0)
(-0.0025 1.16373e-13 0)
(-0.0025 -2.69175e-14 0)
(-0.0025 6.7281e-15 0)
(-0.0025 -1.35516e-15 0)
(-0.0025 4.75207e-16 0)
(-0.0025 -4.56511e-18 0)
(-0.0025 7.72271e-17 0)
(-0.0025 3.71456e-17 0)
(-0.0025 3.19382e-17 0)
(-0.0025 2.23326e-17 0)
(-0.0025 1.67462e-17 0)
(-0.0025 1.26201e-17 0)
(-0.0025 9.79211e-18 0)
(-0.0025 5.30954e-18 0)
(-0.0025 2.50468e-20 0)
(-0.0025 1.54697e-10 0)
(-0.0025 -3.66403e-11 0)
(-0.0025 8.69192e-12 0)
(-0.0025 -2.05646e-12 0)
(-0.0025 4.88986e-13 0)
(-0.0025 -1.14719e-13 0)
(-0.0025 2.7903e-14 0)
(-0.0025 -6.12384e-15 0)
(-0.0025 1.77532e-15 0)
(-0.0025 -1.95179e-16 0)
(-0.0025 2.05402e-16 0)
(-0.0025 6.68092e-17 0)
(-0.0025 6.95518e-17 0)
(-0.0025 4.70892e-17 0)
(-0.0025 3.61011e-17 0)
(-0.0025 2.64821e-17 0)
(-0.0025 2.0123e-17 0)
(-0.0025 1.52999e-17 0)
(-0.0025 8.1781e-18 0)
(-0.0025 -1.41247e-19 0)
(-0.0025 -1.54609e-10 0)
(-0.0025 3.65881e-11 0)
(-0.0025 -8.67321e-12 0)
(-0.0025 2.05407e-12 0)
(-0.0025 -4.85051e-13 0)
(-0.0025 1.15795e-13 0)
(-0.0025 -2.66919e-14 0)
(-0.0025 6.80785e-15 0)
(-0.0025 -1.25441e-15 0)
(-0.0025 5.53293e-16 0)
(-0.0025 5.81818e-17 0)
(-0.0025 1.2678e-16 0)
(-0.0025 7.59617e-17 0)
(-0.0025 6.16841e-17 0)
(-0.0025 4.51909e-17 0)
(-0.0025 3.39798e-17 0)
(-0.0025 2.611e-17 0)
(-0.0025 2.0303e-17 0)
(-0.0025 1.08908e-17 0)
(-0.0025 -4.81779e-20 0)
(-0.0025 1.54544e-10 0)
(-0.0025 -3.65573e-11 0)
(-0.0025 8.66777e-12 0)
(-0.0025 -2.04976e-12 0)
(-0.0025 4.86017e-13 0)
(-0.0025 -1.1437e-13 0)
(-0.0025 2.76042e-14 0)
(-0.0025 -6.08869e-15 0)
(-0.0025 1.77811e-15 0)
(-0.0025 -1.6127e-16 0)
(-0.0025 2.35796e-16 0)
(-0.0025 9.57593e-17 0)
(-0.0025 9.37095e-17 0)
(-0.0025 6.67671e-17 0)
(-0.0025 5.19566e-17 0)
(-0.0025 3.91152e-17 0)
(-0.0025 3.0632e-17 0)
(-0.0025 2.40296e-17 0)
(-0.0025 1.29878e-17 0)
(-0.0025 -1.58168e-19 0)
(-0.0025 -1.54544e-10 0)
(-0.0025 3.65532e-11 0)
(-0.0025 -8.66548e-12 0)
(-0.0025 2.05022e-12 0)
(-0.0025 -4.84751e-13 0)
(-0.0025 1.15265e-13 0)
(-0.0025 -2.68026e-14 0)
(-0.0025 6.71047e-15 0)
(-0.0025 -1.28541e-15 0)
(-0.0025 5.43593e-16 0)
(-0.0025 6.20728e-17 0)
(-0.0025 1.35419e-16 0)
(-0.0025 8.59748e-17 0)
(-0.0025 7.17299e-17 0)
(-0.0025 5.43064e-17 0)
(-0.0025 4.21474e-17 0)
(-0.0025 3.34544e-17 0)
(-0.0025 2.67887e-17 0)
(-0.0025 1.44232e-17 0)
(-0.0025 -4.53308e-19 0)
(-0.0025 1.54598e-10 0)
(-0.0025 -3.65721e-11 0)
(-0.0025 8.67063e-12 0)
(-0.0025 -2.05097e-12 0)
(-0.0025 4.85892e-13 0)
(-0.0025 -1.14689e-13 0)
(-0.0025 2.7452e-14 0)
(-0.0025 -6.19892e-15 0)
(-0.0025 1.71889e-15 0)
(-0.0025 -1.95008e-16 0)
(-0.0025 2.19126e-16 0)
(-0.0025 8.86044e-17 0)
(-0.0025 9.20344e-17 0)
(-0.0025 6.81136e-17 0)
(-0.0025 5.4547e-17 0)
(-0.0025 4.23696e-17 0)
(-0.0025 3.45252e-17 0)
(-0.0025 2.83762e-17 0)
(-0.0025 1.5346e-17 0)
(-0.0025 -8.31088e-19 0)
(-0.0025 -1.5472e-10 0)
(-0.0025 3.66107e-11 0)
(-0.0025 -8.67985e-12 0)
(-0.0025 2.05406e-12 0)
(-0.0025 -4.86175e-13 0)
(-0.0025 1.15375e-13 0)
(-0.0025 -2.70431e-14 0)
(-0.0025 6.63147e-15 0)
(-0.0025 -1.36226e-15 0)
(-0.0025 5.00222e-16 0)
(-0.0025 3.23444e-17 0)
(-0.0025 1.17614e-16 0)
(-0.0025 7.5881e-17 0)
(-0.0025 6.64469e-17 0)
(-0.0025 5.16895e-17 0)
(-0.0025 4.09717e-17 0)
(-0.0025 3.35685e-17 0)
(-0.0025 2.81825e-17 0)
(-0.0025 1.51406e-17 0)
(-0.0025 -1.40873e-18 0)
(-0.0025 1.54895e-10 0)
(-0.0025 -3.66682e-11 0)
(-0.0025 8.69391e-12 0)
(-0.0025 -2.05805e-12 0)
(-0.0025 4.87619e-13 0)
(-0.0025 -1.15343e-13 0)
(-0.0025 2.74753e-14 0)
(-0.0025 -6.33144e-15 0)
(-0.0025 1.6609e-15 0)
(-0.0025 -2.47166e-16 0)
(-0.0025 1.8548e-16 0)
(-0.0025 6.46395e-17 0)
(-0.0025 7.65368e-17 0)
(-0.0025 5.79744e-17 0)
(-0.0025 4.80929e-17 0)
(-0.0025 3.8022e-17 0)
(-0.0025 3.16542e-17 0)
(-0.0025 2.7026e-17 0)
(-0.0025 1.42584e-17 0)
(-0.0025 -2.22746e-18 0)
(-0.0025 -1.55125e-10 0)
(-0.0025 3.67402e-11 0)
(-0.0025 -8.7114e-12 0)
(-0.0025 2.06328e-12 0)
(-0.0025 -4.88807e-13 0)
(-0.0025 1.15939e-13 0)
(-0.0025 -2.73294e-14 0)
(-0.0025 6.60396e-15 0)
(-0.0025 -1.43949e-15 0)
(-0.0025 4.55756e-16 0)
(-0.0025 -4.76697e-18 0)
(-0.0025 9.20042e-17 0)
(-0.0025 5.67769e-17 0)
(-0.0025 5.24867e-17 0)
(-0.0025 4.20138e-17 0)
(-0.0025 3.44895e-17 0)
(-0.0025 2.92483e-17 0)
(-0.0025 2.54719e-17 0)
(-0.0025 1.32134e-17 0)
(-0.0025 -2.90854e-18 0)
(-0.0025 1.55396e-10 0)
(-0.0025 -3.68251e-11 0)
(-0.0025 8.732e-12 0)
(-0.0025 -2.06928e-12 0)
(-0.0025 4.90546e-13 0)
(-0.0025 -1.16215e-13 0)
(-0.0025 2.7625e-14 0)
(-0.0025 -6.45769e-15 0)
(-0.0025 1.6214e-15 0)
(-0.0025 -2.97086e-16 0)
(-0.0025 1.51333e-16 0)
(-0.0025 3.76568e-17 0)
(-0.0025 5.65914e-17 0)
(-0.0025 4.2754e-17 0)
(-0.0025 3.65843e-17 0)
(-0.0025 2.98545e-17 0)
(-0.0025 2.59157e-17 0)
(-0.0025 2.29559e-17 0)
(-0.0025 1.17163e-17 0)
(-0.0025 -3.36619e-18 0)
(-0.0025 -1.55702e-10 0)
(-0.0025 3.69192e-11 0)
(-0.0025 -8.75479e-12 0)
(-0.0025 2.07594e-12 0)
(-0.0025 -4.92239e-13 0)
(-0.0025 1.16776e-13 0)
(-0.0025 -2.76414e-14 0)
(-0.0025 6.61438e-15 0)
(-0.0025 -1.50672e-15 0)
(-0.0025 4.1984e-16 0)
(-0.0025 -3.93101e-17 0)
(-0.0025 6.5917e-17 0)
(-0.0025 3.65026e-17 0)
(-0.0025 3.70814e-17 0)
(-0.0025 2.98022e-17 0)
(-0.0025 2.5076e-17 0)
(-0.0025 2.22413e-17 0)
(-0.0025 2.03512e-17 0)
(-0.0025 1.01797e-17 0)
(-0.0025 -3.74705e-18 0)
(-0.0025 1.56026e-10 0)
(-0.0025 -3.70183e-11 0)
(-0.0025 8.77883e-12 0)
(-0.0025 -2.08285e-12 0)
(-0.0025 4.94111e-13 0)
(-0.0025 -1.17211e-13 0)
(-0.0025 2.78381e-14 0)
(-0.0025 -6.57654e-15 0)
(-0.0025 1.59685e-15 0)
(-0.0025 -3.39867e-16 0)
(-0.0025 1.21114e-16 0)
(-0.0025 1.131e-17 0)
(-0.0025 3.55841e-17 0)
(-0.0025 2.61549e-17 0)
(-0.0025 2.3956e-17 0)
(-0.0025 2.04711e-17 0)
(-0.0025 1.9219e-17 0)
(-0.0025 1.82489e-17 0)
(-0.0025 8.7124e-18 0)
(-0.0025 -4.05544e-18 0)
(-0.0025 -1.56359e-10 0)
(-0.0025 3.71199e-11 0)
(-0.0025 -8.80341e-12 0)
(-0.0025 2.08992e-12 0)
(-0.0025 -4.95997e-13 0)
(-0.0025 1.17701e-13 0)
(-0.0025 -2.79627e-14 0)
(-0.0025 6.64045e-15 0)
(-0.0025 -1.56644e-15 0)
(-0.0025 3.90935e-16 0)
(-0.0025 -6.94775e-17 0)
(-0.0025 4.25432e-17 0)
(-0.0025 1.66092e-17 0)
(-0.0025 2.15011e-17 0)
(-0.0025 1.78928e-17 0)
(-0.0025 1.61733e-17 0)
(-0.0025 1.5841e-17 0)
(-0.0025 1.58432e-17 0)
(-0.0025 7.47015e-18 0)
(-0.0025 -4.35119e-18 0)
(-0.0025 1.56685e-10 0)
(-0.0025 -3.72171e-11 0)
(-0.0025 8.82697e-12 0)
(-0.0025 -2.09663e-12 0)
(-0.0025 4.97684e-13 0)
(-0.0025 -1.18218e-13 0)
(-0.0025 2.80486e-14 0)
(-0.0025 -6.689e-15 0)
(-0.0025 1.57875e-15 0)
(-0.0025 -3.74957e-16 0)
(-0.0025 9.79706e-17 0)
(-0.0025 -9.32973e-18 0)
(-0.0025 1.94923e-17 0)
(-0.0025 1.29814e-17 0)
(-0.0025 1.37305e-17 0)
(-0.0025 1.21517e-17 0)
(-0.0025 1.26773e-17 0)
(-0.0025 1.31587e-17 0)
(-0.0025 5.88978e-18 0)
(-0.0025 -4.41275e-18 0)
(-0.0025 -1.56991e-10 0)
(-0.0025 3.73091e-11 0)
(-0.0025 -8.84945e-12 0)
(-0.0025 2.10279e-12 0)
(-0.0025 -4.99535e-13 0)
(-0.0025 1.18523e-13 0)
(-0.0025 -2.82661e-14 0)
(-0.0025 6.66386e-15 0)
(-0.0025 -1.61572e-15 0)
(-0.0025 3.70776e-16 0)
(-0.0025 -9.09321e-17 0)
(-0.0025 2.63664e-17 0)
(-0.0025 3.07207e-18 0)
(-0.0025 1.02071e-17 0)
(-0.0025 8.77026e-18 0)
(-0.0025 8.76407e-18 0)
(-0.0025 9.47599e-18 0)
(-0.0025 1.00512e-17 0)
(-0.0025 4.3306e-18 0)
(-0.0025 -3.98147e-18 0)
(-0.0025 1.57264e-10 0)
(-0.0025 -3.73884e-11 0)
(-0.0025 8.86816e-12 0)
(-0.0025 -2.10831e-12 0)
(-0.0025 5.00557e-13 0)
(-0.0025 -1.19082e-13 0)
(-0.0025 2.82028e-14 0)
(-0.0025 -6.77895e-15 0)
(-0.0025 1.56784e-15 0)
(-0.0025 -3.97509e-16 0)
(-0.0025 8.36809e-17 0)
(-0.0025 -2.18487e-17 0)
(-0.0025 8.58456e-18 0)
(-0.0025 3.8896e-18 0)
(-0.0025 5.7068e-18 0)
(-0.0025 5.32486e-18 0)
(-0.0025 6.5236e-18 0)
(-0.0025 7.72065e-18 0)
(-0.0025 3.42729e-18 0)
(-0.0025 -3.20034e-18 0)
(-0.0025 -1.57489e-10 0)
(-0.0025 3.7454e-11 0)
(-0.0025 -8.88655e-12 0)
(-0.0025 2.11231e-12 0)
(-0.0025 -5.02435e-13 0)
(-0.0025 1.19174e-13 0)
(-0.0025 -2.85034e-14 0)
(-0.0025 6.70117e-15 0)
(-0.0025 -1.64374e-15 0)
(-0.0025 3.65172e-16 0)
(-0.0025 -1.00715e-16 0)
(-0.0025 1.91798e-17 0)
(-0.0025 -4.10111e-18 0)
(-0.0025 4.12583e-18 0)
(-0.0025 3.10624e-18 0)
(-0.0025 3.92504e-18 0)
(-0.0025 4.87067e-18 0)
(-0.0025 5.75507e-18 0)
(-0.0025 2.37363e-18 0)
(-0.0025 -2.69772e-18 0)
(-0.0025 1.57674e-10 0)
(-0.0025 -3.75081e-11 0)
(-0.0025 8.89362e-12 0)
(-0.0025 -2.11412e-12 0)
(-0.0025 5.01812e-13 0)
(-0.0025 -1.19273e-13 0)
(-0.0025 2.82382e-14 0)
(-0.0025 -6.76503e-15 0)
(-0.0025 1.57218e-15 0)
(-0.0025 -3.92244e-16 0)
(-0.0025 8.35593e-17 0)
(-0.0025 -2.40229e-17 0)
(-0.0025 5.04624e-18 0)
(-0.0025 -6.6627e-20 0)
(-0.0025 1.92762e-18 0)
(-0.0025 2.03078e-18 0)
(-0.0025 2.92006e-18 0)
(-0.0025 3.81104e-18 0)
(-0.0025 1.4221e-18 0)
(-0.0025 -2.17407e-18 0)
(-0.0025 -1.57827e-10 0)
(-0.0025 3.76087e-11 0)
(-0.0025 -8.92917e-12 0)
(-0.0025 2.1265e-12 0)
(-0.0025 -5.06665e-13 0)
(-0.0025 1.20524e-13 0)
(-0.0025 -2.88144e-14 0)
(-0.0025 6.85156e-15 0)
(-0.0025 -1.64923e-15 0)
(-0.0025 3.88204e-16 0)
(-0.0025 -9.63523e-17 0)
(-0.0025 2.14316e-17 0)
(-0.0025 -5.87582e-18 0)
(-0.0025 1.33164e-18 0)
(-0.0025 -1.37323e-19 0)
(-0.0025 3.97649e-19 0)
(-0.0025 6.96127e-19 0)
(-0.0025 1.31225e-18 0)
(-0.0025 6.41417e-19 0)
(-0.0025 -8.72715e-19 0)
)
;

boundaryField
{
    movingWall
    {
        type            calculated;
        value           uniform (-0.0025 -0 -0);
    }
    fixedWalls
    {
        type            calculated;
        value           uniform (-0.0025 -0 -0);
    }
    frontAndBack
    {
        type            empty;
    }
}


// ************************************************************************* //
