/*--------------------------------*- C++ -*----------------------------------*\
| =========                 |                                                 |
| \\      /  F ield         | OpenFOAM: The Open Source CFD Toolbox           |
|  \\    /   O peration     | Version:  2312                                  |
|   \\  /    A nd           | Website:  www.openfoam.com                      |
|    \\/     M anipulation  |                                                 |
\*---------------------------------------------------------------------------*/
FoamFile
{
    version     2.0;
    format      ascii;
    arch        "LSB;label=32;scalar=64";
    class       volScalarField;
    location    "4";
    object      norm_k_field;
}
// * * * * * * * * * * * * * * * * * * * * * * * * * * * * * * * * * * * * * //

dimensions      [0 0 0 0 0 0 0];

internalField   nonuniform List<scalar> 
400
(
2.72865e+10
2.72863e+10
2.98381e+06
9.37726e+06
6.30199e+06
7.9951e+06
7.78871e+06
8.10244e+06
8.14165e+06
8.20928e+06
8.23343e+06
8.25175e+06
8.26122e+06
8.26681e+06
8.27096e+06
8.27346e+06
8.27546e+06
8.27852e+06
8.2818e+06
8.28331e+06
2.3167e+06
3.29592e+10
6.00601e+06
1.2934e+07
8.67417e+06
9.89699e+06
9.68067e+06
9.88144e+06
9.90128e+06
9.94684e+06
9.96252e+06
9.97433e+06
9.97955e+06
9.98262e+06
9.98471e+06
9.98596e+06
9.98697e+06
9.98987e+06
9.99387e+06
9.9958e+06
4.00867e+10
1.81991e+06
2.77456e+08
1.04581e+07
1.47426e+07
1.22149e+07
1.23869e+07
1.21865e+07
1.21985e+07
1.21791e+07
1.21753e+07
1.2169e+07
1.21646e+07
1.21609e+07
1.21576e+07
1.21557e+07
1.21546e+07
1.21566e+07
1.21604e+07
1.21616e+07
1.54915e+06
4.56712e+10
8.89175e+06
1.41446e+08
1.27599e+07
1.54858e+07
1.41451e+07
1.42527e+07
1.40501e+07
1.40043e+07
1.39511e+07
1.39237e+07
1.39015e+07
1.38866e+07
1.3875e+07
1.3868e+07
1.38635e+07
1.38638e+07
1.3866e+07
1.38668e+07
4.92267e+10
704654
4.92069e+10
7.61252e+06
2.45139e+07
1.53991e+07
1.62816e+07
1.54414e+07
1.53661e+07
1.5206e+07
1.51336e+07
1.5075e+07
1.5036e+07
1.5007e+07
1.49869e+07
1.49731e+07
1.49649e+07
1.49628e+07
1.49634e+07
1.49638e+07
1.17093e+06
5.12787e+10
1.08895e+07
5.125e+10
1.31148e+07
1.88778e+07
1.6136e+07
1.64899e+07
1.60841e+07
1.59752e+07
1.58482e+07
1.57751e+07
1.57177e+07
1.56783e+07
1.5649e+07
1.56295e+07
1.56172e+07
1.56119e+07
1.5611e+07
1.56107e+07
5.24438e+10
421786
1.22383e+08
5.3673e+06
3.44262e+07
1.60696e+07
1.80559e+07
1.66986e+07
1.66464e+07
1.64008e+07
1.6292e+07
1.6194e+07
1.61277e+07
1.60785e+07
1.60425e+07
1.60191e+07
1.60039e+07
1.59951e+07
1.59922e+07
1.5992e+07
966248
5.31403e+10
1.26211e+07
5.31099e+10
1.23129e+07
2.05084e+07
1.65976e+07
1.73185e+07
1.68212e+07
1.67143e+07
1.65575e+07
1.64637e+07
1.63873e+07
1.63355e+07
1.62951e+07
1.62665e+07
1.62488e+07
1.62396e+07
1.62347e+07
1.62337e+07
5.36163e+10
317529
4.57417e+07
4.2506e+06
4.31413e+07
1.58322e+07
1.87429e+07
1.70866e+07
1.71245e+07
1.6861e+07
1.67536e+07
1.66456e+07
1.65726e+07
1.6518e+07
1.64753e+07
1.64453e+07
1.64258e+07
1.64146e+07
1.64092e+07
1.64077e+07
879107
5.39941e+10
1.42439e+07
5.39626e+10
1.15839e+07
2.10462e+07
1.65547e+07
1.75801e+07
1.70865e+07
1.70276e+07
1.68802e+07
1.6792e+07
1.67181e+07
1.66643e+07
1.66224e+07
1.65923e+07
1.65725e+07
1.65619e+07
1.65545e+07
1.65515e+07
5.43451e+10
279099
2.72882e+07
3.79001e+06
4.58903e+07
1.54593e+07
1.88591e+07
1.7161e+07
1.73013e+07
1.70735e+07
1.69991e+07
1.69089e+07
1.68464e+07
1.67941e+07
1.67553e+07
1.67274e+07
1.67088e+07
1.66974e+07
1.66898e+07
1.66853e+07
884417
5.47005e+10
1.54751e+07
5.46675e+10
1.11856e+07
2.07265e+07
1.63961e+07
1.75934e+07
1.71815e+07
1.71872e+07
1.70794e+07
1.70204e+07
1.69634e+07
1.69205e+07
1.68862e+07
1.68612e+07
1.68423e+07
1.68311e+07
1.68239e+07
1.68197e+07
5.50867e+10
279253
1.98708e+07
3.77333e+06
4.06396e+07
1.52055e+07
1.86068e+07
1.71181e+07
1.73537e+07
1.71988e+07
1.71756e+07
1.71203e+07
1.70819e+07
1.7047e+07
1.70191e+07
1.69971e+07
1.6981e+07
1.69706e+07
1.69633e+07
1.69606e+07
989396
5.55155e+10
1.58736e+07
5.54815e+10
1.11728e+07
1.98013e+07
1.62644e+07
1.74862e+07
1.72156e+07
1.72936e+07
1.72463e+07
1.72302e+07
1.72022e+07
1.71809e+07
1.71601e+07
1.71431e+07
1.71296e+07
1.71213e+07
1.71153e+07
1.71128e+07
5.60076e+10
319396
1.651e+07
4.20249e+06
3.2122e+07
1.51506e+07
1.81373e+07
1.70519e+07
1.73615e+07
1.73098e+07
1.73466e+07
1.73412e+07
1.73356e+07
1.73258e+07
1.73133e+07
1.73023e+07
1.72932e+07
1.72882e+07
1.72834e+07
1.728e+07
1.25821e+06
5.65747e+10
1.53526e+07
5.65395e+10
1.15803e+07
1.86005e+07
1.62342e+07
1.73565e+07
1.72645e+07
1.74169e+07
1.74439e+07
1.74764e+07
1.74872e+07
1.749e+07
1.74881e+07
1.74835e+07
1.74789e+07
1.74754e+07
1.74712e+07
1.74676e+07
5.72303e+10
434783
1.49734e+07
5.32421e+06
2.45846e+07
1.53153e+07
1.75953e+07
1.70479e+07
1.74131e+07
1.74839e+07
1.75838e+07
1.76326e+07
1.76639e+07
1.768e+07
1.7687e+07
1.76883e+07
1.76878e+07
1.76856e+07
1.7683e+07
1.76798e+07
1.95043e+06
5.79392e+10
1.39817e+07
5.79028e+10
1.23351e+07
1.74025e+07
1.63166e+07
1.72953e+07
1.74045e+07
1.76292e+07
1.77314e+07
1.78141e+07
1.78582e+07
1.78871e+07
1.79015e+07
1.79073e+07
1.79101e+07
1.79112e+07
1.79106e+07
1.79075e+07
5.85902e+10
823395
1.15029e+07
7.9105e+06
1.80906e+07
1.56992e+07
1.70357e+07
1.71557e+07
1.75329e+07
1.77291e+07
1.78809e+07
1.79779e+07
1.80391e+07
1.80773e+07
1.80977e+07
1.81086e+07
1.81147e+07
1.81175e+07
1.81151e+07
1.81134e+07
5.62165e+06
5.88474e+10
6.46865e+06
5.96865e+07
1.2358e+07
1.71314e+07
1.62683e+07
1.73041e+07
1.75065e+07
1.7804e+07
1.79566e+07
1.80741e+07
1.8145e+07
1.81905e+07
1.82159e+07
1.82318e+07
1.82407e+07
1.82445e+07
1.82418e+07
1.82397e+07
)
;

boundaryField
{
    movingWall
    {
        type            calculated;
        value           nonuniform List<scalar> 
20
(
5.62165e+06
5.88474e+10
6.46865e+06
5.96865e+07
1.2358e+07
1.71314e+07
1.62683e+07
1.73041e+07
1.75065e+07
1.7804e+07
1.79566e+07
1.80741e+07
1.8145e+07
1.81905e+07
1.82159e+07
1.82318e+07
1.82407e+07
1.82445e+07
1.82418e+07
1.82397e+07
)
;
    }
    fixedWalls
    {
        type            calculated;
        value           nonuniform List<scalar> 
60
(
2.72865e+10
2.3167e+06
4.00867e+10
1.54915e+06
4.92267e+10
1.17093e+06
5.24438e+10
966248
5.36163e+10
879107
5.43451e+10
884417
5.50867e+10
989396
5.60076e+10
1.25821e+06
5.72303e+10
1.95043e+06
5.85902e+10
5.62165e+06
8.28331e+06
9.9958e+06
1.21616e+07
1.38668e+07
1.49638e+07
1.56107e+07
1.5992e+07
1.62337e+07
1.64077e+07
1.65515e+07
1.66853e+07
1.68197e+07
1.69606e+07
1.71128e+07
1.728e+07
1.74676e+07
1.76798e+07
1.79075e+07
1.81134e+07
1.82397e+07
2.72865e+10
2.72863e+10
2.98381e+06
9.37726e+06
6.30199e+06
7.9951e+06
7.78871e+06
8.10244e+06
8.14165e+06
8.20928e+06
8.23343e+06
8.25175e+06
8.26122e+06
8.26681e+06
8.27096e+06
8.27346e+06
8.27546e+06
8.27852e+06
8.2818e+06
8.28331e+06
)
;
    }
    frontAndBack
    {
        type            empty;
    }
}


// ************************************************************************* //
