/*--------------------------------*- C++ -*----------------------------------*\
| =========                 |                                                 |
| \\      /  F ield         | OpenFOAM: The Open Source CFD Toolbox           |
|  \\    /   O peration     | Version:  2312                                  |
|   \\  /    A nd           | Website:  www.openfoam.com                      |
|    \\/     M anipulation  |                                                 |
\*---------------------------------------------------------------------------*/
FoamFile
{
    version     2.0;
    format      ascii;
    arch        "LSB;label=32;scalar=64";
    class       volVectorField;
    location    "4";
    object      norm_U_L2;
}
// * * * * * * * * * * * * * * * * * * * * * * * * * * * * * * * * * * * * * //

dimensions      [0 0 0 0 0 0 0];

internalField   nonuniform List<vector> 
400
(
(-1 6.19576e-08 0)
(-1 -1.46957e-08 0)
(-1 3.48963e-09 0)
(-1 -8.27403e-10 0)
(-1 1.96722e-10 0)
(-1 -4.65194e-11 0)
(-1 1.11382e-11 0)
(-1 -2.589e-12 0)
(-1 6.48738e-13 0)
(-1 -1.31841e-13 0)
(-1 4.6417e-14 0)
(-1 -4.09025e-16 0)
(-1 7.73849e-15 0)
(-1 3.77532e-15 0)
(-1 3.15278e-15 0)
(-1 2.20719e-15 0)
(-1 1.69825e-15 0)
(-1 1.26275e-15 0)
(-1 8.21428e-16 0)
(-1 4.6656e-17 0)
(-1 -6.19406e-08 0)
(-1 1.4689e-08 0)
(-1 -3.47923e-09 0)
(-1 8.26084e-10 0)
(-1 -1.9479e-10 0)
(-1 4.65492e-11 0)
(-1 -1.0767e-11 0)
(-1 2.69124e-12 0)
(-1 -5.42064e-13 0)
(-1 1.90083e-13 0)
(-1 -1.82604e-15 0)
(-1 3.08908e-14 0)
(-1 1.48583e-14 0)
(-1 1.27753e-14 0)
(-1 8.93302e-15 0)
(-1 6.69848e-15 0)
(-1 5.04804e-15 0)
(-1 3.91684e-15 0)
(-1 2.12382e-15 0)
(-1 1.00187e-17 0)
(-1 6.1879e-08 0)
(-1 -1.46561e-08 0)
(-1 3.47677e-09 0)
(-1 -8.22582e-10 0)
(-1 1.95594e-10 0)
(-1 -4.58874e-11 0)
(-1 1.11612e-11 0)
(-1 -2.44954e-12 0)
(-1 7.1013e-13 0)
(-1 -7.80715e-14 0)
(-1 8.21608e-14 0)
(-1 2.67237e-14 0)
(-1 2.78207e-14 0)
(-1 1.88357e-14 0)
(-1 1.44404e-14 0)
(-1 1.05928e-14 0)
(-1 8.04921e-15 0)
(-1 6.11997e-15 0)
(-1 3.27124e-15 0)
(-1 -5.64986e-17 0)
(-1 -6.18438e-08 0)
(-1 1.46352e-08 0)
(-1 -3.46928e-09 0)
(-1 8.21628e-10 0)
(-1 -1.9402e-10 0)
(-1 4.63178e-11 0)
(-1 -1.06768e-11 0)
(-1 2.72314e-12 0)
(-1 -5.01764e-13 0)
(-1 2.21317e-13 0)
(-1 2.32727e-14 0)
(-1 5.07118e-14 0)
(-1 3.03847e-14 0)
(-1 2.46736e-14 0)
(-1 1.80763e-14 0)
(-1 1.35919e-14 0)
(-1 1.0444e-14 0)
(-1 8.12119e-15 0)
(-1 4.35633e-15 0)
(-1 -1.92712e-17 0)
(-1 6.18175e-08 0)
(-1 -1.46229e-08 0)
(-1 3.46711e-09 0)
(-1 -8.19904e-10 0)
(-1 1.94407e-10 0)
(-1 -4.57481e-11 0)
(-1 1.10417e-11 0)
(-1 -2.43548e-12 0)
(-1 7.11242e-13 0)
(-1 -6.45082e-14 0)
(-1 9.43184e-14 0)
(-1 3.83037e-14 0)
(-1 3.74838e-14 0)
(-1 2.67069e-14 0)
(-1 2.07826e-14 0)
(-1 1.56461e-14 0)
(-1 1.22528e-14 0)
(-1 9.61186e-15 0)
(-1 5.19514e-15 0)
(-1 -6.32671e-17 0)
(-1 -6.18177e-08 0)
(-1 1.46213e-08 0)
(-1 -3.46619e-09 0)
(-1 8.20087e-10 0)
(-1 -1.939e-10 0)
(-1 4.61061e-11 0)
(-1 -1.07211e-11 0)
(-1 2.68419e-12 0)
(-1 -5.14163e-13 0)
(-1 2.17437e-13 0)
(-1 2.48291e-14 0)
(-1 5.41677e-14 0)
(-1 3.43899e-14 0)
(-1 2.8692e-14 0)
(-1 2.17226e-14 0)
(-1 1.6859e-14 0)
(-1 1.33818e-14 0)
(-1 1.07155e-14 0)
(-1 5.76928e-15 0)
(-1 -1.81323e-16 0)
(-1 6.18393e-08 0)
(-1 -1.46288e-08 0)
(-1 3.46825e-09 0)
(-1 -8.20387e-10 0)
(-1 1.94357e-10 0)
(-1 -4.58755e-11 0)
(-1 1.09808e-11 0)
(-1 -2.47957e-12 0)
(-1 6.87555e-13 0)
(-1 -7.80032e-14 0)
(-1 8.76504e-14 0)
(-1 3.54418e-14 0)
(-1 3.68138e-14 0)
(-1 2.72454e-14 0)
(-1 2.18188e-14 0)
(-1 1.69478e-14 0)
(-1 1.38101e-14 0)
(-1 1.13505e-14 0)
(-1 6.13841e-15 0)
(-1 -3.32435e-16 0)
(-1 -6.18878e-08 0)
(-1 1.46443e-08 0)
(-1 -3.47194e-09 0)
(-1 8.21625e-10 0)
(-1 -1.9447e-10 0)
(-1 4.61502e-11 0)
(-1 -1.08172e-11 0)
(-1 2.65259e-12 0)
(-1 -5.44904e-13 0)
(-1 2.00089e-13 0)
(-1 1.29377e-14 0)
(-1 4.70456e-14 0)
(-1 3.03524e-14 0)
(-1 2.65787e-14 0)
(-1 2.06758e-14 0)
(-1 1.63887e-14 0)
(-1 1.34274e-14 0)
(-1 1.1273e-14 0)
(-1 6.05623e-15 0)
(-1 -5.63494e-16 0)
(-1 6.1958e-08 0)
(-1 -1.46673e-08 0)
(-1 3.47757e-09 0)
(-1 -8.23221e-10 0)
(-1 1.95048e-10 0)
(-1 -4.61373e-11 0)
(-1 1.09901e-11 0)
(-1 -2.53257e-12 0)
(-1 6.64359e-13 0)
(-1 -9.88663e-14 0)
(-1 7.4192e-14 0)
(-1 2.58558e-14 0)
(-1 3.06147e-14 0)
(-1 2.31897e-14 0)
(-1 1.92371e-14 0)
(-1 1.52088e-14 0)
(-1 1.26617e-14 0)
(-1 1.08104e-14 0)
(-1 5.70336e-15 0)
(-1 -8.90985e-16 0)
(-1 -6.20501e-08 0)
(-1 1.46961e-08 0)
(-1 -3.48456e-09 0)
(-1 8.25313e-10 0)
(-1 -1.95523e-10 0)
(-1 4.63756e-11 0)
(-1 -1.09318e-11 0)
(-1 2.64158e-12 0)
(-1 -5.75798e-13 0)
(-1 1.82302e-13 0)
(-1 -1.90679e-15 0)
(-1 3.68017e-14 0)
(-1 2.27108e-14 0)
(-1 2.09947e-14 0)
(-1 1.68055e-14 0)
(-1 1.37958e-14 0)
(-1 1.16993e-14 0)
(-1 1.01888e-14 0)
(-1 5.28537e-15 0)
(-1 -1.16342e-15 0)
(-1 6.21584e-08 0)
(-1 -1.47301e-08 0)
(-1 3.4928e-09 0)
(-1 -8.27712e-10 0)
(-1 1.96218e-10 0)
(-1 -4.64859e-11 0)
(-1 1.105e-11 0)
(-1 -2.58308e-12 0)
(-1 6.48561e-13 0)
(-1 -1.18834e-13 0)
(-1 6.05332e-14 0)
(-1 1.50627e-14 0)
(-1 2.26366e-14 0)
(-1 1.71016e-14 0)
(-1 1.46337e-14 0)
(-1 1.19418e-14 0)
(-1 1.03663e-14 0)
(-1 9.18237e-15 0)
(-1 4.68652e-15 0)
(-1 -1.34648e-15 0)
(-1 -6.22806e-08 0)
(-1 1.47677e-08 0)
(-1 -3.50192e-09 0)
(-1 8.30377e-10 0)
(-1 -1.96895e-10 0)
(-1 4.67105e-11 0)
(-1 -1.10566e-11 0)
(-1 2.64575e-12 0)
(-1 -6.02689e-13 0)
(-1 1.67936e-13 0)
(-1 -1.5724e-14 0)
(-1 2.63668e-14 0)
(-1 1.4601e-14 0)
(-1 1.48326e-14 0)
(-1 1.19209e-14 0)
(-1 1.00304e-14 0)
(-1 8.89653e-15 0)
(-1 8.14047e-15 0)
(-1 4.07187e-15 0)
(-1 -1.49882e-15 0)
(-1 6.24104e-08 0)
(-1 -1.48073e-08 0)
(-1 3.51153e-09 0)
(-1 -8.33141e-10 0)
(-1 1.97645e-10 0)
(-1 -4.68845e-11 0)
(-1 1.11352e-11 0)
(-1 -2.63062e-12 0)
(-1 6.3874e-13 0)
(-1 -1.35947e-13 0)
(-1 4.84457e-14 0)
(-1 4.524e-15 0)
(-1 1.42336e-14 0)
(-1 1.0462e-14 0)
(-1 9.58239e-15 0)
(-1 8.18846e-15 0)
(-1 7.6876e-15 0)
(-1 7.29957e-15 0)
(-1 3.48496e-15 0)
(-1 -1.62218e-15 0)
(-1 -6.25437e-08 0)
(-1 1.48479e-08 0)
(-1 -3.52136e-09 0)
(-1 8.35968e-10 0)
(-1 -1.98399e-10 0)
(-1 4.70805e-11 0)
(-1 -1.11851e-11 0)
(-1 2.65618e-12 0)
(-1 -6.26576e-13 0)
(-1 1.56374e-13 0)
(-1 -2.7791e-14 0)
(-1 1.70173e-14 0)
(-1 6.64369e-15 0)
(-1 8.60042e-15 0)
(-1 7.1571e-15 0)
(-1 6.46931e-15 0)
(-1 6.33641e-15 0)
(-1 6.33727e-15 0)
(-1 2.98806e-15 0)
(-1 -1.74047e-15 0)
(-1 6.2674e-08 0)
(-1 -1.48868e-08 0)
(-1 3.53079e-09 0)
(-1 -8.3865e-10 0)
(-1 1.99073e-10 0)
(-1 -4.72871e-11 0)
(-1 1.12195e-11 0)
(-1 -2.6756e-12 0)
(-1 6.31498e-13 0)
(-1 -1.49983e-13 0)
(-1 3.91882e-14 0)
(-1 -3.73189e-15 0)
(-1 7.79692e-15 0)
(-1 5.19255e-15 0)
(-1 5.4922e-15 0)
(-1 4.86066e-15 0)
(-1 5.0709e-15 0)
(-1 5.26348e-15 0)
(-1 2.35591e-15 0)
(-1 -1.7651e-15 0)
(-1 -6.27964e-08 0)
(-1 1.49236e-08 0)
(-1 -3.53978e-09 0)
(-1 8.41115e-10 0)
(-1 -1.99814e-10 0)
(-1 4.74094e-11 0)
(-1 -1.13065e-11 0)
(-1 2.66554e-12 0)
(-1 -6.4629e-13 0)
(-1 1.4831e-13 0)
(-1 -3.63729e-14 0)
(-1 1.05466e-14 0)
(-1 1.22883e-15 0)
(-1 4.08284e-15 0)
(-1 3.5081e-15 0)
(-1 3.50563e-15 0)
(-1 3.79039e-15 0)
(-1 4.02048e-15 0)
(-1 1.73224e-15 0)
(-1 -1.59259e-15 0)
(-1 6.29057e-08 0)
(-1 -1.49553e-08 0)
(-1 3.54726e-09 0)
(-1 -8.43324e-10 0)
(-1 2.00223e-10 0)
(-1 -4.76328e-11 0)
(-1 1.12811e-11 0)
(-1 -2.71158e-12 0)
(-1 6.27137e-13 0)
(-1 -1.59004e-13 0)
(-1 3.34723e-14 0)
(-1 -8.73948e-15 0)
(-1 3.43382e-15 0)
(-1 1.55584e-15 0)
(-1 2.28272e-15 0)
(-1 2.12995e-15 0)
(-1 2.60944e-15 0)
(-1 3.08826e-15 0)
(-1 1.37092e-15 0)
(-1 -1.28014e-15 0)
(-1 -6.29958e-08 0)
(-1 1.49816e-08 0)
(-1 -3.55462e-09 0)
(-1 8.44925e-10 0)
(-1 -2.00974e-10 0)
(-1 4.76697e-11 0)
(-1 -1.14014e-11 0)
(-1 2.68047e-12 0)
(-1 -6.57498e-13 0)
(-1 1.46069e-13 0)
(-1 -4.02859e-14 0)
(-1 7.6719e-15 0)
(-1 -1.64044e-15 0)
(-1 1.65033e-15 0)
(-1 1.24249e-15 0)
(-1 1.57002e-15 0)
(-1 1.94827e-15 0)
(-1 2.30203e-15 0)
(-1 9.49452e-16 0)
(-1 -1.07909e-15 0)
(-1 6.30697e-08 0)
(-1 -1.50033e-08 0)
(-1 3.55745e-09 0)
(-1 -8.45648e-10 0)
(-1 2.00725e-10 0)
(-1 -4.77092e-11 0)
(-1 1.12953e-11 0)
(-1 -2.70601e-12 0)
(-1 6.28871e-13 0)
(-1 -1.56898e-13 0)
(-1 3.34237e-14 0)
(-1 -9.60917e-15 0)
(-1 2.0185e-15 0)
(-1 -2.66508e-17 0)
(-1 7.71048e-16 0)
(-1 8.12313e-16 0)
(-1 1.16802e-15 0)
(-1 1.52442e-15 0)
(-1 5.68839e-16 0)
(-1 -8.69629e-16 0)
(-1 -6.31309e-08 0)
(-1 1.50435e-08 0)
(-1 -3.57167e-09 0)
(-1 8.50601e-10 0)
(-1 -2.02666e-10 0)
(-1 4.82095e-11 0)
(-1 -1.15258e-11 0)
(-1 2.74062e-12 0)
(-1 -6.59693e-13 0)
(-1 1.55282e-13 0)
(-1 -3.85409e-14 0)
(-1 8.57264e-15 0)
(-1 -2.35033e-15 0)
(-1 5.32654e-16 0)
(-1 -5.49292e-17 0)
(-1 1.5906e-16 0)
(-1 2.78451e-16 0)
(-1 5.24901e-16 0)
(-1 2.56567e-16 0)
(-1 -3.49086e-16 0)
)
;

boundaryField
{
    movingWall
    {
        type            calculated;
        value           uniform (-1 -0 -0);
    }
    fixedWalls
    {
        type            calculated;
        value           uniform (-1 -0 -0);
    }
    frontAndBack
    {
        type            empty;
    }
}


// ************************************************************************* //
