/*--------------------------------*- C++ -*----------------------------------*\
| =========                 |                                                 |
| \\      /  F ield         | OpenFOAM: The Open Source CFD Toolbox           |
|  \\    /   O peration     | Version:  2312                                  |
|   \\  /    A nd           | Website:  www.openfoam.com                      |
|    \\/     M anipulation  |                                                 |
\*---------------------------------------------------------------------------*/
FoamFile
{
    version     2.0;
    format      ascii;
    arch        "LSB;label=32;scalar=64";
    class       volScalarField;
    location    "4";
    object      P_A;
}
// * * * * * * * * * * * * * * * * * * * * * * * * * * * * * * * * * * * * * //

dimensions      [1 -1 -3 0 0 0 0];

internalField   nonuniform List<scalar> 
400
(
1.11252e-29
1.11249e-29
1.11246e-29
1.11243e-29
1.11241e-29
1.11239e-29
1.11237e-29
1.11235e-29
1.11234e-29
1.11233e-29
1.11232e-29
1.11231e-29
1.1123e-29
1.11229e-29
1.11229e-29
1.11228e-29
1.11228e-29
1.11228e-29
1.11228e-29
1.11228e-29
2.37112e-29
2.2919e-29
2.29645e-29
2.29849e-29
2.30259e-29
2.30477e-29
2.30903e-29
2.31142e-29
2.31587e-29
2.31844e-29
2.32303e-29
2.32584e-29
2.33062e-29
2.33359e-29
2.33859e-29
2.34174e-29
2.3469e-29
2.35031e-29
2.35294e-29
2.35738e-29
5.19408e-29
4.99878e-29
5.00965e-29
5.01465e-29
5.02446e-29
5.02973e-29
5.04005e-29
5.04579e-29
5.05667e-29
5.06278e-29
5.07404e-29
5.08071e-29
5.09235e-29
5.09954e-29
5.11167e-29
5.11932e-29
5.13187e-29
5.14011e-29
5.14651e-29
5.15728e-29
8.75697e-29
8.40057e-29
8.42056e-29
8.4285e-29
8.44647e-29
8.45548e-29
8.47404e-29
8.48434e-29
8.5033e-29
8.51485e-29
8.53445e-29
8.54703e-29
8.56749e-29
8.581e-29
8.60241e-29
8.61678e-29
8.6391e-29
8.65438e-29
8.66588e-29
8.68552e-29
1.18212e-28
1.13185e-28
1.13451e-28
1.1357e-28
1.1381e-28
1.13943e-28
1.14193e-28
1.14341e-28
1.14605e-28
1.14765e-28
1.15042e-28
1.15215e-28
1.15503e-28
1.15692e-28
1.15992e-28
1.16196e-28
1.16509e-28
1.16725e-28
1.16887e-28
1.17164e-28
1.3922e-28
1.33153e-28
1.3348e-28
1.33611e-28
1.33906e-28
1.34058e-28
1.34362e-28
1.34536e-28
1.3485e-28
1.35046e-28
1.35372e-28
1.35586e-28
1.35928e-28
1.36158e-28
1.36516e-28
1.36762e-28
1.37138e-28
1.374e-28
1.37594e-28
1.37928e-28
1.52306e-28
1.45588e-28
1.45935e-28
1.46091e-28
1.46408e-28
1.4658e-28
1.46911e-28
1.47105e-28
1.47452e-28
1.47664e-28
1.48033e-28
1.48259e-28
1.48646e-28
1.48893e-28
1.49294e-28
1.49563e-28
1.49982e-28
1.5027e-28
1.50485e-28
1.50855e-28
1.60581e-28
1.53441e-28
1.5382e-28
1.53977e-28
1.54312e-28
1.54496e-28
1.54843e-28
1.55053e-28
1.55416e-28
1.55648e-28
1.56027e-28
1.5628e-28
1.56677e-28
1.56951e-28
1.57369e-28
1.5766e-28
1.581e-28
1.58408e-28
1.58636e-28
1.59029e-28
1.66401e-28
1.58971e-28
1.59354e-28
1.59524e-28
1.5987e-28
1.60062e-28
1.60424e-28
1.60639e-28
1.6102e-28
1.61255e-28
1.61658e-28
1.61913e-28
1.62332e-28
1.62612e-28
1.63048e-28
1.6335e-28
1.6381e-28
1.6413e-28
1.64368e-28
1.64777e-28
1.71164e-28
1.63487e-28
1.63894e-28
1.64059e-28
1.6442e-28
1.64616e-28
1.64988e-28
1.65213e-28
1.656e-28
1.65851e-28
1.66256e-28
1.66528e-28
1.66955e-28
1.67248e-28
1.67697e-28
1.6801e-28
1.68482e-28
1.68813e-28
1.69058e-28
1.6948e-28
1.75646e-28
1.67743e-28
1.68161e-28
1.68329e-28
1.68704e-28
1.68901e-28
1.69287e-28
1.69515e-28
1.6992e-28
1.70168e-28
1.70597e-28
1.70865e-28
1.71315e-28
1.71606e-28
1.72077e-28
1.72391e-28
1.72883e-28
1.73221e-28
1.73474e-28
1.73908e-28
1.80305e-28
1.72167e-28
1.72588e-28
1.72765e-28
1.73152e-28
1.73353e-28
1.73757e-28
1.73986e-28
1.74402e-28
1.74661e-28
1.75092e-28
1.75377e-28
1.75833e-28
1.7614e-28
1.76618e-28
1.76948e-28
1.77449e-28
1.77801e-28
1.7806e-28
1.78508e-28
1.8544e-28
1.77044e-28
1.77471e-28
1.77661e-28
1.7805e-28
1.78264e-28
1.78672e-28
1.78912e-28
1.79343e-28
1.79605e-28
1.8006e-28
1.80345e-28
1.80821e-28
1.81133e-28
1.81629e-28
1.81967e-28
1.82487e-28
1.82847e-28
1.83116e-28
1.83578e-28
1.91303e-28
1.82605e-28
1.83061e-28
1.83242e-28
1.83655e-28
1.83867e-28
1.84295e-28
1.84541e-28
1.84987e-28
1.85258e-28
1.85729e-28
1.86023e-28
1.86518e-28
1.86837e-28
1.87355e-28
1.87701e-28
1.88241e-28
1.88613e-28
1.88892e-28
1.8937e-28
1.98171e-28
1.89118e-28
1.89588e-28
1.89779e-28
1.90209e-28
1.90428e-28
1.90875e-28
1.91127e-28
1.91591e-28
1.91876e-28
1.92357e-28
1.92673e-28
1.93176e-28
1.93519e-28
1.94048e-28
1.94416e-28
1.94972e-28
1.95363e-28
1.95651e-28
1.96149e-28
2.06345e-28
1.96873e-28
1.97368e-28
1.97562e-28
1.98013e-28
1.9824e-28
1.98707e-28
1.98969e-28
1.99454e-28
1.99751e-28
2.00255e-28
2.00581e-28
2.01115e-28
2.01466e-28
2.02026e-28
2.02404e-28
2.02991e-28
2.03397e-28
2.03699e-28
2.0422e-28
2.16073e-28
2.06092e-28
2.0661e-28
2.06819e-28
2.07282e-28
2.0753e-28
2.08011e-28
2.08297e-28
2.08796e-28
2.09117e-28
2.09641e-28
2.09991e-28
2.10543e-28
2.10921e-28
2.11503e-28
2.11908e-28
2.12521e-28
2.12951e-28
2.13269e-28
2.13817e-28
2.27019e-28
2.16473e-28
2.1702e-28
2.17238e-28
2.17727e-28
2.17985e-28
2.18497e-28
2.18792e-28
2.19327e-28
2.19658e-28
2.20216e-28
2.20582e-28
2.21166e-28
2.21564e-28
2.22179e-28
2.22607e-28
2.23253e-28
2.23709e-28
2.24044e-28
2.24623e-28
2.37384e-28
2.26572e-28
2.27107e-28
2.27332e-28
2.27818e-28
2.28087e-28
2.28594e-28
2.28908e-28
2.29438e-28
2.2979e-28
2.30352e-28
2.30737e-28
2.31333e-28
2.31751e-28
2.3238e-28
2.32834e-28
2.33499e-28
2.33986e-28
2.34332e-28
2.3494e-28
2.41595e-28
2.41583e-28
2.41579e-28
2.41572e-28
2.41568e-28
2.41563e-28
2.4156e-28
2.41555e-28
2.41555e-28
2.4155e-28
2.41551e-28
2.41547e-28
2.41548e-28
2.41545e-28
2.41547e-28
2.41544e-28
2.41545e-28
2.41545e-28
2.41545e-28
2.41545e-28
)
;

boundaryField
{
    movingWall
    {
        type            calculated;
        value           nonuniform List<scalar> 
20
(
2.41595e-28
2.41583e-28
2.41579e-28
2.41572e-28
2.41568e-28
2.41563e-28
2.4156e-28
2.41555e-28
2.41555e-28
2.4155e-28
2.41551e-28
2.41547e-28
2.41548e-28
2.41545e-28
2.41547e-28
2.41544e-28
2.41545e-28
2.41545e-28
2.41545e-28
2.41545e-28
)
;
    }
    fixedWalls
    {
        type            calculated;
        value           nonuniform List<scalar> 
60
(
1.11252e-29
2.37112e-29
5.19408e-29
8.75697e-29
1.18212e-28
1.3922e-28
1.52306e-28
1.60581e-28
1.66401e-28
1.71164e-28
1.75646e-28
1.80305e-28
1.8544e-28
1.91303e-28
1.98171e-28
2.06345e-28
2.16073e-28
2.27019e-28
2.37384e-28
2.41595e-28
1.11228e-29
2.35738e-29
5.15728e-29
8.68552e-29
1.17164e-28
1.37928e-28
1.50855e-28
1.59029e-28
1.64777e-28
1.6948e-28
1.73908e-28
1.78508e-28
1.83578e-28
1.8937e-28
1.96149e-28
2.0422e-28
2.13817e-28
2.24623e-28
2.3494e-28
2.41545e-28
1.11252e-29
1.11249e-29
1.11246e-29
1.11243e-29
1.11241e-29
1.11239e-29
1.11237e-29
1.11235e-29
1.11234e-29
1.11233e-29
1.11232e-29
1.11231e-29
1.1123e-29
1.11229e-29
1.11229e-29
1.11228e-29
1.11228e-29
1.11228e-29
1.11228e-29
1.11228e-29
)
;
    }
    frontAndBack
    {
        type            empty;
    }
}


// ************************************************************************* //
