/*--------------------------------*- C++ -*----------------------------------*\
| =========                 |                                                 |
| \\      /  F ield         | OpenFOAM: The Open Source CFD Toolbox           |
|  \\    /   O peration     | Version:  2312                                  |
|   \\  /    A nd           | Website:  www.openfoam.com                      |
|    \\/     M anipulation  |                                                 |
\*---------------------------------------------------------------------------*/
FoamFile
{
    version     2.0;
    format      ascii;
    arch        "LSB;label=32;scalar=64";
    class       surfaceScalarField;
    location    "4";
    object      PecletNoField;
}
// * * * * * * * * * * * * * * * * * * * * * * * * * * * * * * * * * * * * * //

dimensions      [0 0 0 0 0 0 0];

oriented        oriented;

internalField   nonuniform List<scalar> 
760
(
387.098
5.1659e-09
387.098
2.49721e-09
387.099
2.15921e-09
387.099
4.34096e-11
387.099
3.60168e-10
387.099
1.8136e-11
387.099
7.34018e-11
387.1
2.18768e-11
387.1
2.11117e-11
387.1
1.1551e-11
387.1
8.71519e-12
387.1
5.93625e-12
387.1
4.36017e-12
387.1
3.19118e-12
387.1
2.32338e-12
387.1
1.71874e-12
387.1
1.285e-12
387.1
9.85947e-13
387.1
5.76036e-13
4.28961e-14
377.162
4.59635e-10
375.742
8.57879e-10
375.951
5.37959e-10
376.13
5.9744e-11
376.313
3.84676e-10
376.492
9.09269e-11
376.674
9.57436e-11
376.853
4.21286e-11
377.034
3.3645e-11
377.212
2.0961e-11
377.392
1.53949e-11
377.569
1.08683e-11
377.749
8.07652e-12
377.926
5.96386e-12
378.103
4.40335e-12
378.281
3.25552e-12
378.457
2.46873e-12
378.582
1.88975e-12
378.722
1.01404e-12
2.22249e-14
367.756
1.09816e-08
366.081
9.74043e-09
366.331
1.87918e-10
366.546
1.01489e-09
366.766
1.04481e-10
366.98
1.59502e-10
367.197
5.36586e-11
367.409
5.99032e-11
367.624
3.61106e-11
367.836
2.74168e-11
368.049
1.92737e-11
368.259
1.438e-11
368.47
1.07261e-11
368.679
8.03531e-12
368.887
5.99665e-12
369.095
4.4544e-12
369.302
3.41151e-12
369.447
2.63215e-12
369.611
1.40198e-12
1.57311e-14
361.211
1.95277e-08
359.34
1.97249e-08
359.62
1.14504e-09
359.862
1.57791e-09
360.107
5.79617e-10
360.347
1.81562e-11
360.589
1.17486e-10
360.827
3.94228e-11
361.067
4.16217e-11
361.304
2.7225e-11
361.542
2.16608e-11
361.777
1.6052e-11
362.012
1.23477e-11
362.245
9.29843e-12
362.478
7.04994e-12
362.71
5.29907e-12
362.941
4.11328e-12
363.103
3.21178e-12
363.287
1.74096e-12
1.30348e-14
357.346
3.30318e-08
355.359
3.1384e-08
355.657
1.28627e-09
355.915
2.67777e-09
356.176
5.6011e-10
356.432
2.22145e-10
356.691
1.53507e-11
356.943
5.99043e-11
357.2
3.00254e-11
357.451
2.88941e-11
357.705
2.09097e-11
357.955
1.67108e-11
358.206
1.28608e-11
358.454
9.96669e-12
358.703
7.63532e-12
358.949
5.84094e-12
359.195
4.60183e-12
359.368
3.65539e-12
359.562
1.97654e-12
4.882e-14
355.213
4.41964e-08
353.156
4.28578e-08
353.465
1.67641e-09
353.732
3.43414e-09
354.002
8.5724e-10
354.267
1.59477e-10
354.534
1.3658e-10
354.797
1.68458e-11
355.062
3.70555e-11
355.322
2.27892e-11
355.584
2.05214e-11
355.843
1.57993e-11
356.102
1.27269e-11
356.358
9.94554e-12
356.615
7.7574e-12
356.87
6.04952e-12
357.124
4.88409e-12
357.303
3.94025e-12
357.504
2.12994e-12
7.04592e-14
354.029
5.61261e-08
351.939
5.34482e-08
352.254
1.79898e-09
352.525
4.28094e-09
352.8
9.09933e-10
353.07
2.85484e-10
353.343
7.999e-11
353.609
5.27286e-11
353.88
1.7517e-11
354.144
2.3819e-11
354.411
1.71804e-11
354.674
1.47914e-11
354.938
1.18656e-11
355.2
9.59105e-12
355.461
7.57414e-12
355.721
5.92075e-12
355.979
4.84016e-12
356.161
4.06065e-12
356.366
2.19145e-12
1.45303e-13
353.333
6.56341e-08
351.219
6.28815e-08
351.536
1.96202e-09
351.812
4.9253e-09
352.09
1.08541e-09
352.363
2.6756e-10
352.638
1.53987e-10
352.908
3.96627e-12
353.181
2.96638e-11
353.449
1.52837e-11
353.718
1.60453e-11
353.984
1.26432e-11
354.251
1.08287e-11
354.515
8.79776e-12
354.779
7.07492e-12
355.041
5.60425e-12
355.303
4.62799e-12
355.486
3.89113e-12
355.693
2.09135e-12
2.45357e-13
352.862
7.40352e-08
350.735
7.03972e-08
351.055
2.01784e-09
351.332
5.47286e-09
351.612
1.13904e-09
351.887
3.36429e-10
352.164
1.25401e-10
352.435
4.60703e-11
352.71
6.01846e-12
352.98
1.74183e-11
353.251
1.20006e-11
353.519
1.12896e-11
353.788
9.37422e-12
354.054
7.82369e-12
354.32
6.3773e-12
354.583
5.14382e-12
354.847
4.31083e-12
355.032
3.74506e-12
355.24
1.94349e-12
3.85317e-13
352.491
7.97585e-08
350.351
7.60144e-08
350.672
2.0494e-09
350.952
5.8461e-09
351.233
1.22545e-09
351.509
3.30634e-10
351.788
1.64194e-10
352.061
1.80952e-11
352.337
2.27478e-11
352.608
8.19451e-12
352.882
1.10454e-11
353.15
8.89402e-12
353.421
8.04535e-12
353.688
6.67422e-12
353.955
5.52754e-12
354.22
4.53898e-12
354.485
3.93025e-12
354.671
3.4393e-12
354.88
1.7761e-12
4.37155e-13
352.149
8.34728e-08
350
7.92683e-08
350.323
2.02638e-09
350.603
6.0562e-09
350.886
1.24475e-09
351.164
3.57449e-10
351.444
1.4858e-10
351.718
3.97154e-11
351.996
2.25224e-12
352.267
1.15608e-11
352.542
7.07742e-12
352.812
7.50149e-12
353.084
6.46506e-12
353.352
5.6633e-12
353.621
4.70918e-12
353.887
3.90246e-12
354.153
3.38896e-12
354.341
3.04924e-12
354.551
1.54961e-12
5.23834e-13
351.802
8.4199e-08
349.644
8.00284e-08
349.97
1.95222e-09
350.25
6.07367e-09
350.534
1.25344e-09
350.812
3.4599e-10
351.093
1.60419e-10
351.37
2.59428e-11
351.649
1.64185e-11
351.923
2.59828e-12
352.199
6.47648e-12
352.47
5.13906e-12
352.743
5.13743e-12
353.013
4.40742e-12
353.282
3.76969e-12
353.55
3.17859e-12
353.817
2.92106e-12
354.005
2.70799e-12
354.217
1.30406e-12
5.39187e-13
351.43
8.26008e-08
349.261
7.83969e-08
349.588
1.8573e-09
349.871
5.92171e-09
350.157
1.22416e-09
350.436
3.37013e-10
350.72
1.50576e-10
350.996
3.17876e-11
351.277
7.71381e-12
351.552
6.36112e-12
351.829
2.79715e-12
352.103
3.98694e-12
352.377
3.54355e-12
352.648
3.35779e-12
352.919
2.91669e-12
353.188
2.57691e-12
353.456
2.45909e-12
353.646
2.4136e-12
353.858
1.14406e-12
6.07609e-13
351.019
7.79752e-08
348.835
7.39924e-08
349.164
1.68888e-09
349.449
5.56956e-09
349.736
1.15304e-09
350.019
3.17179e-10
350.303
1.38361e-10
350.582
2.9122e-11
350.864
9.77148e-12
351.14
1.65781e-12
351.419
2.61101e-12
351.694
2.03062e-12
351.969
2.54519e-12
352.242
2.34915e-12
352.515
2.19246e-12
352.785
1.95342e-12
353.055
1.97749e-12
353.246
2.029e-12
353.459
9.49978e-13
6.24949e-13
350.55
7.11007e-08
348.354
6.75388e-08
348.686
1.55389e-09
348.972
5.05564e-09
349.26
1.08132e-09
349.544
2.71752e-10
349.83
1.34452e-10
350.111
2.11214e-11
350.395
1.08076e-11
350.674
1.93241e-12
350.954
2.3934e-13
351.231
1.28868e-12
351.508
1.47196e-12
351.782
1.58287e-12
352.057
1.54624e-12
352.329
1.45991e-12
352.601
1.56548e-12
352.792
1.63748e-12
353.007
7.00674e-13
6.24316e-13
350.013
6.18297e-08
347.8
5.85831e-08
348.133
1.27573e-09
348.422
4.3974e-09
348.713
9.16896e-10
348.999
2.51555e-10
349.288
9.79399e-11
349.571
2.81896e-11
349.856
3.31646e-12
350.137
4.02363e-12
350.42
7.59695e-14
350.698
8.58495e-14
350.978
8.13038e-13
351.254
9.60982e-13
351.531
1.01254e-12
351.805
9.86899e-13
352.079
1.11466e-12
352.272
1.21978e-12
352.488
5.23722e-13
5.11073e-13
349.399
5.03445e-08
347.169
4.8034e-08
347.504
1.19256e-09
347.796
3.56149e-09
348.09
8.37225e-10
348.378
1.7291e-10
348.669
1.03998e-10
348.955
1.02546e-11
349.243
1.09072e-11
349.526
7.6188e-13
349.811
1.69423e-12
350.092
8.44575e-14
350.374
2.33386e-13
350.652
5.3507e-13
350.931
5.74153e-13
351.207
6.04637e-13
351.484
7.60854e-13
351.678
9.34001e-13
351.896
4.32601e-13
3.91112e-13
348.742
3.87159e-08
346.493
3.65741e-08
346.831
6.61136e-10
347.125
2.65606e-09
347.422
5.14251e-10
347.712
1.37973e-10
348.005
4.38005e-11
348.293
1.74289e-11
348.583
1.18608e-12
348.869
3.3864e-12
349.156
1.04822e-12
349.439
5.94101e-13
349.724
7.52851e-15
350.005
2.31025e-13
350.286
3.23397e-13
350.565
3.91944e-13
350.844
5.38252e-13
351.04
6.71288e-13
351.26
2.34682e-13
3.52564e-13
348.206
2.67439e-08
345.989
2.77173e-08
346.315
3.04219e-09
346.6
2.5003e-09
346.887
7.1767e-10
347.169
1.74263e-10
347.456
8.22414e-11
347.736
1.36753e-11
348.021
8.63218e-12
348.301
2.99072e-13
348.585
1.24017e-12
348.864
1.52854e-13
349.146
9.37057e-14
349.425
7.24906e-14
349.705
1.20659e-13
349.983
1.99675e-13
350.262
2.84353e-13
350.46
3.70819e-13
350.68
1.37478e-13
2.56081e-13
350.457
350.458
350.458
350.458
350.458
350.459
350.459
350.459
350.459
350.459
350.459
350.459
350.459
350.459
350.459
350.459
350.459
350.459
350.459
)
;

boundaryField
{
    movingWall
    {
        type            calculated;
        value           uniform 0;
    }
    fixedWalls
    {
        type            calculated;
        value           nonuniform List<scalar> 
60
(
250
250
250
250
250
250
250
250
250
250
250
250
250
250
250
250
250
250
250
250
250
250
250
250
250
250
250
250
250
250
250
250
250
250
250
250
250
250
250
250
0
0
0
0
0
0
0
0
0
0
0
0
0
0
0
0
0
0
0
0
)
;
    }
    frontAndBack
    {
        type            empty;
        value           nonuniform List<scalar> 0();
    }
}


// ************************************************************************* //
