/*--------------------------------*- C++ -*----------------------------------*\
| =========                 |                                                 |
| \\      /  F ield         | OpenFOAM: The Open Source CFD Toolbox           |
|  \\    /   O peration     | Version:  2312                                  |
|   \\  /    A nd           | Website:  www.openfoam.com                      |
|    \\/     M anipulation  |                                                 |
\*---------------------------------------------------------------------------*/
FoamFile
{
    version     2.0;
    format      ascii;
    arch        "LSB;label=32;scalar=64";
    class       surfaceScalarField;
    location    "4";
    object      phi;
}
// * * * * * * * * * * * * * * * * * * * * * * * * * * * * * * * * * * * * * //

dimensions      [0 3 -1 0 0 0 0];

oriented        oriented;

internalField   nonuniform List<scalar> 
760
(
-5e-05
-6.74619e-16
-5e-05
3.27494e-16
-5e-05
2.83055e-16
-5e-05
-5.68971e-18
-5e-05
4.71922e-17
-5e-05
2.37593e-18
-5e-05
9.61306e-18
-5e-05
2.86459e-18
-5e-05
2.76357e-18
-5e-05
1.51177e-18
-5e-05
1.14029e-18
-5e-05
7.76549e-19
-5e-05
5.7021e-19
-5e-05
4.17253e-19
-5e-05
3.03701e-19
-5e-05
2.24622e-19
-5e-05
1.67889e-19
-5e-05
1.28792e-19
-5e-05
7.52357e-20
5.60133e-21
-5e-05
-6.14271e-17
-5e-05
-1.15716e-16
-5e-05
7.24987e-17
-5e-05
8.04861e-18
-5e-05
5.17862e-17
-5e-05
1.22362e-17
-5e-05
1.28756e-17
-5e-05
5.66323e-18
-5e-05
4.51982e-18
-5e-05
2.81472e-18
-5e-05
2.06596e-18
-5e-05
1.4579e-18
-5e-05
1.08272e-18
-5e-05
7.99167e-19
-5e-05
5.89693e-19
-5e-05
4.35792e-19
-5e-05
3.30269e-19
-5e-05
2.52707e-19
-5e-05
1.35561e-19
-2.96961e-21
-5e-05
-1.49843e-15
-5e-05
1.34354e-15
-5e-05
-2.58936e-17
-5e-05
1.39783e-16
-5e-05
-1.43785e-17
-5e-05
2.19406e-17
-5e-05
7.37517e-18
-5e-05
8.22965e-18
-5e-05
4.95712e-18
-5e-05
3.76188e-18
-5e-05
2.64256e-18
-5e-05
1.97064e-18
-5e-05
1.46884e-18
-5e-05
1.09982e-18
-5e-05
8.20187e-19
-5e-05
6.0895e-19
-5e-05
4.66046e-19
-5e-05
3.59404e-19
-5e-05
1.91364e-19
-2.14595e-21
-5e-05
2.70146e-15
-5e-05
-2.76156e-15
-5e-05
1.60127e-16
-5e-05
-2.20555e-16
-5e-05
8.09425e-17
-5e-05
-2.53423e-18
-5e-05
1.6384e-17
-5e-05
5.49492e-18
-5e-05
5.79641e-18
-5e-05
3.7895e-18
-5e-05
3.01248e-18
-5e-05
2.23125e-18
-5e-05
1.71494e-18
-5e-05
1.29075e-18
-5e-05
9.77843e-19
-5e-05
7.34601e-19
-5e-05
5.69766e-19
-5e-05
4.44655e-19
-5e-05
2.40932e-19
1.80271e-21
-5e-05
-4.60642e-15
-5e-05
4.43225e-15
-5e-05
-1.81437e-16
-5e-05
3.77526e-16
-5e-05
-7.88903e-17
-5e-05
3.12723e-17
-5e-05
-2.15895e-18
-5e-05
8.42052e-18
-5e-05
4.2167e-18
-5e-05
4.05558e-18
-5e-05
2.93229e-18
-5e-05
2.34214e-18
-5e-05
1.80097e-18
-5e-05
1.39491e-18
-5e-05
1.06771e-18
-5e-05
8.16328e-19
-5e-05
6.42613e-19
-5e-05
5.10163e-19
-5e-05
2.75739e-19
-6.80601e-21
-5e-05
6.19097e-15
-5e-05
-6.0821e-15
-5e-05
2.3761e-16
-5e-05
-4.8649e-16
-5e-05
1.21317e-16
-5e-05
-2.25572e-17
-5e-05
1.92998e-17
-5e-05
2.37911e-18
-5e-05
5.22838e-18
-5e-05
3.21364e-18
-5e-05
2.89121e-18
-5e-05
2.22463e-18
-5e-05
1.79043e-18
-5e-05
1.39832e-18
-5e-05
1.08973e-18
-5e-05
8.49315e-19
-5e-05
6.85106e-19
-5e-05
5.5239e-19
-5e-05
2.98472e-19
-9.86656e-21
-5e-05
-7.88208e-15
-5e-05
7.60599e-15
-5e-05
-2.55681e-16
-5e-05
6.08109e-16
-5e-05
-1.29124e-16
-5e-05
4.04896e-17
-5e-05
-1.13335e-17
-5e-05
7.46676e-18
-5e-05
2.47816e-18
-5e-05
3.36777e-18
-5e-05
2.42688e-18
-5e-05
2.08819e-18
-5e-05
1.67362e-18
-5e-05
1.352e-18
-5e-05
1.06674e-18
-5e-05
8.3338e-19
-5e-05
6.80685e-19
-5e-05
5.70724e-19
-5e-05
3.07873e-19
-2.03987e-20
-5e-05
9.23193e-15
-5e-05
-8.96378e-15
-5e-05
2.7933e-16
-5e-05
-7.00831e-16
-5e-05
1.54284e-16
-5e-05
-3.80114e-17
-5e-05
2.18543e-17
-5e-05
-5.62591e-19
-5e-05
4.20354e-18
-5e-05
2.16453e-18
-5e-05
2.27026e-18
-5e-05
1.78783e-18
-5e-05
1.52985e-18
-5e-05
1.24218e-18
-5e-05
9.9803e-19
-5e-05
7.90098e-19
-5e-05
6.51887e-19
-5e-05
5.47768e-19
-5e-05
2.94277e-19
-3.44994e-20
-5e-05
-1.04255e-14
-5e-05
1.00476e-14
-5e-05
-2.87631e-16
-5e-05
7.79701e-16
-5e-05
-1.62106e-16
-5e-05
4.78535e-17
-5e-05
-1.7819e-17
-5e-05
6.54266e-18
-5e-05
8.53874e-19
-5e-05
2.4698e-18
-5e-05
1.69999e-18
-5e-05
1.59832e-18
-5e-05
1.32592e-18
-5e-05
1.10595e-18
-5e-05
9.00668e-19
-5e-05
7.26027e-19
-5e-05
6.07913e-19
-5e-05
5.27812e-19
-5e-05
2.73784e-19
-5.42409e-20
-5e-05
1.12424e-14
-5e-05
-1.08607e-14
-5e-05
2.92438e-16
-5e-05
-8.33741e-16
-5e-05
1.74586e-16
-5e-05
-4.70777e-17
-5e-05
2.33552e-17
-5e-05
-2.57241e-18
-5e-05
3.23065e-18
-5e-05
1.1631e-18
-5e-05
1.56626e-18
-5e-05
1.26043e-18
-5e-05
1.1391e-18
-5e-05
9.44395e-19
-5e-05
7.81432e-19
-5e-05
6.41287e-19
-5e-05
5.54789e-19
-5e-05
4.85193e-19
-5e-05
2.50448e-19
-6.15978e-20
-5e-05
-1.1777e-14
-5e-05
1.13372e-14
-5e-05
-2.89443e-16
-5e-05
8.64571e-16
-5e-05
-1.77512e-16
-5e-05
5.09463e-17
-5e-05
-2.11552e-17
-5e-05
5.65149e-18
-5e-05
-3.20177e-19
-5e-05
1.6425e-18
-5e-05
1.00456e-18
-5e-05
1.06411e-18
-5e-05
9.16237e-19
-5e-05
8.02118e-19
-5e-05
6.66375e-19
-5e-05
5.51881e-19
-5e-05
4.78832e-19
-5e-05
4.3057e-19
-5e-05
2.18715e-19
-7.38804e-20
-5e-05
1.18911e-14
-5e-05
-1.14581e-14
-5e-05
2.79142e-16
-5e-05
-8.67977e-16
-5e-05
1.78937e-16
-5e-05
-4.93645e-17
-5e-05
2.28646e-17
-5e-05
-3.69546e-18
-5e-05
2.33644e-18
-5e-05
3.69527e-19
-5e-05
9.20199e-19
-5e-05
7.29728e-19
-5e-05
7.28814e-19
-5e-05
6.24868e-19
-5e-05
5.33962e-19
-5e-05
4.49959e-19
-5e-05
4.13129e-19
-5e-05
3.8276e-19
-5e-05
1.84238e-19
-7.61201e-20
-5e-05
-1.16779e-14
-5e-05
1.12375e-14
-5e-05
-2.65876e-16
-5e-05
8.47232e-16
-5e-05
-1.74957e-16
-5e-05
4.81382e-17
-5e-05
-2.14858e-17
-5e-05
4.53314e-18
-5e-05
-1.09895e-18
-5e-05
9.05685e-19
-5e-05
3.97871e-19
-5e-05
5.66757e-19
-5e-05
5.03256e-19
-5e-05
4.76576e-19
-5e-05
4.1359e-19
-5e-05
3.65181e-19
-5e-05
3.48168e-19
-5e-05
3.41517e-19
-5e-05
1.61808e-19
-8.58712e-20
-5e-05
1.10372e-14
-5e-05
-1.062e-14
-5e-05
2.42082e-16
-5e-05
-7.97876e-16
-5e-05
1.65004e-16
-5e-05
-4.53631e-17
-5e-05
1.97679e-17
-5e-05
-4.15825e-18
-5e-05
1.39385e-18
-5e-05
-2.36333e-19
-5e-05
3.71856e-19
-5e-05
2.89019e-19
-5e-05
3.61914e-19
-5e-05
3.3383e-19
-5e-05
3.11273e-19
-5e-05
2.77163e-19
-5e-05
2.80321e-19
-5e-05
2.87444e-19
-5e-05
1.3452e-19
-8.8428e-20
-5e-05
-1.0078e-14
-5e-05
9.70816e-15
-5e-05
-2.23062e-16
-5e-05
7.25323e-16
-5e-05
-1.54968e-16
-5e-05
3.89229e-17
-5e-05
-1.92374e-17
-5e-05
3.02024e-18
-5e-05
-1.54386e-18
-5e-05
2.75876e-19
-5e-05
-3.41351e-20
-5e-05
1.83679e-19
-5e-05
2.09602e-19
-5e-05
2.25253e-19
-5e-05
2.19834e-19
-5e-05
2.0743e-19
-5e-05
2.22224e-19
-5e-05
2.323e-19
-5e-05
9.93543e-20
-8.84596e-20
-5e-05
8.77775e-15
-5e-05
-8.43526e-15
-5e-05
1.83444e-16
-5e-05
-6.31957e-16
-5e-05
1.31625e-16
-5e-05
-3.60906e-17
-5e-05
1.40366e-17
-5e-05
-4.03765e-18
-5e-05
4.74537e-19
-5e-05
-5.75368e-19
-5e-05
-1.08526e-20
-5e-05
1.22563e-20
-5e-05
1.15961e-19
-5e-05
1.36975e-19
-5e-05
1.44187e-19
-5e-05
1.40447e-19
-5e-05
1.58481e-19
-5e-05
1.73317e-19
-5e-05
7.43804e-20
-7.25282e-20
-5e-05
-7.15975e-15
-5e-05
6.92939e-15
-5e-05
-1.71807e-16
-5e-05
5.12786e-16
-5e-05
-1.20411e-16
-5e-05
2.48535e-17
-5e-05
-1.49324e-17
-5e-05
1.47149e-18
-5e-05
-1.56351e-18
-5e-05
-1.09145e-19
-5e-05
-2.42468e-19
-5e-05
-1.20794e-20
-5e-05
3.33468e-20
-5e-05
7.64037e-20
-5e-05
8.19057e-20
-5e-05
8.61993e-20
-5e-05
1.08368e-19
-5e-05
1.32944e-19
-5e-05
6.15467e-20
-5.56009e-20
-5e-05
5.5155e-15
-5e-05
-5.28514e-15
-5e-05
9.54095e-17
-5e-05
-3.83078e-16
-5e-05
7.40885e-17
-5e-05
-1.98662e-17
-5e-05
6.29998e-18
-5e-05
-2.50534e-18
-5e-05
-1.70319e-19
-5e-05
-4.85977e-19
-5e-05
-1.50279e-19
-5e-05
-8.51193e-20
-5e-05
1.07759e-21
-5e-05
3.30463e-20
-5e-05
4.62152e-20
-5e-05
5.59746e-20
-5e-05
7.67969e-20
-5e-05
9.5716e-20
-5e-05
3.34464e-20
-5.02075e-20
-5e-05
-3.81434e-15
-5e-05
3.9813e-15
-5e-05
-4.3669e-16
-5e-05
3.58802e-16
-5e-05
-1.02932e-16
-5e-05
2.49865e-17
-5e-05
-1.17859e-17
-5e-05
1.95919e-18
-5e-05
-1.23606e-18
-5e-05
4.28115e-20
-5e-05
-1.77439e-19
-5e-05
-2.18628e-20
-5e-05
-1.33963e-20
-5e-05
1.036e-20
-5e-05
1.72359e-20
-5e-05
2.85136e-20
-5e-05
4.05867e-20
-5e-05
5.29109e-20
-5e-05
1.96117e-20
-3.65164e-20
-5e-05
-5e-05
-5e-05
-5e-05
-5e-05
-5e-05
-5e-05
-5e-05
-5e-05
-5e-05
-5e-05
-5e-05
-5e-05
-5e-05
-5e-05
-5e-05
-5e-05
-5e-05
-5e-05
)
;

boundaryField
{
    movingWall
    {
        type            calculated;
        value           uniform 0;
    }
    fixedWalls
    {
        type            calculated;
        value           nonuniform List<scalar> 
60
(
5e-05
5e-05
5e-05
5e-05
5e-05
5e-05
5e-05
5e-05
5e-05
5e-05
5e-05
5e-05
5e-05
5e-05
5e-05
5e-05
5e-05
5e-05
5e-05
5e-05
-5e-05
-5e-05
-5e-05
-5e-05
-5e-05
-5e-05
-5e-05
-5e-05
-5e-05
-5e-05
-5e-05
-5e-05
-5e-05
-5e-05
-5e-05
-5e-05
-5e-05
-5e-05
-5e-05
-5e-05
0
0
0
0
0
0
0
0
0
0
0
0
0
0
0
0
0
0
0
0
)
;
    }
    frontAndBack
    {
        type            empty;
        value           nonuniform List<scalar> 0();
    }
}


// ************************************************************************* //
