/*--------------------------------*- C++ -*----------------------------------*\
| =========                 |                                                 |
| \\      /  F ield         | OpenFOAM: The Open Source CFD Toolbox           |
|  \\    /   O peration     | Version:  2312                                  |
|   \\  /    A nd           | Website:  www.openfoam.com                      |
|    \\/     M anipulation  |                                                 |
\*---------------------------------------------------------------------------*/
FoamFile
{
    version     2.0;
    format      ascii;
    arch        "LSB;label=32;scalar=64";
    class       volScalarField;
    location    "4";
    object      pzeroGrad;
}
// * * * * * * * * * * * * * * * * * * * * * * * * * * * * * * * * * * * * * //

dimensions      [0 2 -2 0 0 0 0];

internalField   nonuniform List<scalar> 
400
(
0
0
9.14373e-12
2.9088e-12
4.32872e-12
3.4118e-12
3.50222e-12
3.36657e-12
3.35034e-12
3.32272e-12
3.31296e-12
3.30559e-12
3.3018e-12
3.29956e-12
3.29791e-12
3.2969e-12
3.29611e-12
3.29488e-12
3.29358e-12
3.29298e-12
1.42258e-11
0
5.48525e-12
2.54635e-12
3.79669e-12
3.32716e-12
3.40104e-12
3.33163e-12
3.32459e-12
3.30908e-12
3.30359e-12
3.29945e-12
3.29752e-12
3.2963e-12
3.29551e-12
3.29493e-12
3.29454e-12
3.29351e-12
3.29217e-12
3.29151e-12
0
2.20258e-11
1.43432e-13
3.83041e-12
2.71634e-12
3.27829e-12
3.23218e-12
3.285e-12
3.28135e-12
3.28622e-12
3.28694e-12
3.28832e-12
3.2893e-12
3.29006e-12
3.29082e-12
3.29115e-12
3.29137e-12
3.29072e-12
3.28967e-12
3.28932e-12
2.94809e-11
0
5.13366e-12
3.21729e-13
3.57573e-12
2.94569e-12
3.22438e-12
3.19963e-12
3.24524e-12
3.25553e-12
3.2675e-12
3.27369e-12
3.27856e-12
3.28187e-12
3.28438e-12
3.2859e-12
3.28682e-12
3.28668e-12
3.28612e-12
3.28592e-12
0
6.98578e-11
0
6.46202e-12
2.00547e-12
3.19269e-12
3.01889e-12
3.18284e-12
3.19786e-12
3.23118e-12
3.24618e-12
3.25849e-12
3.2666e-12
3.27268e-12
3.2768e-12
3.27969e-12
3.28132e-12
3.28171e-12
3.28152e-12
3.28142e-12
4.3793e-11
0
4.70624e-12
0
3.90579e-12
2.7127e-12
3.17309e-12
3.10456e-12
3.18229e-12
3.20364e-12
3.2288e-12
3.2435e-12
3.25494e-12
3.2629e-12
3.26874e-12
3.27267e-12
3.27508e-12
3.27611e-12
3.27624e-12
3.27628e-12
0
1.24335e-10
4.27337e-13
9.76425e-12
1.52104e-12
3.25922e-12
2.89985e-12
3.13523e-12
3.14444e-12
3.19117e-12
3.21203e-12
3.23111e-12
3.24405e-12
3.25369e-12
3.26075e-12
3.26535e-12
3.26829e-12
3.26999e-12
3.27054e-12
3.27056e-12
5.49968e-11
0
4.20777e-12
0
4.3111e-12
2.58753e-12
3.19663e-12
3.06316e-12
3.15308e-12
3.17293e-12
3.20243e-12
3.22041e-12
3.23499e-12
3.24505e-12
3.2528e-12
3.25837e-12
3.26175e-12
3.26352e-12
3.26444e-12
3.2646e-12
0
1.68852e-10
1.17064e-12
1.26053e-11
1.24069e-12
3.38201e-12
2.8559e-12
3.13244e-12
3.12487e-12
3.17334e-12
3.19318e-12
3.21357e-12
3.22735e-12
3.23777e-12
3.24586e-12
3.25164e-12
3.25534e-12
3.25748e-12
3.25849e-12
3.25877e-12
6.14197e-11
0
3.78817e-12
0
4.65607e-12
2.56188e-12
3.25637e-12
3.066e-12
3.1539e-12
3.1645e-12
3.19156e-12
3.20806e-12
3.22182e-12
3.23201e-12
3.23985e-12
3.24558e-12
3.24929e-12
3.25128e-12
3.25268e-12
3.25325e-12
0
1.94711e-10
1.98968e-12
1.43292e-11
1.18218e-12
3.51065e-12
2.87686e-12
3.1612e-12
3.13493e-12
3.17637e-12
3.18978e-12
3.20644e-12
3.21799e-12
3.22772e-12
3.23495e-12
3.24015e-12
3.24362e-12
3.24573e-12
3.24715e-12
3.248e-12
6.18495e-11
0
3.53226e-12
0
4.88493e-12
2.63537e-12
3.33088e-12
3.10369e-12
3.17746e-12
3.17604e-12
3.19551e-12
3.2063e-12
3.21667e-12
3.22459e-12
3.23086e-12
3.2355e-12
3.23893e-12
3.24101e-12
3.24234e-12
3.24312e-12
0
1.97261e-10
2.76999e-12
1.45889e-11
1.35324e-12
3.61791e-12
2.95562e-12
3.21231e-12
3.16802e-12
3.19615e-12
3.19999e-12
3.20997e-12
3.2168e-12
3.22311e-12
3.22812e-12
3.23214e-12
3.23503e-12
3.23693e-12
3.23826e-12
3.23875e-12
5.61104e-11
0
3.4949e-12
0
4.96337e-12
2.79962e-12
3.40781e-12
3.16919e-12
3.21835e-12
3.20341e-12
3.2117e-12
3.21434e-12
3.21921e-12
3.2229e-12
3.22656e-12
3.22956e-12
3.23197e-12
3.23341e-12
3.23451e-12
3.23495e-12
0
1.7535e-10
3.38984e-12
1.33177e-11
1.74098e-12
3.69166e-12
3.08284e-12
3.27862e-12
3.21947e-12
3.22869e-12
3.22129e-12
3.22199e-12
3.22258e-12
3.22419e-12
3.2262e-12
3.22809e-12
3.22961e-12
3.23047e-12
3.2313e-12
3.23191e-12
4.49643e-11
0
3.68249e-12
0
4.88001e-12
3.03726e-12
3.47925e-12
3.25372e-12
3.27038e-12
3.24135e-12
3.23578e-12
3.22941e-12
3.22701e-12
3.22623e-12
3.22631e-12
3.22697e-12
3.22764e-12
3.2282e-12
3.22891e-12
3.22954e-12
0
1.31625e-10
3.81942e-12
1.07411e-11
2.32467e-12
3.73162e-12
3.24708e-12
3.35092e-12
3.27986e-12
3.26622e-12
3.24706e-12
3.23776e-12
3.23156e-12
3.2284e-12
3.2268e-12
3.2264e-12
3.22631e-12
3.22663e-12
3.22703e-12
3.2276e-12
2.97056e-11
0
4.14119e-12
0
4.69173e-12
3.32468e-12
3.54509e-12
3.34392e-12
3.3222e-12
3.27944e-12
3.25996e-12
3.24448e-12
3.23601e-12
3.23055e-12
3.22762e-12
3.22642e-12
3.22572e-12
3.22544e-12
3.22548e-12
3.22601e-12
0
7.11555e-11
5.09031e-12
7.40104e-12
3.2347e-12
3.72701e-12
3.43361e-12
3.40913e-12
3.335e-12
3.29771e-12
3.26912e-12
3.25116e-12
3.23969e-12
3.23259e-12
3.22864e-12
3.22652e-12
3.22524e-12
3.22467e-12
3.22502e-12
3.2253e-12
1.04671e-11
0
9.09629e-12
9.8493e-13
4.76082e-12
3.43398e-12
3.61622e-12
3.39969e-12
3.36035e-12
3.30418e-12
3.27609e-12
3.25477e-12
3.24205e-12
3.23394e-12
3.22944e-12
3.22661e-12
3.22503e-12
3.22437e-12
3.22484e-12
3.22521e-12
)
;

boundaryField
{
    movingWall
    {
        type            zeroGradient;
    }
    fixedWalls
    {
        type            zeroGradient;
    }
    frontAndBack
    {
        type            empty;
    }
}


// ************************************************************************* //
