/*--------------------------------*- C++ -*----------------------------------*\
| =========                 |                                                 |
| \\      /  F ield         | OpenFOAM: The Open Source CFD Toolbox           |
|  \\    /   O peration     | Version:  2312                                  |
|   \\  /    A nd           | Website:  www.openfoam.com                      |
|    \\/     M anipulation  |                                                 |
\*---------------------------------------------------------------------------*/
FoamFile
{
    version     2.0;
    format      ascii;
    arch        "LSB;label=32;scalar=64";
    class       volScalarField;
    location    "4";
    object      QField;
}
// * * * * * * * * * * * * * * * * * * * * * * * * * * * * * * * * * * * * * //

dimensions      [0 0 -2 0 0 0 0];

internalField   nonuniform List<scalar> 
400
(
9.67703e-14
5.17153e-14
4.91221e-15
5.01509e-16
2.56024e-17
4.18632e-18
-2.00704e-20
5.13319e-20
-4.90533e-21
1.06652e-21
-1.74738e-22
2.43329e-23
-7.80112e-24
-8.92054e-25
-1.00784e-24
-4.84158e-25
-3.93882e-25
-2.4276e-25
-7.18479e-26
0
1.54243e-13
7.06687e-14
6.47719e-15
5.9129e-16
3.53128e-17
3.89536e-18
1.47747e-19
2.67897e-20
-2.41371e-22
2.35706e-22
-3.98497e-23
-4.7538e-24
-5.62064e-24
-2.59114e-24
-1.40499e-24
-8.11581e-25
-4.68056e-25
-2.52832e-25
-5.9762e-26
-1.21268e-26
2.04469e-13
5.7878e-14
5.56191e-15
2.87296e-16
2.65908e-17
1.01844e-18
1.82636e-19
-5.05606e-21
2.15641e-21
-2.63239e-22
2.69152e-23
-1.43535e-23
-3.31885e-24
-2.39824e-24
-1.22e-24
-6.76361e-25
-3.6776e-25
-1.9684e-25
-3.77197e-26
-1.58781e-28
3.00823e-13
8.00155e-14
7.99196e-15
4.24139e-16
3.2147e-17
2.58099e-18
8.9221e-20
2.0432e-20
-9.37021e-22
2.86214e-22
-5.10592e-23
6.19805e-25
-4.47174e-24
-1.73168e-24
-1.04335e-24
-5.1548e-25
-2.74707e-25
-1.89045e-25
-1.02697e-25
2.35112e-26
3.22783e-13
8.4046e-14
8.5187e-15
4.34493e-16
3.55141e-17
2.1994e-18
1.80078e-19
4.15526e-21
1.88121e-21
-1.84129e-22
3.11267e-23
-1.08637e-23
-1.68995e-24
-1.70251e-24
-7.58066e-25
-3.7485e-25
-2.264e-25
-1.08578e-25
-3.7714e-26
2.69414e-26
3.26831e-13
8.37348e-14
8.63906e-15
4.30446e-16
3.56007e-17
2.39698e-18
1.32424e-19
1.47697e-20
-1.31849e-22
1.9188e-22
-3.21156e-23
1.41805e-24
-2.89837e-24
-1.09726e-24
-7.11232e-25
-3.30623e-25
-1.41889e-25
-1.1081e-25
-5.11348e-27
-2.95628e-26
2.98037e-13
7.55418e-14
7.82652e-15
3.88313e-16
3.19048e-17
2.10296e-18
1.3704e-19
7.83177e-21
1.05308e-21
-6.75365e-23
1.76245e-23
-6.33581e-24
-1.14035e-24
-1.21304e-24
-5.7242e-25
-3.52422e-25
-1.51964e-25
-1.08504e-25
0
-3.45819e-26
2.59894e-13
6.51676e-14
6.84856e-15
3.30164e-16
2.82847e-17
1.77871e-18
1.15694e-19
8.78311e-21
3.40307e-22
7.57338e-23
-1.1168e-23
-3.20267e-26
-1.82215e-24
-7.44429e-25
-4.56659e-25
-2.39684e-25
-1.23379e-25
-8.57736e-26
-3.53764e-27
2.97762e-26
2.04277e-13
5.04094e-14
5.34945e-15
2.55577e-16
2.12873e-17
1.41954e-18
8.08147e-20
6.63391e-21
3.85717e-22
1.2631e-23
2.37583e-24
-2.43152e-24
-8.40567e-25
-6.88484e-25
-4.16293e-25
-1.45338e-25
-6.1315e-26
-2.76771e-26
-7.17911e-26
-4.87829e-27
1.43493e-13
3.44888e-14
3.7629e-15
1.7038e-16
1.50274e-17
8.92292e-19
6.25954e-20
3.37721e-21
3.64854e-22
2.1025e-24
-1.26691e-24
-1.24712e-24
-7.54441e-25
-5.08587e-25
-3.3623e-25
-2.1587e-25
-7.28824e-26
-6.1247e-26
5.32719e-26
-2.46923e-27
7.3485e-14
1.62415e-14
1.89701e-15
7.75553e-17
6.63474e-18
4.40021e-19
1.75719e-20
2.57361e-21
-5.0578e-23
2.5056e-23
-5.51699e-24
-5.62711e-25
-8.29644e-25
-3.94134e-25
-2.39064e-25
-1.32681e-25
-9.87611e-26
-3.33116e-26
1.20924e-26
7.23498e-27
1.02305e-15
-2.43986e-15
-1.27008e-17
-1.98163e-17
-1.2053e-18
-1.43811e-19
-6.24739e-21
-1.73222e-21
1.14933e-22
-4.03954e-23
4.36643e-24
-2.43911e-24
-3.67534e-25
-4.67915e-25
-2.34783e-25
-1.07663e-25
-5.29621e-26
-4.08267e-26
3.27136e-26
-2.01755e-26
-7.28494e-14
-2.13896e-14
-1.96815e-15
-1.16865e-16
-9.59218e-18
-6.36359e-19
-5.06176e-20
-2.16862e-21
-4.89525e-22
3.07656e-23
-1.24557e-23
9.86074e-25
-8.73032e-25
-2.7481e-25
-2.26845e-25
-1.15828e-25
-5.55136e-26
-4.92676e-27
-5.87532e-27
8.13316e-27
-1.4625e-13
-4.00549e-14
-3.91738e-15
-2.13006e-16
-1.7662e-17
-1.2065e-18
-7.34092e-20
-7.19805e-21
-1.25434e-22
-8.12287e-23
7.27182e-24
-2.79127e-24
-9.66358e-26
-3.35461e-25
-1.54745e-25
-9.922e-26
-6.41911e-26
-4.41506e-26
-1.22411e-26
7.15057e-27
-2.12354e-13
-5.67486e-14
-5.6573e-15
-2.98999e-16
-2.48336e-17
-1.62357e-18
-1.15056e-19
-6.37867e-21
-8.38114e-22
2.22618e-23
-1.515e-23
1.15874e-24
-6.96069e-25
-1.46192e-25
-1.26779e-25
-7.6905e-26
-5.5208e-26
-6.27967e-26
2.44864e-26
-4.00843e-28
-2.75933e-13
-7.27356e-14
-7.35456e-15
-3.82245e-16
-3.16106e-17
-2.1575e-18
-1.26355e-19
-1.22852e-20
-2.68206e-22
-1.18172e-22
9.5025e-24
-2.90065e-24
1.91842e-25
-2.02281e-25
-9.18755e-26
-7.93723e-26
-6.17475e-26
-2.48531e-26
3.76333e-26
-3.94347e-27
-3.21594e-13
-8.4104e-14
-8.56704e-15
-4.39196e-16
-3.66847e-17
-2.30845e-18
-1.69735e-19
-8.62827e-21
-1.1608e-21
2.22432e-23
-1.46646e-23
1.55905e-24
-5.35241e-25
-8.00602e-27
-8.30281e-26
-3.41356e-26
-3.01605e-26
-3.26051e-26
-2.58029e-26
-4.17554e-27
-3.56098e-13
-9.14479e-14
-9.50431e-15
-5.0537e-16
-3.97152e-17
-2.93928e-18
-1.63836e-19
-1.63927e-20
-4.84004e-22
-1.32843e-22
4.88389e-24
-2.14448e-24
1.63215e-25
-7.61462e-26
-1.93985e-26
-2.16833e-26
-3.84569e-27
-2.54329e-26
-1.78607e-26
-2.22537e-27
-3.85377e-13
-7.48507e-14
-7.52855e-15
-2.39175e-16
-1.91437e-17
-9.08861e-19
-5.53296e-20
-5.80588e-22
-4.30625e-22
4.02059e-23
-7.91357e-24
8.14618e-25
-1.33716e-25
1.08471e-26
-1.75834e-26
-3.82441e-27
-1.74384e-26
-3.3663e-26
2.40782e-26
-3.95735e-27
-2.00248e-13
-2.85108e-14
-2.57277e-15
2.35294e-17
1.62428e-18
6.88923e-19
3.26266e-20
8.55613e-21
-1.76775e-23
7.29788e-23
2.2242e-24
-1.05938e-24
3.42383e-25
-9.81755e-26
9.3663e-27
-1.78386e-26
-3.53776e-26
-3.88828e-26
-1.86882e-26
-1.93185e-26
)
;

boundaryField
{
    movingWall
    {
        type            calculated;
        value           nonuniform List<scalar> 
20
(
6.43616e-14
8.12177e-14
1.73276e-14
5.2346e-16
5.66223e-17
4.4018e-18
1.27397e-19
3.1115e-20
-4.02886e-22
2.3675e-22
-5.37776e-24
-6.50614e-25
5.35718e-25
-1.7771e-25
3.49685e-26
-2.59007e-26
-3.73794e-26
-3.98369e-26
-4.43762e-26
-2.10653e-26
)
;
    }
    fixedWalls
    {
        type            calculated;
        value           nonuniform List<scalar> 
60
(
5.07405e-13
8.0877e-13
1.07173e-12
1.57632e-12
1.69116e-12
1.71235e-12
1.56166e-12
1.36207e-12
1.07095e-12
7.52703e-13
3.85981e-13
6.24211e-15
-3.81115e-13
-7.6619e-13
-1.11321e-12
-1.44711e-12
-1.68708e-12
-1.8685e-12
-2.02249e-12
-1.05165e-12
0
-1.13344e-27
-2.60146e-28
-4.77993e-28
7.87082e-28
5.12717e-27
3.81419e-27
-1.22188e-26
0
0
-1.45985e-26
4.99751e-26
-3.9468e-26
-3.64711e-26
-6.56741e-28
-6.46099e-27
-6.84121e-27
-5.46907e-27
-6.48372e-27
-1.40791e-26
9.87916e-14
1.03651e-13
5.61543e-15
7.50884e-16
1.89494e-18
6.77947e-18
-4.7871e-19
1.08408e-19
-1.46345e-20
2.57289e-21
-4.1499e-22
7.03925e-23
-1.24466e-23
1.41295e-24
-6.19614e-25
-1.92794e-25
-2.87429e-25
-1.8815e-25
-8.01534e-26
0
)
;
    }
    frontAndBack
    {
        type            empty;
    }
}


// ************************************************************************* //
