/*--------------------------------*- C++ -*----------------------------------*\
| =========                 |                                                 |
| \\      /  F ield         | OpenFOAM: The Open Source CFD Toolbox           |
|  \\    /   O peration     | Version:  2312                                  |
|   \\  /    A nd           | Website:  www.openfoam.com                      |
|    \\/     M anipulation  |                                                 |
\*---------------------------------------------------------------------------*/
FoamFile
{
    version     2.0;
    format      ascii;
    arch        "LSB;label=32;scalar=64";
    class       surfaceScalarField;
    location    "4";
    object      surfaceP;
}
// * * * * * * * * * * * * * * * * * * * * * * * * * * * * * * * * * * * * * //

dimensions      [0 2 -2 0 0 0 0];

internalField   nonuniform List<scalar> 
760
(
0
7.11289e-12
4.57187e-12
0
6.02627e-12
7.31449e-12
3.61876e-12
2.72758e-12
3.87026e-12
4.06271e-12
3.45701e-12
3.36948e-12
3.43439e-12
3.45163e-12
3.35845e-12
3.3491e-12
3.33653e-12
3.33746e-12
3.31784e-12
3.3159e-12
3.30928e-12
3.30827e-12
3.3037e-12
3.30252e-12
3.30068e-12
3.29966e-12
3.29873e-12
3.29793e-12
3.2974e-12
3.29671e-12
3.29651e-12
3.29592e-12
3.2955e-12
3.29532e-12
3.29423e-12
3.2942e-12
3.29328e-12
3.29287e-12
3.29224e-12
7.11289e-12
7.11289e-12
2.74263e-12
1.10129e-11
4.0158e-12
2.81434e-12
3.17152e-12
3.18838e-12
3.56193e-12
3.25652e-12
3.3641e-12
3.30273e-12
3.36634e-12
3.31661e-12
3.32811e-12
3.30832e-12
3.31683e-12
3.30297e-12
3.30633e-12
3.29765e-12
3.30152e-12
3.29526e-12
3.29848e-12
3.29389e-12
3.29691e-12
3.29341e-12
3.29591e-12
3.29318e-12
3.29522e-12
3.29316e-12
3.29474e-12
3.29304e-12
3.29403e-12
3.29296e-12
3.29284e-12
3.29211e-12
3.29184e-12
3.29092e-12
3.29041e-12
1.10129e-11
1.47405e-11
1.10846e-11
1.10129e-11
1.98692e-12
2.63855e-12
3.27337e-12
2.07607e-12
2.99732e-12
3.14604e-12
3.25524e-12
3.11199e-12
3.25859e-12
3.22828e-12
3.28317e-12
3.24232e-12
3.28378e-12
3.26329e-12
3.28658e-12
3.27087e-12
3.28763e-12
3.27722e-12
3.28881e-12
3.281e-12
3.28968e-12
3.28393e-12
3.29044e-12
3.28597e-12
3.29098e-12
3.2876e-12
3.29126e-12
3.28852e-12
3.29104e-12
3.2891e-12
3.2902e-12
3.2887e-12
3.28949e-12
3.28789e-12
3.28762e-12
1.47405e-11
1.47405e-11
2.56683e-12
3.49289e-11
2.72769e-12
2.56683e-12
1.94873e-12
3.39187e-12
3.26071e-12
2.7906e-12
3.08504e-12
3.06919e-12
3.212e-12
3.12164e-12
3.22243e-12
3.19123e-12
3.25038e-12
3.22155e-12
3.26151e-12
3.24335e-12
3.27059e-12
3.25684e-12
3.27612e-12
3.26609e-12
3.28022e-12
3.27258e-12
3.28313e-12
3.27728e-12
3.28514e-12
3.28059e-12
3.28636e-12
3.28279e-12
3.28675e-12
3.28407e-12
3.2864e-12
3.2842e-12
3.28602e-12
3.28382e-12
3.28367e-12
3.49289e-11
2.18965e-11
3.49289e-11
3.49289e-11
3.23101e-12
2.35312e-12
4.23375e-12
3.23101e-12
2.59908e-12
2.95563e-12
3.10579e-12
2.9527e-12
3.10087e-12
3.09599e-12
3.19035e-12
3.1437e-12
3.21452e-12
3.19008e-12
3.23868e-12
3.21741e-12
3.25233e-12
3.23749e-12
3.26255e-12
3.251e-12
3.26964e-12
3.26077e-12
3.27474e-12
3.26779e-12
3.27825e-12
3.27277e-12
3.28051e-12
3.27618e-12
3.28152e-12
3.2782e-12
3.28162e-12
3.27891e-12
3.28147e-12
3.27888e-12
3.27885e-12
2.18965e-11
2.18965e-11
2.35312e-12
6.21677e-11
2.35312e-12
2.56679e-12
1.9529e-12
4.88213e-12
3.30925e-12
2.71342e-12
2.9429e-12
2.98596e-12
3.13882e-12
3.03647e-12
3.14342e-12
3.11989e-12
3.19297e-12
3.16336e-12
3.21622e-12
3.19741e-12
3.23615e-12
3.22041e-12
3.24922e-12
3.2373e-12
3.25892e-12
3.2495e-12
3.26582e-12
3.2583e-12
3.27071e-12
3.26475e-12
3.27387e-12
3.26901e-12
3.27559e-12
3.27168e-12
3.27618e-12
3.27305e-12
3.27626e-12
3.27339e-12
3.27342e-12
6.21677e-11
2.74984e-11
6.23814e-11
6.21677e-11
5.09579e-12
2.31755e-12
5.64265e-12
4.88213e-12
2.39013e-12
2.91607e-12
3.07954e-12
2.92338e-12
3.01754e-12
3.04824e-12
3.13983e-12
3.09919e-12
3.1678e-12
3.14876e-12
3.2016e-12
3.18205e-12
3.22157e-12
3.20723e-12
3.23758e-12
3.22576e-12
3.24887e-12
3.23952e-12
3.25722e-12
3.24937e-12
3.26305e-12
3.25677e-12
3.26682e-12
3.26186e-12
3.26914e-12
3.26502e-12
3.27027e-12
3.26676e-12
3.27055e-12
3.26749e-12
3.26758e-12
2.74984e-11
2.74984e-11
2.10388e-12
8.44259e-11
2.10388e-12
2.6892e-12
2.15555e-12
6.30263e-12
3.44932e-12
2.7759e-12
2.89208e-12
2.98477e-12
3.12989e-12
3.02627e-12
3.10812e-12
3.0978e-12
3.163e-12
3.13897e-12
3.18768e-12
3.17313e-12
3.21142e-12
3.19781e-12
3.2277e-12
3.21699e-12
3.24002e-12
3.23117e-12
3.24892e-12
3.24141e-12
3.25558e-12
3.24933e-12
3.26006e-12
3.255e-12
3.26263e-12
3.25854e-12
3.26398e-12
3.2605e-12
3.26452e-12
3.26147e-12
3.26169e-12
8.44259e-11
3.07099e-11
8.50112e-11
8.44259e-11
6.88795e-12
2.47941e-12
6.92297e-12
6.30263e-12
2.31135e-12
2.94838e-12
3.11896e-12
2.97194e-12
2.99417e-12
3.05614e-12
3.12865e-12
3.09922e-12
3.1491e-12
3.13939e-12
3.18326e-12
3.16892e-12
3.20338e-12
3.19237e-12
3.22046e-12
3.21082e-12
3.23256e-12
3.22459e-12
3.24182e-12
3.23489e-12
3.24875e-12
3.24286e-12
3.25349e-12
3.24861e-12
3.25641e-12
3.25232e-12
3.25799e-12
3.25438e-12
3.25863e-12
3.25559e-12
3.25601e-12
3.07099e-11
3.07099e-11
1.89409e-12
9.73554e-11
1.89409e-12
2.88893e-12
2.32803e-12
7.16461e-12
3.60897e-12
2.91912e-12
2.90912e-12
3.03626e-12
3.16119e-12
3.06661e-12
3.10995e-12
3.1136e-12
3.1592e-12
3.14442e-12
3.17803e-12
3.17044e-12
3.19981e-12
3.19067e-12
3.21494e-12
3.20725e-12
3.22692e-12
3.21991e-12
3.23593e-12
3.22987e-12
3.24272e-12
3.2374e-12
3.24744e-12
3.24287e-12
3.25029e-12
3.24645e-12
3.25198e-12
3.24851e-12
3.25296e-12
3.24992e-12
3.25063e-12
9.73554e-11
3.09247e-11
9.83502e-11
9.73554e-11
8.15945e-12
2.76097e-12
7.75569e-12
7.16461e-12
2.34641e-12
3.03355e-12
3.19375e-12
3.07301e-12
3.01903e-12
3.10387e-12
3.14806e-12
3.13244e-12
3.15565e-12
3.15619e-12
3.18307e-12
3.1762e-12
3.19811e-12
3.19265e-12
3.21221e-12
3.20637e-12
3.22286e-12
3.21733e-12
3.23134e-12
3.22616e-12
3.23755e-12
3.2329e-12
3.24188e-12
3.23782e-12
3.24467e-12
3.24128e-12
3.24644e-12
3.24337e-12
3.24758e-12
3.24475e-12
3.24556e-12
3.09247e-11
3.09247e-11
1.76613e-12
9.86306e-11
1.76613e-12
3.15113e-12
2.44247e-12
7.29445e-12
3.76015e-12
3.11908e-12
2.98313e-12
3.12664e-12
3.21728e-12
3.14325e-12
3.14057e-12
3.158e-12
3.17675e-12
3.17274e-12
3.18578e-12
3.1861e-12
3.20091e-12
3.19775e-12
3.21149e-12
3.20813e-12
3.22063e-12
3.21674e-12
3.22772e-12
3.22385e-12
3.23318e-12
3.22949e-12
3.23722e-12
3.23382e-12
3.23997e-12
3.23698e-12
3.24167e-12
3.23897e-12
3.24273e-12
3.2403e-12
3.24094e-12
9.86306e-11
2.80552e-11
1.00016e-10
9.86306e-11
8.67945e-12
3.13244e-12
7.97107e-12
7.29445e-12
2.48557e-12
3.1583e-12
3.28677e-12
3.20877e-12
3.08397e-12
3.18171e-12
3.19017e-12
3.19075e-12
3.18209e-12
3.19319e-12
3.19807e-12
3.19978e-12
3.20498e-12
3.20584e-12
3.21338e-12
3.21216e-12
3.21995e-12
3.218e-12
3.22562e-12
3.223e-12
3.23013e-12
3.22734e-12
3.23359e-12
3.23085e-12
3.23598e-12
3.2335e-12
3.2376e-12
3.23517e-12
3.2385e-12
3.23638e-12
3.23685e-12
2.80552e-11
2.80552e-11
1.74745e-12
8.76748e-11
1.74745e-12
3.44237e-12
2.48169e-12
6.65885e-12
3.8815e-12
3.35218e-12
3.10372e-12
3.24564e-12
3.2885e-12
3.24532e-12
3.19377e-12
3.22391e-12
3.21088e-12
3.21891e-12
3.20755e-12
3.21605e-12
3.21302e-12
3.2165e-12
3.21678e-12
3.21816e-12
3.22105e-12
3.22089e-12
3.22473e-12
3.22354e-12
3.22806e-12
3.22638e-12
3.23076e-12
3.22883e-12
3.23269e-12
3.23079e-12
3.23396e-12
3.23194e-12
3.23473e-12
3.2329e-12
3.23343e-12
8.76748e-11
2.24822e-11
8.93698e-11
8.76748e-11
8.35377e-12
3.53616e-12
7.52934e-12
6.65885e-12
2.71632e-12
3.3105e-12
3.38725e-12
3.36446e-12
3.18073e-12
3.28105e-12
3.24905e-12
3.26617e-12
3.22408e-12
3.24492e-12
3.22499e-12
3.23502e-12
3.22164e-12
3.22854e-12
3.22228e-12
3.2257e-12
3.22338e-12
3.2248e-12
3.2252e-12
3.22521e-12
3.22715e-12
3.22625e-12
3.22885e-12
3.22753e-12
3.23004e-12
3.22863e-12
3.23088e-12
3.22933e-12
3.23161e-12
3.23011e-12
3.23073e-12
2.24822e-11
2.24822e-11
1.84124e-12
6.58125e-11
1.84124e-12
3.75095e-12
2.44001e-12
5.37055e-12
3.95864e-12
3.60234e-12
3.25826e-12
3.38444e-12
3.36649e-12
3.36317e-12
3.26205e-12
3.30232e-12
3.25586e-12
3.27512e-12
3.23856e-12
3.25378e-12
3.23259e-12
3.24142e-12
3.22821e-12
3.23358e-12
3.22662e-12
3.22929e-12
3.22627e-12
3.22731e-12
3.22664e-12
3.22655e-12
3.22731e-12
3.22669e-12
3.22792e-12
3.22698e-12
3.22855e-12
3.22741e-12
3.22923e-12
3.22797e-12
3.22857e-12
6.58125e-11
1.48528e-11
6.77222e-11
6.58125e-11
7.28026e-12
3.98031e-12
6.53289e-12
5.37055e-12
3.02815e-12
3.5082e-12
3.48935e-12
3.52815e-12
3.299e-12
3.39608e-12
3.31539e-12
3.34742e-12
3.27304e-12
3.30103e-12
3.25664e-12
3.27283e-12
3.24241e-12
3.25351e-12
3.23466e-12
3.24112e-12
3.22998e-12
3.23379e-12
3.2276e-12
3.22947e-12
3.2266e-12
3.22721e-12
3.22636e-12
3.22641e-12
3.22647e-12
3.22601e-12
3.22683e-12
3.22603e-12
3.22731e-12
3.22626e-12
3.2268e-12
1.48528e-11
1.48528e-11
2.0706e-12
3.55777e-11
2.0706e-12
4.61575e-12
2.34587e-12
3.70052e-12
4.0082e-12
3.96322e-12
3.43488e-12
3.52584e-12
3.44451e-12
3.48935e-12
3.33306e-12
3.37653e-12
3.30082e-12
3.3286e-12
3.2697e-12
3.28858e-12
3.25222e-12
3.26454e-12
3.24025e-12
3.24782e-12
3.23328e-12
3.23785e-12
3.22909e-12
3.23157e-12
3.22702e-12
3.22813e-12
3.22607e-12
3.22647e-12
3.22558e-12
3.22548e-12
3.22546e-12
3.22505e-12
3.22575e-12
3.22525e-12
3.22566e-12
3.55777e-11
5.23356e-12
3.81229e-11
3.55777e-11
6.24567e-12
7.0933e-12
5.31787e-12
4.19298e-12
3.48086e-12
3.99776e-12
3.58031e-12
3.5805e-12
3.42137e-12
3.52492e-12
3.37206e-12
3.40441e-12
3.31636e-12
3.34768e-12
3.28342e-12
3.30095e-12
3.26014e-12
3.27261e-12
3.24543e-12
3.25297e-12
3.23614e-12
3.24087e-12
3.23061e-12
3.23327e-12
3.22758e-12
3.22904e-12
3.22588e-12
3.22657e-12
3.22495e-12
3.22513e-12
3.22485e-12
3.22452e-12
3.22516e-12
3.22493e-12
3.22526e-12
5.23356e-12
4.54814e-12
5.04061e-12
2.87288e-12
4.0974e-12
3.5251e-12
3.50796e-12
3.38002e-12
3.33227e-12
3.29013e-12
3.26543e-12
3.24841e-12
3.238e-12
3.23169e-12
3.22803e-12
3.22582e-12
3.2247e-12
3.22461e-12
3.22503e-12
)
;

boundaryField
{
    movingWall
    {
        type            calculated;
        value           nonuniform List<scalar> 
20
(
1.04671e-11
0
9.09629e-12
9.8493e-13
4.76082e-12
3.43398e-12
3.61622e-12
3.39969e-12
3.36035e-12
3.30418e-12
3.27609e-12
3.25477e-12
3.24205e-12
3.23394e-12
3.22944e-12
3.22661e-12
3.22503e-12
3.22437e-12
3.22484e-12
3.22521e-12
)
;
    }
    fixedWalls
    {
        type            calculated;
        value           nonuniform List<scalar> 
60
(
0
1.42258e-11
0
2.94809e-11
0
4.3793e-11
0
5.49968e-11
0
6.14197e-11
0
6.18495e-11
0
5.61104e-11
0
4.49643e-11
0
2.97056e-11
0
1.04671e-11
3.29298e-12
3.29151e-12
3.28932e-12
3.28592e-12
3.28142e-12
3.27628e-12
3.27056e-12
3.2646e-12
3.25877e-12
3.25325e-12
3.248e-12
3.24312e-12
3.23875e-12
3.23495e-12
3.23191e-12
3.22954e-12
3.2276e-12
3.22601e-12
3.2253e-12
3.22521e-12
0
0
9.14373e-12
2.9088e-12
4.32872e-12
3.4118e-12
3.50222e-12
3.36657e-12
3.35034e-12
3.32272e-12
3.31296e-12
3.30559e-12
3.3018e-12
3.29956e-12
3.29791e-12
3.2969e-12
3.29611e-12
3.29488e-12
3.29358e-12
3.29298e-12
)
;
    }
    frontAndBack
    {
        type            empty;
        value           nonuniform List<scalar> 0();
    }
}


// ************************************************************************* //
