/*--------------------------------*- C++ -*----------------------------------*\
| =========                 |                                                 |
| \\      /  F ield         | OpenFOAM: The Open Source CFD Toolbox           |
|  \\    /   O peration     | Version:  2312                                  |
|   \\  /    A nd           | Website:  www.openfoam.com                      |
|    \\/     M anipulation  |                                                 |
\*---------------------------------------------------------------------------*/
FoamFile
{
    version     2.0;
    format      ascii;
    arch        "LSB;label=32;scalar=64";
    class       surfaceVectorField;
    location    "4";
    object      surfaceU;
}
// * * * * * * * * * * * * * * * * * * * * * * * * * * * * * * * * * * * * * //

dimensions      [0 1 -1 0 0 0 0];

internalField   nonuniform List<vector> 
760
(
(-1 2.3631e-08 0)
(-1 8.51786e-12 0)
(-1 -5.60301e-09 0)
(-1 -3.30579e-12 0)
(-1 1.33111e-09 0)
(-1 5.19808e-12 0)
(-1 -3.15341e-10 0)
(-1 -6.59458e-13 0)
(-1 7.51011e-11 0)
(-1 9.66017e-13 0)
(-1 -1.76906e-11 0)
(-1 1.48996e-14 0)
(-1 4.2746e-12 0)
(-1 1.85606e-13 0)
(-1 -9.70131e-13 0)
(-1 5.112e-14 0)
(-1 2.58448e-13 0)
(-1 5.33371e-14 0)
(-1 -4.27122e-14 0)
(-1 2.91208e-14 0)
(-1 2.3004e-14 0)
(-1 2.22955e-14 0)
(-1 3.66473e-15 0)
(-1 1.52409e-14 0)
(-1 5.7569e-15 0)
(-1 1.12984e-14 0)
(-1 3.46405e-15 0)
(-1 8.2753e-15 0)
(-1 2.67998e-15 0)
(-1 6.0429e-15 0)
(-1 1.95272e-15 0)
(-1 4.45284e-15 0)
(-1 1.4805e-15 0)
(-1 3.37315e-15 0)
(-1 1.04209e-15 0)
(-1 2.5898e-15 0)
(-1 4.34042e-16 0)
(-1 1.47262e-15 0)
(-1 2.83373e-17 0)
(-1 -2.36258e-08 0)
(-1 -3.07977e-11 0)
(-1 5.6049e-09 0)
(-1 1.64556e-11 0)
(-1 -1.32658e-09 0)
(-1 -1.2342e-12 0)
(-1 3.15647e-10 0)
(-1 1.75104e-12 0)
(-1 -7.41202e-11 0)
(-1 4.02292e-13 0)
(-1 1.78911e-11 0)
(-1 3.30914e-13 0)
(-1 -4.03787e-12 0)
(-1 1.97114e-13 0)
(-1 1.07459e-12 0)
(-1 1.20851e-13 0)
(-1 -1.75991e-13 0)
(-1 8.40328e-14 0)
(-1 9.41284e-14 0)
(-1 5.60057e-14 0)
(-1 1.45324e-14 0)
(-1 4.01674e-14 0)
(-1 2.28745e-14 0)
(-1 2.88073e-14 0)
(-1 1.38168e-14 0)
(-1 2.13395e-14 0)
(-1 1.08542e-14 0)
(-1 1.58055e-14 0)
(-1 7.81575e-15 0)
(-1 1.16867e-14 0)
(-1 5.87326e-15 0)
(-1 8.64566e-15 0)
(-1 4.48244e-15 0)
(-1 6.54863e-15 0)
(-1 3.02033e-15 0)
(-1 5.01841e-15 0)
(-1 1.06692e-15 0)
(-1 2.69753e-15 0)
(-1 -2.324e-17 0)
(-1 2.36114e-08 0)
(-1 1.75971e-11 0)
(-1 -5.58968e-09 0)
(-1 -1.04522e-11 0)
(-1 1.32709e-09 0)
(-1 3.74177e-12 0)
(-1 -3.13494e-10 0)
(-1 -4.76901e-13 0)
(-1 7.48534e-11 0)
(-1 7.87013e-13 0)
(-1 -1.73631e-11 0)
(-1 2.15206e-13 0)
(-1 4.35584e-12 0)
(-1 2.42221e-13 0)
(-1 -8.69704e-13 0)
(-1 1.36801e-13 0)
(-1 3.16029e-13 0)
(-1 1.04183e-13 0)
(-1 2.04467e-15 0)
(-1 7.16228e-14 0)
(-1 5.44423e-14 0)
(-1 5.27168e-14 0)
(-1 2.72722e-14 0)
(-1 3.87178e-14 0)
(-1 2.33282e-14 0)
(-1 2.91027e-14 0)
(-1 1.66381e-14 0)
(-1 2.17547e-14 0)
(-1 1.25166e-14 0)
(-1 1.62584e-14 0)
(-1 9.32103e-15 0)
(-1 1.20924e-14 0)
(-1 7.08459e-15 0)
(-1 9.24661e-15 0)
(-1 4.69561e-15 0)
(-1 7.12058e-15 0)
(-1 1.60737e-15 0)
(-1 3.81378e-15 0)
(-1 -3.78849e-17 0)
(-1 -2.36043e-08 0)
(-1 -1.31519e-11 0)
(-1 5.58297e-09 0)
(-1 6.16272e-12 0)
(-1 -1.32383e-09 0)
(-1 -1.08655e-12 0)
(-1 3.13804e-10 0)
(-1 8.62181e-13 0)
(-1 -7.38512e-11 0)
(-1 1.93299e-13 0)
(-1 1.78205e-11 0)
(-1 2.84853e-13 0)
(-1 -3.97682e-12 0)
(-1 1.82459e-13 0)
(-1 1.11069e-12 0)
(-1 1.43832e-13 0)
(-1 -1.40223e-13 0)
(-1 1.04739e-13 0)
(-1 1.22295e-13 0)
(-1 7.84044e-14 0)
(-1 3.69923e-14 0)
(-1 5.87956e-14 0)
(-1 4.05482e-14 0)
(-1 4.45078e-14 0)
(-1 2.75292e-14 0)
(-1 3.39342e-14 0)
(-1 2.1375e-14 0)
(-1 2.56902e-14 0)
(-1 1.58341e-14 0)
(-1 1.94295e-14 0)
(-1 1.2018e-14 0)
(-1 1.4619e-14 0)
(-1 9.2826e-15 0)
(-1 1.13484e-14 0)
(-1 6.23876e-15 0)
(-1 8.86652e-15 0)
(-1 2.16853e-15 0)
(-1 4.77573e-15 0)
(-1 -4.12691e-17 0)
(-1 2.35973e-08 0)
(-1 -1.30244e-13 0)
(-1 -5.5779e-09 0)
(-1 -8.12269e-13 0)
(-1 1.3236e-09 0)
(-1 4.59415e-13 0)
(-1 -3.12749e-10 0)
(-1 9.13029e-14 0)
(-1 7.43293e-11 0)
(-1 2.53177e-13 0)
(-1 -1.73532e-11 0)
(-1 1.78999e-13 0)
(-1 4.30311e-12 0)
(-1 1.60317e-13 0)
(-1 -8.62116e-13 0)
(-1 1.24357e-13 0)
(-1 3.23367e-13 0)
(-1 9.85394e-14 0)
(-1 1.49051e-14 0)
(-1 7.64646e-14 0)
(-1 6.6311e-14 0)
(-1 5.95738e-14 0)
(-1 3.78938e-14 0)
(-1 4.62357e-14 0)
(-1 3.20953e-14 0)
(-1 3.59369e-14 0)
(-1 2.37447e-14 0)
(-1 2.76994e-14 0)
(-1 1.82144e-14 0)
(-1 2.12526e-14 0)
(-1 1.39494e-14 0)
(-1 1.62525e-14 0)
(-1 1.09323e-14 0)
(-1 1.28173e-14 0)
(-1 7.4035e-15 0)
(-1 1.01637e-14 0)
(-1 2.56594e-15 0)
(-1 5.48221e-15 0)
(-1 -1.22295e-16 0)
(-1 -2.35982e-08 0)
(-1 1.07655e-11 0)
(-1 5.57754e-09 0)
(-1 -3.77176e-12 0)
(-1 -1.32305e-09 0)
(-1 1.03146e-12 0)
(-1 3.13093e-10 0)
(-1 -1.50095e-13 0)
(-1 -7.38972e-11 0)
(-1 2.28224e-13 0)
(-1 1.76925e-11 0)
(-1 1.15303e-13 0)
(-1 -4.01843e-12 0)
(-1 1.29865e-13 0)
(-1 1.08501e-12 0)
(-1 1.02312e-13 0)
(-1 -1.48363e-13 0)
(-1 8.66955e-14 0)
(-1 1.21133e-13 0)
(-1 6.97171e-14 0)
(-1 3.94984e-14 0)
(-1 5.62398e-14 0)
(-1 4.42788e-14 0)
(-1 4.48047e-14 0)
(-1 3.15409e-14 0)
(-1 3.56018e-14 0)
(-1 2.52073e-14 0)
(-1 2.79687e-14 0)
(-1 1.92908e-14 0)
(-1 2.17707e-14 0)
(-1 1.51204e-14 0)
(-1 1.69034e-14 0)
(-1 1.20486e-14 0)
(-1 1.35959e-14 0)
(-1 8.24238e-15 0)
(-1 1.1033e-14 0)
(-1 2.79398e-15 0)
(-1 5.95385e-15 0)
(-1 -2.56879e-16 0)
(-1 2.36052e-08 0)
(-1 -2.42873e-11 0)
(-1 -5.58028e-09 0)
(-1 7.73317e-12 0)
(-1 1.32393e-09 0)
(-1 -1.84384e-12 0)
(-1 -3.13015e-10 0)
(-1 6.19342e-13 0)
(-1 7.42407e-11 0)
(-1 -5.66372e-14 0)
(-1 -1.74474e-11 0)
(-1 1.37324e-13 0)
(-1 4.25061e-12 0)
(-1 8.17733e-14 0)
(-1 -8.96006e-13 0)
(-1 8.65109e-14 0)
(-1 3.04776e-13 0)
(-1 7.13251e-14 0)
(-1 4.82358e-15 0)
(-1 6.10427e-14 0)
(-1 6.15461e-14 0)
(-1 5.02941e-14 0)
(-1 3.61278e-14 0)
(-1 4.12437e-14 0)
(-1 3.20296e-14 0)
(-1 3.35831e-14 0)
(-1 2.45321e-14 0)
(-1 2.69121e-14 0)
(-1 1.93833e-14 0)
(-1 2.12473e-14 0)
(-1 1.5379e-14 0)
(-1 1.66683e-14 0)
(-1 1.25803e-14 0)
(-1 1.36187e-14 0)
(-1 8.74444e-15 0)
(-1 1.13117e-14 0)
(-1 2.90299e-15 0)
(-1 6.09732e-15 0)
(-1 -4.47965e-16 0)
(-1 -2.36218e-08 0)
(-1 3.50986e-11 0)
(-1 5.58617e-09 0)
(-1 -1.14954e-11 0)
(-1 -1.32516e-09 0)
(-1 2.81193e-12 0)
(-1 3.13578e-10 0)
(-1 -7.9796e-13 0)
(-1 -7.416e-11 0)
(-1 2.88742e-13 0)
(-1 1.76665e-11 0)
(-1 6.43597e-15 0)
(-1 -4.08233e-12 0)
(-1 8.64437e-14 0)
(-1 1.05384e-12 0)
(-1 6.00069e-14 0)
(-1 -1.72408e-13 0)
(-1 5.97274e-14 0)
(-1 1.06513e-13 0)
(-1 5.06112e-14 0)
(-1 2.99917e-14 0)
(-1 4.35649e-14 0)
(-1 3.8699e-14 0)
(-1 3.64507e-14 0)
(-1 2.84656e-14 0)
(-1 3.04836e-14 0)
(-1 2.36273e-14 0)
(-1 2.48842e-14 0)
(-1 1.85322e-14 0)
(-1 1.99565e-14 0)
(-1 1.4908e-14 0)
(-1 1.57987e-14 0)
(-1 1.23502e-14 0)
(-1 1.30445e-14 0)
(-1 8.66462e-15 0)
(-1 1.10417e-14 0)
(-1 2.74637e-15 0)
(-1 5.87979e-15 0)
(-1 -7.27239e-16 0)
(-1 2.36454e-08 0)
(-1 -4.60123e-11 0)
(-1 -5.59486e-09 0)
(-1 1.43961e-11 0)
(-1 1.32717e-09 0)
(-1 -3.49823e-12 0)
(-1 -3.14087e-10 0)
(-1 1.04572e-12 0)
(-1 7.44552e-11 0)
(-1 -2.37593e-13 0)
(-1 -1.75736e-11 0)
(-1 1.19148e-13 0)
(-1 4.22878e-12 0)
(-1 2.91741e-14 0)
(-1 -9.34108e-13 0)
(-1 5.45043e-14 0)
(-1 2.82746e-13 0)
(-1 4.42805e-14 0)
(-1 -1.23371e-14 0)
(-1 4.1718e-14 0)
(-1 5.00239e-14 0)
(-1 3.61426e-14 0)
(-1 2.82353e-14 0)
(-1 3.13287e-14 0)
(-1 2.69022e-14 0)
(-1 2.66627e-14 0)
(-1 2.12134e-14 0)
(-1 2.20922e-14 0)
(-1 1.7223e-14 0)
(-1 1.80213e-14 0)
(-1 1.39352e-14 0)
(-1 1.45023e-14 0)
(-1 1.1736e-14 0)
(-1 1.21805e-14 0)
(-1 8.25688e-15 0)
(-1 1.04996e-14 0)
(-1 2.40619e-15 0)
(-1 5.49436e-15 0)
(-1 -1.0272e-15 0)
(-1 -2.3677e-08 0)
(-1 5.41861e-11 0)
(-1 5.60575e-09 0)
(-1 -1.69942e-11 0)
(-1 -1.32962e-09 0)
(-1 4.11861e-12 0)
(-1 3.14895e-10 0)
(-1 -1.19974e-12 0)
(-1 -7.45736e-11 0)
(-1 3.47796e-13 0)
(-1 1.77219e-11 0)
(-1 -5.5137e-14 0)
(-1 -4.1451e-12 0)
(-1 5.91181e-14 0)
(-1 1.03289e-12 0)
(-1 2.9254e-14 0)
(-1 -1.96748e-13 0)
(-1 3.63813e-14 0)
(-1 9.01978e-14 0)
(-1 3.1734e-14 0)
(-1 1.74474e-14 0)
(-1 2.93132e-14 0)
(-1 2.97562e-14 0)
(-1 2.59322e-14 0)
(-1 2.18527e-14 0)
(-1 2.26737e-14 0)
(-1 1.89001e-14 0)
(-1 1.90481e-14 0)
(-1 1.53007e-14 0)
(-1 1.57196e-14 0)
(-1 1.27476e-14 0)
(-1 1.28688e-14 0)
(-1 1.0944e-14 0)
(-1 1.10328e-14 0)
(-1 7.73707e-15 0)
(-1 9.68557e-15 0)
(-1 2.06098e-15 0)
(-1 4.98595e-15 0)
(-1 -1.25495e-15 0)
(-1 2.37142e-08 0)
(-1 -6.10914e-11 0)
(-1 -5.61863e-09 0)
(-1 1.88142e-11 0)
(-1 1.33254e-09 0)
(-1 -4.55914e-12 0)
(-1 -3.15747e-10 0)
(-1 1.33224e-12 0)
(-1 7.48663e-11 0)
(-1 -3.38487e-13 0)
(-1 -1.77179e-11 0)
(-1 1.12336e-13 0)
(-1 4.23347e-12 0)
(-1 -3.27503e-15 0)
(-1 -9.67257e-13 0)
(-1 3.13375e-14 0)
(-1 2.64863e-13 0)
(-1 2.29357e-14 0)
(-1 -2.91506e-14 0)
(-1 2.45507e-14 0)
(-1 3.7798e-14 0)
(-1 2.24046e-14 0)
(-1 1.88496e-14 0)
(-1 2.07148e-14 0)
(-1 1.98691e-14 0)
(-1 1.86188e-14 0)
(-1 1.58676e-14 0)
(-1 1.59671e-14 0)
(-1 1.32878e-14 0)
(-1 1.32773e-14 0)
(-1 1.11541e-14 0)
(-1 1.09861e-14 0)
(-1 9.77433e-15 0)
(-1 9.6314e-15 0)
(-1 6.93444e-15 0)
(-1 8.66142e-15 0)
(-1 1.67002e-15 0)
(-1 4.37919e-15 0)
(-1 -1.42265e-15 0)
(-1 -2.37565e-08 0)
(-1 6.48848e-11 0)
(-1 5.63289e-09 0)
(-1 -1.98183e-11 0)
(-1 -1.33577e-09 0)
(-1 4.80804e-12 0)
(-1 3.16741e-10 0)
(-1 -1.38189e-12 0)
(-1 -7.50924e-11 0)
(-1 3.74562e-13 0)
(-1 1.7827e-11 0)
(-1 -8.69944e-14 0)
(-1 -4.20541e-12 0)
(-1 3.93423e-14 0)
(-1 1.02153e-12 0)
(-1 7.56657e-15 0)
(-1 -2.17377e-13 0)
(-1 1.80252e-14 0)
(-1 7.61059e-14 0)
(-1 1.59946e-14 0)
(-1 5.32139e-15 0)
(-1 1.63608e-14 0)
(-1 2.04839e-14 0)
(-1 1.54454e-14 0)
(-1 1.47168e-14 0)
(-1 1.44173e-14 0)
(-1 1.33767e-14 0)
(-1 1.26473e-14 0)
(-1 1.09756e-14 0)
(-1 1.07516e-14 0)
(-1 9.46346e-15 0)
(-1 9.10942e-15 0)
(-1 8.5185e-15 0)
(-1 8.29206e-15 0)
(-1 6.10617e-15 0)
(-1 7.72002e-15 0)
(-1 1.28652e-15 0)
(-1 3.77841e-15 0)
(-1 -1.5605e-15 0)
(-1 2.38015e-08 0)
(-1 -6.66833e-11 0)
(-1 -5.6479e-09 0)
(-1 2.03118e-11 0)
(-1 1.3392e-09 0)
(-1 -4.91484e-12 0)
(-1 -3.17748e-10 0)
(-1 1.41361e-12 0)
(-1 7.538e-11 0)
(-1 -3.77133e-13 0)
(-1 -1.78746e-11 0)
(-1 9.7994e-14 0)
(-1 4.25232e-12 0)
(-1 -2.49154e-14 0)
(-1 -9.95939e-13 0)
(-1 1.27806e-14 0)
(-1 2.51397e-13 0)
(-1 6.08197e-15 0)
(-1 -4.37505e-14 0)
(-1 1.02136e-14 0)
(-1 2.64848e-14 0)
(-1 1.03274e-14 0)
(-1 9.37881e-15 0)
(-1 1.07706e-14 0)
(-1 1.23478e-14 0)
(-1 1.04387e-14 0)
(-1 1.00222e-14 0)
(-1 9.53119e-15 0)
(-1 8.88543e-15 0)
(-1 8.36975e-15 0)
(-1 7.93803e-15 0)
(-1 7.32888e-15 0)
(-1 7.49358e-15 0)
(-1 7.01201e-15 0)
(-1 5.39226e-15 0)
(-1 6.81842e-15 0)
(-1 9.31391e-16 0)
(-1 3.23651e-15 0)
(-1 -1.68133e-15 0)
(-1 -2.38479e-08 0)
(-1 6.51136e-11 0)
(-1 5.66329e-09 0)
(-1 -1.94412e-11 0)
(-1 -1.3427e-09 0)
(-1 4.71342e-12 0)
(-1 3.18784e-10 0)
(-1 -1.34128e-12 0)
(-1 -7.56592e-11 0)
(-1 3.37334e-13 0)
(-1 1.79477e-11 0)
(-1 -1.0328e-13 0)
(-1 -4.26445e-12 0)
(-1 1.71876e-14 0)
(-1 1.0148e-12 0)
(-1 -9.71073e-15 0)
(-1 -2.35101e-13 0)
(-1 2.46117e-15 0)
(-1 6.42915e-14 0)
(-1 3.1956e-15 0)
(-1 -5.38685e-15 0)
(-1 5.69862e-15 0)
(-1 1.18305e-14 0)
(-1 6.6427e-15 0)
(-1 7.62206e-15 0)
(-1 7.22031e-15 0)
(-1 7.87876e-15 0)
(-1 6.89649e-15 0)
(-1 6.81321e-15 0)
(-1 6.32465e-15 0)
(-1 6.40286e-15 0)
(-1 5.66499e-15 0)
(-1 6.33684e-15 0)
(-1 5.70366e-15 0)
(-1 4.66267e-15 0)
(-1 5.80038e-15 0)
(-1 6.23793e-16 0)
(-1 2.67199e-15 0)
(-1 -1.75279e-15 0)
(-1 2.38936e-08 0)
(-1 -6.11993e-11 0)
(-1 -5.67802e-09 0)
(-1 1.83998e-11 0)
(-1 1.34607e-09 0)
(-1 -4.4952e-12 0)
(-1 -3.19788e-10 0)
(-1 1.2324e-12 0)
(-1 7.58932e-11 0)
(-1 -3.70249e-13 0)
(-1 -1.80338e-11 0)
(-1 6.11647e-14 0)
(-1 4.27193e-12 0)
(-1 -4.34981e-14 0)
(-1 -1.02205e-12 0)
(-1 -5.02772e-15 0)
(-1 2.40758e-13 0)
(-1 -7.39591e-15 0)
(-1 -5.53973e-14 0)
(-1 -8.36162e-16 0)
(-1 1.77282e-14 0)
(-1 1.40769e-15 0)
(-1 2.03252e-15 0)
(-1 3.40734e-15 0)
(-1 6.49474e-15 0)
(-1 4.51288e-15 0)
(-1 5.34238e-15 0)
(-1 4.6377e-15 0)
(-1 5.17643e-15 0)
(-1 4.50015e-15 0)
(-1 4.96578e-15 0)
(-1 4.18315e-15 0)
(-1 5.16719e-15 0)
(-1 4.43065e-15 0)
(-1 3.8097e-15 0)
(-1 4.64198e-15 0)
(-1 2.95407e-16 0)
(-1 2.04408e-15 0)
(-1 -1.67884e-15 0)
(-1 -2.39364e-08 0)
(-1 5.46434e-11 0)
(-1 5.69193e-09 0)
(-1 -1.58554e-11 0)
(-1 -1.34933e-09 0)
(-1 3.74231e-12 0)
(-1 3.20651e-10 0)
(-1 -1.10422e-12 0)
(-1 -7.62023e-11 0)
(-1 2.04434e-13 0)
(-1 1.80515e-11 0)
(-1 -1.11703e-13 0)
(-1 -4.32045e-12 0)
(-1 -1.26646e-14 0)
(-1 1.00963e-12 0)
(-1 -2.3018e-14 0)
(-1 -2.4899e-13 0)
(-1 -9.57628e-15 0)
(-1 5.59688e-14 0)
(-1 -5.34666e-15 0)
(-1 -1.29131e-14 0)
(-1 -1.45025e-15 0)
(-1 5.8877e-15 0)
(-1 9.0354e-16 0)
(-1 2.65583e-15 0)
(-1 2.33133e-15 0)
(-1 3.79547e-15 0)
(-1 2.81934e-15 0)
(-1 3.50687e-15 0)
(-1 2.89541e-15 0)
(-1 3.64801e-15 0)
(-1 2.81779e-15 0)
(-1 3.90544e-15 0)
(-1 3.19992e-15 0)
(-1 2.87636e-15 0)
(-1 3.55437e-15 0)
(-1 6.98253e-17 0)
(-1 1.55158e-15 0)
(-1 -1.43636e-15 0)
(-1 2.39752e-08 0)
(-1 -4.50658e-11 0)
(-1 -5.70404e-09 0)
(-1 1.3122e-11 0)
(-1 1.35197e-09 0)
(-1 -3.67695e-12 0)
(-1 -3.2155e-10 0)
(-1 8.00577e-13 0)
(-1 7.6295e-11 0)
(-1 -3.75656e-13 0)
(-1 -1.81758e-11 0)
(-1 1.84694e-14 0)
(-1 4.28477e-12 0)
(-1 -6.01241e-14 0)
(-1 -1.04222e-12 0)
(-1 -1.55554e-14 0)
(-1 2.34067e-13 0)
(-1 -1.51802e-14 0)
(-1 -6.27657e-14 0)
(-1 -6.46743e-15 0)
(-1 1.23664e-14 0)
(-1 -3.40678e-15 0)
(-1 -2.65283e-15 0)
(-1 -5.3379e-16 0)
(-1 2.49483e-15 0)
(-1 8.9669e-16 0)
(-1 1.91928e-15 0)
(-1 1.60309e-15 0)
(-1 2.20633e-15 0)
(-1 1.76261e-15 0)
(-1 2.36969e-15 0)
(-1 1.84998e-15 0)
(-1 2.84885e-15 0)
(-1 2.27885e-15 0)
(-1 2.22959e-15 0)
(-1 2.69514e-15 0)
(-1 4.53898e-17 0)
(-1 1.16018e-15 0)
(-1 -1.17961e-15 0)
(-1 -2.40071e-08 0)
(-1 3.6953e-11 0)
(-1 5.71348e-09 0)
(-1 -1.08325e-11 0)
(-1 -1.35485e-09 0)
(-1 1.41398e-12 0)
(-1 3.21975e-10 0)
(-1 -3.61414e-13 0)
(-1 -7.66522e-11 0)
(-1 -1.24649e-13 0)
(-1 1.81342e-11 0)
(-1 -1.97485e-14 0)
(-1 -4.36045e-12 0)
(-1 -5.30479e-14 0)
(-1 1.01149e-12 0)
(-1 -1.27708e-14 0)
(-1 -2.55714e-13 0)
(-1 -1.43135e-14 0)
(-1 5.28915e-14 0)
(-1 -5.41434e-15 0)
(-1 -1.6307e-14 0)
(-1 -3.4311e-15 0)
(-1 3.01573e-15 0)
(-1 -9.68631e-16 0)
(-1 4.94477e-18 0)
(-1 1.89027e-16 0)
(-1 1.44641e-15 0)
(-1 8.11841e-16 0)
(-1 1.40626e-15 0)
(-1 1.00677e-15 0)
(-1 1.75914e-15 0)
(-1 1.19117e-15 0)
(-1 2.12515e-15 0)
(-1 1.55814e-15 0)
(-1 1.62574e-15 0)
(-1 1.91322e-15 0)
(-1 -6.48181e-17 0)
(-1 7.59145e-16 0)
(-1 -9.74359e-16 0)
(-1 2.40332e-08 0)
(-1 -3.06132e-11 0)
(-1 -5.7229e-09 0)
(-1 2.01058e-11 0)
(-1 1.3559e-09 0)
(-1 -7.11073e-12 0)
(-1 -3.22461e-10 0)
(-1 2.4769e-12 0)
(-1 7.65078e-11 0)
(-1 -9.70599e-13 0)
(-1 -1.8207e-11 0)
(-1 2.50125e-13 0)
(-1 4.29463e-12 0)
(-1 -1.15252e-13 0)
(-1 -1.03857e-12 0)
(-1 1.73067e-14 0)
(-1 2.35987e-13 0)
(-1 -1.54109e-14 0)
(-1 -6.17369e-14 0)
(-1 -8.07952e-16 0)
(-1 1.19073e-14 0)
(-1 -2.55861e-15 0)
(-1 -3.79533e-15 0)
(-1 -5.18261e-16 0)
(-1 9.95923e-16 0)
(-1 -1.65915e-16 0)
(-1 3.72199e-16 0)
(-1 2.53002e-16 0)
(-1 7.9168e-16 0)
(-1 3.58059e-16 0)
(-1 9.90168e-16 0)
(-1 4.85686e-16 0)
(-1 1.34622e-15 0)
(-1 7.23237e-16 0)
(-1 1.04663e-15 0)
(-1 1.02466e-15 0)
(-1 -1.50395e-16 0)
(-1 4.12703e-16 0)
(-1 -6.09358e-16 0)
(-1 -2.40437e-08 0)
(-1 5.7359e-09 0)
(-1 -1.36053e-09 0)
(-1 3.23968e-10 0)
(-1 -7.72283e-11 0)
(-1 1.83419e-11 0)
(-1 -4.39258e-12 0)
(-1 1.04047e-12 0)
(-1 -2.52205e-13 0)
(-1 5.83704e-14 0)
(-1 -1.49841e-14 0)
(-1 3.11116e-15 0)
(-1 -9.08837e-16 0)
(-1 2.38862e-16 0)
(-1 5.20653e-17 0)
(-1 2.18755e-16 0)
(-1 4.01676e-16 0)
(-1 3.90734e-16 0)
(-1 -4.62596e-17 0)
)
;

boundaryField
{
    movingWall
    {
        type            calculated;
        value           uniform (-1 -0 -0);
    }
    fixedWalls
    {
        type            calculated;
        value           uniform (-1 -0 -0);
    }
    frontAndBack
    {
        type            empty;
        value           nonuniform List<vector> 0();
    }
}


// ************************************************************************* //
