/*--------------------------------*- C++ -*----------------------------------*\
| =========                 |                                                 |
| \\      /  F ield         | OpenFOAM: The Open Source CFD Toolbox           |
|  \\    /   O peration     | Version:  2312                                  |
|   \\  /    A nd           | Website:  www.openfoam.com                      |
|    \\/     M anipulation  |                                                 |
\*---------------------------------------------------------------------------*/
FoamFile
{
    version     2.0;
    format      ascii;
    arch        "LSB;label=32;scalar=64";
    class       surfaceScalarField;
    location    "4";
    object      surfaceK;
}
// * * * * * * * * * * * * * * * * * * * * * * * * * * * * * * * * * * * * * //

dimensions      [0 2 -2 0 0 0 0];

internalField   nonuniform List<scalar> 
760
(
2.72864e-05
3.01228e-05
2.72862e-05
3.01228e-05
2.72861e-05
3.01183e-05
2.72859e-05
3.01168e-05
2.72858e-05
3.01138e-05
2.72857e-05
3.01122e-05
2.72856e-05
3.01098e-05
2.72855e-05
3.01084e-05
2.72854e-05
3.01065e-05
2.72853e-05
3.01051e-05
2.72852e-05
3.01036e-05
2.72852e-05
3.01025e-05
2.72851e-05
3.01015e-05
2.72851e-05
3.01004e-05
2.72851e-05
3.00999e-05
2.72851e-05
3.00991e-05
2.72851e-05
3.00988e-05
2.7285e-05
3.00984e-05
2.7285e-05
3.00983e-05
3.00982e-05
3.29592e-05
3.65229e-05
3.29548e-05
3.65229e-05
3.2949e-05
3.6512e-05
3.29447e-05
3.65084e-05
3.29403e-05
3.65012e-05
3.29364e-05
3.64974e-05
3.29326e-05
3.64916e-05
3.29294e-05
3.6488e-05
3.29262e-05
3.64837e-05
3.29234e-05
3.64801e-05
3.29209e-05
3.64768e-05
3.29188e-05
3.64738e-05
3.29167e-05
3.64714e-05
3.29152e-05
3.64689e-05
3.29139e-05
3.64676e-05
3.29128e-05
3.64656e-05
3.29121e-05
3.64649e-05
3.29116e-05
3.6464e-05
3.29114e-05
3.64637e-05
3.64634e-05
4.00867e-05
4.28794e-05
4.00801e-05
4.28789e-05
4.00714e-05
4.28648e-05
4.0065e-05
4.2859e-05
4.00584e-05
4.28496e-05
4.00527e-05
4.2844e-05
4.0047e-05
4.28362e-05
4.00424e-05
4.28312e-05
4.00376e-05
4.28249e-05
4.00335e-05
4.28205e-05
4.00298e-05
4.28155e-05
4.00265e-05
4.28118e-05
4.00236e-05
4.2808e-05
4.00213e-05
4.28051e-05
4.00193e-05
4.28027e-05
4.00178e-05
4.28005e-05
4.00168e-05
4.27991e-05
4.0016e-05
4.2798e-05
4.00157e-05
4.27975e-05
4.27973e-05
4.56716e-05
4.74494e-05
4.56636e-05
4.74487e-05
4.56524e-05
4.74315e-05
4.56436e-05
4.74242e-05
4.56352e-05
4.74125e-05
4.56275e-05
4.74059e-05
4.56204e-05
4.73959e-05
4.56138e-05
4.73902e-05
4.56078e-05
4.7382e-05
4.56024e-05
4.73769e-05
4.55974e-05
4.73704e-05
4.55932e-05
4.73662e-05
4.55894e-05
4.73612e-05
4.55864e-05
4.7358e-05
4.55838e-05
4.73545e-05
4.55818e-05
4.73524e-05
4.55804e-05
4.73503e-05
4.55795e-05
4.73492e-05
4.5579e-05
4.73484e-05
4.73481e-05
4.92265e-05
5.02533e-05
4.92166e-05
5.02525e-05
4.92034e-05
5.02331e-05
4.91931e-05
5.02249e-05
4.91832e-05
5.02116e-05
4.91743e-05
5.02043e-05
4.91657e-05
5.01929e-05
4.91584e-05
5.01866e-05
4.91511e-05
5.01771e-05
4.9145e-05
5.01716e-05
4.91392e-05
5.01641e-05
4.91341e-05
5.01595e-05
4.91297e-05
5.01537e-05
4.91261e-05
5.01503e-05
4.91231e-05
5.01462e-05
4.91208e-05
5.01439e-05
4.91191e-05
5.01414e-05
4.91181e-05
5.01403e-05
4.91175e-05
5.01394e-05
5.01391e-05
5.12793e-05
5.18618e-05
5.1269e-05
5.1861e-05
5.12547e-05
5.18403e-05
5.12434e-05
5.18315e-05
5.12328e-05
5.18174e-05
5.12229e-05
5.18095e-05
5.12137e-05
5.17973e-05
5.12053e-05
5.17905e-05
5.11976e-05
5.17803e-05
5.11907e-05
5.17744e-05
5.11844e-05
5.17666e-05
5.11791e-05
5.17614e-05
5.11743e-05
5.17557e-05
5.11704e-05
5.17516e-05
5.1167e-05
5.17475e-05
5.11645e-05
5.17448e-05
5.11626e-05
5.17423e-05
5.11616e-05
5.1741e-05
5.11609e-05
5.17401e-05
5.17397e-05
5.24436e-05
5.27927e-05
5.24322e-05
5.27918e-05
5.24171e-05
5.27703e-05
5.24055e-05
5.27615e-05
5.23942e-05
5.27462e-05
5.23839e-05
5.27385e-05
5.23741e-05
5.27253e-05
5.23655e-05
5.27187e-05
5.23572e-05
5.27078e-05
5.23503e-05
5.2702e-05
5.23436e-05
5.26936e-05
5.2338e-05
5.26885e-05
5.2333e-05
5.26822e-05
5.23287e-05
5.26782e-05
5.23253e-05
5.26738e-05
5.23226e-05
5.26712e-05
5.23207e-05
5.26685e-05
5.23196e-05
5.26672e-05
5.23189e-05
5.26662e-05
5.26658e-05
5.31409e-05
5.33789e-05
5.31298e-05
5.3378e-05
5.31146e-05
5.33561e-05
5.31021e-05
5.3347e-05
5.30906e-05
5.33312e-05
5.30799e-05
5.33236e-05
5.30699e-05
5.33099e-05
5.3061e-05
5.33033e-05
5.30527e-05
5.32921e-05
5.30453e-05
5.32862e-05
5.30385e-05
5.32774e-05
5.30327e-05
5.32724e-05
5.30275e-05
5.32656e-05
5.30233e-05
5.3262e-05
5.30197e-05
5.3257e-05
5.30171e-05
5.32546e-05
5.3015e-05
5.32518e-05
5.30139e-05
5.32505e-05
5.30132e-05
5.32495e-05
5.32491e-05
5.3616e-05
5.38059e-05
5.36042e-05
5.38049e-05
5.35885e-05
5.37827e-05
5.35761e-05
5.37733e-05
5.35642e-05
5.37575e-05
5.35535e-05
5.37496e-05
5.35432e-05
5.37357e-05
5.35343e-05
5.3729e-05
5.35256e-05
5.37175e-05
5.35183e-05
5.37116e-05
5.35113e-05
5.37026e-05
5.35053e-05
5.36976e-05
5.35001e-05
5.36907e-05
5.34956e-05
5.3687e-05
5.3492e-05
5.36819e-05
5.34893e-05
5.36795e-05
5.34873e-05
5.36766e-05
5.34861e-05
5.36753e-05
5.34854e-05
5.36743e-05
5.36739e-05
5.39947e-05
5.41703e-05
5.39833e-05
5.4169e-05
5.39676e-05
5.41473e-05
5.39547e-05
5.41371e-05
5.39429e-05
5.41216e-05
5.39318e-05
5.41132e-05
5.39215e-05
5.40993e-05
5.39122e-05
5.40924e-05
5.39035e-05
5.40809e-05
5.3896e-05
5.40748e-05
5.38889e-05
5.40658e-05
5.3883e-05
5.40605e-05
5.38776e-05
5.40539e-05
5.38733e-05
5.40497e-05
5.38695e-05
5.40451e-05
5.38668e-05
5.40422e-05
5.38646e-05
5.40395e-05
5.38635e-05
5.4038e-05
5.38628e-05
5.4037e-05
5.40366e-05
5.43445e-05
5.45234e-05
5.43329e-05
5.45222e-05
5.43169e-05
5.44998e-05
5.4304e-05
5.44896e-05
5.42919e-05
5.44742e-05
5.42807e-05
5.44652e-05
5.42702e-05
5.44519e-05
5.42611e-05
5.44443e-05
5.42521e-05
5.44331e-05
5.42446e-05
5.44265e-05
5.42374e-05
5.44176e-05
5.42314e-05
5.4412e-05
5.4226e-05
5.44055e-05
5.42215e-05
5.44011e-05
5.42178e-05
5.43966e-05
5.42149e-05
5.43936e-05
5.42128e-05
5.43908e-05
5.42115e-05
5.43893e-05
5.42108e-05
5.43883e-05
5.43879e-05
5.47011e-05
5.48942e-05
5.4689e-05
5.48933e-05
5.46725e-05
5.48696e-05
5.46598e-05
5.48601e-05
5.46475e-05
5.48439e-05
5.46364e-05
5.48352e-05
5.4626e-05
5.48215e-05
5.46163e-05
5.48139e-05
5.46074e-05
5.48025e-05
5.45995e-05
5.47958e-05
5.45921e-05
5.47867e-05
5.45861e-05
5.47811e-05
5.45806e-05
5.47744e-05
5.45762e-05
5.47701e-05
5.45724e-05
5.47653e-05
5.45695e-05
5.47625e-05
5.45673e-05
5.47596e-05
5.45661e-05
5.47581e-05
5.45654e-05
5.47571e-05
5.47567e-05
5.50863e-05
5.53015e-05
5.50738e-05
5.53007e-05
5.50572e-05
5.52772e-05
5.50442e-05
5.52671e-05
5.50316e-05
5.52508e-05
5.50203e-05
5.52418e-05
5.50094e-05
5.52278e-05
5.5e-05
5.52201e-05
5.49909e-05
5.52087e-05
5.49831e-05
5.52016e-05
5.49757e-05
5.5193e-05
5.49694e-05
5.51868e-05
5.49639e-05
5.51804e-05
5.49592e-05
5.51756e-05
5.49554e-05
5.51711e-05
5.49525e-05
5.51678e-05
5.49504e-05
5.51652e-05
5.49491e-05
5.51635e-05
5.49484e-05
5.51626e-05
5.51621e-05
5.55159e-05
5.5762e-05
5.5504e-05
5.57609e-05
5.54871e-05
5.57377e-05
5.54736e-05
5.57266e-05
5.5461e-05
5.57109e-05
5.54492e-05
5.57011e-05
5.54384e-05
5.56874e-05
5.54288e-05
5.56792e-05
5.54195e-05
5.56677e-05
5.54116e-05
5.56607e-05
5.54041e-05
5.56515e-05
5.53978e-05
5.56457e-05
5.53921e-05
5.56387e-05
5.53874e-05
5.56342e-05
5.53835e-05
5.56294e-05
5.53805e-05
5.56263e-05
5.53784e-05
5.56234e-05
5.5377e-05
5.56218e-05
5.53763e-05
5.56208e-05
5.56204e-05
5.6007e-05
5.62917e-05
5.59946e-05
5.62905e-05
5.59773e-05
5.6267e-05
5.59638e-05
5.62556e-05
5.5951e-05
5.62397e-05
5.59392e-05
5.62296e-05
5.59282e-05
5.62158e-05
5.59182e-05
5.62072e-05
5.59089e-05
5.61955e-05
5.59006e-05
5.61885e-05
5.58931e-05
5.61788e-05
5.58866e-05
5.61732e-05
5.58808e-05
5.61659e-05
5.58762e-05
5.61615e-05
5.58721e-05
5.61564e-05
5.58692e-05
5.61534e-05
5.58669e-05
5.61504e-05
5.58656e-05
5.61488e-05
5.58648e-05
5.61477e-05
5.61473e-05
5.65752e-05
5.6903e-05
5.65629e-05
5.69017e-05
5.65453e-05
5.68779e-05
5.65315e-05
5.68663e-05
5.65183e-05
5.68496e-05
5.65062e-05
5.68398e-05
5.64949e-05
5.68251e-05
5.64846e-05
5.68169e-05
5.64752e-05
5.68044e-05
5.64668e-05
5.67976e-05
5.6459e-05
5.67875e-05
5.64525e-05
5.67819e-05
5.64466e-05
5.67744e-05
5.64418e-05
5.67699e-05
5.64377e-05
5.67647e-05
5.64346e-05
5.67616e-05
5.64324e-05
5.67586e-05
5.6431e-05
5.6757e-05
5.64302e-05
5.67559e-05
5.67554e-05
5.72295e-05
5.75855e-05
5.72167e-05
5.7584e-05
5.71989e-05
5.75597e-05
5.71845e-05
5.7548e-05
5.71711e-05
5.75305e-05
5.71587e-05
5.75207e-05
5.71471e-05
5.75055e-05
5.71366e-05
5.74974e-05
5.71268e-05
5.74844e-05
5.71184e-05
5.74776e-05
5.71104e-05
5.74671e-05
5.71038e-05
5.74616e-05
5.70977e-05
5.74535e-05
5.70929e-05
5.74494e-05
5.70886e-05
5.74437e-05
5.70856e-05
5.74409e-05
5.70832e-05
5.74374e-05
5.70818e-05
5.7436e-05
5.7081e-05
5.74348e-05
5.74343e-05
5.794e-05
5.82655e-05
5.79269e-05
5.82646e-05
5.79087e-05
5.82398e-05
5.7894e-05
5.82283e-05
5.78801e-05
5.82105e-05
5.78676e-05
5.82009e-05
5.78558e-05
5.81855e-05
5.78451e-05
5.81773e-05
5.78352e-05
5.81643e-05
5.78264e-05
5.81574e-05
5.78183e-05
5.8147e-05
5.78114e-05
5.81412e-05
5.78052e-05
5.81332e-05
5.78002e-05
5.81288e-05
5.77959e-05
5.81231e-05
5.77927e-05
5.81202e-05
5.77902e-05
5.81167e-05
5.77889e-05
5.81152e-05
5.7788e-05
5.8114e-05
5.81135e-05
5.85901e-05
5.87192e-05
5.85774e-05
5.87186e-05
5.85593e-05
5.8706e-05
5.85448e-05
5.87003e-05
5.85313e-05
5.86912e-05
5.85188e-05
5.86864e-05
5.8507e-05
5.86784e-05
5.84965e-05
5.86745e-05
5.84866e-05
5.86678e-05
5.8478e-05
5.86643e-05
5.84699e-05
5.86591e-05
5.8463e-05
5.86561e-05
5.84568e-05
5.86522e-05
5.84517e-05
5.86498e-05
5.84474e-05
5.8647e-05
5.84442e-05
5.86455e-05
5.84417e-05
5.86438e-05
5.84403e-05
5.8643e-05
5.84395e-05
5.86424e-05
5.86422e-05
5.88477e-05
5.88473e-05
5.8847e-05
5.88466e-05
5.88463e-05
5.88461e-05
5.88459e-05
5.88457e-05
5.88456e-05
5.88454e-05
5.88453e-05
5.88453e-05
5.88452e-05
5.88452e-05
5.88451e-05
5.88451e-05
5.88451e-05
5.88451e-05
5.88451e-05
)
;

boundaryField
{
    movingWall
    {
        type            calculated;
        value           nonuniform List<scalar> 
20
(
5.88481e-05
5.88474e-05
5.88472e-05
5.88467e-05
5.88465e-05
5.88462e-05
5.8846e-05
5.88458e-05
5.88457e-05
5.88454e-05
5.88454e-05
5.88452e-05
5.88453e-05
5.88451e-05
5.88452e-05
5.88451e-05
5.88451e-05
5.88451e-05
5.88451e-05
5.88451e-05
)
;
    }
    fixedWalls
    {
        type            calculated;
        value           nonuniform List<scalar> 
60
(
2.72865e-05
3.29591e-05
4.00867e-05
4.56721e-05
4.92267e-05
5.12798e-05
5.24438e-05
5.31415e-05
5.36163e-05
5.39954e-05
5.43451e-05
5.47016e-05
5.50867e-05
5.55164e-05
5.60076e-05
5.65757e-05
5.72303e-05
5.79408e-05
5.85902e-05
5.88481e-05
2.7285e-05
3.29113e-05
4.00156e-05
4.55789e-05
4.91174e-05
5.11608e-05
5.23187e-05
5.3013e-05
5.34852e-05
5.38626e-05
5.42106e-05
5.45652e-05
5.49482e-05
5.53761e-05
5.58646e-05
5.643e-05
5.70808e-05
5.77878e-05
5.84393e-05
5.88451e-05
2.72865e-05
2.72863e-05
2.72861e-05
2.7286e-05
2.72859e-05
2.72857e-05
2.72856e-05
2.72855e-05
2.72854e-05
2.72853e-05
2.72853e-05
2.72852e-05
2.72852e-05
2.72851e-05
2.72851e-05
2.72851e-05
2.72851e-05
2.7285e-05
2.7285e-05
2.7285e-05
)
;
    }
    frontAndBack
    {
        type            empty;
        value           nonuniform List<scalar> 0();
    }
}


// ************************************************************************* //
