/*--------------------------------*- C++ -*----------------------------------*\
| =========                 |                                                 |
| \\      /  F ield         | OpenFOAM: The Open Source CFD Toolbox           |
|  \\    /   O peration     | Version:  2312                                  |
|   \\  /    A nd           | Website:  www.openfoam.com                      |
|    \\/     M anipulation  |                                                 |
\*---------------------------------------------------------------------------*/
FoamFile
{
    version     2.0;
    format      ascii;
    arch        "LSB;label=32;scalar=64";
    class       surfaceScalarField;
    location    "4";
    object      surfaceDivU;
}
// * * * * * * * * * * * * * * * * * * * * * * * * * * * * * * * * * * * * * //

dimensions      [0 0 -1 0 0 0 0];

internalField   nonuniform List<scalar> 
760
(
1.88371e-09
-8.89447e-09
-1.19061e-09
1.01105e-08
-5.19182e-10
-3.78419e-09
4.59377e-10
1.7825e-09
-2.19539e-10
-6.08829e-10
7.07777e-11
1.99882e-10
-2.87757e-11
-6.86574e-11
7.09823e-12
1.98805e-11
-3.2061e-12
-6.98483e-12
5.60873e-13
1.76349e-12
-3.79884e-13
-7.19714e-13
-2.36734e-15
1.08667e-13
-6.19591e-14
-9.72407e-14
-4.74757e-15
-1.78229e-14
3.31339e-14
2.46861e-14
-3.44829e-15
8.8071e-15
-4.06744e-14
-5.13671e-14
1.32187e-14
-1.16735e-14
2.52895e-14
2.39918e-14
2.71051e-14
-6.67721e-10
5.36488e-09
7.51688e-09
-6.22558e-09
-1.4825e-09
1.33324e-09
7.14297e-10
-4.82639e-10
-1.89409e-10
1.26425e-10
6.04464e-11
-2.24748e-11
-2.00012e-11
9.8489e-12
5.79744e-12
-8.51989e-13
-2.01524e-12
4.0369e-13
4.82906e-13
-1.7186e-14
-2.31163e-13
-8.61717e-15
1.37935e-14
-1.02089e-14
-5.31045e-14
-2.44256e-14
1.16107e-14
-1.15875e-14
3.59223e-16
2.97948e-14
-3.91117e-14
-2.68367e-14
-2.23662e-14
-3.32271e-14
-9.00388e-16
7.7239e-15
2.58073e-14
-1.29427e-14
5.42101e-14
-1.92985e-10
-1.04623e-08
-1.24092e-08
1.30783e-08
2.3331e-09
-3.01296e-09
-1.07051e-09
1.24735e-09
2.93359e-10
-2.85153e-10
-7.30723e-11
1.02725e-10
2.89982e-11
-2.71649e-11
-6.24574e-12
9.33367e-12
2.40174e-12
-2.21483e-12
-5.08709e-13
1.00296e-12
2.12337e-13
-1.38022e-13
-4.84281e-14
9.61672e-14
1.70914e-14
1.53221e-14
6.59658e-15
1.10559e-15
2.5989e-15
4.4717e-15
-2.09521e-14
1.29185e-15
-3.13694e-15
-4.82701e-16
-4.31842e-15
-4.88069e-16
1.54601e-14
-8.41017e-15
2.71051e-14
2.80902e-09
1.09931e-08
2.24746e-08
-1.38707e-08
-4.09871e-09
2.83655e-09
2.0327e-09
-1.28896e-09
-4.75787e-10
2.5749e-10
1.48633e-10
-9.25553e-11
-4.68294e-11
2.63764e-11
1.33646e-11
-6.16793e-12
-3.61361e-12
2.45209e-12
1.37365e-12
-3.15342e-13
-2.54192e-13
2.76625e-13
1.59917e-13
7.70529e-15
-6.63644e-16
8.88736e-14
-1.01929e-15
-7.302e-16
3.16465e-15
2.4489e-15
2.17612e-14
2.42821e-14
2.16617e-15
-9.33352e-15
-4.57982e-15
-7.88726e-15
3.23481e-15
3.64599e-14
1.35525e-14
-5.68657e-09
-1.18278e-08
-3.35087e-08
1.52652e-08
5.6463e-09
-3.15312e-09
-3.06417e-09
1.40746e-09
6.40721e-10
-2.87976e-10
-2.14812e-10
1.02411e-10
6.70379e-11
-2.83904e-11
-1.70804e-11
7.79976e-12
5.75036e-12
-2.18477e-12
-1.41236e-12
8.21696e-13
5.38523e-13
-1.14479e-13
-6.33385e-14
1.18716e-13
8.8807e-14
5.23454e-14
2.73799e-15
3.73808e-14
2.35663e-14
3.32798e-14
-6.81262e-15
2.23293e-14
-1.9387e-14
-2.85285e-14
3.31524e-14
5.47064e-15
4.67776e-14
5.94035e-14
-1.35525e-14
9.12404e-09
1.08316e-08
4.56208e-08
-1.44036e-08
-7.39196e-09
2.92722e-09
4.18366e-09
-1.33951e-09
-8.26287e-10
2.70347e-10
2.88832e-10
-9.96102e-11
-8.76285e-11
2.73302e-11
2.26954e-11
-7.28768e-12
-7.11343e-12
2.41217e-12
2.11958e-12
-4.90103e-13
-5.34286e-13
2.3149e-13
2.344e-13
1.25349e-14
9.19175e-16
6.09132e-14
6.79226e-14
2.64109e-14
3.20427e-14
3.27496e-14
6.1342e-16
3.6798e-14
-3.67087e-15
-2.96994e-14
3.17217e-14
-1.69467e-15
-9.26592e-16
3.95993e-14
-7.57306e-29
-1.26961e-08
-9.47866e-09
-5.70972e-08
1.27881e-08
8.97967e-09
-2.56816e-09
-5.25282e-09
1.17645e-09
9.97024e-10
-2.31401e-10
-3.61112e-10
8.46459e-11
1.07671e-10
-2.29414e-11
-2.75709e-11
6.04593e-12
9.0355e-12
-1.87029e-12
-2.37819e-12
5.80865e-13
7.78311e-13
-1.00877e-13
-1.60952e-13
1.12257e-13
8.64049e-14
9.87026e-15
-8.76211e-15
4.32254e-14
3.75048e-14
1.39597e-14
6.48516e-15
7.6458e-15
-2.77232e-14
-1.70748e-14
6.1829e-15
2.62834e-14
4.05259e-14
3.21941e-14
9.46633e-29
1.60055e-08
7.97569e-09
6.73171e-08
-1.0979e-08
-1.03714e-08
2.21321e-09
6.19788e-09
-1.02212e-09
-1.14378e-09
2.05841e-10
4.22816e-10
-7.68883e-11
-1.24567e-10
2.08995e-11
3.17466e-11
-5.67927e-12
-1.03249e-11
1.76783e-12
2.85818e-12
-4.30029e-13
-7.66931e-13
1.64488e-13
2.83079e-13
1.52323e-14
-3.33092e-14
-4.5383e-15
6.59472e-14
3.55755e-14
-1.58994e-14
4.37302e-14
-1.59142e-14
-4.63196e-14
3.69318e-14
2.88382e-14
5.22946e-14
2.63832e-14
-8.33178e-15
3.96611e-14
-2.71051e-14
-1.90088e-08
-5.4373e-09
-7.60829e-08
7.74546e-09
1.15625e-08
-1.48887e-09
-7.01415e-09
7.06718e-10
1.27273e-09
-1.30319e-10
-4.78805e-10
4.86579e-11
1.39787e-10
-1.28277e-11
-3.5658e-11
3.21232e-12
1.16627e-11
-1.01401e-12
-3.12372e-12
2.70782e-13
9.46651e-13
-6.80539e-14
-2.72385e-13
4.75849e-14
6.43464e-14
5.18662e-16
1.33585e-14
7.61722e-15
1.33099e-14
2.6621e-14
-1.56726e-15
1.30541e-14
1.82896e-14
3.84855e-15
1.37497e-14
-8.10641e-16
2.08879e-14
4.48651e-15
1.35525e-14
2.1317e-08
3.63125e-09
8.23395e-08
-5.4263e-09
-1.23446e-08
1.06155e-09
7.59055e-09
-5.06232e-10
-1.35439e-09
1.0065e-10
5.14635e-10
-3.81225e-11
-1.49402e-10
1.03277e-11
3.78563e-11
-2.84486e-12
-1.2406e-11
8.9016e-13
3.32645e-12
-2.93984e-13
-9.6712e-13
6.24768e-14
3.20488e-13
1.61785e-14
-5.62106e-14
3.63818e-14
2.08798e-14
4.96811e-15
2.63652e-14
-2.76551e-14
1.84699e-14
2.73523e-14
-1.52517e-14
1.99895e-14
-1.00739e-14
-8.44503e-15
-2.84882e-15
-1.21629e-14
2.71051e-14
-2.3112e-08
-4.92621e-10
-8.67043e-08
1.36165e-09
1.28999e-08
-1.52418e-10
-7.99613e-09
1.12643e-10
1.41692e-09
-6.94987e-12
-5.4243e-10
3.15758e-12
1.56885e-10
-3.91273e-13
-3.9811e-11
-1.889e-13
1.30021e-11
3.03315e-14
-3.55796e-12
-9.25435e-14
1.04578e-12
-1.30332e-14
-2.67928e-13
3.81486e-14
9.75605e-14
2.3901e-14
-4.35667e-14
-1.17014e-14
-2.6668e-14
4.09493e-15
2.88718e-14
-2.33263e-14
2.67961e-14
1.69657e-14
-1.0534e-14
-1.71221e-15
1.7791e-14
2.9714e-14
-2.71051e-14
2.39811e-08
-1.42868e-09
8.79135e-08
1.18511e-09
-1.29397e-08
-3.00663e-10
8.10183e-09
1.07513e-10
-1.42071e-09
-2.39469e-11
5.45196e-10
8.24215e-12
-1.57465e-10
-2.23005e-12
3.96524e-11
5.30382e-13
-1.30643e-11
-2.04918e-13
3.45238e-12
1.87341e-14
-1.02066e-12
-5.52397e-14
3.29978e-13
3.3072e-14
-8.53608e-14
-8.06575e-15
3.59602e-14
-1.83212e-14
7.43656e-15
4.18892e-14
-3.52324e-14
-2.31301e-14
-1.15426e-14
-4.16861e-14
3.85358e-14
3.08284e-14
-1.51821e-14
-3.23926e-15
-1.89327e-28
-2.42246e-08
4.59809e-09
-8.7029e-08
-5.36118e-09
1.27466e-08
1.22726e-09
-8.01826e-09
-5.10786e-10
1.40501e-09
1.19335e-10
-5.39184e-10
-4.3585e-11
1.55765e-10
1.22376e-11
-3.9327e-11
-3.62325e-12
1.28782e-11
1.08471e-12
-3.48889e-12
-3.53144e-13
9.98493e-13
7.11614e-14
-3.04971e-13
-2.04935e-14
5.89739e-14
-9.48408e-15
-1.23922e-14
1.64646e-14
1.13226e-14
1.93194e-14
-2.95838e-14
-2.87604e-14
6.84905e-16
-2.94761e-14
-1.09466e-14
2.85997e-14
1.19428e-14
-3.25667e-14
1.35525e-14
2.34615e-08
-6.43975e-09
8.28951e-08
7.85348e-09
-1.20301e-08
-1.66425e-09
7.62681e-09
7.25637e-10
-1.32926e-09
-1.49618e-10
5.07837e-10
5.45794e-11
-1.47151e-10
-1.48825e-11
3.67884e-11
3.94717e-12
-1.21466e-11
-1.29307e-12
3.2069e-12
2.76601e-13
-9.47825e-13
-8.89685e-14
2.74994e-13
1.56695e-14
-5.19934e-14
-1.93039e-14
4.81761e-14
2.85585e-14
-2.07637e-14
-1.52746e-14
-2.86527e-14
-3.16261e-14
-1.56126e-15
-3.0114e-14
6.97971e-15
2.77964e-14
-3.09569e-14
-1.62847e-14
-2.71051e-14
-2.20478e-08
9.05309e-09
-7.67059e-08
-1.13679e-08
1.10915e-08
2.43109e-09
-7.05079e-09
-1.0652e-09
1.23422e-09
2.28882e-10
-4.6814e-10
-8.36043e-11
1.36216e-10
2.30609e-11
-3.41343e-11
-6.4502e-12
1.11301e-11
1.94841e-12
-3.01927e-12
-6.0473e-13
8.74526e-13
1.58374e-13
-2.78628e-13
-5.68033e-14
6.12479e-14
-4.74163e-14
-3.48923e-14
-2.67907e-14
-2.6137e-14
-5.83271e-15
-3.30873e-14
-1.81905e-14
-7.56329e-16
-3.65427e-14
4.53201e-15
2.00361e-14
-1.24328e-14
-1.99053e-14
-2.71051e-14
1.9733e-08
-1.06976e-08
6.77691e-08
1.36018e-08
-9.7256e-09
-2.86375e-09
6.21447e-09
1.26092e-09
-1.08894e-09
-2.63073e-10
4.07597e-10
9.57223e-11
-1.19605e-10
-2.61846e-11
2.96326e-11
7.18797e-12
-9.78644e-12
-2.34012e-12
2.57291e-12
5.80419e-13
-7.72955e-13
-2.28205e-13
1.74409e-13
-3.68263e-15
-1.35455e-13
-7.02217e-14
2.26889e-15
-5.92011e-14
2.11381e-15
5.9226e-14
-2.16459e-14
-2.1114e-14
-1.57503e-14
-4.84344e-14
-4.40119e-15
1.50877e-14
-3.45775e-14
-2.69793e-14
-4.06576e-14
-1.68288e-08
1.21726e-08
-5.70311e-08
-1.56132e-08
8.12276e-09
3.18475e-09
-5.21662e-09
-1.41228e-09
9.21591e-10
2.92496e-10
-3.38059e-10
-1.00633e-10
1.00608e-10
2.78767e-11
-2.47847e-11
-7.11522e-12
8.02674e-12
2.13283e-12
-2.2207e-12
-6.05418e-13
5.41067e-13
1.02258e-13
-2.48313e-13
-6.8927e-14
6.0321e-15
-1.3401e-14
-2.24396e-15
-7.02155e-14
3.59982e-14
4.65448e-14
-4.79025e-14
-2.1146e-14
-1.75964e-14
-7.70862e-14
-7.49043e-15
1.36032e-14
-3.30593e-14
-1.13549e-14
-1.35525e-14
1.33883e-08
-1.38764e-08
4.46027e-08
1.81385e-08
-6.35029e-09
-3.82112e-09
4.09684e-09
1.78559e-09
-7.29729e-10
-4.06542e-10
2.65302e-10
1.4356e-10
-7.98468e-11
-4.33116e-11
1.98023e-11
1.23527e-11
-6.49933e-12
-3.96177e-12
1.71754e-12
1.09894e-12
-5.07736e-13
-4.63446e-13
1.65985e-13
8.17038e-14
-8.96486e-14
-7.9004e-14
-2.14267e-14
-4.25936e-14
-1.05993e-14
9.57786e-16
-5.03297e-14
-6.27078e-14
-4.58866e-14
-8.357e-14
9.73872e-15
2.27374e-14
8.15191e-15
-1.83404e-14
1.35525e-14
-9.12618e-09
1.47249e-08
-3.02853e-08
-1.88159e-08
4.31476e-09
2.2768e-09
-2.71779e-09
-8.76113e-10
4.66747e-10
-7.84359e-12
-1.65054e-10
1.0037e-11
4.8888e-11
-9.43806e-12
-1.14114e-11
5.22722e-12
3.63649e-12
-2.00188e-12
-1.08204e-12
5.15516e-13
1.25994e-13
-3.91386e-13
-1.63285e-13
-1.11685e-14
-3.1949e-14
-8.43542e-14
-2.02091e-14
-6.95675e-14
-5.11507e-14
8.70089e-15
-9.59481e-14
-7.34041e-14
-1.49459e-14
-8.99146e-15
-5.34172e-15
7.59811e-15
-1.29398e-14
-4.00449e-14
-1.35525e-14
5.03516e-09
1.37462e-08
-2.91408e-09
1.83383e-09
-4.64554e-10
1.65653e-10
-5.30988e-11
1.46367e-11
-5.12286e-12
1.20617e-12
-5.28549e-13
6.77626e-14
-1.21973e-13
-4.06576e-14
-1.35525e-14
1.35525e-14
1.35525e-14
-2.71051e-14
-4.06576e-14
)
;

boundaryField
{
    movingWall
    {
        type            calculated;
        value           nonuniform List<scalar> 
20
(
-2.83277e-08
3.8398e-08
-1.09057e-08
5.07756e-09
-1.4099e-09
4.80789e-10
-1.49484e-10
4.32868e-11
-1.40133e-11
3.7676e-12
-1.35525e-12
2.98156e-13
-1.6263e-13
-8.13152e-14
0
-2.71051e-14
5.42101e-14
-2.71051e-14
-2.71051e-14
-5.42101e-14
)
;
    }
    fixedWalls
    {
        type            calculated;
        value           nonuniform List<scalar> 
60
(
3.53076e-09
-2.13197e-08
3.20494e-08
-5.2974e-08
7.49602e-08
-9.86157e-08
1.20279e-07
-1.39236e-07
1.55188e-07
-1.66062e-07
1.73325e-07
-1.7431e-07
1.71453e-07
-1.62256e-07
1.49377e-07
-1.31271e-07
1.09876e-07
-8.55303e-08
5.77775e-08
-2.83277e-08
0
5.42101e-14
5.42101e-14
0
2.71051e-14
-5.42101e-14
5.42101e-14
-5.42101e-14
0
2.71051e-14
2.71051e-14
-8.13152e-14
8.13152e-14
-5.42101e-14
0
-5.42101e-14
-2.71051e-14
0
2.71051e-14
-5.42101e-14
3.53076e-09
2.3667e-10
-2.61789e-09
1.57952e-09
-6.60768e-10
2.21691e-10
-8.01352e-11
2.25839e-11
-8.38744e-12
1.97524e-12
-8.53498e-13
9.3731e-14
-9.84657e-14
-2.54525e-14
1.59574e-14
5.03105e-14
-5.72071e-14
-2.41418e-14
5.05791e-14
0
)
;
    }
    frontAndBack
    {
        type            empty;
        value           nonuniform List<scalar> 0();
    }
}


// ************************************************************************* //
