/*--------------------------------*- C++ -*----------------------------------*\
| =========                 |                                                 |
| \\      /  F ield         | OpenFOAM: The Open Source CFD Toolbox           |
|  \\    /   O peration     | Version:  2312                                  |
|   \\  /    A nd           | Website:  www.openfoam.com                      |
|    \\/     M anipulation  |                                                 |
\*---------------------------------------------------------------------------*/
FoamFile
{
    version     2.0;
    format      ascii;
    arch        "LSB;label=32;scalar=64";
    class       volScalarField;
    location    "4";
    object      turbulenceProperties:omega;
}
// * * * * * * * * * * * * * * * * * * * * * * * * * * * * * * * * * * * * * //

dimensions      [0 0 -1 0 0 0 0];

internalField   nonuniform List<scalar> 
400
(
9.35549
9.35547
9.35543
9.3554
9.3554
9.35534
9.35536
9.35531
9.35531
9.35529
9.35529
9.35527
9.35526
9.35526
9.35525
9.35525
9.35524
9.35524
9.35524
9.35524
10.2948
9.9507
9.9797
9.9917
10.0156
10.0283
10.0519
10.0654
10.0886
10.1028
10.1258
10.1405
10.1635
10.1786
10.2016
10.2171
10.2402
10.2559
10.2677
10.2872
11.3654
10.9381
10.9745
10.9894
11.0193
11.0352
11.0645
11.0814
11.1101
11.1278
11.1563
11.1746
11.2029
11.2217
11.25
11.2691
11.2975
11.3168
11.3312
11.3552
12.1382
11.645
11.6862
11.7039
11.7379
11.7565
11.7901
11.8095
11.8428
11.863
11.896
11.9169
11.9497
11.9712
12.004
12.0259
12.0589
12.0811
12.0978
12.1255
12.6048
12.0692
12.1142
12.133
12.1702
12.19
12.2267
12.2476
12.2837
12.3057
12.3413
12.3641
12.3997
12.4231
12.4587
12.4825
12.5182
12.5424
12.5606
12.5906
12.8667
12.3069
12.3534
12.3734
12.412
12.4329
12.471
12.4929
12.5307
12.5535
12.5909
12.6146
12.6518
12.6762
12.7134
12.7384
12.7757
12.801
12.82
12.8514
13.0126
12.4391
12.4872
12.5072
12.547
12.5682
12.6074
12.6297
12.6683
12.6919
12.7299
12.7545
12.7923
12.8175
12.8554
12.8811
12.9192
12.9453
12.9646
12.9968
13.0995
12.518
12.5663
12.5869
12.6272
12.6486
12.6884
12.711
12.7503
12.7739
12.8128
12.8373
12.876
12.9013
12.94
12.9659
13.0046
13.031
13.0506
13.0833
13.1581
12.5712
12.6202
12.6408
12.6815
12.7032
12.7433
12.7661
12.8056
12.8297
12.8687
12.8937
12.9326
12.9582
12.9972
13.0233
13.0624
13.089
13.1088
13.1418
13.2051
12.6139
12.6629
12.6839
12.7248
12.7466
12.7871
12.81
12.8499
12.8739
12.9135
12.9384
12.9777
13.0034
13.0427
13.069
13.1084
13.1353
13.1552
13.1884
13.2481
12.6531
12.7024
12.7236
12.7646
12.7867
12.8273
12.8505
12.8905
12.9149
12.9543
12.9798
13.019
13.0452
13.0845
13.1112
13.1507
13.1778
13.1979
13.2313
13.2918
12.6927
12.7426
12.7638
12.8051
12.8274
12.868
12.8915
12.9318
12.9562
12.9963
13.0216
13.0613
13.0875
13.1272
13.1539
13.1938
13.221
13.2412
13.2748
13.3388
12.7355
12.7859
12.807
12.8488
12.871
12.9122
12.9357
12.9762
13.001
13.041
13.0668
13.1066
13.1331
13.173
13.2
13.2401
13.2675
13.2879
13.3217
13.3914
12.7833
12.8336
12.8554
12.8971
12.9198
12.9612
12.9849
13.0257
13.0507
13.091
13.117
13.1571
13.1839
13.224
13.2513
13.2916
13.3194
13.3398
13.374
13.4509
12.8375
12.8884
12.9102
12.9523
12.9752
13.0168
13.0409
13.082
13.1071
13.148
13.174
13.2147
13.2414
13.2821
13.3095
13.3503
13.3782
13.3989
13.4333
13.5197
12.8999
12.9511
12.9733
13.0158
13.039
13.081
13.1053
13.1469
13.1722
13.2135
13.2398
13.2808
13.308
13.3489
13.3767
13.4178
13.4461
13.467
13.5018
13.5983
12.9714
13.0232
13.0455
13.0887
13.1119
13.1547
13.179
13.2213
13.2467
13.2886
13.3151
13.3567
13.384
13.4256
13.4536
13.4952
13.5238
13.5449
13.5801
13.6834
13.049
13.1013
13.1239
13.1675
13.1911
13.2342
13.259
13.3015
13.3274
13.3697
13.3966
13.4386
13.4663
13.5084
13.5367
13.5789
13.6078
13.6292
13.6648
13.7607
13.1342
13.1849
13.2067
13.2491
13.2721
13.3141
13.3386
13.3801
13.406
13.4472
13.4744
13.5155
13.5437
13.585
13.614
13.6556
13.6854
13.7066
13.7426
13.7911
13.7911
13.791
13.791
13.7909
13.7909
13.7909
13.7908
13.7909
13.7908
13.7908
13.7908
13.7908
13.7908
13.7908
13.7908
13.7908
13.7908
13.7908
13.7908
)
;

boundaryField
{
    movingWall
    {
        type            calculated;
        value           nonuniform List<scalar> 
20
(
13.7911
13.7911
13.791
13.791
13.7909
13.7909
13.7909
13.7908
13.7909
13.7908
13.7908
13.7908
13.7908
13.7908
13.7908
13.7908
13.7908
13.7908
13.7908
13.7908
)
;
    }
    fixedWalls
    {
        type            calculated;
        value           nonuniform List<scalar> 
60
(
9.35549
10.2948
11.3654
12.1382
12.6048
12.8667
13.0126
13.0995
13.1581
13.2051
13.2481
13.2918
13.3388
13.3914
13.4509
13.5197
13.5983
13.6834
13.7607
13.7911
9.35524
10.2872
11.3552
12.1255
12.5906
12.8514
12.9968
13.0833
13.1418
13.1884
13.2313
13.2748
13.3217
13.374
13.4333
13.5018
13.5801
13.6648
13.7426
13.7908
9.35549
9.35547
9.35543
9.3554
9.3554
9.35534
9.35536
9.35531
9.35531
9.35529
9.35529
9.35527
9.35526
9.35526
9.35525
9.35525
9.35524
9.35524
9.35524
9.35524
)
;
    }
    frontAndBack
    {
        type            empty;
    }
}


// ************************************************************************* //
