/*--------------------------------*- C++ -*----------------------------------*\
| =========                 |                                                 |
| \\      /  F ield         | OpenFOAM: The Open Source CFD Toolbox           |
|  \\    /   O peration     | Version:  2312                                  |
|   \\  /    A nd           | Website:  www.openfoam.com                      |
|    \\/     M anipulation  |                                                 |
\*---------------------------------------------------------------------------*/
FoamFile
{
    version     2.0;
    format      ascii;
    arch        "LSB;label=32;scalar=64";
    class       volSymmTensorField;
    location    "4";
    object      turbulenceProperties:R;
}
// * * * * * * * * * * * * * * * * * * * * * * * * * * * * * * * * * * * * * //

dimensions      [0 2 -2 0 0 0 0];

internalField   nonuniform List<symmTensor> 
400
(
(1.8191e-05 -1.37249e-11 -0 1.8191e-05 -0 1.8191e-05)
(1.81909e-05 1.70271e-11 -0 1.81909e-05 -0 1.81909e-05)
(1.81908e-05 -4.03449e-12 -0 1.81908e-05 -0 1.81908e-05)
(1.81907e-05 9.55967e-13 -0 1.81907e-05 -0 1.81907e-05)
(1.81906e-05 -2.26789e-13 -0 1.81906e-05 -0 1.81906e-05)
(1.81905e-05 5.34693e-14 -0 1.81905e-05 -0 1.81905e-05)
(1.81904e-05 -1.28231e-14 -0 1.81904e-05 -0 1.81904e-05)
(1.81903e-05 2.91696e-15 -0 1.81903e-05 -0 1.81903e-05)
(1.81903e-05 -7.72459e-16 -0 1.81903e-05 -0 1.81903e-05)
(1.81902e-05 1.22942e-16 -0 1.81902e-05 -0 1.81902e-05)
(1.81902e-05 -7.18517e-17 -0 1.81902e-05 -0 1.81902e-05)
(1.81901e-05 -1.38582e-17 -0 1.81901e-05 -0 1.81901e-05)
(1.81901e-05 -1.84541e-17 -0 1.81901e-05 -0 1.81901e-05)
(1.81901e-05 -1.06787e-17 -0 1.81901e-05 -0 1.81901e-05)
(1.81901e-05 -7.6061e-18 -0 1.81901e-05 -0 1.81901e-05)
(1.819e-05 -4.87235e-18 -0 1.819e-05 -0 1.819e-05)
(1.819e-05 -2.80763e-18 -0 1.819e-05 -0 1.819e-05)
(1.819e-05 -1.00912e-18 -0 1.819e-05 -0 1.819e-05)
(1.819e-05 3.5468e-19 -0 1.819e-05 -0 1.819e-05)
(1.819e-05 2.53181e-19 -0 1.819e-05 -0 1.819e-05)
(2.19727e-05 1.50233e-11 -0 2.19727e-05 -0 2.19727e-05)
(2.19728e-05 -1.93238e-11 -0 2.19728e-05 -0 2.19728e-05)
(2.1967e-05 4.56179e-12 -0 2.1967e-05 -0 2.1967e-05)
(2.1965e-05 -1.07711e-12 -0 2.1965e-05 -0 2.1965e-05)
(2.19612e-05 2.54906e-13 -0 2.19612e-05 -0 2.19612e-05)
(2.19592e-05 -5.97494e-14 -0 2.19592e-05 -0 2.19592e-05)
(2.1956e-05 1.42592e-14 -0 2.1956e-05 -0 2.1956e-05)
(2.19541e-05 -3.25974e-15 -0 2.19541e-05 -0 2.19541e-05)
(2.19517e-05 8.18549e-16 -0 2.19517e-05 -0 2.19517e-05)
(2.19499e-05 -1.60604e-16 -0 2.19499e-05 -0 2.19499e-05)
(2.1948e-05 5.68692e-17 -0 2.1948e-05 -0 2.1948e-05)
(2.19465e-05 -9.28693e-19 -0 2.19465e-05 -0 2.19465e-05)
(2.19452e-05 8.3254e-18 -0 2.19452e-05 -0 2.19452e-05)
(2.19438e-05 3.5815e-18 -0 2.19438e-05 -0 2.19438e-05)
(2.19431e-05 2.92262e-18 -0 2.19431e-05 -0 2.19431e-05)
(2.1942e-05 1.95002e-18 -0 2.1942e-05 -0 2.1942e-05)
(2.19417e-05 1.32961e-18 -0 2.19417e-05 -0 2.19417e-05)
(2.19411e-05 1.11236e-18 -0 2.19411e-05 -0 2.19411e-05)
(2.1941e-05 1.25227e-18 -0 2.1941e-05 -0 2.1941e-05)
(2.19409e-05 8.56096e-19 -0 2.19409e-05 -0 2.19409e-05)
(2.67245e-05 -1.65034e-11 -0 2.67245e-05 -0 2.67245e-05)
(2.67244e-05 2.13673e-11 -0 2.67244e-05 -0 2.67244e-05)
(2.67157e-05 -5.03669e-12 -0 2.67157e-05 -0 2.67157e-05)
(2.67129e-05 1.19319e-12 -0 2.67129e-05 -0 2.67129e-05)
(2.67071e-05 -2.81125e-13 -0 2.67071e-05 -0 2.67071e-05)
(2.67041e-05 6.67467e-14 -0 2.67041e-05 -0 2.67041e-05)
(2.66995e-05 -1.55711e-14 -0 2.66995e-05 -0 2.66995e-05)
(2.66966e-05 3.79396e-15 -0 2.66966e-05 -0 2.66966e-05)
(2.66932e-05 -8.2203e-16 -0 2.66932e-05 -0 2.66932e-05)
(2.66903e-05 2.40167e-16 -0 2.66903e-05 -0 2.66903e-05)
(2.66878e-05 -2.67102e-17 -0 2.66878e-05 -0 2.66878e-05)
(2.66853e-05 2.61642e-17 -0 2.66853e-05 -0 2.66853e-05)
(2.66834e-05 7.17595e-18 -0 2.66834e-05 -0 2.66834e-05)
(2.66814e-05 7.38219e-18 -0 2.66814e-05 -0 2.66814e-05)
(2.66803e-05 4.66792e-18 -0 2.66803e-05 -0 2.66803e-05)
(2.66788e-05 3.32841e-18 -0 2.66788e-05 -0 2.66788e-05)
(2.66782e-05 2.0644e-18 -0 2.66782e-05 -0 2.66782e-05)
(2.66775e-05 1.88118e-18 -0 2.66775e-05 -0 2.66775e-05)
(2.66772e-05 2.08548e-18 -0 2.66772e-05 -0 2.66772e-05)
(2.66771e-05 1.13287e-18 -0 2.66771e-05 -0 2.66771e-05)
(3.04481e-05 1.75236e-11 -0 3.04481e-05 -0 3.04481e-05)
(3.04475e-05 -2.28407e-11 -0 3.04475e-05 -0 3.04475e-05)
(3.04374e-05 5.3742e-12 -0 3.04374e-05 -0 3.04374e-05)
(3.04324e-05 -1.27241e-12 -0 3.04324e-05 -0 3.04324e-05)
(3.04257e-05 2.99846e-13 -0 3.04257e-05 -0 3.04257e-05)
(3.04212e-05 -7.06181e-14 -0 3.04212e-05 -0 3.04212e-05)
(3.04155e-05 1.67916e-14 -0 3.04155e-05 -0 3.04155e-05)
(3.04118e-05 -3.85303e-15 -0 3.04118e-05 -0 3.04118e-05)
(3.04067e-05 9.77931e-16 -0 3.04067e-05 -0 3.04067e-05)
(3.04037e-05 -1.81107e-16 -0 3.04037e-05 -0 3.04037e-05)
(3.03995e-05 7.63051e-17 -0 3.03995e-05 -0 3.03995e-05)
(3.03971e-05 5.67919e-18 -0 3.03971e-05 -0 3.03971e-05)
(3.03939e-05 1.51048e-17 -0 3.03939e-05 -0 3.03939e-05)
(3.0392e-05 8.19667e-18 -0 3.0392e-05 -0 3.0392e-05)
(3.03899e-05 6.36979e-18 -0 3.03899e-05 -0 3.03899e-05)
(3.03885e-05 4.22854e-18 -0 3.03885e-05 -0 3.03885e-05)
(3.03873e-05 2.78504e-18 -0 3.03873e-05 -0 3.03873e-05)
(3.03866e-05 2.70582e-18 -0 3.03866e-05 -0 3.03866e-05)
(3.03861e-05 3.37332e-18 -0 3.03861e-05 -0 3.03861e-05)
(3.03859e-05 1.4265e-18 -0 3.03859e-05 -0 3.03859e-05)
(3.28178e-05 -1.81644e-11 -0 3.28178e-05 -0 3.28178e-05)
(3.28175e-05 2.37406e-11 -0 3.28175e-05 -0 3.28175e-05)
(3.28046e-05 -5.58161e-12 -0 3.28046e-05 -0 3.28046e-05)
(3.27999e-05 1.32173e-12 -0 3.27999e-05 -0 3.27999e-05)
(3.2791e-05 -3.11025e-13 -0 3.2791e-05 -0 3.2791e-05)
(3.27867e-05 7.34966e-14 -0 3.27867e-05 -0 3.27867e-05)
(3.27791e-05 -1.72498e-14 -0 3.27791e-05 -0 3.27791e-05)
(3.27752e-05 4.13127e-15 -0 3.27752e-05 -0 3.27752e-05)
(3.27693e-05 -9.16654e-16 -0 3.27693e-05 -0 3.27693e-05)
(3.27656e-05 2.58414e-16 -0 3.27656e-05 -0 3.27656e-05)
(3.27611e-05 -2.89583e-17 -0 3.27611e-05 -0 3.27611e-05)
(3.27579e-05 3.00195e-17 -0 3.27579e-05 -0 3.27579e-05)
(3.27543e-05 1.00724e-17 -0 3.27543e-05 -0 3.27543e-05)
(3.2752e-05 1.0249e-17 -0 3.2752e-05 -0 3.2752e-05)
(3.27494e-05 6.6056e-18 -0 3.27494e-05 -0 3.27494e-05)
(3.2748e-05 4.63671e-18 -0 3.2748e-05 -0 3.2748e-05)
(3.27464e-05 3.2186e-18 -0 3.27464e-05 -0 3.27464e-05)
(3.27457e-05 2.97621e-18 -0 3.27457e-05 -0 3.27457e-05)
(3.27451e-05 3.88942e-18 -0 3.27451e-05 -0 3.27451e-05)
(3.27449e-05 1.79052e-18 -0 3.27449e-05 -0 3.27449e-05)
(3.41866e-05 1.85339e-11 -0 3.41866e-05 -0 3.41866e-05)
(3.41858e-05 -2.42534e-11 -0 3.41858e-05 -0 3.41858e-05)
(3.41729e-05 5.7007e-12 -0 3.41729e-05 -0 3.41729e-05)
(3.41666e-05 -1.34991e-12 -0 3.41666e-05 -0 3.41666e-05)
(3.41579e-05 3.17603e-13 -0 3.41579e-05 -0 3.41579e-05)
(3.41524e-05 -7.49359e-14 -0 3.41524e-05 -0 3.41524e-05)
(3.41447e-05 1.7709e-14 -0 3.41447e-05 -0 3.41447e-05)
(3.41402e-05 -4.1234e-15 -0 3.41402e-05 -0 3.41402e-05)
(3.41336e-05 1.0108e-15 -0 3.41336e-05 -0 3.41336e-05)
(3.41299e-05 -2.04554e-16 -0 3.41299e-05 -0 3.41299e-05)
(3.41244e-05 7.4529e-17 -0 3.41244e-05 -0 3.41244e-05)
(3.41215e-05 3.15926e-18 -0 3.41215e-05 -0 3.41215e-05)
(3.41173e-05 1.49096e-17 -0 3.41173e-05 -0 3.41173e-05)
(3.4115e-05 8.61511e-18 -0 3.4115e-05 -0 3.4115e-05)
(3.41121e-05 7.16248e-18 -0 3.41121e-05 -0 3.41121e-05)
(3.41106e-05 4.87444e-18 -0 3.41106e-05 -0 3.41106e-05)
(3.41088e-05 3.22015e-18 -0 3.41088e-05 -0 3.41088e-05)
(3.4108e-05 3.47581e-18 -0 3.4108e-05 -0 3.4108e-05)
(3.41074e-05 4.34863e-18 -0 3.41074e-05 -0 3.41074e-05)
(3.41072e-05 2.44035e-18 -0 3.41072e-05 -0 3.41072e-05)
(3.49626e-05 -1.87718e-11 -0 3.49626e-05 -0 3.49626e-05)
(3.49622e-05 2.45545e-11 -0 3.49622e-05 -0 3.49622e-05)
(3.49474e-05 -5.77294e-12 -0 3.49474e-05 -0 3.49474e-05)
(3.4942e-05 1.36697e-12 -0 3.4942e-05 -0 3.4942e-05)
(3.4932e-05 -3.21718e-13 -0 3.4932e-05 -0 3.4932e-05)
(3.49269e-05 7.5961e-14 -0 3.49269e-05 -0 3.49269e-05)
(3.49184e-05 -1.78949e-14 -0 3.49184e-05 -0 3.49184e-05)
(3.49138e-05 4.23764e-15 -0 3.49138e-05 -0 3.49138e-05)
(3.49069e-05 -9.73001e-16 -0 3.49069e-05 -0 3.49069e-05)
(3.49027e-05 2.52716e-16 -0 3.49027e-05 -0 3.49027e-05)
(3.48978e-05 -3.88477e-17 -0 3.48978e-05 -0 3.48978e-05)
(3.48938e-05 2.58673e-17 -0 3.48938e-05 -0 3.48938e-05)
(3.48902e-05 7.78891e-18 -0 3.48902e-05 -0 3.48902e-05)
(3.48871e-05 9.33129e-18 -0 3.48871e-05 -0 3.48871e-05)
(3.48845e-05 6.39809e-18 -0 3.48845e-05 -0 3.48845e-05)
(3.48826e-05 5.01483e-18 -0 3.48826e-05 -0 3.48826e-05)
(3.4881e-05 3.3646e-18 -0 3.4881e-05 -0 3.4881e-05)
(3.488e-05 3.64834e-18 -0 3.488e-05 -0 3.488e-05)
(3.48794e-05 4.71467e-18 -0 3.48794e-05 -0 3.48794e-05)
(3.48792e-05 2.55542e-18 -0 3.48792e-05 -0 3.48792e-05)
(3.54277e-05 1.89409e-11 -0 3.54277e-05 -0 3.54277e-05)
(3.54269e-05 -2.47504e-11 -0 3.54269e-05 -0 3.54269e-05)
(3.54129e-05 5.82198e-12 -0 3.54129e-05 -0 3.54129e-05)
(3.54066e-05 -1.37861e-12 -0 3.54066e-05 -0 3.54066e-05)
(3.53963e-05 3.24523e-13 -0 3.53963e-05 -0 3.53963e-05)
(3.53912e-05 -7.6666e-14 -0 3.53912e-05 -0 3.53912e-05)
(3.53821e-05 1.80826e-14 -0 3.53821e-05 -0 3.53821e-05)
(3.53778e-05 -4.25077e-15 -0 3.53778e-05 -0 3.53778e-05)
(3.53702e-05 1.01578e-15 -0 3.53702e-05 -0 3.53702e-05)
(3.53666e-05 -2.24467e-16 -0 3.53666e-05 -0 3.53666e-05)
(3.53604e-05 6.67207e-17 -0 3.53604e-05 -0 3.53604e-05)
(3.53576e-05 -3.38732e-18 -0 3.53576e-05 -0 3.53576e-05)
(3.53528e-05 1.15548e-17 -0 3.53528e-05 -0 3.53528e-05)
(3.53506e-05 6.20529e-18 -0 3.53506e-05 -0 3.53506e-05)
(3.53472e-05 5.73019e-18 -0 3.53472e-05 -0 3.53472e-05)
(3.53457e-05 4.18312e-18 -0 3.53457e-05 -0 3.53457e-05)
(3.53437e-05 2.96949e-18 -0 3.53437e-05 -0 3.53437e-05)
(3.53429e-05 3.43992e-18 -0 3.53429e-05 -0 3.53429e-05)
(3.53422e-05 4.80815e-18 -0 3.53422e-05 -0 3.53422e-05)
(3.5342e-05 2.00598e-18 -0 3.5342e-05 -0 3.5342e-05)
(3.57442e-05 -1.90914e-11 -0 3.57442e-05 -0 3.57442e-05)
(3.57438e-05 2.49042e-11 -0 3.57438e-05 -0 3.57438e-05)
(3.57285e-05 -5.86241e-12 -0 3.57285e-05 -0 3.57285e-05)
(3.57228e-05 1.38806e-12 -0 3.57228e-05 -0 3.57228e-05)
(3.57121e-05 -3.27069e-13 -0 3.57121e-05 -0 3.57121e-05)
(3.57069e-05 7.72721e-14 -0 3.57069e-05 -0 3.57069e-05)
(3.56978e-05 -1.82402e-14 -0 3.56978e-05 -0 3.56978e-05)
(3.56932e-05 4.30403e-15 -0 3.56932e-05 -0 3.56932e-05)
(3.56859e-05 -1.00882e-15 -0 3.56859e-05 -0 3.56859e-05)
(3.56816e-05 2.46204e-16 -0 3.56816e-05 -0 3.56816e-05)
(3.56761e-05 -4.90475e-17 -0 3.56761e-05 -0 3.56761e-05)
(3.56724e-05 2.01092e-17 -0 3.56724e-05 -0 3.56724e-05)
(3.56681e-05 2.8971e-18 -0 3.56681e-05 -0 3.56681e-05)
(3.56654e-05 6.15198e-18 -0 3.56654e-05 -0 3.56654e-05)
(3.56621e-05 4.5119e-18 -0 3.56621e-05 -0 3.56621e-05)
(3.56605e-05 3.25739e-18 -0 3.56605e-05 -0 3.56605e-05)
(3.56586e-05 2.02304e-18 -0 3.56586e-05 -0 3.56586e-05)
(3.56578e-05 2.95419e-18 -0 3.56578e-05 -0 3.56578e-05)
(3.56571e-05 4.99549e-18 -0 3.56571e-05 -0 3.56571e-05)
(3.56568e-05 1.95857e-18 -0 3.56568e-05 -0 3.56568e-05)
(3.59969e-05 1.92359e-11 -0 3.59969e-05 -0 3.59969e-05)
(3.59961e-05 -2.50429e-11 -0 3.59961e-05 -0 3.59961e-05)
(3.59817e-05 5.9003e-12 -0 3.59817e-05 -0 3.59817e-05)
(3.5975e-05 -1.39697e-12 -0 3.5975e-05 -0 3.5975e-05)
(3.59646e-05 3.29388e-13 -0 3.59646e-05 -0 3.59646e-05)
(3.59592e-05 -7.78955e-14 -0 3.59592e-05 -0 3.59592e-05)
(3.59498e-05 1.83804e-14 -0 3.59498e-05 -0 3.59498e-05)
(3.59455e-05 -4.34283e-15 -0 3.59455e-05 -0 3.59455e-05)
(3.59375e-05 1.02634e-15 -0 3.59375e-05 -0 3.59375e-05)
(3.59339e-05 -2.38462e-16 -0 3.59339e-05 -0 3.59339e-05)
(3.59274e-05 6.16259e-17 -0 3.59274e-05 -0 3.59274e-05)
(3.59245e-05 -8.8982e-18 -0 3.59245e-05 -0 3.59245e-05)
(3.59196e-05 7.23775e-18 -0 3.59196e-05 -0 3.59196e-05)
(3.59173e-05 3.12047e-18 -0 3.59173e-05 -0 3.59173e-05)
(3.59138e-05 3.75703e-18 -0 3.59138e-05 -0 3.59138e-05)
(3.59122e-05 2.77502e-18 -0 3.59122e-05 -0 3.59122e-05)
(3.59102e-05 1.81635e-18 -0 3.59102e-05 -0 3.59102e-05)
(3.59093e-05 2.85248e-18 -0 3.59093e-05 -0 3.59093e-05)
(3.59086e-05 4.4261e-18 -0 3.59086e-05 -0 3.59086e-05)
(3.59084e-05 1.68344e-18 -0 3.59084e-05 -0 3.59084e-05)
(3.62301e-05 -1.93882e-11 -0 3.62301e-05 -0 3.62301e-05)
(3.62292e-05 2.51833e-11 -0 3.62292e-05 -0 3.62292e-05)
(3.62147e-05 -5.93928e-12 -0 3.62147e-05 -0 3.62147e-05)
(3.62078e-05 1.40603e-12 -0 3.62078e-05 -0 3.62078e-05)
(3.61975e-05 -3.31914e-13 -0 3.61975e-05 -0 3.61975e-05)
(3.61917e-05 7.85027e-14 -0 3.61917e-05 -0 3.61917e-05)
(3.61825e-05 -1.85536e-14 -0 3.61825e-05 -0 3.61825e-05)
(3.61777e-05 4.38181e-15 -0 3.61777e-05 -0 3.61777e-05)
(3.61704e-05 -1.03628e-15 -0 3.61704e-05 -0 3.61704e-05)
(3.61658e-05 2.46089e-16 -0 3.61658e-05 -0 3.61658e-05)
(3.61603e-05 -5.59499e-17 -0 3.61603e-05 -0 3.61603e-05)
(3.61562e-05 1.61743e-17 -0 3.61562e-05 -0 3.61562e-05)
(3.61523e-05 -2.84746e-19 -0 3.61523e-05 -0 3.61523e-05)
(3.6149e-05 3.55177e-18 -0 3.6149e-05 -0 3.6149e-05)
(3.61463e-05 2.25042e-18 -0 3.61463e-05 -0 3.61463e-05)
(3.61441e-05 1.76462e-18 -0 3.61441e-05 -0 3.61441e-05)
(3.61424e-05 1.13758e-18 -0 3.61424e-05 -0 3.61424e-05)
(3.61413e-05 2.33658e-18 -0 3.61413e-05 -0 3.61413e-05)
(3.61407e-05 4.21345e-18 -0 3.61407e-05 -0 3.61407e-05)
(3.61404e-05 1.25741e-18 -0 3.61404e-05 -0 3.61404e-05)
(3.64678e-05 1.95485e-11 -0 3.64678e-05 -0 3.64678e-05)
(3.6467e-05 -2.53317e-11 -0 3.6467e-05 -0 3.6467e-05)
(3.64516e-05 5.98014e-12 -0 3.64516e-05 -0 3.64516e-05)
(3.6445e-05 -1.41565e-12 -0 3.6445e-05 -0 3.6445e-05)
(3.64347e-05 3.345e-13 -0 3.64347e-05 -0 3.64347e-05)
(3.64286e-05 -7.91836e-14 -0 3.64286e-05 -0 3.64286e-05)
(3.642e-05 1.87097e-14 -0 3.642e-05 -0 3.642e-05)
(3.64147e-05 -4.43408e-15 -0 3.64147e-05 -0 3.64147e-05)
(3.64071e-05 1.045e-15 -0 3.64071e-05 -0 3.64071e-05)
(3.64028e-05 -2.48862e-16 -0 3.64028e-05 -0 3.64028e-05)
(3.63964e-05 5.87871e-17 -0 3.63964e-05 -0 3.63964e-05)
(3.63931e-05 -1.32811e-17 -0 3.63931e-05 -0 3.63931e-05)
(3.63884e-05 4.25374e-18 -0 3.63884e-05 -0 3.63884e-05)
(3.63858e-05 1.11771e-18 -0 3.63858e-05 -0 3.63858e-05)
(3.63824e-05 1.65836e-18 -0 3.63824e-05 -0 3.63824e-05)
(3.63807e-05 9.17348e-19 -0 3.63807e-05 -0 3.63807e-05)
(3.63786e-05 6.69547e-19 -0 3.63786e-05 -0 3.63786e-05)
(3.63778e-05 1.99127e-18 -0 3.63778e-05 -0 3.63778e-05)
(3.63771e-05 3.74885e-18 -0 3.63771e-05 -0 3.63771e-05)
(3.63768e-05 1.39187e-18 -0 3.63768e-05 -0 3.63768e-05)
(3.67245e-05 -1.97178e-11 -0 3.67245e-05 -0 3.67245e-05)
(3.6724e-05 2.54905e-11 -0 3.6724e-05 -0 3.6724e-05)
(3.67078e-05 -6.02369e-12 -0 3.67078e-05 -0 3.67078e-05)
(3.67017e-05 1.42588e-12 -0 3.67017e-05 -0 3.67017e-05)
(3.66905e-05 -3.37267e-13 -0 3.66905e-05 -0 3.66905e-05)
(3.6685e-05 7.9871e-14 -0 3.6685e-05 -0 3.6685e-05)
(3.66754e-05 -1.88979e-14 -0 3.66754e-05 -0 3.66754e-05)
(3.66705e-05 4.47166e-15 -0 3.66705e-05 -0 3.66705e-05)
(3.66629e-05 -1.06404e-15 -0 3.66629e-05 -0 3.66629e-05)
(3.66582e-05 2.48173e-16 -0 3.66582e-05 -0 3.66582e-05)
(3.66526e-05 -6.15057e-17 -0 3.66526e-05 -0 3.66526e-05)
(3.66484e-05 1.30248e-17 -0 3.66484e-05 -0 3.66484e-05)
(3.66441e-05 -3.17228e-18 -0 3.66441e-05 -0 3.66441e-05)
(3.6641e-05 1.37936e-18 -0 3.6641e-05 -0 3.6641e-05)
(3.66379e-05 6.09249e-19 -0 3.66379e-05 -0 3.66379e-05)
(3.66359e-05 7.88836e-19 -0 3.66359e-05 -0 3.66359e-05)
(3.66341e-05 3.68922e-19 -0 3.66341e-05 -0 3.66341e-05)
(3.66331e-05 1.40381e-18 -0 3.66331e-05 -0 3.66331e-05)
(3.66324e-05 3.68936e-18 -0 3.66324e-05 -0 3.66324e-05)
(3.66321e-05 5.44741e-19 -0 3.66321e-05 -0 3.66321e-05)
(3.70109e-05 1.9896e-11 -0 3.70109e-05 -0 3.70109e-05)
(3.70103e-05 -2.56606e-11 -0 3.70103e-05 -0 3.70103e-05)
(3.69951e-05 6.0706e-12 -0 3.69951e-05 -0 3.69951e-05)
(3.69877e-05 -1.43676e-12 -0 3.69877e-05 -0 3.69877e-05)
(3.69772e-05 3.40202e-13 -0 3.69772e-05 -0 3.69772e-05)
(3.69708e-05 -8.06213e-14 -0 3.69708e-05 -0 3.69708e-05)
(3.69616e-05 1.90702e-14 -0 3.69616e-05 -0 3.69616e-05)
(3.69563e-05 -4.53465e-15 -0 3.69563e-05 -0 3.69563e-05)
(3.69487e-05 1.06618e-15 -0 3.69487e-05 -0 3.69487e-05)
(3.69439e-05 -2.58975e-16 -0 3.69439e-05 -0 3.69439e-05)
(3.69382e-05 5.72614e-17 -0 3.69382e-05 -0 3.69382e-05)
(3.69339e-05 -1.63755e-17 -0 3.69339e-05 -0 3.69339e-05)
(3.69298e-05 2.63076e-18 -0 3.69298e-05 -0 3.69298e-05)
(3.69264e-05 -7.85083e-19 -0 3.69264e-05 -0 3.69264e-05)
(3.69235e-05 6.65518e-19 -0 3.69235e-05 -0 3.69235e-05)
(3.69212e-05 3.42994e-19 -0 3.69212e-05 -0 3.69212e-05)
(3.69195e-05 1.67948e-19 -0 3.69195e-05 -0 3.69195e-05)
(3.69183e-05 1.39214e-18 -0 3.69183e-05 -0 3.69183e-05)
(3.69177e-05 3.35325e-18 -0 3.69177e-05 -0 3.69177e-05)
(3.69174e-05 2.92112e-19 -0 3.69174e-05 -0 3.69174e-05)
(3.73384e-05 -2.00791e-11 -0 3.73384e-05 -0 3.73384e-05)
(3.73376e-05 2.58433e-11 -0 3.73376e-05 -0 3.73376e-05)
(3.73218e-05 -6.11931e-12 -0 3.73218e-05 -0 3.73218e-05)
(3.73145e-05 1.44822e-12 -0 3.73145e-05 -0 3.73145e-05)
(3.73039e-05 -3.43207e-13 -0 3.73039e-05 -0 3.73039e-05)
(3.72974e-05 8.13609e-14 -0 3.72974e-05 -0 3.72974e-05)
(3.72882e-05 -1.92756e-14 -0 3.72882e-05 -0 3.72882e-05)
(3.72827e-05 4.56595e-15 -0 3.72827e-05 -0 3.72827e-05)
(3.72749e-05 -1.09253e-15 -0 3.72749e-05 -0 3.72749e-05)
(3.72703e-05 2.5148e-16 -0 3.72703e-05 -0 3.72703e-05)
(3.72638e-05 -6.57473e-17 -0 3.72638e-05 -0 3.72638e-05)
(3.72603e-05 1.18228e-17 -0 3.72603e-05 -0 3.72603e-05)
(3.72552e-05 -5.26409e-18 -0 3.72552e-05 -0 3.72552e-05)
(3.72526e-05 2.86295e-19 -0 3.72526e-05 -0 3.72526e-05)
(3.7249e-05 -8.84296e-20 -0 3.7249e-05 -0 3.7249e-05)
(3.72472e-05 -1.64494e-19 -0 3.72472e-05 -0 3.72472e-05)
(3.7245e-05 -1.6857e-19 -0 3.7245e-05 -0 3.7245e-05)
(3.72441e-05 1.13375e-18 -0 3.72441e-05 -0 3.72441e-05)
(3.72434e-05 2.70446e-18 -0 3.72434e-05 -0 3.72434e-05)
(3.72431e-05 2.45699e-19 -0 3.72431e-05 -0 3.72431e-05)
(3.77171e-05 2.02714e-11 -0 3.77171e-05 -0 3.77171e-05)
(3.77165e-05 -2.6041e-11 -0 3.77165e-05 -0 3.77165e-05)
(3.77008e-05 6.17175e-12 -0 3.77008e-05 -0 3.77008e-05)
(3.7693e-05 -1.46049e-12 -0 3.7693e-05 -0 3.7693e-05)
(3.76823e-05 3.4639e-13 -0 3.76823e-05 -0 3.76823e-05)
(3.76755e-05 -8.21892e-14 -0 3.76755e-05 -0 3.76755e-05)
(3.76662e-05 1.94457e-14 -0 3.76662e-05 -0 3.76662e-05)
(3.76603e-05 -4.64343e-15 -0 3.76603e-05 -0 3.76603e-05)
(3.76525e-05 1.08617e-15 -0 3.76525e-05 -0 3.76525e-05)
(3.76477e-05 -2.69267e-16 -0 3.76477e-05 -0 3.76477e-05)
(3.76413e-05 5.62034e-17 -0 3.76413e-05 -0 3.76413e-05)
(3.76373e-05 -1.86921e-17 -0 3.76373e-05 -0 3.76373e-05)
(3.76327e-05 1.01924e-18 -0 3.76327e-05 -0 3.76327e-05)
(3.76294e-05 -2.34628e-18 -0 3.76294e-05 -0 3.76294e-05)
(3.76263e-05 -6.72762e-19 -0 3.76263e-05 -0 3.76263e-05)
(3.7624e-05 -9.19587e-19 -0 3.7624e-05 -0 3.7624e-05)
(3.76221e-05 -9.00537e-19 -0 3.76221e-05 -0 3.76221e-05)
(3.7621e-05 4.08755e-19 -0 3.7621e-05 -0 3.7621e-05)
(3.76203e-05 2.01131e-18 -0 3.76203e-05 -0 3.76203e-05)
(3.762e-05 5.83664e-20 -0 3.762e-05 -0 3.762e-05)
(3.81535e-05 -2.04605e-11 -0 3.81535e-05 -0 3.81535e-05)
(3.81525e-05 2.62503e-11 -0 3.81525e-05 -0 3.81525e-05)
(3.81364e-05 -6.22524e-12 -0 3.81364e-05 -0 3.81364e-05)
(3.81288e-05 1.47307e-12 -0 3.81288e-05 -0 3.81288e-05)
(3.81172e-05 -3.4958e-13 -0 3.81172e-05 -0 3.81172e-05)
(3.81109e-05 8.2903e-14 -0 3.81109e-05 -0 3.81109e-05)
(3.81007e-05 -1.96778e-14 -0 3.81007e-05 -0 3.81007e-05)
(3.80955e-05 4.65417e-15 -0 3.80955e-05 -0 3.80955e-05)
(3.80867e-05 -1.12219e-15 -0 3.80867e-05 -0 3.80867e-05)
(3.80824e-05 2.54485e-16 -0 3.80824e-05 -0 3.80824e-05)
(3.80754e-05 -6.85429e-17 -0 3.80754e-05 -0 3.80754e-05)
(3.80719e-05 1.07909e-17 -0 3.80719e-05 -0 3.80719e-05)
(3.80665e-05 -6.13936e-18 -0 3.80665e-05 -0 3.80665e-05)
(3.80638e-05 -4.33977e-19 -0 3.80638e-05 -0 3.80638e-05)
(3.806e-05 -9.35688e-19 -0 3.806e-05 -0 3.806e-05)
(3.80582e-05 -4.8368e-19 -0 3.80582e-05 -0 3.80582e-05)
(3.80559e-05 -6.34665e-19 -0 3.80559e-05 -0 3.80559e-05)
(3.80549e-05 5.22766e-19 -0 3.80549e-05 -0 3.80549e-05)
(3.80542e-05 2.06939e-18 -0 3.80542e-05 -0 3.80542e-05)
(3.80539e-05 3.8157e-20 -0 3.80539e-05 -0 3.80539e-05)
(3.86272e-05 2.06437e-11 -0 3.86272e-05 -0 3.86272e-05)
(3.86261e-05 -2.64605e-11 -0 3.86261e-05 -0 3.86261e-05)
(3.86098e-05 6.27877e-12 -0 3.86098e-05 -0 3.86098e-05)
(3.86019e-05 -1.48624e-12 -0 3.86019e-05 -0 3.86019e-05)
(3.85901e-05 3.52661e-13 -0 3.85901e-05 -0 3.85901e-05)
(3.85834e-05 -8.38526e-14 -0 3.85834e-05 -0 3.85834e-05)
(3.85734e-05 1.98283e-14 -0 3.85734e-05 -0 3.85734e-05)
(3.85676e-05 -4.75446e-15 -0 3.85676e-05 -0 3.85676e-05)
(3.85592e-05 1.11028e-15 -0 3.85592e-05 -0 3.85592e-05)
(3.85544e-05 -2.77235e-16 -0 3.85544e-05 -0 3.85544e-05)
(3.85475e-05 5.833e-17 -0 3.85475e-05 -0 3.85475e-05)
(3.85436e-05 -1.90177e-17 -0 3.85436e-05 -0 3.85436e-05)
(3.85382e-05 1.42428e-18 -0 3.85382e-05 -0 3.85382e-05)
(3.85354e-05 -2.0519e-18 -0 3.85354e-05 -0 3.85354e-05)
(3.85315e-05 -5.45499e-19 -0 3.85315e-05 -0 3.85315e-05)
(3.85296e-05 -5.32775e-19 -0 3.85296e-05 -0 3.85296e-05)
(3.85273e-05 -8.08244e-20 -0 3.85273e-05 -0 3.85273e-05)
(3.85263e-05 4.24175e-19 -0 3.85263e-05 -0 3.85263e-05)
(3.85255e-05 1.54853e-18 -0 3.85255e-05 -0 3.85255e-05)
(3.85252e-05 -5.48224e-20 -0 3.85252e-05 -0 3.85252e-05)
(3.90602e-05 -2.08062e-11 -0 3.90602e-05 -0 3.90602e-05)
(3.90599e-05 2.66034e-11 -0 3.90599e-05 -0 3.90599e-05)
(3.90433e-05 -6.31206e-12 -0 3.90433e-05 -0 3.90433e-05)
(3.90359e-05 1.49135e-12 -0 3.90359e-05 -0 3.90359e-05)
(3.90239e-05 -3.53582e-13 -0 3.90239e-05 -0 3.90239e-05)
(3.90178e-05 8.37387e-14 -0 3.90178e-05 -0 3.90178e-05)
(3.90073e-05 -1.98296e-14 -0 3.90073e-05 -0 3.90073e-05)
(3.90021e-05 4.67973e-15 -0 3.90021e-05 -0 3.90021e-05)
(3.89933e-05 -1.12167e-15 -0 3.89933e-05 -0 3.89933e-05)
(3.89888e-05 2.5657e-16 -0 3.89888e-05 -0 3.89888e-05)
(3.89818e-05 -6.6403e-17 -0 3.89818e-05 -0 3.89818e-05)
(3.8978e-05 1.2451e-17 -0 3.8978e-05 -0 3.8978e-05)
(3.89727e-05 -4.73097e-18 -0 3.89727e-05 -0 3.89727e-05)
(3.89696e-05 -4.65281e-20 -0 3.89696e-05 -0 3.89696e-05)
(3.89659e-05 -3.60961e-19 -0 3.89659e-05 -0 3.89659e-05)
(3.89639e-05 -1.70424e-19 -0 3.89639e-05 -0 3.89639e-05)
(3.89616e-05 -5.36765e-19 -0 3.89616e-05 -0 3.89616e-05)
(3.89606e-05 -9.13709e-20 -0 3.89606e-05 -0 3.89606e-05)
(3.89598e-05 5.58467e-19 -0 3.89598e-05 -0 3.89598e-05)
(3.89595e-05 -1.27909e-19 -0 3.89595e-05 -0 3.89595e-05)
(3.92321e-05 2.06969e-11 -0 3.92321e-05 -0 3.92321e-05)
(3.92316e-05 -2.54346e-11 -0 3.92316e-05 -0 3.92316e-05)
(3.92314e-05 6.06387e-12 -0 3.92314e-05 -0 3.92314e-05)
(3.92312e-05 -1.43723e-12 -0 3.92312e-05 -0 3.92312e-05)
(3.9231e-05 3.42281e-13 -0 3.9231e-05 -0 3.9231e-05)
(3.92308e-05 -8.14003e-14 -0 3.92308e-05 -0 3.92308e-05)
(3.92306e-05 1.93672e-14 -0 3.92306e-05 -0 3.92306e-05)
(3.92305e-05 -4.60234e-15 -0 3.92305e-05 -0 3.92305e-05)
(3.92304e-05 1.10259e-15 -0 3.92304e-05 -0 3.92304e-05)
(3.92303e-05 -2.60073e-16 -0 3.92303e-05 -0 3.92303e-05)
(3.92303e-05 6.16753e-17 -0 3.92303e-05 -0 3.92303e-05)
(3.92302e-05 -1.67148e-17 -0 3.92302e-05 -0 3.92302e-05)
(3.92302e-05 1.58014e-18 -0 3.92302e-05 -0 3.92302e-05)
(3.92301e-05 -2.82996e-18 -0 3.92301e-05 -0 3.92301e-05)
(3.92301e-05 -1.57544e-18 -0 3.92301e-05 -0 3.92301e-05)
(3.92301e-05 -1.41448e-18 -0 3.92301e-05 -0 3.92301e-05)
(3.92301e-05 -1.08136e-18 -0 3.92301e-05 -0 3.92301e-05)
(3.92301e-05 9.33788e-21 -0 3.92301e-05 -0 3.92301e-05)
(3.92301e-05 1.06687e-18 -0 3.92301e-05 -0 3.92301e-05)
(3.92301e-05 1.91836e-19 -0 3.92301e-05 -0 3.92301e-05)
)
;

boundaryField
{
    movingWall
    {
        type            kqRWallFunction;
        value           nonuniform List<symmTensor> 
20
(
(3.92321e-05 0 -0 3.92321e-05 -0 3.92321e-05)
(3.92316e-05 -0 -0 3.92316e-05 -0 3.92316e-05)
(3.92314e-05 0 -0 3.92314e-05 -0 3.92314e-05)
(3.92312e-05 -0 -0 3.92312e-05 -0 3.92312e-05)
(3.9231e-05 0 -0 3.9231e-05 -0 3.9231e-05)
(3.92308e-05 -0 -0 3.92308e-05 -0 3.92308e-05)
(3.92306e-05 0 -0 3.92306e-05 -0 3.92306e-05)
(3.92305e-05 -0 -0 3.92305e-05 -0 3.92305e-05)
(3.92304e-05 0 -0 3.92304e-05 -0 3.92304e-05)
(3.92303e-05 -0 -0 3.92303e-05 -0 3.92303e-05)
(3.92303e-05 0 -0 3.92303e-05 -0 3.92303e-05)
(3.92302e-05 -0 -0 3.92302e-05 -0 3.92302e-05)
(3.92302e-05 -0 -0 3.92302e-05 -0 3.92302e-05)
(3.92301e-05 -0 -0 3.92301e-05 -0 3.92301e-05)
(3.92301e-05 -0 -0 3.92301e-05 -0 3.92301e-05)
(3.92301e-05 -0 -0 3.92301e-05 -0 3.92301e-05)
(3.92301e-05 -0 -0 3.92301e-05 -0 3.92301e-05)
(3.92301e-05 0 -0 3.92301e-05 -0 3.92301e-05)
(3.92301e-05 0 -0 3.92301e-05 -0 3.92301e-05)
(3.92301e-05 0 -0 3.92301e-05 -0 3.92301e-05)
)
;
    }
    fixedWalls
    {
        type            kqRWallFunction;
        value           nonuniform List<symmTensor> 
60
(
(1.8191e-05 -0 -0 1.8191e-05 -0 1.8191e-05)
(2.19727e-05 0 -0 2.19727e-05 -0 2.19727e-05)
(2.67245e-05 -0 -0 2.67245e-05 -0 2.67245e-05)
(3.04481e-05 0 -0 3.04481e-05 -0 3.04481e-05)
(3.28178e-05 -0 -0 3.28178e-05 -0 3.28178e-05)
(3.41866e-05 0 -0 3.41866e-05 -0 3.41866e-05)
(3.49626e-05 -0 -0 3.49626e-05 -0 3.49626e-05)
(3.54277e-05 0 -0 3.54277e-05 -0 3.54277e-05)
(3.57442e-05 -0 -0 3.57442e-05 -0 3.57442e-05)
(3.59969e-05 0 -0 3.59969e-05 -0 3.59969e-05)
(3.62301e-05 -0 -0 3.62301e-05 -0 3.62301e-05)
(3.64678e-05 0 -0 3.64678e-05 -0 3.64678e-05)
(3.67245e-05 -0 -0 3.67245e-05 -0 3.67245e-05)
(3.70109e-05 0 -0 3.70109e-05 -0 3.70109e-05)
(3.73384e-05 -0 -0 3.73384e-05 -0 3.73384e-05)
(3.77171e-05 0 -0 3.77171e-05 -0 3.77171e-05)
(3.81535e-05 -0 -0 3.81535e-05 -0 3.81535e-05)
(3.86272e-05 0 -0 3.86272e-05 -0 3.86272e-05)
(3.90602e-05 -0 -0 3.90602e-05 -0 3.90602e-05)
(3.92321e-05 0 -0 3.92321e-05 -0 3.92321e-05)
(1.819e-05 0 -0 1.819e-05 -0 1.819e-05)
(2.19409e-05 0 -0 2.19409e-05 -0 2.19409e-05)
(2.66771e-05 -0 -0 2.66771e-05 -0 2.66771e-05)
(3.03859e-05 -0 -0 3.03859e-05 -0 3.03859e-05)
(3.27449e-05 -0 -0 3.27449e-05 -0 3.27449e-05)
(3.41072e-05 -0 -0 3.41072e-05 -0 3.41072e-05)
(3.48792e-05 -0 -0 3.48792e-05 -0 3.48792e-05)
(3.5342e-05 -0 -0 3.5342e-05 -0 3.5342e-05)
(3.56568e-05 -0 -0 3.56568e-05 -0 3.56568e-05)
(3.59084e-05 -0 -0 3.59084e-05 -0 3.59084e-05)
(3.61404e-05 -0 -0 3.61404e-05 -0 3.61404e-05)
(3.63768e-05 -0 -0 3.63768e-05 -0 3.63768e-05)
(3.66321e-05 -0 -0 3.66321e-05 -0 3.66321e-05)
(3.69174e-05 -0 -0 3.69174e-05 -0 3.69174e-05)
(3.72431e-05 -0 -0 3.72431e-05 -0 3.72431e-05)
(3.762e-05 -0 -0 3.762e-05 -0 3.762e-05)
(3.80539e-05 -0 -0 3.80539e-05 -0 3.80539e-05)
(3.85252e-05 -0 -0 3.85252e-05 -0 3.85252e-05)
(3.89595e-05 -0 -0 3.89595e-05 -0 3.89595e-05)
(3.92301e-05 -0 -0 3.92301e-05 -0 3.92301e-05)
(1.8191e-05 -0 -0 1.8191e-05 -0 1.8191e-05)
(1.81909e-05 0 -0 1.81909e-05 -0 1.81909e-05)
(1.81908e-05 -0 -0 1.81908e-05 -0 1.81908e-05)
(1.81907e-05 0 -0 1.81907e-05 -0 1.81907e-05)
(1.81906e-05 -0 -0 1.81906e-05 -0 1.81906e-05)
(1.81905e-05 0 -0 1.81905e-05 -0 1.81905e-05)
(1.81904e-05 -0 -0 1.81904e-05 -0 1.81904e-05)
(1.81903e-05 0 -0 1.81903e-05 -0 1.81903e-05)
(1.81903e-05 -0 -0 1.81903e-05 -0 1.81903e-05)
(1.81902e-05 0 -0 1.81902e-05 -0 1.81902e-05)
(1.81902e-05 -0 -0 1.81902e-05 -0 1.81902e-05)
(1.81901e-05 -0 -0 1.81901e-05 -0 1.81901e-05)
(1.81901e-05 -0 -0 1.81901e-05 -0 1.81901e-05)
(1.81901e-05 -0 -0 1.81901e-05 -0 1.81901e-05)
(1.81901e-05 -0 -0 1.81901e-05 -0 1.81901e-05)
(1.819e-05 -0 -0 1.819e-05 -0 1.819e-05)
(1.819e-05 -0 -0 1.819e-05 -0 1.819e-05)
(1.819e-05 -0 -0 1.819e-05 -0 1.819e-05)
(1.819e-05 0 -0 1.819e-05 -0 1.819e-05)
(1.819e-05 0 -0 1.819e-05 -0 1.819e-05)
)
;
    }
    frontAndBack
    {
        type            empty;
    }
}


// ************************************************************************* //
