/*--------------------------------*- C++ -*----------------------------------*\
| =========                 |                                                 |
| \\      /  F ield         | OpenFOAM: The Open Source CFD Toolbox           |
|  \\    /   O peration     | Version:  2312                                  |
|   \\  /    A nd           | Website:  www.openfoam.com                      |
|    \\/     M anipulation  |                                                 |
\*---------------------------------------------------------------------------*/
FoamFile
{
    version     2.0;
    format      ascii;
    arch        "LSB;label=32;scalar=64";
    class       volScalarField;
    location    "4";
    object      turbulenceProperties:L;
}
// * * * * * * * * * * * * * * * * * * * * * * * * * * * * * * * * * * * * * //

dimensions      [0 1 0 0 0 0 0];

internalField   nonuniform List<scalar> 
400
(
0.00101941
0.0010194
0.0010194
0.00101941
0.0010194
0.00101941
0.0010194
0.00101941
0.0010194
0.00101941
0.0010194
0.0010194
0.00101941
0.0010194
0.00101941
0.0010194
0.00101941
0.0010194
0.0010194
0.0010194
0.00101815
0.00105335
0.00105015
0.00104885
0.00104625
0.00104487
0.00104235
0.00104091
0.00103846
0.00103696
0.00103455
0.00103302
0.00103065
0.00102909
0.00102675
0.00102517
0.00102285
0.00102127
0.00102009
0.00101815
0.00101708
0.00105681
0.00105314
0.00105165
0.00104868
0.00104711
0.00104425
0.0010426
0.00103984
0.00103813
0.00103543
0.00103369
0.00103104
0.00102928
0.00102667
0.0010249
0.0010223
0.00102055
0.00101924
0.00101709
0.00101651
0.00105955
0.00105564
0.00105396
0.00105079
0.00104905
0.00104596
0.00104418
0.00104116
0.00103933
0.00103638
0.00103452
0.00103162
0.00102974
0.00102689
0.00102499
0.00102217
0.00102028
0.00101886
0.00101653
0.00101626
0.00106135
0.0010572
0.00105549
0.00105212
0.00105034
0.00104706
0.00104522
0.00104205
0.00104013
0.00103706
0.00103509
0.00103207
0.00103009
0.00102711
0.00102512
0.00102218
0.00102019
0.00101871
0.00101627
0.00101612
0.00106233
0.00105813
0.00105632
0.00105291
0.00105105
0.00104772
0.00104581
0.00104256
0.00104061
0.00103743
0.00103544
0.00103233
0.00103031
0.00102725
0.00102522
0.0010222
0.00102016
0.00101864
0.00101615
0.00101607
0.00106291
0.00105859
0.00105681
0.00105332
0.00105146
0.00104806
0.00104614
0.00104285
0.00104085
0.00103767
0.00103561
0.0010325
0.00103042
0.00102734
0.00102527
0.00102222
0.00102015
0.00101861
0.00101609
0.00101602
0.00106321
0.00105891
0.00105708
0.00105356
0.00105169
0.00104826
0.00104634
0.001043
0.00104102
0.00103777
0.00103574
0.00103256
0.0010305
0.00102738
0.0010253
0.00102222
0.00102014
0.00101859
0.00101605
0.001016
0.00106343
0.00105907
0.00105726
0.00105371
0.00105184
0.00104839
0.00104645
0.00104311
0.0010411
0.00103786
0.0010358
0.00103262
0.00103054
0.0010274
0.00102531
0.00102222
0.00102013
0.00101858
0.00101602
0.00101596
0.00106356
0.00105924
0.00105738
0.00105384
0.00105195
0.00104848
0.00104655
0.00104318
0.00104118
0.0010379
0.00103586
0.00103265
0.00103057
0.00102742
0.00102533
0.00102222
0.00102012
0.00101856
0.00101599
0.00101594
0.0010637
0.00105936
0.00105749
0.00105395
0.00105204
0.00104858
0.00104661
0.00104326
0.00104122
0.00103797
0.00103588
0.0010327
0.00103058
0.00102745
0.00102532
0.00102222
0.0010201
0.00101854
0.00101597
0.00101591
0.00106385
0.00105946
0.0010576
0.00105405
0.00105213
0.00104868
0.00104669
0.00104332
0.00104129
0.001038
0.00103593
0.00103271
0.00103061
0.00102745
0.00102534
0.00102221
0.00102009
0.00101852
0.00101594
0.00101589
0.00106401
0.00105958
0.00105775
0.00105415
0.00105224
0.00104875
0.00104677
0.0010434
0.00104134
0.00103807
0.00103596
0.00103275
0.00103063
0.00102746
0.00102533
0.00102221
0.00102007
0.0010185
0.00101591
0.00101584
0.00106415
0.00105976
0.00105786
0.00105429
0.00105234
0.00104886
0.00104686
0.00104348
0.00104141
0.00103813
0.00103601
0.00103279
0.00103065
0.00102748
0.00102533
0.0010222
0.00102005
0.00101848
0.00101587
0.00101581
0.00106434
0.00105991
0.00105801
0.00105443
0.00105247
0.00104898
0.00104696
0.00104356
0.0010415
0.00103817
0.00103608
0.00103281
0.00103069
0.00102748
0.00102535
0.00102218
0.00102004
0.00101845
0.00101584
0.00101575
0.00106455
0.00106011
0.00105819
0.00105459
0.00105262
0.00104911
0.00104708
0.00104366
0.00104159
0.00103825
0.00103613
0.00103287
0.00103071
0.00102751
0.00102534
0.00102218
0.00102001
0.00101842
0.00101579
0.0010157
0.00106478
0.00106032
0.0010584
0.00105475
0.00105279
0.00104923
0.00104722
0.00104375
0.00104169
0.00103831
0.0010362
0.0010329
0.00103075
0.00102751
0.00102535
0.00102215
0.00101998
0.00101838
0.00101574
0.00101564
0.001065
0.00106052
0.00105858
0.00105492
0.00105294
0.00104938
0.00104734
0.00104387
0.00104178
0.00103839
0.00103626
0.00103294
0.00103078
0.00102752
0.00102534
0.00102213
0.00101994
0.00101833
0.00101567
0.00101557
0.00106402
0.00105969
0.00105785
0.0010543
0.00105239
0.00104892
0.00104694
0.00104356
0.00104149
0.00103821
0.00103606
0.00103284
0.00103065
0.00102747
0.00102525
0.0010221
0.00101986
0.00101827
0.0010156
0.00101556
0.00101556
0.00101556
0.00101556
0.00101556
0.00101556
0.00101556
0.00101556
0.00101556
0.00101556
0.00101556
0.00101556
0.00101556
0.00101556
0.00101556
0.00101556
0.00101556
0.00101556
0.00101556
0.00101556
)
;

boundaryField
{
    movingWall
    {
        type            calculated;
        value           nonuniform List<scalar> 
20
(
0.00101556
0.00101556
0.00101556
0.00101556
0.00101556
0.00101556
0.00101556
0.00101556
0.00101556
0.00101556
0.00101556
0.00101556
0.00101556
0.00101556
0.00101556
0.00101556
0.00101556
0.00101556
0.00101556
0.00101556
)
;
    }
    fixedWalls
    {
        type            calculated;
        value           nonuniform List<scalar> 
60
(
0.00101941
0.00101815
0.00101708
0.00101651
0.00101626
0.00101612
0.00101607
0.00101602
0.001016
0.00101596
0.00101594
0.00101591
0.00101589
0.00101584
0.00101581
0.00101575
0.0010157
0.00101564
0.00101557
0.00101556
0.0010194
0.00101815
0.00101709
0.00101653
0.00101627
0.00101615
0.00101609
0.00101605
0.00101602
0.00101599
0.00101597
0.00101594
0.00101591
0.00101587
0.00101584
0.00101579
0.00101574
0.00101567
0.0010156
0.00101556
0.00101941
0.0010194
0.0010194
0.00101941
0.0010194
0.00101941
0.0010194
0.00101941
0.0010194
0.00101941
0.0010194
0.0010194
0.00101941
0.0010194
0.00101941
0.0010194
0.00101941
0.0010194
0.0010194
0.0010194
)
;
    }
    frontAndBack
    {
        type            empty;
    }
}


// ************************************************************************* //
