/*--------------------------------*- C++ -*----------------------------------*\
| =========                 |                                                 |
| \\      /  F ield         | OpenFOAM: The Open Source CFD Toolbox           |
|  \\    /   O peration     | Version:  2312                                  |
|   \\  /    A nd           | Website:  www.openfoam.com                      |
|    \\/     M anipulation  |                                                 |
\*---------------------------------------------------------------------------*/
FoamFile
{
    version     2.0;
    format      ascii;
    arch        "LSB;label=32;scalar=64";
    class       volScalarField;
    location    "4";
    object      turbulenceProperties:nuTilda;
}
// * * * * * * * * * * * * * * * * * * * * * * * * * * * * * * * * * * * * * //

dimensions      [0 2 -1 0 0 0 0];

internalField   nonuniform List<scalar> 
400
(
2.91663e-06
2.91662e-06
2.91661e-06
2.9166e-06
2.91659e-06
2.91659e-06
2.91658e-06
2.91658e-06
2.91657e-06
2.91657e-06
2.91656e-06
2.91656e-06
2.91656e-06
2.91655e-06
2.91656e-06
2.91655e-06
2.91655e-06
2.91655e-06
2.91655e-06
2.91655e-06
3.20154e-06
3.31225e-06
3.30175e-06
3.29749e-06
3.28906e-06
3.28456e-06
3.2764e-06
3.27173e-06
3.26384e-06
3.25899e-06
3.25129e-06
3.24636e-06
3.23883e-06
3.23381e-06
3.22643e-06
3.22137e-06
3.21404e-06
3.20904e-06
3.20534e-06
3.19924e-06
3.52709e-06
3.66486e-06
3.65152e-06
3.64617e-06
3.6355e-06
3.62984e-06
3.6196e-06
3.61371e-06
3.60392e-06
3.59777e-06
3.58827e-06
3.58205e-06
3.57274e-06
3.56651e-06
3.55739e-06
3.55115e-06
3.54213e-06
3.536e-06
3.53146e-06
3.52399e-06
3.76268e-06
3.92197e-06
3.90685e-06
3.90029e-06
3.88813e-06
3.88142e-06
3.86963e-06
3.8628e-06
3.8513e-06
3.84437e-06
3.83317e-06
3.82614e-06
3.81523e-06
3.80814e-06
3.79747e-06
3.79037e-06
3.77987e-06
3.77282e-06
3.76755e-06
3.75893e-06
3.90539e-06
4.07868e-06
4.06192e-06
4.05505e-06
4.04154e-06
4.03445e-06
4.02141e-06
4.01408e-06
4.00157e-06
3.99396e-06
3.98188e-06
3.97414e-06
3.96231e-06
3.95458e-06
3.94297e-06
3.93528e-06
3.92386e-06
3.91619e-06
3.91047e-06
3.90111e-06
3.98548e-06
4.16668e-06
4.14941e-06
4.14193e-06
4.12803e-06
4.12041e-06
4.10689e-06
4.09915e-06
4.086e-06
4.07813e-06
4.06535e-06
4.05737e-06
4.04495e-06
4.03689e-06
4.02474e-06
4.01667e-06
4.00474e-06
3.99671e-06
3.99074e-06
3.98095e-06
4.03024e-06
4.21602e-06
4.19801e-06
4.19062e-06
4.17616e-06
4.16848e-06
4.15452e-06
4.14662e-06
4.13317e-06
4.125e-06
4.11211e-06
4.10371e-06
4.09117e-06
4.08274e-06
4.0704e-06
4.06206e-06
4.04989e-06
4.04163e-06
4.03553e-06
4.0255e-06
4.05676e-06
4.24512e-06
4.22714e-06
4.21946e-06
4.20478e-06
4.19703e-06
4.18279e-06
4.17487e-06
4.16111e-06
4.153e-06
4.13966e-06
4.13142e-06
4.11843e-06
4.11011e-06
4.09745e-06
4.08909e-06
4.07669e-06
4.06833e-06
4.06213e-06
4.05197e-06
4.07476e-06
4.26496e-06
4.24657e-06
4.23897e-06
4.22411e-06
4.21631e-06
4.20195e-06
4.19389e-06
4.1801e-06
4.17177e-06
4.15848e-06
4.14998e-06
4.13701e-06
4.12851e-06
4.11576e-06
4.1073e-06
4.09481e-06
4.08637e-06
4.08012e-06
4.06986e-06
4.08899e-06
4.28053e-06
4.26226e-06
4.2544e-06
4.23953e-06
4.23162e-06
4.21713e-06
4.20908e-06
4.19506e-06
4.18683e-06
4.17325e-06
4.16486e-06
4.15168e-06
4.14321e-06
4.13033e-06
4.12183e-06
4.10922e-06
4.10072e-06
4.09442e-06
4.08409e-06
4.10212e-06
4.29492e-06
4.27653e-06
4.26858e-06
4.25368e-06
4.24562e-06
4.23112e-06
4.22293e-06
4.20897e-06
4.20048e-06
4.18705e-06
4.17836e-06
4.16532e-06
4.15657e-06
4.1438e-06
4.13509e-06
4.1225e-06
4.11388e-06
4.10756e-06
4.09716e-06
4.11545e-06
4.30959e-06
4.29091e-06
4.283e-06
4.26801e-06
4.25987e-06
4.24541e-06
4.23706e-06
4.22297e-06
4.21451e-06
4.2008e-06
4.19223e-06
4.17895e-06
4.1703e-06
4.1573e-06
4.14866e-06
4.13589e-06
4.12728e-06
4.12089e-06
4.11042e-06
4.12981e-06
4.3254e-06
4.30645e-06
4.29864e-06
4.28335e-06
4.2753e-06
4.26055e-06
4.25223e-06
4.23809e-06
4.22947e-06
4.21584e-06
4.20705e-06
4.19377e-06
4.18496e-06
4.17193e-06
4.16317e-06
4.15037e-06
4.14166e-06
4.13524e-06
4.1247e-06
4.14568e-06
4.34282e-06
4.324e-06
4.31583e-06
4.30063e-06
4.29232e-06
4.27758e-06
4.26914e-06
4.25489e-06
4.2462e-06
4.23247e-06
4.22359e-06
4.21025e-06
4.20131e-06
4.18826e-06
4.17935e-06
4.16649e-06
4.15767e-06
4.15122e-06
4.14059e-06
4.16386e-06
4.36273e-06
4.34367e-06
4.33547e-06
4.32016e-06
4.31177e-06
4.29693e-06
4.28836e-06
4.27398e-06
4.26527e-06
4.25127e-06
4.24249e-06
4.22883e-06
4.22001e-06
4.20667e-06
4.19782e-06
4.18474e-06
4.17591e-06
4.16937e-06
4.15865e-06
4.18469e-06
4.38568e-06
4.3665e-06
4.35814e-06
4.34269e-06
4.33417e-06
4.31919e-06
4.3105e-06
4.29598e-06
4.28717e-06
4.27306e-06
4.26411e-06
4.25044e-06
4.24138e-06
4.22803e-06
4.21898e-06
4.20585e-06
4.19687e-06
4.19029e-06
4.17946e-06
4.20862e-06
4.41191e-06
4.39251e-06
4.38413e-06
4.36833e-06
4.35987e-06
4.34454e-06
4.33593e-06
4.32106e-06
4.31228e-06
4.2979e-06
4.28896e-06
4.27499e-06
4.26597e-06
4.25233e-06
4.24328e-06
4.22993e-06
4.22089e-06
4.21422e-06
4.20326e-06
4.23439e-06
4.44012e-06
4.42051e-06
4.412e-06
4.39605e-06
4.38743e-06
4.37202e-06
4.36319e-06
4.34828e-06
4.33928e-06
4.3248e-06
4.31569e-06
4.30158e-06
4.29242e-06
4.27863e-06
4.26946e-06
4.25594e-06
4.24679e-06
4.24003e-06
4.22894e-06
4.25779e-06
4.46088e-06
4.44181e-06
4.43364e-06
4.41809e-06
4.40975e-06
4.39464e-06
4.38602e-06
4.3714e-06
4.36247e-06
4.34832e-06
4.33912e-06
4.32535e-06
4.31599e-06
4.30246e-06
4.29308e-06
4.27973e-06
4.27032e-06
4.26362e-06
4.25243e-06
4.2671e-06
4.26706e-06
4.26707e-06
4.26704e-06
4.26704e-06
4.26702e-06
4.26701e-06
4.26702e-06
4.267e-06
4.26701e-06
4.26699e-06
4.267e-06
4.26698e-06
4.267e-06
4.26698e-06
4.26699e-06
4.26699e-06
4.26699e-06
4.26699e-06
4.26699e-06
)
;

boundaryField
{
    movingWall
    {
        type            calculated;
        value           nonuniform List<scalar> 
20
(
4.2671e-06
4.26706e-06
4.26707e-06
4.26704e-06
4.26704e-06
4.26702e-06
4.26701e-06
4.26702e-06
4.267e-06
4.26701e-06
4.26699e-06
4.267e-06
4.26698e-06
4.267e-06
4.26698e-06
4.26699e-06
4.26699e-06
4.26699e-06
4.26699e-06
4.26699e-06
)
;
    }
    fixedWalls
    {
        type            calculated;
        value           nonuniform List<scalar> 
60
(
2.91663e-06
3.20154e-06
3.52709e-06
3.76268e-06
3.90539e-06
3.98548e-06
4.03024e-06
4.05676e-06
4.07476e-06
4.08899e-06
4.10212e-06
4.11545e-06
4.12981e-06
4.14568e-06
4.16386e-06
4.18469e-06
4.20862e-06
4.23439e-06
4.25779e-06
4.2671e-06
2.91655e-06
3.19924e-06
3.52399e-06
3.75893e-06
3.90111e-06
3.98095e-06
4.0255e-06
4.05197e-06
4.06986e-06
4.08409e-06
4.09716e-06
4.11042e-06
4.1247e-06
4.14059e-06
4.15865e-06
4.17946e-06
4.20326e-06
4.22894e-06
4.25243e-06
4.26699e-06
2.91663e-06
2.91662e-06
2.91661e-06
2.9166e-06
2.91659e-06
2.91659e-06
2.91658e-06
2.91658e-06
2.91657e-06
2.91657e-06
2.91656e-06
2.91656e-06
2.91656e-06
2.91655e-06
2.91656e-06
2.91655e-06
2.91655e-06
2.91655e-06
2.91655e-06
2.91655e-06
)
;
    }
    frontAndBack
    {
        type            empty;
    }
}


// ************************************************************************* //
