/*--------------------------------*- C++ -*----------------------------------*\
| =========                 |                                                 |
| \\      /  F ield         | OpenFOAM: The Open Source CFD Toolbox           |
|  \\    /   O peration     | Version:  2312                                  |
|   \\  /    A nd           | Website:  www.openfoam.com                      |
|    \\/     M anipulation  |                                                 |
\*---------------------------------------------------------------------------*/
FoamFile
{
    version     2.0;
    format      ascii;
    arch        "LSB;label=32;scalar=64";
    class       volSymmTensorField;
    location    "4";
    object      turbulenceProperties:devReff;
}
// * * * * * * * * * * * * * * * * * * * * * * * * * * * * * * * * * * * * * //

dimensions      [0 2 -2 0 0 0 0];

internalField   nonuniform List<symmTensor> 
400
(
(-1.67984e-14 -6.07821e-11 -0 -1.36052e-14 -0 3.04036e-14)
(-2.11558e-14 7.54066e-11 -0 1.91178e-14 -0 2.03798e-15)
(7.19422e-14 -1.78673e-11 -0 -4.93994e-14 -0 -2.25428e-14)
(-3.06099e-14 4.23364e-12 -0 1.70086e-14 -0 1.36014e-14)
(1.63709e-14 -1.00437e-12 -0 -1.0681e-14 -0 -5.68992e-15)
(-3.741e-15 2.36797e-13 -0 1.83201e-15 -0 1.90899e-15)
(2.33906e-15 -5.67893e-14 -0 -1.64901e-15 -0 -6.90048e-16)
(-1.24824e-16 1.29183e-14 -0 -6.96469e-17 -0 1.94471e-16)
(4.20022e-16 -3.42098e-15 -0 -3.47797e-16 -0 -7.22246e-17)
(1.16439e-16 5.44473e-16 -0 -1.33447e-16 -0 1.70089e-17)
(1.29891e-16 -3.18209e-16 -0 -1.22542e-16 -0 -7.34951e-18)
(7.71298e-17 -6.13738e-17 -0 -7.79369e-17 -0 8.07121e-19)
(6.00702e-17 -8.17274e-17 -0 -5.92223e-17 -0 -8.47892e-19)
(4.31937e-17 -4.72926e-17 -0 -4.29745e-17 -0 -2.19172e-19)
(3.09466e-17 -3.36851e-17 -0 -3.1084e-17 -0 1.3741e-19)
(2.21397e-17 -2.15782e-17 -0 -2.25729e-17 -0 4.33225e-19)
(1.8413e-17 -1.24342e-17 -0 -1.79204e-17 -0 -4.92612e-19)
(1.37963e-17 -4.46911e-18 -0 -1.35884e-17 -0 -2.07885e-19)
(6.73741e-18 1.57077e-18 -0 -7.17295e-18 -0 4.35538e-19)
(4.88027e-20 1.12126e-18 -0 -9.76055e-20 -0 4.88027e-20)
(1.6766e-13 6.19487e-11 -0 1.99754e-14 -0 -1.87635e-13)
(-2.49487e-13 -7.76644e-11 -0 7.21296e-14 -0 1.77357e-13)
(5.3576e-14 1.83781e-11 -0 -9.67588e-15 -0 -4.39001e-14)
(-2.23811e-14 -4.34358e-12 -0 4.77984e-15 -0 1.76013e-14)
(6.87082e-15 1.02992e-12 -0 -1.93713e-15 -0 -4.93368e-15)
(-1.47494e-15 -2.41659e-13 -0 -1.02154e-16 -0 1.57709e-15)
(1.07307e-15 5.778e-14 -0 -5.67094e-16 -0 -5.0598e-16)
(6.63162e-17 -1.32231e-14 -0 -2.18248e-16 -0 1.51932e-16)
(2.61368e-16 3.32648e-15 -0 -2.12112e-16 -0 -4.92552e-17)
(1.15093e-16 -6.53408e-16 -0 -1.2884e-16 -0 1.37466e-17)
(1.04849e-16 2.31782e-16 -0 -9.97896e-17 -0 -5.05923e-18)
(6.99182e-17 -3.78941e-18 -0 -7.09001e-17 -0 9.81882e-19)
(5.50436e-17 3.40304e-17 -0 -5.41084e-17 -0 -9.35282e-19)
(4.00702e-17 1.46567e-17 -0 -3.99657e-17 -0 -1.0451e-19)
(2.90732e-17 1.1981e-17 -0 -2.94661e-17 -0 3.92934e-19)
(2.26816e-17 8.0034e-18 -0 -2.24278e-17 -0 -2.53821e-19)
(1.75337e-17 5.4665e-18 -0 -1.7159e-17 -0 -3.74664e-19)
(1.287e-17 4.57868e-18 -0 -1.28509e-17 -0 -1.90972e-20)
(6.45188e-18 5.1591e-18 -0 -6.461e-18 -0 9.11696e-21)
(-1.04481e-18 3.53203e-18 -0 6.58563e-19 -0 3.86251e-19)
(-3.16191e-13 -6.32937e-11 -0 2.71673e-14 -0 2.89024e-13)
(4.4389e-13 7.96707e-11 -0 -1.48407e-13 -0 -2.95484e-13)
(-1.11472e-13 -1.88301e-11 -0 4.21502e-14 -0 6.93221e-14)
(4.15279e-14 4.46564e-12 -0 -1.46833e-14 -0 -2.68445e-14)
(-1.26231e-14 -1.0544e-12 -0 5.26237e-15 -0 7.36071e-15)
(3.42203e-15 2.5063e-13 -0 -1.3956e-15 -0 -2.02643e-15)
(-1.1501e-15 -5.85899e-14 -0 4.52182e-16 -0 6.97917e-16)
(4.2944e-16 1.42927e-14 -0 -2.58147e-16 -0 -1.71293e-16)
(-6.22371e-18 -3.10297e-15 -0 -5.17125e-17 -0 5.79362e-17)
(1.13822e-16 9.07709e-16 -0 -9.93826e-17 -0 -1.44396e-17)
(5.80944e-17 -1.01148e-16 -0 -6.31521e-17 -0 5.05767e-18)
(5.62341e-17 9.92068e-17 -0 -5.5038e-17 -0 -1.19611e-18)
(4.15182e-17 2.72612e-17 -0 -4.18327e-17 -0 3.14525e-19)
(3.23342e-17 2.80809e-17 -0 -3.2309e-17 -0 -2.52199e-20)
(2.44328e-17 1.77897e-17 -0 -2.46124e-17 -0 1.79547e-19)
(1.89608e-17 1.27012e-17 -0 -1.88218e-17 -0 -1.38997e-19)
(1.51492e-17 7.89252e-18 -0 -1.48819e-17 -0 -2.67322e-19)
(1.11319e-17 7.20126e-18 -0 -1.12569e-17 -0 1.25059e-19)
(6.41519e-18 7.9909e-18 -0 -6.22851e-18 -0 -1.86685e-19)
(-1.00392e-18 4.34761e-18 -0 5.41573e-19 -0 4.6235e-19)
(8.0281e-13 6.40955e-11 -0 -3.16767e-13 -0 -4.86043e-13)
(-9.95096e-13 -8.10784e-11 -0 4.51286e-13 -0 5.43811e-13)
(2.26114e-13 1.913e-11 -0 -9.96277e-14 -0 -1.26486e-13)
(-9.3479e-14 -4.53477e-12 -0 4.30168e-14 -0 5.04622e-14)
(2.22568e-14 1.07103e-12 -0 -9.47931e-15 -0 -1.27775e-14)
(-7.54372e-15 -2.52557e-13 -0 3.5785e-15 -0 3.96522e-15)
(2.09498e-15 6.01849e-14 -0 -8.81715e-16 -0 -1.21327e-15)
(-6.5484e-16 -1.38277e-14 -0 3.07926e-16 -0 3.46914e-16)
(2.02764e-16 3.51716e-15 -0 -1.02923e-16 -0 -9.98407e-17)
(-2.85092e-17 -6.52204e-16 -0 -4.52296e-18 -0 3.30322e-17)
(4.92066e-17 2.75371e-16 -0 -4.14211e-17 -0 -7.78557e-18)
(2.56641e-17 2.05223e-17 -0 -2.88428e-17 -0 3.17863e-18)
(2.6874e-17 5.46955e-17 -0 -2.67868e-17 -0 -8.72619e-20)
(2.12185e-17 2.97207e-17 -0 -2.14779e-17 -0 2.59359e-19)
(1.78012e-17 2.31435e-17 -0 -1.76512e-17 -0 -1.49945e-19)
(1.36167e-17 1.53845e-17 -0 -1.37769e-17 -0 1.6027e-19)
(1.13317e-17 1.01531e-17 -0 -1.14584e-17 -0 1.26624e-19)
(9.67696e-18 9.8777e-18 -0 -9.64779e-18 -0 -2.91741e-20)
(5.24875e-18 1.23269e-17 -0 -5.27311e-18 -0 2.43644e-20)
(-6.20847e-21 5.22145e-18 -0 1.24169e-20 -0 -6.20847e-21)
(-1.31737e-12 -6.46754e-11 -0 6.22472e-13 -0 6.949e-13)
(1.58133e-12 8.19471e-11 -0 -7.71026e-13 -0 -8.10306e-13)
(-3.53464e-13 -1.93229e-11 -0 1.72384e-13 -0 1.8108e-13)
(1.46025e-13 4.58119e-12 -0 -7.08454e-14 -0 -7.51793e-14)
(-3.51423e-14 -1.0806e-12 -0 1.7403e-14 -0 1.77393e-14)
(1.08874e-14 2.55669e-13 -0 -5.14659e-15 -0 -5.74083e-15)
(-3.5632e-15 -6.01448e-14 -0 1.84369e-15 -0 1.71951e-15)
(8.2309e-16 1.44232e-14 -0 -3.56961e-16 -0 -4.66129e-16)
(-3.28342e-16 -3.20739e-15 -0 1.81532e-16 -0 1.46809e-16)
(6.76903e-17 9.05424e-16 -0 -2.8416e-17 -0 -3.92743e-17)
(-2.17933e-17 -1.01684e-16 -0 8.72051e-18 -0 1.30728e-17)
(1.58452e-17 1.05557e-16 -0 -1.27519e-17 -0 -3.0933e-18)
(7.76494e-18 3.54928e-17 -0 -9.4747e-18 -0 1.70975e-18)
(1.13031e-17 3.61659e-17 -0 -1.1259e-17 -0 -4.41073e-20)
(9.93997e-18 2.33584e-17 -0 -1.00539e-17 -0 1.13921e-19)
(8.57497e-18 1.64191e-17 -0 -8.84019e-18 -0 2.65213e-19)
(8.7655e-18 1.14212e-17 -0 -8.47324e-18 -0 -2.92264e-19)
(7.43617e-18 1.0576e-17 -0 -7.32835e-18 -0 -1.07814e-19)
(2.8185e-18 1.38356e-17 -0 -3.37474e-18 -0 5.56238e-19)
(-1.15495e-18 6.38029e-18 -0 8.02748e-19 -0 3.52207e-19)
(1.89987e-12 6.50374e-11 -0 -9.80412e-13 -0 -9.19459e-13)
(-2.2242e-12 -8.24613e-11 -0 1.12049e-12 -0 1.10371e-12)
(4.86623e-13 1.94393e-11 -0 -2.4493e-13 -0 -2.41693e-13)
(-2.05732e-13 -4.60903e-12 -0 1.03549e-13 -0 1.02183e-13)
(4.64058e-14 1.08699e-12 -0 -2.31324e-14 -0 -2.32734e-14)
(-1.57681e-14 -2.56801e-13 -0 8.06396e-15 -0 7.70419e-15)
(4.35627e-15 6.08293e-14 -0 -2.09222e-15 -0 -2.26405e-15)
(-1.35556e-15 -1.41826e-14 -0 7.39944e-16 -0 6.15614e-16)
(3.10687e-16 3.48459e-15 -0 -1.21977e-16 -0 -1.8871e-16)
(-1.48002e-16 -7.06142e-16 -0 9.29998e-17 -0 5.50027e-17)
(1.15388e-17 2.57856e-16 -0 3.60935e-18 -0 -1.51481e-17)
(-1.84312e-17 1.09457e-17 -0 1.32388e-17 -0 5.19242e-18)
(-1.19788e-19 5.17694e-17 -0 1.00095e-18 -0 -8.81166e-19)
(-3.29373e-21 2.99561e-17 -0 -7.54354e-19 -0 7.57647e-19)
(1.9825e-18 2.49586e-17 -0 -2.44444e-18 -0 4.61938e-19)
(3.24269e-18 1.70099e-17 -0 -3.44599e-18 -0 2.03305e-19)
(4.49073e-18 1.1261e-17 -0 -4.42626e-18 -0 -6.44653e-20)
(4.65738e-18 1.21725e-17 -0 -4.76219e-18 -0 1.04805e-19)
(1.89106e-18 1.52454e-17 -0 -2.26523e-18 -0 3.74177e-19)
(2.54391e-19 8.57041e-18 -0 2.49127e-19 -0 -5.03518e-19)
(-2.44678e-12 -6.5349e-11 -0 1.32175e-12 -0 1.12503e-12)
(2.82657e-12 8.27955e-11 -0 -1.446e-12 -0 -1.38057e-12)
(-6.12204e-13 -1.95246e-11 -0 3.14267e-13 -0 2.97937e-13)
(2.60127e-13 4.62894e-12 -0 -1.32247e-13 -0 -1.2788e-13)
(-5.85405e-14 -1.09209e-12 -0 3.00779e-14 -0 2.84626e-14)
(1.9349e-14 2.58188e-13 -0 -9.73688e-15 -0 -9.61208e-15)
(-5.84718e-15 -6.09683e-14 -0 3.05973e-15 -0 2.78745e-15)
(1.42064e-15 1.44571e-14 -0 -6.65615e-16 -0 -7.55025e-16)
(-5.56594e-16 -3.32713e-15 -0 3.21743e-16 -0 2.3485e-16)
(8.01437e-17 8.65359e-16 -0 -1.55668e-17 -0 -6.4577e-17)
(-7.2899e-17 -1.33319e-16 -0 5.32308e-17 -0 1.96683e-17)
(-1.02645e-17 8.89012e-17 -0 1.51771e-17 -0 -4.91257e-18)
(-1.55058e-17 2.68272e-17 -0 1.34422e-17 -0 2.06355e-18)
(-5.03771e-18 3.21867e-17 -0 5.49487e-18 -0 -4.57153e-19)
(-3.52442e-18 2.21167e-17 -0 3.23505e-18 -0 2.89369e-19)
(-2.4737e-18 1.73604e-17 -0 1.89818e-18 -0 5.75521e-19)
(1.05827e-18 1.16725e-17 -0 -5.9324e-19 -0 -4.65026e-19)
(2.0443e-18 1.26753e-17 -0 -1.80501e-18 -0 -2.39292e-19)
(2.68498e-19 1.63976e-17 -0 -5.36997e-19 -0 2.68498e-19)
(-1.87799e-18 8.90349e-18 -0 1.47501e-18 -0 4.02982e-19)
(2.94352e-12 6.56305e-11 -0 -1.63872e-12 -0 -1.30481e-12)
(-3.36215e-12 -8.30536e-11 -0 1.73586e-12 -0 1.62629e-12)
(7.21026e-13 1.95948e-11 -0 -3.73761e-13 -0 -3.47265e-13)
(-3.08949e-13 -4.64586e-12 -0 1.58505e-13 -0 1.50444e-13)
(6.7768e-14 1.09632e-12 -0 -3.48652e-14 -0 -3.29028e-14)
(-2.32107e-14 -2.59333e-13 -0 1.1977e-14 -0 1.12337e-14)
(6.4805e-15 6.13134e-14 -0 -3.2535e-15 -0 -3.227e-15)
(-1.89174e-15 -1.44326e-14 -0 1.02101e-15 -0 8.70733e-16)
(4.75555e-16 3.45689e-15 -0 -2.0493e-16 -0 -2.70625e-16)
(-2.09959e-16 -7.64962e-16 -0 1.34507e-16 -0 7.54523e-17)
(5.19878e-18 2.27895e-16 -0 1.64304e-17 -0 -2.16292e-17)
(-4.12056e-17 -1.15862e-17 -0 3.41491e-17 -0 7.05652e-18)
(-1.39986e-17 3.9611e-17 -0 1.57514e-17 -0 -1.7528e-18)
(-1.40139e-17 2.13029e-17 -0 1.27296e-17 -0 1.28432e-18)
(-7.52113e-18 1.9715e-17 -0 7.40002e-18 -0 1.21113e-19)
(-4.17935e-18 1.44131e-17 -0 4.53984e-18 -0 -3.60492e-19)
(-3.11263e-18 1.02536e-17 -0 3.17287e-18 -0 -6.02366e-20)
(-2.54024e-18 1.18953e-17 -0 2.02991e-18 -0 5.10338e-19)
(-1.93247e-18 1.66447e-17 -0 1.57801e-18 -0 3.54459e-19)
(-5.23248e-19 6.95662e-18 -0 1.0465e-18 -0 -5.23248e-19)
(-3.36895e-12 -6.59444e-11 -0 1.9128e-12 -0 1.45615e-12)
(3.82249e-12 8.32967e-11 -0 -1.98511e-12 -0 -1.83738e-12)
(-8.1552e-13 -1.96674e-11 -0 4.2574e-13 -0 3.8978e-13)
(3.50612e-13 4.66259e-12 -0 -1.80557e-13 -0 -1.70056e-13)
(-7.66977e-14 -1.10136e-12 -0 3.98462e-14 -0 3.68515e-14)
(2.60541e-14 2.60542e-13 -0 -1.33475e-14 -0 -1.27066e-14)
(-7.57945e-15 -6.16493e-14 -0 3.95239e-15 -0 3.62706e-15)
(1.92758e-15 1.45666e-14 -0 -9.4817e-16 -0 -9.79411e-16)
(-6.96441e-16 -3.4222e-15 -0 3.92028e-16 -0 3.04413e-16)
(1.17384e-16 8.36371e-16 -0 -3.34856e-17 -0 -8.38984e-17)
(-9.12767e-17 -1.66993e-16 -0 6.66559e-17 -0 2.46207e-17)
(-1.52886e-17 6.85654e-17 -0 2.21394e-17 -0 -6.85079e-18)
(-2.50839e-17 9.89998e-18 -0 2.3345e-17 -0 1.73897e-18)
(-1.49611e-17 2.10532e-17 -0 1.537e-17 -0 -4.08894e-19)
(-1.23146e-17 1.54744e-17 -0 1.16205e-17 -0 6.94113e-19)
(-6.51727e-18 1.11881e-17 -0 6.91646e-18 -0 -3.99197e-19)
(-5.69888e-18 6.96352e-18 -0 5.2851e-18 -0 4.13773e-19)
(-2.54545e-18 1.01836e-17 -0 2.80002e-18 -0 -2.54576e-19)
(-2.75901e-18 1.7239e-17 -0 2.46489e-18 -0 2.94126e-19)
(-2.08818e-18 6.77094e-18 -0 1.88817e-18 -0 2.00006e-19)
(3.68421e-12 6.6279e-11 -0 -2.12444e-12 -0 -1.55977e-12)
(-4.15303e-12 -8.35472e-11 -0 2.16617e-12 -0 1.98686e-12)
(8.80498e-13 1.97434e-11 -0 -4.61976e-13 -0 -4.18522e-13)
(-3.80147e-13 -4.68056e-12 -0 1.96475e-13 -0 1.83672e-13)
(8.20654e-14 1.10633e-12 -0 -4.26998e-14 -0 -3.93656e-14)
(-2.8279e-14 -2.61975e-13 -0 1.46356e-14 -0 1.36434e-14)
(7.91854e-15 6.19656e-14 -0 -4.04441e-15 -0 -3.87413e-15)
(-2.22618e-15 -1.46606e-14 -0 1.18485e-15 -0 1.04133e-15)
(6.02714e-16 3.47288e-15 -0 -2.78931e-16 -0 -3.23783e-16)
(-2.34738e-16 -8.08017e-16 -0 1.45697e-16 -0 8.90405e-17)
(1.32174e-17 2.09295e-16 -0 1.27502e-17 -0 -2.59676e-17)
(-4.60265e-17 -3.02631e-17 -0 3.83015e-17 -0 7.72499e-18)
(-1.92901e-17 2.46711e-17 -0 2.09355e-17 -0 -1.64536e-18)
(-1.85188e-17 1.0652e-17 -0 1.787e-17 -0 6.48797e-19)
(-1.25073e-17 1.28532e-17 -0 1.27584e-17 -0 -2.51167e-19)
(-1.07312e-17 9.50752e-18 -0 9.97916e-18 -0 7.52016e-19)
(-5.72843e-18 6.23655e-18 -0 6.10283e-18 -0 -3.744e-19)
(-4.58804e-18 9.80854e-18 -0 4.58968e-18 -0 -1.63454e-21)
(-2.48357e-18 1.52362e-17 -0 2.67495e-18 -0 -1.91386e-19)
(-1.44568e-18 5.8054e-18 -0 1.36436e-18 -0 8.13209e-20)
(-3.90926e-12 -6.66521e-11 -0 2.27976e-12 -0 1.6295e-12)
(4.38933e-12 8.38185e-11 -0 -2.29704e-12 -0 -2.09229e-12)
(-9.27852e-13 -1.98274e-11 -0 4.88704e-13 -0 4.39148e-13)
(4.01422e-13 4.69994e-12 -0 -2.07936e-13 -0 -1.93485e-13)
(-8.65478e-14 -1.11221e-12 -0 4.52303e-14 -0 4.13175e-14)
(2.97164e-14 2.63406e-13 -0 -1.53353e-14 -0 -1.4381e-14)
(-8.50273e-15 -6.24037e-14 -0 4.42895e-15 -0 4.07378e-15)
(2.20446e-15 1.47581e-14 -0 -1.10816e-15 -0 -1.0963e-15)
(-7.58256e-16 -3.49835e-15 -0 4.17338e-16 -0 3.40918e-16)
(1.48572e-16 8.31948e-16 -0 -5.38851e-17 -0 -9.46873e-17)
(-9.35656e-17 -1.89576e-16 -0 6.63854e-17 -0 2.71802e-17)
(-1.4475e-17 5.48841e-17 -0 2.20324e-17 -0 -7.55746e-18)
(-2.7624e-17 -9.68358e-19 -0 2.52997e-17 -0 2.32429e-18)
(-1.65596e-17 1.20967e-17 -0 1.70032e-17 -0 -4.43604e-19)
(-1.32955e-17 7.68123e-18 -0 1.35565e-17 -0 -2.60996e-19)
(-1.01893e-17 6.03205e-18 -0 1.04171e-17 -0 -2.27826e-19)
(-9.27388e-18 3.89703e-18 -0 8.5952e-18 -0 6.78685e-19)
(-4.98776e-18 8.01635e-18 -0 5.38483e-18 -0 -3.9707e-19)
(-3.69055e-18 1.44712e-17 -0 3.55724e-18 -0 1.33313e-19)
(-1.33416e-18 4.32641e-18 -0 1.13991e-18 -0 1.94256e-19)
(3.9919e-12 6.70487e-11 -0 -2.35159e-12 -0 -1.64031e-12)
(-4.46196e-12 -8.41115e-11 -0 2.34154e-12 -0 2.12042e-12)
(9.38536e-13 1.99169e-11 -0 -4.96041e-13 -0 -4.42495e-13)
(-4.07159e-13 -4.72093e-12 -0 2.11332e-13 -0 1.95826e-13)
(8.70524e-14 1.11824e-12 -0 -4.55609e-14 -0 -4.14914e-14)
(-3.00478e-14 -2.65066e-13 -0 1.55924e-14 -0 1.44554e-14)
(8.41347e-15 6.27802e-14 -0 -4.32816e-15 -0 -4.08532e-15)
(-2.32294e-15 -1.48991e-14 -0 1.22916e-15 -0 1.09378e-15)
(6.53773e-16 3.51956e-15 -0 -3.12918e-16 -0 -3.40855e-16)
(-2.34544e-16 -8.39351e-16 -0 1.41597e-16 -0 9.29479e-17)
(2.08892e-17 1.9873e-16 -0 6.72061e-18 -0 -2.76098e-17)
(-4.63877e-17 -4.49614e-17 -0 3.81506e-17 -0 8.23705e-18)
(-1.97288e-17 1.44327e-17 -0 2.17789e-17 -0 -2.05005e-18)
(-1.95874e-17 3.79787e-18 -0 1.92022e-17 -0 3.85142e-19)
(-1.50004e-17 5.64739e-18 -0 1.46515e-17 -0 3.48924e-19)
(-1.01877e-17 3.12854e-18 -0 1.04043e-17 -0 -2.16667e-19)
(-6.61135e-18 2.28842e-18 -0 7.09223e-18 -0 -4.80883e-19)
(-5.85774e-18 6.81593e-18 -0 5.58875e-18 -0 2.68988e-19)
(-4.19312e-18 1.2846e-17 -0 3.79327e-18 -0 3.99848e-19)
(2.50603e-19 4.77806e-18 -0 2.63722e-19 -0 -5.14325e-19)
(-3.97374e-12 -6.7463e-11 -0 2.35867e-12 -0 1.61506e-12)
(4.4302e-12 8.44225e-11 -0 -2.33007e-12 -0 -2.10012e-12)
(-9.30122e-13 -2.00113e-11 -0 4.92881e-13 -0 4.37241e-13)
(4.0397e-13 4.74295e-12 -0 -2.0998e-13 -0 -1.93991e-13)
(-8.64546e-14 -1.12466e-12 -0 4.53746e-14 -0 4.10799e-14)
(2.96847e-14 2.66691e-13 -0 -1.53705e-14 -0 -1.43142e-14)
(-8.46099e-15 -6.32535e-14 -0 4.41376e-15 -0 4.04722e-15)
(2.1995e-15 1.49877e-14 -0 -1.11461e-15 -0 -1.08489e-15)
(-7.4255e-16 -3.5747e-15 -0 4.05285e-16 -0 3.37265e-16)
(1.52565e-16 8.34943e-16 -0 -5.98304e-17 -0 -9.27344e-17)
(-8.74729e-17 -2.07397e-16 -0 6.08906e-17 -0 2.65822e-17)
(-1.14225e-17 4.39842e-17 -0 1.89941e-17 -0 -7.57165e-18)
(-2.59963e-17 -1.07365e-17 -0 2.42926e-17 -0 1.70371e-18)
(-1.61464e-17 4.67534e-18 -0 1.69135e-17 -0 -7.67065e-19)
(-1.42321e-17 2.0696e-18 -0 1.38672e-17 -0 3.64873e-19)
(-9.50471e-18 2.68363e-18 -0 9.79597e-18 -0 -2.91262e-19)
(-6.50627e-18 1.25781e-18 -0 6.87579e-18 -0 -3.6952e-19)
(-5.78866e-18 4.7933e-18 -0 5.44435e-18 -0 3.44309e-19)
(-2.04302e-18 1.26111e-17 -0 2.5535e-18 -0 -5.10475e-19)
(-1.75895e-18 1.86542e-18 -0 1.2208e-18 -0 5.3815e-19)
(3.80605e-12 6.7888e-11 -0 -2.27589e-12 -0 -1.53015e-12)
(-4.22837e-12 -8.47479e-11 -0 2.22822e-12 -0 2.00015e-12)
(8.83842e-13 2.01099e-11 -0 -4.69504e-13 -0 -4.14338e-13)
(-3.84724e-13 -4.7658e-12 -0 2.0025e-13 -0 1.84474e-13)
(8.17954e-14 1.13125e-12 -0 -4.29412e-14 -0 -3.88542e-14)
(-2.8152e-14 -2.68448e-13 -0 1.46513e-14 -0 1.35007e-14)
(7.87886e-15 6.3652e-14 -0 -4.05966e-15 -0 -3.81921e-15)
(-2.16278e-15 -1.51566e-14 -0 1.14558e-15 -0 1.01721e-15)
(6.13386e-16 3.57195e-15 -0 -2.9637e-16 -0 -3.17016e-16)
(-2.12066e-16 -8.68872e-16 -0 1.26029e-16 -0 8.6037e-17)
(2.41354e-17 1.92552e-16 -0 1.10794e-18 -0 -2.52434e-17)
(-3.7643e-17 -5.5147e-17 -0 3.05643e-17 -0 7.07865e-18)
(-1.43148e-17 8.87923e-18 -0 1.63041e-17 -0 -1.98934e-18)
(-1.67933e-17 -2.65375e-18 -0 1.58799e-17 -0 9.13385e-19)
(-1.15603e-17 2.25453e-18 -0 1.15834e-17 -0 -2.31161e-20)
(-8.7826e-18 1.16368e-18 -0 9.10989e-18 -0 -3.27294e-19)
(-7.0791e-18 5.71039e-19 -0 7.24649e-18 -0 -1.67394e-19)
(-6.01502e-18 4.74049e-18 -0 5.89013e-18 -0 1.24889e-19)
(-3.11086e-18 1.1431e-17 -0 3.15317e-18 -0 -4.23057e-20)
(3.76307e-19 9.97597e-19 -0 1.39479e-20 -0 -3.90255e-19)
(-3.53663e-12 -6.83014e-11 -0 2.12613e-12 -0 1.4105e-12)
(3.92246e-12 8.50799e-11 -0 -2.06993e-12 -0 -1.85253e-12)
(-8.18991e-13 -2.02072e-11 -0 4.35913e-13 -0 3.83079e-13)
(3.56473e-13 4.78863e-12 -0 -1.85616e-13 -0 -1.70858e-13)
(-7.6154e-14 -1.13764e-12 -0 4.01035e-14 -0 3.60505e-14)
(2.58964e-14 2.70056e-13 -0 -1.34189e-14 -0 -1.24775e-14)
(-7.42843e-15 -6.41345e-14 -0 3.88774e-15 -0 3.54069e-15)
(1.91386e-15 1.52133e-14 -0 -9.70311e-16 -0 -9.43546e-16)
(-6.41922e-16 -3.64878e-15 -0 3.49101e-16 -0 2.92821e-16)
(1.38747e-16 8.4108e-16 -0 -5.78707e-17 -0 -8.08764e-17)
(-7.15036e-17 -2.20401e-16 -0 4.79821e-17 -0 2.35216e-17)
(-4.59978e-18 3.96905e-17 -0 1.15158e-17 -0 -6.91604e-18)
(-1.85065e-17 -1.77122e-17 -0 1.6958e-17 -0 1.54852e-18)
(-1.19914e-17 9.64718e-19 -0 1.24197e-17 -0 -4.28331e-19)
(-1.01306e-17 -2.98643e-19 -0 1.02493e-17 -0 -1.18711e-19)
(-7.93629e-18 -5.56349e-19 -0 8.17593e-18 -0 -2.39637e-19)
(-6.50874e-18 -5.71389e-19 -0 6.86584e-18 -0 -3.57092e-19)
(-7.31269e-18 3.84874e-18 -0 6.94061e-18 -0 3.72084e-19)
(-3.23461e-18 9.19094e-18 -0 3.39672e-18 -0 -1.62115e-19)
(6.51285e-19 8.36513e-19 -0 -5.35028e-19 -0 -1.16257e-19)
(3.13999e-12 6.8713e-11 -0 -1.89863e-12 -0 -1.24136e-12)
(-3.472e-12 -8.54183e-11 -0 1.83456e-12 -0 1.63744e-12)
(7.21578e-13 2.03061e-11 -0 -3.84458e-13 -0 -3.3712e-13)
(-3.14891e-13 -4.81168e-12 -0 1.64155e-13 -0 1.50735e-13)
(6.67574e-14 1.14403e-12 -0 -3.50272e-14 -0 -3.17302e-14)
(-2.27894e-14 -2.7182e-13 -0 1.18903e-14 -0 1.08991e-14)
(6.38837e-15 6.44674e-14 -0 -3.28249e-15 -0 -3.10588e-15)
(-1.74672e-15 -1.54158e-14 -0 9.24849e-16 -0 8.21869e-16)
(5.00102e-16 3.61452e-15 -0 -2.43817e-16 -0 -2.56285e-16)
(-1.65043e-16 -8.97345e-16 -0 9.541e-17 -0 6.96331e-17)
(2.49951e-17 1.87733e-16 -0 -4.33922e-18 -0 -2.06558e-17)
(-2.58977e-17 -6.25279e-17 -0 2.00917e-17 -0 5.80595e-18)
(-7.23515e-18 3.41721e-18 -0 9.83518e-18 -0 -2.60004e-18)
(-1.01437e-17 -7.87816e-18 -0 1.0251e-17 -0 -1.07338e-19)
(-9.21473e-18 -2.26396e-18 -0 9.17382e-18 -0 4.0908e-20)
(-7.72728e-18 -3.09923e-18 -0 7.74644e-18 -0 -1.916e-20)
(-6.43835e-18 -3.04169e-18 -0 6.71589e-18 -0 -2.77544e-19)
(-6.16337e-18 1.38271e-18 -0 6.16982e-18 -0 -6.45446e-21)
(-2.47034e-18 6.81122e-18 -0 2.63291e-18 -0 -1.62568e-19)
(1.99577e-18 1.98017e-19 -0 -1.68554e-18 -0 -3.10237e-19)
(-2.64827e-12 -6.90761e-11 -0 1.60748e-12 -0 1.04079e-12)
(2.92516e-12 8.57489e-11 -0 -1.54611e-12 -0 -1.37906e-12)
(-6.08262e-13 -2.03976e-11 -0 3.25488e-13 -0 2.82775e-13)
(2.6461e-13 4.83308e-12 -0 -1.37785e-13 -0 -1.26825e-13)
(-5.68277e-14 -1.14984e-12 -0 3.00808e-14 -0 2.67469e-14)
(1.89196e-14 2.73053e-13 -0 -9.83364e-15 -0 -9.08594e-15)
(-5.49367e-15 -6.49709e-14 -0 2.88299e-15 -0 2.61068e-15)
(1.41469e-15 1.53881e-14 -0 -7.28743e-16 -0 -6.8595e-16)
(-4.55806e-16 -3.71922e-15 -0 2.43954e-16 -0 2.11852e-16)
(1.10621e-16 8.44627e-16 -0 -5.21024e-17 -0 -5.85187e-17)
(-4.35179e-17 -2.28023e-16 -0 2.73538e-17 -0 1.61641e-17)
(3.45845e-18 3.59505e-17 -0 2.37836e-18 -0 -5.83682e-18)
(-1.04691e-17 -2.05004e-17 -0 9.33042e-18 -0 1.13866e-18)
(-4.89134e-18 -1.45128e-18 -0 5.91587e-18 -0 -1.02454e-18)
(-8.33365e-18 -3.1361e-18 -0 7.39585e-18 -0 9.378e-19)
(-4.92648e-18 -1.62355e-18 -0 5.22019e-18 -0 -2.93705e-19)
(-4.31891e-18 -2.13508e-18 -0 4.78079e-18 -0 -4.6188e-19)
(-5.2268e-18 1.76129e-18 -0 5.05719e-18 -0 1.6961e-19)
(-1.25548e-18 6.97989e-18 -0 1.74041e-18 -0 -4.8493e-19)
(2.02615e-18 1.28937e-19 -0 -1.74241e-18 -0 -2.83735e-19)
(2.09029e-12 6.9396e-11 -0 -1.27864e-12 -0 -8.11648e-13)
(-2.30066e-12 -8.60546e-11 -0 1.21951e-12 -0 1.08115e-12)
(4.73547e-13 2.04825e-11 -0 -2.51456e-13 -0 -2.22091e-13)
(-2.06564e-13 -4.85488e-12 -0 1.06631e-13 -0 9.99325e-14)
(4.38139e-14 1.15488e-12 -0 -2.26296e-14 -0 -2.11842e-14)
(-1.45657e-14 -2.74973e-13 -0 7.39283e-15 -0 7.17288e-15)
(4.20361e-15 6.51811e-14 -0 -2.12214e-15 -0 -2.08146e-15)
(-1.08579e-15 -1.56512e-14 -0 5.34895e-16 -0 5.50893e-16)
(3.48048e-16 3.66365e-15 -0 -1.76511e-16 -0 -1.71537e-16)
(-8.81574e-17 -9.16131e-16 -0 4.10586e-17 -0 4.70988e-17)
(2.8427e-17 1.93203e-16 -0 -1.41438e-17 -0 -1.42832e-17)
(-1.16948e-17 -6.30842e-17 -0 7.0924e-18 -0 4.60238e-18)
(-1.34943e-18 4.73535e-18 -0 2.69885e-18 -0 -1.34943e-18)
(-4.09049e-18 -6.83219e-18 -0 4.307e-18 -0 -2.16518e-19)
(-4.01913e-18 -1.82044e-18 -0 4.16802e-18 -0 -1.48896e-19)
(-3.83196e-18 -1.78065e-18 -0 3.79617e-18 -0 3.57871e-20)
(-2.40034e-18 -2.70734e-19 -0 3.25504e-18 -0 -8.54704e-19)
(-4.5746e-18 1.42299e-18 -0 4.51527e-18 -0 5.93226e-20)
(-2.81998e-18 5.2007e-18 -0 2.55215e-18 -0 2.6783e-19)
(1.41788e-18 -1.84459e-19 -0 -1.29305e-18 -0 -1.24829e-19)
(-1.48371e-12 -6.96724e-11 -0 9.34524e-13 -0 5.49186e-13)
(1.6449e-12 8.62406e-11 -0 -9.1193e-13 -0 -7.32972e-13)
(-3.46925e-13 -2.05226e-11 -0 1.98085e-13 -0 1.4884e-13)
(1.47825e-13 4.85508e-12 -0 -8.21061e-14 -0 -6.57192e-14)
(-3.16811e-14 -1.15389e-12 -0 1.828e-14 -0 1.34012e-14)
(1.04074e-14 2.73633e-13 -0 -5.98146e-15 -0 -4.42594e-15)
(-2.86513e-15 -6.49518e-14 -0 1.61164e-15 -0 1.25348e-15)
(8.02726e-16 1.53494e-14 -0 -4.87902e-16 -0 -3.14824e-16)
(-1.9791e-16 -3.68758e-15 -0 1.0211e-16 -0 9.58009e-17)
(7.88944e-17 8.44698e-16 -0 -5.26791e-17 -0 -2.62154e-17)
(-6.10906e-18 -2.19112e-16 -0 5.50757e-19 -0 5.5583e-18)
(8.63431e-18 4.11457e-17 -0 -5.60874e-18 -0 -3.02557e-18)
(-1.7134e-18 -1.56687e-17 -0 1.87363e-18 -0 -1.60238e-19)
(-2.10147e-18 -1.54332e-19 -0 2.6508e-18 -0 -5.4933e-19)
(-3.82155e-18 -1.19992e-18 -0 3.76641e-18 -0 5.51403e-20)
(-1.86101e-18 -5.674e-19 -0 2.9472e-18 -0 -1.08619e-18)
(-3.13785e-18 -1.79097e-18 -0 3.95337e-18 -0 -8.15528e-19)
(-5.81652e-18 -3.05338e-19 -0 5.44428e-18 -0 3.72243e-19)
(-1.17436e-18 1.86831e-18 -0 1.57548e-18 -0 -4.01126e-19)
(1.72379e-18 -4.287e-19 -0 -1.90233e-18 -0 1.78537e-19)
(7.13577e-13 6.92004e-11 -0 -4.44141e-13 -0 -2.69436e-13)
(-8.45177e-13 -8.50414e-11 -0 4.79959e-13 -0 3.65218e-13)
(2.48037e-13 2.02747e-11 -0 -1.44308e-13 -0 -1.03728e-13)
(-1.10724e-13 -4.80546e-12 -0 6.24297e-14 -0 4.82945e-14)
(3.23592e-14 1.14443e-12 -0 -1.89491e-14 -0 -1.34101e-14)
(-1.05735e-14 -2.72166e-13 -0 6.00048e-15 -0 4.57306e-15)
(3.5011e-15 6.47556e-14 -0 -2.07941e-15 -0 -1.42169e-15)
(-9.22351e-16 -1.53882e-14 -0 5.10559e-16 -0 4.11793e-16)
(3.54666e-16 3.68657e-15 -0 -2.21306e-16 -0 -1.33359e-16)
(-6.70393e-17 -8.69569e-16 -0 3.12142e-17 -0 3.58251e-17)
(4.04442e-17 2.06216e-16 -0 -2.75228e-17 -0 -1.29214e-17)
(-2.6234e-18 -5.58869e-17 -0 -1.67105e-19 -0 2.79051e-18)
(3.92488e-18 5.28332e-18 -0 -2.43586e-18 -0 -1.48902e-18)
(3.43339e-20 -9.46217e-18 -0 7.04748e-19 -0 -7.39082e-19)
(-2.22795e-18 -5.2676e-18 -0 2.13566e-18 -0 9.22909e-20)
(-2.47073e-18 -4.72942e-18 -0 2.62122e-18 -0 -1.50489e-19)
(-4.98506e-18 -3.6156e-18 -0 4.55621e-18 -0 4.28846e-19)
(-5.55844e-18 3.12219e-20 -0 5.70298e-18 -0 -1.44536e-19)
(-1.81629e-18 3.56716e-18 -0 2.08575e-18 -0 -2.6946e-19)
(4.25282e-18 6.41418e-19 -0 -3.86515e-18 -0 -3.8767e-19)
)
;

boundaryField
{
    movingWall
    {
        type            calculated;
        value           nonuniform List<symmTensor> 
20
(
(1.68808e-10 4.61445e-11 -0 -3.36928e-10 -0 1.68119e-10)
(-4.06815e-11 -5.89943e-11 -0 8.05146e-11 -0 -3.98331e-11)
(9.68882e-12 1.39467e-11 -0 -1.91311e-11 -0 9.44226e-12)
(-2.34258e-12 -3.29718e-12 -0 4.57369e-12 -0 -2.23112e-12)
(5.6183e-13 7.7913e-13 -0 -1.09158e-12 -0 5.29749e-13)
(-1.35636e-13 -1.83482e-13 -0 2.60656e-13 -0 -1.2502e-13)
(3.30357e-14 4.34394e-14 -0 -6.2621e-14 -0 2.95853e-14)
(-7.93175e-15 -1.0108e-14 -0 1.49284e-14 -0 -6.99662e-15)
(1.98722e-15 2.42636e-15 -0 -3.63238e-15 -0 1.64516e-15)
(-4.62151e-16 -5.46989e-16 -0 8.52202e-16 -0 -3.90051e-16)
(1.27712e-16 1.30722e-16 -0 -2.1802e-16 -0 9.03074e-17)
(-2.53902e-17 -3.61906e-17 -0 4.69857e-17 -0 -2.15955e-17)
(8.79734e-18 -8.41794e-19 -0 -1.38e-17 -0 5.00264e-18)
(-1.05901e-18 -1.0289e-17 -0 2.66012e-18 -0 -1.60111e-18)
(-9.37724e-19 -8.50819e-18 -0 2.49145e-19 -0 6.88579e-19)
(-1.50836e-18 -6.55063e-18 -0 1.39042e-18 -0 1.17942e-19)
(-3.27234e-18 -4.80673e-18 -0 2.74997e-18 -0 5.22367e-19)
(-3.92954e-18 2.1884e-20 -0 4.06437e-18 -0 -1.34833e-19)
(-1.40698e-18 5.31488e-18 -0 1.72976e-18 -0 -3.22777e-19)
(3.0993e-18 1.68384e-18 -0 -2.94599e-18 -0 -1.53307e-19)
)
;
    }
    fixedWalls
    {
        type            calculated;
        value           nonuniform List<symmTensor> 
60
(
(1.62313e-13 -2.47626e-10 -0 -9.81923e-14 -0 -6.41208e-14)
(8.88604e-13 2.47436e-10 -0 -3.65671e-13 -0 -5.22933e-13)
(-1.52428e-12 -2.47083e-10 -0 6.65351e-13 -0 8.58931e-13)
(3.20684e-12 2.46738e-10 -0 -1.54192e-12 -0 -1.66492e-12)
(-4.96671e-12 -2.46586e-10 -0 2.45731e-12 -0 2.5094e-12)
(6.90792e-12 2.46578e-10 -0 -3.47575e-12 -0 -3.43217e-12)
(-8.72657e-12 -2.46724e-10 -0 4.43339e-12 -0 4.29318e-12)
(1.03496e-11 2.46997e-10 -0 -5.29355e-12 -0 -5.05601e-12)
(-1.17422e-11 -2.47394e-10 -0 6.03332e-12 -0 5.70887e-12)
(1.27391e-11 2.47889e-10 -0 -6.56996e-12 -0 -6.16917e-12)
(-1.34459e-11 -2.48469e-10 -0 6.95349e-12 -0 6.49238e-12)
(1.36508e-11 2.4911e-10 -0 -7.07733e-12 -0 -6.57342e-12)
(-1.35355e-11 -2.49784e-10 -0 7.03088e-12 -0 6.50461e-12)
(1.29006e-11 2.50471e-10 -0 -6.71391e-12 -0 -6.18672e-12)
(-1.19487e-11 -2.51131e-10 -0 6.22699e-12 -0 5.72173e-12)
(1.05586e-11 2.51754e-10 -0 -5.51098e-12 -0 -5.04761e-12)
(-8.87904e-12 -2.52288e-10 -0 4.63894e-12 -0 4.2401e-12)
(6.96532e-12 2.52721e-10 -0 -3.6467e-12 -0 -3.31862e-12)
(-4.89928e-12 -2.53079e-10 -0 2.58477e-12 -0 2.31451e-12)
(2.63142e-12 2.5294e-10 -0 -1.37693e-12 -0 -1.25448e-12)
(3.77831e-20 1.86624e-19 -0 -7.55662e-20 -0 3.77831e-20)
(-1.25301e-18 5.82176e-19 -0 7.29658e-19 -0 5.23349e-19)
(-1.20376e-18 -2.25995e-19 -0 6.31172e-19 -0 5.72592e-19)
(-1.18875e-18 -6.19186e-19 -0 6.01144e-19 -0 5.87607e-19)
(1.66832e-18 -7.9517e-19 -0 -6.72109e-19 -0 -9.96213e-19)
(4.12673e-19 -1.83192e-19 -0 6.28315e-20 -0 -4.75505e-19)
(-1.43902e-18 -7.8764e-19 -0 1.10168e-18 -0 3.37339e-19)
(-3.72367e-19 -2.79608e-18 -0 7.44733e-19 -0 -3.72367e-19)
(-3.99949e-19 -3.56394e-18 -0 7.99898e-19 -0 -3.99949e-19)
(-3.03661e-19 -4.65367e-18 -0 6.07322e-19 -0 -3.03661e-19)
(-2.23603e-19 -5.65696e-18 -0 4.47206e-19 -0 -2.23603e-19)
(4.08319e-19 -5.18213e-18 -0 7.15395e-20 -0 -4.79859e-19)
(-2.52958e-18 -7.03081e-18 -0 1.50644e-18 -0 1.02314e-18)
(1.08896e-18 -7.504e-18 -0 -4.01555e-19 -0 -6.87401e-19)
(6.90709e-19 -7.0604e-18 -0 -4.93239e-19 -0 -1.97469e-19)
(2.09966e-18 -6.37036e-18 -0 -1.53479e-18 -0 -5.64871e-19)
(2.11869e-18 -5.12055e-18 -0 -1.57285e-18 -0 -5.45845e-19)
(2.05003e-18 -4.31635e-18 -0 -1.43552e-18 -0 -6.14506e-19)
(1.67091e-18 -3.47852e-18 -0 -1.56546e-18 -0 -1.05451e-19)
(3.18095e-18 -8.54242e-19 -0 -2.80919e-18 -0 -3.71761e-19)
(1.65196e-10 -4.71487e-11 -0 -3.30428e-10 -0 1.65232e-10)
(-3.92004e-11 5.82817e-11 -0 7.83828e-11 -0 -3.91824e-11)
(9.35445e-12 -1.37909e-11 -0 -1.86357e-11 -0 9.2813e-12)
(-2.22923e-12 3.25291e-12 -0 4.42423e-12 -0 -2.195e-12)
(5.35977e-13 -7.72036e-13 -0 -1.05488e-12 -0 5.18898e-13)
(-1.26968e-13 1.79737e-13 -0 2.49562e-13 -0 -1.22594e-13)
(3.12653e-14 -4.3831e-14 -0 -6.01854e-14 -0 2.89202e-14)
(-7.0688e-15 9.33394e-15 -0 1.38904e-14 -0 -6.8216e-15)
(1.98403e-15 -2.85151e-15 -0 -3.58697e-15 -0 1.60294e-15)
(-3.00258e-16 2.08858e-16 -0 6.77494e-16 -0 -3.77236e-16)
(1.94613e-16 -3.72129e-16 -0 -2.82974e-16 -0 8.83613e-17)
(3.83019e-17 -1.42066e-16 -0 -1.75149e-17 -0 -2.07871e-17)
(5.20778e-17 -1.27197e-16 -0 -5.69929e-17 -0 4.91504e-18)
(3.24744e-17 -8.15676e-17 -0 -3.13385e-17 -0 -1.1359e-18)
(2.4309e-17 -5.48312e-17 -0 -2.47656e-17 -0 4.56589e-19)
(1.70893e-17 -3.62931e-17 -0 -1.73734e-17 -0 2.84129e-19)
(1.42865e-17 -2.126e-17 -0 -1.39363e-17 -0 -3.50239e-19)
(1.05953e-17 -8.89314e-18 -0 -1.03487e-17 -0 -2.46677e-19)
(5.44308e-18 1.21609e-18 -0 -6.00725e-18 -0 5.64171e-19)
(1.24416e-19 8.68084e-19 -0 -2.48832e-19 -0 1.24416e-19)
)
;
    }
    frontAndBack
    {
        type            empty;
    }
}


// ************************************************************************* //
