/*--------------------------------*- C++ -*----------------------------------*\
| =========                 |                                                 |
| \\      /  F ield         | OpenFOAM: The Open Source CFD Toolbox           |
|  \\    /   O peration     | Version:  2312                                  |
|   \\  /    A nd           | Website:  www.openfoam.com                      |
|    \\/     M anipulation  |                                                 |
\*---------------------------------------------------------------------------*/
FoamFile
{
    version     2.0;
    format      ascii;
    arch        "LSB;label=32;scalar=64";
    class       volScalarField;
    location    "4";
    object      turbulenceProperties:nuEff;
}
// * * * * * * * * * * * * * * * * * * * * * * * * * * * * * * * * * * * * * //

dimensions      [0 2 -1 0 0 0 0];

internalField   nonuniform List<scalar> 
400
(
1.29166e-05
1.29166e-05
1.29166e-05
1.29166e-05
1.29166e-05
1.29166e-05
1.29166e-05
1.29166e-05
1.29166e-05
1.29166e-05
1.29166e-05
1.29166e-05
1.29166e-05
1.29166e-05
1.29166e-05
1.29165e-05
1.29166e-05
1.29166e-05
1.29166e-05
1.29166e-05
1.32015e-05
1.33122e-05
1.33017e-05
1.32975e-05
1.32891e-05
1.32846e-05
1.32764e-05
1.32717e-05
1.32638e-05
1.3259e-05
1.32513e-05
1.32464e-05
1.32388e-05
1.32338e-05
1.32264e-05
1.32214e-05
1.3214e-05
1.3209e-05
1.32053e-05
1.31992e-05
1.35271e-05
1.36649e-05
1.36515e-05
1.36462e-05
1.36355e-05
1.36298e-05
1.36196e-05
1.36137e-05
1.36039e-05
1.35978e-05
1.35883e-05
1.35821e-05
1.35727e-05
1.35665e-05
1.35574e-05
1.35512e-05
1.35421e-05
1.3536e-05
1.35315e-05
1.3524e-05
1.37627e-05
1.3922e-05
1.39069e-05
1.39003e-05
1.38881e-05
1.38814e-05
1.38696e-05
1.38628e-05
1.38513e-05
1.38444e-05
1.38332e-05
1.38261e-05
1.38152e-05
1.38081e-05
1.37975e-05
1.37904e-05
1.37799e-05
1.37728e-05
1.37676e-05
1.37589e-05
1.39054e-05
1.40787e-05
1.40619e-05
1.40551e-05
1.40415e-05
1.40345e-05
1.40214e-05
1.40141e-05
1.40016e-05
1.3994e-05
1.39819e-05
1.39741e-05
1.39623e-05
1.39546e-05
1.3943e-05
1.39353e-05
1.39239e-05
1.39162e-05
1.39105e-05
1.39011e-05
1.39855e-05
1.41667e-05
1.41494e-05
1.41419e-05
1.4128e-05
1.41204e-05
1.41069e-05
1.40991e-05
1.4086e-05
1.40781e-05
1.40653e-05
1.40574e-05
1.40449e-05
1.40369e-05
1.40247e-05
1.40167e-05
1.40047e-05
1.39967e-05
1.39907e-05
1.3981e-05
1.40302e-05
1.4216e-05
1.4198e-05
1.41906e-05
1.41762e-05
1.41685e-05
1.41545e-05
1.41466e-05
1.41332e-05
1.4125e-05
1.41121e-05
1.41037e-05
1.40912e-05
1.40827e-05
1.40704e-05
1.40621e-05
1.40499e-05
1.40416e-05
1.40355e-05
1.40255e-05
1.40568e-05
1.42451e-05
1.42271e-05
1.42195e-05
1.42048e-05
1.4197e-05
1.41828e-05
1.41749e-05
1.41611e-05
1.4153e-05
1.41397e-05
1.41314e-05
1.41184e-05
1.41101e-05
1.40974e-05
1.40891e-05
1.40767e-05
1.40683e-05
1.40621e-05
1.4052e-05
1.40748e-05
1.4265e-05
1.42466e-05
1.4239e-05
1.42241e-05
1.42163e-05
1.42019e-05
1.41939e-05
1.41801e-05
1.41718e-05
1.41585e-05
1.415e-05
1.4137e-05
1.41285e-05
1.41158e-05
1.41073e-05
1.40948e-05
1.40864e-05
1.40801e-05
1.40699e-05
1.4089e-05
1.42805e-05
1.42623e-05
1.42544e-05
1.42395e-05
1.42316e-05
1.42171e-05
1.42091e-05
1.41951e-05
1.41868e-05
1.41732e-05
1.41649e-05
1.41517e-05
1.41432e-05
1.41303e-05
1.41218e-05
1.41092e-05
1.41007e-05
1.40944e-05
1.40841e-05
1.41021e-05
1.42949e-05
1.42765e-05
1.42686e-05
1.42537e-05
1.42456e-05
1.42311e-05
1.42229e-05
1.4209e-05
1.42005e-05
1.4187e-05
1.41784e-05
1.41653e-05
1.41566e-05
1.41438e-05
1.41351e-05
1.41225e-05
1.41139e-05
1.41076e-05
1.40972e-05
1.41154e-05
1.43096e-05
1.42909e-05
1.4283e-05
1.4268e-05
1.42599e-05
1.42454e-05
1.42371e-05
1.4223e-05
1.42145e-05
1.42008e-05
1.41922e-05
1.41789e-05
1.41703e-05
1.41573e-05
1.41487e-05
1.41359e-05
1.41273e-05
1.41209e-05
1.41104e-05
1.41298e-05
1.43254e-05
1.43065e-05
1.42986e-05
1.42833e-05
1.42753e-05
1.42606e-05
1.42522e-05
1.42381e-05
1.42295e-05
1.42158e-05
1.42071e-05
1.41938e-05
1.4185e-05
1.41719e-05
1.41632e-05
1.41504e-05
1.41417e-05
1.41352e-05
1.41247e-05
1.41457e-05
1.43428e-05
1.4324e-05
1.43158e-05
1.43006e-05
1.42923e-05
1.42776e-05
1.42691e-05
1.42549e-05
1.42462e-05
1.42325e-05
1.42236e-05
1.42103e-05
1.42013e-05
1.41883e-05
1.41793e-05
1.41665e-05
1.41577e-05
1.41512e-05
1.41406e-05
1.41639e-05
1.43627e-05
1.43437e-05
1.43355e-05
1.43202e-05
1.43118e-05
1.42969e-05
1.42884e-05
1.4274e-05
1.42653e-05
1.42513e-05
1.42425e-05
1.42288e-05
1.422e-05
1.42067e-05
1.41978e-05
1.41847e-05
1.41759e-05
1.41694e-05
1.41587e-05
1.41847e-05
1.43857e-05
1.43665e-05
1.43581e-05
1.43427e-05
1.43342e-05
1.43192e-05
1.43105e-05
1.4296e-05
1.42872e-05
1.42731e-05
1.42641e-05
1.42504e-05
1.42414e-05
1.4228e-05
1.4219e-05
1.42058e-05
1.41969e-05
1.41903e-05
1.41795e-05
1.42086e-05
1.44119e-05
1.43925e-05
1.43841e-05
1.43683e-05
1.43599e-05
1.43445e-05
1.43359e-05
1.43211e-05
1.43123e-05
1.42979e-05
1.4289e-05
1.4275e-05
1.4266e-05
1.42523e-05
1.42433e-05
1.42299e-05
1.42209e-05
1.42142e-05
1.42033e-05
1.42344e-05
1.44401e-05
1.44205e-05
1.4412e-05
1.43961e-05
1.43874e-05
1.4372e-05
1.43632e-05
1.43483e-05
1.43393e-05
1.43248e-05
1.43157e-05
1.43016e-05
1.42924e-05
1.42786e-05
1.42695e-05
1.42559e-05
1.42468e-05
1.424e-05
1.42289e-05
1.42578e-05
1.44609e-05
1.44418e-05
1.44336e-05
1.44181e-05
1.44097e-05
1.43946e-05
1.4386e-05
1.43714e-05
1.43625e-05
1.43483e-05
1.43391e-05
1.43253e-05
1.4316e-05
1.43025e-05
1.42931e-05
1.42797e-05
1.42703e-05
1.42636e-05
1.42524e-05
1.42671e-05
1.42671e-05
1.42671e-05
1.4267e-05
1.4267e-05
1.4267e-05
1.4267e-05
1.4267e-05
1.4267e-05
1.4267e-05
1.4267e-05
1.4267e-05
1.4267e-05
1.4267e-05
1.4267e-05
1.4267e-05
1.4267e-05
1.4267e-05
1.4267e-05
1.4267e-05
)
;

boundaryField
{
    movingWall
    {
        type            calculated;
        value           uniform 1e-05;
    }
    fixedWalls
    {
        type            calculated;
        value           uniform 1e-05;
    }
    frontAndBack
    {
        type            empty;
    }
}


// ************************************************************************* //
