/*--------------------------------*- C++ -*----------------------------------*\
| =========                 |                                                 |
| \\      /  F ield         | OpenFOAM: The Open Source CFD Toolbox           |
|  \\    /   O peration     | Version:  2312                                  |
|   \\  /    A nd           | Website:  www.openfoam.com                      |
|    \\/     M anipulation  |                                                 |
\*---------------------------------------------------------------------------*/
FoamFile
{
    version     2.0;
    format      ascii;
    arch        "LSB;label=32;scalar=64";
    class       volScalarField;
    location    "4";
    object      turbulenceProperties:I;
}
// * * * * * * * * * * * * * * * * * * * * * * * * * * * * * * * * * * * * * //

dimensions      [0 0 0 0 0 0 0];

internalField   nonuniform List<scalar> 
400
(
0.00426509
0.00426508
0.00426506
0.00426505
0.00426504
0.00426503
0.00426502
0.00426501
0.00426501
0.004265
0.004265
0.00426499
0.00426499
0.00426498
0.00426498
0.00426498
0.00426498
0.00426498
0.00426498
0.00426498
0.00468751
0.00468752
0.00468689
0.00468669
0.00468628
0.00468606
0.00468573
0.00468552
0.00468527
0.00468507
0.00468487
0.00468471
0.00468457
0.00468442
0.00468435
0.00468423
0.00468419
0.00468414
0.00468412
0.00468411
0.00516957
0.00516957
0.00516872
0.00516845
0.00516789
0.0051676
0.00516715
0.00516687
0.00516655
0.00516626
0.00516602
0.00516578
0.0051656
0.00516541
0.0051653
0.00516515
0.0051651
0.00516502
0.005165
0.00516499
0.00551798
0.00551792
0.00551701
0.00551656
0.00551595
0.00551554
0.00551502
0.00551469
0.00551423
0.00551395
0.00551358
0.00551335
0.00551307
0.00551289
0.0055127
0.00551258
0.00551246
0.0055124
0.00551236
0.00551234
0.00572868
0.00572865
0.00572753
0.00572712
0.00572634
0.00572597
0.0057253
0.00572496
0.00572445
0.00572412
0.00572373
0.00572345
0.00572314
0.00572294
0.00572271
0.00572259
0.00572245
0.00572238
0.00572234
0.00572232
0.00584693
0.00584686
0.00584576
0.00584522
0.00584448
0.00584401
0.00584335
0.00584297
0.00584239
0.00584208
0.00584161
0.00584136
0.005841
0.00584081
0.00584056
0.00584042
0.00584027
0.00584021
0.00584015
0.00584013
0.00591291
0.00591289
0.00591164
0.00591118
0.00591033
0.0059099
0.00590918
0.00590879
0.00590821
0.00590785
0.00590743
0.00590709
0.00590679
0.00590653
0.00590631
0.00590615
0.00590601
0.00590593
0.00590588
0.00590586
0.00595211
0.00595205
0.00595087
0.00595034
0.00594948
0.00594905
0.00594828
0.00594793
0.00594729
0.00594699
0.00594646
0.00594622
0.00594582
0.00594563
0.00594535
0.00594522
0.00594506
0.00594499
0.00594493
0.00594491
0.00597865
0.00597861
0.00597733
0.00597685
0.00597596
0.00597553
0.00597476
0.00597438
0.00597377
0.00597341
0.00597295
0.00597264
0.00597228
0.00597205
0.00597178
0.00597164
0.00597148
0.00597141
0.00597135
0.00597133
0.00599974
0.00599967
0.00599848
0.00599792
0.00599705
0.0059966
0.00599582
0.00599545
0.00599479
0.00599449
0.00599395
0.0059937
0.00599329
0.0059931
0.00599281
0.00599268
0.00599251
0.00599244
0.00599238
0.00599236
0.00601914
0.00601907
0.00601787
0.00601729
0.00601644
0.00601595
0.00601519
0.00601479
0.00601418
0.0060138
0.00601334
0.00601301
0.00601268
0.00601241
0.00601218
0.00601199
0.00601186
0.00601176
0.00601171
0.00601169
0.00603885
0.00603879
0.00603752
0.00603697
0.00603612
0.00603561
0.0060349
0.00603446
0.00603383
0.00603348
0.00603295
0.00603267
0.00603228
0.00603206
0.00603178
0.00603164
0.00603147
0.0060314
0.00603134
0.00603132
0.00606007
0.00606003
0.0060587
0.0060582
0.00605727
0.00605681
0.00605602
0.00605561
0.00605499
0.0060546
0.00605414
0.00605379
0.00605344
0.00605318
0.00605293
0.00605276
0.00605261
0.00605253
0.00605247
0.00605245
0.00608366
0.00608361
0.00608236
0.00608175
0.00608089
0.00608036
0.0060796
0.00607917
0.00607855
0.00607815
0.00607768
0.00607733
0.00607699
0.00607671
0.00607647
0.00607628
0.00607614
0.00607604
0.00607599
0.00607597
0.00611052
0.00611045
0.00610916
0.00610856
0.0061077
0.00610716
0.00610641
0.00610595
0.00610532
0.00610494
0.00610441
0.00610412
0.0061037
0.00610349
0.00610319
0.00610305
0.00610287
0.0061028
0.00610273
0.00610271
0.00614143
0.00614137
0.0061401
0.00613946
0.00613859
0.00613803
0.00613728
0.0061368
0.00613616
0.00613578
0.00613525
0.00613493
0.00613455
0.00613428
0.00613403
0.00613384
0.00613369
0.0061336
0.00613354
0.00613351
0.00617685
0.00617677
0.00617547
0.00617485
0.00617391
0.0061734
0.00617257
0.00617216
0.00617144
0.0061711
0.00617052
0.00617024
0.00616981
0.00616959
0.00616928
0.00616913
0.00616895
0.00616887
0.00616881
0.00616878
0.00621508
0.00621499
0.00621368
0.00621304
0.00621209
0.00621155
0.00621075
0.00621028
0.00620961
0.00620922
0.00620866
0.00620835
0.00620792
0.00620769
0.00620738
0.00620723
0.00620704
0.00620696
0.00620689
0.00620687
0.00624981
0.0062498
0.00624846
0.00624787
0.00624691
0.00624642
0.00624558
0.00624517
0.00624446
0.0062441
0.00624354
0.00624323
0.00624282
0.00624257
0.00624227
0.00624211
0.00624193
0.00624184
0.00624178
0.00624176
0.00626355
0.00626351
0.0062635
0.00626348
0.00626347
0.00626345
0.00626344
0.00626343
0.00626342
0.00626341
0.00626341
0.0062634
0.0062634
0.00626339
0.00626339
0.00626339
0.00626339
0.00626339
0.00626339
0.00626339
)
;

boundaryField
{
    movingWall
    {
        type            calculated;
        value           nonuniform List<scalar> 
20
(
0.00626355
0.00626351
0.0062635
0.00626348
0.00626347
0.00626345
0.00626344
0.00626343
0.00626342
0.00626341
0.00626341
0.0062634
0.0062634
0.00626339
0.00626339
0.00626339
0.00626339
0.00626339
0.00626339
0.00626339
)
;
    }
    fixedWalls
    {
        type            calculated;
        value           nonuniform List<scalar> 
60
(
0.00426509
0.00468751
0.00516957
0.00551798
0.00572868
0.00584693
0.00591291
0.00595211
0.00597865
0.00599974
0.00601914
0.00603885
0.00606007
0.00608366
0.00611052
0.00614143
0.00617685
0.00621508
0.00624981
0.00626355
0.00426498
0.00468411
0.00516499
0.00551234
0.00572232
0.00584013
0.00590586
0.00594491
0.00597133
0.00599236
0.00601169
0.00603132
0.00605245
0.00607597
0.00610271
0.00613351
0.00616878
0.00620687
0.00624176
0.00626339
0.00426509
0.00426508
0.00426506
0.00426505
0.00426504
0.00426503
0.00426502
0.00426501
0.00426501
0.004265
0.004265
0.00426499
0.00426499
0.00426498
0.00426498
0.00426498
0.00426498
0.00426498
0.00426498
0.00426498
)
;
    }
    frontAndBack
    {
        type            empty;
    }
}


// ************************************************************************* //
