/*--------------------------------*- C++ -*----------------------------------*\
| =========                 |                                                 |
| \\      /  F ield         | OpenFOAM: The Open Source CFD Toolbox           |
|  \\    /   O peration     | Version:  2312                                  |
|   \\  /    A nd           | Website:  www.openfoam.com                      |
|    \\/     M anipulation  |                                                 |
\*---------------------------------------------------------------------------*/
FoamFile
{
    version     2.0;
    format      ascii;
    arch        "LSB;label=32;scalar=64";
    class       volTensorField;
    location    "4";
    object      U2;
}
// * * * * * * * * * * * * * * * * * * * * * * * * * * * * * * * * * * * * * //

dimensions      [0 2 -2 0 0 0 0];

internalField   nonuniform List<tensor> 
400
(
(1 -6.2918e-08 -0 -6.19576e-08 3.89825e-15 0 -0 0 0)
(1 1.49226e-08 -0 1.46957e-08 2.19298e-16 -0 -0 -0 0)
(1 -3.54345e-09 -0 -3.48963e-09 1.23653e-17 0 -0 0 0)
(1 8.40137e-10 -0 8.27403e-10 6.95132e-19 -0 -0 -0 0)
(1 -1.99732e-10 -0 -1.96722e-10 3.92917e-20 0 -0 0 0)
(1 4.72324e-11 -0 4.65194e-11 2.19722e-21 -0 -0 -0 0)
(1 -1.13063e-11 -0 -1.11382e-11 1.25932e-22 0 -0 0 0)
(1 2.62898e-12 -0 2.589e-12 6.80644e-24 -0 -0 -0 0)
(1 -6.57856e-13 -0 -6.48738e-13 4.26776e-25 0 -0 0 0)
(1 1.34221e-13 -0 1.31841e-13 1.76958e-26 -0 -0 -0 0)
(1 -4.68188e-14 -0 -4.6417e-14 2.17319e-27 0 -0 0 0)
(1 6.68349e-16 -0 4.09025e-16 2.73371e-31 -0 -0 -0 0)
(1 -7.68709e-15 -0 -7.73849e-15 5.94864e-29 0 -0 0 0)
(1 -3.71808e-15 -0 -3.77532e-15 1.4037e-29 0 -0 0 0)
(1 -3.21541e-15 -0 -3.15278e-15 1.01375e-29 0 -0 0 0)
(1 -2.20477e-15 -0 -2.20719e-15 4.86635e-30 0 -0 0 0)
(1 -1.6171e-15 -0 -1.69825e-15 2.74625e-30 0 -0 0 0)
(1 -1.26432e-15 -0 -1.26275e-15 1.59652e-30 0 -0 0 0)
(1 -8.98019e-16 -0 -8.21428e-16 7.37658e-31 0 -0 0 0)
(1 5.55594e-16 -0 -4.6656e-17 -2.59218e-32 0 -0 -0 0)
(1 6.2901e-08 -0 6.19406e-08 3.89613e-15 -0 -0 -0 0)
(1 -1.49157e-08 -0 -1.4689e-08 2.19098e-16 0 -0 0 0)
(1 3.5329e-09 -0 3.47923e-09 1.22918e-17 -0 -0 -0 0)
(1 -8.38753e-10 -0 -8.26084e-10 6.92881e-19 0 -0 0 0)
(1 1.97776e-10 -0 1.9479e-10 3.85246e-20 -0 -0 -0 0)
(1 -4.72533e-11 -0 -4.65492e-11 2.1996e-21 0 -0 0 0)
(1 1.09337e-11 -0 1.0767e-11 1.17723e-22 -0 -0 -0 0)
(1 -2.72926e-12 -0 -2.69124e-12 7.3451e-24 0 -0 0 0)
(1 5.51931e-13 -0 5.42064e-13 2.99182e-25 -0 -0 -0 0)
(1 -1.9175e-13 -0 -1.90083e-13 3.64485e-26 0 -0 0 0)
(1 2.6892e-15 -0 1.82604e-15 4.91061e-30 -0 -0 -0 0)
(1 -3.06496e-14 -0 -3.08908e-14 9.46791e-28 0 -0 0 0)
(1 -1.4569e-14 -0 -1.48583e-14 2.1647e-28 0 -0 0 0)
(1 -1.25868e-14 -0 -1.27753e-14 1.608e-28 0 -0 0 0)
(1 -8.94924e-15 -0 -8.93302e-15 7.99437e-29 0 -0 0 0)
(1 -6.68288e-15 -0 -6.69848e-15 4.47652e-29 0 -0 0 0)
(1 -4.84234e-15 -0 -5.04804e-15 2.44443e-29 0 -0 0 0)
(1 -3.84853e-15 -0 -3.91684e-15 1.50741e-29 0 -0 0 0)
(1 -2.48753e-15 -0 -2.12382e-15 5.28305e-30 0 -0 0 0)
(1 1.59488e-15 -0 -1.00187e-17 -1.59787e-32 0 -0 -0 0)
(1 -6.28399e-08 -0 -6.1879e-08 3.88847e-15 0 -0 0 0)
(1 1.48826e-08 -0 1.46561e-08 2.18122e-16 -0 -0 -0 0)
(1 -3.53043e-09 -0 -3.47677e-09 1.22745e-17 0 -0 0 0)
(1 8.35232e-10 -0 8.22582e-10 6.87047e-19 -0 -0 -0 0)
(1 -1.98577e-10 -0 -1.95594e-10 3.88404e-20 0 -0 0 0)
(1 4.65946e-11 -0 4.58874e-11 2.1381e-21 -0 -0 -0 0)
(1 -1.13249e-11 -0 -1.11612e-11 1.264e-22 0 -0 0 0)
(1 2.49032e-12 -0 2.44954e-12 6.10012e-24 -0 -0 -0 0)
(1 -7.17999e-13 -0 -7.1013e-13 5.09872e-25 0 -0 0 0)
(1 8.11065e-14 -0 7.80715e-14 6.33211e-27 -0 -0 -0 0)
(1 -8.19693e-14 -0 -8.21608e-14 6.73467e-27 0 -0 0 0)
(1 -2.59597e-14 -0 -2.67237e-14 6.93738e-28 0 -0 0 0)
(1 -2.73135e-14 -0 -2.78207e-14 7.5988e-28 0 -0 0 0)
(1 -1.85999e-14 -0 -1.88357e-14 3.50342e-28 0 -0 0 0)
(1 -1.44579e-14 -0 -1.44404e-14 2.08779e-28 0 -0 0 0)
(1 -1.06056e-14 -0 -1.05928e-14 1.12344e-28 0 -0 0 0)
(1 -7.79576e-15 -0 -8.04921e-15 6.27497e-29 0 -0 0 0)
(1 -6.0063e-15 -0 -6.11997e-15 3.67584e-29 0 -0 0 0)
(1 -3.89264e-15 -0 -3.27124e-15 1.27337e-29 0 -0 0 0)
(1 2.60135e-15 -0 5.64986e-17 1.46973e-31 -0 -0 -0 0)
(1 6.28054e-08 -0 6.18438e-08 3.88412e-15 -0 -0 -0 0)
(1 -1.48616e-08 -0 -1.46352e-08 2.17503e-16 0 -0 0 0)
(1 3.52293e-09 -0 3.46928e-09 1.2222e-17 -0 -0 -0 0)
(1 -8.34239e-10 -0 -8.21628e-10 6.85435e-19 0 -0 0 0)
(1 1.97004e-10 -0 1.9402e-10 3.82228e-20 -0 -0 -0 0)
(1 -4.70155e-11 -0 -4.63178e-11 2.17766e-21 0 -0 0 0)
(1 1.08452e-11 -0 1.06768e-11 1.15791e-22 -0 -0 -0 0)
(1 -2.75939e-12 -0 -2.72314e-12 7.51421e-24 0 -0 0 0)
(1 5.12795e-13 -0 5.01764e-13 2.57302e-25 -0 -0 -0 0)
(1 -2.22064e-13 -0 -2.21317e-13 4.91465e-26 0 -0 0 0)
(1 -2.17481e-14 -0 -2.32727e-14 5.06138e-28 0 -0 0 0)
(1 -4.99909e-14 -0 -5.07118e-14 2.53513e-27 0 -0 0 0)
(1 -2.9779e-14 -0 -3.03847e-14 9.04826e-28 0 -0 0 0)
(1 -2.4564e-14 -0 -2.46736e-14 6.06084e-28 0 -0 0 0)
(1 -1.8156e-14 -0 -1.80763e-14 3.28194e-28 0 -0 0 0)
(1 -1.36093e-14 -0 -1.35919e-14 1.84976e-28 0 -0 0 0)
(1 -1.0076e-14 -0 -1.0444e-14 1.05234e-28 0 -0 0 0)
(1 -7.92477e-15 -0 -8.12119e-15 6.43585e-29 0 -0 0 0)
(1 -5.1623e-15 -0 -4.35633e-15 2.24887e-29 0 -0 0 0)
(1 3.61473e-15 -0 1.92712e-17 6.96601e-32 -0 -0 -0 0)
(1 -6.27809e-08 -0 -6.18175e-08 3.88095e-15 0 -0 0 0)
(1 1.48497e-08 -0 1.46229e-08 2.17146e-16 -0 -0 -0 0)
(1 -3.52082e-09 -0 -3.46711e-09 1.22071e-17 0 -0 0 0)
(1 8.32557e-10 -0 8.19904e-10 6.82616e-19 -0 -0 -0 0)
(1 -1.9738e-10 -0 -1.94407e-10 3.83721e-20 0 -0 0 0)
(1 4.64577e-11 -0 4.57481e-11 2.12535e-21 -0 -0 -0 0)
(1 -1.12024e-11 -0 -1.10417e-11 1.23693e-22 0 -0 0 0)
(1 2.47775e-12 -0 2.43548e-12 6.03451e-24 -0 -0 -0 0)
(1 -7.17993e-13 -0 -7.11242e-13 5.10667e-25 0 -0 0 0)
(1 6.84328e-14 -0 6.45082e-14 4.41447e-27 -0 -0 -0 0)
(1 -9.35685e-14 -0 -9.43184e-14 8.82523e-27 0 -0 0 0)
(1 -3.74067e-14 -0 -3.83037e-14 1.43281e-27 0 -0 0 0)
(1 -3.70115e-14 -0 -3.74838e-14 1.38733e-27 0 -0 0 0)
(1 -2.66163e-14 -0 -2.67069e-14 7.10837e-28 0 -0 0 0)
(1 -2.09022e-14 -0 -2.07826e-14 4.34402e-28 0 -0 0 0)
(1 -1.56594e-14 -0 -1.56461e-14 2.45009e-28 0 -0 0 0)
(1 -1.17975e-14 -0 -1.22528e-14 1.44552e-28 0 -0 0 0)
(1 -9.3827e-15 -0 -9.61186e-15 9.01852e-29 0 -0 0 0)
(1 -6.15901e-15 -0 -5.19514e-15 3.19969e-29 0 -0 0 0)
(1 4.56991e-15 -0 6.32671e-17 2.89125e-31 -0 -0 -0 0)
(1 6.27837e-08 -0 6.18177e-08 3.88115e-15 -0 -0 -0 0)
(1 -1.48487e-08 -0 -1.46213e-08 2.17107e-16 0 -0 0 0)
(1 3.52009e-09 -0 3.46619e-09 1.22013e-17 -0 -0 -0 0)
(1 -8.32748e-10 -0 -8.20087e-10 6.82925e-19 0 -0 0 0)
(1 1.96903e-10 -0 1.939e-10 3.81795e-20 -0 -0 -0 0)
(1 -4.68048e-11 -0 -4.61061e-11 2.15799e-21 0 -0 0 0)
(1 1.08921e-11 -0 1.07211e-11 1.16775e-22 -0 -0 -0 0)
(1 -2.71959e-12 -0 -2.68419e-12 7.2999e-24 0 -0 0 0)
(1 5.25941e-13 -0 5.14163e-13 2.7042e-25 -0 -0 -0 0)
(1 -2.17723e-13 -0 -2.17437e-13 4.73412e-26 0 -0 0 0)
(1 -2.30314e-14 -0 -2.48291e-14 5.71849e-28 0 -0 0 0)
(1 -5.3497e-14 -0 -5.41677e-14 2.89781e-27 0 -0 0 0)
(1 -3.3881e-14 -0 -3.43899e-14 1.16517e-27 0 -0 0 0)
(1 -2.86366e-14 -0 -2.8692e-14 8.2164e-28 0 -0 0 0)
(1 -2.19609e-14 -0 -2.17226e-14 4.77046e-28 0 -0 0 0)
(1 -1.68328e-14 -0 -1.6859e-14 2.83783e-28 0 -0 0 0)
(1 -1.27455e-14 -0 -1.33818e-14 1.70557e-28 0 -0 0 0)
(1 -1.04188e-14 -0 -1.07155e-14 1.11643e-28 0 -0 0 0)
(1 -6.96198e-15 -0 -5.76928e-15 4.01657e-29 0 -0 0 0)
(1 5.43895e-15 -0 1.81323e-16 9.86209e-31 -0 -0 -0 0)
(1 -6.28094e-08 -0 -6.18393e-08 3.88409e-15 0 -0 0 0)
(1 1.48574e-08 -0 1.46288e-08 2.17347e-16 -0 -0 -0 0)
(1 -3.52239e-09 -0 -3.46825e-09 1.22165e-17 0 -0 0 0)
(1 8.33153e-10 -0 8.20387e-10 6.83508e-19 -0 -0 -0 0)
(1 -1.97359e-10 -0 -1.94357e-10 3.8358e-20 0 -0 0 0)
(1 4.65934e-11 -0 4.58755e-11 2.13749e-21 -0 -0 -0 0)
(1 -1.1143e-11 -0 -1.09808e-11 1.22359e-22 0 -0 0 0)
(1 2.52263e-12 -0 2.47957e-12 6.25502e-24 -0 -0 -0 0)
(1 -6.943e-13 -0 -6.87555e-13 4.77369e-25 0 -0 0 0)
(1 8.18782e-14 -0 7.80032e-14 6.38677e-27 -0 -0 -0 0)
(1 -8.70294e-14 -0 -8.76504e-14 7.62816e-27 0 -0 0 0)
(1 -3.45861e-14 -0 -3.54418e-14 1.22579e-27 0 -0 0 0)
(1 -3.64796e-14 -0 -3.68138e-14 1.34295e-27 0 -0 0 0)
(1 -2.72404e-14 -0 -2.72454e-14 7.42177e-28 0 -0 0 0)
(1 -2.20272e-14 -0 -2.18188e-14 4.80608e-28 0 -0 0 0)
(1 -1.68931e-14 -0 -1.69478e-14 2.86301e-28 0 -0 0 0)
(1 -1.30871e-14 -0 -1.38101e-14 1.80734e-28 0 -0 0 0)
(1 -1.09751e-14 -0 -1.13505e-14 1.24573e-28 0 -0 0 0)
(1 -7.49059e-15 -0 -6.13841e-15 4.59803e-29 0 -0 0 0)
(1 6.20787e-15 -0 3.32435e-16 2.06372e-30 -0 -0 -0 0)
(1 6.2863e-08 -0 6.18878e-08 3.89045e-15 -0 -0 -0 0)
(1 -1.48742e-08 -0 -1.46443e-08 2.17822e-16 0 -0 0 0)
(1 3.52644e-09 -0 3.47194e-09 1.22436e-17 -0 -0 -0 0)
(1 -8.34457e-10 -0 -8.21625e-10 6.85611e-19 0 -0 0 0)
(1 1.97514e-10 -0 1.9447e-10 3.84105e-20 -0 -0 -0 0)
(1 -4.68611e-11 -0 -4.61502e-11 2.16265e-21 0 -0 0 0)
(1 1.09906e-11 -0 1.08172e-11 1.18888e-22 -0 -0 -0 0)
(1 -2.68933e-12 -0 -2.65259e-12 7.13368e-24 0 -0 0 0)
(1 5.56534e-13 -0 5.44904e-13 3.03258e-25 -0 -0 -0 0)
(1 -2.00835e-13 -0 -2.00089e-13 4.01848e-26 0 -0 0 0)
(1 -1.15076e-14 -0 -1.29377e-14 1.48883e-28 0 -0 0 0)
(1 -4.66026e-14 -0 -4.70456e-14 2.19245e-27 0 -0 0 0)
(1 -2.99551e-14 -0 -3.03524e-14 9.09209e-28 0 -0 0 0)
(1 -2.6625e-14 -0 -2.65787e-14 7.07659e-28 0 -0 0 0)
(1 -2.10205e-14 -0 -2.06758e-14 4.34615e-28 0 -0 0 0)
(1 -1.64507e-14 -0 -1.63887e-14 2.69605e-28 0 -0 0 0)
(1 -1.27947e-14 -0 -1.34274e-14 1.718e-28 0 -0 0 0)
(1 -1.09786e-14 -0 -1.1273e-14 1.23762e-28 0 -0 0 0)
(1 -7.51814e-15 -0 -6.05623e-15 4.55316e-29 0 -0 0 0)
(1 6.89674e-15 -0 5.63494e-16 3.88627e-30 -0 -0 -0 0)
(1 -6.29396e-08 -0 -6.1958e-08 3.89962e-15 0 -0 0 0)
(1 1.48991e-08 -0 1.46673e-08 2.18529e-16 -0 -0 -0 0)
(1 -3.53248e-09 -0 -3.47757e-09 1.22844e-17 0 -0 0 0)
(1 8.36197e-10 -0 8.23221e-10 6.88375e-19 -0 -0 -0 0)
(1 -1.98108e-10 -0 -1.95048e-10 3.86405e-20 0 -0 0 0)
(1 4.68671e-11 -0 4.61373e-11 2.16232e-21 -0 -0 -0 0)
(1 -1.1158e-11 -0 -1.09901e-11 1.22628e-22 0 -0 0 0)
(1 2.57535e-12 -0 2.53257e-12 6.52228e-24 -0 -0 -0 0)
(1 -6.72361e-13 -0 -6.64359e-13 4.46689e-25 0 -0 0 0)
(1 1.02223e-13 -0 9.88663e-14 1.01065e-26 -0 -0 -0 0)
(1 -7.40535e-14 -0 -7.4192e-14 5.49417e-27 0 -0 0 0)
(1 -2.53383e-14 -0 -2.58558e-14 6.55142e-28 0 -0 0 0)
(1 -3.03516e-14 -0 -3.06147e-14 9.29205e-28 0 -0 0 0)
(1 -2.3421e-14 -0 -2.31897e-14 5.43127e-28 0 -0 0 0)
(1 -1.98219e-14 -0 -1.92371e-14 3.81317e-28 0 -0 0 0)
(1 -1.54885e-14 -0 -1.52088e-14 2.35562e-28 0 -0 0 0)
(1 -1.20886e-14 -0 -1.26617e-14 1.53061e-28 0 -0 0 0)
(1 -1.05561e-14 -0 -1.08104e-14 1.14116e-28 0 -0 0 0)
(1 -7.2894e-15 -0 -5.70336e-15 4.15741e-29 0 -0 0 0)
(1 7.56072e-15 -0 8.90985e-16 6.73649e-30 -0 -0 -0 0)
(1 6.30389e-08 -0 6.20501e-08 3.91157e-15 -0 -0 -0 0)
(1 -1.49299e-08 -0 -1.46961e-08 2.1941e-16 0 -0 0 0)
(1 3.53998e-09 -0 3.48456e-09 1.23353e-17 -0 -0 -0 0)
(1 -8.3841e-10 -0 -8.25313e-10 6.9195e-19 0 -0 0 0)
(1 1.98628e-10 -0 1.95523e-10 3.88364e-20 -0 -0 -0 0)
(1 -4.71072e-11 -0 -4.63756e-11 2.18463e-21 0 -0 0 0)
(1 1.11074e-11 -0 1.09318e-11 1.21424e-22 -0 -0 -0 0)
(1 -2.68139e-12 -0 -2.64158e-12 7.0831e-24 0 -0 0 0)
(1 5.86262e-13 -0 5.75798e-13 3.37568e-25 -0 -0 -0 0)
(1 -1.84167e-13 -0 -1.82302e-13 3.3574e-26 0 -0 0 0)
(1 2.68556e-15 -0 1.90679e-15 5.12079e-30 -0 -0 -0 0)
(1 -3.67364e-14 -0 -3.68017e-14 1.35196e-27 0 -0 0 0)
(1 -2.26456e-14 -0 -2.27108e-14 5.14298e-28 0 -0 0 0)
(1 -2.14981e-14 -0 -2.09947e-14 4.51346e-28 0 -0 0 0)
(1 -1.74761e-14 -0 -1.68055e-14 2.93695e-28 0 -0 0 0)
(1 -1.4138e-14 -0 -1.37958e-14 1.95045e-28 0 -0 0 0)
(1 -1.1197e-14 -0 -1.16993e-14 1.30998e-28 0 -0 0 0)
(1 -9.97278e-15 -0 -1.01888e-14 1.0161e-28 0 -0 0 0)
(1 -6.88553e-15 -0 -5.28537e-15 3.63926e-29 0 -0 0 0)
(1 8.0296e-15 -0 1.16342e-15 9.34177e-30 -0 -0 -0 0)
(1 -6.31557e-08 -0 -6.21584e-08 3.92566e-15 0 -0 0 0)
(1 1.49662e-08 -0 1.47301e-08 2.20453e-16 -0 -0 -0 0)
(1 -3.54877e-09 -0 -3.4928e-09 1.23952e-17 0 -0 0 0)
(1 8.40972e-10 -0 8.27712e-10 6.96083e-19 -0 -0 -0 0)
(1 -1.99359e-10 -0 -1.96218e-10 3.9118e-20 0 -0 0 0)
(1 4.72309e-11 -0 4.64859e-11 2.19557e-21 -0 -0 -0 0)
(1 -1.12263e-11 -0 -1.105e-11 1.2405e-22 0 -0 0 0)
(1 2.62497e-12 -0 2.58308e-12 6.78049e-24 -0 -0 -0 0)
(1 -6.58442e-13 -0 -6.48561e-13 4.2704e-25 0 -0 0 0)
(1 1.21055e-13 -0 1.18834e-13 1.43855e-26 -0 -0 -0 0)
(1 -6.13027e-14 -0 -6.05332e-14 3.71085e-27 0 -0 0 0)
(1 -1.50157e-14 -0 -1.50627e-14 2.26178e-28 0 -0 0 0)
(1 -2.29056e-14 -0 -2.26366e-14 5.18504e-28 0 -0 0 0)
(1 -1.78202e-14 -0 -1.71016e-14 3.04753e-28 0 -0 0 0)
(1 -1.54882e-14 -0 -1.46337e-14 2.2665e-28 0 -0 0 0)
(1 -1.22955e-14 -0 -1.19418e-14 1.4683e-28 0 -0 0 0)
(1 -9.99132e-15 -0 -1.03663e-14 1.03573e-28 0 -0 0 0)
(1 -9.21049e-15 -0 -9.18237e-15 8.45741e-29 0 -0 0 0)
(1 -6.36869e-15 -0 -4.68652e-15 2.9847e-29 0 -0 0 0)
(1 8.26536e-15 -0 1.34648e-15 1.11291e-29 -0 -0 -0 0)
(1 6.32869e-08 -0 6.22806e-08 3.94154e-15 -0 -0 -0 0)
(1 -1.50064e-08 -0 -1.47677e-08 2.21609e-16 0 -0 0 0)
(1 3.55849e-09 -0 3.50192e-09 1.24616e-17 -0 -0 -0 0)
(1 -8.43804e-10 -0 -8.30377e-10 7.00675e-19 0 -0 0 0)
(1 2.00077e-10 -0 1.96895e-10 3.93943e-20 -0 -0 -0 0)
(1 -4.74679e-11 -0 -4.67105e-11 2.21725e-21 0 -0 0 0)
(1 1.12344e-11 -0 1.10566e-11 1.24214e-22 -0 -0 -0 0)
(1 -2.6895e-12 -0 -2.64575e-12 7.11575e-24 0 -0 0 0)
(1 6.11979e-13 -0 6.02689e-13 3.68833e-25 -0 -0 -0 0)
(1 -1.71111e-13 -0 -1.67936e-13 2.87357e-26 0 -0 0 0)
(1 1.57054e-14 -0 1.5724e-14 2.46951e-28 -0 -0 -0 0)
(1 -2.69714e-14 -0 -2.63668e-14 7.11149e-28 0 -0 0 0)
(1 -1.50683e-14 -0 -1.4601e-14 2.20013e-28 0 -0 0 0)
(1 -1.56807e-14 -0 -1.48326e-14 2.32585e-28 0 -0 0 0)
(1 -1.28918e-14 -0 -1.19209e-14 1.53682e-28 0 -0 0 0)
(1 -1.05508e-14 -0 -1.00304e-14 1.05829e-28 0 -0 0 0)
(1 -8.66585e-15 -0 -8.89653e-15 7.70959e-29 0 -0 0 0)
(1 -8.33426e-15 -0 -8.14047e-15 6.78448e-29 0 -0 0 0)
(1 -5.86348e-15 -0 -4.07187e-15 2.38753e-29 0 -0 0 0)
(1 8.25422e-15 -0 1.49882e-15 1.23716e-29 -0 -0 -0 0)
(1 -6.3426e-08 -0 -6.24104e-08 3.95844e-15 0 -0 0 0)
(1 1.50486e-08 -0 1.48073e-08 2.22829e-16 -0 -0 -0 0)
(1 -3.56875e-09 -0 -3.51153e-09 1.25318e-17 0 -0 0 0)
(1 8.46728e-10 -0 8.33141e-10 7.05443e-19 -0 -0 -0 0)
(1 -2.00878e-10 -0 -1.97645e-10 3.97024e-20 0 -0 0 0)
(1 4.7647e-11 -0 4.68845e-11 2.23391e-21 -0 -0 -0 0)
(1 -1.13207e-11 -0 -1.11352e-11 1.26059e-22 0 -0 0 0)
(1 2.67158e-12 -0 2.63062e-12 7.0279e-24 -0 -0 -0 0)
(1 -6.50861e-13 -0 -6.3874e-13 4.15731e-25 0 -0 0 0)
(1 1.36895e-13 -0 1.35947e-13 1.86105e-26 -0 -0 -0 0)
(1 -5.0186e-14 -0 -4.84457e-14 2.43129e-27 0 -0 0 0)
(1 -5.2284e-15 -0 -4.524e-15 2.36533e-29 0 -0 0 0)
(1 -1.50308e-14 -0 -1.42336e-14 2.13942e-28 0 -0 0 0)
(1 -1.13564e-14 -0 -1.0462e-14 1.18811e-28 0 -0 0 0)
(1 -1.0478e-14 -0 -9.58239e-15 1.00404e-28 0 -0 0 0)
(1 -8.6843e-15 -0 -8.18846e-15 7.1111e-29 0 -0 0 0)
(1 -7.50764e-15 -0 -7.6876e-15 5.77157e-29 0 -0 0 0)
(1 -7.56245e-15 -0 -7.29957e-15 5.52026e-29 0 -0 0 0)
(1 -5.259e-15 -0 -3.48496e-15 1.83274e-29 0 -0 0 0)
(1 8.06188e-15 -0 1.62218e-15 1.30778e-29 -0 -0 -0 0)
(1 6.35691e-08 -0 6.25437e-08 3.97585e-15 -0 -0 -0 0)
(1 -1.50919e-08 -0 -1.48479e-08 2.24084e-16 0 -0 0 0)
(1 3.5792e-09 -0 3.52136e-09 1.26037e-17 -0 -0 -0 0)
(1 -8.49747e-10 -0 -8.35968e-10 7.10361e-19 0 -0 0 0)
(1 2.01663e-10 -0 1.98399e-10 4.00097e-20 -0 -0 -0 0)
(1 -4.78645e-11 -0 -4.70805e-11 2.25349e-21 0 -0 0 0)
(1 1.13658e-11 -0 1.11851e-11 1.27128e-22 -0 -0 -0 0)
(1 -2.70365e-12 -0 -2.65618e-12 7.18136e-24 0 -0 0 0)
(1 6.34534e-13 -0 6.26576e-13 3.97584e-25 -0 -0 -0 0)
(1 -1.60818e-13 -0 -1.56374e-13 2.51477e-26 0 -0 0 0)
(1 2.68108e-14 -0 2.7791e-14 7.45098e-28 -0 -0 -0 0)
(1 -1.83208e-14 -0 -1.70173e-14 3.11771e-28 0 -0 0 0)
(1 -7.55855e-15 -0 -6.64369e-15 5.02167e-29 0 -0 0 0)
(1 -9.61521e-15 -0 -8.60042e-15 8.26948e-29 0 -0 0 0)
(1 -8.17904e-15 -0 -7.1571e-15 5.85382e-29 0 -0 0 0)
(1 -7.07229e-15 -0 -6.46931e-15 4.57529e-29 0 -0 0 0)
(1 -6.17803e-15 -0 -6.33641e-15 3.91466e-29 0 -0 0 0)
(1 -6.56258e-15 -0 -6.33727e-15 4.15889e-29 0 -0 0 0)
(1 -4.63323e-15 -0 -2.98806e-15 1.38444e-29 0 -0 0 0)
(1 7.70372e-15 -0 1.74047e-15 1.34081e-29 -0 -0 -0 0)
(1 -6.37085e-08 -0 -6.2674e-08 3.99286e-15 0 -0 0 0)
(1 1.51332e-08 -0 1.48868e-08 2.25286e-16 -0 -0 -0 0)
(1 -3.58926e-09 -0 -3.53079e-09 1.26729e-17 0 -0 0 0)
(1 8.52566e-10 -0 8.3865e-10 7.15004e-19 -0 -0 -0 0)
(1 -2.02397e-10 -0 -1.99073e-10 4.02918e-20 0 -0 0 0)
(1 4.80676e-11 -0 4.72871e-11 2.27297e-21 -0 -0 -0 0)
(1 -1.14131e-11 -0 -1.12195e-11 1.28048e-22 0 -0 0 0)
(1 2.71639e-12 -0 2.6756e-12 7.26798e-24 -0 -0 -0 0)
(1 -6.45226e-13 -0 -6.31498e-13 4.07459e-25 0 -0 0 0)
(1 1.50273e-13 -0 1.49983e-13 2.25383e-26 -0 -0 -0 0)
(1 -4.15389e-14 -0 -3.91882e-14 1.62783e-27 0 -0 0 0)
(1 2.59036e-15 -0 3.73189e-15 9.66693e-30 -0 -0 -0 0)
(1 -8.78162e-15 -0 -7.79692e-15 6.84696e-29 0 -0 0 0)
(1 -6.27718e-15 -0 -5.19255e-15 3.25946e-29 0 -0 0 0)
(1 -6.58923e-15 -0 -5.4922e-15 3.61894e-29 0 -0 0 0)
(1 -5.49232e-15 -0 -4.86066e-15 2.66963e-29 0 -0 0 0)
(1 -4.87022e-15 -0 -5.0709e-15 2.46964e-29 0 -0 0 0)
(1 -5.45262e-15 -0 -5.26348e-15 2.86998e-29 0 -0 0 0)
(1 -3.93663e-15 -0 -2.35591e-15 9.27437e-30 0 -0 0 0)
(1 7.04366e-15 -0 1.7651e-15 1.24328e-29 -0 -0 -0 0)
(1 6.38398e-08 -0 6.27964e-08 4.00891e-15 -0 -0 -0 0)
(1 -1.51725e-08 -0 -1.49236e-08 2.26429e-16 0 -0 0 0)
(1 3.5988e-09 -0 3.53978e-09 1.2739e-17 -0 -0 -0 0)
(1 -8.55217e-10 -0 -8.41115e-10 7.19336e-19 0 -0 0 0)
(1 2.03155e-10 -0 1.99814e-10 4.05932e-20 -0 -0 -0 0)
(1 -4.82161e-11 -0 -4.74094e-11 2.28589e-21 0 -0 0 0)
(1 1.14909e-11 -0 1.13065e-11 1.29921e-22 -0 -0 -0 0)
(1 -2.71544e-12 -0 -2.66554e-12 7.23812e-24 0 -0 0 0)
(1 6.53992e-13 -0 6.4629e-13 4.22668e-25 -0 -0 -0 0)
(1 -1.5329e-13 -0 -1.4831e-13 2.27345e-26 0 -0 0 0)
(1 3.51754e-14 -0 3.63729e-14 1.27943e-27 -0 -0 -0 0)
(1 -1.19722e-14 -0 -1.05466e-14 1.26266e-28 0 -0 0 0)
(1 -2.18982e-15 -0 -1.22883e-15 2.69092e-30 0 -0 0 0)
(1 -5.17064e-15 -0 -4.08284e-15 2.11109e-29 0 -0 0 0)
(1 -4.42293e-15 -0 -3.5081e-15 1.55161e-29 0 -0 0 0)
(1 -4.01538e-15 -0 -3.50563e-15 1.40764e-29 0 -0 0 0)
(1 -3.62533e-15 -0 -3.79039e-15 1.37414e-29 0 -0 0 0)
(1 -4.28494e-15 -0 -4.02048e-15 1.72275e-29 0 -0 0 0)
(1 -3.16585e-15 -0 -1.73224e-15 5.48401e-30 0 -0 0 0)
(1 6.10403e-15 -0 1.59259e-15 9.72121e-30 -0 -0 -0 0)
(1 -6.39566e-08 -0 -6.29057e-08 4.02323e-15 0 -0 0 0)
(1 1.52062e-08 -0 1.49553e-08 2.27414e-16 -0 -0 -0 0)
(1 -3.60681e-09 -0 -3.54726e-09 1.27943e-17 0 -0 0 0)
(1 8.57519e-10 -0 8.43324e-10 7.23166e-19 -0 -0 -0 0)
(1 -2.03619e-10 -0 -2.00223e-10 4.07692e-20 0 -0 0 0)
(1 4.84305e-11 -0 4.76328e-11 2.30688e-21 -0 -0 -0 0)
(1 -1.14798e-11 -0 -1.12811e-11 1.29506e-22 0 -0 0 0)
(1 2.75315e-12 -0 2.71158e-12 7.4654e-24 -0 -0 -0 0)
(1 -6.41174e-13 -0 -6.27137e-13 4.02104e-25 0 -0 0 0)
(1 1.59369e-13 -0 1.59004e-13 2.53402e-26 -0 -0 -0 0)
(1 -3.57457e-14 -0 -3.34723e-14 1.19649e-27 0 -0 0 0)
(1 7.79597e-15 -0 8.73948e-15 6.81327e-29 -0 -0 -0 0)
(1 -4.44613e-15 -0 -3.43382e-15 1.52672e-29 0 -0 0 0)
(1 -2.51281e-15 -0 -1.55584e-15 3.90953e-30 0 -0 0 0)
(1 -3.15863e-15 -0 -2.28272e-15 7.21027e-30 0 -0 0 0)
(1 -2.69533e-15 -0 -2.12995e-15 5.7409e-30 0 -0 0 0)
(1 -2.59774e-15 -0 -2.60944e-15 6.77865e-30 0 -0 0 0)
(1 -3.31038e-15 -0 -3.08826e-15 1.02233e-29 0 -0 0 0)
(1 -2.54789e-15 -0 -1.37092e-15 3.49295e-30 0 -0 0 0)
(1 4.94747e-15 -0 1.28014e-15 6.33344e-30 -0 -0 -0 0)
(1 6.40534e-08 -0 6.29958e-08 4.03509e-15 -0 -0 -0 0)
(1 -1.52343e-08 -0 -1.49816e-08 2.28234e-16 0 -0 0 0)
(1 3.61457e-09 -0 3.55462e-09 1.28484e-17 -0 -0 -0 0)
(1 -8.59268e-10 -0 -8.44925e-10 7.26017e-19 0 -0 0 0)
(1 2.04377e-10 -0 2.00974e-10 4.10745e-20 -0 -0 -0 0)
(1 -4.84912e-11 -0 -4.76697e-11 2.31156e-21 0 -0 0 0)
(1 1.15906e-11 -0 1.14014e-11 1.32148e-22 -0 -0 -0 0)
(1 -2.73073e-12 -0 -2.68047e-12 7.31964e-24 0 -0 0 0)
(1 6.65785e-13 -0 6.57498e-13 4.37752e-25 -0 -0 -0 0)
(1 -1.50801e-13 -0 -1.46069e-13 2.20273e-26 0 -0 0 0)
(1 3.94418e-14 -0 4.02859e-14 1.58895e-27 -0 -0 -0 0)
(1 -8.82145e-15 -0 -7.6719e-15 6.76773e-29 0 -0 0 0)
(1 8.87351e-16 -0 1.64044e-15 1.45565e-30 -0 -0 -0 0)
(1 -2.4887e-15 -0 -1.65033e-15 4.10718e-30 0 -0 0 0)
(1 -1.9642e-15 -0 -1.24249e-15 2.44051e-30 0 -0 0 0)
(1 -1.99918e-15 -0 -1.57002e-15 3.13875e-30 0 -0 0 0)
(1 -2.00663e-15 -0 -1.94827e-15 3.90945e-30 0 -0 0 0)
(1 -2.56123e-15 -0 -2.30203e-15 5.89603e-30 0 -0 0 0)
(1 -2.00793e-15 -0 -9.49452e-16 1.90643e-30 0 -0 0 0)
(1 3.76107e-15 -0 1.07909e-15 4.05853e-30 -0 -0 -0 0)
(1 -6.41319e-08 -0 -6.30697e-08 4.04478e-15 0 -0 0 0)
(1 1.52571e-08 -0 1.50033e-08 2.28907e-16 -0 -0 -0 0)
(1 -3.61772e-09 -0 -3.55745e-09 1.28698e-17 0 -0 0 0)
(1 8.60019e-10 -0 8.45648e-10 7.27273e-19 -0 -0 -0 0)
(1 -2.04161e-10 -0 -2.00725e-10 4.09803e-20 0 -0 0 0)
(1 4.85196e-11 -0 4.77092e-11 2.31484e-21 -0 -0 -0 0)
(1 -1.14934e-11 -0 -1.12953e-11 1.29821e-22 0 -0 0 0)
(1 2.75024e-12 -0 2.70601e-12 7.44219e-24 -0 -0 -0 0)
(1 -6.41462e-13 -0 -6.28871e-13 4.03397e-25 0 -0 0 0)
(1 1.5844e-13 -0 1.56898e-13 2.48588e-26 -0 -0 -0 0)
(1 -3.48597e-14 -0 -3.34237e-14 1.16514e-27 0 -0 0 0)
(1 9.1368e-15 -0 9.60917e-15 8.7797e-29 -0 -0 -0 0)
(1 -2.35135e-15 -0 -2.0185e-15 4.74618e-30 0 -0 0 0)
(1 -2.43614e-16 -0 2.66508e-17 -6.49251e-33 -0 -0 0 0)
(1 -1.0835e-15 -0 -7.71048e-16 8.3543e-31 0 -0 0 0)
(1 -9.11044e-16 -0 -8.12313e-16 7.40053e-31 0 -0 0 0)
(1 -9.85566e-16 -0 -1.16802e-15 1.15116e-30 0 -0 0 0)
(1 -1.52766e-15 -0 -1.52442e-15 2.32878e-30 0 -0 0 0)
(1 -1.32474e-15 -0 -5.68839e-16 7.53563e-31 0 -0 0 0)
(1 2.43246e-15 -0 8.69629e-16 2.11533e-30 -0 -0 -0 0)
(1 6.41969e-08 -0 6.31309e-08 4.05281e-15 -0 -0 -0 0)
(1 -1.52991e-08 -0 -1.50435e-08 2.30152e-16 0 -0 0 0)
(1 3.63238e-09 -0 3.57167e-09 1.29736e-17 -0 -0 -0 0)
(1 -8.65155e-10 -0 -8.50601e-10 7.35902e-19 0 -0 0 0)
(1 2.06141e-10 -0 2.02666e-10 4.17778e-20 -0 -0 -0 0)
(1 -4.90416e-11 -0 -4.82095e-11 2.36427e-21 0 -0 0 0)
(1 1.17244e-11 -0 1.15258e-11 1.35133e-22 -0 -0 -0 0)
(1 -2.78889e-12 -0 -2.74062e-12 7.6433e-24 0 -0 0 0)
(1 6.70994e-13 -0 6.59693e-13 4.4265e-25 -0 -0 -0 0)
(1 -1.58154e-13 -0 -1.55282e-13 2.45584e-26 0 -0 0 0)
(1 3.91683e-14 -0 3.85409e-14 1.50958e-27 -0 -0 -0 0)
(1 -8.8162e-15 -0 -8.57264e-15 7.55782e-29 0 -0 0 0)
(1 2.44788e-15 -0 2.35033e-15 5.75331e-30 -0 -0 -0 0)
(1 -4.63668e-16 -0 -5.32654e-16 2.46975e-31 0 -0 0 0)
(1 4.23677e-17 -0 5.49292e-17 2.32722e-33 -0 -0 -0 0)
(1 -1.18609e-16 -0 -1.5906e-16 1.88659e-32 0 -0 0 0)
(1 -8.19775e-17 -0 -2.78451e-16 2.28267e-32 0 -0 0 0)
(1 -3.87222e-16 -0 -5.24901e-16 2.03253e-31 0 -0 0 0)
(1 -4.70374e-16 -0 -2.56567e-16 1.20682e-31 0 -0 0 0)
(1 8.45853e-16 -0 3.49086e-16 2.95275e-31 -0 -0 -0 0)
)
;

boundaryField
{
    movingWall
    {
        type            calculated;
        value           uniform (1 0 0 0 0 0 0 0 0);
    }
    fixedWalls
    {
        type            calculated;
        value           uniform (1 0 0 0 0 0 0 0 0);
    }
    frontAndBack
    {
        type            empty;
    }
}


// ************************************************************************* //
