/*--------------------------------*- C++ -*----------------------------------*\
| =========                 |                                                 |
| \\      /  F ield         | OpenFOAM: The Open Source CFD Toolbox           |
|  \\    /   O peration     | Version:  2312                                  |
|   \\  /    A nd           | Website:  www.openfoam.com                      |
|    \\/     M anipulation  |                                                 |
\*---------------------------------------------------------------------------*/
FoamFile
{
    version     2.0;
    format      ascii;
    arch        "LSB;label=32;scalar=64";
    class       volVectorField;
    location    "4";
    object      UMean;
}
// * * * * * * * * * * * * * * * * * * * * * * * * * * * * * * * * * * * * * //

dimensions      [0 1 -1 0 0 0 0];

internalField   nonuniform List<vector> 
400
(
(-0.375116 9.3637e-05 0)
(-0.375878 0.000422992 0)
(-0.377295 0.000636283 0)
(-0.378929 0.000743466 0)
(-0.380733 0.000842317 0)
(-0.382751 0.000972967 0)
(-0.385043 0.00114429 0)
(-0.387628 0.00132807 0)
(-0.390394 0.00142641 0)
(-0.393064 0.00133844 0)
(-0.395229 0.00101229 0)
(-0.396468 0.000466048 0)
(-0.396446 -0.000277921 0)
(-0.394892 -0.00106989 0)
(-0.391837 -0.00180306 0)
(-0.387631 -0.00228511 0)
(-0.382902 -0.00229773 0)
(-0.378396 -0.00167746 0)
(-0.3754 -0.000674729 0)
(-0.374683 0.000164729 0)
(-0.375522 0.00092007 0)
(-0.377044 0.00197773 0)
(-0.379126 0.00255529 0)
(-0.381456 0.00285522 0)
(-0.383967 0.00314751 0)
(-0.386705 0.00351805 0)
(-0.389707 0.00391183 0)
(-0.392901 0.00418619 0)
(-0.396118 0.0041558 0)
(-0.399091 0.00365396 0)
(-0.401484 0.00259594 0)
(-0.402938 0.000995814 0)
(-0.403101 -0.00104598 0)
(-0.401725 -0.0033094 0)
(-0.398666 -0.00544136 0)
(-0.394072 -0.00693896 0)
(-0.388412 -0.00725293 0)
(-0.382442 -0.00589195 0)
(-0.377253 -0.00306588 0)
(-0.374995 -0.000175297 0)
(-0.375909 0.00255248 0)
(-0.377869 0.00409944 0)
(-0.380199 0.00493865 0)
(-0.382808 0.00546206 0)
(-0.385638 0.00598843 0)
(-0.388718 0.00660594 0)
(-0.392069 0.00720555 0)
(-0.395639 0.00756705 0)
(-0.399273 0.00742481 0)
(-0.402726 0.00654614 0)
(-0.405669 0.00478714 0)
(-0.407717 0.0021139 0)
(-0.408498 -0.00134365 0)
(-0.407745 -0.0052966 0)
(-0.40527 -0.00924872 0)
(-0.400927 -0.0124359 0)
(-0.394811 -0.0138504 0)
(-0.387446 -0.0124208 0)
(-0.379983 -0.00774348 0)
(-0.375365 -0.00180898 0)
(-0.376133 0.00456797 0)
(-0.378354 0.00644327 0)
(-0.380806 0.00747464 0)
(-0.383509 0.00823024 0)
(-0.386446 0.00902123 0)
(-0.389677 0.00992167 0)
(-0.393242 0.0107883 0)
(-0.397104 0.0113233 0)
(-0.40111 0.0111602 0)
(-0.404992 0.0099665 0)
(-0.408396 0.00753031 0)
(-0.410934 0.00381543 0)
(-0.41227 -0.00102955 0)
(-0.412144 -0.00664728 0)
(-0.410409 -0.0124809 0)
(-0.406847 -0.0177303 0)
(-0.401154 -0.0211363 0)
(-0.393224 -0.0209181 0)
(-0.383887 -0.0153041 0)
(-0.376272 -0.00495201 0)
(-0.37621 0.00678708 0)
(-0.378529 0.00891987 0)
(-0.380984 0.0100791 0)
(-0.383651 0.0110372 0)
(-0.386557 0.0121047 0)
(-0.389781 0.0133399 0)
(-0.393387 0.0145448 0)
(-0.397342 0.015325 0)
(-0.401476 0.0151925 0)
(-0.40548 0.0137061 0)
(-0.408978 0.0106167 0)
(-0.411637 0.0059349 0)
(-0.413215 -0.000126051 0)
(-0.413553 -0.00715306 0)
(-0.412496 -0.0146114 0)
(-0.40995 -0.0218357 0)
(-0.405433 -0.0276941 0)
(-0.398166 -0.0300333 0)
(-0.388093 -0.0253927 0)
(-0.378146 -0.0111372 0)
(-0.376169 0.00903142 0)
(-0.37844 0.011382 0)
(-0.380786 0.0126294 0)
(-0.383304 0.0137682 0)
(-0.386039 0.015113 0)
(-0.389076 0.0167002 0)
(-0.39249 0.0182658 0)
(-0.396251 0.0193049 0)
(-0.400187 0.019193 0)
(-0.404012 0.0174054 0)
(-0.40742 0.0137012 0)
(-0.410159 0.00814709 0)
(-0.411973 0.00103829 0)
(-0.41263 -0.0072056 0)
(-0.412026 -0.0159951 0)
(-0.410185 -0.0247543 0)
(-0.406863 -0.0327705 0)
(-0.401021 -0.0382876 0)
(-0.391433 -0.0367173 0)
(-0.38014 -0.0204869 0)
(-0.376043 0.0111523 0)
(-0.378142 0.0137035 0)
(-0.380284 0.0150105 0)
(-0.382544 0.0162886 0)
(-0.384965 0.0178667 0)
(-0.38762 0.019768 0)
(-0.390584 0.0216579 0)
(-0.393853 0.0229344 0)
(-0.397312 0.0228733 0)
(-0.400777 0.0209015 0)
(-0.40407 0.016773 0)
(-0.406954 0.0105345 0)
(-0.409093 0.00245644 0)
(-0.410127 -0.00696983 0)
(-0.409917 -0.0170363 0)
(-0.408538 -0.0270371 0)
(-0.406021 -0.0366119 0)
(-0.401637 -0.044948 0)
(-0.393304 -0.0476993 0)
(-0.381668 -0.0324171 0)
(-0.375866 0.0130267 0)
(-0.377697 0.0157804 0)
(-0.379553 0.0171167 0)
(-0.381463 0.0184703 0)
(-0.383448 0.0201926 0)
(-0.385551 0.0223071 0)
(-0.387829 0.0244363 0)
(-0.390336 0.0259517 0)
(-0.393065 0.026049 0)
(-0.395974 0.0240936 0)
(-0.39901 0.0198158 0)
(-0.401965 0.0131487 0)
(-0.404418 0.00424996 0)
(-0.405956 -0.00632783 0)
(-0.406316 -0.0176753 0)
(-0.405535 -0.02885 0)
(-0.403722 -0.039648 0)
(-0.400577 -0.0501062 0)
(-0.393779 -0.0574487 0)
(-0.382544 -0.0458048 0)
(-0.375658 0.014571 0)
(-0.377158 0.017532 0)
(-0.378673 0.0188679 0)
(-0.380175 0.0202198 0)
(-0.381643 0.0219678 0)
(-0.383076 0.0241486 0)
(-0.384519 0.0263891 0)
(-0.386062 0.0280922 0)
(-0.387803 0.0284467 0)
(-0.389845 0.0267943 0)
(-0.392299 0.0227215 0)
(-0.395047 0.0159454 0)
(-0.397731 0.00649454 0)
(-0.399828 -0.00507435 0)
(-0.400974 -0.0175555 0)
(-0.401138 -0.0298822 0)
(-0.400308 -0.0418169 0)
(-0.398405 -0.0539728 0)
(-0.393273 -0.0657201 0)
(-0.382938 -0.059547 0)
(-0.375445 0.0157406 0)
(-0.376582 0.0189128 0)
(-0.377729 0.0202201 0)
(-0.378803 0.0214862 0)
(-0.379733 0.0231221 0)
(-0.380469 0.0251938 0)
(-0.381028 0.0273974 0)
(-0.381505 0.0291856 0)
(-0.382072 0.0298202 0)
(-0.382936 0.028603 0)
(-0.384324 0.0250384 0)
(-0.386363 0.0186826 0)
(-0.388936 0.009257 0)
(-0.391524 -0.00280865 0)
(-0.39375 -0.0161951 0)
(-0.395278 -0.0296578 0)
(-0.395823 -0.0427278 0)
(-0.395399 -0.0564775 0)
(-0.392088 -0.0723102 0)
(-0.383177 -0.0729708 0)
(-0.375247 0.0165309 0)
(-0.376031 0.0199123 0)
(-0.376816 0.021164 0)
(-0.377476 0.0222677 0)
(-0.377902 0.0236669 0)
(-0.377998 0.0254608 0)
(-0.377748 0.0274342 0)
(-0.377212 0.0291221 0)
(-0.376579 0.029909 0)
(-0.376102 0.0291455 0)
(-0.37612 0.0262953 0)
(-0.3769 0.020817 0)
(-0.378753 0.0121313 0)
(-0.381644 0.00033387 0)
(-0.385038 -0.0134121 0)
(-0.388152 -0.0277266 0)
(-0.390377 -0.0419645 0)
(-0.391705 -0.0572726 0)
(-0.390416 -0.0770764 0)
(-0.383434 -0.0857484 0)
(-0.375093 0.0169768 0)
(-0.375566 0.0205577 0)
(-0.376023 0.0217272 0)
(-0.376313 0.0226073 0)
(-0.376302 0.0236743 0)
(-0.375874 0.0250548 0)
(-0.374981 0.0266165 0)
(-0.373651 0.0279958 0)
(-0.372036 0.0287024 0)
(-0.37039 0.0282033 0)
(-0.369061 0.0260033 0)
(-0.368447 0.0215879 0)
(-0.369106 0.0144152 0)
(-0.371562 0.00404867 0)
(-0.375672 -0.00916783 0)
(-0.380294 -0.0238786 0)
(-0.384288 -0.0392596 0)
(-0.387488 -0.0560981 0)
(-0.388421 -0.0798518 0)
(-0.383769 -0.0977796 0)
(-0.37501 0.0171613 0)
(-0.37525 0.0209034 0)
(-0.37543 0.0219602 0)
(-0.375405 0.0225697 0)
(-0.375031 0.0232472 0)
(-0.374203 0.0241429 0)
(-0.372861 0.0251883 0)
(-0.371016 0.0261181 0)
(-0.368786 0.0265592 0)
(-0.366395 0.0260946 0)
(-0.364168 0.0243262 0)
(-0.362533 0.020876 0)
(-0.362052 0.015294 0)
(-0.363509 0.00708952 0)
(-0.367282 -0.00432433 0)
(-0.372606 -0.0186368 0)
(-0.378064 -0.0346331 0)
(-0.382998 -0.0528345 0)
(-0.386279 -0.0804826 0)
(-0.384219 -0.10904 0)
(-0.375026 0.0172461 0)
(-0.37514 0.0210456 0)
(-0.375112 0.0219261 0)
(-0.374816 0.0222179 0)
(-0.374132 0.0224773 0)
(-0.372992 0.0228773 0)
(-0.37135 0.0233928 0)
(-0.36922 0.0238459 0)
(-0.3667 0.0239605 0)
(-0.363979 0.0234228 0)
(-0.361347 0.0219382 0)
(-0.359192 0.0192598 0)
(-0.357969 0.0151015 0)
(-0.358315 0.00892478 0)
(-0.361024 -7.08027e-05 0)
(-0.365989 -0.0127739 0)
(-0.372185 -0.0284402 0)
(-0.3785 -0.0475818 0)
(-0.384049 -0.0786381 0)
(-0.384774 -0.11917 0)
(-0.375185 0.0172426 0)
(-0.375338 0.0210228 0)
(-0.375146 0.0216432 0)
(-0.374594 0.0215677 0)
(-0.373617 0.0214024 0)
(-0.372196 0.0213351 0)
(-0.370322 0.0213713 0)
(-0.368026 0.0213963 0)
(-0.365391 0.0212169 0)
(-0.36258 0.0206063 0)
(-0.359836 0.0193534 0)
(-0.357456 0.0172824 0)
(-0.355792 0.0141932 0)
(-0.355296 0.00968567 0)
(-0.356705 0.00294068 0)
(-0.360596 -0.00721006 0)
(-0.366711 -0.0213664 0)
(-0.37395 -0.0407514 0)
(-0.381227 -0.0738342 0)
(-0.385197 -0.127689 0)
(-0.375563 0.0180916 0)
(-0.37586 0.0212126 0)
(-0.375552 0.0212505 0)
(-0.374741 0.0206724 0)
(-0.373449 0.0200542 0)
(-0.371729 0.0195544 0)
(-0.369615 0.0191847 0)
(-0.367159 0.0188634 0)
(-0.364443 0.0184554 0)
(-0.361597 0.0178013 0)
(-0.358811 0.016745 0)
(-0.356313 0.0151464 0)
(-0.354373 0.0128578 0)
(-0.353309 0.0096129 0)
(-0.353675 0.00475096 0)
(-0.356176 -0.00285673 0)
(-0.361756 -0.0144853 0)
(-0.368578 -0.0332888 0)
(-0.376652 -0.066268 0)
(-0.38501 -0.13538 0)
(-0.376408 0.0169382 0)
(-0.377302 0.0198876 0)
(-0.376599 0.0197819 0)
(-0.37528 0.0190332 0)
(-0.373524 0.0181845 0)
(-0.371407 0.0174086 0)
(-0.368962 0.0167666 0)
(-0.366257 0.0162175 0)
(-0.363368 0.015668 0)
(-0.360398 0.0150052 0)
(-0.357488 0.0141136 0)
(-0.354805 0.0128831 0)
(-0.352582 0.0112173 0)
(-0.351078 0.00892416 0)
(-0.35073 0.00557712 0)
(-0.351932 0.000108063 0)
(-0.356773 -0.00855361 0)
(-0.360862 -0.0264561 0)
(-0.370486 -0.0575112 0)
(-0.383628 -0.144475 0)
(-0.377572 0.0273732 0)
(-0.378513 0.0263419 0)
(-0.377077 0.0228739 0)
(-0.375103 0.0198228 0)
(-0.372766 0.0176461 0)
(-0.370041 0.0160367 0)
(-0.366993 0.0148316 0)
(-0.363742 0.013898 0)
(-0.360379 0.0131034 0)
(-0.35699 0.0123399 0)
(-0.353684 0.0115221 0)
(-0.35062 0.0105837 0)
(-0.347983 0.00944477 0)
(-0.345949 0.00797346 0)
(-0.34497 0.00593671 0)
(-0.344895 0.00230884 0)
(-0.349202 -0.0039551 0)
(-0.347213 -0.019908 0)
(-0.366244 -0.0456335 0)
(-0.377307 -0.151706 0)
(-0.379185 0.0102272 0)
(-0.380813 0.00629821 0)
(-0.375769 0.0065207 0)
(-0.37016 0.00823069 0)
(-0.364375 0.00864087 0)
(-0.358743 0.00834246 0)
(-0.353413 0.00797619 0)
(-0.348378 0.00767944 0)
(-0.343595 0.00740141 0)
(-0.339037 0.00709463 0)
(-0.334716 0.0067398 0)
(-0.330683 0.00631866 0)
(-0.327038 0.00580766 0)
(-0.323794 0.00510476 0)
(-0.321507 0.00414356 0)
(-0.319152 0.00214275 0)
(-0.323238 -0.000651552 0)
(-0.315323 -0.0105184 0)
(-0.360361 -0.0237102 0)
(-0.338909 -0.132528 0)
(-0.350052 0.0574553 0)
(-0.337009 0.0420262 0)
(-0.321792 0.025761 0)
(-0.30892 0.0168316 0)
(-0.29915 0.0122178 0)
(-0.291017 0.00954223 0)
(-0.283657 0.00779448 0)
(-0.276851 0.00656321 0)
(-0.270547 0.00564397 0)
(-0.264685 0.00493231 0)
(-0.259224 0.0043576 0)
(-0.254151 0.00387378 0)
(-0.249521 0.00344856 0)
(-0.245296 0.00304354 0)
(-0.242066 0.00260497 0)
(-0.238455 0.00199394 0)
(-0.241822 0.00126518 0)
(-0.227933 -0.00137469 0)
(-0.30264 0.00354808 0)
(-0.148466 -0.05991 0)
)
;

boundaryField
{
    movingWall
    {
        type            calculated;
        value           uniform (0.25 0 0);
    }
    fixedWalls
    {
        type            calculated;
        value           uniform (-0.375 0 0);
    }
    frontAndBack
    {
        type            empty;
    }
}


// ************************************************************************* //
