/*--------------------------------*- C++ -*----------------------------------*\
| =========                 |                                                 |
| \\      /  F ield         | OpenFOAM: The Open Source CFD Toolbox           |
|  \\    /   O peration     | Version:  2312                                  |
|   \\  /    A nd           | Website:  www.openfoam.com                      |
|    \\/     M anipulation  |                                                 |
\*---------------------------------------------------------------------------*/
FoamFile
{
    version     2.0;
    format      ascii;
    arch        "LSB;label=32;scalar=64";
    class       volSymmTensorField;
    location    "4";
    object      UPrime2Mean;
}
// * * * * * * * * * * * * * * * * * * * * * * * * * * * * * * * * * * * * * //

dimensions      [0 2 -2 0 0 0 0];

internalField   nonuniform List<symmTensor> 
400
(
(0.234292 3.46982e-05 0 2.38971e-08 0 0)
(0.233717 0.000158343 0 1.7519e-07 0 0)
(0.23266 0.000237125 0 4.01448e-07 0 0)
(0.231446 0.000275744 0 5.6327e-07 0 0)
(0.230113 0.000310426 0 8.01408e-07 0 0)
(0.228634 0.00035537 0 1.30802e-06 0 0)
(0.226972 0.000412383 0 2.35481e-06 0 0)
(0.225129 0.000469171 0 4.14775e-06 0 0)
(0.223201 0.000491013 0 5.78107e-06 0 0)
(0.221389 0.000447606 0 5.77657e-06 0 0)
(0.219959 0.000328701 0 3.76981e-06 0 0)
(0.219168 0.000144757 0 1.2035e-06 0 0)
(0.21921 -0.000101048 0 1.97363e-07 0 0)
(0.220263 -0.000364653 0 1.89906e-06 0 0)
(0.222329 -0.000618275 0 6.07311e-06 0 0)
(0.225225 -0.000799703 0 1.04178e-05 0 0)
(0.228568 -0.000826033 0 1.08015e-05 0 0)
(0.231846 -0.000619618 0 5.35192e-06 0 0)
(0.234076 -0.000253014 0 5.47474e-07 0 0)
(0.234614 6.2344e-05 0 3.65875e-07 0 0)
(0.233989 0.000344138 0 8.48218e-07 0 0)
(0.232847 0.000736993 0 4.52005e-06 0 0)
(0.231303 0.000945128 0 7.88572e-06 0 0)
(0.22959 0.0010468 0 1.02681e-05 0 0)
(0.227763 0.00114096 0 1.38176e-05 0 0)
(0.225798 0.00125534 0 2.07746e-05 0 0)
(0.223684 0.00136536 0 3.18636e-05 0 0)
(0.221491 0.00142032 0 4.36865e-05 0 0)
(0.219346 0.00136508 0 4.89375e-05 0 0)
(0.217422 0.00116043 0 4.18824e-05 0 0)
(0.215919 0.000794926 0 2.45723e-05 0 0)
(0.215038 0.000280049 0 6.9149e-06 0 0)
(0.214976 -0.000359282 0 1.97243e-06 0 0)
(0.215887 -0.00107178 0 1.97372e-05 0 0)
(0.217879 -0.00176917 0 6.00172e-05 0 0)
(0.220911 -0.00230718 0 0.000104808 0 0)
(0.224744 -0.00249347 0 0.000120615 0 0)
(0.228927 -0.00210738 0 7.93435e-05 0 0)
(0.232695 -0.00113722 0 1.71408e-05 0 0)
(0.23438 -6.47004e-05 0 1.59587e-06 0 0)
(0.2337 0.000953247 0 7.4063e-06 0 0)
(0.232234 0.00152211 0 2.15809e-05 0 0)
(0.230515 0.00181649 0 3.28078e-05 0 0)
(0.228611 0.00198656 0 4.21328e-05 0 0)
(0.226574 0.00214614 0 5.63189e-05 0 0)
(0.224396 0.00232002 0 8.11324e-05 0 0)
(0.222081 0.00246358 0 0.000115151 0 0)
(0.219684 0.00250423 0 0.000145891 0 0)
(0.217317 0.00237126 0 0.000154311 0 0)
(0.215129 0.00201663 0 0.000128978 0 0)
(0.213309 0.00142002 0 7.69832e-05 0 0)
(0.212068 0.000582841 0 2.34621e-05 0 0)
(0.211615 -0.000464141 0 3.93499e-06 0 0)
(0.212114 -0.00165897 0 4.9615e-05 0 0)
(0.213703 -0.00288312 0 0.000171536 0 0)
(0.216501 -0.0039383 0 0.000337591 0 0)
(0.220509 -0.00452583 0 0.000452599 0 0)
(0.225476 -0.0042481 0 0.000388327 0 0)
(0.230721 -0.00279459 0 0.000146905 0 0)
(0.234102 -0.000676577 0 4.89018e-06 0 0)
(0.233533 0.00170476 0 2.58265e-05 0 0)
(0.231875 0.00238643 0 5.6267e-05 0 0)
(0.230072 0.0027396 0 7.95701e-05 0 0)
(0.228107 0.00297897 0 0.000102321 0 0)
(0.226005 0.0032122 0 0.000136983 0 0)
(0.223737 0.00345556 0 0.000192525 0 0)
(0.221293 0.00365237 0 0.000262828 0 0)
(0.218717 0.00370982 0 0.00032035 0 0)
(0.216112 0.00353459 0 0.000329101 0 0)
(0.213639 0.00305697 0 0.000271218 0 0)
(0.211503 0.00224 0 0.000163741 0 0)
(0.209925 0.00108347 0 5.46352e-05 0 0)
(0.2091 -0.000377717 0 6.01646e-06 0 0)
(0.209189 -0.00206443 0 7.45775e-05 0 0)
(0.210308 -0.00384243 0 0.000288585 0 0)
(0.212615 -0.00550237 0 0.000626696 0 0)
(0.216333 -0.00669664 0 0.000970211 0 0)
(0.221591 -0.00688298 0 0.001056 0 0)
(0.227984 -0.00532896 0 0.0006242 0 0)
(0.233433 -0.00183219 0 5.7083e-05 0 0)
(0.233472 0.00253187 0 6.01156e-05 0 0)
(0.231746 0.00330035 0 0.00011132 0 0)
(0.229942 0.00368982 0 0.000149284 0 0)
(0.228004 0.00399011 0 0.000190787 0 0)
(0.225923 0.00430524 0 0.000255037 0 0)
(0.223656 0.00464391 0 0.000353495 0 0)
(0.221176 0.00493155 0 0.000470224 0 0)
(0.218514 0.00504798 0 0.000556823 0 0)
(0.215784 0.00486556 0 0.000558463 0 0)
(0.213177 0.00428164 0 0.000454471 0 0)
(0.21092 0.0032438 0 0.000278293 0 0)
(0.209218 0.00176109 0 0.000103262 0 0)
(0.208215 -0.000109963 0 1.34769e-05 0 0)
(0.208008 -0.00226447 0 8.38965e-05 0 0)
(0.208703 -0.00457007 0 0.000358718 0 0)
(0.210378 -0.00684692 0 0.000841347 0 0)
(0.21337 -0.00877796 0 0.00145785 0 0)
(0.218217 -0.00974901 0 0.00192914 0 0)
(0.225062 -0.00862788 0 0.00162394 0 0)
(0.232072 -0.00403382 0 0.000377029 0 0)
(0.233496 0.00337067 0 0.000109605 0 0)
(0.231813 0.00421292 0 0.000183678 0 0)
(0.230083 0.00462882 0 0.000237032 0 0)
(0.228248 0.00498843 0 0.000300629 0 0)
(0.226279 0.00539642 0 0.000400262 0 0)
(0.224127 0.00585417 0 0.000547476 0 0)
(0.221747 0.00626551 0 0.000712308 0 0)
(0.219167 0.00647312 0 0.000823291 0 0)
(0.216505 0.00630054 0 0.000808532 0 0)
(0.213947 0.005608 0 0.00065259 0 0)
(0.211694 0.00433632 0 0.000410271 0 0)
(0.209911 0.00251462 0 0.000174097 0 0)
(0.208756 0.000238792 0 4.21274e-05 0 0)
(0.208362 -0.00236852 0 9.94746e-05 0 0)
(0.208788 -0.00515068 0 0.000402553 0 0)
(0.210019 -0.00795541 0 0.000968478 0 0)
(0.212229 -0.0105899 0 0.00178121 0 0)
(0.216153 -0.0125475 0 0.00269923 0 0)
(0.222701 -0.0124199 0 0.00299064 0 0)
(0.230629 -0.00732765 0 0.00124294 0 0)
(0.233584 0.00416528 0 0.000168455 0 0)
(0.232032 0.00508033 0 0.00026541 0 0)
(0.230447 0.0055185 0 0.000332733 0 0)
(0.228792 0.00593159 0 0.000417231 0 0)
(0.227033 0.00643162 0 0.000550064 0 0)
(0.225126 0.00701793 0 0.000741863 0 0)
(0.223021 0.00756955 0 0.000947374 0 0)
(0.220726 0.0078886 0 0.00107599 0 0)
(0.218325 0.00774936 0 0.00104644 0 0)
(0.215947 0.00697798 0 0.000852696 0 0)
(0.213724 0.00550634 0 0.000563634 0 0)
(0.21182 0.00336752 0 0.000279635 0 0)
(0.210455 0.000668681 0 0.000107549 0 0)
(0.209846 -0.00242259 0 0.000144412 0 0)
(0.210057 -0.00569252 0 0.000455857 0 0)
(0.21102 -0.00894859 0 0.00106268 0 0)
(0.212697 -0.0121252 0 0.00197975 0 0)
(0.215617 -0.0150207 0 0.00321797 0 0)
(0.221323 -0.0162985 0 0.00432318 0 0)
(0.229515 -0.0115786 0 0.00276381 0 0)
(0.233718 0.00487127 0 0.000227253 0 0)
(0.232361 0.00586467 0 0.000345661 0 0)
(0.230982 0.0063207 0 0.000423156 0 0)
(0.229573 0.0067732 0 0.000522174 0 0)
(0.228117 0.00734724 0 0.000677291 0 0)
(0.226584 0.00804647 0 0.000898442 0 0)
(0.224934 0.00873442 0 0.00113022 0 0)
(0.223133 0.00918855 0 0.00127615 0 0)
(0.22119 0.00913162 0 0.00124751 0 0)
(0.219145 0.00834822 0 0.00104087 0 0)
(0.21705 0.00675539 0 0.00073229 0 0)
(0.215062 0.00435582 0 0.000420546 0 0)
(0.213476 0.00123922 0 0.000216567 0 0)
(0.212557 -0.00237736 0 0.000229505 0 0)
(0.212437 -0.00617343 0 0.000529742 0 0)
(0.213043 -0.00986645 0 0.00114522 0 0)
(0.21427 -0.0134653 0 0.00211222 0 0)
(0.216317 -0.0170889 0 0.00353056 0 0)
(0.220935 -0.0199344 0 0.00537446 0 0)
(0.228867 -0.0164511 0 0.00473273 0 0)
(0.233874 0.00545533 0 0.000275958 0 0)
(0.232761 0.00653498 0 0.000413141 0 0)
(0.23163 0.00700288 0 0.000495761 0 0)
(0.230516 0.00747285 0 0.000599707 0 0)
(0.229429 0.00808634 0 0.000760733 0 0)
(0.228371 0.00885772 0 0.000988511 0 0)
(0.227312 0.00964969 0 0.00122682 0 0)
(0.226185 0.0102372 0 0.00138492 0 0)
(0.224923 0.010315 0 0.00137409 0 0)
(0.223461 0.00963575 0 0.00119034 0 0)
(0.221732 0.00805114 0 0.000897891 0 0)
(0.219843 0.00548711 0 0.000583094 0 0)
(0.218071 0.00200281 0 0.000362613 0 0)
(0.216776 -0.00213986 0 0.000349889 0 0)
(0.216146 -0.00645939 0 0.000611955 0 0)
(0.216133 -0.0105941 0 0.00119448 0 0)
(0.216705 -0.0145676 0 0.0021711 0 0)
(0.217875 -0.0187527 0 0.00369349 0 0)
(0.221281 -0.0231443 0 0.00611754 0 0)
(0.22857 -0.021549 0 0.0068101 0 0)
(0.234035 0.00590043 0 0.000307103 0 0)
(0.23319 0.00707101 0 0.000459314 0 0)
(0.232332 0.00754339 0 0.000542136 0 0)
(0.231532 0.00800187 0 0.00064057 0 0)
(0.230841 0.008605 0 0.000789305 0 0)
(0.230298 0.00938357 0 0.000998646 0 0)
(0.229893 0.0102249 0 0.00122331 0 0)
(0.229557 0.0109129 0 0.0013822 0 0)
(0.229164 0.0111481 0 0.00139653 0 0)
(0.228561 0.0106463 0 0.00125398 0 0)
(0.227587 0.009211 0 0.00100991 0 0)
(0.226169 0.00668768 0 0.000738396 0 0)
(0.224426 0.00302688 0 0.000527633 0 0)
(0.222746 -0.00151068 0 0.000483445 0 0)
(0.221344 -0.0063259 0 0.000674457 0 0)
(0.220368 -0.0109272 0 0.00117557 0 0)
(0.21997 -0.0152756 0 0.00211618 0 0)
(0.220079 -0.0199587 0 0.00370591 0 0)
(0.22215 -0.0257812 0 0.00656425 0 0)
(0.228386 -0.0265792 0 0.00876605 0 0)
(0.234183 0.00620271 0 0.00031724 0 0)
(0.233604 0.00746522 0 0.000480061 0 0)
(0.233016 0.00793198 0 0.000559017 0 0)
(0.232525 0.00834873 0 0.00064376 0 0)
(0.232214 0.0088895 0 0.000766572 0 0)
(0.232158 0.00960087 0 0.000937689 0 0)
(0.232375 0.0104042 0 0.00112578 0 0)
(0.232826 0.011111 0 0.00126556 0 0)
(0.233368 0.0114565 0 0.00129478 0 0)
(0.233804 0.0111583 0 0.00119849 0 0)
(0.233872 0.00998616 0 0.00102218 0 0)
(0.233377 0.00772956 0 0.000828224 0 0)
(0.232112 0.00419711 0 0.000668603 0 0)
(0.230129 -0.000454347 0 0.000599413 0 0)
(0.227802 -0.00560006 0 0.000690866 0 0)
(0.225626 -0.0106285 0 0.001067 0 0)
(0.223982 -0.0153989 0 0.00192018 0 0)
(0.222809 -0.0205624 0 0.00353092 0 0)
(0.223395 -0.027753 0 0.00673541 0 0)
(0.228189 -0.0313815 0 0.010485 0 0)
(0.234298 0.00637528 0 0.00030778 0 0)
(0.233954 0.00772371 0 0.00047613 0 0)
(0.233614 0.00817324 0 0.00054871 0 0)
(0.233405 0.00852087 0 0.000615407 0 0)
(0.233429 0.00895442 0 0.000705741 0 0)
(0.233779 0.00953099 0 0.000828639 0 0)
(0.234502 0.0102038 0 0.000964753 0 0)
(0.235587 0.0108229 0 0.00106764 0 0)
(0.236919 0.0111701 0 0.00109245 0 0)
(0.238296 0.0110011 0 0.0010281 0 0)
(0.239435 0.0100932 0 0.000911498 0 0)
(0.240018 0.00823428 0 0.000798894 0 0)
(0.239617 0.00522731 0 0.000725826 0 0)
(0.237863 0.000986062 0 0.000675583 0 0)
(0.234877 -0.00416394 0 0.000675087 0 0)
(0.231497 -0.00952159 0 0.00089114 0 0)
(0.228497 -0.0147753 0 0.00159506 0 0)
(0.225927 -0.0204471 0 0.00316031 0 0)
(0.224883 -0.02898 0 0.0066358 0 0)
(0.227934 -0.0358927 0 0.0119606 0 0)
(0.234359 0.00644679 0 0.000284311 0 0)
(0.234194 0.00786454 0 0.000452083 0 0)
(0.234064 0.00828183 0 0.000516928 0 0)
(0.234099 0.00853774 0 0.000564902 0 0)
(0.234404 0.00883388 0 0.000623331 0 0)
(0.235068 0.009234 0 0.000699846 0 0)
(0.236147 0.00971486 0 0.000783396 0 0)
(0.237644 0.0101652 0 0.000844615 0 0)
(0.239474 0.010416 0 0.000854652 0 0)
(0.241454 0.0102712 0 0.000806594 0 0)
(0.243315 0.00954675 0 0.000728898 0 0)
(0.244699 0.00808394 0 0.000671788 0 0)
(0.245153 0.00571979 0 0.000663509 0 0)
(0.244082 0.00230327 0 0.000673901 0 0)
(0.241254 -0.00227942 0 0.000641184 0 0)
(0.237266 -0.00769837 0 0.000702018 0 0)
(0.233122 -0.0133405 0 0.00119883 0 0)
(0.229236 -0.0195387 0 0.00262312 0 0)
(0.226473 -0.0293996 0 0.00626871 0 0)
(0.227597 -0.0400901 0 0.0132319 0 0)
(0.234345 0.00647956 0 0.00025578 0 0)
(0.234279 0.00792166 0 0.000415594 0 0)
(0.234311 0.00827923 0 0.000470923 0 0)
(0.234555 0.00842136 0 0.000501419 0 0)
(0.235101 0.00856338 0 0.000532824 0 0)
(0.236009 0.00877436 0 0.00057225 0 0)
(0.237323 0.00904575 0 0.000613836 0 0)
(0.239043 0.00930151 0 0.000641364 0 0)
(0.241098 0.00941611 0 0.000637993 0 0)
(0.243333 0.00924194 0 0.000600016 0 0)
(0.245502 0.00864234 0 0.000546307 0 0)
(0.247278 0.00751435 0 0.000513076 0 0)
(0.248289 0.00575798 0 0.000527903 0 0)
(0.24804 0.00318539 0 0.00057132 0 0)
(0.245968 -0.000482814 0 0.000581051 0 0)
(0.242207 -0.00544485 0 0.000552062 0 0)
(0.237482 -0.0111799 0 0.000816791 0 0)
(0.23254 -0.0178401 0 0.00198955 0 0)
(0.228112 -0.0288986 0 0.0056131 0 0)
(0.227185 -0.0438474 0 0.0142912 0 0)
(0.234221 0.00647522 0 0.000227037 0 0)
(0.234134 0.0079086 0 0.000372643 0 0)
(0.234292 0.00817103 0 0.000416324 0 0)
(0.234735 0.00817778 0 0.000431173 0 0)
(0.235508 0.00816 0 0.000441785 0 0)
(0.236633 0.00818953 0 0.000455018 0 0)
(0.238125 0.00826757 0 0.000468403 0 0)
(0.239967 0.00834405 0 0.000473874 0 0)
(0.242097 0.00833174 0 0.000462821 0 0)
(0.244382 0.00812558 0 0.00043331 0 0)
(0.246614 0.00762933 0 0.000395663 0 0)
(0.248543 0.00677088 0 0.000370619 0 0)
(0.249878 0.00547991 0 0.000379251 0 0)
(0.250266 0.00361403 0 0.000423461 0 0)
(0.249158 0.000863898 0 0.00046283 0 0)
(0.246173 -0.0031762 0 0.000446821 0 0)
(0.241506 -0.00853816 0 0.000522622 0 0)
(0.235879 -0.0154848 0 0.0013641 0 0)
(0.230176 -0.0273326 0 0.00466063 0 0)
(0.22687 -0.0470318 0 0.0150839 0 0)
(0.233933 0.00678903 0 0.000225759 0 0)
(0.233745 0.00796722 0 0.000342342 0 0)
(0.233991 0.00801091 0 0.000364861 0 0)
(0.234633 0.00782909 0 0.000362201 0 0)
(0.235647 0.00763944 0 0.00035599 0 0)
(0.237001 0.00750037 0 0.000351497 0 0)
(0.238673 0.00741456 0 0.00034789 0 0)
(0.240629 0.0073461 0 0.000341131 0 0)
(0.242806 0.00723517 0 0.000327073 0 0)
(0.245095 0.00700996 0 0.000304516 0 0)
(0.247337 0.00660141 0 0.000277799 0 0)
(0.249336 0.00595231 0 0.000256632 0 0)
(0.250871 0.0050095 0 0.00025317 0 0)
(0.251689 0.00367757 0 0.000275885 0 0)
(0.251371 0.001706 0 0.000310835 0 0)
(0.249414 -0.00133902 0 0.000322891 0 0)
(0.245134 -0.00585485 0 0.000330006 0 0)
(0.239853 -0.0128326 0 0.000863384 0 0)
(0.233562 -0.0248072 0 0.00353861 0 0)
(0.227011 -0.0500139 0 0.0157668 0 0)
(0.233286 0.00634725 0 0.000185843 0 0)
(0.232667 0.00744221 0 0.000273252 0 0)
(0.233203 0.00743153 0 0.000288073 0 0)
(0.234227 0.00718712 0 0.000281401 0 0)
(0.235589 0.00691018 0 0.000269505 0 0)
(0.237241 0.00666307 0 0.000257423 0 0)
(0.239162 0.00646723 0 0.000246517 0 0)
(0.241301 0.00630372 0 0.00023537 0 0)
(0.243599 0.00613221 0 0.000221897 0 0)
(0.245971 0.00590352 0 0.000205081 0 0)
(0.248294 0.00556802 0 0.000186148 0 0)
(0.250426 0.00508076 0 0.000168669 0 0)
(0.252174 0.0044061 0 0.000157768 0 0)
(0.253329 0.00347313 0 0.000158471 0 0)
(0.253555 0.0021193 0 0.000171786 0 0)
(0.252572 -6.82193e-05 0 0.000183147 0 0)
(0.248795 -0.0034894 0 0.000201817 0 0)
(0.245667 -0.0103757 0 0.000550652 0 0)
(0.238183 -0.0218387 0 0.00250078 0 0)
(0.228069 -0.0537166 0 0.0166686 0 0)
(0.232401 0.0102371 0 0.000473013 0 0)
(0.23176 0.00982517 0 0.000457009 0 0)
(0.232833 0.00857115 0 0.000362431 0 0)
(0.23434 0.00746712 0 0.000284963 0 0)
(0.236131 0.00669065 0 0.000235853 0 0)
(0.238237 0.00612664 0 0.000202807 0 0)
(0.24061 0.00571371 0 0.000179624 0 0)
(0.243162 0.00539965 0 0.000161948 0 0)
(0.245821 0.00513185 0 0.000146596 0 0)
(0.248515 0.00486642 0 0.000131847 0 0)
(0.251149 0.00456821 0 0.00011728 0 0)
(0.253588 0.00421032 0 0.000103423 0 0)
(0.255676 0.00376118 0 9.08786e-05 0 0)
(0.257266 0.00316962 0 7.99313e-05 0 0)
(0.257997 0.00234229 0 7.14847e-05 0 0)
(0.258007 0.000874292 0 6.50346e-05 0 0)
(0.254558 -0.00164247 0 8.63101e-05 0 0)
(0.256196 -0.00801185 0 0.000356799 0 0)
(0.241327 -0.0174937 0 0.00148137 0 0)
(0.232938 -0.0573047 0 0.0167154 0 0)
(0.231254 0.00382296 0 7.08578e-05 0 0)
(0.230037 0.00233417 0 2.67387e-05 0 0)
(0.233808 0.00244713 0 2.95904e-05 0 0)
(0.238042 0.00312113 0 4.85181e-05 0 0)
(0.24246 0.00331559 0 5.5119e-05 0 0)
(0.246814 0.00323925 0 5.31844e-05 0 0)
(0.250985 0.00313311 0 5.00642e-05 0 0)
(0.254971 0.00304983 0 4.7469e-05 0 0)
(0.2588 0.00296995 0 4.49071e-05 0 0)
(0.262484 0.00287418 0 4.18981e-05 0 0)
(0.266005 0.00275402 0 3.83999e-05 0 0)
(0.269315 0.00260143 0 3.44866e-05 0 0)
(0.272321 0.00240603 0 3.01886e-05 0 0)
(0.275008 0.00212463 0 2.47705e-05 0 0)
(0.276902 0.00172457 0 1.81317e-05 0 0)
(0.278844 0.000876948 0 9.03201e-06 0 0)
(0.275457 -0.000331974 0 1.46807e-05 0 0)
(0.281965 -0.00451701 0 0.000135619 0 0)
(0.245731 -0.00922906 0 0.000439857 0 0)
(0.263095 -0.0534411 0 0.011765 0 0)
(0.253635 0.02244 0 0.00201257 0 0)
(0.263746 0.0167574 0 0.00113714 0 0)
(0.276094 0.0105463 0 0.000453766 0 0)
(0.286734 0.00704551 0 0.000204289 0 0)
(0.294989 0.00520428 0 0.000111953 0 0)
(0.301965 0.0041239 0 7.01974e-05 0 0)
(0.308367 0.00341321 0 4.78234e-05 0 0)
(0.314363 0.00290945 0 3.44777e-05 0 0)
(0.319984 0.00253084 0 2.58675e-05 0 0)
(0.32527 0.00223578 0 2.00223e-05 0 0)
(0.330247 0.00199555 0 1.583e-05 0 0)
(0.334918 0.00179109 0 1.26657e-05 0 0)
(0.339218 0.00160859 0 1.01509e-05 0 0)
(0.343174 0.00143075 0 7.96455e-06 0 0)
(0.346218 0.00123065 0 5.81366e-06 0 0)
(0.349611 0.000942096 0 3.24201e-06 0 0)
(0.346456 0.000581117 0 1.28546e-06 0 0)
(0.359203 -0.000711167 0 7.55712e-06 0 0)
(0.292296 0.00136741 0 6.07551e-05 0 0)
(0.437346 -0.0308646 0 0.00220037 0 0)
)
;

boundaryField
{
    movingWall
    {
        type            calculated;
        value           uniform (0.9375 0 0 0 0 0);
    }
    fixedWalls
    {
        type            calculated;
        value           uniform (0.234375 0 0 0 0 0);
    }
    frontAndBack
    {
        type            empty;
    }
}


// ************************************************************************* //
