/*--------------------------------*- C++ -*----------------------------------*\
| =========                 |                                                 |
| \\      /  F ield         | OpenFOAM: The Open Source CFD Toolbox           |
|  \\    /   O peration     | Version:  2312                                  |
|   \\  /    A nd           | Website:  www.openfoam.com                      |
|    \\/     M anipulation  |                                                 |
\*---------------------------------------------------------------------------*/
FoamFile
{
    version     2.0;
    format      ascii;
    arch        "LSB;label=32;scalar=64";
    class       volVectorField;
    location    "4";
    object      vorticityField;
}
// * * * * * * * * * * * * * * * * * * * * * * * * * * * * * * * * * * * * * //

dimensions      [0 0 -1 0 0 0 0];

internalField   nonuniform List<vector> 
400
(
(0 -0 4.74667e-06)
(0 -0 -5.85564e-06)
(0 -0 1.39037e-06)
(0 -0 -3.30815e-07)
(0 -0 7.84183e-08)
(0 -0 -1.87839e-08)
(0 -0 4.38947e-09)
(0 -0 -1.09776e-09)
(0 -0 2.2658e-10)
(0 -0 -7.83112e-11)
(0 -0 1.65068e-12)
(0 -0 -1.24873e-11)
(0 -0 -5.49047e-12)
(0 -0 -4.57854e-12)
(0 -0 -2.92153e-12)
(0 -0 -1.96149e-12)
(0 -0 -1.15154e-12)
(0 -0 -5.21363e-13)
(0 -0 -1.21609e-13)
(0 -0 -8.68084e-14)
(0 -0 -4.75777e-06)
(0 -0 5.85821e-06)
(0 -0 -1.39096e-06)
(0 -0 3.30243e-07)
(0 -0 -7.84059e-08)
(0 -0 1.86136e-08)
(0 -0 -4.41952e-09)
(0 -0 1.04865e-09)
(0 -0 -2.49438e-10)
(0 -0 5.87672e-11)
(0 -0 -1.43471e-11)
(0 -0 3.05079e-12)
(0 -0 -1.05261e-12)
(0 -0 -7.75272e-14)
(0 -0 -3.09525e-13)
(0 -0 -1.71657e-13)
(0 -0 -1.42638e-13)
(0 -0 -2.38212e-13)
(0 -0 -3.90683e-13)
(0 -0 -1.59174e-13)
(0 -0 4.76554e-06)
(0 -0 -5.85011e-06)
(0 -0 1.38737e-06)
(0 -0 -3.28989e-07)
(0 -0 7.80111e-08)
(0 -0 -1.84983e-08)
(0 -0 4.38569e-09)
(0 -0 -1.04034e-09)
(0 -0 2.462e-10)
(0 -0 -5.88395e-11)
(0 -0 1.35153e-11)
(0 -0 -3.56376e-12)
(0 -0 4.30927e-13)
(0 -0 -6.06194e-13)
(0 -0 -3.36394e-13)
(0 -0 -3.40965e-13)
(0 -0 -3.11762e-13)
(0 -0 -4.23587e-13)
(0 -0 -6.44752e-13)
(0 -0 -3.21474e-13)
(0 -0 -4.78452e-06)
(0 -0 5.85112e-06)
(0 -0 -1.38714e-06)
(0 -0 3.28817e-07)
(0 -0 -7.79438e-08)
(0 -0 1.84748e-08)
(0 -0 -4.37961e-09)
(0 -0 1.03753e-09)
(0 -0 -2.46442e-10)
(0 -0 5.78975e-11)
(0 -0 -1.42145e-11)
(0 -0 2.9067e-12)
(0 -0 -1.24856e-12)
(0 -0 -3.09262e-13)
(0 -0 -5.38963e-13)
(0 -0 -4.10868e-13)
(0 -0 -3.5734e-13)
(0 -0 -5.00347e-13)
(0 -0 -7.32731e-13)
(0 -0 -4.87916e-13)
(0 -0 4.78781e-06)
(0 -0 -5.84942e-06)
(0 -0 1.38647e-06)
(0 -0 -3.28594e-07)
(0 -0 7.7874e-08)
(0 -0 -1.84558e-08)
(0 -0 4.37303e-09)
(0 -0 -1.03689e-09)
(0 -0 2.4512e-10)
(0 -0 -5.86837e-11)
(0 -0 1.32898e-11)
(0 -0 -3.81321e-12)
(0 -0 2.22671e-13)
(0 -0 -7.48546e-13)
(0 -0 -5.36871e-13)
(0 -0 -5.27721e-13)
(0 -0 -3.86582e-13)
(0 -0 -6.51557e-13)
(0 -0 -9.40407e-13)
(0 -0 -5.67397e-13)
(0 -0 -4.78894e-06)
(0 -0 5.84952e-06)
(0 -0 -1.38638e-06)
(0 -0 3.28546e-07)
(0 -0 -7.78579e-08)
(0 -0 1.84494e-08)
(0 -0 -4.37236e-09)
(0 -0 1.03546e-09)
(0 -0 -2.45971e-10)
(0 -0 5.76398e-11)
(0 -0 -1.43212e-11)
(0 -0 2.6908e-12)
(0 -0 -1.40916e-12)
(0 -0 -3.99374e-13)
(0 -0 -5.86989e-13)
(0 -0 -4.54609e-13)
(0 -0 -4.24613e-13)
(0 -0 -6.52827e-13)
(0 -0 -1.08968e-12)
(0 -0 -5.04586e-13)
(0 -0 4.78436e-06)
(0 -0 -5.8501e-06)
(0 -0 1.38652e-06)
(0 -0 -3.28582e-07)
(0 -0 7.78653e-08)
(0 -0 -1.84525e-08)
(0 -0 4.37185e-09)
(0 -0 -1.0367e-09)
(0 -0 2.449e-10)
(0 -0 -5.87165e-11)
(0 -0 1.32419e-11)
(0 -0 -3.86394e-12)
(0 -0 2.64571e-13)
(0 -0 -7.13452e-13)
(0 -0 -4.87658e-13)
(0 -0 -3.67191e-13)
(0 -0 -2.88687e-13)
(0 -0 -6.3164e-13)
(0 -0 -1.16829e-12)
(0 -0 -5.26387e-13)
(0 -0 -4.77975e-06)
(0 -0 5.85286e-06)
(0 -0 -1.38725e-06)
(0 -0 3.28768e-07)
(0 -0 -7.79154e-08)
(0 -0 1.84639e-08)
(0 -0 -4.37643e-09)
(0 -0 1.03629e-09)
(0 -0 -2.46388e-10)
(0 -0 5.75189e-11)
(0 -0 -1.44912e-11)
(0 -0 2.66304e-12)
(0 -0 -1.28774e-12)
(0 -0 -4.25559e-13)
(0 -0 -6.39536e-13)
(0 -0 -4.26685e-13)
(0 -0 -2.94726e-13)
(0 -0 -6.28695e-13)
(0 -0 -1.18365e-12)
(0 -0 -6.03484e-13)
(0 -0 4.77286e-06)
(0 -0 -5.85684e-06)
(0 -0 1.38831e-06)
(0 -0 -3.29051e-07)
(0 -0 7.79878e-08)
(0 -0 -1.84845e-08)
(0 -0 4.38004e-09)
(0 -0 -1.03889e-09)
(0 -0 2.45404e-10)
(0 -0 -5.90167e-11)
(0 -0 1.31498e-11)
(0 -0 -3.86983e-12)
(0 -0 1.67074e-13)
(0 -0 -7.85391e-13)
(0 -0 -4.99939e-13)
(0 -0 -5.22022e-13)
(0 -0 -3.85629e-13)
(0 -0 -6.68727e-13)
(0 -0 -1.11593e-12)
(0 -0 -4.81237e-13)
(0 -0 -4.76649e-06)
(0 -0 5.86267e-06)
(0 -0 -1.38984e-06)
(0 -0 3.29449e-07)
(0 -0 -7.80931e-08)
(0 -0 1.85102e-08)
(0 -0 -4.38828e-09)
(0 -0 1.03942e-09)
(0 -0 -2.47202e-10)
(0 -0 5.78228e-11)
(0 -0 -1.43332e-11)
(0 -0 2.78701e-12)
(0 -0 -1.41807e-12)
(0 -0 -4.27892e-13)
(0 -0 -5.3015e-13)
(0 -0 -3.47989e-13)
(0 -0 -2.79389e-13)
(0 -0 -5.87185e-13)
(0 -0 -1.18943e-12)
(0 -0 -4.12196e-13)
(0 -0 4.75929e-06)
(0 -0 -5.86961e-06)
(0 -0 1.39166e-06)
(0 -0 -3.29925e-07)
(0 -0 7.82155e-08)
(0 -0 -1.85434e-08)
(0 -0 4.39554e-09)
(0 -0 -1.04267e-09)
(0 -0 2.46641e-10)
(0 -0 -5.90196e-11)
(0 -0 1.34168e-11)
(0 -0 -3.70835e-12)
(0 -0 3.39412e-13)
(0 -0 -7.46075e-13)
(0 -0 -4.88871e-13)
(0 -0 -4.26743e-13)
(0 -0 -2.75945e-13)
(0 -0 -5.67976e-13)
(0 -0 -1.07999e-12)
(0 -0 -3.61109e-13)
(0 -0 -4.75257e-06)
(0 -0 5.87776e-06)
(0 -0 -1.39379e-06)
(0 -0 3.30477e-07)
(0 -0 -7.83594e-08)
(0 -0 1.85795e-08)
(0 -0 -4.40591e-09)
(0 -0 1.04428e-09)
(0 -0 -2.48107e-10)
(0 -0 5.83442e-11)
(0 -0 -1.43195e-11)
(0 -0 2.89698e-12)
(0 -0 -1.28895e-12)
(0 -0 -2.68016e-13)
(0 -0 -5.61533e-13)
(0 -0 -3.83749e-13)
(0 -0 -2.16097e-13)
(0 -0 -4.82466e-13)
(0 -0 -1.01814e-12)
(0 -0 -1.75989e-13)
(0 -0 4.7461e-06)
(0 -0 -5.88656e-06)
(0 -0 1.39608e-06)
(0 -0 -3.31072e-07)
(0 -0 7.85121e-08)
(0 -0 -1.86199e-08)
(0 -0 4.41523e-09)
(0 -0 -1.0477e-09)
(0 -0 2.47868e-10)
(0 -0 -5.93818e-11)
(0 -0 1.3505e-11)
(0 -0 -3.74647e-12)
(0 -0 4.31166e-13)
(0 -0 -6.00649e-13)
(0 -0 -3.08666e-13)
(0 -0 -1.8948e-13)
(0 -0 -8.88889e-14)
(0 -0 -5.01579e-13)
(0 -0 -8.92174e-13)
(0 -0 -2.40488e-13)
(0 -0 -4.73996e-06)
(0 -0 5.89574e-06)
(0 -0 -1.39846e-06)
(0 -0 3.31688e-07)
(0 -0 -7.86725e-08)
(0 -0 1.86601e-08)
(0 -0 -4.42668e-09)
(0 -0 1.04951e-09)
(0 -0 -2.49384e-10)
(0 -0 5.87672e-11)
(0 -0 -1.43422e-11)
(0 -0 3.00979e-12)
(0 -0 -1.05853e-12)
(0 -0 -8.41844e-14)
(0 -0 -2.67321e-13)
(0 -0 -8.20687e-14)
(0 -0 1.3901e-14)
(0 -0 -3.34835e-13)
(0 -0 -8.07775e-13)
(0 -0 -1.78969e-13)
(0 -0 4.7352e-06)
(0 -0 -5.90498e-06)
(0 -0 1.40085e-06)
(0 -0 -3.32303e-07)
(0 -0 7.88295e-08)
(0 -0 -1.87013e-08)
(0 -0 4.4364e-09)
(0 -0 -1.05286e-09)
(0 -0 2.49499e-10)
(0 -0 -5.9502e-11)
(0 -0 1.37848e-11)
(0 -0 -3.4915e-12)
(0 -0 5.40079e-13)
(0 -0 -3.93103e-13)
(0 -0 -8.73989e-14)
(0 -0 -1.23445e-13)
(0 -0 4.0282e-14)
(0 -0 -2.71499e-13)
(0 -0 -7.57068e-13)
(0 -0 -5.90814e-14)
(0 -0 -4.73038e-06)
(0 -0 5.91359e-06)
(0 -0 -1.40307e-06)
(0 -0 3.32875e-07)
(0 -0 -7.89773e-08)
(0 -0 1.87385e-08)
(0 -0 -4.4466e-09)
(0 -0 1.05479e-09)
(0 -0 -2.50612e-10)
(0 -0 5.91757e-11)
(0 -0 -1.43998e-11)
(0 -0 3.13675e-12)
(0 -0 -1.05295e-12)
(0 -0 -9.7333e-14)
(0 -0 -2.74561e-13)
(0 -0 -1.61506e-13)
(0 -0 -1.11145e-13)
(0 -0 -3.14236e-13)
(0 -0 -6.42622e-13)
(0 -0 -1.39651e-14)
(0 -0 4.7285e-06)
(0 -0 -5.92182e-06)
(0 -0 1.40516e-06)
(0 -0 -3.33407e-07)
(0 -0 7.91123e-08)
(0 -0 -1.87733e-08)
(0 -0 4.45493e-09)
(0 -0 -1.0574e-09)
(0 -0 2.50812e-10)
(0 -0 -5.97189e-11)
(0 -0 1.41049e-11)
(0 -0 -3.49174e-12)
(0 -0 6.22957e-13)
(0 -0 -3.31951e-13)
(0 -0 -1.0522e-13)
(0 -0 -4.86433e-14)
(0 -0 4.16212e-14)
(0 -0 -1.23852e-13)
(0 -0 -3.8263e-13)
(0 -0 -9.07795e-15)
(0 -0 -4.7276e-06)
(0 -0 5.92883e-06)
(0 -0 -1.40696e-06)
(0 -0 3.33865e-07)
(0 -0 -7.92288e-08)
(0 -0 1.88025e-08)
(0 -0 -4.46258e-09)
(0 -0 1.0591e-09)
(0 -0 -2.51543e-10)
(0 -0 5.95528e-11)
(0 -0 -1.41921e-11)
(0 -0 3.32245e-12)
(0 -0 -8.73208e-13)
(0 -0 9.85583e-14)
(0 -0 -1.43557e-13)
(0 -0 1.63671e-14)
(0 -0 1.27411e-13)
(0 -0 -9.98814e-14)
(0 -0 -3.11007e-13)
(0 -0 1.29636e-14)
(0 -0 4.72667e-06)
(0 -0 -5.93873e-06)
(0 -0 1.41046e-06)
(0 -0 -3.34972e-07)
(0 -0 7.95572e-08)
(0 -0 -1.88964e-08)
(0 -0 4.48842e-09)
(0 -0 -1.06632e-09)
(0 -0 2.53231e-10)
(0 -0 -6.02765e-11)
(0 -0 1.41867e-11)
(0 -0 -3.41157e-12)
(0 -0 8.22726e-13)
(0 -0 -2.6027e-13)
(0 -0 8.38963e-14)
(0 -0 3.96975e-14)
(0 -0 1.70001e-14)
(0 -0 -1.41234e-13)
(0 -0 -3.47825e-13)
(0 -0 3.00791e-14)
(0 -0 -4.76715e-06)
(0 -0 5.95117e-06)
(0 -0 -1.41749e-06)
(0 -0 3.36978e-07)
(0 -0 -8.02633e-08)
(0 -0 1.91515e-08)
(0 -0 -4.55494e-09)
(0 -0 1.09463e-09)
(0 -0 -2.5867e-10)
(0 -0 6.32807e-11)
(0 -0 -1.48877e-11)
(0 -0 3.3209e-12)
(0 -0 -1.23768e-12)
(0 -0 -2.04141e-13)
(0 -0 -4.43935e-13)
(0 -0 -2.64818e-13)
(0 -0 -1.80256e-13)
(0 -0 -2.1884e-15)
(0 -0 7.52317e-14)
(0 -0 6.3462e-14)
)
;

boundaryField
{
    movingWall
    {
        type            calculated;
        value           nonuniform List<vector> 
20
(
(0 -0 -5.00304e-06)
(0 -0 6.01242e-06)
(0 -0 -1.4439e-06)
(0 -0 3.44082e-07)
(0 -0 -8.25654e-08)
(0 -0 1.98799e-08)
(0 -0 -4.74983e-09)
(0 -0 1.16241e-09)
(0 -0 -2.74433e-10)
(0 -0 6.95315e-11)
(0 -0 -1.62696e-11)
(0 -0 3.61906e-12)
(0 -0 -1.69218e-12)
(0 -0 -5.69821e-13)
(0 -0 -9.25538e-13)
(0 -0 -5.88387e-13)
(0 -0 -4.07505e-13)
(0 -0 -2.1884e-15)
(0 -0 3.56691e-13)
(0 -0 1.86888e-13)
)
;
    }
    fixedWalls
    {
        type            calculated;
        value           nonuniform List<vector> 
60
(
(0 -0 2.48035e-05)
(0 -0 -2.48088e-05)
(0 -0 2.47948e-05)
(0 -0 -2.48012e-05)
(0 -0 2.47953e-05)
(0 -0 -2.47964e-05)
(0 -0 2.4799e-05)
(0 -0 -2.48105e-05)
(0 -0 2.4827e-05)
(0 -0 -2.48511e-05)
(0 -0 2.48798e-05)
(0 -0 -2.49135e-05)
(0 -0 2.49499e-05)
(0 -0 -2.49879e-05)
(0 -0 2.50261e-05)
(0 -0 -2.50617e-05)
(0 -0 2.50957e-05)
(0 -0 -2.51245e-05)
(0 -0 2.51479e-05)
(0 -0 -2.52108e-05)
(0 -0 -1.86624e-14)
(0 -0 5.02026e-14)
(0 -0 2.25995e-14)
(0 -0 -4.65016e-14)
(0 -0 -2.89033e-14)
(0 -0 1.26739e-13)
(0 -0 1.87184e-13)
(0 -0 1.71187e-13)
(0 -0 3.56394e-13)
(0 -0 4.65367e-13)
(0 -0 5.11486e-13)
(0 -0 6.80844e-13)
(0 -0 5.9466e-13)
(0 -0 6.4198e-13)
(0 -0 7.0604e-13)
(0 -0 6.37036e-13)
(0 -0 5.12055e-13)
(0 -0 4.31635e-13)
(0 -0 3.47852e-13)
(0 -0 1.93844e-13)
(0 -0 4.73752e-06)
(0 -0 -5.86543e-06)
(0 -0 1.39456e-06)
(0 -0 -3.33291e-07)
(0 -0 7.89732e-08)
(0 -0 -1.91429e-08)
(0 -0 4.40299e-09)
(0 -0 -1.1645e-09)
(0 -0 2.06281e-10)
(0 -0 -9.95784e-11)
(0 -0 -1.09264e-11)
(0 -0 -2.19423e-11)
(0 -0 -1.18828e-11)
(0 -0 -9.0739e-12)
(0 -0 -5.79675e-12)
(0 -0 -3.92021e-12)
(0 -0 -2.31489e-12)
(0 -0 -1.06468e-12)
(0 -0 -1.21609e-13)
(0 -0 -8.68084e-14)
)
;
    }
    frontAndBack
    {
        type            empty;
    }
}


// ************************************************************************* //
