/*--------------------------------*- C++ -*----------------------------------*\
| =========                 |                                                 |
| \\      /  F ield         | OpenFOAM: The Open Source CFD Toolbox           |
|  \\    /   O peration     | Version:  2312                                  |
|   \\  /    A nd           | Website:  www.openfoam.com                      |
|    \\/     M anipulation  |                                                 |
\*---------------------------------------------------------------------------*/
FoamFile
{
    version     2.0;
    format      ascii;
    arch        "LSB;label=32;scalar=64";
    class       volVectorField;
    location    "4";
    object      wallShearStress;
}
// * * * * * * * * * * * * * * * * * * * * * * * * * * * * * * * * * * * * * //

dimensions      [0 2 -2 0 0 0 0];

internalField   uniform (0 0 0);

boundaryField
{
    movingWall
    {
        type            calculated;
        value           uniform (0 0 0);
    }
    fixedWalls
    {
        type            calculated;
        value           nonuniform List<vector> 
60
(
(1.62313e-13 -2.47626e-10 0)
(8.88604e-13 2.47436e-10 0)
(-1.52428e-12 -2.47083e-10 0)
(3.20684e-12 2.46738e-10 0)
(-4.96671e-12 -2.46586e-10 0)
(6.90792e-12 2.46578e-10 0)
(-8.72657e-12 -2.46724e-10 0)
(1.03496e-11 2.46997e-10 0)
(-1.17422e-11 -2.47394e-10 0)
(1.27391e-11 2.47889e-10 0)
(-1.34459e-11 -2.48469e-10 0)
(1.36508e-11 2.4911e-10 0)
(-1.35355e-11 -2.49784e-10 0)
(1.29006e-11 2.50471e-10 0)
(-1.19487e-11 -2.51131e-10 0)
(1.05586e-11 2.51754e-10 0)
(-8.87904e-12 -2.52288e-10 0)
(6.96532e-12 2.52721e-10 0)
(-4.89928e-12 -2.53079e-10 0)
(2.63142e-12 2.5294e-10 0)
(-3.77831e-20 -1.86624e-19 0)
(1.25301e-18 -5.82176e-19 0)
(1.20376e-18 2.25995e-19 0)
(1.18875e-18 6.19186e-19 0)
(-1.66832e-18 7.9517e-19 0)
(-4.12673e-19 1.83192e-19 0)
(1.43902e-18 7.8764e-19 0)
(3.72367e-19 2.79608e-18 0)
(3.99949e-19 3.56394e-18 0)
(3.03661e-19 4.65367e-18 0)
(2.23603e-19 5.65696e-18 0)
(-4.08319e-19 5.18213e-18 0)
(2.52958e-18 7.03081e-18 0)
(-1.08896e-18 7.504e-18 0)
(-6.90709e-19 7.0604e-18 0)
(-2.09966e-18 6.37036e-18 0)
(-2.11869e-18 5.12055e-18 0)
(-2.05003e-18 4.31635e-18 0)
(-1.67091e-18 3.47852e-18 0)
(-3.18095e-18 8.54242e-19 0)
(-4.71487e-11 -3.30428e-10 0)
(5.82817e-11 7.83828e-11 0)
(-1.37909e-11 -1.86357e-11 0)
(3.25291e-12 4.42423e-12 0)
(-7.72036e-13 -1.05488e-12 0)
(1.79737e-13 2.49562e-13 0)
(-4.3831e-14 -6.01854e-14 0)
(9.33394e-15 1.38904e-14 0)
(-2.85151e-15 -3.58697e-15 0)
(2.08858e-16 6.77494e-16 0)
(-3.72129e-16 -2.82974e-16 0)
(-1.42066e-16 -1.75149e-17 0)
(-1.27197e-16 -5.69929e-17 0)
(-8.15676e-17 -3.13385e-17 0)
(-5.48312e-17 -2.47656e-17 0)
(-3.62931e-17 -1.73734e-17 0)
(-2.126e-17 -1.39363e-17 0)
(-8.89314e-18 -1.03487e-17 0)
(1.21609e-18 -6.00725e-18 0)
(8.68084e-19 -2.48832e-19 0)
)
;
    }
    frontAndBack
    {
        type            empty;
    }
}


// ************************************************************************* //
