/*--------------------------------*- C++ -*----------------------------------*\
| =========                 |                                                 |
| \\      /  F ield         | OpenFOAM: The Open Source CFD Toolbox           |
|  \\    /   O peration     | Version:  2312                                  |
|   \\  /    A nd           | Website:  www.openfoam.com                      |
|    \\/     M anipulation  |                                                 |
\*---------------------------------------------------------------------------*/
FoamFile
{
    version     2.0;
    format      ascii;
    arch        "LSB;label=32;scalar=64";
    class       volScalarField;
    location    "4";
    object      yPlus;
}
// * * * * * * * * * * * * * * * * * * * * * * * * * * * * * * * * * * * * * //

dimensions      [0 0 0 0 0 0 0];

internalField   uniform 0;

boundaryField
{
    movingWall
    {
        type            calculated;
        value           nonuniform List<scalar> 
20
(
0.00397281
0.00193934
0.000945013
0.000461192
0.000225139
0.000109827
5.37051e-05
2.62067e-05
1.28539e-05
6.25269e-06
3.11238e-06
1.46395e-06
8.99073e-07
7.19057e-07
7.45172e-07
6.24986e-07
5.34932e-07
3.6225e-07
5.33733e-07
3.75789e-07
)
;
    }
    fixedWalls
    {
        type            calculated;
        value           nonuniform List<scalar> 
60
(
0.00393566
0.00393512
0.00393318
0.00393214
0.00393143
0.00393164
0.00393258
0.00393439
0.00393689
0.00394002
0.00394361
0.00394753
0.0039516
0.00395567
0.00395957
0.00396316
0.00396633
0.00396891
0.00397102
0.00397281
1.08e-07
2.35728e-07
2.39332e-07
2.3605e-07
2.91128e-07
2.3055e-07
3.16137e-07
3.75331e-07
4.7196e-07
5.39309e-07
5.80189e-07
6.1297e-07
6.48434e-07
6.62303e-07
6.64941e-07
6.37778e-07
5.75056e-07
5.31347e-07
4.7369e-07
3.75789e-07
0.00393566
0.00191675
0.000934035
0.000454825
0.000221774
0.000107868
5.27689e-05
2.55199e-05
1.28081e-05
6.41274e-06
4.3588e-06
3.3611e-06
2.81566e-06
2.33809e-06
1.90053e-06
1.55656e-06
1.20469e-06
8.29096e-07
4.53163e-07
1.08e-07
)
;
    }
    frontAndBack
    {
        type            empty;
    }
}


// ************************************************************************* //
