/*--------------------------------*- C++ -*----------------------------------*\
| =========                 |                                                 |
| \\      /  F ield         | OpenFOAM: The Open Source CFD Toolbox           |
|  \\    /   O peration     | Version:  2312                                  |
|   \\  /    A nd           | Website:  www.openfoam.com                      |
|    \\/     M anipulation  |                                                 |
\*---------------------------------------------------------------------------*/
FoamFile
{
    version     2.0;
    format      ascii;
    arch        "LSB;label=32;scalar=64";
    class       volScalarField;
    location    "2.5";
    object      CourantNumberField;
}
// * * * * * * * * * * * * * * * * * * * * * * * * * * * * * * * * * * * * * //

dimensions      [0 0 0 0 0 0 0];

internalField   nonuniform List<scalar> 
400
(
0.00026888
0.00236438
0.00554608
0.0099716
0.016871
0.0275718
0.0427245
0.061562
0.081445
0.0990859
0.111669
0.11742
0.11742
0.115462
0.105207
0.086901
0.0617268
0.033088
0.0114978
0.00272946
0.00365046
0.0115006
0.0200337
0.0306836
0.0463808
0.0679102
0.0932906
0.118614
0.139384
0.152795
0.158064
0.155491
0.151698
0.157736
0.157108
0.147853
0.127259
0.0918982
0.0447999
0.00675879
0.010041
0.0232466
0.0362259
0.0524999
0.0753555
0.103398
0.132327
0.156837
0.172652
0.178382
0.175173
0.16484
0.159046
0.171948
0.181659
0.186257
0.180366
0.154279
0.0986118
0.0254074
0.0185906
0.0357523
0.0520156
0.0723359
0.0994514
0.130189
0.158399
0.177884
0.185235
0.180706
0.167095
0.147804
0.141261
0.156481
0.172052
0.188338
0.201154
0.197629
0.155445
0.0622198
0.0281195
0.0475217
0.0655695
0.087975
0.116591
0.146598
0.170522
0.182099
0.179036
0.16364
0.140895
0.115631
0.114334
0.12893
0.14431
0.163569
0.187758
0.208287
0.196409
0.107624
0.0373931
0.0574582
0.0757682
0.0982463
0.125874
0.152617
0.17047
0.173788
0.161982
0.139859
0.113729
0.0873343
0.0953406
0.109641
0.12232
0.137387
0.160715
0.193537
0.213438
0.151816
0.0454102
0.0649484
0.0821222
0.10286
0.127619
0.149733
0.161381
0.15808
0.140948
0.116355
0.0901797
0.0639134
0.0808956
0.0969845
0.109128
0.12057
0.138269
0.171104
0.212038
0.187407
0.0515098
0.0697297
0.0846667
0.102325
0.122959
0.13985
0.146047
0.138377
0.118754
0.0937658
0.0680761
0.0425952
0.0652541
0.0842416
0.0978786
0.108826
0.123285
0.152023
0.202741
0.212468
0.0553145
0.0717835
0.0838161
0.0975538
0.113241
0.124963
0.126756
0.116412
0.0957118
0.0707068
0.0450258
0.0201933
0.0460506
0.0681856
0.0843323
0.0967913
0.111156
0.137578
0.192433
0.229041
0.0567265
0.0713572
0.0802547
0.0897258
0.100186
0.109398
0.11348
0.107174
0.0882734
0.0623205
0.0342328
0.00633058
0.0332977
0.057064
0.0741898
0.0861101
0.0993066
0.12497
0.182702
0.239839
0.0567265
0.0707676
0.0779155
0.0871684
0.100983
0.116009
0.125078
0.123829
0.110216
0.0877221
0.0608492
0.031998
0.0550114
0.0748859
0.0876781
0.095449
0.102415
0.118127
0.172906
0.247039
0.0559041
0.0724317
0.0806507
0.0897474
0.102653
0.117727
0.129129
0.132423
0.124949
0.107748
0.0840251
0.0567459
0.071609
0.0868298
0.095271
0.0994529
0.103038
0.114232
0.165707
0.252089
0.0532009
0.0717573
0.0807839
0.0893474
0.100578
0.114203
0.126168
0.13234
0.12996
0.118453
0.0993571
0.0752276
0.0799561
0.090904
0.0960927
0.0979281
0.0991498
0.107692
0.157397
0.256115
0.0491055
0.0690174
0.0786107
0.0865842
0.0959812
0.10731
0.118233
0.125432
0.126227
0.119384
0.105238
0.0854398
0.0800284
0.0879812
0.0913362
0.0919476
0.091596
0.0983646
0.14711
0.25992
0.0442156
0.0644649
0.0743377
0.0818975
0.089849
0.098933
0.10802
0.114938
0.117366
0.113895
0.104255
0.0893105
0.0760499
0.081424
0.0836456
0.0835122
0.0819602
0.0881678
0.134859
0.263611
0.0392684
0.0583664
0.0681795
0.0755034
0.0826192
0.0901835
0.0976747
0.103852
0.107075
0.106075
0.100293
0.0900016
0.0760154
0.0744675
0.0756025
0.0746621
0.0723432
0.0803641
0.120078
0.264169
0.0351084
0.0502864
0.0591623
0.0665675
0.0736998
0.0808642
0.0878095
0.0937829
0.0977451
0.0987792
0.0963029
0.0902359
0.0808231
0.0721733
0.0694287
0.0675751
0.0652105
0.076911
0.10947
0.264169
0.0350931
0.0427749
0.0481124
0.0552597
0.0625907
0.0703157
0.0780203
0.0850352
0.0906118
0.094089
0.0949639
0.0929988
0.0882236
0.0806214
0.0737351
0.0688247
0.0678075
0.0805246
0.101433
0.257817
0.0446925
0.0409677
0.036226
0.0441649
0.0567916
0.0687886
0.0800493
0.0903215
0.0992258
0.106449
0.111826
0.115256
0.116822
0.116506
0.114126
0.110122
0.108537
0.113376
0.103445
0.241414
0.0446925
0.0760608
0.0985579
0.117839
0.135371
0.151417
0.166191
0.179838
0.192355
0.203654
0.213649
0.222267
0.22947
0.23515
0.239154
0.240609
0.240609
0.238762
0.224204
0.201973
)
;

boundaryField
{
    movingWall
    {
        type            zeroGradient;
    }
    fixedWalls
    {
        type            zeroGradient;
    }
    frontAndBack
    {
        type            empty;
    }
}


// ************************************************************************* //
