/*--------------------------------*- C++ -*----------------------------------*\
| =========                 |                                                 |
| \\      /  F ield         | OpenFOAM: The Open Source CFD Toolbox           |
|  \\    /   O peration     | Version:  2312                                  |
|   \\  /    A nd           | Website:  www.openfoam.com                      |
|    \\/     M anipulation  |                                                 |
\*---------------------------------------------------------------------------*/
FoamFile
{
    version     2.0;
    format      ascii;
    arch        "LSB;label=32;scalar=64";
    class       volVectorField;
    location    "2.5";
    object      ddtU;
}
// * * * * * * * * * * * * * * * * * * * * * * * * * * * * * * * * * * * * * //

dimensions      [0 1 -2 0 0 0 0];

internalField   nonuniform List<vector> 
400
(
(0.00167935 -0.00212974 0)
(0.00473136 -0.00233768 0)
(0.00908293 -0.00276547 0)
(0.0114245 -0.00235246 0)
(0.00848726 -0.00179594 0)
(-0.00314193 0.00191056 0)
(-0.0272468 0.0129877 0)
(-0.0614307 0.0214153 0)
(-0.0906311 0.0211026 0)
(-0.109121 0.0147461 0)
(-0.114841 0.00653061 0)
(-0.111558 0.000561726 0)
(-0.105579 -0.00332731 0)
(-0.0987806 -0.00656716 0)
(-0.0903545 -0.00816368 0)
(-0.0767193 -0.00886681 0)
(-0.0600714 -0.0127049 0)
(-0.0388552 -0.0150195 0)
(-0.00849767 -0.0101326 0)
(0.00735092 0.00514348 0)
(0.000905549 -0.00464276 0)
(0.00264511 -0.00594269 0)
(0.00279989 -0.00449289 0)
(-0.00166497 0.00377853 0)
(-0.0204292 0.020667 0)
(-0.0549179 0.0370621 0)
(-0.0874593 0.0455046 0)
(-0.110862 0.0417797 0)
(-0.120595 0.0257833 0)
(-0.114806 0.00716576 0)
(-0.100427 -0.0060633 0)
(-0.085879 -0.0123863 0)
(-0.0743984 -0.013496 0)
(-0.0680999 -0.0129002 0)
(-0.0676801 -0.0148769 0)
(-0.0698794 -0.0224615 0)
(-0.0663876 -0.0326574 0)
(-0.0566083 -0.0410772 0)
(-0.0396475 -0.0342009 0)
(-0.00356753 -0.00757581 0)
(-0.000604762 -0.00456191 0)
(-0.00354072 -0.00341349 0)
(-0.00962608 0.00177018 0)
(-0.0227428 0.0221567 0)
(-0.0450859 0.0501566 0)
(-0.0742618 0.0660768 0)
(-0.0985327 0.0649971 0)
(-0.101568 0.0466743 0)
(-0.0872425 0.018554 0)
(-0.0637277 -0.00662129 0)
(-0.040587 -0.0221054 0)
(-0.0253423 -0.0256304 0)
(-0.0161985 -0.021699 0)
(-0.0116578 -0.0142205 0)
(-0.0114668 -0.0092538 0)
(-0.018234 -0.0124965 0)
(-0.0305088 -0.0271458 0)
(-0.0413573 -0.0501296 0)
(-0.0432713 -0.0630652 0)
(-0.0190776 -0.0248038 0)
(-0.00251402 -0.000187059 0)
(-0.00829633 0.00360343 0)
(-0.0183163 0.0138802 0)
(-0.0344085 0.0416244 0)
(-0.057065 0.0727944 0)
(-0.0769336 0.0850346 0)
(-0.0821839 0.0690387 0)
(-0.0675864 0.0330813 0)
(-0.0395176 -0.00560901 0)
(-0.00945566 -0.0328115 0)
(0.0152013 -0.0408889 0)
(0.036428 -0.0357201 0)
(0.045209 -0.0233157 0)
(0.0477521 -0.0086806 0)
(0.0446098 0.00321983 0)
(0.035878 0.00777569 0)
(0.0199488 -0.00157137 0)
(-0.00118175 -0.0291762 0)
(-0.0201987 -0.0658802 0)
(-0.0288943 -0.0731906 0)
(-0.00377647 0.00630826 0)
(-0.0108827 0.012905 0)
(-0.021917 0.027777 0)
(-0.0377093 0.0599681 0)
(-0.0554246 0.089684 0)
(-0.0639451 0.0902082 0)
(-0.0557931 0.0573849 0)
(-0.0311403 0.00784147 0)
(0.00160896 -0.0363242 0)
(0.0297332 -0.0591235 0)
(0.0453678 -0.0600655 0)
(0.0450881 -0.0472818 0)
(0.0456571 -0.0299683 0)
(0.0471502 -0.0137042 0)
(0.0495282 0.00164226 0)
(0.051684 0.013919 0)
(0.0472446 0.0170389 0)
(0.0319191 -0.000626619 0)
(0.0101682 -0.0454158 0)
(-0.00644445 -0.08104 0)
(-0.00406405 0.013724 0)
(-0.0110307 0.0225884 0)
(-0.0210245 0.0406108 0)
(-0.0334864 0.0735886 0)
(-0.0444225 0.0978241 0)
(-0.044993 0.0846676 0)
(-0.0314488 0.0390524 0)
(-0.00594012 -0.0195504 0)
(0.0194293 -0.0621523 0)
(0.0319141 -0.0737794 0)
(0.030129 -0.0629347 0)
(0.0259461 -0.0465814 0)
(0.025609 -0.0319863 0)
(0.0267381 -0.0186491 0)
(0.03004 -0.00612642 0)
(0.0353892 0.00568032 0)
(0.0412247 0.0157458 0)
(0.0396362 0.0147212 0)
(0.0266352 -0.0154708 0)
(0.00767162 -0.0733583 0)
(-0.003505 0.0208701 0)
(-0.00958356 0.0313661 0)
(-0.0164335 0.0499937 0)
(-0.0241701 0.0808687 0)
(-0.0293097 0.0994038 0)
(-0.0261562 0.0759175 0)
(-0.0134917 0.0219308 0)
(0.00493193 -0.0394354 0)
(0.0185163 -0.0747546 0)
(0.0191883 -0.0751067 0)
(0.0135729 -0.0581693 0)
(0.0131582 -0.0416949 0)
(0.0144779 -0.0307211 0)
(0.0155702 -0.0190039 0)
(0.0168585 -0.00811542 0)
(0.0191669 0.000318598 0)
(0.023962 0.00761775 0)
(0.0287899 0.0121901 0)
(0.0266529 0.000957081 0)
(0.0130699 -0.0510747 0)
(-0.0024392 0.0266354 0)
(-0.00654756 0.0374938 0)
(-0.0101612 0.0551996 0)
(-0.0127105 0.0832065 0)
(-0.0142967 0.0986521 0)
(-0.00782563 0.0656701 0)
(-0.00225355 0.0136581 0)
(0.00655231 -0.048548 0)
(0.0103036 -0.0779414 0)
(0.00682042 -0.0732225 0)
(0.00472507 -0.0569484 0)
(0.00483817 -0.0434292 0)
(0.00518202 -0.0326169 0)
(0.00799768 -0.0200082 0)
(0.00898542 -0.00820887 0)
(0.010034 -0.000275363 0)
(0.0118314 0.00466949 0)
(0.015545 0.00853846 0)
(0.018544 -0.000263244 0)
(0.0103614 -0.0294663 0)
(-0.00106964 0.0300875 0)
(-0.00296508 0.0407486 0)
(-0.00359916 0.0567887 0)
(-0.00131422 0.0809612 0)
(0.00143056 0.0949172 0)
(0.00708205 0.0598035 0)
(0.00658549 0.0137937 0)
(0.00576072 -0.0481396 0)
(0.0016715 -0.0760786 0)
(-0.00339868 -0.0721864 0)
(-0.00510152 -0.0584724 0)
(-0.00265553 -0.0475197 0)
(-0.000803183 -0.0355517 0)
(0.000361091 -0.0214938 0)
(0.00153416 -0.00910764 0)
(0.00311532 -0.00126279 0)
(0.0046869 0.00314612 0)
(0.00719305 0.00406163 0)
(0.0101441 -0.000249445 0)
(0.00548862 -0.0181142 0)
(0.000322132 0.0310189 0)
(0.000524188 0.0411595 0)
(0.00226407 0.0548451 0)
(0.00798452 0.0749638 0)
(0.0154936 0.0876827 0)
(0.0201266 0.0611022 0)
(0.0168999 0.0169281 0)
(0.00834704 -0.0373283 0)
(-0.00256939 -0.071003 0)
(-0.0103021 -0.0703527 0)
(-0.0115258 -0.0602091 0)
(-0.0104665 -0.0502243 0)
(-0.00908644 -0.0380068 0)
(-0.00786796 -0.0236006 0)
(-0.00561947 -0.0111311 0)
(-0.00272614 -0.00333201 0)
(-0.000247106 0.00133543 0)
(0.00207563 0.00275973 0)
(0.00432239 -0.00251673 0)
(0.00237852 -0.0123331 0)
(0.00151386 0.0296237 0)
(0.00344981 0.0392408 0)
(0.00698197 0.0503982 0)
(0.014632 0.0662036 0)
(0.0258696 0.0784002 0)
(0.031446 0.0620555 0)
(0.030599 0.0233327 0)
(0.0164691 -0.0206482 0)
(0.00207887 -0.0584142 0)
(-0.0113311 -0.0657325 0)
(-0.0163631 -0.06075 0)
(-0.0167791 -0.052716 0)
(-0.0148469 -0.0403255 0)
(-0.0139234 -0.0263752 0)
(-0.0108696 -0.0143819 0)
(-0.00676727 -0.00655147 0)
(-0.00347108 -0.00147199 0)
(-0.000829299 0.000537696 0)
(0.00106987 -0.00376987 0)
(0.00084004 -0.0100574 0)
(0.00239361 0.0264494 0)
(0.00562544 0.0356999 0)
(0.010395 0.0444736 0)
(0.0184873 0.0559311 0)
(0.0314602 0.0666176 0)
(0.0400315 0.0591832 0)
(0.0425211 0.0300625 0)
(0.0313398 -0.00519838 0)
(0.0158448 -0.0386138 0)
(-0.00126828 -0.0542438 0)
(-0.0112499 -0.0558574 0)
(-0.0155549 -0.0502757 0)
(-0.0164097 -0.0411578 0)
(-0.0157496 -0.0290524 0)
(-0.0122638 -0.0182903 0)
(-0.00812981 -0.0103297 0)
(-0.00468018 -0.00462555 0)
(-0.00196785 -0.00182711 0)
(-0.00022811 -0.0049523 0)
(0.000319263 -0.00975817 0)
(0.00291413 0.0218725 0)
(0.00702832 0.0310957 0)
(0.0124406 0.0379755 0)
(0.0200733 0.0455503 0)
(0.0323534 0.0534603 0)
(0.0442387 0.0516462 0)
(0.0496621 0.0324447 0)
(0.0445559 0.00671232 0)
(0.0328435 -0.0203321 0)
(0.0174001 -0.0382794 0)
(0.0042563 -0.0452159 0)
(-0.00354935 -0.0441841 0)
(-0.00816255 -0.0385661 0)
(-0.0100737 -0.0298567 0)
(-0.00881775 -0.0209426 0)
(-0.0065452 -0.01337 0)
(-0.00399328 -0.00738323 0)
(-0.00189931 -0.00397025 0)
(-0.000380093 -0.00596681 0)
(0.000283771 -0.00998679 0)
(0.00316145 0.016695 0)
(0.00773582 0.0259925 0)
(0.0132288 0.0316467 0)
(0.0200182 0.0363255 0)
(0.030146 0.0408779 0)
(0.0426179 0.040778 0)
(0.0508662 0.0303134 0)
(0.0510287 0.0121908 0)
(0.0444444 -0.00832515 0)
(0.0332143 -0.024569 0)
(0.0212766 -0.0331649 0)
(0.0116976 -0.0352936 0)
(0.00423017 -0.0333085 0)
(-0.000812952 -0.0279518 0)
(-0.00307295 -0.0210257 0)
(-0.00306264 -0.0145748 0)
(-0.00218676 -0.00894558 0)
(-0.00117186 -0.00555477 0)
(-0.000113947 -0.00649473 0)
(0.000541484 -0.00974729 0)
(0.00301618 0.011057 0)
(0.00777761 0.0206845 0)
(0.0130627 0.0257703 0)
(0.0190598 0.0285642 0)
(0.027179 0.0303149 0)
(0.0374099 0.029662 0)
(0.0464038 0.0239843 0)
(0.0505331 0.012625 0)
(0.0480411 -0.0019857 0)
(0.0408299 -0.0147337 0)
(0.0308641 -0.0235415 0)
(0.0216556 -0.0268548 0)
(0.013626 -0.0263353 0)
(0.0071917 -0.0231684 0)
(0.00285602 -0.0185953 0)
(0.000799962 -0.0138253 0)
(-0.000140968 -0.00902066 0)
(-8.00501e-05 -0.00647895 0)
(0.00022182 -0.00651796 0)
(0.00130843 -0.00937721 0)
(0.00266778 0.00619956 0)
(0.00716805 0.0157316 0)
(0.0124198 0.0204873 0)
(0.0180666 0.022215 0)
(0.0246899 0.0223044 0)
(0.032268 0.0209264 0)
(0.0396722 0.0168067 0)
(0.0448886 0.0101343 0)
(0.0455188 0.00094894 0)
(0.0414991 -0.00813457 0)
(0.0350308 -0.0144306 0)
(0.0267453 -0.018384 0)
(0.0190432 -0.0191554 0)
(0.0125137 -0.0175766 0)
(0.00744496 -0.0148016 0)
(0.00410401 -0.0115886 0)
(0.00164398 -0.00806711 0)
(0.00144701 -0.00700411 0)
(0.000631774 -0.00641303 0)
(0.0019298 -0.00862082 0)
(0.00168655 0.00137425 0)
(0.00660291 0.0107142 0)
(0.0121597 0.0148745 0)
(0.0173639 0.0160889 0)
(0.0232281 0.0155654 0)
(0.0291661 0.0139686 0)
(0.0345896 0.0107328 0)
(0.03864 0.00646583 0)
(0.04015 0.00113923 0)
(0.0383369 -0.00439114 0)
(0.0340441 -0.00910468 0)
(0.0279902 -0.0116692 0)
(0.0213049 -0.0129463 0)
(0.0153046 -0.012463 0)
(0.0102788 -0.0107426 0)
(0.0064634 -0.00853976 0)
(0.00321228 -0.0064206 0)
(0.00291875 -0.00670101 0)
(0.000916257 -0.00667729 0)
(0.0023414 -0.00671765 0)
(0.000216824 -0.00171436 0)
(0.00510401 0.00556249 0)
(0.00962604 0.00906066 0)
(0.0157501 0.0108518 0)
(0.0213563 0.0108148 0)
(0.0265801 0.00975376 0)
(0.0309336 0.00757846 0)
(0.0339365 0.00469543 0)
(0.0351183 0.00137799 0)
(0.0342693 -0.00181157 0)
(0.0311708 -0.00416979 0)
(0.0267723 -0.00603602 0)
(0.0217084 -0.00645388 0)
(0.0163351 -0.00637798 0)
(0.011597 -0.00572762 0)
(0.0082328 -0.00494458 0)
(0.00565926 -0.00426281 0)
(0.00501508 -0.00477875 0)
(0.00101067 -0.00500073 0)
(0.00264529 -0.00507374 0)
(-0.00163558 -0.00369511 0)
(-0.000264293 0.00136806 0)
(0.00470277 0.00431716 0)
(0.010205 0.00478694 0)
(0.0157461 0.00528766 0)
(0.0204059 0.00522847 0)
(0.0242262 0.00445639 0)
(0.0268084 0.00324249 0)
(0.0278858 0.00174203 0)
(0.0273888 0.000206434 0)
(0.0255012 -0.00107955 0)
(0.0227422 -0.00207598 0)
(0.0195319 -0.00260193 0)
(0.0162406 -0.00272387 0)
(0.0131638 -0.00267955 0)
(0.0103021 -0.00263232 0)
(0.00812866 -0.00243739 0)
(0.00631926 -0.00199812 0)
(0.00106057 -0.00273462 0)
(0.00263071 -0.00326877 0)
(-0.000726332 0.000458219 0)
(-0.00202202 -0.00163574 0)
(-0.00103032 -0.00171745 0)
(0.000866425 -0.00126851 0)
(0.00306125 -0.000775173 0)
(0.00571835 -0.000300172 0)
(0.00845064 9.24327e-05 0)
(0.0107725 0.000330573 0)
(0.0124565 0.000437399 0)
(0.0133473 0.000430853 0)
(0.0134197 0.000342664 0)
(0.0127946 0.000236839 0)
(0.0116763 0.000125748 0)
(0.0102743 -4.52814e-05 0)
(0.00880985 -0.000209501 0)
(0.00739801 -0.000317975 0)
(0.00609186 -0.000381494 0)
(0.00424662 -0.000249626 0)
(0.00436341 -0.000754919 0)
(0.00211131 -0.000584005 0)
)
;

boundaryField
{
    movingWall
    {
        type            calculated;
        value           uniform (0 0 0);
    }
    fixedWalls
    {
        type            calculated;
        value           uniform (0 0 0);
    }
    frontAndBack
    {
        type            empty;
    }
}


// ************************************************************************* //
