/*--------------------------------*- C++ -*----------------------------------*\
| =========                 |                                                 |
| \\      /  F ield         | OpenFOAM: The Open Source CFD Toolbox           |
|  \\    /   O peration     | Version:  2312                                  |
|   \\  /    A nd           | Website:  www.openfoam.com                      |
|    \\/     M anipulation  |                                                 |
\*---------------------------------------------------------------------------*/
FoamFile
{
    version     2.0;
    format      ascii;
    arch        "LSB;label=32;scalar=64";
    class       volScalarField;
    location    "2.5";
    object      divPhi;
}
// * * * * * * * * * * * * * * * * * * * * * * * * * * * * * * * * * * * * * //

dimensions      [0 0 -1 0 0 0 0];

internalField   nonuniform List<scalar> 
400
(
-2.74289e-05
-1.15537e-06
-1.46506e-06
-1.29164e-06
-9.95352e-07
-7.51561e-07
-5.65233e-07
-4.42805e-07
-3.55343e-07
-2.96796e-07
-2.49202e-07
-2.06531e-07
-1.74304e-07
-1.33095e-07
-1.04767e-07
-6.83346e-08
-3.69216e-08
-7.78096e-09
-5.03548e-08
-3.73576e-09
-2.85394e-07
-7.41836e-07
-1.02136e-06
-9.59537e-07
-8.05657e-07
-6.23279e-07
-4.98722e-07
-3.95535e-07
-3.3225e-07
-2.74382e-07
-2.3618e-07
-1.96383e-07
-1.62129e-07
-1.31581e-07
-1.00236e-07
-6.84654e-08
-4.76711e-08
-4.49737e-08
-1.00596e-08
-6.49397e-08
9.75589e-07
6.24559e-08
-3.61657e-07
-4.96279e-07
-4.70932e-07
-4.14779e-07
-3.48512e-07
-2.97169e-07
-2.49824e-07
-2.16172e-07
-1.82634e-07
-1.55858e-07
-1.31461e-07
-1.09032e-07
-8.84548e-08
-7.47695e-08
-5.23655e-08
-3.82803e-08
-1.31213e-07
-2.12991e-08
5.46724e-07
2.93161e-07
-2.73177e-09
-1.56295e-07
-2.18185e-07
-2.20754e-07
-2.08302e-07
-1.83128e-07
-1.60623e-07
-1.33998e-07
-1.1581e-07
-9.73763e-08
-8.48219e-08
-7.34673e-08
-6.91536e-08
-5.36503e-08
-5.75991e-08
-8.86904e-08
-2.08973e-08
-7.30795e-08
9.33672e-07
4.9345e-07
2.35221e-07
7.91272e-08
6.17933e-10
-4.17425e-08
-5.35334e-08
-5.41645e-08
-4.28844e-08
-3.51711e-08
-2.27519e-08
-1.60395e-08
-9.772e-09
-1.3219e-08
-1.20682e-08
-2.41406e-08
-1.8575e-08
-3.51571e-09
-1.17735e-07
1.05821e-08
4.72938e-07
4.51109e-07
3.30635e-07
2.25562e-07
1.44879e-07
9.84979e-08
7.0386e-08
6.00512e-08
5.50663e-08
5.96739e-08
6.08949e-08
6.29487e-08
5.68215e-08
5.19355e-08
3.60247e-08
3.52257e-08
1.80843e-08
-3.16027e-08
5.45845e-08
-1.41518e-08
6.55932e-07
4.79796e-07
3.78541e-07
2.99902e-07
2.41736e-07
1.94738e-07
1.66076e-07
1.47267e-07
1.39469e-07
1.31431e-07
1.29952e-07
1.23217e-07
1.17373e-07
1.02109e-07
9.50725e-08
7.68136e-08
7.26064e-08
9.38562e-08
-1.95632e-09
6.298e-08
3.72339e-07
4.15159e-07
3.8609e-07
3.44843e-07
2.96961e-07
2.58348e-07
2.28486e-07
2.08469e-07
1.90816e-07
1.81989e-07
1.74411e-07
1.66649e-07
1.53713e-07
1.44006e-07
1.28587e-07
1.25338e-07
1.1227e-07
7.11992e-08
1.46814e-07
4.64847e-08
4.92893e-07
4.21505e-07
3.84876e-07
3.49951e-07
3.15883e-07
2.81312e-07
2.54421e-07
2.30711e-07
2.14069e-07
1.9907e-07
1.90337e-07
1.78985e-07
1.68677e-07
1.53209e-07
1.49064e-07
1.35139e-07
1.31611e-07
1.57133e-07
9.9828e-08
8.36426e-08
3.45543e-07
3.75851e-07
3.64106e-07
3.43232e-07
3.13725e-07
2.84303e-07
2.55228e-07
2.32009e-07
2.10946e-07
1.96641e-07
1.86385e-07
1.75931e-07
1.62733e-07
1.55631e-07
1.43797e-07
1.4414e-07
1.37353e-07
1.18356e-07
1.68431e-07
6.34407e-08
3.99791e-07
3.6578e-07
3.44318e-07
3.21061e-07
2.96134e-07
2.67259e-07
2.40259e-07
2.14646e-07
1.94684e-07
1.78463e-07
1.68229e-07
1.57314e-07
1.49648e-07
1.3698e-07
1.37994e-07
1.26352e-07
1.24862e-07
1.4437e-07
1.18216e-07
6.76819e-08
3.22093e-07
3.28946e-07
3.14386e-07
2.95514e-07
2.71695e-07
2.46204e-07
2.18984e-07
1.95194e-07
1.73923e-07
1.59065e-07
1.48575e-07
1.39907e-07
1.28569e-07
1.26772e-07
1.14757e-07
1.16873e-07
1.10173e-07
1.0246e-07
1.27717e-07
4.7547e-08
3.20177e-07
3.03622e-07
2.87001e-07
2.68319e-07
2.48477e-07
2.25499e-07
2.02521e-07
1.80292e-07
1.62444e-07
1.47884e-07
1.37778e-07
1.26455e-07
1.20803e-07
1.07292e-07
1.08014e-07
9.55192e-08
9.19804e-08
1.0001e-07
8.51573e-08
4.20583e-08
2.74757e-07
2.69376e-07
2.56455e-07
2.41469e-07
2.24879e-07
2.06908e-07
1.87231e-07
1.68971e-07
1.5267e-07
1.39717e-07
1.28285e-07
1.19292e-07
1.06151e-07
1.03326e-07
8.92879e-08
8.73207e-08
7.91209e-08
7.09633e-08
8.13679e-08
3.07993e-08
2.43904e-07
2.35733e-07
2.24795e-07
2.12983e-07
2.001e-07
1.86449e-07
1.71686e-07
1.5726e-07
1.44155e-07
1.32458e-07
1.2199e-07
1.1013e-07
1.03818e-07
9.06096e-08
8.82167e-08
7.71774e-08
7.0988e-08
7.17832e-08
6.01812e-08
2.95904e-08
2.08698e-07
2.03092e-07
1.95119e-07
1.86134e-07
1.76523e-07
1.66439e-07
1.55405e-07
1.44654e-07
1.34159e-07
1.24228e-07
1.13535e-07
1.05546e-07
9.4074e-08
9.04931e-08
8.03489e-08
7.65848e-08
7.03015e-08
6.0969e-08
6.37471e-08
2.66748e-08
1.74906e-07
1.7073e-07
1.6524e-07
1.58151e-07
1.50971e-07
1.4263e-07
1.34423e-07
1.2616e-07
1.18768e-07
1.11137e-07
1.0443e-07
9.63698e-08
9.30815e-08
8.56549e-08
8.32207e-08
7.739e-08
7.11237e-08
6.80771e-08
5.90269e-08
2.75112e-08
1.44495e-07
1.43797e-07
1.40282e-07
1.35604e-07
1.29531e-07
1.22766e-07
1.16232e-07
1.10442e-07
1.05667e-07
1.01104e-07
9.63711e-08
9.33894e-08
8.90401e-08
8.72556e-08
8.26051e-08
7.79777e-08
7.25488e-08
6.50582e-08
6.09583e-08
2.88058e-08
1.32425e-07
1.31156e-07
1.27756e-07
1.23156e-07
1.16938e-07
1.11039e-07
1.0542e-07
1.01248e-07
9.71471e-08
9.3783e-08
9.09269e-08
8.75665e-08
8.55106e-08
8.19786e-08
7.78334e-08
7.32381e-08
6.77141e-08
6.22015e-08
6.21744e-08
2.96205e-08
6.37558e-08
6.07966e-08
5.81304e-08
5.51151e-08
5.24673e-08
4.98189e-08
4.773e-08
4.57562e-08
4.4176e-08
4.27914e-08
4.12977e-08
4.01274e-08
3.86089e-08
3.67118e-08
3.45704e-08
3.2232e-08
2.89987e-08
2.96047e-08
2.98618e-08
0
)
;

boundaryField
{
    movingWall
    {
        type            extrapolatedCalculated;
        value           nonuniform List<scalar> 
20
(
6.37558e-08
6.07966e-08
5.81304e-08
5.51151e-08
5.24673e-08
4.98189e-08
4.773e-08
4.57562e-08
4.4176e-08
4.27914e-08
4.12977e-08
4.01274e-08
3.86089e-08
3.67118e-08
3.45704e-08
3.2232e-08
2.89987e-08
2.96047e-08
2.98618e-08
0
)
;
    }
    fixedWalls
    {
        type            extrapolatedCalculated;
        value           nonuniform List<scalar> 
60
(
-2.74289e-05
-2.85394e-07
9.75589e-07
5.46724e-07
9.33672e-07
4.72938e-07
6.55932e-07
3.72339e-07
4.92893e-07
3.45543e-07
3.99791e-07
3.22093e-07
3.20177e-07
2.74757e-07
2.43904e-07
2.08698e-07
1.74906e-07
1.44495e-07
1.32425e-07
6.37558e-08
-3.73576e-09
-6.49397e-08
-2.12991e-08
-7.30795e-08
1.05821e-08
-1.41518e-08
6.298e-08
4.64847e-08
8.36426e-08
6.34407e-08
6.76819e-08
4.7547e-08
4.20583e-08
3.07993e-08
2.95904e-08
2.66748e-08
2.75112e-08
2.88058e-08
2.96205e-08
0
-2.74289e-05
-1.15537e-06
-1.46506e-06
-1.29164e-06
-9.95352e-07
-7.51561e-07
-5.65233e-07
-4.42805e-07
-3.55343e-07
-2.96796e-07
-2.49202e-07
-2.06531e-07
-1.74304e-07
-1.33095e-07
-1.04767e-07
-6.83346e-08
-3.69216e-08
-7.78096e-09
-5.03548e-08
-3.73576e-09
)
;
    }
    frontAndBack
    {
        type            empty;
    }
}


// ************************************************************************* //
