/*--------------------------------*- C++ -*----------------------------------*\
| =========                 |                                                 |
| \\      /  F ield         | OpenFOAM: The Open Source CFD Toolbox           |
|  \\    /   O peration     | Version:  2312                                  |
|   \\  /    A nd           | Website:  www.openfoam.com                      |
|    \\/     M anipulation  |                                                 |
\*---------------------------------------------------------------------------*/
FoamFile
{
    version     2.0;
    format      ascii;
    arch        "LSB;label=32;scalar=64";
    class       volScalarField;
    location    "2.5";
    object      enstrophyField;
}
// * * * * * * * * * * * * * * * * * * * * * * * * * * * * * * * * * * * * * //

dimensions      [0 0 -2 0 0 0 0];

internalField   nonuniform List<scalar> 
400
(
0.00140855
0.30734
1.52949
4.42761
10.8831
26.038
56.7365
105.831
169.398
237.631
296.793
333.431
337.965
307.098
244.502
164.417
88.457
32.4889
4.2897
0.115838
0.389725
1.02713
1.95593
4.54166
9.61153
15.74
19.62
18.1773
12.4978
6.66845
2.99129
1.38003
0.866636
1.11987
2.92576
8.17519
19.4266
34.6744
34.0321
3.43234
2.40695
1.38625
1.82654
4.19595
7.91801
9.52584
7.11618
2.65617
0.0508483
1.41064
5.60268
10.337
13.402
13.571
10.0278
2.90678
0.816726
20.2362
60.6387
35.0151
7.29682
1.4991
1.66025
3.324
5.11487
4.11771
0.919956
0.51844
6.60418
17.7169
29.183
37.8083
42.7504
44.9916
44.7332
37.2068
16.7067
0.0715359
45.9661
127.374
15.9298
1.43239
1.33526
2.37959
2.74505
0.824214
0.496872
7.66285
22.2228
36.9619
45.1414
46.1415
45.0263
45.9643
50.6213
58.8467
57.3023
23.0315
8.71538
275.135
28.1603
1.28025
0.996076
1.55758
1.09766
0.0121469
4.31625
18.3462
36.0151
45.855
44.732
39.4321
35.0874
32.351
33.3033
42.3872
61.801
61.3904
2.55972
431.792
42.7001
1.13
0.683046
0.915893
0.311773
0.757554
9.31451
27.0625
43.5
48.0876
43.9831
38.943
34.0684
28.7129
24.4688
25.8153
41.3265
68.6487
26.7228
572.778
57.1822
0.997321
0.427928
0.510259
0.0479074
1.7178
12.4643
31.5339
46.9483
50.4784
47.9923
44.8039
39.6936
31.4585
22.8254
19.1928
26.279
58.0482
51.4302
685.367
68.9683
0.909525
0.24874
0.274828
0.00125819
2.02115
12.4978
31.5011
47.7848
53.3684
53.8097
52.5375
46.8733
35.0161
22.7111
16.4822
19.7024
47.8243
67.1959
769.05
76.2033
0.893294
0.134922
0.129656
1.52833e-05
1.53364
9.9827
26.9737
44.6402
53.7401
57.114
57.0093
50.3778
35.8964
21.7992
14.4526
16.0248
41.9894
80.261
823.552
78.1162
0.957155
0.0733496
0.0496487
0.000789629
0.813431
6.16757
18.8741
35.3027
47.5242
53.6028
53.9513
46.4572
32.1166
19.1354
12.2925
13.2413
38.5536
94.0116
847.803
75.0894
1.10772
0.0455715
0.0098932
0.000518575
0.311321
2.92046
10.2837
21.7949
33.2674
40.3135
41.1091
34.8049
24.0998
14.9424
9.95755
10.9671
36.2729
110.639
849.02
68.2666
1.34789
0.0407502
1.60121e-05
0.00192886
0.106724
1.09233
4.32197
10.2148
17.3876
22.5628
23.5312
20.1452
14.9033
10.4321
7.69532
9.09249
34.9003
131.562
834.727
59.387
1.65357
0.0553252
0.00511081
0.0207807
0.0641268
0.371792
1.4874
3.78171
6.87238
9.46764
10.3664
9.56379
8.18758
6.88008
5.90063
7.66783
34.1608
158.96
804.225
49.4768
1.99336
0.0919606
0.00766896
0.0483996
0.0808599
0.180316
0.505212
1.23699
2.31148
3.4123
4.13693
4.42441
4.55275
4.64949
4.68349
6.78388
34.7111
195.949
751.972
42.6464
2.20453
0.157049
0.00104508
0.0463221
0.0963581
0.152881
0.261227
0.491796
0.875441
1.38365
1.92922
2.40273
2.9087
3.50687
4.1374
7.07013
38.833
239.251
684.952
30.2298
2.73683
0.459324
0.0452369
0.00291141
0.0550635
0.134672
0.239288
0.399187
0.665041
1.05338
1.53181
2.14911
2.92903
3.96585
5.58045
11.4494
53.2612
269.95
607.993
50.4219
1.60675
0.0219573
0.163536
0.592398
1.16564
1.81307
2.51443
3.29068
4.20492
5.40122
6.97434
9.21663
12.5541
17.7117
26.7881
45.0802
99.9069
292.935
361.317
2.07351
17.5991
24.986
38.1787
50.6867
59.3813
65.9313
71.8413
77.8369
84.4022
92.0848
101.668
113.55
128.717
148.848
175.412
213.894
286.953
483.77
52.0418
16290.2
20013.5
19046.6
17960.4
17151.7
16512.2
15960.7
15472.7
15042.4
14668.4
14351.7
14093.3
13895.2
13751.4
13690.8
13631.3
14004.7
13376.6
18770.6
10544
)
;

boundaryField
{
    movingWall
    {
        type            calculated;
        value           nonuniform List<scalar> 
20
(
67615.5
72623.5
68346.9
64303.7
61304.5
58884.5
56741.4
54800.7
53054.4
51496.7
50127.4
48945.1
47959.6
47151.9
46631.6
46084.7
47114.4
44451.5
64210.2
28464.1
)
;
    }
    fixedWalls
    {
        type            calculated;
        value           nonuniform List<scalar> 
60
(
0.00771039
0.323114
4.22719
17.3098
43.9104
84.5701
134.667
185.226
226.155
249.936
253.585
238.77
210.425
176.178
139.805
118.192
78.1467
164.459
0.381273
12704.9
1.2735
0.00467524
17.4012
157.15
605.328
1375
2337.61
3209.47
3897.07
4397.38
4743.14
4995.64
5195.47
5346.7
5429
5495.28
5607.2
5018.88
1446.35
6649.43
0.0106075
0.109927
1.24698
4.78472
14.066
38.8094
98.9187
221.83
417.935
663.922
899.976
1054
1081.35
962.558
718.204
428.868
184.268
39.8887
0.58339
1.18628
)
;
    }
    frontAndBack
    {
        type            empty;
    }
}


// ************************************************************************* //
