/*--------------------------------*- C++ -*----------------------------------*\
| =========                 |                                                 |
| \\      /  F ield         | OpenFOAM: The Open Source CFD Toolbox           |
|  \\    /   O peration     | Version:  2312                                  |
|   \\  /    A nd           | Website:  www.openfoam.com                      |
|    \\/     M anipulation  |                                                 |
\*---------------------------------------------------------------------------*/
FoamFile
{
    version     2.0;
    format      ascii;
    arch        "LSB;label=32;scalar=64";
    class       volScalarField;
    location    "2.5";
    object      epsilon;
}
// * * * * * * * * * * * * * * * * * * * * * * * * * * * * * * * * * * * * * //

dimensions      [0 2 -3 0 0 0 0];

internalField   nonuniform List<scalar> 
400
(
6.13679e-05
0.000126464
0.000266135
0.000492028
0.000872444
0.00154698
0.00266709
0.00417691
0.00563084
0.00644206
0.006761
0.00680572
0.00645355
0.0059421
0.00542596
0.00472742
0.00366173
0.00193719
0.000506834
0.000135471
0.000113358
0.000148584
0.000274008
0.000483801
0.000879149
0.00155662
0.0024705
0.00314209
0.00333771
0.0032711
0.0030621
0.00299937
0.00316725
0.00362273
0.00420438
0.00488569
0.00520997
0.0047033
0.00229588
0.000454895
0.00025578
0.000220386
0.000361624
0.000627641
0.00111898
0.00183813
0.00228704
0.00239485
0.00229858
0.00212929
0.00208146
0.00218042
0.00246059
0.00287758
0.00353785
0.00453099
0.00592574
0.00692268
0.00662579
0.0028342
0.00047883
0.000333062
0.000520208
0.000888441
0.00147234
0.00190488
0.00201995
0.00189749
0.00163496
0.00152683
0.00149724
0.00155775
0.00171113
0.00195617
0.00244045
0.00333139
0.00497551
0.00784944
0.0104524
0.00930178
0.000770174
0.00045642
0.000675889
0.00111707
0.00163367
0.001814
0.0017519
0.00145026
0.00122952
0.00114383
0.00111463
0.00111259
0.00118198
0.00134706
0.00168624
0.00237574
0.00377416
0.00659294
0.0123407
0.0174762
0.00110238
0.00056781
0.000792921
0.0012567
0.00161843
0.00168419
0.00148316
0.00114032
0.000959379
0.000872213
0.000823141
0.000804459
0.000828808
0.000960404
0.00120959
0.00174135
0.00298933
0.00585696
0.012575
0.023593
0.00144022
0.000650351
0.00084584
0.00128403
0.00156655
0.00155751
0.00127302
0.000936128
0.000774477
0.00068383
0.000620163
0.000595596
0.000606643
0.000721383
0.000932472
0.00133675
0.00230312
0.0049524
0.0120975
0.0278834
0.00176557
0.0007013
0.000838209
0.00124858
0.00147556
0.00143923
0.00113026
0.000812385
0.000658708
0.000561108
0.000486303
0.000457387
0.000462711
0.000565462
0.000774575
0.00113804
0.00195337
0.00439681
0.011664
0.0310014
0.00204419
0.000726381
0.000807695
0.00116788
0.00138397
0.00135047
0.00105296
0.000751327
0.000584571
0.000488269
0.00041648
0.000387486
0.000400215
0.000495097
0.000707439
0.0010496
0.00177082
0.00404426
0.0115152
0.0336519
0.00226779
0.00073396
0.000748074
0.00104765
0.001294
0.00129786
0.00105627
0.000760256
0.000584254
0.000480805
0.000409744
0.000370978
0.000386459
0.000476851
0.000694716
0.00102897
0.00169866
0.00383095
0.0115833
0.036191
0.00243044
0.000744543
0.00068415
0.000918348
0.00118676
0.00125214
0.00108661
0.000804574
0.000611155
0.000500018
0.000429482
0.000400516
0.000424387
0.000524361
0.000769146
0.0010895
0.00168968
0.00372543
0.0120641
0.0389127
0.00248262
0.000772756
0.00063241
0.000792911
0.00105671
0.00120355
0.00113491
0.000926538
0.000696024
0.000563738
0.000485755
0.000471588
0.000507891
0.000629525
0.000895634
0.00118651
0.00171897
0.00368202
0.0126889
0.0420562
0.0024478
0.000809878
0.000594111
0.000688858
0.000910847
0.00111769
0.0011376
0.00106526
0.000894341
0.000729464
0.000624221
0.000617068
0.000659452
0.000786957
0.00101379
0.00124425
0.00172577
0.00360632
0.0134825
0.0458606
0.00234195
0.000825848
0.000567468
0.000614174
0.000773646
0.000984348
0.00111281
0.00110719
0.00105505
0.000948141
0.000847056
0.000816015
0.000841703
0.000919748
0.00106212
0.00126062
0.00168341
0.0034205
0.0142699
0.0506336
0.002115
0.000808823
0.000541315
0.000559412
0.000662655
0.000840489
0.00101397
0.00108673
0.00107748
0.00104143
0.000976443
0.000927631
0.000931256
0.000965619
0.00105872
0.00122888
0.00160223
0.00316363
0.0148678
0.05681
0.00193051
0.000765812
0.000521049
0.000528057
0.000596329
0.000728998
0.000869498
0.000984417
0.00103271
0.00102424
0.000994345
0.000948647
0.000940666
0.000963602
0.00104084
0.00121057
0.00157232
0.00306125
0.0152499
0.0650815
0.00156511
0.000641442
0.000508065
0.000539702
0.000619208
0.000744338
0.000876969
0.00099047
0.00105803
0.00107384
0.00106733
0.00105104
0.00105726
0.00109554
0.00119944
0.00142882
0.0018725
0.00372155
0.0178708
0.0764823
0.00170035
0.000779284
0.000829877
0.000990763
0.00117688
0.00137357
0.00156304
0.00172773
0.00185925
0.00194972
0.00202233
0.00210461
0.00220648
0.00238405
0.00260009
0.00301073
0.00389112
0.00767558
0.0249913
0.0946008
0.00283808
0.00463407
0.00708128
0.00884959
0.0101145
0.0111021
0.0118875
0.0125375
0.0130686
0.0135592
0.0140288
0.01459
0.0151788
0.0160369
0.0169407
0.018302
0.0208758
0.0318498
0.0488097
0.126559
0.0437801
0.0848168
0.122406
0.144921
0.157521
0.164657
0.168313
0.170038
0.170132
0.16992
0.16942
0.168933
0.16864
0.16877
0.169292
0.170559
0.174281
0.17544
0.191255
0.166432
)
;

boundaryField
{
    movingWall
    {
        type            epsilonWallFunction;
        blending        stepwise;
        value           nonuniform List<scalar> 
20
(
0.0437801
0.0848168
0.122406
0.144921
0.157521
0.164657
0.168313
0.170038
0.170132
0.16992
0.16942
0.168933
0.16864
0.16877
0.169292
0.170559
0.174281
0.17544
0.191255
0.166432
)
;
    }
    fixedWalls
    {
        type            epsilonWallFunction;
        blending        stepwise;
        value           nonuniform List<scalar> 
60
(
6.13679e-05
0.000113358
0.00025578
0.00047883
0.000770174
0.00110238
0.00144022
0.00176557
0.00204419
0.00226779
0.00243044
0.00248262
0.0024478
0.00234195
0.002115
0.00193051
0.00156511
0.00170035
0.00283808
0.0437801
0.000135471
0.000454895
0.0028342
0.00930178
0.0174762
0.023593
0.0278834
0.0310014
0.0336519
0.036191
0.0389127
0.0420562
0.0458606
0.0506336
0.05681
0.0650815
0.0764823
0.0946008
0.126559
0.166432
6.13679e-05
0.000126464
0.000266135
0.000492028
0.000872444
0.00154698
0.00266709
0.00417691
0.00563084
0.00644206
0.006761
0.00680572
0.00645355
0.0059421
0.00542596
0.00472742
0.00366173
0.00193719
0.000506834
0.000135471
)
;
    }
    frontAndBack
    {
        type            empty;
    }
}


// ************************************************************************* //
