/*--------------------------------*- C++ -*----------------------------------*\
| =========                 |                                                 |
| \\      /  F ield         | OpenFOAM: The Open Source CFD Toolbox           |
|  \\    /   O peration     | Version:  2312                                  |
|   \\  /    A nd           | Website:  www.openfoam.com                      |
|    \\/     M anipulation  |                                                 |
\*---------------------------------------------------------------------------*/
FoamFile
{
    version     2.0;
    format      ascii;
    arch        "LSB;label=32;scalar=64";
    class       volScalarField;
    location    "2.5";
    object      flowTypeField;
}
// * * * * * * * * * * * * * * * * * * * * * * * * * * * * * * * * * * * * * //

dimensions      [0 0 0 0 0 0 0];

internalField   nonuniform List<scalar> 
400
(
0.546304
0.128528
0.0754424
0.0437826
0.0396043
0.0344261
0.0311132
0.0352619
0.0385353
0.0376252
0.0343235
0.0314736
0.0321954
0.0392813
0.0559115
0.0843844
0.125555
0.175548
0.240553
0.424868
0.232537
0.254305
0.242781
0.159739
0.129352
0.152777
0.191647
0.245521
0.319611
0.405279
0.493371
0.573245
0.645252
0.66294
0.598759
0.499817
0.378089
0.249641
0.114767
0.0506212
0.162551
0.346405
0.37497
0.286929
0.247949
0.289085
0.390149
0.564751
0.914209
0.528172
0.0469192
-0.340188
-0.436575
-0.229865
0.0735049
0.532656
0.794748
0.384243
0.170479
0.0788234
0.118308
0.40562
0.449533
0.389501
0.377034
0.46442
0.699922
0.729621
0.123472
-0.395301
-0.827198
-0.78417
-0.670819
-0.653438
-0.691348
-0.551137
-0.0225754
0.930659
0.274175
0.0869537
0.0872904
0.448658
0.510396
0.474573
0.50672
0.704219
0.734342
0.0896808
-0.460881
-0.863769
-0.76875
-0.652508
-0.58747
-0.578446
-0.666635
-0.858266
-0.814543
-0.160034
0.527195
0.0920274
0.0645481
0.472617
0.557017
0.545323
0.644089
0.95432
0.286549
-0.312999
-0.777992
-0.916322
-0.786749
-0.692189
-0.589976
-0.520848
-0.558753
-0.790533
-0.832252
-0.624155
0.540646
0.0828279
0.0472363
0.473369
0.59358
0.608861
0.776408
0.651983
-0.00425695
-0.543134
-0.896742
-0.906068
-0.839236
-0.753246
-0.628075
-0.515716
-0.475699
-0.606823
-0.739965
-0.490129
-0.358999
0.0635027
0.0347937
0.452828
0.624944
0.662447
0.895643
0.466931
-0.165615
-0.654953
-0.904613
-0.878096
-0.865467
-0.822464
-0.718035
-0.616693
-0.556171
-0.609742
-0.637474
-0.358218
-0.316919
0.0424684
0.0265046
0.413056
0.655202
0.708566
0.980242
0.392498
-0.216307
-0.694787
-0.918634
-0.875852
-0.881448
-0.882803
-0.840526
-0.804254
-0.778168
-0.838077
-0.599208
-0.261938
-0.180996
0.0244487
0.021144
0.359745
0.689733
0.761872
0.997596
0.43212
-0.153355
-0.639988
-0.95379
-0.903749
-0.884798
-0.886058
-0.895788
-0.906914
-0.812632
-0.735732
-0.478109
-0.188356
-0.102384
0.0114914
0.0177277
0.309955
0.727704
0.826361
0.981556
0.55594
0.0279584
-0.438958
-0.788057
-0.912174
-0.86472
-0.816647
-0.749592
-0.62586
-0.479446
-0.378188
-0.269458
-0.121295
-0.0542018
0.00392512
0.015342
0.275399
0.761739
0.909849
0.983972
0.704327
0.278818
-0.136848
-0.490488
-0.712845
-0.75161
-0.680758
-0.547507
-0.368731
-0.211643
-0.11558
-0.0737769
-0.0575111
-0.0235928
-0.000487436
0.0128907
0.248714
0.770652
0.995912
0.967009
0.81289
0.516974
0.180403
-0.13763
-0.389659
-0.500466
-0.456446
-0.3081
-0.134811
-0.00526811
0.0694661
0.0742615
-0.00233034
-0.00433799
-0.00306763
0.00923472
0.219599
0.74637
0.927511
0.888486
0.843835
0.686357
0.448756
0.19016
-0.0461191
-0.190515
-0.18643
-0.073095
0.0505249
0.138798
0.188366
0.173306
0.0329836
0.000847054
-0.00318276
-0.000524505
0.174235
0.698549
0.913512
0.827392
0.813269
0.756496
0.62646
0.439364
0.237083
0.0744913
0.0273177
0.0862756
0.164724
0.21972
0.251813
0.225893
0.021218
-0.0153211
0.00142585
-0.0156147
0.164199
0.665765
0.970199
0.833144
0.788334
0.7554
0.69235
0.574071
0.403211
0.212196
0.0956812
0.11829
0.184561
0.231313
0.259937
0.201843
-0.0821929
-0.0407261
0.0132744
-0.0613287
-0.112916
0.42978
0.812845
0.954261
0.827182
0.748501
0.669911
0.5563
0.370537
0.0925924
-0.166882
-0.0997123
0.0486257
0.127818
0.159717
-0.00194492
-0.305977
-0.0270489
0.0479577
-0.0600879
0.474126
0.925447
0.793727
0.625386
0.502372
0.400192
0.296653
0.173353
0.0161564
-0.172141
-0.295714
-0.261011
-0.172066
-0.135451
-0.12673
-0.389357
-0.434791
-0.00144826
0.235234
0.660325
0.0660192
0.143813
0.106412
0.0607194
0.037835
0.0249388
0.0135081
0.00151359
-0.00974413
-0.0185148
-0.0238078
-0.0263593
-0.0279144
-0.0369924
-0.0470754
-0.116277
-0.0994851
-0.317796
0.746784
0.0847889
-0.0247061
-0.0203813
-0.0110766
-0.00589316
-0.00351996
-0.00235289
-0.00171319
-0.00134278
-0.00112532
-0.00100109
-0.00093523
-0.000932428
-0.00103315
-0.00132675
-0.00166257
-0.00392696
0.00290076
-0.0490454
0.120834
)
;

boundaryField
{
    movingWall
    {
        type            calculated;
        value           nonuniform List<scalar> 
20
(
0.0468621
-0.0105845
-0.00985415
-0.00553037
-0.00298386
-0.00180556
-0.00122509
-0.000904905
-0.000717002
-0.000604067
-0.000537358
-0.000500189
-0.000496917
-0.000549564
-0.000710193
-0.000894447
-0.00214128
0.00101985
-0.0267001
0.0676733
)
;
    }
    fixedWalls
    {
        type            calculated;
        value           nonuniform List<scalar> 
60
(
0.480976
0.199674
0.0730788
0.0458405
0.0340344
0.0264657
0.0207135
0.0165395
0.0136648
0.0115946
0.00997535
0.00847736
0.00663132
0.00380081
-0.00246882
-0.0130687
-0.0392581
-0.0348525
0.869716
0.19294
0.216013
0.931922
0.0610387
0.0501455
0.0497139
0.040909
0.0292044
0.0190454
0.0108514
0.00525174
0.00209924
0.000358021
-0.000540532
-0.000390959
0.00147615
0.00550417
0.016433
0.0745822
0.436273
0.43542
0.379091
0.133269
0.0326721
0.00850425
0.00301859
-0.00287975
-0.00047647
0.00938197
0.0165252
0.0190279
0.0188163
0.0179604
0.0181808
0.0207369
0.0271734
0.0393517
0.0615245
0.123175
0.595414
0.209854
)
;
    }
    frontAndBack
    {
        type            empty;
    }
}


// ************************************************************************* //
