/*--------------------------------*- C++ -*----------------------------------*\
| =========                 |                                                 |
| \\      /  F ield         | OpenFOAM: The Open Source CFD Toolbox           |
|  \\    /   O peration     | Version:  2312                                  |
|   \\  /    A nd           | Website:  www.openfoam.com                      |
|    \\/     M anipulation  |                                                 |
\*---------------------------------------------------------------------------*/
FoamFile
{
    version     2.0;
    format      ascii;
    arch        "LSB;label=32;scalar=64";
    class       surfaceScalarField;
    location    "2.5";
    object      fluxField;
}
// * * * * * * * * * * * * * * * * * * * * * * * * * * * * * * * * * * * * * //

dimensions      [0 3 -1 0 0 0 0];

oriented        oriented;

internalField   nonuniform List<scalar> 
760
(
-1.52077e-08
1.66752e-08
-1.1407e-07
1.14085e-07
-2.76128e-07
1.7078e-07
-5.00642e-07
2.35102e-07
-8.41415e-07
3.63927e-07
-1.36745e-06
5.61432e-07
-2.12818e-06
7.9076e-07
-3.08395e-06
9.78863e-07
-4.09388e-06
1.02839e-06
-4.98558e-06
9.07493e-07
-5.60913e-06
6.47032e-07
-5.87921e-06
3.02405e-07
-5.75557e-06
-8.62835e-08
-5.21105e-06
-4.97946e-07
-4.27575e-06
-9.01945e-07
-3.05276e-06
-1.24058e-06
-1.6936e-06
-1.40436e-06
-4.88338e-07
-1.20997e-06
1.1602e-07
-5.88175e-07
1.23221e-07
-1.74088e-07
1.92011e-07
-4.63433e-07
4.17381e-07
-8.41406e-07
5.44749e-07
-1.31287e-06
7.05105e-07
-1.96617e-06
1.01644e-06
-2.85062e-06
1.42947e-06
-3.90259e-06
1.80822e-06
-4.99693e-06
2.01806e-06
-5.99564e-06
1.96307e-06
-6.78142e-06
1.63989e-06
-7.28953e-06
1.11679e-06
-7.48877e-06
4.69492e-07
-7.36688e-06
-2.41751e-07
-6.91324e-06
-9.96776e-07
-6.0923e-06
-1.77335e-06
-4.89585e-06
-2.49784e-06
-3.38897e-06
-2.98019e-06
-1.7095e-06
-2.87661e-06
-3.78907e-07
-1.85383e-06
-1.85793e-07
-3.29354e-07
5.16646e-07
-7.47475e-07
8.55621e-07
-1.27354e-06
1.06581e-06
-1.92752e-06
1.35489e-06
-2.7499e-06
1.84299e-06
-3.74103e-06
2.41092e-06
-4.81601e-06
2.86064e-06
-5.83283e-06
3.0128e-06
-6.67171e-06
2.7896e-06
-7.27053e-06
2.23361e-06
-7.62252e-06
1.45965e-06
-7.74494e-06
5.78492e-07
-7.64781e-06
-3.44285e-07
-7.34806e-06
-1.29524e-06
-6.8302e-06
-2.29746e-06
-6.00382e-06
-3.35048e-06
-4.74489e-06
-4.29684e-06
-3.03304e-06
-4.70155e-06
-1.15242e-06
-3.81019e-06
-1.21162e-06
-4.41631e-07
9.36805e-07
-9.36441e-07
1.36278e-06
-1.53455e-06
1.657e-06
-2.25859e-06
2.07131e-06
-3.12639e-06
2.69737e-06
-4.09973e-06
3.3617e-06
-5.06409e-06
3.80328e-06
-5.88458e-06
3.82045e-06
-6.46496e-06
3.36907e-06
-6.78084e-06
2.55515e-06
-6.85831e-06
1.55751e-06
-6.76129e-06
5.26933e-07
-6.57902e-06
-4.76991e-07
-6.36576e-06
-1.45721e-06
-6.13902e-06
-2.47343e-06
-5.81632e-06
-3.61755e-06
-5.14026e-06
-4.90857e-06
-3.83565e-06
-6.02215e-06
-1.94283e-06
-5.93575e-06
-3.07061e-06
-4.9309e-07
1.40025e-06
-1.00857e-06
1.89388e-06
-1.60614e-06
2.25587e-06
-2.31185e-06
2.76822e-06
-3.1191e-06
3.49149e-06
-3.96328e-06
4.18859e-06
-4.72758e-06
4.5525e-06
-5.28821e-06
4.38267e-06
-5.5746e-06
3.67892e-06
-5.6013e-06
2.62798e-06
-5.45532e-06
1.46394e-06
-5.23345e-06
3.39952e-07
-4.98266e-06
-7.0253e-07
-4.74576e-06
-1.67141e-06
-4.5945e-06
-2.60916e-06
-4.54885e-06
-3.63609e-06
-4.41743e-06
-4.94916e-06
-3.76549e-06
-6.56799e-06
-2.30924e-06
-7.60889e-06
-5.40216e-06
-4.80289e-07
1.85572e-06
-9.66748e-07
2.39943e-06
-1.50712e-06
2.80576e-06
-2.11885e-06
3.37659e-06
-2.78467e-06
4.14749e-06
-3.44112e-06
4.82864e-06
-3.9846e-06
5.08305e-06
-4.32017e-06
4.72409e-06
-4.42603e-06
3.80324e-06
-4.36686e-06
2.58368e-06
-4.22731e-06
1.32252e-06
-4.0318e-06
1.31848e-07
-3.77221e-06
-9.80064e-07
-3.47621e-06
-1.99257e-06
-3.22132e-06
-2.8903e-06
-3.12085e-06
-3.76443e-06
-3.17586e-06
-4.87118e-06
-3.01744e-06
-6.56631e-06
-2.12354e-06
-8.50862e-06
-7.63481e-06
-4.15153e-07
2.25598e-06
-8.32887e-07
2.83714e-06
-1.27164e-06
3.2596e-06
-1.73844e-06
3.84374e-06
-2.21764e-06
4.61586e-06
-2.66507e-06
5.25558e-06
-3.00976e-06
5.41407e-06
-3.19938e-06
4.92214e-06
-3.25114e-06
3.87e-06
-3.23462e-06
2.56915e-06
-3.17901e-06
1.2605e-06
-3.05237e-06
7.50211e-10
-2.83288e-06
-1.20927e-06
-2.54289e-06
-2.30487e-06
-2.24707e-06
-3.21437e-06
-2.04648e-06
-4.00183e-06
-2.05082e-06
-4.90719e-06
-2.0888e-06
-6.40563e-06
-1.64089e-06
-8.83338e-06
-9.41316e-06
-3.15386e-07
2.56455e-06
-6.36154e-07
3.17467e-06
-9.47398e-07
3.58746e-06
-1.24592e-06
4.14483e-06
-1.51967e-06
4.87892e-06
-1.74808e-06
5.46477e-06
-1.91961e-06
5.5706e-06
-2.022e-06
5.0338e-06
-2.07116e-06
3.94021e-06
-2.11084e-06
2.61511e-06
-2.12219e-06
1.27282e-06
-2.05554e-06
-5.75616e-08
-1.89332e-06
-1.36754e-06
-1.66653e-06
-2.54184e-06
-1.43409e-06
-3.46324e-06
-1.25554e-06
-4.19656e-06
-1.23003e-06
-4.97888e-06
-1.30724e-06
-6.27494e-06
-1.13187e-06
-8.87795e-06
-1.06394e-05
-1.96062e-07
2.75971e-06
-4.05647e-07
3.39528e-06
-5.82891e-07
3.78033e-06
-7.08974e-07
4.27775e-06
-7.76299e-07
4.93463e-06
-7.94998e-07
5.47074e-06
-8.00384e-07
5.56125e-06
-8.15621e-07
5.06007e-06
-8.50492e-07
4.00246e-06
-9.10822e-07
2.69146e-06
-9.55392e-07
1.3297e-06
-9.40049e-07
-5.4551e-08
-8.53878e-07
-1.4316e-06
-7.3911e-07
-2.65048e-06
-6.40802e-07
-3.56835e-06
-5.77879e-07
-4.25973e-06
-6.18331e-07
-4.96265e-06
-7.46502e-07
-6.13636e-06
-7.47753e-07
-8.78082e-06
-1.14487e-05
-7.22921e-08
2.83511e-06
-1.68201e-07
3.49691e-06
-2.20042e-07
3.84413e-06
-1.91804e-07
4.25786e-06
-7.33e-08
4.80518e-06
1.06678e-07
5.28523e-06
2.77484e-07
5.37983e-06
3.81391e-07
4.961e-06
4.03395e-07
4.00958e-06
3.62857e-07
2.75877e-06
3.13139e-07
1.40688e-06
2.84751e-07
3.93415e-09
2.70888e-07
-1.38206e-06
2.28432e-07
-2.59332e-06
1.47592e-07
-3.49131e-06
4.78697e-08
-4.15488e-06
-1.19514e-07
-4.80588e-06
-3.40652e-07
-5.89739e-06
-4.9894e-07
-8.58255e-06
-1.19788e-05
4.26294e-08
2.79776e-06
5.19589e-08
3.48851e-06
1.07669e-07
3.79649e-06
2.57614e-07
4.11566e-06
5.23496e-07
4.53371e-06
8.73632e-07
4.92711e-06
1.22059e-06
5.02348e-06
1.48035e-06
4.6933e-06
1.61445e-06
3.89586e-06
1.6368e-06
2.76656e-06
1.59954e-06
1.47737e-06
1.52456e-06
1.16651e-07
1.38963e-06
-1.21242e-06
1.16595e-06
-2.36182e-06
8.89047e-07
-3.22421e-06
6.11873e-07
-3.87466e-06
2.97007e-07
-4.49975e-06
-4.20201e-08
-5.53705e-06
-3.48674e-07
-8.27407e-06
-1.23388e-05
1.38858e-07
2.6644e-06
2.38493e-07
3.38623e-06
3.79691e-07
3.66066e-06
6.12626e-07
3.88752e-06
9.74319e-07
4.1694e-06
1.44027e-06
4.4476e-06
1.92935e-06
4.52215e-06
2.34804e-06
4.26131e-06
2.62555e-06
3.62106e-06
2.74727e-06
2.65951e-06
2.74125e-06
1.50178e-06
2.61956e-06
2.62119e-07
2.36202e-06
-9.40995e-07
1.97178e-06
-1.97997e-06
1.52259e-06
-2.79276e-06
1.08654e-06
-3.43905e-06
6.34073e-07
-4.05539e-06
1.78503e-07
-5.05964e-06
-2.63165e-07
-7.86249e-06
-1.26063e-05
2.09961e-07
2.462e-06
3.81911e-07
3.21033e-06
5.87136e-07
3.45878e-06
8.69929e-07
3.6061e-06
1.27526e-06
3.76285e-06
1.79437e-06
3.91664e-06
2.3593e-06
3.9428e-06
2.88035e-06
3.72584e-06
3.27484e-06
3.21623e-06
3.49384e-06
2.43472e-06
3.5288e-06
1.4632e-06
3.38085e-06
4.11481e-07
3.04314e-06
-6.10761e-07
2.55053e-06
-1.50881e-06
1.99417e-06
-2.25654e-06
1.44789e-06
-2.89314e-06
8.88702e-07
-3.50146e-06
3.34293e-07
-4.48232e-06
-2.22688e-07
-7.35377e-06
-1.28163e-05
2.50962e-07
2.21263e-06
4.76669e-07
2.97619e-06
7.29657e-07
3.20456e-06
1.04286e-06
3.29012e-06
1.45564e-06
3.34732e-06
1.97248e-06
3.39155e-06
2.54576e-06
3.35711e-06
3.09449e-06
3.16347e-06
3.53809e-06
2.75877e-06
3.81125e-06
2.14861e-06
3.87794e-06
1.38371e-06
3.73299e-06
5.488e-07
3.38787e-06
-2.72762e-07
2.8855e-06
-1.02178e-06
2.30079e-06
-1.68626e-06
1.70068e-06
-2.29191e-06
1.06965e-06
-2.87608e-06
4.40534e-07
-3.84192e-06
-2.09441e-07
-6.72814e-06
-1.29697e-05
2.56081e-07
1.98338e-06
5.16649e-07
2.7218e-06
8.09176e-07
2.91793e-06
1.14749e-06
2.9516e-06
1.55594e-06
2.93714e-06
2.04144e-06
2.9013e-06
2.5768e-06
2.81427e-06
3.09994e-06
2.63202e-06
3.53679e-06
2.31408e-06
3.82197e-06
1.8557e-06
3.91554e-06
1.28589e-06
3.8068e-06
6.57237e-07
3.50801e-06
2.55535e-08
3.05254e-06
-5.73192e-07
2.49562e-06
-1.1352e-06
1.88437e-06
-1.682e-06
1.21185e-06
-2.22266e-06
5.53921e-07
-3.20995e-06
-1.68585e-07
-5.98363e-06
-1.30983e-05
2.20308e-07
1.69557e-06
5.03597e-07
2.37033e-06
8.30173e-07
2.5487e-06
1.19449e-06
2.56113e-06
1.60498e-06
2.51252e-06
2.06289e-06
2.43441e-06
2.55005e-06
2.32061e-06
3.02495e-06
2.15222e-06
3.43136e-06
1.90588e-06
3.7136e-06
1.57409e-06
3.83332e-06
1.16831e-06
3.77448e-06
7.18688e-07
3.54201e-06
2.5753e-07
3.15561e-06
-1.94489e-07
2.65306e-06
-6.38187e-07
2.04821e-06
-1.10175e-06
1.39374e-06
-1.58975e-06
7.97119e-07
-2.67657e-06
-8.35575e-09
-5.21629e-06
-1.33097e-05
1.06614e-07
1.83814e-06
3.82626e-07
2.30939e-06
7.52727e-07
2.34189e-06
1.16103e-06
2.25724e-06
1.5976e-06
2.14634e-06
2.05754e-06
2.02767e-06
2.52342e-06
1.89762e-06
2.96612e-06
1.74361e-06
3.34851e-06
1.5516e-06
3.63028e-06
1.31645e-06
3.78053e-06
1.04248e-06
3.77644e-06
7.44583e-07
3.61175e-06
4.40301e-07
3.29467e-06
1.36477e-07
2.85581e-06
-1.71871e-07
2.26666e-06
-5.39277e-07
1.74599e-06
-9.99315e-07
1.25204e-06
-2.21493e-06
2.93449e-07
-4.37729e-06
-1.34869e-05
-7.37791e-08
1.41124e-06
1.91981e-07
1.4828e-06
5.97746e-07
1.51318e-06
1.04944e-06
1.51804e-06
1.53258e-06
1.46622e-06
2.03338e-06
1.38811e-06
2.52814e-06
1.3013e-06
2.99088e-06
1.20414e-06
3.3944e-06
1.08953e-06
3.71019e-06
9.54619e-07
3.90955e-06
8.0377e-07
3.97588e-06
6.4181e-07
3.90378e-06
4.78634e-07
3.68475e-06
3.1301e-07
3.35457e-06
1.38253e-07
2.83028e-06
-1.1866e-07
2.57808e-06
-4.76452e-07
1.90044e-06
-1.54289e-06
7.29274e-07
-3.03822e-06
-1.24538e-05
-4.35489e-07
2.65655e-06
-1.79212e-07
1.96824e-06
5.13226e-07
1.40675e-06
1.23994e-06
1.14429e-06
1.94759e-06
9.92291e-07
2.62475e-06
8.8274e-07
3.25463e-06
7.97602e-07
3.82532e-06
7.26153e-07
4.32724e-06
6.59288e-07
4.75056e-06
5.91702e-07
5.08607e-06
5.22405e-07
5.32768e-06
4.5189e-07
5.47915e-06
3.81684e-07
5.52741e-06
3.08455e-07
5.50821e-06
2.27602e-07
5.21672e-06
9.74876e-08
5.19229e-06
-6.71203e-08
3.47301e-06
-6.2668e-07
2.56995e-06
-1.00423e-06
-8.15824e-06
2.49794e-06
3.64093e-06
4.86795e-06
5.91042e-06
6.78314e-06
7.5703e-06
8.30535e-06
8.9883e-06
9.61409e-06
1.01789e-05
1.06791e-05
1.11101e-05
1.14719e-05
1.17452e-05
1.19697e-05
1.18983e-05
1.22133e-05
9.55728e-06
1.26915e-05
)
;

boundaryField
{
    movingWall
    {
        type            calculated;
        value           uniform 0;
    }
    fixedWalls
    {
        type            calculated;
        value           uniform 0;
    }
    frontAndBack
    {
        type            empty;
        value           nonuniform List<scalar> 0();
    }
}


// ************************************************************************* //
