/*--------------------------------*- C++ -*----------------------------------*\
| =========                 |                                                 |
| \\      /  F ield         | OpenFOAM: The Open Source CFD Toolbox           |
|  \\    /   O peration     | Version:  2312                                  |
|   \\  /    A nd           | Website:  www.openfoam.com                      |
|    \\/     M anipulation  |                                                 |
\*---------------------------------------------------------------------------*/
FoamFile
{
    version     2.0;
    format      ascii;
    arch        "LSB;label=32;scalar=64";
    class       volVectorField;
    location    "2.5";
    object      gradPhi;
}
// * * * * * * * * * * * * * * * * * * * * * * * * * * * * * * * * * * * * * //

dimensions      [0 2 -1 0 0 0 0];

internalField   nonuniform List<vector> 
400
(
(-2.68949e-06 2.68811e-06 0)
(-2.09543e-05 2.09543e-05 0)
(-3.1817e-05 3.1817e-05 0)
(-4.42552e-05 4.42551e-05 0)
(-6.89938e-05 6.89937e-05 0)
(-0.000107009 0.000107009 0)
(-0.000151526 0.000151526 0)
(-0.000188375 0.000188375 0)
(-0.00019883 0.00019883 0)
(-0.000176409 0.000176409 0)
(-0.000125829 0.000125829 0)
(-5.75103e-05 5.75103e-05 0)
(1.95771e-05 -1.95771e-05 0)
(0.00010255 -0.00010255 0)
(0.000183062 -0.000183062 0)
(0.000251742 -0.000251742 0)
(0.000286388 -0.000286388 0)
(0.000243196 -0.000243196 0)
(0.000114978 -0.000114978 0)
(-2.72946e-05 2.72946e-05 0)
(-3.38165e-05 3.38165e-05 0)
(-6.0235e-05 6.0235e-05 0)
(-7.44686e-05 7.44686e-05 0)
(-9.40612e-05 9.40611e-05 0)
(-0.000132233 0.000132233 0)
(-0.00017728 0.00017728 0)
(-0.000209286 0.000209286 0)
(-0.000216389 0.000216389 0)
(-0.000197236 0.000197236 0)
(-0.000156539 0.000156539 0)
(-0.000103264 0.000103264 0)
(-4.25901e-05 4.259e-05 0)
(2.25865e-05 -2.25865e-05 0)
(8.67931e-05 -8.67931e-05 0)
(0.000161226 -0.000161226 0)
(0.000240593 -0.000240593 0)
(0.000310413 -0.000310413 0)
(0.000342766 -0.000342766 0)
(0.000265433 -0.000265433 0)
(6.75879e-05 -6.75879e-05 0)
(-6.39052e-05 6.39053e-05 0)
(-8.73715e-05 8.73715e-05 0)
(-0.000104697 0.000104697 0)
(-0.000130709 0.000130709 0)
(-0.000165646 0.000165646 0)
(-0.000197367 0.000197367 0)
(-0.00021276 0.00021276 0)
(-0.000201152 0.000201152 0)
(-0.00016685 0.00016685 0)
(-0.000120413 0.000120413 0)
(-7.17684e-05 7.17684e-05 0)
(-2.56623e-05 2.56623e-05 0)
(1.81642e-05 -1.81642e-05 0)
(5.78338e-05 -5.78338e-05 0)
(0.000102072 -0.000102072 0)
(0.000163369 -0.000163369 0)
(0.000250035 -0.000250035 0)
(0.000351119 -0.000351119 0)
(0.000391926 -0.000391926 0)
(0.000213781 -0.000213781 0)
(-8.5496e-05 8.5496e-05 0)
(-0.000103467 0.000103467 0)
(-0.000120211 0.000120211 0)
(-0.00014516 0.00014516 0)
(-0.000173308 0.000173308 0)
(-0.000192596 0.000192596 0)
(-0.000190178 0.000190178 0)
(-0.000162506 0.000162506 0)
(-0.00011651 0.00011651 0)
(-6.42621e-05 6.42621e-05 0)
(-1.63953e-05 1.63953e-05 0)
(1.78079e-05 -1.78079e-05 0)
(3.46524e-05 -3.46524e-05 0)
(4.34735e-05 -4.34735e-05 0)
(4.64803e-05 -4.64803e-05 0)
(6.29723e-05 -6.29723e-05 0)
(0.000125496 -0.000125496 0)
(0.000257095 -0.000257095 0)
(0.000413988 -0.000413988 0)
(0.000368123 -0.000368123 0)
(-9.5289e-05 9.52891e-05 0)
(-0.000107901 0.000107901 0)
(-0.000121311 0.000121311 0)
(-0.000141063 0.000141063 0)
(-0.000160163 0.000160163 0)
(-0.000166002 0.000166002 0)
(-0.000149741 0.000149741 0)
(-0.0001111 0.0001111 0)
(-5.83677e-05 5.83677e-05 0)
(-7.83647e-06 7.83647e-06 0)
(2.70851e-05 -2.70851e-05 0)
(4.33297e-05 -4.33297e-05 0)
(4.97079e-05 -4.97079e-05 0)
(4.83964e-05 -4.83964e-05 0)
(3.32412e-05 -3.32412e-05 0)
(1.17628e-05 -1.17628e-05 0)
(1.65536e-05 -1.65536e-05 0)
(0.000110932 -0.000110932 0)
(0.000323722 -0.000323722 0)
(0.000454044 -0.000454044 0)
(-9.27365e-05 9.27365e-05 0)
(-0.000101917 0.000101917 0)
(-0.000110523 0.000110523 0)
(-0.000122038 0.000122038 0)
(-0.000131185 0.000131185 0)
(-0.000127521 0.000127521 0)
(-0.000105292 0.000105292 0)
(-6.71468e-05 6.71468e-05 0)
(-2.3672e-05 2.3672e-05 0)
(8.89965e-06 -8.89965e-06 0)
(2.60112e-05 -2.60112e-05 0)
(3.84024e-05 -3.84024e-05 0)
(5.13562e-05 -5.13562e-05 0)
(6.02454e-05 -6.02454e-05 0)
(5.36858e-05 -5.36857e-05 0)
(2.51627e-05 -2.51627e-05 0)
(-1.19925e-05 1.19925e-05 0)
(5.93019e-06 -5.93019e-06 0)
(0.000182414 -0.000182414 0)
(0.000441916 -0.000441916 0)
(-8.01702e-05 8.01702e-05 0)
(-8.74681e-05 8.74681e-05 0)
(-9.05554e-05 9.05554e-05 0)
(-9.31248e-05 9.31248e-05 0)
(-9.33419e-05 9.33419e-05 0)
(-8.48994e-05 8.48994e-05 0)
(-6.54702e-05 6.54702e-05 0)
(-3.90971e-05 3.90971e-05 0)
(-1.3883e-05 1.38831e-05 0)
(1.02132e-06 -1.02132e-06 0)
(9.35204e-06 -9.35203e-06 0)
(2.47251e-05 -2.47251e-05 0)
(4.23588e-05 -4.23588e-05 0)
(5.90369e-05 -5.90369e-05 0)
(6.14232e-05 -6.14232e-05 0)
(4.42944e-05 -4.42944e-05 0)
(5.79388e-06 -5.79388e-06 0)
(-2.79176e-05 2.79176e-05 0)
(7.20071e-05 -7.20071e-05 0)
(0.000355915 -0.000355915 0)
(-6.09959e-05 6.09959e-05 0)
(-6.69872e-05 6.69872e-05 0)
(-6.5101e-05 6.5101e-05 0)
(-5.97556e-05 5.97556e-05 0)
(-5.18821e-05 5.18821e-05 0)
(-4.11053e-05 4.11053e-05 0)
(-3.03844e-05 3.03844e-05 0)
(-2.17913e-05 2.17913e-05 0)
(-1.4191e-05 1.4191e-05 0)
(-9.92549e-06 9.9255e-06 0)
(-3.83328e-06 3.83329e-06 0)
(1.18141e-05 -1.18141e-05 0)
(3.00511e-05 -3.00511e-05 0)
(4.64907e-05 -4.64907e-05 0)
(4.92294e-05 -4.92294e-05 0)
(3.82042e-05 -3.82042e-05 0)
(1.30495e-05 -1.30495e-05 0)
(-2.58329e-05 2.58329e-05 0)
(1.23348e-05 -1.23348e-05 0)
(0.000250612 -0.000250612 0)
(-3.80471e-05 3.80471e-05 0)
(-4.3487e-05 4.34871e-05 0)
(-3.79429e-05 3.79429e-05 0)
(-2.58945e-05 2.58946e-05 0)
(-1.02815e-05 1.02815e-05 0)
(-2.02057e-07 2.02071e-07 0)
(2.93753e-06 -2.93752e-06 0)
(-3.64257e-06 3.64258e-06 0)
(-1.10184e-05 1.10184e-05 0)
(-1.40248e-05 1.40248e-05 0)
(-1.00132e-05 1.00132e-05 0)
(-4.35691e-07 4.357e-07 0)
(1.5016e-05 -1.5016e-05 0)
(2.41323e-05 -2.41323e-05 0)
(2.30918e-05 -2.30918e-05 0)
(1.39873e-05 -1.39873e-05 0)
(-2.67121e-06 2.67122e-06 0)
(-2.90273e-05 2.90273e-05 0)
(-1.8206e-05 1.8206e-05 0)
(0.000165729 -0.000165729 0)
(-1.41204e-05 1.41204e-05 0)
(-1.96633e-05 1.96633e-05 0)
(-1.21365e-05 1.21365e-05 0)
(4.72352e-06 -4.7235e-06 0)
(2.6374e-05 -2.63739e-05 0)
(3.79198e-05 -3.79198e-05 0)
(3.74414e-05 -3.74414e-05 0)
(2.16369e-05 -2.16369e-05 0)
(1.54064e-06 -1.54063e-06 0)
(-1.00426e-05 1.00426e-05 0)
(-1.03684e-05 1.03684e-05 0)
(-9.8802e-06 9.88021e-06 0)
(-3.91792e-06 3.91793e-06 0)
(-7.81861e-06 7.81862e-06 0)
(-1.33013e-05 1.33013e-05 0)
(-1.93742e-05 1.93742e-05 0)
(-3.04478e-05 3.04478e-05 0)
(-4.69907e-05 4.69907e-05 0)
(-3.95527e-05 3.95527e-05 0)
(0.000107978 -0.000107978 0)
(8.2242e-06 -8.22418e-06 0)
(2.16727e-06 -2.16726e-06 0)
(9.95507e-06 -9.95505e-06 0)
(2.88277e-05 -2.88277e-05 0)
(5.48564e-05 -5.48564e-05 0)
(7.24905e-05 -7.24905e-05 0)
(7.22113e-05 -7.22113e-05 0)
(5.4414e-05 -5.4414e-05 0)
(2.45433e-05 -2.45433e-05 0)
(1.77889e-06 -1.77888e-06 0)
(-9.48843e-06 9.48844e-06 0)
(-1.96697e-05 1.96697e-05 0)
(-2.97489e-05 2.97489e-05 0)
(-4.28358e-05 4.28358e-05 0)
(-5.1154e-05 5.1154e-05 0)
(-5.47957e-05 5.47957e-05 0)
(-6.02452e-05 6.02452e-05 0)
(-7.15497e-05 7.15497e-05 0)
(-6.19749e-05 6.19749e-05 0)
(7.19938e-05 -7.19938e-05 0)
(2.70324e-05 -2.70324e-05 0)
(2.06654e-05 -2.06654e-05 0)
(2.72664e-05 -2.72664e-05 0)
(4.57651e-05 -4.5765e-05 0)
(7.29721e-05 -7.29721e-05 0)
(9.55397e-05 -9.55396e-05 0)
(9.98452e-05 -9.98452e-05 0)
(8.59247e-05 -8.59247e-05 0)
(5.47155e-05 -5.47155e-05 0)
(2.20127e-05 -2.20127e-05 0)
(-3.94978e-06 3.94979e-06 0)
(-2.71502e-05 2.71502e-05 0)
(-5.43525e-05 5.43525e-05 0)
(-7.62858e-05 7.62858e-05 0)
(-8.6347e-05 8.6347e-05 0)
(-8.70438e-05 8.70438e-05 0)
(-8.86029e-05 8.86029e-05 0)
(-9.54112e-05 9.54112e-05 0)
(-8.31034e-05 8.31034e-05 0)
(5.05071e-05 -5.05071e-05 0)
(4.09539e-05 -4.09539e-05 0)
(3.53429e-05 -3.53429e-05 0)
(4.04319e-05 -4.04319e-05 0)
(5.62192e-05 -5.62191e-05 0)
(8.10475e-05 -8.10474e-05 0)
(0.000105482 -0.000105482 0)
(0.000114695 -0.000114695 0)
(0.000105668 -0.000105668 0)
(7.89539e-05 -7.89539e-05 0)
(4.23149e-05 -4.23149e-05 0)
(4.34794e-06 -4.34793e-06 0)
(-3.16413e-05 3.16413e-05 0)
(-6.97058e-05 6.97058e-05 0)
(-9.70812e-05 9.70812e-05 0)
(-0.00010881 0.00010881 0)
(-0.000109812 0.000109812 0)
(-0.000110678 0.000110678 0)
(-0.000115116 0.000115116 0)
(-0.000102864 0.000102864 0)
(4.02532e-05 -4.02532e-05 0)
(4.88984e-05 -4.88984e-05 0)
(4.60987e-05 -4.60986e-05 0)
(5.0319e-05 -5.0319e-05 0)
(6.27117e-05 -6.27117e-05 0)
(8.25227e-05 -8.25227e-05 0)
(0.000104273 -0.000104273 0)
(0.000115944 -0.000115944 0)
(0.000110696 -0.000110696 0)
(8.89557e-05 -8.89557e-05 0)
(5.3846e-05 -5.3846e-05 0)
(1.1672e-05 -1.1672e-05 0)
(-3.08434e-05 3.08434e-05 0)
(-7.05552e-05 7.05552e-05 0)
(-9.96575e-05 9.96575e-05 0)
(-0.000115418 0.000115418 0)
(-0.000121049 0.000121049 0)
(-0.000125546 0.000125546 0)
(-0.000128416 0.000128416 0)
(-0.000122509 0.000122509 0)
(3.80563e-05 -3.80563e-05 0)
(4.94722e-05 -4.94722e-05 0)
(5.31134e-05 -5.31133e-05 0)
(5.85755e-05 -5.85755e-05 0)
(6.80671e-05 -6.80671e-05 0)
(8.18267e-05 -8.18267e-05 0)
(9.75774e-05 -9.75774e-05 0)
(0.000107884 -0.000107884 0)
(0.000105299 -0.000105299 0)
(8.7557e-05 -8.7557e-05 0)
(5.67393e-05 -5.67393e-05 0)
(1.76891e-05 -1.76891e-05 0)
(-2.33022e-05 2.33022e-05 0)
(-6.08141e-05 6.08141e-05 0)
(-9.07179e-05 9.07179e-05 0)
(-0.000110991 0.000110991 0)
(-0.000122867 0.000122867 0)
(-0.000133053 0.000133053 0)
(-0.000131155 0.000131155 0)
(-0.000147811 0.000147811 0)
(3.69097e-05 -3.69097e-05 0)
(4.16003e-05 -4.16003e-05 0)
(5.79784e-05 -5.79784e-05 0)
(6.57081e-05 -6.57081e-05 0)
(7.34703e-05 -7.34703e-05 0)
(8.23798e-05 -8.23798e-05 0)
(9.193e-05 -9.193e-05 0)
(9.78975e-05 -9.78975e-05 0)
(9.54895e-05 -9.54895e-05 0)
(8.14552e-05 -8.14552e-05 0)
(5.62715e-05 -5.62715e-05 0)
(2.32293e-05 -2.32293e-05 0)
(-1.28807e-05 1.28807e-05 0)
(-4.73442e-05 4.73442e-05 0)
(-7.70648e-05 7.70648e-05 0)
(-0.000101584 0.000101584 0)
(-0.000119062 0.000119062 0)
(-0.000130536 0.000130536 0)
(-0.00011492 0.00011492 0)
(-0.000169599 0.000169599 0)
(5.5803e-06 -5.58029e-06 0)
(1.87789e-05 -1.87788e-05 0)
(5.63365e-05 -5.63365e-05 0)
(7.42831e-05 -7.42831e-05 0)
(8.25445e-05 -8.25445e-05 0)
(8.79313e-05 -8.79313e-05 0)
(9.24389e-05 -9.24388e-05 0)
(9.34458e-05 -9.34458e-05 0)
(8.88552e-05 -8.88551e-05 0)
(7.66096e-05 -7.66096e-05 0)
(5.62822e-05 -5.62822e-05 0)
(2.93667e-05 -2.93667e-05 0)
(-1.61049e-06 1.6105e-06 0)
(-3.35292e-05 3.35292e-05 0)
(-6.33145e-05 6.33145e-05 0)
(-9.00362e-05 9.00362e-05 0)
(-0.000110716 0.000110716 0)
(-0.000119518 0.000119518 0)
(-9.37404e-05 9.37404e-05 0)
(-0.000180888 0.000180888 0)
(-6.35198e-05 6.35198e-05 0)
(-1.86261e-05 1.86262e-05 0)
(5.75258e-05 -5.75258e-05 0)
(7.99648e-05 -7.99648e-05 0)
(8.9919e-05 -8.9919e-05 0)
(9.80443e-05 -9.80443e-05 0)
(0.000101039 -0.000101039 0)
(9.92699e-05 -9.92699e-05 0)
(9.27536e-05 -9.27536e-05 0)
(8.07133e-05 -8.07133e-05 0)
(6.28785e-05 -6.28785e-05 0)
(3.94081e-05 -3.94081e-05 0)
(1.28485e-05 -1.28485e-05 0)
(-1.5349e-05 1.5349e-05 0)
(-4.30387e-05 4.30387e-05 0)
(-6.8873e-05 6.8873e-05 0)
(-8.75999e-05 8.75999e-05 0)
(-9.72428e-05 9.72428e-05 0)
(-0.000109352 0.000109352 0)
(-0.000210249 0.000210249 0)
(-0.000164034 0.000164034 0)
(-9.59938e-05 9.59938e-05 0)
(5.65396e-05 -5.65396e-05 0)
(0.00013729 -0.00013729 0)
(0.000151001 -0.000151001 0)
(0.000143759 -0.000143759 0)
(0.00013483 -0.00013483 0)
(0.000125328 -0.000125328 0)
(0.00011399 -0.00011399 0)
(0.000100342 -0.000100342 0)
(8.44229e-05 -8.44229e-05 0)
(6.68009e-05 -6.68009e-05 0)
(4.80635e-05 -4.80635e-05 0)
(2.98203e-05 -2.98203e-05 0)
(1.20605e-05 -1.20605e-05 0)
(-7.02995e-06 7.02995e-06 0)
(-3.43257e-05 3.43257e-05 0)
(-7.87242e-05 7.87242e-05 0)
(-0.000176027 0.000176027 0)
(-0.000417739 0.000417739 0)
(-0.000394407 0.000394407 0)
(0.000446925 -0.000446925 0)
(0.000313684 -0.000313684 0)
(0.00022497 -0.00022497 0)
(0.000192812 -0.000192812 0)
(0.00017532 -0.00017532 0)
(0.00016046 -0.00016046 0)
(0.000147739 -0.000147739 0)
(0.000136472 -0.000136472 0)
(0.000125172 -0.000125172 0)
(0.000112985 -0.000112985 0)
(9.99477e-05 -9.99477e-05 0)
(8.61855e-05 -8.61855e-05 0)
(7.20265e-05 -7.20265e-05 0)
(5.68024e-05 -5.68024e-05 0)
(4.00347e-05 -4.00347e-05 0)
(1.45571e-05 -1.45571e-05 0)
(-1.84725e-05 1.84725e-05 0)
(-0.000145583 0.000145583 0)
(-0.000222307 0.000222307 0)
(-0.00201973 0.00201973 0)
)
;

boundaryField
{
    movingWall
    {
        type            extrapolatedCalculated;
        value           nonuniform List<vector> 
20
(
(0.000446925 -0.000446925 0)
(0.000313684 -0.000313684 0)
(0.00022497 -0.00022497 0)
(0.000192812 -0.000192812 0)
(0.00017532 -0.00017532 0)
(0.00016046 -0.00016046 0)
(0.000147739 -0.000147739 0)
(0.000136472 -0.000136472 0)
(0.000125172 -0.000125172 0)
(0.000112985 -0.000112985 0)
(9.99477e-05 -9.99477e-05 0)
(8.61855e-05 -8.61855e-05 0)
(7.20265e-05 -7.20265e-05 0)
(5.68024e-05 -5.68024e-05 0)
(4.00347e-05 -4.00347e-05 0)
(1.45571e-05 -1.45571e-05 0)
(-1.84725e-05 1.84725e-05 0)
(-0.000145583 0.000145583 0)
(-0.000222307 0.000222307 0)
(-0.00201973 0.00201973 0)
)
;
    }
    fixedWalls
    {
        type            extrapolatedCalculated;
        value           nonuniform List<vector> 
60
(
(-2.68949e-06 2.68811e-06 0)
(-3.38165e-05 3.38165e-05 0)
(-6.39052e-05 6.39053e-05 0)
(-8.5496e-05 8.5496e-05 0)
(-9.5289e-05 9.52891e-05 0)
(-9.27365e-05 9.27365e-05 0)
(-8.01702e-05 8.01702e-05 0)
(-6.09959e-05 6.09959e-05 0)
(-3.80471e-05 3.80471e-05 0)
(-1.41204e-05 1.41204e-05 0)
(8.2242e-06 -8.22418e-06 0)
(2.70324e-05 -2.70324e-05 0)
(4.09539e-05 -4.09539e-05 0)
(4.88984e-05 -4.88984e-05 0)
(4.94722e-05 -4.94722e-05 0)
(4.16003e-05 -4.16003e-05 0)
(1.87789e-05 -1.87788e-05 0)
(-1.86261e-05 1.86262e-05 0)
(-9.59938e-05 9.59938e-05 0)
(0.000446925 -0.000446925 0)
(-2.72946e-05 2.72946e-05 0)
(6.75879e-05 -6.75879e-05 0)
(0.000213781 -0.000213781 0)
(0.000368123 -0.000368123 0)
(0.000454044 -0.000454044 0)
(0.000441916 -0.000441916 0)
(0.000355915 -0.000355915 0)
(0.000250612 -0.000250612 0)
(0.000165729 -0.000165729 0)
(0.000107978 -0.000107978 0)
(7.19938e-05 -7.19938e-05 0)
(5.05071e-05 -5.05071e-05 0)
(4.02532e-05 -4.02532e-05 0)
(3.80563e-05 -3.80563e-05 0)
(3.69097e-05 -3.69097e-05 0)
(5.5803e-06 -5.58029e-06 0)
(-6.35198e-05 6.35198e-05 0)
(-0.000164034 0.000164034 0)
(-0.000394407 0.000394407 0)
(-0.00201973 0.00201973 0)
(-2.68949e-06 2.68811e-06 0)
(-2.09543e-05 2.09543e-05 0)
(-3.1817e-05 3.1817e-05 0)
(-4.42552e-05 4.42551e-05 0)
(-6.89938e-05 6.89937e-05 0)
(-0.000107009 0.000107009 0)
(-0.000151526 0.000151526 0)
(-0.000188375 0.000188375 0)
(-0.00019883 0.00019883 0)
(-0.000176409 0.000176409 0)
(-0.000125829 0.000125829 0)
(-5.75103e-05 5.75103e-05 0)
(1.95771e-05 -1.95771e-05 0)
(0.00010255 -0.00010255 0)
(0.000183062 -0.000183062 0)
(0.000251742 -0.000251742 0)
(0.000286388 -0.000286388 0)
(0.000243196 -0.000243196 0)
(0.000114978 -0.000114978 0)
(-2.72946e-05 2.72946e-05 0)
)
;
    }
    frontAndBack
    {
        type            empty;
    }
}


// ************************************************************************* //
