/*--------------------------------*- C++ -*----------------------------------*\
| =========                 |                                                 |
| \\      /  F ield         | OpenFOAM: The Open Source CFD Toolbox           |
|  \\    /   O peration     | Version:  2312                                  |
|   \\  /    A nd           | Website:  www.openfoam.com                      |
|    \\/     M anipulation  |                                                 |
\*---------------------------------------------------------------------------*/
FoamFile
{
    version     2.0;
    format      ascii;
    arch        "LSB;label=32;scalar=64";
    class       volScalarField;
    location    "2.5";
    object      initialResidual:epsilon;
}
// * * * * * * * * * * * * * * * * * * * * * * * * * * * * * * * * * * * * * //

dimensions      [0 0 0 0 0 0 0];

internalField   nonuniform List<scalar> 
400
(
0
0
0
0
0
0
0
0
0
0
0
0
0
0
0
0
0
0
0
0
0
-6.26485e-12
2.72909e-11
1.71417e-10
5.50187e-10
1.19462e-09
1.89839e-09
1.43912e-09
1.06301e-09
4.34981e-10
6.42438e-11
-6.84192e-11
-1.49526e-10
3.45843e-11
1.91917e-10
5.11084e-10
6.40449e-10
1.39605e-09
1.59133e-09
0
0
2.43984e-11
1.21215e-10
3.83682e-10
8.69971e-10
1.27488e-09
6.61493e-10
2.36209e-10
-3.61324e-10
-5.4186e-10
-5.36865e-10
-5.37174e-10
-5.38024e-10
-6.00337e-10
-5.87227e-10
-4.58081e-10
8.19529e-11
4.95946e-10
2.62085e-09
0
0
7.69581e-11
2.6722e-10
6.31641e-10
9.59293e-10
3.28694e-10
-5.55011e-11
-5.34215e-10
-5.56253e-10
-5.02605e-10
-4.32588e-10
-3.8126e-10
-4.69804e-10
-5.23179e-10
-6.12442e-10
-7.20685e-10
-6.9377e-10
9.77339e-13
1.03545e-09
0
0
1.3495e-10
3.82615e-10
7.9378e-10
5.2116e-10
1.33284e-10
-3.75193e-10
-6.76581e-10
-4.36063e-10
-3.45596e-10
-3.045e-10
-2.81045e-10
-2.74912e-10
-2.87889e-10
-3.67977e-10
-5.1467e-10
-7.13878e-10
-8.26777e-10
-3.37377e-11
0
0
1.79561e-10
4.31157e-10
6.84824e-10
2.18609e-10
-1.69688e-10
-5.71691e-10
-5.5662e-10
-3.32212e-10
-2.58176e-10
-2.33373e-10
-2.05958e-10
-1.53574e-10
-1.41598e-10
-1.74971e-10
-2.61354e-10
-3.85674e-10
-5.27703e-10
-4.50806e-10
0
0
1.96039e-10
4.17205e-10
5.83977e-10
4.76615e-11
-2.74807e-10
-6.28676e-10
-4.52558e-10
-2.52632e-10
-2.06895e-10
-1.74891e-10
-1.50769e-10
-1.08719e-10
-9.40754e-11
-1.19778e-10
-1.80894e-10
-3.28928e-10
-5.06042e-10
-6.36174e-10
0
0
1.94905e-10
3.81595e-10
4.84905e-10
3.49098e-11
-3.24279e-10
-5.79261e-10
-3.92783e-10
-2.11911e-10
-1.79117e-10
-1.36698e-10
-1.12895e-10
-8.15196e-11
-6.77314e-11
-8.1809e-11
-1.32682e-10
-1.90854e-10
-2.57575e-10
-4.41331e-10
0
0
1.81316e-10
3.23411e-10
3.78794e-10
1.01737e-11
-3.16424e-10
-5.45517e-10
-3.93818e-10
-2.09134e-10
-1.48323e-10
-1.16087e-10
-9.4676e-11
-7.08536e-11
-5.98781e-11
-6.99369e-11
-1.21485e-10
-1.92732e-10
-2.56139e-10
-2.94759e-10
0
0
1.62164e-10
2.57108e-10
3.43926e-10
4.86007e-11
-2.74214e-10
-5.03531e-10
-3.89754e-10
-2.2053e-10
-1.56112e-10
-1.20101e-10
-9.24753e-11
-7.24439e-11
-5.96173e-11
-6.80929e-11
-1.17782e-10
-1.98891e-10
-2.51694e-10
-1.35202e-10
0
0
1.59708e-10
2.12643e-10
2.91232e-10
1.29377e-10
-2.14169e-10
-4.22507e-10
-4.05975e-10
-2.46632e-10
-1.65851e-10
-1.26057e-10
-9.49476e-11
-8.87398e-11
-8.46583e-11
-9.61144e-11
-1.43652e-10
-2.03757e-10
-2.65809e-10
-1.18311e-10
0
0
1.55415e-10
1.74562e-10
2.3815e-10
1.93622e-10
-9.93399e-11
-2.52988e-10
-4.69039e-10
-3.1059e-10
-2.09621e-10
-1.57803e-10
-1.21023e-10
-1.1706e-10
-1.17281e-10
-1.34578e-10
-1.70822e-10
-2.19628e-10
-2.83753e-10
-1.3823e-10
0
0
1.6238e-10
1.4423e-10
1.84266e-10
2.14388e-10
7.17404e-11
-1.94913e-10
-2.96538e-10
-4.1405e-10
-3.15904e-10
-2.45059e-10
-1.92158e-10
-1.80989e-10
-1.62576e-10
-1.51982e-10
-1.6827e-10
-2.10413e-10
-3.03209e-10
-1.90305e-10
0
0
1.67844e-10
1.22592e-10
1.45999e-10
1.87603e-10
1.54496e-10
-7.72976e-11
-1.65395e-10
-2.39215e-10
-2.89495e-10
-2.64753e-10
-2.1776e-10
-1.92817e-10
-1.54359e-10
-1.43854e-10
-1.53344e-10
-1.86648e-10
-2.79636e-10
-2.41228e-10
0
0
1.55384e-10
1.03767e-10
1.16739e-10
1.46616e-10
1.5942e-10
1.25848e-10
-7.77377e-11
-1.12326e-10
-1.66656e-10
-1.89183e-10
-1.68743e-10
-1.55859e-10
-1.35265e-10
-1.1307e-10
-1.16051e-10
-1.38843e-10
-2.24235e-10
-2.93004e-10
0
0
1.37037e-10
9.06128e-11
9.02565e-11
9.92898e-11
1.16951e-10
1.0948e-10
6.60521e-11
-3.5024e-11
-7.15445e-11
-1.23047e-10
-1.20625e-10
-1.10077e-10
-1.00458e-10
-9.04757e-11
-8.64209e-11
-1.07812e-10
-1.76158e-10
-3.21728e-10
0
0
8.51665e-11
5.50224e-11
6.38114e-11
7.10924e-11
8.23006e-11
7.79641e-11
4.9825e-11
-1.17445e-11
-6.71639e-11
-7.74522e-11
-1.00672e-10
-9.68679e-11
-9.03235e-11
-7.8189e-11
-6.35206e-11
-8.16566e-11
-1.1118e-10
-1.33396e-10
0
0
4.71605e-11
1.22076e-11
-3.83201e-12
-7.14207e-12
-1.34611e-11
-2.63309e-11
-5.09482e-11
-8.72871e-11
-1.32724e-10
-1.45302e-10
-1.5918e-10
-1.60635e-10
-1.40931e-10
-1.49146e-10
-1.20288e-10
-9.2903e-11
-5.47527e-11
5.83088e-12
0
0
-4.33723e-11
-2.00873e-10
-2.99592e-10
-3.83602e-10
-4.6722e-10
-5.21021e-10
-5.83023e-10
-5.83233e-10
-6.12407e-10
-5.94063e-10
-5.59642e-10
-5.06839e-10
-4.35387e-10
-3.58968e-10
-3.89787e-10
-1.59356e-10
-6.73355e-11
1.25843e-10
0
0
0
0
0
0
0
0
0
0
0
0
0
0
0
0
0
0
0
0
0
)
;

boundaryField
{
    movingWall
    {
        type            zeroGradient;
    }
    fixedWalls
    {
        type            zeroGradient;
    }
    frontAndBack
    {
        type            empty;
    }
}


// ************************************************************************* //
