/*--------------------------------*- C++ -*----------------------------------*\
| =========                 |                                                 |
| \\      /  F ield         | OpenFOAM: The Open Source CFD Toolbox           |
|  \\    /   O peration     | Version:  2312                                  |
|   \\  /    A nd           | Website:  www.openfoam.com                      |
|    \\/     M anipulation  |                                                 |
\*---------------------------------------------------------------------------*/
FoamFile
{
    version     2.0;
    format      ascii;
    arch        "LSB;label=32;scalar=64";
    class       volScalarField;
    location    "2.5";
    object      initialResidual:k;
}
// * * * * * * * * * * * * * * * * * * * * * * * * * * * * * * * * * * * * * //

dimensions      [0 0 0 0 0 0 0];

internalField   nonuniform List<scalar> 
400
(
-4.1447e-12
-1.17845e-11
-1.6068e-11
-1.12858e-11
1.92541e-11
9.81546e-11
2.26561e-10
3.36903e-10
3.67458e-10
3.27757e-10
2.93e-10
2.7189e-10
2.04844e-10
1.9272e-10
1.96855e-10
2.05451e-10
2.30328e-10
2.57048e-10
1.21264e-10
3.90153e-11
-7.03753e-12
-7.72317e-12
1.74541e-13
3.39077e-11
1.01329e-10
1.91306e-10
3.48122e-10
1.88448e-10
6.35221e-11
-1.3503e-11
-5.33087e-11
-7.72678e-11
-6.28899e-11
-1.99619e-11
7.47215e-12
4.85147e-11
7.10107e-11
1.86487e-10
3.23126e-10
1.27017e-10
-6.83867e-12
8.95441e-13
3.83503e-11
1.44299e-10
2.87636e-10
1.93288e-10
4.48118e-11
-1.66958e-12
-1.42185e-10
-1.73496e-10
-1.65998e-10
-1.3211e-10
-1.32654e-10
-1.49195e-10
-1.43208e-10
-1.37926e-10
-3.09817e-11
2.88697e-11
3.79176e-10
3.69505e-10
7.76332e-13
2.01245e-11
7.08906e-11
1.81065e-10
1.80909e-10
-7.48532e-12
-7.33205e-11
-2.3524e-10
-1.67917e-10
-1.04185e-10
-7.51353e-11
-7.19998e-12
-4.9215e-11
-5.47662e-11
-7.8375e-11
-1.01283e-10
-1.18858e-10
-2.96505e-11
9.20237e-11
4.37972e-10
1.22758e-11
4.22686e-11
9.80588e-11
1.6911e-10
2.91562e-11
-7.07784e-11
-1.86953e-10
-2.62036e-10
-1.05677e-10
-6.00208e-11
1.2297e-11
-5.19345e-12
-2.65442e-11
-2.26812e-11
-4.91879e-11
-6.3434e-11
-7.20495e-11
-6.20752e-11
-2.151e-11
2.80205e-10
2.5382e-11
5.70621e-11
1.09834e-10
9.9195e-11
-3.35735e-11
-1.25908e-10
-2.78231e-10
-1.43522e-10
-6.61877e-11
-3.23601e-11
-2.19616e-12
-3.02442e-11
-3.26555e-11
-2.57944e-11
-3.51842e-11
-5.31566e-11
-6.5967e-11
-6.0931e-11
-4.84808e-11
1.46105e-10
3.72417e-11
6.38984e-11
1.09244e-10
4.36928e-11
-5.57203e-11
-2.0117e-10
-2.63719e-10
-1.05908e-10
-4.74025e-11
-3.42695e-11
-2.82899e-11
-5.20358e-11
-4.00254e-11
-2.94347e-11
-2.96334e-11
-4.50296e-11
-6.36063e-11
-5.6679e-11
-4.64693e-11
8.02452e-11
4.89659e-11
6.07498e-11
8.19323e-11
8.17164e-12
-6.34743e-11
-2.17698e-10
-2.33599e-10
-9.01383e-11
-5.0978e-11
-4.05254e-11
-4.82066e-11
-5.32853e-11
-4.08308e-11
-2.72437e-11
-2.91606e-11
-4.95256e-11
-6.64612e-11
-6.74359e-11
-3.68482e-11
4.30008e-11
5.82246e-11
5.53987e-11
7.36936e-11
6.93541e-12
-7.49027e-11
-2.10794e-10
-2.37666e-10
-1.01801e-10
-4.52205e-11
-4.0386e-11
-5.12243e-11
-4.98735e-11
-3.43387e-11
-2.26981e-11
-2.56439e-11
-5.06655e-11
-7.73447e-11
-7.62365e-11
-3.30137e-11
3.2189e-11
6.51577e-11
4.76812e-11
5.90526e-11
9.05551e-12
-6.69242e-11
-2.0121e-10
-2.44269e-10
-1.18042e-10
-6.91821e-11
-4.7944e-11
-4.79423e-11
-4.30935e-11
-3.26391e-11
-2.20509e-11
-2.59282e-11
-5.97608e-11
-9.14174e-11
-9.9401e-11
-4.44268e-11
2.45715e-11
7.09617e-11
3.94772e-11
4.50793e-11
2.13709e-11
-5.79518e-11
-1.70571e-10
-2.73135e-10
-1.58675e-10
-8.7492e-11
-5.65971e-11
-5.05166e-11
-4.4125e-11
-3.97923e-11
-3.43557e-11
-3.98747e-11
-7.65249e-11
-1.08103e-10
-1.12698e-10
-4.42887e-11
2.43293e-11
7.16163e-11
3.5813e-11
3.37499e-11
2.58472e-11
-3.15504e-11
-1.45644e-10
-2.11135e-10
-2.46222e-10
-1.3813e-10
-8.84235e-11
-6.63393e-11
-6.09276e-11
-5.51506e-11
-5.31404e-11
-6.43786e-11
-9.5935e-11
-1.18504e-10
-1.18922e-10
-5.43615e-11
2.30104e-11
6.94795e-11
3.08125e-11
2.34042e-11
2.31767e-11
-8.22957e-12
-9.157e-11
-1.41293e-10
-2.28182e-10
-2.30272e-10
-1.64779e-10
-1.13823e-10
-1.09022e-10
-1.01709e-10
-8.69255e-11
-9.50307e-11
-1.05038e-10
-1.21998e-10
-1.29359e-10
-5.84322e-11
2.31961e-11
6.38975e-11
2.83169e-11
1.64087e-11
1.67261e-11
2.67888e-12
-5.93934e-11
-1.21282e-10
-1.59242e-10
-2.19671e-10
-2.22136e-10
-1.78116e-10
-1.65686e-10
-1.43179e-10
-1.10789e-10
-1.00951e-10
-1.0493e-10
-1.16746e-10
-1.19393e-10
-5.75991e-11
2.12703e-11
5.21379e-11
2.02417e-11
4.83574e-12
3.91584e-12
2.57551e-13
-2.23059e-11
-6.76403e-11
-1.18645e-10
-1.42817e-10
-1.73541e-10
-1.68393e-10
-1.45616e-10
-1.34514e-10
-1.15954e-10
-9.68872e-11
-9.46098e-11
-1.02671e-10
-1.04427e-10
-5.71755e-11
1.87049e-11
4.0451e-11
1.3869e-11
-9.65138e-13
-1.82733e-12
-1.11666e-12
-1.05865e-11
-4.66606e-11
-7.16119e-11
-1.0118e-10
-1.11071e-10
-1.24154e-10
-1.17872e-10
-1.04116e-10
-9.84967e-11
-8.79823e-11
-8.14321e-11
-8.288e-11
-7.58695e-11
-5.54691e-11
1.44363e-11
1.87491e-11
-7.95139e-13
-1.54642e-11
-1.37266e-11
-8.35665e-12
-7.20806e-12
-2.04425e-11
-4.87054e-11
-7.70064e-11
-8.49459e-11
-9.88913e-11
-9.93491e-11
-9.49018e-11
-8.14635e-11
-7.74615e-11
-7.02305e-11
-7.05606e-11
-6.35778e-11
-3.71119e-11
7.35249e-12
1.24137e-11
-6.03138e-12
-2.00234e-11
-1.47837e-11
-1.01391e-11
-1.05369e-11
-1.91651e-11
-3.51969e-11
-6.26233e-11
-7.62815e-11
-8.55244e-11
-9.24846e-11
-9.18799e-11
-8.2796e-11
-7.9775e-11
-7.2107e-11
-6.00186e-11
-3.62242e-11
-1.19709e-11
1.53896e-12
6.12441e-12
-1.48099e-11
-3.45273e-11
-3.74099e-11
-4.08102e-11
-4.68572e-11
-5.24411e-11
-6.36281e-11
-6.90654e-11
-8.1636e-11
-8.40071e-11
-8.37159e-11
-8.13208e-11
-7.06768e-11
-6.26251e-11
-5.74086e-11
-3.87665e-11
-1.77886e-11
1.09515e-12
-8.50918e-12
1.73312e-11
2.23994e-11
-1.00662e-11
-4.47858e-11
-7.91401e-11
-1.08816e-10
-1.26766e-10
-1.3833e-10
-1.33867e-10
-1.28587e-10
-1.15765e-10
-1.05142e-10
-7.94736e-11
-7.31508e-11
-6.23606e-11
-5.26848e-11
-4.38902e-11
-4.31372e-11
-4.24319e-11
-2.60842e-11
)
;

boundaryField
{
    movingWall
    {
        type            zeroGradient;
    }
    fixedWalls
    {
        type            zeroGradient;
    }
    frontAndBack
    {
        type            empty;
    }
}


// ************************************************************************* //
