/*--------------------------------*- C++ -*----------------------------------*\
| =========                 |                                                 |
| \\      /  F ield         | OpenFOAM: The Open Source CFD Toolbox           |
|  \\    /   O peration     | Version:  2312                                  |
|   \\  /    A nd           | Website:  www.openfoam.com                      |
|    \\/     M anipulation  |                                                 |
\*---------------------------------------------------------------------------*/
FoamFile
{
    version     2.0;
    format      ascii;
    arch        "LSB;label=32;scalar=64";
    class       volScalarField;
    location    "2.5";
    object      initialResidual:p;
}
// * * * * * * * * * * * * * * * * * * * * * * * * * * * * * * * * * * * * * //

dimensions      [0 0 0 0 0 0 0];

internalField   nonuniform List<scalar> 
400
(
3.18409e-12
6.56718e-12
1.47409e-11
3.68616e-11
3.32793e-11
-9.31209e-11
-2.52944e-10
-3.96683e-10
-4.49995e-10
-3.43111e-10
-1.43501e-10
-7.8839e-11
-1.55867e-10
-1.30394e-10
-1.78799e-10
-4.66191e-10
-7.54385e-10
-5.94846e-10
-2.02559e-10
-1.2891e-11
1.4499e-11
1.03191e-11
9.35407e-12
-2.65142e-11
-1.52927e-10
-2.74471e-10
-4.49587e-10
-5.65912e-10
-3.39103e-10
5.421e-11
2.03671e-10
2.62065e-10
3.70879e-10
2.66461e-10
1.05413e-10
-5.3926e-11
-3.05945e-10
-6.12318e-10
-3.38494e-10
1.97163e-10
-1.48013e-11
-2.63713e-11
-3.90753e-11
-5.33593e-11
-2.40747e-10
-4.74515e-10
-3.84775e-10
2.08631e-11
4.61539e-10
6.2603e-10
5.71974e-10
4.93156e-10
6.77367e-10
7.50849e-10
8.28272e-10
7.94259e-10
4.80748e-10
-1.92367e-10
-6.37343e-10
-4.35855e-10
-4.08197e-11
-5.5392e-11
-1.00142e-10
-2.12467e-10
-3.45231e-10
-2.58304e-10
8.48522e-11
5.10798e-10
6.90299e-10
6.56325e-10
6.75105e-10
4.41846e-10
-1.43389e-11
-2.60703e-11
1.11197e-10
4.2536e-10
7.59379e-10
6.33446e-10
-4.74669e-10
-5.93591e-10
-6.51772e-11
-7.60992e-11
-1.65818e-10
-2.73788e-10
-2.5858e-10
-8.22049e-12
4.55775e-10
7.82492e-10
7.1785e-10
3.51056e-10
-2.50257e-10
-4.31919e-10
-4.13142e-10
-4.03367e-10
-3.24198e-10
-1.8017e-10
1.40814e-10
7.31525e-10
6.34783e-10
-3.63105e-10
-7.94101e-11
-8.21881e-11
-1.93471e-10
-2.94417e-10
-1.76834e-10
1.86556e-10
6.71185e-10
7.30194e-10
3.22475e-10
-1.75269e-10
-3.67743e-10
-3.70646e-10
-3.12151e-10
-3.03055e-10
-2.93118e-10
-3.05201e-10
-2.63958e-10
1.65303e-10
9.89504e-10
4.85317e-11
-7.0725e-11
-6.25339e-11
-1.82155e-10
-2.82854e-10
-8.07244e-11
2.34634e-10
7.87951e-10
6.09425e-10
7.22159e-11
-2.92199e-10
-3.01011e-10
-1.11177e-09
-2.29737e-10
-1.89046e-10
-1.64858e-10
-1.71923e-10
-2.38068e-10
-1.96345e-10
2.30697e-10
5.90673e-10
-4.41456e-11
-4.20914e-11
-1.40284e-10
-2.71018e-10
1.29548e-11
2.32342e-10
7.94032e-10
5.70664e-10
-4.55743e-12
-3.02386e-10
-3.1863e-10
5.94642e-10
-2.18404e-10
-1.98124e-10
-1.44544e-10
-1.05268e-10
-1.20904e-10
-2.42494e-10
-2.53069e-10
5.77629e-10
-2.29543e-11
-2.44206e-11
-8.55916e-11
-2.40761e-10
-3.96797e-11
3.04788e-10
6.31715e-10
6.78349e-10
-1.71533e-11
-2.71597e-10
-2.92698e-10
-2.71798e-10
-2.51215e-10
-2.43074e-10
-1.51802e-10
-9.36577e-11
-7.45903e-11
-1.69552e-10
-2.40101e-10
2.7719e-10
-1.02838e-11
-2.1826e-11
-4.73996e-11
-1.84785e-10
-1.25151e-10
3.33892e-10
4.1273e-10
7.7132e-10
1.21206e-10
-1.81047e-10
-2.50536e-10
5.73456e-10
-2.37934e-10
-2.40877e-10
-1.34265e-10
-6.81292e-11
-4.81275e-11
-6.84918e-11
-1.65835e-10
9.53511e-11
-5.50059e-12
-2.72614e-11
-3.76529e-11
-1.31449e-10
-1.39527e-10
2.02132e-10
3.23063e-10
5.90438e-10
4.24893e-10
1.1806e-11
-1.54666e-10
-8.75994e-10
-1.7415e-10
-1.63833e-10
-8.57829e-11
-3.18699e-11
-2.52492e-11
-2.88857e-11
-5.03786e-11
4.50661e-12
-8.8885e-12
-3.07128e-11
-3.72372e-11
-8.54778e-11
-1.62765e-10
5.80705e-11
2.24654e-10
3.89619e-10
5.35873e-10
2.46176e-10
7.33824e-11
4.21934e-12
-1.42808e-11
-3.42262e-11
-9.05806e-12
5.70755e-12
1.21413e-12
-4.14086e-13
1.35502e-11
1.92132e-12
-1.38203e-11
-3.10754e-11
-3.70928e-11
-6.61908e-11
-1.37168e-10
-6.78501e-11
9.35346e-11
2.33692e-10
4.04003e-10
3.12538e-10
2.02029e-10
1.11305e-10
8.77241e-11
2.35321e-11
1.74098e-11
1.75265e-11
1.21658e-11
1.08795e-11
5.37221e-11
2.4435e-11
-1.78489e-11
-3.25361e-11
-3.5198e-11
-6.02261e-11
-1.04767e-10
-1.19391e-10
-2.30658e-11
6.18655e-11
1.80598e-10
2.03983e-10
1.54716e-10
8.44179e-11
4.61482e-11
1.18876e-12
-8.02114e-13
9.04709e-12
7.02149e-12
7.55211e-12
8.41534e-11
3.43604e-12
-1.34959e-11
-2.8208e-11
-3.06394e-11
-5.15811e-11
-8.31451e-11
-1.10727e-10
-8.76777e-11
-3.61048e-11
1.51006e-11
4.64334e-11
6.51561e-11
4.60078e-11
-6.2363e-12
-1.50599e-11
-2.29444e-11
-1.84718e-11
-6.04656e-12
5.59403e-12
8.67852e-11
-6.5093e-12
-1.53851e-11
-2.42637e-11
-3.10051e-11
-5.04006e-11
-7.39579e-11
-9.24421e-11
-9.02085e-11
-6.20368e-11
-3.64112e-11
-3.48929e-13
1.42822e-11
-1.75111e-11
-1.84863e-11
-3.57945e-11
-3.94636e-11
-3.55283e-11
-1.20492e-11
2.56123e-12
9.04544e-11
-4.33912e-11
-9.13363e-12
-8.23536e-13
-6.5362e-11
-5.60236e-11
-4.06058e-11
-3.95204e-11
-4.08005e-11
-3.26952e-11
-1.8709e-11
-3.09337e-12
-6.49451e-12
-2.25577e-11
-1.6734e-11
-1.8325e-11
-2.92676e-11
-3.08371e-11
-8.71747e-12
1.35165e-11
4.33684e-11
2.19383e-11
3.05867e-11
2.62148e-12
3.64544e-11
-2.02527e-11
-5.76283e-11
-5.77974e-11
-3.21255e-11
-5.99025e-12
1.17343e-11
1.70768e-11
1.47269e-11
4.42445e-12
-1.36163e-11
-3.79247e-11
-2.76856e-11
2.04261e-12
-1.37733e-11
-1.77915e-11
3.97386e-11
3.40125e-11
5.53176e-11
-1.00889e-10
-1.90717e-10
-1.53629e-10
-1.24265e-10
-9.39703e-11
-5.89504e-11
-2.32336e-11
5.54138e-12
2.41804e-11
3.29641e-11
3.99565e-11
2.85822e-11
2.05673e-11
4.54254e-12
-4.09565e-11
-4.55893e-11
-1.42878e-10
-3.09371e-11
-1.51353e-11
1.49819e-11
-2.83643e-11
-6.26541e-12
-1.03381e-11
-3.10446e-11
-2.70303e-11
-7.97096e-12
8.89511e-12
2.50907e-11
3.73855e-11
4.02607e-11
3.51479e-11
1.94966e-11
-5.57454e-13
-1.50498e-11
-1.94283e-11
1.4649e-11
2.85912e-11
4.5716e-11
-5.68228e-10
)
;

boundaryField
{
    movingWall
    {
        type            zeroGradient;
    }
    fixedWalls
    {
        type            zeroGradient;
    }
    frontAndBack
    {
        type            empty;
    }
}


// ************************************************************************* //
