/*--------------------------------*- C++ -*----------------------------------*\
| =========                 |                                                 |
| \\      /  F ield         | OpenFOAM: The Open Source CFD Toolbox           |
|  \\    /   O peration     | Version:  2312                                  |
|   \\  /    A nd           | Website:  www.openfoam.com                      |
|    \\/     M anipulation  |                                                 |
\*---------------------------------------------------------------------------*/
FoamFile
{
    version     2.0;
    format      ascii;
    arch        "LSB;label=32;scalar=64";
    class       volScalarField;
    location    "2.5";
    object      initialResidual:Ux;
}
// * * * * * * * * * * * * * * * * * * * * * * * * * * * * * * * * * * * * * //

dimensions      [0 0 0 0 0 0 0];

internalField   nonuniform List<scalar> 
400
(
4.18116e-10
1.17656e-09
2.26816e-09
2.8728e-09
2.18194e-09
-6.61837e-10
-6.58028e-09
-1.52119e-08
-2.27712e-08
-2.76539e-08
-2.91799e-08
-2.82333e-08
-2.65956e-08
-2.47774e-08
-2.25366e-08
-1.89102e-08
-1.46928e-08
-9.58479e-09
-2.09431e-09
1.83324e-09
2.23352e-10
6.54431e-10
7.01341e-10
-3.27153e-10
-4.83975e-09
-1.34607e-08
-2.18632e-08
-2.81121e-08
-3.09939e-08
-2.9626e-08
-2.5776e-08
-2.18871e-08
-1.87912e-08
-1.70407e-08
-1.69568e-08
-1.77167e-08
-1.68033e-08
-1.41806e-08
-9.94143e-09
-8.92276e-10
-1.50675e-10
-8.87204e-10
-2.3844e-09
-5.56978e-09
-1.10408e-08
-1.85375e-08
-2.52396e-08
-2.63894e-08
-2.27988e-08
-1.66005e-08
-1.04438e-08
-6.47787e-09
-4.10611e-09
-2.96002e-09
-2.91643e-09
-4.6338e-09
-7.859e-09
-1.07141e-08
-1.1121e-08
-4.6755e-09
-6.26079e-10
-2.06255e-09
-4.54345e-09
-8.52333e-09
-1.43834e-08
-1.97757e-08
-2.14023e-08
-1.77392e-08
-1.03407e-08
-2.45819e-09
3.89879e-09
9.53913e-09
1.16274e-08
1.22251e-08
1.14928e-08
9.28855e-09
5.15277e-09
-3.67351e-10
-5.40242e-09
-7.4694e-09
-9.42816e-10
-2.71124e-09
-5.47591e-09
-9.51553e-09
-1.42607e-08
-1.67038e-08
-1.47036e-08
-8.19855e-09
5.87652e-10
8.135e-09
1.22188e-08
1.17409e-08
1.17299e-08
1.20409e-08
1.2641e-08
1.32885e-08
1.2229e-08
8.2499e-09
2.48052e-09
-1.75543e-09
-1.01895e-09
-2.76287e-09
-5.30818e-09
-8.58207e-09
-1.15892e-08
-1.1894e-08
-8.33577e-09
-1.39373e-09
5.50362e-09
8.78809e-09
8.09679e-09
6.81769e-09
6.61071e-09
6.81222e-09
7.58008e-09
8.94875e-09
1.05399e-08
1.0207e-08
6.89542e-09
1.86437e-09
-8.83132e-10
-2.42481e-09
-4.18423e-09
-6.28966e-09
-7.76205e-09
-7.03294e-09
-3.56617e-09
1.57451e-09
5.31495e-09
5.42859e-09
3.87143e-09
3.58697e-09
3.75442e-09
4.01727e-09
4.27586e-09
4.80797e-09
6.03478e-09
7.33508e-09
6.85008e-09
3.30647e-09
-6.19126e-10
-1.66852e-09
-2.62713e-09
-3.40448e-09
-3.98329e-09
-2.21831e-09
-6.32435e-10
2.00112e-09
3.16148e-09
2.19352e-09
1.49537e-09
1.52984e-09
1.60493e-09
2.19983e-09
2.3505e-09
2.5531e-09
2.96868e-09
3.89768e-09
4.70316e-09
2.61639e-09
-2.76185e-10
-7.75773e-10
-9.83891e-10
-5.13155e-10
6.00468e-11
1.55658e-09
1.60703e-09
1.75063e-09
9.41119e-10
-3.71236e-10
-9.32027e-10
-3.33074e-10
1.21469e-10
3.00097e-10
4.86215e-10
8.23369e-10
1.18523e-09
1.79168e-09
2.53585e-09
1.3558e-09
7.25807e-11
9.66895e-11
4.85858e-10
1.83766e-09
3.65112e-09
4.83145e-09
4.20289e-09
2.31735e-09
-1.75392e-10
-2.11927e-09
-2.55177e-09
-2.27146e-09
-1.90266e-09
-1.78084e-09
-1.33112e-09
-6.57325e-10
-5.87651e-11
5.06378e-10
1.06238e-09
5.69916e-10
3.71259e-10
8.29852e-10
1.6715e-09
3.51856e-09
6.28464e-09
7.67261e-09
7.69361e-09
4.23541e-09
9.17137e-10
-2.40866e-09
-3.62098e-09
-3.86934e-09
-3.53578e-09
-3.37751e-09
-2.68748e-09
-1.68599e-09
-8.78461e-10
-2.32395e-10
2.40797e-10
1.92071e-10
5.90968e-10
1.37652e-09
2.53499e-09
4.49804e-09
7.69439e-09
9.83767e-09
1.06305e-08
7.97904e-09
4.26877e-09
-1.95236e-12
-2.48524e-09
-3.63841e-09
-3.94829e-09
-3.87953e-09
-3.04971e-09
-2.02968e-09
-1.18336e-09
-5.19798e-10
-8.67079e-11
6.72944e-11
7.20434e-10
1.73123e-09
3.05628e-09
4.90824e-09
7.91531e-09
1.09111e-08
1.23458e-08
1.1213e-08
8.4225e-09
4.60978e-09
1.26555e-09
-7.22375e-10
-1.94494e-09
-2.47564e-09
-2.17829e-09
-1.63515e-09
-1.00723e-09
-5.03249e-10
-1.19561e-10
5.51877e-11
7.833e-10
1.91322e-09
3.26065e-09
4.90944e-09
7.36724e-09
1.04861e-08
1.2605e-08
1.27436e-08
1.11971e-08
8.44784e-09
5.43377e-09
3.01309e-09
1.10162e-09
-1.85154e-10
-7.64013e-10
-7.65318e-10
-5.55015e-10
-3.25807e-10
-4.10618e-11
9.90714e-11
7.46473e-10
1.92846e-09
3.22632e-09
4.6865e-09
6.65741e-09
9.17066e-09
1.14489e-08
1.25744e-08
1.19977e-08
1.02325e-08
7.72229e-09
5.44203e-09
3.42549e-09
1.79923e-09
7.0731e-10
1.94441e-10
-4.96949e-11
-5.77692e-11
4.83449e-11
3.1119e-10
6.6064e-10
1.77816e-09
3.07584e-09
4.46022e-09
6.06852e-09
7.90599e-09
9.74233e-09
1.11034e-08
1.13131e-08
1.0334e-08
8.76448e-09
6.67433e-09
4.75601e-09
3.1254e-09
1.85402e-09
1.01448e-09
3.88509e-10
3.38268e-10
1.64535e-10
4.89244e-10
4.14419e-10
1.65459e-09
3.03979e-09
4.29774e-09
5.72977e-09
7.17344e-09
8.50006e-09
9.5239e-09
9.9392e-09
9.52221e-09
8.48532e-09
6.98381e-09
5.30958e-09
3.82309e-09
2.56922e-09
1.61191e-09
7.81584e-10
7.22011e-10
2.33643e-10
5.89154e-10
4.82935e-11
1.28045e-09
2.38626e-09
3.91241e-09
5.27409e-09
6.54166e-09
7.60837e-09
8.36593e-09
8.68429e-09
8.50952e-09
7.75446e-09
6.67794e-09
5.42849e-09
4.07988e-09
2.89602e-09
2.07517e-09
1.43453e-09
1.28191e-09
2.39361e-10
6.89024e-10
-4.01581e-10
-7.25561e-11
1.14501e-09
2.48672e-09
3.85376e-09
4.99637e-09
5.94863e-09
6.59832e-09
6.88322e-09
6.78103e-09
6.33489e-09
5.67493e-09
4.89575e-09
4.0869e-09
3.32833e-09
2.61017e-09
2.08547e-09
1.64062e-09
1.97555e-10
7.48893e-10
-1.4757e-10
-5.19624e-10
-2.93061e-10
1.5825e-10
6.72171e-10
1.3235e-09
2.00878e-09
2.59972e-09
3.04215e-09
3.29142e-09
3.335e-09
3.19967e-09
2.93362e-09
2.58601e-09
2.21867e-09
1.86156e-09
1.55013e-09
1.08305e-09
1.35074e-09
5.68602e-10
)
;

boundaryField
{
    movingWall
    {
        type            zeroGradient;
    }
    fixedWalls
    {
        type            zeroGradient;
    }
    frontAndBack
    {
        type            empty;
    }
}


// ************************************************************************* //
