/*--------------------------------*- C++ -*----------------------------------*\
| =========                 |                                                 |
| \\      /  F ield         | OpenFOAM: The Open Source CFD Toolbox           |
|  \\    /   O peration     | Version:  2312                                  |
|   \\  /    A nd           | Website:  www.openfoam.com                      |
|    \\/     M anipulation  |                                                 |
\*---------------------------------------------------------------------------*/
FoamFile
{
    version     2.0;
    format      ascii;
    arch        "LSB;label=32;scalar=64";
    class       volScalarField;
    location    "2.5";
    object      initialResidual:Uy;
}
// * * * * * * * * * * * * * * * * * * * * * * * * * * * * * * * * * * * * * //

dimensions      [0 0 0 0 0 0 0];

internalField   nonuniform List<scalar> 
400
(
-5.2954e-10
-5.77049e-10
-6.85717e-10
-5.8182e-10
-4.54764e-10
3.99925e-10
3.1069e-09
5.26458e-09
5.24014e-09
3.67895e-09
1.61298e-09
1.05141e-10
-8.91577e-10
-1.75358e-09
-2.18676e-09
-2.31181e-09
-3.27217e-09
-3.76758e-09
-2.54116e-09
1.2718e-09
-1.14645e-09
-1.47394e-09
-1.13661e-09
8.6215e-10
5.03088e-09
9.12924e-09
1.13011e-08
1.04701e-08
6.43813e-09
1.65339e-09
-1.73608e-09
-3.35466e-09
-3.63497e-09
-3.42542e-09
-3.92296e-09
-6.04153e-09
-8.71297e-09
-1.05995e-08
-8.49535e-09
-1.90937e-09
-1.1226e-09
-8.44979e-10
3.4878e-10
5.29238e-09
1.23059e-08
1.64235e-08
1.63283e-08
1.18484e-08
4.76238e-09
-1.63278e-09
-5.65982e-09
-6.56411e-09
-5.53511e-09
-3.59709e-09
-2.32252e-09
-3.27602e-09
-7.3426e-09
-1.35271e-08
-1.6293e-08
-6.08763e-09
-4.06807e-11
8.73312e-10
3.28335e-09
1.00413e-08
1.79651e-08
2.1413e-08
1.76288e-08
8.58634e-09
-1.2458e-09
-8.2485e-09
-1.02631e-08
-8.88533e-09
-5.68246e-09
-1.8976e-09
1.22586e-09
2.453e-09
-1.41678e-10
-7.90895e-09
-1.77541e-08
-1.86558e-08
1.55741e-09
3.14994e-09
6.68804e-09
1.46411e-08
2.24093e-08
2.29102e-08
1.47963e-08
2.27609e-09
-9.02045e-09
-1.48287e-08
-1.50131e-08
-1.1723e-08
-7.35328e-09
-3.23961e-09
7.3284e-10
4.04789e-09
5.06365e-09
2.2287e-10
-1.27101e-08
-2.12058e-08
3.38349e-09
5.53286e-09
9.9032e-09
1.81558e-08
2.45858e-08
2.15586e-08
1.019e-08
-4.72518e-09
-1.56688e-08
-1.8617e-08
-1.57756e-08
-1.15478e-08
-7.96392e-09
-4.62436e-09
-1.4562e-09
1.63166e-09
4.48185e-09
4.55489e-09
-3.97985e-09
-1.98075e-08
5.1543e-09
7.73461e-09
1.22835e-08
2.00364e-08
2.50007e-08
1.93687e-08
5.79994e-09
-9.84994e-09
-1.88883e-08
-1.89535e-08
-1.46528e-08
-1.05674e-08
-7.75793e-09
-4.77389e-09
-2.01312e-09
1.17991e-10
2.0743e-09
3.56301e-09
1.03641e-09
-1.39884e-08
6.60322e-09
9.27515e-09
1.36152e-08
2.0665e-08
2.48712e-08
1.6582e-08
3.68753e-09
-1.20994e-08
-1.96053e-08
-1.84434e-08
-1.43805e-08
-1.10983e-08
-8.27802e-09
-5.05439e-09
-2.05564e-09
-4.11437e-11
1.23495e-09
2.48079e-09
4.06784e-10
-7.87904e-09
7.48413e-09
1.01079e-08
1.40586e-08
2.01205e-08
2.39029e-08
1.50304e-08
3.73756e-09
-1.19357e-08
-1.90672e-08
-1.81767e-08
-1.47502e-08
-1.20046e-08
-8.99204e-09
-5.43616e-09
-2.29716e-09
-3.03214e-10
8.2765e-10
1.09645e-09
2.70084e-10
-4.66826e-09
7.73358e-09
1.02318e-08
1.36027e-08
1.86348e-08
2.19745e-08
1.55102e-08
4.52827e-09
-9.12332e-09
-1.7867e-08
-1.77225e-08
-1.51604e-08
-1.25549e-08
-9.57648e-09
-5.96588e-09
-2.80998e-09
-8.33893e-10
3.58139e-10
7.4467e-10
-5.13441e-10
-3.08552e-09
7.39846e-09
9.77213e-09
1.25213e-08
1.64541e-08
1.96305e-08
1.57911e-08
6.13297e-09
-4.81527e-09
-1.46968e-08
-1.66053e-08
-1.53243e-08
-1.32092e-08
-1.01616e-08
-6.66105e-09
-3.6208e-09
-1.64459e-09
-3.59116e-10
1.57439e-10
-9.11735e-10
-2.49222e-09
6.61513e-09
8.9039e-09
1.10659e-08
1.38994e-08
1.66564e-08
1.50501e-08
7.85833e-09
-9.26757e-10
-9.55446e-09
-1.37088e-08
-1.41446e-08
-1.27776e-08
-1.04104e-08
-7.30334e-09
-4.58097e-09
-2.57901e-09
-1.14488e-09
-4.43734e-10
-1.23973e-09
-2.44918e-09
5.47175e-09
7.76464e-09
9.46239e-09
1.13224e-08
1.33371e-08
1.30936e-08
8.42761e-09
2.04089e-09
-4.85905e-09
-9.55019e-09
-1.13825e-08
-1.11332e-08
-9.69057e-09
-7.46321e-09
-5.20857e-09
-3.31404e-09
-1.81882e-09
-9.70626e-10
-1.50143e-09
-2.54263e-09
4.17542e-09
6.49664e-09
7.89871e-09
9.04417e-09
1.01816e-08
1.02748e-08
7.8379e-09
3.32771e-09
-1.84539e-09
-6.02229e-09
-8.25483e-09
-8.81239e-09
-8.31586e-09
-6.95397e-09
-5.19887e-09
-3.58797e-09
-2.18944e-09
-1.35003e-09
-1.61751e-09
-2.4622e-09
2.76147e-09
5.17203e-09
6.44422e-09
7.12788e-09
7.54931e-09
7.42647e-09
6.1303e-09
3.34647e-09
-3.19739e-10
-3.55144e-09
-5.83625e-09
-6.66088e-09
-6.53041e-09
-5.73303e-09
-4.58193e-09
-3.38604e-09
-2.18677e-09
-1.564e-09
-1.58718e-09
-2.36342e-09
1.54985e-09
3.93638e-09
5.13804e-09
5.56136e-09
5.56385e-09
5.22603e-09
4.23321e-09
2.62558e-09
3.48654e-10
-1.94472e-09
-3.51224e-09
-4.54579e-09
-4.73989e-09
-4.33714e-09
-3.63835e-09
-2.83037e-09
-1.94011e-09
-1.69328e-09
-1.5158e-09
-2.23463e-09
3.35105e-10
2.68049e-09
3.7157e-09
4.01433e-09
3.87403e-09
3.47397e-09
2.67214e-09
1.63089e-09
3.25595e-10
-1.0477e-09
-2.24615e-09
-2.88418e-09
-3.20833e-09
-3.07762e-09
-2.63701e-09
-2.07544e-09
-1.52834e-09
-1.61624e-09
-1.60613e-09
-1.7069e-09
-4.37161e-10
1.39888e-09
2.28101e-09
2.7395e-09
2.72953e-09
2.46289e-09
1.91731e-09
1.19184e-09
3.62033e-10
-4.34166e-10
-1.01431e-09
-1.49297e-09
-1.58648e-09
-1.56796e-09
-1.39557e-09
-1.18603e-09
-9.94629e-10
-1.11442e-09
-1.15436e-09
-1.22248e-09
-9.42891e-10
3.41056e-10
1.08198e-09
1.18372e-09
1.31729e-09
1.31023e-09
1.11901e-09
8.18045e-10
4.42455e-10
5.55469e-11
-2.69186e-10
-5.22094e-10
-6.51778e-10
-6.74888e-10
-6.54564e-10
-6.33986e-10
-5.75556e-10
-4.3225e-10
-5.77674e-10
-6.96543e-10
1.86908e-10
-4.69523e-10
-4.96081e-10
-3.63504e-10
-2.25983e-10
-9.44099e-11
1.49888e-11
8.19915e-11
1.14136e-10
1.14471e-10
9.19926e-11
6.69044e-11
3.94316e-11
-6.62334e-12
-4.79896e-11
-7.58707e-11
-9.41785e-11
-4.69799e-11
-1.66861e-10
3.58543e-11
)
;

boundaryField
{
    movingWall
    {
        type            zeroGradient;
    }
    fixedWalls
    {
        type            zeroGradient;
    }
    frontAndBack
    {
        type            empty;
    }
}


// ************************************************************************* //
