/*--------------------------------*- C++ -*----------------------------------*\
| =========                 |                                                 |
| \\      /  F ield         | OpenFOAM: The Open Source CFD Toolbox           |
|  \\    /   O peration     | Version:  2312                                  |
|   \\  /    A nd           | Website:  www.openfoam.com                      |
|    \\/     M anipulation  |                                                 |
\*---------------------------------------------------------------------------*/
FoamFile
{
    version     2.0;
    format      ascii;
    arch        "LSB;label=32;scalar=64";
    class       volScalarField;
    location    "2.5";
    object      L_P;
}
// * * * * * * * * * * * * * * * * * * * * * * * * * * * * * * * * * * * * * //

dimensions      [0 0 0 0 0 0 0];

internalField   nonuniform List<scalar> 
400
(
-158.136
-149.775
-141.153
-134.022
-127.364
-120.697
-114.361
-109.16
-105.711
-104.166
-103.614
-103.542
-104.167
-105.123
-106.173
-107.763
-110.706
-118.037
-133.546
-148.853
-151.031
-144.445
-137.573
-131.252
-124.606
-118.2
-112.831
-109.783
-108.88
-108.84
-109.108
-108.961
-108.209
-106.887
-105.412
-104.128
-103.572
-104.937
-115.024
-134.783
-141.598
-137.045
-131.628
-125.853
-119.282
-113.848
-111.749
-111.254
-111.535
-112.383
-112.618
-112.252
-111.062
-109.641
-107.635
-105.216
-102.549
-101.185
-102.044
-113.617
-134.325
-131.055
-125.903
-120.445
-115.087
-112.794
-112.387
-113.115
-114.889
-115.567
-115.684
-114.959
-113.868
-112.644
-110.763
-108.19
-104.648
-100.143
-97.4127
-99.9089
-128.813
-126.728
-121.9
-116.961
-113.58
-112.793
-113.445
-115.804
-117.295
-117.735
-117.403
-116.634
-115.856
-114.625
-112.836
-110.222
-106.54
-101.716
-95.7285
-92.6412
-124.654
-123.876
-119.462
-115.203
-113.267
-113.223
-115.127
-117.849
-119.057
-119.44
-119.103
-118.626
-117.963
-116.503
-114.529
-111.812
-107.81
-102.459
-95.558
-89.18
-121.554
-122.23
-118.222
-114.602
-113.252
-113.774
-116.601
-119.403
-120.584
-121.125
-121.284
-121.273
-120.699
-118.824
-116.209
-113.125
-109.031
-103.232
-95.7377
-87.2502
-119.193
-121.369
-117.887
-114.62
-113.535
-114.444
-117.761
-120.562
-121.962
-122.886
-123.747
-124.203
-123.906
-121.561
-117.938
-114.058
-109.767
-103.649
-95.8066
-86.0249
-117.494
-121.233
-118.134
-114.985
-113.863
-114.747
-118.077
-121.366
-123.163
-124.321
-125.589
-126.336
-126.001
-123.338
-118.838
-114.491
-110.083
-103.837
-95.575
-85.0755
-116.291
-121.314
-118.73
-115.647
-114.211
-114.828
-117.838
-121.275
-123.521
-125.025
-126.339
-127.247
-126.69
-123.963
-119.033
-114.291
-109.974
-103.918
-95.2071
-84.2335
-115.488
-121.533
-119.597
-116.591
-114.667
-114.762
-117.071
-120.605
-123.166
-124.839
-126.132
-126.764
-126.059
-123.284
-117.98
-113.36
-109.568
-103.965
-94.6835
-83.3938
-115.242
-121.708
-120.52
-117.703
-115.319
-114.665
-115.753
-118.819
-121.807
-123.806
-125.169
-125.261
-124.228
-121.205
-116.114
-112.193
-109.169
-103.998
-94.1165
-82.4943
-115.406
-121.957
-121.441
-118.866
-116.25
-114.762
-114.949
-116.205
-118.754
-121.063
-122.567
-122.414
-121.193
-118.369
-114.316
-111.491
-109.036
-104.358
-93.613
-81.4914
-115.919
-122.342
-122.286
-119.938
-117.347
-115.292
-114.459
-114.725
-115.652
-117.058
-118.336
-118.369
-117.605
-115.842
-113.5
-111.295
-109.338
-105.289
-93.2438
-80.3449
-117.103
-123.206
-123.258
-120.945
-118.45
-116.084
-114.559
-114.041
-114.217
-114.721
-115.506
-115.805
-115.582
-114.861
-113.404
-111.772
-110.348
-106.93
-93.0272
-79.0121
-118.163
-124.001
-123.877
-121.531
-119.165
-116.897
-115.228
-114.194
-113.891
-114.044
-114.468
-114.966
-115.052
-114.79
-114.029
-112.83
-111.744
-108.307
-92.924
-77.4382
-120.601
-126.068
-124.932
-122.099
-119.556
-117.32
-115.55
-114.401
-113.898
-113.901
-114.141
-114.546
-114.804
-114.69
-114.155
-113.006
-111.881
-107.889
-91.6032
-75.569
-119.644
-124.853
-122.188
-119.063
-116.566
-114.591
-113.057
-112.004
-111.367
-111.171
-111.108
-111.148
-111.177
-110.947
-110.541
-109.71
-108.144
-102.138
-88.1261
-73.107
-113.715
-110.354
-105.298
-102.421
-100.603
-99.2871
-98.2851
-97.5047
-96.8969
-96.4067
-95.9765
-95.4874
-95.0132
-94.2939
-93.6172
-92.4606
-90.8964
-86.0403
-80.7381
-69.7367
-82.0293
-74.3706
-70.1229
-68.1682
-67.2033
-66.6907
-66.4367
-66.3189
-66.3124
-66.3268
-66.3607
-66.3939
-66.4135
-66.4044
-66.3684
-66.2819
-66.0317
-65.9549
-64.9553
-66.5651
)
;

boundaryField
{
    movingWall
    {
        type            calculated;
        value           nonuniform List<scalar> 
20
(
-82.0293
-74.3706
-70.1229
-68.1682
-67.2033
-66.6907
-66.4367
-66.3189
-66.3124
-66.3268
-66.3607
-66.3939
-66.4135
-66.4044
-66.3684
-66.2819
-66.0317
-65.9549
-64.9553
-66.5651
)
;
    }
    fixedWalls
    {
        type            calculated;
        value           nonuniform List<scalar> 
60
(
-158.136
-151.031
-141.598
-134.325
-128.813
-124.654
-121.554
-119.193
-117.494
-116.291
-115.488
-115.242
-115.406
-115.919
-117.103
-118.163
-120.601
-119.644
-113.715
-82.0293
-148.853
-134.783
-113.617
-99.9089
-92.6412
-89.18
-87.2502
-86.0249
-85.0755
-84.2335
-83.3938
-82.4943
-81.4914
-80.3449
-79.0121
-77.4382
-75.569
-73.107
-69.7367
-66.5651
-158.136
-149.775
-141.153
-134.022
-127.364
-120.697
-114.361
-109.16
-105.711
-104.166
-103.614
-103.542
-104.167
-105.123
-106.173
-107.763
-110.706
-118.037
-133.546
-148.853
)
;
    }
    frontAndBack
    {
        type            empty;
    }
}


// ************************************************************************* //
