/*--------------------------------*- C++ -*----------------------------------*\
| =========                 |                                                 |
| \\      /  F ield         | OpenFOAM: The Open Source CFD Toolbox           |
|  \\    /   O peration     | Version:  2312                                  |
|   \\  /    A nd           | Website:  www.openfoam.com                      |
|    \\/     M anipulation  |                                                 |
\*---------------------------------------------------------------------------*/
FoamFile
{
    version     2.0;
    format      ascii;
    arch        "LSB;label=32;scalar=64";
    class       volScalarField;
    location    "2.5";
    object      Lambda2Field;
}
// * * * * * * * * * * * * * * * * * * * * * * * * * * * * * * * * * * * * * //

dimensions      [0 0 -2 0 0 0 0];

internalField   nonuniform List<scalar> 
400
(
0.00701072
0.0731699
0.245866
0.35524
0.797477
1.37562
3.377
7.2981
13.8171
18.5648
21.5996
20.5967
23.2712
23.6428
31.1451
32.3433
28.0197
16.6732
3.73258
0.280408
0.304239
0.87224
1.68033
2.04289
3.28843
6.44972
12.0709
14.5829
18.1201
14.3609
11.6022
8.29376
8.60647
12.4023
20.9191
31.1904
36.2244
30.3917
11.3169
0
1.14026
2.11024
3.54828
4.69178
6.88744
10.7443
15.3129
15.4708
12.4809
6.63791
0.62884
-3.85565
0
-4.1163
1.66496
13.7628
29.5387
37.7823
27.7179
4.02711
2.36265
3.34119
4.99177
6.85798
10.1224
12.9795
14.4224
10.1814
2.13115
-7.16543
0
-18.5333
0
-21.3047
0
-16.7689
0
27.3555
40.2258
23.386
3.55097
4.0894
5.67367
8.0733
11.5945
13.0131
10.3717
1.64365
0
-18.3268
0
-21.91
0
-21.2268
0
-29.2077
0
-4.4391
35.3816
60.1667
4.32964
4.1803
5.56868
8.17705
11.2462
10.8921
4.96744
-6.62465
0
-22.8715
0
-19.023
0
-14.4425
0
-20.8438
0
-28.2564
13.033
77.4615
4.53717
3.68941
4.78824
7.2861
9.65335
7.91663
0
-12.3085
0
-23.9835
0
-19.0747
0
-12.7829
0
-12.0058
0
-29.3293
0
72.38
4.30441
2.89112
3.69169
5.90767
7.77584
5.44924
0
-15.0509
0
-25.1247
0
-22.174
0
-14.8068
0
-8.98381
0
-21.9997
0
55.886
3.86055
2.10947
2.65963
4.52609
6.20238
4.18168
0
-15.2082
0
-26.5455
0
-26.1437
0
-17.2909
0
-8.17689
0
-15.6135
0
34.4371
3.35937
1.53537
1.88675
3.42114
5.17431
4.0612
0
-12.8214
0
-26.7739
0
-28.3625
0
-17.8934
0
-7.0504
0
-10.9779
0
16.7836
2.87342
1.24127
1.41778
2.67025
4.50904
4.51525
0.311497
-7.96447
0
-23.686
0
-26.6225
0
-15.1791
0
-4.88147
0
-7.14538
0
5.7728
2.38786
1.14818
1.21358
2.18651
3.95158
4.89302
3.03311
-2.08624
0
-16.1261
0
-19.7312
0
-9.43307
0
-1.8464
0
-3.39922
0
-0.463678
1.83029
1.16632
1.19429
1.90118
3.41848
4.84995
4.70803
2.19931
0
-6.9868
0
-10.1196
0
-2.94166
0.0668514
1.23147
1.62249
0
0
-4.05528
1.12372
1.14456
1.27862
1.78926
2.95071
4.36798
5.07308
4.26951
2.09197
-0.49167
0
-2.69826
0
0.780331
2.70771
3.36332
3.94551
2.21055
0.509455
-0.624452
0.0411914
0.983606
1.42761
1.87198
2.67683
3.7348
4.53648
4.46377
3.40164
1.82918
0.58662
0.237049
0.916673
2.09192
3.40761
4.19992
5.31434
1.08629
0
0
0
0.639287
1.63412
2.12545
2.67794
3.3244
3.80913
3.7828
3.10064
1.97832
0.95008
0.439005
0.733015
1.56072
2.78981
3.68641
4.6989
-4.50592
0
3.24641
0
0
0.68828
1.49742
2.20023
2.67747
2.945
2.70391
2.2669
1.12278
0.280694
-0.321118
0
0.240678
1.13373
2.27871
0
-18.7555
0
28.2468
0
0.46592
2.96348
3.3193
3.4455
3.4595
3.13863
2.38304
1.25734
0
0
-2.30929
0
-2.84437
0
-4.17511
0
-42.1391
0
264.27
8.63327
0
5.69682
2.60358
8.13172
0.822041
4.34603
0
0.693576
-0.0741319
0
-3.21286
0
-5.47487
0
-12.4954
0
-16.1417
0
970.539
3290.92
-627.555
0
-351.462
0
-80.9367
0
-37.6861
0
-23.7344
0
-19.3234
0
-16.7313
0
0
0
0
0
1626.26
)
;

boundaryField
{
    movingWall
    {
        type            calculated;
        value           nonuniform List<scalar> 
20
(
5497.07
0
0
0
0
0
0
0
0
0
0
0
0
0
0
0
0
0
0
2884.98
)
;
    }
    fixedWalls
    {
        type            calculated;
        value           nonuniform List<scalar> 
60
(
0.00271186
0.0649936
0.56599
1.55531
3.48621
3.69676
5.92684
6.14398
6.26823
4.02211
5.16911
1.60248
2.98137
0
0
0
0
0
26.4611
6889.38
0.254543
0
0
14.0825
80.8676
48.8331
159.565
24.3128
90.9498
0
20.3946
0
0
0
9.33712
0
189.555
785.17
3561.41
2197.5
0
0
0.0982291
0
0.403835
0
1.14046
3.68637
12.1961
12.0387
32.0006
20.8503
40.4259
27.9395
42.7365
31.6796
27.2795
8.81133
2.53649
0.18223
)
;
    }
    frontAndBack
    {
        type            empty;
    }
}


// ************************************************************************* //
