/*--------------------------------*- C++ -*----------------------------------*\
| =========                 |                                                 |
| \\      /  F ield         | OpenFOAM: The Open Source CFD Toolbox           |
|  \\    /   O peration     | Version:  2312                                  |
|   \\  /    A nd           | Website:  www.openfoam.com                      |
|    \\/     M anipulation  |                                                 |
\*---------------------------------------------------------------------------*/
FoamFile
{
    version     2.0;
    format      ascii;
    arch        "LSB;label=32;scalar=64";
    class       volVectorField;
    location    "2.5";
    object      LambVectorField;
}
// * * * * * * * * * * * * * * * * * * * * * * * * * * * * * * * * * * * * * //

dimensions      [0 1 -2 0 0 0 0];

internalField   nonuniform List<vector> 
400
(
(2.85018e-05 1.43455e-05 -3.8773e-09)
(-0.000126682 -0.000688827 0)
(-0.00111499 -0.00644365 -2.37397e-05)
(-0.00362153 -0.0219044 0)
(-0.00992959 -0.0590864 -0.000748315)
(-0.0259613 -0.151485 0)
(-0.0667098 -0.359048 -0.0121021)
(-0.137169 -0.748104 0)
(-0.20635 -1.3241 -0.0952515)
(-0.235342 -2.00169 0)
(-0.203005 -2.62164 -0.282101)
(-0.119691 -3.01519 0)
(-0.0109079 -3.07844 -0.364511)
(0.0978511 -2.77111 -0)
(0.178654 -2.13676 -0.206469)
(0.207766 -1.34921 -0)
(0.170509 -0.634553 -0.0302729)
(0.0831437 -0.161512 -0)
(0.0106834 0.0014735 -7.41266e-07)
(0.0012031 -0.00199161 0)
(-0.00106297 -0.00103865 -1.22193e-06)
(-0.00630902 -0.00829443 0)
(-0.0122501 -0.025218 -0.000321537)
(-0.0246746 -0.0630076 0)
(-0.0544927 -0.138586 -0.00438057)
(-0.105816 -0.263915 0)
(-0.15891 -0.419619 -0.028109)
(-0.179234 -0.537327 0)
(-0.149611 -0.553755 -0.0613342)
(-0.0931416 -0.471341 0)
(-0.0429236 -0.347791 -0.0494531)
(-0.0123957 -0.248186 0)
(0.00509619 -0.197694 -0.0296861)
(0.0238995 -0.216275 -0)
(0.0677289 -0.319346 -0.0421589)
(0.154326 -0.451566 -0)
(0.270241 -0.52458 -0.0441479)
(0.317153 -0.428041 -0)
(0.164009 -0.140084 -0.00237857)
(-0.0063649 0.00477731 0)
(-0.0142096 -0.00647803 -1.91266e-05)
(-0.0204696 -0.0170199 0)
(-0.0298093 -0.0376095 -0.000740055)
(-0.0579872 -0.0905692 0)
(-0.112335 -0.182403 -0.00836066)
(-0.167256 -0.280046 0)
(-0.177164 -0.322485 -0.0275665)
(-0.117539 -0.246986 0)
(-0.0154978 -0.0402305 -0.00507524)
(0.0673396 0.236352 0)
(0.0907911 0.502475 0.0754251)
(0.0514631 0.703825 0)
(-0.0300237 0.802494 0.12439)
(-0.124522 0.786202 -0)
(-0.192278 0.640464 0.091595)
(-0.148882 0.313916 -0)
(0.0969448 -0.140534 -0.0154529)
(0.489729 -0.507908 -0)
(0.597694 -0.456848 -0.018952)
(0.0825212 -0.0385991 -0)
(-0.0542059 -0.016607 -7.21942e-05)
(-0.037975 -0.0230606 0)
(-0.0492658 -0.0439878 -0.00106185)
(-0.088125 -0.0960242 0)
(-0.145498 -0.16984 -0.00901875)
(-0.166783 -0.206489 0)
(-0.0915115 -0.12484 -0.0114897)
(0.0707858 0.112548 0)
(0.228912 0.453764 0.0566546)
(0.293186 0.796126 0)
(0.238844 1.05039 0.144419)
(0.102795 1.18995 0)
(-0.0737168 1.23544 0.165066)
(-0.264734 1.22892 -0)
(-0.463125 1.18308 0.147979)
(-0.623439 1.03931 -0)
(-0.555043 0.648398 0.0727316)
(0.0420167 -0.0353432 -0)
(0.940922 -0.575163 -0.0345023)
(0.616146 -0.282921 -0)
(-0.131418 -0.0284101 -0.000142997)
(-0.0551435 -0.0248642 0)
(-0.0641311 -0.0419206 -0.00107537)
(-0.106185 -0.0841934 0)
(-0.146219 -0.126248 -0.00680236)
(-0.0980268 -0.0910077 0)
(0.0844012 0.0873735 0.00765812)
(0.326113 0.397176 0)
(0.478518 0.733831 0.0807752)
(0.455284 0.970794 0)
(0.294905 1.05603 0.117369)
(0.0889171 1.02857 0)
(-0.105405 0.970469 0.0992465)
(-0.291285 0.930413 -0)
(-0.502837 0.933653 0.0866341)
(-0.785772 0.987111 -0)
(-1.07398 0.973808 0.088582)
(-0.880974 0.581866 -0)
(0.581563 -0.270904 -0.0175781)
(1.97564 -0.644685 -0)
(-0.245609 -0.03699 -0.00018232)
(-0.0690871 -0.0228545 0)
(-0.0719704 -0.034421 -0.000839435)
(-0.109526 -0.0633586 0)
(-0.114467 -0.0723886 -0.00353664)
(0.0142139 0.00974634 0)
(0.28627 0.220694 0.0165773)
(0.557309 0.510458 0)
(0.639753 0.751417 0.0665282)
(0.49957 0.847565 0)
(0.260304 0.815041 0.0702319)
(0.0385599 0.736397 0)
(-0.142358 0.656338 0.0514238)
(-0.293405 0.583483 -0)
(-0.443912 0.542806 0.0361019)
(-0.672255 0.57401 -0)
(-1.08557 0.694753 0.0434159)
(-1.4728 0.715183 -0)
(-0.373468 0.127056 0.00713473)
(3.87511 -0.845972 -0)
(-0.383523 -0.0386076 -0.000161293)
(-0.0793789 -0.0186839 0)
(-0.0715768 -0.0244129 -0.000509915)
(-0.0988127 -0.0405738 0)
(-0.0699978 -0.0312377 -0.00123573)
(0.125493 0.0604946 0)
(0.457029 0.247988 0.0142484)
(0.713327 0.463005 0)
(0.715874 0.606662 0.0394579)
(0.501928 0.637494 0)
(0.238043 0.603822 0.0388741)
(0.00822378 0.554055 0)
(-0.183322 0.48961 0.0290409)
(-0.327571 0.409218 -0)
(-0.428263 0.33379 0.0159267)
(-0.55733 0.302997 -0)
(-0.883708 0.360845 0.0143222)
(-1.52017 0.496136 -0)
(-1.28145 0.301273 0.0124155)
(5.8732 -0.826701 -0)
(-0.521209 -0.0324861 -9.86849e-05)
(-0.0857045 -0.0135267 0)
(-0.0639673 -0.0146803 -0.000232954)
(-0.081565 -0.0222523 0)
(-0.0297129 -0.00860809 -0.000239386)
(0.200684 0.0611245 0)
(0.552581 0.184465 0.00681521)
(0.793565 0.316381 0)
(0.756309 0.397692 0.0163218)
(0.518311 0.420044 0)
(0.245318 0.417643 0.0178037)
(-0.00853687 0.400025 -0)
(-0.233103 0.356069 0.0142296)
(-0.388418 0.283726 -0)
(-0.455088 0.20872 0.00644769)
(-0.511196 0.16401 -0)
(-0.718333 0.172178 0.0040892)
(-1.3629 0.274234 -0)
(-1.80579 0.272194 0.00730524)
(7.51574 -0.68258 -0)
(-0.632382 -0.0199387 -3.38495e-05)
(-0.0894248 -0.00828763 0)
(-0.0524436 -0.00711041 -7.16805e-05)
(-0.0630567 -0.00981195 0)
(-0.00497454 -0.000758692 -1.14747e-05)
(0.221803 0.0320231 0)
(0.5607 0.0793547 0.00125954)
(0.805057 0.128134 0)
(0.777757 0.161126 0.00265564)
(0.547765 0.18119 0)
(0.268407 0.196016 0.00370372)
(-0.0143573 0.198049 -0)
(-0.276327 0.177004 0.00323587)
(-0.441066 0.132841 -0)
(-0.479687 0.0922689 0.00126321)
(-0.49005 0.0685617 -0)
(-0.628173 0.0701406 0.000783727)
(-1.21769 0.132613 -0)
(-2.0527 0.188968 0.00308027)
(8.72909 -0.53375 -0)
(-0.698056 -0.00415399 -1.39774e-06)
(-0.0929063 -0.00341537 0)
(-0.0399258 -0.00216764 -9.04515e-06)
(-0.0438229 -0.00235713 0)
(-0.000543022 -1.68256e-05 -5.12056e-08)
(0.19004 -0.000194956 0)
(0.492851 -0.0185692 7.71699e-05)
(0.741665 -0.0509998 0)
(0.76101 -0.0785394 0.000652826)
(0.566453 -0.0811106 0)
(0.291936 -0.071507 0.000478422)
(-0.00834383 -0.0623058 0)
(-0.28833 -0.0557599 0.000309748)
(-0.451732 -0.0447418 0)
(-0.472501 -0.0254662 9.82186e-05)
(-0.457186 -0.0110046 0)
(-0.557269 0.000747662 9.87412e-08)
(-1.10835 0.0425986 -0)
(-2.20663 0.113744 0.00102115)
(9.55257 -0.445617 -0)
(-0.710711 0.0112642 -1.01511e-05)
(-0.0973614 0.00111239 0)
(-0.029456 0.000488098 -6.22015e-07)
(-0.0265505 0.000955557 0)
(-0.0037351 0.000288994 -2.10161e-06)
(0.131247 -0.0174329 0)
(0.368399 -0.07473 0.00159008)
(0.598809 -0.169241 0)
(0.670898 -0.266099 0.00842689)
(0.543154 -0.320845 0)
(0.299855 -0.337152 0.0109785)
(0.00975162 -0.326369 0)
(-0.255997 -0.284966 0.00842453)
(-0.404084 -0.208554 0)
(-0.421245 -0.127538 0.00262935)
(-0.402411 -0.0741058 0)
(-0.482704 -0.0490383 0.000467294)
(-1.00938 -0.0206453 0)
(-2.31923 0.0552864 0.00022291)
(10.0382 -0.408279 -0)
(-0.674628 0.0232779 -4.42165e-05)
(-0.102957 0.00543994 0)
(-0.0226284 0.00177665 -1.04554e-05)
(-0.0113051 0.00130856 0)
(-0.00281341 0.000489588 -7.44288e-06)
(0.0743189 -0.0187567 0)
(0.232125 -0.0817855 0.00276766)
(0.409381 -0.196522 0)
(0.501714 -0.333997 0.0168964)
(0.448224 -0.444009 0)
(0.270585 -0.497965 0.0276158)
(0.0337968 -0.49139 0)
(-0.183043 -0.422082 0.021353)
(-0.30585 -0.304719 0)
(-0.332788 -0.191226 0.00668911)
(-0.329466 -0.115687 0)
(-0.403664 -0.0821381 0.00144055)
(-0.907376 -0.0666463 0)
(-2.40723 0.010184 6.97214e-06)
(10.2924 -0.405562 -0)
(-0.602063 0.0300941 -7.75073e-05)
(-0.10882 0.00956058 0)
(-0.0204042 0.0026988 -2.55131e-05)
(0.000425166 -7.94069e-05 0)
(0.00493259 -0.00128974 2.67817e-05)
(0.0386786 -0.0139733 0)
(0.125398 -0.0613837 0.00254926)
(0.235744 -0.155359 0)
(0.311201 -0.281916 0.0175837)
(0.303285 -0.404666 0)
(0.201102 -0.477834 0.0339893)
(0.0463578 -0.48035 0)
(-0.0996602 -0.413946 0.0269952)
(-0.191873 -0.308526 0)
(-0.2322 -0.207876 0.00946036)
(-0.250036 -0.134394 0)
(-0.324201 -0.100889 0.00238689)
(-0.800826 -0.0993332 0)
(-2.47654 -0.0240428 3.5636e-05)
(10.3978 -0.424513 -0)
(-0.511727 0.0311175 -8.88482e-05)
(-0.112997 0.0130631 0)
(-0.0222465 0.00395296 -4.69752e-05)
(0.00698746 -0.00174934 0)
(0.0144944 -0.0049767 0.000121489)
(0.0261239 -0.0121096 0)
(0.0628387 -0.0388775 0.0017528)
(0.11875 -0.0978723 0)
(0.164454 -0.184355 0.0123581)
(0.170387 -0.276162 0)
(0.124415 -0.339242 0.0264475)
(0.0441752 -0.351323 0)
(-0.0381792 -0.315602 0.0227746)
(-0.102006 -0.256364 0)
(-0.146253 -0.193142 0.0100564)
(-0.178604 -0.137288 0)
(-0.250759 -0.109897 0.00308404)
(-0.689681 -0.121695 0)
(-2.52258 -0.0516813 0.000149799)
(10.354 -0.452236 -0)
(-0.413328 0.0266781 -7.15474e-05)
(-0.113635 0.0150976 0)
(-0.0262908 0.00562005 -7.36486e-05)
(0.00773936 -0.00238558 0)
(0.0195372 -0.00828749 0.000220755)
(0.0252208 -0.0143166 0)
(0.0368796 -0.0276585 0.00127387)
(0.0579886 -0.0573116 0)
(0.0795144 -0.105356 0.00705701)
(0.085973 -0.16016 0)
(0.0699001 -0.204785 0.016053)
(0.035237 -0.225029 0)
(-0.00648726 -0.220246 0.016307)
(-0.0472651 -0.200003 0)
(-0.0854556 -0.170222 0.00950201)
(-0.12146 -0.134676 0)
(-0.187893 -0.115554 0.00362505)
(-0.58522 -0.1425 0)
(-2.52699 -0.100053 0.000505679)
(10.107 -0.457515 -0)
(-0.348956 0.0170189 -3.13622e-05)
(-0.109104 0.0146344 0)
(-0.0310562 0.00738351 -9.72731e-05)
(0.00254066 -0.000915852 0)
(0.0166464 -0.00844549 0.000234337)
(0.0234143 -0.0160023 0)
(0.0282887 -0.0254711 0.00117328)
(0.0344 -0.0404329 0)
(0.0416639 -0.0645237 0.00419789)
(0.0453101 -0.0955287 0)
(0.041053 -0.127008 0.00969698)
(0.0275772 -0.151219 0)
(0.00702131 -0.162208 0.0120027)
(-0.0175206 -0.163251 0)
(-0.0460402 -0.155033 0.00907553)
(-0.0793779 -0.136877 0)
(-0.142503 -0.129151 0.00443576)
(-0.512558 -0.188631 0)
(-2.44332 -0.229261 0.0024028)
(9.74572 -0.400283 -0)
(-0.233566 0.000560489 -4.04019e-08)
(-0.10026 0.00980864 0)
(-0.0446016 0.010651 -0.00011836)
(-0.0140989 0.00571393 0)
(0.00349567 -0.00209425 5.74763e-05)
(0.014615 -0.0120991 0)
(0.0216237 -0.0237915 0.00109066)
(0.0266316 -0.0381138 0)
(0.0305807 -0.0567836 0.00360864)
(0.0331237 -0.0811799 0)
(0.0320109 -0.108601 0.00812569)
(0.0257443 -0.133724 0)
(0.0147162 -0.154782 0.0115557)
(-0.00124742 -0.16897 0)
(-0.0229333 -0.17454 0.010817)
(-0.055041 -0.174583 0)
(-0.122951 -0.183795 0.00705933)
(-0.504721 -0.3244 0)
(-2.25283 -0.433357 0.0080823)
(9.38293 -0.241046 -0)
(-0.436705 -0.0303371 -9.16482e-05)
(-0.0887741 0.000125177 0)
(-0.00987882 0.00159462 -1.21341e-05)
(0.0248299 -0.00932226 0)
(0.0435864 -0.0279492 0.000717658)
(0.0565951 -0.0543955 0)
(0.0652001 -0.0870418 0.00397863)
(0.0700739 -0.124271 0)
(0.0714185 -0.164749 0.0105801)
(0.0694161 -0.207513 0)
(0.0645683 -0.252587 0.0194116)
(0.056302 -0.297032 0)
(0.0451399 -0.341342 0.0271381)
(0.029937 -0.384064 0)
(0.00754752 -0.421043 0.0297857)
(-0.0372981 -0.464355 0)
(-0.135582 -0.47259 0.0235213)
(-0.561108 -0.754163 0)
(-1.89127 -0.548605 0.0124343)
(7.2689 0.174887 0)
(0.0263967 0.0149465 0.000109701)
(0.0580839 0.0598025 0)
(0.0946278 -0.0205814 5.9922e-05)
(0.151219 -0.153947 0)
(0.18733 -0.321988 0.0102971)
(0.201152 -0.50047 0)
(0.204546 -0.678266 0.0400626)
(0.20279 -0.852487 0)
(0.196415 -1.02178 0.0836775)
(0.185116 -1.18486 0)
(0.169711 -1.34117 0.132543)
(0.151115 -1.49178 0)
(0.130077 -1.63495 0.177378)
(0.105028 -1.77575 0)
(0.073536 -1.9052 0.210376)
(0.00654202 -2.05858 0)
(-0.0988487 -2.0427 0.201742)
(-0.527542 -2.60954 0)
(-1.34973 -0.932886 0.0279784)
(-2.32354 -0.742783 0)
(16.8407 -7.23731 0.290186)
(13.7925 -11.9684 0)
(8.36986 -16.749 1.43732)
(5.39511 -20.6401 0)
(3.90538 -23.6172 3.01152)
(3.06238 -26.1342 0)
(2.51765 -28.408 4.51689)
(2.13352 -30.4705 0)
(1.84363 -32.3169 6.02124)
(1.61348 -33.9553 0)
(1.42155 -35.3936 7.39406)
(1.25551 -36.6422 0)
(1.10622 -37.7004 8.52598)
(0.960587 -38.595 0)
(0.801237 -39.2312 9.30111)
(0.586192 -39.9083 0)
(0.35052 -39.201 9.18209)
(-0.498252 -41.5947 0)
(0.624534 -24.7985 3.17392)
(-14.3153 -55.1344 0)
)
;

boundaryField
{
    movingWall
    {
        type            calculated;
        value           nonuniform List<vector> 
20
(
(0 -367.738 0)
(0 -381.113 0)
(0 -369.721 0)
(0 -358.619 0)
(0 -350.156 0)
(0 -343.175 0)
(0 -336.872 0)
(0 -331.061 0)
(0 -325.743 0)
(0 -320.926 0)
(0 -316.63 0)
(0 -312.874 0)
(0 -309.708 0)
(0 -307.089 0)
(0 -305.39 0)
(0 -303.594 0)
(0 -306.967 0)
(0 -298.166 0)
(0 -358.358 0)
(0 -238.596 0)
)
;
    }
    fixedWalls
    {
        type            calculated;
        value           uniform (0 -0 0);
    }
    frontAndBack
    {
        type            empty;
    }
}


// ************************************************************************* //
