/*--------------------------------*- C++ -*----------------------------------*\
| =========                 |                                                 |
| \\      /  F ield         | OpenFOAM: The Open Source CFD Toolbox           |
|  \\    /   O peration     | Version:  2312                                  |
|   \\  /    A nd           | Website:  www.openfoam.com                      |
|    \\/     M anipulation  |                                                 |
\*---------------------------------------------------------------------------*/
FoamFile
{
    version     2.0;
    format      ascii;
    arch        "LSB;label=32;scalar=64";
    class       volScalarField;
    location    "2.5";
    object      logk;
}
// * * * * * * * * * * * * * * * * * * * * * * * * * * * * * * * * * * * * * //

dimensions      [0 2 -2 0 0 0 0];

internalField   nonuniform List<scalar> 
400
(
-6.90776
-6.90776
-6.90776
-6.90776
-6.90776
-6.90776
-6.90776
-6.90776
-6.83117
-6.74272
-6.7112
-6.70717
-6.74354
-6.79857
-6.85886
-6.90776
-6.90776
-6.90776
-6.90776
-6.90776
-6.90776
-6.90776
-6.90776
-6.90776
-6.90776
-6.90776
-6.90776
-6.90776
-6.90776
-6.90212
-6.90041
-6.87853
-6.83111
-6.76309
-6.68675
-6.6286
-6.60311
-6.68788
-6.90776
-6.90776
-6.90776
-6.90776
-6.90776
-6.90776
-6.90776
-6.90776
-6.90776
-6.90776
-6.90776
-6.90776
-6.90776
-6.90776
-6.90776
-6.90776
-6.8225
-6.69863
-6.56035
-6.49696
-6.55851
-6.90776
-6.90776
-6.90776
-6.90776
-6.90776
-6.90776
-6.90776
-6.90776
-6.90776
-6.90776
-6.90776
-6.90776
-6.90776
-6.90776
-6.90776
-6.90776
-6.84951
-6.68377
-6.45123
-6.3143
-6.49756
-6.90776
-6.90776
-6.90776
-6.90776
-6.90776
-6.90776
-6.90776
-6.90776
-6.90776
-6.90776
-6.90776
-6.90776
-6.90776
-6.90776
-6.90776
-6.90147
-6.74752
-6.52631
-6.22561
-6.08044
-6.90776
-6.90776
-6.90776
-6.90776
-6.90776
-6.90776
-6.90776
-6.90776
-6.90776
-6.90776
-6.90776
-6.90776
-6.90776
-6.90776
-6.90776
-6.90776
-6.77121
-6.54741
-6.21743
-5.88169
-6.90776
-6.90776
-6.90776
-6.90776
-6.90776
-6.90776
-6.90776
-6.90776
-6.90776
-6.90776
-6.90776
-6.90776
-6.90776
-6.90776
-6.90776
-6.90776
-6.7794
-6.55147
-6.2185
-5.77078
-6.90776
-6.90776
-6.90776
-6.90776
-6.90776
-6.90776
-6.90776
-6.90776
-6.90776
-6.90776
-6.90776
-6.90776
-6.90776
-6.90776
-6.90776
-6.90776
-6.78127
-6.54229
-6.21024
-5.70033
-6.90776
-6.90776
-6.90776
-6.90776
-6.90776
-6.90776
-6.90776
-6.90776
-6.90776
-6.90776
-6.90776
-6.90776
-6.90776
-6.90776
-6.90776
-6.90776
-6.77112
-6.52621
-6.18378
-5.6457
-6.90776
-6.90776
-6.90776
-6.90776
-6.90776
-6.90776
-6.90776
-6.90776
-6.90776
-6.90776
-6.90776
-6.90776
-6.90776
-6.90776
-6.90776
-6.90776
-6.74443
-6.51194
-6.15225
-5.59725
-6.90776
-6.90776
-6.90776
-6.90776
-6.90776
-6.90776
-6.90776
-6.90776
-6.90776
-6.90776
-6.90776
-6.90776
-6.90776
-6.90776
-6.90776
-6.87865
-6.70492
-6.50513
-6.12029
-5.54891
-6.90776
-6.90776
-6.90776
-6.90776
-6.90776
-6.90776
-6.90776
-6.90776
-6.90776
-6.90776
-6.90776
-6.90776
-6.90776
-6.90776
-6.90776
-6.80531
-6.67504
-6.50348
-6.08827
-5.49713
-6.90776
-6.90776
-6.90776
-6.90776
-6.90776
-6.90776
-6.90776
-6.90776
-6.90776
-6.90776
-6.90776
-6.90776
-6.90776
-6.90776
-6.90776
-6.75964
-6.66442
-6.52838
-6.06616
-5.43941
-6.90776
-6.90776
-6.90776
-6.90776
-6.90776
-6.90776
-6.90776
-6.90776
-6.90776
-6.90776
-6.90776
-6.90776
-6.90776
-6.90776
-6.88135
-6.74683
-6.68228
-6.59292
-6.05486
-5.37341
-6.90776
-6.90776
-6.90776
-6.90776
-6.90776
-6.90776
-6.90776
-6.90776
-6.90776
-6.90776
-6.90776
-6.90776
-6.90776
-6.90776
-6.87125
-6.78054
-6.75552
-6.71287
-6.05133
-5.2967
-6.90776
-6.90776
-6.90776
-6.90776
-6.90776
-6.90776
-6.90776
-6.90776
-6.90619
-6.90776
-6.90776
-6.90776
-6.90776
-6.90776
-6.90776
-6.87202
-6.87657
-6.82649
-6.05197
-5.2061
-6.90776
-6.90776
-6.90776
-6.90776
-6.90776
-6.90776
-6.90776
-6.90776
-6.90776
-6.90776
-6.90776
-6.90776
-6.90776
-6.90776
-6.90776
-6.90776
-6.90776
-6.86609
-5.99376
-5.09852
-6.90776
-6.90776
-6.90776
-6.90776
-6.90776
-6.90776
-6.90776
-6.90776
-6.90776
-6.90776
-6.90776
-6.90776
-6.90776
-6.90776
-6.90776
-6.90776
-6.90743
-6.62596
-5.80765
-4.9568
-6.90776
-6.90776
-6.88484
-6.709
-6.59504
-6.51106
-6.44612
-6.39553
-6.35615
-6.32574
-6.29974
-6.27038
-6.24253
-6.19828
-6.15788
-6.08226
-5.99083
-5.71255
-5.39496
-4.76279
-5.47038
-5.02951
-4.78503
-4.67253
-4.61701
-4.58752
-4.57291
-4.56613
-4.56576
-4.56658
-4.56853
-4.57043
-4.57154
-4.57102
-4.56894
-4.56395
-4.54954
-4.54512
-4.48757
-4.58023
)
;

boundaryField
{
    movingWall
    {
        type            calculated;
        value           nonuniform List<scalar> 
20
(
-5.47038
-5.02951
-4.78503
-4.67253
-4.61701
-4.58752
-4.57291
-4.56613
-4.56576
-4.56658
-4.56853
-4.57043
-4.57154
-4.57102
-4.56894
-4.56395
-4.54954
-4.54512
-4.48757
-4.58023
)
;
    }
    fixedWalls
    {
        type            calculated;
        value           nonuniform List<scalar> 
60
(
-6.90776
-6.90776
-6.90776
-6.90776
-6.90776
-6.90776
-6.90776
-6.90776
-6.90776
-6.90776
-6.90776
-6.90776
-6.90776
-6.90776
-6.90776
-6.90776
-6.90776
-6.90776
-6.90776
-5.47038
-6.90776
-6.90776
-6.90776
-6.49756
-6.08044
-5.88169
-5.77078
-5.70033
-5.6457
-5.59725
-5.54891
-5.49713
-5.43941
-5.37341
-5.2967
-5.2061
-5.09852
-4.9568
-4.76279
-4.58023
-6.90776
-6.90776
-6.90776
-6.90776
-6.90776
-6.90776
-6.90776
-6.90776
-6.83117
-6.74272
-6.7112
-6.70717
-6.74354
-6.79857
-6.85886
-6.90776
-6.90776
-6.90776
-6.90776
-6.90776
)
;
    }
    frontAndBack
    {
        type            empty;
    }
}


// ************************************************************************* //
