/*--------------------------------*- C++ -*----------------------------------*\
| =========                 |                                                 |
| \\      /  F ield         | OpenFOAM: The Open Source CFD Toolbox           |
|  \\    /   O peration     | Version:  2312                                  |
|   \\  /    A nd           | Website:  www.openfoam.com                      |
|    \\/     M anipulation  |                                                 |
\*---------------------------------------------------------------------------*/
FoamFile
{
    version     2.0;
    format      ascii;
    arch        "LSB;label=32;scalar=64";
    class       volScalarField;
    location    "2.5";
    object      magSqrU;
}
// * * * * * * * * * * * * * * * * * * * * * * * * * * * * * * * * * * * * * //

dimensions      [0 2 -2 0 0 0 0];

internalField   nonuniform List<scalar> 
400
(
3.61416e-07
7.98027e-07
1.39798e-05
5.56642e-05
0.000164926
0.000453601
0.00117531
0.00273302
0.00530058
0.00854719
0.0116482
0.0136545
0.0140206
0.0125182
0.00940209
0.00566707
0.00244034
0.000507852
1.35565e-05
2.33687e-05
2.83368e-06
5.28662e-05
0.000200931
0.000504088
0.0011536
0.00256824
0.00513078
0.00882542
0.0131634
0.0173082
0.0205265
0.0223728
0.0225636
0.0211391
0.0182123
0.013928
0.00896231
0.00409242
0.000683507
9.22617e-06
5.06614e-05
0.00025561
0.000630444
0.00137815
0.00289783
0.00558481
0.0095124
0.0140837
0.0182766
0.0214077
0.0232678
0.0240892
0.0240599
0.0233447
0.0222963
0.0207634
0.0178445
0.0122999
0.00466656
0.000118515
0.000220238
0.000658358
0.00131367
0.00255516
0.00488919
0.00855506
0.013022
0.0170489
0.019556
0.0203132
0.0198809
0.0188655
0.017915
0.0175624
0.0180422
0.019739
0.0218024
0.0210701
0.0132287
0.00180446
0.000567421
0.00127725
0.00219812
0.0038586
0.0067974
0.0108538
0.0148506
0.0172324
0.017268
0.0155528
0.0133157
0.01155
0.0105818
0.0103397
0.0111075
0.0135252
0.018339
0.0241991
0.0236136
0.00784845
0.00109538
0.00206809
0.00319481
0.00513944
0.00835537
0.0122263
0.0151354
0.0155662
0.0135209
0.0105543
0.00818262
0.00689499
0.00642745
0.00659238
0.00738208
0.00921757
0.0134395
0.0218325
0.0303981
0.0182172
0.00173982
0.00294252
0.00418656
0.006229
0.00942268
0.0128097
0.0145135
0.0133618
0.0101209
0.00684512
0.00478895
0.00394223
0.00401142
0.00478465
0.00602453
0.0077943
0.0110238
0.0186243
0.0324231
0.0307081
0.0023846
0.00377423
0.00503278
0.0070043
0.00998753
0.0128101
0.0136138
0.0115723
0.00777624
0.00440865
0.00244421
0.0017866
0.0022815
0.00367737
0.00549102
0.00750857
0.0103818
0.0166473
0.0324223
0.0415487
0.00290209
0.0044339
0.00563015
0.00740905
0.0100627
0.0124242
0.0128295
0.0105478
0.00660113
0.00311866
0.00102644
0.000375251
0.00114871
0.00302984
0.00525324
0.00742772
0.0101389
0.0156862
0.0316186
0.0497249
0.00319736
0.00483785
0.00592477
0.00742737
0.00965616
0.0117743
0.0121834
0.0102445
0.00655581
0.00304659
0.000790874
3.46578e-05
0.000855965
0.00287026
0.00513564
0.00723537
0.00968963
0.0146495
0.0304141
0.0555218
0.00323388
0.00495242
0.00591615
0.00710839
0.00888676
0.0107752
0.0114553
0.0102578
0.0073778
0.00418689
0.00189901
0.000988041
0.00157931
0.00321919
0.00506167
0.00681012
0.00888915
0.013219
0.0286236
0.0595262
0.00303415
0.00479805
0.00565267
0.00654581
0.00786285
0.00943578
0.0103701
0.0100263
0.00833386
0.00598256
0.00398359
0.00295076
0.00304063
0.0038672
0.00492943
0.00612255
0.00773639
0.0114103
0.0261881
0.0624831
0.00266152
0.00442663
0.00519773
0.00584158
0.00673812
0.00792368
0.00892252
0.00922165
0.00863076
0.00735398
0.00595597
0.00494844
0.00449942
0.00442868
0.00465531
0.00523564
0.00633956
0.00932927
0.0233115
0.0648688
0.00221288
0.00391241
0.00461394
0.00507599
0.00565083
0.00646454
0.00734303
0.00796038
0.00806934
0.00766093
0.00689529
0.00604738
0.0052836
0.00464896
0.00426549
0.00430018
0.00488778
0.00717885
0.0200241
0.066779
0.00173366
0.00329618
0.00392989
0.00427625
0.00465277
0.00520068
0.00589268
0.00657872
0.00704227
0.00714749
0.00686087
0.00627032
0.00548667
0.00463845
0.00390132
0.00351128
0.00358618
0.00522583
0.0163198
0.0680617
0.00143107
0.00274839
0.00324421
0.00348957
0.00376093
0.00417351
0.00473907
0.00539412
0.0059976
0.00638463
0.0064382
0.0061236
0.00548559
0.00463403
0.00372909
0.00302559
0.00261574
0.00384077
0.0125859
0.0694496
0.00090231
0.001854
0.00228895
0.00255797
0.00285181
0.00326883
0.00383754
0.00451737
0.00521004
0.00577961
0.00608464
0.00605323
0.00562419
0.00487402
0.00390714
0.00300233
0.00213539
0.00337937
0.00974816
0.0724493
0.00190028
0.00245242
0.0022802
0.00215069
0.00226278
0.00264314
0.00326169
0.00404737
0.00489913
0.00569333
0.00629202
0.00655246
0.00643142
0.00591049
0.00500613
0.00405062
0.00268104
0.00442214
0.006619
0.0731593
0.000221891
0.000197455
0.000187665
0.000609855
0.00136889
0.0024497
0.00380611
0.00534412
0.0069544
0.00851968
0.00992311
0.0110568
0.0118449
0.0122917
0.0122111
0.0120796
0.00977683
0.0123505
0.00278237
0.0571711
0.0103125
0.0083313
0.00920332
0.0126701
0.0167045
0.0209657
0.0254798
0.03015
0.0348276
0.0393897
0.0437136
0.0476904
0.0511884
0.0541946
0.0562325
0.0584324
0.0548686
0.0646791
0.0163915
0.153867
)
;

boundaryField
{
    movingWall
    {
        type            calculated;
        value           uniform 1;
    }
    fixedWalls
    {
        type            calculated;
        value           uniform 0;
    }
    frontAndBack
    {
        type            empty;
    }
}


// ************************************************************************* //
