/*--------------------------------*- C++ -*----------------------------------*\
| =========                 |                                                 |
| \\      /  F ield         | OpenFOAM: The Open Source CFD Toolbox           |
|  \\    /   O peration     | Version:  2312                                  |
|   \\  /    A nd           | Website:  www.openfoam.com                      |
|    \\/     M anipulation  |                                                 |
\*---------------------------------------------------------------------------*/
FoamFile
{
    version     2.0;
    format      ascii;
    arch        "LSB;label=32;scalar=64";
    class       volScalarField;
    location    "2.5";
    object      magU;
}
// * * * * * * * * * * * * * * * * * * * * * * * * * * * * * * * * * * * * * //

dimensions      [0 1 -1 0 0 0 0];

internalField   nonuniform List<scalar> 
400
(
0.000601179
0.000893323
0.00373896
0.00746085
0.0128423
0.0212979
0.0342828
0.0522783
0.0728051
0.092451
0.107927
0.116852
0.118409
0.111885
0.0969644
0.0752799
0.0493998
0.0225356
0.00368192
0.00483412
0.00168335
0.00727091
0.014175
0.0224519
0.0339646
0.0506778
0.0716295
0.0939437
0.114732
0.131561
0.143271
0.149575
0.150212
0.145393
0.134953
0.118017
0.0946695
0.063972
0.026144
0.00303746
0.00711768
0.0159878
0.0251086
0.0371234
0.0538315
0.0747316
0.0975315
0.118675
0.135191
0.146314
0.152538
0.155207
0.155112
0.15279
0.14932
0.144095
0.133583
0.110905
0.0683123
0.0108865
0.0148404
0.0256585
0.0362446
0.0505485
0.0699228
0.0924936
0.114114
0.130571
0.139843
0.142524
0.141
0.137352
0.133847
0.132523
0.134321
0.140496
0.147656
0.145156
0.115016
0.0424789
0.0238206
0.0357386
0.0468842
0.0621176
0.0824464
0.104181
0.121863
0.131272
0.131408
0.124711
0.115394
0.107471
0.102868
0.101684
0.105392
0.116298
0.135422
0.155561
0.153667
0.0885915
0.0330965
0.0454763
0.0565226
0.0716899
0.0914077
0.110573
0.123026
0.124765
0.116279
0.102734
0.0904579
0.0830361
0.0801714
0.0811935
0.085919
0.0960082
0.115929
0.147758
0.17435
0.134971
0.0417111
0.054245
0.0647036
0.078924
0.0970705
0.11318
0.120472
0.115593
0.100602
0.0827352
0.0692022
0.0627872
0.0633358
0.0691712
0.0776178
0.0882853
0.104994
0.136471
0.180064
0.175237
0.0488324
0.0614348
0.0709421
0.0836917
0.0999376
0.113182
0.116678
0.107575
0.088183
0.0663976
0.049439
0.0422682
0.0477651
0.0606413
0.0741014
0.086652
0.101891
0.129024
0.180062
0.203835
0.0538711
0.0665875
0.0750343
0.0860758
0.100313
0.111464
0.113267
0.102703
0.0812474
0.055845
0.032038
0.0193714
0.0338926
0.055044
0.0724793
0.0861842
0.100692
0.125245
0.177816
0.222991
0.0565452
0.0695547
0.0769726
0.0861822
0.0982658
0.10851
0.110378
0.101215
0.0809679
0.0551959
0.0281225
0.00588709
0.0292569
0.0535748
0.0716634
0.085061
0.0984359
0.121035
0.174396
0.235631
0.0568672
0.0703734
0.0769165
0.0843113
0.0942696
0.103803
0.107029
0.101281
0.0858941
0.0647062
0.0435777
0.0314331
0.0397405
0.0567379
0.0711454
0.0825235
0.0942823
0.114974
0.169185
0.24398
0.0550831
0.0692679
0.0751843
0.0809062
0.0886727
0.0971379
0.101834
0.100131
0.09129
0.077347
0.0631157
0.0543209
0.0551419
0.0621868
0.0702099
0.0782467
0.0879567
0.106819
0.161827
0.249966
0.0515899
0.0665329
0.0720953
0.0764302
0.0820861
0.089015
0.0944591
0.0960294
0.0929019
0.0857554
0.0771749
0.0703452
0.0670777
0.0665483
0.0682299
0.0723577
0.0796213
0.0965881
0.152681
0.254693
0.0470412
0.0625493
0.067926
0.071246
0.075172
0.0804024
0.0856915
0.089221
0.0898295
0.0875267
0.0830379
0.0777649
0.0726884
0.0681833
0.0653107
0.0655757
0.0699127
0.0847281
0.141507
0.258416
0.0416372
0.0574123
0.0626888
0.065393
0.0682112
0.0721157
0.0767638
0.0811093
0.0839182
0.0845428
0.0828304
0.0791853
0.074072
0.0681061
0.0624606
0.0592561
0.0598847
0.0722899
0.127749
0.260886
0.0378295
0.0524251
0.056958
0.0590726
0.0613265
0.0646027
0.0688409
0.0734447
0.0774442
0.0799039
0.0802384
0.0782535
0.0740648
0.0680737
0.0610663
0.0550054
0.0511443
0.0619739
0.112187
0.263533
0.0300385
0.0430581
0.047843
0.0505763
0.0534023
0.0571736
0.0619479
0.0672114
0.0721806
0.0760237
0.0780041
0.0778025
0.0749946
0.0698142
0.0625071
0.0547935
0.0462103
0.0581323
0.0987328
0.269164
0.0435922
0.049522
0.0477514
0.0463755
0.0475687
0.0514115
0.0571112
0.063619
0.0699938
0.0754542
0.0793222
0.0809473
0.0801961
0.0768797
0.070754
0.0636445
0.0517788
0.0664992
0.0813572
0.27048
0.014896
0.0140519
0.0136991
0.0246953
0.0369984
0.0494944
0.0616937
0.0731035
0.083393
0.0923021
0.0996148
0.105151
0.108834
0.110868
0.110504
0.109907
0.0988778
0.111133
0.0527481
0.239105
0.101551
0.091276
0.095934
0.112562
0.129246
0.144795
0.159624
0.173637
0.186622
0.198468
0.209078
0.218381
0.226248
0.232797
0.237134
0.241728
0.23424
0.254321
0.128029
0.392259
)
;

boundaryField
{
    movingWall
    {
        type            calculated;
        value           uniform 1;
    }
    fixedWalls
    {
        type            calculated;
        value           uniform 0;
    }
    frontAndBack
    {
        type            empty;
    }
}


// ************************************************************************* //
