/*--------------------------------*- C++ -*----------------------------------*\
| =========                 |                                                 |
| \\      /  F ield         | OpenFOAM: The Open Source CFD Toolbox           |
|  \\    /   O peration     | Version:  2312                                  |
|   \\  /    A nd           | Website:  www.openfoam.com                      |
|    \\/     M anipulation  |                                                 |
\*---------------------------------------------------------------------------*/
FoamFile
{
    version     2.0;
    format      ascii;
    arch        "LSB;label=32;scalar=64";
    class       volVectorField;
    location    "2.5";
    object      momentum1:momentum;
}
// * * * * * * * * * * * * * * * * * * * * * * * * * * * * * * * * * * * * * //

dimensions      [1 1 -1 0 0 0 0];

internalField   nonuniform List<vector> 
400
(
(6.757e-11 -1.34249e-10 0)
(-2.19647e-10 4.03953e-11 0)
(-9.21052e-10 1.59376e-10 0)
(-1.84023e-09 3.04251e-10 0)
(-3.16619e-09 5.32084e-10 0)
(-5.24797e-09 8.9939e-10 0)
(-8.42649e-09 1.56561e-09 0)
(-1.28553e-08 2.35709e-09 0)
(-1.79842e-08 2.80268e-09 0)
(-2.29547e-08 2.69882e-09 0)
(-2.69012e-08 2.08307e-09 0)
(-2.91901e-08 1.15873e-09 0)
(-2.96019e-08 1.04889e-10 0)
(-2.79537e-08 -9.8708e-10 0)
(-2.41568e-08 -2.01974e-09 0)
(-1.86007e-08 -2.86434e-09 0)
(-1.19269e-08 -3.20484e-09 0)
(-5.00914e-09 -2.57862e-09 0)
(1.25766e-10 -9.11847e-10 0)
(1.03444e-09 6.24888e-10 0)
(-2.94115e-10 3.01001e-10 0)
(-1.44676e-09 1.10046e-09 0)
(-3.18757e-09 1.54842e-09 0)
(-5.22649e-09 2.04677e-09 0)
(-7.90223e-09 3.10718e-09 0)
(-1.17594e-08 4.71493e-09 0)
(-1.67467e-08 6.34199e-09 0)
(-2.22792e-08 7.43155e-09 0)
(-2.76901e-08 7.48119e-09 0)
(-3.22662e-08 6.37611e-09 0)
(-3.5548e-08 4.38724e-09 0)
(-3.73473e-08 1.86532e-09 0)
(-3.75405e-08 -9.67725e-10 0)
(-3.61283e-08 -3.99238e-09 0)
(-3.30041e-08 -6.99971e-09 0)
(-2.79189e-08 -9.54149e-09 0)
(-2.10396e-08 -1.08387e-08 0)
(-1.28501e-08 -9.52113e-09 0)
(-4.24491e-09 -4.9699e-09 0)
(4.55841e-10 6.07325e-10 0)
(-7.38133e-10 1.6191e-09 0)
(-2.55541e-09 3.07335e-09 0)
(-4.91934e-09 3.89907e-09 0)
(-7.8161e-09 5.00428e-09 0)
(-1.14591e-08 7.05722e-09 0)
(-1.60399e-08 9.57975e-09 0)
(-2.13703e-08 1.17402e-08 0)
(-2.67898e-08 1.27491e-08 0)
(-3.15385e-08 1.21495e-08 0)
(-3.51785e-08 1.00228e-08 0)
(-3.75268e-08 6.78063e-09 0)
(-3.86984e-08 2.8296e-09 0)
(-3.8751e-08 -1.44979e-09 0)
(-3.77272e-08 -5.97538e-09 0)
(-3.57534e-08 -1.07338e-08 0)
(-3.25486e-08 -1.54369e-08 0)
(-2.74896e-08 -1.89632e-08 0)
(-1.99593e-08 -1.92449e-08 0)
(-1.0371e-08 -1.35684e-08 0)
(-1.15312e-09 -2.46526e-09 0)
(-1.0868e-09 3.54735e-09 0)
(-3.32951e-09 5.48286e-09 0)
(-6.03491e-09 6.75902e-09 0)
(-9.31055e-09 8.54464e-09 0)
(-1.32754e-08 1.13727e-08 0)
(-1.79885e-08 1.45295e-08 0)
(-2.30088e-08 1.68662e-08 0)
(-2.7632e-08 1.73789e-08 0)
(-3.12137e-08 1.57465e-08 0)
(-3.34359e-08 1.23133e-08 0)
(-3.43725e-08 7.81582e-09 0)
(-3.42106e-08 2.95532e-09 0)
(-3.34023e-08 -1.99306e-09 0)
(-3.23878e-08 -6.97699e-09 0)
(-3.12698e-08 -1.22408e-08 0)
(-3.01204e-08 -1.80679e-08 0)
(-2.80428e-08 -2.40053e-08 0)
(-2.33598e-08 -2.77706e-08 0)
(-1.49968e-08 -2.45335e-08 0)
(-4.4315e-09 -9.65093e-09 0)
(-1.25833e-09 5.82069e-09 0)
(-3.67257e-09 8.14496e-09 0)
(-6.41312e-09 9.81095e-09 0)
(-9.64833e-09 1.21685e-08 0)
(-1.34702e-08 1.5601e-08 0)
(-1.77208e-08 1.90875e-08 0)
(-2.1912e-08 2.11666e-08 0)
(-2.53637e-08 2.08256e-08 0)
(-2.75183e-08 1.79442e-08 0)
(-2.82277e-08 1.32382e-08 0)
(-2.77853e-08 7.75924e-09 0)
(-2.67679e-08 2.31401e-09 0)
(-2.55666e-08 -2.77684e-09 0)
(-2.426e-08 -7.59509e-09 0)
(-2.31976e-08 -1.24935e-08 0)
(-2.27473e-08 -1.81076e-08 0)
(-2.27411e-08 -2.50805e-08 0)
(-2.14332e-08 -3.24509e-08 0)
(-1.62217e-08 -3.4824e-08 0)
(-6.87068e-09 -2.10552e-08 0)
(-1.23223e-09 8.18184e-09 0)
(-3.57066e-09 1.07938e-08 0)
(-6.09681e-09 1.27477e-08 0)
(-8.97439e-09 1.55137e-08 0)
(-1.22141e-08 1.93139e-08 0)
(-1.56327e-08 2.27983e-08 0)
(-1.87786e-08 2.43583e-08 0)
(-2.10674e-08 2.30011e-08 0)
(-2.21342e-08 1.8845e-08 0)
(-2.21261e-08 1.30415e-08 0)
(-2.15425e-08 6.88014e-09 0)
(-2.07306e-08 1.08552e-09 0)
(-1.95874e-08 -4.24845e-09 0)
(-1.81347e-08 -9.11904e-09 0)
(-1.66275e-08 -1.35981e-08 0)
(-1.55857e-08 -1.82533e-08 0)
(-1.56228e-08 -2.44111e-08 0)
(-1.61358e-08 -3.3229e-08 0)
(-1.40386e-08 -4.1265e-08 0)
(-7.19687e-09 -3.29664e-08 0)
(-1.04444e-09 1.03753e-08 0)
(-3.10709e-09 1.32005e-08 0)
(-5.22178e-09 1.53099e-08 0)
(-7.49461e-09 1.82522e-08 0)
(-9.88974e-09 2.2161e-08 0)
(-1.22867e-08 2.54881e-08 0)
(-1.4364e-08 2.64721e-08 0)
(-1.57336e-08 2.42399e-08 0)
(-1.62602e-08 1.91874e-08 0)
(-1.62512e-08 1.27953e-08 0)
(-1.6095e-08 6.34509e-09 0)
(-1.56951e-08 2.3296e-10 0)
(-1.48286e-08 -5.55219e-09 0)
(-1.35002e-08 -1.08067e-08 0)
(-1.19287e-08 -1.53049e-08 0)
(-1.0542e-08 -1.93909e-08 0)
(-9.92273e-09 -2.43007e-08 0)
(-1.05855e-08 -3.2434e-08 0)
(-1.03025e-08 -4.38212e-08 0)
(-6.10633e-09 -4.33817e-08 0)
(-7.59438e-10 1.21845e-08 0)
(-2.39442e-09 1.51709e-08 0)
(-3.96712e-09 1.72861e-08 0)
(-5.50687e-09 2.01852e-08 0)
(-6.95234e-09 2.39976e-08 0)
(-8.24432e-09 2.70677e-08 0)
(-9.23645e-09 2.76686e-08 0)
(-9.95969e-09 2.49815e-08 0)
(-1.02603e-08 1.95126e-08 0)
(-1.04512e-08 1.28962e-08 0)
(-1.06572e-08 6.25992e-09 0)
(-1.05646e-08 -2.25458e-10 0)
(-9.99076e-09 -6.54053e-09 0)
(-8.94243e-09 -1.22421e-08 0)
(-7.7229e-09 -1.68388e-08 0)
(-6.61798e-09 -2.06274e-08 0)
(-5.93744e-09 -2.47712e-08 0)
(-6.36285e-09 -3.16223e-08 0)
(-6.70958e-09 -4.45126e-08 0)
(-4.60911e-09 -5.07499e-08 0)
(-4.2442e-10 1.34611e-08 0)
(-1.5362e-09 1.65759e-08 0)
(-2.52027e-09 1.85885e-08 0)
(-3.30865e-09 2.12631e-08 0)
(-3.78109e-09 2.47916e-08 0)
(-3.9819e-09 2.758e-08 0)
(-3.96808e-09 2.80374e-08 0)
(-4.03576e-09 2.53565e-08 0)
(-4.12045e-09 1.98895e-08 0)
(-4.38447e-09 1.32549e-08 0)
(-4.72375e-09 6.46827e-09 0)
(-4.83017e-09 -3.50158e-10 0)
(-4.57032e-09 -7.13486e-09 0)
(-3.96846e-09 -1.31763e-08 0)
(-3.42264e-09 -1.77936e-08 0)
(-2.98537e-09 -2.13382e-08 0)
(-2.79342e-09 -2.50176e-08 0)
(-3.38989e-09 -3.11271e-08 0)
(-4.07513e-09 -4.42669e-08 0)
(-3.4024e-09 -5.56438e-08 0)
(-8.41207e-11 1.41361e-08 0)
(-6.38801e-10 1.73769e-08 0)
(-1.04321e-09 1.92148e-08 0)
(-1.15721e-09 2.15145e-08 0)
(-7.60829e-10 2.45547e-08 0)
(2.78291e-11 2.71274e-08 0)
(1.03895e-09 2.75751e-08 0)
(1.73589e-09 2.52442e-08 0)
(2.07802e-09 2.0135e-08 0)
(1.95593e-09 1.36597e-08 0)
(1.67264e-09 6.82876e-09 0)
(1.45875e-09 -1.95352e-10 0)
(1.38876e-09 -7.18117e-09 0)
(1.32012e-09 -1.33285e-08 0)
(9.64205e-10 -1.78899e-08 0)
(5.11714e-10 -2.12591e-08 0)
(-3.30167e-11 -2.4609e-08 0)
(-1.16212e-09 -3.02365e-08 0)
(-2.2444e-09 -4.35413e-08 0)
(-2.745e-09 -5.88437e-08 0)
(2.25296e-10 1.4215e-08 0)
(2.00998e-10 1.75922e-08 0)
(3.18591e-10 1.92265e-08 0)
(7.58102e-10 2.10642e-08 0)
(1.81804e-09 2.34972e-08 0)
(3.41692e-09 2.57249e-08 0)
(5.31941e-09 2.62232e-08 0)
(6.88646e-09 2.43658e-08 0)
(7.91706e-09 1.99608e-08 0)
(8.2274e-09 1.39281e-08 0)
(8.14062e-09 7.24008e-09 0)
(7.85477e-09 2.34693e-10 0)
(7.39081e-09 -6.63948e-09 0)
(6.50547e-09 -1.26047e-08 0)
(5.15403e-09 -1.70232e-08 0)
(3.73644e-09 -2.02897e-08 0)
(2.38229e-09 -2.34499e-08 0)
(5.8778e-10 -2.87375e-08 0)
(-1.00798e-09 -4.22842e-08 0)
(-2.47876e-09 -6.09446e-08 0)
(4.74876e-10 1.37626e-08 0)
(9.13702e-10 1.72929e-08 0)
(1.47123e-09 1.87384e-08 0)
(2.32568e-09 2.00924e-08 0)
(3.80058e-09 2.184e-08 0)
(5.94261e-09 2.35462e-08 0)
(8.46012e-09 2.40116e-08 0)
(1.08333e-08 2.25673e-08 0)
(1.26471e-08 1.89978e-08 0)
(1.36084e-08 1.37376e-08 0)
(1.38643e-08 7.53363e-09 0)
(1.35482e-08 9.31818e-10 0)
(1.26474e-08 -5.48476e-09 0)
(1.09728e-08 -1.10135e-08 0)
(8.74503e-09 -1.52189e-08 0)
(6.48086e-09 -1.84569e-08 0)
(4.38454e-09 -2.15476e-08 0)
(1.95619e-09 -2.66331e-08 0)
(-1.71155e-10 -4.04565e-08 0)
(-2.4605e-09 -6.24431e-08 0)
(6.43875e-10 1.28814e-08 0)
(1.45574e-09 1.65694e-08 0)
(2.36337e-09 1.78682e-08 0)
(3.50799e-09 1.87828e-08 0)
(5.1913e-09 1.9854e-08 0)
(7.56125e-09 2.09298e-08 0)
(1.03825e-08 2.12099e-08 0)
(1.32105e-08 2.00458e-08 0)
(1.5593e-08 1.72128e-08 0)
(1.71554e-08 1.28575e-08 0)
(1.7783e-08 7.48419e-09 0)
(1.7505e-08 1.68937e-09 0)
(1.63036e-08 -3.9252e-09 0)
(1.41279e-08 -8.78613e-09 0)
(1.13774e-08 -1.27087e-08 0)
(8.56427e-09 -1.59336e-08 0)
(5.91463e-09 -1.90063e-08 0)
(2.97238e-09 -2.39634e-08 0)
(3.70548e-10 -3.81685e-08 0)
(-2.59743e-09 -6.36204e-08 0)
(7.13812e-10 1.17386e-08 0)
(1.79581e-09 1.55339e-08 0)
(2.97089e-09 1.67196e-08 0)
(4.32568e-09 1.72782e-08 0)
(6.1029e-09 1.77745e-08 0)
(8.4535e-09 1.82366e-08 0)
(1.12713e-08 1.82181e-08 0)
(1.41864e-08 1.72125e-08 0)
(1.67585e-08 1.49495e-08 0)
(1.86224e-08 1.14897e-08 0)
(1.94901e-08 7.14786e-09 0)
(1.92893e-08 2.42544e-09 0)
(1.80406e-08 -2.18241e-09 0)
(1.58381e-08 -6.30193e-09 0)
(1.30168e-08 -9.85671e-09 0)
(9.99101e-09 -1.29977e-08 0)
(7.01575e-09 -1.60083e-08 0)
(3.68072e-09 -2.08598e-08 0)
(7.24627e-10 -3.53692e-08 0)
(-2.81904e-09 -6.45426e-08 0)
(6.7047e-10 1.03877e-08 0)
(1.89034e-09 1.42281e-08 0)
(3.27615e-09 1.5326e-08 0)
(4.8156e-09 1.56229e-08 0)
(6.65928e-09 1.56988e-08 0)
(8.90017e-09 1.56789e-08 0)
(1.15142e-08 1.5353e-08 0)
(1.42538e-08 1.44222e-08 0)
(1.67456e-08 1.26383e-08 0)
(1.86223e-08 9.99637e-09 0)
(1.95974e-08 6.68927e-09 0)
(1.9558e-08 3.06256e-09 0)
(1.851e-08 -5.45203e-10 0)
(1.65701e-08 -3.91588e-09 0)
(1.39553e-08 -7.00588e-09 0)
(1.10009e-08 -9.92142e-09 0)
(7.84277e-09 -1.27525e-08 0)
(4.27568e-09 -1.75594e-08 0)
(1.26353e-09 -3.19122e-08 0)
(-2.94937e-09 -6.51549e-08 0)
(4.60697e-10 9.44615e-09 0)
(1.74238e-09 1.29899e-08 0)
(3.29359e-09 1.38534e-08 0)
(5.00814e-09 1.3893e-08 0)
(6.93675e-09 1.36726e-08 0)
(9.11307e-09 1.3334e-08 0)
(1.15158e-08 1.27897e-08 0)
(1.39846e-08 1.1898e-08 0)
(1.62649e-08 1.05025e-08 0)
(1.80487e-08 8.56065e-09 0)
(1.90873e-08 6.16959e-09 0)
(1.92459e-08 3.50981e-09 0)
(1.84989e-08 8.00738e-10 0)
(1.69213e-08 -1.81604e-09 0)
(1.46349e-08 -4.34613e-09 0)
(1.18957e-08 -6.8986e-09 0)
(8.58637e-09 -9.47407e-09 0)
(5.35103e-09 -1.45401e-08 0)
(2.62016e-09 -2.7924e-08 0)
(-2.70372e-09 -6.58277e-08 0)
(1.80208e-11 7.5096e-09 0)
(1.04812e-09 1.07134e-08 0)
(2.77814e-09 1.16336e-08 0)
(4.74913e-09 1.17183e-08 0)
(6.86122e-09 1.14526e-08 0)
(9.1148e-09 1.10101e-08 0)
(1.14606e-08 1.04164e-08 0)
(1.37736e-08 9.62414e-09 0)
(1.58877e-08 8.55626e-09 0)
(1.75974e-08 7.18026e-09 0)
(1.87054e-08 5.51353e-09 0)
(1.90999e-08 3.67707e-09 0)
(1.86645e-08 1.77457e-09 0)
(1.74531e-08 -1.28848e-10 0)
(1.54936e-08 -2.03574e-09 0)
(1.30645e-08 -4.11885e-09 0)
(9.60216e-09 -6.42343e-09 0)
(7.85778e-09 -1.22256e-08 0)
(4.66261e-09 -2.42388e-08 0)
(-1.72812e-09 -6.72688e-08 0)
(-7.55248e-10 1.08718e-08 0)
(1.74572e-11 1.23805e-08 0)
(1.90235e-09 1.17853e-08 0)
(4.0751e-09 1.08541e-08 0)
(6.4193e-09 1.00108e-08 0)
(8.90648e-09 9.26665e-09 0)
(1.14274e-08 8.55985e-09 0)
(1.3854e-08 7.81199e-09 0)
(1.60548e-08 6.95974e-09 0)
(1.78892e-08 5.9842e-09 0)
(1.92128e-08 4.91132e-09 0)
(1.98828e-08 3.76875e-09 0)
(1.9876e-08 2.62845e-09 0)
(1.91618e-08 1.49362e-09 0)
(1.76857e-08 3.17029e-10 0)
(1.586e-08 -1.27391e-09 0)
(1.24428e-08 -3.56972e-09 0)
(1.33381e-08 -9.9237e-09 0)
(5.6663e-09 -1.95341e-08 0)
(1.62644e-09 -6.76004e-08 0)
(-1.8349e-09 3.24057e-09 0)
(-2.51999e-09 2.44757e-09 0)
(7.27866e-10 3.34653e-09 0)
(4.4044e-09 4.32634e-09 0)
(7.99498e-09 4.65141e-09 0)
(1.1481e-08 4.61449e-09 0)
(1.47666e-08 4.45317e-09 0)
(1.77797e-08 4.22946e-09 0)
(2.04734e-08 3.93557e-09 0)
(2.27989e-08 3.56199e-09 0)
(2.47067e-08 3.12638e-09 0)
(2.6154e-08 2.64935e-09 0)
(2.71228e-08 2.15789e-09 0)
(2.76687e-08 1.63648e-09 0)
(2.76055e-08 1.0655e-09 0)
(2.74767e-08 8.73187e-11 0)
(2.46906e-08 -1.1948e-09 0)
(2.72323e-08 -5.50524e-09 0)
(7.49781e-09 -1.08481e-08 0)
(1.82017e-08 -5.69376e-08 0)
(1.0024e-08 2.3325e-08 0)
(1.49555e-08 1.72349e-08 0)
(2.14539e-08 1.0721e-08 0)
(2.72257e-08 7.11651e-09 0)
(3.18786e-08 5.2715e-09 0)
(3.59528e-08 4.2129e-09 0)
(3.97502e-08 3.52284e-09 0)
(4.33033e-08 3.03206e-09 0)
(4.65797e-08 2.65731e-09 0)
(4.95612e-08 2.35503e-09 0)
(5.22274e-08 2.09767e-09 0)
(5.45633e-08 1.86955e-09 0)
(5.65378e-08 1.65895e-09 0)
(5.81813e-08 1.44807e-09 0)
(5.92711e-08 1.21052e-09 0)
(6.04255e-08 8.87558e-10 0)
(5.85578e-08 5.23601e-10 0)
(6.35756e-08 -7.61555e-10 0)
(3.19971e-08 8.05828e-10 0)
(9.49175e-08 -2.46448e-08 0)
)
;

boundaryField
{
    movingWall
    {
        type            calculated;
        value           uniform (0 0 0);
    }
    fixedWalls
    {
        type            calculated;
        value           uniform (0 0 0);
    }
    frontAndBack
    {
        type            empty;
    }
}


// ************************************************************************* //
