/*--------------------------------*- C++ -*----------------------------------*\
| =========                 |                                                 |
| \\      /  F ield         | OpenFOAM: The Open Source CFD Toolbox           |
|  \\    /   O peration     | Version:  2312                                  |
|   \\  /    A nd           | Website:  www.openfoam.com                      |
|    \\/     M anipulation  |                                                 |
\*---------------------------------------------------------------------------*/
FoamFile
{
    version     2.0;
    format      ascii;
    arch        "LSB;label=32;scalar=64";
    class       volScalarField;
    location    "2.5";
    object      norm_k_field;
}
// * * * * * * * * * * * * * * * * * * * * * * * * * * * * * * * * * * * * * //

dimensions      [0 0 0 0 0 0 0];

internalField   nonuniform List<scalar> 
400
(
751.164
8.5143e+10
1.39889e+11
2.10983e+11
3.09806e+11
4.55251e+11
6.5623e+11
8.85485e+11
1.0796e+12
1.17943e+12
1.21721e+12
1.22212e+12
1.17847e+12
1.11537e+12
0.646166
0.25723
0.156281
0.0931286
0.0391458
0.016846
1.69716
11.6596
1.92274e+11
2.74146e+11
3.98175e+11
5.7157e+11
7.79082e+11
9.36953e+11
9.93881e+11
1.00565e+12
1.00737e+12
1.02965e+12
1.07966e+12
1.15565e+12
3.52914
0.524188
0.3148
0.238046
0.121462
0.0390028
1.68254
7.44605
2.97524e+11
4.0619e+11
5.90361e+11
7.98447e+11
8.87712e+11
9.12115e+11
9.03552e+11
8.61648e+11
8.50838e+11
8.63871e+11
9.18388e+11
9.83283e+11
1.08899e+12
1.2326e+12
0.631851
0.357656
0.276723
0.135845
4.1621
3.24142e+11
4.35843e+11
5.81675e+11
7.78449e+11
8.67398e+11
8.79621e+11
8.43461e+11
7.60259e+11
7.34091e+11
7.31894e+11
7.70108e+11
8.20131e+11
8.70142e+11
9.47138e+11
1.05997e+12
1.25105e+12
0.817375
0.421232
0.320842
2.84965e+11
4.25672e+11
5.67492e+11
7.31565e+11
8.57914e+11
8.84626e+11
8.44703e+11
7.33136e+11
6.82725e+11
6.74805e+11
7.02987e+11
7.55161e+11
7.91842e+11
8.41695e+11
9.07258e+11
1.0063e+12
1.17379e+12
1.4644e+12
0.890334
0.623273
3.62116e+11
5.07214e+11
6.66452e+11
8.20544e+11
8.86381e+11
8.75921e+11
7.7334e+11
6.6856e+11
6.4102e+11
6.42824e+11
6.78598e+11
7.15644e+11
7.51676e+11
8.106e+11
8.8656e+11
9.84222e+11
1.14631e+12
1.43383e+12
1.99437e+12
1.731
4.32892e+11
5.59077e+11
7.2797e+11
8.59864e+11
8.99194e+11
8.58974e+11
7.17694e+11
6.2703e+11
6.06687e+11
6.06646e+11
6.21671e+11
6.32476e+11
6.61918e+11
7.33984e+11
8.42753e+11
9.69433e+11
1.13696e+12
1.42802e+12
1.99223e+12
3.11733e+12
4.95968e+11
5.87245e+11
7.53515e+11
8.68089e+11
8.97275e+11
8.33552e+11
6.76446e+11
5.96427e+11
5.70102e+11
5.58288e+11
5.46094e+11
5.36637e+11
5.4898e+11
6.28799e+11
7.74069e+11
9.48709e+11
1.13483e+12
1.44118e+12
2.00876e+12
3.34486e+12
5.46944e+11
5.86346e+11
7.47618e+11
8.62127e+11
8.93236e+11
8.31495e+11
6.75905e+11
5.71408e+11
5.35368e+11
5.17137e+11
4.90384e+11
4.71164e+11
4.79713e+11
5.63019e+11
7.3879e+11
9.41644e+11
1.14641e+12
1.46455e+12
2.06262e+12
3.53268e+12
5.86189e+11
5.79587e+11
7.29696e+11
8.47171e+11
8.88584e+11
8.38561e+11
6.90103e+11
5.73513e+11
5.18123e+11
4.87705e+11
4.6064e+11
4.40877e+11
4.56559e+11
5.396e+11
7.30922e+11
9.66818e+11
1.17741e+12
1.48559e+12
2.12869e+12
3.70806e+12
6.13948e+11
5.64749e+11
6.98216e+11
8.18593e+11
8.82107e+11
8.55841e+11
7.32277e+11
5.96376e+11
5.2583e+11
4.8838e+11
4.60762e+11
4.47008e+11
4.6609e+11
5.53001e+11
7.73274e+11
1.02953e+12
1.22487e+12
1.49575e+12
2.19781e+12
3.89169e+12
6.22699e+11
5.47516e+11
6.61795e+11
7.83658e+11
8.70159e+11
8.77277e+11
8.12513e+11
6.64409e+11
5.6569e+11
5.11999e+11
4.79279e+11
4.80923e+11
5.13449e+11
6.22449e+11
8.63979e+11
1.10788e+12
1.26202e+12
1.49821e+12
2.26934e+12
4.0985e+12
6.16838e+11
5.25143e+11
6.23353e+11
7.44818e+11
8.47533e+11
8.95627e+11
8.74146e+11
7.99367e+11
6.77903e+11
5.94592e+11
5.5093e+11
5.6136e+11
6.11709e+11
7.39233e+11
9.70267e+11
1.15964e+12
1.2755e+12
1.46138e+12
2.32007e+12
4.34206e+12
5.9886e+11
5.02886e+11
5.87381e+11
7.06482e+11
8.17744e+11
8.97412e+11
9.22588e+11
9.02042e+11
8.44413e+11
7.74223e+11
7.19967e+11
7.28605e+11
7.72093e+11
8.76527e+11
1.02675e+12
1.1746e+12
1.25292e+12
1.37003e+12
2.34643e+12
4.63827e+12
5.59374e+11
4.68332e+11
5.47285e+11
6.68377e+11
7.85992e+11
8.88707e+11
9.48799e+11
9.67957e+11
9.55639e+11
9.2475e+11
8.82738e+11
8.76531e+11
8.93347e+11
9.4091e+11
1.03717e+12
1.13566e+12
1.16444e+12
1.21517e+12
2.35474e+12
5.00809e+12
5.26184e+11
4.44894e+11
5.24948e+11
6.48048e+11
7.67613e+11
8.72904e+11
9.48628e+11
9.92893e+11
1.00157e+12
9.90834e+11
9.6426e+11
9.38545e+11
9.3423e+11
9.47942e+11
9.85879e+11
1.03638e+12
1.03168e+12
1.08466e+12
2.35322e+12
5.483e+12
4.57174e+11
3.94773e+11
4.81162e+11
6.09678e+11
7.29347e+11
8.32537e+11
9.1778e+11
9.71786e+11
9.91322e+11
9.85176e+11
9.65961e+11
9.36347e+11
9.12246e+11
9.08816e+11
9.2076e+11
9.54294e+11
9.49949e+11
1.04255e+12
2.49426e+12
6.1058e+12
4.82995e+11
4.08452e+11
5.0909e+11
6.3246e+11
7.42987e+11
8.37844e+11
9.16333e+11
9.70023e+11
9.98834e+11
9.9791e+11
9.89146e+11
9.69898e+11
9.49236e+11
9.40016e+11
9.42562e+11
9.59532e+11
1.00032e+12
1.32551e+12
3.00448e+12
7.03544e+12
6.79394e+11
7.61016e+11
1.02318e+12
1.21989e+12
1.36714e+12
1.4869e+12
1.58667e+12
1.66901e+12
1.73604e+12
1.78965e+12
1.83679e+12
1.89152e+12
1.94494e+12
2.03292e+12
2.11674e+12
2.283e+12
2.50158e+12
3.67143
1.81592
0.551432
4.20965e+12
4.75823
11.166
9.34861e+12
9.88233e+12
1.01781e+13
1.03279e+13
1.03981e+13
1.0402e+13
1.03934e+13
1.03732e+13
1.03535e+13
1.0342e+13
1.03474e+13
1.0369e+13
1.04208e+13
1.05721e+13
2.9853
2.03775
0.173932
)
;

boundaryField
{
    movingWall
    {
        type            calculated;
        value           nonuniform List<scalar> 
20
(
4.20965e+12
4.75823
11.166
9.34861e+12
9.88233e+12
1.01781e+13
1.03279e+13
1.03981e+13
1.0402e+13
1.03934e+13
1.03732e+13
1.03535e+13
1.0342e+13
1.03474e+13
1.0369e+13
1.04208e+13
1.05721e+13
2.9853
2.03775
0.173932
)
;
    }
    fixedWalls
    {
        type            calculated;
        value           nonuniform List<scalar> 
60
(
751.164
1.69716
1.68254
4.1621
2.84965e+11
3.62116e+11
4.32892e+11
4.95968e+11
5.46944e+11
5.86189e+11
6.13948e+11
6.22699e+11
6.16838e+11
5.9886e+11
5.59374e+11
5.26184e+11
4.57174e+11
4.82995e+11
6.79394e+11
4.20965e+12
0.016846
0.0390028
0.135845
0.320842
0.623273
1.731
3.11733e+12
3.34486e+12
3.53268e+12
3.70806e+12
3.89169e+12
4.0985e+12
4.34206e+12
4.63827e+12
5.00809e+12
5.483e+12
6.1058e+12
7.03544e+12
0.551432
0.173932
751.164
8.5143e+10
1.39889e+11
2.10983e+11
3.09806e+11
4.55251e+11
6.5623e+11
8.85485e+11
1.0796e+12
1.17943e+12
1.21721e+12
1.22212e+12
1.17847e+12
1.11537e+12
0.646166
0.25723
0.156281
0.0931286
0.0391458
0.016846
)
;
    }
    frontAndBack
    {
        type            empty;
    }
}


// ************************************************************************* //
