/*--------------------------------*- C++ -*----------------------------------*\
| =========                 |                                                 |
| \\      /  F ield         | OpenFOAM: The Open Source CFD Toolbox           |
|  \\    /   O peration     | Version:  2312                                  |
|   \\  /    A nd           | Website:  www.openfoam.com                      |
|    \\/     M anipulation  |                                                 |
\*---------------------------------------------------------------------------*/
FoamFile
{
    version     2.0;
    format      ascii;
    arch        "LSB;label=32;scalar=64";
    class       volScalarField;
    location    "2.5";
    object      P_A;
}
// * * * * * * * * * * * * * * * * * * * * * * * * * * * * * * * * * * * * * //

dimensions      [1 -1 -3 0 0 0 0];

internalField   nonuniform List<scalar> 
400
(
1.53597e-28
1.05322e-27
7.66899e-27
3.96084e-26
1.83502e-25
8.51713e-25
3.66318e-24
1.21336e-23
2.68479e-23
3.83167e-23
4.35112e-23
4.42422e-23
3.83066e-23
3.07377e-23
2.41402e-23
1.67383e-23
8.49902e-24
1.57144e-24
4.41998e-26
1.30226e-27
7.88634e-28
3.59311e-27
1.74882e-26
7.49556e-26
3.4628e-25
1.51369e-24
5.21102e-24
1.05122e-23
1.29409e-23
1.30614e-23
1.22792e-23
1.2704e-23
1.51035e-23
2.04777e-23
2.87632e-23
3.8654e-23
4.39317e-23
3.20853e-23
3.14481e-24
3.32446e-26
6.92085e-27
1.97459e-26
6.87453e-26
2.59846e-25
1.17977e-24
4.12262e-24
6.68551e-24
7.49175e-24
7.02299e-24
5.77748e-24
5.47226e-24
5.95446e-24
7.83041e-24
1.08618e-23
1.72378e-23
3.00905e-23
5.5605e-23
7.61144e-23
6.24602e-23
4.34771e-24
3.69392e-26
7.84411e-26
2.56852e-25
9.02633e-25
3.0993e-24
5.25526e-24
5.77112e-24
4.88115e-24
3.24407e-24
2.77553e-24
2.70141e-24
3.19196e-24
4.10366e-24
5.43955e-24
8.3885e-24
1.51721e-23
3.42933e-23
9.67571e-23
1.81438e-22
1.02121e-22
1.31446e-25
2.12438e-25
6.45587e-25
2.01323e-24
4.38485e-24
5.25676e-24
4.52325e-24
2.62777e-24
1.86437e-24
1.68457e-24
1.81836e-24
2.17078e-24
2.59649e-24
3.4471e-24
5.20508e-24
9.50167e-24
2.21807e-23
6.73606e-23
2.67393e-22
5.4435e-22
3.42477e-25
4.09601e-25
1.13196e-24
3.01762e-24
4.71331e-24
4.76138e-24
3.07109e-24
1.64081e-24
1.24265e-24
1.13771e-24
1.22938e-24
1.37223e-24
1.5985e-24
2.23692e-24
3.52443e-24
6.58868e-24
1.65581e-23
5.67672e-23
2.781e-22
1.20782e-21
6.99128e-25
5.9842e-25
1.50575e-24
3.46603e-24
4.72887e-24
4.19336e-24
2.18707e-24
1.14746e-24
8.74179e-25
7.71734e-25
7.44026e-25
7.46007e-25
8.51383e-25
1.31088e-24
2.39369e-24
4.86995e-24
1.24985e-23
4.7515e-23
2.66825e-22
1.88358e-21
1.2042e-24
7.29681e-25
1.62653e-24
3.45151e-24
4.4305e-24
3.59454e-24
1.67472e-24
8.78688e-25
6.36437e-25
5.14485e-25
4.21946e-25
3.79896e-25
4.06802e-25
6.98013e-25
1.60765e-24
3.92799e-24
1.0551e-23
4.31633e-23
2.6263e-22
2.49751e-21
1.78056e-24
7.52887e-25
1.53684e-24
3.17327e-24
4.10887e-24
3.35208e-24
1.55706e-24
7.30086e-25
4.8267e-25
3.69703e-25
2.76132e-25
2.3247e-25
2.51147e-25
4.63637e-25
1.30669e-24
3.55565e-24
9.81091e-24
4.13312e-23
2.77013e-22
3.10778e-21
2.34897e-24
7.39007e-25
1.33962e-24
2.72475e-24
3.79194e-24
3.29036e-24
1.64527e-24
7.45587e-25
4.44492e-25
3.14443e-25
2.32326e-25
1.88505e-25
2.14302e-25
4.01554e-25
1.2493e-24
3.72343e-24
1.00603e-23
4.05729e-23
3.01503e-22
3.77267e-21
2.82615e-24
7.026e-25
1.09725e-24
2.19209e-24
3.41465e-24
3.34054e-24
1.9631e-24
8.70055e-25
4.82441e-25
3.28142e-25
2.43679e-25
2.10663e-25
2.47809e-25
4.69489e-25
1.59229e-24
4.61325e-24
1.1046e-23
4.01335e-23
3.40135e-22
4.57737e-21
2.99078e-24
6.74861e-25
8.87132e-25
1.69715e-24
2.93855e-24
3.41576e-24
2.65899e-24
1.3126e-24
6.59554e-25
4.16322e-25
3.04137e-25
2.97805e-25
3.77741e-25
7.57622e-25
2.44663e-24
6.03509e-24
1.21091e-23
3.9829e-23
3.87572e-22
5.63084e-21
2.87994e-24
6.37227e-25
7.17602e-25
1.29848e-24
2.37147e-24
3.34055e-24
3.19985e-24
2.39608e-24
1.3323e-24
7.82946e-25
5.53681e-25
5.7361e-25
7.59847e-25
1.45574e-24
3.7013e-24
7.09409e-24
1.24842e-23
3.66565e-23
4.35216e-22
7.09349e-21
2.55901e-24
5.83116e-25
5.90774e-25
1.01443e-24
1.8419e-24
2.95671e-24
3.58197e-24
3.36875e-24
2.72169e-24
1.96887e-24
1.46681e-24
1.45583e-24
1.73585e-24
2.60472e-24
4.46703e-24
7.4215e-24
1.1646e-23
2.95867e-23
4.73828e-22
9.23653e-21
1.94871e-24
4.7799e-25
4.72241e-25
8.04387e-25
1.42894e-24
2.46382e-24
3.50059e-24
3.94405e-24
3.78725e-24
3.37188e-24
2.81454e-24
2.62708e-24
2.76567e-24
3.2648e-24
4.56658e-24
6.64979e-24
9.22988e-24
2.02751e-23
4.98064e-22
1.25541e-20
1.5265e-24
3.98055e-25
4.0959e-25
7.02878e-25
1.21205e-24
2.04325e-24
3.00046e-24
3.80729e-24
4.0819e-24
3.94081e-24
3.5744e-24
3.1873e-24
3.12428e-24
3.31919e-24
3.95478e-24
5.21154e-24
6.69234e-24
1.47676e-23
5.1004e-22
1.80378e-20
8.70823e-25
2.4729e-25
3.21239e-25
6.16717e-25
1.10752e-24
1.85336e-24
2.78619e-24
3.63035e-24
4.07583e-24
4.07289e-24
3.85372e-24
3.51068e-24
3.30859e-24
3.39624e-24
3.84171e-24
5.00452e-24
6.48415e-24
1.62609e-23
6.91316e-22
2.77395e-20
1.08536e-24
3.27137e-25
6.04199e-25
1.24089e-24
2.20477e-24
3.47486e-24
4.94635e-24
6.30393e-24
7.29881e-24
7.63627e-24
7.74788e-24
7.67655e-24
7.62633e-24
8.04145e-24
8.82965e-24
1.06906e-23
1.53322e-23
6.11292e-23
1.53955e-21
4.88993e-20
4.25118e-24
9.21782e-24
2.9524e-23
5.72669e-23
8.70271e-23
1.1784e-22
1.48418e-22
1.77637e-22
2.04319e-22
2.28734e-22
2.52551e-22
2.82656e-22
3.15269e-22
3.72054e-22
4.3479e-22
5.67471e-22
8.13501e-22
2.48868e-21
8.437e-21
1.06251e-19
6.26718e-21
3.65541e-20
9.72094e-20
1.52468e-19
1.904e-19
2.14253e-19
2.27158e-19
2.33406e-19
2.33753e-19
2.32982e-19
2.3117e-19
2.29411e-19
2.28375e-19
2.28854e-19
2.30758e-19
2.35404e-19
2.49364e-19
2.5381e-19
3.19502e-19
2.20544e-19
)
;

boundaryField
{
    movingWall
    {
        type            calculated;
        value           nonuniform List<scalar> 
20
(
6.26718e-21
3.65541e-20
9.72094e-20
1.52468e-19
1.904e-19
2.14253e-19
2.27158e-19
2.33406e-19
2.33753e-19
2.32982e-19
2.3117e-19
2.29411e-19
2.28375e-19
2.28854e-19
2.30758e-19
2.35404e-19
2.49364e-19
2.5381e-19
3.19502e-19
2.20544e-19
)
;
    }
    fixedWalls
    {
        type            calculated;
        value           nonuniform List<scalar> 
60
(
1.53597e-28
7.88634e-28
6.92085e-27
3.69392e-26
1.31446e-25
3.42477e-25
6.99128e-25
1.2042e-24
1.78056e-24
2.34897e-24
2.82615e-24
2.99078e-24
2.87994e-24
2.55901e-24
1.94871e-24
1.5265e-24
8.70823e-25
1.08536e-24
4.25118e-24
6.26718e-21
1.30226e-27
3.32446e-26
4.34771e-24
1.02121e-22
5.4435e-22
1.20782e-21
1.88358e-21
2.49751e-21
3.10778e-21
3.77267e-21
4.57737e-21
5.63084e-21
7.09349e-21
9.23653e-21
1.25541e-20
1.80378e-20
2.77395e-20
4.88993e-20
1.06251e-19
2.20544e-19
1.53597e-28
1.05322e-27
7.66899e-27
3.96084e-26
1.83502e-25
8.51713e-25
3.66318e-24
1.21336e-23
2.68479e-23
3.83167e-23
4.35112e-23
4.42422e-23
3.83066e-23
3.07377e-23
2.41402e-23
1.67383e-23
8.49902e-24
1.57144e-24
4.41998e-26
1.30226e-27
)
;
    }
    frontAndBack
    {
        type            empty;
    }
}


// ************************************************************************* //
