/*--------------------------------*- C++ -*----------------------------------*\
| =========                 |                                                 |
| \\      /  F ield         | OpenFOAM: The Open Source CFD Toolbox           |
|  \\    /   O peration     | Version:  2312                                  |
|   \\  /    A nd           | Website:  www.openfoam.com                      |
|    \\/     M anipulation  |                                                 |
\*---------------------------------------------------------------------------*/
FoamFile
{
    version     2.0;
    format      ascii;
    arch        "LSB;label=32;scalar=64";
    class       surfaceScalarField;
    location    "2.5";
    object      PecletNoField;
}
// * * * * * * * * * * * * * * * * * * * * * * * * * * * * * * * * * * * * * //

dimensions      [0 0 0 0 0 0 0];

oriented        oriented;

internalField   nonuniform List<scalar> 
760
(
0.0920341
0.0925414
0.74406
0.590907
1.59554
0.820861
2.62111
1.05061
4.02085
1.49559
5.91806
2.10043
8.30789
2.67508
11.0875
3.03635
14.0269
3.04651
16.7498
2.62282
18.7762
1.80922
19.8616
0.803626
19.8353
0.270063
18.4143
1.42388
15.5795
2.55689
11.5177
3.61267
6.72059
4.21936
2.11002
3.87051
0.806844
2.53973
0.813471
0.95835
1.15772
2.21585
1.62035
3.65364
1.96194
5.22951
2.39967
7.16297
3.13133
9.37854
4.05528
11.6178
4.93435
13.9002
5.29721
16.0487
5.0389
17.4052
4.20355
17.8201
2.82385
17.6298
1.21164
17.089
0.502107
16.0496
2.26981
14.3485
4.12453
11.7454
5.97689
8.29449
7.26067
5.00415
7.39204
1.50208
5.9294
0.935078
1.37872
2.89918
2.44647
2.47174
3.89673
2.81704
5.39376
3.45198
6.96974
4.31239
9.11756
5.55143
11.6979
6.70962
13.9804
7.12766
15.9628
6.71874
17.5474
5.45257
18.545
3.60308
18.9618
1.47837
18.8697
0.699635
18.3104
2.90542
17.054
5.3616
14.9726
8.14219
11.9616
10.7552
7.8789
11.9928
3.43416
10.2259
4.46399
1.51379
4.94748
2.32553
3.23376
3.54804
3.45903
4.97535
4.25268
6.77873
5.53521
9.11154
7.14447
11.4536
8.3809
13.7087
8.82239
15.4271
7.90618
16.1222
5.90932
15.8457
3.44461
15.0853
1.0753
14.6058
0.921061
14.4926
2.84482
14.714
5.08004
14.8059
8.10092
13.5168
11.9796
10.1854
15.3403
5.24445
15.4564
9.02821
1.46106
6.99579
2.06048
3.93678
3.06127
3.99397
4.49097
4.98706
6.2967
6.71868
8.29194
8.41717
10.4595
9.82815
12.0329
9.92321
12.3509
7.96181
11.6865
5.33636
10.2957
2.63189
9.20638
0.523588
8.67819
1.12076
8.54044
2.63015
8.96447
4.29755
9.92416
6.73663
10.8208
10.7003
9.99559
16.1393
6.01566
19.6099
14.0436
1.29732
8.81583
1.75062
4.63167
2.57245
4.44024
3.81751
5.64207
5.33382
7.54956
7.05022
9.33825
8.64069
10.9894
9.14852
10.1708
8.71692
7.51547
7.72764
4.65058
6.63646
2.08928
5.83271
0.190371
5.29884
1.33951
4.9774
2.68365
5.00538
3.94314
5.63971
5.66671
6.91433
8.87474
7.79843
14.7889
5.65379
21.6997
18.7284
1.06943
10.2623
1.40116
5.29537
2.01382
4.75847
2.97034
6.10746
4.07617
8.0035
5.34633
9.923
6.31567
11.6773
6.30523
10.1408
5.82701
7.2341
5.19577
4.35315
4.67016
1.94099
4.21395
0.0109218
3.74838
1.65995
3.28395
3.05261
2.96456
4.05378
3.03312
5.17889
3.71844
7.56784
4.94213
12.8861
4.39978
21.8747
22.3513
0.794263
11.2689
1.02206
5.95485
1.42726
5.01717
2.04852
6.3084
2.70732
8.07288
3.46226
9.98657
3.92521
11.6735
3.83372
10.2269
3.60307
7.27452
3.37197
4.40503
3.23041
2.03403
3.06121
0.0804551
2.71342
2.05917
2.213
3.59164
1.79333
4.34066
1.66205
5.01226
1.94593
6.81395
2.80775
11.4043
2.9972
21.0555
24.7469
0.50215
11.8174
0.652907
6.54971
0.856106
5.17033
1.12548
6.1617
1.31952
7.78403
1.48257
9.52625
1.55784
11.1586
1.51648
10.3132
1.47748
7.58963
1.49763
4.73996
1.5512
2.26572
1.55745
0.0832302
1.36841
2.35648
1.03973
3.98974
0.784509
4.49741
0.711335
4.79268
0.880829
6.19712
1.46087
10.2714
1.91312
19.8804
26.1554
0.188704
11.9186
0.269729
7.01241
0.315139
5.18766
0.301649
5.77862
0.119848
7.17306
0.21124
8.69835
0.608329
10.2318
0.819374
10.0237
0.790697
7.8281
0.662944
5.11409
0.556467
2.51155
0.461758
5.81283e-06
0.400872
2.43908
0.28917
4.08914
0.166036
4.39887
0.0514408
4.39853
0.147523
5.5526
0.639158
9.38281
1.20781
18.8403
26.8812
0.113419
11.6431
0.0847005
7.46022
0.135823
5.18097
0.339882
5.29365
0.790167
6.3123
1.50794
7.55444
2.3871
8.5816
3.01631
9.10879
3.16154
7.58575
3.0671
5.22755
2.92514
2.69514
2.70621
0.180383
2.28209
2.21484
1.59856
3.74023
0.994622
3.9342
0.649572
3.87681
0.39965
4.9229
0.0910117
8.60819
0.790582
17.9021
27.1542
0.391942
11.0728
0.40683
7.90814
0.493072
5.18118
0.782966
4.78925
1.36372
5.35705
2.22658
6.24748
3.37652
6.79336
4.55611
7.26669
5.13156
6.68768
5.28431
4.98474
5.13392
2.75071
4.69654
0.425239
3.81868
1.6594
2.59308
2.91552
1.61423
3.15092
1.1024
3.28406
0.808873
4.32324
0.292624
7.91422
0.546174
17.0235
27.122
0.633608
10.2792
0.696714
8.19978
0.77129
5.17366
1.05808
4.35051
1.6327
4.45455
2.47839
4.94578
3.52704
5.27493
4.82269
5.30629
5.99639
5.04289
6.52917
4.01124
6.42942
2.42444
5.75767
0.630147
4.52299
0.932761
3.05307
1.9339
1.9827
2.35295
1.42694
2.69295
1.12386
3.72461
0.573214
7.32933
0.433153
16.2273
26.8917
0.797141
9.38822
0.9288
8.27024
0.982802
5.14617
1.21702
3.9865
1.6949
3.68338
2.43008
3.80613
3.29568
3.97981
4.22861
3.86511
5.15831
3.51258
5.79104
2.84865
5.80681
1.88187
5.23638
0.713974
4.24447
0.343071
3.1157
1.1552
2.21075
1.68585
1.67179
2.16013
1.38846
3.20698
0.811172
6.9193
0.409364
15.2747
26.5296
0.857095
8.49552
1.08896
8.01073
1.13758
4.95935
1.30409
3.60815
1.65035
3.04632
2.2151
2.92334
2.90998
2.91987
3.57618
2.81029
4.16826
2.52738
4.62279
2.06939
4.71135
1.47035
4.42999
0.744512
3.89485
0.0311363
3.13963
0.614423
2.4185
1.16368
1.96783
1.7351
1.75184
2.82958
1.16038
6.62159
0.395608
13.9228
26.0208
0.740629
7.81463
1.09596
7.43285
1.18761
4.7556
1.32271
3.36199
1.58197
2.71177
1.99342
2.47007
2.51365
2.33369
3.06983
2.20511
3.5516
2.00421
3.90802
1.68736
4.0879
1.28816
4.0333
0.814393
3.77299
0.303812
3.3522
0.218245
2.87409
0.750957
2.54685
1.38717
2.41479
2.52586
1.87944
6.48795
0.059204
12.2741
25.0531
0.348496
7.48999
0.906335
6.99688
1.21465
4.96219
1.45599
3.66571
1.76605
2.98944
2.16721
2.64567
2.63067
2.4054
3.13939
2.21678
3.62944
2.01615
4.04114
1.76689
4.35598
1.44954
4.55208
1.08717
4.54797
0.677916
4.34693
0.213053
4.03173
0.313626
3.79064
1.02367
3.77152
2.2474
3.14891
6.44319
0.667215
10.1419
23.2351
0.360864
7.46899
0.577361
7.32891
1.40762
5.89876
2.11851
4.81057
2.83544
4.04682
3.56702
3.51877
4.32109
3.12405
5.11376
2.81382
5.95655
2.53246
6.78917
2.26316
7.54449
1.95745
8.20516
1.63126
8.66035
1.28623
8.76652
0.899566
8.54017
0.442685
8.21992
0.270236
7.58692
1.38608
5.11948
4.50099
1.64696
7.072
20.2912
2.09204
6.28877
0.885547
4.09184
2.01973
2.65867
4.807
2.1565
7.19647
1.89679
9.2559
1.69716
11.0531
1.53742
12.6209
1.40369
13.982
1.27734
15.1265
1.14735
15.9824
1.01155
16.533
0.868989
16.7045
0.72381
16.5418
0.566379
15.86
0.396533
14.6937
0.141424
12.6964
0.176437
9.14087
1.33933
3.58941
1.89146
15.6901
4.38838
6.51626
7.84775
9.05937
10.2227
11.3286
12.378
13.3743
14.3064
15.1554
15.9118
16.5637
17.1019
17.5152
17.7862
17.8202
17.6124
16.3198
14.8099
)
;

boundaryField
{
    movingWall
    {
        type            calculated;
        value           uniform 0;
    }
    fixedWalls
    {
        type            calculated;
        value           uniform 0;
    }
    frontAndBack
    {
        type            empty;
        value           nonuniform List<scalar> 0();
    }
}


// ************************************************************************* //
