/*--------------------------------*- C++ -*----------------------------------*\
| =========                 |                                                 |
| \\      /  F ield         | OpenFOAM: The Open Source CFD Toolbox           |
|  \\    /   O peration     | Version:  2312                                  |
|   \\  /    A nd           | Website:  www.openfoam.com                      |
|    \\/     M anipulation  |                                                 |
\*---------------------------------------------------------------------------*/
FoamFile
{
    version     2.0;
    format      ascii;
    arch        "LSB;label=32;scalar=64";
    class       volScalarField;
    location    "2.5";
    object      powk;
}
// * * * * * * * * * * * * * * * * * * * * * * * * * * * * * * * * * * * * * //

dimensions      [0 0.5 -0.5 0 0 0 0];

internalField   nonuniform List<scalar> 
400
(
2.54259
2.54803
2.55438
2.56026
2.56633
2.57304
2.58003
2.58625
2.59063
2.59266
2.59339
2.59349
2.59264
2.59137
2.59001
2.58798
2.58434
2.57592
2.56074
2.54872
2.54717
2.55343
2.55888
2.56434
2.57063
2.57731
2.58353
2.58748
2.58878
2.58904
2.58908
2.58957
2.59063
2.59219
2.59396
2.59534
2.59595
2.59394
2.58
2.55968
2.55404
2.56091
2.56567
2.57098
2.57794
2.58405
2.58631
2.58689
2.58669
2.58566
2.58539
2.58572
2.58704
2.58854
2.59083
2.59369
2.59698
2.59853
2.59703
2.58092
2.56
2.56709
2.57224
2.57765
2.58352
2.58581
2.58611
2.58521
2.58303
2.5823
2.58224
2.58329
2.58461
2.58588
2.58771
2.59022
2.59403
2.59966
2.60313
2.59852
2.56496
2.57182
2.57717
2.58223
2.58557
2.58623
2.58524
2.58227
2.58082
2.58059
2.58142
2.58289
2.58387
2.58516
2.58678
2.58905
2.59255
2.59781
2.60545
2.60934
2.56897
2.57504
2.58034
2.58462
2.58627
2.58602
2.58338
2.5804
2.57956
2.57961
2.5807
2.58178
2.58279
2.58437
2.58628
2.58856
2.592
2.5973
2.60566
2.61491
2.57212
2.57688
2.58213
2.58562
2.58658
2.5856
2.58184
2.57912
2.57847
2.57847
2.57895
2.57929
2.5802
2.5823
2.58519
2.58823
2.59181
2.5972
2.60563
2.61815
2.57462
2.57783
2.58284
2.58582
2.58654
2.58496
2.58064
2.57814
2.57726
2.57686
2.57643
2.5761
2.57653
2.57918
2.5834
2.58775
2.59177
2.59742
2.60585
2.62024
2.57646
2.57781
2.58268
2.58568
2.58644
2.58491
2.58062
2.5773
2.57606
2.5754
2.57441
2.57367
2.574
2.57702
2.58243
2.58759
2.592
2.59781
2.60656
2.6219
2.5778
2.57758
2.58218
2.5853
2.58633
2.58509
2.58104
2.57738
2.57544
2.5743
2.57325
2.57245
2.57309
2.57621
2.58221
2.58817
2.59262
2.59816
2.6074
2.62338
2.57871
2.57708
2.58128
2.58457
2.58617
2.58552
2.58225
2.57814
2.57571
2.57433
2.57326
2.5727
2.57347
2.57667
2.58338
2.58956
2.59354
2.59833
2.60826
2.62488
2.57898
2.57648
2.5802
2.58366
2.58588
2.58605
2.58442
2.58027
2.57711
2.57521
2.57398
2.57404
2.57527
2.57898
2.58572
2.59122
2.59424
2.59837
2.60913
2.62651
2.5788
2.57569
2.579
2.5826
2.58531
2.5865
2.58597
2.58407
2.58068
2.57808
2.5766
2.57696
2.57863
2.58245
2.58825
2.59227
2.59449
2.59776
2.60974
2.62835
2.57822
2.57488
2.57784
2.58152
2.58455
2.58654
2.58714
2.58665
2.58523
2.5834
2.5819
2.58215
2.58335
2.58603
2.5895
2.59256
2.59407
2.5962
2.61005
2.63048
2.57689
2.57355
2.57648
2.58039
2.58372
2.58633
2.58775
2.58819
2.58791
2.58719
2.58618
2.58603
2.58644
2.58757
2.58973
2.59179
2.59236
2.59335
2.61014
2.63301
2.57573
2.57262
2.57568
2.57978
2.58323
2.58594
2.58775
2.58876
2.58895
2.58871
2.58811
2.58752
2.58741
2.58773
2.5886
2.58971
2.58961
2.59074
2.61012
2.63606
2.57311
2.57048
2.57405
2.57857
2.58217
2.58493
2.58703
2.58828
2.58872
2.58858
2.58815
2.58746
2.5869
2.58681
2.5871
2.58788
2.58778
2.58984
2.61174
2.63977
2.57412
2.57108
2.5751
2.57929
2.58255
2.58507
2.58699
2.58824
2.58889
2.58887
2.58867
2.58824
2.58776
2.58755
2.58761
2.588
2.58892
2.5954
2.61706
2.64481
2.58072
2.58305
2.58942
2.59344
2.59614
2.59818
2.59979
2.60106
2.60206
2.60284
2.60351
2.60427
2.605
2.60617
2.60725
2.60929
2.61182
2.61988
2.62978
2.652
2.62736
2.6422
2.65116
2.65547
2.65765
2.65881
2.65939
2.65966
2.65968
2.65965
2.65957
2.65949
2.65945
2.65947
2.65955
2.65975
2.66033
2.66051
2.66283
2.6591
)
;

boundaryField
{
    movingWall
    {
        type            calculated;
        value           nonuniform List<scalar> 
20
(
2.62736
2.6422
2.65116
2.65547
2.65765
2.65881
2.65939
2.65966
2.65968
2.65965
2.65957
2.65949
2.65945
2.65947
2.65955
2.65975
2.66033
2.66051
2.66283
2.6591
)
;
    }
    fixedWalls
    {
        type            calculated;
        value           nonuniform List<scalar> 
60
(
2.54259
2.54717
2.55404
2.56
2.56496
2.56897
2.57212
2.57462
2.57646
2.5778
2.57871
2.57898
2.5788
2.57822
2.57689
2.57573
2.57311
2.57412
2.58072
2.62736
2.54872
2.55968
2.58092
2.59852
2.60934
2.61491
2.61815
2.62024
2.6219
2.62338
2.62488
2.62651
2.62835
2.63048
2.63301
2.63606
2.63977
2.64481
2.652
2.6591
2.54259
2.54803
2.55438
2.56026
2.56633
2.57304
2.58003
2.58625
2.59063
2.59266
2.59339
2.59349
2.59264
2.59137
2.59001
2.58798
2.58434
2.57592
2.56074
2.54872
)
;
    }
    frontAndBack
    {
        type            empty;
    }
}


// ************************************************************************* //
