/*--------------------------------*- C++ -*----------------------------------*\
| =========                 |                                                 |
| \\      /  F ield         | OpenFOAM: The Open Source CFD Toolbox           |
|  \\    /   O peration     | Version:  2312                                  |
|   \\  /    A nd           | Website:  www.openfoam.com                      |
|    \\/     M anipulation  |                                                 |
\*---------------------------------------------------------------------------*/
FoamFile
{
    version     2.0;
    format      ascii;
    arch        "LSB;label=32;scalar=64";
    class       volScalarField;
    location    "2.5";
    object      QField;
}
// * * * * * * * * * * * * * * * * * * * * * * * * * * * * * * * * * * * * * //

dimensions      [0 0 -2 0 0 0 0];

internalField   nonuniform List<scalar> 
400
(
-0.0074594
-0.102172
-0.269366
-0.423125
-0.930308
-1.91287
-3.75367
-8.01488
-14.1204
-19.3054
-21.8436
-22.3665
-23.2226
-26.1223
-30.6664
-33.0964
-29.0328
-16.7813
-3.57618
-0.297162
-0.307715
-0.93793
-1.65623
-2.05505
-3.28027
-6.69817
-11.4993
-15.656
-17.2244
-15.2592
-11.4878
-8.67935
-8.87798
-13.0531
-21.7421
-32.6352
-37.9428
-30.7466
-9.93453
-0.346465
-1.11558
-2.24498
-3.50614
-4.73539
-6.94233
-10.8967
-14.9259
-15.8329
-12.6308
-6.69329
-0.578117
3.91715
5.67046
4.12477
-1.71706
-14.1725
-30.7881
-40.913
-30.0008
-6.37691
-2.21729
-3.4411
-4.92569
-6.94703
-9.93695
-13.3296
-14.2977
-10.3473
-2.12269
7.19491
14.4643
18.6441
20.5652
21.5286
21.6424
17.0703
0.754494
-27.6904
-47.411
-26.515
-3.3314
-4.22632
-5.68607
-8.18046
-11.4317
-13.2665
-10.3384
-1.65854
9.60256
18.3992
22.2069
22.0603
20.9979
21.347
24.2999
29.2581
28.4179
5.56805
-40.7314
-61.4213
-4.14946
-4.34802
-5.65406
-8.21721
-11.1617
-11.1085
-4.85833
6.66205
17.7295
22.8856
22.0474
19.0649
16.3796
14.575
15.3228
20.9098
30.6457
29.2566
-13.1169
-84.9361
-4.44213
-3.85422
-4.90735
-7.29004
-9.6829
-8.15266
0.0801255
12.3457
21.6873
23.9854
21.8238
19.086
16.146
12.8949
10.6964
12.1456
20.2148
30.4262
10.5102
-82.7949
-4.27085
-3.01459
-3.80012
-5.93313
-7.87904
-5.64235
3.0405
15.0823
23.4188
25.1332
23.8714
22.1899
19.3124
14.8459
10.4865
9.03447
12.5125
22.5667
18.9335
-63.4199
-3.85773
-2.18005
-2.73976
-4.58518
-6.3178
-4.29772
3.65641
15.2407
23.8554
26.5694
26.7992
26.1697
23.2646
17.3023
11.1792
8.17714
9.23712
15.7335
17.5135
-39.4826
-3.36313
-1.56762
-1.93225
-3.48349
-5.27385
-4.10977
2.3026
12.8371
22.3144
26.8071
28.4563
28.4079
25.123
17.9071
10.7832
7.05901
7.01445
11.2035
13.5367
-19.3623
-2.8703
-1.24611
-1.43927
-2.72106
-4.55641
-4.58613
-0.364289
8.00297
17.4067
23.7192
26.6692
26.7122
22.7624
15.2084
8.38394
4.89516
4.42869
7.44235
9.1702
-6.70699
-2.37616
-1.16199
-1.22277
-2.2149
-3.97238
-5.01489
-3.13
2.17919
9.62406
16.1679
19.7541
19.8175
15.9161
9.48731
4.31081
1.84954
1.40403
3.73455
4.98993
0.827036
-1.80582
-1.18776
-1.19398
-1.90878
-3.42747
-4.95483
-4.83906
-2.31976
2.17341
7.01705
10.0311
10.1269
7.25499
3.12393
0.112012
-1.23471
-1.57557
0.166107
1.15022
5.09129
-1.11737
-1.1919
-1.28381
-1.80417
-2.96943
-4.43719
-5.18688
-4.3917
-2.19147
0.580579
2.54657
2.74639
1.21455
-0.915866
-2.57346
-3.3745
-3.88863
-2.40882
-0.265008
5.11195
0.0576074
-1.01837
-1.41354
-1.87312
-2.68817
-3.77176
-4.60062
-4.53598
-3.45778
-1.88259
-0.593357
-0.238896
-0.914412
-2.14943
-3.35559
-4.21363
-5.11166
-1.53216
5.82834
-2.13768
1.32764
-0.999176
-1.85735
-2.27794
-2.77081
-3.39034
-3.86019
-3.82155
-3.11246
-1.9822
-0.94611
-0.451381
-0.73119
-1.61419
-2.74543
-3.9224
-4.47644
5.48274
18.0038
-18.3474
3.7885
0.869036
-1.00094
-2.01235
-2.61642
-3.02746
-3.1726
-2.93312
-2.24967
-1.2392
-0.232141
0.379288
0.357006
-0.313173
-1.3267
-2.51895
0.0833002
19.1183
13.959
-62.5665
7.39748
-2.99327
-5.88091
-5.44013
-4.96948
-4.5754
-3.95104
-2.96855
-1.64215
-0.123419
1.36585
2.46752
3.0348
3.15934
3.72487
5.43423
18.772
42.2018
1.07159
-289.906
-18.4873
1.73726
-7.05641
-9.1792
-6.53986
-4.61765
-3.33149
-1.92566
-0.195239
1.64245
3.31047
4.63984
5.70645
6.81641
10.2802
15.109
41.1041
52.3895
187.292
-1188.44
-3297.82
947.246
745.94
389.294
199.909
115.503
74.7868
52.8491
40.298
32.9449
28.6811
26.3152
25.8674
28.3657
36.2324
45.4038
110.302
-45.1096
1810.09
-3132.29
)
;

boundaryField
{
    movingWall
    {
        type            calculated;
        value           nonuniform List<scalar> 
20
(
-6602.26
1769.92
1395.82
729.483
375.894
218.324
142.321
101.246
77.4998
63.2784
54.7334
49.7175
48.3451
52.5177
66.6809
83.7476
200.999
-46.6185
3316.07
-4367.86
)
;
    }
    fixedWalls
    {
        type            calculated;
        value           nonuniform List<scalar> 
60
(
-0.0122534
-0.174828
-0.712191
-1.74143
-3.19054
-4.7119
-5.81492
-6.33473
-6.34803
-5.91863
-5.13939
-4.09218
-2.80385
-1.33902
0.69904
3.09581
5.86045
14.956
-36.9798
-7512.17
-0.21977
0.0512371
0.140521
-17.409
-65.2592
-118.962
-141.346
-123.995
-84.0093
-44.0966
-16.8069
0.528733
11.1088
11.7694
-7.23469
-55.1089
-188.383
-873.001
-3899.93
-11058
0.0171251
0.0157173
-0.00976425
0.00178131
0.0455156
0.443419
0.238864
-4.24028
-14.1822
-25.9736
-34.8282
-38.9586
-40.5699
-41.4504
-41.1132
-36.5276
-25.6967
-12.5397
-3.78477
-0.653976
)
;
    }
    frontAndBack
    {
        type            empty;
    }
}


// ************************************************************************* //
