/*--------------------------------*- C++ -*----------------------------------*\
| =========                 |                                                 |
| \\      /  F ield         | OpenFOAM: The Open Source CFD Toolbox           |
|  \\    /   O peration     | Version:  2312                                  |
|   \\  /    A nd           | Website:  www.openfoam.com                      |
|    \\/     M anipulation  |                                                 |
\*---------------------------------------------------------------------------*/
FoamFile
{
    version     2.0;
    format      ascii;
    arch        "LSB;label=32;scalar=64";
    class       surfaceScalarField;
    location    "2.5";
    object      surfaceDivU;
}
// * * * * * * * * * * * * * * * * * * * * * * * * * * * * * * * * * * * * * //

dimensions      [0 0 -1 0 0 0 0];

internalField   nonuniform List<scalar> 
760
(
0.0333812
0.00542969
0.0478887
0.058347
0.0386192
0.00943634
0.0674828
0.0182506
0.117108
0.0447435
0.130863
0.0379741
0.106247
-0.00895811
0.0830808
-0.064097
0.0684867
-0.0911585
0.0785628
-0.0751813
0.111624
-0.0297316
0.139361
0.000330186
0.167844
0.00756695
0.159849
0.00274908
0.0315308
-0.034211
-0.125575
-0.15681
-0.0998151
-0.228307
0.0229448
0.0162652
0.0467681
0.162236
0.154187
0.0303955
-0.00694334
0.0198946
0.068139
-0.0109323
-0.018024
-0.00448869
-0.0112938
-0.0343905
0.00678024
-0.101847
-0.0521776
-0.179303
-0.114145
-0.238336
-0.154454
-0.234827
-0.152734
-0.183476
-0.116991
-0.141026
-0.0949693
-0.131464
-0.0911623
-0.157528
-0.0779532
-0.191311
-0.0877928
-0.222552
-0.113428
-0.259542
-0.174151
-0.112226
-0.253354
0.155556
-0.200489
0.269654
-0.0216149
0.392966
0.0308002
-0.0523821
0.0302204
0.0649383
-0.0183855
-0.0238517
-2.4918e-05
-0.0236212
-0.0110068
-0.0184909
-0.0644751
-0.0644851
-0.089296
-0.0885597
-0.0688513
-0.0698374
-0.0348982
-0.0265035
-0.0284844
0.00111126
-0.0451058
0.0225188
-0.0376519
0.0640879
-0.00821817
0.0883188
-0.00990975
0.105161
-0.0650264
0.0890307
-0.167963
0.0587412
-0.341617
0.0132271
-0.377661
-0.258172
0.101696
-0.616939
0.420842
-0.0182439
-0.102225
0.0108662
0.0559294
-0.0290874
-0.0112463
-0.0420872
-0.0328577
-0.0719692
-0.053091
-0.0885697
-0.0797214
-0.0691012
-0.0735939
-0.0274897
-0.0224848
0.00950594
0.0450779
0.0521144
0.103574
0.131712
0.14561
0.190059
0.160705
0.201698
0.149631
0.204101
0.147957
0.212798
0.132601
0.239931
0.165484
0.096672
0.310326
-0.49745
0.180198
-0.297793
-0.899236
0.12305
-0.0280518
-0.10893
0.033817
0.0694235
-0.0150165
0.0216343
-0.0438615
-0.0243136
-0.0608433
-0.0459081
-0.0647457
-0.0673708
-0.0269776
-0.0560166
0.0500827
0.0148965
0.139146
0.0838193
0.197069
0.122007
0.174602
0.101089
0.120277
0.044582
0.0958908
0.0146185
0.0764569
-0.0049353
0.0852865
-0.0214148
0.235879
-0.00151191
0.393852
0.227587
-0.221588
0.532411
-0.478393
-0.445438
-0.262815
-0.0114543
-0.079432
0.0572408
0.078145
0.0123371
0.0492282
-0.0263602
-0.00600211
-0.0524356
-0.0413239
-0.0586417
-0.0737596
-0.0141425
-0.0531848
0.0486331
0.0285477
0.0666803
0.0669157
0.0260269
0.0337488
-0.0289309
-0.0165607
-0.061077
-0.0341069
-0.0862076
-0.0553285
-0.102807
-0.0949558
-0.108213
-0.108987
-0.00980416
-0.12935
0.366146
-0.0347739
0.308562
0.565599
-0.22986
0.234639
-0.493132
0.0101673
-0.0434079
0.0701324
0.0734822
0.0308889
0.0634126
-0.0209657
0.005835
-0.0626478
-0.0430395
-0.0683026
-0.0794173
-0.0104945
-0.0573422
0.0468303
0.0353769
0.0339841
0.0721076
-0.00883877
0.016535
-0.0217367
-0.0108745
-0.0283584
0.00775833
-0.0640767
-0.0115407
-0.101136
-0.0649915
-0.130124
-0.0893678
-0.15432
-0.105982
0.164679
-0.173046
0.491677
0.352344
-0.0286325
0.507913
-0.463612
0.019907
-0.0154277
0.0667624
0.0555695
0.0383587
0.0644821
-0.0162387
0.0188101
-0.0598089
-0.044609
-0.0684568
-0.0639046
-0.0114708
-0.0594905
0.0606542
0.0406141
0.0546585
0.0968646
0.0144993
0.0445747
0.0186205
0.0265785
0.0245761
0.0533758
-0.0124554
0.0521208
-0.0532231
-0.00811011
-0.0652255
-0.0464565
-0.124708
-0.032864
0.0146189
-0.140804
0.36858
0.127778
0.072933
0.453382
-0.311934
0.0202348
0.00440176
0.0532893
0.0334929
0.0449335
0.0551667
-0.00956024
0.0303795
-0.0487048
-0.0451248
-0.0549383
-0.036516
-0.00740561
-0.0506974
0.0768245
0.0317407
0.0867808
0.113016
0.0566539
0.0855789
0.0613338
0.0795522
0.0809205
0.0969009
0.056466
0.115564
-0.00134354
0.0416746
-0.0140951
-0.0211953
-0.0489601
0.00976276
-0.0276453
-0.0696846
0.21258
0.0564662
0.0685151
0.271717
-0.185531
0.0176599
0.0167681
0.0353704
0.0132995
0.0406126
0.0400481
-0.00518514
0.0321731
-0.032936
-0.0330594
-0.032275
-0.0270287
-0.0115511
-0.0400066
0.0679316
-0.0061925
0.111814
0.0990085
0.108477
0.113847
0.115119
0.121373
0.131545
0.135668
0.100773
0.140772
0.0218228
0.045059
0.00266254
-0.0272037
-0.0109618
0.0163478
0.0144269
-0.0386869
0.115603
0.0782814
0.0176702
0.0836055
-0.0848163
0.0124077
0.0215519
0.0179772
-0.00344491
0.0316086
0.0268691
0.00429886
0.0250656
-0.0271521
-0.0164176
-0.0347603
-0.0430927
-0.034648
-0.0433007
0.0248843
-0.0424493
0.101042
0.046166
0.126743
0.0896284
0.141921
0.103234
0.144895
0.123029
0.0850587
0.0971906
-0.00396752
-0.00112861
-0.0135185
-0.0550877
-0.0113773
0.00519933
0.0251676
-0.0336842
0.0462836
0.0863058
-0.018881
-0.0565296
-0.0313565
0.0056993
0.0261193
0.00544693
-0.0131919
0.0203261
0.0174294
0.0043492
0.0123466
-0.0323582
-0.00768747
-0.0516331
-0.0507986
-0.051102
-0.0533734
-0.0211676
-0.0554288
0.034752
-0.0152707
0.0661186
0.0177577
0.0843416
0.0295385
0.0753246
0.0503951
0.0110033
0.0128158
-0.0522488
-0.0596795
-0.0363699
-0.0757688
-0.0171075
-0.00160542
0.0274539
-0.026734
-0.0165074
0.0895153
-0.069005
-0.156691
0.0166572
0.00722812
0.0183125
-0.00120938
-0.0247575
0.00944987
0.00421911
0.000309918
-0.00281187
-0.0261278
-0.00793474
-0.0525388
-0.0401787
-0.0577002
-0.0536714
-0.0495318
-0.0561285
-0.032265
-0.0483837
-0.0188224
-0.0374817
-0.00440795
-0.0328463
-0.0121136
-0.0124283
-0.0578669
-0.0292004
-0.0831995
-0.0736094
-0.0410043
-0.0691385
-0.0112319
0.00150575
0.0353273
-0.0218177
-0.0506684
0.0684117
-0.0710288
-0.145211
0.137459
-0.0136731
0.0568487
-0.019329
-0.00450219
-0.00804263
0.00933081
-0.0110565
-0.00598588
-0.0219856
-0.00894652
-0.0413112
-0.0260088
-0.0520997
-0.0397494
-0.0549804
-0.0439114
-0.0536005
-0.0433858
-0.0515057
-0.0413648
-0.0408667
-0.0341137
-0.0295151
-0.0158758
-0.0449429
-0.0151948
-0.0595484
-0.0444548
-0.0266284
-0.0405728
-0.00908002
-0.000455388
0.0112667
-0.0495096
-0.0261312
-0.0293424
0.0632768
-0.00468112
0.192115
0.0660197
-0.0813351
0.0241576
-0.124002
0.0113876
-0.073508
-0.00387587
-0.0527079
-0.0129698
-0.0317156
-0.024447
-0.027465
-0.0315612
-0.0279522
-0.0323168
-0.0264182
-0.0311501
-0.0192849
-0.0239727
-0.0142105
-0.00912276
-0.00421034
-0.00155542
0.00461492
-0.0147066
-0.00193024
-0.0254792
-0.0291573
-0.0143998
-0.0227949
-0.040885
-0.0518639
-0.0901186
-0.081328
-0.00789233
-0.178399
0.124157
-0.0322476
-0.325944
-0.271357
0.363366
-0.221668
0.293778
-0.137603
0.241278
-0.0805476
0.156535
-0.0462108
0.112521
-0.0309702
0.0884466
-0.0228093
0.0727596
-0.0133863
0.0584106
-0.00234533
0.0526276
0.00555187
0.0495002
0.00952734
0.0531431
0.0042401
0.0488337
-0.0163809
0.0351943
-0.026473
0.0123608
-0.0602591
0.0438398
-0.0923069
-0.102535
-0.169608
0.0964059
-0.202754
-0.191116
-0.482348
-0.315459
-1.3475
0.9285
-0.502995
0.756723
-0.69151
0.535416
-0.519301
0.349603
-0.366176
0.247178
-0.253181
0.192176
-0.171108
0.153979
-0.117355
0.124424
-0.0852365
0.104473
-0.0608855
0.0970914
-0.0438157
0.0924494
-0.0298668
0.0797879
-0.0292871
0.063936
-0.0313533
0.0826737
-0.0572412
0.00156402
0.0148109
0.0861779
-0.260699
0.074898
0.680858
-0.303821
-0.0758466
-1.18061
0.0966319
-0.333732
-2.12301
0.618284
-1.96753
0.36179
-1.42089
0.326122
-0.96896
0.130905
-0.671467
0.0734913
-0.480639
0.0660572
-0.356571
0.0492258
-0.270546
0.031948
-0.209174
0.0262491
-0.170774
0.028748
-0.151603
0.0295736
-0.140428
0.0304944
-0.152531
0.0415009
-0.125104
0.00241337
-0.247452
0.100198
0.333982
-0.358031
0.530114
1.31112
0.324607
-1.61734
0.943515
2.59768
4.05892
3.10308
1.30242
2.65545
-0.167075
1.87792
0.812552
1.17336
0.502274
0.811016
0.228301
0.595922
0.152414
0.437744
0.127256
0.328744
0.0989814
0.264171
0.0763472
0.229095
0.0669546
0.211671
0.0638953
0.212424
0.0616893
0.196445
0.0692649
0.227715
0.0171729
-0.0103814
0.133927
0.619105
-0.488329
-0.836334
1.53406
0.655733
-5.66489
5.71308
10.5387
-5.61522
-1.96773
-2.00997
-0.563095
-0.442783
-0.430301
-0.316252
-0.211506
-0.153415
-0.12087
-0.0982456
-0.0860868
-0.0814694
-0.110007
-0.0766156
-0.344021
0.42663
-3.29449
4.21805
-0.789625
)
;

boundaryField
{
    movingWall
    {
        type            calculated;
        value           nonuniform List<scalar> 
20
(
-0.634455
-3.30101
-0.718923
-0.407267
-0.478298
-0.382304
-0.250199
-0.172814
-0.134016
-0.107723
-0.0887682
-0.0834053
-0.0795335
-0.14048
-0.0127508
-0.675291
1.52855
-8.11753
16.5536
-18.1329
)
;
    }
    fixedWalls
    {
        type            calculated;
        value           nonuniform List<scalar> 
60
(
0.00587005
0.00498933
-0.018876
-0.0858882
-0.118562
-0.099297
-0.0595671
-0.0272486
-0.0036067
0.0124102
0.0211259
0.0219779
0.0302607
0.00636421
0.107333
-0.270003
0.996735
-2.00273
3.23929
-0.634455
0.0288043
0.279569
0.506362
0.335323
-0.0892222
-0.436408
-0.549855
-0.377369
-0.246498
-0.124565
-0.0450677
-0.0176453
0.0509597
0.223959
0.160272
-0.812159
-1.88285
1.21539
6.90245
-18.1329
0.00587005
0.0608923
0.0348851
0.0423534
0.0926122
0.141604
0.120123
0.0923725
0.0737892
0.0631843
0.0939414
0.129307
0.149414
0.186274
0.133424
-0.0703623
-0.180788
-0.0188423
0.0647319
0.0288043
)
;
    }
    frontAndBack
    {
        type            empty;
        value           nonuniform List<scalar> 0();
    }
}


// ************************************************************************* //
