/*--------------------------------*- C++ -*----------------------------------*\
| =========                 |                                                 |
| \\      /  F ield         | OpenFOAM: The Open Source CFD Toolbox           |
|  \\    /   O peration     | Version:  2312                                  |
|   \\  /    A nd           | Website:  www.openfoam.com                      |
|    \\/     M anipulation  |                                                 |
\*---------------------------------------------------------------------------*/
FoamFile
{
    version     2.0;
    format      ascii;
    arch        "LSB;label=32;scalar=64";
    class       surfaceScalarField;
    location    "2.5";
    object      surfaceK;
}
// * * * * * * * * * * * * * * * * * * * * * * * * * * * * * * * * * * * * * //

dimensions      [0 2 -2 0 0 0 0];

internalField   nonuniform List<scalar> 
760
(
6.88908e-05
6.5935e-05
0.000112516
0.000107779
0.000175436
0.000166081
0.000260394
0.000242565
0.000382529
0.00035399
0.000555741
0.000513411
0.000770857
0.000717656
0.000982542
0.000911219
0.00112952
0.00103674
0.00119832
0.00109254
0.00121966
0.00111229
0.00120029
0.00112589
0.00114692
0.00112906
0.00108274
0.00113551
0.00100427
0.00114872
0.000883953
0.00114022
0.000670531
0.00108281
0.000374719
0.000888754
0.000154009
0.000436683
0.000146575
0.000104823
0.00010782
0.000161344
0.000175314
0.00023321
0.000244899
0.000336161
0.000340168
0.000484872
0.000494268
0.000675326
0.000685008
0.000858017
0.000833397
0.000965417
0.000924534
0.000999765
0.000948716
0.00100651
0.000933648
0.00101851
0.000929103
0.00105466
0.000946763
0.00111765
0.000999023
0.00120149
0.00106947
0.00128467
0.00116816
0.00133908
0.00127731
0.00130103
0.00138577
0.000950718
0.00137696
0.00042925
0.00103676
0.000444439
0.000178312
0.000171915
0.000258869
0.000272178
0.000351857
0.000366683
0.000498276
0.000493933
0.000694404
0.000684405
0.00084308
0.000832923
0.000899914
0.000883667
0.000907833
0.000877788
0.0008826
0.000831905
0.000856243
0.00079787
0.000857355
0.000791366
0.000891129
0.000816989
0.000950835
0.00086926
0.00103614
0.000926712
0.0011608
0.00101807
0.001324
0.00114629
0.0014617
0.00133322
0.001463
0.00154329
0.00105195
0.00161411
0.00109651
0.000265781
0.000246192
0.000379992
0.000374907
0.000508759
0.000501667
0.000680062
0.00065662
0.000822924
0.000818182
0.00087351
0.000876012
0.000861541
0.000862162
0.00080186
0.000788298
0.000747175
0.000721492
0.000732993
0.000704448
0.000751001
0.00071744
0.000795119
0.000762634
0.000845137
0.000805987
0.00090864
0.000855919
0.00100356
0.000927198
0.00115551
0.00103314
0.00141482
0.00121242
0.0016944
0.00152149
0.00165867
0.00189417
0.00189715
0.000355319
0.000323541
0.000496582
0.000466443
0.000649529
0.000616972
0.00079474
0.000776055
0.00087127
0.000872147
0.000864665
0.000880274
0.00078892
0.000809021
0.00070793
0.000700848
0.000678765
0.000661872
0.000688896
0.000658814
0.000729074
0.000690792
0.000773501
0.000735403
0.000816768
0.000771759
0.000874476
0.000826147
0.00095678
0.000896909
0.00109004
0.000995262
0.00131909
0.00116005
0.00172126
0.00144911
0.00213265
0.00198624
0.00253863
0.000434665
0.000397504
0.000586833
0.000533145
0.000743498
0.000697211
0.000853462
0.000840204
0.000881151
0.000892787
0.00082463
0.000867448
0.00072095
0.000745517
0.00065479
0.000647795
0.000641922
0.000623853
0.000660711
0.000624735
0.000697121
0.000650135
0.00073366
0.00067406
0.000781138
0.000706797
0.00084858
0.000772292
0.000935391
0.000864657
0.00106527
0.000976828
0.00129007
0.00114163
0.0017141
0.00143092
0.00239222
0.0019933
0.0029537
0.000495984
0.00046443
0.000643523
0.000573161
0.000793917
0.000740743
0.000879529
0.000863977
0.000879084
0.000898234
0.000788334
0.000846263
0.000672362
0.00069707
0.000616858
0.000611728
0.000606667
0.000588395
0.000614159
0.000582467
0.000627074
0.000583883
0.000647197
0.000584556
0.000697951
0.000605449
0.000788369
0.000681392
0.000906093
0.000808411
0.0010532
0.000959071
0.00128249
0.00113589
0.00171013
0.0014346
0.00255478
0.00200049
0.0032311
0.000541607
0.000521456
0.00067038
0.000586796
0.000810802
0.000750567
0.000882682
0.000865108
0.000865413
0.000895256
0.000754999
0.000832524
0.000636436
0.000676176
0.000583264
0.000583917
0.000564195
0.000552735
0.000552191
0.000537712
0.000541366
0.000518239
0.000542809
0.0005039
0.00058889
0.000514347
0.000701434
0.000595909
0.000861389
0.00075643
0.00104177
0.000945176
0.00128801
0.00114062
0.00172497
0.00145286
0.00267681
0.00203569
0.00343877
0.000566645
0.000566566
0.000666982
0.000582966
0.000804872
0.000738657
0.000877681
0.000854649
0.000862366
0.00089091
0.0007537
0.000835028
0.000623656
0.000683004
0.000553388
0.00057246
0.000526253
0.000526746
0.000503761
0.000502421
0.000480774
0.000475512
0.000475439
0.000456021
0.000521366
0.000468136
0.000650905
0.00055131
0.000840217
0.000734856
0.00104403
0.000954231
0.00130548
0.00116191
0.00176358
0.00147507
0.00279765
0.00209565
0.00362037
0.000582888
0.000600069
0.000654641
0.000572168
0.000788434
0.000713956
0.000867877
0.000832882
0.000863572
0.000885345
0.000764332
0.000847201
0.000631808
0.00071119
0.000545818
0.000584944
0.000502914
0.000521976
0.000474173
0.000488043
0.000450759
0.000460701
0.000448718
0.000443943
0.00049808
0.000461325
0.000635261
0.000546301
0.00084887
0.000752098
0.00107212
0.000998175
0.0013315
0.00120114
0.00180714
0.00149067
0.00291837
0.00216325
0.00379987
0.000589348
0.000618323
0.000631482
0.000556132
0.000758405
0.000680006
0.00085035
0.000801125
0.000868974
0.000876133
0.000794059
0.000866559
0.000664326
0.000772395
0.000561103
0.000630393
0.000507105
0.00054576
0.000474571
0.000500189
0.000453885
0.000470021
0.000456549
0.000463966
0.000509546
0.000489769
0.000663137
0.000587725
0.000901403
0.000818626
0.0011272
0.00106871
0.00136031
0.00124344
0.00184678
0.00149698
0.00304475
0.00223358
0.0039951
0.000585107
0.000619768
0.000604655
0.000536329
0.000722727
0.000642574
0.000826909
0.000764238
0.000873718
0.000858846
0.000844895
0.000886452
0.000738461
0.000843329
0.00061505
0.000731888
0.000538844
0.000621797
0.000495639
0.000553295
0.000480101
0.000515105
0.000497186
0.000521142
0.000567949
0.000562579
0.000743214
0.000680841
0.000985929
0.000917123
0.00118495
0.00113376
0.00138011
0.00126876
0.00188377
0.00147979
0.00318392
0.0022947
0.00422028
0.00057099
0.000607849
0.000574248
0.000514015
0.000684086
0.000605367
0.000796175
0.00072565
0.00087158
0.000832638
0.000884886
0.000896519
0.000836756
0.000898367
0.000738635
0.000850705
0.000636248
0.000761158
0.000572761
0.000684407
0.000556145
0.000635449
0.000586534
0.000644983
0.000675471
0.000691901
0.00085475
0.00080788
0.00106495
0.00099851
0.00121757
0.00116712
0.00136844
0.00126421
0.00189072
0.0014157
0.00333107
0.00233325
0.00449017
0.000550873
0.000579117
0.000545133
0.000485609
0.000646931
0.000567333
0.000762113
0.000687429
0.000857578
0.000801868
0.00091
0.000893059
0.000912315
0.000935693
0.000873227
0.000935
0.000809318
0.000900026
0.000747095
0.000849486
0.000724286
0.000801353
0.000750349
0.000802568
0.00082431
0.00083272
0.00095164
0.000908719
0.00110068
0.00103196
0.00121376
0.00115513
0.00131147
0.00120868
0.00185823
0.0012926
0.00349235
0.00235059
0.00482318
0.000513853
0.000542779
0.000507808
0.000456613
0.000607831
0.000536116
0.000727184
0.000658212
0.000837349
0.000776803
0.000918753
0.000880805
0.000958378
0.000948713
0.000961798
0.000980425
0.000940194
0.000978605
0.000903744
0.000957792
0.000879634
0.000923499
0.000884939
0.000907538
0.000917129
0.000913789
0.000989043
0.000944426
0.00108642
0.00101153
0.00115005
0.00108602
0.00118981
0.00109806
0.00178496
0.00114992
0.00368142
0.00235398
0.00524555
0.000485539
0.000491679
0.000484921
0.000419834
0.000586498
0.000503055
0.000707831
0.000628863
0.000820258
0.00074848
0.000910766
0.00085272
0.00097076
0.000933204
0.000997232
0.00098234
0.000996202
0.000996446
0.000977547
0.000988005
0.000951402
0.000965111
0.000936387
0.000937446
0.000941086
0.000923238
0.00096691
0.000928379
0.00101113
0.00095332
0.00103403
0.000995336
0.00105817
0.000990812
0.00171894
0.0010636
0.00391811
0.00242374
0.0057944
0.000425974
0.000470084
0.000437968
0.000401613
0.00054542
0.000495126
0.000669512
0.000621069
0.000780942
0.000736167
0.000875158
0.00083519
0.000944783
0.000917057
0.000981554
0.000970905
0.000988249
0.000995078
0.000975569
0.000991543
0.000951154
0.000977554
0.000924296
0.000953122
0.000910531
0.000930741
0.000914788
0.000924416
0.000937527
0.000931661
0.000952121
0.000956913
0.000996248
0.000975136
0.0017684
0.00118403
0.00430003
0.00274937
0.00657062
0.000445723
0.000581195
0.000458771
0.000584734
0.000570775
0.000766136
0.000687724
0.000926174
0.000790416
0.00105506
0.000877089
0.00116237
0.000943178
0.0012515
0.000984428
0.00131951
0.000998372
0.00136744
0.000993528
0.00139378
0.000979522
0.00141297
0.000959567
0.00143071
0.000944626
0.00144709
0.000941289
0.00148647
0.000951047
0.00152965
0.000979928
0.00162127
0.00116292
0.00175095
0.002165
0.00231488
0.00501996
0.00377195
0.00778857
0.000720205
0.00244452
0.000892099
0.0036515
0.00112154
0.00468854
0.00129351
0.00528425
0.00142702
0.00562473
0.00153679
0.0058325
0.00162784
0.00595728
0.00170252
0.00603355
0.00176284
0.00606901
0.00181322
0.00609153
0.00186415
0.00610502
0.00191823
0.00612251
0.00198893
0.00614346
0.00207483
0.00619018
0.00219987
0.00624286
0.00239229
0.00635192
0.00290291
0.00653683
0.00392184
0.00696158
0.00654056
0.00789368
0.00939711
0.00537582
0.00744794
0.00885126
0.00961547
0.0100302
0.010253
0.010363
0.0104
0.0103977
0.0103833
0.0103634
0.0103477
0.0103447
0.0103582
0.0103949
0.0104965
0.0105955
0.0109334
0.0107502
)
;

boundaryField
{
    movingWall
    {
        type            calculated;
        value           nonuniform List<scalar> 
20
(
0.00420965
0.00654198
0.0083539
0.00934861
0.00988233
0.0101781
0.0103279
0.0103981
0.010402
0.0103934
0.0103732
0.0103535
0.010342
0.0103474
0.010369
0.0104208
0.0105721
0.0106189
0.0112479
0.0102525
)
;
    }
    fixedWalls
    {
        type            calculated;
        value           nonuniform List<scalar> 
60
(
5.26386e-05
7.92314e-05
0.00013641
0.00020742
0.000284965
0.000362116
0.000432892
0.000495968
0.000546944
0.000586189
0.000613948
0.000622699
0.000616838
0.00059886
0.000559374
0.000526184
0.000457174
0.000482995
0.000679394
0.00420965
9.01715e-05
0.000202979
0.000685899
0.00150712
0.00228718
0.00279008
0.00311733
0.00334486
0.00353268
0.00370806
0.00389169
0.0040985
0.00434206
0.00463827
0.00500809
0.005483
0.0061058
0.00703544
0.0085417
0.0102525
5.26386e-05
8.5143e-05
0.000139889
0.000210983
0.000309806
0.000455251
0.00065623
0.000885485
0.0010796
0.00117943
0.00121721
0.00122212
0.00117847
0.00111537
0.00105011
0.000958436
0.00080947
0.000531591
0.000217846
9.01715e-05
)
;
    }
    frontAndBack
    {
        type            empty;
        value           nonuniform List<scalar> 0();
    }
}


// ************************************************************************* //
