/*--------------------------------*- C++ -*----------------------------------*\
| =========                 |                                                 |
| \\      /  F ield         | OpenFOAM: The Open Source CFD Toolbox           |
|  \\    /   O peration     | Version:  2312                                  |
|   \\  /    A nd           | Website:  www.openfoam.com                      |
|    \\/     M anipulation  |                                                 |
\*---------------------------------------------------------------------------*/
FoamFile
{
    version     2.0;
    format      ascii;
    arch        "LSB;label=32;scalar=64";
    class       volScalarField;
    location    "2.5";
    object      totalP;
}
// * * * * * * * * * * * * * * * * * * * * * * * * * * * * * * * * * * * * * //

dimensions      [1 -1 -2 0 0 0 0];

internalField   nonuniform List<scalar> 
400
(
1
1
1.00001
1.00003
1.00008
1.00023
1.00059
1.00137
1.00265
1.00427
1.00582
1.00683
1.00701
1.00626
1.00633
1.00656
1.0064
1.00596
1.00557
1.00536
1.00005
1.00004
1.0001
1.00025
1.00058
1.00128
1.00257
1.00441
1.00658
1.00865
1.01026
1.01119
1.01128
1.01057
1.00946
1.00949
1.00879
1.00728
1.00574
1.00521
1.00011
1.00016
1.00032
1.00069
1.00145
1.00279
1.00476
1.00704
1.00914
1.0107
1.01163
1.01204
1.01203
1.01167
1.01115
1.01038
1.01116
1.01037
1.00746
1.00511
1.00016
1.00033
1.00066
1.00128
1.00244
1.00428
1.00651
1.00852
1.00978
1.01016
1.00994
1.00943
1.00896
1.00878
1.00902
1.00987
1.0109
1.01247
1.01091
1.0056
1.00028
1.00064
1.0011
1.00193
1.0034
1.00543
1.00743
1.00862
1.00863
1.00778
1.00666
1.00577
1.00529
1.00517
1.00555
1.00676
1.00917
1.0121
1.01403
1.00759
1.00055
1.00103
1.0016
1.00257
1.00418
1.00611
1.00757
1.00778
1.00676
1.00528
1.00409
1.00345
1.00321
1.0033
1.00369
1.00461
1.00672
1.01092
1.0152
1.01072
1.00087
1.00147
1.00209
1.00311
1.00471
1.0064
1.00726
1.00668
1.00506
1.00342
1.00239
1.00197
1.00201
1.00239
1.00301
1.0039
1.00551
1.00931
1.01621
1.01535
1.00119
1.00189
1.00252
1.0035
1.00499
1.00641
1.00681
1.00579
1.00389
1.0022
1.00122
1.00089
1.00114
1.00184
1.00275
1.00375
1.00519
1.00832
1.01621
1.02077
1.00145
1.00222
1.00282
1.0037
1.00503
1.00621
1.00641
1.00527
1.0033
1.00156
1.00051
1.00019
1.00057
1.00151
1.00263
1.00371
1.00507
1.00784
1.01581
1.02486
1.0016
1.00242
1.00296
1.00371
1.00483
1.00589
1.00609
1.00512
1.00328
1.00152
1.0004
1.00002
1.00043
1.00144
1.00257
1.00362
1.00484
1.00732
1.01521
1.02776
1.00162
1.00248
1.00296
1.00355
1.00444
1.00539
1.00573
1.00513
1.00369
1.00209
1.00095
1.00049
1.00079
1.00161
1.00253
1.00341
1.00444
1.00661
1.01431
1.02976
1.00152
1.0024
1.00283
1.00327
1.00393
1.00472
1.00519
1.00501
1.00417
1.00299
1.00199
1.00148
1.00152
1.00193
1.00246
1.00306
1.00387
1.00571
1.01309
1.03124
1.00133
1.00221
1.0026
1.00292
1.00337
1.00396
1.00446
1.00461
1.00432
1.00368
1.00298
1.00247
1.00225
1.00221
1.00233
1.00262
1.00317
1.00466
1.01166
1.03243
1.00111
1.00196
1.00231
1.00254
1.00283
1.00323
1.00367
1.00398
1.00403
1.00383
1.00345
1.00302
1.00264
1.00232
1.00213
1.00215
1.00244
1.00359
1.01001
1.03339
1.00087
1.00165
1.00196
1.00214
1.00233
1.0026
1.00295
1.00329
1.00352
1.00357
1.00343
1.00314
1.00274
1.00232
1.00195
1.00176
1.00179
1.00261
1.00816
1.03403
1.00072
1.00137
1.00162
1.00174
1.00188
1.00209
1.00237
1.0027
1.003
1.00319
1.00322
1.00306
1.00274
1.00232
1.00186
1.00151
1.00131
1.00192
1.00629
1.03472
1.00045
1.00093
1.00114
1.00128
1.00143
1.00163
1.00192
1.00226
1.00261
1.00289
1.00304
1.00303
1.00281
1.00244
1.00195
1.0015
1.00107
1.00169
1.00487
1.03622
1.00095
1.00123
1.00114
1.00108
1.00113
1.00132
1.00163
1.00202
1.00245
1.00285
1.00315
1.00328
1.00322
1.00296
1.0025
1.00203
1.00134
1.00221
1.00331
1.03658
1.00011
1.0001
1.00009
1.0003
1.00068
1.00122
1.0019
1.00267
1.00348
1.00426
1.00496
1.00553
1.00592
1.00615
1.00611
1.00604
1.00489
1.00708
1.00389
1.04408
1.00516
1.00554
1.00535
1.00634
1.00835
1.01048
1.01274
1.01507
1.01741
1.01969
1.02186
1.02385
1.02559
1.0271
1.02812
1.02922
1.02743
1.0359
1.01372
1.13588
)
;

boundaryField
{
    movingWall
    {
        type            calculated;
        value           nonuniform List<scalar> 
20
(
1.5
1.50137
1.50075
1.5
1.5
1.5
1.5
1.5
1.5
1.5
1.5
1.5
1.5
1.5
1.5
1.5
1.5
1.50356
1.50552
1.55895
)
;
    }
    fixedWalls
    {
        type            calculated;
        value           nonuniform List<scalar> 
60
(
1
1.00005
1.00008
1.00005
1
1
1
1
1
1
1
1
1
1
1
1
1
1
1
1
1.00535
1.0052
1.00505
1.0047
1.00367
1.00161
1
1
1
1
1
1
1
1
1
1
1
1
1.01549
1.05895
1
1
1
1
1
1
1
1
1
1
1
1
1
1
1.00163
1.00373
1.00518
1.00571
1.00556
1.00535
)
;
    }
    frontAndBack
    {
        type            empty;
    }
}


// ************************************************************************* //
