/*--------------------------------*- C++ -*----------------------------------*\
| =========                 |                                                 |
| \\      /  F ield         | OpenFOAM: The Open Source CFD Toolbox           |
|  \\    /   O peration     | Version:  2312                                  |
|   \\  /    A nd           | Website:  www.openfoam.com                      |
|    \\/     M anipulation  |                                                 |
\*---------------------------------------------------------------------------*/
FoamFile
{
    version     2.0;
    format      ascii;
    arch        "LSB;label=32;scalar=64";
    class       volScalarField;
    location    "2.5";
    object      turbulenceProperties:I;
}
// * * * * * * * * * * * * * * * * * * * * * * * * * * * * * * * * * * * * * //

dimensions      [0 0 0 0 0 0 0];

internalField   nonuniform List<scalar> 
400
(
0.00592388
0.00753406
0.00965707
0.0118598
0.0143714
0.0174213
0.0209162
0.0242966
0.0268278
0.0280408
0.0284863
0.0285437
0.0280294
0.0272687
0.0264589
0.0252776
0.0232303
0.0188254
0.0120512
0.00775334
0.0072678
0.00932434
0.0113218
0.013519
0.0162926
0.0195204
0.0227901
0.0249927
0.0257408
0.0258927
0.0259148
0.0261999
0.0268286
0.0277567
0.0288367
0.0296874
0.0300682
0.0288203
0.0209049
0.0116327
0.00953623
0.0121165
0.0140837
0.0164558
0.0198387
0.0230716
0.0243271
0.0246592
0.0245432
0.0239673
0.0238165
0.0239982
0.0247439
0.0256032
0.0269443
0.0286659
0.030718
0.0317071
0.0307462
0.0213838
0.0117592
0.0147002
0.0170459
0.0196922
0.0227808
0.0240471
0.024216
0.023713
0.0225131
0.0221223
0.0220891
0.0226584
0.0233828
0.0240852
0.0251282
0.0265829
0.0288797
0.0324405
0.0347393
0.0316977
0.0137832
0.0168458
0.0194507
0.0220842
0.0239153
0.0242848
0.0237305
0.0221079
0.0213342
0.0212101
0.0216485
0.0224375
0.022976
0.0236882
0.0245935
0.0259011
0.0279736
0.0312452
0.0363145
0.0390485
0.0155374
0.0183887
0.0210785
0.0233887
0.0243089
0.024165
0.0227059
0.0211118
0.0206724
0.0207014
0.0212697
0.0218425
0.0223857
0.0232465
0.0243113
0.0256154
0.0276443
0.0309174
0.0364634
0.0431283
0.0169881
0.0193059
0.0220298
0.0239425
0.0244839
0.0239301
0.0218738
0.0204455
0.0201111
0.0201105
0.020358
0.0205341
0.0210066
0.0221206
0.0237031
0.0254222
0.0275313
0.0308547
0.0364439
0.0455875
0.0181837
0.0197863
0.022413
0.0240567
0.0244578
0.0235733
0.0212359
0.0199404
0.0194953
0.0192923
0.0190804
0.0189145
0.0191308
0.0204744
0.0227166
0.025149
0.0275055
0.0309966
0.0365947
0.0472219
0.0190953
0.0197711
0.0223251
0.023974
0.0244027
0.0235442
0.0212274
0.0195176
0.0188921
0.0185677
0.018081
0.0177231
0.0178832
0.0193738
0.0221929
0.0250552
0.0276455
0.0312468
0.0370821
0.0485296
0.0197685
0.0196568
0.0220559
0.0237651
0.024339
0.023644
0.0214492
0.0195536
0.0185854
0.0180315
0.0175241
0.017144
0.0174463
0.0189666
0.0220744
0.0253879
0.0280168
0.0314705
0.0376713
0.0497196
0.0202311
0.0194036
0.0215749
0.0233608
0.0242502
0.0238864
0.0220949
0.0199395
0.0187231
0.018044
0.0175264
0.0172628
0.0176274
0.0192007
0.022705
0.0261984
0.0285758
0.031578
0.038278
0.0509358
0.0203748
0.0191052
0.0210047
0.0228569
0.0240854
0.0241837
0.0232739
0.0210461
0.0194197
0.0184752
0.0178751
0.0179057
0.0185013
0.0203707
0.0239997
0.0271769
0.0290059
0.0316039
0.0388959
0.0522717
0.0202787
0.0187108
0.0203855
0.0222833
0.0237702
0.0244353
0.0241405
0.0230849
0.0212588
0.0199097
0.0191647
0.0193453
0.0201942
0.0221996
0.0254331
0.0278046
0.0291604
0.031213
0.0393283
0.0538025
0.019981
0.01831
0.0197886
0.0217023
0.0233487
0.0244597
0.0248004
0.0245227
0.0237264
0.0227189
0.0219084
0.0220394
0.0226876
0.0241734
0.026163
0.0279833
0.0289012
0.0302217
0.0395511
0.0556074
0.019311
0.0176698
0.0191012
0.0211089
0.0228909
0.0243407
0.0251502
0.0254028
0.0252407
0.0248294
0.0242589
0.0241734
0.0244042
0.0250454
0.0262954
0.0275156
0.027862
0.0284625
0.039621
0.0577817
0.0187294
0.017222
0.0187074
0.0207854
0.0226217
0.0241233
0.0251479
0.025728
0.0258402
0.0257013
0.0253543
0.0250139
0.0249564
0.0251388
0.0256369
0.0262853
0.0262256
0.0268906
0.0396083
0.0604594
0.017458
0.0162229
0.0179102
0.0201607
0.0220506
0.023559
0.0247357
0.025453
0.0257076
0.0256278
0.0253766
0.0249846
0.024661
0.0246146
0.0247758
0.0252229
0.0251654
0.0263634
0.0407779
0.0638007
0.0179443
0.0165016
0.0184226
0.0205339
0.0222559
0.0236339
0.0247162
0.0254299
0.0258048
0.0257929
0.0256794
0.0254283
0.025156
0.0250335
0.0250674
0.0252921
0.0258241
0.0297266
0.0447548
0.0684857
0.0212821
0.0225243
0.0261175
0.0285177
0.0301898
0.0314844
0.0325235
0.0333567
0.03402
0.0345412
0.0349932
0.0355107
0.0360087
0.0368142
0.0375654
0.0390128
0.0408377
0.0469343
0.0550117
0.0754617
0.0529758
0.0660403
0.0746275
0.0789456
0.0811678
0.0823735
0.0829775
0.083259
0.0832746
0.0832403
0.0831594
0.0830803
0.083034
0.083056
0.0831423
0.0833501
0.0839527
0.0841385
0.0865946
0.0826741
)
;

boundaryField
{
    movingWall
    {
        type            calculated;
        value           nonuniform List<scalar> 
20
(
0.0529758
0.0660403
0.0746275
0.0789456
0.0811678
0.0823735
0.0829775
0.083259
0.0832746
0.0832403
0.0831594
0.0830803
0.083034
0.083056
0.0831423
0.0833501
0.0839527
0.0841385
0.0865946
0.0826741
)
;
    }
    fixedWalls
    {
        type            calculated;
        value           nonuniform List<scalar> 
60
(
0.00592388
0.0072678
0.00953623
0.0117592
0.0137832
0.0155374
0.0169881
0.0181837
0.0190953
0.0197685
0.0202311
0.0203748
0.0202787
0.019981
0.019311
0.0187294
0.017458
0.0179443
0.0212821
0.0529758
0.00775334
0.0116327
0.0213838
0.0316977
0.0390485
0.0431283
0.0455875
0.0472219
0.0485296
0.0497196
0.0509358
0.0522717
0.0538025
0.0556074
0.0577817
0.0604594
0.0638007
0.0684857
0.0754617
0.0826741
0.00592388
0.00753406
0.00965707
0.0118598
0.0143714
0.0174213
0.0209162
0.0242966
0.0268278
0.0280408
0.0284863
0.0285437
0.0280294
0.0272687
0.0264589
0.0252776
0.0232303
0.0188254
0.0120512
0.00775334
)
;
    }
    frontAndBack
    {
        type            empty;
    }
}


// ************************************************************************* //
