/*--------------------------------*- C++ -*----------------------------------*\
| =========                 |                                                 |
| \\      /  F ield         | OpenFOAM: The Open Source CFD Toolbox           |
|  \\    /   O peration     | Version:  2312                                  |
|   \\  /    A nd           | Website:  www.openfoam.com                      |
|    \\/     M anipulation  |                                                 |
\*---------------------------------------------------------------------------*/
FoamFile
{
    version     2.0;
    format      ascii;
    arch        "LSB;label=32;scalar=64";
    class       volSymmTensorField;
    location    "2.5";
    object      turbulenceProperties:R;
}
// * * * * * * * * * * * * * * * * * * * * * * * * * * * * * * * * * * * * * //

dimensions      [0 2 -2 0 0 0 0];

internalField   nonuniform List<symmTensor> 
400
(
(3.50924e-05 -0 -0 3.50924e-05 -0 3.50924e-05)
(5.6762e-05 1.39838e-19 -0 5.6762e-05 -0 5.6762e-05)
(9.3259e-05 -0 -0 9.3259e-05 -0 9.3259e-05)
(0.000140655 -2.20697e-19 -0 0.000140655 -0 0.000140655)
(0.000206537 -2.6837e-19 -0 0.000206537 -0 0.000206537)
(0.000303501 -0 -0 0.000303501 -0 0.000303501)
(0.000437487 -0 -0 0.000437487 -0 0.000437487)
(0.000590323 -0 -0 0.000590323 -0 0.000590323)
(0.000719732 -0 -0 0.000719732 -0 0.000719732)
(0.000786288 -0 -0 0.000786288 -0 0.000786288)
(0.00081147 -0 -0 0.00081147 -0 0.00081147)
(0.000814744 -0 -0 0.000814744 -0 0.000814744)
(0.000785646 -0 -0 0.000785646 -0 0.000785646)
(0.000743582 -0 -0 0.000743582 -0 0.000743582)
(0.000700072 -0 -0 0.000700072 -0 0.000700072)
(0.000638958 -0 -0 0.000638958 -0 0.000638958)
(0.000539647 -0 -0 0.000539647 -0 0.000539647)
(0.000354394 -0 -0 0.000354394 -0 0.000354394)
(0.000145231 -0 -0 0.000145231 -0 0.000145231)
(6.01143e-05 -0 -0 6.01143e-05 -0 6.01143e-05)
(5.28209e-05 -0 -0 5.28209e-05 -0 5.28209e-05)
(8.69433e-05 -0 -0 8.69433e-05 -0 8.69433e-05)
(0.000128183 -0 -0 0.000128183 -0 0.000128183)
(0.000182764 -0 -0 0.000182764 -0 0.000182764)
(0.00026545 -0 -0 0.00026545 -0 0.00026545)
(0.000381046 -0 -0 0.000381046 -0 0.000381046)
(0.000519388 -0 -0 0.000519388 -0 0.000519388)
(0.000624635 -0 -0 0.000624635 -0 0.000624635)
(0.000662587 -0 -0 0.000662587 -0 0.000662587)
(0.000670432 -0 -0 0.000670432 -0 0.000670432)
(0.000671579 -0 -0 0.000671579 -0 0.000671579)
(0.000686436 -0 -0 0.000686436 -0 0.000686436)
(0.000719772 -0 -0 0.000719772 -0 0.000719772)
(0.000770432 -0 -0 0.000770432 -0 0.000770432)
(0.000831554 -0 -0 0.000831554 -0 0.000831554)
(0.000881341 -0 -0 0.000881341 -0 0.000881341)
(0.000904094 -0 -0 0.000904094 -0 0.000904094)
(0.000830611 -0 -0 0.000830611 -0 0.000830611)
(0.000437013 -0 -0 0.000437013 -0 0.000437013)
(0.00013532 -0 -0 0.00013532 -0 0.00013532)
(9.09397e-05 -0 -0 9.09397e-05 -0 9.09397e-05)
(0.000146809 -0 -0 0.000146809 -0 0.000146809)
(0.000198349 -0 -0 0.000198349 -0 0.000198349)
(0.000270794 -0 -0 0.000270794 -0 0.000270794)
(0.000393574 -0 -0 0.000393574 -0 0.000393574)
(0.000532298 -0 -0 0.000532298 -0 0.000532298)
(0.000591808 -0 -0 0.000591808 -0 0.000591808)
(0.000608077 -0 -0 0.000608077 -0 0.000608077)
(0.000602368 -0 -0 0.000602368 -0 0.000602368)
(0.000574432 -0 -0 0.000574432 -0 0.000574432)
(0.000567226 -0 -0 0.000567226 -0 0.000567226)
(0.000575914 -0 -0 0.000575914 -0 0.000575914)
(0.000612259 -0 -0 0.000612259 -0 0.000612259)
(0.000655522 -0 -0 0.000655522 -0 0.000655522)
(0.000725996 -0 -0 0.000725996 -0 0.000725996)
(0.000821734 -0 -0 0.000821734 -0 0.000821734)
(0.000943594 -0 -0 0.000943594 -0 0.000943594)
(0.00100534 -0 -0 0.00100534 -0 0.00100534)
(0.000945329 -0 -0 0.000945329 -0 0.000945329)
(0.000457266 -0 -0 0.000457266 -0 0.000457266)
(0.00013828 -0 -0 0.00013828 -0 0.00013828)
(0.000216095 -0 -0 0.000216095 -0 0.000216095)
(0.000290562 -0 -0 0.000290562 -0 0.000290562)
(0.000387784 -0 -0 0.000387784 -0 0.000387784)
(0.000518966 -0 -0 0.000518966 -0 0.000518966)
(0.000578265 -0 -0 0.000578265 -0 0.000578265)
(0.000586414 -0 -0 0.000586414 -0 0.000586414)
(0.000562307 -0 -0 0.000562307 -0 0.000562307)
(0.000506839 -0 -0 0.000506839 -0 0.000506839)
(0.000489394 -0 -0 0.000489394 -0 0.000489394)
(0.000487929 -0 -0 0.000487929 -0 0.000487929)
(0.000513405 -0 -0 0.000513405 -0 0.000513405)
(0.000546754 -0 -0 0.000546754 -0 0.000546754)
(0.000580095 -0 -0 0.000580095 -0 0.000580095)
(0.000631426 -0 -0 0.000631426 -0 0.000631426)
(0.00070665 -0 -0 0.00070665 -0 0.00070665)
(0.000834036 -0 -0 0.000834036 -0 0.000834036)
(0.00105238 -0 -0 0.00105238 -0 0.00105238)
(0.00120682 -0 -0 0.00120682 -0 0.00120682)
(0.00100475 -0 -0 0.00100475 -0 0.00100475)
(0.000189977 -0 -0 0.000189977 -0 0.000189977)
(0.000283781 -0 -0 0.000283781 -0 0.000283781)
(0.000378328 -0 -0 0.000378328 -0 0.000378328)
(0.00048771 -0 -0 0.00048771 -0 0.00048771)
(0.000571943 -0 -0 0.000571943 -0 0.000571943)
(0.000589751 -0 -0 0.000589751 -0 0.000589751)
(0.000563135 -0 -0 0.000563135 -0 0.000563135)
(0.000488757 -0 -0 0.000488757 -0 0.000488757)
(0.00045515 -0 -0 0.00045515 -0 0.00045515)
(0.00044987 -0 -0 0.00044987 -0 0.00044987)
(0.000468658 -0 -0 0.000468658 -0 0.000468658)
(0.000503441 -0 -0 0.000503441 -0 0.000503441)
(0.000527895 -0 -0 0.000527895 -0 0.000527895)
(0.00056113 -0 -0 0.00056113 -0 0.00056113)
(0.000604839 -0 -0 0.000604839 -0 0.000604839)
(0.000670868 -0 -0 0.000670868 -0 0.000670868)
(0.000782525 -0 -0 0.000782525 -0 0.000782525)
(0.000976264 -0 -0 0.000976264 -0 0.000976264)
(0.00131875 -0 -0 0.00131875 -0 0.00131875)
(0.00152479 -0 -0 0.00152479 -0 0.00152479)
(0.000241411 -0 -0 0.000241411 -0 0.000241411)
(0.000338143 -0 -0 0.000338143 -0 0.000338143)
(0.000444301 -0 -0 0.000444301 -0 0.000444301)
(0.000547029 -0 -0 0.000547029 -0 0.000547029)
(0.00059092 -0 -0 0.00059092 -0 0.00059092)
(0.000583947 -0 -0 0.000583947 -0 0.000583947)
(0.00051556 -0 -0 0.00051556 -0 0.00051556)
(0.000445707 -0 -0 0.000445707 -0 0.000445707)
(0.000427347 -0 -0 0.000427347 -0 0.000427347)
(0.000428549 -0 -0 0.000428549 -0 0.000428549)
(0.000452399 -0 -0 0.000452399 -0 0.000452399)
(0.000477096 -0 -0 0.000477096 -0 0.000477096)
(0.000501118 -0 -0 0.000501118 -0 0.000501118)
(0.0005404 -0 -0 0.0005404 -0 0.0005404)
(0.00059104 -0 -0 0.00059104 -0 0.00059104)
(0.000656148 -0 -0 0.000656148 -0 0.000656148)
(0.000764207 -0 -0 0.000764207 -0 0.000764207)
(0.000955887 -0 -0 0.000955887 -0 0.000955887)
(0.00132958 -0 -0 0.00132958 -0 0.00132958)
(0.00186005 -0 -0 0.00186005 -0 0.00186005)
(0.000288594 -0 -0 0.000288594 -0 0.000288594)
(0.000372718 -0 -0 0.000372718 -0 0.000372718)
(0.000485313 -0 -0 0.000485313 -0 0.000485313)
(0.000573243 -0 -0 0.000573243 -0 0.000573243)
(0.000599463 -0 -0 0.000599463 -0 0.000599463)
(0.00057265 -0 -0 0.00057265 -0 0.00057265)
(0.000478463 -0 -0 0.000478463 -0 0.000478463)
(0.00041802 -0 -0 0.00041802 -0 0.00041802)
(0.000404458 -0 -0 0.000404458 -0 0.000404458)
(0.000404431 -0 -0 0.000404431 -0 0.000404431)
(0.000414448 -0 -0 0.000414448 -0 0.000414448)
(0.000421651 -0 -0 0.000421651 -0 0.000421651)
(0.000441279 -0 -0 0.000441279 -0 0.000441279)
(0.000489323 -0 -0 0.000489323 -0 0.000489323)
(0.000561835 -0 -0 0.000561835 -0 0.000561835)
(0.000646289 -0 -0 0.000646289 -0 0.000646289)
(0.000757972 -0 -0 0.000757972 -0 0.000757972)
(0.000952012 -0 -0 0.000952012 -0 0.000952012)
(0.00132816 -0 -0 0.00132816 -0 0.00132816)
(0.00207822 -0 -0 0.00207822 -0 0.00207822)
(0.000330645 -0 -0 0.000330645 -0 0.000330645)
(0.000391497 -0 -0 0.000391497 -0 0.000391497)
(0.000502344 -0 -0 0.000502344 -0 0.000502344)
(0.000578726 -0 -0 0.000578726 -0 0.000578726)
(0.000598183 -0 -0 0.000598183 -0 0.000598183)
(0.000555701 -0 -0 0.000555701 -0 0.000555701)
(0.000450964 -0 -0 0.000450964 -0 0.000450964)
(0.000397618 -0 -0 0.000397618 -0 0.000397618)
(0.000380068 -0 -0 0.000380068 -0 0.000380068)
(0.000372192 -0 -0 0.000372192 -0 0.000372192)
(0.000364063 -0 -0 0.000364063 -0 0.000364063)
(0.000357758 -0 -0 0.000357758 -0 0.000357758)
(0.000365987 -0 -0 0.000365987 -0 0.000365987)
(0.000419199 -0 -0 0.000419199 -0 0.000419199)
(0.000516046 -0 -0 0.000516046 -0 0.000516046)
(0.000632473 -0 -0 0.000632473 -0 0.000632473)
(0.000756553 -0 -0 0.000756553 -0 0.000756553)
(0.000960787 -0 -0 0.000960787 -0 0.000960787)
(0.00133917 -0 -0 0.00133917 -0 0.00133917)
(0.00222991 -0 -0 0.00222991 -0 0.00222991)
(0.000364629 -0 -0 0.000364629 -0 0.000364629)
(0.000390897 -0 -0 0.000390897 -0 0.000390897)
(0.000498412 -0 -0 0.000498412 -0 0.000498412)
(0.000574751 -0 -0 0.000574751 -0 0.000574751)
(0.000595491 -0 -0 0.000595491 -0 0.000595491)
(0.00055433 -0 -0 0.00055433 -0 0.00055433)
(0.000450603 -0 -0 0.000450603 -0 0.000450603)
(0.000380938 -0 -0 0.000380938 -0 0.000380938)
(0.000356912 -0 -0 0.000356912 -0 0.000356912)
(0.000344758 -0 -0 0.000344758 -0 0.000344758)
(0.000326923 -0 -0 0.000326923 -0 0.000326923)
(0.000314109 -0 -0 0.000314109 -0 0.000314109)
(0.000319809 -0 -0 0.000319809 -0 0.000319809)
(0.000375346 -0 -0 0.000375346 -0 0.000375346)
(0.000492527 -0 -0 0.000492527 -0 0.000492527)
(0.000627762 -0 -0 0.000627762 -0 0.000627762)
(0.000764276 -0 -0 0.000764276 -0 0.000764276)
(0.000976365 -0 -0 0.000976365 -0 0.000976365)
(0.00137508 -0 -0 0.00137508 -0 0.00137508)
(0.00235512 -0 -0 0.00235512 -0 0.00235512)
(0.000390793 -0 -0 0.000390793 -0 0.000390793)
(0.000386391 -0 -0 0.000386391 -0 0.000386391)
(0.000486464 -0 -0 0.000486464 -0 0.000486464)
(0.000564781 -0 -0 0.000564781 -0 0.000564781)
(0.000592389 -0 -0 0.000592389 -0 0.000592389)
(0.00055904 -0 -0 0.00055904 -0 0.00055904)
(0.000460068 -0 -0 0.000460068 -0 0.000460068)
(0.000382342 -0 -0 0.000382342 -0 0.000382342)
(0.000345415 -0 -0 0.000345415 -0 0.000345415)
(0.000325137 -0 -0 0.000325137 -0 0.000325137)
(0.000307094 -0 -0 0.000307094 -0 0.000307094)
(0.000293918 -0 -0 0.000293918 -0 0.000293918)
(0.000304373 -0 -0 0.000304373 -0 0.000304373)
(0.000359733 -0 -0 0.000359733 -0 0.000359733)
(0.000487281 -0 -0 0.000487281 -0 0.000487281)
(0.000644545 -0 -0 0.000644545 -0 0.000644545)
(0.000784943 -0 -0 0.000784943 -0 0.000784943)
(0.000990395 -0 -0 0.000990395 -0 0.000990395)
(0.00141912 -0 -0 0.00141912 -0 0.00141912)
(0.00247204 -0 -0 0.00247204 -0 0.00247204)
(0.000409299 -0 -0 0.000409299 -0 0.000409299)
(0.000376499 -0 -0 0.000376499 -0 0.000376499)
(0.000465478 -0 -0 0.000465478 -0 0.000465478)
(0.000545729 -0 -0 0.000545729 -0 0.000545729)
(0.000588071 -0 -0 0.000588071 -0 0.000588071)
(0.00057056 -0 -0 0.00057056 -0 0.00057056)
(0.000488184 -0 -0 0.000488184 -0 0.000488184)
(0.000397584 -0 -0 0.000397584 -0 0.000397584)
(0.000350553 -0 -0 0.000350553 -0 0.000350553)
(0.000325587 -0 -0 0.000325587 -0 0.000325587)
(0.000307175 -0 -0 0.000307175 -0 0.000307175)
(0.000298005 -0 -0 0.000298005 -0 0.000298005)
(0.000310727 -0 -0 0.000310727 -0 0.000310727)
(0.000368668 -0 -0 0.000368668 -0 0.000368668)
(0.000515516 -0 -0 0.000515516 -0 0.000515516)
(0.000686355 -0 -0 0.000686355 -0 0.000686355)
(0.000816578 -0 -0 0.000816578 -0 0.000816578)
(0.000997169 -0 -0 0.000997169 -0 0.000997169)
(0.00146521 -0 -0 0.00146521 -0 0.00146521)
(0.00259446 -0 -0 0.00259446 -0 0.00259446)
(0.000415132 -0 -0 0.000415132 -0 0.000415132)
(0.00036501 -0 -0 0.00036501 -0 0.00036501)
(0.000441197 -0 -0 0.000441197 -0 0.000441197)
(0.000522439 -0 -0 0.000522439 -0 0.000522439)
(0.000580106 -0 -0 0.000580106 -0 0.000580106)
(0.000584851 -0 -0 0.000584851 -0 0.000584851)
(0.000541675 -0 -0 0.000541675 -0 0.000541675)
(0.00044294 -0 -0 0.00044294 -0 0.00044294)
(0.000377126 -0 -0 0.000377126 -0 0.000377126)
(0.000341332 -0 -0 0.000341332 -0 0.000341332)
(0.00031952 -0 -0 0.00031952 -0 0.00031952)
(0.000320616 -0 -0 0.000320616 -0 0.000320616)
(0.000342299 -0 -0 0.000342299 -0 0.000342299)
(0.000414966 -0 -0 0.000414966 -0 0.000414966)
(0.000575986 -0 -0 0.000575986 -0 0.000575986)
(0.000738586 -0 -0 0.000738586 -0 0.000738586)
(0.000841345 -0 -0 0.000841345 -0 0.000841345)
(0.000998807 -0 -0 0.000998807 -0 0.000998807)
(0.00151289 -0 -0 0.00151289 -0 0.00151289)
(0.00273233 -0 -0 0.00273233 -0 0.00273233)
(0.000411225 -0 -0 0.000411225 -0 0.000411225)
(0.000350095 -0 -0 0.000350095 -0 0.000350095)
(0.000415569 -0 -0 0.000415569 -0 0.000415569)
(0.000496545 -0 -0 0.000496545 -0 0.000496545)
(0.000565022 -0 -0 0.000565022 -0 0.000565022)
(0.000597084 -0 -0 0.000597084 -0 0.000597084)
(0.000582764 -0 -0 0.000582764 -0 0.000582764)
(0.000532911 -0 -0 0.000532911 -0 0.000532911)
(0.000451936 -0 -0 0.000451936 -0 0.000451936)
(0.000396395 -0 -0 0.000396395 -0 0.000396395)
(0.000367287 -0 -0 0.000367287 -0 0.000367287)
(0.00037424 -0 -0 0.00037424 -0 0.00037424)
(0.000407806 -0 -0 0.000407806 -0 0.000407806)
(0.000492822 -0 -0 0.000492822 -0 0.000492822)
(0.000646844 -0 -0 0.000646844 -0 0.000646844)
(0.000773094 -0 -0 0.000773094 -0 0.000773094)
(0.00085033 -0 -0 0.00085033 -0 0.00085033)
(0.000974252 -0 -0 0.000974252 -0 0.000974252)
(0.00154671 -0 -0 0.00154671 -0 0.00154671)
(0.00289471 -0 -0 0.00289471 -0 0.00289471)
(0.00039924 -0 -0 0.00039924 -0 0.00039924)
(0.000335257 -0 -0 0.000335257 -0 0.000335257)
(0.000391587 -0 -0 0.000391587 -0 0.000391587)
(0.000470988 -0 -0 0.000470988 -0 0.000470988)
(0.000545163 -0 -0 0.000545163 -0 0.000545163)
(0.000598275 -0 -0 0.000598275 -0 0.000598275)
(0.000615059 -0 -0 0.000615059 -0 0.000615059)
(0.000601361 -0 -0 0.000601361 -0 0.000601361)
(0.000562942 -0 -0 0.000562942 -0 0.000562942)
(0.000516148 -0 -0 0.000516148 -0 0.000516148)
(0.000479978 -0 -0 0.000479978 -0 0.000479978)
(0.000485737 -0 -0 0.000485737 -0 0.000485737)
(0.000514729 -0 -0 0.000514729 -0 0.000514729)
(0.000584351 -0 -0 0.000584351 -0 0.000584351)
(0.000684503 -0 -0 0.000684503 -0 0.000684503)
(0.000783068 -0 -0 0.000783068 -0 0.000783068)
(0.000835277 -0 -0 0.000835277 -0 0.000835277)
(0.000913354 -0 -0 0.000913354 -0 0.000913354)
(0.00156429 -0 -0 0.00156429 -0 0.00156429)
(0.00309218 -0 -0 0.00309218 -0 0.00309218)
(0.000372916 -0 -0 0.000372916 -0 0.000372916)
(0.000312221 -0 -0 0.000312221 -0 0.000312221)
(0.000364856 -0 -0 0.000364856 -0 0.000364856)
(0.000445584 -0 -0 0.000445584 -0 0.000445584)
(0.000523995 -0 -0 0.000523995 -0 0.000523995)
(0.000592471 -0 -0 0.000592471 -0 0.000592471)
(0.000632532 -0 -0 0.000632532 -0 0.000632532)
(0.000645305 -0 -0 0.000645305 -0 0.000645305)
(0.000637093 -0 -0 0.000637093 -0 0.000637093)
(0.0006165 -0 -0 0.0006165 -0 0.0006165)
(0.000588492 -0 -0 0.000588492 -0 0.000588492)
(0.000584354 -0 -0 0.000584354 -0 0.000584354)
(0.000595565 -0 -0 0.000595565 -0 0.000595565)
(0.000627274 -0 -0 0.000627274 -0 0.000627274)
(0.00069145 -0 -0 0.00069145 -0 0.00069145)
(0.000757106 -0 -0 0.000757106 -0 0.000757106)
(0.000776292 -0 -0 0.000776292 -0 0.000776292)
(0.000810117 -0 -0 0.000810117 -0 0.000810117)
(0.00156983 -0 -0 0.00156983 -0 0.00156983)
(0.00333873 -0 -0 0.00333873 -0 0.00333873)
(0.00035079 -0 -0 0.00035079 -0 0.00035079)
(0.000296596 -0 -0 0.000296596 -0 0.000296596)
(0.000349965 -0 -0 0.000349965 -0 0.000349965)
(0.000432032 -0 -0 0.000432032 -0 0.000432032)
(0.000511742 -0 -0 0.000511742 -0 0.000511742)
(0.000581936 -0 -0 0.000581936 -0 0.000581936)
(0.000632418 -0 -0 0.000632418 -0 0.000632418)
(0.000661929 -0 -0 0.000661929 -0 0.000661929)
(0.000667713 -0 -0 0.000667713 -0 0.000667713)
(0.000660556 -0 -0 0.000660556 -0 0.000660556)
(0.00064284 -0 -0 0.00064284 -0 0.00064284)
(0.000625696 -0 -0 0.000625696 -0 0.000625696)
(0.00062282 -0 -0 0.00062282 -0 0.00062282)
(0.000631961 -0 -0 0.000631961 -0 0.000631961)
(0.000657253 -0 -0 0.000657253 -0 0.000657253)
(0.000690919 -0 -0 0.000690919 -0 0.000690919)
(0.000687784 -0 -0 0.000687784 -0 0.000687784)
(0.000723105 -0 -0 0.000723105 -0 0.000723105)
(0.00156881 -0 -0 0.00156881 -0 0.00156881)
(0.00365533 -0 -0 0.00365533 -0 0.00365533)
(0.000304783 -0 -0 0.000304783 -0 0.000304783)
(0.000263182 -0 -0 0.000263182 -0 0.000263182)
(0.000320775 -0 -0 0.000320775 -0 0.000320775)
(0.000406452 -0 -0 0.000406452 -0 0.000406452)
(0.000486231 -0 -0 0.000486231 -0 0.000486231)
(0.000555024 -0 -0 0.000555024 -0 0.000555024)
(0.000611853 -0 -0 0.000611853 -0 0.000611853)
(0.000647857 -0 -0 0.000647857 -0 0.000647857)
(0.000660881 -0 -0 0.000660881 -0 0.000660881)
(0.000656784 -0 -0 0.000656784 -0 0.000656784)
(0.000643974 -0 -0 0.000643974 -0 0.000643974)
(0.000624231 -0 -0 0.000624231 -0 0.000624231)
(0.000608164 -0 -0 0.000608164 -0 0.000608164)
(0.000605878 -0 -0 0.000605878 -0 0.000605878)
(0.00061384 -0 -0 0.00061384 -0 0.00061384)
(0.000636196 -0 -0 0.000636196 -0 0.000636196)
(0.000633299 -0 -0 0.000633299 -0 0.000633299)
(0.000695031 -0 -0 0.000695031 -0 0.000695031)
(0.00166284 -0 -0 0.00166284 -0 0.00166284)
(0.00407053 -0 -0 0.00407053 -0 0.00407053)
(0.000321996 -0 -0 0.000321996 -0 0.000321996)
(0.000272302 -0 -0 0.000272302 -0 0.000272302)
(0.000339393 -0 -0 0.000339393 -0 0.000339393)
(0.00042164 -0 -0 0.00042164 -0 0.00042164)
(0.000495325 -0 -0 0.000495325 -0 0.000495325)
(0.000558563 -0 -0 0.000558563 -0 0.000558563)
(0.000610889 -0 -0 0.000610889 -0 0.000610889)
(0.000646682 -0 -0 0.000646682 -0 0.000646682)
(0.000665889 -0 -0 0.000665889 -0 0.000665889)
(0.000665273 -0 -0 0.000665273 -0 0.000665273)
(0.000659431 -0 -0 0.000659431 -0 0.000659431)
(0.000646598 -0 -0 0.000646598 -0 0.000646598)
(0.000632824 -0 -0 0.000632824 -0 0.000632824)
(0.000626678 -0 -0 0.000626678 -0 0.000626678)
(0.000628374 -0 -0 0.000628374 -0 0.000628374)
(0.000639688 -0 -0 0.000639688 -0 0.000639688)
(0.000666882 -0 -0 0.000666882 -0 0.000666882)
(0.000883673 -0 -0 0.000883673 -0 0.000883673)
(0.00200299 -0 -0 0.00200299 -0 0.00200299)
(0.00469029 -0 -0 0.00469029 -0 0.00469029)
(0.00045293 -0 -0 0.00045293 -0 0.00045293)
(0.000507344 -0 -0 0.000507344 -0 0.000507344)
(0.000682121 -0 -0 0.000682121 -0 0.000682121)
(0.000813259 -0 -0 0.000813259 -0 0.000813259)
(0.000911425 -0 -0 0.000911425 -0 0.000911425)
(0.000991269 -0 -0 0.000991269 -0 0.000991269)
(0.00105778 -0 -0 0.00105778 -0 0.00105778)
(0.00111267 -0 -0 0.00111267 -0 0.00111267)
(0.00115736 -0 -0 0.00115736 -0 0.00115736)
(0.0011931 -0 -0 0.0011931 -0 0.0011931)
(0.00122453 -0 -0 0.00122453 -0 0.00122453)
(0.00126101 -0 -0 0.00126101 -0 0.00126101)
(0.00129663 -0 -0 0.00129663 -0 0.00129663)
(0.00135528 -0 -0 0.00135528 -0 0.00135528)
(0.00141116 -0 -0 0.00141116 -0 0.00141116)
(0.001522 -0 -0 0.001522 -0 0.001522)
(0.00166772 -0 -0 0.00166772 -0 0.00166772)
(0.00220283 -0 -0 0.00220283 -0 0.00220283)
(0.00302628 -0 -0 0.00302628 -0 0.00302628)
(0.00569447 -0 -0 0.00569447 -0 0.00569447)
(0.00280643 -0 -0 0.00280643 -0 0.00280643)
(0.00436132 -0 -0 0.00436132 -0 0.00436132)
(0.00556927 -0 -0 0.00556927 -0 0.00556927)
(0.0062324 -0 -0 0.0062324 -0 0.0062324)
(0.00658822 -0 -0 0.00658822 -0 0.00658822)
(0.0067854 -0 -0 0.0067854 -0 0.0067854)
(0.00688526 -0 -0 0.00688526 -0 0.00688526)
(0.00693207 -0 -0 0.00693207 -0 0.00693207)
(0.00693466 -0 -0 0.00693466 -0 0.00693466)
(0.00692895 -0 -0 0.00692895 -0 0.00692895)
(0.00691549 -0 -0 0.00691549 -0 0.00691549)
(0.00690234 -0 -0 0.00690234 -0 0.00690234)
(0.00689465 -0 -0 0.00689465 -0 0.00689465)
(0.0068983 -0 -0 0.0068983 -0 0.0068983)
(0.00691265 -0 -0 0.00691265 -0 0.00691265)
(0.00694723 -0 -0 0.00694723 -0 0.00694723)
(0.00704806 -0 -0 0.00704806 -0 0.00704806)
(0.00707928 -0 -0 0.00707928 -0 0.00707928)
(0.00749862 -0 -0 0.00749862 -0 0.00749862)
(0.00683501 -0 -0 0.00683501 -0 0.00683501)
)
;

boundaryField
{
    movingWall
    {
        type            kqRWallFunction;
        value           nonuniform List<symmTensor> 
20
(
(0.00280643 -0 -0 0.00280643 -0 0.00280643)
(0.00436132 -0 -0 0.00436132 -0 0.00436132)
(0.00556927 -0 -0 0.00556927 -0 0.00556927)
(0.0062324 -0 -0 0.0062324 -0 0.0062324)
(0.00658822 -0 -0 0.00658822 -0 0.00658822)
(0.0067854 -0 -0 0.0067854 -0 0.0067854)
(0.00688526 -0 -0 0.00688526 -0 0.00688526)
(0.00693207 -0 -0 0.00693207 -0 0.00693207)
(0.00693466 -0 -0 0.00693466 -0 0.00693466)
(0.00692895 -0 -0 0.00692895 -0 0.00692895)
(0.00691549 -0 -0 0.00691549 -0 0.00691549)
(0.00690234 -0 -0 0.00690234 -0 0.00690234)
(0.00689465 -0 -0 0.00689465 -0 0.00689465)
(0.0068983 -0 -0 0.0068983 -0 0.0068983)
(0.00691265 -0 -0 0.00691265 -0 0.00691265)
(0.00694723 -0 -0 0.00694723 -0 0.00694723)
(0.00704806 -0 -0 0.00704806 -0 0.00704806)
(0.00707928 -0 -0 0.00707928 -0 0.00707928)
(0.00749862 -0 -0 0.00749862 -0 0.00749862)
(0.00683501 -0 -0 0.00683501 -0 0.00683501)
)
;
    }
    fixedWalls
    {
        type            kqRWallFunction;
        value           nonuniform List<symmTensor> 
60
(
(3.50924e-05 -0 -0 3.50924e-05 -0 3.50924e-05)
(5.28209e-05 -0 -0 5.28209e-05 -0 5.28209e-05)
(9.09397e-05 -0 -0 9.09397e-05 -0 9.09397e-05)
(0.00013828 -0 -0 0.00013828 -0 0.00013828)
(0.000189977 -0 -0 0.000189977 -0 0.000189977)
(0.000241411 -0 -0 0.000241411 -0 0.000241411)
(0.000288594 -0 -0 0.000288594 -0 0.000288594)
(0.000330645 -0 -0 0.000330645 -0 0.000330645)
(0.000364629 -0 -0 0.000364629 -0 0.000364629)
(0.000390793 -0 -0 0.000390793 -0 0.000390793)
(0.000409299 -0 -0 0.000409299 -0 0.000409299)
(0.000415132 -0 -0 0.000415132 -0 0.000415132)
(0.000411225 -0 -0 0.000411225 -0 0.000411225)
(0.00039924 -0 -0 0.00039924 -0 0.00039924)
(0.000372916 -0 -0 0.000372916 -0 0.000372916)
(0.00035079 -0 -0 0.00035079 -0 0.00035079)
(0.000304783 -0 -0 0.000304783 -0 0.000304783)
(0.000321996 -0 -0 0.000321996 -0 0.000321996)
(0.00045293 -0 -0 0.00045293 -0 0.00045293)
(0.00280643 -0 -0 0.00280643 -0 0.00280643)
(6.01143e-05 -0 -0 6.01143e-05 -0 6.01143e-05)
(0.00013532 -0 -0 0.00013532 -0 0.00013532)
(0.000457266 -0 -0 0.000457266 -0 0.000457266)
(0.00100475 -0 -0 0.00100475 -0 0.00100475)
(0.00152479 -0 -0 0.00152479 -0 0.00152479)
(0.00186005 -0 -0 0.00186005 -0 0.00186005)
(0.00207822 -0 -0 0.00207822 -0 0.00207822)
(0.00222991 -0 -0 0.00222991 -0 0.00222991)
(0.00235512 -0 -0 0.00235512 -0 0.00235512)
(0.00247204 -0 -0 0.00247204 -0 0.00247204)
(0.00259446 -0 -0 0.00259446 -0 0.00259446)
(0.00273233 -0 -0 0.00273233 -0 0.00273233)
(0.00289471 -0 -0 0.00289471 -0 0.00289471)
(0.00309218 -0 -0 0.00309218 -0 0.00309218)
(0.00333873 -0 -0 0.00333873 -0 0.00333873)
(0.00365533 -0 -0 0.00365533 -0 0.00365533)
(0.00407053 -0 -0 0.00407053 -0 0.00407053)
(0.00469029 -0 -0 0.00469029 -0 0.00469029)
(0.00569447 -0 -0 0.00569447 -0 0.00569447)
(0.00683501 -0 -0 0.00683501 -0 0.00683501)
(3.50924e-05 -0 -0 3.50924e-05 -0 3.50924e-05)
(5.6762e-05 -0 -0 5.6762e-05 -0 5.6762e-05)
(9.3259e-05 -0 -0 9.3259e-05 -0 9.3259e-05)
(0.000140655 -0 -0 0.000140655 -0 0.000140655)
(0.000206537 -0 -0 0.000206537 -0 0.000206537)
(0.000303501 -0 -0 0.000303501 -0 0.000303501)
(0.000437487 -0 -0 0.000437487 -0 0.000437487)
(0.000590323 -0 -0 0.000590323 -0 0.000590323)
(0.000719732 -0 -0 0.000719732 -0 0.000719732)
(0.000786288 -0 -0 0.000786288 -0 0.000786288)
(0.00081147 -0 -0 0.00081147 -0 0.00081147)
(0.000814744 -0 -0 0.000814744 -0 0.000814744)
(0.000785646 -0 -0 0.000785646 -0 0.000785646)
(0.000743582 -0 -0 0.000743582 -0 0.000743582)
(0.000700072 -0 -0 0.000700072 -0 0.000700072)
(0.000638958 -0 -0 0.000638958 -0 0.000638958)
(0.000539647 -0 -0 0.000539647 -0 0.000539647)
(0.000354394 -0 -0 0.000354394 -0 0.000354394)
(0.000145231 -0 -0 0.000145231 -0 0.000145231)
(6.01143e-05 -0 -0 6.01143e-05 -0 6.01143e-05)
)
;
    }
    frontAndBack
    {
        type            empty;
    }
}


// ************************************************************************* //
