/*--------------------------------*- C++ -*----------------------------------*\
| =========                 |                                                 |
| \\      /  F ield         | OpenFOAM: The Open Source CFD Toolbox           |
|  \\    /   O peration     | Version:  2312                                  |
|   \\  /    A nd           | Website:  www.openfoam.com                      |
|    \\/     M anipulation  |                                                 |
\*---------------------------------------------------------------------------*/
FoamFile
{
    version     2.0;
    format      ascii;
    arch        "LSB;label=32;scalar=64";
    class       volScalarField;
    location    "2.5";
    object      turbulenceProperties:nut;
}
// * * * * * * * * * * * * * * * * * * * * * * * * * * * * * * * * * * * * * //

dimensions      [0 2 -1 0 0 0 0];

internalField   nonuniform List<scalar> 
400
(
4.06359e-06
5.1591e-06
6.61765e-06
8.14228e-06
9.9011e-06
1.20576e-05
1.45317e-05
1.68947e-05
1.86292e-05
1.94341e-05
1.97224e-05
1.97512e-05
1.93678e-05
1.88427e-05
1.82909e-05
1.74882e-05
1.61049e-05
1.31289e-05
8.42706e-06
5.40177e-06
4.98409e-06
1.03021e-05
1.21428e-05
1.39811e-05
1.62303e-05
1.88885e-05
2.21118e-05
2.51455e-05
2.66356e-05
2.78254e-05
2.98262e-05
3.18123e-05
3.31232e-05
3.31785e-05
3.33046e-05
3.21949e-05
3.177e-05
2.97042e-05
1.68448e-05
8.15145e-06
6.54733e-06
1.98038e-05
2.20308e-05
2.36587e-05
2.8032e-05
3.12146e-05
3.10108e-05
3.12654e-05
3.1966e-05
3.13811e-05
3.13017e-05
3.08035e-05
3.08501e-05
3.02393e-05
3.01685e-05
3.01783e-05
3.04266e-05
2.95651e-05
2.7312e-05
1.49394e-05
8.08652e-06
2.83915e-05
3.28644e-05
3.42748e-05
3.70421e-05
3.55477e-05
3.44742e-05
3.37437e-05
3.18169e-05
3.17652e-05
3.21994e-05
3.42648e-05
3.53774e-05
3.48351e-05
3.30826e-05
3.03535e-05
2.83111e-05
2.85716e-05
2.82158e-05
2.19771e-05
9.48935e-06
3.57297e-05
4.28831e-05
4.3119e-05
4.05477e-05
3.88262e-05
3.66556e-05
3.33553e-05
3.41191e-05
3.58291e-05
3.99029e-05
4.61302e-05
4.7743e-05
4.73331e-05
4.39324e-05
3.8362e-05
3.28549e-05
2.92738e-05
2.8537e-05
2.69399e-05
1.07055e-05
4.07776e-05
5.04139e-05
4.82188e-05
4.36906e-05
4.09999e-05
3.62908e-05
3.52774e-05
3.85474e-05
4.26387e-05
5.03493e-05
5.72971e-05
6.13551e-05
6.15745e-05
5.84818e-05
5.00661e-05
3.95615e-05
3.15912e-05
2.84672e-05
2.96956e-05
1.17104e-05
4.32551e-05
5.63873e-05
5.18234e-05
4.64521e-05
4.26355e-05
3.64156e-05
3.77993e-05
4.27724e-05
4.84357e-05
5.60866e-05
6.04476e-05
6.50007e-05
6.72126e-05
6.855e-05
6.32746e-05
5.05143e-05
3.7059e-05
2.95275e-05
3.13663e-05
1.25391e-05
4.42565e-05
6.09641e-05
5.43192e-05
4.91061e-05
4.34487e-05
3.6436e-05
3.94089e-05
4.44074e-05
4.99933e-05
5.51914e-05
5.66656e-05
5.862e-05
6.29307e-05
6.96207e-05
7.11788e-05
5.93362e-05
4.2515e-05
3.11351e-05
3.24801e-05
1.31707e-05
4.25977e-05
6.22808e-05
5.72778e-05
5.18857e-05
4.60763e-05
3.90484e-05
3.91116e-05
4.41276e-05
4.9294e-05
5.19662e-05
5.15621e-05
5.17502e-05
5.76233e-05
6.94379e-05
7.60315e-05
6.67959e-05
4.7732e-05
3.32514e-05
3.33766e-05
1.36369e-05
4.11914e-05
6.40593e-05
6.16548e-05
5.49167e-05
4.87623e-05
4.05786e-05
3.89376e-05
4.1353e-05
4.45233e-05
4.66074e-05
4.71552e-05
4.85438e-05
5.49546e-05
6.92113e-05
8.17581e-05
7.34505e-05
5.18485e-05
3.52075e-05
3.41928e-05
1.39579e-05
3.85534e-05
6.41315e-05
6.56706e-05
5.90095e-05
5.2647e-05
4.44138e-05
3.97848e-05
4.07175e-05
4.29312e-05
4.44889e-05
4.49007e-05
4.60702e-05
5.24886e-05
6.99681e-05
8.75583e-05
7.99129e-05
5.40488e-05
3.60353e-05
3.5029e-05
1.40569e-05
3.49135e-05
6.23291e-05
6.97061e-05
6.44887e-05
5.75507e-05
5.23532e-05
4.28796e-05
4.13785e-05
4.18507e-05
4.25601e-05
4.414e-05
4.67161e-05
5.53907e-05
7.50098e-05
9.31009e-05
8.33883e-05
5.48658e-05
3.65273e-05
3.59471e-05
1.39897e-05
3.06463e-05
5.88632e-05
7.24791e-05
7.09758e-05
6.45916e-05
6.04534e-05
5.39857e-05
4.62461e-05
4.36191e-05
4.3762e-05
4.59613e-05
5.1068e-05
6.24962e-05
8.35754e-05
9.7271e-05
8.48433e-05
5.32972e-05
3.59313e-05
3.69994e-05
1.37821e-05
2.75601e-05
5.47192e-05
7.31397e-05
7.7792e-05
7.36339e-05
6.88393e-05
6.61416e-05
6.08248e-05
5.68985e-05
5.50752e-05
5.85503e-05
6.37416e-05
7.51803e-05
8.9331e-05
9.85006e-05
8.39259e-05
4.93871e-05
3.47248e-05
3.82398e-05
1.33148e-05
2.4406e-05
4.97988e-05
7.18709e-05
8.39057e-05
8.45722e-05
7.99032e-05
7.75949e-05
7.62819e-05
7.39026e-05
7.18223e-05
7.45421e-05
7.71284e-05
8.25151e-05
9.14463e-05
9.4456e-05
7.61642e-05
4.20082e-05
3.35645e-05
3.9734e-05
1.29077e-05
2.32612e-05
4.75988e-05
7.15775e-05
8.89286e-05
9.40695e-05
9.31462e-05
9.01298e-05
8.74231e-05
8.62666e-05
8.41577e-05
8.35695e-05
8.35054e-05
8.39282e-05
8.40441e-05
7.9853e-05
6.09241e-05
3.45883e-05
3.26814e-05
4.1574e-05
1.20188e-05
2.18666e-05
4.10116e-05
6.19854e-05
7.73169e-05
8.38068e-05
8.64441e-05
8.58109e-05
8.35935e-05
8.13452e-05
7.86796e-05
7.50751e-05
7.08408e-05
6.78526e-05
6.36147e-05
5.73627e-05
4.33732e-05
2.62851e-05
3.13315e-05
4.38699e-05
1.23478e-05
1.92677e-05
2.81072e-05
3.63362e-05
4.22158e-05
4.59959e-05
4.8348e-05
4.90152e-05
4.82937e-05
4.59677e-05
4.35423e-05
4.02275e-05
3.67528e-05
3.33579e-05
3.0752e-05
2.75226e-05
2.31445e-05
2.06014e-05
3.25083e-05
4.70901e-05
1.46373e-05
1.12478e-05
1.33057e-05
1.51342e-05
1.66312e-05
1.79227e-05
1.906e-05
1.99962e-05
2.07555e-05
2.1259e-05
2.16442e-05
2.20703e-05
2.24294e-05
2.31933e-05
2.38037e-05
2.56304e-05
2.6979e-05
3.08518e-05
3.7996e-05
5.18847e-05
3.64298e-05
4.5413e-05
5.13118e-05
5.42756e-05
5.57986e-05
5.66233e-05
5.70358e-05
5.72274e-05
5.72386e-05
5.72156e-05
5.71618e-05
5.71087e-05
5.70808e-05
5.7097e-05
5.7158e-05
5.73024e-05
5.77183e-05
5.78463e-05
5.95355e-05
5.68416e-05
)
;

boundaryField
{
    movingWall
    {
        type            nutkWallFunction;
        blending        stepwise;
        value           nonuniform List<scalar> 
20
(
0
0
6.69484e-07
1.15635e-06
1.40532e-06
1.53997e-06
1.6073e-06
1.63866e-06
1.6404e-06
1.63658e-06
1.62757e-06
1.61876e-06
1.6136e-06
1.61605e-06
1.62567e-06
1.6488e-06
1.71587e-06
1.73653e-06
2.00903e-06
1.57349e-06
)
;
    }
    fixedWalls
    {
        type            nutkWallFunction;
        blending        stepwise;
        value           nonuniform List<scalar> 
60
(
0
0
0
0
0
0
0
0
0
0
0
0
0
0
0
0
0
0
0
0
0
0
0
0
0
0
0
0
0
0
0
0
0
0
0
0
0
0
7.63867e-07
1.57349e-06
0
0
0
0
0
0
0
0
0
0
0
0
0
0
0
0
0
0
0
0
)
;
    }
    frontAndBack
    {
        type            empty;
    }
}


// ************************************************************************* //
