/*--------------------------------*- C++ -*----------------------------------*\
| =========                 |                                                 |
| \\      /  F ield         | OpenFOAM: The Open Source CFD Toolbox           |
|  \\    /   O peration     | Version:  2312                                  |
|   \\  /    A nd           | Website:  www.openfoam.com                      |
|    \\/     M anipulation  |                                                 |
\*---------------------------------------------------------------------------*/
FoamFile
{
    version     2.0;
    format      ascii;
    arch        "LSB;label=32;scalar=64";
    class       volScalarField;
    location    "2.5";
    object      turbulenceProperties:k;
}
// * * * * * * * * * * * * * * * * * * * * * * * * * * * * * * * * * * * * * //

dimensions      [0 2 -2 0 0 0 0];

internalField   nonuniform List<scalar> 
400
(
5.26386e-05
8.5143e-05
0.000139889
0.000210983
0.000309806
0.000455251
0.00065623
0.000885485
0.0010796
0.00117943
0.00121721
0.00122212
0.00117847
0.00111537
0.00105011
0.000958436
0.00080947
0.000531591
0.000217846
9.01715e-05
7.92314e-05
0.000130415
0.000192274
0.000274146
0.000398175
0.00057157
0.000779082
0.000936953
0.000993881
0.00100565
0.00100737
0.00102965
0.00107966
0.00115565
0.00124733
0.00132201
0.00135614
0.00124592
0.00065552
0.000202979
0.00013641
0.000220214
0.000297524
0.00040619
0.000590361
0.000798447
0.000887712
0.000912115
0.000903552
0.000861648
0.000850838
0.000863871
0.000918388
0.000983283
0.00108899
0.0012326
0.00141539
0.00150801
0.00141799
0.000685899
0.00020742
0.000324142
0.000435843
0.000581675
0.000778449
0.000867398
0.000879621
0.000843461
0.000760259
0.000734091
0.000731894
0.000770108
0.000820131
0.000870142
0.000947138
0.00105997
0.00125105
0.00157858
0.00181022
0.00150712
0.000284965
0.000425672
0.000567492
0.000731565
0.000857914
0.000884626
0.000844703
0.000733136
0.000682725
0.000674805
0.000702987
0.000755161
0.000791842
0.000841695
0.000907258
0.0010063
0.00117379
0.0014644
0.00197812
0.00228718
0.000362116
0.000507214
0.000666452
0.000820544
0.000886381
0.000875921
0.00077334
0.00066856
0.00064102
0.000642824
0.000678598
0.000715644
0.000751676
0.0008106
0.00088656
0.000984222
0.00114631
0.00143383
0.00199437
0.00279008
0.000432892
0.000559077
0.00072797
0.000859864
0.000899194
0.000858974
0.000717694
0.00062703
0.000606687
0.000606646
0.000621671
0.000632476
0.000661918
0.000733984
0.000842753
0.000969433
0.00113696
0.00142802
0.00199223
0.00311733
0.000495968
0.000587245
0.000753515
0.000868089
0.000897275
0.000833552
0.000676446
0.000596427
0.000570102
0.000558288
0.000546094
0.000536637
0.00054898
0.000628799
0.000774069
0.000948709
0.00113483
0.00144118
0.00200876
0.00334486
0.000546944
0.000586346
0.000747618
0.000862127
0.000893236
0.000831495
0.000675905
0.000571408
0.000535368
0.000517137
0.000490384
0.000471164
0.000479713
0.000563019
0.00073879
0.000941644
0.00114641
0.00146455
0.00206262
0.00353268
0.000586189
0.000579587
0.000729696
0.000847171
0.000888584
0.000838561
0.000690103
0.000573513
0.000518123
0.000487705
0.00046064
0.000440877
0.000456559
0.0005396
0.000730922
0.000966818
0.00117741
0.00148559
0.00212869
0.00370806
0.000613948
0.000564749
0.000698216
0.000818593
0.000882107
0.000855841
0.000732277
0.000596376
0.00052583
0.00048838
0.000460762
0.000447008
0.00046609
0.000553001
0.000773274
0.00102953
0.00122487
0.00149575
0.00219781
0.00389169
0.000622699
0.000547516
0.000661795
0.000783658
0.000870159
0.000877277
0.000812513
0.000664409
0.00056569
0.000511999
0.000479279
0.000480923
0.000513449
0.000622449
0.000863979
0.00110788
0.00126202
0.00149821
0.00226934
0.0040985
0.000616838
0.000525143
0.000623353
0.000744818
0.000847533
0.000895627
0.000874146
0.000799367
0.000677903
0.000594592
0.00055093
0.00056136
0.000611709
0.000739233
0.000970267
0.00115964
0.0012755
0.00146138
0.00232007
0.00434206
0.00059886
0.000502886
0.000587381
0.000706482
0.000817744
0.000897412
0.000922588
0.000902042
0.000844413
0.000774223
0.000719967
0.000728605
0.000772093
0.000876527
0.00102675
0.0011746
0.00125292
0.00137003
0.00234643
0.00463827
0.000559374
0.000468332
0.000547285
0.000668377
0.000785992
0.000888707
0.000948799
0.000967957
0.000955639
0.00092475
0.000882738
0.000876531
0.000893347
0.00094091
0.00103717
0.00113566
0.00116444
0.00121517
0.00235474
0.00500809
0.000526184
0.000444894
0.000524948
0.000648048
0.000767613
0.000872904
0.000948628
0.000992893
0.00100157
0.000990834
0.00096426
0.000938545
0.00093423
0.000947942
0.000985879
0.00103638
0.00103168
0.00108466
0.00235322
0.005483
0.000457174
0.000394773
0.000481162
0.000609678
0.000729347
0.000832537
0.00091778
0.000971786
0.000991322
0.000985176
0.000965961
0.000936347
0.000912246
0.000908816
0.00092076
0.000954294
0.000949949
0.00104255
0.00249426
0.0061058
0.000482995
0.000408452
0.00050909
0.00063246
0.000742987
0.000837844
0.000916333
0.000970023
0.000998834
0.00099791
0.000989146
0.000969898
0.000949236
0.000940016
0.000942562
0.000959532
0.00100032
0.00132551
0.00300448
0.00703544
0.000679394
0.000761016
0.00102318
0.00121989
0.00136714
0.0014869
0.00158667
0.00166901
0.00173604
0.00178965
0.00183679
0.00189152
0.00194494
0.00203292
0.00211674
0.002283
0.00250158
0.00330425
0.00453942
0.0085417
0.00420965
0.00654198
0.0083539
0.00934861
0.00988233
0.0101781
0.0103279
0.0103981
0.010402
0.0103934
0.0103732
0.0103535
0.010342
0.0103474
0.010369
0.0104208
0.0105721
0.0106189
0.0112479
0.0102525
)
;

boundaryField
{
    movingWall
    {
        type            kqRWallFunction;
        value           nonuniform List<scalar> 
20
(
0.00420965
0.00654198
0.0083539
0.00934861
0.00988233
0.0101781
0.0103279
0.0103981
0.010402
0.0103934
0.0103732
0.0103535
0.010342
0.0103474
0.010369
0.0104208
0.0105721
0.0106189
0.0112479
0.0102525
)
;
    }
    fixedWalls
    {
        type            kqRWallFunction;
        value           nonuniform List<scalar> 
60
(
5.26386e-05
7.92314e-05
0.00013641
0.00020742
0.000284965
0.000362116
0.000432892
0.000495968
0.000546944
0.000586189
0.000613948
0.000622699
0.000616838
0.00059886
0.000559374
0.000526184
0.000457174
0.000482995
0.000679394
0.00420965
9.01715e-05
0.000202979
0.000685899
0.00150712
0.00228718
0.00279008
0.00311733
0.00334486
0.00353268
0.00370806
0.00389169
0.0040985
0.00434206
0.00463827
0.00500809
0.005483
0.0061058
0.00703544
0.0085417
0.0102525
5.26386e-05
8.5143e-05
0.000139889
0.000210983
0.000309806
0.000455251
0.00065623
0.000885485
0.0010796
0.00117943
0.00121721
0.00122212
0.00117847
0.00111537
0.00105011
0.000958436
0.00080947
0.000531591
0.000217846
9.01715e-05
)
;
    }
    frontAndBack
    {
        type            empty;
    }
}


// ************************************************************************* //
