/*--------------------------------*- C++ -*----------------------------------*\
| =========                 |                                                 |
| \\      /  F ield         | OpenFOAM: The Open Source CFD Toolbox           |
|  \\    /   O peration     | Version:  2312                                  |
|   \\  /    A nd           | Website:  www.openfoam.com                      |
|    \\/     M anipulation  |                                                 |
\*---------------------------------------------------------------------------*/
FoamFile
{
    version     2.0;
    format      ascii;
    arch        "LSB;label=32;scalar=64";
    class       volScalarField;
    location    "2.5";
    object      turbulenceProperties:omega;
}
// * * * * * * * * * * * * * * * * * * * * * * * * * * * * * * * * * * * * * //

dimensions      [0 0 -1 0 0 0 0];

internalField   nonuniform List<scalar> 
400
(
12.9537
16.5035
21.1387
25.912
31.29
37.7564
45.1585
52.4121
57.952
60.6889
61.717
61.8755
60.8469
59.194
57.4116
54.8047
50.2624
40.4903
25.8508
16.693
15.8969
12.6591
15.8344
19.6084
24.5328
30.2602
35.2338
37.2613
37.314
36.1414
33.7745
32.3665
32.5952
34.8312
37.4522
41.0628
42.6863
41.9442
38.9153
24.901
20.8344
11.1198
13.5049
17.1688
21.0602
25.5793
28.6259
29.1734
28.266
27.4575
27.1818
28.0445
29.7694
32.5167
36.097
40.844
46.5183
51.0066
51.9183
45.9122
25.6501
11.4169
13.2619
16.9709
21.0152
24.401
25.5154
24.9961
23.8948
23.1099
22.73
22.4752
23.1823
24.9789
28.6295
34.9211
44.1895
55.2498
64.1565
68.5767
30.03
11.9137
13.2335
16.9662
21.1582
22.7843
23.0443
21.9796
20.0101
18.834
17.6174
16.3702
16.5855
17.7824
20.6512
26.2317
35.7264
50.024
69.3176
84.8993
33.8252
12.4385
13.2196
17.0171
20.2877
21.364
21.3095
18.9515
16.6294
15.0761
13.4778
12.4901
12.2513
13.1645
15.1596
19.6585
28.9754
45.387
70.0584
93.956
36.9664
12.9251
12.9102
16.5922
19.3574
20.1469
19.7084
16.5884
14.1841
12.5248
11.0841
10.4632
10.1833
10.9203
12.294
15.321
22.5077
38.5336
67.4705
99.3847
39.5537
13.2691
12.36
15.9813
18.2722
19.1847
18.5653
15.1343
12.838
11.1672
9.89456
9.47024
9.36507
9.99192
11.1184
13.3285
19.1254
33.8982
64.5173
102.982
41.5274
13.7647
12.004
15.0517
17.2154
18.0461
17.3094
14.6097
12.1323
10.4909
9.4366
9.1378
9.26978
9.77068
10.6396
12.3849
17.1629
30.6827
62.0311
105.843
42.9856
14.0706
11.3909
13.7406
16.1806
17.1969
17.0066
14.729
12.5293
10.9539
9.88343
9.34949
9.40511
9.81903
10.5607
11.8253
16.03
28.6526
60.4612
108.446
43.9857
14.6485
10.8873
12.4651
14.9486
16.2562
16.4876
14.9901
12.9141
11.3759
10.3568
9.95548
10.117
10.5357
11.0518
11.7583
15.3275
27.6741
60.9905
111.099
44.2985
15.6821
10.6177
11.2423
13.4932
15.2436
15.5198
15.4948
13.6711
12.2339
11.2612
10.8954
10.9908
11.2374
11.5182
11.8998
15.1342
27.3068
62.1272
114.015
44.0922
17.1356
10.5899
10.2763
11.9412
13.866
14.4598
14.807
14.6586
13.6315
12.5892
12.2138
11.9783
11.8284
11.6095
11.9218
15.0335
27.4194
64.5697
117.355
43.452
18.2469
10.7344
9.65935
10.5119
12.1875
13.4021
13.6381
13.8827
13.6071
13.0724
12.4441
12.1129
11.659
11.4938
11.9248
14.9288
27.7407
67.5723
121.294
42.0113
19.1892
10.9899
9.29968
9.36756
10.5083
11.8743
12.4745
12.5277
12.5131
12.2906
11.7589
11.5826
11.4029
11.3419
12.0231
15.2885
28.9271
70.1557
126.04
40.7653
19.126
11.0286
9.05381
8.63179
9.27935
10.1843
11.0163
11.4566
11.4857
11.4578
11.2307
11.1877
11.2947
11.7305
12.9786
16.9338
31.3591
72.0049
131.885
38.0383
18.0537
11.7323
9.83583
9.43322
9.934
10.617
11.3247
11.8588
12.111
12.2772
12.4721
12.8774
13.394
14.474
16.6361
21.9018
39.6631
79.6087
139.18
39.116
21.1988
18.1124
17.4058
17.5998
18.2156
18.9529
19.7902
20.6825
21.7089
22.7169
24.1103
25.8276
28.1797
30.6504
34.8634
43.2207
64.3407
92.4222
149.404
46.4152
67.6591
76.8982
80.6047
82.2031
82.962
83.2461
83.4659
83.6423
84.1829
84.8628
85.7041
86.7138
87.6512
88.9247
89.0739
92.7231
107.101
119.471
164.629
115.555
144.055
162.807
172.243
177.107
179.751
181.077
181.698
181.73
181.654
181.471
181.295
181.181
181.226
181.409
181.857
183.167
183.571
188.928
180.37
)
;

boundaryField
{
    movingWall
    {
        type            calculated;
        value           nonuniform List<scalar> 
20
(
115.555
144.055
162.807
172.243
177.107
179.751
181.077
181.698
181.73
181.654
181.471
181.295
181.181
181.226
181.409
181.857
183.167
183.571
188.928
180.37
)
;
    }
    fixedWalls
    {
        type            calculated;
        value           nonuniform List<scalar> 
60
(
12.9537
15.8969
20.8344
25.6501
30.03
33.8252
36.9664
39.5537
41.5274
42.9856
43.9857
44.2985
44.0922
43.452
42.0113
40.7653
38.0383
39.116
46.4152
115.555
16.693
24.901
45.9122
68.5767
84.8993
93.956
99.3847
102.982
105.843
108.446
111.099
114.015
117.355
121.294
126.04
131.885
139.18
149.404
164.629
180.37
12.9537
16.5035
21.1387
25.912
31.29
37.7564
45.1585
52.4121
57.952
60.6889
61.717
61.8755
60.8469
59.194
57.4116
54.8047
50.2624
40.4903
25.8508
16.693
)
;
    }
    frontAndBack
    {
        type            empty;
    }
}


// ************************************************************************* //
