/*--------------------------------*- C++ -*----------------------------------*\
| =========                 |                                                 |
| \\      /  F ield         | OpenFOAM: The Open Source CFD Toolbox           |
|  \\    /   O peration     | Version:  2312                                  |
|   \\  /    A nd           | Website:  www.openfoam.com                      |
|    \\/     M anipulation  |                                                 |
\*---------------------------------------------------------------------------*/
FoamFile
{
    version     2.0;
    format      ascii;
    arch        "LSB;label=32;scalar=64";
    class       volScalarField;
    location    "2.5";
    object      turbulenceProperties:L;
}
// * * * * * * * * * * * * * * * * * * * * * * * * * * * * * * * * * * * * * //

dimensions      [0 1 0 0 0 0 0];

internalField   nonuniform List<scalar> 
400
(
0.00102258
0.0010208
0.00102153
0.00102344
0.00102702
0.00103175
0.00103569
0.00103657
0.00103515
0.00103316
0.00103209
0.00103152
0.00103005
0.00103008
0.00103052
0.00103134
0.00103347
0.00103963
0.00104241
0.00103858
0.0010223
0.00164703
0.00159882
0.00154166
0.00148501
0.00144246
0.00144634
0.00149982
0.00154254
0.00160198
0.00171571
0.00181004
0.00184047
0.0017819
0.00172168
0.00161662
0.00157508
0.00153643
0.00120119
0.0010446
0.00102348
0.0024365
0.00233189
0.00214321
0.00210637
0.00201685
0.00190027
0.00189007
0.00194156
0.00195183
0.00195922
0.00191344
0.00185859
0.00176065
0.00166909
0.00156936
0.00147657
0.00139
0.00132421
0.00104146
0.00102512
0.00287912
0.00287409
0.00259462
0.00242393
0.00220364
0.0021222
0.00212129
0.00210677
0.00214051
0.00217302
0.0022543
0.0022554
0.00215606
0.0019626
0.00170216
0.00146136
0.00131293
0.00121078
0.00103356
0.00102631
0.00316177
0.00328659
0.0029106
0.00252746
0.00238333
0.00230265
0.00224912
0.00238404
0.00251818
0.00274771
0.00306482
0.00309763
0.0029787
0.00266292
0.00220789
0.00175083
0.00139666
0.00117145
0.00102846
0.00102712
0.00330572
0.00356538
0.0030733
0.00267927
0.00252924
0.0023826
0.00249096
0.00277971
0.00307042
0.0035288
0.00391042
0.00408577
0.00394855
0.00358597
0.00291364
0.00213335
0.0015232
0.00116381
0.00102641
0.0010276
0.00333996
0.00381561
0.00322664
0.00282825
0.00265596
0.00248175
0.002756
0.00317045
0.00359035
0.00410693
0.0043883
0.0046127
0.00452946
0.00431119
0.00371031
0.00273515
0.00179047
0.0012078
0.00102568
0.00102797
0.00333432
0.00405478
0.00336597
0.00299304
0.00274758
0.00255772
0.00294615
0.00339561
0.00386298
0.00431198
0.004466
0.0045678
0.00458191
0.00456865
0.00421914
0.00321583
0.00204466
0.00126831
0.00102534
0.0010282
0.0032118
0.00415867
0.00356156
0.0031696
0.00291734
0.0027422
0.00298725
0.00348196
0.00395759
0.00428442
0.00433694
0.00431381
0.0044338
0.00466418
0.00452366
0.00360179
0.00227718
0.00133672
0.00102525
0.00102834
0.00312383
0.00432963
0.00386741
0.00336353
0.00307437
0.0028202
0.0029685
0.00331688
0.00368085
0.00396472
0.00410025
0.00414786
0.00431924
0.00467392
0.00480063
0.00390814
0.00245598
0.00139322
0.00102518
0.00102847
0.00296193
0.00443114
0.0041906
0.00362744
0.00328561
0.00299654
0.00297438
0.00324189
0.00354677
0.00378401
0.00387735
0.00389605
0.00407513
0.00459381
0.00498215
0.00416881
0.0025515
0.00140337
0.00102518
0.00102846
0.00272417
0.00442353
0.00454618
0.00399139
0.00354749
0.00335326
0.00303719
0.00317633
0.00337682
0.00354934
0.0036748
0.00376407
0.00405344
0.00465914
0.00510678
0.0042856
0.00258794
0.00139993
0.00102516
0.0010284
0.00244163
0.00430443
0.00484872
0.00445114
0.00394051
0.00373309
0.00348614
0.00324288
0.00326593
0.00340399
0.00354169
0.00376978
0.00419665
0.00489861
0.00521508
0.00433728
0.00254544
0.00136195
0.00102515
0.00102823
0.00224381
0.00412211
0.00502391
0.00496667
0.00448767
0.00413782
0.00402069
0.00382158
0.00373343
0.00374748
0.00396025
0.0041882
0.00463618
0.00508989
0.00524726
0.00432887
0.00243606
0.0013088
0.00102512
0.00102784
0.00205901
0.00388644
0.00507554
0.00546414
0.0051795
0.00473605
0.00455349
0.0045052
0.00443697
0.0044135
0.00459682
0.00471133
0.00491133
0.00518417
0.00511735
0.00407504
0.00220016
0.00126284
0.0010251
0.00102735
0.00201347
0.00379295
0.00513348
0.00586016
0.00581306
0.00552149
0.00522224
0.00504342
0.00500358
0.00494807
0.00498035
0.00498801
0.00497687
0.00488691
0.00452867
0.00346304
0.00191744
0.00123001
0.00102507
0.00102626
0.00200931
0.0034135
0.0045833
0.00522693
0.00530294
0.00520962
0.0050257
0.00484735
0.00473167
0.00462191
0.00447937
0.0042822
0.0041093
0.00382757
0.00339022
0.00256927
0.00148628
0.00114538
0.00102503
0.00102578
0.0017406
0.00227436
0.00263792
0.00282763
0.0029012
0.00291603
0.00287329
0.00278987
0.00265673
0.00252767
0.0023583
0.00217792
0.00198642
0.00182876
0.00162218
0.00133603
0.00103311
0.0010828
0.001025
0.00102528
0.000744406
0.000759451
0.000791114
0.000821216
0.000848598
0.000873612
0.000893633
0.00090948
0.000917485
0.000922044
0.000926494
0.000928547
0.000939166
0.000944605
0.000979359
0.000984823
0.000979905
0.00102962
0.00102496
0.00102512
0.0010251
0.00102497
0.00102487
0.00102479
0.00102471
0.00102466
0.00102463
0.00102464
0.00102465
0.00102468
0.0010247
0.00102477
0.00102479
0.00102482
0.00102485
0.00102488
0.00102488
0.00102489
0.00102492
)
;

boundaryField
{
    movingWall
    {
        type            calculated;
        value           nonuniform List<scalar> 
20
(
0.00102512
0.0010251
0.00102497
0.00102487
0.00102479
0.00102471
0.00102466
0.00102463
0.00102464
0.00102465
0.00102468
0.0010247
0.00102477
0.00102479
0.00102482
0.00102485
0.00102488
0.00102488
0.00102489
0.00102492
)
;
    }
    fixedWalls
    {
        type            calculated;
        value           nonuniform List<scalar> 
60
(
0.00102258
0.0010223
0.00102348
0.00102512
0.00102631
0.00102712
0.0010276
0.00102797
0.0010282
0.00102834
0.00102847
0.00102846
0.0010284
0.00102823
0.00102784
0.00102735
0.00102626
0.00102578
0.00102528
0.00102512
0.00103858
0.0010446
0.00104146
0.00103356
0.00102846
0.00102641
0.00102568
0.00102534
0.00102525
0.00102518
0.00102518
0.00102516
0.00102515
0.00102512
0.0010251
0.00102507
0.00102503
0.001025
0.00102496
0.00102492
0.00102258
0.0010208
0.00102153
0.00102344
0.00102702
0.00103175
0.00103569
0.00103657
0.00103515
0.00103316
0.00103209
0.00103152
0.00103005
0.00103008
0.00103052
0.00103134
0.00103347
0.00103963
0.00104241
0.00103858
)
;
    }
    frontAndBack
    {
        type            empty;
    }
}


// ************************************************************************* //
