/*--------------------------------*- C++ -*----------------------------------*\
| =========                 |                                                 |
| \\      /  F ield         | OpenFOAM: The Open Source CFD Toolbox           |
|  \\    /   O peration     | Version:  2312                                  |
|   \\  /    A nd           | Website:  www.openfoam.com                      |
|    \\/     M anipulation  |                                                 |
\*---------------------------------------------------------------------------*/
FoamFile
{
    version     2.0;
    format      ascii;
    arch        "LSB;label=32;scalar=64";
    class       volScalarField;
    location    "2.5";
    object      turbulenceProperties:nuEff;
}
// * * * * * * * * * * * * * * * * * * * * * * * * * * * * * * * * * * * * * //

dimensions      [0 2 -1 0 0 0 0];

internalField   nonuniform List<scalar> 
400
(
1.40636e-05
1.51591e-05
1.66177e-05
1.81423e-05
1.99011e-05
2.20576e-05
2.45317e-05
2.68947e-05
2.86292e-05
2.94341e-05
2.97224e-05
2.97512e-05
2.93678e-05
2.88427e-05
2.82909e-05
2.74882e-05
2.61049e-05
2.31289e-05
1.84271e-05
1.54018e-05
1.49841e-05
2.03021e-05
2.21428e-05
2.39811e-05
2.62303e-05
2.88885e-05
3.21118e-05
3.51455e-05
3.66356e-05
3.78254e-05
3.98262e-05
4.18123e-05
4.31232e-05
4.31785e-05
4.33046e-05
4.21949e-05
4.177e-05
3.97042e-05
2.68448e-05
1.81515e-05
1.65473e-05
2.98038e-05
3.20308e-05
3.36587e-05
3.8032e-05
4.12146e-05
4.10108e-05
4.12654e-05
4.1966e-05
4.13811e-05
4.13017e-05
4.08035e-05
4.08501e-05
4.02393e-05
4.01685e-05
4.01783e-05
4.04266e-05
3.95651e-05
3.7312e-05
2.49394e-05
1.80865e-05
3.83915e-05
4.28644e-05
4.42748e-05
4.70421e-05
4.55477e-05
4.44742e-05
4.37437e-05
4.18169e-05
4.17652e-05
4.21994e-05
4.42648e-05
4.53774e-05
4.48351e-05
4.30826e-05
4.03535e-05
3.83111e-05
3.85716e-05
3.82158e-05
3.19771e-05
1.94894e-05
4.57297e-05
5.28831e-05
5.3119e-05
5.05477e-05
4.88262e-05
4.66556e-05
4.33553e-05
4.41191e-05
4.58291e-05
4.99029e-05
5.61302e-05
5.7743e-05
5.73331e-05
5.39324e-05
4.8362e-05
4.28549e-05
3.92738e-05
3.8537e-05
3.69399e-05
2.07055e-05
5.07776e-05
6.04139e-05
5.82188e-05
5.36906e-05
5.09999e-05
4.62908e-05
4.52774e-05
4.85474e-05
5.26387e-05
6.03493e-05
6.72971e-05
7.13551e-05
7.15745e-05
6.84818e-05
6.00661e-05
4.95615e-05
4.15912e-05
3.84672e-05
3.96956e-05
2.17104e-05
5.32551e-05
6.63873e-05
6.18234e-05
5.64521e-05
5.26355e-05
4.64156e-05
4.77993e-05
5.27724e-05
5.84357e-05
6.60866e-05
7.04476e-05
7.50007e-05
7.72126e-05
7.855e-05
7.32746e-05
6.05143e-05
4.7059e-05
3.95275e-05
4.13663e-05
2.25391e-05
5.42565e-05
7.09641e-05
6.43192e-05
5.91061e-05
5.34487e-05
4.6436e-05
4.94089e-05
5.44074e-05
5.99933e-05
6.51914e-05
6.66656e-05
6.862e-05
7.29307e-05
7.96207e-05
8.11788e-05
6.93362e-05
5.2515e-05
4.11351e-05
4.24801e-05
2.31707e-05
5.25977e-05
7.22808e-05
6.72778e-05
6.18857e-05
5.60763e-05
4.90484e-05
4.91116e-05
5.41276e-05
5.9294e-05
6.19662e-05
6.15621e-05
6.17502e-05
6.76233e-05
7.94379e-05
8.60315e-05
7.67959e-05
5.7732e-05
4.32514e-05
4.33766e-05
2.36369e-05
5.11914e-05
7.40593e-05
7.16548e-05
6.49167e-05
5.87623e-05
5.05786e-05
4.89376e-05
5.1353e-05
5.45233e-05
5.66074e-05
5.71552e-05
5.85438e-05
6.49546e-05
7.92113e-05
9.17581e-05
8.34505e-05
6.18485e-05
4.52075e-05
4.41928e-05
2.39579e-05
4.85534e-05
7.41315e-05
7.56706e-05
6.90095e-05
6.2647e-05
5.44138e-05
4.97848e-05
5.07175e-05
5.29312e-05
5.44889e-05
5.49007e-05
5.60702e-05
6.24886e-05
7.99681e-05
9.75583e-05
8.99129e-05
6.40488e-05
4.60353e-05
4.5029e-05
2.40569e-05
4.49135e-05
7.23291e-05
7.97061e-05
7.44887e-05
6.75507e-05
6.23532e-05
5.28796e-05
5.13785e-05
5.18507e-05
5.25601e-05
5.414e-05
5.67161e-05
6.53907e-05
8.50098e-05
0.000103101
9.33883e-05
6.48658e-05
4.65273e-05
4.59471e-05
2.39897e-05
4.06463e-05
6.88632e-05
8.24791e-05
8.09758e-05
7.45916e-05
7.04534e-05
6.39857e-05
5.62461e-05
5.36191e-05
5.3762e-05
5.59613e-05
6.1068e-05
7.24962e-05
9.35754e-05
0.000107271
9.48433e-05
6.32972e-05
4.59313e-05
4.69994e-05
2.37821e-05
3.75601e-05
6.47192e-05
8.31397e-05
8.7792e-05
8.36339e-05
7.88393e-05
7.61416e-05
7.08248e-05
6.68985e-05
6.50752e-05
6.85503e-05
7.37416e-05
8.51803e-05
9.9331e-05
0.000108501
9.39259e-05
5.93871e-05
4.47248e-05
4.82398e-05
2.33148e-05
3.4406e-05
5.97988e-05
8.18709e-05
9.39057e-05
9.45722e-05
8.99032e-05
8.75949e-05
8.62819e-05
8.39026e-05
8.18223e-05
8.45421e-05
8.71284e-05
9.25151e-05
0.000101446
0.000104456
8.61642e-05
5.20082e-05
4.35645e-05
4.9734e-05
2.29077e-05
3.32612e-05
5.75988e-05
8.15775e-05
9.89286e-05
0.00010407
0.000103146
0.00010013
9.74231e-05
9.62666e-05
9.41577e-05
9.35695e-05
9.35054e-05
9.39282e-05
9.40441e-05
8.9853e-05
7.09241e-05
4.45883e-05
4.26814e-05
5.1574e-05
2.20188e-05
3.18666e-05
5.10116e-05
7.19854e-05
8.73169e-05
9.38068e-05
9.64441e-05
9.58109e-05
9.35935e-05
9.13452e-05
8.86796e-05
8.50751e-05
8.08408e-05
7.78526e-05
7.36147e-05
6.73627e-05
5.33732e-05
3.62851e-05
4.13315e-05
5.38699e-05
2.23478e-05
2.92677e-05
3.81072e-05
4.63362e-05
5.22158e-05
5.59959e-05
5.8348e-05
5.90152e-05
5.82937e-05
5.59677e-05
5.35423e-05
5.02275e-05
4.67528e-05
4.33579e-05
4.0752e-05
3.75226e-05
3.31445e-05
3.06014e-05
4.25083e-05
5.70901e-05
2.46373e-05
2.12478e-05
2.33057e-05
2.51342e-05
2.66312e-05
2.79227e-05
2.906e-05
2.99962e-05
3.07555e-05
3.1259e-05
3.16442e-05
3.20703e-05
3.24294e-05
3.31933e-05
3.38037e-05
3.56304e-05
3.6979e-05
4.08518e-05
4.7996e-05
6.18847e-05
4.64298e-05
5.5413e-05
6.13118e-05
6.42756e-05
6.57986e-05
6.66233e-05
6.70358e-05
6.72274e-05
6.72386e-05
6.72156e-05
6.71618e-05
6.71087e-05
6.70808e-05
6.7097e-05
6.7158e-05
6.73024e-05
6.77183e-05
6.78463e-05
6.95355e-05
6.68416e-05
)
;

boundaryField
{
    movingWall
    {
        type            calculated;
        value           nonuniform List<scalar> 
20
(
1e-05
1e-05
1.06695e-05
1.11564e-05
1.14053e-05
1.154e-05
1.16073e-05
1.16387e-05
1.16404e-05
1.16366e-05
1.16276e-05
1.16188e-05
1.16136e-05
1.1616e-05
1.16257e-05
1.16488e-05
1.17159e-05
1.17365e-05
1.2009e-05
1.15735e-05
)
;
    }
    fixedWalls
    {
        type            calculated;
        value           nonuniform List<scalar> 
60
(
1e-05
1e-05
1e-05
1e-05
1e-05
1e-05
1e-05
1e-05
1e-05
1e-05
1e-05
1e-05
1e-05
1e-05
1e-05
1e-05
1e-05
1e-05
1e-05
1e-05
1e-05
1e-05
1e-05
1e-05
1e-05
1e-05
1e-05
1e-05
1e-05
1e-05
1e-05
1e-05
1e-05
1e-05
1e-05
1e-05
1e-05
1e-05
1.07639e-05
1.15735e-05
1e-05
1e-05
1e-05
1e-05
1e-05
1e-05
1e-05
1e-05
1e-05
1e-05
1e-05
1e-05
1e-05
1e-05
1e-05
1e-05
1e-05
1e-05
1e-05
1e-05
)
;
    }
    frontAndBack
    {
        type            empty;
    }
}


// ************************************************************************* //
