/*--------------------------------*- C++ -*----------------------------------*\
| =========                 |                                                 |
| \\      /  F ield         | OpenFOAM: The Open Source CFD Toolbox           |
|  \\    /   O peration     | Version:  2312                                  |
|   \\  /    A nd           | Website:  www.openfoam.com                      |
|    \\/     M anipulation  |                                                 |
\*---------------------------------------------------------------------------*/
FoamFile
{
    version     2.0;
    format      ascii;
    arch        "LSB;label=32;scalar=64";
    class       volVectorField;
    location    "2.5";
    object      UMean;
}
// * * * * * * * * * * * * * * * * * * * * * * * * * * * * * * * * * * * * * //

dimensions      [0 1 -1 0 0 0 0];

internalField   nonuniform List<vector> 
400
(
(-0.000182293 0.000149184 0)
(-0.0014056 0.000676917 0)
(-0.00367081 0.00101803 0)
(-0.00628551 0.00118955 0)
(-0.00917212 0.00134771 0)
(-0.0124006 0.00155675 0)
(-0.0160685 0.00183086 0)
(-0.020205 0.00212491 0)
(-0.0246299 0.00228226 0)
(-0.0289014 0.0021415 0)
(-0.0323666 0.00161966 0)
(-0.034348 0.000745687 0)
(-0.0343139 -0.000444686 0)
(-0.031827 -0.00171178 0)
(-0.0269389 -0.00288488 0)
(-0.02021 -0.00365616 0)
(-0.0126433 -0.00367633 0)
(-0.00543345 -0.00268391 0)
(-0.000640675 -0.00107952 0)
(0.000507503 0.000263584 0)
(-0.000831513 0.00147145 0)
(-0.00327044 0.00316451 0)
(-0.00660136 0.00408845 0)
(-0.0103294 0.00456837 0)
(-0.014347 0.00503602 0)
(-0.0187276 0.0056289 0)
(-0.0235306 0.00625894 0)
(-0.0286413 0.00669791 0)
(-0.0337886 0.00664928 0)
(-0.0385445 0.00584633 0)
(-0.0423738 0.00415351 0)
(-0.0446997 0.00159332 0)
(-0.0449613 -0.0016736 0)
(-0.0427594 -0.00529506 0)
(-0.0378649 -0.00870608 0)
(-0.0305142 -0.0111022 0)
(-0.0214592 -0.0116046 0)
(-0.0119069 -0.009427 0)
(-0.0036048 -0.00490529 0)
(8.45706e-06 -0.000280427 0)
(-0.00145038 0.00408202 0)
(-0.00459122 0.00655957 0)
(-0.008318 0.00790177 0)
(-0.0124917 0.00873935 0)
(-0.0170201 0.00958151 0)
(-0.0219479 0.0105695 0)
(-0.0273098 0.0115289 0)
(-0.0330221 0.0121073 0)
(-0.0388359 0.0118797 0)
(-0.0443607 0.0104738 0)
(-0.0490698 0.00765944 0)
(-0.0523468 0.00338228 0)
(-0.0535965 -0.00214978 0)
(-0.0523922 -0.00847456 0)
(-0.048432 -0.0147979 0)
(-0.0414822 -0.0198973 0)
(-0.0316973 -0.0221604 0)
(-0.019914 -0.019873 0)
(-0.00797297 -0.0123893 0)
(-0.000584044 -0.00289431 0)
(-0.00180817 0.0073063 0)
(-0.00536676 0.0103099 0)
(-0.00928912 0.0119594 0)
(-0.0136138 0.0131685 0)
(-0.0183128 0.014434 0)
(-0.0234821 0.0158747 0)
(-0.0291875 0.0172614 0)
(-0.0353654 0.0181173 0)
(-0.0417755 0.0178563 0)
(-0.0479867 0.0159464 0)
(-0.0534333 0.0120485 0)
(-0.0574943 0.00610476 0)
(-0.059631 -0.00164716 0)
(-0.0594304 -0.0106355 0)
(-0.0566547 -0.0199694 0)
(-0.0509547 -0.0283684 0)
(-0.0418458 -0.0338177 0)
(-0.0291578 -0.0334686 0)
(-0.0142194 -0.0244861 0)
(-0.00203542 -0.00792315 0)
(-0.0019341 0.010856 0)
(-0.00564714 0.0142729 0)
(-0.00957358 0.0161264 0)
(-0.0138408 0.0176596 0)
(-0.0184912 0.0193675 0)
(-0.0236502 0.0213439 0)
(-0.0294194 0.0232716 0)
(-0.0357472 0.0245201 0)
(-0.0423615 0.024308 0)
(-0.0487676 0.0219298 0)
(-0.0543651 0.0169866 0)
(-0.0586197 0.00949586 0)
(-0.0611431 -0.00020164 0)
(-0.0616843 -0.0114448 0)
(-0.0599931 -0.0233781 0)
(-0.05592 -0.0349369 0)
(-0.048693 -0.0443103 0)
(-0.0370651 -0.0480528 0)
(-0.020949 -0.0406279 0)
(-0.00503293 -0.0178195 0)
(-0.00187351 0.0144478 0)
(-0.00550302 0.0182123 0)
(-0.00925844 0.020207 0)
(-0.0132869 0.0220292 0)
(-0.0176636 0.0241808 0)
(-0.0225221 0.0267203 0)
(-0.0279837 0.0292253 0)
(-0.0340024 0.0308879 0)
(-0.0403002 0.0307089 0)
(-0.0464188 0.0278487 0)
(-0.051873 0.0219219 0)
(-0.0562547 0.0130354 0)
(-0.0591566 0.00166129 0)
(-0.0602091 -0.0115289 0)
(-0.0592412 -0.0255919 0)
(-0.0562965 -0.0396066 0)
(-0.0509806 -0.0524325 0)
(-0.0416342 -0.0612596 0)
(-0.0262927 -0.058747 0)
(-0.00822404 -0.0327791 0)
(-0.00167686 0.0178415 0)
(-0.00502694 0.0219262 0)
(-0.00845575 0.0240167 0)
(-0.0120708 0.0260618 0)
(-0.0159456 0.0285867 0)
(-0.0201924 0.0316288 0)
(-0.0249357 0.0346526 0)
(-0.0301664 0.036695 0)
(-0.0356996 0.0365973 0)
(-0.0412437 0.0334424 0)
(-0.0465121 0.0268368 0)
(-0.0511266 0.0168552 0)
(-0.0545491 0.00393034 0)
(-0.0562038 -0.0111517 0)
(-0.0558685 -0.027258 0)
(-0.0536608 -0.0432591 0)
(-0.0496337 -0.0585787 0)
(-0.0426199 -0.0719165 0)
(-0.0292864 -0.0763185 0)
(-0.0106685 -0.0518673 0)
(-0.00139187 0.0208422 0)
(-0.00431465 0.0252487 0)
(-0.00728655 0.0273868 0)
(-0.0103417 0.0295526 0)
(-0.0135174 0.0323082 0)
(-0.0168829 0.0356913 0)
(-0.0205267 0.0390981 0)
(-0.0245384 0.0415228 0)
(-0.0289041 0.0416784 0)
(-0.0335594 0.0385497 0)
(-0.0384163 0.0317053 0)
(-0.0431442 0.0210378 0)
(-0.0470693 0.00679991 0)
(-0.0495295 -0.0101245 0)
(-0.050106 -0.0282805 0)
(-0.0488567 -0.0461599 0)
(-0.045955 -0.0634367 0)
(-0.040924 -0.0801698 0)
(-0.0300473 -0.0919177 0)
(-0.0120707 -0.0732878 0)
(-0.0010591 0.023314 0)
(-0.00345266 0.0280511 0)
(-0.00587815 0.0301886 0)
(-0.00828083 0.0323517 0)
(-0.0106296 0.0351484 0)
(-0.0129231 0.0386377 0)
(-0.0152306 0.0422226 0)
(-0.0176994 0.0449475 0)
(-0.0204848 0.0455147 0)
(-0.0237523 0.0428708 0)
(-0.0276789 0.0363544 0)
(-0.032076 0.0255126 0)
(-0.0363707 0.0103912 0)
(-0.0397251 -0.00811902 0)
(-0.041559 -0.0280888 0)
(-0.0418215 -0.0478116 0)
(-0.0404938 -0.0669071 0)
(-0.0374476 -0.0863564 0)
(-0.0292375 -0.105152 0)
(-0.0127007 -0.0952751 0)
(-0.00071741 0.0251866 0)
(-0.00253136 0.0302601 0)
(-0.004368 0.0323523 0)
(-0.00608511 0.0343779 0)
(-0.00757423 0.0369953 0)
(-0.00875168 0.0403101 0)
(-0.00964532 0.0438357 0)
(-0.0104091 0.0466969 0)
(-0.011316 0.0477122 0)
(-0.0126984 0.0457647 0)
(-0.0149183 0.0400613 0)
(-0.0181814 0.029892 0)
(-0.0222984 0.0148111 0)
(-0.0264385 -0.00449395 0)
(-0.0300001 -0.0259123 0)
(-0.0324444 -0.0474525 0)
(-0.033317 -0.0683645 0)
(-0.0326389 -0.0903641 0)
(-0.0273414 -0.115696 0)
(-0.0130826 -0.116753 0)
(-0.00040115 0.0264514 0)
(-0.00164846 0.0318593 0)
(-0.00290626 0.0338624 0)
(-0.0039631 0.0356283 0)
(-0.00464387 0.0378671 0)
(-0.0047973 0.0407372 0)
(-0.00439712 0.0438947 0)
(-0.0035406 0.0465952 0)
(-0.00252675 0.0478543 0)
(-0.00176381 0.0466326 0)
(-0.00179207 0.0420723 0)
(-0.00304021 0.033307 0)
(-0.00600492 0.0194098 0)
(-0.0106307 0.000533995 0)
(-0.0160611 -0.0214595 0)
(-0.0210431 -0.0443628 0)
(-0.0246032 -0.0671434 0)
(-0.0267281 -0.0916363 0)
(-0.0246662 -0.123322 0)
(-0.013494 -0.137197 0)
(-0.000154706 0.0271665 0)
(-0.00090502 0.0328916 0)
(-0.00163748 0.0347638 0)
(-0.00210223 0.0361716 0)
(-0.00208414 0.0378789 0)
(-0.00139856 0.0400876 0)
(2.92795e-05 0.0425863 0)
(0.00215724 0.0447931 0)
(0.00474149 0.0459237 0)
(0.0073757 0.0451251 0)
(0.00950235 0.041605 0)
(0.0104837 0.0345405 0)
(0.00942967 0.0230641 0)
(0.00550038 0.0064776 0)
(-0.00107601 -0.0146688 0)
(-0.00847075 -0.0382061 0)
(-0.0148604 -0.0628157 0)
(-0.0199804 -0.0897572 0)
(-0.0214734 -0.127763 0)
(-0.0140302 -0.156447 0)
(-2.36059e-05 0.0274622 0)
(-0.000398486 0.0334446 0)
(-0.000690332 0.0351366 0)
(-0.000649326 0.0361115 0)
(-5.0185e-05 0.0371954 0)
(0.00127471 0.0386286 0)
(0.00342197 0.0403012 0)
(0.00637286 0.0417889 0)
(0.00994131 0.0424946 0)
(0.0137677 0.0417512 0)
(0.017331 0.0389217 0)
(0.0199463 0.0334014 0)
(0.0207165 0.0244701 0)
(0.0183842 0.0113429 0)
(0.0123479 -0.00691934 0)
(0.00383055 -0.0298193 0)
(-0.00490303 -0.0554134 0)
(-0.0127976 -0.0845356 0)
(-0.018046 -0.128772 0)
(-0.014751 -0.174463 0)
(-5.11339e-05 0.0276003 0)
(-0.000223756 0.0336717 0)
(-0.000180543 0.035082 0)
(0.000293554 0.0355486 0)
(0.00138726 0.0359636 0)
(0.00321173 0.0366036 0)
(0.0058387 0.0374284 0)
(0.00924634 0.0381532 0)
(0.0132792 0.0383365 0)
(0.0176327 0.0374762 0)
(0.0218439 0.0351009 0)
(0.0252923 0.0308154 0)
(0.0272487 0.024162 0)
(0.0266949 0.0142792 0)
(0.0223613 -0.000113805 0)
(0.0144165 -0.0204389 0)
(0.00450423 -0.0455049 0)
(-0.00560057 -0.0761314 0)
(-0.014478 -0.125821 0)
(-0.0156384 -0.190672 0)
(-0.00030937 0.0275952 0)
(-0.000539973 0.0336353 0)
(-0.000235884 0.0346295 0)
(0.000648026 0.0345082 0)
(0.0022113 0.0342437 0)
(0.00448516 0.0341361 0)
(0.00748327 0.034194 0)
(0.0111573 0.0342339 0)
(0.0153732 0.0339469 0)
(0.0198702 0.0329698 0)
(0.0242609 0.0309651 0)
(0.0280695 0.0276514 0)
(0.0307308 0.0227086 0)
(0.0315253 0.0154965 0)
(0.0292699 0.00470439 0)
(0.0230449 -0.0115369 0)
(0.0132622 -0.0341872 0)
(0.00168028 -0.0652032 0)
(-0.00996287 -0.118135 0)
(-0.0163159 -0.204303 0)
(-0.000918156 0.0289575 0)
(-0.00137406 0.0339381 0)
(-0.000886828 0.0340011 0)
(0.000412104 0.0330756 0)
(0.00247885 0.0320866 0)
(0.00523116 0.0312869 0)
(0.00861437 0.0306953 0)
(0.0125428 0.0301811 0)
(0.0168891 0.0295284 0)
(0.021442 0.0284818 0)
(0.0258997 0.0267917 0)
(0.0298964 0.0242338 0)
(0.0330017 0.0205719 0)
(0.0347029 0.0153799 0)
(0.0341181 0.00760064 0)
(0.0301173 -0.00457179 0)
(0.0211899 -0.0231776 0)
(0.0102748 -0.0532632 0)
(-0.00264334 -0.10603 0)
(-0.0160152 -0.216607 0)
(-0.00228167 0.0271156 0)
(-0.00368055 0.0318173 0)
(-0.00256398 0.0316513 0)
(-0.000450638 0.0304527 0)
(0.00235874 0.029095 0)
(0.00574612 0.0278535 0)
(0.00965807 0.0268264 0)
(0.0139863 0.0259479 0)
(0.0186086 0.0250687 0)
(0.0233609 0.0240081 0)
(0.0280165 0.0225816 0)
(0.0323086 0.0206127 0)
(0.0358658 0.0179473 0)
(0.0382717 0.0142781 0)
(0.0388286 0.0089226 0)
(0.0369068 0.000171778 0)
(0.0291607 -0.0136873 0)
(0.0226201 -0.0423315 0)
(0.00722272 -0.0920198 0)
(-0.0138052 -0.23116 0)
(-0.00415561 0.0438237 0)
(-0.00561559 0.0421388 0)
(-0.00333051 0.0365991 0)
(-0.000167191 0.0317154 0)
(0.0035711 0.0282335 0)
(0.00793107 0.0256585 0)
(0.012807 0.0237304 0)
(0.0180084 0.0222366 0)
(0.0233899 0.0209653 0)
(0.0288118 0.0197436 0)
(0.0341008 0.018435 0)
(0.0390033 0.0169335 0)
(0.0432227 0.0151111 0)
(0.0464779 0.0127567 0)
(0.0480435 0.00949735 0)
(0.0481632 0.00369195 0)
(0.0412723 -0.00633139 0)
(0.0444555 -0.0318564 0)
(0.014008 -0.0730177 0)
(-0.0036905 -0.242729 0)
(-0.00669009 0.0163835 0)
(-0.00930151 0.0100657 0)
(-0.00122793 0.0104342 0)
(0.00774513 0.0131677 0)
(0.0170013 0.0138253 0)
(0.0260126 0.0133477 0)
(0.03454 0.0127618 0)
(0.0425962 0.012287 0)
(0.0502487 0.0118422 0)
(0.0575417 0.0113513 0)
(0.0644544 0.0107835 0)
(0.0709076 0.0101096 0)
(0.0767385 0.00929195 0)
(0.0819297 0.00816711 0)
(0.0855874 0.00662869 0)
(0.089355 0.0034266 0)
(0.0828188 -0.00104567 0)
(0.0954823 -0.0168331 0)
(0.0234219 -0.0379437 0)
(0.0577459 -0.212045 0)
(0.0400461 0.0919478 0)
(0.0607729 0.0672333 0)
(0.0851569 0.0412191 0)
(0.10574 0.0269299 0)
(0.121376 0.0195487 0)
(0.134387 0.0152677 0)
(0.146164 0.0124714 0)
(0.157053 0.0105014 0)
(0.16714 0.00903067 0)
(0.176519 0.00789203 0)
(0.185256 0.00697252 0)
(0.193374 0.00619842 0)
(0.200781 0.00551809 0)
(0.20754 0.00487006 0)
(0.212708 0.00416824 0)
(0.218485 0.00319032 0)
(0.213098 0.00202364 0)
(0.235314 -0.0022003 0)
(0.115777 0.00567259 0)
(0.362454 -0.0958556 0)
)
;

boundaryField
{
    movingWall
    {
        type            calculated;
        value           uniform (1 0 0);
    }
    fixedWalls
    {
        type            calculated;
        value           uniform (0 0 0);
    }
    frontAndBack
    {
        type            empty;
    }
}


// ************************************************************************* //
