/*--------------------------------*- C++ -*----------------------------------*\
| =========                 |                                                 |
| \\      /  F ield         | OpenFOAM: The Open Source CFD Toolbox           |
|  \\    /   O peration     | Version:  2312                                  |
|   \\  /    A nd           | Website:  www.openfoam.com                      |
|    \\/     M anipulation  |                                                 |
\*---------------------------------------------------------------------------*/
FoamFile
{
    version     2.0;
    format      ascii;
    arch        "LSB;label=32;scalar=64";
    class       volVectorField;
    location    "2.5";
    object      UNear;
}
// * * * * * * * * * * * * * * * * * * * * * * * * * * * * * * * * * * * * * //

dimensions      [0 1 -1 0 0 0 0];

internalField   nonuniform List<vector> 
400
(
(0.00027028 -0.000536996 0)
(-0.000878589 0.000161581 0)
(-0.00368421 0.000637503 0)
(-0.00736092 0.00121701 0)
(-0.0126648 0.00212834 0)
(-0.0209919 0.00359756 0)
(-0.033706 0.00626244 0)
(-0.051421 0.00942835 0)
(-0.0719368 0.0112107 0)
(-0.0918186 0.0107953 0)
(-0.107605 0.00833229 0)
(-0.11676 0.00463491 0)
(-0.118408 0.000419558 0)
(-0.111815 -0.00394832 0)
(-0.0966272 -0.00807897 0)
(-0.0744029 -0.0114574 0)
(-0.0477075 -0.0128194 0)
(-0.0200366 -0.0103145 0)
(0.000503064 -0.00364739 0)
(0.00413774 0.00249955 0)
(-0.00117646 0.00120401 0)
(-0.00578706 0.00440183 0)
(-0.0127503 0.00619368 0)
(-0.020906 0.00818707 0)
(-0.0316089 0.0124287 0)
(-0.0470378 0.0188597 0)
(-0.0669869 0.0253679 0)
(-0.0891166 0.0297262 0)
(-0.110761 0.0299247 0)
(-0.129065 0.0255045 0)
(-0.142192 0.017549 0)
(-0.149389 0.00746127 0)
(-0.150162 -0.0038709 0)
(-0.144513 -0.0159695 0)
(-0.132016 -0.0279988 0)
(-0.111675 -0.038166 0)
(-0.0841586 -0.0433549 0)
(-0.0514003 -0.0380845 0)
(-0.0169796 -0.0198796 0)
(0.00182336 0.0024293 0)
(-0.00295253 0.00647642 0)
(-0.0102216 0.0122934 0)
(-0.0196774 0.0155963 0)
(-0.0312644 0.0200171 0)
(-0.0458362 0.0282289 0)
(-0.0641597 0.038319 0)
(-0.0854814 0.0469609 0)
(-0.107159 0.0509964 0)
(-0.126154 0.0485979 0)
(-0.140714 0.0400911 0)
(-0.150107 0.0271225 0)
(-0.154794 0.0113184 0)
(-0.155004 -0.00579915 0)
(-0.150909 -0.0239015 0)
(-0.143014 -0.0429352 0)
(-0.130195 -0.0617477 0)
(-0.109958 -0.0758528 0)
(-0.0798373 -0.0769797 0)
(-0.0414841 -0.0542737 0)
(-0.00461248 -0.00986104 0)
(-0.00434721 0.0141894 0)
(-0.013318 0.0219314 0)
(-0.0241396 0.0270361 0)
(-0.0372422 0.0341786 0)
(-0.0531015 0.0454909 0)
(-0.071954 0.0581179 0)
(-0.0920354 0.0674648 0)
(-0.110528 0.0695155 0)
(-0.124855 0.0629862 0)
(-0.133744 0.0492531 0)
(-0.13749 0.0312633 0)
(-0.136842 0.0118213 0)
(-0.133609 -0.00797226 0)
(-0.129551 -0.027908 0)
(-0.125079 -0.048963 0)
(-0.120482 -0.0722717 0)
(-0.112171 -0.096021 0)
(-0.0934391 -0.111082 0)
(-0.059987 -0.0981341 0)
(-0.017726 -0.0386037 0)
(-0.0050333 0.0232828 0)
(-0.0146903 0.0325798 0)
(-0.0256525 0.0392438 0)
(-0.0385933 0.048674 0)
(-0.0538809 0.062404 0)
(-0.0708832 0.0763501 0)
(-0.0876481 0.0846664 0)
(-0.101455 0.0833025 0)
(-0.110073 0.0717768 0)
(-0.112911 0.052953 0)
(-0.111141 0.0310369 0)
(-0.107071 0.00925602 0)
(-0.102267 -0.0111074 0)
(-0.0970399 -0.0303803 0)
(-0.0927905 -0.0499741 0)
(-0.0909893 -0.0724304 0)
(-0.0909646 -0.100322 0)
(-0.0857328 -0.129804 0)
(-0.0648869 -0.139296 0)
(-0.0274827 -0.0842209 0)
(-0.00492891 0.0327274 0)
(-0.0142827 0.0431752 0)
(-0.0243873 0.0509909 0)
(-0.0358975 0.0620549 0)
(-0.0488563 0.0772556 0)
(-0.0625306 0.0911934 0)
(-0.0751143 0.0974334 0)
(-0.0842698 0.0920044 0)
(-0.0885369 0.0753799 0)
(-0.0885044 0.0521661 0)
(-0.0861698 0.0275206 0)
(-0.0829225 0.00434206 0)
(-0.0783496 -0.0169938 0)
(-0.0725387 -0.0364761 0)
(-0.0665098 -0.0543924 0)
(-0.0623429 -0.0730132 0)
(-0.0624911 -0.0976443 0)
(-0.0645434 -0.132916 0)
(-0.0561543 -0.16506 0)
(-0.0287875 -0.131866 0)
(-0.00417775 0.0415014 0)
(-0.0124284 0.0528021 0)
(-0.0208871 0.0612396 0)
(-0.0299784 0.0730088 0)
(-0.039559 0.088644 0)
(-0.0491468 0.101952 0)
(-0.057456 0.105888 0)
(-0.0629342 0.0969594 0)
(-0.065041 0.0767498 0)
(-0.0650046 0.0511812 0)
(-0.06438 0.0253803 0)
(-0.0627803 0.000931841 0)
(-0.0593143 -0.0222087 0)
(-0.054001 -0.0432267 0)
(-0.0477148 -0.0612195 0)
(-0.0421682 -0.0775638 0)
(-0.0396909 -0.0972029 0)
(-0.0423418 -0.129736 0)
(-0.0412102 -0.175285 0)
(-0.0244253 -0.173527 0)
(-0.00303775 0.0487378 0)
(-0.00957769 0.0606836 0)
(-0.0158685 0.0691446 0)
(-0.0220275 0.0807409 0)
(-0.0278093 0.0959905 0)
(-0.0329773 0.108271 0)
(-0.0369458 0.110674 0)
(-0.0398388 0.099926 0)
(-0.0410414 0.0780502 0)
(-0.0418048 0.0515849 0)
(-0.0426289 0.0250397 0)
(-0.0422585 -0.000901832 0)
(-0.0399631 -0.0261621 0)
(-0.0357697 -0.0489683 0)
(-0.0308916 -0.0673553 0)
(-0.0264719 -0.0825094 0)
(-0.0237498 -0.0990847 0)
(-0.0254514 -0.126489 0)
(-0.0268383 -0.17805 0)
(-0.0184364 -0.203 0)
(-0.00169768 0.0538443 0)
(-0.0061448 0.0663034 0)
(-0.0100811 0.074354 0)
(-0.0132346 0.0850523 0)
(-0.0151244 0.0991665 0)
(-0.0159276 0.11032 0)
(-0.0158723 0.11215 0)
(-0.016143 0.101426 0)
(-0.0164818 0.0795581 0)
(-0.0175379 0.0530196 0)
(-0.018895 0.0258731 0)
(-0.0193207 -0.00140063 0)
(-0.0182813 -0.0285395 0)
(-0.0158738 -0.0527054 0)
(-0.0136906 -0.0711745 0)
(-0.0119415 -0.0853529 0)
(-0.0111737 -0.10007 0)
(-0.0135596 -0.124508 0)
(-0.0163005 -0.177067 0)
(-0.0136096 -0.222575 0)
(-0.000336483 0.0565442 0)
(-0.0025552 0.0695077 0)
(-0.00417282 0.0768594 0)
(-0.00462885 0.0860578 0)
(-0.00304332 0.0982186 0)
(0.000111316 0.10851 0)
(0.0041558 0.1103 0)
(0.00694357 0.100977 0)
(0.00831208 0.0805402 0)
(0.00782372 0.0546386 0)
(0.00669056 0.027315 0)
(0.005835 -0.000781408 0)
(0.00555504 -0.0287247 0)
(0.00528048 -0.053314 0)
(0.00385682 -0.0715595 0)
(0.00204685 -0.0850363 0)
(-0.000132067 -0.0984358 0)
(-0.00464848 -0.120946 0)
(-0.00897762 -0.174165 0)
(-0.01098 -0.235375 0)
(0.000901185 0.0568601 0)
(0.000803991 0.0703688 0)
(0.00127436 0.076906 0)
(0.00303241 0.0842567 0)
(0.00727215 0.0939887 0)
(0.0136677 0.1029 0)
(0.0212776 0.104893 0)
(0.0275458 0.097463 0)
(0.0316682 0.0798431 0)
(0.0329096 0.0557122 0)
(0.0325625 0.0289603 0)
(0.0314191 0.000938774 0)
(0.0295633 -0.0265579 0)
(0.0260219 -0.0504187 0)
(0.0206161 -0.0680929 0)
(0.0149458 -0.0811588 0)
(0.00952917 -0.0937995 0)
(0.00235112 -0.11495 0)
(-0.00403192 -0.169137 0)
(-0.00991505 -0.243778 0)
(0.0018995 0.0550503 0)
(0.00365481 0.0691714 0)
(0.00588492 0.0749536 0)
(0.00930273 0.0803696 0)
(0.0152023 0.0873598 0)
(0.0237704 0.0941846 0)
(0.0338405 0.0960464 0)
(0.0433334 0.090269 0)
(0.0505884 0.0759913 0)
(0.0544337 0.0549503 0)
(0.0554572 0.0301345 0)
(0.0541929 0.00372727 0)
(0.0505896 -0.021939 0)
(0.0438911 -0.0440541 0)
(0.0349801 -0.0608755 0)
(0.0259235 -0.0738276 0)
(0.0175382 -0.0861905 0)
(0.00782474 -0.106532 0)
(-0.000684618 -0.161826 0)
(-0.00984199 -0.249772 0)
(0.0025755 0.0515256 0)
(0.00582294 0.0662776 0)
(0.00945348 0.0714728 0)
(0.014032 0.0751311 0)
(0.0207652 0.0794162 0)
(0.030245 0.0837193 0)
(0.04153 0.0848397 0)
(0.052842 0.0801834 0)
(0.0623721 0.0688512 0)
(0.0686217 0.05143 0)
(0.071132 0.0299368 0)
(0.0700199 0.0067575 0)
(0.0652143 -0.0157008 0)
(0.0565114 -0.0351445 0)
(0.0455097 -0.0508349 0)
(0.0342571 -0.0637346 0)
(0.0236585 -0.0760252 0)
(0.0118895 -0.0958536 0)
(0.00148219 -0.152674 0)
(-0.0103897 -0.254481 0)
(0.00285525 0.0469545 0)
(0.00718322 0.0621354 0)
(0.0118835 0.0668784 0)
(0.0173027 0.069113 0)
(0.0244116 0.0710978 0)
(0.033814 0.0729462 0)
(0.0450851 0.0728722 0)
(0.0567454 0.0688501 0)
(0.067034 0.0597978 0)
(0.0744897 0.0459589 0)
(0.0779604 0.0285914 0)
(0.0771574 0.00970174 0)
(0.0721623 -0.00872966 0)
(0.0633524 -0.0252077 0)
(0.0520674 -0.0394269 0)
(0.039964 -0.0519909 0)
(0.028063 -0.0640332 0)
(0.0147229 -0.0834391 0)
(0.00289851 -0.141477 0)
(-0.0112762 -0.25817 0)
(0.00268188 0.0415507 0)
(0.00756135 0.0569122 0)
(0.0131046 0.0613038 0)
(0.0192624 0.0624917 0)
(0.0266371 0.0627952 0)
(0.0356007 0.0627158 0)
(0.046057 0.061412 0)
(0.0570152 0.0576887 0)
(0.0669825 0.0505531 0)
(0.0744892 0.0399855 0)
(0.0783896 0.0267571 0)
(0.078232 0.0122502 0)
(0.0740399 -0.00218081 0)
(0.0662805 -0.0156635 0)
(0.0558212 -0.0280235 0)
(0.0440037 -0.0396857 0)
(0.0313711 -0.0510101 0)
(0.0171027 -0.0702376 0)
(0.0050541 -0.127649 0)
(-0.0117975 -0.26062 0)
(0.00184279 0.0377846 0)
(0.00696953 0.0519597 0)
(0.0131744 0.0554135 0)
(0.0200325 0.0555722 0)
(0.027747 0.0546904 0)
(0.0364523 0.0533362 0)
(0.0460634 0.051159 0)
(0.0559385 0.0475921 0)
(0.0650597 0.04201 0)
(0.0721947 0.0342426 0)
(0.0763491 0.0246783 0)
(0.0769838 0.0140392 0)
(0.0739955 0.00320295 0)
(0.067685 -0.00726417 0)
(0.0585394 -0.0173845 0)
(0.047583 -0.0275944 0)
(0.0343455 -0.0378963 0)
(0.0214041 -0.0581604 0)
(0.0104807 -0.111696 0)
(-0.0108149 -0.263311 0)
(7.20833e-05 0.0300384 0)
(0.00419247 0.0428536 0)
(0.0111126 0.0465345 0)
(0.0189965 0.0468732 0)
(0.0274449 0.0458103 0)
(0.0364592 0.0440404 0)
(0.0458424 0.0416654 0)
(0.0550943 0.0384966 0)
(0.0635506 0.034225 0)
(0.0703897 0.028721 0)
(0.0748215 0.0220541 0)
(0.0763996 0.0147083 0)
(0.0746579 0.00709826 0)
(0.0698123 -0.000515391 0)
(0.0619744 -0.00814297 0)
(0.0522579 -0.0164754 0)
(0.0384086 -0.0256937 0)
(0.0314311 -0.0489025 0)
(0.0186504 -0.0969552 0)
(-0.0069125 -0.269075 0)
(-0.00302099 0.0434874 0)
(6.98287e-05 0.0495219 0)
(0.00760942 0.0471412 0)
(0.0163004 0.0434164 0)
(0.0256772 0.0400432 0)
(0.0356259 0.0370666 0)
(0.0457094 0.0342394 0)
(0.0554161 0.0312479 0)
(0.0642193 0.0278389 0)
(0.0715567 0.0239368 0)
(0.076851 0.0196453 0)
(0.0795312 0.015075 0)
(0.079504 0.0105138 0)
(0.0766472 0.00597449 0)
(0.0707427 0.00126812 0)
(0.0634402 -0.00509566 0)
(0.049771 -0.0142789 0)
(0.0533522 -0.0396948 0)
(0.0226652 -0.0781364 0)
(0.00650576 -0.270401 0)
(-0.00733958 0.0129623 0)
(-0.01008 0.00979028 0)
(0.00291146 0.0133861 0)
(0.0176176 0.0173054 0)
(0.0319799 0.0186056 0)
(0.0459238 0.018458 0)
(0.0590662 0.0178127 0)
(0.071119 0.0169179 0)
(0.0818937 0.0157423 0)
(0.0911958 0.014248 0)
(0.0988267 0.0125055 0)
(0.104616 0.0105974 0)
(0.108491 0.00863157 0)
(0.110675 0.00654591 0)
(0.110422 0.00426201 0)
(0.109907 0.000349275 0)
(0.0987623 -0.00477922 0)
(0.108929 -0.022021 0)
(0.0299912 -0.0433923 0)
(0.0728066 -0.227751 0)
(0.0400958 0.0932999 0)
(0.0598218 0.0689395 0)
(0.0858155 0.0428839 0)
(0.108903 0.0284661 0)
(0.127514 0.021086 0)
(0.143811 0.0168516 0)
(0.159001 0.0140914 0)
(0.173213 0.0121282 0)
(0.186319 0.0106292 0)
(0.198245 0.00942011 0)
(0.20891 0.00839068 0)
(0.218253 0.00747821 0)
(0.226151 0.00663579 0)
(0.232725 0.00579227 0)
(0.237085 0.00484208 0)
(0.241702 0.00355023 0)
(0.234231 0.0020944 0)
(0.254303 -0.00304622 0)
(0.127989 0.00322331 0)
(0.37967 -0.0985791 0)
)
;

boundaryField
{
    movingWall
    {
        type            fixedValue;
        value           uniform (1 0 0);
    }
    fixedWalls
    {
        type            calculated;
        value           nonuniform List<vector> 
60
(
(0.000108112 -0.000214798 0)
(-0.000470583 0.000481602 0)
(-0.00118101 0.00259057 0)
(-0.00173888 0.00567577 0)
(-0.00201332 0.00931311 0)
(-0.00197156 0.0130909 0)
(-0.0016711 0.0166005 0)
(-0.0012151 0.0194951 0)
(-0.000679072 0.0215377 0)
(-0.000134593 0.0226177 0)
(0.000360474 0.022744 0)
(0.000759802 0.0220201 0)
(0.0010302 0.0206102 0)
(0.0011421 0.0187818 0)
(0.00107275 0.0166203 0)
(0.000737115 0.0151138 0)
(2.88333e-05 0.0120154 0)
(-0.0012084 0.017395 0)
(-0.00293583 0.00518492 0)
(0.166038 0.0373199 0)
(0.0016551 0.00099982 0)
(0.000729346 0.000971721 0)
(-0.00184499 -0.00394442 0)
(-0.0070904 -0.0154415 0)
(-0.0109931 -0.0336883 0)
(-0.011515 -0.0527462 0)
(-0.00977013 -0.0694107 0)
(-0.00737457 -0.0811998 0)
(-0.00544384 -0.0890301 0)
(-0.00439199 -0.0941499 0)
(-0.00396602 -0.0975114 0)
(-0.0039368 -0.0999089 0)
(-0.00415588 -0.101793 0)
(-0.00451047 -0.103268 0)
(-0.004719 -0.104248 0)
(-0.00432595 -0.105324 0)
(-0.002765 -0.10763 0)
(0.0026023 -0.108161 0)
(0.0291226 -0.0911002 0)
(0.301868 -0.0394316 0)
(0.000108112 -0.000214798 0)
(-0.000351436 6.46324e-05 0)
(-0.00147368 0.000255001 0)
(-0.00294437 0.000486802 0)
(-0.0050659 0.000851334 0)
(-0.00839675 0.00143902 0)
(-0.0134824 0.00250498 0)
(-0.0205684 0.00377134 0)
(-0.0287747 0.00448429 0)
(-0.0367274 0.00431811 0)
(-0.0430419 0.00333291 0)
(-0.0467042 0.00185397 0)
(-0.0473631 0.000167823 0)
(-0.044726 -0.00157933 0)
(-0.0386509 -0.00323159 0)
(-0.0297612 -0.00458295 0)
(-0.019083 -0.00512774 0)
(-0.00801463 -0.00412579 0)
(0.000201225 -0.00145896 0)
(0.0016551 0.00099982 0)
)
;
    }
    frontAndBack
    {
        type            empty;
    }
}


// ************************************************************************* //
