/*--------------------------------*- C++ -*----------------------------------*\
| =========                 |                                                 |
| \\      /  F ield         | OpenFOAM: The Open Source CFD Toolbox           |
|  \\    /   O peration     | Version:  2312                                  |
|   \\  /    A nd           | Website:  www.openfoam.com                      |
|    \\/     M anipulation  |                                                 |
\*---------------------------------------------------------------------------*/
FoamFile
{
    version     2.0;
    format      ascii;
    arch        "LSB;label=32;scalar=64";
    class       volSymmTensorField;
    location    "2.5";
    object      UPrime2Mean;
}
// * * * * * * * * * * * * * * * * * * * * * * * * * * * * * * * * * * * * * //

dimensions      [0 2 -2 0 0 0 0];

internalField   nonuniform List<symmTensor> 
400
(
(1.50577e-08 -2.05283e-08 0 3.00038e-08 0 0)
(4.85129e-07 -2.18272e-07 0 1.08363e-07 0 0)
(3.84085e-06 -9.42304e-07 0 2.5371e-07 0 0)
(1.2244e-05 -2.09442e-06 0 3.70578e-07 0 0)
(2.81047e-05 -4.07711e-06 0 6.01127e-07 0 0)
(5.68259e-05 -7.95358e-06 0 1.18403e-06 0 0)
(0.00010979 -1.57315e-05 0 2.51067e-06 0 0)
(0.000206667 -3.00706e-05 0 4.94317e-06 0 0)
(0.000366436 -4.91498e-05 0 7.29643e-06 0 0)
(0.000584248 -6.36835e-05 0 7.52275e-06 0 0)
(0.000815941 -6.17975e-05 0 5.04795e-06 0 0)
(0.000986755 -3.84227e-05 0 1.71708e-06 0 0)
(0.00102946 -6.34226e-07 0 2.41619e-07 0 0)
(0.000910983 3.80154e-05 0 1.93977e-06 0 0)
(0.000657872 6.3441e-05 0 6.59607e-06 0 0)
(0.000364061 6.38139e-05 0 1.16557e-05 0 0)
(0.000131706 3.95227e-05 0 1.22142e-05 0 0)
(1.66405e-05 9.58661e-06 0 5.86193e-06 0 0)
(1.23543e-06 -2.89639e-07 0 4.39007e-07 0 0)
(1.29172e-06 8.45609e-07 0 5.59341e-07 0 0)
(1.77836e-07 -2.99596e-07 0 5.46419e-07 0 0)
(4.04238e-06 -3.70827e-06 0 3.47623e-06 0 0)
(1.90376e-05 -1.0831e-05 0 6.34898e-06 0 0)
(5.01386e-05 -2.05719e-05 0 8.60255e-06 0 0)
(0.00010278 -3.58811e-05 0 1.25976e-05 0 0)
(0.000189952 -6.27702e-05 0 2.13576e-05 0 0)
(0.000334662 -0.00010731 0 3.62913e-05 0 0)
(0.00055852 -0.000167265 0 5.3075e-05 0 0)
(0.000865773 -0.000225105 0 6.17201e-05 0 0)
(0.00122638 -0.000251186 0 5.41945e-05 0 0)
(0.00157681 -0.000219686 0 3.28463e-05 0 0)
(0.00183548 -0.000122718 0 1.01118e-05 0 0)
(0.00192331 2.45451e-05 0 2.10549e-06 0 0)
(0.00180194 0.0001859 0 2.10653e-05 0 0)
(0.0014677 0.000310428 0 6.76051e-05 0 0)
(0.000993668 0.000344753 0 0.000121472 0 0)
(0.000512572 0.000268711 0 0.000142485 0 0)
(0.000159301 0.000121155 0 9.36254e-05 0 0)
(1.05533e-05 1.32227e-05 0 1.84029e-05 0 0)
(1.04092e-06 1.60998e-06 0 2.52392e-06 0 0)
(8.34664e-07 -2.13674e-06 0 5.61137e-06 0 0)
(9.95439e-06 -1.34551e-05 0 1.83901e-05 0 0)
(3.59989e-05 -3.20928e-05 0 2.90789e-05 0 0)
(8.73624e-05 -5.7863e-05 0 3.87708e-05 0 0)
(0.000173586 -9.80925e-05 0 5.5683e-05 0 0)
(0.000313118 -0.000164561 0 8.79187e-05 0 0)
(0.000532132 -0.000263551 0 0.000134397 0 0)
(0.000851799 -0.000383539 0 0.000178455 0 0)
(0.00126723 -0.000487859 0 0.000193975 0 0)
(0.00173878 -0.000526842 0 0.000165227 0 0)
(0.00219365 -0.000459326 0 0.000101173 0 0)
(0.00254145 -0.000269443 0 3.32493e-05 0 0)
(0.00270369 2.03048e-05 0 4.56304e-06 0 0)
(0.00264707 0.000357117 0 5.24521e-05 0 0)
(0.00236802 0.000667441 0 0.000192341 0 0)
(0.00186759 0.00085061 0 0.000391685 0 0)
(0.00121035 0.000805266 0 0.000540008 0 0)
(0.00054768 0.000506885 0 0.000473227 0 0)
(0.000109168 0.000137483 0 0.000177491 0 0)
(1.1657e-06 2.16672e-06 0 4.68314e-06 0 0)
(1.60067e-06 -5.78233e-06 0 2.13264e-05 0 0)
(1.5373e-05 -2.76308e-05 0 5.01574e-05 0 0)
(4.8895e-05 -5.96961e-05 0 7.36785e-05 0 0)
(0.000111703 -0.000104664 0 9.86844e-05 0 0)
(0.000215592 -0.000174136 0 0.000141044 0 0)
(0.000382657 -0.000284359 0 0.000213537 0 0)
(0.000639624 -0.000440311 0 0.000308791 0 0)
(0.00100198 -0.000618006 0 0.00038947 0 0)
(0.0014551 -0.000761041 0 0.000406993 0 0)
(0.00194792 -0.000801818 0 0.000338591 0 0)
(0.00240797 -0.000692801 0 0.000207548 0 0)
(0.00276054 -0.00042415 0 7.34402e-05 0 0)
(0.00294977 -2.35637e-05 0 8.60914e-06 0 0)
(0.00295094 0.000448102 0 7.69085e-05 0 0)
(0.00277945 0.000916336 0 0.000312197 0 0)
(0.00242524 0.0012922 0 0.000700933 0 0)
(0.00186061 0.00143615 0 0.00112349 0 0)
(0.00109541 0.00117177 0 0.00126957 0 0)
(0.000362496 0.000525166 0 0.000773893 0 0)
(1.75057e-05 3.35931e-05 0 6.77924e-05 0 0)
(1.99494e-06 -1.00914e-05 0 5.20347e-05 0 0)
(1.77095e-05 -4.22554e-05 0 0.000101698 0 0)
(5.23228e-05 -8.56977e-05 0 0.000141334 0 0)
(0.000114475 -0.000146606 0 0.000188308 0 0)
(0.000216164 -0.000240163 0 0.000267395 0 0)
(0.000377721 -0.000384422 0 0.000394756 0 0)
(0.000621029 -0.000579636 0 0.000549271 0 0)
(0.000953397 -0.000789566 0 0.000665454 0 0)
(0.00135226 -0.000944449 0 0.000671961 0 0)
(0.00176631 -0.000972012 0 0.00054681 0 0)
(0.00213755 -0.000833611 0 0.000337064 0 0)
(0.00242425 -0.000534467 0 0.000131404 0 0)
(0.00259915 -0.000104973 0 2.15479e-05 0 0)
(0.00264875 0.000403841 0 8.51174e-05 0 0)
(0.00256894 0.000928599 0 0.000369004 0 0)
(0.00237204 0.00141355 0 0.000888442 0 0)
(0.00202214 0.00176238 0 0.0015963 0 0)
(0.00143096 0.00175317 0 0.00222075 0 0)
(0.000646232 0.00111135 0 0.00197935 0 0)
(8.08234e-05 0.000194547 0 0.000484171 0 0)
(1.80427e-06 -1.31413e-05 0 9.71347e-05 0 0)
(1.60318e-05 -5.1962e-05 0 0.00016948 0 0)
(4.55134e-05 -0.00010126 0 0.000226134 0 0)
(9.65241e-05 -0.00016979 0 0.00029902 0 0)
(0.000178009 -0.000273345 0 0.000421152 0 0)
(0.000304304 -0.000427777 0 0.00060822 0 0)
(0.000489801 -0.000627975 0 0.000819399 0 0)
(0.000736187 -0.0008321 0 0.000959494 0 0)
(0.00102406 -0.00097086 0 0.000940013 0 0)
(0.00132219 -0.000985673 0 0.000753314 0 0)
(0.00160651 -0.000856164 0 0.000476219 0 0)
(0.0018627 -0.000589878 0 0.000214835 0 0)
(0.00206511 -0.00020408 0 6.63688e-05 0 0)
(0.00217735 0.000273342 0 0.000109317 0 0)
(0.0021763 0.000787255 0 0.000398485 0 0)
(0.00206446 0.00128753 0 0.000961321 0 0)
(0.00182792 0.00171582 0 0.00181902 0 0)
(0.00142126 0.00193959 0 0.00291153 0 0)
(0.000781266 0.00157869 0 0.00349086 0 0)
(0.00014885 0.000466804 0 0.00158578 0 0)
(1.20935e-06 -1.34162e-05 0 0.000150207 0 0)
(1.14893e-05 -5.28846e-05 0 0.000244353 0 0)
(3.20061e-05 -0.000100462 0 0.000316073 0 0)
(6.58723e-05 -0.000164707 0 0.000412861 0 0)
(0.000117587 -0.000258462 0 0.000573653 0 0)
(0.000194216 -0.000392597 0 0.000811837 0 0)
(0.000303302 -0.000559404 0 0.0010655 0 0)
(0.000446415 -0.000723727 0 0.00121663 0 0)
(0.000617534 -0.000835049 0 0.00117204 0 0)
(0.000811707 -0.000858855 0 0.000944916 0 0)
(0.00103233 -0.00078554 0 0.000631734 0 0)
(0.00127761 -0.000609504 0 0.00034088 0 0)
(0.00152511 -0.000323605 0 0.000166285 0 0)
(0.001722 7.0659e-05 0 0.000184425 0 0)
(0.00182217 0.000542575 0 0.000450749 0 0)
(0.00179777 0.00103378 0 0.000998549 0 0)
(0.00161685 0.0014762 0 0.00188083 0 0)
(0.00127169 0.0017859 0 0.00320929 0 0)
(0.000760715 0.00170347 0 0.00473293 0 0)
(0.000182781 0.000716968 0 0.00341327 0 0)
(5.57457e-07 -1.05135e-05 0 0.000200719 0 0)
(6.20539e-06 -4.40122e-05 0 0.000313994 0 0)
(1.71633e-05 -8.20738e-05 0 0.000395785 0 0)
(3.40414e-05 -0.000130479 0 0.00050797 0 0)
(5.76984e-05 -0.000196221 0 0.000692232 0 0)
(8.99857e-05 -0.000283899 0 0.000959807 0 0)
(0.000133166 -0.000385729 0 0.00123511 0 0)
(0.000191589 -0.000487229 0 0.00139529 0 0)
(0.000270378 -0.000567007 0 0.00134462 0 0)
(0.000380393 -0.000613783 0 0.00110811 0 0)
(0.000539127 -0.000624075 0 0.000794706 0 0)
(0.000759317 -0.00057947 0 0.000506903 0 0)
(0.00103278 -0.000447175 0 0.000329169 0 0)
(0.00131949 -0.000195122 0 0.000328768 0 0)
(0.00153766 0.00019628 0 0.000547668 0 0)
(0.00161718 0.000677891 0 0.00103332 0 0)
(0.00150609 0.00115098 0 0.00187047 0 0)
(0.00117183 0.00149099 0 0.00323872 0 0)
(0.000693676 0.00153824 0 0.00543083 0 0)
(0.000185605 0.000829439 0 0.00555821 0 0)
(1.25288e-07 -5.07035e-06 0 0.000237696 0 0)
(2.07048e-06 -2.6848e-05 0 0.000365955 0 0)
(5.83862e-06 -4.95861e-05 0 0.000451459 0 0)
(1.10532e-05 -7.48548e-05 0 0.000567044 0 0)
(1.72921e-05 -0.000102389 0 0.000753894 0 0)
(2.48337e-05 -0.000129516 0 0.00102179 0 0)
(3.55877e-05 -0.000152769 0 0.00129439 0 0)
(5.3379e-05 -0.000177433 0 0.00145827 0 0)
(8.45373e-05 -0.000214356 0 0.0014217 0 0)
(0.000140604 -0.000277456 0 0.00121533 0 0)
(0.000243292 -0.000373682 0 0.000941013 0 0)
(0.000421392 -0.000480923 0 0.000688867 0 0)
(0.000696634 -0.000550428 0 0.000539691 0 0)
(0.00104413 -0.000500061 0 0.000535102 0 0)
(0.00135592 -0.000239471 0 0.00068326 0 0)
(0.00152274 0.000228867 0 0.00105394 0 0)
(0.00148312 0.000765957 0 0.00179506 0 0)
(0.00115927 0.00116668 0 0.00311305 0 0)
(0.000657294 0.00124813 0 0.00564171 0 0)
(0.000176438 0.000795979 0 0.00749216 0 0)
(5.08872e-08 1.54402e-06 0 0.000253426 0 0)
(3.10867e-07 -4.99069e-06 0 0.000391537 0 0)
(1.02133e-06 -9.73167e-06 0 0.000474912 0 0)
(2.25847e-06 -1.02598e-05 0 0.000581721 0 0)
(4.98739e-06 -1.128e-07 0 0.000749645 0 0)
(1.21837e-05 2.97503e-05 0 0.000988496 0 0)
(2.88521e-05 7.99984e-05 0 0.00123671 0 0)
(5.87638e-05 0.000131597 0 0.0013938 0 0)
(0.000102905 0.000147392 0 0.00138078 0 0)
(0.000162397 9.02671e-05 0 0.00122097 0 0)
(0.000244699 -6.12002e-05 0 0.00101402 0 0)
(0.000382623 -0.000305313 0 0.000846364 0 0)
(0.000619318 -0.000587221 0 0.000761951 0 0)
(0.000960243 -0.000776343 0 0.000765938 0 0)
(0.00131398 -0.000695792 0 0.000827335 0 0)
(0.00152776 -0.000266068 0 0.0010365 0 0)
(0.00152347 0.000341668 0 0.00163324 0 0)
(0.00120643 0.000846678 0 0.00286733 0 0)
(0.000666106 0.000950011 0 0.00548319 0 0)
(0.000165234 0.000683051 0 0.00891393 0 0)
(3.31564e-07 7.83846e-06 0 0.000245136 0 0)
(1.22941e-06 1.70467e-05 0 0.000387483 0 0)
(3.32641e-06 2.96217e-05 0 0.000464423 0 0)
(7.82534e-06 5.03138e-05 0 0.000554 0 0)
(1.84041e-05 8.90301e-05 0 0.000688799 0 0)
(4.29584e-05 0.00015828 0 0.000877985 0 0)
(9.19727e-05 0.000258664 0 0.00107873 0 0)
(0.000173181 0.000366269 0 0.00121073 0 0)
(0.000282774 0.00043054 0 0.0012129 0 0)
(0.000409266 0.00039694 0 0.00110211 0 0)
(0.000538998 0.000229121 0 0.000971721 0 0)
(0.000680013 -8.47552e-05 0 0.000909156 0 0)
(0.00086941 -0.000519474 0 0.000928492 0 0)
(0.00113841 -0.000924952 0 0.000958955 0 0)
(0.00143239 -0.00104191 0 0.000932689 0 0)
(0.00161818 -0.000719576 0 0.000969161 0 0)
(0.00159632 -7.87933e-05 0 0.00138169 0 0)
(0.00127346 0.000545434 0 0.0025005 0 0)
(0.000703622 0.000700392 0 0.00507349 0 0)
(0.000153911 0.000544331 0 0.00971737 0 0)
(8.44598e-07 1.23465e-05 0 0.000215564 0 0)
(4.2995e-06 3.52103e-05 0 0.000356143 0 0)
(1.13574e-05 6.2026e-05 0 0.000424733 0 0)
(2.41047e-05 9.7586e-05 0 0.000494008 0 0)
(4.84417e-05 0.00015213 0 0.000591133 0 0)
(9.61205e-05 0.000237817 0 0.000723195 0 0)
(0.000182514 0.000355857 0 0.000863512 0 0)
(0.000320306 0.000483134 0 0.000955824 0 0)
(0.000506743 0.000569238 0 0.000957052 0 0)
(0.000722249 0.000555232 0 0.000881375 0 0)
(0.000936647 0.000399152 0 0.00080929 0 0)
(0.00112589 8.65413e-05 0 0.000830848 0 0)
(0.00128318 -0.000366715 0 0.000961847 0 0)
(0.00144493 -0.000864586 0 0.0010652 0 0)
(0.00160979 -0.00116724 0 0.000999443 0 0)
(0.00172193 -0.00102843 0 0.00087842 0 0)
(0.00165835 -0.000434463 0 0.00107239 0 0)
(0.00131954 0.000271173 0 0.00203534 0 0)
(0.000745656 0.000514393 0 0.00449599 0 0)
(0.000143992 0.00041629 0 0.00995845 0 0)
(1.42716e-06 1.43536e-05 0 0.000171941 0 0)
(8.61214e-06 4.69963e-05 0 0.000303912 0 0)
(2.28362e-05 8.37129e-05 0 0.000364107 0 0)
(4.62219e-05 0.000127412 0 0.000414829 0 0)
(8.5435e-05 0.000186665 0 0.000478519 0 0)
(0.000152754 0.0002703 0 0.000560195 0 0)
(0.000265167 0.000379216 0 0.000644369 0 0)
(0.000436675 0.000493741 0 0.000696524 0 0)
(0.000666198 0.000571792 0 0.00069028 0 0)
(0.000931429 0.000561777 0 0.000636875 0 0)
(0.00119386 0.000426384 0 0.000598162 0 0)
(0.0014099 0.000159148 0 0.000656503 0 0)
(0.00154813 -0.000214499 0 0.00083708 0 0)
(0.00161784 -0.0006463 0 0.00103 0 0)
(0.00168933 -0.00102002 0 0.00100794 0 0)
(0.00174771 -0.00109206 0 0.000789767 0 0)
(0.00166311 -0.000666469 0 0.000766602 0 0)
(0.00131415 3.34562e-05 0 0.0015171 0 0)
(0.000769388 0.000378953 0 0.00381152 0 0)
(0.000137317 0.000314535 0 0.0097569 0 0)
(1.94087e-06 1.38173e-05 0 0.000123357 0 0)
(1.32133e-05 5.13483e-05 0 0.000239834 0 0)
(3.54365e-05 9.32452e-05 0 0.000291934 0 0)
(6.99487e-05 0.000139626 0 0.000328386 0 0)
(0.000122583 0.000196416 0 0.000367503 0 0)
(0.00020333 0.00026864 0 0.000413171 0 0)
(0.000326571 0.000355712 0 0.000456813 0 0)
(0.000503765 0.000442795 0 0.000480314 0 0)
(0.000733009 0.000498822 0 0.000469665 0 0)
(0.000992613 0.000485897 0 0.000433361 0 0)
(0.00124259 0.000377577 0 0.000412076 0 0)
(0.00143775 0.000175137 0 0.000464837 0 0)
(0.00154916 -9.46269e-05 0 0.00062573 0 0)
(0.00157708 -0.000400724 0 0.000837659 0 0)
(0.00159128 -0.000728538 0 0.000929677 0 0)
(0.00164234 -0.000936316 0 0.000726629 0 0)
(0.00158686 -0.0007462 0 0.000530318 0 0)
(0.00125265 -0.000154496 0 0.00100973 0 0)
(0.000758804 0.000262416 0 0.00304427 0 0)
(0.000132964 0.000228099 0 0.00923247 0 0)
(2.34578e-06 1.11886e-05 0 7.74545e-05 0 0)
(1.72438e-05 4.81104e-05 0 0.000172032 0 0)
(4.69203e-05 9.05049e-05 0 0.000216403 0 0)
(9.16442e-05 0.000135577 0 0.000243325 0 0)
(0.000155115 0.000186296 0 0.000267122 0 0)
(0.000244116 0.000244893 0 0.000291055 0 0)
(0.000368293 0.000309511 0 0.000310989 0 0)
(0.000534341 0.000369638 0 0.000318718 0 0)
(0.000738823 0.000405149 0 0.000308375 0 0)
(0.000961788 0.000391755 0 0.000285677 0 0)
(0.00116851 0.000313506 0 0.000273506 0 0)
(0.00132357 0.000173306 0 0.000306277 0 0)
(0.00140476 -9.27131e-06 0 0.000413433 0 0)
(0.0014111 -0.000211572 0 0.000587495 0 0)
(0.00138069 -0.000433092 0 0.000732233 0 0)
(0.0013961 -0.000655324 0 0.000664988 0 0)
(0.00139853 -0.00067026 0 0.000397869 0 0)
(0.00114588 -0.000282916 0 0.000588191 0 0)
(0.000717296 0.00012764 0 0.00222342 0 0)
(0.000128617 0.000112597 0 0.0084819 0 0)
(2.24304e-06 6.84275e-06 0 4.63645e-05 0 0)
(1.96958e-05 3.94626e-05 0 0.000115908 0 0)
(5.49303e-05 7.81718e-05 0 0.000150233 0 0)
(0.000106705 0.000118263 0 0.000169283 0 0)
(0.000176967 0.000160945 0 0.000183509 0 0)
(0.000270065 0.0002068 0 0.000195328 0 0)
(0.000391278 0.000253589 0 0.000203307 0 0)
(0.000542452 0.000294051 0 0.000204229 0 0)
(0.000718089 0.000316285 0 0.000196353 0 0)
(0.000901432 0.000306473 0 0.00018303 0 0)
(0.00106538 0.000255422 0 0.000175317 0 0)
(0.00118274 0.000164654 0 0.000190396 0 0)
(0.00123611 4.65324e-05 0 0.000246384 0 0)
(0.00122551 -8.30145e-05 0 0.000352726 0 0)
(0.00117018 -0.000217309 0 0.000475681 0 0)
(0.00113615 -0.000375725 0 0.000508781 0 0)
(0.00115458 -0.000491289 0 0.000326526 0 0)
(0.00102079 -0.000352491 0 0.000317479 0 0)
(0.000678943 -3.49218e-05 0 0.00144578 0 0)
(0.000133046 -9.53136e-05 0 0.00763241 0 0)
(2.47307e-06 1.96457e-06 0 2.1133e-05 0 0)
(1.84951e-05 2.1723e-05 0 5.76908e-05 0 0)
(5.18424e-05 5.15437e-05 0 8.5227e-05 0 0)
(0.00010366 8.50658e-05 0 0.000102494 0 0)
(0.000174321 0.000120118 0 0.000113772 0 0)
(0.000266999 0.000156 0 0.000120951 0 0)
(0.000383365 0.000190638 0 0.00012456 0 0)
(0.000521992 0.000219547 0 0.000124112 0 0)
(0.000676004 0.000235968 0 0.000119373 0 0)
(0.000831266 0.000232412 0 0.000111988 0 0)
(0.000966884 0.000203691 0 0.000106621 0 0)
(0.00106261 0.000149931 0 0.000110546 0 0)
(0.00110088 7.84102e-05 0 0.000131648 0 0)
(0.00107751 -1.80364e-06 0 0.000177114 0 0)
(0.00100405 -8.44715e-05 0 0.000245012 0 0)
(0.00092785 -0.000175217 0 0.000293024 0 0)
(0.000885987 -0.00029965 0 0.000252627 0 0)
(0.00091237 -0.000366658 0 0.000208968 0 0)
(0.000656978 -0.000184103 0 0.000825677 0 0)
(0.000193177 -0.000458462 0 0.00663171 0 0)
(1.04799e-06 -1.7086e-06 0 3.51568e-05 0 0)
(9.92854e-06 1.19927e-05 0 6.57705e-05 0 0)
(3.42924e-05 3.45052e-05 0 7.75404e-05 0 0)
(7.31971e-05 5.6779e-05 0 7.87792e-05 0 0)
(0.000131249 7.98703e-05 0 7.84474e-05 0 0)
(0.00021162 0.000104597 0 7.76149e-05 0 0)
(0.000313923 0.000129235 0 7.6229e-05 0 0)
(0.00043579 0.00015067 0 7.36943e-05 0 0)
(0.00057106 0.000165238 0 6.9729e-05 0 0)
(0.000708388 0.000169294 0 6.47811e-05 0 0)
(0.000832254 0.000160501 0 6.02109e-05 0 0)
(0.000923538 0.000139096 0 5.79564e-05 0 0)
(0.000968921 0.000106726 0 5.9787e-05 0 0)
(0.000962607 6.5878e-05 0 6.68781e-05 0 0)
(0.000903211 1.59741e-05 0 8.05663e-05 0 0)
(0.000824338 -5.08492e-05 0 9.89533e-05 0 0)
(0.000704829 -0.000153604 0 0.000123037 0 0)
(0.000835612 -0.000339372 0 0.000190166 0 0)
(0.000544527 -0.000222127 0 0.000370462 0 0)
(0.000463845 -0.00100029 0 0.00465073 0 0)
(1.3497e-06 1.5232e-06 0 1.22905e-05 0 0)
(3.33976e-06 2.18025e-06 0 4.92667e-06 0 0)
(1.09678e-05 6.67221e-06 0 6.50262e-06 0 0)
(3.46589e-05 1.85089e-05 0 1.26298e-05 0 0)
(7.47878e-05 3.23621e-05 0 1.65145e-05 0 0)
(0.000137166 4.73269e-05 0 1.82877e-05 0 0)
(0.00022137 6.20301e-05 0 1.90293e-05 0 0)
(0.000325092 7.58672e-05 0 1.9337e-05 0 0)
(0.000444783 8.80016e-05 0 1.92629e-05 0 0)
(0.000575036 9.70728e-05 0 1.87181e-05 0 0)
(0.000708539 0.000102063 0 1.78344e-05 0 0)
(0.000836738 0.000102502 0 1.68537e-05 0 0)
(0.000951104 9.79835e-05 0 1.59266e-05 0 0)
(0.00104829 8.61585e-05 0 1.46234e-05 0 0)
(0.00110724 6.14969e-05 0 1.25398e-05 0 0)
(0.00114254 4.5529e-06 0 1.00533e-05 0 0)
(0.00104584 -0.000104403 0 2.30726e-05 0 0)
(0.00111552 -0.000309696 0 0.000110656 0 0)
(0.000398067 -0.000199687 0 0.000163515 0 0)
(0.00139218 -0.00139774 0 0.00196316 0 0)
(1.13368e-05 2.27998e-05 0 4.7488e-05 0 0)
(4.67296e-05 7.33282e-05 0 0.000125029 0 0)
(0.000130633 9.9061e-05 0 8.88232e-05 0 0)
(0.000259474 0.000106491 0 5.49259e-05 0 0)
(0.000405583 0.000105915 0 3.58101e-05 0 0)
(0.000561835 0.000103172 0 2.48987e-05 0 0)
(0.000732881 0.000100473 0 1.81869e-05 0 0)
(0.000920274 9.83024e-05 0 1.38056e-05 0 0)
(0.00112235 9.65128e-05 0 1.08019e-05 0 0)
(0.00133716 9.50117e-05 0 8.67553e-06 0 0)
(0.00156203 9.34639e-05 0 7.09356e-06 0 0)
(0.00179326 9.1519e-05 0 5.85426e-06 0 0)
(0.00202368 8.86278e-05 0 4.81957e-06 0 0)
(0.00224818 8.35519e-05 0 3.84611e-06 0 0)
(0.00243018 7.32167e-05 0 2.78411e-06 0 0)
(0.00259261 4.95585e-05 0 1.36911e-06 0 0)
(0.00245703 9.67615e-06 0 5.21601e-07 0 0)
(0.00246235 -0.000117972 0 1.02717e-05 0 0)
(0.000813282 -0.000182629 0 8.51683e-05 0 0)
(0.00364878 -0.00040911 0 7.50209e-05 0 0)
)
;

boundaryField
{
    movingWall
    {
        type            calculated;
        value           uniform (0 0 0 0 0 0);
    }
    fixedWalls
    {
        type            calculated;
        value           uniform (0 0 0 0 0 0);
    }
    frontAndBack
    {
        type            empty;
    }
}


// ************************************************************************* //
