/*--------------------------------*- C++ -*----------------------------------*\
| =========                 |                                                 |
| \\      /  F ield         | OpenFOAM: The Open Source CFD Toolbox           |
|  \\    /   O peration     | Version:  2312                                  |
|   \\  /    A nd           | Website:  www.openfoam.com                      |
|    \\/     M anipulation  |                                                 |
\*---------------------------------------------------------------------------*/
FoamFile
{
    version     2.0;
    format      ascii;
    arch        "LSB;label=32;scalar=64";
    class       volVectorField;
    location    "2.5";
    object      URandom;
}
// * * * * * * * * * * * * * * * * * * * * * * * * * * * * * * * * * * * * * //

dimensions      [0 1 -1 0 0 0 0];

internalField   nonuniform List<vector> 
400
(
(0.0912189 -0.00246924 -0.0415285)
(0.0697817 -0.0372446 -0.0600658)
(0.0100668 0.0491498 -0.0863566)
(-0.082344 0.0307186 -0.0592215)
(-0.0807269 -0.040454 0.0596178)
(-0.109473 0.0224378 0.0426155)
(0.00636516 0.0254697 0.0895845)
(0.0284753 0.0687795 0.00969639)
(-0.151055 0.0217762 0.060238)
(-0.177651 0.0443466 -0.0388219)
(-0.0896777 -0.0900466 0.000458146)
(-0.0899403 -0.0634989 -0.0681063)
(-0.174444 -0.0679989 -0.0466777)
(-0.195728 0.0380916 0.0345147)
(-0.0498125 -0.0956677 0.0116875)
(-0.142673 -0.0781871 -0.029771)
(0.0037233 0.0161495 -0.0807197)
(-0.0541757 -0.0771338 0.0661037)
(-0.0741703 -0.0648923 0.0259411)
(-0.0576331 -0.0494367 0.0590508)
(0.0381862 -0.0618931 0.0668531)
(0.0474816 -0.0236328 0.079853)
(0.0263967 -0.077534 0.0381731)
(0.0503964 0.0628907 -0.0438576)
(-0.0909535 0.0726129 -0.0534423)
(-0.0776156 -0.0123525 0.0899488)
(-0.12725 0.105041 0.00453629)
(-0.0481865 0.108662 -0.045759)
(-0.165924 -0.0485244 -0.028332)
(-0.187327 0.106755 -0.0019737)
(-0.211318 -0.00129646 0.0697597)
(-0.127542 0.0310478 -0.0946911)
(-0.119894 0.0894375 -0.0194262)
(-0.175645 0.00618053 -0.0924131)
(-0.203909 -0.091598 -0.0280459)
(-0.112973 0.0613004 0.0102352)
(0.013783 -0.0233064 -0.00234655)
(-0.0598149 -0.111782 0.0670657)
(-0.00875474 -0.0858215 0.0747263)
(0.000810144 0.097828 -0.0299677)
(0.0219415 -0.036709 -0.0866909)
(0.0462403 0.0828525 0.042819)
(-0.0640792 -0.0633733 -0.0423353)
(-0.00111663 0.109381 0.0332439)
(-0.0747355 -0.00399738 0.090146)
(0.0281402 0.00246229 0.0139653)
(-0.146863 0.047279 -0.0789441)
(-0.164593 0.0277923 0.0785039)
(-0.203757 -0.00416573 0.0345514)
(-0.0931591 -0.0462159 -0.0170183)
(-0.206549 0.100541 -0.0377373)
(-0.131611 -0.0760012 0.0428702)
(-0.120663 0.0754399 -0.0471265)
(-0.216823 -0.0216159 0.0751667)
(-0.210045 -0.066917 0.070226)
(-0.0906856 -0.0240978 -0.0837945)
(-0.07404 -0.139108 -0.0686192)
(-0.038648 -0.114132 0.0832056)
(0.0257883 -0.127647 0.00952383)
(-0.0305756 -0.0872232 0.0578014)
(-0.0787453 0.0359443 0.0631794)
(-0.0743193 0.0132321 0.0787601)
(-0.0664525 0.111728 -0.0322011)
(-0.0818549 0.0516439 -0.0877762)
(0.0390884 0.0762612 0.0235414)
(0.00187055 0.0155922 0.0523594)
(-0.10643 -0.0124573 -0.0583546)
(-0.091503 0.042061 0.0942565)
(-0.0392073 0.0527091 0.0505854)
(-0.0628421 -0.017667 0.0222414)
(-0.139377 0.0621379 0.0950957)
(-0.0738195 -0.0220338 -0.0698711)
(-0.113991 -0.0610208 0.082468)
(-0.0905107 -0.094765 -0.0632927)
(-0.1929 -0.0699962 -0.0704129)
(-0.145567 0.0241481 0.00859801)
(-0.204813 -0.128474 -0.0190843)
(-0.0367775 -0.0517043 -0.0571289)
(-0.0809114 -0.193025 0.0236179)
(-0.0186998 -0.136728 0.0192512)
(-0.0556834 0.0633317 0.0763587)
(-0.111251 0.00660783 -0.00122472)
(0.0193832 0.103988 0.0614815)
(-0.13485 0.0287752 -0.0184048)
(-0.134039 0.0640765 -0.0597651)
(-0.0552691 -0.017457 0.0309262)
(-0.00125836 0.0467318 -0.0331328)
(-0.150484 0.150015 -0.0560849)
(-0.175522 0.146453 0.0118332)
(-0.0952354 0.112324 0.078503)
(-0.0864179 0.0688189 0.089226)
(-0.0189451 0.0499422 -0.0240495)
(-0.0841701 0.0448206 0.0808986)
(-0.0443881 0.000381753 -0.0792558)
(-0.0520779 0.018698 -0.0602214)
(-0.167246 -0.0532449 0.0617809)
(0.00656792 -0.0885696 -0.0186896)
(-0.0653514 -0.0658448 0.0741205)
(-0.00578488 -0.193814 -0.0594537)
(0.0328445 -0.0558515 -0.0745373)
(-0.0507969 -0.0159323 -0.074353)
(0.014312 0.120359 0.056789)
(-0.112206 0.0532181 0.0477793)
(0.034191 0.0996124 -0.0606385)
(-0.062584 0.120164 -0.0892772)
(-0.0439018 0.0546575 -0.0912036)
(-0.127075 0.182614 -0.00665653)
(-0.0486748 0.0795089 0.0926114)
(-0.0132833 0.124635 0.0437129)
(-0.045947 0.0631657 0.0898214)
(-0.163163 0.0130303 -0.0621458)
(-0.0494281 0.0420772 0.0863376)
(-0.00389946 -0.076008 0.031217)
(-0.0804331 0.0626724 -0.0103555)
(-0.127521 -0.00190518 -0.0593523)
(-0.0373349 -0.104119 0.0916898)
(0.00143728 -0.163658 0.0394386)
(-0.0501727 -0.206266 0.0664321)
(-0.0587778 -0.228419 -0.0773226)
(0.0420793 -0.0833844 -0.0512589)
(0.0279386 0.119152 -0.0542116)
(0.0806534 0.0222177 0.0200098)
(-0.0830096 0.107604 -0.0631754)
(0.050282 0.0133976 0.00218348)
(0.00155797 0.053031 0.0839113)
(-0.0979996 0.18443 -0.028475)
(0.0313692 0.0670894 0.0245913)
(-0.0173695 0.184677 -0.0151481)
(-0.0590514 0.0501151 0.0962014)
(-0.0298939 0.116012 0.0675587)
(0.0278144 0.0210177 0.0384858)
(-0.108245 -0.0849058 -0.0237666)
(0.0264476 -0.0560141 -0.0387568)
(-0.109359 -0.0245749 0.0811638)
(-0.034633 -0.0771834 0.0978469)
(0.0114613 -0.161964 -0.000748011)
(-0.000620348 -0.188675 0.0103098)
(-0.0085986 -0.075659 0.0770523)
(0.0259677 -0.198442 -0.0703625)
(0.0521998 -0.132427 -0.04939)
(0.0553175 0.0954253 0.066445)
(0.0558075 4.89304e-05 0.0452572)
(-0.0110172 0.125407 -0.0825285)
(0.0179943 0.0198749 0.0685098)
(-0.0849584 0.0308236 -0.0498725)
(-0.00803489 0.157834 -0.0831947)
(-0.0435384 0.0204427 -0.0426004)
(-0.0262039 0.00773782 -0.0362688)
(-0.0646941 0.077803 0.0971622)
(0.0304278 -0.0118745 0.0274835)
(0.000438229 0.0557766 0.0848555)
(-0.0292442 -0.0629061 -0.0773699)
(-0.114366 -0.0054215 0.0635143)
(-0.0574698 -0.00332942 -0.0862913)
(-0.0814781 -0.148513 -0.0292302)
(0.0522308 -0.14418 -0.00160806)
(-0.0936136 -0.126735 0.0659887)
(-0.0506899 -0.0299103 0.00596221)
(-0.109614 -0.210844 0.0455266)
(-0.0840361 -0.136486 -0.0356733)
(-0.0726658 0.121064 0.0210946)
(0.0563239 0.124803 0.0517247)
(-0.076063 0.0931172 0.0727622)
(0.0556258 0.0835938 -0.0724991)
(-0.0678396 0.135438 -0.0768473)
(0.0174382 0.0407647 0.0636301)
(0.0573017 0.104147 -0.0676869)
(-0.0333357 0.00558414 -0.0227766)
(-0.0511484 0.0692605 -0.0932319)
(0.0533204 0.121808 -0.0157232)
(-0.0144498 0.0917912 0.0750669)
(-0.0707682 0.0843485 0.00047712)
(-0.0869274 -0.0367976 -0.0722462)
(-8.16846e-05 0.0323759 -0.0501178)
(0.0622747 -0.116717 -0.046424)
(-0.070105 -0.0174245 0.044752)
(0.0109984 -0.174139 0.0634209)
(0.0856172 -0.130614 0.0112557)
(-0.0604669 -0.130573 -0.0767306)
(0.0169687 -0.168893 0.0786334)
(-0.0202131 0.0994556 0.0881109)
(-0.0606826 0.150661 0.00594933)
(0.0836122 0.0345629 -0.0224676)
(-0.048221 0.0182513 -0.0591777)
(-0.0290118 0.193927 0.0128667)
(0.0217562 0.192991 0.0489324)
(0.078339 0.0696021 -0.0532965)
(-0.0780565 0.0676944 0.0408321)
(0.0491079 0.150117 -0.0591164)
(-0.058949 0.112595 -0.0467164)
(-0.0598964 0.00315026 -0.070585)
(0.0701556 -0.0403168 0.065573)
(0.0626662 -0.106465 -0.0263591)
(-0.0513304 -0.0805403 0.077807)
(0.0134285 -0.0287612 0.0898704)
(-0.00989566 -0.0410802 -0.0890238)
(0.0755852 -0.161804 0.0158541)
(-0.100948 -0.135628 0.0226038)
(0.0725359 -0.228117 -0.0210883)
(0.00368684 -0.328325 -0.0338405)
(0.0389167 -0.0355324 0.00429423)
(-0.0593749 0.0976281 -0.0750695)
(0.0733482 0.0320269 0.052832)
(-0.0468504 0.136532 -0.0691305)
(0.002797 0.0615206 -0.0944764)
(0.0868497 0.070631 0.060026)
(0.0852458 0.031985 -0.0243413)
(0.0549799 0.0445021 0.0802653)
(0.0810817 0.161256 0.030501)
(-0.00940345 -0.00602018 0.0663228)
(-0.0361557 0.0983916 -0.0213801)
(0.0475836 -0.0782046 0.0589494)
(0.115556 0.0222589 0.014906)
(-0.0291879 -0.019404 -0.0773949)
(-0.0345438 -0.0553295 -0.0824286)
(-0.014727 -0.0142718 -0.0681591)
(-0.0209297 -0.0780978 -0.0939453)
(0.09062 -0.102254 -0.0452482)
(-0.0572569 -0.110593 -0.0611532)
(0.0480313 -0.252088 0.0810751)
(0.0793414 0.0337886 -0.0595877)
(0.0494292 -0.0196644 0.00359207)
(-0.0547259 -0.00417078 0.008103)
(0.00612749 0.163484 -0.0555153)
(0.0453286 0.121991 -0.088843)
(-0.0447412 0.127877 -0.064583)
(-0.00614971 0.155859 0.0694494)
(-0.026417 0.034151 0.0445608)
(0.0112183 0.0816081 0.0917521)
(-0.0152925 0.0689443 -0.0703025)
(0.0478369 -0.0235186 0.0840433)
(0.139712 -0.0386738 0.0298106)
(0.102044 0.0438625 -0.0549779)
(0.0233626 0.015207 0.077889)
(0.0325877 -0.12542 -0.076343)
(0.0851466 -0.0442959 0.07497)
(0.0422716 -0.000747463 0.0456919)
(0.0166164 -0.0083948 0.0170807)
(0.0818203 -0.188719 -0.0496963)
(0.0143602 -0.302685 -0.0813293)
(-0.0742852 -0.00619014 0.0275923)
(0.0762141 0.100525 0.0622268)
(0.0130256 0.161703 -0.0429611)
(-0.0519794 0.00208209 -0.0175027)
(0.0893439 0.117317 -0.0621327)
(0.0408387 0.178511 0.0300375)
(0.127596 0.0744861 -0.0498543)
(-0.00548591 -0.000328726 0.0107543)
(0.0293751 0.0227436 -0.0823729)
(0.0352632 0.0404791 -0.0936338)
(0.136299 0.00240629 0.0706773)
(0.0936491 -0.0880208 0.0214179)
(0.110068 0.00914099 0.085855)
(0.0274839 0.0481245 0.0471559)
(0.114109 -0.120036 -0.0224779)
(0.0801004 -0.00576288 0.0673623)
(0.0504703 -0.0663585 0.0958524)
(-0.0714465 -0.0430046 0.0161895)
(0.0871762 -0.104119 -0.0172915)
(0.0350017 -0.33669 -0.0343705)
(-0.0474819 0.102364 -0.0663022)
(-0.0401971 0.092335 -0.082723)
(0.0848424 0.134821 -0.00780053)
(0.0851964 0.140141 -0.0185856)
(0.00978829 0.0027421 -0.0715098)
(-0.0428288 0.0763554 -0.0641425)
(0.11145 0.0754349 0.0747606)
(-0.0340959 0.0772419 0.0409564)
(0.142845 0.113483 0.0370226)
(0.166479 0.0766165 0.0244564)
(0.110528 0.122507 0.0109224)
(0.0875249 0.0202287 0.0989025)
(-0.0144348 0.0380084 0.0177907)
(0.138841 -0.0282332 0.0655163)
(0.0603789 0.0549234 -0.0320773)
(0.10989 -0.100376 0.0526232)
(0.039999 0.0227887 -0.0481611)
(0.091235 -0.0370316 0.0446345)
(0.0713933 -0.170727 0.06673)
(-0.0758338 -0.241561 -0.0745416)
(0.0698079 -0.0317269 -0.0111575)
(-0.0448102 0.00641644 0.0686104)
(0.0949096 0.0900957 0.0497892)
(-0.0176628 0.130137 0.0637236)
(0.0925938 0.128641 -0.0362495)
(0.0786048 0.001374 0.0662407)
(0.0102931 -0.0180435 -0.049069)
(0.0291128 0.0870169 0.0914402)
(0.0288793 0.103165 0.0760271)
(0.0479 0.124632 0.0461292)
(0.138007 -0.0284052 0.0583342)
(0.0264408 -0.0301921 -0.0742719)
(0.138711 0.043742 -0.0608991)
(0.103245 0.0473453 -0.0682897)
(-0.0263019 0.0285883 -0.00713378)
(0.119971 -0.0604259 0.0616343)
(0.0589775 -0.0690781 -0.0944004)
(-0.0692645 -0.08661 -0.0476723)
(-0.0684855 -0.0740582 0.0414724)
(-0.00342827 -0.359908 -0.00847581)
(0.0333025 0.126838 0.0328597)
(0.0493211 0.123369 -0.055741)
(-0.00742312 0.0244483 0.0928273)
(-0.0375941 0.105515 0.0646909)
(0.121794 0.081621 0.0207332)
(-0.0517978 0.0743829 0.0420591)
(0.0349323 -0.048046 0.00587075)
(0.120574 0.0678343 -0.07357)
(0.0470926 -0.0542817 -0.0201272)
(0.144063 -0.00784806 -0.0553473)
(0.0245761 -0.054878 0.0314698)
(0.0120091 -0.0576223 0.0253558)
(0.0208039 0.0133232 0.0840728)
(0.0833716 0.0737727 0.0564531)
(0.0184319 0.074041 0.00572339)
(0.0797232 0.000114895 -0.0905495)
(0.0260006 0.0326938 -0.0703378)
(0.0663369 -0.0750397 -0.0877276)
(-0.00253075 -0.0895675 0.096649)
(0.0242274 -0.282539 -0.0916641)
(0.0588253 -0.0126537 -0.0687419)
(0.0936224 0.0805152 -0.0241639)
(-0.0409847 -0.0381048 -0.0110481)
(-0.0530553 0.041284 -0.069118)
(-0.0210354 -0.0373555 -0.027076)
(-0.0105942 0.0133571 0.0827316)
(0.0696415 0.137172 0.0176644)
(0.110618 -0.00336098 -0.0718684)
(0.141114 0.0798211 0.0436451)
(0.147726 0.00290863 0.057903)
(0.119183 -0.0515748 0.0510965)
(0.11833 -0.0634879 -0.0461214)
(0.0593848 0.105876 -0.00310715)
(-0.00554086 0.0652247 0.000373853)
(-0.0110559 0.058603 0.0145446)
(0.109196 0.026395 0.0701443)
(0.0285366 -0.114437 -0.0450248)
(0.01444 -0.0893424 0.0898661)
(-0.0245828 -0.0371255 -0.0674632)
(-0.0279915 -0.364345 0.0218948)
(0.0188441 0.134087 -0.0362429)
(0.0837976 0.0269431 0.0497981)
(0.0538494 -0.020075 -0.057826)
(0.0754033 -0.0365984 -0.0102219)
(0.110669 0.0733185 -0.0408544)
(-0.00785189 -0.0236429 -0.0665135)
(0.0124022 0.0756013 0.0847338)
(0.135875 -0.0237727 0.0223397)
(0.0121186 0.10899 0.0264579)
(0.121024 0.060301 -0.0789346)
(0.146456 -0.0106831 -0.0650797)
(0.127869 0.0905614 -0.0443317)
(0.133666 -0.0725724 0.0127719)
(0.00605311 -0.0563036 -0.0337328)
(0.0497042 -0.0188849 0.0956621)
(-0.00334893 -0.0628906 -0.046893)
(-0.033644 -0.0602975 -0.0304008)
(0.0623525 0.015553 -0.0828654)
(0.0790807 -0.155837 0.0279268)
(-0.0680905 -0.330294 -0.0291251)
(-0.0500581 -0.0538008 0.0609739)
(-0.0324033 -0.0392857 0.0842212)
(0.0361238 -0.0231468 -0.0869614)
(0.0903331 0.0271901 -0.067932)
(0.0473987 -0.0352393 -0.0828431)
(0.0600134 -0.0264918 -0.08821)
(-0.0314005 -0.0243213 -0.00636465)
(0.071943 0.0497227 -0.0944625)
(0.0549864 0.0895817 -0.0618363)
(0.156043 0.0860554 0.0252689)
(0.0748347 -0.0536347 0.0710624)
(0.110364 0.0785378 0.073151)
(0.0956239 0.0521863 0.0890921)
(0.130444 -0.0112287 0.0964014)
(0.19496 -0.0282933 -0.0423493)
(0.175534 -0.0438778 0.0611307)
(0.067372 0.0674789 0.0615907)
(0.178401 -0.0758932 0.0476604)
(-0.0581001 -0.0369949 0.0468934)
(0.103846 -0.167887 -0.0738433)
(0.0815717 0.145401 0.0746004)
(-0.00383335 0.0114426 -0.0514017)
(0.0204157 0.0214186 -0.0725404)
(0.173453 0.000962843 -0.0712521)
(0.112571 -0.0422469 0.0759319)
(0.219887 0.0814485 0.00630887)
(0.108011 -0.0501169 -0.0572481)
(0.148983 0.0742534 -0.0745208)
(0.106415 0.035964 0.0545303)
(0.110505 -0.0281296 0.0298635)
(0.178236 -0.0717765 -0.0513068)
(0.256106 0.0840547 0.0519923)
(0.191162 -0.0551087 -0.0704514)
(0.177258 -0.0189969 0.0794284)
(0.276888 0.00872596 -0.0916547)
(0.268297 0.0799897 -0.0587342)
(0.184444 0.0523766 -0.0706607)
(0.351412 0.0208193 -0.000365736)
(0.194227 -0.0280034 0.0680984)
(0.316808 -0.175743 -0.0096982)
)
;

boundaryField
{
    movingWall
    {
        type            fixedValue;
        value           uniform (1 0 0);
    }
    fixedWalls
    {
        type            noSlip;
    }
    frontAndBack
    {
        type            empty;
    }
}


// ************************************************************************* //
