/*--------------------------------*- C++ -*----------------------------------*\
| =========                 |                                                 |
| \\      /  F ield         | OpenFOAM: The Open Source CFD Toolbox           |
|  \\    /   O peration     | Version:  2312                                  |
|   \\  /    A nd           | Website:  www.openfoam.com                      |
|    \\/     M anipulation  |                                                 |
\*---------------------------------------------------------------------------*/
FoamFile
{
    version     2.0;
    format      ascii;
    arch        "LSB;label=32;scalar=64";
    class       volScalarField;
    location    "2.5";
    object      Ux;
}
// * * * * * * * * * * * * * * * * * * * * * * * * * * * * * * * * * * * * * //

dimensions      [0 1 -1 0 0 0 0];

internalField   nonuniform List<scalar> 
400
(
0.00027028
-0.000878589
-0.00368421
-0.00736092
-0.0126648
-0.0209919
-0.033706
-0.051421
-0.0719368
-0.0918186
-0.107605
-0.11676
-0.118408
-0.111815
-0.0966272
-0.0744029
-0.0477075
-0.0200366
0.000503064
0.00413774
-0.00117646
-0.00578706
-0.0127503
-0.020906
-0.0316089
-0.0470378
-0.0669869
-0.0891166
-0.110761
-0.129065
-0.142192
-0.149389
-0.150162
-0.144513
-0.132016
-0.111675
-0.0841586
-0.0514003
-0.0169796
0.00182336
-0.00295253
-0.0102216
-0.0196774
-0.0312644
-0.0458362
-0.0641597
-0.0854814
-0.107159
-0.126154
-0.140714
-0.150107
-0.154794
-0.155004
-0.150909
-0.143014
-0.130195
-0.109958
-0.0798373
-0.0414841
-0.00461248
-0.00434721
-0.013318
-0.0241396
-0.0372422
-0.0531015
-0.071954
-0.0920354
-0.110528
-0.124855
-0.133744
-0.13749
-0.136842
-0.133609
-0.129551
-0.125079
-0.120482
-0.112171
-0.0934391
-0.059987
-0.017726
-0.0050333
-0.0146903
-0.0256525
-0.0385933
-0.0538809
-0.0708832
-0.0876481
-0.101455
-0.110073
-0.112911
-0.111141
-0.107071
-0.102267
-0.0970399
-0.0927905
-0.0909893
-0.0909646
-0.0857328
-0.0648869
-0.0274827
-0.00492891
-0.0142827
-0.0243873
-0.0358975
-0.0488563
-0.0625306
-0.0751143
-0.0842698
-0.0885369
-0.0885044
-0.0861698
-0.0829225
-0.0783496
-0.0725387
-0.0665098
-0.0623429
-0.0624911
-0.0645434
-0.0561543
-0.0287875
-0.00417775
-0.0124284
-0.0208871
-0.0299784
-0.039559
-0.0491468
-0.057456
-0.0629342
-0.065041
-0.0650046
-0.06438
-0.0627803
-0.0593143
-0.054001
-0.0477148
-0.0421682
-0.0396909
-0.0423418
-0.0412102
-0.0244253
-0.00303775
-0.00957769
-0.0158685
-0.0220275
-0.0278093
-0.0329773
-0.0369458
-0.0398388
-0.0410414
-0.0418048
-0.0426289
-0.0422585
-0.0399631
-0.0357697
-0.0308916
-0.0264719
-0.0237498
-0.0254514
-0.0268383
-0.0184364
-0.00169768
-0.0061448
-0.0100811
-0.0132346
-0.0151244
-0.0159276
-0.0158723
-0.016143
-0.0164818
-0.0175379
-0.018895
-0.0193207
-0.0182813
-0.0158738
-0.0136906
-0.0119415
-0.0111737
-0.0135596
-0.0163005
-0.0136096
-0.000336483
-0.0025552
-0.00417282
-0.00462885
-0.00304332
0.000111316
0.0041558
0.00694357
0.00831208
0.00782372
0.00669056
0.005835
0.00555504
0.00528048
0.00385682
0.00204685
-0.000132067
-0.00464848
-0.00897762
-0.01098
0.000901185
0.000803991
0.00127436
0.00303241
0.00727215
0.0136677
0.0212776
0.0275458
0.0316682
0.0329096
0.0325625
0.0314191
0.0295633
0.0260219
0.0206161
0.0149458
0.00952917
0.00235112
-0.00403192
-0.00991505
0.0018995
0.00365481
0.00588492
0.00930273
0.0152023
0.0237704
0.0338405
0.0433334
0.0505884
0.0544337
0.0554572
0.0541929
0.0505896
0.0438911
0.0349801
0.0259235
0.0175382
0.00782474
-0.000684618
-0.00984199
0.0025755
0.00582294
0.00945348
0.014032
0.0207652
0.030245
0.04153
0.052842
0.0623721
0.0686217
0.071132
0.0700199
0.0652143
0.0565114
0.0455097
0.0342571
0.0236585
0.0118895
0.00148219
-0.0103897
0.00285525
0.00718322
0.0118835
0.0173027
0.0244116
0.033814
0.0450851
0.0567454
0.067034
0.0744897
0.0779604
0.0771574
0.0721623
0.0633524
0.0520674
0.039964
0.028063
0.0147229
0.00289851
-0.0112762
0.00268188
0.00756135
0.0131046
0.0192624
0.0266371
0.0356007
0.046057
0.0570152
0.0669825
0.0744892
0.0783896
0.078232
0.0740399
0.0662805
0.0558212
0.0440037
0.0313711
0.0171027
0.0050541
-0.0117975
0.00184279
0.00696953
0.0131744
0.0200325
0.027747
0.0364523
0.0460634
0.0559385
0.0650597
0.0721947
0.0763491
0.0769838
0.0739955
0.067685
0.0585394
0.047583
0.0343455
0.0214041
0.0104807
-0.0108149
7.20833e-05
0.00419247
0.0111126
0.0189965
0.0274449
0.0364592
0.0458424
0.0550943
0.0635506
0.0703897
0.0748215
0.0763996
0.0746579
0.0698123
0.0619744
0.0522579
0.0384086
0.0314311
0.0186504
-0.0069125
-0.00302099
6.98287e-05
0.00760942
0.0163004
0.0256772
0.0356259
0.0457094
0.0554161
0.0642193
0.0715567
0.076851
0.0795312
0.079504
0.0766472
0.0707427
0.0634402
0.049771
0.0533522
0.0226652
0.00650576
-0.00733958
-0.01008
0.00291146
0.0176176
0.0319799
0.0459238
0.0590662
0.071119
0.0818937
0.0911958
0.0988267
0.104616
0.108491
0.110675
0.110422
0.109907
0.0987623
0.108929
0.0299912
0.0728066
0.0400958
0.0598218
0.0858155
0.108903
0.127514
0.143811
0.159001
0.173213
0.186319
0.198245
0.20891
0.218253
0.226151
0.232725
0.237085
0.241702
0.234231
0.254303
0.127989
0.37967
)
;

boundaryField
{
    movingWall
    {
        type            calculated;
        value           uniform 1;
    }
    fixedWalls
    {
        type            calculated;
        value           uniform 0;
    }
    frontAndBack
    {
        type            empty;
    }
}


// ************************************************************************* //
