/*--------------------------------*- C++ -*----------------------------------*\
| =========                 |                                                 |
| \\      /  F ield         | OpenFOAM: The Open Source CFD Toolbox           |
|  \\    /   O peration     | Version:  2312                                  |
|   \\  /    A nd           | Website:  www.openfoam.com                      |
|    \\/     M anipulation  |                                                 |
\*---------------------------------------------------------------------------*/
FoamFile
{
    version     2.0;
    format      ascii;
    arch        "LSB;label=32;scalar=64";
    class       volScalarField;
    location    "2.5";
    object      Uy;
}
// * * * * * * * * * * * * * * * * * * * * * * * * * * * * * * * * * * * * * //

dimensions      [0 1 -1 0 0 0 0];

internalField   nonuniform List<scalar> 
400
(
-0.000536996
0.000161581
0.000637503
0.00121701
0.00212834
0.00359756
0.00626244
0.00942835
0.0112107
0.0107953
0.00833229
0.00463491
0.000419558
-0.00394832
-0.00807897
-0.0114574
-0.0128194
-0.0103145
-0.00364739
0.00249955
0.00120401
0.00440183
0.00619368
0.00818707
0.0124287
0.0188597
0.0253679
0.0297262
0.0299247
0.0255045
0.017549
0.00746127
-0.0038709
-0.0159695
-0.0279988
-0.038166
-0.0433549
-0.0380845
-0.0198796
0.0024293
0.00647642
0.0122934
0.0155963
0.0200171
0.0282289
0.038319
0.0469609
0.0509964
0.0485979
0.0400911
0.0271225
0.0113184
-0.00579915
-0.0239015
-0.0429352
-0.0617477
-0.0758528
-0.0769797
-0.0542737
-0.00986104
0.0141894
0.0219314
0.0270361
0.0341786
0.0454909
0.0581179
0.0674648
0.0695155
0.0629862
0.0492531
0.0312633
0.0118213
-0.00797226
-0.027908
-0.048963
-0.0722717
-0.096021
-0.111082
-0.0981341
-0.0386037
0.0232828
0.0325798
0.0392438
0.048674
0.062404
0.0763501
0.0846664
0.0833025
0.0717768
0.052953
0.0310369
0.00925602
-0.0111074
-0.0303803
-0.0499741
-0.0724304
-0.100322
-0.129804
-0.139296
-0.0842209
0.0327274
0.0431752
0.0509909
0.0620549
0.0772556
0.0911934
0.0974334
0.0920044
0.0753799
0.0521661
0.0275206
0.00434206
-0.0169938
-0.0364761
-0.0543924
-0.0730132
-0.0976443
-0.132916
-0.16506
-0.131866
0.0415014
0.0528021
0.0612396
0.0730088
0.088644
0.101952
0.105888
0.0969594
0.0767498
0.0511812
0.0253803
0.000931841
-0.0222087
-0.0432267
-0.0612195
-0.0775638
-0.0972029
-0.129736
-0.175285
-0.173527
0.0487378
0.0606836
0.0691446
0.0807409
0.0959905
0.108271
0.110674
0.099926
0.0780502
0.0515849
0.0250397
-0.000901832
-0.0261621
-0.0489683
-0.0673553
-0.0825094
-0.0990847
-0.126489
-0.17805
-0.203
0.0538443
0.0663034
0.074354
0.0850523
0.0991665
0.11032
0.11215
0.101426
0.0795581
0.0530196
0.0258731
-0.00140063
-0.0285395
-0.0527054
-0.0711745
-0.0853529
-0.10007
-0.124508
-0.177067
-0.222575
0.0565442
0.0695077
0.0768594
0.0860578
0.0982186
0.10851
0.1103
0.100977
0.0805402
0.0546386
0.027315
-0.000781408
-0.0287247
-0.053314
-0.0715595
-0.0850363
-0.0984358
-0.120946
-0.174165
-0.235375
0.0568601
0.0703688
0.076906
0.0842567
0.0939887
0.1029
0.104893
0.097463
0.0798431
0.0557122
0.0289603
0.000938774
-0.0265579
-0.0504187
-0.0680929
-0.0811588
-0.0937995
-0.11495
-0.169137
-0.243778
0.0550503
0.0691714
0.0749536
0.0803696
0.0873598
0.0941846
0.0960464
0.090269
0.0759913
0.0549503
0.0301345
0.00372727
-0.021939
-0.0440541
-0.0608755
-0.0738276
-0.0861905
-0.106532
-0.161826
-0.249772
0.0515256
0.0662776
0.0714728
0.0751311
0.0794162
0.0837193
0.0848397
0.0801834
0.0688512
0.05143
0.0299368
0.0067575
-0.0157008
-0.0351445
-0.0508349
-0.0637346
-0.0760252
-0.0958536
-0.152674
-0.254481
0.0469545
0.0621354
0.0668784
0.069113
0.0710978
0.0729462
0.0728722
0.0688501
0.0597978
0.0459589
0.0285914
0.00970174
-0.00872966
-0.0252077
-0.0394269
-0.0519909
-0.0640332
-0.0834391
-0.141477
-0.25817
0.0415507
0.0569122
0.0613038
0.0624917
0.0627952
0.0627158
0.061412
0.0576887
0.0505531
0.0399855
0.0267571
0.0122502
-0.00218081
-0.0156635
-0.0280235
-0.0396857
-0.0510101
-0.0702376
-0.127649
-0.26062
0.0377846
0.0519597
0.0554135
0.0555722
0.0546904
0.0533362
0.051159
0.0475921
0.04201
0.0342426
0.0246783
0.0140392
0.00320295
-0.00726417
-0.0173845
-0.0275944
-0.0378963
-0.0581604
-0.111696
-0.263311
0.0300384
0.0428536
0.0465345
0.0468732
0.0458103
0.0440404
0.0416654
0.0384966
0.034225
0.028721
0.0220541
0.0147083
0.00709826
-0.000515391
-0.00814297
-0.0164754
-0.0256937
-0.0489025
-0.0969552
-0.269075
0.0434874
0.0495219
0.0471412
0.0434164
0.0400432
0.0370666
0.0342394
0.0312479
0.0278389
0.0239368
0.0196453
0.015075
0.0105138
0.00597449
0.00126812
-0.00509566
-0.0142789
-0.0396948
-0.0781364
-0.270401
0.0129623
0.00979028
0.0133861
0.0173054
0.0186056
0.018458
0.0178127
0.0169179
0.0157423
0.014248
0.0125055
0.0105974
0.00863157
0.00654591
0.00426201
0.000349275
-0.00477922
-0.022021
-0.0433923
-0.227751
0.0932999
0.0689395
0.0428839
0.0284661
0.021086
0.0168516
0.0140914
0.0121282
0.0106292
0.00942011
0.00839068
0.00747821
0.00663579
0.00579227
0.00484208
0.00355023
0.0020944
-0.00304622
0.00322331
-0.0985791
)
;

boundaryField
{
    movingWall
    {
        type            calculated;
        value           uniform 0;
    }
    fixedWalls
    {
        type            calculated;
        value           uniform 0;
    }
    frontAndBack
    {
        type            empty;
    }
}


// ************************************************************************* //
