/*--------------------------------*- C++ -*----------------------------------*\
| =========                 |                                                 |
| \\      /  F ield         | OpenFOAM: The Open Source CFD Toolbox           |
|  \\    /   O peration     | Version:  2312                                  |
|   \\  /    A nd           | Website:  www.openfoam.com                      |
|    \\/     M anipulation  |                                                 |
\*---------------------------------------------------------------------------*/
FoamFile
{
    version     2.0;
    format      ascii;
    arch        "LSB;label=32;scalar=64";
    class       volVectorField;
    location    "8";
    object      ddtU;
}
// * * * * * * * * * * * * * * * * * * * * * * * * * * * * * * * * * * * * * //

dimensions      [0 1 -2 0 0 0 0];

internalField   nonuniform List<vector> 
400
(
(0 2.42631e-15 0)
(0 -2.68239e-14 0)
(-2.22045e-14 3.80775e-15 0)
(-4.44089e-14 1.69408e-15 0)
(2.22045e-14 -7.06817e-15 0)
(0 -8.45858e-15 0)
(2.22045e-14 1.09641e-14 0)
(0 2.03171e-14 0)
(-2.22045e-14 1.18383e-15 0)
(-4.44089e-14 -9.78848e-15 0)
(2.22045e-14 -1.62085e-14 0)
(-2.22045e-14 -2.10902e-15 0)
(2.22045e-14 5.71697e-15 0)
(2.22045e-14 -1.31883e-15 0)
(0 -8.74024e-16 0)
(2.22045e-14 -6.25088e-15 0)
(0 -9.64504e-15 0)
(2.22045e-14 -9.90421e-15 0)
(0 1.1999e-14 0)
(0 1.9018e-14 0)
(4.44089e-14 -4.31792e-14 0)
(-1.11022e-13 -3.79791e-14 0)
(0 -7.04582e-16 0)
(-4.44089e-14 2.07552e-16 0)
(0 -1.83235e-14 0)
(0 -1.02167e-14 0)
(-4.44089e-14 7.96848e-15 0)
(-4.44089e-14 1.85751e-14 0)
(4.44089e-14 4.22101e-15 0)
(0 -2.73504e-14 0)
(0 -9.50934e-15 0)
(-4.44089e-14 1.88882e-15 0)
(0 4.78477e-16 0)
(-4.44089e-14 -6.59198e-16 0)
(4.44089e-14 5.8753e-15 0)
(-4.44089e-14 -5.03516e-15 0)
(0 -6.7037e-15 0)
(0 -7.26314e-15 0)
(-6.66134e-14 1.34643e-14 0)
(0 2.53177e-14 0)
(4.44089e-14 -1.02156e-13 0)
(-4.44089e-14 -3.41078e-15 0)
(-8.88178e-14 -3.18354e-14 0)
(0 -3.56913e-14 0)
(8.88178e-14 -7.40848e-15 0)
(4.44089e-14 5.85161e-15 0)
(4.44089e-14 1.39171e-15 0)
(0 -2.40091e-16 0)
(4.44089e-14 1.98442e-15 0)
(-2.22045e-14 -7.54259e-15 0)
(-4.44089e-14 -5.67307e-17 0)
(4.44089e-14 -7.89362e-15 0)
(0 -9.11831e-15 0)
(-6.66134e-14 7.28475e-15 0)
(0 1.23566e-14 0)
(-4.44089e-14 6.13969e-15 0)
(-4.44089e-14 3.52355e-15 0)
(4.44089e-14 8.84681e-15 0)
(0 6.2287e-15 0)
(0 1.04036e-14 0)
(4.44089e-14 -2.78669e-14 0)
(-2.22045e-14 -1.95988e-15 0)
(6.66134e-14 -3.07766e-14 0)
(-6.66134e-14 -2.9152e-14 0)
(-8.88178e-14 -4.3637e-15 0)
(-4.44089e-14 1.46957e-15 0)
(-6.66134e-14 -2.57602e-15 0)
(0 -4.77498e-15 0)
(0 -6.25368e-15 0)
(2.22045e-14 9.74135e-15 0)
(4.44089e-14 -1.16991e-15 0)
(-4.44089e-14 4.13259e-15 0)
(0 8.04445e-15 0)
(-6.66134e-14 8.41614e-15 0)
(2.22045e-14 8.35119e-15 0)
(-2.22045e-14 7.10353e-15 0)
(0 -1.36466e-14 0)
(-4.44089e-14 -3.27907e-15 0)
(0 5.38059e-15 0)
(2.22045e-14 1.06871e-14 0)
(4.44089e-14 6.57925e-14 0)
(0 -2.35712e-14 0)
(-4.44089e-14 5.43898e-15 0)
(-2.22045e-14 4.91818e-15 0)
(2.22045e-14 -9.29685e-15 0)
(0 -1.27755e-14 0)
(0 -1.77058e-14 0)
(2.22045e-14 -1.37053e-14 0)
(4.44089e-14 1.44885e-15 0)
(-4.44089e-14 8.30197e-15 0)
(0 3.68217e-15 0)
(4.44089e-14 5.9007e-15 0)
(4.44089e-14 7.56266e-17 0)
(0 -6.79447e-15 0)
(4.44089e-14 -6.5856e-15 0)
(4.44089e-14 1.78958e-15 0)
(2.22045e-14 -4.42177e-16 0)
(0 -6.01755e-16 0)
(0 4.75299e-15 0)
(0 1.63845e-14 0)
(0 -1.05818e-13 0)
(-2.22045e-14 2.33537e-14 0)
(-4.44089e-14 3.01659e-15 0)
(0 -1.38174e-15 0)
(0 -1.62396e-14 0)
(-2.22045e-14 -1.03965e-14 0)
(0 -6.13337e-15 0)
(-6.66134e-14 1.75248e-15 0)
(-2.22045e-14 1.58326e-14 0)
(-2.22045e-14 5.8454e-15 0)
(0 -8.09462e-15 0)
(0 -7.6247e-15 0)
(-2.22045e-14 4.1412e-15 0)
(-4.44089e-14 -7.99003e-16 0)
(-2.22045e-14 -1.17309e-14 0)
(-4.44089e-14 -6.22718e-15 0)
(-4.44089e-14 9.44049e-15 0)
(0 8.49284e-15 0)
(-4.44089e-14 6.32871e-15 0)
(0 1.85665e-14 0)
(-4.44089e-14 2.68102e-14 0)
(4.44089e-14 -1.28043e-14 0)
(4.44089e-14 -4.97556e-15 0)
(4.44089e-14 7.20791e-15 0)
(2.22045e-14 1.61865e-14 0)
(2.22045e-14 1.08546e-15 0)
(-2.22045e-14 -5.3036e-15 0)
(0 -5.05624e-15 0)
(2.22045e-14 7.6333e-15 0)
(2.22045e-14 -6.54383e-15 0)
(2.22045e-14 -8.88729e-15 0)
(4.44089e-14 2.69603e-15 0)
(4.44089e-14 2.46138e-14 0)
(4.44089e-14 6.32455e-15 0)
(4.44089e-14 -1.98026e-16 0)
(-2.22045e-14 9.41516e-15 0)
(-2.22045e-14 2.66691e-15 0)
(-4.44089e-14 -7.32933e-15 0)
(-2.22045e-14 -4.87408e-15 0)
(0 1.15329e-14 0)
(1.33227e-13 -5.15133e-14 0)
(0 1.48321e-15 0)
(0 -6.84277e-16 0)
(-2.22045e-14 1.14504e-14 0)
(0 3.5013e-14 0)
(0 2.25762e-14 0)
(0 1.52598e-14 0)
(-4.44089e-14 1.41559e-14 0)
(0 1.86192e-14 0)
(-4.44089e-14 2.38819e-14 0)
(-4.44089e-14 3.41125e-15 0)
(-1.77636e-13 -1.64063e-14 0)
(0 -1.58953e-14 0)
(-4.44089e-14 -6.60489e-15 0)
(-4.44089e-14 2.74997e-15 0)
(0 5.56738e-15 0)
(-4.44089e-14 3.78663e-15 0)
(4.44089e-14 -8.16011e-16 0)
(0 3.42134e-15 0)
(0 3.23716e-15 0)
(4.44089e-14 -1.11455e-13 0)
(-4.44089e-14 5.23797e-14 0)
(-2.22045e-14 -4.54888e-15 0)
(0 1.40672e-14 0)
(4.44089e-14 1.71054e-14 0)
(-2.22045e-14 2.03164e-14 0)
(0 2.4779e-14 0)
(-4.44089e-14 2.69827e-14 0)
(-4.44089e-14 1.14982e-14 0)
(-4.44089e-14 2.90505e-14 0)
(4.44089e-14 1.13216e-14 0)
(2.22045e-14 -7.78111e-15 0)
(0 -1.72806e-14 0)
(0 5.7149e-16 0)
(-6.66134e-14 -2.21014e-15 0)
(4.44089e-14 -2.02696e-14 0)
(2.22045e-14 -3.0914e-15 0)
(-2.22045e-14 1.5342e-14 0)
(0 2.0317e-14 0)
(0 -1.45529e-15 0)
(-4.44089e-14 9.30503e-14 0)
(2.22045e-14 -3.16027e-14 0)
(-4.44089e-14 -1.74243e-16 0)
(0 1.06075e-14 0)
(0 1.81612e-14 0)
(4.44089e-14 2.66927e-14 0)
(2.22045e-14 3.8077e-14 0)
(-4.44089e-14 2.87782e-14 0)
(-2.22045e-14 7.33286e-15 0)
(2.22045e-14 4.33039e-15 0)
(4.44089e-14 8.15578e-15 0)
(-2.22045e-14 2.59538e-15 0)
(0 -1.56764e-15 0)
(0 4.30727e-15 0)
(0 2.97188e-15 0)
(-2.22045e-14 -9.99384e-15 0)
(-4.44089e-14 -1.18924e-14 0)
(6.66134e-14 4.04263e-15 0)
(-4.44089e-14 -2.74562e-15 0)
(4.44089e-14 6.52876e-15 0)
(8.88178e-14 -8.38957e-14 0)
(-6.66134e-14 2.97925e-14 0)
(-2.22045e-14 7.16464e-15 0)
(-4.44089e-14 -1.79058e-15 0)
(4.44089e-14 4.66381e-15 0)
(0 2.97412e-14 0)
(0 3.61513e-14 0)
(4.44089e-14 2.70056e-14 0)
(0 1.6583e-14 0)
(2.22045e-14 -4.39539e-15 0)
(0 -1.07938e-14 0)
(4.44089e-14 -1.06479e-14 0)
(4.44089e-14 -4.93089e-15 0)
(4.44089e-14 -3.55726e-16 0)
(6.66134e-14 1.31879e-14 0)
(2.22045e-14 1.63141e-14 0)
(2.22045e-14 -1.1421e-14 0)
(0 -2.85953e-14 0)
(2.22045e-14 -1.73158e-14 0)
(0 8.27044e-15 0)
(-1.33227e-13 3.02235e-14 0)
(4.44089e-14 2.62759e-16 0)
(4.44089e-14 5.88602e-15 0)
(4.44089e-14 1.46945e-14 0)
(-4.44089e-14 1.66532e-14 0)
(-4.44089e-14 1.73838e-14 0)
(-4.44089e-14 1.33199e-14 0)
(0 1.32824e-14 0)
(0 6.17885e-15 0)
(4.44089e-14 -2.51581e-14 0)
(4.44089e-14 -7.58841e-15 0)
(-2.22045e-14 1.51256e-14 0)
(-4.44089e-14 4.22389e-15 0)
(-4.44089e-14 -3.35562e-15 0)
(-4.44089e-14 -1.33272e-15 0)
(4.44089e-14 8.83695e-15 0)
(0 1.66292e-15 0)
(-4.44089e-14 -3.08747e-14 0)
(-4.44089e-14 -1.8446e-14 0)
(0 4.78566e-15 0)
(4.44089e-14 -7.96902e-14 0)
(-4.44089e-14 1.35745e-14 0)
(-8.88178e-14 5.75553e-15 0)
(0 2.17285e-14 0)
(-4.44089e-14 1.82879e-14 0)
(0 1.40903e-14 0)
(0 1.38764e-14 0)
(0 4.16478e-15 0)
(8.88178e-14 6.29525e-15 0)
(0 -1.42606e-14 0)
(0 1.75953e-15 0)
(0 1.64958e-14 0)
(4.44089e-14 9.31366e-15 0)
(0 4.39513e-16 0)
(4.44089e-14 -1.05383e-14 0)
(0 -1.20363e-14 0)
(0 -1.25491e-15 0)
(4.44089e-14 3.75135e-15 0)
(-4.44089e-14 -1.57198e-14 0)
(-4.44089e-14 -7.50133e-15 0)
(-6.66134e-14 1.05522e-14 0)
(-4.44089e-14 2.1736e-14 0)
(0 -5.977e-15 0)
(0 -3.75984e-15 0)
(0 8.33816e-15 0)
(-4.44089e-14 7.05923e-15 0)
(-2.22045e-14 -4.20068e-15 0)
(0 -1.76231e-14 0)
(-4.44089e-14 1.03357e-15 0)
(0 1.99334e-14 0)
(-2.22045e-14 -3.08729e-15 0)
(0 -1.06325e-14 0)
(0 5.9978e-15 0)
(4.44089e-14 4.06845e-15 0)
(4.44089e-14 -5.27156e-15 0)
(-2.22045e-14 3.53076e-15 0)
(2.22045e-14 4.64163e-15 0)
(2.22045e-14 1.32259e-14 0)
(4.44089e-14 -2.43733e-15 0)
(0 -1.87328e-14 0)
(8.88178e-14 1.4186e-13 0)
(-4.44089e-14 -1.2956e-14 0)
(4.44089e-14 1.1353e-15 0)
(0 -3.53459e-15 0)
(0 2.21291e-14 0)
(2.22045e-14 8.69498e-15 0)
(2.22045e-14 -6.33785e-16 0)
(0 1.65911e-15 0)
(-4.44089e-14 1.13999e-15 0)
(-2.22045e-14 3.97202e-16 0)
(0 -1.10423e-14 0)
(0 -3.36897e-15 0)
(-2.22045e-14 1.24467e-14 0)
(0 2.27402e-15 0)
(0 -1.34662e-14 0)
(-4.44089e-14 -9.72719e-15 0)
(0 -8.19986e-16 0)
(0 8.50137e-15 0)
(0 6.0155e-15 0)
(0 -4.75131e-15 0)
(-4.44089e-14 -1.00158e-13 0)
(4.44089e-14 4.22591e-14 0)
(0 7.45892e-15 0)
(0 9.81207e-15 0)
(0 9.57108e-15 0)
(0 7.42911e-15 0)
(4.44089e-14 3.25154e-15 0)
(-4.44089e-14 2.24688e-15 0)
(0 -6.59989e-15 0)
(4.44089e-14 -9.98316e-15 0)
(4.44089e-14 -8.88584e-15 0)
(0 -4.5599e-15 0)
(4.44089e-14 8.0182e-15 0)
(6.66134e-14 9.83003e-15 0)
(2.22045e-14 3.14867e-15 0)
(-2.22045e-14 1.94515e-15 0)
(-2.22045e-14 6.06967e-15 0)
(-2.22045e-14 4.18075e-15 0)
(0 -3.35249e-15 0)
(2.22045e-14 9.73933e-15 0)
(8.88178e-14 -9.91773e-14 0)
(6.66134e-14 4.45692e-14 0)
(0 3.51018e-14 0)
(0 2.41887e-14 0)
(2.22045e-14 -5.11835e-15 0)
(0 3.4072e-15 0)
(2.22045e-14 4.00602e-15 0)
(2.22045e-14 2.15989e-15 0)
(0 -1.06766e-14 0)
(2.22045e-14 -5.18109e-15 0)
(2.22045e-14 -1.40799e-14 0)
(0 -3.45437e-15 0)
(0 1.45963e-14 0)
(0 2.13279e-14 0)
(-2.22045e-14 2.32741e-14 0)
(-2.22045e-14 8.78337e-15 0)
(-4.44089e-14 9.54873e-16 0)
(4.44089e-14 4.87671e-15 0)
(0 -2.9182e-16 0)
(-2.22045e-14 8.62149e-15 0)
(-1.55431e-13 3.05828e-14 0)
(-8.88178e-14 -1.41922e-15 0)
(-8.88178e-14 4.63487e-14 0)
(0 3.24907e-14 0)
(0 -1.22107e-15 0)
(0 -9.98751e-15 0)
(0 -7.29988e-15 0)
(0 3.69804e-15 0)
(0 -1.01558e-14 0)
(0 -1.48274e-14 0)
(0 4.24394e-15 0)
(-8.88178e-14 2.57879e-14 0)
(4.44089e-14 1.34996e-14 0)
(-4.44089e-14 1.3777e-14 0)
(0 2.34585e-14 0)
(0 4.81909e-15 0)
(-4.44089e-14 -1.19106e-14 0)
(0 1.01203e-15 0)
(-6.66134e-14 6.6256e-15 0)
(0 -5.59737e-15 0)
(4.44089e-14 -3.15024e-14 0)
(0 8.57324e-15 0)
(-4.44089e-14 8.38168e-15 0)
(-4.44089e-14 2.03642e-15 0)
(0 -1.68537e-14 0)
(0 -1.27165e-14 0)
(4.44089e-14 3.67678e-15 0)
(-4.44089e-14 -2.91086e-15 0)
(4.44089e-14 -1.91503e-14 0)
(0 -2.58295e-15 0)
(-4.44089e-14 3.17069e-14 0)
(0 1.01793e-14 0)
(4.44089e-14 -1.3885e-14 0)
(0 -1.99816e-16 0)
(0 9.94656e-15 0)
(4.44089e-14 1.56771e-14 0)
(0 9.74288e-15 0)
(0 -1.41018e-14 0)
(2.22045e-14 -1.65106e-15 0)
(0 4.20923e-15 0)
(-2.22045e-14 -1.07148e-13 0)
(0 5.31995e-14 0)
(4.44089e-14 1.12166e-15 0)
(2.22045e-14 -1.03745e-14 0)
(2.22045e-14 -1.50676e-14 0)
(0 -2.724e-15 0)
(-6.66134e-14 1.35287e-14 0)
(4.44089e-14 1.02248e-16 0)
(-2.22045e-14 -1.23852e-14 0)
(-6.66134e-14 9.71864e-16 0)
(-6.66134e-14 9.84411e-15 0)
(2.22045e-14 -1.00823e-14 0)
(-2.22045e-14 -5.18685e-15 0)
(-2.22045e-14 7.40129e-16 0)
(-2.22045e-14 -3.19538e-15 0)
(0 -4.50874e-16 0)
(-6.66134e-14 8.82144e-15 0)
(-2.22045e-14 -8.29434e-15 0)
(-2.22045e-14 1.03266e-15 0)
(-2.22045e-14 1.01741e-14 0)
)
;

boundaryField
{
    movingWall
    {
        type            calculated;
        value           uniform (0 0 0);
    }
    fixedWalls
    {
        type            calculated;
        value           uniform (0 0 0);
    }
    frontAndBack
    {
        type            empty;
    }
}


// ************************************************************************* //
