/*--------------------------------*- C++ -*----------------------------------*\
| =========                 |                                                 |
| \\      /  F ield         | OpenFOAM: The Open Source CFD Toolbox           |
|  \\    /   O peration     | Version:  2312                                  |
|   \\  /    A nd           | Website:  www.openfoam.com                      |
|    \\/     M anipulation  |                                                 |
\*---------------------------------------------------------------------------*/
FoamFile
{
    version     2.0;
    format      ascii;
    arch        "LSB;label=32;scalar=64";
    class       volVectorField;
    location    "8";
    object      diffU;
}
// * * * * * * * * * * * * * * * * * * * * * * * * * * * * * * * * * * * * * //

dimensions      [0 1 -1 0 0 0 0];

internalField   nonuniform List<vector> 
400
(
(0 0 0)
(4.44089e-16 -3.74846e-14 0)
(7.77156e-16 -2.97497e-14 0)
(3.33067e-16 -3.14259e-14 0)
(5.55112e-16 -3.10132e-14 0)
(6.66134e-16 -3.10447e-14 0)
(4.44089e-16 -3.10159e-14 0)
(4.44089e-16 -3.09684e-14 0)
(4.44089e-16 -3.0915e-14 0)
(1.11022e-16 -3.10171e-14 0)
(2.22045e-16 -3.11131e-14 0)
(2.22045e-16 -3.10792e-14 0)
(2.22045e-16 -3.09939e-14 0)
(0 -3.10474e-14 0)
(0 -3.10619e-14 0)
(-1.11022e-16 -3.10732e-14 0)
(-2.22045e-16 -3.10664e-14 0)
(-1.11022e-16 -3.11248e-14 0)
(-1.11022e-16 -3.10731e-14 0)
(-2.22045e-16 -3.10363e-14 0)
(-3.9968e-15 -2.34725e-14 0)
(-6.66134e-16 -3.24357e-14 0)
(-1.55431e-15 -3.08843e-14 0)
(-1.11022e-15 -3.11401e-14 0)
(-1.11022e-15 -3.10995e-14 0)
(-1.11022e-15 -3.11307e-14 0)
(-8.88178e-16 -3.11354e-14 0)
(-1.11022e-15 -3.10528e-14 0)
(-4.44089e-16 -3.09663e-14 0)
(-6.66134e-16 -3.10694e-14 0)
(-6.66134e-16 -3.11488e-14 0)
(-6.66134e-16 -3.10392e-14 0)
(-4.44089e-16 -3.09872e-14 0)
(-6.66134e-16 -3.10958e-14 0)
(-2.22045e-16 -3.10377e-14 0)
(-4.44089e-16 -3.09718e-14 0)
(-2.22045e-16 -3.10094e-14 0)
(-2.22045e-16 -3.10713e-14 0)
(-4.44089e-16 -3.11212e-14 0)
(-4.44089e-16 -3.10817e-14 0)
(1.11022e-16 -4.81673e-14 0)
(-6.66134e-16 -2.79356e-14 0)
(-8.88178e-16 -3.17421e-14 0)
(-8.88178e-16 -3.10497e-14 0)
(-2.22045e-16 -3.13241e-14 0)
(-4.44089e-16 -3.1303e-14 0)
(-4.44089e-16 -3.12859e-14 0)
(-4.44089e-16 -3.11884e-14 0)
(-4.44089e-16 -3.11519e-14 0)
(-2.22045e-16 -3.10942e-14 0)
(-6.66134e-16 -3.11419e-14 0)
(-4.44089e-16 -3.11575e-14 0)
(-2.22045e-16 -3.11656e-14 0)
(-4.44089e-16 -3.11309e-14 0)
(-6.66134e-16 -3.10753e-14 0)
(-6.66134e-16 -3.10238e-14 0)
(-6.66134e-16 -3.10617e-14 0)
(-2.22045e-16 -3.10892e-14 0)
(-2.22045e-16 -3.12184e-14 0)
(-2.22045e-16 -3.12023e-14 0)
(-4.21885e-15 -4.16151e-14 0)
(1.44329e-15 -2.89924e-14 0)
(6.66134e-16 -3.14991e-14 0)
(6.66134e-16 -3.10532e-14 0)
(5.55112e-16 -3.12696e-14 0)
(4.44089e-16 -3.12016e-14 0)
(3.33067e-16 -3.11589e-14 0)
(0 -3.11243e-14 0)
(1.11022e-16 -3.11458e-14 0)
(1.11022e-16 -3.10855e-14 0)
(2.22045e-16 -3.11316e-14 0)
(1.11022e-16 -3.11339e-14 0)
(0 -3.10892e-14 0)
(-4.44089e-16 -3.09995e-14 0)
(1.11022e-16 -3.09741e-14 0)
(-1.11022e-16 -3.09738e-14 0)
(-1.11022e-16 -3.11011e-14 0)
(0 -3.11529e-14 0)
(-1.11022e-16 -3.11679e-14 0)
(0 -3.11684e-14 0)
(8.43769e-15 -9.39531e-15 0)
(-1.77636e-15 -3.53821e-14 0)
(6.66134e-16 -3.01231e-14 0)
(-2.22045e-16 -3.11925e-14 0)
(1.11022e-16 -3.10154e-14 0)
(-1.11022e-16 -3.10436e-14 0)
(-1.11022e-16 -3.10259e-14 0)
(0 -3.11129e-14 0)
(0 -3.11035e-14 0)
(-2.22045e-16 -3.10067e-14 0)
(-4.44089e-16 -3.09884e-14 0)
(-4.44089e-16 -3.09682e-14 0)
(-4.44089e-16 -3.10207e-14 0)
(-6.66134e-16 -3.10824e-14 0)
(-4.44089e-16 -3.11296e-14 0)
(-4.44089e-16 -3.11227e-14 0)
(0 -3.1135e-14 0)
(-2.22045e-16 -3.10548e-14 0)
(-1.11022e-16 -3.10661e-14 0)
(-1.11022e-16 -3.10884e-14 0)
(-1.02141e-14 -5.1918e-14 0)
(1.66533e-15 -2.70868e-14 0)
(-1.11022e-15 -3.19851e-14 0)
(4.44089e-16 -3.08764e-14 0)
(0 -3.11164e-14 0)
(0 -3.10856e-14 0)
(1.11022e-16 -3.10851e-14 0)
(1.11022e-16 -3.10678e-14 0)
(-1.11022e-16 -3.09345e-14 0)
(0 -3.08724e-14 0)
(-1.11022e-16 -3.09123e-14 0)
(2.22045e-16 -3.09984e-14 0)
(1.11022e-16 -3.10157e-14 0)
(0 -3.10715e-14 0)
(-1.11022e-16 -3.12243e-14 0)
(-1.11022e-16 -3.13317e-14 0)
(-4.44089e-16 -3.11888e-14 0)
(-4.44089e-16 -3.10756e-14 0)
(-2.22045e-16 -3.10444e-14 0)
(-1.11022e-16 -3.10307e-14 0)
(7.32747e-15 -2.93484e-14 0)
(-1.77636e-15 -3.13234e-14 0)
(4.44089e-16 -3.12061e-14 0)
(-4.44089e-16 -3.11777e-14 0)
(1.11022e-16 -3.10847e-14 0)
(0 -3.10585e-14 0)
(1.11022e-16 -3.11346e-14 0)
(1.11022e-16 -3.11105e-14 0)
(1.11022e-16 -3.10054e-14 0)
(2.22045e-16 -3.10569e-14 0)
(1.11022e-16 -3.11202e-14 0)
(2.22045e-16 -3.10761e-14 0)
(3.33067e-16 -3.09035e-14 0)
(1.11022e-16 -3.08907e-14 0)
(4.44089e-16 -3.10338e-14 0)
(0 -3.10674e-14 0)
(0 -3.10136e-14 0)
(-2.22045e-16 -3.1069e-14 0)
(-2.22045e-16 -3.10755e-14 0)
(0 -3.10068e-14 0)
(-1.11022e-14 2.35333e-15 0)
(1.88738e-15 -3.89302e-14 0)
(-1.33227e-15 -2.96877e-14 0)
(2.22045e-16 -3.18031e-14 0)
(-2.22045e-16 -3.11678e-14 0)
(-1.11022e-16 -3.11914e-14 0)
(-2.22045e-16 -3.11155e-14 0)
(-4.44089e-16 -3.10913e-14 0)
(-4.44089e-16 -3.10033e-14 0)
(-1.11022e-16 -3.08205e-14 0)
(-4.44089e-16 -3.08077e-14 0)
(-1.11022e-15 -3.09112e-14 0)
(-8.88178e-16 -3.1033e-14 0)
(-6.66134e-16 -3.10816e-14 0)
(-6.66134e-16 -3.11034e-14 0)
(-4.44089e-16 -3.10973e-14 0)
(-6.66134e-16 -3.10921e-14 0)
(-2.22045e-16 -3.10583e-14 0)
(-2.22045e-16 -3.10259e-14 0)
(-2.22045e-16 -3.10166e-14 0)
(1.65423e-14 -7.49516e-14 0)
(-3.10862e-15 -2.22624e-14 0)
(1.22125e-15 -3.31734e-14 0)
(-4.44089e-16 -3.07322e-14 0)
(1.11022e-16 -3.11278e-14 0)
(-1.11022e-16 -3.09682e-14 0)
(-2.22045e-16 -3.0925e-14 0)
(-2.22045e-16 -3.09419e-14 0)
(-4.44089e-16 -3.09949e-14 0)
(-6.66134e-16 -3.09086e-14 0)
(-2.22045e-16 -3.08578e-14 0)
(-1.11022e-16 -3.09271e-14 0)
(1.11022e-16 -3.11513e-14 0)
(0 -3.11932e-14 0)
(-2.22045e-16 -3.10973e-14 0)
(2.22045e-16 -3.11328e-14 0)
(0 -3.11646e-14 0)
(-2.22045e-16 -3.1047e-14 0)
(-2.22045e-16 -3.09545e-14 0)
(-2.22045e-16 -3.10503e-14 0)
(-6.88338e-15 -2.07747e-14 0)
(9.99201e-16 -3.28424e-14 0)
(-6.66134e-16 -3.09835e-14 0)
(-4.44089e-16 -3.12926e-14 0)
(-2.22045e-16 -3.11725e-14 0)
(-2.22045e-16 -3.10729e-14 0)
(0 -3.09909e-14 0)
(0 -3.0917e-14 0)
(0 -3.09839e-14 0)
(2.22045e-16 -3.10803e-14 0)
(4.44089e-16 -3.09906e-14 0)
(0 -3.09432e-14 0)
(1.11022e-16 -3.1006e-14 0)
(-2.22045e-16 -3.10512e-14 0)
(-2.22045e-16 -3.10358e-14 0)
(-2.22045e-16 -3.102e-14 0)
(-6.66134e-16 -3.10234e-14 0)
(-1.11022e-16 -3.1022e-14 0)
(-4.44089e-16 -3.10375e-14 0)
(-2.22045e-16 -3.11129e-14 0)
(-3.77476e-15 -2.29947e-14 0)
(1.22125e-15 -3.30658e-14 0)
(-1.11022e-16 -3.06107e-14 0)
(0 -3.13537e-14 0)
(1.11022e-16 -3.12761e-14 0)
(1.11022e-16 -3.12433e-14 0)
(-2.22045e-16 -3.10275e-14 0)
(0 -3.09137e-14 0)
(-2.22045e-16 -3.09139e-14 0)
(-1.11022e-16 -3.09494e-14 0)
(-4.44089e-16 -3.09201e-14 0)
(-2.22045e-16 -3.09558e-14 0)
(0 -3.10001e-14 0)
(1.11022e-16 -3.10409e-14 0)
(1.11022e-16 -3.10483e-14 0)
(0 -3.09749e-14 0)
(0 -3.09869e-14 0)
(-4.44089e-16 -3.1097e-14 0)
(1.11022e-16 -3.10839e-14 0)
(-1.11022e-16 -3.10935e-14 0)
(7.43849e-15 -3.41477e-14 0)
(-2.66454e-15 -3.00908e-14 0)
(0 -3.1253e-14 0)
(-6.66134e-16 -3.10266e-14 0)
(-6.66134e-16 -3.1077e-14 0)
(-6.66134e-16 -3.0988e-14 0)
(-8.88178e-16 -3.09507e-14 0)
(-8.88178e-16 -3.09487e-14 0)
(-6.66134e-16 -3.09499e-14 0)
(-4.44089e-16 -3.10523e-14 0)
(-4.44089e-16 -3.12001e-14 0)
(-1.11022e-16 -3.10916e-14 0)
(-4.44089e-16 -3.09885e-14 0)
(-4.44089e-16 -3.09588e-14 0)
(-4.44089e-16 -3.09452e-14 0)
(-4.44089e-16 -3.09659e-14 0)
(-2.22045e-16 -3.09986e-14 0)
(-4.44089e-16 -3.10831e-14 0)
(-4.44089e-16 -3.11223e-14 0)
(-2.22045e-16 -3.10681e-14 0)
(-1.37668e-14 -3.54966e-14 0)
(1.88738e-15 -3.08565e-14 0)
(-1.9984e-15 -3.14171e-14 0)
(-4.44089e-16 -3.11726e-14 0)
(-1.11022e-15 -3.10922e-14 0)
(-8.88178e-16 -3.10472e-14 0)
(-8.88178e-16 -3.10802e-14 0)
(-6.66134e-16 -3.10347e-14 0)
(-6.66134e-16 -3.09355e-14 0)
(-6.66134e-16 -3.1041e-14 0)
(-8.88178e-16 -3.11809e-14 0)
(-8.88178e-16 -3.11065e-14 0)
(-6.66134e-16 -3.0982e-14 0)
(-6.66134e-16 -3.09496e-14 0)
(-4.44089e-16 -3.09319e-14 0)
(-4.44089e-16 -3.10377e-14 0)
(-4.44089e-16 -3.11161e-14 0)
(-2.22045e-16 -3.11293e-14 0)
(-4.44089e-16 -3.12256e-14 0)
(-4.44089e-16 -3.11727e-14 0)
(9.99201e-15 -3.26086e-14 0)
(-1.9984e-15 -3.09264e-14 0)
(8.88178e-16 -3.11692e-14 0)
(-2.22045e-16 -3.11281e-14 0)
(0 -3.10318e-14 0)
(-1.11022e-16 -3.09956e-14 0)
(-2.22045e-16 -3.10057e-14 0)
(-2.22045e-16 -3.10965e-14 0)
(-4.44089e-16 -3.10924e-14 0)
(-2.22045e-16 -3.10566e-14 0)
(-1.11022e-16 -3.10377e-14 0)
(-6.66134e-16 -3.11768e-14 0)
(-6.66134e-16 -3.11737e-14 0)
(-4.44089e-16 -3.11715e-14 0)
(-2.22045e-16 -3.11537e-14 0)
(-1.11022e-16 -3.10498e-14 0)
(0 -3.10543e-14 0)
(0 -3.11488e-14 0)
(0 -3.11969e-14 0)
(-1.11022e-16 -3.12081e-14 0)
(-4.21885e-15 -1.78417e-14 0)
(6.66134e-16 -3.32839e-14 0)
(-4.44089e-16 -3.07553e-14 0)
(2.22045e-16 -3.13521e-14 0)
(0 -3.10373e-14 0)
(1.11022e-16 -3.09327e-14 0)
(2.22045e-16 -3.08754e-14 0)
(3.33067e-16 -3.09045e-14 0)
(0 -3.09538e-14 0)
(-1.11022e-16 -3.09381e-14 0)
(-2.22045e-16 -3.09434e-14 0)
(1.11022e-16 -3.10497e-14 0)
(0 -3.1051e-14 0)
(0 -3.10769e-14 0)
(-1.11022e-16 -3.11746e-14 0)
(-6.66134e-16 -3.11877e-14 0)
(-4.44089e-16 -3.11692e-14 0)
(-2.22045e-16 -3.11425e-14 0)
(-2.22045e-16 -3.10898e-14 0)
(0 -3.1103e-14 0)
(-4.88498e-15 -5.31307e-14 0)
(5.55112e-16 -2.70697e-14 0)
(-8.88178e-16 -3.20925e-14 0)
(-8.88178e-16 -3.09607e-14 0)
(-8.88178e-16 -3.11262e-14 0)
(-6.66134e-16 -3.10751e-14 0)
(-6.66134e-16 -3.10396e-14 0)
(-4.44089e-16 -3.09756e-14 0)
(-4.44089e-16 -3.10154e-14 0)
(-2.22045e-16 -3.10548e-14 0)
(1.11022e-16 -3.10751e-14 0)
(0 -3.10598e-14 0)
(1.11022e-16 -3.10333e-14 0)
(3.33067e-16 -3.10083e-14 0)
(0 -3.10922e-14 0)
(-1.11022e-16 -3.11833e-14 0)
(1.11022e-16 -3.11321e-14 0)
(-2.22045e-16 -3.10414e-14 0)
(-2.22045e-16 -3.1094e-14 0)
(-1.11022e-16 -3.10567e-14 0)
(1.9984e-15 -2.13225e-14 0)
(3.33067e-16 -3.37004e-14 0)
(7.77156e-16 -3.03477e-14 0)
(0 -3.10852e-14 0)
(3.33067e-16 -3.10232e-14 0)
(0 -3.11605e-14 0)
(0 -3.11415e-14 0)
(0 -3.10973e-14 0)
(-1.11022e-16 -3.10923e-14 0)
(0 -3.11166e-14 0)
(-1.11022e-16 -3.12311e-14 0)
(0 -3.1212e-14 0)
(2.22045e-16 -3.10676e-14 0)
(1.11022e-16 -3.09218e-14 0)
(0 -3.08988e-14 0)
(-2.22045e-16 -3.09407e-14 0)
(-6.66134e-16 -3.10418e-14 0)
(-2.22045e-16 -3.10573e-14 0)
(-2.22045e-16 -3.11236e-14 0)
(-2.22045e-16 -3.10725e-14 0)
(2.77556e-15 -7.38888e-15 0)
(-2.22045e-15 -3.58058e-14 0)
(-8.88178e-16 -2.99524e-14 0)
(-8.88178e-16 -3.11518e-14 0)
(-6.66134e-16 -3.09582e-14 0)
(-6.66134e-16 -3.10468e-14 0)
(-4.44089e-16 -3.10471e-14 0)
(-6.66134e-16 -3.10267e-14 0)
(-8.88178e-16 -3.10408e-14 0)
(-4.44089e-16 -3.11857e-14 0)
(-4.44089e-16 -3.12118e-14 0)
(-6.66134e-16 -3.10753e-14 0)
(-6.66134e-16 -3.09772e-14 0)
(-8.88178e-16 -3.09489e-14 0)
(-6.66134e-16 -3.08808e-14 0)
(-2.22045e-16 -3.08652e-14 0)
(-4.44089e-16 -3.10958e-14 0)
(-4.44089e-16 -3.1192e-14 0)
(-4.44089e-16 -3.11376e-14 0)
(-2.22045e-16 -3.10987e-14 0)
(-2.22045e-16 -5.52396e-14 0)
(-8.88178e-16 -2.63063e-14 0)
(-1.11022e-15 -3.2338e-14 0)
(-8.88178e-16 -3.08433e-14 0)
(-8.88178e-16 -3.12259e-14 0)
(-6.66134e-16 -3.11723e-14 0)
(-4.44089e-16 -3.11693e-14 0)
(-6.66134e-16 -3.1123e-14 0)
(-4.44089e-16 -3.11812e-14 0)
(-4.44089e-16 -3.11852e-14 0)
(-8.88178e-16 -3.09896e-14 0)
(-8.88178e-16 -3.09987e-14 0)
(-6.66134e-16 -3.12e-14 0)
(-4.44089e-16 -3.12089e-14 0)
(-6.66134e-16 -3.11324e-14 0)
(-4.44089e-16 -3.10865e-14 0)
(-2.22045e-16 -3.10951e-14 0)
(-1.11022e-16 -3.12134e-14 0)
(-1.11022e-16 -3.1189e-14 0)
(-2.22045e-16 -3.11077e-14 0)
(2.22045e-15 -5.06251e-14 0)
(0 -2.77492e-14 0)
(7.77156e-16 -3.18757e-14 0)
(3.33067e-16 -3.09669e-14 0)
(4.44089e-16 -3.1196e-14 0)
(3.33067e-16 -3.1185e-14 0)
(2.22045e-16 -3.11499e-14 0)
(3.33067e-16 -3.1094e-14 0)
(2.22045e-16 -3.11144e-14 0)
(0 -3.10359e-14 0)
(-1.11022e-16 -3.09721e-14 0)
(4.44089e-16 -3.11025e-14 0)
(2.22045e-16 -3.12309e-14 0)
(1.11022e-16 -3.11534e-14 0)
(-1.11022e-16 -3.11346e-14 0)
(0 -3.11865e-14 0)
(-2.22045e-16 -3.11525e-14 0)
(-2.22045e-16 -3.11795e-14 0)
(-2.22045e-16 -3.11532e-14 0)
(-2.22045e-16 -3.10916e-14 0)
)
;

boundaryField
{
    movingWall
    {
        type            calculated;
        value           uniform (-2.22045e-16 -3.10969e-14 0);
    }
    fixedWalls
    {
        type            calculated;
        value           uniform (-2.22045e-16 -3.10969e-14 0);
    }
    frontAndBack
    {
        type            empty;
    }
}


// ************************************************************************* //
