/*--------------------------------*- C++ -*----------------------------------*\
| =========                 |                                                 |
| \\      /  F ield         | OpenFOAM: The Open Source CFD Toolbox           |
|  \\    /   O peration     | Version:  2312                                  |
|   \\  /    A nd           | Website:  www.openfoam.com                      |
|    \\/     M anipulation  |                                                 |
\*---------------------------------------------------------------------------*/
FoamFile
{
    version     2.0;
    format      ascii;
    arch        "LSB;label=32;scalar=64";
    class       volScalarField;
    location    "8";
    object      divPhi;
}
// * * * * * * * * * * * * * * * * * * * * * * * * * * * * * * * * * * * * * //

dimensions      [0 0 -1 0 0 0 0];

internalField   nonuniform List<scalar> 
400
(
-1.35525e-13
2.11321e-14
-2.05462e-14
1.86359e-14
-7.73316e-15
4.0812e-16
-7.1396e-15
1.2858e-14
-1.5053e-14
1.85005e-14
-6.82841e-15
-1.17599e-15
-3.33083e-15
8.81393e-15
-1.29585e-14
7.00249e-15
-1.48931e-14
1.15347e-14
1.12762e-15
0
0
-3.3558e-14
1.86268e-14
-5.1283e-15
1.48385e-14
-2.23456e-14
-2.44863e-15
-9.68985e-17
3.9777e-15
-5.70518e-15
-1.72704e-14
5.9671e-15
1.21103e-14
1.41599e-14
-5.70727e-15
-1.52439e-15
1.07402e-14
2.18017e-14
1.72233e-14
-2.71051e-14
0
1.29731e-16
4.02733e-15
-1.75317e-14
1.4374e-14
-3.04903e-15
-5.35609e-15
-1.82362e-14
1.43494e-14
-1.79368e-14
4.73201e-15
1.12337e-14
3.53474e-15
1.55347e-14
-2.53131e-14
1.61923e-14
6.9767e-15
-6.83616e-15
3.9196e-15
0
0
1.68248e-14
3.25875e-14
-4.01154e-15
-3.36918e-14
2.15647e-14
-2.28298e-14
4.32139e-15
-2.81524e-15
5.88056e-15
2.27887e-14
1.35306e-14
-8.08802e-15
5.64761e-15
-2.57607e-14
-5.6506e-15
1.62038e-17
-6.9018e-15
2.38482e-14
0
0
-2.52115e-14
1.93808e-14
2.51211e-14
-7.37015e-15
-2.6571e-14
1.38741e-14
2.55398e-14
-1.68021e-14
6.76083e-15
-1.90141e-14
2.37743e-14
-1.33114e-14
3.45164e-15
-1.64363e-14
-7.47986e-15
2.18023e-15
1.36491e-14
-1.22636e-14
0
0
2.93971e-15
-1.83193e-14
1.63324e-14
-1.3886e-14
7.04264e-15
-3.28364e-14
1.00378e-15
4.31379e-15
2.43709e-14
-5.00018e-15
1.72767e-14
-2.33779e-14
2.28161e-15
2.84839e-14
-2.37307e-14
2.39304e-15
-6.48076e-15
-2.32367e-14
2.71051e-14
0
-2.30798e-15
1.87579e-14
-2.20014e-14
3.8801e-14
3.4227e-16
-1.60388e-14
-1.09239e-14
2.15733e-14
4.64015e-15
-2.1645e-14
-2.8802e-14
-3.38596e-15
1.25387e-15
8.01869e-16
-2.25558e-14
1.61524e-14
-5.06705e-15
1.74419e-15
0
0
-3.21959e-14
1.04593e-14
1.9914e-14
2.85474e-14
-4.96884e-15
2.29187e-14
-2.62905e-15
7.06552e-16
-9.25845e-15
2.61329e-14
-2.04922e-14
6.14223e-16
7.58744e-15
3.28618e-15
1.9198e-15
1.15702e-14
-8.59057e-15
2.34914e-14
-2.71051e-14
2.71051e-14
-1.68878e-14
1.93985e-14
-2.70165e-14
1.69468e-15
2.34103e-14
-1.42904e-14
9.23363e-15
-1.49705e-14
-2.15089e-14
1.97676e-14
-6.89335e-15
-1.28747e-15
-8.15111e-15
2.57759e-14
-2.49299e-15
8.54245e-15
-3.76635e-15
-1.05843e-15
0
0
1.19606e-14
-1.89152e-14
9.25021e-15
9.94079e-15
-1.28475e-14
3.52662e-15
6.16818e-15
2.49715e-14
-2.89823e-14
5.22377e-15
-1.63559e-14
2.46017e-15
-8.14204e-15
1.38244e-14
-6.22719e-15
8.58441e-15
-1.75658e-14
-1.98352e-14
2.71051e-14
0
-2.80454e-15
4.21172e-14
7.94014e-15
1.64857e-14
-1.11094e-14
-3.28326e-15
1.11906e-14
1.3518e-14
-3.01459e-14
8.65531e-16
8.51564e-15
1.59436e-14
-9.99049e-15
-1.1116e-14
-1.61715e-15
3.4706e-15
-1.05162e-14
-1.2737e-15
0
0
-1.46467e-14
5.30167e-15
9.78751e-15
-9.47995e-15
-3.30317e-14
1.93352e-14
-7.68515e-15
1.84769e-14
1.57723e-14
1.07659e-14
-2.63245e-14
-1.10893e-14
-3.13722e-15
9.30545e-15
-9.87604e-15
2.89475e-14
-2.11408e-14
6.83164e-15
-2.71051e-14
2.71051e-14
-2.97013e-15
3.62202e-14
3.67302e-15
-6.1286e-15
-9.95899e-15
-2.21624e-14
-1.37338e-15
-1.77641e-15
-1.77231e-14
2.18567e-14
1.04404e-14
-1.90545e-14
-1.58924e-14
2.18591e-14
-4.34223e-15
2.2685e-15
-1.06309e-14
2.84776e-14
0
0
2.02949e-14
7.09269e-15
-1.82509e-14
1.55506e-15
-3.01354e-14
-1.0991e-14
-3.22333e-15
5.70511e-15
1.37609e-14
5.61204e-15
8.93914e-15
2.34993e-14
-1.17453e-14
1.72444e-14
-1.82432e-14
9.98334e-15
-2.76064e-15
-2.54203e-15
-2.71051e-14
0
1.14038e-14
8.16093e-16
-1.12595e-15
5.95569e-18
-1.07144e-14
-8.45181e-15
7.66328e-15
5.8977e-15
-2.65428e-14
1.42736e-14
3.64327e-15
1.54623e-14
-3.4339e-14
5.38698e-15
-1.23982e-14
2.4922e-14
1.11746e-14
-6.21748e-16
0
-2.71051e-14
1.07521e-14
-9.65537e-15
1.79951e-14
-1.3802e-14
-1.86729e-15
2.92556e-15
9.33986e-15
2.83883e-15
2.08182e-14
-1.65972e-14
2.20182e-14
-1.888e-14
-2.94126e-14
2.13199e-14
-3.8235e-15
9.73365e-15
2.86772e-14
-2.63521e-15
0
0
4.37225e-15
-8.01936e-15
4.11027e-15
-3.30128e-15
1.76905e-15
1.9289e-15
6.34344e-15
-2.19191e-14
4.29898e-15
2.99413e-14
5.03099e-15
-2.28252e-14
5.52031e-15
-1.09131e-14
-2.49118e-14
2.71839e-14
-1.39693e-14
-3.17664e-15
0
-2.71051e-14
4.86249e-15
-2.12896e-14
2.99591e-15
-4.03035e-15
2.01594e-14
-4.03336e-15
5.92426e-15
4.99869e-15
-4.71446e-15
2.25329e-14
-6.08755e-15
1.83119e-14
1.90195e-15
-1.44562e-14
-6.90067e-15
1.26586e-14
7.81353e-15
6.76057e-15
0
2.71051e-14
1.22568e-14
-1.11643e-14
-7.11861e-15
-2.56432e-14
1.08369e-14
-1.37733e-14
2.2214e-14
6.84329e-15
-2.75535e-14
5.53521e-15
-1.20832e-14
-3.5422e-14
9.32802e-15
-3.2813e-15
-1.0898e-14
4.38756e-14
-2.13717e-14
4.26589e-14
-2.71051e-14
-2.71051e-14
2.71051e-14
0
0
2.71051e-14
0
0
0
0
0
0
0
0
-2.71051e-14
2.71051e-14
-2.71051e-14
-2.71051e-14
2.71051e-14
0
0
)
;

boundaryField
{
    movingWall
    {
        type            extrapolatedCalculated;
        value           nonuniform List<scalar> 
20
(
-2.71051e-14
2.71051e-14
0
0
2.71051e-14
0
0
0
0
0
0
0
0
-2.71051e-14
2.71051e-14
-2.71051e-14
-2.71051e-14
2.71051e-14
0
0
)
;
    }
    fixedWalls
    {
        type            extrapolatedCalculated;
        value           nonuniform List<scalar> 
60
(
-1.35525e-13
0
0
0
0
0
0
0
2.71051e-14
0
0
0
2.71051e-14
0
0
-2.71051e-14
0
-2.71051e-14
2.71051e-14
-2.71051e-14
0
-2.71051e-14
0
0
0
2.71051e-14
0
-2.71051e-14
0
2.71051e-14
0
-2.71051e-14
0
-2.71051e-14
0
0
0
0
-2.71051e-14
0
-1.35525e-13
2.11321e-14
-2.05462e-14
1.86359e-14
-7.73316e-15
4.0812e-16
-7.1396e-15
1.2858e-14
-1.5053e-14
1.85005e-14
-6.82841e-15
-1.17599e-15
-3.33083e-15
8.81393e-15
-1.29585e-14
7.00249e-15
-1.48931e-14
1.15347e-14
1.12762e-15
0
)
;
    }
    frontAndBack
    {
        type            empty;
    }
}


// ************************************************************************* //
