/*--------------------------------*- C++ -*----------------------------------*\
| =========                 |                                                 |
| \\      /  F ield         | OpenFOAM: The Open Source CFD Toolbox           |
|  \\    /   O peration     | Version:  2312                                  |
|   \\  /    A nd           | Website:  www.openfoam.com                      |
|    \\/     M anipulation  |                                                 |
\*---------------------------------------------------------------------------*/
FoamFile
{
    version     2.0;
    format      ascii;
    arch        "LSB;label=32;scalar=64";
    class       volScalarField;
    location    "8";
    object      divU;
}
// * * * * * * * * * * * * * * * * * * * * * * * * * * * * * * * * * * * * * //

dimensions      [0 0 -1 0 0 0 0];

internalField   nonuniform List<scalar> 
400
(
3.95734e-12
-6.91343e-13
1.55974e-13
-6.43318e-14
6.23201e-14
-2.52689e-14
-2.28597e-14
1.72559e-14
4.13844e-15
-4.34885e-14
2.02917e-14
7.54024e-15
-5.82852e-15
5.05459e-15
9.41102e-15
-1.22257e-14
-1.53137e-14
2.68762e-14
-2.71591e-14
0
-5.23128e-12
1.21224e-12
-2.32999e-13
5.46042e-14
-2.29816e-14
-2.39925e-14
3.1455e-14
-3.18488e-14
3.46545e-14
3.01365e-15
-9.68897e-15
-2.89351e-16
4.1076e-15
-3.2914e-15
6.22856e-14
-6.14945e-14
6.64711e-14
-5.08859e-14
-1.45894e-14
5.42101e-14
-1.81604e-12
2.55529e-13
-1.04743e-13
6.33038e-14
1.42194e-14
-3.97155e-15
1.99786e-15
-1.18939e-14
4.38154e-14
-5.28007e-14
-3.50797e-14
1.7345e-14
4.81113e-14
-4.78682e-14
-1.26623e-14
-7.48858e-15
3.02039e-14
4.93792e-14
7.84659e-15
-2.71051e-14
3.63208e-12
-2.45172e-13
8.42605e-14
-5.1818e-15
-3.62285e-14
2.19684e-14
-2.62137e-14
-3.14505e-14
-5.55116e-15
1.01552e-14
3.44828e-14
-1.79373e-14
-4.58247e-14
1.11871e-14
3.61211e-14
-4.44809e-14
-4.23116e-15
-1.38251e-15
5.01899e-14
-2.71051e-14
-3.52366e-13
-5.96716e-13
1.16978e-13
-4.17144e-14
3.33003e-14
-2.06411e-14
8.27141e-15
2.84178e-14
-1.153e-14
4.36256e-15
-2.4894e-14
2.27206e-14
1.57366e-14
3.98645e-15
-1.60085e-14
2.81544e-14
1.41014e-14
-2.07611e-14
3.54369e-14
-2.71051e-14
-2.76472e-12
1.29993e-12
-2.08161e-13
9.5284e-14
-2.78388e-14
4.97355e-15
-2.59592e-15
1.55413e-15
-2.88249e-14
2.64505e-14
-1.09708e-14
1.19349e-14
-2.67477e-14
2.3153e-14
-6.42907e-15
-2.05302e-14
-5.50669e-14
5.91345e-14
3.44919e-14
0
6.01732e-12
-1.86307e-12
3.73945e-13
-1.60023e-13
4.83345e-14
-5.60833e-15
-5.63485e-15
-8.0085e-16
1.85032e-14
4.53067e-15
-5.15353e-16
2.06529e-14
-1.3756e-15
-4.95728e-15
5.65744e-15
2.9034e-15
-1.82971e-14
-2.04469e-14
3.63474e-14
-2.71051e-14
-5.44812e-12
1.91616e-12
-3.91988e-13
1.82689e-13
-6.43944e-14
3.0524e-14
-1.17835e-14
-3.81567e-14
4.6662e-14
1.93587e-14
-5.55951e-14
-4.57634e-14
2.80462e-14
-3.52073e-14
-6.99532e-16
-3.63568e-15
2.08129e-14
6.30646e-14
2.13461e-14
-2.71051e-14
-9.21572e-13
-9.44515e-13
1.28948e-13
-9.15149e-14
4.35596e-14
-1.1838e-14
-2.64306e-14
6.37526e-15
-8.69232e-14
-6.61926e-15
6.16365e-14
3.235e-14
3.64805e-15
-3.21703e-14
3.31682e-14
4.09158e-15
-2.65195e-14
-1.4621e-14
-6.92597e-15
0
4.66207e-12
-4.79866e-13
1.14163e-13
8.96055e-15
-2.54783e-14
-1.22398e-14
1.75386e-14
9.19714e-15
2.49154e-15
4.35133e-14
-2.59043e-14
-2.4728e-14
-8.33372e-15
-1.69379e-14
1.09702e-14
-3.43257e-14
1.83463e-14
6.16978e-14
-1.98718e-14
0
-1.54499e-12
6.6266e-13
-1.29628e-13
3.55617e-14
1.11795e-14
-3.74558e-15
-3.26482e-14
6.02712e-15
5.89118e-15
-3.5005e-14
-1.97481e-14
1.46468e-14
2.05162e-14
1.94091e-14
2.00284e-14
-1.807e-15
-6.04922e-14
2.84741e-14
2.5865e-14
-5.42101e-14
-7.04731e-13
-5.25874e-13
1.42106e-13
-5.47455e-14
2.95686e-14
-3.83531e-14
-1.08173e-14
4.81403e-14
3.08391e-14
-1.70556e-14
3.54839e-14
-2.75287e-14
-5.89924e-14
1.43117e-15
4.55962e-15
-8.08827e-15
3.50148e-14
-5.60746e-14
3.87984e-14
0
-1.02999e-12
1.09818e-12
-2.0188e-13
9.77268e-14
-4.72319e-14
-1.20126e-14
-1.63191e-14
3.3363e-14
-1.05098e-14
9.62004e-15
-2.95916e-14
4.52661e-14
-2.32984e-14
-1.98451e-14
1.08168e-14
-1.64762e-14
2.34014e-15
-8.42725e-15
4.22968e-15
2.71051e-14
2.60209e-12
-1.15033e-12
2.16662e-13
-1.09962e-13
3.95744e-14
-2.76673e-14
4.1631e-15
-3.49348e-14
4.18697e-14
1.99107e-14
-3.29438e-14
-3.03752e-14
2.40193e-14
-5.46625e-15
6.78621e-14
2.27319e-14
-2.97252e-15
-9.74862e-15
-9.28789e-15
0
-2.33103e-12
7.26117e-13
-1.19615e-13
4.23023e-14
3.03335e-15
-8.50776e-15
5.49819e-14
-2.2842e-14
-3.17435e-14
-3.41136e-14
1.75256e-14
8.42564e-15
1.09493e-14
-1.62513e-14
-8.86129e-14
-4.48248e-14
7.05651e-14
9.89746e-16
2.81045e-14
-2.71051e-14
-7.58942e-13
3.59213e-13
-1.05956e-13
1.47825e-14
5.86476e-14
-3.12853e-14
-2.58371e-14
1.20938e-14
3.57193e-14
2.24685e-15
-1.1247e-14
-7.80209e-15
3.63931e-14
2.63602e-14
-6.82342e-15
3.40924e-14
-2.51145e-14
-1.75948e-14
2.47179e-14
-2.71051e-14
4.8518e-12
-9.75182e-13
1.8937e-13
-1.12747e-13
4.83439e-14
-2.84557e-14
5.25978e-16
-2.01236e-14
3.31713e-14
-1.08512e-14
-2.49123e-14
-9.35571e-15
1.49056e-14
5.20374e-15
-1.27885e-14
-4.25198e-14
5.61502e-15
4.86617e-14
-6.74202e-15
0
-3.33392e-12
3.87635e-13
-6.38773e-14
1.98691e-14
2.8082e-14
-2.52485e-15
-2.25768e-15
4.41177e-15
-2.82859e-15
9.38977e-15
2.63394e-14
-1.51319e-14
-7.96553e-14
3.07059e-14
-9.03903e-15
5.13195e-14
-5.39265e-14
-2.11626e-14
4.09287e-14
0
-4.39102e-12
7.05399e-13
-2.01992e-13
6.54707e-14
3.13986e-14
-1.63515e-14
-1.25384e-14
2.47839e-14
-1.0189e-14
-2.73649e-15
-3.1005e-14
9.25497e-15
3.04906e-14
1.02534e-14
-3.442e-14
1.91863e-14
-5.38233e-15
3.42948e-14
-4.19462e-14
0
4.63496e-12
-9.48677e-13
2.1684e-13
-5.42101e-14
0
2.71051e-14
-2.71051e-14
0
-2.71051e-14
0
0
2.71051e-14
-2.71051e-14
2.71051e-14
0
-2.71051e-14
-2.71051e-14
2.71051e-14
2.71051e-14
0
)
;

boundaryField
{
    movingWall
    {
        type            extrapolatedCalculated;
        value           nonuniform List<scalar> 
20
(
4.63496e-12
-9.48677e-13
2.1684e-13
-5.42101e-14
0
2.71051e-14
-2.71051e-14
0
-2.71051e-14
0
0
2.71051e-14
-2.71051e-14
2.71051e-14
0
-2.71051e-14
-2.71051e-14
2.71051e-14
2.71051e-14
0
)
;
    }
    fixedWalls
    {
        type            extrapolatedCalculated;
        value           nonuniform List<scalar> 
60
(
3.95734e-12
-5.23128e-12
-1.81604e-12
3.63208e-12
-3.52366e-13
-2.76472e-12
6.01732e-12
-5.44812e-12
-9.21572e-13
4.66207e-12
-1.54499e-12
-7.04731e-13
-1.02999e-12
2.60209e-12
-2.33103e-12
-7.58942e-13
4.8518e-12
-3.33392e-12
-4.39102e-12
4.63496e-12
0
5.42101e-14
-2.71051e-14
-2.71051e-14
-2.71051e-14
0
-2.71051e-14
-2.71051e-14
0
0
-5.42101e-14
0
2.71051e-14
0
-2.71051e-14
-2.71051e-14
0
0
0
0
3.95734e-12
-6.91343e-13
1.55974e-13
-6.43318e-14
6.23201e-14
-2.52689e-14
-2.28597e-14
1.72559e-14
4.13844e-15
-4.34885e-14
2.02917e-14
7.54024e-15
-5.82852e-15
5.05459e-15
9.41102e-15
-1.22257e-14
-1.53137e-14
2.68762e-14
-2.71591e-14
0
)
;
    }
    frontAndBack
    {
        type            empty;
    }
}


// ************************************************************************* //
