/*--------------------------------*- C++ -*----------------------------------*\
| =========                 |                                                 |
| \\      /  F ield         | OpenFOAM: The Open Source CFD Toolbox           |
|  \\    /   O peration     | Version:  2312                                  |
|   \\  /    A nd           | Website:  www.openfoam.com                      |
|    \\/     M anipulation  |                                                 |
\*---------------------------------------------------------------------------*/
FoamFile
{
    version     2.0;
    format      ascii;
    arch        "LSB;label=32;scalar=64";
    class       volScalarField;
    location    "8";
    object      dpdt2;
}
// * * * * * * * * * * * * * * * * * * * * * * * * * * * * * * * * * * * * * //

dimensions      [0 4 -6 0 0 0 0];

internalField   nonuniform List<scalar> 
400
(
7.89936e-27
9.47302e-26
1.2176e-25
1.45935e-25
2.16638e-25
3.15947e-25
3.87672e-25
3.65043e-25
3.56691e-25
3.64775e-25
4.22742e-25
4.84303e-25
5.93596e-25
6.42292e-25
6.14319e-25
5.87939e-25
5.19189e-25
5.04848e-25
5.15671e-25
6.57358e-25
7.39967e-26
1.08884e-25
1.48955e-25
1.62454e-25
2.86073e-25
3.57287e-25
3.51935e-25
3.14791e-25
3.42395e-25
3.65837e-25
4.92719e-25
5.6256e-25
5.87341e-25
6.11312e-25
6.02088e-25
6.12617e-25
4.97482e-25
5.15884e-25
4.92028e-25
5.47421e-25
1.47503e-25
1.53622e-25
1.64513e-25
1.76139e-25
3.19347e-25
3.38115e-25
3.43575e-25
3.54631e-25
3.55872e-25
5.01385e-25
4.81244e-25
5.25146e-25
5.71654e-25
5.66095e-25
5.61128e-25
5.63673e-25
4.64568e-25
4.80178e-25
4.82516e-25
5.00503e-25
2.14163e-25
1.86736e-25
2.10698e-25
2.61793e-25
2.9647e-25
3.4716e-25
3.40162e-25
3.47841e-25
3.86299e-25
4.47315e-25
4.64618e-25
5.39061e-25
5.91771e-25
5.36985e-25
5.10224e-25
4.94679e-25
4.44245e-25
4.16919e-25
4.33322e-25
4.73179e-25
2.06976e-25
2.22319e-25
2.31292e-25
2.72987e-25
3.32315e-25
3.44861e-25
3.80088e-25
3.66379e-25
4.12799e-25
4.33528e-25
4.66524e-25
4.97077e-25
5.54701e-25
5.62957e-25
5.10671e-25
4.36357e-25
4.28817e-25
4.32311e-25
4.16709e-25
4.13988e-25
2.3957e-25
2.235e-25
2.61931e-25
2.89257e-25
3.39803e-25
3.66588e-25
4.0569e-25
3.91273e-25
4.10869e-25
4.06915e-25
4.46324e-25
4.58045e-25
5.11053e-25
5.09732e-25
4.78815e-25
4.10883e-25
3.81206e-25
3.68855e-25
3.55987e-25
3.56225e-25
2.06421e-25
2.44986e-25
2.5703e-25
2.8009e-25
3.78898e-25
3.6614e-25
3.83948e-25
3.81361e-25
3.61009e-25
3.89155e-25
4.06463e-25
4.13121e-25
4.0214e-25
4.38326e-25
4.05803e-25
3.74268e-25
3.58132e-25
3.54436e-25
3.2657e-25
3.0302e-25
1.96669e-25
2.34152e-25
2.88841e-25
2.39858e-25
2.87993e-25
3.45912e-25
3.71958e-25
3.7854e-25
3.19419e-25
3.71037e-25
4.20022e-25
4.02801e-25
3.67111e-25
3.79435e-25
3.27442e-25
2.76935e-25
2.84888e-25
3.21858e-25
3.38418e-25
2.89015e-25
1.84583e-25
1.97079e-25
2.0843e-25
2.2989e-25
2.69128e-25
2.92715e-25
3.20317e-25
3.09408e-25
2.97605e-25
2.94608e-25
3.31059e-25
3.53107e-25
3.23744e-25
2.97229e-25
2.53674e-25
2.44878e-25
2.72748e-25
2.97798e-25
2.74087e-25
2.86306e-25
1.42613e-25
1.75198e-25
1.92594e-25
1.95126e-25
1.77399e-25
2.33961e-25
2.48871e-25
2.27795e-25
2.39096e-25
2.20749e-25
2.79374e-25
3.08446e-25
2.80927e-25
2.61577e-25
2.26962e-25
2.43927e-25
2.24677e-25
2.62784e-25
2.03463e-25
2.96041e-25
1.4219e-25
1.46339e-25
1.66334e-25
1.44327e-25
1.63147e-25
1.77083e-25
1.71295e-25
1.72324e-25
2.01157e-25
2.08514e-25
2.23788e-25
3.06134e-25
2.64645e-25
2.21803e-25
1.87496e-25
2.23258e-25
2.64019e-25
2.50228e-25
2.35916e-25
2.32983e-25
1.19039e-25
1.10337e-25
1.25694e-25
1.40989e-25
1.52096e-25
1.50016e-25
1.56446e-25
1.33253e-25
1.7386e-25
2.06318e-25
2.50342e-25
2.79173e-25
2.36018e-25
2.15592e-25
1.81868e-25
2.22103e-25
2.58421e-25
3.36321e-25
2.44026e-25
2.23483e-25
1.04082e-25
1.18261e-25
1.12501e-25
9.8379e-26
1.19798e-25
1.27031e-25
1.1879e-25
1.17464e-25
1.59085e-25
2.03129e-25
2.08933e-25
2.15802e-25
2.44675e-25
2.03869e-25
2.04795e-25
2.17143e-25
2.66993e-25
3.39847e-25
2.7782e-25
1.94955e-25
8.07845e-26
7.03717e-26
9.82392e-26
1.04526e-25
1.11188e-25
1.25995e-25
1.20154e-25
1.56059e-25
1.35394e-25
1.68484e-25
1.94975e-25
2.06349e-25
2.00339e-25
2.09336e-25
2.40928e-25
2.31706e-25
2.41995e-25
2.52774e-25
2.54475e-25
2.38388e-25
3.16439e-26
5.53754e-26
8.84404e-26
9.81428e-26
1.00581e-25
1.17618e-25
1.2142e-25
1.59383e-25
1.29784e-25
1.37467e-25
1.80274e-25
1.85702e-25
1.77642e-25
1.80213e-25
2.54001e-25
2.26565e-25
2.20041e-25
2.19615e-25
2.4353e-25
2.69103e-25
2.73458e-26
2.56625e-26
5.81673e-26
7.74935e-26
7.11773e-26
1.38295e-25
1.43281e-25
1.41871e-25
1.24865e-25
1.63712e-25
1.80783e-25
1.46952e-25
1.43621e-25
1.93423e-25
2.47634e-25
2.25345e-25
2.33123e-25
2.3219e-25
2.56313e-25
2.70425e-25
2.45643e-26
2.98803e-26
5.06493e-26
5.28427e-26
6.36186e-26
9.70808e-26
1.24197e-25
1.31429e-25
1.29093e-25
1.59748e-25
1.80038e-25
1.66684e-25
1.45118e-25
1.66674e-25
1.97379e-25
1.7911e-25
2.09641e-25
2.37134e-25
2.89709e-25
2.30932e-25
3.63909e-26
2.00306e-26
1.49237e-26
3.48777e-26
6.49596e-26
9.42106e-26
1.12768e-25
1.17922e-25
1.19975e-25
1.4339e-25
2.20739e-25
1.49103e-25
1.09073e-25
1.40602e-25
1.61134e-25
1.7839e-25
2.26566e-25
2.0261e-25
2.81623e-25
2.42425e-25
3.22603e-26
2.52814e-26
1.54685e-26
2.57714e-26
8.79515e-26
1.01547e-25
1.03244e-25
7.64386e-26
1.01162e-25
1.45615e-25
1.56784e-25
1.17236e-25
1.25505e-25
1.35954e-25
1.36272e-25
1.52861e-25
2.02548e-25
2.06204e-25
2.88773e-25
2.70765e-25
3.38384e-26
1.36235e-26
1.89196e-26
5.11034e-26
1.06032e-25
1.19203e-25
7.98025e-26
8.40371e-26
1.33381e-25
1.43418e-25
1.12094e-25
1.14735e-25
1.14903e-25
1.43205e-25
1.39189e-25
1.38138e-25
1.64385e-25
2.53607e-25
2.94046e-25
2.27319e-25
)
;

boundaryField
{
    movingWall
    {
        type            calculated;
        value           nonuniform List<scalar> 
20
(
3.38384e-26
1.36235e-26
1.89196e-26
5.11034e-26
1.06032e-25
1.19203e-25
7.98025e-26
8.40371e-26
1.33381e-25
1.43418e-25
1.12094e-25
1.14735e-25
1.14903e-25
1.43205e-25
1.39189e-25
1.38138e-25
1.64385e-25
2.53607e-25
2.94046e-25
2.27319e-25
)
;
    }
    fixedWalls
    {
        type            calculated;
        value           nonuniform List<scalar> 
60
(
7.89936e-27
7.39967e-26
1.47503e-25
2.14163e-25
2.06976e-25
2.3957e-25
2.06421e-25
1.96669e-25
1.84583e-25
1.42613e-25
1.4219e-25
1.19039e-25
1.04082e-25
8.07845e-26
3.16439e-26
2.73458e-26
2.45643e-26
3.63909e-26
3.22603e-26
3.38384e-26
6.57358e-25
5.47421e-25
5.00503e-25
4.73179e-25
4.13988e-25
3.56225e-25
3.0302e-25
2.89015e-25
2.86306e-25
2.96041e-25
2.32983e-25
2.23483e-25
1.94955e-25
2.38388e-25
2.69103e-25
2.70425e-25
2.30932e-25
2.42425e-25
2.70765e-25
2.27319e-25
7.89936e-27
9.47302e-26
1.2176e-25
1.45935e-25
2.16638e-25
3.15947e-25
3.87672e-25
3.65043e-25
3.56691e-25
3.64775e-25
4.22742e-25
4.84303e-25
5.93596e-25
6.42292e-25
6.14319e-25
5.87939e-25
5.19189e-25
5.04848e-25
5.15671e-25
6.57358e-25
)
;
    }
    frontAndBack
    {
        type            empty;
    }
}


// ************************************************************************* //
