/*--------------------------------*- C++ -*----------------------------------*\
| =========                 |                                                 |
| \\      /  F ield         | OpenFOAM: The Open Source CFD Toolbox           |
|  \\    /   O peration     | Version:  2312                                  |
|   \\  /    A nd           | Website:  www.openfoam.com                      |
|    \\/     M anipulation  |                                                 |
\*---------------------------------------------------------------------------*/
FoamFile
{
    version     2.0;
    format      ascii;
    arch        "LSB;label=32;scalar=64";
    class       volScalarField;
    location    "8";
    object      dUdt2;
}
// * * * * * * * * * * * * * * * * * * * * * * * * * * * * * * * * * * * * * //

dimensions      [0 2 -4 0 0 0 0];

internalField   nonuniform List<scalar> 
400
(
5.88696e-30
7.19519e-28
5.07537e-28
1.97502e-27
5.42997e-28
7.15476e-29
6.1325e-28
4.12786e-28
4.9444e-28
2.06797e-27
7.55753e-28
4.97486e-28
5.25722e-28
4.94777e-28
7.63917e-31
5.32112e-28
9.30267e-29
5.91132e-28
1.43976e-28
3.61686e-28
3.8366e-27
1.37684e-26
4.96436e-31
1.9722e-27
3.35749e-28
1.04382e-28
2.03565e-27
2.31719e-27
1.98997e-27
7.48047e-28
9.04276e-29
1.97572e-27
2.2894e-31
1.97259e-27
2.00667e-27
1.99751e-27
4.49396e-29
5.27532e-29
4.61863e-27
6.40985e-28
1.2408e-26
1.98379e-27
8.9021e-27
1.27387e-27
7.94349e-27
2.00639e-27
1.97409e-27
5.76438e-32
1.97609e-27
5.49929e-28
1.97216e-27
2.03446e-27
8.31435e-29
4.49041e-27
1.52685e-28
2.00985e-27
1.98457e-27
2.05042e-27
3.87967e-29
1.08235e-28
2.74872e-27
4.96879e-28
5.38454e-27
5.28718e-27
7.90765e-27
1.97431e-27
4.44398e-27
2.28004e-29
3.91085e-29
5.87932e-28
1.97352e-27
1.98923e-27
6.47132e-29
4.50817e-27
5.6278e-28
5.43498e-28
1.8623e-28
1.9829e-27
2.89507e-29
6.07252e-28
6.30081e-27
5.556e-28
2.00173e-27
5.17227e-28
5.79469e-28
1.63213e-28
3.13494e-28
6.80873e-28
1.97425e-27
2.04107e-27
1.35584e-29
2.00697e-27
1.97216e-27
4.61648e-29
2.01552e-27
1.97535e-27
4.93234e-28
3.6211e-31
2.25909e-29
2.68451e-28
1.11974e-26
1.03843e-27
1.98125e-27
1.9092e-30
2.63725e-28
6.01124e-28
3.76183e-29
4.44041e-27
7.43709e-28
5.27207e-28
6.55229e-29
5.8136e-29
5.10188e-28
1.97279e-27
6.30651e-28
2.01093e-27
2.06128e-27
7.21283e-29
2.0122e-27
3.44714e-28
2.69094e-27
2.1361e-27
1.99691e-27
2.02411e-27
7.5504e-28
4.94216e-28
5.21166e-28
2.55656e-29
5.51305e-28
5.3586e-28
5.72022e-28
1.97942e-27
2.57799e-27
2.01215e-27
1.97219e-27
5.81683e-28
5.0015e-28
2.02587e-27
5.16795e-28
1.33009e-28
2.0403e-26
2.19991e-30
4.68235e-31
6.2415e-28
1.22591e-27
5.09687e-28
2.32863e-28
2.17254e-27
3.46674e-28
2.5425e-27
1.98379e-27
3.18236e-26
2.52659e-28
2.01578e-27
1.97971e-27
3.09957e-29
1.98649e-27
1.97282e-27
1.17056e-29
1.04792e-29
1.43944e-26
4.71579e-27
5.1373e-28
1.97887e-28
2.26475e-27
9.05794e-28
6.13999e-28
2.70022e-27
2.10436e-27
2.81609e-27
2.10033e-27
5.53584e-28
2.98621e-28
3.266e-31
4.44223e-27
2.38301e-27
5.02595e-28
7.28415e-28
4.1278e-28
2.11787e-30
1.06305e-26
1.49177e-27
1.97218e-27
1.1252e-28
3.29828e-28
2.68465e-27
1.9429e-27
2.80033e-27
5.46809e-28
5.1179e-28
2.03867e-27
4.99774e-28
2.4575e-30
1.85526e-29
8.83207e-30
5.92915e-28
2.11358e-27
4.45369e-27
1.97969e-27
2.01478e-27
1.49271e-26
5.32494e-27
5.4437e-28
1.97536e-27
1.9939e-27
8.84537e-28
1.30692e-27
2.70146e-27
2.74995e-28
5.12358e-28
1.16506e-28
2.08553e-27
1.99647e-27
1.97228e-27
4.61126e-27
7.59189e-28
6.23478e-28
8.17689e-28
7.92876e-28
6.84002e-29
1.86628e-26
1.97222e-27
2.0068e-27
2.18808e-27
2.24948e-27
2.27435e-27
2.14957e-27
1.76422e-28
3.81782e-29
2.60508e-27
2.02974e-27
7.21821e-28
1.98999e-27
1.98341e-27
1.97393e-27
2.05024e-27
2.7653e-30
2.9254e-27
2.31241e-27
2.29025e-29
8.32268e-27
2.15642e-27
7.92174e-27
4.7213e-28
2.3066e-27
1.98536e-28
1.92555e-28
1.73454e-29
7.92824e-27
2.03366e-28
3.09593e-30
2.72111e-28
2.0589e-27
1.93172e-31
2.08321e-27
1.44873e-28
1.57481e-30
1.98622e-27
2.21927e-27
2.02842e-27
4.54869e-27
2.4446e-27
3.57245e-29
1.41364e-29
6.95249e-29
2.02199e-27
5.10684e-28
3.10572e-28
1.97322e-27
3.9734e-28
5.02569e-28
1.13051e-28
3.59736e-29
1.9887e-27
1.99994e-27
5.05504e-28
5.14583e-28
6.67963e-28
1.97809e-27
3.50918e-28
2.80129e-26
2.14001e-27
1.97344e-27
1.24933e-29
4.89698e-28
5.68641e-28
4.9344e-28
2.75263e-30
1.97345e-27
4.93196e-28
1.21933e-28
1.13499e-29
6.47959e-28
5.17117e-30
1.81338e-28
2.06677e-27
6.72377e-31
7.22732e-29
3.61863e-29
2.2575e-29
1.20037e-26
3.75799e-27
5.56356e-29
9.62767e-29
9.16056e-29
5.51916e-29
1.98272e-27
1.9772e-27
4.35585e-29
2.07182e-27
2.05111e-27
2.07927e-29
2.03644e-27
4.53397e-27
5.02952e-28
4.96822e-28
5.29879e-28
5.10517e-28
1.12392e-29
5.87893e-28
1.77247e-26
6.42375e-27
1.23214e-27
5.85095e-28
5.19236e-28
1.1609e-29
5.09086e-28
4.97703e-28
1.1399e-28
5.19882e-28
6.91281e-28
1.19327e-29
2.13052e-28
4.5488e-28
1.03472e-27
5.70186e-28
1.97306e-27
1.99593e-27
8.51588e-32
5.67368e-28
2.50942e-26
7.89062e-27
1.00368e-26
1.05564e-27
1.49101e-30
9.97504e-29
5.32883e-29
1.36755e-29
1.0314e-28
2.19851e-28
1.80111e-29
8.55362e-27
2.15439e-27
2.16196e-27
5.50302e-28
2.32236e-29
2.11402e-27
1.02421e-30
4.48124e-27
3.13305e-29
2.96455e-27
7.35004e-29
2.0424e-27
1.9763e-27
2.84046e-28
1.6171e-28
1.98567e-27
1.98063e-27
2.33888e-27
6.67163e-30
2.97748e-27
1.03619e-28
2.16495e-27
3.99265e-32
9.89341e-29
2.21792e-27
9.49236e-29
1.9886e-28
4.95764e-28
1.77176e-29
1.19738e-26
2.83018e-27
1.97341e-27
6.00669e-28
7.20071e-28
7.42017e-30
4.62037e-27
1.97216e-27
6.46431e-28
4.43829e-27
4.53425e-27
5.94691e-28
5.19941e-28
4.93586e-28
5.03249e-28
2.03287e-31
4.51516e-27
5.61834e-28
4.94104e-28
5.96551e-28
)
;

boundaryField
{
    movingWall
    {
        type            calculated;
        value           uniform 0;
    }
    fixedWalls
    {
        type            calculated;
        value           uniform 0;
    }
    frontAndBack
    {
        type            empty;
    }
}


// ************************************************************************* //
