/*--------------------------------*- C++ -*----------------------------------*\
| =========                 |                                                 |
| \\      /  F ield         | OpenFOAM: The Open Source CFD Toolbox           |
|  \\    /   O peration     | Version:  2312                                  |
|   \\  /    A nd           | Website:  www.openfoam.com                      |
|    \\/     M anipulation  |                                                 |
\*---------------------------------------------------------------------------*/
FoamFile
{
    version     2.0;
    format      ascii;
    arch        "LSB;label=32;scalar=64";
    class       volScalarField;
    location    "8";
    object      enstrophyField;
}
// * * * * * * * * * * * * * * * * * * * * * * * * * * * * * * * * * * * * * //

dimensions      [0 0 -2 0 0 0 0];

internalField   nonuniform List<scalar> 
400
(
3.98546e-24
4.42524e-24
2.17854e-25
4.92431e-27
6.06855e-29
3.71563e-32
2.91042e-29
5.09136e-29
1.74542e-27
1.96258e-28
1.92673e-29
7.11177e-29
2.86188e-28
2.31707e-29
4.40701e-28
1.00375e-31
1.32841e-29
2.22391e-31
3.91448e-29
3.5619e-29
1.97541e-25
2.00193e-25
4.26874e-26
1.78778e-27
3.38304e-27
8.70319e-27
3.96989e-27
1.16178e-26
5.69876e-27
6.46749e-28
3.55674e-27
4.75106e-27
2.2981e-28
1.20796e-27
4.39203e-27
3.54007e-27
9.79312e-28
6.24793e-29
5.45149e-31
4.22492e-31
9.67316e-25
1.01628e-24
1.5421e-25
7.29982e-27
1.76641e-26
1.72825e-26
4.7008e-27
7.4576e-27
2.58457e-27
3.22475e-27
3.84077e-27
3.50136e-27
2.98676e-28
4.07339e-29
9.46393e-28
3.31478e-28
2.14039e-29
9.14933e-28
6.39482e-29
9.7054e-30
1.36872e-24
6.27222e-25
6.79717e-26
4.88576e-28
8.79807e-28
1.28641e-28
1.87806e-28
1.39894e-27
2.69589e-28
3.30024e-28
5.10252e-28
2.61337e-28
8.2186e-28
6.6304e-29
3.3039e-30
2.23855e-27
7.97899e-27
2.23475e-29
4.10796e-28
8.25284e-29
2.73301e-24
2.20476e-24
1.85255e-25
1.92973e-27
2.38727e-27
3.39428e-28
2.40343e-29
3.00902e-29
7.11432e-28
7.45763e-28
4.79196e-28
5.23353e-30
6.51907e-29
2.11868e-27
8.11419e-30
1.49152e-31
1.86069e-27
3.89064e-27
2.81889e-28
2.68414e-28
1.19441e-24
1.98661e-24
5.27295e-26
3.77294e-27
2.18815e-28
4.88719e-30
1.58764e-30
1.1342e-28
2.86222e-29
3.09487e-28
2.23179e-27
2.08363e-27
3.92771e-27
2.81778e-27
3.21793e-27
2.77397e-28
3.27852e-28
1.04244e-28
1.00851e-29
7.04531e-29
2.72647e-26
1.72561e-26
1.06107e-28
7.70108e-28
7.61645e-28
1.24431e-29
2.39886e-28
2.25322e-27
1.77414e-27
6.58591e-29
1.36735e-27
1.23555e-26
4.9849e-27
8.47848e-28
4.45151e-29
4.24173e-28
1.15743e-32
1.82442e-27
1.93288e-29
6.21558e-29
1.345e-24
4.70807e-24
1.99324e-25
1.09543e-26
5.80373e-28
5.22757e-28
6.88721e-28
2.14042e-27
3.30398e-27
8.1899e-27
1.01894e-27
1.04537e-29
6.90852e-28
2.4786e-29
3.17925e-27
3.37374e-28
1.68879e-27
2.19775e-29
8.66317e-30
7.16897e-29
7.85192e-24
9.18592e-24
4.06067e-25
4.08619e-26
2.78576e-28
2.05567e-28
2.99621e-28
3.89826e-27
1.29434e-27
8.2034e-28
6.07919e-27
1.35921e-26
9.11728e-27
2.35554e-28
1.16011e-27
5.72126e-28
1.0409e-27
2.20676e-28
5.63678e-32
1.78536e-28
4.25633e-24
1.09767e-24
4.21984e-26
2.67225e-27
1.20398e-27
4.00638e-29
1.21486e-28
3.48608e-28
9.43109e-28
1.50593e-27
9.39691e-29
3.26988e-28
5.8321e-29
4.52704e-28
1.30534e-27
4.01839e-28
1.81993e-32
1.00085e-30
4.13422e-29
9.40898e-30
3.38859e-25
8.37397e-26
4.04058e-27
2.21346e-27
7.27674e-28
3.1263e-27
9.99339e-27
7.17338e-27
3.02228e-27
1.43593e-27
5.8088e-27
1.82456e-28
1.04403e-27
1.21988e-27
1.84905e-27
5.5235e-28
7.72676e-28
9.90651e-28
5.92225e-32
1.33504e-30
2.9746e-25
3.44176e-26
2.38414e-27
4.89279e-27
9.71397e-27
4.4123e-27
1.68975e-27
3.69419e-28
1.40221e-28
4.26063e-28
2.68702e-28
2.84045e-27
4.47385e-27
1.71338e-27
1.43097e-27
1.19427e-27
1.18303e-28
7.64434e-29
1.55213e-27
5.951e-32
2.35977e-25
4.48617e-26
3.68217e-27
1.44785e-29
8.68469e-28
3.35534e-28
3.20483e-27
7.97623e-29
1.96616e-31
3.01261e-28
5.66334e-28
5.12096e-27
1.22974e-28
1.25677e-29
1.98554e-27
2.63739e-27
4.19362e-29
4.25705e-27
1.71411e-27
2.09227e-28
5.57248e-25
3.90504e-26
1.67083e-26
4.48201e-27
7.47534e-27
5.59815e-27
7.02225e-27
6.85452e-27
2.98966e-27
1.18807e-27
2.19282e-27
1.11183e-26
3.53351e-28
1.36312e-27
7.41207e-29
2.05767e-27
4.89848e-29
1.01657e-28
5.45794e-28
1.79016e-29
3.30372e-24
1.22057e-24
6.33005e-26
3.38284e-28
1.13037e-26
2.47817e-27
1.62632e-27
3.07179e-29
5.62378e-30
5.37813e-31
2.13708e-27
2.11043e-27
6.17577e-27
4.38788e-27
2.13156e-27
1.45593e-31
1.02267e-29
6.14199e-28
4.82207e-28
3.70079e-28
2.80814e-24
2.32854e-24
1.37618e-25
1.13775e-26
2.15446e-27
3.74318e-29
4.94924e-29
1.60393e-27
3.13467e-29
5.47251e-28
1.26987e-31
8.74356e-30
2.41113e-28
1.73059e-29
1.52971e-28
1.69374e-27
1.00635e-28
7.24319e-30
1.1679e-30
1.24501e-27
2.37747e-27
1.99372e-25
4.16505e-26
2.28212e-27
2.83535e-29
6.98786e-29
2.00025e-29
1.20956e-29
1.36666e-27
8.74109e-29
9.97487e-28
2.4896e-27
6.08658e-27
1.16132e-26
1.36913e-27
1.02231e-28
2.42564e-27
3.34879e-29
1.1484e-30
2.66441e-32
2.24032e-24
2.24896e-24
2.32723e-25
1.85415e-28
1.06627e-26
2.62263e-27
1.58019e-27
3.35684e-27
6.27365e-29
6.88744e-28
4.26478e-27
5.4894e-27
4.4145e-27
6.75072e-28
4.02156e-27
5.34729e-28
6.49741e-27
8.70765e-30
4.34969e-29
9.02288e-30
1.76908e-24
2.14931e-24
2.24806e-25
2.95464e-28
1.41836e-26
2.86213e-27
2.91738e-27
6.0075e-27
6.57159e-27
6.14307e-28
3.57613e-29
5.2382e-27
5.23624e-27
5.1667e-27
1.10405e-28
1.27437e-27
8.06119e-29
4.41039e-29
5.59491e-29
5.29501e-29
9.44087e-25
1.65753e-24
4.34116e-26
2.30958e-27
2.3798e-28
1.06575e-29
6.55433e-28
4.69627e-28
5.41638e-28
1.01326e-28
1.85237e-27
3.35031e-28
1.29369e-29
6.75015e-28
1.65442e-27
1.60661e-30
2.45532e-31
2.23752e-33
3.86395e-29
1.29879e-29
)
;

boundaryField
{
    movingWall
    {
        type            calculated;
        value           nonuniform List<scalar> 
20
(
2.05477e-25
1.92817e-24
3.03556e-27
4.20526e-26
2.99236e-26
2.56877e-26
1.74353e-26
2.54447e-26
1.68258e-26
5.31e-27
7.12623e-28
2.89365e-26
1.48866e-26
1.02051e-26
8.44461e-28
3.7867e-27
2.45532e-31
2.23752e-33
3.86395e-29
1.29879e-29
)
;
    }
    fixedWalls
    {
        type            calculated;
        value           nonuniform List<scalar> 
60
(
8.18064e-23
4.65052e-24
2.33119e-23
1.26023e-23
4.30308e-23
3.3562e-23
3.0476e-25
7.76073e-23
1.62048e-22
1.9151e-23
1.6278e-24
2.99018e-26
2.06239e-24
1.16474e-24
2.28878e-23
4.40178e-23
4.87875e-24
4.70454e-23
4.61074e-23
2.86322e-23
2.93803e-28
1.83608e-29
1.13572e-28
1.14352e-30
2.80734e-28
3.5077e-28
6.49638e-28
1.25099e-29
1.73311e-28
2.04595e-29
9.13791e-31
6.64056e-29
4.59721e-28
1.5106e-28
3.04071e-28
7.26571e-28
4.77801e-29
2.61297e-31
9.27327e-30
2.25013e-30
2.8372e-24
5.25343e-24
2.12575e-26
6.06878e-26
3.71937e-26
6.32058e-26
3.3495e-26
3.28609e-26
3.68091e-26
1.17104e-26
1.68992e-26
1.37298e-26
1.52173e-26
4.5721e-27
4.17709e-27
1.00607e-27
1.32841e-29
1.01592e-27
6.32285e-28
3.5619e-29
)
;
    }
    frontAndBack
    {
        type            empty;
    }
}


// ************************************************************************* //
