/*--------------------------------*- C++ -*----------------------------------*\
| =========                 |                                                 |
| \\      /  F ield         | OpenFOAM: The Open Source CFD Toolbox           |
|  \\    /   O peration     | Version:  2312                                  |
|   \\  /    A nd           | Website:  www.openfoam.com                      |
|    \\/     M anipulation  |                                                 |
\*---------------------------------------------------------------------------*/
FoamFile
{
    version     2.0;
    format      ascii;
    arch        "LSB;label=32;scalar=64";
    class       volScalarField;
    location    "8";
    object      epsilonzeroGrad;
}
// * * * * * * * * * * * * * * * * * * * * * * * * * * * * * * * * * * * * * //

dimensions      [0 2 -3 0 0 0 0];

internalField   nonuniform List<scalar> 
400
(
1.3386e-06
1.33859e-06
1.33859e-06
1.33859e-06
1.33859e-06
1.33859e-06
1.33859e-06
1.33859e-06
1.33859e-06
1.33859e-06
1.33859e-06
1.33859e-06
1.33859e-06
1.33859e-06
1.33859e-06
1.33859e-06
1.33859e-06
1.33859e-06
1.33859e-06
1.33859e-06
1.3814e-06
1.36457e-06
1.366e-06
1.36658e-06
1.36777e-06
1.36837e-06
1.36955e-06
1.37017e-06
1.37136e-06
1.37199e-06
1.37318e-06
1.37383e-06
1.37503e-06
1.37569e-06
1.37689e-06
1.37756e-06
1.37877e-06
1.37946e-06
1.38007e-06
1.38102e-06
1.44895e-06
1.43071e-06
1.43228e-06
1.43292e-06
1.43422e-06
1.43488e-06
1.43618e-06
1.43684e-06
1.43814e-06
1.43882e-06
1.44012e-06
1.44081e-06
1.44212e-06
1.44281e-06
1.44412e-06
1.44482e-06
1.44614e-06
1.44685e-06
1.44751e-06
1.44853e-06
1.5196e-06
1.50016e-06
1.50184e-06
1.50252e-06
1.50391e-06
1.5046e-06
1.50599e-06
1.5067e-06
1.50808e-06
1.5088e-06
1.51019e-06
1.51092e-06
1.51232e-06
1.51305e-06
1.51445e-06
1.5152e-06
1.5166e-06
1.51736e-06
1.51806e-06
1.51914e-06
1.57861e-06
1.55815e-06
1.55991e-06
1.56063e-06
1.56209e-06
1.56282e-06
1.56428e-06
1.56503e-06
1.56648e-06
1.56724e-06
1.5687e-06
1.56947e-06
1.57094e-06
1.57171e-06
1.57319e-06
1.57397e-06
1.57545e-06
1.57625e-06
1.57699e-06
1.57813e-06
1.62126e-06
1.60004e-06
1.60187e-06
1.60262e-06
1.60413e-06
1.60489e-06
1.6064e-06
1.60717e-06
1.60868e-06
1.60947e-06
1.61098e-06
1.61178e-06
1.6133e-06
1.6141e-06
1.61563e-06
1.61645e-06
1.61798e-06
1.6188e-06
1.61957e-06
1.62075e-06
1.64941e-06
1.62769e-06
1.62956e-06
1.63032e-06
1.63187e-06
1.63265e-06
1.63419e-06
1.63498e-06
1.63653e-06
1.63733e-06
1.63889e-06
1.6397e-06
1.64126e-06
1.64208e-06
1.64364e-06
1.64448e-06
1.64604e-06
1.64689e-06
1.64768e-06
1.64889e-06
1.66725e-06
1.64521e-06
1.64711e-06
1.64788e-06
1.64945e-06
1.65024e-06
1.65181e-06
1.65261e-06
1.65418e-06
1.65499e-06
1.65657e-06
1.6574e-06
1.65898e-06
1.65981e-06
1.6614e-06
1.66224e-06
1.66383e-06
1.66469e-06
1.66549e-06
1.66672e-06
1.67874e-06
1.6565e-06
1.65841e-06
1.65919e-06
1.66078e-06
1.66157e-06
1.66315e-06
1.66397e-06
1.66555e-06
1.66637e-06
1.66796e-06
1.6688e-06
1.67039e-06
1.67124e-06
1.67284e-06
1.67369e-06
1.67529e-06
1.67616e-06
1.67697e-06
1.67821e-06
1.68677e-06
1.66438e-06
1.66631e-06
1.66709e-06
1.66869e-06
1.66949e-06
1.67108e-06
1.6719e-06
1.67349e-06
1.67432e-06
1.67592e-06
1.67676e-06
1.67836e-06
1.67921e-06
1.68082e-06
1.68168e-06
1.6833e-06
1.68417e-06
1.68498e-06
1.68623e-06
1.69315e-06
1.67065e-06
1.67258e-06
1.67338e-06
1.67497e-06
1.67578e-06
1.67738e-06
1.6782e-06
1.6798e-06
1.68064e-06
1.68225e-06
1.68309e-06
1.6847e-06
1.68556e-06
1.68717e-06
1.68804e-06
1.68966e-06
1.69054e-06
1.69135e-06
1.69261e-06
1.69896e-06
1.67635e-06
1.6783e-06
1.67909e-06
1.6807e-06
1.68151e-06
1.68312e-06
1.68394e-06
1.68555e-06
1.68639e-06
1.688e-06
1.68885e-06
1.69047e-06
1.69133e-06
1.69295e-06
1.69382e-06
1.69545e-06
1.69634e-06
1.69715e-06
1.69841e-06
1.70482e-06
1.68211e-06
1.68406e-06
1.68486e-06
1.68647e-06
1.68729e-06
1.6889e-06
1.68973e-06
1.69135e-06
1.69219e-06
1.69381e-06
1.69466e-06
1.69629e-06
1.69715e-06
1.69878e-06
1.69966e-06
1.70129e-06
1.70218e-06
1.703e-06
1.70427e-06
1.71107e-06
1.68825e-06
1.69021e-06
1.69101e-06
1.69263e-06
1.69345e-06
1.69507e-06
1.69591e-06
1.69753e-06
1.69838e-06
1.70001e-06
1.70086e-06
1.7025e-06
1.70336e-06
1.705e-06
1.70588e-06
1.70753e-06
1.70842e-06
1.70924e-06
1.71051e-06
1.71788e-06
1.69493e-06
1.69691e-06
1.69771e-06
1.69934e-06
1.70017e-06
1.7018e-06
1.70263e-06
1.70427e-06
1.70512e-06
1.70676e-06
1.70762e-06
1.70926e-06
1.71013e-06
1.71178e-06
1.71266e-06
1.71432e-06
1.71521e-06
1.71604e-06
1.71732e-06
1.72519e-06
1.70212e-06
1.7041e-06
1.70492e-06
1.70655e-06
1.70738e-06
1.70902e-06
1.70986e-06
1.71151e-06
1.71236e-06
1.71401e-06
1.71487e-06
1.71653e-06
1.7174e-06
1.71906e-06
1.71995e-06
1.72161e-06
1.72251e-06
1.72335e-06
1.72463e-06
1.73268e-06
1.70948e-06
1.71147e-06
1.71229e-06
1.71394e-06
1.71477e-06
1.71642e-06
1.71726e-06
1.71892e-06
1.71978e-06
1.72143e-06
1.7223e-06
1.72397e-06
1.72485e-06
1.72651e-06
1.72741e-06
1.72908e-06
1.72999e-06
1.73082e-06
1.73212e-06
1.73967e-06
1.71635e-06
1.71835e-06
1.71917e-06
1.72083e-06
1.72166e-06
1.72332e-06
1.72417e-06
1.72583e-06
1.72669e-06
1.72836e-06
1.72923e-06
1.73091e-06
1.73179e-06
1.73347e-06
1.73437e-06
1.73605e-06
1.73696e-06
1.7378e-06
1.7391e-06
1.74518e-06
1.72221e-06
1.72415e-06
1.72494e-06
1.72655e-06
1.72737e-06
1.72898e-06
1.72982e-06
1.73144e-06
1.7323e-06
1.73393e-06
1.7348e-06
1.73645e-06
1.73733e-06
1.73899e-06
1.73989e-06
1.74156e-06
1.74248e-06
1.74332e-06
1.74462e-06
1.74771e-06
1.74771e-06
1.74771e-06
1.7477e-06
1.7477e-06
1.7477e-06
1.7477e-06
1.7477e-06
1.7477e-06
1.7477e-06
1.7477e-06
1.7477e-06
1.7477e-06
1.7477e-06
1.7477e-06
1.7477e-06
1.7477e-06
1.7477e-06
1.7477e-06
1.7477e-06
)
;

boundaryField
{
    movingWall
    {
        type            zeroGradient;
    }
    fixedWalls
    {
        type            zeroGradient;
    }
    frontAndBack
    {
        type            empty;
    }
}


// ************************************************************************* //
