/*--------------------------------*- C++ -*----------------------------------*\
| =========                 |                                                 |
| \\      /  F ield         | OpenFOAM: The Open Source CFD Toolbox           |
|  \\    /   O peration     | Version:  2312                                  |
|   \\  /    A nd           | Website:  www.openfoam.com                      |
|    \\/     M anipulation  |                                                 |
\*---------------------------------------------------------------------------*/
FoamFile
{
    version     2.0;
    format      ascii;
    arch        "LSB;label=32;scalar=64";
    class       volScalarField;
    location    "8";
    object      flowTypeField;
}
// * * * * * * * * * * * * * * * * * * * * * * * * * * * * * * * * * * * * * //

dimensions      [0 0 0 0 0 0 0];

internalField   nonuniform List<scalar> 
400
(
0.350611
0.0319486
-0.0525278
0.252316
0.793847
0.951146
0.656836
0.430373
0.127279
0.597064
0.709655
0.138794
0.40442
0.169331
-0.0302994
0.949327
0.759218
0.932014
0.614729
0.22126
0.832083
0.44102
-0.0101955
0.339388
0.0533941
0.0429306
0.116877
-0.107792
0.127857
0.337146
-0.0362285
-0.190286
0.438101
0.101623
0.0472912
0.131946
0.382562
0.736551
0.847985
0.960583
0.354363
0.149087
-0.609699
0.287019
-0.129932
0.0207169
0.105189
0.0994759
0.254494
0.165805
-0.0195833
0.0293075
0.540063
0.780854
0.268255
0.0488214
0.703758
0.290387
0.0691956
0.82095
0.537001
0.160783
-0.172752
0.431362
0.355821
0.524195
0.643446
0.12572
0.151098
0.0926921
0.210533
0.414914
0.326419
0.0715685
0.919145
-0.0688018
-0.160924
0.0970844
0.274214
0.736424
-0.0568335
0.0548613
-0.29382
0.387272
-0.0776924
0.311859
0.268078
0.655145
0.150355
0.137829
0.46459
0.672657
0.142309
-0.185463
0.769342
0.973284
0.00978532
-0.0217784
0.366105
0.384751
0.391501
0.0986097
0.196924
0.246399
0.355282
0.077504
0.733334
0.000122643
0.766718
0.318415
-0.186388
-0.0343615
-0.0209042
-0.268662
-0.234506
0.350172
0.520058
0.677368
0.766492
0.542959
0.941125
0.824553
0.922362
0.586486
0.331792
0.486351
0.191156
-0.233756
0.0265444
0.0808243
0.0514228
-0.156259
-0.225603
0.237394
0.65487
0.314812
0.959338
0.00877926
0.702509
0.548612
0.638572
0.11266
0.166049
0.255747
0.544104
0.170781
0.158682
0.162385
0.000292526
-0.166228
0.498789
0.894109
0.491433
0.700916
0.0220987
0.0653972
0.0683772
0.827482
0.580078
0.547676
0.104804
0.0458693
-0.000966593
-0.0889964
0.537973
0.384466
0.350063
-0.0594341
0.42971
0.356688
0.17977
-0.185861
-0.243381
0.390653
0.196334
-0.183297
0.23573
0.346261
0.392655
0.100755
0.438992
0.105894
0.170744
0.339508
-0.381278
0.762384
0.464373
0.0301438
-0.457318
0.258741
0.49216
0.299264
0.599183
0.245686
0.0603093
0.488888
0.932801
0.94684
0.366693
0.23796
0.546101
0.519669
0.534403
0.0685601
-0.283426
-0.42214
-0.248395
-0.103555
0.0442978
0.110047
0.023505
0.482578
0.230866
0.0994222
-0.103207
-0.191482
0.326877
0.252268
0.949846
0.941465
0.490843
0.630931
0.712935
0.149463
-0.0188139
0.0627104
-0.0661016
0.500499
0.514146
0.460736
0.585097
-0.310453
0.039999
-0.0629174
0.0341952
0.102574
0.692521
0.714491
0.259043
0.837677
0.41654
0.70974
0.561853
0.929175
0.415149
0.0435041
0.0174895
0.742838
0.879775
0.000148725
0.416093
-0.0110489
0.311636
0.690206
0.0253656
-0.312492
0.128964
-0.129385
-0.0682976
0.591644
0.46269
0.647942
0.219916
0.282211
0.11372
0.0564982
-0.0395363
0.0409745
0.193296
0.113619
0.170483
-0.0755671
0.284107
0.0604048
0.808032
-0.0146055
0.106516
0.00405707
0.179661
0.808252
0.0694621
-0.107211
-0.43555
0.559637
-0.375938
-0.275942
0.234561
0.671036
0.818545
0.914496
-0.0601358
-0.163669
-0.0162975
-0.0647646
0.304656
0.944199
0.913949
-0.174
0.201518
0.303647
-0.242191
-0.0066406
-0.237409
-0.449943
0.143164
0.568893
0.576185
0.104037
0.805864
0.205157
0.958111
0.661943
0.383414
0.56068
0.523112
0.0246355
0.505753
0.801973
0.892535
0.166305
0.979275
0.460553
0.142438
0.334174
0.698636
0.532056
0.00610913
0.753534
0.129689
0.532702
0.194808
-0.297029
-0.348835
-0.122655
0.171115
0.785658
0.142944
0.801508
0.520579
0.75297
0.412044
0.112299
-0.235818
0.805938
0.0114333
0.10848
-0.0351501
-0.00707934
0.585256
0.369979
-0.0827409
-0.160066
0.0532475
0.408586
-0.00503236
0.535411
-0.110851
0.652156
0.773298
0.188148
0.547311
0.141681
-0.300086
0.824707
-0.119038
0.0811218
0.0670213
0.020673
-0.0544749
0.413369
0.826057
-0.255568
0.0076742
0.101564
0.552265
0.352802
0.0795486
0.598542
0.564431
0.00222351
0.649169
0.106413
0.210885
0.164669
0.421549
0.64042
0.1162
-0.122769
0.164562
0.0169942
0.0643586
0.294343
0.871731
-0.106272
-0.050365
0.884226
0.93166
0.947783
0.423671
0.00499101
)
;

boundaryField
{
    movingWall
    {
        type            calculated;
        value           nonuniform List<scalar> 
20
(
0.893008
0.141287
0.830096
-0.246617
0.095034
-0.00795599
-0.0311324
-0.0158883
-0.0196922
-0.111925
0.427505
0.10113
0.102605
-0.0559376
0.117834
0.118782
0.945542
0.96789
0.560561
0.0657898
)
;
    }
    fixedWalls
    {
        type            calculated;
        value           nonuniform List<scalar> 
60
(
0.0183607
0.435833
0.0331704
0.152936
0.0152519
0.126296
0.836985
0.149906
0.0477698
0.158067
0.501138
0.909431
0.587093
0.609968
-0.119908
-0.0394775
0.442903
0.0429673
0.0888534
0.150265
0.043363
0.900046
0.636623
0.968582
0.499956
0.439484
0.562865
0.826861
0.103166
0.146838
0.937515
0.156675
0.618007
0.684148
0.676591
0.420061
0.0735916
0.601006
0.0114214
0.0235278
0.763613
0.164417
0.718371
-0.241088
0.138183
0.00382742
0.0401134
0.0543958
0.0222178
-0.0298005
-0.0219899
0.0675627
0.052344
-0.0488116
-0.0161583
0.141222
0.760327
0.142253
0.302271
0.594887
)
;
    }
    frontAndBack
    {
        type            empty;
    }
}


// ************************************************************************* //
