/*--------------------------------*- C++ -*----------------------------------*\
| =========                 |                                                 |
| \\      /  F ield         | OpenFOAM: The Open Source CFD Toolbox           |
|  \\    /   O peration     | Version:  2312                                  |
|   \\  /    A nd           | Website:  www.openfoam.com                      |
|    \\/     M anipulation  |                                                 |
\*---------------------------------------------------------------------------*/
FoamFile
{
    version     2.0;
    format      ascii;
    arch        "LSB;label=32;scalar=64";
    class       surfaceScalarField;
    location    "8";
    object      fluxField;
}
// * * * * * * * * * * * * * * * * * * * * * * * * * * * * * * * * * * * * * //

dimensions      [0 3 -1 0 0 0 0];

oriented        oriented;

internalField   nonuniform List<scalar> 
760
(
-5e-05
9.68032e-19
-5e-05
-1.93165e-19
-5e-05
3.89936e-20
-5e-05
-9.30669e-21
-5e-05
2.02751e-21
-5e-05
4.59041e-22
-5e-05
1.06135e-21
-5e-05
4.31398e-21
-5e-05
7.81087e-21
-5e-05
2.68041e-21
-5e-05
-1.70335e-21
-5e-05
1.88506e-21
-5e-05
5.31913e-21
-5e-05
1.26365e-21
-5e-05
2.35276e-21
-5e-05
3.71984e-21
-5e-05
2.94783e-21
-5e-05
-5.7214e-23
-5e-05
-1.35195e-23
1.89378e-21
-5e-05
-2.3615e-19
-5e-05
4.55614e-20
-5e-05
-1.08159e-20
-5e-05
9.85217e-23
-5e-05
-5.7454e-21
-5e-05
-5.99811e-21
-5e-05
-5.68878e-21
-5e-05
-1.18595e-21
-5e-05
1.88737e-21
-5e-05
7.53413e-22
-5e-05
-2.42224e-21
-5e-05
-7.23379e-23
-5e-05
1.0269e-21
-5e-05
-8.2285e-22
-5e-05
2.01887e-21
-5e-05
4.95517e-21
-5e-05
3.06525e-21
-5e-05
8.31041e-22
-5e-05
-3.64734e-21
-2.25728e-21
-5e-05
-6.89715e-19
-5e-05
1.31645e-19
-5e-05
-2.61857e-20
-5e-05
2.27341e-21
-5e-05
-9.99769e-21
-5e-05
-7.76915e-21
-5e-05
-6.2768e-21
-5e-05
-2.97347e-21
-5e-05
-2.59867e-21
-5e-05
3.52362e-22
-5e-05
-1.99366e-21
-5e-05
-2.44002e-21
-5e-05
-1.52469e-21
-5e-05
1.58549e-21
-5e-05
3.61068e-21
-5e-05
4.90412e-21
-5e-05
7.7471e-22
-5e-05
-1.20774e-21
-5e-05
-4.81462e-21
-4.42461e-21
-5e-05
2.79585e-19
-5e-05
-5.45168e-20
-5e-05
1.42889e-20
-5e-05
-1.29545e-21
-5e-05
-2.28086e-21
-5e-05
-1.28416e-21
-5e-05
2.22848e-22
-5e-05
-1.08636e-21
-5e-05
-1.38779e-21
-5e-05
2.53881e-21
-5e-05
1.84443e-21
-5e-05
2.29195e-21
-5e-05
2.09635e-21
-5e-05
2.79677e-21
-5e-05
2.25401e-21
-5e-05
2.4323e-21
-5e-05
-1.05779e-21
-5e-05
-3.45627e-22
-5e-05
-1.00505e-21
-1.57547e-21
-5e-05
2.20112e-20
-5e-05
-6.87741e-21
-5e-05
2.13943e-21
-5e-05
3.12392e-21
-5e-05
1.5488e-21
-5e-05
1.61599e-21
-5e-05
2.06785e-21
-5e-05
3.28186e-22
-5e-05
3.89376e-21
-5e-05
7.8669e-21
-5e-05
7.32903e-21
-5e-05
5.68015e-21
-5e-05
3.93416e-21
-5e-05
9.96614e-22
-5e-05
-4.00212e-21
-5e-05
-6.51392e-21
-5e-05
-3.25092e-21
-5e-05
1.586e-21
-5e-05
2.08295e-21
1.86852e-21
-5e-05
-4.76816e-19
-5e-05
9.4589e-20
-5e-05
-2.49353e-20
-5e-05
3.49221e-21
-5e-05
-1.83429e-22
-5e-05
1.24339e-21
-5e-05
-6.48979e-22
-5e-05
3.88532e-22
-5e-05
6.34631e-21
-5e-05
6.61261e-21
-5e-05
4.03357e-21
-5e-05
2.98372e-21
-5e-05
6.86561e-21
-5e-05
5.78824e-21
-5e-05
-1.60727e-21
-5e-05
-5.13255e-21
-5e-05
-2.14195e-22
-5e-05
1.23109e-21
-5e-05
1.84672e-21
3.90825e-21
-5e-05
8.79968e-19
-5e-05
-2.01494e-19
-5e-05
3.24999e-20
-5e-05
-1.96769e-20
-5e-05
-1.4689e-21
-5e-05
-1.40208e-21
-5e-05
-1.40871e-21
-5e-05
-2.00213e-22
-5e-05
4.6258e-21
-5e-05
7.90893e-21
-5e-05
6.64743e-21
-5e-05
5.16321e-21
-5e-05
6.43236e-21
-5e-05
5.53694e-21
-5e-05
1.41436e-21
-5e-05
7.25851e-22
-5e-05
2.20198e-21
-5e-05
1.66453e-21
-5e-05
2.31058e-21
4.25953e-21
-5e-05
-2.60112e-19
-5e-05
2.50303e-20
-5e-05
-1.66818e-20
-5e-05
-8.53794e-21
-5e-05
-2.54606e-21
-5e-05
8.54738e-22
-5e-05
3.83039e-21
-5e-05
4.01336e-21
-5e-05
4.88923e-21
-5e-05
1.16159e-20
-5e-05
1.32063e-20
-5e-05
8.88795e-21
-5e-05
2.35298e-22
-5e-05
-2.02555e-21
-5e-05
-1.74883e-22
-5e-05
-9.08921e-22
-5e-05
-1.57303e-21
-5e-05
2.21362e-21
-5e-05
5.33653e-21
3.1703e-21
-5e-05
-8.38313e-19
-5e-05
1.77223e-19
-5e-05
-4.90783e-20
-5e-05
4.22634e-21
-5e-05
-2.66264e-21
-5e-05
3.81677e-21
-5e-05
6.94489e-21
-5e-05
8.37008e-21
-5e-05
5.37425e-21
-5e-05
5.12145e-21
-5e-05
8.63286e-21
-5e-05
8.0875e-21
-5e-05
9.12012e-22
-5e-05
-1.26631e-21
-5e-05
1.51578e-21
-5e-05
1.02289e-21
-5e-05
1.46387e-22
-5e-05
3.12102e-21
-5e-05
5.04477e-21
7.63811e-22
-5e-05
4.6061e-19
-5e-05
-9.28615e-20
-5e-05
1.49882e-20
-5e-05
-1.13124e-20
-5e-05
-6.36957e-21
-5e-05
-3.05994e-21
-5e-05
4.38466e-21
-5e-05
9.07555e-21
-5e-05
7.39915e-21
-5e-05
4.10206e-21
-5e-05
7.07646e-21
-5e-05
7.37052e-21
-5e-05
4.69283e-21
-5e-05
2.54178e-21
-5e-05
2.74255e-21
-5e-05
4.9711e-21
-5e-05
4.58659e-21
-5e-05
1.87193e-21
-5e-05
1.80831e-21
-3.15308e-22
-5e-05
1.26285e-19
-5e-05
-2.40703e-20
-5e-05
8.25068e-21
-5e-05
-4.6621e-21
-5e-05
-3.98138e-21
-5e-05
-9.36396e-22
-5e-05
5.39049e-21
-5e-05
8.28304e-21
-5e-05
8.24906e-21
-5e-05
4.80129e-21
-5e-05
1.83923e-21
-5e-05
3.66171e-21
-5e-05
5.12904e-21
-5e-05
4.85228e-21
-5e-05
5.0071e-21
-5e-05
6.32451e-21
-5e-05
5.20575e-21
-5e-05
3.42272e-22
-5e-05
-3.10008e-22
8.04766e-22
-5e-05
-1.86265e-19
-5e-05
3.11619e-20
-5e-05
-1.19074e-20
-5e-05
-1.3384e-22
-5e-05
6.1589e-22
-5e-05
3.96425e-21
-5e-05
4.07195e-21
-5e-05
5.25881e-21
-5e-05
7.70977e-21
-5e-05
2.51238e-21
-5e-05
-4.68154e-21
-5e-05
-1.05919e-22
-5e-05
5.58068e-21
-5e-05
7.13406e-21
-5e-05
7.91617e-21
-5e-05
4.7542e-21
-5e-05
1.97744e-21
-5e-05
-4.66111e-22
-5e-05
-3.85292e-21
-1.17487e-21
-5e-05
-1.47787e-19
-5e-05
1.0271e-20
-5e-05
-9.81241e-21
-5e-05
-2.67334e-21
-5e-05
1.74456e-21
-5e-05
3.7731e-21
-5e-05
2.69648e-21
-5e-05
1.56449e-21
-5e-05
4.14881e-21
-5e-05
2.40501e-21
-5e-05
-6.21636e-22
-5e-05
-2.23601e-21
-5e-05
9.51664e-22
-5e-05
1.81498e-21
-5e-05
2.7042e-21
-5e-05
2.65723e-21
-5e-05
5.85034e-22
-5e-05
-2.10681e-21
-5e-05
-5.71884e-21
-4.67556e-21
-5e-05
2.93588e-19
-5e-05
-5.04137e-20
-5e-05
6.73172e-21
-5e-05
-7.16172e-21
-5e-05
3.11734e-21
-5e-05
6.6357e-21
-5e-05
7.81704e-21
-5e-05
4.81882e-21
-5e-05
3.69116e-21
-5e-05
4.97767e-21
-5e-05
5.31657e-21
-5e-05
-8.17546e-22
-5e-05
-7.71436e-22
-5e-05
-1.36656e-21
-5e-05
-3.36325e-21
-5e-05
-1.0933e-21
-5e-05
-7.4313e-22
-5e-05
-2.43715e-21
-5e-05
-2.32197e-21
-2.9332e-21
-5e-05
-2.19464e-19
-5e-05
4.60041e-20
-5e-05
-1.63512e-20
-5e-05
-2.97695e-21
-5e-05
7.58338e-22
-5e-05
4.64932e-21
-5e-05
6.96922e-21
-5e-05
7.84204e-21
-5e-05
5.61666e-21
-5e-05
5.02412e-21
-5e-05
4.38139e-21
-5e-05
2.10641e-21
-5e-05
2.73733e-21
-5e-05
2.71345e-21
-5e-05
-1.82443e-21
-5e-05
-4.42994e-21
-5e-05
-2.68753e-21
-5e-05
2.47436e-22
-5e-05
2.49865e-22
8.52844e-22
-5e-05
-3.06486e-19
-5e-05
3.55932e-20
-5e-05
-6.16014e-21
-5e-05
3.69562e-21
-5e-05
1.10937e-21
-5e-05
-1.04506e-21
-5e-05
3.16986e-22
-5e-05
3.02345e-21
-5e-05
2.15356e-21
-5e-05
5.61712e-22
-5e-05
-2.81175e-21
-5e-05
-1.95052e-21
-5e-05
2.32202e-21
-5e-05
6.59005e-21
-5e-05
5.07041e-21
-5e-05
1.74684e-21
-5e-05
4.97649e-22
-5e-05
2.37756e-21
-5e-05
-5.96794e-22
1.61659e-21
-5e-05
8.37059e-19
-5e-05
-1.82809e-19
-5e-05
4.73425e-20
-5e-05
-1.08173e-21
-5e-05
5.30971e-21
-5e-05
-3.37651e-22
-5e-05
1.31495e-22
-5e-05
1.74535e-21
-5e-05
1.51657e-21
-5e-05
-2.7128e-21
-5e-05
-6.22808e-21
-5e-05
-2.33893e-21
-5e-05
3.7264e-21
-5e-05
8.0772e-21
-5e-05
1.03554e-20
-5e-05
9.69885e-21
-5e-05
1.40375e-21
-5e-05
-1.3871e-21
-5e-05
-1.6855e-21
5.65787e-22
-5e-05
-1.08662e-20
-5e-05
2.04103e-21
-5e-05
-2.4168e-21
-5e-05
4.96727e-21
-5e-05
2.44241e-22
-5e-05
-6.31212e-22
-5e-05
-5.6442e-22
-5e-05
1.10294e-21
-5e-05
-7.07146e-22
-5e-05
-4.42882e-21
-5e-05
-1.91412e-22
-5e-05
2.99329e-21
-5e-05
4.14961e-22
-5e-05
9.00208e-22
-5e-05
4.51651e-21
-5e-05
6.05362e-21
-5e-05
7.09044e-23
-5e-05
-5.29065e-21
-5e-05
-3.32036e-21
-3.14342e-22
-5e-05
-1.09177e-18
-5e-05
2.03455e-19
-5e-05
-5.04981e-20
-5e-05
9.59141e-21
-5e-05
-5.70289e-21
-5e-05
-4.08788e-21
-5e-05
-3.1346e-21
-5e-05
-5.80279e-22
-5e-05
-2.54724e-21
-5e-05
-6.84123e-22
-5e-05
5.80129e-21
-5e-05
2.31374e-21
-5e-05
-5.92989e-21
-5e-05
-4.21291e-21
-5e-05
-1.82873e-21
-5e-05
-1.97968e-21
-5e-05
-1.34558e-21
-5e-05
-4.97884e-21
-5e-05
-3.71028e-21
-1.36574e-22
-5e-05
-5e-05
-5e-05
-5e-05
-5e-05
-5e-05
-5e-05
-5e-05
-5e-05
-5e-05
-5e-05
-5e-05
-5e-05
-5e-05
-5e-05
-5e-05
-5e-05
-5e-05
-5e-05
)
;

boundaryField
{
    movingWall
    {
        type            calculated;
        value           uniform -0;
    }
    fixedWalls
    {
        type            calculated;
        value           nonuniform List<scalar> 
60
(
5e-05
5e-05
5e-05
5e-05
5e-05
5e-05
5e-05
5e-05
5e-05
5e-05
5e-05
5e-05
5e-05
5e-05
5e-05
5e-05
5e-05
5e-05
5e-05
5e-05
-5e-05
-5e-05
-5e-05
-5e-05
-5e-05
-5e-05
-5e-05
-5e-05
-5e-05
-5e-05
-5e-05
-5e-05
-5e-05
-5e-05
-5e-05
-5e-05
-5e-05
-5e-05
-5e-05
-5e-05
0
0
0
0
0
0
0
0
0
0
0
0
0
0
0
0
0
0
0
0
)
;
    }
    frontAndBack
    {
        type            empty;
        value           nonuniform List<scalar> 0();
    }
}


// ************************************************************************* //
