/*--------------------------------*- C++ -*----------------------------------*\
| =========                 |                                                 |
| \\      /  F ield         | OpenFOAM: The Open Source CFD Toolbox           |
|  \\    /   O peration     | Version:  2312                                  |
|   \\  /    A nd           | Website:  www.openfoam.com                      |
|    \\/     M anipulation  |                                                 |
\*---------------------------------------------------------------------------*/
FoamFile
{
    version     2.0;
    format      ascii;
    arch        "LSB;label=32;scalar=64";
    class       volVectorField;
    location    "8";
    object      gradPhi;
}
// * * * * * * * * * * * * * * * * * * * * * * * * * * * * * * * * * * * * * //

dimensions      [0 2 -1 0 0 0 0];

internalField   nonuniform List<vector> 
400
(
(-0.02 7.85715e-18 0)
(2.81241e-17 -2.74037e-17 0)
(-8.27181e-18 7.10421e-18 0)
(1.65436e-18 -1.77871e-18 0)
(0 -3.86658e-19 0)
(0 2.0406e-20 0)
(0 9.98272e-19 0)
(0 6.42902e-19 0)
(-3.30872e-18 1.95785e-18 0)
(0 9.25024e-19 0)
(0 -3.41421e-19 0)
(0 -5.87993e-20 0)
(-1.65436e-18 1.18871e-18 0)
(0 4.40697e-19 0)
(-1.65436e-18 7.07328e-19 0)
(0 3.50125e-19 0)
(0 6.10596e-19 0)
(0 -7.78519e-19 0)
(0 5.63808e-20 0)
(0 1.25388e-18 0)
(-0.02 -1.38953e-17 0)
(-3.14329e-17 2.97916e-17 0)
(8.27181e-18 -8.88337e-18 0)
(0 1.52229e-18 0)
(0 -2.2667e-19 0)
(0 -1.13769e-18 0)
(3.30872e-18 -2.47596e-18 0)
(0 -6.47746e-19 0)
(1.65436e-18 -1.75897e-18 0)
(1.65436e-18 -1.21028e-18 0)
(0 -5.22097e-19 0)
(0 3.57154e-19 0)
(1.65436e-18 -5.83197e-19 0)
(0 -1.08795e-18 0)
(1.65436e-18 -9.92691e-19 0)
(-1.65436e-18 9.28909e-19 0)
(0 -7.35855e-20 0)
(0 1.8686e-18 0)
(0 -5.50469e-19 0)
(1.65436e-18 -2.19948e-18 0)
(-0.02 -1.31839e-17 0)
(-2.15067e-17 2.20132e-17 0)
(4.96308e-18 -3.44048e-18 0)
(-1.65436e-18 7.35085e-19 0)
(3.30872e-18 -1.37848e-18 0)
(0 -3.90423e-19 0)
(0 -1.45373e-19 0)
(0 -9.06967e-19 0)
(0 -8.36666e-19 0)
(0 7.43673e-19 0)
(-1.65436e-18 1.10012e-18 0)
(1.65436e-18 -1.09192e-18 0)
(0 -1.78403e-18 0)
(0 1.42399e-18 0)
(-1.65436e-18 1.73021e-18 0)
(1.65436e-18 -4.69418e-19 0)
(0 -1.88175e-19 0)
(0 -1.43189e-18 0)
(1.65436e-18 -6.65184e-19 0)
(0 -4.70169e-19 0)
(-0.02 2.27108e-17 0)
(3.80503e-17 -3.71123e-17 0)
(-6.61744e-18 8.20427e-18 0)
(0 -6.79247e-19 0)
(-3.30872e-18 1.66247e-18 0)
(0 1.23069e-18 0)
(-1.65436e-18 1.83682e-18 0)
(-1.65436e-18 1.12788e-18 0)
(0 4.97019e-19 0)
(0 -1.64386e-19 0)
(1.65436e-18 -4.52417e-19 0)
(-1.65436e-18 1.4701e-18 0)
(-3.30872e-18 2.12937e-18 0)
(1.65436e-18 -4.94356e-19 0)
(0 -1.37763e-18 0)
(0 2.63107e-19 0)
(0 -3.48025e-19 0)
(0 -3.2821e-21 0)
(0 9.96427e-19 0)
(-1.65436e-18 1.33786e-18 0)
(-0.02 -2.30821e-17 0)
(-2.64698e-17 2.50032e-17 0)
(4.96308e-18 -3.37084e-18 0)
(0 1.45663e-18 0)
(0 -3.91729e-20 0)
(-1.65436e-18 3.03719e-19 0)
(0 4.79947e-19 0)
(1.65436e-18 -2.94331e-19 0)
(-1.65436e-18 6.55912e-19 0)
(-1.65436e-18 1.39927e-18 0)
(-1.65436e-18 1.97562e-18 0)
(0 5.12186e-19 0)
(0 -2.61169e-19 0)
(0 -1.09798e-19 0)
(0 -8.8903e-19 0)
(1.65436e-18 -2.80197e-18 0)
(1.65436e-18 -1.24705e-18 0)
(0 1.02755e-18 0)
(-1.65436e-18 9.0492e-19 0)
(0 4.5855e-19 0)
(-0.02 1.91462e-17 0)
(1.65436e-17 -1.7566e-17 0)
(3.30872e-18 -3.24026e-18 0)
(3.30872e-18 -1.79469e-18 0)
(-1.65436e-18 1.02946e-18 0)
(0 3.25428e-19 0)
(0 -9.80276e-19 0)
(0 1.2845e-19 0)
(-1.65436e-18 1.05579e-18 0)
(1.65436e-18 -4.74748e-19 0)
(0 -6.54556e-19 0)
(1.65436e-18 -3.24883e-19 0)
(-1.65436e-18 8.51929e-19 0)
(-1.65436e-18 1.29675e-18 0)
(0 8.90756e-19 0)
(-1.65436e-18 5.4271e-19 0)
(-1.65436e-18 1.36589e-18 0)
(1.65436e-18 -1.00649e-18 0)
(0 -5.48659e-19 0)
(0 5.137e-19 0)
(-0.02 1.09337e-19 0)
(6.61744e-18 -7.03865e-18 0)
(-8.27181e-18 8.63012e-18 0)
(1.65436e-18 -1.91669e-18 0)
(1.65436e-18 -1.4314e-18 0)
(0 -3.35018e-19 0)
(0 -5.15373e-19 0)
(0 -5.96385e-19 0)
(1.65436e-18 -4.92276e-19 0)
(0 3.68714e-19 0)
(0 -8.32242e-19 0)
(0 -9.48682e-19 0)
(0 -3.55656e-19 0)
(0 -5.13868e-20 0)
(0 -2.88493e-20 0)
(-1.65436e-18 1.414e-18 0)
(0 6.87966e-19 0)
(-1.65436e-18 1.42594e-18 0)
(0 -1.06206e-19 0)
(0 8.64564e-20 0)
(-0.02 1.0392e-17 0)
(1.65436e-18 -2.84965e-18 0)
(8.27181e-18 -7.19119e-18 0)
(1.65436e-18 -6.14732e-19 0)
(0 8.42569e-19 0)
(0 -2.65555e-19 0)
(-1.65436e-18 1.94788e-18 0)
(-1.65436e-18 1.77e-18 0)
(1.65436e-18 -1.04334e-18 0)
(-1.65436e-18 6.60322e-19 0)
(-1.65436e-18 3.74415e-18 0)
(-4.96308e-18 3.126e-18 0)
(1.65436e-18 -1.15524e-18 0)
(3.30872e-18 -2.39383e-18 0)
(0 1.24216e-19 0)
(0 -1.31473e-19 0)
(1.65436e-18 -1.58436e-18 0)
(1.65436e-18 -1.53143e-18 0)
(0 1.08736e-18 0)
(0 -3.14396e-19 0)
(-0.02 -5.22137e-17 0)
(-5.62483e-17 5.49755e-17 0)
(8.27181e-18 -7.68456e-18 0)
(-4.96308e-18 4.42974e-18 0)
(1.65436e-18 -1.34263e-18 0)
(0 1.41896e-18 0)
(-1.65436e-18 8.50051e-19 0)
(0 5.93134e-19 0)
(-3.30872e-18 1.92666e-18 0)
(0 -6.12523e-19 0)
(4.96308e-18 -3.02877e-18 0)
(1.65436e-18 -2.03056e-18 0)
(0 -9.50847e-20 0)
(-1.65436e-18 5.68325e-19 0)
(1.65436e-18 -2.30767e-19 0)
(0 -2.20639e-19 0)
(-1.65436e-18 1.20387e-18 0)
(-1.65436e-18 1.59646e-18 0)
(0 1.27762e-19 0)
(0 -4.08929e-19 0)
(-0.02 4.37679e-17 0)
(5.12852e-17 -5.14124e-17 0)
(-1.32349e-17 1.16368e-17 0)
(4.96308e-18 -3.60768e-18 0)
(0 4.12305e-19 0)
(1.65436e-18 -1.81289e-18 0)
(0 -1.81966e-18 0)
(0 -1.53273e-19 0)
(1.65436e-18 -7.13405e-19 0)
(0 -1.72892e-18 0)
(0 6.28059e-19 0)
(-1.65436e-18 8.82128e-19 0)
(0 1.54263e-18 0)
(-1.65436e-18 1.35571e-18 0)
(0 7.57676e-19 0)
(-1.65436e-18 1.16854e-18 0)
(0 2.09774e-21 0)
(0 -6.89972e-19 0)
(0 -9.38838e-19 0)
(1.65436e-18 -8.98059e-19 0)
(-0.02 -2.15214e-18 0)
(3.30872e-18 -3.44876e-18 0)
(0 1.69637e-18 0)
(-1.65436e-18 1.28975e-18 0)
(0 3.27246e-19 0)
(0 8.69058e-20 0)
(-1.65436e-18 1.01476e-18 0)
(0 2.51123e-19 0)
(0 7.82578e-19 0)
(-3.30872e-18 1.29707e-18 0)
(1.65436e-18 -1.57316e-18 0)
(1.65436e-18 -1.46693e-18 0)
(1.65436e-18 -6.81084e-19 0)
(0 -9.24227e-20 0)
(0 1.08236e-19 0)
(0 2.30502e-19 0)
(-1.65436e-18 1.09956e-18 0)
(0 -1.00277e-18 0)
(0 -4.27178e-19 0)
(-1.65436e-18 1.39103e-18 0)
(-0.02 -2.34484e-17 0)
(-3.47416e-17 3.46445e-17 0)
(6.61744e-18 -7.26179e-18 0)
(0 1.44762e-18 0)
(0 5.69693e-20 0)
(-3.30872e-18 1.61439e-18 0)
(1.65436e-18 -2.24332e-19 0)
(0 -9.4379e-19 0)
(1.65436e-18 -1.10731e-18 0)
(0 -4.14597e-19 0)
(1.65436e-18 -8.60232e-19 0)
(-1.65436e-18 -3.86753e-19 0)
(0 3.60901e-21 0)
(0 3.42664e-19 0)
(0 1.02107e-18 0)
(0 -4.12945e-19 0)
(3.30872e-18 -1.43666e-18 0)
(-1.65436e-18 8.24021e-19 0)
(1.65436e-18 -9.49986e-19 0)
(0 -7.12823e-19 0)
(-0.02 3.97661e-17 0)
(3.30872e-17 -3.46527e-17 0)
(0 2.90118e-18 0)
(0 -1.66098e-18 0)
(0 1.52282e-18 0)
(0 -2.01619e-19 0)
(0 -7.19623e-19 0)
(0 -1.03966e-18 0)
(0 3.4259e-19 0)
(0 -3.19517e-19 0)
(0 5.5454e-19 0)
(1.65436e-18 -8.72262e-19 0)
(0 -3.98258e-19 0)
(0 -6.3776e-19 0)
(1.65436e-18 -7.27571e-19 0)
(0 2.76691e-19 0)
(0 2.13037e-20 0)
(0 -8.29756e-19 0)
(1.65436e-18 -2.72957e-19 0)
(1.65436e-18 -1.73611e-18 0)
(-0.02 -2.13196e-17 0)
(-1.8198e-17 1.87815e-17 0)
(-1.65436e-18 1.25413e-18 0)
(0 2.59055e-19 0)
(0 -9.7107e-19 0)
(0 3.46432e-19 0)
(-3.30872e-18 1.91382e-18 0)
(-1.65436e-18 1.26276e-18 0)
(1.65436e-18 -9.81177e-19 0)
(0 2.18949e-19 0)
(-1.65436e-18 1.89827e-18 0)
(-1.65436e-18 1.28019e-18 0)
(1.65436e-18 -5.82816e-19 0)
(0 -1.1479e-18 0)
(4.96308e-18 -2.94124e-18 0)
(0 -2.0503e-18 0)
(0 3.85742e-19 0)
(0 3.93512e-19 0)
(0 1.15953e-18 0)
(-1.65436e-18 1.01724e-18 0)
(-0.02 -2.99037e-18 0)
(-3.30872e-18 3.6212e-18 0)
(3.30872e-18 -3.02434e-18 0)
(0 -4.99003e-19 0)
(0 -7.7455e-20 0)
(0 -3.84203e-19 0)
(1.65436e-18 -1.2283e-18 0)
(0 5.4433e-19 0)
(-1.65436e-18 1.36488e-18 0)
(-1.65436e-18 6.95318e-19 0)
(1.65436e-18 -9.22177e-19 0)
(0 -2.64793e-19 0)
(0 9.53402e-19 0)
(-3.30872e-18 1.58082e-18 0)
(0 2.11764e-18 0)
(-1.65436e-18 2.9225e-19 0)
(1.65436e-18 -1.96357e-18 0)
(1.65436e-18 -6.58493e-19 0)
(0 9.60141e-20 0)
(-1.65436e-18 1.27502e-18 0)
(-0.02 1.09328e-17 0)
(9.92617e-18 -9.51936e-18 0)
(-1.65436e-18 8.3168e-19 0)
(-1.65436e-18 2.3113e-18 0)
(0 6.64856e-19 0)
(0 -9.12896e-19 0)
(1.65436e-18 -7.86384e-19 0)
(1.65436e-18 -1.27142e-18 0)
(1.65436e-18 -1.5082e-18 0)
(3.30872e-18 -1.69771e-18 0)
(0 -1.54354e-18 0)
(1.65436e-18 -4.36506e-19 0)
(0 -3.61862e-19 0)
(-1.65436e-18 2.46324e-19 0)
(0 7.96648e-19 0)
(0 4.28737e-19 0)
(0 1.95109e-18 0)
(-1.65436e-18 2.23038e-18 0)
(0 -1.00673e-19 0)
(0 -2.78418e-19 0)
(-0.02 1.09825e-17 0)
(2.64698e-17 -2.60688e-17 0)
(-1.32349e-17 1.22791e-17 0)
(1.65436e-18 -6.9424e-19 0)
(-1.65436e-18 5.25035e-19 0)
(0 1.81817e-19 0)
(0 -4.98329e-20 0)
(0 -1.49821e-19 0)
(0 1.17358e-19 0)
(0 5.29293e-19 0)
(0 -3.83578e-19 0)
(1.65436e-18 -8.49361e-19 0)
(-1.65436e-18 -1.9726e-19 0)
(0 3.91391e-19 0)
(0 1.09885e-18 0)
(-4.96308e-18 3.01134e-18 0)
(1.65436e-18 -4.82738e-19 0)
(1.65436e-18 -2.13232e-18 0)
(0 -2.70719e-20 0)
(0 -1.43761e-19 0)
(-0.02 -1.70079e-17 0)
(-3.14329e-17 3.25506e-17 0)
(9.92617e-18 -1.15055e-17 0)
(-1.65436e-18 1.29953e-18 0)
(1.65436e-18 -1.39171e-18 0)
(1.65436e-18 -4.35733e-19 0)
(0 -2.98113e-19 0)
(0 -2.09592e-20 0)
(0 -9.3643e-21 0)
(1.65436e-18 -1.80592e-18 0)
(0 9.84832e-19 0)
(-3.30872e-18 2.15458e-18 0)
(0 7.01601e-19 0)
(1.65436e-18 -1.53617e-18 0)
(1.65436e-18 -1.5324e-18 0)
(1.65436e-18 -1.80995e-18 0)
(0 6.28988e-19 0)
(0 -2.66112e-19 0)
(0 -8.58392e-19 0)
(0 -3.4555e-19 0)
(-0.02 -1.18164e-17 0)
(-2.48154e-17 2.61195e-17 0)
(6.61744e-18 -8.98051e-18 0)
(0 -5.05726e-19 0)
(0 -1.08064e-18 0)
(1.65436e-18 -4.66129e-19 0)
(0 -4.86996e-19 0)
(1.65436e-18 -5.40764e-19 0)
(1.65436e-18 -1.26302e-18 0)
(-3.30872e-18 1.56855e-18 0)
(-1.65436e-18 1.86062e-18 0)
(0 -2.99781e-19 0)
(1.65436e-18 -2.68669e-18 0)
(1.65436e-18 -9.83949e-19 0)
(0 -7.96509e-19 0)
(1.65436e-18 -1.55512e-18 0)
(3.30872e-18 -1.14966e-18 0)
(-1.65436e-18 -1.0401e-19 0)
(1.65436e-18 4.39662e-19 0)
(-1.65436e-18 3.01116e-20 0)
(-0.02 1.54449e-17 0)
(3.14329e-17 -3.04284e-17 0)
(-9.92617e-18 1.0045e-17 0)
(1.65436e-18 -9.99322e-19 0)
(0 1.28216e-18 0)
(-1.65436e-18 8.13409e-19 0)
(-1.65436e-18 6.88664e-19 0)
(0 2.44552e-19 0)
(-1.65436e-18 1.01309e-18 0)
(0 2.2423e-20 0)
(1.65436e-18 -1.63201e-18 0)
(1.65436e-18 -7.51095e-19 0)
(-1.65436e-18 1.7711e-18 0)
(-1.65436e-18 8.88852e-19 0)
(0 1.64065e-19 0)
(0 5.449e-19 0)
(-1.65436e-18 5.16725e-19 0)
(0 1.06859e-18 0)
(0 5.77562e-19 0)
(0 1.43837e-19 0)
)
;

boundaryField
{
    movingWall
    {
        type            extrapolatedCalculated;
        value           nonuniform List<vector> 
20
(
(-0.02 1.54449e-17 0)
(3.14329e-17 -3.04284e-17 0)
(-9.92617e-18 1.0045e-17 0)
(1.65436e-18 -9.99322e-19 0)
(0 1.28216e-18 0)
(-1.65436e-18 8.13409e-19 0)
(-1.65436e-18 6.88664e-19 0)
(0 2.44552e-19 0)
(-1.65436e-18 1.01309e-18 0)
(0 2.2423e-20 0)
(1.65436e-18 -1.63201e-18 0)
(1.65436e-18 -7.51095e-19 0)
(-1.65436e-18 1.7711e-18 0)
(-1.65436e-18 8.88852e-19 0)
(0 1.64065e-19 0)
(0 5.449e-19 0)
(-1.65436e-18 5.16725e-19 0)
(0 1.06859e-18 0)
(0 5.77562e-19 0)
(0 1.43837e-19 0)
)
;
    }
    fixedWalls
    {
        type            extrapolatedCalculated;
        value           nonuniform List<vector> 
60
(
(-0.02 7.85715e-18 0)
(-0.02 -1.38953e-17 0)
(-0.02 -1.31839e-17 0)
(-0.02 2.27108e-17 0)
(-0.02 -2.30821e-17 0)
(-0.02 1.91462e-17 0)
(-0.02 1.09337e-19 0)
(-0.02 1.0392e-17 0)
(-0.02 -5.22137e-17 0)
(-0.02 4.37679e-17 0)
(-0.02 -2.15214e-18 0)
(-0.02 -2.34484e-17 0)
(-0.02 3.97661e-17 0)
(-0.02 -2.13196e-17 0)
(-0.02 -2.99037e-18 0)
(-0.02 1.09328e-17 0)
(-0.02 1.09825e-17 0)
(-0.02 -1.70079e-17 0)
(-0.02 -1.18164e-17 0)
(-0.02 1.54449e-17 0)
(0 1.25388e-18 0)
(1.65436e-18 -2.19948e-18 0)
(0 -4.70169e-19 0)
(-1.65436e-18 1.33786e-18 0)
(0 4.5855e-19 0)
(0 5.137e-19 0)
(0 8.64564e-20 0)
(0 -3.14396e-19 0)
(0 -4.08929e-19 0)
(1.65436e-18 -8.98059e-19 0)
(-1.65436e-18 1.39103e-18 0)
(0 -7.12823e-19 0)
(1.65436e-18 -1.73611e-18 0)
(-1.65436e-18 1.01724e-18 0)
(-1.65436e-18 1.27502e-18 0)
(0 -2.78418e-19 0)
(0 -1.43761e-19 0)
(0 -3.4555e-19 0)
(-1.65436e-18 3.01116e-20 0)
(0 1.43837e-19 0)
(-0.02 7.85715e-18 0)
(2.81241e-17 -2.74037e-17 0)
(-8.27181e-18 7.10421e-18 0)
(1.65436e-18 -1.77871e-18 0)
(0 -3.86658e-19 0)
(0 2.0406e-20 0)
(0 9.98272e-19 0)
(0 6.42902e-19 0)
(-3.30872e-18 1.95785e-18 0)
(0 9.25024e-19 0)
(0 -3.41421e-19 0)
(0 -5.87993e-20 0)
(-1.65436e-18 1.18871e-18 0)
(0 4.40697e-19 0)
(-1.65436e-18 7.07328e-19 0)
(0 3.50125e-19 0)
(0 6.10596e-19 0)
(0 -7.78519e-19 0)
(0 5.63808e-20 0)
(0 1.25388e-18 0)
)
;
    }
    frontAndBack
    {
        type            empty;
    }
}


// ************************************************************************* //
