/*--------------------------------*- C++ -*----------------------------------*\
| =========                 |                                                 |
| \\      /  F ield         | OpenFOAM: The Open Source CFD Toolbox           |
|  \\    /   O peration     | Version:  2312                                  |
|   \\  /    A nd           | Website:  www.openfoam.com                      |
|    \\/     M anipulation  |                                                 |
\*---------------------------------------------------------------------------*/
FoamFile
{
    version     2.0;
    format      ascii;
    arch        "LSB;label=32;scalar=64";
    class       volTensorField;
    location    "8";
    object      gradU;
}
// * * * * * * * * * * * * * * * * * * * * * * * * * * * * * * * * * * * * * //

dimensions      [0 0 -1 0 0 0 0];

internalField   nonuniform List<tensor> 
400
(
(8.13152e-14 2.47092e-12 0 -3.52366e-13 3.87213e-12 0 0 0 0)
(8.13152e-14 -2.97497e-12 0 0 -7.72658e-13 0 0 0 0)
(0 6.05872e-13 0 -5.42101e-14 1.55974e-13 0 0 0 0)
(-2.71051e-14 -1.26345e-13 0 -2.71051e-14 -3.72268e-14 0 0 0 0)
(5.42101e-14 3.81219e-14 0 2.71051e-14 8.11004e-15 0 0 0 0)
(-2.71051e-14 -2.72603e-16 0 0 1.83617e-15 0 0 0 0)
(-2.71051e-14 7.62944e-15 0 0 4.2454e-15 0 0 0 0)
(0 1.00909e-14 0 0 1.72559e-14 0 0 0 0)
(-2.71051e-14 -4.87324e-15 0 5.42101e-14 3.12435e-14 0 0 0 0)
(-5.42101e-14 -1.9812e-14 0 0 1.07216e-14 0 0 0 0)
(2.71051e-14 -6.20762e-15 0 0 -6.8134e-15 0 0 0 0)
(0 1.19262e-14 0 0 7.54024e-15 0 0 0 0)
(-2.71051e-14 3.18068e-15 0 2.71051e-14 2.12765e-14 0 0 0 0)
(0 -6.80745e-15 0 0 5.05459e-15 0 0 0 0)
(0 -2.58338e-15 0 2.71051e-14 9.41102e-15 0 0 0 0)
(-2.71051e-14 -4.48051e-16 0 0 1.48793e-14 0 0 0 0)
(-2.71051e-14 -5.15443e-15 0 0 1.17913e-14 0 0 0 0)
(2.71051e-14 -6.6692e-16 0 0 -2.28856e-16 0 0 0 0)
(-2.71051e-14 8.84814e-15 0 0 -5.40779e-17 0 0 0 0)
(0 -8.44026e-15 0 0 7.57511e-15 0 0 0 0)
(-4.06576e-13 6.28555e-13 0 0 -4.81673e-12 0 0 0 0)
(2.43945e-13 -7.41181e-13 0 -1.0842e-13 9.54904e-13 0 0 0 0)
(-2.71051e-14 1.29559e-13 0 -1.6263e-13 -1.99238e-13 0 0 0 0)
(2.71051e-14 -2.15192e-14 0 -8.13152e-14 3.76208e-14 0 0 0 0)
(0 9.41015e-16 0 -8.13152e-14 -3.10916e-14 0 0 0 0)
(0 -3.59204e-15 0 -1.35525e-13 -2.58286e-14 0 0 0 0)
(5.42101e-14 7.7903e-15 0 -8.13152e-14 -2.70005e-14 0 0 0 0)
(0 1.69071e-14 0 -1.35525e-13 -2.19997e-14 0 0 0 0)
(5.42101e-14 -1.66104e-15 0 -1.0842e-13 -2.3694e-14 0 0 0 0)
(0 -1.82449e-14 0 -5.42101e-14 -7.70797e-15 0 0 0 0)
(0 3.02623e-15 0 -8.13152e-14 -2.87558e-15 0 0 0 0)
(0 1.61637e-14 0 -8.13152e-14 -7.82959e-15 0 0 0 0)
(2.71051e-14 -5.66632e-15 0 -2.71051e-14 -1.71689e-14 0 0 0 0)
(0 -5.05806e-15 0 -5.42101e-14 -8.34599e-15 0 0 0 0)
(5.42101e-14 1.24081e-14 0 -8.13152e-14 -1.33553e-15 0 0 0 0)
(-5.42101e-14 2.82836e-15 0 -8.13152e-14 4.94135e-15 0 0 0 0)
(5.42101e-14 -9.95377e-15 0 -5.42101e-14 4.69652e-16 0 0 0 0)
(-5.42101e-14 -1.11785e-14 0 0 3.55302e-15 0 0 0 0)
(0 -1.04417e-15 0 0 -1.45353e-14 0 0 0 0)
(5.42101e-14 9.1923e-16 0 0 -1.66042e-14 0 0 0 0)
(0 -1.39091e-12 0 0 -1.81426e-12 0 0 0 0)
(-8.13152e-14 1.64252e-12 0 2.1684e-13 3.44334e-13 0 0 0 0)
(-5.42101e-14 -3.11411e-13 0 2.43945e-13 -6.1479e-14 0 0 0 0)
(5.42101e-14 4.18014e-14 0 1.6263e-13 8.69957e-15 0 0 0 0)
(2.71051e-14 -2.53276e-14 0 1.6263e-13 -1.70092e-14 0 0 0 0)
(0 3.81851e-15 0 1.89735e-13 -7.08415e-15 0 0 0 0)
(0 1.14584e-14 0 1.0842e-13 -2.35209e-15 0 0 0 0)
(0 1.33974e-14 0 1.35525e-13 -7.15011e-15 0 0 0 0)
(5.42101e-14 9.41848e-15 0 8.13152e-14 -1.79442e-14 0 0 0 0)
(-5.42101e-14 1.00641e-15 0 8.13152e-14 -1.60421e-15 0 0 0 0)
(-2.71051e-14 -6.32923e-15 0 8.13152e-14 1.71433e-15 0 0 0 0)
(2.71051e-14 -2.36711e-15 0 8.13152e-14 -9.47072e-15 0 0 0 0)
(5.42101e-14 2.66427e-15 0 2.71051e-14 -1.02064e-14 0 0 0 0)
(-5.42101e-14 9.02595e-15 0 0 9.63335e-15 0 0 0 0)
(-2.71051e-14 1.0704e-14 0 5.42101e-14 6.36724e-15 0 0 0 0)
(0 1.35713e-15 0 2.71051e-14 -2.04215e-16 0 0 0 0)
(2.71051e-14 -6.54276e-15 0 0 -9.16215e-15 0 0 0 0)
(5.42101e-14 -1.56719e-14 0 2.71051e-14 -8.15511e-15 0 0 0 0)
(0 -1.13091e-14 0 0 -4.66909e-15 0 0 0 0)
(0 2.26993e-14 0 2.71051e-14 -8.6693e-15 0 0 0 0)
(-2.43945e-13 -8.4137e-13 0 8.13152e-13 3.8772e-12 0 0 0 0)
(4.87891e-13 1.0116e-12 0 -1.0842e-13 -7.44646e-13 0 0 0 0)
(-8.13152e-14 -2.06075e-13 0 1.6263e-13 1.61898e-13 0 0 0 0)
(0 2.29507e-14 0 5.42101e-14 -1.42755e-14 0 0 0 0)
(-5.42101e-14 -1.48427e-14 0 2.71051e-14 3.08673e-14 0 0 0 0)
(0 1.1065e-14 0 2.71051e-14 2.594e-14 0 0 0 0)
(-5.42101e-14 7.72434e-15 0 2.71051e-14 2.59986e-14 0 0 0 0)
(-2.71051e-14 1.31505e-15 0 5.42101e-14 7.54844e-15 0 0 0 0)
(0 3.88487e-15 0 2.71051e-14 4.84353e-15 0 0 0 0)
(0 1.41364e-15 0 2.71051e-14 8.74578e-15 0 0 0 0)
(2.71051e-14 -4.84029e-15 0 2.71051e-14 1.53523e-14 0 0 0 0)
(-2.71051e-14 4.24298e-15 0 2.71051e-14 1.89279e-14 0 0 0 0)
(-5.42101e-14 1.34378e-14 0 -2.71051e-14 1.44842e-14 0 0 0 0)
(0 1.15156e-14 0 0 4.84511e-15 0 0 0 0)
(5.42101e-14 2.57057e-15 0 0 -5.42669e-15 0 0 0 0)
(-2.71051e-14 -1.2701e-14 0 5.42101e-14 -9.88729e-15 0 0 0 0)
(0 -1.79047e-14 0 1.0842e-13 -7.32999e-15 0 0 0 0)
(0 -6.68543e-15 0 0 3.44844e-15 0 0 0 0)
(2.71051e-14 -1.55836e-15 0 2.71051e-14 1.52383e-14 0 0 0 0)
(-5.42101e-14 1.42576e-14 0 2.71051e-14 1.13965e-14 0 0 0 0)
(6.77626e-13 1.74164e-12 0 -5.96311e-13 -1.03029e-12 0 0 0 0)
(-7.86047e-13 -2.07278e-12 0 2.71051e-14 1.90557e-13 0 0 0 0)
(1.6263e-13 4.1896e-13 0 -1.89735e-13 -4.85977e-14 0 0 0 0)
(-5.42101e-14 -8.92296e-14 0 -2.71051e-14 1.76775e-14 0 0 0 0)
(2.71051e-14 1.48879e-14 0 -5.42101e-14 1.53187e-14 0 0 0 0)
(-2.71051e-14 -1.05019e-15 0 -2.71051e-14 1.16006e-14 0 0 0 0)
(0 -6.93316e-15 0 0 7.38002e-15 0 0 0 0)
(2.71051e-14 -7.75761e-15 0 0 5.6582e-15 0 0 0 0)
(-2.71051e-14 1.06158e-14 0 -2.71051e-14 2.11262e-14 0 0 0 0)
(-2.71051e-14 1.15152e-14 0 -2.71051e-14 2.13124e-14 0 0 0 0)
(-5.42101e-14 3.85284e-15 0 -2.71051e-14 2.19384e-14 0 0 0 0)
(0 -3.23528e-15 0 0 1.35528e-14 0 0 0 0)
(0 -1.14185e-14 0 0 7.35125e-15 0 0 0 0)
(0 -1.08849e-14 0 5.42101e-14 -7.20061e-15 0 0 0 0)
(0 -4.02845e-15 0 0 -2.50245e-14 0 0 0 0)
(5.42101e-14 -5.46172e-16 0 0 -3.57849e-14 0 0 0 0)
(2.71051e-14 6.79297e-15 0 -5.42101e-14 -8.77253e-15 0 0 0 0)
(-2.71051e-14 6.89638e-15 0 -8.13152e-14 7.72649e-15 0 0 0 0)
(2.71051e-14 -3.36103e-15 0 -2.71051e-14 1.2352e-14 0 0 0 0)
(-2.71051e-14 -3.93551e-15 0 -2.71051e-14 1.3776e-14 0 0 0 0)
(-7.86047e-13 -1.68111e-12 0 -1.35525e-13 -1.99531e-12 0 0 0 0)
(8.94467e-13 1.9933e-12 0 0 4.05866e-13 0 0 0 0)
(-1.0842e-13 -3.78955e-13 0 -5.42101e-14 -1.08299e-13 0 0 0 0)
(8.13152e-14 8.6867e-14 0 0 1.47316e-15 0 0 0 0)
(-2.71051e-14 -2.09196e-14 0 0 -6.92892e-15 0 0 0 0)
(0 3.1264e-15 0 0 -1.49041e-15 0 0 0 0)
(0 1.78193e-15 0 0 -1.08673e-14 0 0 0 0)
(0 1.50612e-14 0 0 2.41387e-16 0 0 0 0)
(-2.71051e-14 1.95391e-14 0 2.71051e-14 9.81023e-15 0 0 0 0)
(2.71051e-14 2.22588e-15 0 2.71051e-14 -5.01716e-15 0 0 0 0)
(0 -1.25999e-14 0 5.42101e-14 -1.31819e-14 0 0 0 0)
(2.71051e-14 -1.03442e-14 0 5.42101e-14 -1.07857e-14 0 0 0 0)
(-2.71051e-14 -7.31567e-15 0 8.13152e-14 1.17258e-14 0 0 0 0)
(0 -2.08602e-14 0 5.42101e-14 1.91665e-14 0 0 0 0)
(-2.71051e-14 -2.60137e-14 0 5.42101e-14 9.57941e-15 0 0 0 0)
(-2.71051e-14 3.55097e-15 0 2.71051e-14 5.52549e-15 0 0 0 0)
(-5.42101e-14 2.56067e-14 0 0 1.21469e-14 0 0 0 0)
(5.42101e-14 1.44391e-14 0 0 -1.41963e-15 0 0 0 0)
(2.71051e-14 4.49114e-15 0 0 -9.44926e-16 0 0 0 0)
(-2.71051e-14 -1.18704e-14 0 0 8.15893e-15 0 0 0 0)
(5.96311e-13 1.522e-13 0 -8.13152e-14 5.42714e-12 0 0 0 0)
(-6.77626e-13 -1.85774e-13 0 0 -1.18433e-12 0 0 0 0)
(1.35525e-13 1.45676e-14 0 0 2.29741e-13 0 0 0 0)
(-5.42101e-14 1.21405e-14 0 -2.71051e-14 -9.26762e-14 0 0 0 0)
(5.42101e-14 1.19243e-14 0 -2.71051e-14 -5.14189e-15 0 0 0 0)
(0 -4.9886e-15 0 0 -1.05819e-14 0 0 0 0)
(0 -5.20136e-15 0 -2.71051e-14 -3.03893e-15 0 0 0 0)
(0 1.29199e-14 0 -5.42101e-14 -2.35498e-15 0 0 0 0)
(2.71051e-14 5.35727e-15 0 -5.42101e-14 -6.88206e-15 0 0 0 0)
(0 -1.14769e-14 0 0 5.18527e-15 0 0 0 0)
(0 -1.91572e-15 0 -5.42101e-14 1.04554e-14 0 0 0 0)
(0 2.16723e-14 0 -1.35525e-13 8.71798e-15 0 0 0 0)
(0 1.85338e-14 0 -8.13152e-14 -1.73297e-15 0 0 0 0)
(0 -1.30313e-14 0 -5.42101e-14 -1.00519e-15 0 0 0 0)
(0 -1.76695e-14 0 -2.71051e-14 1.20865e-14 0 0 0 0)
(-2.71051e-14 2.02132e-15 0 -2.71051e-14 2.34336e-14 0 0 0 0)
(-2.71051e-14 -1.52147e-16 0 0 9.6647e-15 0 0 0 0)
(-2.71051e-14 -6.19545e-15 0 5.42101e-14 1.73375e-15 0 0 0 0)
(2.71051e-14 6.21753e-15 0 0 1.85544e-15 0 0 0 0)
(-2.71051e-14 -1.11495e-14 0 0 1.4051e-15 0 0 0 0)
(-8.94467e-13 2.5617e-12 0 9.21572e-13 -4.56032e-12 0 0 0 0)
(1.00289e-12 -3.2041e-12 0 -1.35525e-13 9.06098e-13 0 0 0 0)
(-1.89735e-13 7.12701e-13 0 8.13152e-14 -1.96727e-13 0 0 0 0)
(1.35525e-13 -1.48016e-13 0 0 4.45557e-14 0 0 0 0)
(-5.42101e-14 6.11748e-14 0 2.71051e-14 -4.30865e-15 0 0 0 0)
(2.71051e-14 5.22936e-15 0 -2.71051e-14 9.02728e-15 0 0 0 0)
(-2.71051e-14 1.00088e-14 0 -2.71051e-14 2.09564e-14 0 0 0 0)
(-5.42101e-14 1.12181e-14 0 -5.42101e-14 1.68543e-14 0 0 0 0)
(5.42101e-14 2.70793e-14 0 -5.42101e-14 1.05371e-15 0 0 0 0)
(0 1.95634e-14 0 -1.0842e-13 1.4828e-14 0 0 0 0)
(-8.13152e-14 -9.06715e-15 0 -5.42101e-14 2.62354e-14 0 0 0 0)
(-5.42101e-14 -2.25326e-14 0 -2.71051e-14 1.48989e-14 0 0 0 0)
(5.42101e-14 -1.70388e-14 0 -5.42101e-14 -2.47883e-14 0 0 0 0)
(0 -7.04074e-15 0 0 -3.025e-14 0 0 0 0)
(0 -1.5749e-15 0 -8.13152e-14 -6.35698e-15 0 0 0 0)
(0 1.12915e-15 0 2.71051e-14 -6.53909e-15 0 0 0 0)
(2.71051e-14 3.90685e-15 0 -5.42101e-14 -1.51e-14 0 0 0 0)
(5.42101e-14 6.62986e-15 0 0 2.19637e-15 0 0 0 0)
(0 4.16249e-15 0 0 1.21038e-14 0 0 0 0)
(0 -1.51309e-14 0 -2.71051e-14 -4.35692e-15 0 0 0 0)
(1.40946e-12 -3.50202e-12 0 4.60786e-13 -2.3128e-12 0 0 0 0)
(-1.54499e-12 4.17782e-12 0 -1.0842e-13 6.08772e-13 0 0 0 0)
(2.71051e-13 -8.46974e-13 0 5.42101e-14 -1.29586e-13 0 0 0 0)
(-1.35525e-13 2.04558e-13 0 -8.13152e-14 5.10571e-14 0 0 0 0)
(5.42101e-14 -2.36041e-14 0 0 -4.66287e-16 0 0 0 0)
(-2.71051e-14 2.02764e-14 0 0 1.18481e-14 0 0 0 0)
(-2.71051e-14 2.62564e-15 0 2.71051e-14 1.2458e-14 0 0 0 0)
(0 -6.98274e-15 0 8.13152e-14 1.74269e-14 0 0 0 0)
(-8.13152e-14 3.33103e-15 0 5.42101e-14 1.9401e-15 0 0 0 0)
(2.71051e-14 1.37048e-14 0 5.42101e-14 -2.5978e-14 0 0 0 0)
(8.13152e-14 -1.84483e-15 0 1.0842e-13 -1.82936e-14 0 0 0 0)
(2.71051e-14 -2.93513e-14 0 1.35525e-13 -3.20177e-15 0 0 0 0)
(0 -2.66152e-14 0 1.0842e-13 2.70686e-15 0 0 0 0)
(-2.71051e-14 5.40001e-15 0 2.71051e-14 3.03698e-15 0 0 0 0)
(2.71051e-14 6.04144e-15 0 5.42101e-14 6.76264e-15 0 0 0 0)
(0 -6.72174e-15 0 2.71051e-14 7.72726e-15 0 0 0 0)
(-2.71051e-14 8.58331e-15 0 5.42101e-14 6.87766e-15 0 0 0 0)
(-2.71051e-14 2.10084e-14 0 0 3.62963e-15 0 0 0 0)
(0 -3.35761e-16 0 0 -1.16701e-15 0 0 0 0)
(0 -1.88964e-14 0 0 -9.62596e-15 0 0 0 0)
(-5.42101e-13 8.57664e-13 0 -2.05998e-12 5.19569e-12 0 0 0 0)
(5.96311e-13 -1.02088e-12 0 4.60786e-13 -1.08034e-12 0 0 0 0)
(-1.35525e-13 1.54986e-13 0 -1.35525e-13 2.56266e-13 0 0 0 0)
(8.13152e-14 -1.8896e-14 0 5.42101e-14 -6.21549e-14 0 0 0 0)
(0 2.19658e-14 0 -2.71051e-14 -1.48278e-14 0 0 0 0)
(2.71051e-14 1.81536e-14 0 2.71051e-14 -2.75069e-14 0 0 0 0)
(2.71051e-14 1.55876e-14 0 0 -1.02409e-14 0 0 0 0)
(0 7.00197e-16 0 2.71051e-14 2.82188e-15 0 0 0 0)
(0 -1.63256e-14 0 2.71051e-14 8.09959e-15 0 0 0 0)
(5.42101e-14 -6.70362e-16 0 5.42101e-14 -4.07755e-15 0 0 0 0)
(-2.71051e-14 1.37091e-14 0 0 -6.22561e-15 0 0 0 0)
(-2.71051e-14 -1.53212e-15 0 -2.71051e-14 -2.86793e-15 0 0 0 0)
(-2.71051e-14 -1.08001e-14 0 0 1.51233e-14 0 0 0 0)
(-2.71051e-14 -2.98496e-15 0 2.71051e-14 1.52324e-14 0 0 0 0)
(0 3.11538e-15 0 5.42101e-14 4.90708e-15 0 0 0 0)
(-5.42101e-14 1.24418e-15 0 -2.71051e-14 1.57928e-14 0 0 0 0)
(0 -1.90784e-16 0 0 1.77608e-14 0 0 0 0)
(5.42101e-14 -1.41482e-15 0 0 -4.99639e-15 0 0 0 0)
(0 -9.09309e-15 0 0 -1.29459e-14 0 0 0 0)
(0 -4.33797e-15 0 0 -4.31647e-15 0 0 0 0)
(-2.1684e-13 6.13331e-13 0 1.43657e-12 -1.3373e-12 0 0 0 0)
(3.79471e-13 -7.61608e-13 0 -3.52366e-13 2.75165e-13 0 0 0 0)
(-1.0842e-13 1.7121e-13 0 8.13152e-14 -2.69501e-14 0 0 0 0)
(0 -6.65351e-14 0 0 2.66012e-14 0 0 0 0)
(0 1.1044e-14 0 -2.71051e-14 9.55278e-15 0 0 0 0)
(0 2.48633e-14 0 -5.42101e-14 8.49419e-15 0 0 0 0)
(-2.71051e-14 3.29544e-14 0 -1.0842e-13 4.0233e-15 0 0 0 0)
(0 1.13577e-14 0 -1.0842e-13 -3.17002e-15 0 0 0 0)
(0 -3.5684e-15 0 -8.13152e-14 3.39964e-15 0 0 0 0)
(-2.71051e-14 -6.20392e-16 0 -5.42101e-14 2.7969e-15 0 0 0 0)
(0 -6.35217e-16 0 -1.0842e-13 -2.09489e-14 0 0 0 0)
(2.71051e-14 -8.00239e-15 0 -2.71051e-14 -1.48353e-14 0 0 0 0)
(2.71051e-14 -8.51486e-15 0 -5.42101e-14 1.74484e-15 0 0 0 0)
(0 -4.81619e-15 0 -5.42101e-14 9.242e-15 0 0 0 0)
(0 6.6019e-15 0 -5.42101e-14 9.05822e-15 0 0 0 0)
(0 6.13198e-15 0 -2.71051e-14 5.41364e-15 0 0 0 0)
(-5.42101e-14 -1.22059e-14 0 2.71051e-14 2.47666e-15 0 0 0 0)
(2.71051e-14 -9.69829e-15 0 -5.42101e-14 -6.11862e-15 0 0 0 0)
(2.71051e-14 3.44158e-16 0 0 -8.47327e-15 0 0 0 0)
(-5.42101e-14 -1.63404e-15 0 0 4.48029e-15 0 0 0 0)
(5.42101e-13 -2.04471e-13 0 -9.75782e-13 -1.2502e-12 0 0 0 0)
(-7.58942e-13 2.8947e-13 0 2.71051e-14 2.20929e-13 0 0 0 0)
(2.1684e-13 -9.35776e-14 0 -1.6263e-13 -8.06323e-14 0 0 0 0)
(-8.13152e-14 1.76069e-14 0 -8.13152e-14 1.8113e-14 0 0 0 0)
(0 3.85885e-15 0 -1.35525e-13 1.83891e-14 0 0 0 0)
(-5.42101e-14 1.26242e-14 0 -8.13152e-14 1.96026e-14 0 0 0 0)
(0 3.92338e-15 0 -5.42101e-14 -5.27416e-15 0 0 0 0)
(5.42101e-14 7.6538e-17 0 -2.71051e-14 -1.2097e-14 0 0 0 0)
(2.71051e-14 -1.03586e-14 0 -2.71051e-14 -2.15715e-15 0 0 0 0)
(0 -2.50189e-14 0 -5.42101e-14 -9.15564e-15 0 0 0 0)
(5.42101e-14 -3.92309e-15 0 -2.71051e-14 -2.60831e-14 0 0 0 0)
(0 2.11617e-14 0 -5.42101e-14 -1.50705e-14 0 0 0 0)
(-5.42101e-14 1.32772e-14 0 -8.13152e-14 1.80655e-15 0 0 0 0)
(0 4.32842e-15 0 -5.42101e-14 9.12709e-15 0 0 0 0)
(0 -7.12982e-16 0 -5.42101e-14 1.16363e-14 0 0 0 0)
(0 -5.33739e-15 0 -5.42101e-14 -6.28126e-15 0 0 0 0)
(5.42101e-14 -1.1723e-14 0 -2.71051e-14 -1.29133e-14 0 0 0 0)
(-5.42101e-14 -1.23647e-14 0 0 -3.23353e-15 0 0 0 0)
(5.42101e-14 1.50582e-15 0 -5.42101e-14 -1.41716e-14 0 0 0 0)
(0 -3.44993e-16 0 0 -7.91854e-15 0 0 0 0)
(-1.16552e-12 -4.15939e-13 0 2.71051e-13 1.53909e-13 0 0 0 0)
(1.19262e-12 4.07959e-13 0 1.0842e-13 -8.35636e-14 0 0 0 0)
(-2.1684e-13 -3.16056e-14 0 5.42101e-14 8.37992e-15 0 0 0 0)
(1.0842e-13 3.24862e-14 0 2.71051e-14 -1.0158e-14 0 0 0 0)
(-5.42101e-14 1.25335e-14 0 5.42101e-14 4.51468e-15 0 0 0 0)
(0 1.20007e-15 0 2.71051e-14 -7.64603e-16 0 0 0 0)
(0 1.25483e-15 0 8.13152e-14 -5.50186e-15 0 0 0 0)
(5.42101e-14 1.44747e-14 0 2.71051e-14 -1.47773e-14 0 0 0 0)
(0 -6.27082e-16 0 0 -1.42438e-14 0 0 0 0)
(0 -2.45463e-14 0 0 -4.29463e-16 0 0 0 0)
(-5.42101e-14 -6.55008e-15 0 2.71051e-14 1.62396e-14 0 0 0 0)
(5.42101e-14 1.98872e-14 0 -8.13152e-14 -8.52035e-15 0 0 0 0)
(0 1.56827e-14 0 0 -1.85161e-14 0 0 0 0)
(0 5.01352e-15 0 0 -2.12763e-14 0 0 0 0)
(2.71051e-14 -8.80645e-15 0 5.42101e-14 -2.08479e-14 0 0 0 0)
(0 -1.84175e-14 0 5.42101e-14 -8.38789e-15 0 0 0 0)
(0 -9.15819e-15 0 0 -5.56961e-15 0 0 0 0)
(0 -1.09567e-14 0 8.13152e-14 -6.56281e-15 0 0 0 0)
(0 -4.34085e-15 0 5.42101e-14 -7.46371e-15 0 0 0 0)
(5.42101e-14 2.04561e-14 0 0 -1.40028e-14 0 0 0 0)
(8.40257e-13 -1.34125e-13 0 9.21572e-13 1.7655e-12 0 0 0 0)
(-8.94467e-13 1.4394e-13 0 -1.35525e-13 -2.42739e-13 0 0 0 0)
(1.6263e-13 -2.01719e-14 0 1.6263e-13 6.61765e-14 0 0 0 0)
(-8.13152e-14 1.37417e-14 0 1.0842e-13 -1.79535e-14 0 0 0 0)
(2.71051e-14 1.32523e-14 0 1.35525e-13 5.49113e-15 0 0 0 0)
(-2.71051e-14 2.60762e-15 0 1.0842e-13 1.14504e-14 0 0 0 0)
(-2.71051e-14 -1.00893e-14 0 1.0842e-13 2.04822e-14 0 0 0 0)
(-5.42101e-14 -8.66542e-15 0 1.0842e-13 1.30173e-14 0 0 0 0)
(5.42101e-14 3.98915e-15 0 8.13152e-14 -1.83062e-15 0 0 0 0)
(0 5.46451e-15 0 5.42101e-14 1.02907e-14 0 0 0 0)
(-5.42101e-14 -1.2014e-14 0 5.42101e-14 2.37528e-14 0 0 0 0)
(-2.71051e-14 -1.3594e-14 0 1.35525e-13 5.67384e-15 0 0 0 0)
(2.71051e-14 5.212e-16 0 2.71051e-14 -6.8924e-15 0 0 0 0)
(0 1.99661e-15 0 5.42101e-14 -1.27262e-14 0 0 0 0)
(8.13152e-14 1.21754e-14 0 0 -2.42698e-14 0 0 0 0)
(2.71051e-14 9.94088e-15 0 -5.42101e-14 -1.50021e-14 0 0 0 0)
(0 -9.89796e-15 0 0 -5.31266e-15 0 0 0 0)
(0 -1.42588e-14 0 0 -1.32137e-15 0 0 0 0)
(-2.71051e-14 -5.93414e-15 0 2.71051e-14 1.35875e-14 0 0 0 0)
(-2.71051e-14 2.11215e-14 0 2.71051e-14 6.96944e-15 0 0 0 0)
(-2.98156e-13 1.10682e-12 0 -1.46367e-12 -2.05221e-12 0 0 0 0)
(3.52366e-13 -1.29136e-12 0 2.71051e-13 3.85671e-13 0 0 0 0)
(-2.71051e-14 1.9318e-13 0 -1.6263e-13 -9.23315e-14 0 0 0 0)
(2.71051e-14 -2.81992e-14 0 -5.42101e-14 1.67391e-14 0 0 0 0)
(0 4.19374e-14 0 -1.0842e-13 -9.43602e-15 0 0 0 0)
(0 1.61912e-14 0 -5.42101e-14 -7.94552e-15 0 0 0 0)
(5.42101e-14 2.82174e-15 0 -5.42101e-14 -3.39127e-15 0 0 0 0)
(-2.71051e-14 -7.8381e-15 0 0 1.20929e-14 0 0 0 0)
(-2.71051e-14 -3.35374e-15 0 0 7.702e-15 0 0 0 0)
(-2.71051e-14 1.03712e-15 0 0 1.858e-16 0 0 0 0)
(2.71051e-14 -1.11669e-14 0 5.42101e-14 -3.74071e-15 0 0 0 0)
(0 -1.0758e-14 0 5.42101e-14 1.16958e-14 0 0 0 0)
(0 -2.71726e-15 0 1.0842e-13 1.40351e-14 0 0 0 0)
(-2.71051e-14 -1.23639e-14 0 8.13152e-14 1.632e-14 0 0 0 0)
(-8.13152e-14 -1.10824e-14 0 5.42101e-14 6.1553e-15 0 0 0 0)
(-2.71051e-14 5.39617e-16 0 0 -1.33466e-14 0 0 0 0)
(8.13152e-14 4.52254e-15 0 0 -7.77759e-15 0 0 0 0)
(0 7.94347e-15 0 -2.71051e-14 1.07384e-14 0 0 0 0)
(2.71051e-14 3.94996e-15 0 -2.71051e-14 1.02873e-14 0 0 0 0)
(-2.71051e-14 -1.00791e-16 0 2.71051e-14 1.51442e-14 0 0 0 0)
(-4.06576e-13 -1.80066e-12 0 5.69206e-13 -3.48088e-13 0 0 0 0)
(4.06576e-13 2.10382e-12 0 -5.42101e-14 -4.16438e-14 0 0 0 0)
(-1.35525e-13 -3.89104e-13 0 1.35525e-13 4.07641e-14 0 0 0 0)
(0 9.66372e-14 0 -5.42101e-14 2.66903e-14 0 0 0 0)
(5.42101e-14 -1.14323e-14 0 5.42101e-14 1.40412e-15 0 0 0 0)
(0 8.65237e-15 0 0 -2.27776e-14 0 0 0 0)
(0 9.94911e-15 0 0 -2.66089e-14 0 0 0 0)
(2.71051e-14 2.42785e-15 0 -5.42101e-14 -1.92744e-14 0 0 0 0)
(5.42101e-14 -7.91792e-15 0 0 -1.38524e-14 0 0 0 0)
(2.71051e-14 -5.9782e-15 0 2.71051e-14 -1.78496e-14 0 0 0 0)
(2.71051e-14 -5.03958e-16 0 0 -2.87725e-14 0 0 0 0)
(0 4.18176e-15 0 0 -1.62277e-14 0 0 0 0)
(2.71051e-14 5.14542e-15 0 2.71051e-14 -1.66125e-15 0 0 0 0)
(0 -5.88317e-15 0 0 1.55064e-14 0 0 0 0)
(-2.71051e-14 -1.74912e-14 0 0 2.75794e-14 0 0 0 0)
(0 -3.99201e-15 0 5.42101e-14 2.47071e-14 0 0 0 0)
(-2.71051e-14 1.4187e-14 0 0 1.27407e-14 0 0 0 0)
(-2.71051e-14 3.8061e-15 0 0 8.52048e-15 0 0 0 0)
(2.71051e-14 -1.52833e-15 0 0 -3.38664e-15 0 0 0 0)
(-2.71051e-14 -4.31004e-15 0 -5.42101e-14 3.055e-15 0 0 0 0)
(2.71051e-13 7.1709e-13 0 7.86047e-13 4.57418e-12 0 0 0 0)
(-1.0842e-13 -9.02513e-13 0 -2.71051e-13 -8.73609e-13 0 0 0 0)
(-2.71051e-14 2.61514e-13 0 -2.71051e-14 2.14011e-13 0 0 0 0)
(-8.13152e-14 -6.75591e-14 0 0 -1.91094e-14 0 0 0 0)
(2.71051e-14 -7.53041e-15 0 0 1.68014e-14 0 0 0 0)
(-2.71051e-14 -1.18219e-14 0 0 2.82965e-15 0 0 0 0)
(0 6.32495e-15 0 0 -7.41966e-16 0 0 0 0)
(-2.71051e-14 4.91845e-15 0 0 -5.11239e-15 0 0 0 0)
(2.71051e-14 -1.92903e-15 0 -5.42101e-14 -2.54797e-15 0 0 0 0)
(0 -1.3883e-14 0 -2.71051e-14 -1.30981e-14 0 0 0 0)
(0 -9.54498e-15 0 -5.42101e-14 -1.36654e-14 0 0 0 0)
(0 1.63533e-14 0 -5.42101e-14 -1.55362e-15 0 0 0 0)
(0 2.90169e-14 0 -8.13152e-14 5.61752e-15 0 0 0 0)
(0 1.68767e-14 0 -1.35525e-13 5.94859e-15 0 0 0 0)
(-2.71051e-14 -1.88169e-15 0 -5.42101e-14 2.114e-14 0 0 0 0)
(-8.13152e-14 -1.4299e-14 0 0 3.18081e-14 0 0 0 0)
(0 -1.16641e-14 0 -8.13152e-14 3.62442e-15 0 0 0 0)
(5.42101e-14 -8.18387e-15 0 0 -1.50586e-14 0 0 0 0)
(0 -1.51552e-15 0 0 -4.35484e-15 0 0 0 0)
(0 2.30842e-16 0 0 -4.20323e-15 0 0 0 0)
(8.13152e-14 1.89991e-12 0 -2.1684e-13 -3.3917e-12 0 0 0 0)
(-3.52366e-13 -2.25635e-12 0 -1.35525e-13 7.39401e-13 0 0 0 0)
(1.35525e-13 4.65396e-13 0 -2.1684e-13 -1.99037e-13 0 0 0 0)
(0 -1.00572e-13 0 -8.13152e-14 2.4196e-14 0 0 0 0)
(5.42101e-14 1.05067e-14 0 -1.35525e-13 -2.02619e-14 0 0 0 0)
(0 -8.89097e-15 0 -8.13152e-14 -1.17424e-15 0 0 0 0)
(0 2.00706e-15 0 -5.42101e-14 -2.78366e-15 0 0 0 0)
(0 6.21847e-16 0 -8.13152e-14 -2.56963e-15 0 0 0 0)
(0 -1.59036e-14 0 -2.71051e-14 -8.89487e-15 0 0 0 0)
(2.71051e-14 -1.70956e-14 0 -5.42101e-14 -6.86407e-15 0 0 0 0)
(0 1.10405e-14 0 -8.13152e-14 2.41467e-14 0 0 0 0)
(-2.71051e-14 2.34646e-14 0 -8.13152e-14 2.13289e-14 0 0 0 0)
(-5.42101e-14 1.26476e-14 0 -8.13152e-14 -1.32458e-14 0 0 0 0)
(5.42101e-14 9.63926e-15 0 -2.71051e-14 -2.8708e-14 0 0 0 0)
(2.71051e-14 8.36829e-15 0 -8.13152e-14 -2.33556e-14 0 0 0 0)
(5.42101e-14 -2.15075e-14 0 -5.42101e-14 -1.45809e-14 0 0 0 0)
(-5.42101e-14 -3.26797e-14 0 8.13152e-14 -5.3314e-15 0 0 0 0)
(0 -4.17316e-15 0 0 -1.56142e-14 0 0 0 0)
(5.42101e-14 9.32705e-15 0 0 -6.53943e-15 0 0 0 0)
(0 4.24803e-15 0 0 -3.52052e-15 0 0 0 0)
(-8.13152e-14 -1.93521e-12 0 -5.42101e-14 -4.32362e-12 0 0 0 0)
(-1.0842e-13 2.29015e-12 0 2.1684e-13 8.05655e-13 0 0 0 0)
(0 -4.53691e-13 0 2.1684e-13 -1.92325e-13 0 0 0 0)
(5.42101e-14 1.11216e-13 0 1.35525e-13 1.84966e-14 0 0 0 0)
(5.42101e-14 -3.29006e-14 0 1.35525e-13 -2.37885e-14 0 0 0 0)
(0 5.65633e-15 0 8.13152e-14 -1.38267e-14 0 0 0 0)
(0 4.92956e-15 0 8.13152e-14 -1.02807e-14 0 0 0 0)
(2.71051e-14 -1.19275e-15 0 1.0842e-13 -6.73289e-15 0 0 0 0)
(0 -6.22347e-15 0 1.0842e-13 -7.36037e-15 0 0 0 0)
(-2.71051e-14 1.91585e-14 0 5.42101e-14 1.49788e-14 0 0 0 0)
(-5.42101e-14 1.8648e-14 0 2.71051e-14 2.39708e-14 0 0 0 0)
(0 -2.10391e-14 0 8.13152e-14 -2.71819e-15 0 0 0 0)
(5.42101e-14 -2.10199e-14 0 8.13152e-14 -2.53794e-14 0 0 0 0)
(2.71051e-14 6.76692e-15 0 1.0842e-13 -2.04525e-14 0 0 0 0)
(0 1.22453e-14 0 2.71051e-14 -2.53809e-14 0 0 0 0)
(5.42101e-14 3.72513e-15 0 5.42101e-14 -3.21332e-14 0 0 0 0)
(0 -1.26974e-14 0 0 -5.66595e-15 0 0 0 0)
(2.71051e-14 -9.3919e-15 0 0 1.24727e-15 0 0 0 0)
(-2.71051e-14 1.05782e-14 0 0 -1.55968e-15 0 0 0 0)
(0 1.02908e-14 0 0 7.11072e-16 0 0 0 0)
(2.71051e-13 -1.61805e-12 0 -2.43945e-13 4.36708e-12 0 0 0 0)
(-1.35525e-13 1.87494e-12 0 5.42101e-14 -8.1382e-13 0 0 0 0)
(2.71051e-14 -3.21763e-13 0 -2.71051e-14 2.01992e-13 0 0 0 0)
(-2.71051e-14 6.79644e-14 0 0 -3.83656e-14 0 0 0 0)
(-2.71051e-14 -2.18165e-14 0 0 2.28116e-14 0 0 0 0)
(0 4.61682e-15 0 0 1.63515e-14 0 0 0 0)
(-2.71051e-14 9.10083e-15 0 -2.71051e-14 1.25384e-14 0 0 0 0)
(0 3.5422e-15 0 -2.71051e-14 2.32112e-15 0 0 0 0)
(-2.71051e-14 5.80809e-15 0 -2.71051e-14 1.0189e-14 0 0 0 0)
(0 1.42356e-14 0 0 2.73649e-15 0 0 0 0)
(2.71051e-14 -6.6565e-15 0 5.42101e-14 -2.32052e-14 0 0 0 0)
(2.71051e-14 -2.58856e-14 0 0 -9.25497e-15 0 0 0 0)
(-5.42101e-14 -5.08664e-15 0 0 2.37195e-14 0 0 0 0)
(0 9.63771e-15 0 -2.71051e-14 1.68516e-14 0 0 0 0)
(0 -3.31243e-15 0 5.42101e-14 7.31492e-15 0 0 0 0)
(-2.71051e-14 -1.79255e-15 0 0 7.91871e-15 0 0 0 0)
(-2.71051e-14 7.0076e-16 0 0 5.38233e-15 0 0 0 0)
(0 -6.68957e-17 0 0 1.99153e-14 0 0 0 0)
(0 8.79085e-15 0 0 1.48411e-14 0 0 0 0)
(0 5.09664e-15 0 0 5.46297e-16 0 0 0 0)
)
;

boundaryField
{
    movingWall
    {
        type            extrapolatedCalculated;
        value           nonuniform List<tensor> 
20
(
(2.71051e-13 -1.61805e-12 0 -9.76996e-13 7.81127e-12 0 0 0 0)
(-1.35525e-13 1.87494e-12 0 -8.88178e-14 -1.33906e-12 0 0 0 0)
(2.71051e-14 -3.21763e-13 0 -3.9968e-13 3.11515e-13 0 0 0 0)
(-2.71051e-14 6.79644e-14 0 -2.22045e-13 -5.20075e-14 0 0 0 0)
(-2.71051e-14 -2.18165e-14 0 -2.66454e-13 3.96572e-14 0 0 0 0)
(0 4.61682e-15 0 -2.22045e-13 3.52585e-14 0 0 0 0)
(-2.71051e-14 9.10083e-15 0 -1.77636e-13 2.11899e-14 0 0 0 0)
(0 3.5422e-15 0 -2.22045e-13 -1.14485e-15 0 0 0 0)
(-2.71051e-14 5.80809e-15 0 -1.77636e-13 7.0211e-15 0 0 0 0)
(0 1.42356e-14 0 -8.88178e-14 -2.43772e-14 0 0 0 0)
(2.71051e-14 -6.6565e-15 0 -4.44089e-14 -4.99212e-14 0 0 0 0)
(2.71051e-14 -2.58856e-14 0 -2.66454e-13 2.24879e-15 0 0 0 0)
(-5.42101e-14 -5.08664e-15 0 -1.77636e-13 5.3621e-14 0 0 0 0)
(0 9.63771e-15 0 -1.33227e-13 2.25953e-14 0 0 0 0)
(0 -3.31243e-15 0 -4.44089e-14 1.50702e-14 0 0 0 0)
(-2.71051e-14 -1.79255e-15 0 -8.88178e-14 3.58451e-14 0 0 0 0)
(-2.71051e-14 7.0076e-16 0 0 2.22404e-14 0 0 0 0)
(0 -6.68957e-17 0 0 3.3042e-14 0 0 0 0)
(0 8.79085e-15 0 0 2.25079e-14 0 0 0 0)
(0 5.09664e-15 0 0 -2.12138e-15 0 0 0 0)
)
;
    }
    fixedWalls
    {
        type            extrapolatedCalculated;
        value           nonuniform List<tensor> 
60
(
(8.88178e-14 1.24388e-11 0 -3.52366e-13 3.87213e-12 0 0 0 0)
(-1.5099e-12 3.04976e-12 0 0 -4.81673e-12 0 0 0 0)
(1.33227e-13 -6.82816e-12 0 0 -1.81426e-12 0 0 0 0)
(-1.59872e-12 -4.20728e-12 0 8.13152e-13 3.8772e-12 0 0 0 0)
(3.4639e-12 8.68063e-12 0 -5.96311e-13 -1.03029e-12 0 0 0 0)
(-3.9968e-12 -8.32845e-12 0 -1.35525e-13 -1.99531e-12 0 0 0 0)
(3.01981e-12 6.99403e-13 0 -8.13152e-14 5.42714e-12 0 0 0 0)
(-4.35207e-12 1.33801e-11 0 9.21572e-13 -4.56032e-12 0 0 0 0)
(6.70575e-12 -1.75419e-11 0 4.60786e-13 -2.3128e-12 0 0 0 0)
(-2.66454e-12 4.12887e-12 0 -2.05998e-12 5.19569e-12 0 0 0 0)
(-1.42109e-12 3.24089e-12 0 1.43657e-12 -1.3373e-12 0 0 0 0)
(3.06422e-12 -1.22033e-12 0 -9.75782e-13 -1.2502e-12 0 0 0 0)
(-5.41789e-12 -1.7599e-12 0 2.71051e-13 1.53909e-13 0 0 0 0)
(4.08562e-12 -6.04692e-13 0 9.21572e-13 1.7655e-12 0 0 0 0)
(-1.59872e-12 5.3021e-12 0 -1.46367e-12 -2.05221e-12 0 0 0 0)
(-1.86517e-12 -8.81352e-12 0 5.69206e-13 -3.48088e-13 0 0 0 0)
(8.88178e-13 3.90975e-12 0 7.86047e-13 4.57418e-12 0 0 0 0)
(1.19904e-12 9.4832e-12 0 -2.1684e-13 -3.3917e-12 0 0 0 0)
(0 -9.65706e-12 0 -5.42101e-14 -4.32362e-12 0 0 0 0)
(9.76996e-13 -7.81127e-12 0 -2.43945e-13 4.36708e-12 0 0 0 0)
(0 -2.42406e-14 0 0 7.57511e-15 0 0 0 0)
(8.88178e-14 -6.05983e-15 0 0 -1.66042e-14 0 0 0 0)
(0 4.21764e-14 0 2.71051e-14 -8.6693e-15 0 0 0 0)
(-8.88178e-14 2.86174e-14 0 2.71051e-14 1.13965e-14 0 0 0 0)
(-4.44089e-14 -3.40976e-15 0 -2.71051e-14 1.3776e-14 0 0 0 0)
(-4.44089e-14 -2.64866e-14 0 0 8.15893e-15 0 0 0 0)
(-8.88178e-14 -3.60455e-14 0 0 1.4051e-15 0 0 0 0)
(0 -3.2107e-14 0 -2.71051e-14 -4.35692e-15 0 0 0 0)
(0 -1.86178e-14 0 0 -9.62596e-15 0 0 0 0)
(0 6.3968e-15 0 0 -4.31647e-15 0 0 0 0)
(-4.44089e-14 -1.35188e-15 0 0 4.48029e-15 0 0 0 0)
(0 -1.15244e-14 0 0 -7.91854e-15 0 0 0 0)
(8.88178e-14 3.03223e-14 0 0 -1.40028e-14 0 0 0 0)
(-4.44089e-14 4.44867e-14 0 2.71051e-14 6.96944e-15 0 0 0 0)
(-8.88178e-14 2.44452e-15 0 2.71051e-14 1.51442e-14 0 0 0 0)
(-4.44089e-14 -1.609e-14 0 -5.42101e-14 3.055e-15 0 0 0 0)
(0 -9.77549e-15 0 0 -4.20323e-15 0 0 0 0)
(0 7.22906e-16 0 0 -3.52052e-15 0 0 0 0)
(0 4.30657e-15 0 0 7.11072e-16 0 0 0 0)
(0 -2.12138e-15 0 0 5.46297e-16 0 0 0 0)
(8.13152e-14 2.47092e-12 0 8.88178e-14 1.24388e-11 0 0 0 0)
(8.13152e-14 -2.97497e-12 0 2.66454e-13 -2.55509e-12 0 0 0 0)
(0 6.05872e-13 0 3.9968e-13 5.38861e-13 0 0 0 0)
(-2.71051e-14 -1.26345e-13 0 2.22045e-13 -1.31605e-13 0 0 0 0)
(5.42101e-14 3.81219e-14 0 3.10862e-13 3.34798e-14 0 0 0 0)
(-2.71051e-14 -2.72603e-16 0 3.55271e-13 2.08823e-14 0 0 0 0)
(-2.71051e-14 7.62944e-15 0 2.66454e-13 3.23894e-14 0 0 0 0)
(0 1.00909e-14 0 2.66454e-13 5.14e-14 0 0 0 0)
(-2.71051e-14 -4.87324e-15 0 2.66454e-13 7.27532e-14 0 0 0 0)
(-5.42101e-14 -1.9812e-14 0 1.33227e-13 3.19071e-14 0 0 0 0)
(2.71051e-14 -6.20762e-15 0 1.77636e-13 -6.49486e-15 0 0 0 0)
(0 1.19262e-14 0 1.77636e-13 7.07658e-15 0 0 0 0)
(-2.71051e-14 3.18068e-15 0 1.77636e-13 4.12101e-14 0 0 0 0)
(0 -6.80745e-15 0 8.88178e-14 1.97993e-14 0 0 0 0)
(0 -2.58338e-15 0 8.88178e-14 1.39803e-14 0 0 0 0)
(-2.71051e-14 -4.48051e-16 0 4.44089e-14 9.46578e-15 0 0 0 0)
(-2.71051e-14 -5.15443e-15 0 0 1.21881e-14 0 0 0 0)
(2.71051e-14 -6.6692e-16 0 4.44089e-14 -1.11519e-14 0 0 0 0)
(-2.71051e-14 8.84814e-15 0 4.44089e-14 9.52044e-15 0 0 0 0)
(0 -8.44026e-15 0 0 2.42406e-14 0 0 0 0)
)
;
    }
    frontAndBack
    {
        type            empty;
    }
}


// ************************************************************************* //
