/*--------------------------------*- C++ -*----------------------------------*\
| =========                 |                                                 |
| \\      /  F ield         | OpenFOAM: The Open Source CFD Toolbox           |
|  \\    /   O peration     | Version:  2312                                  |
|   \\  /    A nd           | Website:  www.openfoam.com                      |
|    \\/     M anipulation  |                                                 |
\*---------------------------------------------------------------------------*/
FoamFile
{
    version     2.0;
    format      ascii;
    arch        "LSB;label=32;scalar=64";
    class       volScalarField;
    location    "8";
    object      initialResidual:p;
}
// * * * * * * * * * * * * * * * * * * * * * * * * * * * * * * * * * * * * * //

dimensions      [0 0 0 0 0 0 0];

internalField   nonuniform List<scalar> 
400
(
6.09863e-20
-4.59592e-20
1.05346e-20
1.04962e-20
3.85346e-21
-9.67894e-22
-1.30444e-20
3.57322e-21
2.81764e-21
6.99751e-21
7.65341e-21
9.73434e-21
-7.41796e-21
-1.57212e-20
-9.50831e-22
-2.10602e-21
2.66556e-21
2.51538e-21
5.90525e-21
-2.03288e-20
6.7764e-21
1.46532e-21
-6.09226e-21
1.35271e-20
-2.79523e-20
-1.5612e-20
1.29737e-21
1.84713e-20
1.22542e-20
9.31201e-21
-2.00165e-20
-1.38517e-20
4.26599e-21
-5.14463e-21
-7.98211e-21
-3.07271e-21
9.23602e-21
-8.53546e-21
1.26789e-20
1.24421e-26
-6.77631e-21
-1.64599e-21
6.38945e-21
2.45606e-20
-1.65145e-20
1.7372e-21
2.41763e-21
-1.11438e-20
8.98361e-21
-3.37903e-20
4.96721e-21
4.86082e-21
-1.78624e-21
2.63962e-22
-1.61576e-21
-1.05326e-20
1.03461e-20
-4.96483e-21
-3.94438e-21
5.53385e-27
-2.71051e-20
1.01772e-20
6.50715e-22
-1.27173e-20
1.38743e-21
9.2239e-22
1.32703e-20
-7.14089e-21
7.04014e-21
-7.58537e-21
5.81282e-21
-7.17415e-21
-1.28909e-20
6.59633e-21
3.88077e-21
-2.9058e-21
-4.1128e-21
1.75332e-20
1.00318e-20
-6.77625e-21
2.03287e-20
-5.14009e-21
5.35273e-21
-3.71446e-21
-1.4605e-21
-8.57105e-22
-6.31844e-21
6.04016e-21
-6.38652e-21
-9.54103e-22
-3.9089e-21
7.44492e-22
-5.34268e-21
-1.24716e-20
-6.27813e-21
7.93592e-21
-2.64753e-21
-1.68405e-20
2.15186e-21
6.77627e-21
-1.35525e-20
1.18642e-20
-6.66866e-21
-4.56539e-22
1.52459e-22
4.57158e-21
-1.75574e-20
-8.09132e-21
5.47326e-21
-3.08403e-21
-6.16773e-21
7.12292e-21
-1.34292e-20
-1.36162e-20
-3.08908e-21
7.04041e-22
3.23631e-21
4.63208e-21
3.50669e-21
1.70651e-26
1.35524e-20
-3.69046e-21
-9.00289e-21
1.99181e-21
-2.73612e-20
-5.46977e-22
-2.58888e-21
-2.25648e-21
3.96199e-21
-2.82272e-21
2.60965e-21
-1.14777e-21
7.52471e-21
-9.79907e-21
-1.11342e-20
-4.10465e-22
-4.81493e-21
-4.56541e-21
4.74644e-21
6.77626e-21
6.77635e-21
-5.79943e-21
-1.9804e-20
1.89792e-20
5.74676e-21
-2.38853e-21
-1.70504e-21
-2.45905e-21
4.06478e-21
-9.35823e-21
-1.13811e-20
4.50776e-21
-7.43871e-21
-1.33852e-20
4.56233e-21
1.88975e-20
8.9086e-21
-3.58959e-21
-1.51796e-20
6.77627e-21
-6.77636e-21
-2.12855e-22
8.45122e-21
-4.11409e-21
-7.78956e-21
2.75268e-21
-1.07398e-20
-5.53647e-21
-6.61584e-21
1.07808e-21
7.13123e-21
-8.1211e-21
3.10835e-21
7.17179e-23
9.07059e-21
7.94116e-21
-6.71339e-21
-9.63135e-21
1.95596e-21
-8.21802e-27
2.03288e-20
-7.55525e-21
-5.6974e-21
-2.02992e-20
3.2084e-20
3.92703e-21
-1.03031e-20
4.0955e-21
1.00629e-20
8.46633e-21
-6.21049e-21
-1.01268e-20
9.00311e-21
9.12934e-21
4.14307e-21
-6.4632e-21
1.81775e-20
-1.01758e-20
3.05786e-20
-2.03288e-20
-5.87596e-26
-7.46913e-21
-3.89324e-21
1.3555e-20
-1.51612e-21
-9.3263e-22
1.37606e-20
1.08397e-20
-2.7471e-21
1.34432e-21
1.63645e-20
-1.79074e-20
4.37687e-21
4.81291e-21
1.37205e-20
2.9883e-21
-2.36283e-20
1.93897e-20
3.20703e-21
6.77626e-21
-6.77626e-21
2.68835e-20
3.89849e-21
-8.33211e-21
8.83402e-22
7.37887e-21
-1.58419e-20
1.23228e-20
-1.61541e-21
-4.64121e-22
-6.4647e-21
-1.35584e-20
8.00664e-21
-6.66345e-22
1.44767e-20
-2.14182e-21
6.34446e-21
-2.83793e-20
1.08364e-20
-3.10191e-27
1.35525e-20
-2.89947e-20
-9.67709e-22
1.59045e-20
1.98683e-21
1.23843e-21
9.87149e-21
2.21496e-20
2.18518e-21
-1.185e-20
2.48445e-21
8.8963e-21
-1.49098e-20
1.10616e-20
4.03851e-21
1.27538e-20
-5.00627e-21
-2.58621e-20
-8.96662e-21
2.03288e-20
-1.35526e-20
7.79131e-21
-1.09675e-20
-8.73939e-21
9.09216e-21
-9.91872e-21
8.64119e-21
-1.5822e-20
3.99646e-21
1.20499e-20
3.77481e-21
-4.83827e-21
5.09731e-21
-6.79619e-21
-1.42507e-20
-4.35579e-22
5.55455e-21
4.93369e-21
8.2417e-21
-5.22768e-27
3.38813e-20
-1.08802e-20
-1.29214e-20
-1.17093e-20
-3.39345e-22
4.30151e-21
3.05319e-21
-1.31655e-20
1.49322e-20
1.56032e-20
2.70819e-21
-5.42769e-21
-5.33987e-22
8.45192e-21
-2.21289e-20
4.68253e-21
1.34959e-20
1.07359e-20
3.57725e-21
-6.77627e-21
-2.04202e-26
1.30586e-20
4.77226e-21
1.20246e-20
5.10315e-21
-2.28558e-20
-7.33841e-21
4.86321e-22
1.2964e-20
-8.56484e-22
-8.24538e-21
6.50479e-21
6.49957e-21
-9.64584e-22
-1.57758e-20
-6.41029e-22
-4.50917e-21
3.94418e-21
5.69306e-22
-6.77627e-21
6.77615e-21
1.01049e-20
-1.05239e-20
3.40063e-21
5.90313e-21
-2.80179e-21
-3.41176e-21
-8.46833e-21
-3.36896e-21
-4.25311e-21
-1.81937e-22
-7.68537e-21
-2.77131e-22
-5.74263e-22
-5.44243e-21
7.37992e-21
-1.65214e-21
-8.10468e-21
-1.1308e-20
1.35525e-20
-2.03288e-20
6.19956e-21
2.41794e-20
3.47538e-21
2.08154e-21
-2.79627e-21
-4.00695e-21
-6.1382e-21
1.21356e-21
-5.26275e-21
-1.72291e-20
1.41729e-20
8.60652e-21
5.44736e-22
7.60189e-22
4.79372e-22
-1.3765e-20
1.92514e-20
-1.2392e-20
6.77625e-21
2.18389e-27
-1.3999e-20
5.21127e-21
1.70339e-20
-1.67711e-20
-3.08554e-21
-9.30654e-21
1.54937e-20
5.56247e-21
4.86966e-21
5.90928e-21
-6.92838e-22
-3.64689e-21
4.24432e-22
6.64663e-21
-7.36993e-21
-2.30607e-22
2.93187e-21
-6.21363e-21
-1.09759e-26
-1.35526e-20
2.03288e-20
6.77624e-21
-1.35525e-20
-1.49725e-26
-1.48196e-26
2.03288e-20
-1.21553e-26
-2.03288e-20
-6.77628e-21
1.35525e-20
6.77625e-21
6.77626e-21
-1.35525e-20
-1.05686e-26
6.77625e-21
-6.53778e-27
-1.35525e-20
-1.35525e-20
1.35525e-20
)
;

boundaryField
{
    movingWall
    {
        type            zeroGradient;
    }
    fixedWalls
    {
        type            zeroGradient;
    }
    frontAndBack
    {
        type            empty;
    }
}


// ************************************************************************* //
