/*--------------------------------*- C++ -*----------------------------------*\
| =========                 |                                                 |
| \\      /  F ield         | OpenFOAM: The Open Source CFD Toolbox           |
|  \\    /   O peration     | Version:  2312                                  |
|   \\  /    A nd           | Website:  www.openfoam.com                      |
|    \\/     M anipulation  |                                                 |
\*---------------------------------------------------------------------------*/
FoamFile
{
    version     2.0;
    format      ascii;
    arch        "LSB;label=32;scalar=64";
    class       volScalarField;
    location    "8";
    object      initialResidual:k;
}
// * * * * * * * * * * * * * * * * * * * * * * * * * * * * * * * * * * * * * //

dimensions      [0 0 0 0 0 0 0];

internalField   nonuniform List<scalar> 
400
(
-3.24952e-13
-3.25174e-13
-3.24771e-13
-3.25293e-13
-3.24626e-13
-3.25511e-13
-3.2441e-13
-3.25645e-13
-3.24364e-13
-3.25614e-13
-3.24465e-13
-3.25451e-13
-3.24656e-13
-3.2526e-13
-3.24861e-13
-3.25059e-13
-3.24993e-13
-3.2501e-13
-3.25006e-13
-3.25006e-13
-3.3992e-13
-3.39577e-13
-3.40089e-13
-3.3976e-13
-3.40055e-13
-3.39615e-13
-3.4007e-13
-3.39627e-13
-3.3987e-13
-3.39738e-13
-3.39754e-13
-3.39774e-13
-3.39758e-13
-3.39755e-13
-3.39757e-13
-3.39767e-13
-3.39757e-13
-3.39737e-13
-3.39761e-13
-3.39739e-13
-3.61872e-13
-3.61968e-13
-3.61668e-13
-3.61385e-13
-3.62163e-13
-3.61537e-13
-3.61907e-13
-3.61654e-13
-3.6202e-13
-3.6139e-13
-3.61934e-13
-3.61459e-13
-3.61721e-13
-3.61649e-13
-3.6166e-13
-3.61692e-13
-3.6167e-13
-3.61652e-13
-3.61681e-13
-3.61657e-13
-3.82739e-13
-3.81668e-13
-3.83339e-13
-3.82578e-13
-3.8289e-13
-3.82415e-13
-3.82848e-13
-3.82458e-13
-3.82669e-13
-3.82495e-13
-3.83046e-13
-3.82132e-13
-3.83321e-13
-3.81863e-13
-3.83055e-13
-3.8204e-13
-3.82681e-13
-3.82372e-13
-3.82517e-13
-3.82526e-13
-3.98453e-13
-3.98737e-13
-3.98259e-13
-3.97881e-13
-3.9866e-13
-3.98024e-13
-3.98478e-13
-3.98082e-13
-3.98202e-13
-3.98164e-13
-3.98812e-13
-3.97751e-13
-3.98745e-13
-3.97791e-13
-3.98449e-13
-3.98016e-13
-3.98255e-13
-3.98133e-13
-3.98208e-13
-3.98195e-13
-4.08572e-13
-4.07468e-13
-4.09097e-13
-4.08906e-13
-4.08404e-13
-4.0883e-13
-4.08047e-13
-4.08835e-13
-4.0804e-13
-4.08986e-13
-4.07916e-13
-4.08885e-13
-4.07964e-13
-4.08649e-13
-4.08145e-13
-4.08299e-13
-4.08388e-13
-4.08359e-13
-4.08377e-13
-4.08365e-13
-4.14438e-13
-4.16144e-13
-4.13819e-13
-4.13833e-13
-4.14992e-13
-4.14328e-13
-4.14719e-13
-4.14416e-13
-4.14945e-13
-4.14089e-13
-4.15114e-13
-4.13903e-13
-4.15364e-13
-4.13635e-13
-4.15274e-13
-4.13742e-13
-4.1476e-13
-4.14188e-13
-4.14425e-13
-4.14453e-13
-4.18245e-13
-4.18792e-13
-4.17942e-13
-4.17713e-13
-4.18586e-13
-4.17898e-13
-4.18363e-13
-4.1788e-13
-4.19272e-13
-4.16952e-13
-4.1944e-13
-4.16843e-13
-4.18828e-13
-4.17354e-13
-4.18368e-13
-4.17767e-13
-4.18129e-13
-4.17955e-13
-4.18053e-13
-4.18044e-13
-4.20466e-13
-4.20052e-13
-4.20687e-13
-4.20711e-13
-4.20357e-13
-4.2016e-13
-4.20516e-13
-4.20263e-13
-4.20444e-13
-4.2034e-13
-4.20426e-13
-4.20309e-13
-4.20406e-13
-4.20346e-13
-4.20302e-13
-4.20267e-13
-4.20315e-13
-4.20289e-13
-4.20303e-13
-4.20295e-13
-4.22166e-13
-4.22294e-13
-4.22069e-13
-4.21721e-13
-4.22347e-13
-4.21728e-13
-4.2224e-13
-4.21677e-13
-4.22616e-13
-4.21337e-13
-4.22814e-13
-4.21204e-13
-4.22357e-13
-4.21559e-13
-4.22099e-13
-4.21793e-13
-4.21964e-13
-4.21858e-13
-4.21928e-13
-4.21909e-13
-4.23539e-13
-4.22525e-13
-4.24125e-13
-4.23265e-13
-4.23756e-13
-4.23131e-13
-4.23598e-13
-4.23242e-13
-4.23471e-13
-4.23343e-13
-4.23225e-13
-4.23336e-13
-4.23265e-13
-4.23268e-13
-4.23336e-13
-4.23256e-13
-4.23349e-13
-4.23358e-13
-4.23247e-13
-4.23274e-13
-4.24819e-13
-4.24353e-13
-4.25242e-13
-4.24619e-13
-4.24994e-13
-4.24394e-13
-4.25105e-13
-4.24342e-13
-4.25043e-13
-4.24345e-13
-4.24761e-13
-4.24506e-13
-4.24703e-13
-4.2456e-13
-4.2465e-13
-4.24617e-13
-4.24637e-13
-4.24573e-13
-4.2462e-13
-4.24594e-13
-4.2611e-13
-4.26872e-13
-4.25827e-13
-4.2562e-13
-4.26504e-13
-4.2577e-13
-4.26284e-13
-4.25904e-13
-4.26486e-13
-4.25627e-13
-4.26655e-13
-4.25489e-13
-4.26684e-13
-4.2533e-13
-4.26688e-13
-4.25356e-13
-4.2628e-13
-4.25734e-13
-4.25958e-13
-4.25983e-13
-4.27742e-13
-4.28195e-13
-4.27367e-13
-4.27233e-13
-4.2799e-13
-4.27374e-13
-4.27829e-13
-4.27422e-13
-4.27482e-13
-4.2755e-13
-4.27619e-13
-4.27499e-13
-4.27663e-13
-4.27538e-13
-4.27619e-13
-4.27527e-13
-4.27546e-13
-4.27488e-13
-4.27532e-13
-4.27512e-13
-4.2924e-13
-4.30904e-13
-4.28654e-13
-4.28558e-13
-4.29809e-13
-4.29091e-13
-4.29528e-13
-4.29186e-13
-4.30029e-13
-4.2856e-13
-4.3024e-13
-4.28316e-13
-4.3046e-13
-4.28087e-13
-4.30266e-13
-4.28301e-13
-4.29607e-13
-4.28887e-13
-4.29184e-13
-4.29224e-13
-4.31365e-13
-4.31277e-13
-4.31393e-13
-4.31119e-13
-4.31446e-13
-4.31051e-13
-4.31515e-13
-4.30958e-13
-4.31119e-13
-4.31131e-13
-4.31192e-13
-4.31107e-13
-4.31231e-13
-4.3109e-13
-4.31221e-13
-4.31101e-13
-4.31189e-13
-4.31213e-13
-4.31103e-13
-4.31123e-13
-4.33411e-13
-4.33254e-13
-4.334e-13
-4.3289e-13
-4.33753e-13
-4.33023e-13
-4.33405e-13
-4.33074e-13
-4.33738e-13
-4.32661e-13
-4.34107e-13
-4.32352e-13
-4.33618e-13
-4.32752e-13
-4.33259e-13
-4.33054e-13
-4.33182e-13
-4.33093e-13
-4.33158e-13
-4.33137e-13
-4.35359e-13
-4.353e-13
-4.35335e-13
-4.35014e-13
-4.35505e-13
-4.3495e-13
-4.35405e-13
-4.34821e-13
-4.35316e-13
-4.35027e-13
-4.35244e-13
-4.35058e-13
-4.35113e-13
-4.35146e-13
-4.35119e-13
-4.35136e-13
-4.35112e-13
-4.35075e-13
-4.35115e-13
-4.35085e-13
-4.36975e-13
-4.36285e-13
-4.37157e-13
-4.36606e-13
-4.37201e-13
-4.3649e-13
-4.3708e-13
-4.36698e-13
-4.36651e-13
-4.36778e-13
-4.36669e-13
-4.36689e-13
-4.36739e-13
-4.36644e-13
-4.36746e-13
-4.36644e-13
-4.36753e-13
-4.36746e-13
-4.36662e-13
-4.36672e-13
-4.37714e-13
-4.37451e-13
-4.37664e-13
-4.37485e-13
-4.37621e-13
-4.37544e-13
-4.37564e-13
-4.3758e-13
-4.37571e-13
-4.37577e-13
-4.37576e-13
-4.37578e-13
-4.37587e-13
-4.37566e-13
-4.37583e-13
-4.37566e-13
-4.37577e-13
-4.37572e-13
-4.37574e-13
-4.37574e-13
)
;

boundaryField
{
    movingWall
    {
        type            zeroGradient;
    }
    fixedWalls
    {
        type            zeroGradient;
    }
    frontAndBack
    {
        type            empty;
    }
}


// ************************************************************************* //
