/*--------------------------------*- C++ -*----------------------------------*\
| =========                 |                                                 |
| \\      /  F ield         | OpenFOAM: The Open Source CFD Toolbox           |
|  \\    /   O peration     | Version:  2312                                  |
|   \\  /    A nd           | Website:  www.openfoam.com                      |
|    \\/     M anipulation  |                                                 |
\*---------------------------------------------------------------------------*/
FoamFile
{
    version     2.0;
    format      ascii;
    arch        "LSB;label=32;scalar=64";
    class       volScalarField;
    location    "8";
    object      initialResidual:Uy;
}
// * * * * * * * * * * * * * * * * * * * * * * * * * * * * * * * * * * * * * //

dimensions      [0 0 0 0 0 0 0];

internalField   nonuniform List<scalar> 
400
(
2.49625e-20
-1.32818e-20
3.53911e-21
4.01446e-21
7.75166e-21
-1.7668e-21
-1.80173e-21
4.03805e-21
1.46627e-21
-1.13851e-21
-6.48834e-22
4.45251e-21
1.86202e-21
-2.3995e-21
-6.2781e-22
1.23897e-21
-3.44728e-21
-5.30749e-21
-7.87027e-22
6.90019e-22
2.74213e-20
-1.16031e-20
3.0036e-21
5.8778e-21
5.09743e-21
-5.91589e-21
-3.16876e-21
6.12962e-21
8.93375e-21
1.48605e-21
8.13561e-22
6.05808e-21
-1.35778e-21
-7.50671e-21
1.36929e-21
-1.37052e-21
-5.08948e-21
-5.72867e-21
-2.09796e-21
-2.0271e-22
-7.12185e-21
1.3599e-20
6.43159e-22
-4.68061e-21
-6.22831e-21
-1.40717e-21
4.70898e-22
2.86052e-21
8.32536e-21
4.2737e-21
-7.24571e-22
-1.35967e-21
-3.98712e-21
-4.1369e-21
1.72336e-22
-3.24486e-21
-3.28468e-21
-3.99618e-21
-4.37253e-21
-1.28774e-21
-2.68639e-21
1.19001e-20
3.81727e-22
-2.66724e-21
-2.74485e-21
1.96825e-21
2.26467e-21
1.39396e-21
4.09741e-22
-3.292e-22
-2.29842e-21
-1.62201e-21
2.32525e-21
4.90039e-21
1.65683e-23
-2.23476e-21
-5.57411e-21
-4.63468e-21
-5.96379e-21
-2.63875e-21
2.25942e-20
-9.21536e-21
6.71811e-21
6.01938e-21
8.12541e-22
7.38092e-22
3.07201e-22
-2.98692e-21
1.371e-21
1.38074e-21
-7.12839e-23
-2.98405e-21
-2.19907e-21
-1.76343e-21
-4.08204e-21
-5.65072e-21
-2.84977e-21
-1.53306e-21
-7.08109e-21
-3.14296e-21
-3.45672e-20
1.56561e-20
3.46526e-21
4.60846e-21
-1.2353e-21
-1.86e-21
-2.73507e-21
-3.59923e-22
2.83616e-21
2.35337e-21
-4.66766e-21
-9.07576e-21
-8.04147e-21
-4.84876e-21
-1.21297e-20
-8.95342e-21
-2.37143e-21
-7.55705e-22
-6.99116e-21
-2.28385e-21
5.2385e-21
-2.29363e-21
3.45252e-22
-5.19808e-21
3.43171e-21
-9.15016e-22
-5.97056e-21
-2.28744e-21
-2.94138e-21
-4.16574e-21
-5.32027e-21
-5.76613e-21
8.89639e-22
-4.94915e-21
-1.50124e-20
-8.64372e-21
-5.79641e-21
-4.78079e-21
-4.61529e-21
-1.59891e-21
-1.22051e-20
-4.2732e-21
-5.0237e-21
-7.23604e-21
9.72193e-22
1.69752e-21
-4.75781e-22
-1.98167e-21
-7.00739e-22
2.16605e-21
9.93771e-22
-7.25685e-21
-1.10781e-20
-1.63665e-20
-1.36553e-20
-1.02124e-20
-4.88278e-21
-6.06355e-21
-3.08625e-21
-2.93609e-22
-4.5222e-20
2.23331e-20
-1.05911e-20
4.45827e-23
-7.82468e-21
-3.42164e-21
-2.54358e-21
-4.0897e-21
-6.92996e-21
-2.14835e-21
-1.11955e-21
-7.30344e-21
-1.82909e-20
-1.16018e-20
-4.96247e-21
-1.06214e-20
-8.64079e-21
-3.73576e-21
-4.64298e-21
6.8843e-23
2.86166e-20
-1.96749e-20
-4.44028e-21
-6.44803e-21
-4.93977e-21
-5.64263e-21
-3.6697e-21
-2.39797e-21
-6.6076e-21
-7.98173e-21
-6.93137e-21
-1.55839e-21
-7.19588e-21
-7.07807e-21
-4.25148e-21
-1.4637e-21
-7.51749e-21
-2.11131e-21
-7.81168e-21
-3.26546e-21
-2.96518e-20
6.02261e-21
-6.32181e-21
-6.15712e-21
-3.55585e-21
-9.37674e-22
1.09695e-21
-1.94182e-21
1.01606e-21
-1.12659e-21
-6.17533e-21
-5.82218e-21
-4.80657e-21
-7.96413e-21
-4.4498e-21
6.32802e-21
4.16377e-21
7.97475e-23
-5.53131e-21
-4.75471e-21
5.28446e-21
-1.59682e-21
-6.65067e-21
-1.78641e-21
4.27623e-22
1.02881e-21
-2.84845e-21
-3.35048e-21
3.19403e-21
-9.36998e-21
-9.45542e-21
-2.76129e-21
9.27667e-22
-2.608e-21
-3.89389e-22
-1.00562e-21
8.22423e-21
1.05551e-21
-5.01342e-21
-2.72417e-21
-2.62418e-20
1.67131e-21
-3.34898e-21
2.16952e-21
3.02098e-21
-6.85714e-22
1.98773e-21
7.19748e-21
7.3639e-22
-1.17623e-20
-9.52465e-21
-2.63253e-21
-3.60064e-22
3.93081e-21
7.33916e-21
-2.77928e-21
-3.463e-21
-4.94918e-21
-4.57836e-21
-1.81563e-21
-1.83038e-20
4.20769e-22
-4.18914e-21
-1.71489e-21
2.8198e-23
3.06183e-21
5.8035e-21
8.60523e-22
-8.34589e-21
8.9719e-22
-4.79211e-22
-9.39386e-21
-6.69457e-21
1.84981e-21
6.43999e-21
4.84142e-21
-5.8198e-21
-8.98879e-21
3.42438e-23
2.42449e-22
2.90026e-20
-1.82965e-20
-8.88553e-21
-1.01506e-20
8.17981e-22
8.59307e-21
5.1251e-21
-1.56103e-21
2.53512e-22
5.6823e-21
-3.19136e-21
-1.0527e-20
-2.68877e-21
2.58407e-21
-2.5881e-21
-3.35117e-21
-3.03871e-21
9.76256e-22
5.87245e-21
1.59136e-21
-3.59165e-20
1.40616e-20
-6.45556e-21
-6.1505e-21
-3.25364e-21
4.01314e-22
3.16679e-21
5.1783e-22
1.53091e-21
3.37895e-21
-1.56221e-21
-5.09935e-21
-1.17388e-21
3.05621e-21
-4.85983e-21
-4.52782e-21
2.2178e-21
7.13828e-21
2.69393e-21
1.30288e-22
-2.87784e-20
1.53387e-20
1.17476e-21
3.49975e-21
-3.09012e-21
-5.81426e-21
-2.44917e-21
2.03752e-21
-1.19768e-21
-2.96955e-21
-1.52367e-21
-2.37114e-21
2.34655e-22
-8.74713e-22
-4.91613e-22
2.75949e-22
-2.01446e-22
5.18557e-22
1.60876e-21
8.81537e-22
1.60434e-20
-9.13991e-21
4.53931e-21
8.28731e-21
7.12442e-21
-3.32437e-22
-6.70881e-21
-4.02158e-21
-5.61478e-21
-1.04602e-20
-5.756e-21
2.72329e-21
2.94304e-21
-2.06156e-21
3.99044e-21
2.4319e-21
-5.02601e-21
-4.94189e-21
4.56421e-21
2.15486e-21
-1.15806e-20
-1.20862e-21
6.2308e-21
7.92578e-21
1.79883e-21
-3.77328e-21
-4.4016e-21
-1.67679e-21
-4.42303e-21
-5.51632e-21
-2.00417e-21
1.10264e-21
-4.03504e-21
-2.43877e-24
-3.00787e-23
5.48705e-22
7.47909e-22
1.50555e-21
6.0783e-22
1.72353e-22
-4.05227e-20
1.89042e-20
4.96652e-21
4.63986e-21
-4.6033e-21
-3.76875e-21
2.29874e-22
4.72675e-21
1.99824e-21
3.61597e-22
-1.0436e-21
-5.17149e-21
-3.98034e-21
3.53811e-21
-1.25934e-21
-3.28837e-21
1.47842e-22
3.66917e-21
6.11024e-23
-3.23814e-22
)
;

boundaryField
{
    movingWall
    {
        type            zeroGradient;
    }
    fixedWalls
    {
        type            zeroGradient;
    }
    frontAndBack
    {
        type            empty;
    }
}


// ************************************************************************* //
