/*--------------------------------*- C++ -*----------------------------------*\
| =========                 |                                                 |
| \\      /  F ield         | OpenFOAM: The Open Source CFD Toolbox           |
|  \\    /   O peration     | Version:  2312                                  |
|   \\  /    A nd           | Website:  www.openfoam.com                      |
|    \\/     M anipulation  |                                                 |
\*---------------------------------------------------------------------------*/
FoamFile
{
    version     2.0;
    format      ascii;
    arch        "LSB;label=32;scalar=64";
    class       volScalarField;
    location    "8";
    object      initialResidual:epsilon;
}
// * * * * * * * * * * * * * * * * * * * * * * * * * * * * * * * * * * * * * //

dimensions      [0 0 0 0 0 0 0];

internalField   nonuniform List<scalar> 
400
(
0
0
0
0
0
0
0
0
0
0
0
0
0
0
0
0
0
0
0
0
0
-1.66377e-13
-1.65822e-13
-1.65999e-13
-1.66245e-13
-1.66326e-13
-1.66558e-13
-1.66583e-13
-1.66873e-13
-1.66859e-13
-1.67181e-13
-1.67152e-13
-1.67481e-13
-1.67464e-13
-1.67769e-13
-1.67797e-13
-1.68049e-13
-1.68143e-13
-3.36274e-13
0
0
-1.79541e-13
-1.78909e-13
-1.79109e-13
-1.79391e-13
-1.79481e-13
-1.79748e-13
-1.79765e-13
-1.80105e-13
-1.80071e-13
-1.80452e-13
-1.80396e-13
-1.80787e-13
-1.80745e-13
-1.81104e-13
-1.81119e-13
-1.8141e-13
-1.81507e-13
-3.63362e-13
0
0
-1.9291e-13
-1.92228e-13
-1.92447e-13
-1.92754e-13
-1.92852e-13
-1.93143e-13
-1.93162e-13
-1.93533e-13
-1.93496e-13
-1.93913e-13
-1.93852e-13
-1.94278e-13
-1.94233e-13
-1.94624e-13
-1.94641e-13
-1.94959e-13
-1.95064e-13
-3.90496e-13
0
0
-2.03348e-13
-2.02624e-13
-2.02858e-13
-2.03185e-13
-2.03291e-13
-2.03601e-13
-2.03622e-13
-2.04018e-13
-2.0398e-13
-2.04423e-13
-2.0436e-13
-2.04813e-13
-2.04766e-13
-2.05184e-13
-2.05202e-13
-2.05542e-13
-2.05654e-13
-4.11697e-13
0
0
-2.10374e-13
-2.09623e-13
-2.09869e-13
-2.10211e-13
-2.1032e-13
-2.10645e-13
-2.10666e-13
-2.11081e-13
-2.1104e-13
-2.11503e-13
-2.11437e-13
-2.11911e-13
-2.11862e-13
-2.12298e-13
-2.12318e-13
-2.12672e-13
-2.1279e-13
-4.25984e-13
0
0
-2.14719e-13
-2.13955e-13
-2.14205e-13
-2.14555e-13
-2.14669e-13
-2.15001e-13
-2.15025e-13
-2.15448e-13
-2.15409e-13
-2.15881e-13
-2.15817e-13
-2.163e-13
-2.16253e-13
-2.16699e-13
-2.16721e-13
-2.17083e-13
-2.17205e-13
-4.34825e-13
0
0
-2.17338e-13
-2.16574e-13
-2.16825e-13
-2.1718e-13
-2.17296e-13
-2.17633e-13
-2.17658e-13
-2.18087e-13
-2.18048e-13
-2.18527e-13
-2.18463e-13
-2.18953e-13
-2.18906e-13
-2.19358e-13
-2.19381e-13
-2.19749e-13
-2.19873e-13
-4.40168e-13
0
0
-2.19001e-13
-2.18231e-13
-2.18485e-13
-2.18844e-13
-2.1896e-13
-2.19301e-13
-2.19325e-13
-2.1976e-13
-2.19719e-13
-2.20205e-13
-2.20138e-13
-2.20635e-13
-2.20586e-13
-2.21044e-13
-2.21066e-13
-2.21438e-13
-2.21563e-13
-4.43553e-13
0
0
-2.20192e-13
-2.1941e-13
-2.19667e-13
-2.20029e-13
-2.20146e-13
-2.2049e-13
-2.20515e-13
-2.20951e-13
-2.20912e-13
-2.21399e-13
-2.21334e-13
-2.21833e-13
-2.21784e-13
-2.22245e-13
-2.22267e-13
-2.22643e-13
-2.22768e-13
-4.45967e-13
0
0
-2.21179e-13
-2.20391e-13
-2.20652e-13
-2.21016e-13
-2.21134e-13
-2.21479e-13
-2.21505e-13
-2.21943e-13
-2.21904e-13
-2.22394e-13
-2.22328e-13
-2.2283e-13
-2.22781e-13
-2.23244e-13
-2.23267e-13
-2.23643e-13
-2.23771e-13
-4.47973e-13
0
0
-2.22123e-13
-2.21325e-13
-2.21589e-13
-2.21956e-13
-2.22073e-13
-2.22422e-13
-2.22447e-13
-2.22887e-13
-2.22849e-13
-2.2334e-13
-2.23275e-13
-2.23778e-13
-2.23731e-13
-2.24195e-13
-2.24219e-13
-2.24597e-13
-2.24725e-13
-4.49884e-13
0
0
-2.23092e-13
-2.22308e-13
-2.22567e-13
-2.22934e-13
-2.23054e-13
-2.23402e-13
-2.23429e-13
-2.23871e-13
-2.23832e-13
-2.24327e-13
-2.24261e-13
-2.24767e-13
-2.24719e-13
-2.25186e-13
-2.2521e-13
-2.25591e-13
-2.25719e-13
-4.51875e-13
0
0
-2.24165e-13
-2.23372e-13
-2.23634e-13
-2.24004e-13
-2.24124e-13
-2.24475e-13
-2.24502e-13
-2.24947e-13
-2.24907e-13
-2.25406e-13
-2.25339e-13
-2.25849e-13
-2.258e-13
-2.26271e-13
-2.26294e-13
-2.26677e-13
-2.26806e-13
-4.54051e-13
0
0
-2.25359e-13
-2.2456e-13
-2.24824e-13
-2.25196e-13
-2.25318e-13
-2.2567e-13
-2.25698e-13
-2.26144e-13
-2.26106e-13
-2.26606e-13
-2.26541e-13
-2.27052e-13
-2.27005e-13
-2.27476e-13
-2.27502e-13
-2.27886e-13
-2.28017e-13
-4.56474e-13
0
0
-2.26672e-13
-2.25869e-13
-2.26136e-13
-2.2651e-13
-2.26631e-13
-2.26988e-13
-2.27014e-13
-2.27466e-13
-2.27426e-13
-2.27931e-13
-2.27863e-13
-2.2838e-13
-2.28331e-13
-2.28807e-13
-2.28832e-13
-2.2922e-13
-2.29351e-13
-4.59145e-13
0
0
-2.28051e-13
-2.27252e-13
-2.27518e-13
-2.27894e-13
-2.28018e-13
-2.28375e-13
-2.28403e-13
-2.28857e-13
-2.28818e-13
-2.29325e-13
-2.29259e-13
-2.29778e-13
-2.2973e-13
-2.30208e-13
-2.30234e-13
-2.30624e-13
-2.30757e-13
-4.61959e-13
0
0
-2.29385e-13
-2.28575e-13
-2.28846e-13
-2.29225e-13
-2.29348e-13
-2.29708e-13
-2.29737e-13
-2.30192e-13
-2.30156e-13
-2.30663e-13
-2.306e-13
-2.31119e-13
-2.31074e-13
-2.31553e-13
-2.31581e-13
-2.31972e-13
-2.32106e-13
-4.64661e-13
0
0
-2.3114e-13
-2.30183e-13
-2.30474e-13
-2.30865e-13
-2.3098e-13
-2.31346e-13
-2.3135e-13
-2.31829e-13
-2.31754e-13
-2.32299e-13
-2.3219e-13
-2.3275e-13
-2.32664e-13
-2.33177e-13
-2.33178e-13
-2.33588e-13
-2.33715e-13
-4.67363e-13
0
0
0
0
0
0
0
0
0
0
0
0
0
0
0
0
0
0
0
0
0
)
;

boundaryField
{
    movingWall
    {
        type            zeroGradient;
    }
    fixedWalls
    {
        type            zeroGradient;
    }
    frontAndBack
    {
        type            empty;
    }
}


// ************************************************************************* //
