/*--------------------------------*- C++ -*----------------------------------*\
| =========                 |                                                 |
| \\      /  F ield         | OpenFOAM: The Open Source CFD Toolbox           |
|  \\    /   O peration     | Version:  2312                                  |
|   \\  /    A nd           | Website:  www.openfoam.com                      |
|    \\/     M anipulation  |                                                 |
\*---------------------------------------------------------------------------*/
FoamFile
{
    version     2.0;
    format      ascii;
    arch        "LSB;label=32;scalar=64";
    class       volScalarField;
    location    "8";
    object      k2;
}
// * * * * * * * * * * * * * * * * * * * * * * * * * * * * * * * * * * * * * //

dimensions      [0 4 -4 0 0 0 0];

internalField   nonuniform List<scalar> 
400
(
1.69136e-11
1.69136e-11
1.69136e-11
1.69136e-11
1.69135e-11
1.69136e-11
1.69135e-11
1.69136e-11
1.69135e-11
1.69136e-11
1.69135e-11
1.69135e-11
1.69135e-11
1.69135e-11
1.69135e-11
1.69135e-11
1.69135e-11
1.69135e-11
1.69135e-11
1.69135e-11
1.76379e-11
1.76379e-11
1.76368e-11
1.76364e-11
1.76356e-11
1.76352e-11
1.76345e-11
1.76341e-11
1.76337e-11
1.76333e-11
1.76329e-11
1.76326e-11
1.76323e-11
1.76321e-11
1.76319e-11
1.76317e-11
1.76316e-11
1.76315e-11
1.76315e-11
1.76315e-11
1.87961e-11
1.87961e-11
1.87948e-11
1.87944e-11
1.87935e-11
1.8793e-11
1.87924e-11
1.87918e-11
1.87914e-11
1.87909e-11
1.87906e-11
1.87902e-11
1.87899e-11
1.87896e-11
1.87894e-11
1.87892e-11
1.87891e-11
1.8789e-11
1.87889e-11
1.87889e-11
2.00271e-11
2.00272e-11
2.00257e-11
2.00253e-11
2.00242e-11
2.00238e-11
2.0023e-11
2.00225e-11
2.00219e-11
2.00214e-11
2.0021e-11
2.00206e-11
2.00203e-11
2.00199e-11
2.00197e-11
2.00195e-11
2.00194e-11
2.00193e-11
2.00192e-11
2.00192e-11
2.10703e-11
2.10702e-11
2.10687e-11
2.10682e-11
2.10671e-11
2.10665e-11
2.10658e-11
2.10652e-11
2.10647e-11
2.10641e-11
2.10637e-11
2.10632e-11
2.10629e-11
2.10625e-11
2.10623e-11
2.1062e-11
2.10619e-11
2.10618e-11
2.10617e-11
2.10617e-11
2.18324e-11
2.18324e-11
2.18308e-11
2.18302e-11
2.18291e-11
2.18285e-11
2.18276e-11
2.18271e-11
2.18263e-11
2.18259e-11
2.18253e-11
2.1825e-11
2.18245e-11
2.18242e-11
2.18239e-11
2.18237e-11
2.18235e-11
2.18234e-11
2.18233e-11
2.18233e-11
2.23391e-11
2.23391e-11
2.23374e-11
2.23368e-11
2.23358e-11
2.2335e-11
2.23343e-11
2.23335e-11
2.2333e-11
2.23323e-11
2.23319e-11
2.23313e-11
2.2331e-11
2.23306e-11
2.23304e-11
2.23301e-11
2.233e-11
2.23298e-11
2.23298e-11
2.23297e-11
2.26618e-11
2.26618e-11
2.26601e-11
2.26595e-11
2.26583e-11
2.26576e-11
2.26568e-11
2.26561e-11
2.26555e-11
2.26548e-11
2.26545e-11
2.26538e-11
2.26536e-11
2.26531e-11
2.26529e-11
2.26526e-11
2.26524e-11
2.26523e-11
2.26522e-11
2.26522e-11
2.28703e-11
2.28703e-11
2.28686e-11
2.2868e-11
2.28668e-11
2.28662e-11
2.28652e-11
2.28647e-11
2.28639e-11
2.28634e-11
2.28627e-11
2.28624e-11
2.28618e-11
2.28616e-11
2.28612e-11
2.2861e-11
2.28608e-11
2.28607e-11
2.28606e-11
2.28606e-11
2.30162e-11
2.30162e-11
2.30145e-11
2.30138e-11
2.30127e-11
2.3012e-11
2.30111e-11
2.30104e-11
2.30098e-11
2.30091e-11
2.30087e-11
2.30081e-11
2.30078e-11
2.30073e-11
2.30071e-11
2.30068e-11
2.30066e-11
2.30065e-11
2.30064e-11
2.30064e-11
2.31324e-11
2.31324e-11
2.31306e-11
2.313e-11
2.31288e-11
2.31281e-11
2.31272e-11
2.31265e-11
2.31259e-11
2.31252e-11
2.31247e-11
2.31242e-11
2.31238e-11
2.31235e-11
2.31231e-11
2.31229e-11
2.31227e-11
2.31226e-11
2.31225e-11
2.31225e-11
2.32383e-11
2.32383e-11
2.32364e-11
2.32358e-11
2.32346e-11
2.3234e-11
2.3233e-11
2.32323e-11
2.32317e-11
2.3231e-11
2.32305e-11
2.323e-11
2.32296e-11
2.32292e-11
2.32289e-11
2.32287e-11
2.32285e-11
2.32284e-11
2.32283e-11
2.32283e-11
2.3345e-11
2.3345e-11
2.33432e-11
2.33426e-11
2.33414e-11
2.33407e-11
2.33399e-11
2.33391e-11
2.33385e-11
2.33378e-11
2.33373e-11
2.33367e-11
2.33364e-11
2.33359e-11
2.33357e-11
2.33354e-11
2.33353e-11
2.33351e-11
2.3335e-11
2.3335e-11
2.34592e-11
2.34592e-11
2.34574e-11
2.34568e-11
2.34555e-11
2.34549e-11
2.34539e-11
2.34533e-11
2.34525e-11
2.3452e-11
2.34513e-11
2.3451e-11
2.34504e-11
2.34501e-11
2.34497e-11
2.34495e-11
2.34493e-11
2.34492e-11
2.34491e-11
2.34491e-11
2.35837e-11
2.35837e-11
2.35818e-11
2.35812e-11
2.35801e-11
2.35793e-11
2.35785e-11
2.35776e-11
2.35771e-11
2.35763e-11
2.35759e-11
2.35753e-11
2.35749e-11
2.35745e-11
2.35742e-11
2.35739e-11
2.35738e-11
2.35736e-11
2.35736e-11
2.35735e-11
2.37177e-11
2.37176e-11
2.37158e-11
2.37151e-11
2.37139e-11
2.37133e-11
2.37122e-11
2.37116e-11
2.37108e-11
2.37103e-11
2.37096e-11
2.37093e-11
2.37087e-11
2.37084e-11
2.3708e-11
2.37078e-11
2.37076e-11
2.37075e-11
2.37074e-11
2.37074e-11
2.3855e-11
2.3855e-11
2.38531e-11
2.38525e-11
2.38512e-11
2.38505e-11
2.38496e-11
2.38488e-11
2.38482e-11
2.38475e-11
2.3847e-11
2.38464e-11
2.38461e-11
2.38456e-11
2.38453e-11
2.3845e-11
2.38449e-11
2.38447e-11
2.38446e-11
2.38446e-11
2.39832e-11
2.39832e-11
2.39813e-11
2.39807e-11
2.39794e-11
2.39788e-11
2.39777e-11
2.39772e-11
2.39763e-11
2.39758e-11
2.39751e-11
2.39747e-11
2.39742e-11
2.39738e-11
2.39735e-11
2.39733e-11
2.3973e-11
2.39729e-11
2.39728e-11
2.39728e-11
2.40845e-11
2.40845e-11
2.40827e-11
2.40821e-11
2.40808e-11
2.40801e-11
2.40792e-11
2.40785e-11
2.40778e-11
2.40772e-11
2.40766e-11
2.40762e-11
2.40756e-11
2.40754e-11
2.40749e-11
2.40748e-11
2.40745e-11
2.40744e-11
2.40743e-11
2.40743e-11
2.4131e-11
2.4131e-11
2.4131e-11
2.4131e-11
2.41309e-11
2.41309e-11
2.41309e-11
2.41309e-11
2.41309e-11
2.41309e-11
2.41309e-11
2.41309e-11
2.41309e-11
2.41309e-11
2.41309e-11
2.41309e-11
2.41309e-11
2.41309e-11
2.41309e-11
2.41309e-11
)
;

boundaryField
{
    movingWall
    {
        type            calculated;
        value           nonuniform List<scalar> 
20
(
2.4131e-11
2.4131e-11
2.4131e-11
2.4131e-11
2.41309e-11
2.41309e-11
2.41309e-11
2.41309e-11
2.41309e-11
2.41309e-11
2.41309e-11
2.41309e-11
2.41309e-11
2.41309e-11
2.41309e-11
2.41309e-11
2.41309e-11
2.41309e-11
2.41309e-11
2.41309e-11
)
;
    }
    fixedWalls
    {
        type            calculated;
        value           nonuniform List<scalar> 
60
(
1.69136e-11
1.76379e-11
1.87961e-11
2.00271e-11
2.10703e-11
2.18324e-11
2.23391e-11
2.26618e-11
2.28703e-11
2.30162e-11
2.31324e-11
2.32383e-11
2.3345e-11
2.34592e-11
2.35837e-11
2.37177e-11
2.3855e-11
2.39832e-11
2.40845e-11
2.4131e-11
1.69135e-11
1.76315e-11
1.87889e-11
2.00192e-11
2.10617e-11
2.18233e-11
2.23297e-11
2.26522e-11
2.28606e-11
2.30064e-11
2.31225e-11
2.32283e-11
2.3335e-11
2.34491e-11
2.35735e-11
2.37074e-11
2.38446e-11
2.39728e-11
2.40743e-11
2.41309e-11
1.69136e-11
1.69136e-11
1.69136e-11
1.69136e-11
1.69135e-11
1.69136e-11
1.69135e-11
1.69136e-11
1.69135e-11
1.69136e-11
1.69135e-11
1.69135e-11
1.69135e-11
1.69135e-11
1.69135e-11
1.69135e-11
1.69135e-11
1.69135e-11
1.69135e-11
1.69135e-11
)
;
    }
    frontAndBack
    {
        type            empty;
    }
}


// ************************************************************************* //
