/*--------------------------------*- C++ -*----------------------------------*\
| =========                 |                                                 |
| \\      /  F ield         | OpenFOAM: The Open Source CFD Toolbox           |
|  \\    /   O peration     | Version:  2312                                  |
|   \\  /    A nd           | Website:  www.openfoam.com                      |
|    \\/     M anipulation  |                                                 |
\*---------------------------------------------------------------------------*/
FoamFile
{
    version     2.0;
    format      ascii;
    arch        "LSB;label=32;scalar=64";
    class       volScalarField;
    location    "8";
    object      kDiff;
}
// * * * * * * * * * * * * * * * * * * * * * * * * * * * * * * * * * * * * * //

dimensions      [0 2 -2 0 0 0 0];

internalField   nonuniform List<scalar> 
400
(
-6.48996e-09
-6.49158e-09
-6.48876e-09
-6.49198e-09
-6.48799e-09
-6.49336e-09
-6.48637e-09
-6.49445e-09
-6.48587e-09
-6.4944e-09
-6.48639e-09
-6.49342e-09
-6.48767e-09
-6.49217e-09
-6.489e-09
-6.49071e-09
-6.49011e-09
-6.49027e-09
-6.49022e-09
-6.49023e-09
-6.78658e-09
-6.78255e-09
-6.79241e-09
-6.78057e-09
-6.79436e-09
-6.77514e-09
-6.79857e-09
-6.7704e-09
-6.79938e-09
-6.76996e-09
-6.79848e-09
-6.77095e-09
-6.79719e-09
-6.77264e-09
-6.79446e-09
-6.77633e-09
-6.78995e-09
-6.7805e-09
-6.78539e-09
-6.78395e-09
-7.22573e-09
-7.22233e-09
-7.22304e-09
-7.21576e-09
-7.23603e-09
-7.21036e-09
-7.23516e-09
-7.21272e-09
-7.23268e-09
-7.21087e-09
-7.23155e-09
-7.212e-09
-7.22922e-09
-7.21485e-09
-7.22691e-09
-7.21701e-09
-7.22446e-09
-7.21905e-09
-7.22202e-09
-7.22104e-09
-7.63904e-09
-7.62589e-09
-7.66064e-09
-7.62631e-09
-7.65364e-09
-7.62587e-09
-7.65248e-09
-7.62735e-09
-7.64794e-09
-7.63319e-09
-7.64637e-09
-7.63112e-09
-7.64683e-09
-7.6281e-09
-7.6446e-09
-7.63027e-09
-7.64091e-09
-7.63456e-09
-7.63814e-09
-7.63734e-09
-7.95671e-09
-7.9533e-09
-7.95293e-09
-7.9418e-09
-7.96641e-09
-7.93655e-09
-7.96516e-09
-7.93793e-09
-7.95973e-09
-7.94637e-09
-7.95966e-09
-7.94254e-09
-7.95867e-09
-7.94313e-09
-7.95527e-09
-7.94621e-09
-7.95197e-09
-7.94854e-09
-7.95066e-09
-7.95001e-09
-8.15308e-09
-8.14598e-09
-8.17121e-09
-8.15626e-09
-8.15487e-09
-8.15868e-09
-8.14872e-09
-8.16097e-09
-8.14846e-09
-8.1618e-09
-8.14618e-09
-8.16079e-09
-8.14637e-09
-8.15796e-09
-8.14836e-09
-8.15394e-09
-8.15306e-09
-8.15295e-09
-8.15315e-09
-8.15298e-09
-8.28175e-09
-8.28796e-09
-8.26206e-09
-8.27149e-09
-8.28697e-09
-8.26772e-09
-8.2844e-09
-8.27144e-09
-8.28303e-09
-8.26862e-09
-8.28429e-09
-8.26691e-09
-8.28516e-09
-8.26407e-09
-8.28436e-09
-8.26533e-09
-8.27986e-09
-8.27042e-09
-8.27552e-09
-8.27453e-09
-8.35221e-09
-8.35333e-09
-8.34382e-09
-8.34388e-09
-8.35822e-09
-8.34001e-09
-8.35634e-09
-8.34372e-09
-8.35947e-09
-8.33224e-09
-8.36296e-09
-8.33042e-09
-8.35848e-09
-8.33591e-09
-8.3529e-09
-8.34107e-09
-8.34882e-09
-8.34426e-09
-8.34699e-09
-8.34621e-09
-8.39289e-09
-8.39205e-09
-8.3985e-09
-8.39732e-09
-8.38777e-09
-8.39454e-09
-8.39149e-09
-8.39438e-09
-8.39101e-09
-8.39509e-09
-8.39071e-09
-8.39382e-09
-8.39144e-09
-8.39252e-09
-8.39036e-09
-8.39142e-09
-8.39129e-09
-8.39111e-09
-8.39127e-09
-8.39115e-09
-8.42921e-09
-8.4269e-09
-8.42675e-09
-8.41957e-09
-8.43451e-09
-8.41599e-09
-8.4336e-09
-8.4178e-09
-8.43449e-09
-8.41477e-09
-8.43557e-09
-8.41253e-09
-8.43201e-09
-8.41705e-09
-8.428e-09
-8.42053e-09
-8.425e-09
-8.42217e-09
-8.42403e-09
-8.42339e-09
-8.45243e-09
-8.44386e-09
-8.46929e-09
-8.44455e-09
-8.4637e-09
-8.4424e-09
-8.46362e-09
-8.44223e-09
-8.46246e-09
-8.4421e-09
-8.45861e-09
-8.44394e-09
-8.45754e-09
-8.44479e-09
-8.45697e-09
-8.44659e-09
-8.45502e-09
-8.44982e-09
-8.45047e-09
-8.45063e-09
-8.48116e-09
-8.47427e-09
-8.49284e-09
-8.46887e-09
-8.49276e-09
-8.46441e-09
-8.49604e-09
-8.4619e-09
-8.49356e-09
-8.46445e-09
-8.48863e-09
-8.4684e-09
-8.48573e-09
-8.47076e-09
-8.48311e-09
-8.47354e-09
-8.47996e-09
-8.47528e-09
-8.47787e-09
-8.47697e-09
-8.51086e-09
-8.51246e-09
-8.50163e-09
-8.50074e-09
-8.51764e-09
-8.49544e-09
-8.51667e-09
-8.49964e-09
-8.51455e-09
-8.49846e-09
-8.51496e-09
-8.4971e-09
-8.51377e-09
-8.49578e-09
-8.51326e-09
-8.4962e-09
-8.50981e-09
-8.50067e-09
-8.50568e-09
-8.50468e-09
-8.54129e-09
-8.54047e-09
-8.53396e-09
-8.53001e-09
-8.55143e-09
-8.52061e-09
-8.5552e-09
-8.51538e-09
-8.55475e-09
-8.51736e-09
-8.55613e-09
-8.51709e-09
-8.55517e-09
-8.52033e-09
-8.54936e-09
-8.52573e-09
-8.54188e-09
-8.53148e-09
-8.53668e-09
-8.53519e-09
-8.577e-09
-8.58303e-09
-8.55739e-09
-8.56582e-09
-8.58273e-09
-8.56268e-09
-8.58003e-09
-8.56727e-09
-8.57992e-09
-8.56003e-09
-8.58263e-09
-8.55759e-09
-8.58323e-09
-8.55577e-09
-8.58135e-09
-8.55819e-09
-8.57568e-09
-8.56445e-09
-8.57044e-09
-8.56934e-09
-8.61175e-09
-8.60995e-09
-8.6125e-09
-8.60603e-09
-8.61602e-09
-8.60184e-09
-8.61876e-09
-8.59571e-09
-8.61719e-09
-8.59885e-09
-8.61732e-09
-8.59873e-09
-8.6172e-09
-8.59952e-09
-8.61526e-09
-8.60214e-09
-8.61217e-09
-8.60629e-09
-8.60719e-09
-8.60723e-09
-8.65263e-09
-8.64757e-09
-8.65386e-09
-8.64228e-09
-8.66303e-09
-8.63877e-09
-8.65868e-09
-8.64353e-09
-8.65751e-09
-8.64014e-09
-8.6595e-09
-8.63556e-09
-8.65648e-09
-8.64031e-09
-8.65155e-09
-8.64508e-09
-8.64875e-09
-8.64641e-09
-8.64804e-09
-8.64742e-09
-8.69214e-09
-8.68713e-09
-8.6943e-09
-8.67897e-09
-8.70383e-09
-8.6696e-09
-8.70787e-09
-8.66355e-09
-8.71126e-09
-8.66472e-09
-8.70862e-09
-8.66766e-09
-8.70489e-09
-8.67141e-09
-8.70057e-09
-8.67618e-09
-8.69418e-09
-8.68172e-09
-8.68817e-09
-8.68627e-09
-8.72112e-09
-8.71406e-09
-8.72902e-09
-8.71414e-09
-8.73118e-09
-8.70883e-09
-8.73344e-09
-8.70689e-09
-8.7291e-09
-8.70885e-09
-8.72861e-09
-8.70804e-09
-8.72906e-09
-8.70847e-09
-8.72723e-09
-8.71159e-09
-8.72394e-09
-8.71626e-09
-8.71817e-09
-8.71792e-09
-8.73689e-09
-8.73487e-09
-8.73662e-09
-8.73491e-09
-8.7367e-09
-8.73455e-09
-8.73792e-09
-8.73341e-09
-8.73865e-09
-8.73341e-09
-8.73805e-09
-8.73462e-09
-8.73659e-09
-8.73574e-09
-8.73607e-09
-8.73584e-09
-8.73594e-09
-8.73589e-09
-8.73591e-09
-8.73591e-09
)
;

boundaryField
{
    movingWall
    {
        type            calculated;
        value           nonuniform List<scalar> 
20
(
-8.73689e-09
-8.73487e-09
-8.73662e-09
-8.73491e-09
-8.7367e-09
-8.73455e-09
-8.73792e-09
-8.73341e-09
-8.73865e-09
-8.73341e-09
-8.73805e-09
-8.73462e-09
-8.73659e-09
-8.73574e-09
-8.73607e-09
-8.73584e-09
-8.73594e-09
-8.73589e-09
-8.73591e-09
-8.73591e-09
)
;
    }
    fixedWalls
    {
        type            calculated;
        value           nonuniform List<scalar> 
60
(
-6.48996e-09
-6.78658e-09
-7.22573e-09
-7.63904e-09
-7.95671e-09
-8.15308e-09
-8.28175e-09
-8.35221e-09
-8.39289e-09
-8.42921e-09
-8.45243e-09
-8.48116e-09
-8.51086e-09
-8.54129e-09
-8.577e-09
-8.61175e-09
-8.65263e-09
-8.69214e-09
-8.72112e-09
-8.73689e-09
-6.49023e-09
-6.78395e-09
-7.22104e-09
-7.63734e-09
-7.95001e-09
-8.15298e-09
-8.27453e-09
-8.34621e-09
-8.39115e-09
-8.42339e-09
-8.45063e-09
-8.47697e-09
-8.50468e-09
-8.53519e-09
-8.56934e-09
-8.60723e-09
-8.64742e-09
-8.68627e-09
-8.71792e-09
-8.73591e-09
-6.48996e-09
-6.49158e-09
-6.48876e-09
-6.49198e-09
-6.48799e-09
-6.49336e-09
-6.48637e-09
-6.49445e-09
-6.48587e-09
-6.4944e-09
-6.48639e-09
-6.49342e-09
-6.48767e-09
-6.49217e-09
-6.489e-09
-6.49071e-09
-6.49011e-09
-6.49027e-09
-6.49022e-09
-6.49023e-09
)
;
    }
    frontAndBack
    {
        type            empty;
    }
}


// ************************************************************************* //
