/*--------------------------------*- C++ -*----------------------------------*\
| =========                 |                                                 |
| \\      /  F ield         | OpenFOAM: The Open Source CFD Toolbox           |
|  \\    /   O peration     | Version:  2312                                  |
|   \\  /    A nd           | Website:  www.openfoam.com                      |
|    \\/     M anipulation  |                                                 |
\*---------------------------------------------------------------------------*/
FoamFile
{
    version     2.0;
    format      ascii;
    arch        "LSB;label=32;scalar=64";
    class       volScalarField;
    location    "8";
    object      kTotal;
}
// * * * * * * * * * * * * * * * * * * * * * * * * * * * * * * * * * * * * * //

dimensions      [0 2 -2 0 0 0 0];

internalField   nonuniform List<scalar> 
400
(
8.22524e-06
8.22523e-06
8.22523e-06
8.22523e-06
8.22522e-06
8.22523e-06
8.22521e-06
8.22522e-06
8.22521e-06
8.22522e-06
8.2252e-06
8.22522e-06
8.22521e-06
8.22521e-06
8.22521e-06
8.22521e-06
8.22521e-06
8.22521e-06
8.22521e-06
8.22521e-06
8.3995e-06
8.39951e-06
8.39923e-06
8.39914e-06
8.39895e-06
8.39886e-06
8.3987e-06
8.39861e-06
8.39849e-06
8.39841e-06
8.39832e-06
8.39825e-06
8.39817e-06
8.39813e-06
8.39807e-06
8.39804e-06
8.398e-06
8.39799e-06
8.39797e-06
8.39797e-06
8.67091e-06
8.6709e-06
8.67061e-06
8.67051e-06
8.6703e-06
8.67018e-06
8.67004e-06
8.66991e-06
8.66981e-06
8.6697e-06
8.66962e-06
8.66953e-06
8.66946e-06
8.6694e-06
8.66935e-06
8.66931e-06
8.66927e-06
8.66925e-06
8.66924e-06
8.66924e-06
8.95034e-06
8.95035e-06
8.95002e-06
8.94992e-06
8.94969e-06
8.94959e-06
8.94941e-06
8.9493e-06
8.94918e-06
8.94906e-06
8.94897e-06
8.94887e-06
8.94881e-06
8.94873e-06
8.94869e-06
8.94863e-06
8.94861e-06
8.94858e-06
8.94857e-06
8.94857e-06
9.18047e-06
9.18047e-06
9.18013e-06
9.18002e-06
9.17979e-06
9.17966e-06
9.1795e-06
9.17936e-06
9.17925e-06
9.17912e-06
9.17904e-06
9.17893e-06
9.17886e-06
9.17878e-06
9.17873e-06
9.17868e-06
9.17865e-06
9.17862e-06
9.17861e-06
9.1786e-06
9.34503e-06
9.34503e-06
9.34469e-06
9.34456e-06
9.34432e-06
9.3442e-06
9.34401e-06
9.34391e-06
9.34374e-06
9.34365e-06
9.34351e-06
9.34344e-06
9.34334e-06
9.34328e-06
9.34321e-06
9.34317e-06
9.34313e-06
9.34311e-06
9.34309e-06
9.34309e-06
9.45286e-06
9.45286e-06
9.4525e-06
9.45238e-06
9.45215e-06
9.452e-06
9.45184e-06
9.45168e-06
9.45156e-06
9.45142e-06
9.45134e-06
9.45121e-06
9.45115e-06
9.45106e-06
9.45101e-06
9.45095e-06
9.45092e-06
9.45089e-06
9.45088e-06
9.45087e-06
9.52089e-06
9.52088e-06
9.52052e-06
9.5204e-06
9.52016e-06
9.52001e-06
9.51984e-06
9.51968e-06
9.51957e-06
9.51942e-06
9.51934e-06
9.51921e-06
9.51915e-06
9.51906e-06
9.51901e-06
9.51895e-06
9.51892e-06
9.51889e-06
9.51888e-06
9.51887e-06
9.56459e-06
9.56459e-06
9.56424e-06
9.56409e-06
9.56385e-06
9.56373e-06
9.56353e-06
9.56341e-06
9.56324e-06
9.56314e-06
9.563e-06
9.56293e-06
9.56282e-06
9.56276e-06
9.56268e-06
9.56264e-06
9.5626e-06
9.56258e-06
9.56256e-06
9.56256e-06
9.59505e-06
9.59504e-06
9.59468e-06
9.59455e-06
9.5943e-06
9.59417e-06
9.59399e-06
9.59384e-06
9.59372e-06
9.59357e-06
9.59348e-06
9.59335e-06
9.59329e-06
9.59319e-06
9.59314e-06
9.59308e-06
9.59305e-06
9.59302e-06
9.59301e-06
9.593e-06
9.61923e-06
9.61923e-06
9.61886e-06
9.61873e-06
9.61849e-06
9.61834e-06
9.61816e-06
9.61801e-06
9.61788e-06
9.61774e-06
9.61763e-06
9.61754e-06
9.61744e-06
9.61738e-06
9.6173e-06
9.61726e-06
9.61721e-06
9.61719e-06
9.61718e-06
9.61717e-06
9.64122e-06
9.64122e-06
9.64084e-06
9.64071e-06
9.64045e-06
9.64033e-06
9.64013e-06
9.63999e-06
9.63986e-06
9.63972e-06
9.63962e-06
9.6395e-06
9.63943e-06
9.63934e-06
9.63928e-06
9.63923e-06
9.63919e-06
9.63917e-06
9.63915e-06
9.63914e-06
9.66335e-06
9.66334e-06
9.66297e-06
9.66284e-06
9.66259e-06
9.66244e-06
9.66227e-06
9.66211e-06
9.66199e-06
9.66184e-06
9.66175e-06
9.66162e-06
9.66155e-06
9.66146e-06
9.66141e-06
9.66135e-06
9.66132e-06
9.66129e-06
9.66127e-06
9.66127e-06
9.68695e-06
9.68694e-06
9.68657e-06
9.68644e-06
9.68619e-06
9.68606e-06
9.68585e-06
9.68573e-06
9.68557e-06
9.68547e-06
9.68532e-06
9.68525e-06
9.68513e-06
9.68507e-06
9.68499e-06
9.68495e-06
9.6849e-06
9.68488e-06
9.68486e-06
9.68486e-06
9.71262e-06
9.71262e-06
9.71223e-06
9.7121e-06
9.71187e-06
9.7117e-06
9.71154e-06
9.71136e-06
9.71125e-06
9.71109e-06
9.71101e-06
9.71088e-06
9.71081e-06
9.71071e-06
9.71067e-06
9.71059e-06
9.71057e-06
9.71054e-06
9.71052e-06
9.71052e-06
9.74016e-06
9.74015e-06
9.73978e-06
9.73964e-06
9.73938e-06
9.73926e-06
9.73904e-06
9.73892e-06
9.73876e-06
9.73865e-06
9.73851e-06
9.73844e-06
9.73832e-06
9.73826e-06
9.73818e-06
9.73814e-06
9.73809e-06
9.73807e-06
9.73805e-06
9.73805e-06
9.76832e-06
9.76831e-06
9.76794e-06
9.7678e-06
9.76755e-06
9.76739e-06
9.76722e-06
9.76705e-06
9.76693e-06
9.76677e-06
9.76669e-06
9.76655e-06
9.76649e-06
9.76639e-06
9.76634e-06
9.76627e-06
9.76624e-06
9.76621e-06
9.7662e-06
9.76619e-06
9.79454e-06
9.79454e-06
9.79415e-06
9.79402e-06
9.79375e-06
9.79363e-06
9.79341e-06
9.7933e-06
9.79313e-06
9.79301e-06
9.79289e-06
9.79279e-06
9.79269e-06
9.79262e-06
9.79254e-06
9.7925e-06
9.79245e-06
9.79243e-06
9.79241e-06
9.79241e-06
9.8152e-06
9.8152e-06
9.81483e-06
9.8147e-06
9.81445e-06
9.81431e-06
9.81412e-06
9.81397e-06
9.81383e-06
9.81371e-06
9.81358e-06
9.8135e-06
9.81339e-06
9.81333e-06
9.81324e-06
9.81321e-06
9.81316e-06
9.81314e-06
9.81312e-06
9.81311e-06
9.82467e-06
9.82466e-06
9.82466e-06
9.82466e-06
9.82466e-06
9.82465e-06
9.82465e-06
9.82465e-06
9.82464e-06
9.82465e-06
9.82464e-06
9.82464e-06
9.82464e-06
9.82464e-06
9.82464e-06
9.82464e-06
9.82464e-06
9.82464e-06
9.82464e-06
9.82464e-06
)
;

boundaryField
{
    movingWall
    {
        type            calculated;
        value           nonuniform List<scalar> 
20
(
9.82467e-06
9.82466e-06
9.82466e-06
9.82466e-06
9.82466e-06
9.82465e-06
9.82465e-06
9.82465e-06
9.82464e-06
9.82465e-06
9.82464e-06
9.82464e-06
9.82464e-06
9.82464e-06
9.82464e-06
9.82464e-06
9.82464e-06
9.82464e-06
9.82464e-06
9.82464e-06
)
;
    }
    fixedWalls
    {
        type            calculated;
        value           nonuniform List<scalar> 
60
(
8.22524e-06
8.3995e-06
8.67091e-06
8.95034e-06
9.18047e-06
9.34503e-06
9.45286e-06
9.52089e-06
9.56459e-06
9.59505e-06
9.61923e-06
9.64122e-06
9.66335e-06
9.68695e-06
9.71262e-06
9.74016e-06
9.76832e-06
9.79454e-06
9.8152e-06
9.82467e-06
8.22521e-06
8.39797e-06
8.66924e-06
8.94857e-06
9.1786e-06
9.34309e-06
9.45087e-06
9.51887e-06
9.56256e-06
9.593e-06
9.61717e-06
9.63914e-06
9.66127e-06
9.68486e-06
9.71052e-06
9.73805e-06
9.76619e-06
9.79241e-06
9.81311e-06
9.82464e-06
8.22524e-06
8.22523e-06
8.22523e-06
8.22523e-06
8.22522e-06
8.22523e-06
8.22521e-06
8.22522e-06
8.22521e-06
8.22522e-06
8.2252e-06
8.22522e-06
8.22521e-06
8.22521e-06
8.22521e-06
8.22521e-06
8.22521e-06
8.22521e-06
8.22521e-06
8.22521e-06
)
;
    }
    frontAndBack
    {
        type            empty;
    }
}


// ************************************************************************* //
