/*--------------------------------*- C++ -*----------------------------------*\
| =========                 |                                                 |
| \\      /  F ield         | OpenFOAM: The Open Source CFD Toolbox           |
|  \\    /   O peration     | Version:  2312                                  |
|   \\  /    A nd           | Website:  www.openfoam.com                      |
|    \\/     M anipulation  |                                                 |
\*---------------------------------------------------------------------------*/
FoamFile
{
    version     2.0;
    format      ascii;
    arch        "LSB;label=32;scalar=64";
    class       volVectorField;
    location    "8";
    object      kU;
}
// * * * * * * * * * * * * * * * * * * * * * * * * * * * * * * * * * * * * * //

dimensions      [0 3 -3 0 0 0 0];

internalField   nonuniform List<vector> 
400
(
(-4.10937e-06 1.27789e-19 0)
(-4.10937e-06 -2.62496e-20 0)
(-4.10937e-06 5.53595e-21 0)
(-4.10937e-06 -1.35204e-21 0)
(-4.10937e-06 3.43952e-22 0)
(-4.10937e-06 2.14532e-22 0)
(-4.10936e-06 3.3275e-22 0)
(-4.10937e-06 5.28053e-22 0)
(-4.10936e-06 7.47423e-22 0)
(-4.10936e-06 3.27794e-22 0)
(-4.10936e-06 -6.67243e-23 0)
(-4.10936e-06 7.27006e-23 0)
(-4.10936e-06 4.23368e-22 0)
(-4.10936e-06 2.03406e-22 0)
(-4.10936e-06 1.43625e-22 0)
(-4.10936e-06 9.72458e-23 0)
(-4.10936e-06 1.25213e-22 0)
(-4.10936e-06 -1.14568e-22 0)
(-4.10936e-06 9.78073e-23 0)
(-4.10936e-06 2.49033e-22 0)
(-4.19636e-06 3.19947e-20 0)
(-4.19636e-06 -5.61829e-21 0)
(-4.19622e-06 8.92085e-22 0)
(-4.19618e-06 -1.81502e-22 0)
(-4.19608e-06 -1.09062e-23 0)
(-4.19604e-06 -1.42011e-22 0)
(-4.19595e-06 -1.61626e-22 0)
(-4.19592e-06 1.84868e-22 0)
(-4.19585e-06 5.47776e-22 0)
(-4.19582e-06 1.15169e-22 0)
(-4.19576e-06 -2.17746e-22 0)
(-4.19574e-06 2.4214e-22 0)
(-4.19569e-06 4.60435e-22 0)
(-4.19568e-06 4.39572e-24 0)
(-4.19564e-06 2.48211e-22 0)
(-4.19563e-06 5.24995e-22 0)
(-4.1956e-06 3.66876e-22 0)
(-4.1956e-06 1.07371e-22 0)
(-4.19559e-06 -1.02129e-22 0)
(-4.19559e-06 6.35615e-23 0)
(-4.33184e-06 -7.39463e-20 0)
(-4.33184e-06 1.36943e-20 0)
(-4.33169e-06 -2.79494e-21 0)
(-4.33164e-06 2.04432e-22 0)
(-4.33153e-06 -9.84197e-22 0)
(-4.33149e-06 -8.92635e-22 0)
(-4.3314e-06 -8.18772e-22 0)
(-4.33135e-06 -3.96305e-22 0)
(-4.33129e-06 -2.38468e-22 0)
(-4.33124e-06 1.16421e-23 0)
(-4.33119e-06 -1.94873e-22 0)
(-4.33116e-06 -2.62487e-22 0)
(-4.33112e-06 -2.97392e-22 0)
(-4.33109e-06 -1.47091e-22 0)
(-4.33106e-06 9.35314e-23 0)
(-4.33104e-06 3.16504e-22 0)
(-4.33102e-06 1.52308e-22 0)
(-4.33102e-06 3.31336e-23 0)
(-4.33101e-06 -5.26442e-22 0)
(-4.33101e-06 -4.56666e-22 0)
(-4.47135e-06 -4.70305e-20 0)
(-4.47136e-06 9.40993e-21 0)
(-4.47118e-06 -1.7983e-21 0)
(-4.47115e-06 1.95575e-22 0)
(-4.47102e-06 -7.72104e-22 0)
(-4.47098e-06 -4.68047e-22 0)
(-4.47088e-06 -2.77375e-22 0)
(-4.47084e-06 -1.22689e-22 0)
(-4.47076e-06 -2.18575e-22 0)
(-4.47071e-06 5.09955e-23 0)
(-4.47066e-06 -1.55371e-22 0)
(-4.47062e-06 -1.65396e-22 0)
(-4.47058e-06 3.43175e-23 0)
(-4.47055e-06 4.35348e-22 0)
(-4.47052e-06 5.49122e-22 0)
(-4.4705e-06 5.5026e-22 0)
(-4.47048e-06 -1.86796e-23 0)
(-4.47047e-06 -2.50167e-22 0)
(-4.47047e-06 -3.1755e-22 0)
(-4.47046e-06 -3.19832e-22 0)
(-4.58626e-06 9.95291e-20 0)
(-4.58626e-06 -1.96528e-20 0)
(-4.58609e-06 4.46571e-21 0)
(-4.58604e-06 -4.3824e-22 0)
(-4.58591e-06 3.73551e-22 0)
(-4.58586e-06 2.44514e-22 0)
(-4.58577e-06 3.2538e-22 0)
(-4.58571e-06 -7.34285e-23 0)
(-4.58565e-06 -3.03649e-23 0)
(-4.58559e-06 4.13371e-22 0)
(-4.58554e-06 4.97671e-22 0)
(-4.58549e-06 5.90034e-22 0)
(-4.58545e-06 3.49309e-22 0)
(-4.58542e-06 6.64401e-23 0)
(-4.58539e-06 -1.49811e-22 0)
(-4.58536e-06 -1.1828e-22 0)
(-4.58535e-06 -1.74854e-22 0)
(-4.58534e-06 1.93202e-22 0)
(-4.58533e-06 1.41369e-22 0)
(-4.58533e-06 3.90871e-23 0)
(-4.66844e-06 -9.72021e-20 0)
(-4.66844e-06 1.87207e-20 0)
(-4.66826e-06 -4.14623e-21 0)
(-4.6682e-06 1.02942e-21 0)
(-4.66808e-06 -9.10475e-23 0)
(-4.66802e-06 5.28446e-23 0)
(-4.66793e-06 5.48937e-23 0)
(-4.66787e-06 1.36021e-22 0)
(-4.66779e-06 7.57919e-22 0)
(-4.66774e-06 1.04805e-21 0)
(-4.66768e-06 8.61798e-22 0)
(-4.66764e-06 4.59911e-22 0)
(-4.66759e-06 3.78956e-22 0)
(-4.66756e-06 1.1844e-22 0)
(-4.66753e-06 -5.94706e-22 0)
(-4.66751e-06 -1.09575e-21 0)
(-4.66749e-06 -4.2896e-22 0)
(-4.66748e-06 9.94415e-23 0)
(-4.66747e-06 2.44983e-22 0)
(-4.66747e-06 3.09064e-22 0)
(-4.72229e-06 8.25695e-21 0)
(-4.72229e-06 -1.06961e-21 0)
(-4.72212e-06 -5.15835e-22 0)
(-4.72205e-06 -3.81674e-22 0)
(-4.72193e-06 5.74522e-23 0)
(-4.72186e-06 1.8139e-22 0)
(-4.72178e-06 -1.781e-22 0)
(-4.7217e-06 -6.42085e-23 0)
(-4.72164e-06 4.31938e-22 0)
(-4.72158e-06 1.88741e-22 0)
(-4.72153e-06 -1.09955e-22 0)
(-4.72147e-06 9.82865e-23 0)
(-4.72143e-06 9.13293e-22 0)
(-4.7214e-06 9.73338e-22 0)
(-4.72136e-06 2.98026e-22 0)
(-4.72134e-06 1.3909e-22 0)
(-4.72132e-06 3.93456e-22 0)
(-4.72131e-06 1.31906e-22 0)
(-4.7213e-06 1.00948e-22 0)
(-4.7213e-06 4.25454e-22 0)
(-4.75627e-06 1.59098e-19 0)
(-4.75627e-06 -3.72571e-20 0)
(-4.75609e-06 6.70244e-21 0)
(-4.75603e-06 -3.35892e-21 0)
(-4.7559e-06 -3.37304e-22 0)
(-4.75584e-06 -4.49418e-22 0)
(-4.75574e-06 -8.85974e-23 0)
(-4.75567e-06 2.65846e-23 0)
(-4.75561e-06 4.44894e-22 0)
(-4.75555e-06 1.31435e-21 0)
(-4.75549e-06 1.37522e-21 0)
(-4.75544e-06 8.83141e-22 0)
(-4.7554e-06 3.03675e-22 0)
(-4.75536e-06 7.28674e-23 0)
(-4.75533e-06 -3.11393e-23 0)
(-4.7553e-06 -2.02493e-24 0)
(-4.75528e-06 2.25553e-23 0)
(-4.75527e-06 1.83756e-22 0)
(-4.75527e-06 3.37823e-22 0)
(-4.75526e-06 3.81693e-22 0)
(-4.7781e-06 -2.09542e-19 0)
(-4.7781e-06 4.2212e-20 0)
(-4.77792e-06 -9.92137e-21 0)
(-4.77785e-06 1.74262e-21 0)
(-4.77773e-06 -1.47725e-22 0)
(-4.77767e-06 6.14827e-22 0)
(-4.77757e-06 8.21001e-22 0)
(-4.77751e-06 7.40247e-22 0)
(-4.77743e-06 4.87382e-22 0)
(-4.77737e-06 8.99362e-22 0)
(-4.77731e-06 1.14209e-21 0)
(-4.77727e-06 8.11209e-22 0)
(-4.77721e-06 -2.60106e-22 0)
(-4.77718e-06 -4.6026e-22 0)
(-4.77715e-06 -2.13546e-24 0)
(-4.77713e-06 -1.71647e-22 0)
(-4.7771e-06 -3.2324e-22 0)
(-4.77709e-06 2.38387e-22 0)
(-4.77709e-06 6.80349e-22 0)
(-4.77708e-06 2.22347e-22 0)
(-4.79331e-06 4.94774e-20 0)
(-4.79331e-06 -8.36689e-21 0)
(-4.79313e-06 5.43414e-22 0)
(-4.79306e-06 -9.37884e-22 0)
(-4.79294e-06 -3.62279e-22 0)
(-4.79288e-06 1.14948e-22 0)
(-4.79278e-06 5.07797e-22 0)
(-4.79271e-06 8.62012e-22 0)
(-4.79264e-06 5.4134e-22 0)
(-4.79258e-06 7.9573e-23 0)
(-4.79252e-06 5.092e-22 0)
(-4.79247e-06 7.36574e-22 0)
(-4.79243e-06 4.35764e-22 0)
(-4.79239e-06 2.18979e-22 0)
(-4.79236e-06 2.92708e-22 0)
(-4.79233e-06 3.68275e-22 0)
(-4.79231e-06 3.5233e-22 0)
(-4.7923e-06 3.5913e-22 0)
(-4.79229e-06 2.84526e-22 0)
(-4.79229e-06 -7.66383e-23 0)
(-4.80539e-06 3.89344e-20 0)
(-4.80539e-06 -9.46146e-21 0)
(-4.8052e-06 2.33607e-21 0)
(-4.80514e-06 -1.23406e-21 0)
(-4.80501e-06 -8.61043e-22 0)
(-4.80495e-06 -7.03353e-22 0)
(-4.80485e-06 3.3363e-22 0)
(-4.80479e-06 8.80059e-22 0)
(-4.80471e-06 8.79326e-22 0)
(-4.80465e-06 7.08585e-22 0)
(-4.80459e-06 8.49497e-22 0)
(-4.80455e-06 6.78051e-22 0)
(-4.80449e-06 4.65006e-22 0)
(-4.80447e-06 2.68946e-22 0)
(-4.80442e-06 2.33609e-22 0)
(-4.80441e-06 5.86125e-22 0)
(-4.80438e-06 5.28211e-22 0)
(-4.80437e-06 -2.97305e-25 0)
(-4.80436e-06 6.22678e-23 0)
(-4.80436e-06 1.62373e-23 0)
(-4.81637e-06 -1.46939e-20 0)
(-4.81637e-06 4.84581e-21 0)
(-4.81617e-06 -7.51936e-22 0)
(-4.81612e-06 3.38749e-22 0)
(-4.81598e-06 9.60393e-23 0)
(-4.81593e-06 5.24576e-22 0)
(-4.81582e-06 7.03992e-22 0)
(-4.81576e-06 7.13497e-22 0)
(-4.81568e-06 7.07659e-22 0)
(-4.81563e-06 2.14644e-22 0)
(-4.81557e-06 -4.97161e-22 0)
(-4.81552e-06 2.57216e-23 0)
(-4.81547e-06 5.21882e-22 0)
(-4.81544e-06 6.65074e-22 0)
(-4.8154e-06 7.30305e-22 0)
(-4.81538e-06 6.30734e-22 0)
(-4.81535e-06 4.73284e-22 0)
(-4.81534e-06 6.62243e-23 0)
(-4.81534e-06 -1.22122e-22 0)
(-4.81533e-06 1.38734e-22 0)
(-4.82742e-06 -2.12395e-20 0)
(-4.82742e-06 1.16035e-21 0)
(-4.82723e-06 -1.54553e-21 0)
(-4.82717e-06 -3.65369e-22 0)
(-4.82704e-06 2.26571e-23 0)
(-4.82697e-06 2.39636e-22 0)
(-4.82688e-06 8.05822e-23 0)
(-4.8268e-06 3.00196e-22 0)
(-4.82674e-06 7.79238e-22 0)
(-4.82667e-06 2.6992e-22 0)
(-4.82662e-06 -4.05538e-22 0)
(-4.82656e-06 -4.62296e-23 0)
(-4.82652e-06 5.54331e-22 0)
(-4.82648e-06 7.10695e-22 0)
(-4.82645e-06 7.96299e-22 0)
(-4.82643e-06 2.8565e-22 0)
(-4.8264e-06 -9.26134e-23 0)
(-4.82639e-06 -1.56362e-22 0)
(-4.82638e-06 -6.21424e-22 0)
(-4.82638e-06 -3.65867e-22 0)
(-4.8392e-06 -7.31556e-21 0)
(-4.8392e-06 8.24966e-22 0)
(-4.83902e-06 -3.49997e-22 0)
(-4.83896e-06 -1.51187e-22 0)
(-4.83882e-06 3.14952e-22 0)
(-4.83877e-06 4.90065e-22 0)
(-4.83865e-06 4.41114e-22 0)
(-4.83861e-06 1.86888e-24 0)
(-4.83851e-06 2.18245e-23 0)
(-4.83847e-06 1.94883e-22 0)
(-4.83838e-06 2.86218e-22 0)
(-4.83837e-06 -3.86402e-22 0)
(-4.83829e-06 -3.71506e-22 0)
(-4.83828e-06 -3.61178e-22 0)
(-4.83822e-06 -2.74901e-22 0)
(-4.83821e-06 2.27901e-22 0)
(-4.83818e-06 2.06059e-22 0)
(-4.83818e-06 -2.50982e-22 0)
(-4.83816e-06 -4.83807e-22 0)
(-4.83816e-06 -5.38084e-22 0)
(-4.85202e-06 6.43147e-20 0)
(-4.85202e-06 -1.06115e-20 0)
(-4.85184e-06 1.65737e-21 0)
(-4.85177e-06 -1.23829e-21 0)
(-4.85164e-06 2.89183e-22 0)
(-4.85157e-06 7.96381e-22 0)
(-4.85148e-06 1.07468e-21 0)
(-4.8514e-06 9.33247e-22 0)
(-4.85133e-06 6.94399e-22 0)
(-4.85127e-06 7.70523e-22 0)
(-4.85121e-06 7.44695e-22 0)
(-4.85116e-06 2.28782e-22 0)
(-4.85111e-06 2.22798e-22 0)
(-4.85108e-06 9.69617e-23 0)
(-4.85104e-06 -3.76982e-22 0)
(-4.85102e-06 -4.40649e-22 0)
(-4.851e-06 -3.50802e-22 0)
(-4.85099e-06 -2.21258e-22 0)
(-4.85098e-06 3.45351e-23 0)
(-4.85097e-06 -2.96458e-23 0)
(-4.86577e-06 -1.07212e-19 0)
(-4.86577e-06 1.95954e-20 0)
(-4.86558e-06 -4.84439e-21 0)
(-4.86552e-06 6.62426e-22 0)
(-4.86538e-06 -1.42418e-22 0)
(-4.86533e-06 1.0618e-22 0)
(-4.86521e-06 2.78543e-22 0)
(-4.86516e-06 5.90216e-22 0)
(-4.86507e-06 3.96652e-22 0)
(-4.86503e-06 2.04991e-22 0)
(-4.86495e-06 1.05806e-22 0)
(-4.86492e-06 1.8047e-22 0)
(-4.86485e-06 3.0924e-22 0)
(-4.86483e-06 4.30782e-22 0)
(-4.86478e-06 2.30322e-23 0)
(-4.86477e-06 -4.20128e-22 0)
(-4.86474e-06 -1.71169e-22 0)
(-4.86473e-06 2.70033e-22 0)
(-4.86472e-06 1.39879e-23 0)
(-4.86472e-06 1.95684e-22 0)
(-4.87983e-06 4.76973e-20 0)
(-4.87983e-06 -1.27045e-20 0)
(-4.87964e-06 3.65601e-21 0)
(-4.87958e-06 5.69823e-23 0)
(-4.87944e-06 3.59353e-22 0)
(-4.87938e-06 -3.10457e-22 0)
(-4.87928e-06 -2.17482e-22 0)
(-4.87921e-06 -1.83909e-24 0)
(-4.87913e-06 2.2502e-23 0)
(-4.87907e-06 -9.59577e-23 0)
(-4.87901e-06 -6.54854e-22 0)
(-4.87896e-06 -5.61651e-22 0)
(-4.87892e-06 1.43024e-22 0)
(-4.87887e-06 8.54055e-22 0)
(-4.87884e-06 9.66411e-22 0)
(-4.87881e-06 7.62241e-22 0)
(-4.8788e-06 2.6878e-22 0)
(-4.87878e-06 1.9317e-22 0)
(-4.87878e-06 -1.30493e-22 0)
(-4.87877e-06 1.19231e-22 0)
(-4.89293e-06 1.16002e-19 0)
(-4.89292e-06 -2.30403e-20 0)
(-4.89273e-06 5.59955e-21 0)
(-4.89267e-06 -2.68837e-22 0)
(-4.89252e-06 6.78799e-22 0)
(-4.89248e-06 2.45213e-22 0)
(-4.89235e-06 2.43798e-22 0)
(-4.89232e-06 3.43397e-22 0)
(-4.89221e-06 2.74213e-22 0)
(-4.89217e-06 -4.34645e-22 0)
(-4.89209e-06 -5.62125e-22 0)
(-4.89206e-06 1.05472e-22 0)
(-4.89199e-06 5.85774e-22 0)
(-4.89198e-06 7.24189e-22 0)
(-4.89192e-06 1.05731e-21 0)
(-4.89191e-06 1.13355e-21 0)
(-4.89188e-06 5.17862e-24 0)
(-4.89188e-06 -4.65109e-22 0)
(-4.89186e-06 -1.98967e-22 0)
(-4.89186e-06 -8.84089e-24 0)
(-4.90324e-06 -1.18377e-19 0)
(-4.90324e-06 2.34892e-20 0)
(-4.90305e-06 -6.08535e-21 0)
(-4.90299e-06 1.24358e-21 0)
(-4.90286e-06 -6.32334e-22 0)
(-4.9028e-06 -3.69518e-22 0)
(-4.9027e-06 -3.55e-22 0)
(-4.90263e-06 -1.27828e-22 0)
(-4.90255e-06 -4.13465e-22 0)
(-4.9025e-06 -4.3293e-22 0)
(-4.90243e-06 5.25778e-22 0)
(-4.9024e-06 4.81276e-22 0)
(-4.90233e-06 -5.05641e-22 0)
(-4.90231e-06 -5.49196e-22 0)
(-4.90226e-06 -1.73902e-22 0)
(-4.90225e-06 5.11089e-23 0)
(-4.90222e-06 8.71398e-24 0)
(-4.90221e-06 -5.71345e-22 0)
(-4.9022e-06 -4.51696e-22 0)
(-4.9022e-06 -5.27791e-23 0)
(-4.90797e-06 -9.58437e-20 0)
(-4.90796e-06 1.64301e-20 0)
(-4.90796e-06 -3.82226e-21 0)
(-4.90796e-06 6.38127e-22 0)
(-4.90796e-06 -4.8659e-22 0)
(-4.90796e-06 -4.32618e-22 0)
(-4.90795e-06 -2.59998e-22 0)
(-4.90796e-06 1.40471e-23 0)
(-4.90795e-06 -8.61481e-23 0)
(-4.90796e-06 2.99106e-22 0)
(-4.90795e-06 6.12527e-22 0)
(-4.90795e-06 -2.75923e-23 0)
(-4.90795e-06 -6.57923e-22 0)
(-4.90795e-06 -2.77242e-22 0)
(-4.90795e-06 -1.84909e-22 0)
(-4.90795e-06 -4.39815e-22 0)
(-4.90795e-06 -2.72887e-22 0)
(-4.90795e-06 -4.05422e-22 0)
(-4.90795e-06 -2.7617e-22 0)
(-4.90795e-06 2.60291e-23 0)
)
;

boundaryField
{
    movingWall
    {
        type            calculated;
        value           nonuniform List<vector> 
20
(
(-4.90797e-06 -0 -0)
(-4.90796e-06 -0 -0)
(-4.90796e-06 -0 -0)
(-4.90796e-06 -0 -0)
(-4.90796e-06 -0 -0)
(-4.90796e-06 -0 -0)
(-4.90795e-06 -0 -0)
(-4.90796e-06 -0 -0)
(-4.90795e-06 -0 -0)
(-4.90796e-06 -0 -0)
(-4.90795e-06 -0 -0)
(-4.90795e-06 -0 -0)
(-4.90795e-06 -0 -0)
(-4.90795e-06 -0 -0)
(-4.90795e-06 -0 -0)
(-4.90795e-06 -0 -0)
(-4.90795e-06 -0 -0)
(-4.90795e-06 -0 -0)
(-4.90795e-06 -0 -0)
(-4.90795e-06 -0 -0)
)
;
    }
    fixedWalls
    {
        type            calculated;
        value           nonuniform List<vector> 
60
(
(-4.10937e-06 -0 -0)
(-4.19636e-06 -0 -0)
(-4.33184e-06 -0 -0)
(-4.47135e-06 -0 -0)
(-4.58626e-06 -0 -0)
(-4.66844e-06 -0 -0)
(-4.72229e-06 -0 -0)
(-4.75627e-06 -0 -0)
(-4.7781e-06 -0 -0)
(-4.79331e-06 -0 -0)
(-4.80539e-06 -0 -0)
(-4.81637e-06 -0 -0)
(-4.82742e-06 -0 -0)
(-4.8392e-06 -0 -0)
(-4.85202e-06 -0 -0)
(-4.86577e-06 -0 -0)
(-4.87983e-06 -0 -0)
(-4.89293e-06 -0 -0)
(-4.90324e-06 -0 -0)
(-4.90797e-06 -0 -0)
(-4.10936e-06 -0 -0)
(-4.19559e-06 -0 -0)
(-4.33101e-06 -0 -0)
(-4.47046e-06 -0 -0)
(-4.58533e-06 -0 -0)
(-4.66747e-06 -0 -0)
(-4.7213e-06 -0 -0)
(-4.75526e-06 -0 -0)
(-4.77708e-06 -0 -0)
(-4.79229e-06 -0 -0)
(-4.80436e-06 -0 -0)
(-4.81533e-06 -0 -0)
(-4.82638e-06 -0 -0)
(-4.83816e-06 -0 -0)
(-4.85097e-06 -0 -0)
(-4.86472e-06 -0 -0)
(-4.87877e-06 -0 -0)
(-4.89186e-06 -0 -0)
(-4.9022e-06 -0 -0)
(-4.90795e-06 -0 -0)
(-4.10937e-06 -0 -0)
(-4.10937e-06 -0 -0)
(-4.10937e-06 -0 -0)
(-4.10937e-06 -0 -0)
(-4.10937e-06 -0 -0)
(-4.10937e-06 -0 -0)
(-4.10936e-06 -0 -0)
(-4.10937e-06 -0 -0)
(-4.10936e-06 -0 -0)
(-4.10936e-06 -0 -0)
(-4.10936e-06 -0 -0)
(-4.10936e-06 -0 -0)
(-4.10936e-06 -0 -0)
(-4.10936e-06 -0 -0)
(-4.10936e-06 -0 -0)
(-4.10936e-06 -0 -0)
(-4.10936e-06 -0 -0)
(-4.10936e-06 -0 -0)
(-4.10936e-06 -0 -0)
(-4.10936e-06 -0 -0)
)
;
    }
    frontAndBack
    {
        type            empty;
    }
}


// ************************************************************************* //
