/*--------------------------------*- C++ -*----------------------------------*\
| =========                 |                                                 |
| \\      /  F ield         | OpenFOAM: The Open Source CFD Toolbox           |
|  \\    /   O peration     | Version:  2312                                  |
|   \\  /    A nd           | Website:  www.openfoam.com                      |
|    \\/     M anipulation  |                                                 |
\*---------------------------------------------------------------------------*/
FoamFile
{
    version     2.0;
    format      ascii;
    arch        "LSB;label=32;scalar=64";
    class       volTensorField;
    location    "8";
    object      kU2;
}
// * * * * * * * * * * * * * * * * * * * * * * * * * * * * * * * * * * * * * //

dimensions      [0 4 -4 0 0 0 0];

internalField   nonuniform List<tensor> 
400
(
(4.10937e-06 -1.27739e-19 -0 -1.27789e-19 3.97228e-33 0 -0 0 0)
(4.10937e-06 2.56984e-20 -0 2.62496e-20 1.64155e-34 -0 -0 -0 0)
(4.10937e-06 -5.45771e-21 -0 -5.53595e-21 7.35237e-36 0 -0 0 0)
(4.10937e-06 1.38685e-21 -0 1.35204e-21 4.56291e-37 -0 -0 -0 0)
(4.10937e-06 -4.89181e-22 -0 -3.43952e-22 4.09442e-38 0 -0 0 0)
(4.10937e-06 -3.88329e-22 -0 -2.14532e-22 2.0273e-38 0 -0 0 0)
(4.10936e-06 -1.07472e-22 -0 -3.3275e-22 8.70241e-39 0 -0 0 0)
(4.10937e-06 -1.10601e-22 -0 -5.28053e-22 1.42122e-38 0 -0 0 0)
(4.10936e-06 -7.23099e-22 -0 -7.47423e-22 1.31519e-37 0 -0 0 0)
(4.10936e-06 -5.28916e-22 -0 -3.27794e-22 4.21904e-38 0 -0 0 0)
(4.10936e-06 -2.66308e-22 -0 6.67243e-23 -4.32408e-39 -0 -0 0 0)
(4.10936e-06 -1.16034e-22 -0 -7.27006e-23 2.05282e-39 0 -0 0 0)
(4.10936e-06 -3.05902e-22 -0 -4.23368e-22 3.15157e-38 0 -0 0 0)
(4.10936e-06 -2.30504e-22 -0 -2.03406e-22 1.14095e-38 0 -0 0 0)
(4.10936e-06 -1.61584e-22 -0 -1.43625e-22 5.64748e-39 0 -0 0 0)
(4.10936e-06 -2.25681e-22 -0 -9.72458e-23 5.34063e-39 0 -0 0 0)
(4.10936e-06 -3.23388e-22 -0 -1.25213e-22 9.85373e-39 0 -0 0 0)
(4.10936e-06 -8.89315e-23 -0 1.14568e-22 -2.4794e-39 -0 -0 0 0)
(4.10936e-06 1.48733e-22 -0 -9.78073e-23 -3.54002e-39 0 -0 -0 0)
(4.10936e-06 1.41726e-22 -0 -2.49033e-22 -8.58884e-39 0 -0 -0 0)
(4.19636e-06 -3.29007e-20 -0 -3.19947e-20 2.50848e-34 0 -0 0 0)
(4.19636e-06 4.82142e-21 -0 5.61829e-21 6.45516e-36 -0 -0 -0 0)
(4.19622e-06 -9.06868e-22 -0 -8.92085e-22 1.92793e-37 0 -0 0 0)
(4.19618e-06 1.85857e-22 -0 1.81502e-22 8.03907e-39 -0 -0 -0 0)
(4.19608e-06 -3.73527e-22 -0 1.09062e-23 -9.70853e-40 -0 -0 0 0)
(4.19604e-06 -7.23385e-23 -0 1.42011e-22 -2.44822e-39 -0 -0 0 0)
(4.19595e-06 3.28803e-22 -0 1.61626e-22 1.26653e-38 -0 -0 -0 0)
(4.19592e-06 2.04829e-22 -0 -1.84868e-22 -9.02458e-39 0 -0 -0 0)
(4.19585e-06 -4.59222e-22 -0 -5.47776e-22 5.99524e-38 0 -0 0 0)
(4.19582e-06 -6.88957e-22 -0 -1.15169e-22 1.89109e-38 0 -0 0 0)
(4.19576e-06 1.8252e-23 -0 2.17746e-22 9.47219e-40 -0 -0 -0 0)
(4.19574e-06 -2.02515e-22 -0 -2.4214e-22 1.16873e-38 0 -0 0 0)
(4.19569e-06 -4.50397e-22 -0 -4.60435e-22 4.94266e-38 0 -0 0 0)
(4.19568e-06 -1.82246e-23 -0 -4.39572e-24 1.90936e-41 0 -0 0 0)
(4.19564e-06 -1.24958e-22 -0 -2.48211e-22 7.39245e-39 0 -0 0 0)
(4.19563e-06 -6.30624e-22 -0 -5.24995e-22 7.89093e-38 0 -0 0 0)
(4.1956e-06 -5.07507e-22 -0 -3.66876e-22 4.43779e-38 0 -0 0 0)
(4.1956e-06 -2.59737e-22 -0 -1.07371e-22 6.64702e-39 0 -0 0 0)
(4.19559e-06 3.84582e-22 -0 1.02129e-22 9.36145e-39 -0 -0 -0 0)
(4.19559e-06 4.67552e-22 -0 -6.35615e-23 -7.08321e-39 0 -0 -0 0)
(4.33184e-06 7.17337e-20 -0 7.39463e-20 1.22452e-33 -0 -0 -0 0)
(4.33184e-06 -1.37681e-20 -0 -1.36943e-20 4.35253e-35 0 -0 0 0)
(4.33169e-06 2.10543e-21 -0 2.79494e-21 1.35849e-36 -0 -0 -0 0)
(4.33164e-06 -9.77442e-22 -0 -2.04432e-22 4.61304e-38 0 -0 0 0)
(4.33153e-06 8.23746e-22 -0 9.84197e-22 1.87169e-37 -0 -0 -0 0)
(4.33149e-06 1.01937e-21 -0 8.92635e-22 2.10072e-37 -0 -0 -0 0)
(4.3314e-06 8.48912e-22 -0 8.18772e-22 1.60471e-37 -0 -0 -0 0)
(4.33135e-06 3.91106e-22 -0 3.96305e-22 3.57849e-38 -0 -0 -0 0)
(4.33129e-06 2.81443e-22 -0 2.38468e-22 1.54954e-38 -0 -0 -0 0)
(4.33124e-06 -1.74986e-22 -0 -1.16421e-23 4.70349e-40 0 -0 0 0)
(4.33119e-06 1.93645e-22 -0 1.94873e-22 8.71263e-39 -0 -0 -0 0)
(4.33116e-06 9.15447e-23 -0 2.62487e-22 5.54801e-39 -0 -0 -0 0)
(4.33112e-06 9.99297e-23 -0 2.97392e-22 6.86157e-39 -0 -0 -0 0)
(4.33109e-06 3.04845e-22 -0 1.47091e-22 1.03531e-38 -0 -0 -0 0)
(4.33106e-06 1.74054e-22 -0 -9.35314e-23 -3.75879e-39 0 -0 -0 0)
(4.33104e-06 -1.83547e-22 -0 -3.16504e-22 1.34133e-38 0 -0 0 0)
(4.33102e-06 -7.60054e-23 -0 -1.52308e-22 2.67287e-39 0 -0 0 0)
(4.33102e-06 1.58445e-22 -0 -3.31336e-23 -1.21215e-39 0 -0 -0 0)
(4.33101e-06 6.61325e-22 -0 5.26442e-22 8.03853e-38 -0 -0 -0 0)
(4.33101e-06 6.81956e-22 -0 4.56666e-22 7.19061e-38 -0 -0 -0 0)
(4.47135e-06 4.64075e-20 -0 4.70305e-20 4.88123e-34 -0 -0 -0 0)
(4.47136e-06 -9.45375e-21 -0 -9.40993e-21 1.98953e-35 0 -0 0 0)
(4.47118e-06 1.11026e-21 -0 1.7983e-21 4.46544e-37 -0 -0 -0 0)
(4.47115e-06 -8.47289e-22 -0 -1.95575e-22 3.70617e-38 0 -0 0 0)
(4.47102e-06 6.74553e-22 -0 7.72104e-22 1.16489e-37 -0 -0 -0 0)
(4.47098e-06 5.00899e-22 -0 4.68047e-22 5.24369e-38 -0 -0 -0 0)
(4.47088e-06 2.1979e-22 -0 2.77375e-22 1.36359e-38 -0 -0 -0 0)
(4.47084e-06 1.59483e-23 -0 1.22689e-22 4.37655e-40 -0 -0 -0 0)
(4.47076e-06 7.87816e-23 -0 2.18575e-22 3.85162e-39 -0 -0 -0 0)
(4.47071e-06 1.66758e-22 -0 -5.09955e-23 -1.90214e-39 0 -0 -0 0)
(4.47066e-06 1.2922e-22 -0 1.55371e-22 4.49085e-39 -0 -0 -0 0)
(4.47062e-06 2.57773e-22 -0 1.65396e-22 9.53663e-39 -0 -0 -0 0)
(4.47058e-06 1.45499e-22 -0 -3.43175e-23 -1.11689e-39 0 -0 -0 0)
(4.47055e-06 -2.47224e-22 -0 -4.35348e-22 2.40749e-38 0 -0 0 0)
(4.47052e-06 -3.62452e-22 -0 -5.49122e-22 4.45206e-38 0 -0 0 0)
(4.4705e-06 -3.91478e-22 -0 -5.5026e-22 4.81858e-38 0 -0 0 0)
(4.47048e-06 -2.86355e-22 -0 1.86796e-23 -1.19652e-39 -0 -0 0 0)
(4.47047e-06 1.76872e-22 -0 2.50167e-22 9.8977e-39 -0 -0 -0 0)
(4.47047e-06 4.37818e-22 -0 3.1755e-22 3.10994e-38 -0 -0 -0 0)
(4.47046e-06 5.58713e-22 -0 3.19832e-22 3.99722e-38 -0 -0 -0 0)
(4.58626e-06 -9.80204e-20 -0 -9.95291e-20 2.1272e-33 0 -0 0 0)
(4.58626e-06 1.91123e-20 -0 1.96528e-20 8.18994e-35 -0 -0 -0 0)
(4.58609e-06 -4.34099e-21 -0 -4.46571e-21 4.22705e-36 0 -0 0 0)
(4.58604e-06 5.51014e-22 -0 4.3824e-22 5.26547e-38 -0 -0 -0 0)
(4.58591e-06 -5.86724e-22 -0 -3.73551e-22 4.77924e-38 0 -0 0 0)
(4.58586e-06 -5.37448e-22 -0 -2.44514e-22 2.86562e-38 0 -0 0 0)
(4.58577e-06 -7.31353e-22 -0 -3.2538e-22 5.18927e-38 0 -0 0 0)
(4.58571e-06 -2.40814e-22 -0 7.34285e-23 -3.85602e-39 -0 -0 0 0)
(4.58565e-06 6.35845e-23 -0 3.03649e-23 4.21039e-40 -0 -0 -0 0)
(4.58559e-06 -2.23024e-22 -0 -4.13371e-22 2.01047e-38 0 -0 0 0)
(4.58554e-06 -4.13247e-22 -0 -4.97671e-22 4.485e-38 0 -0 0 0)
(4.58549e-06 -4.54746e-22 -0 -5.90034e-22 5.85141e-38 0 -0 0 0)
(4.58545e-06 -3.47575e-22 -0 -3.49309e-22 2.64775e-38 0 -0 0 0)
(4.58542e-06 -2.22217e-22 -0 -6.64401e-23 3.2198e-39 0 -0 0 0)
(4.58539e-06 -1.17667e-24 -0 1.49811e-22 -3.84435e-41 -0 -0 0 0)
(4.58536e-06 1.59309e-22 -0 1.1828e-22 4.10938e-39 -0 -0 -0 0)
(4.58535e-06 1.64716e-22 -0 1.74854e-22 6.28113e-39 -0 -0 -0 0)
(4.58534e-06 -2.06998e-22 -0 -1.93202e-22 8.7218e-39 0 -0 0 0)
(4.58533e-06 -3.2399e-23 -0 -1.41369e-22 9.98885e-40 0 -0 0 0)
(4.58533e-06 3.36554e-22 -0 -3.90871e-23 -2.86892e-39 0 -0 -0 0)
(4.66844e-06 9.47321e-20 -0 9.72021e-20 1.97243e-33 -0 -0 -0 0)
(4.66844e-06 -1.81756e-20 -0 -1.87207e-20 7.28854e-35 0 -0 0 0)
(4.66826e-06 4.21664e-21 -0 4.14623e-21 3.74511e-36 -0 -0 -0 0)
(4.6682e-06 -1.06167e-21 -0 -1.02942e-21 2.34115e-37 0 -0 0 0)
(4.66808e-06 -2.87992e-22 -0 9.10475e-23 -5.61707e-39 -0 -0 0 0)
(4.66802e-06 -2.95499e-22 -0 -5.28446e-23 3.34521e-39 0 -0 0 0)
(4.66793e-06 -1.98044e-22 -0 -5.48937e-23 2.32895e-39 0 -0 0 0)
(4.66787e-06 -9.51195e-23 -0 -1.36021e-22 2.77177e-39 0 -0 0 0)
(4.66779e-06 -3.88403e-22 -0 -7.57919e-22 6.30657e-38 0 -0 0 0)
(4.66774e-06 -9.11626e-22 -0 -1.04805e-21 2.04688e-37 0 -0 0 0)
(4.66768e-06 -1.05071e-21 -0 -8.61798e-22 1.93994e-37 0 -0 0 0)
(4.66764e-06 -6.37858e-22 -0 -4.59911e-22 6.28493e-38 0 -0 0 0)
(4.66759e-06 -2.82309e-22 -0 -3.78956e-22 2.29203e-38 0 -0 0 0)
(4.66756e-06 -1.37087e-22 -0 -1.1844e-22 3.4786e-39 0 -0 0 0)
(4.66753e-06 3.20935e-22 -0 5.94706e-22 4.08915e-38 -0 -0 -0 0)
(4.66751e-06 9.50427e-22 -0 1.09575e-21 2.23124e-37 -0 -0 -0 0)
(4.66749e-06 6.49276e-22 -0 4.2896e-22 5.96709e-38 -0 -0 -0 0)
(4.66748e-06 9.87593e-23 -0 -9.94415e-23 -2.10408e-39 0 -0 -0 0)
(4.66747e-06 -9.7288e-23 -0 -2.44983e-22 5.10639e-39 0 -0 0 0)
(4.66747e-06 1.24229e-22 -0 -3.09064e-22 -8.226e-39 0 -0 -0 0)
(4.72229e-06 -7.62393e-21 -0 -8.25695e-21 1.33305e-35 0 -0 0 0)
(4.72229e-06 7.67287e-22 -0 1.06961e-21 1.73793e-37 -0 -0 -0 0)
(4.72212e-06 3.98359e-22 -0 5.15835e-22 4.3516e-38 -0 -0 -0 0)
(4.72205e-06 5.51855e-22 -0 3.81674e-22 4.46053e-38 -0 -0 -0 0)
(4.72193e-06 3.24705e-22 -0 -5.74522e-23 -3.95072e-39 0 -0 -0 0)
(4.72186e-06 -1.55763e-22 -0 -1.8139e-22 5.98365e-39 0 -0 0 0)
(4.72178e-06 5.28882e-23 -0 1.781e-22 1.99489e-39 -0 -0 -0 0)
(4.7217e-06 -5.5162e-23 -0 6.42085e-23 -7.50124e-40 -0 -0 0 0)
(4.72164e-06 -2.5173e-22 -0 -4.31938e-22 2.30284e-38 0 -0 0 0)
(4.72158e-06 -3.43227e-22 -0 -1.88741e-22 1.37202e-38 0 -0 0 0)
(4.72153e-06 -9.9853e-23 -0 1.09955e-22 -2.32538e-39 -0 -0 0 0)
(4.72147e-06 -3.46403e-23 -0 -9.82865e-23 7.21105e-40 0 -0 0 0)
(4.72143e-06 -3.3223e-22 -0 -9.13293e-22 6.42651e-38 0 -0 0 0)
(4.7214e-06 -8.24034e-22 -0 -9.73338e-22 1.69878e-37 0 -0 0 0)
(4.72136e-06 -3.027e-22 -0 -2.98026e-22 1.91073e-38 0 -0 0 0)
(4.72134e-06 8.3171e-23 -0 -1.3909e-22 -2.45021e-39 0 -0 -0 0)
(4.72132e-06 -3.30499e-22 -0 -3.93456e-22 2.75425e-38 0 -0 0 0)
(4.72131e-06 -3.04926e-22 -0 -1.31906e-22 8.51915e-39 0 -0 0 0)
(4.7213e-06 -2.16008e-22 -0 -1.00948e-22 4.61858e-39 0 -0 0 0)
(4.7213e-06 -1.53201e-22 -0 -4.25454e-22 1.38055e-38 0 -0 0 0)
(4.75627e-06 -1.60323e-19 -0 -1.59098e-19 5.36285e-33 0 -0 0 0)
(4.75627e-06 3.72923e-20 -0 3.72571e-20 2.9212e-34 -0 -0 -0 0)
(4.75609e-06 -6.71872e-21 -0 -6.70244e-21 9.46824e-36 0 -0 0 0)
(4.75603e-06 3.63122e-21 -0 3.35892e-21 2.56453e-36 -0 -0 -0 0)
(4.7559e-06 1.1699e-21 -0 3.37304e-22 8.29727e-38 -0 -0 -0 0)
(4.75584e-06 9.86263e-22 -0 4.49418e-22 9.32002e-38 -0 -0 -0 0)
(4.75574e-06 4.51457e-22 -0 8.85974e-23 8.41044e-39 -0 -0 -0 0)
(4.75567e-06 3.10019e-22 -0 -2.65846e-23 -1.73303e-39 0 -0 -0 0)
(4.75561e-06 -2.16598e-24 -0 -4.44894e-22 2.0263e-40 0 -0 0 0)
(4.75555e-06 -7.46495e-22 -0 -1.31435e-21 2.06319e-37 0 -0 0 0)
(4.75549e-06 -1.29411e-21 -0 -1.37522e-21 3.74236e-37 0 -0 0 0)
(4.75544e-06 -1.27324e-21 -0 -8.83141e-22 2.36455e-37 0 -0 0 0)
(4.7554e-06 -6.81617e-22 -0 -3.03675e-22 4.35274e-38 0 -0 0 0)
(4.75536e-06 -2.29911e-22 -0 -7.28674e-23 3.52297e-39 0 -0 0 0)
(4.75533e-06 9.65245e-23 -0 3.11393e-23 6.32072e-40 -0 -0 -0 0)
(4.7553e-06 1.34398e-22 -0 2.02493e-24 5.72299e-41 -0 -0 -0 0)
(4.75528e-06 6.74772e-23 -0 -2.25553e-23 -3.20059e-40 0 -0 -0 0)
(4.75527e-06 -2.03158e-22 -0 -1.83756e-22 7.85057e-39 0 -0 0 0)
(4.75527e-06 -2.56476e-22 -0 -3.37823e-22 1.82205e-38 0 -0 0 0)
(4.75526e-06 -3.04726e-22 -0 -3.81693e-22 2.44596e-38 0 -0 0 0)
(4.7781e-06 2.06879e-19 -0 2.09542e-19 9.07263e-33 -0 -0 -0 0)
(4.7781e-06 -4.09606e-20 -0 -4.2212e-20 3.61865e-34 0 -0 0 0)
(4.77792e-06 9.8127e-21 -0 9.92137e-21 2.03761e-35 -0 -0 -0 0)
(4.77785e-06 -1.40656e-21 -0 -1.74262e-21 5.13013e-37 0 -0 0 0)
(4.77773e-06 5.5635e-22 -0 1.47725e-22 1.7202e-38 -0 -0 -0 0)
(4.77767e-06 -1.29503e-22 -0 -6.14827e-22 1.66654e-38 0 -0 0 0)
(4.77757e-06 -2.29084e-22 -0 -8.21001e-22 3.93669e-38 0 -0 0 0)
(4.77751e-06 -9.56968e-23 -0 -7.40247e-22 1.48277e-38 0 -0 0 0)
(4.77743e-06 -2.12722e-22 -0 -4.87382e-22 2.17014e-38 0 -0 0 0)
(4.77737e-06 -2.05436e-22 -0 -8.99362e-22 3.86742e-38 0 -0 0 0)
(4.77731e-06 -8.71656e-22 -0 -1.14209e-21 2.08383e-37 0 -0 0 0)
(4.77727e-06 -9.97072e-22 -0 -8.11209e-22 1.69309e-37 0 -0 0 0)
(4.77721e-06 -1.52661e-22 -0 2.60106e-22 -8.31195e-39 -0 -0 0 0)
(4.77718e-06 4.7391e-22 -0 4.6026e-22 4.5659e-38 -0 -0 -0 0)
(4.77715e-06 -5.06553e-23 -0 2.13546e-24 -2.26438e-41 -0 -0 0 0)
(4.77713e-06 -3.12506e-22 -0 1.71647e-22 -1.12286e-38 -0 -0 0 0)
(4.7771e-06 2.494e-22 -0 3.2324e-22 1.68755e-38 -0 -0 -0 0)
(4.77709e-06 1.28064e-22 -0 -2.38387e-22 -6.39065e-39 0 -0 -0 0)
(4.77709e-06 -1.95069e-22 -0 -6.80349e-22 2.77816e-38 0 -0 0 0)
(4.77708e-06 -2.57107e-22 -0 -2.22347e-22 1.19669e-38 0 -0 0 0)
(4.79331e-06 -4.72473e-20 -0 -4.94774e-20 4.87695e-34 0 -0 0 0)
(4.79331e-06 7.60948e-21 -0 8.36689e-21 1.32826e-35 -0 -0 -0 0)
(4.79313e-06 -5.4759e-22 -0 -5.43414e-22 6.20823e-38 0 -0 0 0)
(4.79306e-06 1.1921e-21 -0 9.37884e-22 2.33264e-37 -0 -0 -0 0)
(4.79294e-06 7.97506e-22 -0 3.62279e-22 6.02803e-38 -0 -0 -0 0)
(4.79288e-06 5.24726e-22 -0 -1.14948e-22 -1.25845e-38 0 -0 -0 0)
(4.79278e-06 4.04677e-22 -0 -5.07797e-22 -4.28757e-38 0 -0 -0 0)
(4.79271e-06 -1.72385e-22 -0 -8.62012e-22 3.1005e-38 0 -0 0 0)
(4.79264e-06 -3.65622e-22 -0 -5.4134e-22 4.12978e-38 0 -0 0 0)
(4.79258e-06 2.41955e-23 -0 -7.9573e-23 -4.01728e-40 0 -0 -0 0)
(4.79252e-06 -3.13766e-22 -0 -5.092e-22 3.33373e-38 0 -0 0 0)
(4.79247e-06 -6.74382e-22 -0 -7.36574e-22 1.03648e-37 0 -0 0 0)
(4.79243e-06 -4.73328e-22 -0 -4.35764e-22 4.30386e-38 0 -0 0 0)
(4.79239e-06 -1.15768e-22 -0 -2.18979e-22 5.28978e-39 0 -0 0 0)
(4.79236e-06 -2.21497e-22 -0 -2.92708e-22 1.35286e-38 0 -0 0 0)
(4.79233e-06 -6.07744e-22 -0 -3.68275e-22 4.67032e-38 0 -0 0 0)
(4.79231e-06 -6.3729e-22 -0 -3.5233e-22 4.68535e-38 0 -0 0 0)
(4.7923e-06 -2.62263e-22 -0 -3.5913e-22 1.96537e-38 0 -0 0 0)
(4.79229e-06 -3.50315e-22 -0 -2.84526e-22 2.07988e-38 0 -0 0 0)
(4.79229e-06 2.33077e-22 -0 7.66383e-23 3.72737e-39 -0 -0 -0 0)
(4.80539e-06 -4.09502e-20 -0 -3.89344e-20 3.31788e-34 0 -0 0 0)
(4.80539e-06 1.01773e-20 -0 9.46146e-21 2.00383e-35 -0 -0 -0 0)
(4.8052e-06 -2.16393e-21 -0 -2.33607e-21 1.052e-36 0 -0 0 0)
(4.80514e-06 1.19104e-21 -0 1.23406e-21 3.05883e-37 -0 -0 -0 0)
(4.80501e-06 9.73091e-22 -0 8.61043e-22 1.74375e-37 -0 -0 -0 0)
(4.80495e-06 1.41788e-21 -0 7.03353e-22 2.0755e-37 -0 -0 -0 0)
(4.80485e-06 5.34878e-22 -0 -3.3363e-22 -3.71398e-38 0 -0 -0 0)
(4.80479e-06 -2.31278e-22 -0 -8.80059e-22 4.23615e-38 0 -0 0 0)
(4.80471e-06 -4.80944e-22 -0 -8.79326e-22 8.80193e-38 0 -0 0 0)
(4.80465e-06 -8.14177e-22 -0 -7.08585e-22 1.20074e-37 0 -0 0 0)
(4.80459e-06 -1.1088e-21 -0 -8.49497e-22 1.96046e-37 0 -0 0 0)
(4.80455e-06 -9.33842e-22 -0 -6.78051e-22 1.3179e-37 0 -0 0 0)
(4.80449e-06 -5.83458e-22 -0 -4.65006e-22 5.64704e-38 0 -0 0 0)
(4.80447e-06 -2.77491e-22 -0 -2.68946e-22 1.55335e-38 0 -0 0 0)
(4.80442e-06 8.31921e-23 -0 -2.33609e-22 -4.04512e-39 0 -0 -0 0)
(4.80441e-06 -1.94226e-22 -0 -5.86125e-22 2.36951e-38 0 -0 0 0)
(4.80438e-06 -8.02566e-22 -0 -5.28211e-22 8.8237e-38 0 -0 0 0)
(4.80437e-06 -6.86614e-22 -0 2.97305e-25 -4.24891e-41 -0 -0 0 0)
(4.80436e-06 -4.78226e-22 -0 -6.22678e-23 6.19813e-39 0 -0 0 0)
(4.80436e-06 1.82434e-22 -0 -1.62373e-23 -6.16571e-40 0 -0 -0 0)
(4.81637e-06 1.54217e-20 -0 1.46939e-20 4.7049e-35 -0 -0 -0 0)
(4.81637e-06 -4.83948e-21 -0 -4.84581e-21 4.86906e-36 0 -0 0 0)
(4.81617e-06 8.93677e-22 -0 7.51936e-22 1.39527e-37 -0 -0 -0 0)
(4.81612e-06 1.51046e-23 -0 -3.38749e-22 -1.06241e-39 0 -0 -0 0)
(4.81598e-06 3.04968e-22 -0 -9.60393e-23 -6.08161e-39 0 -0 -0 0)
(4.81593e-06 -1.0598e-22 -0 -5.24576e-22 1.15438e-38 0 -0 0 0)
(4.81582e-06 -3.83262e-22 -0 -7.03992e-22 5.60265e-38 0 -0 0 0)
(4.81576e-06 -3.93673e-22 -0 -7.13497e-22 5.83261e-38 0 -0 0 0)
(4.81568e-06 -5.58882e-22 -0 -7.07659e-22 8.2127e-38 0 -0 0 0)
(4.81563e-06 -8.20405e-22 -0 -2.14644e-22 3.65674e-38 0 -0 0 0)
(4.81557e-06 3.14449e-22 -0 4.97161e-22 3.24639e-38 -0 -0 -0 0)
(4.81552e-06 3.38466e-22 -0 -2.57216e-23 -1.80788e-39 0 -0 -0 0)
(4.81547e-06 -4.20182e-22 -0 -5.21882e-22 4.55376e-38 0 -0 0 0)
(4.81544e-06 -7.45868e-22 -0 -6.65074e-22 1.03014e-37 0 -0 0 0)
(4.8154e-06 -7.62393e-22 -0 -7.30305e-22 1.15625e-37 0 -0 0 0)
(4.81538e-06 -4.17967e-22 -0 -6.30734e-22 5.47467e-38 0 -0 0 0)
(4.81535e-06 -4.33246e-22 -0 -4.73284e-22 4.25822e-38 0 -0 0 0)
(4.81534e-06 -8.09586e-22 -0 -6.62243e-23 1.1134e-38 0 -0 0 0)
(4.81534e-06 -3.21997e-22 -0 1.22122e-22 -8.16618e-39 -0 -0 0 0)
(4.81533e-06 -2.35116e-23 -0 -1.38734e-22 6.77391e-40 0 -0 0 0)
(4.82742e-06 1.9316e-20 -0 2.12395e-20 8.49856e-35 -0 -0 -0 0)
(4.82742e-06 -8.32697e-22 -0 -1.16035e-21 2.00152e-37 0 -0 0 0)
(4.82723e-06 1.68444e-21 -0 1.54553e-21 5.39306e-37 -0 -0 -0 0)
(4.82717e-06 8.89806e-22 -0 3.65369e-22 6.73494e-38 -0 -0 -0 0)
(4.82704e-06 4.18725e-22 -0 -2.26571e-23 -1.96541e-39 0 -0 -0 0)
(4.82697e-06 1.00431e-22 -0 -2.39636e-22 -4.98592e-39 0 -0 -0 0)
(4.82688e-06 2.54317e-22 -0 -8.05822e-23 -4.24569e-39 0 -0 -0 0)
(4.8268e-06 -1.99683e-22 -0 -3.00196e-22 1.2419e-38 0 -0 0 0)
(4.82674e-06 -6.2731e-22 -0 -7.79238e-22 1.01274e-37 0 -0 0 0)
(4.82667e-06 -6.14077e-22 -0 -2.6992e-22 3.43408e-38 0 -0 0 0)
(4.82662e-06 4.48001e-22 -0 4.05538e-22 3.76415e-38 -0 -0 -0 0)
(4.82656e-06 4.44319e-22 -0 4.62296e-23 4.25576e-39 -0 -0 -0 0)
(4.82652e-06 -3.29569e-22 -0 -5.54331e-22 3.78513e-38 0 -0 0 0)
(4.82648e-06 -7.00089e-22 -0 -7.10695e-22 1.03088e-37 0 -0 0 0)
(4.82645e-06 -1.05061e-21 -0 -7.96299e-22 1.73337e-37 0 -0 0 0)
(4.82643e-06 -5.76112e-22 -0 -2.8565e-22 3.4097e-38 0 -0 0 0)
(4.8264e-06 6.23298e-23 -0 9.26134e-23 1.19604e-39 -0 -0 -0 0)
(4.82639e-06 2.46889e-22 -0 1.56362e-22 7.99851e-39 -0 -0 -0 0)
(4.82638e-06 2.42075e-22 -0 6.21424e-22 3.11685e-38 -0 -0 -0 0)
(4.82638e-06 1.84846e-22 -0 3.65867e-22 1.40124e-38 -0 -0 -0 0)
(4.8392e-06 7.57089e-21 -0 7.31556e-21 1.14451e-35 -0 -0 -0 0)
(4.8392e-06 -2.99043e-22 -0 -8.24966e-22 5.09795e-38 0 -0 0 0)
(4.83902e-06 2.05383e-22 -0 3.49997e-22 1.4855e-38 -0 -0 -0 0)
(4.83896e-06 6.02182e-23 -0 1.51187e-22 1.88144e-39 -0 -0 -0 0)
(4.83882e-06 -1.13218e-22 -0 -3.14952e-22 7.36917e-39 0 -0 0 0)
(4.83877e-06 -3.19275e-22 -0 -4.90065e-22 3.23359e-38 0 -0 0 0)
(4.83865e-06 -5.42742e-22 -0 -4.41114e-22 4.9479e-38 0 -0 0 0)
(4.83861e-06 -4.28224e-22 -0 -1.86888e-24 1.65398e-40 0 -0 0 0)
(4.83851e-06 3.18022e-24 -0 -2.18245e-23 -1.43447e-41 0 -0 -0 0)
(4.83847e-06 2.87353e-22 -0 -1.94883e-22 -1.15739e-38 0 -0 -0 0)
(4.83838e-06 -3.60905e-22 -0 -2.86218e-22 2.13496e-38 0 -0 0 0)
(4.83837e-06 1.29181e-22 -0 3.86402e-22 1.03167e-38 -0 -0 -0 0)
(4.83829e-06 5.16601e-22 -0 3.71506e-22 3.9667e-38 -0 -0 -0 0)
(4.83828e-06 4.59599e-22 -0 3.61178e-22 3.43091e-38 -0 -0 -0 0)
(4.83822e-06 1.47376e-22 -0 2.74901e-22 8.37368e-39 -0 -0 -0 0)
(4.83821e-06 -1.42488e-22 -0 -2.27901e-22 6.7118e-39 0 -0 0 0)
(4.83818e-06 -9.37741e-23 -0 -2.06059e-22 3.99386e-39 0 -0 0 0)
(4.83818e-06 5.70929e-22 -0 2.50982e-22 2.96171e-38 -0 -0 -0 0)
(4.83816e-06 4.24846e-22 -0 4.83807e-22 4.24838e-38 -0 -0 -0 0)
(4.83816e-06 8.49227e-23 -0 5.38084e-22 9.44482e-39 -0 -0 -0 0)
(4.85202e-06 -6.08732e-20 -0 -6.43147e-20 8.06889e-34 0 -0 0 0)
(4.85202e-06 1.02972e-20 -0 1.06115e-20 2.25202e-35 -0 -0 -0 0)
(4.85184e-06 -1.62983e-21 -0 -1.65737e-21 5.56745e-37 0 -0 0 0)
(4.85177e-06 1.15255e-21 -0 1.23829e-21 2.94159e-37 -0 -0 -0 0)
(4.85164e-06 2.4763e-22 -0 -2.89183e-22 -1.476e-38 0 -0 -0 0)
(4.85157e-06 -5.85459e-22 -0 -7.96381e-22 9.61027e-38 0 -0 0 0)
(4.85148e-06 -1.09006e-21 -0 -1.07468e-21 2.41466e-37 0 -0 0 0)
(4.8514e-06 -8.93002e-22 -0 -9.33247e-22 1.71784e-37 0 -0 0 0)
(4.85133e-06 -6.66747e-22 -0 -6.94399e-22 9.54354e-38 0 -0 0 0)
(4.85127e-06 -7.60888e-22 -0 -7.70523e-22 1.20851e-37 0 -0 0 0)
(4.85121e-06 -1.01254e-21 -0 -7.44695e-22 1.55432e-37 0 -0 0 0)
(4.85116e-06 -3.10499e-22 -0 -2.28782e-22 1.46432e-38 0 -0 0 0)
(4.85111e-06 7.91047e-23 -0 -2.22798e-22 -3.63306e-39 0 -0 -0 0)
(4.85108e-06 -4.18045e-23 -0 -9.69617e-23 8.35573e-40 0 -0 0 0)
(4.85104e-06 5.03577e-23 -0 3.76982e-22 3.91338e-39 -0 -0 -0 0)
(4.85102e-06 2.04715e-22 -0 4.40649e-22 1.85955e-38 -0 -0 -0 0)
(4.851e-06 3.30913e-22 -0 3.50802e-22 2.39302e-38 -0 -0 -0 0)
(4.85099e-06 4.27458e-22 -0 2.21258e-22 1.94967e-38 -0 -0 -0 0)
(4.85098e-06 1.1137e-22 -0 -3.45351e-23 -7.92868e-40 0 -0 -0 0)
(4.85097e-06 -8.55967e-23 -0 2.96458e-23 -5.23107e-40 -0 -0 0 0)
(4.86577e-06 1.04775e-19 -0 1.07212e-19 2.30859e-33 -0 -0 -0 0)
(4.86577e-06 -1.85673e-20 -0 -1.95954e-20 7.47738e-35 0 -0 0 0)
(4.86558e-06 5.02585e-21 -0 4.84439e-21 5.00395e-36 -0 -0 -0 0)
(4.86552e-06 -4.23722e-22 -0 -6.62426e-22 5.76886e-38 0 -0 0 0)
(4.86538e-06 3.75253e-22 -0 1.42418e-22 1.09843e-38 -0 -0 -0 0)
(4.86533e-06 7.45452e-23 -0 -1.0618e-22 -1.62686e-39 0 -0 -0 0)
(4.86521e-06 -1.99446e-22 -0 -2.78543e-22 1.14187e-38 0 -0 0 0)
(4.86516e-06 -5.35559e-22 -0 -5.90216e-22 6.49713e-38 0 -0 0 0)
(4.86507e-06 -5.57197e-22 -0 -3.96652e-22 4.54286e-38 0 -0 0 0)
(4.86503e-06 -4.47833e-22 -0 -2.04991e-22 1.88698e-38 0 -0 0 0)
(4.86495e-06 -3.21952e-22 -0 -1.05806e-22 7.002e-39 0 -0 0 0)
(4.86492e-06 -2.91387e-22 -0 -1.8047e-22 1.08093e-38 0 -0 0 0)
(4.86485e-06 -1.14203e-22 -0 -3.0924e-22 7.25948e-39 0 -0 0 0)
(4.86483e-06 -1.91675e-22 -0 -4.30782e-22 1.69729e-38 0 -0 0 0)
(4.86478e-06 5.35557e-23 -0 -2.30322e-23 -2.53558e-40 0 -0 -0 0)
(4.86477e-06 4.67442e-22 -0 4.20128e-22 4.03689e-38 -0 -0 -0 0)
(4.86474e-06 3.18806e-22 -0 1.71169e-22 1.12174e-38 -0 -0 -0 0)
(4.86473e-06 -1.68342e-22 -0 -2.70033e-22 9.3444e-39 0 -0 0 0)
(4.86472e-06 -9.55327e-23 -0 -1.39879e-23 2.74693e-40 0 -0 0 0)
(4.86472e-06 4.1212e-23 -0 -1.95684e-22 -1.65775e-39 0 -0 -0 0)
(4.87983e-06 -5.01171e-20 -0 -4.76973e-20 4.89863e-34 0 -0 0 0)
(4.87983e-06 1.37919e-20 -0 1.27045e-20 3.59067e-35 -0 -0 -0 0)
(4.87964e-06 -2.79959e-21 -0 -3.65601e-21 2.09756e-36 0 -0 0 0)
(4.87958e-06 5.33172e-22 -0 -5.69823e-23 -6.22623e-39 0 -0 -0 0)
(4.87944e-06 -4.84227e-22 -0 -3.59353e-22 3.56615e-38 0 -0 0 0)
(4.87938e-06 3.93582e-22 -0 3.10457e-22 2.50422e-38 -0 -0 -0 0)
(4.87928e-06 3.15215e-22 -0 2.17482e-22 1.405e-38 -0 -0 -0 0)
(4.87921e-06 5.45319e-23 -0 1.83909e-24 2.05544e-41 -0 -0 -0 0)
(4.87913e-06 -2.82965e-22 -0 -2.2502e-23 1.305e-39 0 -0 0 0)
(4.87907e-06 -3.04368e-23 -0 9.59577e-23 -5.98607e-40 -0 -0 0 0)
(4.87901e-06 3.11374e-22 -0 6.54854e-22 4.17921e-38 -0 -0 -0 0)
(4.87896e-06 4.77382e-22 -0 5.61651e-22 5.49548e-38 -0 -0 -0 0)
(4.87892e-06 2.13046e-22 -0 -1.43024e-22 -6.24539e-39 0 -0 -0 0)
(4.87887e-06 -3.33774e-22 -0 -8.54055e-22 5.84278e-38 0 -0 0 0)
(4.87884e-06 -3.98656e-22 -0 -9.66411e-22 7.89665e-38 0 -0 0 0)
(4.87881e-06 -5.47978e-22 -0 -7.62241e-22 8.56133e-38 0 -0 0 0)
(4.8788e-06 -2.45487e-22 -0 -2.6878e-22 1.35243e-38 0 -0 0 0)
(4.87878e-06 -7.42083e-23 -0 -1.9317e-22 2.9382e-39 0 -0 0 0)
(4.87878e-06 1.23375e-22 -0 1.30493e-22 3.29992e-39 -0 -0 -0 0)
(4.87877e-06 9.10805e-23 -0 -1.19231e-22 -2.22589e-39 0 -0 -0 0)
(4.89293e-06 -1.15253e-19 -0 -1.16002e-19 2.73243e-33 0 -0 0 0)
(4.89292e-06 2.30056e-20 -0 2.30403e-20 1.08331e-34 -0 -0 -0 0)
(4.89273e-06 -4.46569e-21 -0 -5.59955e-21 5.11082e-36 0 -0 0 0)
(4.89267e-06 1.06367e-21 -0 2.68837e-22 5.84453e-38 -0 -0 -0 0)
(4.89252e-06 -7.0867e-22 -0 -6.78799e-22 9.83224e-38 0 -0 0 0)
(4.89248e-06 -4.89532e-22 -0 -2.45213e-22 2.45355e-38 0 -0 0 0)
(4.89235e-06 -4.22366e-22 -0 -2.43798e-22 2.10475e-38 0 -0 0 0)
(4.89232e-06 -2.52937e-22 -0 -3.43397e-22 1.77539e-38 0 -0 0 0)
(4.89221e-06 -5.22633e-22 -0 -2.74213e-22 2.92941e-38 0 -0 0 0)
(4.89217e-06 7.19542e-23 -0 4.34645e-22 6.39276e-39 -0 -0 -0 0)
(4.89209e-06 6.65934e-22 -0 5.62125e-22 7.65191e-38 -0 -0 -0 0)
(4.89206e-06 5.25307e-22 -0 -1.05472e-22 -1.13256e-38 0 -0 -0 0)
(4.89199e-06 -2.55574e-22 -0 -5.85774e-22 3.06028e-38 0 -0 0 0)
(4.89198e-06 -3.87206e-22 -0 -7.24189e-22 5.73204e-38 0 -0 0 0)
(4.89192e-06 -4.83525e-22 -0 -1.05731e-21 1.04506e-37 0 -0 0 0)
(4.89191e-06 -1.01568e-21 -0 -1.13355e-21 2.35352e-37 0 -0 0 0)
(4.89188e-06 -2.96505e-22 -0 -5.17862e-24 3.13885e-40 0 -0 0 0)
(4.89188e-06 4.89862e-22 -0 4.65109e-22 4.6575e-38 -0 -0 -0 0)
(4.89186e-06 3.61024e-22 -0 1.98967e-22 1.4684e-38 -0 -0 -0 0)
(4.89186e-06 -1.28067e-22 -0 8.84089e-24 -2.31451e-40 -0 -0 0 0)
(4.90324e-06 1.17605e-19 -0 1.18377e-19 2.83929e-33 -0 -0 -0 0)
(4.90324e-06 -2.3279e-20 -0 -2.34892e-20 1.11519e-34 0 -0 0 0)
(4.90305e-06 6.29083e-21 -0 6.08535e-21 7.80777e-36 -0 -0 -0 0)
(4.90299e-06 -1.19366e-21 -0 -1.24358e-21 3.02757e-37 0 -0 0 0)
(4.90286e-06 2.19179e-22 -0 6.32334e-22 2.8268e-38 -0 -0 -0 0)
(4.9028e-06 5.77852e-23 -0 3.69518e-22 4.35521e-39 -0 -0 -0 0)
(4.9027e-06 4.45131e-22 -0 3.55e-22 3.22316e-38 -0 -0 -0 0)
(4.90263e-06 5.64732e-23 -0 1.27828e-22 1.47244e-39 -0 -0 -0 0)
(4.90255e-06 -5.59603e-23 -0 4.13465e-22 -4.71951e-39 -0 -0 0 0)
(4.9025e-06 3.69615e-22 -0 4.3293e-22 3.264e-38 -0 -0 -0 0)
(4.90243e-06 2.51425e-22 -0 -5.25778e-22 -2.6965e-38 0 -0 -0 0)
(4.9024e-06 -2.31761e-22 -0 -4.81276e-22 2.27523e-38 0 -0 0 0)
(4.90233e-06 1.65296e-22 -0 5.05641e-22 1.70491e-38 -0 -0 -0 0)
(4.90231e-06 5.44298e-22 -0 5.49196e-22 6.09765e-38 -0 -0 -0 0)
(4.90226e-06 4.17705e-22 -0 1.73902e-22 1.48176e-38 -0 -0 -0 0)
(4.90225e-06 3.33156e-22 -0 -5.11089e-23 -3.47335e-39 0 -0 -0 0)
(4.90222e-06 2.30094e-22 -0 -8.71398e-24 -4.09006e-40 0 -0 -0 0)
(4.90221e-06 2.25696e-22 -0 5.71345e-22 2.63045e-38 -0 -0 -0 0)
(4.9022e-06 4.11227e-22 -0 4.51696e-22 3.7891e-38 -0 -0 -0 0)
(4.9022e-06 1.55952e-22 -0 5.27791e-23 1.67904e-39 -0 -0 -0 0)
(4.90797e-06 9.32143e-20 -0 9.58437e-20 1.82031e-33 -0 -0 -0 0)
(4.90796e-06 -1.51246e-20 -0 -1.64301e-20 5.0632e-35 0 -0 0 0)
(4.90796e-06 3.84978e-21 -0 3.82226e-21 2.99816e-36 -0 -0 -0 0)
(4.90796e-06 -8.92716e-22 -0 -6.38127e-22 1.1607e-37 0 -0 0 0)
(4.90796e-06 1.16833e-22 -0 4.8659e-22 1.15832e-38 -0 -0 -0 0)
(4.90796e-06 3.65772e-22 -0 4.32618e-22 3.22414e-38 -0 -0 -0 0)
(4.90795e-06 5.91989e-22 -0 2.59998e-22 3.13604e-38 -0 -0 -0 0)
(4.90796e-06 -1.1538e-23 -0 -1.40471e-23 3.30231e-41 0 -0 0 0)
(4.90795e-06 -2.17781e-22 -0 8.61481e-23 -3.82266e-39 -0 -0 0 0)
(4.90796e-06 -2.75256e-22 -0 -2.99106e-22 1.6775e-38 0 -0 0 0)
(4.90795e-06 -3.70955e-22 -0 -6.12527e-22 4.62963e-38 0 -0 0 0)
(4.90795e-06 -2.19825e-22 -0 2.75923e-23 -1.23585e-39 -0 -0 0 0)
(4.90795e-06 5.30639e-22 -0 6.57923e-22 7.11335e-38 -0 -0 -0 0)
(4.90795e-06 2.95405e-22 -0 2.77242e-22 1.66869e-38 -0 -0 -0 0)
(4.90795e-06 1.06495e-22 -0 1.84909e-22 4.01226e-39 -0 -0 -0 0)
(4.90795e-06 4.2875e-22 -0 4.39815e-22 3.84215e-38 -0 -0 -0 0)
(4.90795e-06 4.89362e-22 -0 2.72887e-22 2.7209e-38 -0 -0 -0 0)
(4.90795e-06 2.01881e-22 -0 4.05422e-22 1.66764e-38 -0 -0 -0 0)
(4.90795e-06 3.01511e-22 -0 2.7617e-22 1.6966e-38 -0 -0 -0 0)
(4.90795e-06 2.23642e-22 -0 -2.60291e-23 -1.18607e-39 0 -0 -0 0)
)
;

boundaryField
{
    movingWall
    {
        type            calculated;
        value           nonuniform List<tensor> 
20
(
(4.90797e-06 0 0 0 0 0 0 0 0)
(4.90796e-06 0 0 0 0 0 0 0 0)
(4.90796e-06 0 0 0 0 0 0 0 0)
(4.90796e-06 0 0 0 0 0 0 0 0)
(4.90796e-06 0 0 0 0 0 0 0 0)
(4.90796e-06 0 0 0 0 0 0 0 0)
(4.90795e-06 0 0 0 0 0 0 0 0)
(4.90796e-06 0 0 0 0 0 0 0 0)
(4.90795e-06 0 0 0 0 0 0 0 0)
(4.90796e-06 0 0 0 0 0 0 0 0)
(4.90795e-06 0 0 0 0 0 0 0 0)
(4.90795e-06 0 0 0 0 0 0 0 0)
(4.90795e-06 0 0 0 0 0 0 0 0)
(4.90795e-06 0 0 0 0 0 0 0 0)
(4.90795e-06 0 0 0 0 0 0 0 0)
(4.90795e-06 0 0 0 0 0 0 0 0)
(4.90795e-06 0 0 0 0 0 0 0 0)
(4.90795e-06 0 0 0 0 0 0 0 0)
(4.90795e-06 0 0 0 0 0 0 0 0)
(4.90795e-06 0 0 0 0 0 0 0 0)
)
;
    }
    fixedWalls
    {
        type            calculated;
        value           nonuniform List<tensor> 
60
(
(4.10937e-06 0 0 0 0 0 0 0 0)
(4.19636e-06 0 0 0 0 0 0 0 0)
(4.33184e-06 0 0 0 0 0 0 0 0)
(4.47135e-06 0 0 0 0 0 0 0 0)
(4.58626e-06 0 0 0 0 0 0 0 0)
(4.66844e-06 0 0 0 0 0 0 0 0)
(4.72229e-06 0 0 0 0 0 0 0 0)
(4.75627e-06 0 0 0 0 0 0 0 0)
(4.7781e-06 0 0 0 0 0 0 0 0)
(4.79331e-06 0 0 0 0 0 0 0 0)
(4.80539e-06 0 0 0 0 0 0 0 0)
(4.81637e-06 0 0 0 0 0 0 0 0)
(4.82742e-06 0 0 0 0 0 0 0 0)
(4.8392e-06 0 0 0 0 0 0 0 0)
(4.85202e-06 0 0 0 0 0 0 0 0)
(4.86577e-06 0 0 0 0 0 0 0 0)
(4.87983e-06 0 0 0 0 0 0 0 0)
(4.89293e-06 0 0 0 0 0 0 0 0)
(4.90324e-06 0 0 0 0 0 0 0 0)
(4.90797e-06 0 0 0 0 0 0 0 0)
(4.10936e-06 0 0 0 0 0 0 0 0)
(4.19559e-06 0 0 0 0 0 0 0 0)
(4.33101e-06 0 0 0 0 0 0 0 0)
(4.47046e-06 0 0 0 0 0 0 0 0)
(4.58533e-06 0 0 0 0 0 0 0 0)
(4.66747e-06 0 0 0 0 0 0 0 0)
(4.7213e-06 0 0 0 0 0 0 0 0)
(4.75526e-06 0 0 0 0 0 0 0 0)
(4.77708e-06 0 0 0 0 0 0 0 0)
(4.79229e-06 0 0 0 0 0 0 0 0)
(4.80436e-06 0 0 0 0 0 0 0 0)
(4.81533e-06 0 0 0 0 0 0 0 0)
(4.82638e-06 0 0 0 0 0 0 0 0)
(4.83816e-06 0 0 0 0 0 0 0 0)
(4.85097e-06 0 0 0 0 0 0 0 0)
(4.86472e-06 0 0 0 0 0 0 0 0)
(4.87877e-06 0 0 0 0 0 0 0 0)
(4.89186e-06 0 0 0 0 0 0 0 0)
(4.9022e-06 0 0 0 0 0 0 0 0)
(4.90795e-06 0 0 0 0 0 0 0 0)
(4.10937e-06 0 0 0 0 0 0 0 0)
(4.10937e-06 0 0 0 0 0 0 0 0)
(4.10937e-06 0 0 0 0 0 0 0 0)
(4.10937e-06 0 0 0 0 0 0 0 0)
(4.10937e-06 0 0 0 0 0 0 0 0)
(4.10937e-06 0 0 0 0 0 0 0 0)
(4.10936e-06 0 0 0 0 0 0 0 0)
(4.10937e-06 0 0 0 0 0 0 0 0)
(4.10936e-06 0 0 0 0 0 0 0 0)
(4.10936e-06 0 0 0 0 0 0 0 0)
(4.10936e-06 0 0 0 0 0 0 0 0)
(4.10936e-06 0 0 0 0 0 0 0 0)
(4.10936e-06 0 0 0 0 0 0 0 0)
(4.10936e-06 0 0 0 0 0 0 0 0)
(4.10936e-06 0 0 0 0 0 0 0 0)
(4.10936e-06 0 0 0 0 0 0 0 0)
(4.10936e-06 0 0 0 0 0 0 0 0)
(4.10936e-06 0 0 0 0 0 0 0 0)
(4.10936e-06 0 0 0 0 0 0 0 0)
(4.10936e-06 0 0 0 0 0 0 0 0)
)
;
    }
    frontAndBack
    {
        type            empty;
    }
}


// ************************************************************************* //
