/*--------------------------------*- C++ -*----------------------------------*\
| =========                 |                                                 |
| \\      /  F ield         | OpenFOAM: The Open Source CFD Toolbox           |
|  \\    /   O peration     | Version:  2312                                  |
|   \\  /    A nd           | Website:  www.openfoam.com                      |
|    \\/     M anipulation  |                                                 |
\*---------------------------------------------------------------------------*/
FoamFile
{
    version     2.0;
    format      ascii;
    arch        "LSB;label=32;scalar=64";
    class       volScalarField;
    location    "8";
    object      L_P;
}
// * * * * * * * * * * * * * * * * * * * * * * * * * * * * * * * * * * * * * //

dimensions      [0 0 0 0 0 0 0];

internalField   nonuniform List<scalar> 
400
(
-202.437
-202.437
-202.437
-202.437
-202.437
-202.437
-202.437
-202.437
-202.437
-202.437
-202.437
-202.437
-202.437
-202.437
-202.437
-202.437
-202.437
-202.437
-202.437
-202.437
-202.073
-202.126
-202.122
-202.12
-202.117
-202.115
-202.112
-202.11
-202.106
-202.104
-202.101
-202.099
-202.095
-202.093
-202.089
-202.087
-202.083
-202.081
-202.079
-202.076
-201.521
-201.576
-201.571
-201.57
-201.566
-201.564
-201.56
-201.559
-201.555
-201.553
-201.549
-201.547
-201.543
-201.541
-201.537
-201.535
-201.531
-201.529
-201.527
-201.524
-200.97
-201.026
-201.021
-201.02
-201.016
-201.014
-201.01
-201.008
-201.004
-201.002
-200.999
-200.997
-200.993
-200.991
-200.987
-200.985
-200.981
-200.978
-200.976
-200.973
-200.529
-200.586
-200.581
-200.579
-200.575
-200.574
-200.57
-200.568
-200.564
-200.562
-200.558
-200.556
-200.552
-200.55
-200.546
-200.544
-200.54
-200.538
-200.536
-200.533
-200.22
-200.278
-200.273
-200.271
-200.267
-200.265
-200.262
-200.26
-200.256
-200.254
-200.25
-200.248
-200.244
-200.242
-200.238
-200.235
-200.231
-200.229
-200.227
-200.224
-200.021
-200.079
-200.074
-200.072
-200.068
-200.066
-200.063
-200.061
-200.057
-200.055
-200.051
-200.049
-200.045
-200.042
-200.038
-200.036
-200.032
-200.03
-200.028
-200.025
-199.897
-199.954
-199.95
-199.948
-199.944
-199.942
-199.938
-199.936
-199.932
-199.93
-199.926
-199.924
-199.92
-199.918
-199.914
-199.912
-199.908
-199.905
-199.903
-199.9
-199.817
-199.875
-199.87
-199.868
-199.865
-199.863
-199.859
-199.857
-199.853
-199.851
-199.847
-199.845
-199.841
-199.839
-199.834
-199.832
-199.828
-199.826
-199.824
-199.821
-199.762
-199.82
-199.815
-199.813
-199.809
-199.807
-199.804
-199.802
-199.798
-199.796
-199.792
-199.79
-199.785
-199.783
-199.779
-199.777
-199.773
-199.771
-199.769
-199.765
-199.718
-199.776
-199.772
-199.77
-199.766
-199.764
-199.76
-199.758
-199.754
-199.752
-199.748
-199.746
-199.742
-199.74
-199.736
-199.733
-199.729
-199.727
-199.725
-199.722
-199.678
-199.737
-199.732
-199.73
-199.726
-199.724
-199.72
-199.718
-199.714
-199.712
-199.708
-199.706
-199.702
-199.7
-199.696
-199.694
-199.69
-199.687
-199.685
-199.682
-199.639
-199.697
-199.692
-199.69
-199.686
-199.684
-199.681
-199.679
-199.675
-199.673
-199.668
-199.666
-199.662
-199.66
-199.656
-199.654
-199.65
-199.648
-199.646
-199.642
-199.596
-199.654
-199.65
-199.648
-199.644
-199.642
-199.638
-199.636
-199.632
-199.63
-199.626
-199.624
-199.62
-199.618
-199.614
-199.612
-199.607
-199.605
-199.603
-199.6
-199.55
-199.609
-199.604
-199.602
-199.598
-199.596
-199.592
-199.59
-199.586
-199.584
-199.58
-199.578
-199.574
-199.572
-199.568
-199.566
-199.562
-199.559
-199.557
-199.554
-199.501
-199.56
-199.555
-199.553
-199.549
-199.547
-199.543
-199.541
-199.537
-199.535
-199.531
-199.529
-199.525
-199.523
-199.519
-199.516
-199.512
-199.51
-199.508
-199.505
-199.451
-199.509
-199.505
-199.503
-199.499
-199.497
-199.493
-199.491
-199.487
-199.485
-199.481
-199.479
-199.475
-199.473
-199.469
-199.466
-199.462
-199.46
-199.458
-199.455
-199.404
-199.463
-199.458
-199.456
-199.453
-199.45
-199.447
-199.445
-199.441
-199.438
-199.434
-199.432
-199.428
-199.426
-199.422
-199.42
-199.416
-199.413
-199.411
-199.408
-199.368
-199.425
-199.421
-199.419
-199.415
-199.413
-199.409
-199.407
-199.404
-199.402
-199.398
-199.395
-199.392
-199.389
-199.385
-199.383
-199.379
-199.377
-199.375
-199.371
-199.351
-199.351
-199.351
-199.351
-199.351
-199.351
-199.351
-199.351
-199.351
-199.351
-199.351
-199.351
-199.351
-199.351
-199.351
-199.351
-199.351
-199.351
-199.351
-199.351
)
;

boundaryField
{
    movingWall
    {
        type            calculated;
        value           nonuniform List<scalar> 
20
(
-199.351
-199.351
-199.351
-199.351
-199.351
-199.351
-199.351
-199.351
-199.351
-199.351
-199.351
-199.351
-199.351
-199.351
-199.351
-199.351
-199.351
-199.351
-199.351
-199.351
)
;
    }
    fixedWalls
    {
        type            calculated;
        value           nonuniform List<scalar> 
60
(
-202.437
-202.073
-201.521
-200.97
-200.529
-200.22
-200.021
-199.897
-199.817
-199.762
-199.718
-199.678
-199.639
-199.596
-199.55
-199.501
-199.451
-199.404
-199.368
-199.351
-202.437
-202.076
-201.524
-200.973
-200.533
-200.224
-200.025
-199.9
-199.821
-199.765
-199.722
-199.682
-199.642
-199.6
-199.554
-199.505
-199.455
-199.408
-199.371
-199.351
-202.437
-202.437
-202.437
-202.437
-202.437
-202.437
-202.437
-202.437
-202.437
-202.437
-202.437
-202.437
-202.437
-202.437
-202.437
-202.437
-202.437
-202.437
-202.437
-202.437
)
;
    }
    frontAndBack
    {
        type            empty;
    }
}


// ************************************************************************* //
