/*--------------------------------*- C++ -*----------------------------------*\
| =========                 |                                                 |
| \\      /  F ield         | OpenFOAM: The Open Source CFD Toolbox           |
|  \\    /   O peration     | Version:  2312                                  |
|   \\  /    A nd           | Website:  www.openfoam.com                      |
|    \\/     M anipulation  |                                                 |
\*---------------------------------------------------------------------------*/
FoamFile
{
    version     2.0;
    format      ascii;
    arch        "LSB;label=32;scalar=64";
    class       volScalarField;
    location    "8";
    object      Lambda2Field;
}
// * * * * * * * * * * * * * * * * * * * * * * * * * * * * * * * * * * * * * //

dimensions      [0 0 -2 0 0 0 0];

internalField   nonuniform List<scalar> 
400
(
0
6.61216e-27
0
4.15928e-27
1.12941e-27
3.3715e-30
3.25755e-29
0
4.70505e-28
1.14953e-28
5.6056e-29
0
6.81997e-28
0
0
2.21395e-28
1.45678e-28
5.23751e-32
1.95753e-29
0
1.65304e-25
1.39868e-25
0
2.48452e-27
0
4.86812e-28
2.0805e-27
-1.80736e-27
3.11883e-27
9.89057e-28
0
-1.25305e-27
5.63263e-28
2.74198e-28
1.18883e-27
0
1.02947e-27
1.26239e-29
0
2.75701e-28
0
3.62776e-25
0
6.87385e-27
0
7.24507e-28
1.24232e-27
1.81569e-27
2.38014e-27
8.441e-29
2.20021e-28
0
3.25723e-28
9.28015e-29
1.094e-27
3.67851e-29
9.46469e-29
0
0
6.15265e-28
0
1.2836e-25
0
1.24416e-27
9.90381e-28
2.99918e-28
9.79198e-28
1.28268e-28
1.053e-28
3.83167e-29
3.59625e-28
4.7327e-28
2.5649e-28
0
3.11009e-29
0
0
0
3.95363e-28
5.16334e-28
0
0
0
2.73107e-27
0
1.6304e-28
0
3.20152e-29
4.46942e-28
1.42097e-28
6.16461e-28
0
0
-5.38223e-28
0
1.28056e-27
3.66436e-28
0
3.84618e-28
2.9645e-28
8.45702e-25
1.64727e-25
3.22981e-26
2.17019e-30
1.57417e-28
0
0
0
6.40159e-28
8.55046e-29
0
0
1.39809e-28
-7.6348e-28
0
1.2678e-28
3.11473e-28
2.01535e-30
5.93546e-30
6.65681e-29
3.43211e-25
4.59177e-25
1.83671e-26
2.60967e-27
8.40529e-29
0
1.40983e-28
-6.94846e-28
4.44266e-28
0
1.03852e-28
-2.86115e-27
0
7.06427e-28
4.78932e-28
4.94346e-28
9.34121e-29
0
1.31071e-29
1.97432e-30
3.16086e-24
1.25525e-24
9.39529e-26
1.98521e-27
1.9669e-27
0
4.63394e-28
0
1.8513e-28
-1.90119e-27
1.6893e-27
8.32725e-28
1.88356e-27
0
1.28064e-28
3.06057e-29
5.22893e-28
4.82402e-30
0
4.10125e-28
3.72903e-25
0
2.75538e-26
0
1.39505e-28
1.40378e-28
3.7618e-28
-2.64106e-28
8.3151e-28
1.41779e-27
3.17423e-27
-3.24316e-27
0
1.55591e-28
9.53295e-28
-1.22482e-28
1.03306e-27
1.31742e-29
0
0
0
0
0
2.83888e-27
0
1.22674e-27
1.65619e-28
1.89789e-29
0
0
8.57428e-29
4.97531e-29
2.57874e-28
1.51117e-28
1.68885e-28
2.1569e-28
0
2.49639e-29
0
0
9.28112e-25
3.4408e-25
1.66686e-26
0
0
-1.27569e-27
0
-1.22136e-27
2.90165e-28
4.14542e-29
6.88703e-29
4.3699e-28
9.8665e-28
2.61086e-28
0
-1.369e-28
6.16299e-29
5.63183e-28
7.18259e-29
2.0073e-29
4.93393e-25
5.66558e-26
2.29122e-26
0
0
0
0
1.44262e-28
3.55535e-28
1.35628e-27
9.21013e-28
-9.20056e-28
1.16056e-27
-1.5134e-28
3.86508e-29
2.8934e-28
5.43657e-28
1.04557e-29
8.95271e-28
0
2.89363e-26
5.12139e-26
1.97964e-28
9.83726e-28
1.13406e-27
3.25279e-29
1.02037e-28
6.10706e-28
0
0
3.69352e-28
0
0
0
2.57285e-28
-9.2806e-28
0
-8.47874e-28
0
1.96077e-28
5.82425e-25
3.94147e-26
9.45293e-27
1.8122e-27
2.5307e-27
4.1383e-28
0
0
1.82256e-27
2.96232e-28
1.00932e-27
-1.10765e-27
2.38308e-28
1.08236e-28
6.26084e-28
0
0
0
2.96672e-28
6.21072e-28
0
-2.01283e-25
0
1.80888e-27
0
-8.14593e-28
6.71692e-28
1.46237e-28
6.21328e-29
3.45215e-32
1.29325e-28
-4.46399e-28
0
-2.70687e-28
5.02888e-28
1.78131e-28
6.56042e-29
-9.99957e-29
2.39869e-28
2.26614e-28
0
0
0
-4.52634e-27
4.59456e-28
0
0
2.39886e-28
2.07562e-28
1.5657e-28
7.34684e-28
0
2.62783e-28
0
7.34684e-28
0
2.12643e-28
7.25987e-29
1.20533e-29
2.42981e-28
6.37135e-25
2.56382e-25
0
3.65169e-28
2.96463e-28
8.00694e-30
0
2.61365e-29
7.94393e-28
3.763e-28
5.17434e-28
-8.84101e-28
0
-2.25184e-27
8.36691e-28
1.01175e-27
9.48467e-28
2.26762e-28
0
0
0
4.29955e-25
0
8.17804e-27
1.51481e-27
7.22971e-28
0
-4.39625e-29
4.31068e-28
9.73869e-28
0
-1.17335e-27
1.35426e-27
5.62874e-28
5.42149e-29
1.37853e-27
2.81382e-28
0
6.45126e-29
0
1.1152e-25
5.08353e-25
0
1.54147e-26
0
4.59945e-28
4.00848e-28
0
0
1.26295e-27
1.09793e-27
-1.70341e-27
1.2295e-27
1.15197e-27
3.31911e-28
1.23448e-27
0
1.55569e-30
3.04071e-29
0
4.68185e-25
1.20008e-25
9.45609e-27
7.34684e-28
6.39357e-28
0
2.38249e-28
-9.0624e-29
2.17205e-28
0
3.73834e-28
8.56544e-29
5.69085e-28
0
0
6.27059e-29
2.90923e-29
0
0
0
)
;

boundaryField
{
    movingWall
    {
        type            calculated;
        value           nonuniform List<scalar> 
20
(
1.6543e-24
0
1.29337e-25
-1.23863e-26
6.54777e-27
0
0
-7.85216e-28
0
-6.70125e-28
1.03029e-27
6.90235e-27
3.8423e-27
-7.73451e-28
1.47102e-28
8.93894e-28
4.94756e-28
0
0
0
)
;
    }
    fixedWalls
    {
        type            calculated;
        value           nonuniform List<scalar> 
60
(
0
2.27981e-24
1.77494e-26
0
6.82222e-24
5.10997e-24
9.06236e-24
3.12713e-23
3.6884e-23
0
6.67525e-24
2.75377e-24
5.77858e-25
2.55972e-24
0
-1.53783e-24
3.8621e-24
0
5.2351e-25
2.86005e-24
0
2.75701e-28
1.14319e-27
9.05556e-28
4.22566e-28
6.65681e-29
3.26793e-28
8.70263e-28
0
0
2.05299e-29
0
4.25938e-28
1.25439e-27
4.4764e-28
8.81575e-28
0
0
0
0
2.26074e-25
0
2.42155e-25
-1.07343e-26
1.47894e-26
3.3922e-28
2.76757e-27
2.68877e-27
0
0
0
2.11853e-27
1.29969e-27
-2.12611e-28
0
6.97036e-29
1.55192e-28
9.47488e-29
7.99717e-28
0
)
;
    }
    frontAndBack
    {
        type            empty;
    }
}


// ************************************************************************* //
