/*--------------------------------*- C++ -*----------------------------------*\
| =========                 |                                                 |
| \\      /  F ield         | OpenFOAM: The Open Source CFD Toolbox           |
|  \\    /   O peration     | Version:  2312                                  |
|   \\  /    A nd           | Website:  www.openfoam.com                      |
|    \\/     M anipulation  |                                                 |
\*---------------------------------------------------------------------------*/
FoamFile
{
    version     2.0;
    format      ascii;
    arch        "LSB;label=32;scalar=64";
    class       volVectorField;
    location    "8";
    object      LambVectorField;
}
// * * * * * * * * * * * * * * * * * * * * * * * * * * * * * * * * * * * * * //

dimensions      [0 1 -2 0 0 0 0];

internalField   nonuniform List<vector> 
400
(
(-8.77953e-26 -2.82328e-12 -2.82328e-12)
(-1.90033e-26 2.97497e-12 -0)
(-8.89231e-28 -6.60082e-13 -6.60082e-13)
(-3.26514e-29 9.92402e-14 -0)
(-9.22106e-31 -1.10169e-14 -1.10169e-14)
(1.42314e-32 2.72603e-16 0)
(-6.17782e-31 -7.62944e-15 -7.62944e-15)
(-1.29669e-30 -1.00909e-14 0)
(1.07463e-29 5.90833e-14 5.90833e-14)
(1.58036e-30 1.9812e-14 0)
(-1.00794e-31 6.20762e-15 6.20762e-15)
(-2.10993e-31 -1.19262e-14 0)
(2.46482e-30 2.39244e-14 2.39244e-14)
(3.36957e-31 6.80745e-15 0)
(1.03763e-30 2.96884e-14 2.96884e-14)
(1.06029e-32 4.48051e-16 0)
(1.57057e-31 5.15443e-15 5.15443e-15)
(-1.85936e-32 6.6692e-16 -0)
(-2.10595e-31 -8.84814e-15 -8.84814e-15)
(5.11493e-31 8.44026e-15 0)
(-4.79236e-27 -6.28555e-13 -6.28555e-13)
(-8.47171e-28 6.32761e-13 -0)
(-6.21173e-29 -2.9219e-13 -2.9219e-13)
(2.58642e-30 -5.9796e-14 -0)
(2.13796e-31 -8.22562e-14 -8.22562e-14)
(4.46515e-30 -1.31933e-13 -0)
(3.4323e-30 -8.91055e-14 -8.91055e-14)
(-6.71603e-30 -1.52432e-13 0)
(-1.39376e-29 -1.06759e-13 -1.06759e-13)
(-9.87196e-31 -3.59652e-14 0)
(4.37705e-30 -8.43414e-14 -8.43414e-14)
(-5.62559e-30 -9.74788e-14 0)
(-2.35269e-30 -2.14387e-14 -2.14387e-14)
(-5.14955e-32 -4.9152e-14 0)
(-5.54461e-30 -9.37233e-14 -9.37233e-14)
(-1.05288e-29 -8.41435e-14 0)
(-3.86991e-30 -4.42563e-14 -4.42563e-14)
(2.86072e-31 1.11785e-14 0)
(-2.54171e-32 1.04417e-15 1.04417e-15)
(-1.3926e-32 -9.1923e-16 0)
(-2.37434e-26 1.39091e-12 1.39091e-12)
(-4.507e-27 -1.42568e-12 0)
(-3.58333e-28 5.55356e-13 5.55356e-13)
(5.70252e-30 1.20829e-13 0)
(-4.27072e-29 1.87958e-13 1.87958e-13)
(-3.83139e-29 1.85917e-13 -0)
(-1.83288e-29 9.69618e-14 9.69618e-14)
(-1.11743e-29 1.22128e-13 -0)
(-3.95842e-30 7.18967e-14 7.18967e-14)
(2.15864e-31 8.03088e-14 0)
(-3.94338e-30 8.76444e-14 8.76444e-14)
(-5.07151e-30 8.36823e-14 -0)
(-1.6782e-30 2.44408e-14 2.44408e-14)
(3.06536e-31 -9.02595e-15 -0)
(9.39537e-31 4.35062e-14 4.35062e-14)
(1.8816e-30 2.57479e-14 0)
(2.30088e-31 6.54276e-15 6.54276e-15)
(3.27257e-31 4.27769e-14 0)
(-1.37465e-30 1.13091e-14 1.13091e-14)
(-4.64549e-31 4.40577e-15 -0)
(-1.74026e-26 1.65452e-12 1.65452e-12)
(-2.35707e-27 -1.12002e-12 0)
(-1.48292e-28 3.68705e-13 3.68705e-13)
(1.36734e-30 3.12594e-14 0)
(-7.24399e-30 4.19478e-14 4.19478e-14)
(-1.67916e-30 1.604e-14 -0)
(-1.20239e-30 1.93807e-14 1.93807e-14)
(-1.45155e-30 5.28951e-14 -0)
(-1.13523e-30 2.32202e-14 2.32202e-14)
(2.93051e-31 2.56914e-14 0)
(-1.11021e-30 3.19453e-14 3.19453e-14)
(-8.45812e-31 2.28621e-14 -0)
(-3.11218e-31 -4.05428e-14 -4.05428e-14)
(-1.1214e-30 -1.15156e-14 0)
(-3.15747e-31 -2.57057e-15 -2.57057e-15)
(8.23588e-30 6.69111e-14 0)
(-5.2784e-31 1.26325e-13 1.26325e-13)
(-3.74115e-31 6.68543e-15 -0)
(-2.03604e-30 2.86634e-14 2.86634e-14)
(-9.19149e-31 1.28474e-14 -0)
(-5.07373e-26 -2.33795e-12 -2.33795e-12)
(-8.99835e-27 2.09989e-12 -0)
(-5.92718e-28 -6.08695e-13 -6.08695e-13)
(-5.93659e-30 6.21245e-14 -0)
(-5.62846e-30 -6.9098e-14 -6.9098e-14)
(-1.38922e-30 -2.60549e-14 0)
(4.91938e-31 6.93316e-15 6.93316e-15)
(-1.24218e-31 7.75761e-15 -0)
(2.49777e-31 -3.77209e-14 -3.77209e-14)
(-3.48145e-30 -3.86203e-14 0)
(-3.35988e-30 -3.09579e-14 -3.09579e-14)
(4.16297e-31 3.23528e-15 0)
(8.69833e-31 1.14185e-14 1.14185e-14)
(9.4319e-31 6.5095e-14 0)
(-1.31615e-31 4.02845e-15 4.02845e-15)
(-1.40885e-32 5.46172e-16 -0)
(2.32624e-30 -6.10031e-14 -6.10031e-14)
(-3.71677e-30 -8.82115e-14 0)
(-7.32046e-31 -2.3744e-14 -2.3744e-14)
(-1.97506e-31 -2.31695e-14 0)
(-3.21808e-26 1.54558e-12 1.54558e-12)
(-7.99324e-27 -1.9933e-12 0)
(-2.8843e-28 3.24745e-13 3.24745e-13)
(-1.91556e-29 -8.6867e-14 0)
(-4.08021e-31 2.09196e-14 2.09196e-14)
(-3.53926e-32 -3.1264e-15 0)
(-2.09551e-32 -1.78193e-15 -1.78193e-15)
(-4.38882e-31 -1.50612e-14 0)
(1.22851e-30 7.566e-15 7.566e-15)
(5.58613e-30 2.48792e-14 0)
(1.23352e-29 6.681e-14 6.681e-14)
(6.36065e-30 6.45543e-14 0)
(7.19583e-30 8.86308e-14 8.86308e-14)
(1.90492e-30 7.50703e-14 0)
(-1.02216e-29 8.02238e-14 8.02238e-14)
(-5.5296e-30 2.35541e-14 -0)
(2.35335e-30 -2.56067e-14 -2.56067e-14)
(-3.07628e-31 -1.44391e-14 0)
(-2.35728e-31 -4.49114e-15 -4.49114e-15)
(7.86016e-31 1.18704e-14 0)
(-4.08303e-28 -2.33515e-13 -2.33515e-13)
(-4.20786e-29 1.85774e-13 -0)
(1.59133e-30 -1.45676e-14 -1.45676e-14)
(3.17214e-30 -3.92456e-14 -0)
(-4.74874e-31 -3.90294e-14 -3.90294e-14)
(1.91637e-31 4.9886e-15 0)
(8.26184e-31 -2.19037e-14 -2.19037e-14)
(9.12873e-31 -6.71301e-14 -0)
(-5.44926e-30 -5.95674e-14 -5.95674e-14)
(4.58777e-31 1.14769e-14 0)
(1.21783e-30 -5.22944e-14 -5.22944e-14)
(-3.27237e-30 -1.57198e-13 0)
(-1.93143e-29 -9.98489e-14 -9.98489e-14)
(-8.4892e-30 -4.11788e-14 0)
(-5.956e-31 -9.43558e-15 -9.43558e-15)
(-8.58059e-31 -2.91264e-14 0)
(1.26793e-32 1.52147e-16 1.52147e-16)
(1.68763e-30 6.04056e-14 0)
(-1.3294e-31 -6.21753e-15 -6.21753e-15)
(1.00472e-30 1.11495e-14 0)
(-5.48625e-26 -1.64012e-12 -1.64012e-12)
(-2.40369e-26 3.06857e-12 -0)
(-8.89771e-28 -6.31386e-13 -6.31386e-13)
(-1.04536e-28 1.48016e-13 -0)
(2.41633e-30 -3.40697e-14 -3.40697e-14)
(3.05555e-30 -3.23344e-14 -0)
(6.91415e-31 -3.71139e-14 -3.71139e-14)
(-3.65749e-31 -6.54282e-14 0)
(-7.60474e-30 -8.12894e-14 -8.12894e-14)
(-3.53725e-29 -1.27984e-13 0)
(-1.30547e-29 -4.5143e-14 -4.5143e-14)
(-8.49159e-31 -4.57246e-15 0)
(-2.37372e-30 -3.71713e-14 -3.71713e-14)
(1.07887e-31 7.04074e-15 0)
(5.22164e-31 -7.97403e-14 -7.97403e-14)
(-1.10612e-32 2.59759e-14 -0)
(-2.75661e-31 -5.8117e-14 -5.8117e-14)
(-2.56195e-31 -6.62986e-15 0)
(-2.95711e-31 -4.16249e-15 -4.16249e-15)
(-9.61133e-31 -1.19741e-14 0)
(-1.73788e-25 3.96281e-12 3.96281e-12)
(-3.78667e-26 -4.28624e-12 0)
(-1.87131e-27 9.01184e-13 9.01184e-13)
(-1.04266e-28 -2.85874e-13 0)
(-7.29825e-31 2.36041e-14 2.36041e-14)
(-2.60933e-30 -2.02764e-14 0)
(4.20666e-30 2.44794e-14 2.44794e-14)
(1.36813e-29 8.82979e-14 0)
(5.19056e-30 5.08791e-14 5.08791e-14)
(7.62531e-30 4.05053e-14 0)
(2.63606e-29 1.10265e-13 1.10265e-13)
(2.79971e-29 1.64877e-13 0)
(-7.35229e-30 1.35035e-13 1.35035e-13)
(-2.09118e-30 2.1705e-14 -0)
(-2.15322e-32 4.81687e-14 4.81687e-14)
(-1.21543e-30 3.38268e-14 -0)
(-3.08731e-30 4.56268e-14 4.56268e-14)
(-1.04836e-30 -2.10084e-14 0)
(4.78189e-32 3.35761e-16 3.35761e-16)
(8.79521e-31 1.88964e-14 0)
(-3.01165e-26 -2.91765e-12 -2.91765e-12)
(-2.5863e-27 1.48167e-12 -0)
(-3.29363e-29 -2.90511e-13 -2.90511e-13)
(-1.4305e-29 7.31061e-14 -0)
(3.70907e-30 -4.90709e-14 -4.90709e-14)
(2.14682e-31 8.95141e-15 0)
(-1.65151e-30 -1.55876e-14 -1.55876e-14)
(4.74915e-30 2.64049e-14 0)
(4.90559e-30 4.34306e-14 4.34306e-14)
(9.11201e-31 5.48805e-14 0)
(-1.45657e-30 -1.37091e-14 -1.37091e-14)
(-3.93041e-30 -2.55729e-14 0)
(9.82027e-31 1.08001e-14 1.08001e-14)
(1.3749e-30 3.009e-14 0)
(3.12077e-30 5.10947e-14 5.10947e-14)
(-2.17855e-30 -2.83492e-14 0)
(1.40264e-32 1.90784e-16 1.90784e-16)
(1.06025e-31 1.41482e-15 0)
(5.39872e-31 9.09309e-15 9.09309e-15)
(-6.93728e-32 4.33797e-15 -0)
(6.67006e-27 8.23237e-13 8.23237e-13)
(-8.05768e-28 4.09243e-13 -0)
(-4.3703e-29 -8.98953e-14 -8.98953e-14)
(-1.70876e-29 6.65351e-14 -0)
(6.83619e-30 -3.8149e-14 -3.8149e-14)
(1.15748e-29 -7.90734e-14 -0)
(-9.81649e-30 -1.41375e-13 -1.41375e-13)
(-2.19389e-29 -1.19778e-13 0)
(-1.42287e-29 -7.77468e-14 -7.77468e-14)
(-7.90336e-30 -5.35897e-14 0)
(-1.90574e-29 -1.07785e-13 -1.07785e-13)
(-2.6959e-30 -1.91027e-14 0)
(-4.42265e-30 -4.56952e-14 -4.56952e-14)
(-2.76499e-30 -4.93939e-14 0)
(-2.95691e-30 -6.0812e-14 -6.0812e-14)
(-4.05483e-30 -3.3237e-14 0)
(4.32199e-30 3.9311e-14 3.9311e-14)
(2.75448e-33 -4.45118e-14 -0)
(-4.46053e-33 -3.44158e-16 -3.44158e-16)
(5.52256e-33 1.63404e-15 0)
(2.35313e-27 -7.71311e-13 -7.71311e-13)
(-2.63968e-28 -2.62365e-13 0)
(1.0781e-29 -6.90528e-14 -6.90528e-14)
(-6.95783e-30 -9.89221e-14 0)
(-2.77957e-30 -1.39384e-13 -1.39384e-13)
(-1.02323e-29 -9.39393e-14 0)
(-8.49815e-30 -5.81335e-14 -5.81335e-14)
(-4.02719e-30 -2.71816e-14 0)
(-2.46087e-30 -1.67464e-14 -1.67464e-14)
(-1.30112e-30 -2.91912e-14 0)
(2.39332e-30 -2.3182e-14 -2.3182e-14)
(-4.02591e-31 -7.53718e-14 0)
(-1.02515e-29 -9.45923e-14 -9.45923e-14)
(-8.08493e-30 -5.85385e-14 0)
(-8.11339e-30 -5.34971e-14 -5.34971e-14)
(-6.40151e-30 -4.88727e-14 0)
(-1.51184e-30 -1.5382e-14 -1.5382e-14)
(1.70049e-31 1.23647e-14 0)
(1.41301e-30 -5.57159e-14 -5.57159e-14)
(9.93956e-33 3.44993e-16 0)
(-3.02259e-27 6.8699e-13 6.8699e-13)
(-7.19988e-29 -2.99539e-13 0)
(-2.74755e-29 8.58157e-14 8.58157e-14)
(4.07301e-31 -5.38116e-15 -0)
(1.95621e-31 4.16766e-14 4.16766e-14)
(1.28606e-30 2.5905e-14 0)
(1.33657e-30 8.00603e-14 8.00603e-14)
(7.85523e-31 1.26303e-14 0)
(1.01237e-31 6.27082e-16 6.27082e-16)
(1.3727e-30 2.45463e-14 0)
(-2.82774e-30 3.36551e-14 3.36551e-14)
(9.69333e-31 -1.01202e-13 -0)
(-1.80118e-30 -1.56827e-14 -1.56827e-14)
(-7.38237e-31 -5.01352e-15 0)
(1.03969e-29 6.30166e-14 6.30166e-14)
(4.29844e-30 7.26276e-14 0)
(-1.75736e-31 9.15819e-15 9.15819e-15)
(-2.98935e-30 9.22718e-14 -0)
(-7.53877e-30 5.8551e-14 5.8551e-14)
(1.55069e-30 -2.04561e-14 -0)
(-1.59593e-27 1.0557e-12 1.0557e-12)
(-4.76421e-29 -2.79465e-13 0)
(-1.32218e-29 1.82802e-13 1.82802e-13)
(-2.95811e-30 9.46785e-14 -0)
(7.95858e-30 1.22273e-13 1.22273e-13)
(1.07166e-29 1.05813e-13 0)
(1.08039e-29 1.18509e-13 1.18509e-13)
(4.52235e-32 1.17086e-13 0)
(3.48786e-31 7.7326e-14 7.7326e-14)
(1.96336e-30 4.87456e-14 0)
(3.91753e-30 6.62241e-14 6.62241e-14)
(-1.1909e-29 1.49119e-13 -0)
(-2.04123e-30 2.65839e-14 2.65839e-14)
(-3.89774e-30 5.22135e-14 -0)
(6.91791e-31 -1.21754e-14 -1.21754e-14)
(-3.02179e-30 -6.4151e-14 0)
(4.21557e-31 9.89796e-15 9.89796e-15)
(-7.39681e-31 1.42588e-14 -0)
(-3.30386e-30 3.30392e-14 3.30392e-14)
(-6.65473e-31 5.98357e-15 -0)
(-3.40725e-26 -2.57049e-12 -2.57049e-12)
(-3.41704e-27 1.56242e-12 -0)
(-1.21544e-28 -3.5581e-13 -3.5581e-13)
(6.63865e-30 -2.60109e-14 -0)
(-8.96209e-30 -1.50358e-13 -1.50358e-13)
(-1.15563e-29 -7.04013e-14 0)
(-1.26335e-29 -5.70319e-14 -5.70319e-14)
(1.50779e-30 7.8381e-15 0)
(4.8004e-31 3.35374e-15 3.35374e-15)
(-1.64726e-31 -1.03712e-15 0)
(1.00358e-29 6.5377e-14 6.5377e-14)
(3.06391e-30 6.49681e-14 0)
(5.10423e-30 1.11137e-13 1.11137e-13)
(1.87243e-30 9.3679e-14 0)
(-5.07399e-30 6.52925e-14 6.52925e-14)
(4.90168e-32 -5.39617e-16 -0)
(3.2705e-31 -4.52254e-15 -4.52254e-15)
(1.59859e-30 -3.50485e-14 -0)
(-2.21087e-31 -3.1055e-14 -3.1055e-14)
(-1.66263e-31 2.72058e-14 -0)
(-5.22172e-26 2.36987e-12 2.36987e-12)
(-8.69078e-27 -2.15803e-12 0)
(-5.22344e-28 5.24629e-13 5.24629e-13)
(-2.05374e-29 -1.50847e-13 0)
(-1.92146e-30 6.56424e-14 6.56424e-14)
(-1.88828e-31 -8.65237e-15 0)
(-5.69607e-31 -9.94911e-15 -9.94911e-15)
(-6.87103e-30 -5.6638e-14 0)
(6.45553e-31 7.91792e-15 7.91792e-15)
(1.39399e-30 3.30833e-14 0)
(1.09604e-32 5.03958e-16 5.03958e-16)
(-1.55127e-31 -4.18176e-15 0)
(1.39589e-30 2.19596e-14 2.19596e-14)
(5.20957e-31 5.88317e-15 0)
(8.28116e-32 1.74912e-14 1.74912e-14)
(-5.02642e-30 5.82021e-14 -0)
(4.99177e-31 -1.4187e-14 -1.4187e-14)
(-2.1127e-31 -3.8061e-15 0)
(4.39453e-33 1.52833e-15 1.52833e-15)
(-2.00723e-30 -4.99001e-14 0)
(6.74002e-28 6.89561e-14 6.89561e-14)
(-1.64399e-27 6.31462e-13 -0)
(-2.16244e-28 -2.88619e-13 -2.88619e-13)
(7.88935e-31 6.75591e-14 0)
(5.54587e-31 7.53041e-15 7.53041e-15)
(-7.52185e-31 1.18219e-14 -0)
(2.8192e-31 -6.32495e-15 -6.32495e-15)
(1.85388e-33 -4.91845e-15 -0)
(-2.41115e-31 -5.22811e-14 -5.22811e-14)
(2.6004e-31 -1.3222e-14 -0)
(5.99488e-30 -4.46651e-14 -4.46651e-14)
(8.12305e-30 -7.05634e-14 -0)
(-3.23435e-30 -1.10332e-13 -1.10332e-13)
(-2.66782e-29 -1.52402e-13 0)
(-1.03653e-29 -5.23284e-14 -5.23284e-14)
(2.23401e-30 1.4299e-14 0)
(-3.83719e-30 -6.96511e-14 -6.96511e-14)
(3.24032e-31 8.18387e-15 0)
(-4.05359e-32 1.51552e-15 1.51552e-15)
(-5.64149e-33 -2.30842e-16 0)
(-5.01839e-26 -2.11675e-12 -2.11675e-12)
(-9.98679e-27 2.12083e-12 -0)
(-7.80795e-28 -6.82236e-13 -6.82236e-13)
(-1.05811e-30 1.9257e-14 -0)
(-2.02608e-29 -1.46032e-13 -1.46032e-13)
(-3.62993e-30 -7.24242e-14 0)
(-2.80144e-30 -5.62172e-14 -5.62172e-14)
(-5.75124e-30 -8.1937e-14 0)
(-6.27853e-31 -1.12015e-14 -1.12015e-14)
(3.29743e-30 -3.71145e-14 -0)
(1.06121e-29 -9.23556e-14 -9.23556e-14)
(-2.25904e-30 -1.0478e-13 0)
(-1.12512e-29 -9.39628e-14 -9.39628e-14)
(-5.43949e-30 -3.67443e-14 0)
(-1.93836e-29 -8.96835e-14 -8.96835e-14)
(-7.57781e-30 -3.27026e-14 0)
(1.20677e-31 1.13995e-13 1.13995e-13)
(-3.96775e-31 4.17316e-15 -0)
(3.79359e-31 -9.32705e-15 -9.32705e-15)
(7.67732e-33 -4.24803e-15 -0)
(-4.54124e-26 1.881e-12 1.881e-12)
(-9.9323e-27 -2.07331e-12 0)
(-8.3222e-28 6.70531e-13 6.70531e-13)
(6.16568e-30 2.4309e-14 0)
(-2.17223e-29 1.68426e-13 1.68426e-13)
(-5.70232e-30 7.56588e-14 -0)
(-5.53102e-30 7.63856e-14 7.63856e-14)
(-2.85797e-30 1.09613e-13 -0)
(-9.66868e-30 1.14644e-13 1.14644e-13)
(-3.09533e-30 3.50516e-14 -0)
(9.07011e-31 8.4571e-15 8.4571e-15)
(1.00483e-29 1.02354e-13 0)
(-1.05552e-29 1.02335e-13 1.02335e-13)
(-1.1388e-29 1.01653e-13 -0)
(-5.2713e-31 1.48597e-14 1.48597e-14)
(5.26337e-31 5.0485e-14 0)
(2.25704e-32 1.26974e-14 1.26974e-14)
(-1.09461e-30 9.3919e-15 -0)
(9.7469e-31 -1.05782e-14 -1.05782e-14)
(1.10795e-31 -1.02908e-14 -0)
(-2.68338e-26 1.37411e-12 1.37411e-12)
(-6.09516e-27 -1.82073e-12 0)
(-2.29476e-28 2.94658e-13 2.94658e-13)
(-8.83665e-30 -6.79644e-14 0)
(-2.16295e-30 2.18165e-14 2.18165e-14)
(4.06956e-31 -4.61682e-15 -0)
(1.918e-30 -3.62059e-14 -3.62059e-14)
(-8.7716e-32 -3.06473e-14 0)
(5.77716e-31 -3.29131e-14 -3.29131e-14)
(-8.67559e-31 -1.42356e-14 0)
(7.59634e-30 6.08666e-14 6.08666e-14)
(-1.45528e-31 2.58856e-14 -0)
(-6.81876e-31 5.08664e-15 5.08664e-15)
(2.07554e-30 -3.67428e-14 -0)
(-2.16719e-30 5.75225e-14 5.75225e-14)
(-1.60635e-31 1.79255e-15 -0)
(3.89629e-32 -7.0076e-16 -7.0076e-16)
(-5.52593e-33 6.68957e-17 -0)
(4.9466e-31 -8.79085e-15 -8.79085e-15)
(-2.70298e-32 -5.09664e-15 0)
)
;

boundaryField
{
    movingWall
    {
        type            calculated;
        value           nonuniform List<vector> 
20
(
(0 6.41058e-13 -0)
(0 -1.96376e-12 -0)
(0 -7.79173e-14 -0)
(0 -2.90009e-13 -0)
(0 -2.44637e-13 -0)
(0 -2.26661e-13 -0)
(0 -1.86737e-13 -0)
(0 -2.25587e-13 -0)
(0 -1.83444e-13 -0)
(0 -1.03053e-13 -0)
(0 -3.77524e-14 -0)
(0 -2.40568e-13 -0)
(0 -1.72549e-13 -0)
(0 -1.42864e-13 -0)
(0 -4.10965e-14 -0)
(0 -8.70253e-14 -0)
(0 -7.0076e-16 -0)
(0 6.68957e-17 -0)
(0 -8.79085e-15 -0)
(0 -5.09664e-15 -0)
)
;
    }
    fixedWalls
    {
        type            calculated;
        value           nonuniform List<vector> 
60
(
(0 -1.27911e-11 -0)
(0 -3.04976e-12 -0)
(0 6.82816e-12 -0)
(0 5.02043e-12 -0)
(0 -9.27694e-12 -0)
(0 8.19293e-12 -0)
(0 -7.80718e-13 -0)
(0 -1.24585e-11 -0)
(0 1.80027e-11 -0)
(0 -6.18885e-12 -0)
(0 -1.80433e-12 -0)
(0 2.44548e-13 -0)
(0 2.03095e-12 -0)
(0 1.52626e-12 -0)
(0 -6.76577e-12 -0)
(0 9.38273e-12 -0)
(0 -3.1237e-12 -0)
(0 -9.70004e-12 -0)
(0 9.60285e-12 -0)
(0 7.56733e-12 -0)
(0 2.42406e-14 -0)
(0 6.05983e-15 -0)
(0 -1.50713e-14 -0)
(0 -1.5123e-15 -0)
(0 -2.36953e-14 -0)
(0 2.64866e-14 -0)
(0 3.60455e-14 -0)
(0 5.00198e-15 -0)
(0 1.86178e-14 -0)
(0 -6.3968e-15 -0)
(0 1.35188e-15 -0)
(0 1.15244e-14 -0)
(0 -3.03223e-14 -0)
(0 -1.73816e-14 -0)
(0 2.46605e-14 -0)
(0 -3.81201e-14 -0)
(0 9.77549e-15 -0)
(0 -7.22906e-16 -0)
(0 -4.30657e-15 -0)
(0 2.12138e-15 -0)
(0 -2.3821e-12 -0)
(0 3.24143e-12 -0)
(0 -2.06192e-13 -0)
(0 3.4839e-13 -0)
(0 2.72741e-13 -0)
(0 3.55544e-13 -0)
(0 2.58824e-13 -0)
(0 2.56363e-13 -0)
(0 2.71327e-13 -0)
(0 1.53039e-13 -0)
(0 1.83843e-13 -0)
(0 1.65709e-13 -0)
(0 1.74455e-13 -0)
(0 9.56253e-14 -0)
(0 9.14012e-14 -0)
(0 4.4857e-14 -0)
(0 5.15443e-15 -0)
(0 4.50758e-14 -0)
(0 3.55608e-14 -0)
(0 8.44026e-15 -0)
)
;
    }
    frontAndBack
    {
        type            empty;
    }
}


// ************************************************************************* //
