/*--------------------------------*- C++ -*----------------------------------*\
| =========                 |                                                 |
| \\      /  F ield         | OpenFOAM: The Open Source CFD Toolbox           |
|  \\    /   O peration     | Version:  2312                                  |
|   \\  /    A nd           | Website:  www.openfoam.com                      |
|    \\/     M anipulation  |                                                 |
\*---------------------------------------------------------------------------*/
FoamFile
{
    version     2.0;
    format      ascii;
    arch        "LSB;label=32;scalar=64";
    class       volScalarField;
    location    "8";
    object      magSqrP;
}
// * * * * * * * * * * * * * * * * * * * * * * * * * * * * * * * * * * * * * //

dimensions      [0 4 -4 0 0 0 0];

internalField   nonuniform List<scalar> 
400
(
1.60451e-31
4.63331e-30
2.92614e-30
3.53295e-30
3.8553e-30
5.02712e-30
6.37491e-30
6.06794e-30
6.4062e-30
7.39807e-30
6.50163e-30
6.67484e-30
8.28282e-30
8.21638e-30
7.13408e-30
6.85255e-30
5.58098e-30
6.26176e-30
7.60798e-30
7.579e-30
3.39475e-30
1.71974e-31
3.70619e-30
3.73004e-30
4.88393e-30
5.47315e-30
5.48427e-30
5.80311e-30
5.86016e-30
6.94103e-30
7.32116e-30
7.61395e-30
7.70774e-30
7.91412e-30
7.11239e-30
7.46099e-30
5.52212e-30
6.8031e-30
7.0065e-30
6.12624e-30
4.68559e-30
2.10136e-30
3.85036e-30
4.03156e-30
4.95605e-30
5.44261e-30
5.77201e-30
6.14499e-30
5.96378e-30
8.08248e-30
7.43951e-30
7.19013e-30
7.13038e-30
8.18463e-30
7.34776e-30
6.87613e-30
5.35896e-30
5.35928e-30
6.23838e-30
6.60715e-30
3.20893e-30
5.91342e-30
4.36467e-30
4.84392e-30
4.80951e-30
5.56099e-30
6.21443e-30
6.19329e-30
6.43901e-30
7.04141e-30
6.96578e-30
7.64868e-30
8.0645e-30
7.45297e-30
6.48252e-30
6.16689e-30
4.95013e-30
4.61746e-30
5.67288e-30
7.49963e-30
4.13145e-30
6.65939e-30
4.86506e-30
4.58808e-30
5.16063e-30
5.789e-30
6.72671e-30
6.134e-30
6.78288e-30
6.91797e-30
7.29302e-30
6.97596e-30
7.26969e-30
7.54192e-30
6.63024e-30
5.14083e-30
4.89813e-30
4.70538e-30
5.21057e-30
7.39063e-30
5.16627e-30
1.44737e-30
5.47973e-30
4.27886e-30
5.91147e-30
6.46209e-30
6.69402e-30
6.59779e-30
7.03289e-30
6.52257e-30
6.88766e-30
6.59766e-30
6.83129e-30
6.83109e-30
6.26948e-30
5.46143e-30
5.16912e-30
4.08986e-30
4.42554e-30
6.70647e-30
4.34533e-30
1.45572e-29
4.76727e-30
4.91058e-30
5.98911e-30
6.44998e-30
6.93348e-30
6.81933e-30
6.36381e-30
6.35713e-30
6.42127e-30
6.30585e-30
5.82631e-30
5.5449e-30
5.39046e-30
5.69717e-30
5.17723e-30
4.22546e-30
4.36999e-30
5.76957e-30
5.64568e-30
3.9644e-31
5.7956e-30
4.25935e-30
5.34832e-30
5.96012e-30
7.25785e-30
7.25393e-30
6.12977e-30
6.20461e-30
7.04804e-30
7.06222e-30
5.42137e-30
4.80631e-30
5.02803e-30
5.04417e-30
4.52777e-30
3.9145e-30
4.88555e-30
5.07813e-30
3.70723e-30
8.36515e-30
4.29827e-30
4.85741e-30
4.85512e-30
5.67868e-30
6.08663e-30
6.01727e-30
6.57223e-30
5.47286e-30
5.2541e-30
5.5373e-30
5.34906e-30
5.03529e-30
4.60028e-30
4.87141e-30
4.86461e-30
4.39036e-30
4.26021e-30
4.61439e-30
2.46495e-30
6.29104e-30
4.04867e-30
4.33381e-30
4.50361e-30
4.75743e-30
4.75898e-30
4.85742e-30
5.34337e-30
4.604e-30
5.34431e-30
5.18771e-30
5.18024e-30
5.118e-30
4.77489e-30
5.23125e-30
4.55601e-30
3.98759e-30
3.44736e-30
4.52359e-30
3.53189e-30
1.80467e-30
4.29513e-30
3.7003e-30
3.87551e-30
4.10347e-30
4.35974e-30
4.09578e-30
4.68348e-30
5.25701e-30
5.13388e-30
4.8467e-30
4.60807e-30
4.50519e-30
4.53946e-30
5.03875e-30
5.29051e-30
4.04597e-30
3.62524e-30
4.42435e-30
4.75459e-30
4.31082e-30
2.85424e-30
3.20301e-30
3.43856e-30
3.92721e-30
4.02239e-30
3.49317e-30
4.18184e-30
5.23186e-30
5.80987e-30
5.02465e-30
4.49726e-30
4.55687e-30
4.53399e-30
4.91128e-30
4.73144e-30
5.29038e-30
3.8287e-30
4.02782e-30
4.04855e-30
6.47845e-31
3.18399e-30
2.52489e-30
3.14828e-30
3.30559e-30
3.499e-30
3.37681e-30
4.12798e-30
4.81723e-30
5.56786e-30
4.617e-30
4.93771e-30
4.8642e-30
4.41026e-30
4.77399e-30
4.81811e-30
5.05219e-30
4.58489e-30
3.84447e-30
2.3048e-30
6.84373e-30
2.69798e-30
2.84786e-30
2.71527e-30
3.13081e-30
3.28281e-30
3.83161e-30
3.67964e-30
4.38944e-30
5.33827e-30
5.11111e-30
4.58245e-30
4.73138e-30
4.24928e-30
4.33522e-30
4.36413e-30
4.36932e-30
4.74654e-30
5.19361e-30
2.05037e-30
6.67472e-31
3.07442e-30
2.95765e-30
2.91409e-30
3.0754e-30
2.81212e-30
3.70532e-30
3.78335e-30
4.20796e-30
4.4921e-30
4.57937e-30
4.31061e-30
4.42391e-30
5.09927e-30
4.49165e-30
3.58435e-30
3.97571e-30
4.45409e-30
5.88061e-30
1.58732e-30
6.57256e-31
2.56898e-30
3.51575e-30
2.77711e-30
3.32404e-30
3.09199e-30
3.25612e-30
3.32665e-30
4.09236e-30
4.53894e-30
4.33599e-30
3.70713e-30
3.89097e-30
4.57127e-30
4.51706e-30
4.32723e-30
4.19238e-30
4.34415e-30
5.47886e-30
5.48399e-31
4.66521e-30
2.52572e-30
3.03212e-30
2.3367e-30
2.8544e-30
3.00826e-30
3.14983e-30
3.41931e-30
4.00327e-30
4.72428e-30
4.60336e-30
3.83789e-30
3.41959e-30
3.77819e-30
4.02663e-30
3.89224e-30
3.35833e-30
4.63888e-30
5.01955e-30
2.19971e-30
6.28646e-31
1.36013e-30
2.09468e-30
2.14462e-30
2.71989e-30
2.97186e-30
3.05399e-30
3.25271e-30
3.47482e-30
5.22168e-30
4.96043e-30
3.67697e-30
3.06361e-30
3.15264e-30
3.09648e-30
3.889e-30
3.11954e-30
4.48194e-30
4.95882e-30
2.28518e-30
1.10231e-31
1.5056e-30
1.57219e-30
2.43456e-30
2.9071e-30
3.03502e-30
2.75265e-30
2.92675e-30
4.04289e-30
4.75433e-30
4.11629e-30
3.34831e-30
2.99925e-30
2.92085e-30
2.51789e-30
2.98146e-30
3.203e-30
4.86655e-30
5.39667e-30
4.16408e-31
4.19113e-30
1.49718e-30
2.20984e-30
2.92339e-30
3.27636e-30
3.03784e-30
2.81105e-30
3.61122e-30
4.16627e-30
3.7633e-30
3.49909e-30
3.66879e-30
3.14469e-30
2.79812e-30
2.35893e-30
2.62629e-30
3.50303e-30
4.86059e-30
5.12513e-30
)
;

boundaryField
{
    movingWall
    {
        type            calculated;
        value           nonuniform List<scalar> 
20
(
4.16408e-31
4.19113e-30
1.49718e-30
2.20984e-30
2.92339e-30
3.27636e-30
3.03784e-30
2.81105e-30
3.61122e-30
4.16627e-30
3.7633e-30
3.49909e-30
3.66879e-30
3.14469e-30
2.79812e-30
2.35893e-30
2.62629e-30
3.50303e-30
4.86059e-30
5.12513e-30
)
;
    }
    fixedWalls
    {
        type            calculated;
        value           nonuniform List<scalar> 
60
(
1.60451e-31
3.39475e-30
4.68559e-30
3.20893e-30
4.13145e-30
5.16627e-30
4.34533e-30
5.64568e-30
3.70723e-30
2.46495e-30
3.53189e-30
4.75459e-30
4.04855e-30
2.3048e-30
2.05037e-30
1.58732e-30
5.48399e-31
2.19971e-30
2.28518e-30
4.16408e-31
7.579e-30
6.12624e-30
6.60715e-30
7.49963e-30
7.39063e-30
6.70647e-30
5.76957e-30
5.07813e-30
4.61439e-30
4.52359e-30
4.42435e-30
4.02782e-30
3.84447e-30
5.19361e-30
5.88061e-30
5.47886e-30
5.01955e-30
4.95882e-30
5.39667e-30
5.12513e-30
1.60451e-31
4.63331e-30
2.92614e-30
3.53295e-30
3.8553e-30
5.02712e-30
6.37491e-30
6.06794e-30
6.4062e-30
7.39807e-30
6.50163e-30
6.67484e-30
8.28282e-30
8.21638e-30
7.13408e-30
6.85255e-30
5.58098e-30
6.26176e-30
7.60798e-30
7.579e-30
)
;
    }
    frontAndBack
    {
        type            empty;
    }
}


// ************************************************************************* //
