/*--------------------------------*- C++ -*----------------------------------*\
| =========                 |                                                 |
| \\      /  F ield         | OpenFOAM: The Open Source CFD Toolbox           |
|  \\    /   O peration     | Version:  2312                                  |
|   \\  /    A nd           | Website:  www.openfoam.com                      |
|    \\/     M anipulation  |                                                 |
\*---------------------------------------------------------------------------*/
FoamFile
{
    version     2.0;
    format      ascii;
    arch        "LSB;label=32;scalar=64";
    class       volVectorField;
    location    "8";
    object      momentum1:momentum;
}
// * * * * * * * * * * * * * * * * * * * * * * * * * * * * * * * * * * * * * //

dimensions      [1 1 -1 0 0 0 0];

internalField   nonuniform List<vector> 
400
(
(-2.5e-07 7.77422e-21 0)
(-2.5e-07 -1.59693e-21 0)
(-2.5e-07 3.36788e-22 0)
(-2.5e-07 -8.22534e-23 0)
(-2.5e-07 2.09249e-23 0)
(-2.5e-07 1.30514e-23 0)
(-2.5e-07 2.02434e-23 0)
(-2.5e-07 3.2125e-23 0)
(-2.5e-07 4.54708e-23 0)
(-2.5e-07 1.99419e-23 0)
(-2.5e-07 -4.05929e-24 0)
(-2.5e-07 4.42286e-24 0)
(-2.5e-07 2.57563e-23 0)
(-2.5e-07 1.23746e-23 0)
(-2.5e-07 8.7377e-24 0)
(-2.5e-07 5.91611e-24 0)
(-2.5e-07 7.61758e-24 0)
(-2.5e-07 -6.96997e-24 0)
(-2.5e-07 5.95028e-24 0)
(-2.5e-07 1.51504e-23 0)
(-2.5e-07 1.9061e-21 0)
(-2.5e-07 -3.34712e-22 0)
(-2.5e-07 5.31481e-23 0)
(-2.5e-07 -1.08135e-23 0)
(-2.5e-07 -6.49788e-25 0)
(-2.5e-07 -8.461e-24 0)
(-2.5e-07 -9.62988e-24 0)
(-2.5e-07 1.10148e-23 0)
(-2.5e-07 3.2638e-23 0)
(-2.5e-07 6.86215e-24 0)
(-2.5e-07 -1.29742e-23 0)
(-2.5e-07 1.44277e-23 0)
(-2.5e-07 2.7435e-23 0)
(-2.5e-07 2.6192e-25 0)
(-2.5e-07 1.47899e-23 0)
(-2.5e-07 3.12823e-23 0)
(-2.5e-07 2.18608e-23 0)
(-2.5e-07 6.39783e-24 0)
(-2.5e-07 -6.08547e-24 0)
(-2.5e-07 3.78739e-24 0)
(-2.5e-07 -4.2676e-21 0)
(-2.5e-07 7.90326e-22 0)
(-2.5e-07 -1.61308e-22 0)
(-2.5e-07 1.17988e-23 0)
(-2.5e-07 -5.68042e-23 0)
(-2.5e-07 -5.15201e-23 0)
(-2.5e-07 -4.72579e-23 0)
(-2.5e-07 -2.28742e-23 0)
(-2.5e-07 -1.37643e-23 0)
(-2.5e-07 6.71981e-25 0)
(-2.5e-07 -1.12482e-23 0)
(-2.5e-07 -1.51511e-23 0)
(-2.5e-07 -1.7166e-23 0)
(-2.5e-07 -8.49041e-24 0)
(-2.5e-07 5.39888e-24 0)
(-2.5e-07 1.82695e-23 0)
(-2.5e-07 8.79171e-24 0)
(-2.5e-07 1.91258e-24 0)
(-2.5e-07 -3.0388e-23 0)
(-2.5e-07 -2.63602e-23 0)
(-2.5e-07 -2.62955e-21 0)
(-2.5e-07 5.26122e-22 0)
(-2.5e-07 -1.00549e-22 0)
(-2.5e-07 1.09354e-23 0)
(-2.5e-07 -4.31727e-23 0)
(-2.5e-07 -2.61714e-23 0)
(-2.5e-07 -1.55101e-23 0)
(-2.5e-07 -6.86052e-24 0)
(-2.5e-07 -1.22225e-23 0)
(-2.5e-07 2.85164e-24 0)
(-2.5e-07 -8.68838e-24 0)
(-2.5e-07 -9.24908e-24 0)
(-2.5e-07 1.91907e-24 0)
(-2.5e-07 2.43453e-23 0)
(-2.5e-07 3.0708e-23 0)
(-2.5e-07 3.07717e-23 0)
(-2.5e-07 -1.04461e-24 0)
(-2.5e-07 -1.39899e-23 0)
(-2.5e-07 -1.77582e-23 0)
(-2.5e-07 -1.78858e-23 0)
(-2.5e-07 5.42539e-21 0)
(-2.5e-07 -1.07129e-21 0)
(-2.5e-07 2.43438e-22 0)
(-2.5e-07 -2.38899e-23 0)
(-2.5e-07 2.03641e-23 0)
(-2.5e-07 1.33298e-23 0)
(-2.5e-07 1.77386e-23 0)
(-2.5e-07 -4.00311e-24 0)
(-2.5e-07 -1.65543e-24 0)
(-2.5e-07 2.25364e-23 0)
(-2.5e-07 2.71326e-23 0)
(-2.5e-07 3.21685e-23 0)
(-2.5e-07 1.90444e-23 0)
(-2.5e-07 3.62236e-24 0)
(-2.5e-07 -8.16785e-24 0)
(-2.5e-07 -6.44876e-24 0)
(-2.5e-07 -9.53328e-24 0)
(-2.5e-07 1.05337e-23 0)
(-2.5e-07 7.70768e-24 0)
(-2.5e-07 2.1311e-24 0)
(-2.5e-07 -5.20528e-21 0)
(-2.5e-07 1.00252e-21 0)
(-2.5e-07 -2.22044e-22 0)
(-2.5e-07 5.51291e-23 0)
(-2.5e-07 -4.87607e-24 0)
(-2.5e-07 2.83014e-24 0)
(-2.5e-07 2.93994e-24 0)
(-2.5e-07 7.28497e-24 0)
(-2.5e-07 4.0593e-23 0)
(-2.5e-07 5.61326e-23 0)
(-2.5e-07 4.61577e-23 0)
(-2.5e-07 2.46329e-23 0)
(-2.5e-07 2.02972e-23 0)
(-2.5e-07 6.34378e-24 0)
(-2.5e-07 -3.18534e-23 0)
(-2.5e-07 -5.86905e-23 0)
(-2.5e-07 -2.29759e-23 0)
(-2.5e-07 5.32629e-24 0)
(-2.5e-07 1.31218e-23 0)
(-2.5e-07 1.65541e-23 0)
(-2.5e-07 4.37127e-22 0)
(-2.5e-07 -5.66259e-23 0)
(-2.5e-07 -2.73095e-23 0)
(-2.5e-07 -2.0207e-23 0)
(-2.5e-07 3.04178e-24 0)
(-2.5e-07 9.60375e-24 0)
(-2.5e-07 -9.42973e-24 0)
(-2.5e-07 -3.39964e-24 0)
(-2.5e-07 2.28701e-23 0)
(-2.5e-07 9.99353e-24 0)
(-2.5e-07 -5.822e-24 0)
(-2.5e-07 5.20423e-24 0)
(-2.5e-07 4.83589e-23 0)
(-2.5e-07 5.15386e-23 0)
(-2.5e-07 1.57807e-23 0)
(-2.5e-07 7.36497e-24 0)
(-2.5e-07 2.0834e-23 0)
(-2.5e-07 6.9846e-24 0)
(-2.5e-07 5.34537e-24 0)
(-2.5e-07 2.25284e-23 0)
(-2.5e-07 8.36256e-21 0)
(-2.5e-07 -1.95831e-21 0)
(-2.5e-07 3.52308e-22 0)
(-2.5e-07 -1.76562e-22 0)
(-2.5e-07 -1.77308e-23 0)
(-2.5e-07 -2.36246e-23 0)
(-2.5e-07 -4.65739e-24 0)
(-2.5e-07 1.39752e-24 0)
(-2.5e-07 2.33879e-23 0)
(-2.5e-07 6.90958e-23 0)
(-2.5e-07 7.22963e-23 0)
(-2.5e-07 4.64279e-23 0)
(-2.5e-07 1.59648e-23 0)
(-2.5e-07 3.8308e-24 0)
(-2.5e-07 -1.63708e-24 0)
(-2.5e-07 -1.06456e-25 0)
(-2.5e-07 1.1858e-24 0)
(-2.5e-07 9.66067e-24 0)
(-2.5e-07 1.77604e-23 0)
(-2.5e-07 2.00669e-23 0)
(-2.5e-07 -1.09637e-20 0)
(-2.5e-07 2.20862e-21 0)
(-2.5e-07 -5.19126e-22 0)
(-2.5e-07 9.11821e-23 0)
(-2.5e-07 -7.72986e-24 0)
(-2.5e-07 3.2172e-23 0)
(-2.5e-07 4.29612e-23 0)
(-2.5e-07 3.87361e-23 0)
(-2.5e-07 2.55044e-23 0)
(-2.5e-07 4.70636e-23 0)
(-2.5e-07 5.97664e-23 0)
(-2.5e-07 4.24516e-23 0)
(-2.5e-07 -1.36118e-23 0)
(-2.5e-07 -2.40863e-23 0)
(-2.5e-07 -1.11754e-25 0)
(-2.5e-07 -8.98275e-24 0)
(-2.5e-07 -1.69161e-23 0)
(-2.5e-07 1.24755e-23 0)
(-2.5e-07 3.56048e-23 0)
(-2.5e-07 1.16361e-23 0)
(-2.5e-07 2.58054e-21 0)
(-2.5e-07 -4.36384e-22 0)
(-2.5e-07 2.83434e-23 0)
(-2.5e-07 -4.89188e-23 0)
(-2.5e-07 -1.88965e-23 0)
(-2.5e-07 5.99576e-24 0)
(-2.5e-07 2.64876e-23 0)
(-2.5e-07 4.49647e-23 0)
(-2.5e-07 2.82381e-23 0)
(-2.5e-07 4.15085e-24 0)
(-2.5e-07 2.65622e-23 0)
(-2.5e-07 3.84235e-23 0)
(-2.5e-07 2.27319e-23 0)
(-2.5e-07 1.14232e-23 0)
(-2.5e-07 1.52695e-23 0)
(-2.5e-07 1.92117e-23 0)
(-2.5e-07 1.838e-23 0)
(-2.5e-07 1.87347e-23 0)
(-2.5e-07 1.48429e-23 0)
(-2.5e-07 -3.998e-24 0)
(-2.5e-07 2.02556e-21 0)
(-2.5e-07 -4.92231e-22 0)
(-2.5e-07 1.21539e-22 0)
(-2.5e-07 -6.42051e-23 0)
(-2.5e-07 -4.47992e-23 0)
(-2.5e-07 -3.65952e-23 0)
(-2.5e-07 1.7359e-23 0)
(-2.5e-07 4.57908e-23 0)
(-2.5e-07 4.57534e-23 0)
(-2.5e-07 3.68698e-23 0)
(-2.5e-07 4.42024e-23 0)
(-2.5e-07 3.52817e-23 0)
(-2.5e-07 2.41964e-23 0)
(-2.5e-07 1.39946e-23 0)
(-2.5e-07 1.2156e-23 0)
(-2.5e-07 3.04993e-23 0)
(-2.5e-07 2.74859e-23 0)
(-2.5e-07 -1.54705e-26 0)
(-2.5e-07 3.24017e-24 0)
(-2.5e-07 8.44925e-25 0)
(-2.5e-07 -7.62706e-22 0)
(-2.5e-07 2.51528e-22 0)
(-2.5e-07 -3.90318e-23 0)
(-2.5e-07 1.75841e-23 0)
(-2.5e-07 4.98545e-24 0)
(-2.5e-07 2.72312e-23 0)
(-2.5e-07 3.65459e-23 0)
(-2.5e-07 3.70397e-23 0)
(-2.5e-07 3.67372e-23 0)
(-2.5e-07 1.11431e-23 0)
(-2.5e-07 -2.58101e-23 0)
(-2.5e-07 1.33535e-24 0)
(-2.5e-07 2.7094e-23 0)
(-2.5e-07 3.45283e-23 0)
(-2.5e-07 3.79151e-23 0)
(-2.5e-07 3.27458e-23 0)
(-2.5e-07 2.45716e-23 0)
(-2.5e-07 3.43819e-24 0)
(-2.5e-07 -6.34025e-24 0)
(-2.5e-07 7.20273e-24 0)
(-2.5e-07 -1.09994e-21 0)
(-2.5e-07 6.00915e-23 0)
(-2.5e-07 -8.00421e-23 0)
(-2.5e-07 -1.89225e-23 0)
(-2.5e-07 1.17345e-24 0)
(-2.5e-07 1.24113e-23 0)
(-2.5e-07 4.17362e-24 0)
(-2.5e-07 1.55484e-23 0)
(-2.5e-07 4.03605e-23 0)
(-2.5e-07 1.39807e-23 0)
(-2.5e-07 -2.10053e-23 0)
(-2.5e-07 -2.39454e-24 0)
(-2.5e-07 2.87128e-23 0)
(-2.5e-07 3.68123e-23 0)
(-2.5e-07 4.12466e-23 0)
(-2.5e-07 1.47962e-23 0)
(-2.5e-07 -4.79723e-24 0)
(-2.5e-07 -8.0993e-24 0)
(-2.5e-07 -3.21889e-23 0)
(-2.5e-07 -1.89514e-23 0)
(-2.5e-07 -3.77932e-22 0)
(-2.5e-07 4.26189e-23 0)
(-2.5e-07 -1.8082e-23 0)
(-2.5e-07 -7.81092e-24 0)
(-2.5e-07 1.62721e-23 0)
(-2.5e-07 2.53197e-23 0)
(-2.5e-07 2.27912e-23 0)
(-2.5e-07 9.65607e-26 0)
(-2.5e-07 1.12765e-24 0)
(-2.5e-07 1.00694e-23 0)
(-2.5e-07 1.47889e-23 0)
(-2.5e-07 -1.99655e-23 0)
(-2.5e-07 -1.91962e-23 0)
(-2.5e-07 -1.86625e-23 0)
(-2.5e-07 -1.42046e-23 0)
(-2.5e-07 1.17761e-23 0)
(-2.5e-07 1.06476e-23 0)
(-2.5e-07 -1.29688e-23 0)
(-2.5e-07 -2.49995e-23 0)
(-2.5e-07 -2.78042e-23 0)
(-2.5e-07 3.31381e-21 0)
(-2.5e-07 -5.46756e-22 0)
(-2.5e-07 8.53992e-23 0)
(-2.5e-07 -6.38063e-23 0)
(-2.5e-07 1.49013e-23 0)
(-2.5e-07 4.10373e-23 0)
(-2.5e-07 5.53792e-23 0)
(-2.5e-07 4.80917e-23 0)
(-2.5e-07 3.57839e-23 0)
(-2.5e-07 3.97073e-23 0)
(-2.5e-07 3.83768e-23 0)
(-2.5e-07 1.17901e-23 0)
(-2.5e-07 1.14818e-23 0)
(-2.5e-07 4.99692e-24 0)
(-2.5e-07 -1.94279e-23 0)
(-2.5e-07 -2.27091e-23 0)
(-2.5e-07 -1.80789e-23 0)
(-2.5e-07 -1.14027e-23 0)
(-2.5e-07 1.7798e-24 0)
(-2.5e-07 -1.52782e-24 0)
(-2.5e-07 -5.50845e-21 0)
(-2.5e-07 1.0068e-21 0)
(-2.5e-07 -2.48911e-22 0)
(-2.5e-07 3.40368e-23 0)
(-2.5e-07 -7.31791e-24 0)
(-2.5e-07 5.45595e-24 0)
(-2.5e-07 1.4313e-23 0)
(-2.5e-07 3.03287e-23 0)
(-2.5e-07 2.03827e-23 0)
(-2.5e-07 1.05339e-23 0)
(-2.5e-07 5.43715e-24 0)
(-2.5e-07 9.27403e-24 0)
(-2.5e-07 1.58916e-23 0)
(-2.5e-07 2.21376e-23 0)
(-2.5e-07 1.18362e-24 0)
(-2.5e-07 -2.15903e-23 0)
(-2.5e-07 -8.7964e-24 0)
(-2.5e-07 1.38771e-23 0)
(-2.5e-07 7.18845e-25 0)
(-2.5e-07 1.00563e-23 0)
(-2.5e-07 2.44359e-21 0)
(-2.5e-07 -6.50865e-22 0)
(-2.5e-07 1.87309e-22 0)
(-2.5e-07 2.91942e-24 0)
(-2.5e-07 1.84116e-23 0)
(-2.5e-07 -1.59066e-23 0)
(-2.5e-07 -1.11432e-23 0)
(-2.5e-07 -9.42311e-26 0)
(-2.5e-07 1.15297e-24 0)
(-2.5e-07 -4.9168e-24 0)
(-2.5e-07 -3.35546e-23 0)
(-2.5e-07 -2.87793e-23 0)
(-2.5e-07 7.32868e-24 0)
(-2.5e-07 4.37629e-23 0)
(-2.5e-07 4.95205e-23 0)
(-2.5e-07 3.90587e-23 0)
(-2.5e-07 1.37729e-23 0)
(-2.5e-07 9.89849e-24 0)
(-2.5e-07 -6.68679e-24 0)
(-2.5e-07 6.10968e-24 0)
(-2.5e-07 5.927e-21 0)
(-2.5e-07 -1.17723e-21 0)
(-2.5e-07 2.86116e-22 0)
(-2.5e-07 -1.37367e-23 0)
(-2.5e-07 3.46855e-23 0)
(-2.5e-07 1.25301e-23 0)
(-2.5e-07 1.24581e-23 0)
(-2.5e-07 1.75477e-23 0)
(-2.5e-07 1.40127e-23 0)
(-2.5e-07 -2.22112e-23 0)
(-2.5e-07 -2.87262e-23 0)
(-2.5e-07 5.38998e-24 0)
(-2.5e-07 2.99354e-23 0)
(-2.5e-07 3.7009e-23 0)
(-2.5e-07 5.40335e-23 0)
(-2.5e-07 5.79298e-23 0)
(-2.5e-07 2.64654e-25 0)
(-2.5e-07 -2.37694e-23 0)
(-2.5e-07 -1.01683e-23 0)
(-2.5e-07 -4.51816e-25 0)
(-2.5e-07 -6.03566e-21 0)
(-2.5e-07 1.19764e-21 0)
(-2.5e-07 -3.10284e-22 0)
(-2.5e-07 6.34094e-23 0)
(-2.5e-07 -3.22431e-23 0)
(-2.5e-07 -1.88422e-23 0)
(-2.5e-07 -1.81023e-23 0)
(-2.5e-07 -6.51832e-24 0)
(-2.5e-07 -2.10842e-23 0)
(-2.5e-07 -2.2077e-23 0)
(-2.5e-07 2.68121e-23 0)
(-2.5e-07 2.45429e-23 0)
(-2.5e-07 -2.57858e-23 0)
(-2.5e-07 -2.8007e-23 0)
(-2.5e-07 -8.86844e-24 0)
(-2.5e-07 2.6064e-24 0)
(-2.5e-07 4.4439e-25 0)
(-2.5e-07 -2.91371e-23 0)
(-2.5e-07 -2.30354e-23 0)
(-2.5e-07 -2.69161e-24 0)
(-2.5e-07 -4.88205e-21 0)
(-2.5e-07 8.36912e-22 0)
(-2.5e-07 -1.94697e-22 0)
(-2.5e-07 3.25047e-23 0)
(-2.5e-07 -2.47857e-23 0)
(-2.5e-07 -2.20366e-23 0)
(-2.5e-07 -1.32437e-23 0)
(-2.5e-07 7.15529e-25 0)
(-2.5e-07 -4.38819e-24 0)
(-2.5e-07 1.52358e-23 0)
(-2.5e-07 3.12008e-23 0)
(-2.5e-07 -1.40549e-24 0)
(-2.5e-07 -3.35131e-23 0)
(-2.5e-07 -1.41221e-23 0)
(-2.5e-07 -9.41885e-24 0)
(-2.5e-07 -2.24032e-23 0)
(-2.5e-07 -1.39002e-23 0)
(-2.5e-07 -2.06513e-23 0)
(-2.5e-07 -1.40675e-23 0)
(-2.5e-07 1.32586e-24 0)
)
;

boundaryField
{
    movingWall
    {
        type            calculated;
        value           uniform (0 0 0);
    }
    fixedWalls
    {
        type            calculated;
        value           uniform (0 0 0);
    }
    frontAndBack
    {
        type            empty;
    }
}


// ************************************************************************* //
