/*--------------------------------*- C++ -*----------------------------------*\
| =========                 |                                                 |
| \\      /  F ield         | OpenFOAM: The Open Source CFD Toolbox           |
|  \\    /   O peration     | Version:  2312                                  |
|   \\  /    A nd           | Website:  www.openfoam.com                      |
|    \\/     M anipulation  |                                                 |
\*---------------------------------------------------------------------------*/
FoamFile
{
    version     2.0;
    format      ascii;
    arch        "LSB;label=32;scalar=64";
    class       volVectorField;
    location    "8";
    object      norm_U_L1;
}
// * * * * * * * * * * * * * * * * * * * * * * * * * * * * * * * * * * * * * //

dimensions      [0 0 0 0 0 0 0];

internalField   nonuniform List<vector> 
400
(
(-0.0025 7.77422e-17 0)
(-0.0025 -1.59693e-17 0)
(-0.0025 3.36788e-18 0)
(-0.0025 -8.22534e-19 0)
(-0.0025 2.09249e-19 0)
(-0.0025 1.30514e-19 0)
(-0.0025 2.02434e-19 0)
(-0.0025 3.2125e-19 0)
(-0.0025 4.54708e-19 0)
(-0.0025 1.99419e-19 0)
(-0.0025 -4.05929e-20 0)
(-0.0025 4.42286e-20 0)
(-0.0025 2.57563e-19 0)
(-0.0025 1.23746e-19 0)
(-0.0025 8.7377e-20 0)
(-0.0025 5.91611e-20 0)
(-0.0025 7.61758e-20 0)
(-0.0025 -6.96997e-20 0)
(-0.0025 5.95028e-20 0)
(-0.0025 1.51504e-19 0)
(-0.0025 1.9061e-17 0)
(-0.0025 -3.34712e-18 0)
(-0.0025 5.31481e-19 0)
(-0.0025 -1.08135e-19 0)
(-0.0025 -6.49788e-21 0)
(-0.0025 -8.461e-20 0)
(-0.0025 -9.62988e-20 0)
(-0.0025 1.10148e-19 0)
(-0.0025 3.2638e-19 0)
(-0.0025 6.86215e-20 0)
(-0.0025 -1.29742e-19 0)
(-0.0025 1.44277e-19 0)
(-0.0025 2.7435e-19 0)
(-0.0025 2.6192e-21 0)
(-0.0025 1.47899e-19 0)
(-0.0025 3.12823e-19 0)
(-0.0025 2.18608e-19 0)
(-0.0025 6.39783e-20 0)
(-0.0025 -6.08547e-20 0)
(-0.0025 3.78739e-20 0)
(-0.0025 -4.2676e-17 0)
(-0.0025 7.90326e-18 0)
(-0.0025 -1.61308e-18 0)
(-0.0025 1.17988e-19 0)
(-0.0025 -5.68042e-19 0)
(-0.0025 -5.15201e-19 0)
(-0.0025 -4.72579e-19 0)
(-0.0025 -2.28742e-19 0)
(-0.0025 -1.37643e-19 0)
(-0.0025 6.71981e-21 0)
(-0.0025 -1.12482e-19 0)
(-0.0025 -1.51511e-19 0)
(-0.0025 -1.7166e-19 0)
(-0.0025 -8.49041e-20 0)
(-0.0025 5.39888e-20 0)
(-0.0025 1.82695e-19 0)
(-0.0025 8.79171e-20 0)
(-0.0025 1.91258e-20 0)
(-0.0025 -3.0388e-19 0)
(-0.0025 -2.63602e-19 0)
(-0.0025 -2.62955e-17 0)
(-0.0025 5.26122e-18 0)
(-0.0025 -1.00549e-18 0)
(-0.0025 1.09354e-19 0)
(-0.0025 -4.31727e-19 0)
(-0.0025 -2.61714e-19 0)
(-0.0025 -1.55101e-19 0)
(-0.0025 -6.86052e-20 0)
(-0.0025 -1.22225e-19 0)
(-0.0025 2.85164e-20 0)
(-0.0025 -8.68838e-20 0)
(-0.0025 -9.24908e-20 0)
(-0.0025 1.91907e-20 0)
(-0.0025 2.43453e-19 0)
(-0.0025 3.0708e-19 0)
(-0.0025 3.07717e-19 0)
(-0.0025 -1.04461e-20 0)
(-0.0025 -1.39899e-19 0)
(-0.0025 -1.77582e-19 0)
(-0.0025 -1.78858e-19 0)
(-0.0025 5.42539e-17 0)
(-0.0025 -1.07129e-17 0)
(-0.0025 2.43438e-18 0)
(-0.0025 -2.38899e-19 0)
(-0.0025 2.03641e-19 0)
(-0.0025 1.33298e-19 0)
(-0.0025 1.77386e-19 0)
(-0.0025 -4.00311e-20 0)
(-0.0025 -1.65543e-20 0)
(-0.0025 2.25364e-19 0)
(-0.0025 2.71326e-19 0)
(-0.0025 3.21685e-19 0)
(-0.0025 1.90444e-19 0)
(-0.0025 3.62236e-20 0)
(-0.0025 -8.16785e-20 0)
(-0.0025 -6.44876e-20 0)
(-0.0025 -9.53328e-20 0)
(-0.0025 1.05337e-19 0)
(-0.0025 7.70768e-20 0)
(-0.0025 2.1311e-20 0)
(-0.0025 -5.20528e-17 0)
(-0.0025 1.00252e-17 0)
(-0.0025 -2.22044e-18 0)
(-0.0025 5.51291e-19 0)
(-0.0025 -4.87607e-20 0)
(-0.0025 2.83014e-20 0)
(-0.0025 2.93994e-20 0)
(-0.0025 7.28497e-20 0)
(-0.0025 4.0593e-19 0)
(-0.0025 5.61326e-19 0)
(-0.0025 4.61577e-19 0)
(-0.0025 2.46329e-19 0)
(-0.0025 2.02972e-19 0)
(-0.0025 6.34378e-20 0)
(-0.0025 -3.18534e-19 0)
(-0.0025 -5.86905e-19 0)
(-0.0025 -2.29759e-19 0)
(-0.0025 5.32629e-20 0)
(-0.0025 1.31218e-19 0)
(-0.0025 1.65541e-19 0)
(-0.0025 4.37127e-18 0)
(-0.0025 -5.66259e-19 0)
(-0.0025 -2.73095e-19 0)
(-0.0025 -2.0207e-19 0)
(-0.0025 3.04178e-20 0)
(-0.0025 9.60375e-20 0)
(-0.0025 -9.42973e-20 0)
(-0.0025 -3.39964e-20 0)
(-0.0025 2.28701e-19 0)
(-0.0025 9.99353e-20 0)
(-0.0025 -5.822e-20 0)
(-0.0025 5.20423e-20 0)
(-0.0025 4.83589e-19 0)
(-0.0025 5.15386e-19 0)
(-0.0025 1.57807e-19 0)
(-0.0025 7.36497e-20 0)
(-0.0025 2.0834e-19 0)
(-0.0025 6.9846e-20 0)
(-0.0025 5.34537e-20 0)
(-0.0025 2.25284e-19 0)
(-0.0025 8.36256e-17 0)
(-0.0025 -1.95831e-17 0)
(-0.0025 3.52308e-18 0)
(-0.0025 -1.76562e-18 0)
(-0.0025 -1.77308e-19 0)
(-0.0025 -2.36246e-19 0)
(-0.0025 -4.65739e-20 0)
(-0.0025 1.39752e-20 0)
(-0.0025 2.33879e-19 0)
(-0.0025 6.90958e-19 0)
(-0.0025 7.22963e-19 0)
(-0.0025 4.64279e-19 0)
(-0.0025 1.59648e-19 0)
(-0.0025 3.8308e-20 0)
(-0.0025 -1.63708e-20 0)
(-0.0025 -1.06456e-21 0)
(-0.0025 1.1858e-20 0)
(-0.0025 9.66067e-20 0)
(-0.0025 1.77604e-19 0)
(-0.0025 2.00669e-19 0)
(-0.0025 -1.09637e-16 0)
(-0.0025 2.20862e-17 0)
(-0.0025 -5.19126e-18 0)
(-0.0025 9.11821e-19 0)
(-0.0025 -7.72986e-20 0)
(-0.0025 3.2172e-19 0)
(-0.0025 4.29612e-19 0)
(-0.0025 3.87361e-19 0)
(-0.0025 2.55044e-19 0)
(-0.0025 4.70636e-19 0)
(-0.0025 5.97664e-19 0)
(-0.0025 4.24516e-19 0)
(-0.0025 -1.36118e-19 0)
(-0.0025 -2.40863e-19 0)
(-0.0025 -1.11754e-21 0)
(-0.0025 -8.98275e-20 0)
(-0.0025 -1.69161e-19 0)
(-0.0025 1.24755e-19 0)
(-0.0025 3.56048e-19 0)
(-0.0025 1.16361e-19 0)
(-0.0025 2.58054e-17 0)
(-0.0025 -4.36384e-18 0)
(-0.0025 2.83434e-19 0)
(-0.0025 -4.89188e-19 0)
(-0.0025 -1.88965e-19 0)
(-0.0025 5.99576e-20 0)
(-0.0025 2.64876e-19 0)
(-0.0025 4.49647e-19 0)
(-0.0025 2.82381e-19 0)
(-0.0025 4.15085e-20 0)
(-0.0025 2.65622e-19 0)
(-0.0025 3.84235e-19 0)
(-0.0025 2.27319e-19 0)
(-0.0025 1.14232e-19 0)
(-0.0025 1.52695e-19 0)
(-0.0025 1.92117e-19 0)
(-0.0025 1.838e-19 0)
(-0.0025 1.87347e-19 0)
(-0.0025 1.48429e-19 0)
(-0.0025 -3.998e-20 0)
(-0.0025 2.02556e-17 0)
(-0.0025 -4.92231e-18 0)
(-0.0025 1.21539e-18 0)
(-0.0025 -6.42051e-19 0)
(-0.0025 -4.47992e-19 0)
(-0.0025 -3.65952e-19 0)
(-0.0025 1.7359e-19 0)
(-0.0025 4.57908e-19 0)
(-0.0025 4.57534e-19 0)
(-0.0025 3.68698e-19 0)
(-0.0025 4.42024e-19 0)
(-0.0025 3.52817e-19 0)
(-0.0025 2.41964e-19 0)
(-0.0025 1.39946e-19 0)
(-0.0025 1.2156e-19 0)
(-0.0025 3.04993e-19 0)
(-0.0025 2.74859e-19 0)
(-0.0025 -1.54705e-22 0)
(-0.0025 3.24017e-20 0)
(-0.0025 8.44925e-21 0)
(-0.0025 -7.62706e-18 0)
(-0.0025 2.51528e-18 0)
(-0.0025 -3.90318e-19 0)
(-0.0025 1.75841e-19 0)
(-0.0025 4.98545e-20 0)
(-0.0025 2.72312e-19 0)
(-0.0025 3.65459e-19 0)
(-0.0025 3.70397e-19 0)
(-0.0025 3.67372e-19 0)
(-0.0025 1.11431e-19 0)
(-0.0025 -2.58101e-19 0)
(-0.0025 1.33535e-20 0)
(-0.0025 2.7094e-19 0)
(-0.0025 3.45283e-19 0)
(-0.0025 3.79151e-19 0)
(-0.0025 3.27458e-19 0)
(-0.0025 2.45716e-19 0)
(-0.0025 3.43819e-20 0)
(-0.0025 -6.34025e-20 0)
(-0.0025 7.20273e-20 0)
(-0.0025 -1.09994e-17 0)
(-0.0025 6.00915e-19 0)
(-0.0025 -8.00421e-19 0)
(-0.0025 -1.89225e-19 0)
(-0.0025 1.17345e-20 0)
(-0.0025 1.24113e-19 0)
(-0.0025 4.17362e-20 0)
(-0.0025 1.55484e-19 0)
(-0.0025 4.03605e-19 0)
(-0.0025 1.39807e-19 0)
(-0.0025 -2.10053e-19 0)
(-0.0025 -2.39454e-20 0)
(-0.0025 2.87128e-19 0)
(-0.0025 3.68123e-19 0)
(-0.0025 4.12466e-19 0)
(-0.0025 1.47962e-19 0)
(-0.0025 -4.79723e-20 0)
(-0.0025 -8.0993e-20 0)
(-0.0025 -3.21889e-19 0)
(-0.0025 -1.89514e-19 0)
(-0.0025 -3.77932e-18 0)
(-0.0025 4.26189e-19 0)
(-0.0025 -1.8082e-19 0)
(-0.0025 -7.81092e-20 0)
(-0.0025 1.62721e-19 0)
(-0.0025 2.53197e-19 0)
(-0.0025 2.27912e-19 0)
(-0.0025 9.65607e-22 0)
(-0.0025 1.12765e-20 0)
(-0.0025 1.00694e-19 0)
(-0.0025 1.47889e-19 0)
(-0.0025 -1.99655e-19 0)
(-0.0025 -1.91962e-19 0)
(-0.0025 -1.86625e-19 0)
(-0.0025 -1.42046e-19 0)
(-0.0025 1.17761e-19 0)
(-0.0025 1.06476e-19 0)
(-0.0025 -1.29688e-19 0)
(-0.0025 -2.49995e-19 0)
(-0.0025 -2.78042e-19 0)
(-0.0025 3.31381e-17 0)
(-0.0025 -5.46756e-18 0)
(-0.0025 8.53992e-19 0)
(-0.0025 -6.38063e-19 0)
(-0.0025 1.49013e-19 0)
(-0.0025 4.10373e-19 0)
(-0.0025 5.53792e-19 0)
(-0.0025 4.80917e-19 0)
(-0.0025 3.57839e-19 0)
(-0.0025 3.97073e-19 0)
(-0.0025 3.83768e-19 0)
(-0.0025 1.17901e-19 0)
(-0.0025 1.14818e-19 0)
(-0.0025 4.99692e-20 0)
(-0.0025 -1.94279e-19 0)
(-0.0025 -2.27091e-19 0)
(-0.0025 -1.80789e-19 0)
(-0.0025 -1.14027e-19 0)
(-0.0025 1.7798e-20 0)
(-0.0025 -1.52782e-20 0)
(-0.0025 -5.50845e-17 0)
(-0.0025 1.0068e-17 0)
(-0.0025 -2.48911e-18 0)
(-0.0025 3.40368e-19 0)
(-0.0025 -7.31791e-20 0)
(-0.0025 5.45595e-20 0)
(-0.0025 1.4313e-19 0)
(-0.0025 3.03287e-19 0)
(-0.0025 2.03827e-19 0)
(-0.0025 1.05339e-19 0)
(-0.0025 5.43715e-20 0)
(-0.0025 9.27403e-20 0)
(-0.0025 1.58916e-19 0)
(-0.0025 2.21376e-19 0)
(-0.0025 1.18362e-20 0)
(-0.0025 -2.15903e-19 0)
(-0.0025 -8.7964e-20 0)
(-0.0025 1.38771e-19 0)
(-0.0025 7.18845e-21 0)
(-0.0025 1.00563e-19 0)
(-0.0025 2.44359e-17 0)
(-0.0025 -6.50865e-18 0)
(-0.0025 1.87309e-18 0)
(-0.0025 2.91942e-20 0)
(-0.0025 1.84116e-19 0)
(-0.0025 -1.59066e-19 0)
(-0.0025 -1.11432e-19 0)
(-0.0025 -9.42311e-22 0)
(-0.0025 1.15297e-20 0)
(-0.0025 -4.9168e-20 0)
(-0.0025 -3.35546e-19 0)
(-0.0025 -2.87793e-19 0)
(-0.0025 7.32868e-20 0)
(-0.0025 4.37629e-19 0)
(-0.0025 4.95205e-19 0)
(-0.0025 3.90587e-19 0)
(-0.0025 1.37729e-19 0)
(-0.0025 9.89849e-20 0)
(-0.0025 -6.68679e-20 0)
(-0.0025 6.10968e-20 0)
(-0.0025 5.927e-17 0)
(-0.0025 -1.17723e-17 0)
(-0.0025 2.86116e-18 0)
(-0.0025 -1.37367e-19 0)
(-0.0025 3.46855e-19 0)
(-0.0025 1.25301e-19 0)
(-0.0025 1.24581e-19 0)
(-0.0025 1.75477e-19 0)
(-0.0025 1.40127e-19 0)
(-0.0025 -2.22112e-19 0)
(-0.0025 -2.87262e-19 0)
(-0.0025 5.38998e-20 0)
(-0.0025 2.99354e-19 0)
(-0.0025 3.7009e-19 0)
(-0.0025 5.40335e-19 0)
(-0.0025 5.79298e-19 0)
(-0.0025 2.64654e-21 0)
(-0.0025 -2.37694e-19 0)
(-0.0025 -1.01683e-19 0)
(-0.0025 -4.51816e-21 0)
(-0.0025 -6.03566e-17 0)
(-0.0025 1.19764e-17 0)
(-0.0025 -3.10284e-18 0)
(-0.0025 6.34094e-19 0)
(-0.0025 -3.22431e-19 0)
(-0.0025 -1.88422e-19 0)
(-0.0025 -1.81023e-19 0)
(-0.0025 -6.51832e-20 0)
(-0.0025 -2.10842e-19 0)
(-0.0025 -2.2077e-19 0)
(-0.0025 2.68121e-19 0)
(-0.0025 2.45429e-19 0)
(-0.0025 -2.57858e-19 0)
(-0.0025 -2.8007e-19 0)
(-0.0025 -8.86844e-20 0)
(-0.0025 2.6064e-20 0)
(-0.0025 4.4439e-21 0)
(-0.0025 -2.91371e-19 0)
(-0.0025 -2.30354e-19 0)
(-0.0025 -2.69161e-20 0)
(-0.0025 -4.88205e-17 0)
(-0.0025 8.36912e-18 0)
(-0.0025 -1.94697e-18 0)
(-0.0025 3.25047e-19 0)
(-0.0025 -2.47857e-19 0)
(-0.0025 -2.20366e-19 0)
(-0.0025 -1.32437e-19 0)
(-0.0025 7.15529e-21 0)
(-0.0025 -4.38819e-20 0)
(-0.0025 1.52358e-19 0)
(-0.0025 3.12008e-19 0)
(-0.0025 -1.40549e-20 0)
(-0.0025 -3.35131e-19 0)
(-0.0025 -1.41221e-19 0)
(-0.0025 -9.41885e-20 0)
(-0.0025 -2.24032e-19 0)
(-0.0025 -1.39002e-19 0)
(-0.0025 -2.06513e-19 0)
(-0.0025 -1.40675e-19 0)
(-0.0025 1.32586e-20 0)
)
;

boundaryField
{
    movingWall
    {
        type            calculated;
        value           uniform (-0.0025 -0 -0);
    }
    fixedWalls
    {
        type            calculated;
        value           uniform (-0.0025 -0 -0);
    }
    frontAndBack
    {
        type            empty;
    }
}


// ************************************************************************* //
