/*--------------------------------*- C++ -*----------------------------------*\
| =========                 |                                                 |
| \\      /  F ield         | OpenFOAM: The Open Source CFD Toolbox           |
|  \\    /   O peration     | Version:  2312                                  |
|   \\  /    A nd           | Website:  www.openfoam.com                      |
|    \\/     M anipulation  |                                                 |
\*---------------------------------------------------------------------------*/
FoamFile
{
    version     2.0;
    format      ascii;
    arch        "LSB;label=32;scalar=64";
    class       volScalarField;
    location    "8";
    object      norm_k_field;
}
// * * * * * * * * * * * * * * * * * * * * * * * * * * * * * * * * * * * * * //

dimensions      [0 0 0 0 0 0 0];

internalField   nonuniform List<scalar> 
400
(
2.93409e+09
1.30352e+09
1.51604e+09
1.42705e+09
1.38666e+09
1.26749e+09
1.16582e+09
1.18654e+09
1.16378e+09
1.10469e+09
1.15762e+09
1.14672e+09
1.05966e+09
1.06283e+09
1.11942e+09
1.13589e+09
1.22215e+09
1.17331e+09
1.09342e+09
1.09495e+09
1.4763e+09
2.96626e+09
1.43453e+09
1.43149e+09
1.3072e+09
1.2565e+09
1.25558e+09
1.23085e+09
1.22658e+09
1.15442e+09
1.13222e+09
1.11608e+09
1.11106e+09
1.1003e+09
1.14419e+09
1.12439e+09
1.25245e+09
1.16277e+09
1.15043e+09
1.20732e+09
1.36883e+09
1.76838e+09
1.46231e+09
1.4401e+09
1.3426e+09
1.2996e+09
1.27301e+09
1.24503e+09
1.25833e+09
1.12706e+09
1.16194e+09
1.17648e+09
1.18005e+09
1.12179e+09
1.16719e+09
1.19568e+09
1.30652e+09
1.30649e+09
1.23825e+09
1.21302e+09
1.60186e+09
1.30294e+09
1.44737e+09
1.39684e+09
1.40023e+09
1.33137e+09
1.28e+09
1.28154e+09
1.26381e+09
1.22366e+09
1.22845e+09
1.18722e+09
1.16427e+09
1.19853e+09
1.26069e+09
1.2834e+09
1.38624e+09
1.41973e+09
1.32193e+09
1.19578e+09
1.51232e+09
1.28087e+09
1.43061e+09
1.4596e+09
1.40169e+09
1.34639e+09
1.2761e+09
1.31899e+09
1.27224e+09
1.26318e+09
1.23915e+09
1.25933e+09
1.24057e+09
1.224e+09
1.28265e+09
1.40339e+09
1.42705e+09
1.44685e+09
1.39683e+09
1.23309e+09
1.42637e+09
2.11907e+09
1.39731e+09
1.52131e+09
1.36042e+09
1.31788e+09
1.30124e+09
1.30803e+09
1.27816e+09
1.3134e+09
1.28784e+09
1.30798e+09
1.29165e+09
1.29165e+09
1.3321e+09
1.39873e+09
1.42581e+09
1.54433e+09
1.50384e+09
1.30024e+09
1.53095e+09
9.80666e+08
1.48335e+09
1.46831e+09
1.36976e+09
1.33398e+09
1.29964e+09
1.30745e+09
1.34036e+09
1.34085e+09
1.33602e+09
1.34471e+09
1.38305e+09
1.40737e+09
1.42135e+09
1.39401e+09
1.44147e+09
1.54514e+09
1.52771e+09
1.3878e+09
1.40882e+09
2.91861e+09
1.39581e+09
1.55232e+09
1.43568e+09
1.38197e+09
1.28741e+09
1.28764e+09
1.36819e+09
1.36227e+09
1.30116e+09
1.30019e+09
1.42874e+09
1.48962e+09
1.46664e+09
1.46501e+09
1.5203e+09
1.59653e+09
1.48124e+09
1.4616e+09
1.63331e+09
1.22759e+09
1.55469e+09
1.49124e+09
1.49144e+09
1.41226e+09
1.37797e+09
1.38358e+09
1.3406e+09
1.4306e+09
1.45111e+09
1.42471e+09
1.44205e+09
1.47265e+09
1.51905e+09
1.48953e+09
1.49024e+09
1.54333e+09
1.55909e+09
1.51744e+09
1.86509e+09
1.36632e+09
1.59127e+09
1.55529e+09
1.53513e+09
1.50665e+09
1.50645e+09
1.49587e+09
1.44724e+09
1.52354e+09
1.44712e+09
1.46216e+09
1.46288e+09
1.46902e+09
1.50459e+09
1.45788e+09
1.5289e+09
1.59909e+09
1.67756e+09
1.53261e+09
1.66892e+09
2.05062e+09
1.56395e+09
1.64356e+09
1.61859e+09
1.58804e+09
1.55598e+09
1.58899e+09
1.51849e+09
1.45913e+09
1.47118e+09
1.50071e+09
1.52686e+09
1.53864e+09
1.53466e+09
1.48069e+09
1.45582e+09
1.59536e+09
1.65439e+09
1.54809e+09
1.51434e+09
1.56566e+09
1.79076e+09
1.7264e+09
1.68725e+09
1.61515e+09
1.60229e+09
1.67855e+09
1.58153e+09
1.46491e+09
1.41204e+09
1.48555e+09
1.54309e+09
1.53618e+09
1.5388e+09
1.49725e+09
1.51656e+09
1.45916e+09
1.62861e+09
1.6014e+09
1.60267e+09
2.67463e+09
1.73369e+09
1.8645e+09
1.73989e+09
1.71283e+09
1.68151e+09
1.70101e+09
1.59207e+09
1.51078e+09
1.43665e+09
1.53286e+09
1.49794e+09
1.50569e+09
1.55689e+09
1.51539e+09
1.5106e+09
1.48609e+09
1.53646e+09
1.63013e+09
1.92172e+09
1.33825e+09
1.83119e+09
1.8005e+09
1.82748e+09
1.74722e+09
1.7208e+09
1.63607e+09
1.65802e+09
1.56327e+09
1.46154e+09
1.48381e+09
1.54053e+09
1.52378e+09
1.58041e+09
1.56977e+09
1.56624e+09
1.5656e+09
1.52208e+09
1.47552e+09
1.99515e+09
2.67036e+09
1.76212e+09
1.78388e+09
1.79221e+09
1.76185e+09
1.81232e+09
1.65864e+09
1.64727e+09
1.58989e+09
1.55515e+09
1.54498e+09
1.57698e+09
1.56319e+09
1.48889e+09
1.55514e+09
1.67667e+09
1.62028e+09
1.55956e+09
1.41634e+09
2.1531e+09
2.68721e+09
1.86936e+09
1.69233e+09
1.82466e+09
1.72334e+09
1.76378e+09
1.73479e+09
1.72281e+09
1.60936e+09
1.55406e+09
1.57834e+09
1.66298e+09
1.63658e+09
1.55026e+09
1.55656e+09
1.57936e+09
1.59629e+09
1.57727e+09
1.4562e+09
2.80363e+09
1.5443e+09
1.88458e+09
1.78002e+09
1.92968e+09
1.81424e+09
1.78438e+09
1.75841e+09
1.7125e+09
1.62591e+09
1.5374e+09
1.55107e+09
1.64881e+09
1.71236e+09
1.65735e+09
1.62268e+09
1.6411e+09
1.72238e+09
1.54695e+09
1.50559e+09
1.97046e+09
2.7291e+09
2.25862e+09
1.99921e+09
1.98524e+09
1.84677e+09
1.79608e+09
1.7806e+09
1.74502e+09
1.70811e+09
1.48918e+09
1.51588e+09
1.67675e+09
1.7787e+09
1.76249e+09
1.77264e+09
1.64596e+09
1.76843e+09
1.56938e+09
1.51599e+09
1.95217e+09
3.68108e+09
2.20161e+09
2.17537e+09
1.91495e+09
1.81248e+09
1.78791e+09
1.84371e+09
1.80854e+09
1.62836e+09
1.54143e+09
1.61856e+09
1.73237e+09
1.79451e+09
1.80959e+09
1.89511e+09
1.79786e+09
1.75726e+09
1.52906e+09
1.4752e+09
2.98303e+09
1.61063e+09
2.20722e+09
1.9738e+09
1.81119e+09
1.74656e+09
1.7893e+09
1.83364e+09
1.69221e+09
1.61385e+09
1.66941e+09
1.70974e+09
1.68345e+09
1.7697e+09
1.83629e+09
1.9354e+09
1.87285e+09
1.70911e+09
1.5315e+09
1.50372e+09
)
;

boundaryField
{
    movingWall
    {
        type            calculated;
        value           nonuniform List<scalar> 
20
(
2.98303e+09
1.61063e+09
2.20722e+09
1.9738e+09
1.81119e+09
1.74656e+09
1.7893e+09
1.83364e+09
1.69221e+09
1.61385e+09
1.66941e+09
1.70974e+09
1.68345e+09
1.7697e+09
1.83629e+09
1.9354e+09
1.87285e+09
1.70911e+09
1.5315e+09
1.50372e+09
)
;
    }
    fixedWalls
    {
        type            calculated;
        value           nonuniform List<scalar> 
60
(
2.93409e+09
1.4763e+09
1.36883e+09
1.60186e+09
1.51232e+09
1.42637e+09
1.53095e+09
1.40882e+09
1.63331e+09
1.86509e+09
1.66892e+09
1.51434e+09
1.60267e+09
1.92172e+09
1.99515e+09
2.1531e+09
2.80363e+09
1.97046e+09
1.95217e+09
2.98303e+09
1.09495e+09
1.20732e+09
1.21302e+09
1.19578e+09
1.23309e+09
1.30024e+09
1.3878e+09
1.4616e+09
1.51744e+09
1.53261e+09
1.54809e+09
1.6014e+09
1.63013e+09
1.47552e+09
1.41634e+09
1.4562e+09
1.50559e+09
1.51599e+09
1.4752e+09
1.50372e+09
2.93409e+09
1.30352e+09
1.51604e+09
1.42705e+09
1.38666e+09
1.26749e+09
1.16582e+09
1.18654e+09
1.16378e+09
1.10469e+09
1.15762e+09
1.14672e+09
1.05966e+09
1.06283e+09
1.11942e+09
1.13589e+09
1.22215e+09
1.17331e+09
1.09342e+09
1.09495e+09
)
;
    }
    frontAndBack
    {
        type            empty;
    }
}


// ************************************************************************* //
