/*--------------------------------*- C++ -*----------------------------------*\
| =========                 |                                                 |
| \\      /  F ield         | OpenFOAM: The Open Source CFD Toolbox           |
|  \\    /   O peration     | Version:  2312                                  |
|   \\  /    A nd           | Website:  www.openfoam.com                      |
|    \\/     M anipulation  |                                                 |
\*---------------------------------------------------------------------------*/
FoamFile
{
    version     2.0;
    format      ascii;
    arch        "LSB;label=32;scalar=64";
    class       volVectorField;
    location    "8";
    object      norm_U_composite;
}
// * * * * * * * * * * * * * * * * * * * * * * * * * * * * * * * * * * * * * //

dimensions      [0 0 0 0 0 0 0];

internalField   nonuniform List<vector> 
400
(
(-0.5 1.55484e-14 0)
(-0.5 -3.19387e-15 0)
(-0.5 6.73576e-16 0)
(-0.5 -1.64507e-16 0)
(-0.5 4.18498e-17 0)
(-0.5 2.61028e-17 0)
(-0.5 4.04868e-17 0)
(-0.5 6.425e-17 0)
(-0.5 9.09415e-17 0)
(-0.5 3.98838e-17 0)
(-0.5 -8.11858e-18 0)
(-0.5 8.84573e-18 0)
(-0.5 5.15126e-17 0)
(-0.5 2.47491e-17 0)
(-0.5 1.74754e-17 0)
(-0.5 1.18322e-17 0)
(-0.5 1.52352e-17 0)
(-0.5 -1.39399e-17 0)
(-0.5 1.19006e-17 0)
(-0.5 3.03008e-17 0)
(-0.5 3.8122e-15 0)
(-0.5 -6.69424e-16 0)
(-0.5 1.06296e-16 0)
(-0.5 -2.16271e-17 0)
(-0.5 -1.29958e-18 0)
(-0.5 -1.6922e-17 0)
(-0.5 -1.92598e-17 0)
(-0.5 2.20295e-17 0)
(-0.5 6.5276e-17 0)
(-0.5 1.37243e-17 0)
(-0.5 -2.59484e-17 0)
(-0.5 2.88554e-17 0)
(-0.5 5.487e-17 0)
(-0.5 5.23839e-19 0)
(-0.5 2.95797e-17 0)
(-0.5 6.25645e-17 0)
(-0.5 4.37215e-17 0)
(-0.5 1.27957e-17 0)
(-0.5 -1.21709e-17 0)
(-0.5 7.57479e-18 0)
(-0.5 -8.5352e-15 0)
(-0.5 1.58065e-15 0)
(-0.5 -3.22615e-16 0)
(-0.5 2.35975e-17 0)
(-0.5 -1.13608e-16 0)
(-0.5 -1.0304e-16 0)
(-0.5 -9.45158e-17 0)
(-0.5 -4.57484e-17 0)
(-0.5 -2.75285e-17 0)
(-0.5 1.34396e-18 0)
(-0.5 -2.24965e-17 0)
(-0.5 -3.03022e-17 0)
(-0.5 -3.4332e-17 0)
(-0.5 -1.69808e-17 0)
(-0.5 1.07978e-17 0)
(-0.5 3.6539e-17 0)
(-0.5 1.75834e-17 0)
(-0.5 3.82516e-18 0)
(-0.5 -6.07759e-17 0)
(-0.5 -5.27205e-17 0)
(-0.5 -5.25909e-15 0)
(-0.5 1.05224e-15 0)
(-0.5 -2.01099e-16 0)
(-0.5 2.18708e-17 0)
(-0.5 -8.63454e-17 0)
(-0.5 -5.23427e-17 0)
(-0.5 -3.10202e-17 0)
(-0.5 -1.3721e-17 0)
(-0.5 -2.44449e-17 0)
(-0.5 5.70328e-18 0)
(-0.5 -1.73768e-17 0)
(-0.5 -1.84982e-17 0)
(-0.5 3.83814e-18 0)
(-0.5 4.86906e-17 0)
(-0.5 6.14159e-17 0)
(-0.5 6.15434e-17 0)
(-0.5 -2.08922e-18 0)
(-0.5 -2.79799e-17 0)
(-0.5 -3.55164e-17 0)
(-0.5 -3.57717e-17 0)
(-0.5 1.08508e-14 0)
(-0.5 -2.14258e-15 0)
(-0.5 4.86876e-16 0)
(-0.5 -4.77798e-17 0)
(-0.5 4.07281e-17 0)
(-0.5 2.66596e-17 0)
(-0.5 3.54772e-17 0)
(-0.5 -8.00622e-18 0)
(-0.5 -3.31086e-18 0)
(-0.5 4.50729e-17 0)
(-0.5 5.42653e-17 0)
(-0.5 6.43371e-17 0)
(-0.5 3.80889e-17 0)
(-0.5 7.24471e-18 0)
(-0.5 -1.63357e-17 0)
(-0.5 -1.28975e-17 0)
(-0.5 -1.90666e-17 0)
(-0.5 2.10673e-17 0)
(-0.5 1.54154e-17 0)
(-0.5 4.2622e-18 0)
(-0.5 -1.04106e-14 0)
(-0.5 2.00503e-15 0)
(-0.5 -4.44087e-16 0)
(-0.5 1.10258e-16 0)
(-0.5 -9.75213e-18 0)
(-0.5 5.66027e-18 0)
(-0.5 5.87987e-18 0)
(-0.5 1.45699e-17 0)
(-0.5 8.1186e-17 0)
(-0.5 1.12265e-16 0)
(-0.5 9.23154e-17 0)
(-0.5 4.92659e-17 0)
(-0.5 4.05944e-17 0)
(-0.5 1.26876e-17 0)
(-0.5 -6.37067e-17 0)
(-0.5 -1.17381e-16 0)
(-0.5 -4.59519e-17 0)
(-0.5 1.06526e-17 0)
(-0.5 2.62437e-17 0)
(-0.5 3.31083e-17 0)
(-0.5 8.74253e-16 0)
(-0.5 -1.13252e-16 0)
(-0.5 -5.46191e-17 0)
(-0.5 -4.0414e-17 0)
(-0.5 6.08355e-18 0)
(-0.5 1.92075e-17 0)
(-0.5 -1.88595e-17 0)
(-0.5 -6.79929e-18 0)
(-0.5 4.57403e-17 0)
(-0.5 1.99871e-17 0)
(-0.5 -1.1644e-17 0)
(-0.5 1.04085e-17 0)
(-0.5 9.67177e-17 0)
(-0.5 1.03077e-16 0)
(-0.5 3.15614e-17 0)
(-0.5 1.47299e-17 0)
(-0.5 4.1668e-17 0)
(-0.5 1.39692e-17 0)
(-0.5 1.06907e-17 0)
(-0.5 4.50568e-17 0)
(-0.5 1.67251e-14 0)
(-0.5 -3.91663e-15 0)
(-0.5 7.04617e-16 0)
(-0.5 -3.53123e-16 0)
(-0.5 -3.54616e-17 0)
(-0.5 -4.72492e-17 0)
(-0.5 -9.31477e-18 0)
(-0.5 2.79504e-18 0)
(-0.5 4.67757e-17 0)
(-0.5 1.38192e-16 0)
(-0.5 1.44593e-16 0)
(-0.5 9.28558e-17 0)
(-0.5 3.19295e-17 0)
(-0.5 7.66161e-18 0)
(-0.5 -3.27415e-18 0)
(-0.5 -2.12912e-19 0)
(-0.5 2.37161e-18 0)
(-0.5 1.93213e-17 0)
(-0.5 3.55209e-17 0)
(-0.5 4.01338e-17 0)
(-0.5 -2.19273e-14 0)
(-0.5 4.41724e-15 0)
(-0.5 -1.03825e-15 0)
(-0.5 1.82364e-16 0)
(-0.5 -1.54597e-17 0)
(-0.5 6.43439e-17 0)
(-0.5 8.59225e-17 0)
(-0.5 7.74721e-17 0)
(-0.5 5.10088e-17 0)
(-0.5 9.41273e-17 0)
(-0.5 1.19533e-16 0)
(-0.5 8.49031e-17 0)
(-0.5 -2.72236e-17 0)
(-0.5 -4.81727e-17 0)
(-0.5 -2.23508e-19 0)
(-0.5 -1.79655e-17 0)
(-0.5 -3.38322e-17 0)
(-0.5 2.4951e-17 0)
(-0.5 7.12096e-17 0)
(-0.5 2.32722e-17 0)
(-0.5 5.16109e-15 0)
(-0.5 -8.72768e-16 0)
(-0.5 5.66868e-17 0)
(-0.5 -9.78376e-17 0)
(-0.5 -3.7793e-17 0)
(-0.5 1.19915e-17 0)
(-0.5 5.29752e-17 0)
(-0.5 8.99295e-17 0)
(-0.5 5.64762e-17 0)
(-0.5 8.30169e-18 0)
(-0.5 5.31244e-17 0)
(-0.5 7.6847e-17 0)
(-0.5 4.54638e-17 0)
(-0.5 2.28465e-17 0)
(-0.5 3.0539e-17 0)
(-0.5 3.84234e-17 0)
(-0.5 3.67599e-17 0)
(-0.5 3.74695e-17 0)
(-0.5 2.96858e-17 0)
(-0.5 -7.996e-18 0)
(-0.5 4.05112e-15 0)
(-0.5 -9.84463e-16 0)
(-0.5 2.43077e-16 0)
(-0.5 -1.2841e-16 0)
(-0.5 -8.95985e-17 0)
(-0.5 -7.31904e-17 0)
(-0.5 3.4718e-17 0)
(-0.5 9.15815e-17 0)
(-0.5 9.15068e-17 0)
(-0.5 7.37395e-17 0)
(-0.5 8.84048e-17 0)
(-0.5 7.05634e-17 0)
(-0.5 4.83929e-17 0)
(-0.5 2.79891e-17 0)
(-0.5 2.43119e-17 0)
(-0.5 6.09986e-17 0)
(-0.5 5.49718e-17 0)
(-0.5 -3.0941e-20 0)
(-0.5 6.48034e-18 0)
(-0.5 1.68985e-18 0)
(-0.5 -1.52541e-15 0)
(-0.5 5.03056e-16 0)
(-0.5 -7.80637e-17 0)
(-0.5 3.51682e-17 0)
(-0.5 9.9709e-18 0)
(-0.5 5.44625e-17 0)
(-0.5 7.30917e-17 0)
(-0.5 7.40794e-17 0)
(-0.5 7.34744e-17 0)
(-0.5 2.22862e-17 0)
(-0.5 -5.16202e-17 0)
(-0.5 2.6707e-18 0)
(-0.5 5.4188e-17 0)
(-0.5 6.90565e-17 0)
(-0.5 7.58302e-17 0)
(-0.5 6.54916e-17 0)
(-0.5 4.91432e-17 0)
(-0.5 6.87638e-18 0)
(-0.5 -1.26805e-17 0)
(-0.5 1.44055e-17 0)
(-0.5 -2.19988e-15 0)
(-0.5 1.20183e-16 0)
(-0.5 -1.60084e-16 0)
(-0.5 -3.7845e-17 0)
(-0.5 2.3469e-18 0)
(-0.5 2.48226e-17 0)
(-0.5 8.34724e-18 0)
(-0.5 3.10967e-17 0)
(-0.5 8.0721e-17 0)
(-0.5 2.79613e-17 0)
(-0.5 -4.20106e-17 0)
(-0.5 -4.78908e-18 0)
(-0.5 5.74256e-17 0)
(-0.5 7.36246e-17 0)
(-0.5 8.24932e-17 0)
(-0.5 2.95923e-17 0)
(-0.5 -9.59446e-18 0)
(-0.5 -1.61986e-17 0)
(-0.5 -6.43778e-17 0)
(-0.5 -3.79029e-17 0)
(-0.5 -7.55865e-16 0)
(-0.5 8.52378e-17 0)
(-0.5 -3.61641e-17 0)
(-0.5 -1.56218e-17 0)
(-0.5 3.25443e-17 0)
(-0.5 5.06395e-17 0)
(-0.5 4.55824e-17 0)
(-0.5 1.93121e-19 0)
(-0.5 2.2553e-18 0)
(-0.5 2.01389e-17 0)
(-0.5 2.95778e-17 0)
(-0.5 -3.99311e-17 0)
(-0.5 -3.83923e-17 0)
(-0.5 -3.73251e-17 0)
(-0.5 -2.84093e-17 0)
(-0.5 2.35522e-17 0)
(-0.5 2.12951e-17 0)
(-0.5 -2.59376e-17 0)
(-0.5 -4.9999e-17 0)
(-0.5 -5.56084e-17 0)
(-0.5 6.62762e-15 0)
(-0.5 -1.09351e-15 0)
(-0.5 1.70798e-16 0)
(-0.5 -1.27613e-16 0)
(-0.5 2.98026e-17 0)
(-0.5 8.20746e-17 0)
(-0.5 1.10758e-16 0)
(-0.5 9.61833e-17 0)
(-0.5 7.15679e-17 0)
(-0.5 7.94146e-17 0)
(-0.5 7.67535e-17 0)
(-0.5 2.35801e-17 0)
(-0.5 2.29636e-17 0)
(-0.5 9.99383e-18 0)
(-0.5 -3.88558e-17 0)
(-0.5 -4.54182e-17 0)
(-0.5 -3.61577e-17 0)
(-0.5 -2.28054e-17 0)
(-0.5 3.55961e-18 0)
(-0.5 -3.05565e-18 0)
(-0.5 -1.10169e-14 0)
(-0.5 2.01359e-15 0)
(-0.5 -4.97822e-16 0)
(-0.5 6.80736e-17 0)
(-0.5 -1.46358e-17 0)
(-0.5 1.09119e-17 0)
(-0.5 2.8626e-17 0)
(-0.5 6.06574e-17 0)
(-0.5 4.07653e-17 0)
(-0.5 2.10679e-17 0)
(-0.5 1.08743e-17 0)
(-0.5 1.85481e-17 0)
(-0.5 3.17831e-17 0)
(-0.5 4.42752e-17 0)
(-0.5 2.36724e-18 0)
(-0.5 -4.31807e-17 0)
(-0.5 -1.75928e-17 0)
(-0.5 2.77542e-17 0)
(-0.5 1.43769e-18 0)
(-0.5 2.01125e-17 0)
(-0.5 4.88718e-15 0)
(-0.5 -1.30173e-15 0)
(-0.5 3.74619e-16 0)
(-0.5 5.83885e-18 0)
(-0.5 3.68232e-17 0)
(-0.5 -3.18132e-17 0)
(-0.5 -2.22863e-17 0)
(-0.5 -1.88462e-19 0)
(-0.5 2.30594e-18 0)
(-0.5 -9.83361e-18 0)
(-0.5 -6.71092e-17 0)
(-0.5 -5.75585e-17 0)
(-0.5 1.46574e-17 0)
(-0.5 8.75259e-17 0)
(-0.5 9.90409e-17 0)
(-0.5 7.81174e-17 0)
(-0.5 2.75458e-17 0)
(-0.5 1.9797e-17 0)
(-0.5 -1.33736e-17 0)
(-0.5 1.22194e-17 0)
(-0.5 1.1854e-14 0)
(-0.5 -2.35445e-15 0)
(-0.5 5.72232e-16 0)
(-0.5 -2.74734e-17 0)
(-0.5 6.93711e-17 0)
(-0.5 2.50602e-17 0)
(-0.5 2.49162e-17 0)
(-0.5 3.50955e-17 0)
(-0.5 2.80255e-17 0)
(-0.5 -4.44224e-17 0)
(-0.5 -5.74525e-17 0)
(-0.5 1.078e-17 0)
(-0.5 5.98707e-17 0)
(-0.5 7.40181e-17 0)
(-0.5 1.08067e-16 0)
(-0.5 1.1586e-16 0)
(-0.5 5.29308e-19 0)
(-0.5 -4.75389e-17 0)
(-0.5 -2.03365e-17 0)
(-0.5 -9.03633e-19 0)
(-0.5 -1.20713e-14 0)
(-0.5 2.39527e-15 0)
(-0.5 -6.20568e-16 0)
(-0.5 1.26819e-16 0)
(-0.5 -6.44863e-17 0)
(-0.5 -3.76844e-17 0)
(-0.5 -3.62046e-17 0)
(-0.5 -1.30366e-17 0)
(-0.5 -4.21684e-17 0)
(-0.5 -4.4154e-17 0)
(-0.5 5.36242e-17 0)
(-0.5 4.90858e-17 0)
(-0.5 -5.15715e-17 0)
(-0.5 -5.60139e-17 0)
(-0.5 -1.77369e-17 0)
(-0.5 5.2128e-18 0)
(-0.5 8.88779e-19 0)
(-0.5 -5.82742e-17 0)
(-0.5 -4.60707e-17 0)
(-0.5 -5.38321e-18 0)
(-0.5 -9.76409e-15 0)
(-0.5 1.67382e-15 0)
(-0.5 -3.89394e-16 0)
(-0.5 6.50094e-17 0)
(-0.5 -4.95715e-17 0)
(-0.5 -4.40731e-17 0)
(-0.5 -2.64874e-17 0)
(-0.5 1.43106e-18 0)
(-0.5 -8.77638e-18 0)
(-0.5 3.04715e-17 0)
(-0.5 6.24015e-17 0)
(-0.5 -2.81098e-18 0)
(-0.5 -6.70262e-17 0)
(-0.5 -2.82442e-17 0)
(-0.5 -1.88377e-17 0)
(-0.5 -4.48063e-17 0)
(-0.5 -2.78004e-17 0)
(-0.5 -4.13025e-17 0)
(-0.5 -2.81349e-17 0)
(-0.5 2.65173e-18 0)
)
;

boundaryField
{
    movingWall
    {
        type            calculated;
        value           uniform (-0.5 -0 -0);
    }
    fixedWalls
    {
        type            calculated;
        value           uniform (-0.5 -0 -0);
    }
    frontAndBack
    {
        type            empty;
    }
}


// ************************************************************************* //
