/*--------------------------------*- C++ -*----------------------------------*\
| =========                 |                                                 |
| \\      /  F ield         | OpenFOAM: The Open Source CFD Toolbox           |
|  \\    /   O peration     | Version:  2312                                  |
|   \\  /    A nd           | Website:  www.openfoam.com                      |
|    \\/     M anipulation  |                                                 |
\*---------------------------------------------------------------------------*/
FoamFile
{
    version     2.0;
    format      ascii;
    arch        "LSB;label=32;scalar=64";
    class       volScalarField;
    location    "8";
    object      nut;
}
// * * * * * * * * * * * * * * * * * * * * * * * * * * * * * * * * * * * * * //

dimensions      [0 2 -1 0 0 0 0];

internalField   nonuniform List<scalar> 
400
(
1.13539e-06
1.13539e-06
1.13539e-06
1.13539e-06
1.13539e-06
1.13539e-06
1.13539e-06
1.13538e-06
1.13539e-06
1.13538e-06
1.13539e-06
1.13539e-06
1.13539e-06
1.13539e-06
1.13539e-06
1.13539e-06
1.13539e-06
1.13539e-06
1.13539e-06
1.13539e-06
1.14728e-06
1.16143e-06
1.16014e-06
1.15962e-06
1.15856e-06
1.15803e-06
1.15698e-06
1.15644e-06
1.1554e-06
1.15485e-06
1.15381e-06
1.15326e-06
1.15222e-06
1.15167e-06
1.15064e-06
1.15007e-06
1.14905e-06
1.14848e-06
1.14797e-06
1.14717e-06
1.16556e-06
1.18042e-06
1.17904e-06
1.17849e-06
1.17736e-06
1.1768e-06
1.17569e-06
1.17511e-06
1.17402e-06
1.17344e-06
1.17235e-06
1.17178e-06
1.17069e-06
1.17011e-06
1.16903e-06
1.16846e-06
1.16738e-06
1.16681e-06
1.16627e-06
1.16545e-06
1.18411e-06
1.19945e-06
1.19802e-06
1.19746e-06
1.19629e-06
1.19571e-06
1.19456e-06
1.19397e-06
1.19284e-06
1.19224e-06
1.19112e-06
1.19052e-06
1.1894e-06
1.1888e-06
1.18769e-06
1.1871e-06
1.18599e-06
1.18539e-06
1.18484e-06
1.18399e-06
1.19918e-06
1.21493e-06
1.21346e-06
1.21288e-06
1.21168e-06
1.21109e-06
1.20991e-06
1.2093e-06
1.20814e-06
1.20753e-06
1.20637e-06
1.20576e-06
1.20461e-06
1.204e-06
1.20286e-06
1.20224e-06
1.20111e-06
1.2005e-06
1.19993e-06
1.19906e-06
1.20986e-06
1.2259e-06
1.2244e-06
1.2238e-06
1.22259e-06
1.22198e-06
1.22078e-06
1.22017e-06
1.21898e-06
1.21836e-06
1.21718e-06
1.21656e-06
1.21538e-06
1.21476e-06
1.2136e-06
1.21297e-06
1.21182e-06
1.21119e-06
1.21061e-06
1.20973e-06
1.2168e-06
1.23303e-06
1.23153e-06
1.23092e-06
1.22969e-06
1.22907e-06
1.22787e-06
1.22723e-06
1.22604e-06
1.2254e-06
1.22422e-06
1.22358e-06
1.2224e-06
1.22177e-06
1.22059e-06
1.21996e-06
1.21879e-06
1.21815e-06
1.21757e-06
1.21667e-06
1.22117e-06
1.23752e-06
1.23601e-06
1.23539e-06
1.23415e-06
1.23353e-06
1.23231e-06
1.23167e-06
1.23047e-06
1.22983e-06
1.22864e-06
1.228e-06
1.22681e-06
1.22617e-06
1.22498e-06
1.22435e-06
1.22317e-06
1.22253e-06
1.22194e-06
1.22104e-06
1.22396e-06
1.2404e-06
1.23887e-06
1.23825e-06
1.23702e-06
1.23639e-06
1.23516e-06
1.23453e-06
1.23331e-06
1.23267e-06
1.23147e-06
1.23083e-06
1.22963e-06
1.22899e-06
1.2278e-06
1.22716e-06
1.22597e-06
1.22533e-06
1.22474e-06
1.22383e-06
1.22591e-06
1.2424e-06
1.24087e-06
1.24025e-06
1.239e-06
1.23837e-06
1.23714e-06
1.2365e-06
1.23529e-06
1.23464e-06
1.23344e-06
1.23279e-06
1.23159e-06
1.23095e-06
1.22976e-06
1.22911e-06
1.22793e-06
1.22728e-06
1.22669e-06
1.22578e-06
1.22745e-06
1.24398e-06
1.24244e-06
1.24183e-06
1.24058e-06
1.23995e-06
1.23871e-06
1.23807e-06
1.23685e-06
1.23621e-06
1.235e-06
1.23436e-06
1.23315e-06
1.23251e-06
1.2313e-06
1.23066e-06
1.22947e-06
1.22883e-06
1.22823e-06
1.22732e-06
1.22885e-06
1.24542e-06
1.24388e-06
1.24326e-06
1.242e-06
1.24138e-06
1.24013e-06
1.2395e-06
1.23827e-06
1.23763e-06
1.23641e-06
1.23577e-06
1.23456e-06
1.23392e-06
1.23271e-06
1.23207e-06
1.23087e-06
1.23023e-06
1.22963e-06
1.22872e-06
1.23025e-06
1.24686e-06
1.24532e-06
1.2447e-06
1.24344e-06
1.24281e-06
1.24157e-06
1.24092e-06
1.2397e-06
1.23905e-06
1.23784e-06
1.23719e-06
1.23598e-06
1.23533e-06
1.23413e-06
1.23348e-06
1.23228e-06
1.23164e-06
1.23104e-06
1.23012e-06
1.23175e-06
1.2484e-06
1.24686e-06
1.24623e-06
1.24497e-06
1.24434e-06
1.24309e-06
1.24246e-06
1.24122e-06
1.24058e-06
1.23934e-06
1.23871e-06
1.23748e-06
1.23685e-06
1.23563e-06
1.23499e-06
1.23378e-06
1.23314e-06
1.23254e-06
1.23162e-06
1.23338e-06
1.25007e-06
1.24852e-06
1.2479e-06
1.24663e-06
1.24599e-06
1.24475e-06
1.2441e-06
1.24287e-06
1.24222e-06
1.241e-06
1.24035e-06
1.23913e-06
1.23848e-06
1.23727e-06
1.23662e-06
1.23542e-06
1.23477e-06
1.23417e-06
1.23324e-06
1.23512e-06
1.25186e-06
1.25031e-06
1.24968e-06
1.24841e-06
1.24777e-06
1.24652e-06
1.24588e-06
1.24464e-06
1.24399e-06
1.24276e-06
1.24212e-06
1.24088e-06
1.24024e-06
1.23902e-06
1.23837e-06
1.23716e-06
1.23651e-06
1.23591e-06
1.23499e-06
1.2369e-06
1.25369e-06
1.25213e-06
1.2515e-06
1.25023e-06
1.24959e-06
1.24833e-06
1.24768e-06
1.24645e-06
1.24579e-06
1.24456e-06
1.24391e-06
1.24268e-06
1.24203e-06
1.24081e-06
1.24016e-06
1.23895e-06
1.23829e-06
1.23769e-06
1.23676e-06
1.23855e-06
1.25538e-06
1.25381e-06
1.25319e-06
1.25191e-06
1.25128e-06
1.25001e-06
1.24937e-06
1.24811e-06
1.24747e-06
1.24623e-06
1.24558e-06
1.24434e-06
1.2437e-06
1.24247e-06
1.24182e-06
1.2406e-06
1.23995e-06
1.23934e-06
1.23841e-06
1.23985e-06
1.25639e-06
1.25488e-06
1.25427e-06
1.25303e-06
1.25241e-06
1.25119e-06
1.25055e-06
1.24933e-06
1.24869e-06
1.24748e-06
1.24684e-06
1.24562e-06
1.24498e-06
1.24376e-06
1.24311e-06
1.24191e-06
1.24125e-06
1.24064e-06
1.23972e-06
1.24044e-06
1.24044e-06
1.24044e-06
1.24044e-06
1.24044e-06
1.24044e-06
1.24044e-06
1.24044e-06
1.24044e-06
1.24044e-06
1.24044e-06
1.24044e-06
1.24044e-06
1.24044e-06
1.24044e-06
1.24044e-06
1.24044e-06
1.24044e-06
1.24044e-06
1.24044e-06
)
;

boundaryField
{
    movingWall
    {
        type            nutkWallFunction;
        blending        stepwise;
        value           uniform 0;
    }
    fixedWalls
    {
        type            nutkWallFunction;
        blending        stepwise;
        value           uniform 0;
    }
    frontAndBack
    {
        type            empty;
    }
}


// ************************************************************************* //
