/*--------------------------------*- C++ -*----------------------------------*\
| =========                 |                                                 |
| \\      /  F ield         | OpenFOAM: The Open Source CFD Toolbox           |
|  \\    /   O peration     | Version:  2312                                  |
|   \\  /    A nd           | Website:  www.openfoam.com                      |
|    \\/     M anipulation  |                                                 |
\*---------------------------------------------------------------------------*/
FoamFile
{
    version     2.0;
    format      ascii;
    arch        "LSB;label=32;scalar=64";
    class       volScalarField;
    location    "8";
    object      P_A;
}
// * * * * * * * * * * * * * * * * * * * * * * * * * * * * * * * * * * * * * //

dimensions      [1 -1 -3 0 0 0 0];

internalField   nonuniform List<scalar> 
400
(
5.70517e-33
5.70516e-33
5.70514e-33
5.70515e-33
5.70512e-33
5.70514e-33
5.7051e-33
5.70514e-33
5.70509e-33
5.70513e-33
5.70509e-33
5.70512e-33
5.70509e-33
5.70511e-33
5.70509e-33
5.7051e-33
5.7051e-33
5.7051e-33
5.7051e-33
5.7051e-33
6.20414e-33
6.12856e-33
6.13446e-33
6.13693e-33
6.14187e-33
6.14444e-33
6.14944e-33
6.15208e-33
6.15717e-33
6.15989e-33
6.16504e-33
6.16785e-33
6.17305e-33
6.17596e-33
6.18123e-33
6.18422e-33
6.18956e-33
6.19263e-33
6.19533e-33
6.1996e-33
7.04554e-33
6.95685e-33
6.9639e-33
6.96683e-33
6.9727e-33
6.9757e-33
6.98167e-33
6.9847e-33
6.99078e-33
6.99388e-33
7.00002e-33
7.0032e-33
7.0094e-33
7.01266e-33
7.01891e-33
7.02226e-33
7.02857e-33
7.03201e-33
7.03518e-33
7.04011e-33
7.99844e-33
7.8962e-33
7.90423e-33
7.90768e-33
7.91439e-33
7.91789e-33
7.92473e-33
7.92826e-33
7.93524e-33
7.9388e-33
7.94589e-33
7.94953e-33
7.9567e-33
7.96044e-33
7.96767e-33
7.97151e-33
7.9788e-33
7.98275e-33
7.98641e-33
7.9921e-33
8.85323e-33
8.73848e-33
8.74756e-33
8.75135e-33
8.75892e-33
8.7628e-33
8.7705e-33
8.77443e-33
8.78229e-33
8.78626e-33
8.79422e-33
8.79829e-33
8.80634e-33
8.81051e-33
8.81863e-33
8.82292e-33
8.83111e-33
8.83553e-33
8.83964e-33
8.84602e-33
9.5052e-33
9.38085e-33
9.39065e-33
9.39473e-33
9.40297e-33
9.40713e-33
9.4155e-33
9.41976e-33
9.42822e-33
9.43257e-33
9.44115e-33
9.4456e-33
9.45428e-33
9.45884e-33
9.46761e-33
9.47229e-33
9.48114e-33
9.48595e-33
9.4904e-33
9.49731e-33
9.95155e-33
9.82049e-33
9.83089e-33
9.83515e-33
9.84384e-33
9.84819e-33
9.85705e-33
9.86144e-33
9.87045e-33
9.87496e-33
9.88406e-33
9.88869e-33
9.89787e-33
9.90265e-33
9.9119e-33
9.91682e-33
9.92615e-33
9.93121e-33
9.9359e-33
9.94318e-33
1.02411e-32
1.01057e-32
1.01164e-32
1.01208e-32
1.01298e-32
1.01343e-32
1.01434e-32
1.0148e-32
1.01573e-32
1.0162e-32
1.01713e-32
1.01762e-32
1.01856e-32
1.01906e-32
1.02001e-32
1.02052e-32
1.02148e-32
1.02201e-32
1.02249e-32
1.02324e-32
1.04304e-32
1.02922e-32
1.03031e-32
1.03076e-32
1.03168e-32
1.03214e-32
1.03307e-32
1.03354e-32
1.03448e-32
1.03497e-32
1.03592e-32
1.03641e-32
1.03737e-32
1.03788e-32
1.03886e-32
1.03938e-32
1.04036e-32
1.04089e-32
1.04139e-32
1.04216e-32
1.05639e-32
1.04237e-32
1.04348e-32
1.04394e-32
1.04486e-32
1.04533e-32
1.04627e-32
1.04675e-32
1.04771e-32
1.04819e-32
1.04917e-32
1.04966e-32
1.05064e-32
1.05115e-32
1.05215e-32
1.05267e-32
1.05367e-32
1.05421e-32
1.05471e-32
1.05549e-32
1.06708e-32
1.0529e-32
1.05401e-32
1.05448e-32
1.05542e-32
1.05589e-32
1.05684e-32
1.05733e-32
1.05829e-32
1.05879e-32
1.05977e-32
1.06027e-32
1.06126e-32
1.06178e-32
1.06278e-32
1.06332e-32
1.06432e-32
1.06487e-32
1.06538e-32
1.06617e-32
1.07687e-32
1.06254e-32
1.06367e-32
1.06414e-32
1.06508e-32
1.06557e-32
1.06652e-32
1.06701e-32
1.06799e-32
1.06849e-32
1.06948e-32
1.06999e-32
1.07099e-32
1.07151e-32
1.07252e-32
1.07306e-32
1.07408e-32
1.07464e-32
1.07515e-32
1.07594e-32
1.08679e-32
1.07231e-32
1.07345e-32
1.07393e-32
1.07488e-32
1.07537e-32
1.07634e-32
1.07683e-32
1.07782e-32
1.07832e-32
1.07932e-32
1.07984e-32
1.08085e-32
1.08138e-32
1.0824e-32
1.08294e-32
1.08397e-32
1.08453e-32
1.08505e-32
1.08585e-32
1.09744e-32
1.08281e-32
1.08396e-32
1.08444e-32
1.0854e-32
1.0859e-32
1.08687e-32
1.08738e-32
1.08837e-32
1.08889e-32
1.08989e-32
1.09043e-32
1.09143e-32
1.09198e-32
1.093e-32
1.09356e-32
1.09459e-32
1.09516e-32
1.09568e-32
1.0965e-32
1.10912e-32
1.09431e-32
1.09548e-32
1.09596e-32
1.09694e-32
1.09743e-32
1.09843e-32
1.09893e-32
1.09995e-32
1.10045e-32
1.10148e-32
1.10201e-32
1.10304e-32
1.10358e-32
1.10463e-32
1.10518e-32
1.10624e-32
1.10681e-32
1.10734e-32
1.10816e-32
1.12175e-32
1.10675e-32
1.10793e-32
1.10842e-32
1.10941e-32
1.10992e-32
1.11092e-32
1.11144e-32
1.11245e-32
1.11298e-32
1.11401e-32
1.11455e-32
1.11559e-32
1.11615e-32
1.1172e-32
1.11777e-32
1.11883e-32
1.11941e-32
1.11995e-32
1.12078e-32
1.13478e-32
1.11958e-32
1.12078e-32
1.12128e-32
1.12228e-32
1.12279e-32
1.12381e-32
1.12432e-32
1.12536e-32
1.12589e-32
1.12694e-32
1.12748e-32
1.12854e-32
1.12909e-32
1.13017e-32
1.13074e-32
1.13182e-32
1.13241e-32
1.13295e-32
1.13379e-32
1.14701e-32
1.13164e-32
1.13284e-32
1.13335e-32
1.13436e-32
1.13488e-32
1.1359e-32
1.13644e-32
1.13747e-32
1.13802e-32
1.13907e-32
1.13963e-32
1.14069e-32
1.14127e-32
1.14234e-32
1.14293e-32
1.14401e-32
1.14461e-32
1.14516e-32
1.14602e-32
1.15672e-32
1.14149e-32
1.14267e-32
1.14316e-32
1.14415e-32
1.14466e-32
1.14567e-32
1.14618e-32
1.14721e-32
1.14775e-32
1.14879e-32
1.14935e-32
1.1504e-32
1.15097e-32
1.15204e-32
1.15263e-32
1.15372e-32
1.15433e-32
1.15488e-32
1.15574e-32
1.16119e-32
1.16119e-32
1.16119e-32
1.16118e-32
1.16118e-32
1.16118e-32
1.16118e-32
1.16118e-32
1.16118e-32
1.16118e-32
1.16118e-32
1.16118e-32
1.16118e-32
1.16118e-32
1.16118e-32
1.16118e-32
1.16118e-32
1.16118e-32
1.16118e-32
1.16118e-32
)
;

boundaryField
{
    movingWall
    {
        type            calculated;
        value           nonuniform List<scalar> 
20
(
1.16119e-32
1.16119e-32
1.16119e-32
1.16118e-32
1.16118e-32
1.16118e-32
1.16118e-32
1.16118e-32
1.16118e-32
1.16118e-32
1.16118e-32
1.16118e-32
1.16118e-32
1.16118e-32
1.16118e-32
1.16118e-32
1.16118e-32
1.16118e-32
1.16118e-32
1.16118e-32
)
;
    }
    fixedWalls
    {
        type            calculated;
        value           nonuniform List<scalar> 
60
(
5.70517e-33
6.20414e-33
7.04554e-33
7.99844e-33
8.85323e-33
9.5052e-33
9.95155e-33
1.02411e-32
1.04304e-32
1.05639e-32
1.06708e-32
1.07687e-32
1.08679e-32
1.09744e-32
1.10912e-32
1.12175e-32
1.13478e-32
1.14701e-32
1.15672e-32
1.16119e-32
5.7051e-33
6.1996e-33
7.04011e-33
7.9921e-33
8.84602e-33
9.49731e-33
9.94318e-33
1.02324e-32
1.04216e-32
1.05549e-32
1.06617e-32
1.07594e-32
1.08585e-32
1.0965e-32
1.10816e-32
1.12078e-32
1.13379e-32
1.14602e-32
1.15574e-32
1.16118e-32
5.70517e-33
5.70516e-33
5.70514e-33
5.70515e-33
5.70512e-33
5.70514e-33
5.7051e-33
5.70514e-33
5.70509e-33
5.70513e-33
5.70509e-33
5.70512e-33
5.70509e-33
5.70511e-33
5.70509e-33
5.7051e-33
5.7051e-33
5.7051e-33
5.7051e-33
5.7051e-33
)
;
    }
    frontAndBack
    {
        type            empty;
    }
}


// ************************************************************************* //
