/*--------------------------------*- C++ -*----------------------------------*\
| =========                 |                                                 |
| \\      /  F ield         | OpenFOAM: The Open Source CFD Toolbox           |
|  \\    /   O peration     | Version:  2312                                  |
|   \\  /    A nd           | Website:  www.openfoam.com                      |
|    \\/     M anipulation  |                                                 |
\*---------------------------------------------------------------------------*/
FoamFile
{
    version     2.0;
    format      ascii;
    arch        "LSB;label=32;scalar=64";
    class       surfaceScalarField;
    location    "8";
    object      PecletNoField;
}
// * * * * * * * * * * * * * * * * * * * * * * * * * * * * * * * * * * * * * //

dimensions      [0 0 0 0 0 0 0];

oriented        oriented;

internalField   nonuniform List<scalar> 
760
(
449.019
3.52613e-13
449.019
1.22904e-12
449.019
3.18638e-13
449.019
7.97806e-14
449.019
1.73436e-14
449.019
9.15337e-16
449.019
4.47809e-14
449.019
2.88402e-14
449.019
8.78325e-14
449.019
4.14991e-14
449.019
1.53178e-14
449.019
2.63808e-15
449.019
5.33351e-14
449.019
1.97737e-14
449.019
3.17386e-14
449.019
1.57109e-14
449.019
2.74001e-14
449.019
3.49364e-14
449.019
2.53018e-15
5.62718e-14
448.255
2.70612e-13
447.997
1.06878e-13
448.034
7.96432e-14
448.065
1.14788e-14
448.097
2.74593e-14
448.129
5.00242e-14
448.161
6.61669e-14
448.193
2.16954e-16
448.225
8.90687e-15
448.256
1.27757e-14
448.288
3.86774e-14
448.32
1.33641e-14
448.352
2.71252e-14
448.384
2.89967e-14
448.416
1.27853e-14
448.448
5.73081e-14
448.48
2.40634e-14
448.502
4.88493e-14
448.528
2.21423e-14
4.23794e-14
447.508
8.60058e-13
447.238
1.09031e-12
447.277
2.33259e-13
447.31
2.13922e-14
447.344
8.90247e-14
447.378
6.73909e-14
447.411
7.25543e-14
447.445
4.07622e-14
447.478
2.85146e-14
447.512
2.04963e-14
447.545
1.05798e-14
447.578
3.54868e-14
447.611
5.27062e-14
447.645
3.47394e-14
447.678
6.46271e-14
447.711
3.62154e-14
447.744
1.56055e-14
447.766
1.52919e-14
447.794
5.18664e-14
6.33468e-14
446.756
1.55868e-13
446.479
5.67104e-13
446.519
1.33174e-13
446.553
8.95021e-15
446.588
1.46972e-14
446.623
1.2363e-14
446.657
9.54097e-15
446.692
9.64455e-15
446.726
6.28375e-15
446.761
1.31264e-14
446.795
9.63573e-15
446.829
3.02072e-14
446.863
4.24601e-14
446.898
1.26103e-14
446.932
3.00201e-15
446.966
4.79122e-14
447
3.61901e-17
447.023
1.54155e-14
447.051
7.27482e-15
3.48044e-15
446.148
8.74346e-13
445.863
5.4775e-13
445.904
1.72126e-14
445.94
5.59822e-14
445.975
1.64261e-14
446.011
1.19037e-15
446.046
3.09267e-14
446.081
3.48921e-15
446.117
2.29699e-14
446.152
7.55062e-14
446.187
7.848e-14
446.222
5.30148e-14
446.257
3.07619e-14
446.292
7.69811e-15
446.327
3.66612e-14
446.362
7.71461e-14
446.397
5.56037e-14
446.42
3.04509e-14
446.449
3.31128e-14
1.69865e-14
445.717
1.99352e-14
445.428
2.3483e-13
445.47
1.61493e-13
445.506
2.39875e-14
445.542
2.9438e-14
445.578
1.56844e-14
445.614
1.27655e-14
445.65
2.23585e-15
445.686
6.99907e-14
445.721
5.42933e-14
445.757
4.92502e-14
445.793
3.8495e-14
445.829
6.8706e-14
445.864
6.54884e-14
445.9
3.07311e-15
445.935
5.28926e-14
445.97
5.33433e-15
445.994
1.44471e-14
446.023
8.62379e-15
3.98792e-14
445.438
1.50523e-14
445.145
5.47947e-13
445.187
2.22706e-13
445.224
1.09289e-13
445.26
3.42975e-14
445.297
7.61866e-16
445.333
3.57051e-14
445.369
2.43198e-14
445.406
4.80336e-14
445.442
7.06855e-14
445.478
1.21589e-14
445.514
3.77921e-15
445.55
5.28284e-14
445.586
6.3166e-14
445.622
1.78625e-15
445.658
1.01346e-14
445.694
3.5987e-14
445.718
4.91028e-14
445.747
3.88643e-15
4.37123e-14
445.262
4.4795e-13
444.968
6.74543e-13
445.01
9.73326e-14
445.047
1.36607e-13
445.084
3.20927e-15
445.12
1.10566e-14
445.157
5.10042e-14
445.193
5.4473e-14
445.23
1.57265e-15
445.266
1.00059e-13
445.303
1.78857e-13
445.339
1.3541e-13
445.375
1.36759e-15
445.411
4.34591e-14
445.448
7.31798e-15
445.484
4.27543e-15
445.52
3.46002e-14
445.544
1.91345e-14
445.574
5.23271e-14
2.96908e-14
445.149
1.87794e-12
444.854
1.77083e-12
444.897
4.39155e-13
444.933
6.04881e-14
444.97
5.65278e-14
445.007
5.20814e-14
445.044
8.88199e-14
445.081
8.08567e-14
445.117
8.73211e-14
445.154
7.27751e-14
445.19
4.39967e-14
445.227
4.49876e-14
445.263
2.86598e-15
445.3
1.81459e-14
445.336
2.95927e-15
445.372
5.55076e-15
445.408
1.90222e-14
445.433
5.19732e-14
445.463
5.80066e-14
1.14691e-14
445.071
7.16358e-14
444.775
5.15834e-13
444.818
7.84913e-14
444.855
9.99905e-14
444.892
3.81775e-14
444.929
2.85776e-14
444.966
7.84536e-15
445.002
7.40242e-14
445.039
5.55611e-14
445.076
4.17707e-15
445.112
7.19428e-14
445.149
8.42436e-14
445.186
6.58036e-14
445.222
4.22086e-14
445.258
3.07741e-14
445.295
4.64784e-14
445.331
1.91127e-14
445.356
2.12398e-14
445.385
1.61877e-14
2.85297e-14
445.009
2.42102e-14
444.713
6.69115e-13
444.755
1.53921e-13
444.792
4.26169e-14
444.83
2.36168e-14
444.866
2.47081e-14
444.903
5.29871e-14
444.94
8.51865e-14
444.977
9.03735e-14
445.014
5.35383e-14
445.051
1.92585e-15
445.087
1.89488e-14
445.124
3.54811e-14
445.16
3.80892e-14
445.197
3.55882e-14
445.233
5.67338e-14
445.27
6.80659e-14
445.294
2.34119e-14
445.324
2.83576e-15
3.34186e-14
444.953
1.06826e-12
444.656
8.71252e-13
444.699
1.69e-13
444.736
2.17617e-14
444.773
2.10802e-14
444.81
4.70963e-14
444.847
4.3002e-14
444.884
4.31929e-14
444.921
4.10999e-14
444.958
3.50859e-14
444.995
3.63507e-14
445.031
1.73672e-15
445.068
3.56372e-14
445.105
5.33348e-14
445.141
8.10317e-14
445.178
3.83454e-14
445.214
4.10099e-15
445.239
1.32764e-14
445.269
4.51309e-14
1.67536e-15
444.897
7.02254e-13
444.599
6.69309e-13
444.642
3.99916e-14
444.679
5.20922e-14
444.716
4.66384e-14
444.753
3.81241e-14
444.791
1.09913e-14
444.827
3.05422e-15
444.865
5.63337e-14
444.901
2.08677e-14
444.938
1.16748e-14
444.975
3.70723e-14
445.012
1.79113e-14
445.049
2.49478e-14
445.085
4.86411e-14
445.122
5.0655e-14
445.158
5.04872e-15
445.183
2.36612e-14
445.213
5.72762e-14
7.56166e-14
444.837
2.46853e-13
444.538
1.65578e-13
444.581
1.57648e-14
444.618
4.05682e-14
444.656
3.45697e-15
444.693
5.35223e-14
444.73
9.60945e-14
444.767
5.31022e-14
444.804
1.2687e-14
444.841
3.06032e-14
444.878
7.27682e-14
444.915
1.98833e-14
444.952
8.02109e-15
444.989
2.61293e-14
445.026
8.22451e-14
445.062
4.05918e-14
445.099
2.22156e-14
445.124
6.14352e-15
445.154
5.65733e-15
3.03249e-14
444.772
3.79907e-13
444.472
3.26481e-13
444.515
1.1866e-13
444.553
6.27423e-14
444.59
1.32378e-17
444.627
3.64337e-14
444.665
4.14677e-14
444.702
7.72974e-14
444.739
7.33802e-14
444.776
6.15205e-14
444.813
3.17419e-14
444.85
8.10247e-15
444.887
3.43912e-14
444.924
4.41997e-14
444.961
1.19837e-14
444.997
2.75823e-14
445.034
6.51642e-14
445.059
3.54464e-14
445.089
1.3835e-15
2.64275e-14
444.702
1.06662e-13
444.402
9.65496e-14
444.445
8.1681e-14
444.482
3.9987e-14
444.52
2.95642e-14
444.557
4.15001e-15
444.595
6.50273e-15
444.632
2.07612e-14
444.669
6.311e-15
444.706
1.39772e-14
444.743
3.69035e-14
444.781
1.13111e-14
444.818
1.82913e-14
444.854
5.51491e-14
444.891
4.74201e-14
444.928
8.50478e-15
444.965
2.16533e-14
444.99
6.37985e-14
445.02
5.86289e-15
1.40337e-14
444.631
5.95291e-13
444.33
1.25468e-12
444.373
4.63924e-13
444.41
9.13204e-15
444.448
5.28923e-14
444.486
3.93107e-15
444.523
4.28676e-15
444.56
1.40984e-14
444.598
1.15272e-14
444.635
9.55615e-15
444.672
5.39527e-14
444.71
4.90764e-14
444.747
9.51627e-15
444.784
7.25468e-14
444.821
9.62871e-14
444.858
1.25441e-13
444.894
1.75455e-16
444.919
3.10729e-14
444.95
7.06642e-15
7.63515e-15
444.564
1.61421e-13
444.263
1.91406e-13
444.306
4.72919e-14
444.344
6.68689e-14
444.382
8.95437e-15
444.419
1.54322e-14
444.457
8.96254e-15
444.494
1.31651e-14
444.532
1.11095e-14
444.569
7.07221e-14
444.606
1.01631e-14
444.643
4.67213e-14
444.681
4.07112e-14
444.718
4.22868e-15
444.755
2.81258e-14
444.792
4.49287e-14
444.829
2.81522e-14
444.854
4.29059e-14
444.884
4.52502e-14
7.73859e-15
444.519
6.87041e-13
444.222
1.35256e-12
444.264
4.46537e-13
444.3
4.44248e-14
444.337
5.70014e-14
444.373
3.6163e-14
444.41
3.06187e-14
444.447
1.08733e-14
444.483
4.50466e-14
444.52
9.97059e-16
444.557
7.25729e-14
444.593
3.34009e-14
444.63
7.87643e-14
444.667
3.95301e-14
444.704
7.2969e-15
444.741
2.42355e-14
444.777
2.29836e-14
444.802
4.75314e-14
444.833
2.5691e-14
6.39842e-15
444.822
444.822
444.822
444.822
444.822
444.822
444.822
444.822
444.822
444.822
444.822
444.822
444.822
444.822
444.822
444.822
444.822
444.822
444.822
)
;

boundaryField
{
    movingWall
    {
        type            calculated;
        value           uniform 0;
    }
    fixedWalls
    {
        type            calculated;
        value           nonuniform List<scalar> 
60
(
250
250
250
250
250
250
250
250
250
250
250
250
250
250
250
250
250
250
250
250
250
250
250
250
250
250
250
250
250
250
250
250
250
250
250
250
250
250
250
250
0
0
0
0
0
0
0
0
0
0
0
0
0
0
0
0
0
0
0
0
)
;
    }
    frontAndBack
    {
        type            empty;
        value           nonuniform List<scalar> 0();
    }
}


// ************************************************************************* //
