/*--------------------------------*- C++ -*----------------------------------*\
| =========                 |                                                 |
| \\      /  F ield         | OpenFOAM: The Open Source CFD Toolbox           |
|  \\    /   O peration     | Version:  2312                                  |
|   \\  /    A nd           | Website:  www.openfoam.com                      |
|    \\/     M anipulation  |                                                 |
\*---------------------------------------------------------------------------*/
FoamFile
{
    version     2.0;
    format      ascii;
    arch        "LSB;label=32;scalar=64";
    class       surfaceScalarField;
    location    "8";
    object      phi;
}
// * * * * * * * * * * * * * * * * * * * * * * * * * * * * * * * * * * * * * //

dimensions      [0 3 -1 0 0 0 0];

oriented        oriented;

internalField   nonuniform List<scalar> 
760
(
-5e-05
3.92858e-20
-5e-05
-1.37019e-19
-5e-05
3.5521e-20
-5e-05
-8.89354e-21
-5e-05
-1.93329e-21
-5e-05
1.0203e-22
-5e-05
4.99136e-21
-5e-05
3.21451e-21
-5e-05
9.78927e-21
-5e-05
4.62512e-21
-5e-05
-1.7071e-21
-5e-05
-2.93996e-22
-5e-05
5.94356e-21
-5e-05
2.20348e-21
-5e-05
3.53664e-21
-5e-05
1.75062e-21
-5e-05
3.05298e-21
-5e-05
-3.89259e-21
-5e-05
2.81904e-22
6.2694e-21
-5e-05
-3.01906e-20
-5e-05
1.19393e-20
-5e-05
-8.89582e-21
-5e-05
-1.28207e-21
-5e-05
-3.06664e-21
-5e-05
-5.58641e-21
-5e-05
-7.38842e-21
-5e-05
-2.42246e-23
-5e-05
9.94426e-22
-5e-05
-1.4263e-21
-5e-05
-4.31759e-21
-5e-05
1.49177e-21
-5e-05
3.02757e-21
-5e-05
-3.23629e-21
-5e-05
-1.42682e-21
-5e-05
6.39517e-21
-5e-05
2.68505e-21
-5e-05
5.45043e-21
-5e-05
-2.47044e-21
-4.72798e-21
-5e-05
-9.611e-20
-5e-05
1.22005e-19
-5e-05
-2.60982e-20
-5e-05
2.39335e-21
-5e-05
-9.95904e-21
-5e-05
-7.53852e-21
-5e-05
-8.11529e-21
-5e-05
-4.55906e-21
-5e-05
-3.18891e-21
-5e-05
2.29207e-21
-5e-05
1.183e-21
-5e-05
-3.96783e-21
-5e-05
-5.89258e-21
-5e-05
3.88368e-21
-5e-05
7.22425e-21
-5e-05
4.04808e-21
-5e-05
1.74417e-21
-5e-05
-1.70904e-21
-5e-05
-5.79636e-21
-7.07882e-21
-5e-05
1.74442e-20
-5e-05
-6.35564e-20
-5e-05
1.49231e-20
-5e-05
-1.00289e-21
-5e-05
-1.64667e-21
-5e-05
-1.38508e-21
-5e-05
1.0688e-21
-5e-05
1.08035e-21
-5e-05
-7.03811e-22
-5e-05
1.47014e-21
-5e-05
-1.07908e-21
-5e-05
3.38265e-21
-5e-05
4.75426e-21
-5e-05
1.4119e-21
-5e-05
3.36083e-22
-5e-05
5.36361e-21
-5e-05
4.05096e-24
-5e-05
-1.72545e-21
-5e-05
-8.14226e-22
-3.89514e-22
-5e-05
-9.79662e-20
-5e-05
6.14598e-20
-5e-05
-1.93107e-21
-5e-05
6.28027e-21
-5e-05
-1.84254e-21
-5e-05
1.33518e-22
-5e-05
3.46853e-21
-5e-05
-3.91306e-22
-5e-05
2.57575e-21
-5e-05
8.46647e-21
-5e-05
8.799e-21
-5e-05
5.94358e-21
-5e-05
3.44841e-21
-5e-05
8.6291e-22
-5e-05
-4.10907e-21
-5e-05
-8.64623e-21
-5e-05
-6.23121e-21
-5e-05
3.41228e-21
-5e-05
3.71038e-21
1.90323e-21
-5e-05
-2.23539e-21
-5e-05
-2.63701e-20
-5e-05
-1.81324e-20
-5e-05
-2.69316e-21
-5e-05
3.30475e-21
-5e-05
1.76066e-21
-5e-05
-1.43284e-21
-5e-05
2.50945e-22
-5e-05
7.85471e-21
-5e-05
6.09273e-21
-5e-05
5.52622e-21
-5e-05
4.31916e-21
-5e-05
7.70806e-21
-5e-05
7.34667e-21
-5e-05
3.44714e-22
-5e-05
-5.93268e-21
-5e-05
5.98261e-22
-5e-05
-1.62019e-21
-5e-05
9.6708e-22
4.47173e-21
-5e-05
-1.68871e-21
-5e-05
-6.15634e-20
-5e-05
2.50183e-20
-5e-05
-1.22766e-20
-5e-05
-3.85226e-21
-5e-05
8.55675e-23
-5e-05
-4.00971e-21
-5e-05
-2.73098e-21
-5e-05
5.39333e-21
-5e-05
7.9363e-21
-5e-05
1.36501e-21
-5e-05
-4.24247e-22
-5e-05
5.92977e-21
-5e-05
7.08973e-21
-5e-05
2.00467e-22
-5e-05
1.13731e-21
-5e-05
4.03809e-21
-5e-05
5.5095e-21
-5e-05
4.36048e-22
4.90402e-21
-5e-05
5.02714e-20
-5e-05
-7.58116e-20
-5e-05
-1.09377e-20
-5e-05
-1.53503e-20
-5e-05
3.6058e-22
-5e-05
-1.24221e-21
-5e-05
5.72968e-21
-5e-05
6.119e-21
-5e-05
1.76638e-22
-5e-05
1.12379e-20
-5e-05
2.00857e-20
-5e-05
1.52057e-20
-5e-05
1.53556e-22
-5e-05
-4.8794e-21
-5e-05
8.21545e-22
-5e-05
4.79949e-22
-5e-05
-3.88372e-21
-5e-05
-2.14764e-21
-5e-05
5.87284e-21
3.33203e-21
-5e-05
-2.10797e-19
-5e-05
1.99066e-19
-5e-05
-4.93605e-20
-5e-05
6.79841e-21
-5e-05
-6.35259e-21
-5e-05
5.85259e-21
-5e-05
9.97993e-21
-5e-05
9.08467e-21
-5e-05
9.80991e-21
-5e-05
8.1753e-21
-5e-05
4.94191e-21
-5e-05
5.05293e-21
-5e-05
-3.21868e-22
-5e-05
-2.03778e-21
-5e-05
-3.3229e-22
-5e-05
-6.23247e-22
-5e-05
2.13561e-21
-5e-05
5.83468e-21
-5e-05
6.51166e-21
1.28739e-21
-5e-05
8.04232e-21
-5e-05
-5.79962e-20
-5e-05
8.82373e-21
-5e-05
-1.124e-20
-5e-05
-4.29107e-21
-5e-05
-3.21188e-21
-5e-05
8.81656e-22
-5e-05
8.31831e-21
-5e-05
6.24289e-21
-5e-05
-4.69312e-22
-5e-05
8.08221e-21
-5e-05
9.46356e-21
-5e-05
7.39131e-21
-5e-05
4.74075e-21
-5e-05
3.45609e-21
-5e-05
5.21947e-21
-5e-05
2.1461e-21
-5e-05
2.38482e-21
-5e-05
1.81746e-21
-3.2029e-21
-5e-05
-2.71836e-21
-5e-05
-7.524e-20
-5e-05
1.73056e-20
-5e-05
-4.79123e-21
-5e-05
-2.65483e-21
-5e-05
-2.77735e-21
-5e-05
5.95545e-21
-5e-05
9.57392e-21
-5e-05
1.01558e-20
-5e-05
6.01606e-21
-5e-05
2.16383e-22
-5e-05
2.12891e-21
-5e-05
3.98589e-21
-5e-05
4.27864e-21
-5e-05
3.99727e-21
-5e-05
6.37198e-21
-5e-05
7.64391e-21
-5e-05
-2.62905e-21
-5e-05
-3.18426e-22
3.75225e-21
-5e-05
-1.1996e-19
-5e-05
9.79823e-20
-5e-05
-1.90034e-20
-5e-05
2.44688e-21
-5e-05
-2.36999e-21
-5e-05
5.29461e-21
-5e-05
4.83379e-21
-5e-05
4.85497e-21
-5e-05
4.61921e-21
-5e-05
3.94307e-21
-5e-05
-4.08478e-21
-5e-05
1.95146e-22
-5e-05
4.00393e-21
-5e-05
5.99196e-21
-5e-05
9.10263e-21
-5e-05
4.30725e-21
-5e-05
4.60606e-22
-5e-05
1.49106e-21
-5e-05
-5.06835e-21
1.88133e-22
-5e-05
7.88702e-20
-5e-05
-7.52814e-20
-5e-05
-4.49749e-21
-5e-05
-5.85801e-21
-5e-05
5.24411e-21
-5e-05
4.28652e-21
-5e-05
1.23567e-21
-5e-05
-3.43346e-22
-5e-05
6.33216e-21
-5e-05
2.34549e-21
-5e-05
-1.31208e-21
-5e-05
-4.16616e-21
-5e-05
2.01264e-21
-5e-05
2.80316e-21
-5e-05
5.46477e-21
-5e-05
5.69071e-21
-5e-05
5.67125e-22
-5e-05
-2.65772e-21
-5e-05
-6.43314e-21
-8.4924e-21
-5e-05
-2.77279e-20
-5e-05
1.86263e-20
-5e-05
1.77317e-21
-5e-05
-4.56273e-21
-5e-05
3.88764e-22
-5e-05
6.01867e-21
-5e-05
1.08048e-20
-5e-05
5.97043e-21
-5e-05
1.42628e-21
-5e-05
3.44023e-21
-5e-05
8.17927e-21
-5e-05
2.23478e-21
-5e-05
-9.01435e-22
-5e-05
-2.93633e-21
-5e-05
-9.24143e-21
-5e-05
-4.56081e-21
-5e-05
2.49583e-21
-5e-05
-6.9016e-22
-5e-05
-6.35508e-22
-3.40622e-21
-5e-05
-4.26797e-20
-5e-05
3.67323e-20
-5e-05
-1.33485e-20
-5e-05
-7.05775e-21
-5e-05
1.48892e-24
-5e-05
4.09766e-21
-5e-05
4.66331e-21
-5e-05
8.69208e-21
-5e-05
8.25069e-21
-5e-05
6.91682e-21
-5e-05
3.56839e-21
-5e-05
9.10817e-22
-5e-05
3.86558e-21
-5e-05
4.96777e-21
-5e-05
1.34675e-21
-5e-05
-3.09956e-21
-5e-05
-7.32204e-21
-5e-05
-3.98262e-21
-5e-05
-1.55437e-22
2.9689e-21
-5e-05
1.19845e-20
-5e-05
-1.08645e-20
-5e-05
-9.19011e-21
-5e-05
4.49877e-21
-5e-05
3.32577e-21
-5e-05
-4.66822e-22
-5e-05
7.3139e-22
-5e-05
2.33496e-21
-5e-05
7.09706e-22
-5e-05
-1.57172e-21
-5e-05
-4.14931e-21
-5e-05
-1.27171e-21
-5e-05
2.05626e-21
-5e-05
6.19938e-21
-5e-05
5.32998e-21
-5e-05
-9.55874e-22
-5e-05
2.43341e-21
-5e-05
7.16929e-21
-5e-05
-6.58801e-22
1.57681e-21
-5e-05
6.68972e-20
-5e-05
-1.41208e-19
-5e-05
5.22053e-20
-5e-05
1.02757e-21
-5e-05
5.95094e-21
-5e-05
4.42263e-22
-5e-05
4.82225e-22
-5e-05
1.58586e-21
-5e-05
1.29649e-21
-5e-05
1.07475e-21
-5e-05
-6.06719e-21
-5e-05
-5.51852e-21
-5e-05
1.06996e-21
-5e-05
8.15634e-21
-5e-05
1.08242e-20
-5e-05
1.41008e-20
-5e-05
1.97207e-23
-5e-05
-3.49232e-21
-5e-05
-7.94161e-22
8.58007e-22
-5e-05
-1.81425e-20
-5e-05
2.15444e-20
-5e-05
-5.3224e-21
-5e-05
7.52524e-21
-5e-05
-1.00759e-21
-5e-05
-1.7364e-21
-5e-05
-1.00834e-21
-5e-05
1.48106e-21
-5e-05
1.24967e-21
-5e-05
-7.95488e-21
-5e-05
-1.14303e-21
-5e-05
5.25438e-21
-5e-05
4.57797e-21
-5e-05
4.75487e-22
-5e-05
3.16222e-21
-5e-05
5.0511e-21
-5e-05
3.16466e-21
-5e-05
-4.82288e-21
-5e-05
-5.08612e-21
-8.69745e-22
-5e-05
-7.72244e-20
-5e-05
1.52142e-19
-5e-05
-5.02249e-20
-5e-05
4.99661e-21
-5e-05
-6.4108e-21
-5e-05
-4.06704e-21
-5e-05
-3.44332e-21
-5e-05
-1.22276e-21
-5e-05
-5.06544e-21
-5e-05
-1.12115e-22
-5e-05
8.16007e-21
-5e-05
3.75547e-21
-5e-05
-8.8555e-21
-5e-05
-4.44426e-21
-5e-05
-8.20325e-22
-5e-05
-2.7245e-21
-5e-05
-2.58363e-21
-5e-05
-5.34293e-21
-5e-05
-2.88781e-21
-7.19187e-22
-5e-05
-5e-05
-5e-05
-5e-05
-5e-05
-5e-05
-5e-05
-5e-05
-5e-05
-5e-05
-5e-05
-5e-05
-5e-05
-5e-05
-5e-05
-5e-05
-5e-05
-5e-05
-5e-05
)
;

boundaryField
{
    movingWall
    {
        type            calculated;
        value           uniform 0;
    }
    fixedWalls
    {
        type            calculated;
        value           nonuniform List<scalar> 
60
(
5e-05
5e-05
5e-05
5e-05
5e-05
5e-05
5e-05
5e-05
5e-05
5e-05
5e-05
5e-05
5e-05
5e-05
5e-05
5e-05
5e-05
5e-05
5e-05
5e-05
-5e-05
-5e-05
-5e-05
-5e-05
-5e-05
-5e-05
-5e-05
-5e-05
-5e-05
-5e-05
-5e-05
-5e-05
-5e-05
-5e-05
-5e-05
-5e-05
-5e-05
-5e-05
-5e-05
-5e-05
0
0
0
0
0
0
0
0
0
0
0
0
0
0
0
0
0
0
0
0
)
;
    }
    frontAndBack
    {
        type            empty;
        value           nonuniform List<scalar> 0();
    }
}


// ************************************************************************* //
