/*--------------------------------*- C++ -*----------------------------------*\
| =========                 |                                                 |
| \\      /  F ield         | OpenFOAM: The Open Source CFD Toolbox           |
|  \\    /   O peration     | Version:  2312                                  |
|   \\  /    A nd           | Website:  www.openfoam.com                      |
|    \\/     M anipulation  |                                                 |
\*---------------------------------------------------------------------------*/
FoamFile
{
    version     2.0;
    format      ascii;
    arch        "LSB;label=32;scalar=64";
    class       volScalarField;
    location    "8";
    object      pzeroGrad;
}
// * * * * * * * * * * * * * * * * * * * * * * * * * * * * * * * * * * * * * //

dimensions      [0 2 -2 0 0 0 0];

internalField   nonuniform List<scalar> 
400
(
4.00563e-16
2.15251e-15
1.7106e-15
1.87962e-15
1.96349e-15
2.24212e-15
2.52486e-15
2.46332e-15
2.53105e-15
2.71994e-15
2.54983e-15
2.58357e-15
2.87799e-15
2.86642e-15
2.67097e-15
2.61774e-15
2.36241e-15
2.50235e-15
2.75826e-15
2.753e-15
1.84249e-15
4.14697e-16
1.92515e-15
1.93133e-15
2.20996e-15
2.33948e-15
2.34185e-15
2.40897e-15
2.42078e-15
2.63458e-15
2.70576e-15
2.75934e-15
2.77628e-15
2.8132e-15
2.66691e-15
2.73148e-15
2.34992e-15
2.60828e-15
2.64698e-15
2.47512e-15
2.16462e-15
1.44961e-15
1.96223e-15
2.00787e-15
2.22622e-15
2.33294e-15
2.4025e-15
2.47891e-15
2.44209e-15
2.84297e-15
2.72755e-15
2.68144e-15
2.67028e-15
2.86088e-15
2.71067e-15
2.62224e-15
2.31494e-15
2.31501e-15
2.49768e-15
2.57044e-15
1.79135e-15
2.43175e-15
2.08918e-15
2.20089e-15
2.19306e-15
2.35818e-15
2.49288e-15
2.48863e-15
2.53752e-15
2.65357e-15
2.63928e-15
2.76563e-15
2.83981e-15
2.73001e-15
2.54608e-15
2.48332e-15
2.22489e-15
2.14883e-15
2.38178e-15
2.73855e-15
2.0326e-15
2.58058e-15
2.20569e-15
2.14198e-15
2.2717e-15
2.40603e-15
2.59359e-15
2.47669e-15
2.6044e-15
2.6302e-15
2.70056e-15
2.6412e-15
2.69624e-15
2.74626e-15
2.57493e-15
2.26734e-15
2.21317e-15
2.16919e-15
2.28267e-15
2.71857e-15
2.27294e-15
1.20307e-15
2.34088e-15
2.06854e-15
2.43135e-15
2.54206e-15
2.58728e-15
2.56862e-15
2.65196e-15
2.55393e-15
2.62444e-15
2.56859e-15
2.61367e-15
2.61363e-15
2.50389e-15
2.33697e-15
2.27357e-15
2.02234e-15
2.1037e-15
2.58969e-15
2.08455e-15
3.81539e-15
2.18341e-15
2.21598e-15
2.44727e-15
2.53968e-15
2.63315e-15
2.61138e-15
2.52266e-15
2.52133e-15
2.53402e-15
2.51114e-15
2.41377e-15
2.35476e-15
2.32174e-15
2.38688e-15
2.27535e-15
2.05559e-15
2.09045e-15
2.40199e-15
2.37606e-15
6.29635e-16
2.40741e-15
2.06382e-15
2.31264e-15
2.44134e-15
2.69404e-15
2.69331e-15
2.47584e-15
2.49091e-15
2.65482e-15
2.65748e-15
2.32838e-15
2.19233e-15
2.24233e-15
2.24592e-15
2.12785e-15
1.97851e-15
2.21033e-15
2.25347e-15
1.92542e-15
2.89226e-15
2.07323e-15
2.20395e-15
2.20343e-15
2.383e-15
2.46711e-15
2.45301e-15
2.56364e-15
2.33941e-15
2.29218e-15
2.35315e-15
2.3128e-15
2.24395e-15
2.14483e-15
2.20713e-15
2.20559e-15
2.09532e-15
2.06403e-15
2.14811e-15
1.57002e-15
2.50819e-15
2.01213e-15
2.08178e-15
2.12217e-15
2.18115e-15
2.18151e-15
2.20396e-15
2.31157e-15
2.14569e-15
2.31178e-15
2.27765e-15
2.27601e-15
2.2623e-15
2.18515e-15
2.28719e-15
2.13448e-15
1.9969e-15
1.85671e-15
2.12687e-15
1.87933e-15
1.34338e-15
2.07247e-15
1.92362e-15
1.96863e-15
2.0257e-15
2.088e-15
2.0238e-15
2.16413e-15
2.29282e-15
2.26581e-15
2.20152e-15
2.14664e-15
2.12254e-15
2.1306e-15
2.24472e-15
2.30011e-15
2.01146e-15
1.90401e-15
2.10341e-15
2.1805e-15
2.07625e-15
1.68945e-15
1.7897e-15
1.85433e-15
1.98172e-15
2.00559e-15
1.869e-15
2.04495e-15
2.28732e-15
2.41037e-15
2.24157e-15
2.12067e-15
2.13468e-15
2.12932e-15
2.21614e-15
2.17519e-15
2.30008e-15
1.95671e-15
2.00694e-15
2.0121e-15
8.04888e-16
1.78437e-15
1.58899e-15
1.77434e-15
1.81813e-15
1.87056e-15
1.83761e-15
2.03174e-15
2.19482e-15
2.35963e-15
2.14872e-15
2.2221e-15
2.20549e-15
2.10006e-15
2.18495e-15
2.19502e-15
2.24771e-15
2.14124e-15
1.96073e-15
1.51816e-15
2.61605e-15
1.64255e-15
1.68756e-15
1.64781e-15
1.76941e-15
1.81185e-15
1.95745e-15
1.91824e-15
2.0951e-15
2.31047e-15
2.26078e-15
2.14067e-15
2.17517e-15
2.06138e-15
2.08212e-15
2.08905e-15
2.09029e-15
2.17866e-15
2.27895e-15
1.43191e-15
8.1699e-16
1.7534e-15
1.71978e-15
1.70707e-15
1.75368e-15
1.67694e-15
1.92492e-15
1.94508e-15
2.05133e-15
2.11946e-15
2.13995e-15
2.0762e-15
2.10331e-15
2.25816e-15
2.11935e-15
1.89324e-15
1.99392e-15
2.11047e-15
2.425e-15
1.25989e-15
8.10714e-16
1.6028e-15
1.87503e-15
1.66647e-15
1.82319e-15
1.75841e-15
1.80447e-15
1.82391e-15
2.02296e-15
2.13048e-15
2.0823e-15
1.92539e-15
1.97255e-15
2.13805e-15
2.12534e-15
2.0802e-15
2.04753e-15
2.08426e-15
2.3407e-15
7.4054e-16
2.15991e-15
1.58925e-15
1.7413e-15
1.52863e-15
1.6895e-15
1.73443e-15
1.77478e-15
1.84914e-15
2.00082e-15
2.17354e-15
2.14554e-15
1.95905e-15
1.84921e-15
1.94376e-15
2.00665e-15
1.97288e-15
1.83258e-15
2.1538e-15
2.24044e-15
1.48314e-15
7.92872e-16
1.16625e-15
1.4473e-15
1.46445e-15
1.64921e-15
1.72391e-15
1.74757e-15
1.80353e-15
1.86409e-15
2.2851e-15
2.2272e-15
1.91754e-15
1.75032e-15
1.77557e-15
1.75968e-15
1.97205e-15
1.76622e-15
2.11706e-15
2.22684e-15
1.51168e-15
3.3201e-16
1.22703e-15
1.25387e-15
1.56031e-15
1.70502e-15
1.74213e-15
1.65911e-15
1.71077e-15
2.01069e-15
2.18044e-15
2.02886e-15
1.82984e-15
1.73184e-15
1.70905e-15
1.58678e-15
1.72669e-15
1.78969e-15
2.20603e-15
2.32307e-15
6.45297e-16
2.04722e-15
1.22359e-15
1.48655e-15
1.70979e-15
1.81007e-15
1.74294e-15
1.67662e-15
1.90032e-15
2.04114e-15
1.93992e-15
1.87059e-15
1.91541e-15
1.77333e-15
1.67276e-15
1.53588e-15
1.62058e-15
1.87164e-15
2.20467e-15
2.26387e-15
)
;

boundaryField
{
    movingWall
    {
        type            zeroGradient;
    }
    fixedWalls
    {
        type            zeroGradient;
    }
    frontAndBack
    {
        type            empty;
    }
}


// ************************************************************************* //
