/*--------------------------------*- C++ -*----------------------------------*\
| =========                 |                                                 |
| \\      /  F ield         | OpenFOAM: The Open Source CFD Toolbox           |
|  \\    /   O peration     | Version:  2312                                  |
|   \\  /    A nd           | Website:  www.openfoam.com                      |
|    \\/     M anipulation  |                                                 |
\*---------------------------------------------------------------------------*/
FoamFile
{
    version     2.0;
    format      ascii;
    arch        "LSB;label=32;scalar=64";
    class       volScalarField;
    location    "8";
    object      QField;
}
// * * * * * * * * * * * * * * * * * * * * * * * * * * * * * * * * * * * * * //

dimensions      [0 0 -2 0 0 0 0];

internalField   nonuniform List<scalar> 
400
(
1.18553e-24
-6.28288e-26
3.28444e-26
-2.41556e-27
-5.9365e-28
-4.97694e-29
-1.15072e-28
0
-5.82678e-28
-5.81221e-28
-1.84677e-28
0
-6.62914e-28
0
7.00226e-29
-4.03306e-28
-3.19605e-28
-6.20315e-30
1.46578e-30
0
1.95837e-24
1.52585e-25
2.64707e-26
-7.30118e-28
7.65188e-29
-4.86812e-28
-8.30231e-28
2.29135e-27
-1.46455e-27
-9.89057e-28
2.46078e-28
1.31435e-27
-6.18951e-28
-2.74198e-28
9.3657e-28
-3.7882e-29
-5.14135e-28
-1.9261e-28
0
-9.00118e-28
0
-3.84164e-25
7.93001e-26
-6.32656e-27
3.65799e-27
-7.24507e-28
-1.24232e-27
-1.81569e-27
-1.73862e-27
5.12764e-30
4.68196e-28
-6.42225e-29
-6.25504e-28
-5.22225e-28
-7.52847e-28
-3.67851e-29
-2.48341e-28
-1.73023e-29
0
-6.15265e-28
-2.61664e-25
-2.53628e-25
2.03492e-26
-1.24416e-27
-1.27101e-27
-2.99918e-28
-1.61875e-27
-2.7589e-28
-1.053e-28
-3.83167e-29
5.47322e-28
-6.28047e-28
-4.20958e-28
0
-2.94181e-28
9.5652e-28
1.94123e-27
0
4.55273e-28
-1.00426e-27
3.40406e-25
-9.36041e-26
7.15881e-26
-3.37687e-27
1.22229e-27
-3.42901e-28
0
1.53366e-28
-2.84884e-28
-2.65552e-28
-1.08485e-27
0
0
5.90072e-28
0
-1.9399e-27
1.30468e-28
3.51354e-28
2.43701e-28
-4.80071e-28
1.34057e-24
3.63033e-25
-8.80137e-27
1.1979e-28
1.87809e-28
0
0
0
-7.95514e-28
-1.96323e-28
6.8304e-28
2.68413e-28
2.77047e-28
1.13083e-27
1.15056e-27
-2.46018e-28
-6.58485e-28
-7.69583e-29
-2.56123e-29
-2.21148e-28
3.24864e-24
8.02535e-25
3.11357e-26
5.35306e-27
4.44663e-29
0
-1.40983e-28
7.00392e-28
1.0388e-28
0
-1.03852e-28
2.93715e-27
1.50708e-27
-7.06427e-28
-4.78932e-28
-5.80381e-28
-2.61962e-28
2.88863e-28
5.02919e-29
-3.80854e-29
1.71827e-24
4.74477e-25
-2.06274e-26
6.03842e-27
-1.42457e-27
3.86427e-28
-2.96734e-28
-3.05538e-28
1.52509e-27
2.12106e-27
-2.62486e-27
-1.41842e-27
-2.26745e-27
0
-1.28064e-28
-3.06057e-29
-1.97496e-28
1.19065e-28
0
-4.10125e-28
-1.64613e-24
-4.87586e-25
1.07902e-26
9.71418e-27
-2.52775e-29
-3.21144e-28
-4.08843e-28
5.67803e-28
-3.38335e-28
-1.44707e-27
-1.28753e-27
3.89106e-27
2.88562e-27
-2.28685e-28
-1.44205e-28
1.82193e-28
-6.51721e-28
-9.83813e-29
0
0
-1.04982e-24
-1.73812e-25
-1.3726e-26
-4.02978e-27
5.95385e-28
-1.23763e-27
-2.7758e-28
-1.89789e-29
4.42505e-28
-1.84704e-28
1.68745e-28
3.62074e-29
-4.09918e-28
-3.31967e-28
-1.68885e-28
-8.22408e-28
0
-2.70855e-28
0
0
-5.91111e-25
-1.63948e-25
-1.10001e-26
0
2.99347e-28
1.34784e-27
3.46387e-27
1.23141e-27
-2.90165e-28
-1.09442e-28
-6.88703e-29
-6.19016e-28
-4.14298e-28
-2.61086e-28
3.5789e-28
1.66208e-28
1.96582e-28
-6.91591e-28
-2.29668e-28
-2.42877e-28
-8.77254e-25
-1.75518e-25
-3.27029e-26
-4.11556e-29
5.22972e-28
-3.61236e-29
2.12687e-28
-6.53702e-28
-3.39241e-28
-1.35628e-27
-1.5203e-27
1.14718e-27
9.81702e-28
2.34644e-28
-3.86508e-29
-2.8934e-28
-1.01778e-27
1.7529e-28
-6.86615e-28
0
-6.66437e-26
-1.43891e-25
-1.03763e-28
-1.98188e-27
-9.24185e-28
-3.25279e-29
-1.02037e-28
-1.19342e-27
0
0
-7.02811e-28
1.15524e-27
0
0
-8.76844e-29
9.98416e-28
0
8.90944e-28
2.35318e-28
-7.59091e-28
1.60708e-24
2.36629e-25
1.40429e-26
-2.99824e-29
-1.64718e-27
-5.93082e-28
5.38709e-28
2.33837e-28
-4.23616e-28
-2.96232e-28
-6.36363e-28
1.68854e-27
-2.00946e-28
-1.08236e-28
-1.9735e-27
1.32264e-28
0
0
-2.07444e-28
-7.61406e-28
2.2319e-24
4.85922e-25
3.39196e-26
-1.07497e-27
4.54687e-27
8.77725e-28
-3.08739e-29
-3.27778e-28
-2.08763e-28
-5.03611e-30
5.03966e-28
5.83191e-28
2.94606e-28
5.63015e-28
1.00258e-28
3.6176e-28
-6.32436e-28
2.15308e-28
3.85903e-28
-4.07752e-28
1.16647e-24
9.71167e-26
4.72089e-26
5.23871e-27
6.95865e-28
0
0
-3.90818e-28
-7.50939e-28
-3.21776e-28
-7.79881e-28
0
-1.84495e-28
0
-7.4754e-28
2.16407e-28
-3.45337e-28
-2.30948e-28
-9.1795e-29
-3.16454e-28
6.76168e-25
-1.4991e-25
1.28758e-27
1.55388e-27
4.55402e-28
-7.66979e-29
0
1.38572e-28
-1.73636e-28
-3.763e-28
-5.17434e-28
8.86515e-28
2.35951e-27
2.28722e-27
-6.75006e-28
-2.58648e-27
-9.48467e-28
-8.16329e-28
0
0
1.36181e-25
-5.66333e-25
7.39421e-26
-8.17804e-27
3.25528e-28
-7.22971e-28
1.08803e-28
5.05656e-29
-4.31068e-28
-1.1128e-27
8.97758e-28
1.32991e-27
1.7465e-27
-1.29499e-27
4.74152e-29
-1.95636e-27
2.94637e-27
0
-3.54503e-28
0
2.46668e-25
-5.83947e-25
9.83785e-26
-1.40699e-26
3.16929e-27
-4.59945e-28
-4.00848e-28
-5.31769e-29
6.7475e-28
-1.44459e-27
-1.80491e-27
1.7108e-27
3.33421e-28
-1.28804e-27
-3.31911e-28
-1.94388e-27
0
3.38074e-29
4.22753e-29
0
7.88984e-25
8.65242e-27
-3.24639e-27
1.0399e-27
-6.18308e-28
0
-9.31755e-29
9.60115e-29
-1.18743e-28
0
-2.68127e-28
-2.50856e-28
-1.28584e-27
2.61231e-28
1.79567e-28
-2.14637e-28
-1.45888e-28
0
0
0
)
;

boundaryField
{
    movingWall
    {
        type            calculated;
        value           nonuniform List<scalar> 
20
(
5.36418e-25
3.48005e-25
-1.20159e-25
1.65008e-26
-6.88799e-27
1.02514e-27
1.04228e-27
7.86526e-28
8.41417e-28
1.26437e-27
-1.64873e-27
-6.83634e-27
-3.81037e-27
1.284e-27
-1.47102e-28
-1.13079e-27
-6.02826e-28
0
0
0
)
;
    }
    fixedWalls
    {
        type            calculated;
        value           nonuniform List<scalar> 
60
(
4.72691e-24
7.2728e-24
-2.41708e-25
-2.77741e-24
1.60753e-24
6.84613e-24
1.64458e-23
7.51613e-24
-7.42604e-24
-5.3387e-24
-2.75535e-24
-5.02166e-24
-3.56842e-25
7.77043e-24
1.10414e-23
5.66595e-24
9.89446e-25
-2.01045e-24
-5.2351e-25
2.3611e-24
0
-1.47475e-27
-1.14319e-27
-1.78789e-27
-7.04199e-28
-3.62329e-28
-1.24798e-28
-8.70263e-28
0
0
-1.98965e-28
0
-1.2437e-27
-1.51532e-27
-1.41133e-27
-1.00791e-27
0
0
0
0
7.91998e-25
5.84924e-25
-2.42155e-25
3.16215e-26
-1.00357e-26
-4.69166e-28
-2.91081e-27
-2.68877e-27
-6.73489e-28
9.09806e-28
9.26651e-28
-2.11853e-27
-1.682e-27
6.04623e-28
2.2945e-28
-2.36673e-28
-3.3036e-28
-2.72657e-28
-6.50988e-28
0
)
;
    }
    frontAndBack
    {
        type            empty;
    }
}


// ************************************************************************* //
