/*--------------------------------*- C++ -*----------------------------------*\
| =========                 |                                                 |
| \\      /  F ield         | OpenFOAM: The Open Source CFD Toolbox           |
|  \\    /   O peration     | Version:  2312                                  |
|   \\  /    A nd           | Website:  www.openfoam.com                      |
|    \\/     M anipulation  |                                                 |
\*---------------------------------------------------------------------------*/
FoamFile
{
    version     2.0;
    format      ascii;
    arch        "LSB;label=32;scalar=64";
    class       surfaceVectorField;
    location    "8";
    object      surfaceU;
}
// * * * * * * * * * * * * * * * * * * * * * * * * * * * * * * * * * * * * * //

dimensions      [0 1 -1 0 0 0 0];

internalField   nonuniform List<vector> 
760
(
(-1 1.23546e-14 0)
(-1 1.93606e-14 0)
(-1 -2.52029e-15 0)
(-1 -3.86329e-15 0)
(-1 5.0907e-16 0)
(-1 7.79872e-16 0)
(-1 -1.22657e-16 0)
(-1 -1.86134e-16 0)
(-1 6.79526e-17 0)
(-1 4.05502e-17 0)
(-1 6.65896e-17 0)
(-1 9.18083e-18 0)
(-1 1.04737e-16 0)
(-1 2.1227e-17 0)
(-1 1.55192e-16 0)
(-1 8.62795e-17 0)
(-1 1.30825e-16 0)
(-1 1.56217e-16 0)
(-1 3.17652e-17 0)
(-1 5.36081e-17 0)
(-1 7.27149e-19 0)
(-1 -3.4067e-17 0)
(-1 6.03584e-17 0)
(-1 3.77012e-17 0)
(-1 7.62618e-17 0)
(-1 1.06383e-16 0)
(-1 4.22245e-17 0)
(-1 2.5273e-17 0)
(-1 2.93076e-17 0)
(-1 4.70551e-17 0)
(-1 2.70674e-17 0)
(-1 7.43967e-17 0)
(-1 1.29521e-18 0)
(-1 5.89567e-17 0)
(-1 -2.03938e-18 0)
(-1 -1.14428e-18 0)
(-1 4.22013e-17 0)
(-1 -2.70389e-19 0)
(-1 3.78755e-17 0)
(-1 3.14278e-15 0)
(-1 -4.723e-15 0)
(-1 -5.63128e-16 0)
(-1 9.11228e-16 0)
(-1 8.46691e-17 0)
(-1 -2.16319e-16 0)
(-1 -2.29266e-17 0)
(-1 1.97043e-18 0)
(-1 -1.82216e-17 0)
(-1 -1.14908e-16 0)
(-1 -3.61818e-17 0)
(-1 -1.19962e-16 0)
(-1 2.76976e-18 0)
(-1 -1.13776e-16 0)
(-1 8.73055e-17 0)
(-1 -2.37189e-17 0)
(-1 7.90003e-17 0)
(-1 3.77474e-17 0)
(-1 -1.22241e-17 0)
(-1 1.50683e-17 0)
(-1 2.90705e-18 0)
(-1 -4.84449e-17 0)
(-1 8.37255e-17 0)
(-1 -1.44676e-18 0)
(-1 5.53939e-17 0)
(-1 2.0538e-17 0)
(-1 3.01035e-17 0)
(-1 -1.6457e-17 0)
(-1 9.21442e-17 0)
(-1 4.03775e-17 0)
(-1 1.06286e-16 0)
(-1 9.91035e-17 0)
(-1 5.65172e-17 0)
(-1 6.13049e-17 0)
(-1 6.24715e-19 0)
(-1 1.66208e-17 0)
(-1 -4.59615e-18 0)
(-1 -7.29469e-17 0)
(-1 -4.51457e-17 0)
(-1 -6.95455e-15 0)
(-1 -1.37943e-14 0)
(-1 1.25804e-15 0)
(-1 2.6329e-15 0)
(-1 -2.99018e-16 0)
(-1 -5.23714e-16 0)
(-1 -9.00108e-17 0)
(-1 4.54683e-17 0)
(-1 -2.16649e-16 0)
(-1 -1.99954e-16 0)
(-1 -1.97556e-16 0)
(-1 -1.55383e-16 0)
(-1 -1.40264e-16 0)
(-1 -1.25536e-16 0)
(-1 -7.3277e-17 0)
(-1 -5.94695e-17 0)
(-1 -2.61846e-17 0)
(-1 -5.19735e-17 0)
(-1 -2.11525e-17 0)
(-1 7.04724e-18 0)
(-1 -5.27987e-17 0)
(-1 -3.98732e-17 0)
(-1 -6.46342e-17 0)
(-1 -4.88004e-17 0)
(-1 -5.13128e-17 0)
(-1 -3.04939e-17 0)
(-1 -6.18308e-18 0)
(-1 3.17098e-17 0)
(-1 4.73367e-17 0)
(-1 7.22137e-17 0)
(-1 5.41224e-17 0)
(-1 9.80824e-17 0)
(-1 2.14086e-17 0)
(-1 1.54942e-17 0)
(-1 -5.69508e-17 0)
(-1 -2.41547e-17 0)
(-1 -1.13496e-16 0)
(-1 -9.62923e-17 0)
(-1 -8.84922e-17 0)
(-1 -4.20685e-15 0)
(-1 5.5917e-15 0)
(-1 8.51146e-16 0)
(-1 -1.09034e-15 0)
(-1 -1.79228e-16 0)
(-1 2.85777e-16 0)
(-1 -6.44746e-17 0)
(-1 -2.5909e-17 0)
(-1 -1.38688e-16 0)
(-1 -4.56172e-17 0)
(-1 -8.3363e-17 0)
(-1 -2.56832e-17 0)
(-1 -4.47413e-17 0)
(-1 4.45696e-18 0)
(-1 -3.8166e-17 0)
(-1 -2.17273e-17 0)
(-1 -1.87417e-17 0)
(-1 -2.77558e-17 0)
(-1 -1.16735e-17 0)
(-1 5.07761e-17 0)
(-1 -3.58749e-17 0)
(-1 3.68885e-17 0)
(-1 -1.466e-17 0)
(-1 4.58389e-17 0)
(-1 5.25288e-17 0)
(-1 4.1927e-17 0)
(-1 1.10107e-16 0)
(-1 5.59353e-17 0)
(-1 1.22959e-16 0)
(-1 4.50802e-17 0)
(-1 5.94542e-17 0)
(-1 4.86459e-17 0)
(-1 -3.00691e-17 0)
(-1 -2.11558e-17 0)
(-1 -6.34963e-17 0)
(-1 -6.91253e-18 0)
(-1 -7.12881e-17 0)
(-1 -2.0101e-17 0)
(-1 -3.15095e-17 0)
(-1 8.70821e-15 0)
(-1 4.40224e-16 0)
(-1 -1.6557e-15 0)
(-1 -1.37548e-16 0)
(-1 4.39096e-16 0)
(-1 4.27887e-17 0)
(-1 -7.05164e-18 0)
(-1 6.24784e-17 0)
(-1 6.73877e-17 0)
(-1 3.0976e-17 0)
(-1 6.21367e-17 0)
(-1 3.23198e-17 0)
(-1 2.7471e-17 0)
(-1 4.13571e-17 0)
(-1 -1.13171e-17 0)
(-1 6.56371e-18 0)
(-1 4.1762e-17 0)
(-1 7.78751e-17 0)
(-1 9.93381e-17 0)
(-1 1.57338e-16 0)
(-1 1.18602e-16 0)
(-1 1.46581e-16 0)
(-1 1.02426e-16 0)
(-1 1.13603e-16 0)
(-1 4.53336e-17 0)
(-1 7.86832e-17 0)
(-1 -9.09099e-18 0)
(-1 1.99323e-17 0)
(-1 -2.92332e-17 0)
(-1 -8.00424e-17 0)
(-1 -3.19641e-17 0)
(-1 -1.30278e-16 0)
(-1 2.00079e-18 0)
(-1 -6.50184e-17 0)
(-1 3.64827e-17 0)
(-1 3.17199e-17 0)
(-1 1.96776e-17 0)
(-1 4.16591e-17 0)
(-1 3.73705e-17 0)
(-1 -8.40553e-15 0)
(-1 -9.53631e-15 0)
(-1 1.56094e-15 0)
(-1 1.89178e-15 0)
(-1 -3.33829e-16 0)
(-1 -4.98706e-16 0)
(-1 1.00506e-16 0)
(-1 6.98442e-17 0)
(-1 -4.09186e-18 0)
(-1 -3.66858e-18 0)
(-1 1.15401e-17 0)
(-1 2.48678e-17 0)
(-1 2.04498e-17 0)
(-1 -1.29796e-17 0)
(-1 9.57559e-17 0)
(-1 7.77065e-18 0)
(-1 1.93451e-16 0)
(-1 1.26926e-16 0)
(-1 2.04581e-16 0)
(-1 1.32252e-16 0)
(-1 1.41581e-16 0)
(-1 8.06714e-17 0)
(-1 8.98603e-17 0)
(-1 5.96743e-17 0)
(-1 5.32819e-17 0)
(-1 1.37312e-16 0)
(-1 -5.10192e-17 0)
(-1 1.15765e-16 0)
(-1 -1.81088e-16 0)
(-1 -3.21454e-17 0)
(-1 -1.63333e-16 0)
(-1 -1.02651e-16 0)
(-1 -3.52993e-17 0)
(-1 -4.2839e-18 0)
(-1 3.68963e-17 0)
(-1 2.46218e-17 0)
(-1 5.9352e-17 0)
(-1 3.69344e-17 0)
(-1 7.81651e-17 0)
(-1 7.61001e-16 0)
(-1 1.75994e-14 0)
(-1 -1.67871e-16 0)
(-1 -4.02988e-15 0)
(-1 -9.5033e-17 0)
(-1 6.49998e-16 0)
(-1 -3.43304e-17 0)
(-1 -3.93537e-16 0)
(-1 2.52911e-17 0)
(-1 -2.9378e-17 0)
(-1 3.48036e-19 0)
(-1 -2.80417e-17 0)
(-1 -2.56588e-17 0)
(-1 -2.81742e-17 0)
(-1 3.8941e-17 0)
(-1 -4.00425e-18 0)
(-1 6.57273e-17 0)
(-1 9.2516e-17 0)
(-1 8.34307e-18 0)
(-1 1.58179e-16 0)
(-1 -1.23555e-18 0)
(-1 1.32949e-16 0)
(-1 1.07126e-16 0)
(-1 1.03264e-16 0)
(-1 1.99795e-16 0)
(-1 1.28647e-16 0)
(-1 1.34639e-16 0)
(-1 1.10739e-16 0)
(-1 4.62913e-17 0)
(-1 2.82872e-17 0)
(-1 5.63979e-17 0)
(-1 1.4517e-17 0)
(-1 5.56372e-17 0)
(-1 4.40396e-17 0)
(-1 2.46599e-17 0)
(-1 3.32905e-17 0)
(-1 5.57476e-17 0)
(-1 4.62116e-17 0)
(-1 8.51906e-17 0)
(-1 1.28085e-14 0)
(-1 -5.20223e-15 0)
(-1 -3.21201e-15 0)
(-1 5.00606e-16 0)
(-1 3.51494e-16 0)
(-1 -3.33635e-16 0)
(-1 -3.88585e-16 0)
(-1 -1.70759e-16 0)
(-1 -8.27107e-17 0)
(-1 -5.09213e-17 0)
(-1 -5.65639e-17 0)
(-1 1.70948e-17 0)
(-1 -6.51973e-18 0)
(-1 7.66077e-17 0)
(-1 4.95707e-17 0)
(-1 8.02672e-17 0)
(-1 1.84967e-16 0)
(-1 9.77845e-17 0)
(-1 2.82784e-16 0)
(-1 2.32319e-16 0)
(-1 2.37448e-16 0)
(-1 2.64125e-16 0)
(-1 1.24785e-16 0)
(-1 1.77759e-16 0)
(-1 3.95911e-17 0)
(-1 4.70596e-18 0)
(-1 4.38745e-18 0)
(-1 -4.05111e-17 0)
(-1 -3.48706e-18 0)
(-1 -3.49766e-18 0)
(-1 2.15869e-18 0)
(-1 -1.81784e-17 0)
(-1 2.16929e-17 0)
(-1 -3.14606e-17 0)
(-1 5.48422e-17 0)
(-1 4.42724e-17 0)
(-1 7.56547e-17 0)
(-1 1.06731e-16 0)
(-1 6.3406e-17 0)
(-1 -1.75101e-14 0)
(-1 -1.67663e-14 0)
(-1 3.37898e-15 0)
(-1 3.54447e-15 0)
(-1 -8.55888e-16 0)
(-1 -9.81565e-16 0)
(-1 1.66905e-16 0)
(-1 8.45267e-17 0)
(-1 4.88842e-17 0)
(-1 -5.32527e-17 0)
(-1 1.50266e-16 0)
(-1 7.63354e-17 0)
(-1 1.63395e-16 0)
(-1 1.38898e-16 0)
(-1 1.28481e-16 0)
(-1 1.67402e-16 0)
(-1 1.45136e-16 0)
(-1 1.07485e-16 0)
(-1 2.1366e-16 0)
(-1 1.02429e-16 0)
(-1 2.04436e-16 0)
(-1 1.72657e-16 0)
(-1 5.76795e-17 0)
(-1 1.6175e-16 0)
(-1 -7.53963e-17 0)
(-1 1.82402e-17 0)
(-1 -4.83962e-17 0)
(-1 -2.53262e-17 0)
(-1 -1.8189e-17 0)
(-1 3.03155e-17 0)
(-1 -5.17977e-17 0)
(-1 2.04579e-17 0)
(-1 -8.88116e-18 0)
(-1 2.92774e-18 0)
(-1 9.61606e-17 0)
(-1 6.24205e-17 0)
(-1 9.44818e-17 0)
(-1 1.00895e-16 0)
(-1 1.52762e-17 0)
(-1 4.28832e-15 0)
(-1 9.2122e-15 0)
(-1 -8.16081e-16 0)
(-1 -1.85723e-15 0)
(-1 -4.11508e-17 0)
(-1 2.99764e-16 0)
(-1 -1.35631e-16 0)
(-1 -2.26248e-16 0)
(-1 -2.58015e-17 0)
(-1 -1.27391e-16 0)
(-1 6.49667e-17 0)
(-1 -6.11989e-17 0)
(-1 1.42905e-16 0)
(-1 8.76932e-17 0)
(-1 1.46406e-16 0)
(-1 1.81511e-16 0)
(-1 6.47779e-17 0)
(-1 1.47983e-16 0)
(-1 6.14261e-17 0)
(-1 8.20412e-17 0)
(-1 1.29971e-16 0)
(-1 1.41529e-16 0)
(-1 1.22311e-16 0)
(-1 1.4741e-16 0)
(-1 6.83103e-17 0)
(-1 9.38567e-17 0)
(-1 5.33855e-17 0)
(-1 5.08356e-17 0)
(-1 6.89624e-17 0)
(-1 5.48509e-17 0)
(-1 7.51833e-17 0)
(-1 9.9422e-17 0)
(-1 7.42294e-17 0)
(-1 9.17317e-17 0)
(-1 6.71553e-17 0)
(-1 3.74385e-17 0)
(-1 2.16898e-17 0)
(-1 3.61662e-17 0)
(-1 -6.30615e-18 0)
(-1 3.06666e-15 0)
(-1 2.52571e-15 0)
(-1 -7.41385e-16 0)
(-1 -4.81407e-16 0)
(-1 1.14667e-16 0)
(-1 1.65014e-16 0)
(-1 -2.18009e-16 0)
(-1 -9.3242e-17 0)
(-1 -1.62789e-16 0)
(-1 -7.96276e-17 0)
(-1 -3.84724e-17 0)
(-1 -1.87279e-17 0)
(-1 1.263e-16 0)
(-1 1.0781e-16 0)
(-1 1.83088e-16 0)
(-1 1.65661e-16 0)
(-1 1.65246e-16 0)
(-1 1.64981e-16 0)
(-1 1.62144e-16 0)
(-1 9.60257e-17 0)
(-1 1.58968e-16 0)
(-1 3.67846e-17 0)
(-1 1.18956e-16 0)
(-1 7.32341e-17 0)
(-1 7.6382e-17 0)
(-1 1.02581e-16 0)
(-1 5.2301e-17 0)
(-1 9.70456e-17 0)
(-1 8.53105e-17 0)
(-1 1.00142e-16 0)
(-1 1.1597e-16 0)
(-1 1.2649e-16 0)
(-1 5.49409e-17 0)
(-1 1.04115e-16 0)
(-1 6.4494e-18 0)
(-1 6.84544e-18 0)
(-1 8.17019e-18 0)
(-1 -6.20016e-18 0)
(-1 1.60953e-17 0)
(-1 -1.02236e-15 0)
(-1 -3.72529e-15 0)
(-1 4.24992e-16 0)
(-1 6.23239e-16 0)
(-1 -4.28954e-17 0)
(-1 -2.38148e-16 0)
(-1 4.51391e-17 0)
(-1 -2.6768e-18 0)
(-1 6.44334e-17 0)
(-1 1.23178e-17 0)
(-1 1.27554e-16 0)
(-1 7.92851e-17 0)
(-1 1.47171e-16 0)
(-1 8.14389e-17 0)
(-1 1.47554e-16 0)
(-1 1.05176e-16 0)
(-1 9.57606e-17 0)
(-1 1.54195e-16 0)
(-1 -2.93341e-17 0)
(-1 5.02475e-17 0)
(-1 -4.89495e-17 0)
(-1 -9.36308e-17 0)
(-1 5.68587e-17 0)
(-1 -2.11838e-18 0)
(-1 1.23245e-16 0)
(-1 1.11614e-16 0)
(-1 1.44887e-16 0)
(-1 1.42681e-16 0)
(-1 1.41322e-16 0)
(-1 1.58323e-16 0)
(-1 1.14635e-16 0)
(-1 9.50839e-17 0)
(-1 5.60196e-17 0)
(-1 3.95487e-17 0)
(-1 -5.80412e-18 0)
(-1 -9.32221e-18 0)
(-1 1.72496e-18 0)
(-1 -7.70583e-17 0)
(-1 -2.34974e-17 0)
(-1 -2.0797e-15 0)
(-1 -2.95574e-15 0)
(-1 -3.99013e-17 0)
(-1 2.05421e-16 0)
(-1 -1.97929e-16 0)
(-1 -1.96248e-16 0)
(-1 -3.54981e-17 0)
(-1 -5.34669e-17 0)
(-1 2.71695e-17 0)
(-1 3.48912e-17 0)
(-1 3.31698e-17 0)
(-1 7.54621e-17 0)
(-1 3.9444e-17 0)
(-1 5.39296e-17 0)
(-1 1.11818e-16 0)
(-1 3.12899e-17 0)
(-1 1.08682e-16 0)
(-1 8.29763e-17 0)
(-1 -1.40492e-17 0)
(-1 4.81002e-17 0)
(-1 -4.67996e-17 0)
(-1 -1.24327e-17 0)
(-1 5.26365e-17 0)
(-1 -4.47201e-17 0)
(-1 1.3105e-16 0)
(-1 1.90333e-17 0)
(-1 1.56118e-16 0)
(-1 3.62995e-17 0)
(-1 1.12086e-16 0)
(-1 5.40839e-17 0)
(-1 1.99979e-17 0)
(-1 5.31445e-17 0)
(-1 -2.57931e-17 0)
(-1 1.17007e-17 0)
(-1 -8.05764e-17 0)
(-1 -4.21362e-17 0)
(-1 -1.02281e-16 0)
(-1 -1.14377e-16 0)
(-1 -9.35112e-17 0)
(-1 -6.70627e-16 0)
(-1 5.87176e-15 0)
(-1 4.90738e-17 0)
(-1 -1.00827e-15 0)
(-1 -5.17859e-17 0)
(-1 1.34634e-16 0)
(-1 1.69224e-17 0)
(-1 -1.43234e-16 0)
(-1 8.31838e-17 0)
(-1 6.23469e-17 0)
(-1 9.62219e-17 0)
(-1 1.32714e-16 0)
(-1 4.57755e-17 0)
(-1 1.56341e-16 0)
(-1 2.44842e-18 0)
(-1 9.63764e-17 0)
(-1 2.23942e-17 0)
(-1 7.38232e-17 0)
(-1 4.97167e-17 0)
(-1 9.95535e-17 0)
(-1 -1.03532e-17 0)
(-1 1.06331e-16 0)
(-1 -7.83234e-17 0)
(-1 -1.63509e-17 0)
(-1 -7.57174e-17 0)
(-1 -1.54287e-17 0)
(-1 -6.57343e-17 0)
(-1 -2.73312e-17 0)
(-1 -4.85711e-18 0)
(-1 -6.72651e-17 0)
(-1 4.48473e-17 0)
(-1 -2.1866e-17 0)
(-1 -4.64251e-18 0)
(-1 -1.48626e-17 0)
(-1 -7.59367e-17 0)
(-1 -4.87431e-17 0)
(-1 -1.05607e-16 0)
(-1 -4.64394e-17 0)
(-1 -5.8664e-17 0)
(-1 5.53411e-15 0)
(-1 -4.38928e-15 0)
(-1 -9.22714e-16 0)
(-1 9.20082e-16 0)
(-1 4.31859e-17 0)
(-1 -3.27023e-16 0)
(-1 -9.781e-17 0)
(-1 -5.9539e-17 0)
(-1 1.11877e-16 0)
(-1 1.51668e-17 0)
(-1 1.92833e-16 0)
(-1 9.29865e-17 0)
(-1 2.06942e-16 0)
(-1 1.39384e-16 0)
(-1 1.67751e-16 0)
(-1 1.56841e-16 0)
(-1 1.50982e-16 0)
(-1 1.12333e-16 0)
(-1 1.56168e-16 0)
(-1 1.00482e-16 0)
(-1 1.00334e-16 0)
(-1 8.76278e-17 0)
(-1 4.65437e-17 0)
(-1 4.21282e-17 0)
(-1 3.29574e-17 0)
(-1 5.47467e-17 0)
(-1 -2.8862e-17 0)
(-1 5.4269e-17 0)
(-1 -8.4274e-17 0)
(-1 -3.64886e-17 0)
(-1 -8.15759e-17 0)
(-1 -8.85988e-17 0)
(-1 -5.89632e-17 0)
(-1 -5.37505e-17 0)
(-1 -1.92458e-17 0)
(-1 4.94873e-18 0)
(-1 5.03956e-19 0)
(-1 4.9973e-18 0)
(-1 1.70569e-17 0)
(-1 -9.00331e-15 0)
(-1 -6.12972e-15 0)
(-1 1.51577e-15 0)
(-1 7.11863e-16 0)
(-1 -4.29748e-16 0)
(-1 -1.23203e-16 0)
(-1 5.34377e-17 0)
(-1 7.39124e-17 0)
(-1 -3.72391e-18 0)
(-1 2.21873e-17 0)
(-1 3.9538e-17 0)
(-1 -2.09013e-17 0)
(-1 8.92835e-17 0)
(-1 6.33972e-18 0)
(-1 1.01423e-16 0)
(-1 6.0469e-17 0)
(-1 6.18332e-17 0)
(-1 4.30713e-17 0)
(-1 3.19422e-17 0)
(-1 1.12342e-17 0)
(-1 2.94224e-17 0)
(-1 -5.62349e-17 0)
(-1 5.03312e-17 0)
(-1 -3.90104e-17 0)
(-1 7.60583e-17 0)
(-1 4.64405e-17 0)
(-1 4.66424e-17 0)
(-1 1.31801e-16 0)
(-1 -4.08135e-17 0)
(-1 1.01408e-16 0)
(-1 -6.07735e-17 0)
(-1 3.49367e-17 0)
(-1 1.01614e-17 0)
(-1 9.95297e-18 0)
(-1 2.91919e-17 0)
(-1 4.75512e-17 0)
(-1 2.15502e-17 0)
(-1 -1.19359e-17 0)
(-1 3.23319e-17 0)
(-1 3.58545e-15 0)
(-1 1.67412e-14 0)
(-1 -9.27112e-16 0)
(-1 -3.65618e-15 0)
(-1 3.80458e-16 0)
(-1 9.46851e-16 0)
(-1 4.2662e-17 0)
(-1 -2.16346e-17 0)
(-1 5.00997e-18 0)
(-1 1.06194e-16 0)
(-1 -5.40995e-17 0)
(-1 -6.75302e-18 0)
(-1 -2.24748e-17 0)
(-1 2.62989e-18 0)
(-1 2.11748e-18 0)
(-1 3.4907e-17 0)
(-1 -7.52766e-18 0)
(-1 3.03314e-17 0)
(-1 -7.69428e-17 0)
(-1 -5.4256e-17 0)
(-1 -1.24668e-16 0)
(-1 -1.24562e-16 0)
(-1 -4.29011e-17 0)
(-1 -4.67785e-17 0)
(-1 1.02183e-16 0)
(-1 7.45281e-17 0)
(-1 1.86567e-16 0)
(-1 1.61544e-16 0)
(-1 1.77158e-16 0)
(-1 2.07108e-16 0)
(-1 1.05663e-16 0)
(-1 1.93977e-16 0)
(-1 4.73427e-17 0)
(-1 2.80751e-17 0)
(-1 6.4234e-18 0)
(-1 -2.77419e-17 0)
(-1 -1.15421e-18 0)
(-1 -3.37101e-17 0)
(-1 1.13157e-17 0)
(-1 9.49955e-15 0)
(-1 -2.17324e-16 0)
(-1 -1.78222e-15 0)
(-1 4.08206e-17 0)
(-1 5.44758e-16 0)
(-1 -4.83359e-17 0)
(-1 4.18976e-17 0)
(-1 9.93454e-17 0)
(-1 9.44313e-17 0)
(-1 4.88481e-18 0)
(-1 4.99764e-17 0)
(-1 -1.26242e-17 0)
(-1 6.00117e-17 0)
(-1 -1.12884e-17 0)
(-1 6.31209e-17 0)
(-1 2.20589e-17 0)
(-1 -1.6397e-17 0)
(-1 -1.41429e-17 0)
(-1 -1.01875e-16 0)
(-1 -8.85764e-17 0)
(-1 -4.66725e-17 0)
(-1 -3.82823e-18 0)
(-1 7.06507e-17 0)
(-1 5.98658e-17 0)
(-1 1.33889e-16 0)
(-1 8.29922e-18 0)
(-1 1.82085e-16 0)
(-1 1.80042e-17 0)
(-1 2.23927e-16 0)
(-1 9.03301e-17 0)
(-1 1.16389e-16 0)
(-1 1.21072e-16 0)
(-1 -4.70096e-17 0)
(-1 1.41809e-18 0)
(-1 -6.78754e-17 0)
(-1 -1.05813e-16 0)
(-1 -2.12401e-17 0)
(-1 -6.64072e-17 0)
(-1 -6.28685e-18 0)
(-1 -9.67606e-15 0)
(-1 -2.18354e-14 0)
(-1 1.77471e-15 0)
(-1 4.0691e-15 0)
(-1 -4.93749e-16 0)
(-1 -1.00996e-15 0)
(-1 6.23325e-17 0)
(-1 1.91828e-16 0)
(-1 -1.02171e-16 0)
(-1 -1.14058e-16 0)
(-1 -7.3889e-17 0)
(-1 -8.17575e-17 0)
(-1 -4.92413e-17 0)
(-1 -6.2692e-17 0)
(-1 -5.5205e-17 0)
(-1 -1.16056e-17 0)
(-1 -8.63224e-17 0)
(-1 -5.09448e-17 0)
(-1 9.47027e-18 0)
(-1 -1.36825e-17 0)
(-1 1.0271e-16 0)
(-1 1.16026e-16 0)
(-1 -2.48569e-18 0)
(-1 4.62748e-17 0)
(-1 -1.07585e-16 0)
(-1 -1.18598e-16 0)
(-1 -7.37508e-17 0)
(-1 -8.42581e-17 0)
(-1 -1.25241e-17 0)
(-1 -3.65746e-17 0)
(-1 6.10158e-18 0)
(-1 -3.95935e-17 0)
(-1 -5.73854e-17 0)
(-1 -2.69117e-17 0)
(-1 -1.04345e-16 0)
(-1 -9.95767e-17 0)
(-1 -5.14539e-17 0)
(-1 -7.42056e-17 0)
(-1 -2.73149e-18 0)
(-1 -8.09027e-15 0)
(-1 1.28443e-15 0)
(-1 -3.24384e-16 0)
(-1 1.54379e-17 0)
(-1 -9.36446e-17 0)
(-1 -7.05605e-17 0)
(-1 -2.50563e-17 0)
(-1 -7.34532e-18 0)
(-1 2.16951e-17 0)
(-1 9.2873e-17 0)
(-1 5.95905e-17 0)
(-1 -6.98372e-17 0)
(-1 -9.52704e-17 0)
(-1 -4.70819e-17 0)
(-1 -6.3644e-17 0)
(-1 -7.26068e-17 0)
(-1 -6.9103e-17 0)
(-1 -6.94375e-17 0)
(-1 -2.54832e-17 0)
)
;

boundaryField
{
    movingWall
    {
        type            calculated;
        value           uniform (-1 -0 -0);
    }
    fixedWalls
    {
        type            calculated;
        value           uniform (-1 -0 -0);
    }
    frontAndBack
    {
        type            empty;
        value           nonuniform List<vector> 0();
    }
}


// ************************************************************************* //
