/*--------------------------------*- C++ -*----------------------------------*\
| =========                 |                                                 |
| \\      /  F ield         | OpenFOAM: The Open Source CFD Toolbox           |
|  \\    /   O peration     | Version:  2312                                  |
|   \\  /    A nd           | Website:  www.openfoam.com                      |
|    \\/     M anipulation  |                                                 |
\*---------------------------------------------------------------------------*/
FoamFile
{
    version     2.0;
    format      ascii;
    arch        "LSB;label=32;scalar=64";
    class       surfaceScalarField;
    location    "8";
    object      surfaceK;
}
// * * * * * * * * * * * * * * * * * * * * * * * * * * * * * * * * * * * * * //

dimensions      [0 2 -2 0 0 0 0];

internalField   nonuniform List<scalar> 
760
(
4.10937e-06
4.15287e-06
4.10937e-06
4.15287e-06
4.10937e-06
4.15279e-06
4.10937e-06
4.15277e-06
4.10937e-06
4.15272e-06
4.10936e-06
4.1527e-06
4.10936e-06
4.15266e-06
4.10936e-06
4.15264e-06
4.10936e-06
4.1526e-06
4.10936e-06
4.15259e-06
4.10936e-06
4.15256e-06
4.10936e-06
4.15255e-06
4.10936e-06
4.15252e-06
4.10936e-06
4.15252e-06
4.10936e-06
4.1525e-06
4.10936e-06
4.1525e-06
4.10936e-06
4.15248e-06
4.10936e-06
4.15248e-06
4.10936e-06
4.15248e-06
4.15248e-06
4.19636e-06
4.2641e-06
4.19629e-06
4.2641e-06
4.1962e-06
4.26396e-06
4.19613e-06
4.26391e-06
4.19606e-06
4.2638e-06
4.196e-06
4.26376e-06
4.19594e-06
4.26368e-06
4.19588e-06
4.26363e-06
4.19583e-06
4.26357e-06
4.19579e-06
4.26353e-06
4.19575e-06
4.26348e-06
4.19571e-06
4.26345e-06
4.19568e-06
4.2634e-06
4.19566e-06
4.26338e-06
4.19563e-06
4.26335e-06
4.19562e-06
4.26334e-06
4.1956e-06
4.26331e-06
4.1956e-06
4.26331e-06
4.19559e-06
4.2633e-06
4.2633e-06
4.33184e-06
4.4016e-06
4.33177e-06
4.4016e-06
4.33167e-06
4.40144e-06
4.33159e-06
4.4014e-06
4.33151e-06
4.40128e-06
4.33144e-06
4.40123e-06
4.33138e-06
4.40114e-06
4.33132e-06
4.40109e-06
4.33127e-06
4.40103e-06
4.33122e-06
4.40098e-06
4.33118e-06
4.40093e-06
4.33114e-06
4.40089e-06
4.3311e-06
4.40085e-06
4.33108e-06
4.40082e-06
4.33105e-06
4.40079e-06
4.33103e-06
4.40077e-06
4.33102e-06
4.40075e-06
4.33101e-06
4.40075e-06
4.33101e-06
4.40074e-06
4.40074e-06
4.47136e-06
4.5288e-06
4.47127e-06
4.52881e-06
4.47116e-06
4.52863e-06
4.47108e-06
4.52859e-06
4.471e-06
4.52847e-06
4.47093e-06
4.52842e-06
4.47086e-06
4.52832e-06
4.4708e-06
4.52827e-06
4.47074e-06
4.52821e-06
4.47069e-06
4.52815e-06
4.47064e-06
4.5281e-06
4.4706e-06
4.52806e-06
4.47057e-06
4.52802e-06
4.47054e-06
4.52798e-06
4.47051e-06
4.52796e-06
4.47049e-06
4.52793e-06
4.47048e-06
4.52792e-06
4.47047e-06
4.52791e-06
4.47047e-06
4.5279e-06
4.5279e-06
4.58626e-06
4.62735e-06
4.58617e-06
4.62735e-06
4.58606e-06
4.62717e-06
4.58597e-06
4.62712e-06
4.58589e-06
4.627e-06
4.58582e-06
4.62694e-06
4.58574e-06
4.62685e-06
4.58568e-06
4.62679e-06
4.58562e-06
4.62672e-06
4.58556e-06
4.62667e-06
4.58552e-06
4.62661e-06
4.58547e-06
4.62657e-06
4.58543e-06
4.62652e-06
4.5854e-06
4.62649e-06
4.58538e-06
4.62646e-06
4.58536e-06
4.62644e-06
4.58534e-06
4.62642e-06
4.58533e-06
4.62641e-06
4.58533e-06
4.6264e-06
4.6264e-06
4.66844e-06
4.69536e-06
4.66835e-06
4.69536e-06
4.66823e-06
4.69519e-06
4.66814e-06
4.69513e-06
4.66805e-06
4.69501e-06
4.66798e-06
4.69494e-06
4.6679e-06
4.69485e-06
4.66783e-06
4.69479e-06
4.66777e-06
4.69472e-06
4.66771e-06
4.69466e-06
4.66766e-06
4.6946e-06
4.66762e-06
4.69456e-06
4.66758e-06
4.69451e-06
4.66755e-06
4.69448e-06
4.66752e-06
4.69445e-06
4.6675e-06
4.69443e-06
4.66748e-06
4.69441e-06
4.66747e-06
4.69439e-06
4.66747e-06
4.69439e-06
4.69438e-06
4.72229e-06
4.73928e-06
4.7222e-06
4.73928e-06
4.72208e-06
4.7391e-06
4.72199e-06
4.73904e-06
4.7219e-06
4.73892e-06
4.72182e-06
4.73885e-06
4.72174e-06
4.73876e-06
4.72167e-06
4.73869e-06
4.72161e-06
4.73862e-06
4.72155e-06
4.73856e-06
4.7215e-06
4.73851e-06
4.72145e-06
4.73846e-06
4.72141e-06
4.73842e-06
4.72138e-06
4.73838e-06
4.72135e-06
4.73835e-06
4.72133e-06
4.73832e-06
4.72132e-06
4.7383e-06
4.72131e-06
4.73829e-06
4.7213e-06
4.73828e-06
4.73828e-06
4.75627e-06
4.76718e-06
4.75618e-06
4.76718e-06
4.75606e-06
4.767e-06
4.75596e-06
4.76694e-06
4.75587e-06
4.76682e-06
4.75579e-06
4.76675e-06
4.75571e-06
4.76666e-06
4.75564e-06
4.76659e-06
4.75558e-06
4.76652e-06
4.75552e-06
4.76646e-06
4.75547e-06
4.7664e-06
4.75542e-06
4.76635e-06
4.75538e-06
4.76631e-06
4.75534e-06
4.76627e-06
4.75532e-06
4.76624e-06
4.75529e-06
4.76622e-06
4.75528e-06
4.76619e-06
4.75527e-06
4.76618e-06
4.75526e-06
4.76618e-06
4.76617e-06
4.7781e-06
4.78571e-06
4.77801e-06
4.7857e-06
4.77788e-06
4.78552e-06
4.77779e-06
4.78546e-06
4.7777e-06
4.78533e-06
4.77762e-06
4.78527e-06
4.77754e-06
4.78517e-06
4.77747e-06
4.78511e-06
4.7774e-06
4.78503e-06
4.77734e-06
4.78497e-06
4.77729e-06
4.78492e-06
4.77724e-06
4.78487e-06
4.7772e-06
4.78482e-06
4.77716e-06
4.78479e-06
4.77714e-06
4.78475e-06
4.77712e-06
4.78473e-06
4.7771e-06
4.78471e-06
4.77709e-06
4.7847e-06
4.77708e-06
4.78469e-06
4.78469e-06
4.79331e-06
4.79935e-06
4.79322e-06
4.79935e-06
4.7931e-06
4.79916e-06
4.793e-06
4.7991e-06
4.79291e-06
4.79897e-06
4.79283e-06
4.79891e-06
4.79274e-06
4.79881e-06
4.79267e-06
4.79875e-06
4.79261e-06
4.79867e-06
4.79255e-06
4.79861e-06
4.7925e-06
4.79856e-06
4.79245e-06
4.79851e-06
4.79241e-06
4.79846e-06
4.79237e-06
4.79843e-06
4.79234e-06
4.79839e-06
4.79232e-06
4.79837e-06
4.79231e-06
4.79835e-06
4.7923e-06
4.79834e-06
4.79229e-06
4.79833e-06
4.79832e-06
4.80539e-06
4.81088e-06
4.80529e-06
4.81088e-06
4.80517e-06
4.81069e-06
4.80508e-06
4.81063e-06
4.80498e-06
4.8105e-06
4.8049e-06
4.81044e-06
4.80482e-06
4.81033e-06
4.80475e-06
4.81027e-06
4.80468e-06
4.8102e-06
4.80462e-06
4.81014e-06
4.80457e-06
4.81008e-06
4.80452e-06
4.81003e-06
4.80448e-06
4.80998e-06
4.80444e-06
4.80995e-06
4.80441e-06
4.80991e-06
4.80439e-06
4.80989e-06
4.80438e-06
4.80987e-06
4.80437e-06
4.80986e-06
4.80436e-06
4.80985e-06
4.80985e-06
4.81637e-06
4.82189e-06
4.81627e-06
4.82189e-06
4.81615e-06
4.8217e-06
4.81605e-06
4.82165e-06
4.81596e-06
4.82151e-06
4.81587e-06
4.82145e-06
4.81579e-06
4.82135e-06
4.81572e-06
4.82128e-06
4.81566e-06
4.82121e-06
4.8156e-06
4.82115e-06
4.81554e-06
4.82109e-06
4.81549e-06
4.82104e-06
4.81545e-06
4.82099e-06
4.81542e-06
4.82096e-06
4.81539e-06
4.82092e-06
4.81537e-06
4.8209e-06
4.81535e-06
4.82088e-06
4.81534e-06
4.82087e-06
4.81533e-06
4.82086e-06
4.82086e-06
4.82742e-06
4.83331e-06
4.82732e-06
4.83331e-06
4.8272e-06
4.83313e-06
4.8271e-06
4.83306e-06
4.82701e-06
4.83293e-06
4.82693e-06
4.83287e-06
4.82684e-06
4.83276e-06
4.82677e-06
4.83271e-06
4.8267e-06
4.83262e-06
4.82664e-06
4.83257e-06
4.82659e-06
4.8325e-06
4.82654e-06
4.83246e-06
4.8265e-06
4.8324e-06
4.82647e-06
4.83238e-06
4.82644e-06
4.83233e-06
4.82641e-06
4.83232e-06
4.8264e-06
4.83229e-06
4.82639e-06
4.83228e-06
4.82638e-06
4.83227e-06
4.83227e-06
4.8392e-06
4.84561e-06
4.83911e-06
4.84561e-06
4.83899e-06
4.84543e-06
4.83889e-06
4.84536e-06
4.83879e-06
4.84523e-06
4.83871e-06
4.84517e-06
4.83863e-06
4.84506e-06
4.83856e-06
4.845e-06
4.83849e-06
4.84492e-06
4.83843e-06
4.84487e-06
4.83837e-06
4.8448e-06
4.83833e-06
4.84476e-06
4.83828e-06
4.8447e-06
4.83825e-06
4.84468e-06
4.83822e-06
4.84463e-06
4.8382e-06
4.84462e-06
4.83818e-06
4.84459e-06
4.83817e-06
4.84458e-06
4.83816e-06
4.84457e-06
4.84457e-06
4.85202e-06
4.8589e-06
4.85193e-06
4.85889e-06
4.8518e-06
4.85871e-06
4.85171e-06
4.85864e-06
4.85161e-06
4.85851e-06
4.85152e-06
4.85845e-06
4.85144e-06
4.85835e-06
4.85137e-06
4.85828e-06
4.8513e-06
4.8582e-06
4.85124e-06
4.85815e-06
4.85119e-06
4.85808e-06
4.85114e-06
4.85804e-06
4.8511e-06
4.85798e-06
4.85106e-06
4.85795e-06
4.85103e-06
4.85791e-06
4.85101e-06
4.85789e-06
4.85099e-06
4.85787e-06
4.85098e-06
4.85786e-06
4.85098e-06
4.85785e-06
4.85785e-06
4.86577e-06
4.8728e-06
4.86568e-06
4.8728e-06
4.86555e-06
4.87261e-06
4.86545e-06
4.87255e-06
4.86536e-06
4.87241e-06
4.86527e-06
4.87235e-06
4.86519e-06
4.87225e-06
4.86512e-06
4.87218e-06
4.86505e-06
4.8721e-06
4.86499e-06
4.87205e-06
4.86493e-06
4.87198e-06
4.86488e-06
4.87194e-06
4.86484e-06
4.87188e-06
4.86481e-06
4.87185e-06
4.86478e-06
4.87181e-06
4.86475e-06
4.87179e-06
4.86474e-06
4.87177e-06
4.86473e-06
4.87176e-06
4.86472e-06
4.87175e-06
4.87175e-06
4.87983e-06
4.88638e-06
4.87974e-06
4.88638e-06
4.87961e-06
4.88619e-06
4.87951e-06
4.88613e-06
4.87941e-06
4.88598e-06
4.87933e-06
4.88593e-06
4.87924e-06
4.88582e-06
4.87917e-06
4.88576e-06
4.8791e-06
4.88567e-06
4.87904e-06
4.88562e-06
4.87899e-06
4.88555e-06
4.87894e-06
4.88551e-06
4.8789e-06
4.88545e-06
4.87886e-06
4.88542e-06
4.87883e-06
4.88538e-06
4.87881e-06
4.88536e-06
4.87879e-06
4.88534e-06
4.87878e-06
4.88533e-06
4.87877e-06
4.88532e-06
4.88532e-06
4.89293e-06
4.89808e-06
4.89283e-06
4.89808e-06
4.8927e-06
4.89789e-06
4.8926e-06
4.89783e-06
4.8925e-06
4.89769e-06
4.89242e-06
4.89764e-06
4.89233e-06
4.89752e-06
4.89226e-06
4.89747e-06
4.89219e-06
4.89738e-06
4.89213e-06
4.89734e-06
4.89208e-06
4.89726e-06
4.89203e-06
4.89723e-06
4.89198e-06
4.89716e-06
4.89195e-06
4.89714e-06
4.89192e-06
4.89709e-06
4.8919e-06
4.89708e-06
4.89188e-06
4.89705e-06
4.89187e-06
4.89704e-06
4.89186e-06
4.89703e-06
4.89703e-06
4.90324e-06
4.9056e-06
4.90315e-06
4.9056e-06
4.90302e-06
4.90551e-06
4.90293e-06
4.90548e-06
4.90283e-06
4.90541e-06
4.90275e-06
4.90538e-06
4.90266e-06
4.90533e-06
4.90259e-06
4.90529e-06
4.90253e-06
4.90525e-06
4.90246e-06
4.90523e-06
4.90241e-06
4.90519e-06
4.90236e-06
4.90517e-06
4.90232e-06
4.90514e-06
4.90229e-06
4.90513e-06
4.90225e-06
4.90511e-06
4.90223e-06
4.9051e-06
4.90221e-06
4.90508e-06
4.90221e-06
4.90508e-06
4.9022e-06
4.90508e-06
4.90507e-06
4.90797e-06
4.90796e-06
4.90796e-06
4.90796e-06
4.90796e-06
4.90796e-06
4.90796e-06
4.90795e-06
4.90795e-06
4.90795e-06
4.90795e-06
4.90795e-06
4.90795e-06
4.90795e-06
4.90795e-06
4.90795e-06
4.90795e-06
4.90795e-06
4.90795e-06
)
;

boundaryField
{
    movingWall
    {
        type            calculated;
        value           nonuniform List<scalar> 
20
(
4.90797e-06
4.90796e-06
4.90796e-06
4.90796e-06
4.90796e-06
4.90796e-06
4.90795e-06
4.90796e-06
4.90795e-06
4.90796e-06
4.90795e-06
4.90795e-06
4.90795e-06
4.90795e-06
4.90795e-06
4.90795e-06
4.90795e-06
4.90795e-06
4.90795e-06
4.90795e-06
)
;
    }
    fixedWalls
    {
        type            calculated;
        value           nonuniform List<scalar> 
60
(
4.10937e-06
4.19636e-06
4.33184e-06
4.47135e-06
4.58626e-06
4.66844e-06
4.72229e-06
4.75627e-06
4.7781e-06
4.79331e-06
4.80539e-06
4.81637e-06
4.82742e-06
4.8392e-06
4.85202e-06
4.86577e-06
4.87983e-06
4.89293e-06
4.90324e-06
4.90797e-06
4.10936e-06
4.19559e-06
4.33101e-06
4.47046e-06
4.58533e-06
4.66747e-06
4.7213e-06
4.75526e-06
4.77708e-06
4.79229e-06
4.80436e-06
4.81533e-06
4.82638e-06
4.83816e-06
4.85097e-06
4.86472e-06
4.87877e-06
4.89186e-06
4.9022e-06
4.90795e-06
4.10937e-06
4.10937e-06
4.10937e-06
4.10937e-06
4.10937e-06
4.10937e-06
4.10936e-06
4.10937e-06
4.10936e-06
4.10936e-06
4.10936e-06
4.10936e-06
4.10936e-06
4.10936e-06
4.10936e-06
4.10936e-06
4.10936e-06
4.10936e-06
4.10936e-06
4.10936e-06
)
;
    }
    frontAndBack
    {
        type            empty;
        value           nonuniform List<scalar> 0();
    }
}


// ************************************************************************* //
