/*--------------------------------*- C++ -*----------------------------------*\
| =========                 |                                                 |
| \\      /  F ield         | OpenFOAM: The Open Source CFD Toolbox           |
|  \\    /   O peration     | Version:  2312                                  |
|   \\  /    A nd           | Website:  www.openfoam.com                      |
|    \\/     M anipulation  |                                                 |
\*---------------------------------------------------------------------------*/
FoamFile
{
    version     2.0;
    format      ascii;
    arch        "LSB;label=32;scalar=64";
    class       surfaceScalarField;
    location    "8";
    object      surfaceP;
}
// * * * * * * * * * * * * * * * * * * * * * * * * * * * * * * * * * * * * * //

dimensions      [0 2 -2 0 0 0 0];

internalField   nonuniform List<scalar> 
760
(
1.27654e-15
1.12152e-15
1.93155e-15
1.2836e-15
1.79511e-15
1.81787e-15
1.92155e-15
1.90547e-15
2.10281e-15
2.08673e-15
2.38349e-15
2.2908e-15
2.49409e-15
2.43336e-15
2.49718e-15
2.43614e-15
2.62549e-15
2.47591e-15
2.63488e-15
2.67726e-15
2.5667e-15
2.6278e-15
2.73078e-15
2.67145e-15
2.87221e-15
2.82713e-15
2.7687e-15
2.83981e-15
2.64435e-15
2.66894e-15
2.49007e-15
2.67461e-15
2.43238e-15
2.35616e-15
2.6303e-15
2.55531e-15
2.75563e-15
2.70262e-15
2.61406e-15
1.12859e-15
2.00355e-15
1.16992e-15
9.32152e-16
1.92824e-15
1.94369e-15
2.07065e-15
1.9696e-15
2.27472e-15
2.21809e-15
2.34066e-15
2.33621e-15
2.37541e-15
2.37218e-15
2.41487e-15
2.44394e-15
2.52768e-15
2.43143e-15
2.67017e-15
2.73878e-15
2.73255e-15
2.71666e-15
2.76781e-15
2.72039e-15
2.79474e-15
2.72328e-15
2.74006e-15
2.83704e-15
2.69919e-15
2.68879e-15
2.5407e-15
2.67686e-15
2.4791e-15
2.33243e-15
2.62763e-15
2.46164e-15
2.56105e-15
2.57233e-15
2.52278e-15
1.80711e-15
1.97799e-15
1.70592e-15
1.94068e-15
1.98505e-15
2.02571e-15
2.11705e-15
2.10438e-15
2.27958e-15
2.20964e-15
2.36772e-15
2.34556e-15
2.4407e-15
2.44769e-15
2.4605e-15
2.48377e-15
2.64253e-15
2.4898e-15
2.78526e-15
2.74827e-15
2.70449e-15
2.68341e-15
2.67586e-15
2.72353e-15
2.76558e-15
2.75504e-15
2.78578e-15
2.79545e-15
2.66646e-15
2.62838e-15
2.46859e-15
2.55278e-15
2.31498e-15
2.26992e-15
2.40634e-15
2.23192e-15
2.53406e-15
2.43973e-15
2.65449e-15
2.11155e-15
1.91197e-15
2.26047e-15
2.50617e-15
2.14504e-15
2.14743e-15
2.19698e-15
2.17144e-15
2.27562e-15
2.23238e-15
2.42553e-15
2.3821e-15
2.49075e-15
2.54323e-15
2.51308e-15
2.48266e-15
2.59554e-15
2.57096e-15
2.64642e-15
2.64188e-15
2.70245e-15
2.66992e-15
2.80272e-15
2.70341e-15
2.78491e-15
2.76802e-15
2.63805e-15
2.73813e-15
2.5147e-15
2.5605e-15
2.3541e-15
2.37533e-15
2.18686e-15
2.21903e-15
2.2653e-15
2.15901e-15
2.56016e-15
2.33222e-15
2.72856e-15
2.30659e-15
2.15277e-15
2.39313e-15
1.89182e-15
2.17383e-15
2.27328e-15
2.20684e-15
2.10526e-15
2.33887e-15
2.35153e-15
2.49981e-15
2.47405e-15
2.53514e-15
2.59043e-15
2.54054e-15
2.52265e-15
2.6173e-15
2.62818e-15
2.66538e-15
2.59207e-15
2.67088e-15
2.6625e-15
2.66872e-15
2.6049e-15
2.72125e-15
2.65496e-15
2.66059e-15
2.67995e-15
2.42113e-15
2.53941e-15
2.24026e-15
2.30215e-15
2.19118e-15
2.24337e-15
2.22593e-15
2.09576e-15
2.50062e-15
2.19318e-15
2.65413e-15
1.738e-15
2.17874e-15
1.77197e-15
2.50923e-15
2.20471e-15
2.26214e-15
2.24995e-15
2.14226e-15
2.48671e-15
2.43931e-15
2.56467e-15
2.54087e-15
2.57795e-15
2.61022e-15
2.61029e-15
2.59e-15
2.60295e-15
2.58731e-15
2.58918e-15
2.53763e-15
2.59651e-15
2.57923e-15
2.59113e-15
2.53987e-15
2.61365e-15
2.51372e-15
2.55876e-15
2.4842e-15
2.42043e-15
2.41281e-15
2.30527e-15
2.36192e-15
2.14796e-15
2.27446e-15
2.06302e-15
2.03897e-15
2.34669e-15
2.09708e-15
2.49584e-15
2.94997e-15
2.2303e-15
2.9994e-15
2.22251e-15
2.1997e-15
2.29541e-15
2.33162e-15
2.1399e-15
2.49347e-15
2.37996e-15
2.58642e-15
2.49051e-15
2.62227e-15
2.6636e-15
2.56702e-15
2.65235e-15
2.522e-15
2.49925e-15
2.52768e-15
2.50612e-15
2.52258e-15
2.59442e-15
2.46246e-15
2.58431e-15
2.38427e-15
2.37108e-15
2.33825e-15
2.27354e-15
2.35431e-15
2.28203e-15
2.33111e-15
2.3164e-15
2.16547e-15
2.2016e-15
2.07302e-15
2.01705e-15
2.24622e-15
2.15039e-15
2.32773e-15
1.50285e-15
2.15074e-15
1.51852e-15
1.76095e-15
2.23561e-15
2.24032e-15
2.18823e-15
2.13389e-15
2.37699e-15
2.25804e-15
2.56769e-15
2.41217e-15
2.69368e-15
2.58057e-15
2.58458e-15
2.57316e-15
2.48337e-15
2.51974e-15
2.57286e-15
2.41516e-15
2.65615e-15
2.4735e-15
2.49293e-15
2.50532e-15
2.26036e-15
2.32059e-15
2.21733e-15
2.21814e-15
2.24413e-15
2.19358e-15
2.18689e-15
2.22653e-15
2.05318e-15
2.16672e-15
2.09442e-15
2.03691e-15
2.2319e-15
2.13718e-15
2.20079e-15
2.40884e-15
1.74772e-15
2.48274e-15
2.70023e-15
2.13859e-15
2.04268e-15
2.20369e-15
2.14287e-15
2.29322e-15
2.1628e-15
2.42505e-15
2.28208e-15
2.46006e-15
2.32431e-15
2.50832e-15
2.32848e-15
2.45153e-15
2.4376e-15
2.3158e-15
2.24255e-15
2.32266e-15
2.30198e-15
2.33298e-15
2.3154e-15
2.27837e-15
2.29441e-15
2.19439e-15
2.25312e-15
2.17598e-15
2.16499e-15
2.20636e-15
2.24716e-15
2.15045e-15
2.17003e-15
2.07967e-15
2.04611e-15
2.10607e-15
1.96037e-15
2.13749e-15
2.0391e-15
1.72467e-15
2.26016e-15
1.92579e-15
2.04696e-15
2.0423e-15
2.10198e-15
2.0027e-15
2.15166e-15
2.0454e-15
2.18133e-15
2.10343e-15
2.19273e-15
2.13475e-15
2.25776e-15
2.11388e-15
2.22863e-15
2.23785e-15
2.22873e-15
2.21926e-15
2.29471e-15
2.28879e-15
2.27683e-15
2.23959e-15
2.26916e-15
2.21133e-15
2.22373e-15
2.19242e-15
2.23617e-15
2.15788e-15
2.21084e-15
2.26595e-15
2.06569e-15
2.2173e-15
1.9268e-15
2.00418e-15
1.99179e-15
1.88036e-15
2.11514e-15
1.61136e-15
2.02992e-15
1.70792e-15
1.70982e-15
1.99804e-15
1.88096e-15
1.94612e-15
1.85666e-15
1.99717e-15
1.91148e-15
2.05685e-15
2.00371e-15
2.0559e-15
2.04679e-15
2.09397e-15
1.9464e-15
2.22848e-15
2.10454e-15
2.27931e-15
2.29007e-15
2.23366e-15
2.33809e-15
2.17408e-15
2.22155e-15
2.13459e-15
2.13366e-15
2.12657e-15
2.12861e-15
2.18766e-15
2.12996e-15
2.27241e-15
2.23043e-15
2.15579e-15
2.23765e-15
1.95773e-15
2.15577e-15
2.00371e-15
1.93036e-15
2.05518e-15
2.12838e-15
2.0963e-15
1.88285e-15
1.44057e-15
1.73957e-15
1.73691e-15
1.82202e-15
1.68934e-15
1.91803e-15
1.81434e-15
1.99365e-15
1.89992e-15
1.9373e-15
1.93807e-15
1.95698e-15
1.85331e-15
2.16614e-15
2.03835e-15
2.34885e-15
2.24107e-15
2.32597e-15
2.385e-15
2.18112e-15
2.19515e-15
2.12768e-15
2.17139e-15
2.132e-15
2.17009e-15
2.17273e-15
2.11469e-15
2.19566e-15
2.20054e-15
2.23763e-15
2.1851e-15
2.12839e-15
2.2739e-15
1.98183e-15
2.04897e-15
1.98384e-15
1.40849e-15
1.76513e-15
1.29463e-15
1.71047e-15
1.68668e-15
1.71346e-15
1.68167e-15
1.63828e-15
1.79623e-15
1.71107e-15
1.84434e-15
1.79377e-15
1.85409e-15
1.84121e-15
1.93468e-15
1.89753e-15
2.11328e-15
1.97499e-15
2.27723e-15
2.14496e-15
2.25418e-15
2.33505e-15
2.18541e-15
2.20475e-15
2.21379e-15
2.18138e-15
2.15278e-15
2.19033e-15
2.1425e-15
2.08072e-15
2.18998e-15
2.13353e-15
2.22136e-15
2.14203e-15
2.19447e-15
2.169e-15
2.05098e-15
2.15995e-15
2.11984e-15
2.0671e-15
1.47503e-15
2.1293e-15
1.71652e-15
1.66506e-15
1.69798e-15
1.66768e-15
1.70367e-15
1.70861e-15
1.67744e-15
1.79063e-15
1.76155e-15
1.88465e-15
1.74439e-15
1.93784e-15
1.94119e-15
2.00667e-15
1.93166e-15
2.20278e-15
2.07322e-15
2.28562e-15
2.21496e-15
2.20072e-15
2.20036e-15
2.15792e-15
2.10843e-15
2.11828e-15
2.13924e-15
2.07175e-15
2.15977e-15
2.08558e-15
2.10074e-15
2.08967e-15
1.99114e-15
2.13447e-15
2.04211e-15
2.2288e-15
2.14456e-15
2.35197e-15
1.12445e-15
1.3459e-15
1.2852e-15
8.13852e-16
1.73659e-15
1.6781e-15
1.71343e-15
1.79741e-15
1.73038e-15
1.68677e-15
1.71531e-15
1.78844e-15
1.80093e-15
1.71767e-15
1.935e-15
1.8647e-15
1.99821e-15
1.8845e-15
2.08539e-15
2.03714e-15
2.1297e-15
2.12497e-15
2.10807e-15
2.11113e-15
2.08976e-15
2.0008e-15
2.18073e-15
2.03793e-15
2.18875e-15
2.1981e-15
2.00629e-15
2.12234e-15
1.94358e-15
1.98672e-15
2.05219e-15
2.02072e-15
2.26773e-15
2.09737e-15
2.38285e-15
1.0353e-15
1.00021e-15
1.20676e-15
1.48531e-15
1.73892e-15
1.59603e-15
1.77075e-15
1.80817e-15
1.74483e-15
1.59755e-15
1.7908e-15
1.75634e-15
1.78144e-15
1.74642e-15
1.81419e-15
1.78962e-15
1.92343e-15
1.83652e-15
2.07672e-15
2.01189e-15
2.10639e-15
2.15201e-15
2.00385e-15
2.11392e-15
1.94897e-15
1.94222e-15
2.0553e-15
1.91088e-15
2.1317e-15
2.0409e-15
2.10277e-15
2.06599e-15
2.06386e-15
2.02654e-15
2.0659e-15
1.94005e-15
2.21248e-15
2.11903e-15
2.29057e-15
1.45022e-15
1.11184e-15
1.87458e-15
1.47639e-15
1.66528e-15
1.37775e-15
1.63496e-15
1.5943e-15
1.60906e-15
1.49654e-15
1.71196e-15
1.66935e-15
1.7546e-15
1.72917e-15
1.81196e-15
1.76117e-15
1.92498e-15
1.82633e-15
2.08718e-15
1.93245e-15
2.15954e-15
2.22932e-15
2.0523e-15
2.18637e-15
1.90413e-15
1.9383e-15
1.89649e-15
1.79977e-15
1.9752e-15
1.85966e-15
1.98976e-15
1.88316e-15
1.90273e-15
1.97247e-15
1.99319e-15
1.7994e-15
2.19712e-15
2.13543e-15
2.23364e-15
1.13801e-15
1.49741e-15
9.79559e-16
5.62441e-16
1.30677e-15
1.19664e-15
1.45588e-15
1.35058e-15
1.55683e-15
1.51238e-15
1.68656e-15
1.67711e-15
1.73574e-15
1.73302e-15
1.77555e-15
1.70334e-15
1.83381e-15
1.75715e-15
2.07459e-15
1.93739e-15
2.25615e-15
2.23277e-15
2.07237e-15
2.12803e-15
1.83393e-15
1.87369e-15
1.76294e-15
1.74108e-15
1.76762e-15
1.74231e-15
1.86587e-15
1.67323e-15
1.86914e-15
1.84937e-15
1.94164e-15
1.77796e-15
2.17195e-15
2.16154e-15
2.27496e-15
9.21846e-16
1.07849e-15
7.79519e-16
1.18962e-15
1.24045e-15
1.22531e-15
1.40709e-15
1.37021e-15
1.63267e-15
1.63505e-15
1.72358e-15
1.75755e-15
1.70062e-15
1.74254e-15
1.68494e-15
1.66787e-15
1.86073e-15
1.80555e-15
2.09557e-15
2.02592e-15
2.10465e-15
2.06018e-15
1.92935e-15
1.94972e-15
1.78084e-15
1.87262e-15
1.72044e-15
1.75258e-15
1.64792e-15
1.6909e-15
1.65674e-15
1.56133e-15
1.75819e-15
1.67364e-15
1.99786e-15
1.83067e-15
2.26455e-15
2.20535e-15
2.29347e-15
1.34626e-15
1.63541e-15
1.35507e-15
1.59817e-15
1.75993e-15
1.77651e-15
1.70978e-15
1.78847e-15
1.97073e-15
1.99053e-15
1.90525e-15
1.893e-15
1.84437e-15
1.72304e-15
1.60432e-15
1.57823e-15
1.74611e-15
2.03816e-15
2.23427e-15
)
;

boundaryField
{
    movingWall
    {
        type            calculated;
        value           nonuniform List<scalar> 
20
(
6.45297e-16
2.04722e-15
1.22359e-15
1.48655e-15
1.70979e-15
1.81007e-15
1.74294e-15
1.67662e-15
1.90032e-15
2.04114e-15
1.93992e-15
1.87059e-15
1.91541e-15
1.77333e-15
1.67276e-15
1.53588e-15
1.62058e-15
1.87164e-15
2.20467e-15
2.26387e-15
)
;
    }
    fixedWalls
    {
        type            calculated;
        value           nonuniform List<scalar> 
60
(
4.00563e-16
1.84249e-15
2.16462e-15
1.79135e-15
2.0326e-15
2.27294e-15
2.08455e-15
2.37606e-15
1.92542e-15
1.57002e-15
1.87933e-15
2.1805e-15
2.0121e-15
1.51816e-15
1.43191e-15
1.25989e-15
7.4054e-16
1.48314e-15
1.51168e-15
6.45297e-16
2.753e-15
2.47512e-15
2.57044e-15
2.73855e-15
2.71857e-15
2.58969e-15
2.40199e-15
2.25347e-15
2.14811e-15
2.12687e-15
2.10341e-15
2.00694e-15
1.96073e-15
2.27895e-15
2.425e-15
2.3407e-15
2.24044e-15
2.22684e-15
2.32307e-15
2.26387e-15
4.00563e-16
2.15251e-15
1.7106e-15
1.87962e-15
1.96349e-15
2.24212e-15
2.52486e-15
2.46332e-15
2.53105e-15
2.71994e-15
2.54983e-15
2.58357e-15
2.87799e-15
2.86642e-15
2.67097e-15
2.61774e-15
2.36241e-15
2.50235e-15
2.75826e-15
2.753e-15
)
;
    }
    frontAndBack
    {
        type            empty;
        value           nonuniform List<scalar> 0();
    }
}


// ************************************************************************* //
