/*--------------------------------*- C++ -*----------------------------------*\
| =========                 |                                                 |
| \\      /  F ield         | OpenFOAM: The Open Source CFD Toolbox           |
|  \\    /   O peration     | Version:  2312                                  |
|   \\  /    A nd           | Website:  www.openfoam.com                      |
|    \\/     M anipulation  |                                                 |
\*---------------------------------------------------------------------------*/
FoamFile
{
    version     2.0;
    format      ascii;
    arch        "LSB;label=32;scalar=64";
    class       surfaceScalarField;
    location    "8";
    object      surfaceDivU;
}
// * * * * * * * * * * * * * * * * * * * * * * * * * * * * * * * * * * * * * //

dimensions      [0 0 -1 0 0 0 0];

internalField   nonuniform List<scalar> 
760
(
1.633e-12
-6.36969e-13
-2.67684e-13
2.60447e-13
4.58213e-14
-3.85123e-14
-1.00583e-15
-4.86381e-15
1.85256e-14
1.96693e-14
-2.40643e-14
-2.46307e-14
-2.80187e-15
4.29767e-15
1.06972e-14
-7.29647e-15
-1.9675e-14
1.93965e-14
-1.15984e-14
-2.02374e-14
1.39159e-14
5.30134e-15
8.55856e-16
3.62544e-15
-3.86966e-16
-8.60461e-16
7.23281e-15
8.81596e-16
-1.40734e-15
3.58483e-14
-1.37697e-14
-3.68601e-14
5.78124e-15
2.55787e-14
-1.41467e-16
-1.20049e-14
-1.35796e-14
-2.08743e-14
2.71051e-14
-2.00952e-12
-3.52366e-12
4.89619e-13
7.33883e-13
-8.91975e-14
-1.68871e-13
1.58113e-14
5.8954e-14
-2.3487e-14
-4.38111e-15
3.73127e-15
-1.3982e-14
-1.96918e-16
1.67264e-14
1.40285e-15
-2.18714e-14
1.88341e-14
3.9235e-14
-3.33766e-15
-2.48935e-14
-4.98916e-15
-2.23843e-14
1.90913e-15
8.52782e-15
4.08102e-16
2.61095e-14
2.94971e-14
-2.55798e-14
3.95565e-16
2.48116e-14
2.48831e-15
-3.44915e-14
7.79257e-15
4.83375e-14
-3.27377e-14
-7.53391e-16
1.98104e-14
-3.37139e-15
1.35525e-14
-7.80255e-13
9.08019e-13
7.5393e-14
5.17832e-15
-2.07195e-14
-1.02412e-14
3.87616e-14
2.9061e-14
5.12391e-15
-1.10046e-14
-9.86848e-16
8.99843e-15
-4.94802e-15
-1.21079e-14
1.59608e-14
-2.16722e-14
-4.49262e-15
1.91321e-14
-4.39402e-14
-2.13227e-14
-8.86736e-15
-2.9847e-16
3.27282e-14
-2.96144e-16
1.21592e-16
1.14331e-15
-3.02652e-14
-1.83405e-14
-1.00754e-14
1.17294e-14
1.13577e-14
-2.59847e-14
3.97915e-14
1.29864e-14
2.86129e-14
2.39983e-14
-9.62923e-15
2.90182e-14
-2.71051e-14
1.69345e-12
1.63986e-12
-8.04558e-14
-4.20944e-13
3.95393e-14
1.00619e-13
-2.07052e-14
-2.34481e-14
-7.13004e-15
-1.46412e-15
-2.12262e-15
6.63665e-16
-2.88321e-14
-8.97113e-15
-1.85008e-14
-1.51636e-15
2.30203e-15
-8.5406e-15
2.2319e-14
7.25889e-15
8.27274e-15
4.79439e-15
-3.1881e-14
2.39166e-15
-1.73188e-14
-1.5044e-14
2.36541e-14
7.58676e-15
-4.17991e-15
1.00563e-14
-2.4356e-14
-8.16326e-15
-2.80683e-15
4.93511e-15
2.44037e-14
-1.10718e-14
1.15424e-14
4.28134e-14
-2.71051e-14
-4.74541e-13
-1.55854e-12
-2.39869e-13
3.51606e-13
3.76318e-14
-4.55918e-14
-4.20708e-15
2.67848e-14
6.32959e-15
2.73074e-15
-6.18484e-15
-7.83377e-15
1.83446e-14
2.83775e-15
8.44388e-15
1.4986e-14
-3.58374e-15
-2.01774e-14
-1.02657e-14
1.54065e-14
-1.08669e-15
-1.79324e-14
1.92286e-14
1.73277e-14
9.86155e-15
-5.50552e-15
-6.01102e-15
1.35697e-14
6.07296e-15
-1.12188e-14
2.11279e-14
3.8121e-15
-3.32985e-15
-2.04828e-14
7.3379e-15
1.91867e-14
4.16591e-15
3.49644e-14
-1.35525e-14
-7.32394e-13
1.6263e-12
5.45883e-13
-2.81573e-13
-5.64387e-14
8.28918e-14
3.37226e-14
-3.23693e-14
-1.14326e-14
1.02479e-14
1.18882e-15
-3.17388e-16
-5.20894e-16
-4.11538e-15
-1.36354e-14
3.7664e-16
-1.1872e-15
-5.16083e-15
7.73984e-15
1.54906e-14
4.82047e-16
-5.74306e-15
-7.40641e-15
1.62939e-14
-1.79736e-15
-1.40616e-14
8.36195e-15
9.09785e-15
-1.34796e-14
-3.85815e-16
-3.77985e-14
-8.8134e-15
2.03379e-15
-3.6682e-14
4.68132e-14
1.93438e-14
1.7246e-14
3.54197e-14
-1.35525e-14
2.07712e-12
2.84603e-13
-7.44564e-13
2.65433e-14
1.06961e-13
-9.02129e-15
-5.5844e-14
1.13331e-14
2.13631e-14
-8.02993e-15
-5.62159e-15
1.24578e-14
-3.21785e-15
-8.70918e-15
8.85117e-15
-1.94788e-14
1.15169e-14
3.25826e-14
2.00766e-15
1.19447e-14
1.00687e-14
-2.80553e-14
9.63863e-15
-1.25553e-14
-3.16644e-15
1.33353e-14
3.50084e-16
-2.00823e-14
4.28042e-15
2.47896e-15
-7.69687e-15
-3.6614e-16
-1.9372e-14
1.2579e-15
7.95022e-15
2.13088e-14
4.62116e-15
2.88467e-14
-2.71051e-14
-1.76598e-12
-3.18484e-12
7.62086e-13
4.85823e-13
-1.04649e-13
-1.3152e-13
5.91472e-14
4.55869e-14
-1.69352e-14
-1.04174e-14
9.37025e-15
9.34302e-15
-2.49701e-14
-1.9107e-14
4.25264e-15
-1.58907e-14
3.30103e-14
-2.01306e-14
-1.81182e-14
6.36972e-15
-5.06793e-14
3.02068e-15
-8.85857e-15
-6.70668e-15
-3.58051e-15
1.58471e-14
-1.79534e-14
-3.36888e-14
-2.16761e-15
1.62343e-14
8.58863e-15
2.27947e-16
4.19388e-14
-2.85328e-15
4.22053e-14
2.42218e-14
-2.87948e-15
7.21007e-15
-1.35525e-14
-9.33043e-13
1.87025e-12
-4.07784e-13
-7.1219e-13
1.87164e-14
1.21555e-13
-2.39777e-14
-4.12772e-14
1.58608e-14
9.04063e-15
-1.91343e-14
-1.20389e-14
-1.00277e-14
-4.44596e-15
-4.0274e-14
7.7862e-15
-4.67712e-14
-4.22158e-14
2.75086e-14
1.8447e-14
4.69933e-14
1.78661e-14
1.7999e-14
3.81099e-15
-1.42611e-14
-2.34284e-15
4.98934e-16
-2.45541e-14
1.86299e-14
2.20692e-14
-1.1214e-14
-1.51171e-14
-2.05702e-14
-4.08658e-15
-1.07735e-14
2.35384e-14
-3.46298e-15
-1.33989e-14
0
2.0911e-12
1.55854e-12
-1.82852e-13
9.1397e-14
6.15617e-14
-7.73234e-15
-8.25887e-15
2.22611e-14
-1.8859e-14
-7.14938e-15
2.64944e-15
-7.99268e-15
1.33679e-14
-7.55476e-15
5.84434e-15
7.61213e-15
2.30024e-14
4.19136e-15
8.80451e-15
4.25416e-15
-2.53161e-14
-2.28262e-14
-1.65309e-14
-5.0406e-15
-1.26358e-14
6.09123e-15
-2.98387e-15
1.2356e-15
-1.16778e-14
1.54993e-14
-7.98968e-15
-1.80664e-14
4.00221e-14
-2.10729e-14
2.0913e-14
4.5086e-14
-9.93591e-15
2.9966e-15
-2.71051e-14
-4.41164e-13
-1.12486e-12
2.66516e-13
6.83934e-14
-4.70329e-14
6.2391e-15
2.33706e-14
-9.59188e-15
3.71698e-15
2.03741e-14
-1.81969e-14
-2.10493e-14
-1.33105e-14
-2.17327e-14
5.95915e-15
2.70837e-14
-1.45569e-14
1.83651e-14
-2.73766e-14
-2.60303e-14
-2.55066e-15
7.8679e-15
1.75815e-14
-6.44095e-15
1.99627e-14
-1.92381e-14
1.97188e-14
1.04201e-14
9.1107e-15
1.2294e-14
-3.11496e-14
-4.94764e-15
-1.6009e-14
-1.27387e-14
2.71696e-14
-1.38002e-14
-1.41725e-14
3.23317e-14
-2.71051e-14
-6.15302e-13
-8.67362e-13
-1.91884e-13
2.86154e-13
4.36802e-14
-2.98871e-14
-1.25884e-14
2.14907e-14
-4.39224e-15
-8.83163e-15
-2.45852e-14
-2.51829e-14
1.86615e-14
-1.35682e-14
3.94897e-14
4.07517e-14
6.89176e-15
1.01646e-14
9.2142e-15
-3.71776e-15
3.97761e-15
2.94618e-15
-4.32606e-14
8.86868e-15
-2.87806e-14
-4.11454e-14
2.99539e-15
-9.20699e-15
-1.76432e-15
7.6882e-15
1.34633e-14
-1.22822e-14
-1.05299e-14
1.86775e-14
-8.63806e-15
-3.22509e-14
1.93992e-14
2.15141e-14
1.35525e-14
3.40946e-14
7.86047e-13
4.48151e-13
-2.60752e-14
-5.20766e-14
7.39114e-15
2.52475e-14
-6.1176e-15
-2.96223e-14
-3.82872e-15
-1.41659e-14
-1.984e-14
8.52195e-15
-6.07802e-15
1.14266e-14
-7.85898e-16
-4.4488e-16
1.56799e-14
-9.98578e-15
1.47654e-14
7.83724e-15
-3.12677e-14
1.09838e-14
7.44542e-15
-2.15718e-14
3.60457e-16
-4.51418e-15
-1.26557e-14
-2.82968e-15
3.93395e-14
-7.06801e-15
3.12785e-15
-3.04356e-15
-3.16192e-16
-2.09879e-15
-9.08793e-15
1.56674e-14
-2.52911e-15
1.35525e-14
7.25877e-13
1.35525e-13
-4.66835e-13
-2.12107e-13
5.33501e-14
4.85238e-14
-3.51938e-14
-3.38299e-14
5.95357e-15
2.13039e-14
-1.17521e-14
-1.80875e-14
-1.53859e-14
2.95725e-14
3.46743e-15
-2.88884e-14
3.08902e-14
5.06311e-15
-6.51657e-15
-7.10146e-15
-3.16595e-14
-7.70914e-15
-3.17796e-15
-1.09748e-14
9.27653e-15
1.74843e-14
3.11979e-14
-1.08588e-14
4.5297e-14
-1.03754e-14
9.87967e-15
-1.10465e-14
-6.36057e-15
3.37963e-14
-9.51825e-15
-4.37944e-15
-4.64394e-15
9.40831e-15
-1.35525e-14
-8.02459e-13
-1.54499e-12
3.03251e-13
5.42665e-13
-3.86562e-14
-1.12785e-13
2.26678e-14
2.85424e-14
-2.7372e-15
3.08405e-14
2.32371e-14
-1.98965e-14
1.607e-14
1.45724e-14
-2.72927e-14
-5.37408e-15
-3.29285e-14
1.98792e-15
-8.29403e-15
-1.59334e-14
1.29756e-14
3.13929e-15
9.68749e-15
3.11777e-16
-2.65096e-15
2.36712e-14
-5.24321e-14
5.05447e-15
-6.67189e-14
-4.77181e-14
1.28701e-14
-5.36621e-15
3.57774e-14
2.27253e-14
1.45471e-14
-8.30254e-15
4.9973e-16
2.64112e-14
-2.71051e-14
-1.99864e-13
2.04643e-12
1.26629e-13
-3.07985e-13
-4.55866e-14
4.17072e-14
3.6715e-14
-4.89823e-14
1.36811e-14
5.34957e-14
-2.85612e-14
-2.98705e-14
-6.87166e-15
-1.26556e-14
2.39066e-14
-4.01493e-15
1.89831e-14
3.44453e-14
-4.50007e-15
-4.30218e-15
-9.52454e-15
-1.80797e-14
1.42955e-14
-8.5789e-15
3.13767e-14
2.56494e-14
9.76839e-15
1.5782e-14
1.36345e-14
-9.80597e-15
4.48897e-15
-4.21369e-15
-2.13546e-14
-9.74972e-15
3.56153e-15
1.55335e-14
-1.19359e-15
8.98793e-15
-1.35525e-14
1.93831e-12
7.58942e-13
-3.92906e-13
-2.93774e-13
3.83115e-14
6.27464e-14
-3.22016e-14
-4.6439e-14
9.94412e-15
3.8213e-14
-1.39648e-14
-1.54903e-14
-9.79883e-15
-8.65851e-16
6.52384e-15
-7.85594e-15
1.11601e-14
1.51714e-14
-1.78818e-14
-7.30716e-16
-1.7134e-14
7.13534e-16
2.77495e-15
-1.22438e-14
1.00547e-14
-3.23749e-14
-3.79239e-15
1.79548e-14
-2.76541e-14
-1.09138e-14
-1.84524e-14
4.39988e-15
2.71384e-14
-2.41557e-14
2.09599e-14
1.37496e-14
-3.37101e-15
1.70933e-14
0
-1.47314e-12
-3.86247e-12
1.61879e-13
5.46517e-13
-2.20041e-14
-1.32935e-13
2.39755e-14
4.26699e-14
1.27786e-14
2.97403e-14
-2.39126e-15
-9.43818e-15
1.07705e-15
-7.39804e-15
7.91593e-16
1.45979e-14
3.28059e-15
-6.50877e-15
1.78646e-14
3.32664e-15
5.60375e-15
-2.33277e-15
-4.73936e-14
-2.93847e-15
-2.44747e-14
-2.45824e-14
1.08334e-14
2.04797e-14
2.11402e-14
-2.17295e-14
-1.30348e-15
3.52529e-14
-3.75446e-14
-2.96544e-14
9.88303e-15
6.56608e-15
2.04643e-14
-5.08759e-16
0
-1.84281e-12
1.21973e-13
2.51704e-13
-1.21639e-13
-6.82608e-14
7.4241e-15
4.84346e-14
5.63029e-15
7.52353e-15
1.56993e-14
-1.4445e-14
5.37677e-15
6.12277e-15
-1.98217e-14
7.29749e-15
1.2392e-14
-6.46272e-15
-1.8647e-14
-1.68707e-14
-1.36825e-15
-1.0875e-14
-1.55025e-14
1.98728e-14
1.818e-14
2.0372e-14
1.69275e-15
-1.20833e-14
1.86792e-14
-7.61681e-15
-1.721e-14
6.90201e-15
-3.95935e-15
1.44562e-14
-1.62437e-14
-3.82571e-15
3.06999e-14
-2.09731e-14
-7.42056e-15
0
1.84314e-12
-3.65918e-13
8.13152e-14
-2.71051e-14
1.35525e-14
3.78653e-29
-1.35525e-14
-1.35525e-14
-1.35525e-14
0
1.35525e-14
6.31089e-29
1.32529e-28
1.35525e-14
-1.35525e-14
-2.71051e-14
7.57306e-29
2.71051e-14
1.35525e-14
)
;

boundaryField
{
    movingWall
    {
        type            calculated;
        value           nonuniform List<scalar> 
20
(
4.63496e-12
-9.48677e-13
2.1684e-13
-5.42101e-14
0
2.71051e-14
-2.71051e-14
0
-2.71051e-14
0
0
2.71051e-14
-2.71051e-14
2.71051e-14
0
-2.71051e-14
-2.71051e-14
2.71051e-14
2.71051e-14
0
)
;
    }
    fixedWalls
    {
        type            calculated;
        value           nonuniform List<scalar> 
60
(
3.95734e-12
-5.23128e-12
-1.81604e-12
3.63208e-12
-3.52366e-13
-2.76472e-12
6.01732e-12
-5.44812e-12
-9.21572e-13
4.66207e-12
-1.54499e-12
-7.04731e-13
-1.02999e-12
2.60209e-12
-2.33103e-12
-7.58942e-13
4.8518e-12
-3.33392e-12
-4.39102e-12
4.63496e-12
0
5.42101e-14
-2.71051e-14
-2.71051e-14
-2.71051e-14
0
-2.71051e-14
-2.71051e-14
0
0
-5.42101e-14
0
2.71051e-14
0
-2.71051e-14
-2.71051e-14
0
0
0
0
3.95734e-12
-6.91343e-13
1.55974e-13
-6.43318e-14
6.23201e-14
-2.52689e-14
-2.28597e-14
1.72559e-14
4.13844e-15
-4.34885e-14
2.02917e-14
7.54024e-15
-5.82852e-15
5.05459e-15
9.41102e-15
-1.22257e-14
-1.53137e-14
2.68762e-14
-2.71591e-14
0
)
;
    }
    frontAndBack
    {
        type            empty;
        value           nonuniform List<scalar> 0();
    }
}


// ************************************************************************* //
