/*--------------------------------*- C++ -*----------------------------------*\
| =========                 |                                                 |
| \\      /  F ield         | OpenFOAM: The Open Source CFD Toolbox           |
|  \\    /   O peration     | Version:  2312                                  |
|   \\  /    A nd           | Website:  www.openfoam.com                      |
|    \\/     M anipulation  |                                                 |
\*---------------------------------------------------------------------------*/
FoamFile
{
    version     2.0;
    format      ascii;
    arch        "LSB;label=32;scalar=64";
    class       volScalarField;
    location    "8";
    object      turbulenceProperties:nuEff;
}
// * * * * * * * * * * * * * * * * * * * * * * * * * * * * * * * * * * * * * //

dimensions      [0 2 -1 0 0 0 0];

internalField   nonuniform List<scalar> 
400
(
1.11354e-05
1.11354e-05
1.11354e-05
1.11354e-05
1.11354e-05
1.11354e-05
1.11354e-05
1.11354e-05
1.11354e-05
1.11354e-05
1.11354e-05
1.11354e-05
1.11354e-05
1.11354e-05
1.11354e-05
1.11354e-05
1.11354e-05
1.11354e-05
1.11354e-05
1.11354e-05
1.11473e-05
1.11614e-05
1.11601e-05
1.11596e-05
1.11586e-05
1.1158e-05
1.1157e-05
1.11564e-05
1.11554e-05
1.11548e-05
1.11538e-05
1.11533e-05
1.11522e-05
1.11517e-05
1.11506e-05
1.11501e-05
1.1149e-05
1.11485e-05
1.1148e-05
1.11472e-05
1.11656e-05
1.11804e-05
1.1179e-05
1.11785e-05
1.11774e-05
1.11768e-05
1.11757e-05
1.11751e-05
1.1174e-05
1.11734e-05
1.11724e-05
1.11718e-05
1.11707e-05
1.11701e-05
1.1169e-05
1.11685e-05
1.11674e-05
1.11668e-05
1.11663e-05
1.11655e-05
1.11841e-05
1.11995e-05
1.1198e-05
1.11975e-05
1.11963e-05
1.11957e-05
1.11946e-05
1.1194e-05
1.11928e-05
1.11922e-05
1.11911e-05
1.11905e-05
1.11894e-05
1.11888e-05
1.11877e-05
1.11871e-05
1.1186e-05
1.11854e-05
1.11848e-05
1.1184e-05
1.11992e-05
1.12149e-05
1.12135e-05
1.12129e-05
1.12117e-05
1.12111e-05
1.12099e-05
1.12093e-05
1.12081e-05
1.12075e-05
1.12064e-05
1.12058e-05
1.12046e-05
1.1204e-05
1.12029e-05
1.12022e-05
1.12011e-05
1.12005e-05
1.11999e-05
1.11991e-05
1.12099e-05
1.12259e-05
1.12244e-05
1.12238e-05
1.12226e-05
1.1222e-05
1.12208e-05
1.12202e-05
1.1219e-05
1.12184e-05
1.12172e-05
1.12166e-05
1.12154e-05
1.12148e-05
1.12136e-05
1.1213e-05
1.12118e-05
1.12112e-05
1.12106e-05
1.12097e-05
1.12168e-05
1.1233e-05
1.12315e-05
1.12309e-05
1.12297e-05
1.12291e-05
1.12279e-05
1.12272e-05
1.1226e-05
1.12254e-05
1.12242e-05
1.12236e-05
1.12224e-05
1.12218e-05
1.12206e-05
1.122e-05
1.12188e-05
1.12182e-05
1.12176e-05
1.12167e-05
1.12212e-05
1.12375e-05
1.1236e-05
1.12354e-05
1.12342e-05
1.12335e-05
1.12323e-05
1.12317e-05
1.12305e-05
1.12298e-05
1.12286e-05
1.1228e-05
1.12268e-05
1.12262e-05
1.1225e-05
1.12243e-05
1.12232e-05
1.12225e-05
1.12219e-05
1.1221e-05
1.1224e-05
1.12404e-05
1.12389e-05
1.12383e-05
1.1237e-05
1.12364e-05
1.12352e-05
1.12345e-05
1.12333e-05
1.12327e-05
1.12315e-05
1.12308e-05
1.12296e-05
1.1229e-05
1.12278e-05
1.12272e-05
1.1226e-05
1.12253e-05
1.12247e-05
1.12238e-05
1.12259e-05
1.12424e-05
1.12409e-05
1.12402e-05
1.1239e-05
1.12384e-05
1.12371e-05
1.12365e-05
1.12353e-05
1.12346e-05
1.12334e-05
1.12328e-05
1.12316e-05
1.1231e-05
1.12298e-05
1.12291e-05
1.12279e-05
1.12273e-05
1.12267e-05
1.12258e-05
1.12275e-05
1.1244e-05
1.12424e-05
1.12418e-05
1.12406e-05
1.12399e-05
1.12387e-05
1.12381e-05
1.12369e-05
1.12362e-05
1.1235e-05
1.12344e-05
1.12331e-05
1.12325e-05
1.12313e-05
1.12307e-05
1.12295e-05
1.12288e-05
1.12282e-05
1.12273e-05
1.12288e-05
1.12454e-05
1.12439e-05
1.12433e-05
1.1242e-05
1.12414e-05
1.12401e-05
1.12395e-05
1.12383e-05
1.12376e-05
1.12364e-05
1.12358e-05
1.12346e-05
1.12339e-05
1.12327e-05
1.12321e-05
1.12309e-05
1.12302e-05
1.12296e-05
1.12287e-05
1.12303e-05
1.12469e-05
1.12453e-05
1.12447e-05
1.12434e-05
1.12428e-05
1.12416e-05
1.12409e-05
1.12397e-05
1.12391e-05
1.12378e-05
1.12372e-05
1.1236e-05
1.12353e-05
1.12341e-05
1.12335e-05
1.12323e-05
1.12316e-05
1.1231e-05
1.12301e-05
1.12318e-05
1.12484e-05
1.12469e-05
1.12462e-05
1.1245e-05
1.12443e-05
1.12431e-05
1.12425e-05
1.12412e-05
1.12406e-05
1.12393e-05
1.12387e-05
1.12375e-05
1.12368e-05
1.12356e-05
1.1235e-05
1.12338e-05
1.12331e-05
1.12325e-05
1.12316e-05
1.12334e-05
1.12501e-05
1.12485e-05
1.12479e-05
1.12466e-05
1.1246e-05
1.12448e-05
1.12441e-05
1.12429e-05
1.12422e-05
1.1241e-05
1.12403e-05
1.12391e-05
1.12385e-05
1.12373e-05
1.12366e-05
1.12354e-05
1.12348e-05
1.12342e-05
1.12332e-05
1.12351e-05
1.12519e-05
1.12503e-05
1.12497e-05
1.12484e-05
1.12478e-05
1.12465e-05
1.12459e-05
1.12446e-05
1.1244e-05
1.12428e-05
1.12421e-05
1.12409e-05
1.12402e-05
1.1239e-05
1.12384e-05
1.12372e-05
1.12365e-05
1.12359e-05
1.1235e-05
1.12369e-05
1.12537e-05
1.12521e-05
1.12515e-05
1.12502e-05
1.12496e-05
1.12483e-05
1.12477e-05
1.12464e-05
1.12458e-05
1.12446e-05
1.12439e-05
1.12427e-05
1.1242e-05
1.12408e-05
1.12402e-05
1.12389e-05
1.12383e-05
1.12377e-05
1.12368e-05
1.12385e-05
1.12554e-05
1.12538e-05
1.12532e-05
1.12519e-05
1.12513e-05
1.125e-05
1.12494e-05
1.12481e-05
1.12475e-05
1.12462e-05
1.12456e-05
1.12443e-05
1.12437e-05
1.12425e-05
1.12418e-05
1.12406e-05
1.12399e-05
1.12393e-05
1.12384e-05
1.12398e-05
1.12564e-05
1.12549e-05
1.12543e-05
1.1253e-05
1.12524e-05
1.12512e-05
1.12505e-05
1.12493e-05
1.12487e-05
1.12475e-05
1.12468e-05
1.12456e-05
1.1245e-05
1.12438e-05
1.12431e-05
1.12419e-05
1.12412e-05
1.12406e-05
1.12397e-05
1.12404e-05
1.12404e-05
1.12404e-05
1.12404e-05
1.12404e-05
1.12404e-05
1.12404e-05
1.12404e-05
1.12404e-05
1.12404e-05
1.12404e-05
1.12404e-05
1.12404e-05
1.12404e-05
1.12404e-05
1.12404e-05
1.12404e-05
1.12404e-05
1.12404e-05
1.12404e-05
)
;

boundaryField
{
    movingWall
    {
        type            calculated;
        value           uniform 1e-05;
    }
    fixedWalls
    {
        type            calculated;
        value           uniform 1e-05;
    }
    frontAndBack
    {
        type            empty;
    }
}


// ************************************************************************* //
