/*--------------------------------*- C++ -*----------------------------------*\
| =========                 |                                                 |
| \\      /  F ield         | OpenFOAM: The Open Source CFD Toolbox           |
|  \\    /   O peration     | Version:  2312                                  |
|   \\  /    A nd           | Website:  www.openfoam.com                      |
|    \\/     M anipulation  |                                                 |
\*---------------------------------------------------------------------------*/
FoamFile
{
    version     2.0;
    format      ascii;
    arch        "LSB;label=32;scalar=64";
    class       volScalarField;
    location    "8";
    object      turbulenceProperties:omega;
}
// * * * * * * * * * * * * * * * * * * * * * * * * * * * * * * * * * * * * * //

dimensions      [0 0 -1 0 0 0 0];

internalField   nonuniform List<scalar> 
400
(
3.61936
3.61936
3.61935
3.61936
3.61935
3.61936
3.61935
3.61936
3.61935
3.61936
3.61935
3.61936
3.61935
3.61935
3.61935
3.61935
3.61935
3.61935
3.61935
3.61935
3.65767
3.6131
3.617
3.61859
3.62181
3.62343
3.62665
3.62831
3.63152
3.63322
3.63644
3.63816
3.64138
3.64313
3.64636
3.64814
3.65137
3.65319
3.65481
3.65733
3.71653
3.66975
3.67391
3.67559
3.67902
3.68074
3.68414
3.6859
3.68929
3.69106
3.69445
3.69624
3.69963
3.70143
3.70482
3.70663
3.71003
3.71186
3.71356
3.71617
3.77613
3.72783
3.73214
3.73387
3.73742
3.73918
3.74271
3.74451
3.74801
3.74984
3.75334
3.75519
3.75869
3.76054
3.76404
3.76592
3.76941
3.77131
3.77306
3.77575
3.82449
3.77493
3.77934
3.78112
3.78475
3.78657
3.79018
3.79203
3.79562
3.7975
3.80109
3.80299
3.80658
3.80849
3.81208
3.814
3.81759
3.81954
3.82133
3.8241
3.85867
3.80818
3.81268
3.8145
3.81819
3.82005
3.82372
3.82561
3.82927
3.83118
3.83484
3.83677
3.84043
3.84237
3.84603
3.84799
3.85164
3.85363
3.85546
3.85827
3.88091
3.82981
3.83434
3.83619
3.83992
3.84181
3.84552
3.84744
3.85114
3.85308
3.85677
3.85873
3.86243
3.8644
3.8681
3.87008
3.87378
3.87579
3.87764
3.88049
3.89486
3.84338
3.84795
3.84981
3.85357
3.85547
3.85921
3.86114
3.86486
3.86682
3.87054
3.87251
3.87624
3.87822
3.88195
3.88395
3.88768
3.8897
3.89157
3.89444
3.90379
3.85206
3.85666
3.85854
3.86231
3.86421
3.86797
3.86991
3.87366
3.87562
3.87937
3.88134
3.88509
3.88708
3.89083
3.89284
3.89658
3.89861
3.90049
3.90337
3.91001
3.85811
3.86272
3.8646
3.86839
3.8703
3.87407
3.87602
3.87977
3.88175
3.8855
3.88748
3.89124
3.89324
3.897
3.89902
3.90277
3.90481
3.90669
3.90959
3.91494
3.8629
3.86754
3.86941
3.87321
3.87513
3.87891
3.88086
3.88463
3.8866
3.89037
3.89235
3.89613
3.89812
3.9019
3.90391
3.90769
3.90973
3.91161
3.91452
3.91942
3.86726
3.8719
3.87378
3.8776
3.87951
3.88331
3.88526
3.88903
3.89101
3.89479
3.89678
3.90056
3.90256
3.90634
3.90837
3.91214
3.91419
3.91608
3.91899
3.92392
3.87165
3.87629
3.87818
3.882
3.88393
3.88772
3.88969
3.89346
3.89545
3.89923
3.90123
3.90502
3.90703
3.91082
3.91285
3.91663
3.91869
3.92058
3.9235
3.92872
3.87632
3.88097
3.88287
3.8867
3.88862
3.89244
3.89439
3.8982
3.90016
3.90398
3.90596
3.90978
3.91178
3.91559
3.91761
3.92142
3.92347
3.92537
3.92829
3.93394
3.8814
3.88606
3.88796
3.89179
3.89374
3.89754
3.89953
3.90332
3.90532
3.90912
3.91113
3.91493
3.91695
3.92076
3.9228
3.9266
3.92867
3.93057
3.93351
3.93952
3.88683
3.89152
3.89342
3.89727
3.8992
3.90304
3.905
3.90883
3.91081
3.91464
3.91664
3.92047
3.92249
3.92632
3.92835
3.93217
3.93424
3.93615
3.93909
3.94523
3.89239
3.89708
3.89899
3.90285
3.9048
3.90863
3.91062
3.91444
3.91645
3.92027
3.92229
3.92611
3.92815
3.93198
3.93403
3.93785
3.93993
3.94185
3.94479
3.95054
3.89757
3.90228
3.90418
3.90806
3.90999
3.91386
3.91582
3.91968
3.92167
3.92552
3.92753
3.93138
3.93341
3.93726
3.9393
3.94315
3.94522
3.94715
3.9501
3.95471
3.90265
3.90719
3.90904
3.9128
3.91469
3.91844
3.92039
3.92413
3.92611
3.92987
3.93187
3.93565
3.93767
3.94147
3.94353
3.94733
3.94943
3.95133
3.95429
3.95663
3.95662
3.95662
3.95662
3.95662
3.95662
3.95662
3.95662
3.95662
3.95662
3.95662
3.95662
3.95662
3.95662
3.95662
3.95662
3.95662
3.95662
3.95662
3.95662
)
;

boundaryField
{
    movingWall
    {
        type            calculated;
        value           nonuniform List<scalar> 
20
(
3.95663
3.95662
3.95662
3.95662
3.95662
3.95662
3.95662
3.95662
3.95662
3.95662
3.95662
3.95662
3.95662
3.95662
3.95662
3.95662
3.95662
3.95662
3.95662
3.95662
)
;
    }
    fixedWalls
    {
        type            calculated;
        value           nonuniform List<scalar> 
60
(
3.61936
3.65767
3.71653
3.77613
3.82449
3.85867
3.88091
3.89486
3.90379
3.91001
3.91494
3.91942
3.92392
3.92872
3.93394
3.93952
3.94523
3.95054
3.95471
3.95663
3.61935
3.65733
3.71617
3.77575
3.8241
3.85827
3.88049
3.89444
3.90337
3.90959
3.91452
3.91899
3.9235
3.92829
3.93351
3.93909
3.94479
3.9501
3.95429
3.95662
3.61936
3.61936
3.61935
3.61936
3.61935
3.61936
3.61935
3.61936
3.61935
3.61936
3.61935
3.61936
3.61935
3.61935
3.61935
3.61935
3.61935
3.61935
3.61935
3.61935
)
;
    }
    frontAndBack
    {
        type            empty;
    }
}


// ************************************************************************* //
