/*--------------------------------*- C++ -*----------------------------------*\
| =========                 |                                                 |
| \\      /  F ield         | OpenFOAM: The Open Source CFD Toolbox           |
|  \\    /   O peration     | Version:  2312                                  |
|   \\  /    A nd           | Website:  www.openfoam.com                      |
|    \\/     M anipulation  |                                                 |
\*---------------------------------------------------------------------------*/
FoamFile
{
    version     2.0;
    format      ascii;
    arch        "LSB;label=32;scalar=64";
    class       volSymmTensorField;
    location    "8";
    object      turbulenceProperties:devReff;
}
// * * * * * * * * * * * * * * * * * * * * * * * * * * * * * * * * * * * * * //

dimensions      [0 2 -2 0 0 0 0];

internalField   nonuniform List<symmTensor> 
400
(
(2.75378e-17 -2.35909e-17 -0 -5.68866e-17 -0 2.93488e-17)
(-6.9432e-18 3.31275e-17 -0 1.20754e-17 -0 -5.13225e-18)
(1.15789e-18 -6.14297e-18 -0 -2.31578e-18 -0 1.15789e-18)
(1.26077e-19 1.70873e-18 -0 3.51496e-19 -0 -4.77573e-19)
(-7.44662e-19 -7.26328e-19 -0 2.82022e-19 -0 4.62639e-19)
(4.16065e-19 3.03554e-21 -0 -2.28479e-19 -0 -1.87586e-19)
(4.3395e-19 -8.49567e-20 -0 -2.64249e-19 -0 -1.69701e-19)
(1.28101e-19 -1.12367e-19 -0 -2.56202e-19 -0 1.28101e-19)
(6.34373e-19 -5.49385e-19 -0 -6.65095e-19 -0 3.07221e-20)
(8.8446e-19 2.20614e-19 -0 -5.6162e-19 -0 -3.22841e-19)
(-4.53014e-19 6.91243e-20 -0 3.02377e-19 -0 1.50637e-19)
(5.59756e-20 -1.32803e-19 -0 -1.11951e-19 -0 5.59756e-20)
(5.60382e-19 -3.37243e-19 -0 -5.17113e-19 -0 -4.32686e-20)
(3.75232e-20 7.58036e-20 -0 -7.50464e-20 -0 3.75232e-20)
(6.98636e-20 -2.73058e-19 -0 -1.39727e-19 -0 6.98636e-20)
(5.12892e-19 4.98922e-21 -0 -4.22133e-19 -0 -9.07586e-20)
(4.89968e-19 5.73966e-20 -0 -3.76285e-19 -0 -1.13683e-19)
(-4.04133e-19 7.42641e-21 -0 2.04615e-19 -0 1.99518e-19)
(4.02032e-19 -9.85274e-20 -0 -2.00414e-19 -0 -2.01618e-19)
(5.62345e-20 9.39856e-20 -0 -1.12469e-19 -0 5.62345e-20)
(-2.97527e-17 -7.00668e-18 -0 6.85698e-17 -0 -3.88171e-17)
(3.47502e-18 9.48277e-18 -0 -1.23956e-17 -0 8.92058e-18)
(-1.07902e-18 3.69076e-19 -0 2.76304e-18 -0 -1.68402e-18)
(-1.2342e-19 1.14759e-18 -0 -3.58124e-19 -0 4.81544e-19)
(-2.31292e-19 8.9686e-19 -0 4.62584e-19 -0 -2.31292e-19)
(-1.92131e-19 1.55227e-18 -0 3.84262e-19 -0 -1.92131e-19)
(-1.00726e-18 8.20315e-19 -0 8.04873e-19 -0 2.02385e-19)
(-1.63625e-19 1.32336e-18 -0 3.27251e-19 -0 -1.63625e-19)
(-9.82524e-19 1.228e-18 -0 7.55578e-19 -0 2.26946e-19)
(-5.73209e-20 8.08224e-19 -0 1.14642e-19 -0 -5.73209e-20)
(-2.13824e-20 8.7322e-19 -0 4.27648e-20 -0 -2.13824e-20)
(-5.82169e-20 7.26651e-19 -0 1.16434e-19 -0 -5.82169e-20)
(-5.3069e-19 3.65474e-19 -0 4.56817e-19 -0 7.38733e-20)
(-6.20478e-20 6.60939e-19 -0 1.24096e-19 -0 -6.20478e-20)
(-8.15898e-19 7.68357e-19 -0 4.22841e-19 -0 3.93057e-19)
(8.4266e-19 8.75134e-19 -0 -4.76426e-19 -0 -3.66234e-19)
(-8.02364e-19 7.15366e-19 -0 3.95946e-19 -0 4.06418e-19)
(8.32221e-19 1.24623e-19 -0 -4.55721e-19 -0 -3.765e-19)
(-1.08026e-19 1.16404e-20 -0 2.16052e-19 -0 -1.08026e-19)
(-9.29113e-19 -1.02468e-20 -0 6.49647e-19 -0 2.79466e-19)
(-1.35048e-17 1.55303e-17 -0 2.70096e-17 -0 -1.35048e-17)
(3.77871e-18 -2.07884e-17 -0 -5.73915e-18 -0 1.96044e-18)
(3.49839e-19 7.54198e-19 -0 5.12357e-19 -0 -8.62196e-19)
(-7.43151e-19 -2.28524e-18 -0 2.74327e-19 -0 4.68823e-19)
(-5.30696e-19 -1.53468e-18 -0 4.55465e-19 -0 7.52303e-20)
(-5.27854e-20 -2.16331e-18 -0 1.05571e-19 -0 -5.27854e-20)
(-1.75242e-20 -1.33973e-18 -0 3.50483e-20 -0 -1.75242e-20)
(-5.32689e-20 -1.66423e-18 -0 1.06538e-19 -0 -5.32689e-20)
(-9.41332e-19 -1.01386e-18 -0 6.71175e-19 -0 2.70157e-19)
(7.95668e-19 -9.19815e-19 -0 -3.7991e-19 -0 -4.15759e-19)
(4.16538e-19 -8.37769e-19 -0 -2.27422e-19 -0 -1.89116e-19)
(-4.74285e-19 -8.8199e-19 -0 3.42947e-19 -0 1.31338e-19)
(-8.83427e-19 -3.32544e-19 -0 5.55726e-19 -0 3.27701e-19)
(8.79115e-19 -1.00821e-19 -0 -5.47163e-19 -0 -3.31952e-19)
(4.5106e-19 -7.25027e-19 -0 -2.96646e-19 -0 -1.54414e-19)
(-1.52051e-21 -3.17879e-19 -0 3.04103e-21 -0 -1.52051e-21)
(-4.71802e-19 7.30655e-20 -0 3.38218e-19 -0 1.33584e-19)
(-8.67849e-19 -1.27672e-19 -0 5.24991e-19 -0 3.42858e-19)
(-3.47575e-20 1.26281e-19 -0 6.95151e-20 -0 -3.47575e-20)
(-6.45311e-20 -5.56088e-19 -0 1.29062e-19 -0 -6.45311e-20)
(3.25464e-17 3.15597e-19 -0 -5.96362e-17 -0 2.70898e-17)
(-1.28452e-17 -1.01151e-17 -0 1.47623e-17 -0 -1.91701e-18)
(2.42272e-18 4.86491e-19 -0 -3.0243e-18 -0 6.0158e-19)
(-1.06566e-19 -8.64005e-19 -0 2.13132e-19 -0 -1.06566e-19)
(1.03967e-18 -1.37293e-19 -0 -8.65433e-19 -0 -1.74235e-19)
(1.93611e-19 -4.27341e-19 -0 -3.87222e-19 -0 1.93611e-19)
(1.00317e-18 -3.899e-19 -0 -7.92629e-19 -0 -2.10544e-19)
(4.60882e-19 -6.21547e-19 -0 -3.14938e-19 -0 -1.45944e-19)
(3.61419e-20 -3.46865e-19 -0 -7.22838e-20 -0 3.61419e-20)
(6.52566e-20 -3.19188e-19 -0 -1.30513e-19 -0 6.52566e-20)
(-2.89908e-19 -2.49168e-19 -0 -2.6856e-20 -0 3.16764e-19)
(5.45634e-19 -3.50801e-19 -0 -4.8463e-19 -0 -6.10047e-20)
(9.16818e-19 1.52929e-19 -0 -6.20478e-19 -0 -2.9634e-19)
(3.61406e-20 -1.28845e-19 -0 -7.22813e-20 -0 3.61406e-20)
(-8.49123e-19 -2.87587e-20 -0 4.85273e-19 -0 3.63849e-19)
(3.30562e-19 -4.64366e-19 -0 -5.46711e-20 -0 -2.75891e-19)
(-5.46622e-20 -1.01251e-18 -0 1.09324e-19 -0 -5.46622e-20)
(2.57148e-20 7.47792e-20 -0 -5.14295e-20 -0 2.57148e-20)
(-2.90596e-19 -2.85736e-19 -0 -2.51396e-20 -0 3.15735e-19)
(8.93353e-19 -4.626e-19 -0 -5.74135e-19 -0 -3.19218e-19)
(-1.78108e-17 -1.28268e-17 -0 2.04438e-17 -0 -2.63306e-18)
(1.31787e-17 2.29421e-17 -0 -8.72642e-18 -0 -4.45224e-18)
(-2.79483e-18 -2.5704e-18 -0 1.94236e-18 -0 8.52467e-19)
(9.42612e-19 1.30445e-18 -0 -6.69522e-19 -0 -2.73091e-19)
(-2.90692e-19 4.40868e-19 -0 -2.64016e-20 -0 3.17094e-19)
(4.91873e-19 3.15651e-19 -0 -3.75992e-19 -0 -1.15881e-19)
(5.51529e-20 7.77201e-20 -0 -1.10306e-19 -0 5.51529e-20)
(-3.62822e-19 8.69574e-20 -0 1.17987e-19 -0 2.44835e-19)
(5.6292e-19 1.84814e-19 -0 -5.18245e-19 -0 -4.46747e-20)
(5.6428e-19 1.74723e-19 -0 -5.20999e-19 -0 -4.3281e-20)
(9.73899e-19 2.60573e-19 -0 -7.328e-19 -0 -2.41099e-19)
(1.01246e-19 3.62538e-20 -0 -2.02493e-19 -0 1.01246e-19)
(5.49119e-20 1.2794e-19 -0 -1.09824e-19 -0 5.49119e-20)
(-5.37838e-20 -4.85415e-19 -0 1.07568e-19 -0 -5.37838e-20)
(-1.86898e-19 4.51301e-20 -0 3.73795e-19 -0 -1.86898e-19)
(-1.07695e-18 6.11835e-21 -0 9.39345e-19 -0 1.37603e-19)
(-4.70317e-19 5.31125e-19 -0 3.33421e-19 -0 1.36896e-19)
(4.6248e-19 8.33527e-19 -0 -3.17781e-19 -0 -1.447e-19)
(-3.12538e-19 3.41218e-19 -0 1.79276e-20 -0 2.94611e-19)
(5.07587e-19 3.47625e-19 -0 -4.08072e-19 -0 -9.95153e-20)
(-3.16278e-18 2.03642e-17 -0 2.39485e-17 -0 -2.07857e-17)
(-1.03508e-17 -2.23765e-17 -0 6.19188e-19 -0 9.7316e-18)
(8.12209e-19 4.86202e-18 -0 8.09487e-19 -0 -1.6217e-18)
(-1.20586e-18 -9.74978e-19 -0 5.86398e-19 -0 6.19467e-19)
(3.53745e-19 2.34772e-19 -0 -9.91121e-20 -0 -2.54633e-19)
(-1.11503e-20 -3.50844e-20 -0 2.23005e-20 -0 -1.11503e-20)
(-8.12933e-20 -1.99947e-20 -0 1.62587e-19 -0 -8.12933e-20)
(1.8056e-21 -1.68989e-19 -0 -3.6112e-21 -0 1.8056e-21)
(4.78828e-19 -5.23299e-19 -0 -3.49475e-19 -0 -1.29354e-19)
(-4.42955e-19 -3.29045e-19 -0 2.77762e-19 -0 1.65193e-19)
(-9.85755e-20 -4.6675e-19 -0 1.97151e-19 -0 -9.85755e-20)
(-4.8602e-19 -4.92024e-19 -0 3.63988e-19 -0 1.22031e-19)
(4.92998e-19 -8.29933e-19 -0 -3.78008e-19 -0 -1.1499e-19)
(1.43299e-19 -3.74011e-19 -0 -2.86597e-19 -0 1.43299e-19)
(4.76873e-19 -3.16183e-19 -0 -3.45856e-19 -0 -1.31017e-19)
(4.46542e-19 -3.43745e-19 -0 -2.85228e-19 -0 -1.61314e-19)
(9.01184e-19 -2.87098e-19 -0 -5.86781e-19 -0 -3.14403e-19)
(-8.20957e-19 -1.6188e-19 -0 4.26394e-19 -0 3.94563e-19)
(-4.12215e-19 -5.03484e-20 -0 2.167e-19 -0 1.95514e-19)
(4.66093e-19 1.33064e-19 -0 -3.24506e-19 -0 -1.41587e-19)
(3.16651e-17 -7.95104e-19 -0 -7.67077e-17 -0 4.50425e-17)
(1.27997e-18 2.08681e-18 -0 1.26637e-17 -0 -1.39436e-17)
(-3.09314e-19 -1.63616e-19 -0 -2.42568e-18 -0 2.735e-18)
(1.1788e-19 1.68065e-19 -0 9.819e-19 -0 -1.09978e-18)
(-8.50178e-19 1.70475e-19 -0 4.82831e-19 -0 3.67347e-19)
(-7.92165e-20 5.60174e-20 -0 1.58433e-19 -0 -7.92165e-20)
(-2.27471e-20 3.62732e-19 -0 4.54943e-20 -0 -2.27471e-20)
(-1.76266e-20 4.63574e-19 -0 3.52532e-20 -0 -1.76266e-20)
(-4.57215e-19 5.48424e-19 -0 3.05866e-19 -0 1.51349e-19)
(3.88045e-20 1.28832e-19 -0 -7.7609e-20 -0 3.88045e-20)
(7.82359e-20 6.29968e-19 -0 -1.56472e-19 -0 7.82359e-20)
(6.52313e-20 1.27784e-18 -0 -1.30463e-19 -0 6.52313e-20)
(-1.29654e-20 7.04558e-19 -0 2.59307e-20 -0 -1.29654e-20)
(-7.52001e-21 7.54567e-19 -0 1.504e-20 -0 -7.52001e-21)
(9.04119e-20 5.02397e-19 -0 -1.80824e-19 -0 9.04119e-20)
(5.80773e-19 2.81438e-19 -0 -5.53311e-19 -0 -2.74623e-20)
(4.77732e-19 1.7069e-21 -0 -3.47292e-19 -0 -1.3044e-19)
(4.18391e-19 -5.38636e-19 -0 -2.28645e-19 -0 -1.89746e-19)
(-3.91528e-19 -6.97455e-20 -0 1.74951e-19 -0 2.16578e-19)
(4.15879e-19 1.2506e-19 -0 -2.237e-19 -0 -1.92179e-19)
(-2.07321e-17 -3.90863e-17 -0 6.15382e-17 -0 -4.0806e-17)
(-8.23843e-18 3.75291e-17 -0 -6.06308e-18 -0 1.43015e-17)
(1.36888e-18 -8.92157e-18 -0 1.52598e-18 -0 -2.89486e-18)
(-1.69651e-18 1.66301e-18 -0 3.47653e-19 -0 1.34885e-18)
(7.79737e-19 -9.91749e-19 -0 -3.41464e-19 -0 -4.38273e-19)
(-3.38375e-19 2.45741e-19 -0 6.77793e-20 -0 2.70596e-19)
(5.62862e-19 1.9203e-19 -0 -5.1682e-19 -0 -4.60425e-20)
(9.38028e-19 4.82872e-19 -0 -6.58316e-19 -0 -2.79712e-19)
(-8.03851e-19 3.04692e-19 -0 3.90092e-19 -0 4.13759e-19)
(1.11011e-19 9.97848e-19 -0 -2.22022e-19 -0 1.11011e-19)
(1.4138e-18 7.10517e-19 -0 -1.00149e-18 -0 -4.12314e-19)
(9.23085e-19 5.57331e-19 -0 -6.28828e-19 -0 -2.94257e-19)
(-9.97004e-19 7.99898e-19 -0 7.76795e-19 -0 2.20209e-19)
(-2.26394e-19 7.90405e-20 -0 4.52789e-19 -0 -2.26394e-19)
(-4.75713e-20 9.3044e-19 -0 9.51426e-20 -0 -4.75713e-20)
(-4.89313e-20 -3.1691e-19 -0 9.78626e-20 -0 -4.89313e-20)
(-5.18586e-19 5.64562e-19 -0 4.28763e-19 -0 8.98229e-20)
(-7.94733e-19 -7.44038e-20 -0 3.72718e-19 -0 4.22016e-19)
(9.05519e-20 -4.67112e-20 -0 -1.81104e-19 -0 9.05519e-20)
(-3.25928e-20 4.73932e-19 -0 6.51856e-20 -0 -3.25928e-20)
(-3.83989e-17 3.41347e-17 -0 4.51583e-17 -0 -6.75939e-18)
(2.77169e-17 -4.57417e-17 -0 -2.07013e-17 -0 -7.01563e-18)
(-5.03267e-18 8.90978e-18 -0 3.97274e-18 -0 1.05993e-18)
(2.41329e-18 -1.38504e-18 -0 -1.78044e-18 -0 -6.3285e-19)
(-8.15706e-19 2.65239e-19 -0 4.13093e-19 -0 4.02613e-19)
(4.94837e-19 -2.27834e-19 -0 -3.80549e-19 -0 -1.14288e-19)
(4.99351e-19 -3.34029e-19 -0 -3.89643e-19 -0 -1.09708e-19)
(1.30522e-19 -8.3509e-19 -0 -2.61044e-19 -0 1.30522e-19)
(1.23245e-18 -6.46378e-19 -0 -6.38017e-19 -0 -5.9443e-19)
(-6.00484e-19 -7.62866e-19 -0 5.92044e-19 -0 8.44007e-21)
(-1.35469e-18 -1.197e-18 -0 8.82811e-19 -0 4.71883e-19)
(-4.29855e-19 -1.19242e-18 -0 2.50886e-19 -0 1.78969e-19)
(2.02646e-20 -9.1864e-19 -0 -4.05293e-20 -0 2.02646e-20)
(4.28551e-19 -3.64999e-19 -0 -2.48378e-19 -0 -1.80173e-19)
(-3.55154e-19 -6.76492e-19 -0 1.01647e-19 -0 2.53506e-19)
(5.78368e-20 -2.28847e-19 -0 -1.15674e-19 -0 5.78368e-20)
(4.5718e-19 -7.04917e-19 -0 -3.05798e-19 -0 -1.51381e-19)
(4.32847e-19 -2.35826e-19 -0 -2.57167e-19 -0 -1.7568e-19)
(-8.73293e-21 3.76883e-21 -0 1.74659e-20 -0 -8.73293e-21)
(-7.20268e-20 2.1209e-19 -0 1.44054e-19 -0 -7.20268e-20)
(4.69983e-17 1.34971e-17 -0 -8.18255e-17 -0 3.48272e-17)
(-1.70357e-17 6.2968e-18 -0 2.06635e-17 -0 -3.62776e-18)
(3.95166e-18 -2.18756e-19 -0 -4.85648e-18 -0 9.04819e-19)
(-1.68443e-18 -3.9694e-19 -0 1.54085e-18 -0 1.43577e-19)
(-1.11099e-19 5.77598e-20 -0 2.22199e-19 -0 -1.11099e-19)
(-6.12244e-19 -5.08634e-19 -0 6.15254e-19 -0 -3.01049e-21)
(-4.8283e-19 -1.7516e-19 -0 3.56493e-19 -0 1.26337e-19)
(2.11387e-20 -3.12434e-19 -0 -4.22774e-20 -0 2.11387e-20)
(6.06675e-20 -1.21111e-19 -0 -1.21335e-19 -0 6.06675e-20)
(-8.42582e-19 -6.015e-19 -0 4.67101e-19 -0 3.75481e-19)
(3.59354e-19 -1.54e-19 -0 -1.09742e-19 -0 -2.49612e-19)
(3.84477e-19 3.21675e-19 -0 -1.60024e-19 -0 -2.24454e-19)
(5.1915e-19 1.21302e-19 -0 -4.29433e-19 -0 -8.97162e-20)
(5.19937e-19 -2.70892e-19 -0 -4.31042e-19 -0 -8.88944e-20)
(3.67369e-20 -6.43751e-19 -0 -7.34738e-20 -0 3.67369e-20)
(9.29868e-19 2.90395e-19 -0 -6.42274e-19 -0 -2.87595e-19)
(1.32945e-19 2.14211e-21 -0 -2.65889e-19 -0 1.32945e-19)
(-8.48907e-19 1.58846e-20 -0 4.80549e-19 -0 3.68357e-19)
(-9.68927e-20 1.02085e-19 -0 1.93785e-19 -0 -9.68927e-20)
(-3.23038e-20 4.86971e-20 -0 6.46077e-20 -0 -3.23038e-20)
(-6.76356e-18 -2.30151e-17 -0 1.83962e-17 -0 -1.16327e-17)
(-3.62639e-18 1.25255e-17 -0 -1.28076e-18 -0 4.90714e-18)
(1.42322e-18 -2.83901e-18 -0 -4.08626e-19 -0 -1.0146e-18)
(1.99364e-19 7.47977e-19 -0 -3.98728e-19 -0 1.99364e-19)
(7.15859e-20 1.80536e-19 -0 -1.43172e-19 -0 7.15859e-20)
(6.36495e-20 3.29857e-19 -0 -1.27299e-19 -0 6.36495e-20)
(4.36312e-19 8.48139e-19 -0 -2.63373e-19 -0 -1.72939e-19)
(-2.37499e-20 1.0908e-18 -0 4.74999e-20 -0 -2.37499e-20)
(2.54675e-20 9.53824e-19 -0 -5.0935e-20 -0 2.54675e-20)
(4.27028e-19 6.16087e-19 -0 -2.44941e-19 -0 -1.82088e-19)
(-1.56907e-19 1.22524e-18 -0 3.13815e-19 -0 -1.56907e-19)
(-5.1712e-19 3.94409e-19 -0 4.25225e-19 -0 9.18955e-20)
(-3.929e-19 7.04599e-19 -0 1.7685e-19 -0 2.1605e-19)
(6.92073e-20 6.63013e-19 -0 -1.38415e-19 -0 6.92073e-20)
(6.78238e-20 5.34702e-19 -0 -1.35648e-19 -0 6.78238e-20)
(4.05325e-20 2.35542e-19 -0 -8.10651e-20 -0 4.05325e-20)
(8.30209e-19 -1.67309e-19 -0 -4.42916e-19 -0 -3.87293e-19)
(-4.51614e-19 7.17616e-19 -0 2.94512e-19 -0 1.57102e-19)
(-4.69216e-19 -3.86429e-21 -0 3.29748e-19 -0 1.39468e-19)
(8.45047e-19 1.83459e-20 -0 -4.72825e-19 -0 -3.72222e-19)
(-1.74751e-17 1.32529e-17 -0 2.27758e-17 -0 -5.30075e-18)
(1.30358e-17 -3.56002e-18 -0 -9.00233e-18 -0 -4.03345e-18)
(-3.85525e-18 2.88077e-18 -0 2.83424e-18 -0 1.02101e-18)
(1.35476e-18 7.16289e-19 -0 -8.81031e-19 -0 -4.73732e-19)
(1.3782e-19 1.48019e-18 -0 -2.7564e-19 -0 1.3782e-19)
(9.59435e-19 7.72182e-19 -0 -7.00078e-19 -0 -2.59357e-19)
(-3.95215e-20 5.6523e-19 -0 7.9043e-20 -0 -3.95215e-20)
(-9.03035e-19 3.03787e-19 -0 5.87481e-19 -0 3.15554e-19)
(-4.22314e-19 4.21027e-19 -0 2.354e-19 -0 1.86914e-19)
(-6.85918e-20 8.90346e-19 -0 1.37184e-19 -0 -6.85918e-20)
(-1.00756e-18 3.48645e-19 -0 7.96858e-19 -0 2.10698e-19)
(-1.12886e-19 3.71325e-19 -0 2.25772e-19 -0 -1.12886e-19)
(8.25566e-19 7.64377e-19 -0 -4.33079e-19 -0 -3.92487e-19)
(6.83553e-20 5.60367e-19 -0 -1.36711e-19 -0 6.83553e-20)
(8.71379e-20 6.16935e-19 -0 -1.74276e-19 -0 8.71379e-20)
(-4.70344e-20 6.68842e-19 -0 9.40687e-20 -0 -4.70344e-20)
(-9.08454e-19 4.36073e-19 -0 5.99254e-19 -0 3.092e-19)
(7.87514e-19 1.38859e-19 -0 -3.57443e-19 -0 -4.3007e-19)
(-9.17774e-19 5.9185e-19 -0 6.18029e-19 -0 2.99745e-19)
(-5.92767e-20 3.87383e-21 -0 1.18553e-19 -0 -5.92767e-20)
(1.86044e-17 1.62713e-18 -0 -1.10306e-17 -0 -7.57374e-18)
(-1.85109e-17 -5.80764e-18 -0 1.01953e-17 -0 8.31562e-18)
(3.31408e-18 -2.54195e-19 -0 -1.75127e-18 -0 -1.5628e-18)
(-1.70169e-18 -6.70086e-19 -0 9.65067e-19 -0 7.36619e-19)
(8.46518e-19 -7.50428e-19 -0 -4.74019e-19 -0 -3.72498e-19)
(-5.73085e-21 -3.18229e-19 -0 1.14617e-20 -0 -5.73085e-21)
(-4.12331e-20 -9.28216e-19 -0 8.24661e-20 -0 -4.12331e-20)
(-9.23236e-19 -4.67395e-19 -0 6.27728e-19 -0 2.95508e-19)
(-1.06731e-19 7.04822e-21 -0 2.13462e-19 -0 -1.06731e-19)
(-3.21784e-21 2.75877e-19 -0 6.43567e-21 -0 -3.21784e-21)
(9.33938e-19 -2.30993e-19 -0 -6.49467e-19 -0 -2.84471e-19)
(-8.76055e-19 6.90277e-19 -0 5.33773e-19 -0 3.42283e-19)
(-1.38697e-19 -1.76211e-19 -0 2.77395e-19 -0 -1.38697e-19)
(-1.59364e-19 -5.63286e-20 -0 3.18729e-19 -0 -1.59364e-19)
(-5.62141e-19 -5.10071e-19 -0 5.15278e-19 -0 4.68626e-20)
(-6.28168e-20 -4.02075e-19 -0 1.25634e-19 -0 -6.28168e-20)
(-4.17063e-20 1.02867e-19 -0 8.34127e-20 -0 -4.17063e-20)
(-4.91407e-20 -7.90241e-19 -0 9.82814e-20 -0 -4.91407e-20)
(-5.58835e-20 -5.60084e-19 -0 1.11767e-19 -0 -5.58835e-20)
(-9.1655e-19 -2.29725e-19 -0 6.15528e-19 -0 3.01022e-19)
(6.36365e-19 -8.8444e-18 -0 -2.01478e-17 -0 1.95115e-17)
(1.15948e-17 -9.46533e-20 -0 -3.06698e-18 -0 -8.52783e-18)
(-1.94259e-18 -1.60221e-18 -0 2.27016e-19 -0 1.71557e-18)
(1.08471e-18 -1.37386e-18 -0 -3.40447e-19 -0 -7.44266e-19)
(-3.65229e-19 -1.673e-18 -0 1.20867e-19 -0 2.44362e-19)
(4.92206e-19 -1.24843e-18 -0 -3.74855e-19 -0 -1.17351e-19)
(5.59848e-19 -1.10554e-18 -0 -5.10208e-19 -0 -4.96407e-20)
(9.10171e-19 -1.12149e-18 -0 -6.01432e-19 -0 -3.08739e-19)
(-8.26236e-19 -9.58924e-19 -0 4.33696e-19 -0 3.92539e-19)
(7.71153e-20 -6.70777e-19 -0 -1.54231e-19 -0 7.71153e-20)
(9.90359e-19 -4.74257e-19 -0 -7.62145e-19 -0 -2.28213e-19)
(4.48679e-19 -1.37035e-18 -0 -2.88106e-19 -0 -1.60573e-19)
(-4.57759e-19 -3.1045e-19 -0 3.06333e-19 -0 1.51426e-19)
(-9.53346e-20 -6.31586e-19 -0 1.90669e-19 -0 -9.53346e-20)
(-1.39996e-18 -1.36799e-19 -0 9.72667e-19 -0 4.27294e-19)
(-5.18399e-19 4.97364e-19 -0 4.27748e-19 -0 9.06511e-20)
(-3.97875e-20 1.11192e-19 -0 7.9575e-20 -0 -3.97875e-20)
(-9.89542e-21 1.60171e-19 -0 1.97908e-20 -0 -9.89542e-21)
(5.07693e-19 -2.37803e-19 -0 -4.06468e-19 -0 -1.01224e-19)
(4.58097e-19 -5.41662e-19 -0 -3.07327e-19 -0 -1.5077e-19)
(-1.09031e-17 4.00864e-18 -0 2.85048e-17 -0 -1.76017e-17)
(-2.39297e-18 1.14786e-17 -0 -3.14235e-18 -0 5.53531e-18)
(-2.85873e-19 -3.43637e-19 -0 1.18153e-18 -0 -8.95657e-19)
(-2.8098e-19 9.26931e-19 -0 -4.77894e-20 -0 3.28769e-19)
(-7.0749e-20 7.47708e-19 -0 1.41498e-19 -0 -7.0749e-20)
(-5.95701e-20 4.27561e-19 -0 1.1914e-19 -0 -5.95701e-20)
(-8.38195e-19 5.77849e-19 -0 4.57231e-19 -0 3.80964e-19)
(4.97011e-19 8.81324e-20 -0 -3.84479e-19 -0 -1.12532e-19)
(4.64047e-19 3.77057e-20 -0 -3.18616e-19 -0 -1.45431e-19)
(4.07687e-19 -1.16596e-20 -0 -2.05932e-19 -0 -2.01755e-19)
(-4.34283e-19 -4.83849e-19 -0 2.59191e-19 -0 1.75092e-19)
(8.76434e-20 -4.88417e-19 -0 -1.75287e-19 -0 8.76434e-20)
(1.05161e-19 -1.18801e-18 -0 -2.10323e-19 -0 1.05161e-19)
(5.28435e-19 -7.74908e-19 -0 -4.4763e-19 -0 -8.08048e-20)
(1.26446e-18 -4.84638e-19 -0 -7.01399e-19 -0 -5.63061e-19)
(3.06112e-19 -6.06347e-21 -0 -3.08563e-21 -0 -3.03026e-19)
(-1.2764e-18 -5.08126e-20 -0 7.25586e-19 -0 5.50817e-19)
(8.04287e-20 2.15276e-19 -0 -1.60857e-19 -0 8.04287e-20)
(-3.28957e-19 2.60128e-19 -0 4.89088e-20 -0 2.80048e-19)
(5.19382e-19 -3.03345e-19 -0 -4.29809e-19 -0 -8.9573e-20)
(3.48337e-18 1.38355e-17 -0 2.16912e-18 -0 -5.65249e-18)
(-6.41203e-18 -2.30619e-17 -0 3.67458e-18 -0 2.73744e-18)
(2.33867e-18 2.85284e-18 -0 -1.62795e-18 -0 -7.10728e-19)
(2.00171e-19 -4.77291e-19 -0 -4.00343e-19 -0 2.00171e-19)
(-8.02507e-19 -4.81182e-19 -0 3.85459e-19 -0 4.17048e-19)
(-1.70798e-19 -9.73199e-20 -0 3.41596e-19 -0 -1.70798e-19)
(-1.99505e-19 -1.11893e-19 -0 3.99011e-19 -0 -1.99505e-19)
(-5.50932e-19 5.82337e-19 -0 4.92223e-19 -0 5.87087e-20)
(-9.16607e-19 8.90341e-20 -0 6.14069e-19 -0 3.02539e-19)
(-5.4016e-19 -2.3755e-19 -0 4.70781e-19 -0 6.93785e-20)
(-6.21969e-19 5.66588e-21 -0 6.34467e-19 -0 -1.24981e-20)
(-1.21623e-19 -4.70118e-20 -0 2.43245e-19 -0 -1.21623e-19)
(-4.18696e-19 -3.62524e-19 -0 2.28022e-19 -0 1.90674e-19)
(1.16197e-19 6.61283e-20 -0 -2.32394e-19 -0 1.16197e-19)
(6.12822e-19 1.96584e-19 -0 -6.16376e-19 -0 3.55376e-21)
(1.85112e-19 -5.6437e-19 -0 -3.70224e-19 -0 1.85112e-19)
(5.01558e-19 -1.59421e-19 -0 -3.93948e-19 -0 -1.0761e-19)
(4.69915e-19 -4.27673e-20 -0 -3.30698e-19 -0 -1.39217e-19)
(-4.31435e-19 1.71722e-20 -0 2.53769e-19 -0 1.77665e-19)
(4.28915e-19 6.57473e-19 -0 -2.4878e-19 -0 -1.80135e-19)
(3.02054e-17 -1.68906e-17 -0 -6.65023e-17 -0 3.62969e-17)
(-4.92738e-18 1.32069e-17 -0 1.2295e-17 -0 -7.36764e-18)
(2.01204e-18 -2.6376e-18 -0 -3.41409e-18 -0 1.40206e-18)
(1.07655e-18 7.60142e-19 -0 -3.23266e-19 -0 -7.53285e-19)
(-2.80571e-19 8.47188e-20 -0 -4.87338e-20 -0 3.29305e-19)
(4.27782e-19 1.32991e-19 -0 -2.45724e-19 -0 -1.82059e-19)
(-5.56392e-21 -7.11451e-20 -0 1.11278e-20 -0 -5.56392e-21)
(3.68157e-19 -5.53212e-20 -0 -1.26576e-19 -0 -2.41581e-19)
(-4.25551e-19 6.31366e-19 -0 2.41431e-19 -0 1.8412e-19)
(-9.81987e-20 4.60943e-19 -0 1.96397e-19 -0 -9.81987e-20)
(-1.02441e-19 7.16898e-19 -0 2.04881e-19 -0 -1.02441e-19)
(-1.16459e-20 4.25658e-19 -0 2.32917e-20 -0 -1.16459e-20)
(4.2104e-20 5.87973e-19 -0 -8.4208e-20 -0 4.2104e-20)
(4.45828e-20 1.33385e-18 -0 -8.91656e-20 -0 4.45828e-20)
(5.64664e-19 6.30517e-19 -0 -5.19962e-19 -0 -4.47017e-20)
(1.45701e-18 1.60723e-19 -0 -1.08603e-18 -0 -3.70978e-19)
(2.71565e-20 1.04499e-18 -0 -5.43129e-20 -0 2.71565e-20)
(-9.25127e-19 9.19727e-20 -0 6.31797e-19 -0 2.93331e-19)
(-3.26256e-20 1.7031e-20 -0 6.52511e-20 -0 -3.26256e-20)
(-3.14871e-20 -2.59392e-21 -0 6.29743e-20 -0 -3.14871e-20)
(-2.66304e-17 -1.89153e-17 -0 5.1433e-17 -0 -2.48026e-17)
(1.08362e-17 2.69215e-17 -0 -1.37403e-17 -0 2.90415e-18)
(-3.52685e-18 -2.7972e-18 -0 4.00336e-18 -0 -4.76502e-19)
(1.81521e-19 2.04681e-18 -0 -3.63043e-19 -0 1.81521e-19)
(-9.65279e-19 1.4067e-18 -0 7.10624e-19 -0 2.54655e-19)
(-8.80783e-21 1.01493e-18 -0 1.76157e-20 -0 -8.80783e-21)
(-2.08775e-20 5.87285e-19 -0 4.17549e-20 -0 -2.08775e-20)
(-1.92712e-20 9.07749e-19 -0 3.85424e-20 -0 -1.92712e-20)
(-6.67003e-20 4.83766e-19 -0 1.33401e-19 -0 -6.67003e-20)
(-4.57953e-19 8.02009e-19 -0 3.0618e-19 -0 1.51773e-19)
(1.81039e-19 7.90325e-19 -0 -3.62079e-19 -0 1.81039e-19)
(5.6632e-19 6.50563e-19 -0 -5.23015e-19 -0 -4.33044e-20)
(7.1345e-19 7.72121e-19 -0 -2.07785e-19 -0 -5.05665e-19)
(-1.02789e-18 1.9638e-19 -0 8.36726e-19 -0 1.91159e-19)
(-5.81353e-19 8.20103e-19 -0 5.53251e-19 -0 2.81023e-20)
(-9.21838e-19 8.51204e-19 -0 6.24835e-19 -0 2.97003e-19)
(7.7252e-19 -5.46692e-19 -0 -3.26332e-19 -0 -4.46188e-19)
(-1.17002e-19 4.69062e-20 -0 2.34004e-19 -0 -1.17002e-19)
(-8.6138e-19 -1.0483e-19 -0 5.04189e-19 -0 3.57191e-19)
(-2.63767e-20 -4.77411e-20 -0 5.27533e-20 -0 -2.63767e-20)
(-3.11793e-17 2.23608e-17 -0 6.41865e-17 -0 -3.30072e-17)
(7.67307e-18 -2.82197e-17 -0 -1.29053e-17 -0 5.23223e-18)
(-1.44306e-18 2.66572e-18 -0 2.88613e-18 -0 -1.44306e-18)
(-6.74683e-19 -2.7769e-18 -0 1.29176e-19 -0 5.45507e-19)
(-9.91833e-19 -1.15484e-18 -0 7.63609e-19 -0 2.28223e-19)
(-1.03722e-19 -9.78639e-19 -0 2.07444e-19 -0 -1.03722e-19)
(-7.71135e-20 -9.70355e-19 -0 1.54227e-19 -0 -7.71135e-20)
(-4.57095e-19 -1.20637e-18 -0 3.04296e-19 -0 1.52799e-19)
(-5.51995e-20 -1.14965e-18 -0 1.10399e-19 -0 -5.51995e-20)
(5.18856e-19 -8.25301e-19 -0 -4.2792e-19 -0 -9.09364e-20)
(9.9271e-19 -5.14606e-19 -0 -7.65966e-19 -0 -2.26744e-19)
(-2.03807e-20 -6.77914e-19 -0 4.07613e-20 -0 -2.03807e-20)
(-1.00311e-18 -6.78057e-19 -0 7.8696e-19 -0 2.16146e-19)
(-5.59719e-19 -1.29528e-18 -0 5.09847e-19 -0 4.98722e-20)
(-1.90252e-19 -4.42447e-19 -0 3.80503e-19 -0 -1.90252e-19)
(-1.05351e-18 -6.51372e-19 -0 8.8803e-19 -0 1.65476e-19)
(-4.24641e-20 1.42743e-19 -0 8.49281e-20 -0 -4.24641e-20)
(-3.96912e-19 1.05577e-19 -0 1.84435e-19 -0 2.12477e-19)
(3.9455e-19 -1.18906e-19 -0 -1.79743e-19 -0 -2.14807e-19)
(5.32817e-21 -1.15666e-19 -0 -1.06563e-20 -0 5.32817e-21)
(2.8663e-17 2.09297e-17 -0 -6.34195e-17 -0 3.47565e-17)
(-4.06731e-18 -2.16845e-17 -0 1.11813e-17 -0 -7.11404e-18)
(1.10742e-18 3.92143e-18 -0 -2.82419e-18 -0 1.71677e-18)
(1.18733e-19 -7.6395e-19 -0 3.7188e-19 -0 -4.90613e-19)
(5.77172e-19 2.45227e-19 -0 -5.44998e-19 -0 -3.21739e-20)
(1.22532e-19 -5.18951e-20 -0 -2.45064e-19 -0 1.22532e-19)
(5.00188e-19 2.02375e-19 -0 -3.91031e-19 -0 -1.09157e-19)
(1.73936e-20 2.64857e-19 -0 -3.47872e-20 -0 1.73936e-20)
(4.82583e-19 2.39387e-19 -0 -3.5582e-19 -0 -1.26763e-19)
(2.05062e-20 -1.60014e-19 -0 -4.10125e-20 -0 2.05062e-20)
(-5.80121e-19 -5.34523e-19 -0 5.50897e-19 -0 2.92244e-20)
(-4.75584e-19 2.90965e-19 -0 3.41822e-19 -0 1.33762e-19)
(9.90206e-19 5.7176e-20 -0 -7.61721e-19 -0 -2.28485e-19)
(1.2628e-19 1.96341e-19 -0 -2.5256e-19 -0 1.2628e-19)
(5.48153e-20 -5.72112e-19 -0 -1.09631e-19 -0 5.48153e-20)
(4.6557e-19 2.0149e-20 -0 -3.21795e-19 -0 -1.43775e-19)
(4.46564e-19 -7.87685e-21 -0 -2.83782e-19 -0 -1.62782e-19)
(1.49238e-19 7.51938e-22 -0 -2.98476e-19 -0 1.49238e-19)
(1.11214e-19 -9.88131e-20 -0 -2.22428e-19 -0 1.11214e-19)
(4.09375e-21 -5.72885e-20 -0 -8.18749e-21 -0 4.09375e-21)
)
;

boundaryField
{
    movingWall
    {
        type            calculated;
        value           nonuniform List<symmTensor> 
20
(
(4.84612e-17 2.59505e-17 -0 -1.02343e-16 -0 5.38822e-17)
(-7.12006e-18 -1.78612e-17 -0 1.69506e-17 -0 -9.83056e-18)
(1.71536e-18 7.21443e-18 -0 -3.97283e-18 -0 2.25747e-18)
(1.4684e-20 1.5408e-18 -0 5.12733e-19 -0 -5.27417e-19)
(6.25782e-19 2.8827e-18 -0 -7.09463e-19 -0 8.3681e-20)
(2.35057e-19 2.17428e-18 -0 -4.70113e-19 -0 2.35057e-19)
(5.02667e-19 1.68535e-18 -0 -4.63232e-19 -0 -3.94343e-20)
(-7.63231e-21 2.18502e-18 -0 1.52646e-20 -0 -7.63231e-21)
(4.08208e-19 1.71828e-18 -0 -2.74315e-19 -0 -1.33893e-19)
(-1.62515e-19 7.45823e-19 -0 3.25029e-19 -0 -1.62515e-19)
(-6.94209e-19 5.10654e-19 -0 8.46317e-19 -0 -1.52108e-19)
(-3.46409e-19 2.92339e-18 -0 1.50717e-19 -0 1.95692e-19)
(1.08027e-18 1.82722e-18 -0 -1.07635e-18 -0 -3.92746e-21)
(1.50636e-19 1.23589e-18 -0 -3.01271e-19 -0 1.50636e-19)
(1.00468e-19 4.77214e-19 -0 -2.00936e-19 -0 1.00468e-19)
(6.00368e-19 9.06104e-19 -0 -6.58635e-19 -0 5.82667e-20)
(5.0967e-19 -7.0076e-21 -0 -4.77238e-19 -0 -3.24313e-20)
(2.2028e-19 6.68957e-22 -0 -4.4056e-19 -0 2.2028e-19)
(1.50053e-19 -8.79085e-20 -0 -3.00106e-19 -0 1.50053e-19)
(-1.41425e-20 -5.09664e-20 -0 2.82851e-20 -0 -1.41425e-20)
)
;
    }
    fixedWalls
    {
        type            calculated;
        value           nonuniform List<symmTensor> 
60
(
(2.463e-17 -1.20864e-16 -0 -5.10363e-17 -0 2.64063e-17)
(-1.19795e-17 -3.04976e-17 -0 5.4157e-17 -0 -4.21776e-17)
(-1.38714e-17 6.82816e-17 -0 2.50783e-17 -0 -1.12069e-17)
(4.71643e-17 3.39412e-17 -0 -6.23541e-17 -0 1.51898e-17)
(-5.30539e-17 -8.08432e-17 -0 3.68299e-17 -0 1.6224e-17)
(3.99887e-17 8.46398e-17 -0 -4.12558e-20 -0 -3.99474e-17)
(-4.08319e-18 -6.18087e-18 -0 -5.22298e-17 -0 5.63129e-17)
(2.76255e-17 -1.43017e-16 -0 3.17904e-17 -0 -5.9416e-17)
(-1.04829e-16 1.70811e-16 -0 7.55424e-17 -0 2.92863e-17)
(7.01651e-17 -2.06888e-17 -0 -8.70395e-17 -0 1.68744e-17)
(1.00325e-17 -4.67746e-17 -0 8.35676e-18 -0 -1.83892e-17)
(-4.91909e-17 2.19611e-17 -0 3.70974e-17 -0 1.20934e-17)
(7.32646e-17 1.48885e-17 -0 -3.81714e-17 -0 -3.50932e-17)
(-4.27049e-17 -3.1688e-18 -0 3.69747e-18 -0 3.90075e-17)
(7.6349e-18 -3.83842e-17 -0 1.67046e-17 -0 -2.43395e-17)
(2.25484e-17 8.24432e-17 -0 -7.79333e-18 -0 -1.47551e-17)
(1.86522e-17 -4.69579e-17 -0 -5.50679e-17 -0 3.64157e-17)
(-3.85986e-17 -9.26636e-17 -0 5.32163e-17 -0 -1.46177e-17)
(-2.88241e-17 9.71127e-17 -0 5.76483e-17 -0 -2.88241e-17)
(1.60873e-17 8.05522e-17 -0 -5.17145e-17 -0 3.56272e-17)
(5.05007e-20 2.42406e-19 -0 -1.01001e-19 -0 5.05007e-20)
(-1.29493e-18 6.05983e-20 -0 8.13509e-19 -0 4.81424e-19)
(-5.77953e-20 -6.92814e-19 -0 1.15591e-19 -0 -5.77953e-20)
(1.26021e-18 -5.57224e-19 -0 -7.44073e-19 -0 -5.16142e-19)
(6.83959e-19 3.05148e-19 -0 -4.79739e-19 -0 -2.0422e-19)
(6.46512e-19 2.64866e-19 -0 -4.04845e-19 -0 -2.41667e-19)
(1.19361e-18 3.60455e-19 -0 -6.10854e-19 -0 -5.82752e-19)
(-2.90461e-20 5.92121e-19 -0 5.80923e-20 -0 -2.90461e-20)
(-6.41731e-20 1.86178e-19 -0 1.28346e-19 -0 -6.41731e-20)
(-2.87765e-20 -6.3968e-20 -0 5.7553e-20 -0 -2.87765e-20)
(6.21988e-19 1.35188e-20 -0 -3.55797e-19 -0 -2.66191e-19)
(-5.27903e-20 1.15244e-19 -0 1.05581e-19 -0 -5.27903e-20)
(-1.27759e-18 -3.03223e-19 -0 7.78822e-19 -0 4.98767e-19)
(6.38582e-19 -7.15917e-19 -0 -3.88985e-19 -0 -2.49597e-19)
(1.2852e-18 -2.95496e-19 -0 -7.94041e-19 -0 -4.91158e-19)
(6.12486e-19 7.03001e-19 -0 -3.36793e-19 -0 -2.75693e-19)
(-2.80215e-20 9.77549e-20 -0 5.60431e-20 -0 -2.80215e-20)
(-2.34701e-20 -7.22906e-21 -0 4.69402e-20 -0 -2.34701e-20)
(4.74048e-21 -4.30657e-20 -0 -9.48096e-21 -0 4.74048e-21)
(3.64198e-21 2.12138e-20 -0 -7.28396e-21 -0 3.64198e-21)
(8.18408e-17 -2.55973e-17 -0 -1.65308e-16 -0 8.34671e-17)
(-1.81182e-17 2.70852e-17 -0 3.461e-17 -0 -1.64919e-17)
(3.59241e-18 -1.00555e-17 -0 -7.18481e-18 -0 3.59241e-18)
(-5.15968e-19 -9.56993e-19 -0 1.57404e-18 -0 -1.05807e-18)
(-4.99603e-19 -3.48984e-18 -0 -8.49969e-20 -0 5.846e-19)
(5.00616e-19 -3.54999e-18 -0 -4.5913e-19 -0 -4.14853e-20)
(5.7733e-19 -2.74083e-18 -0 -6.12559e-19 -0 3.5229e-20)
(3.42667e-19 -2.76544e-18 -0 -6.85333e-19 -0 3.42667e-19)
(8.46422e-19 -2.6158e-18 -0 -1.15074e-18 -0 3.04321e-19)
(9.35515e-19 -1.13415e-18 -0 -7.86828e-19 -0 -1.48687e-19)
(-4.047e-19 -1.71428e-18 -0 2.67299e-19 -0 1.37401e-19)
(4.71772e-20 -1.89562e-18 -0 -9.43544e-20 -0 4.71772e-20)
(6.36135e-19 -1.80816e-18 -0 -7.30169e-19 -0 9.40337e-20)
(1.31995e-19 -8.20104e-19 -0 -2.63991e-19 -0 1.31995e-19)
(9.32022e-20 -8.62345e-19 -0 -1.86404e-19 -0 9.32022e-20)
(4.24506e-19 -4.39609e-19 -0 -3.06911e-19 -0 -1.17595e-19)
(4.42655e-19 5.15443e-20 -0 -3.43209e-19 -0 -9.94462e-20)
(-4.35747e-19 -4.3742e-19 -0 3.29393e-19 -0 1.06354e-19)
(4.2487e-19 -5.32571e-19 -0 -3.0764e-19 -0 -1.17231e-19)
(1.61604e-19 8.44026e-20 -0 -3.23208e-19 -0 1.61604e-19)
)
;
    }
    frontAndBack
    {
        type            empty;
    }
}


// ************************************************************************* //
