/*--------------------------------*- C++ -*----------------------------------*\
| =========                 |                                                 |
| \\      /  F ield         | OpenFOAM: The Open Source CFD Toolbox           |
|  \\    /   O peration     | Version:  2312                                  |
|   \\  /    A nd           | Website:  www.openfoam.com                      |
|    \\/     M anipulation  |                                                 |
\*---------------------------------------------------------------------------*/
FoamFile
{
    version     2.0;
    format      ascii;
    arch        "LSB;label=32;scalar=64";
    class       volScalarField;
    location    "8";
    object      turbulenceProperties:k;
}
// * * * * * * * * * * * * * * * * * * * * * * * * * * * * * * * * * * * * * //

dimensions      [0 2 -2 0 0 0 0];

internalField   nonuniform List<scalar> 
400
(
4.10937e-06
4.10937e-06
4.10937e-06
4.10937e-06
4.10937e-06
4.10937e-06
4.10936e-06
4.10937e-06
4.10936e-06
4.10936e-06
4.10936e-06
4.10936e-06
4.10936e-06
4.10936e-06
4.10936e-06
4.10936e-06
4.10936e-06
4.10936e-06
4.10936e-06
4.10936e-06
4.19636e-06
4.19636e-06
4.19622e-06
4.19618e-06
4.19608e-06
4.19604e-06
4.19595e-06
4.19592e-06
4.19585e-06
4.19582e-06
4.19576e-06
4.19574e-06
4.19569e-06
4.19568e-06
4.19564e-06
4.19563e-06
4.1956e-06
4.1956e-06
4.19559e-06
4.19559e-06
4.33184e-06
4.33184e-06
4.33169e-06
4.33164e-06
4.33153e-06
4.33149e-06
4.3314e-06
4.33135e-06
4.33129e-06
4.33124e-06
4.33119e-06
4.33116e-06
4.33112e-06
4.33109e-06
4.33106e-06
4.33104e-06
4.33102e-06
4.33102e-06
4.33101e-06
4.33101e-06
4.47135e-06
4.47136e-06
4.47118e-06
4.47115e-06
4.47102e-06
4.47098e-06
4.47088e-06
4.47084e-06
4.47076e-06
4.47071e-06
4.47066e-06
4.47062e-06
4.47058e-06
4.47055e-06
4.47052e-06
4.4705e-06
4.47048e-06
4.47047e-06
4.47047e-06
4.47046e-06
4.58626e-06
4.58626e-06
4.58609e-06
4.58604e-06
4.58591e-06
4.58586e-06
4.58577e-06
4.58571e-06
4.58565e-06
4.58559e-06
4.58554e-06
4.58549e-06
4.58545e-06
4.58542e-06
4.58539e-06
4.58536e-06
4.58535e-06
4.58534e-06
4.58533e-06
4.58533e-06
4.66844e-06
4.66844e-06
4.66826e-06
4.6682e-06
4.66808e-06
4.66802e-06
4.66793e-06
4.66787e-06
4.66779e-06
4.66774e-06
4.66768e-06
4.66764e-06
4.66759e-06
4.66756e-06
4.66753e-06
4.66751e-06
4.66749e-06
4.66748e-06
4.66747e-06
4.66747e-06
4.72229e-06
4.72229e-06
4.72212e-06
4.72205e-06
4.72193e-06
4.72186e-06
4.72178e-06
4.7217e-06
4.72164e-06
4.72158e-06
4.72153e-06
4.72147e-06
4.72143e-06
4.7214e-06
4.72136e-06
4.72134e-06
4.72132e-06
4.72131e-06
4.7213e-06
4.7213e-06
4.75627e-06
4.75627e-06
4.75609e-06
4.75603e-06
4.7559e-06
4.75584e-06
4.75574e-06
4.75567e-06
4.75561e-06
4.75555e-06
4.75549e-06
4.75544e-06
4.7554e-06
4.75536e-06
4.75533e-06
4.7553e-06
4.75528e-06
4.75527e-06
4.75527e-06
4.75526e-06
4.7781e-06
4.7781e-06
4.77792e-06
4.77785e-06
4.77773e-06
4.77767e-06
4.77757e-06
4.77751e-06
4.77743e-06
4.77737e-06
4.77731e-06
4.77727e-06
4.77721e-06
4.77718e-06
4.77715e-06
4.77713e-06
4.7771e-06
4.77709e-06
4.77709e-06
4.77708e-06
4.79331e-06
4.79331e-06
4.79313e-06
4.79306e-06
4.79294e-06
4.79288e-06
4.79278e-06
4.79271e-06
4.79264e-06
4.79258e-06
4.79252e-06
4.79247e-06
4.79243e-06
4.79239e-06
4.79236e-06
4.79233e-06
4.79231e-06
4.7923e-06
4.79229e-06
4.79229e-06
4.80539e-06
4.80539e-06
4.8052e-06
4.80514e-06
4.80501e-06
4.80495e-06
4.80485e-06
4.80479e-06
4.80471e-06
4.80465e-06
4.80459e-06
4.80455e-06
4.80449e-06
4.80447e-06
4.80442e-06
4.80441e-06
4.80438e-06
4.80437e-06
4.80436e-06
4.80436e-06
4.81637e-06
4.81637e-06
4.81617e-06
4.81612e-06
4.81598e-06
4.81593e-06
4.81582e-06
4.81576e-06
4.81568e-06
4.81563e-06
4.81557e-06
4.81552e-06
4.81547e-06
4.81544e-06
4.8154e-06
4.81538e-06
4.81535e-06
4.81534e-06
4.81534e-06
4.81533e-06
4.82742e-06
4.82742e-06
4.82723e-06
4.82717e-06
4.82704e-06
4.82697e-06
4.82688e-06
4.8268e-06
4.82674e-06
4.82667e-06
4.82662e-06
4.82656e-06
4.82652e-06
4.82648e-06
4.82645e-06
4.82643e-06
4.8264e-06
4.82639e-06
4.82638e-06
4.82638e-06
4.8392e-06
4.8392e-06
4.83902e-06
4.83896e-06
4.83882e-06
4.83877e-06
4.83865e-06
4.83861e-06
4.83851e-06
4.83847e-06
4.83838e-06
4.83837e-06
4.83829e-06
4.83828e-06
4.83822e-06
4.83821e-06
4.83818e-06
4.83818e-06
4.83816e-06
4.83816e-06
4.85202e-06
4.85202e-06
4.85184e-06
4.85177e-06
4.85164e-06
4.85157e-06
4.85148e-06
4.8514e-06
4.85133e-06
4.85127e-06
4.85121e-06
4.85116e-06
4.85111e-06
4.85108e-06
4.85104e-06
4.85102e-06
4.851e-06
4.85099e-06
4.85098e-06
4.85097e-06
4.86577e-06
4.86577e-06
4.86558e-06
4.86552e-06
4.86538e-06
4.86533e-06
4.86521e-06
4.86516e-06
4.86507e-06
4.86503e-06
4.86495e-06
4.86492e-06
4.86485e-06
4.86483e-06
4.86478e-06
4.86477e-06
4.86474e-06
4.86473e-06
4.86472e-06
4.86472e-06
4.87983e-06
4.87983e-06
4.87964e-06
4.87958e-06
4.87944e-06
4.87938e-06
4.87928e-06
4.87921e-06
4.87913e-06
4.87907e-06
4.87901e-06
4.87896e-06
4.87892e-06
4.87887e-06
4.87884e-06
4.87881e-06
4.8788e-06
4.87878e-06
4.87878e-06
4.87877e-06
4.89293e-06
4.89292e-06
4.89273e-06
4.89267e-06
4.89252e-06
4.89248e-06
4.89235e-06
4.89232e-06
4.89221e-06
4.89217e-06
4.89209e-06
4.89206e-06
4.89199e-06
4.89198e-06
4.89192e-06
4.89191e-06
4.89188e-06
4.89188e-06
4.89186e-06
4.89186e-06
4.90324e-06
4.90324e-06
4.90305e-06
4.90299e-06
4.90286e-06
4.9028e-06
4.9027e-06
4.90263e-06
4.90255e-06
4.9025e-06
4.90243e-06
4.9024e-06
4.90233e-06
4.90231e-06
4.90226e-06
4.90225e-06
4.90222e-06
4.90221e-06
4.9022e-06
4.9022e-06
4.90797e-06
4.90796e-06
4.90796e-06
4.90796e-06
4.90796e-06
4.90796e-06
4.90795e-06
4.90796e-06
4.90795e-06
4.90796e-06
4.90795e-06
4.90795e-06
4.90795e-06
4.90795e-06
4.90795e-06
4.90795e-06
4.90795e-06
4.90795e-06
4.90795e-06
4.90795e-06
)
;

boundaryField
{
    movingWall
    {
        type            kqRWallFunction;
        value           nonuniform List<scalar> 
20
(
4.90797e-06
4.90796e-06
4.90796e-06
4.90796e-06
4.90796e-06
4.90796e-06
4.90795e-06
4.90796e-06
4.90795e-06
4.90796e-06
4.90795e-06
4.90795e-06
4.90795e-06
4.90795e-06
4.90795e-06
4.90795e-06
4.90795e-06
4.90795e-06
4.90795e-06
4.90795e-06
)
;
    }
    fixedWalls
    {
        type            kqRWallFunction;
        value           nonuniform List<scalar> 
60
(
4.10937e-06
4.19636e-06
4.33184e-06
4.47135e-06
4.58626e-06
4.66844e-06
4.72229e-06
4.75627e-06
4.7781e-06
4.79331e-06
4.80539e-06
4.81637e-06
4.82742e-06
4.8392e-06
4.85202e-06
4.86577e-06
4.87983e-06
4.89293e-06
4.90324e-06
4.90797e-06
4.10936e-06
4.19559e-06
4.33101e-06
4.47046e-06
4.58533e-06
4.66747e-06
4.7213e-06
4.75526e-06
4.77708e-06
4.79229e-06
4.80436e-06
4.81533e-06
4.82638e-06
4.83816e-06
4.85097e-06
4.86472e-06
4.87877e-06
4.89186e-06
4.9022e-06
4.90795e-06
4.10937e-06
4.10937e-06
4.10937e-06
4.10937e-06
4.10937e-06
4.10937e-06
4.10936e-06
4.10937e-06
4.10936e-06
4.10936e-06
4.10936e-06
4.10936e-06
4.10936e-06
4.10936e-06
4.10936e-06
4.10936e-06
4.10936e-06
4.10936e-06
4.10936e-06
4.10936e-06
)
;
    }
    frontAndBack
    {
        type            empty;
    }
}


// ************************************************************************* //
