/*--------------------------------*- C++ -*----------------------------------*\
| =========                 |                                                 |
| \\      /  F ield         | OpenFOAM: The Open Source CFD Toolbox           |
|  \\    /   O peration     | Version:  2312                                  |
|   \\  /    A nd           | Website:  www.openfoam.com                      |
|    \\/     M anipulation  |                                                 |
\*---------------------------------------------------------------------------*/
FoamFile
{
    version     2.0;
    format      ascii;
    arch        "LSB;label=32;scalar=64";
    class       volScalarField;
    location    "8";
    object      turbulenceProperties:I;
}
// * * * * * * * * * * * * * * * * * * * * * * * * * * * * * * * * * * * * * //

dimensions      [0 0 0 0 0 0 0];

internalField   nonuniform List<scalar> 
400
(
0.00165517
0.00165517
0.00165517
0.00165517
0.00165517
0.00165517
0.00165517
0.00165517
0.00165517
0.00165517
0.00165517
0.00165517
0.00165517
0.00165517
0.00165517
0.00165517
0.00165517
0.00165517
0.00165517
0.00165517
0.00167259
0.0016726
0.00167257
0.00167256
0.00167254
0.00167253
0.00167251
0.00167251
0.00167249
0.00167249
0.00167247
0.00167247
0.00167246
0.00167246
0.00167245
0.00167245
0.00167244
0.00167244
0.00167244
0.00167244
0.00169938
0.00169938
0.00169935
0.00169934
0.00169932
0.00169931
0.00169929
0.00169928
0.00169927
0.00169926
0.00169925
0.00169925
0.00169924
0.00169923
0.00169923
0.00169922
0.00169922
0.00169922
0.00169922
0.00169922
0.00172653
0.00172653
0.0017265
0.00172649
0.00172646
0.00172646
0.00172644
0.00172643
0.00172642
0.00172641
0.0017264
0.00172639
0.00172638
0.00172637
0.00172637
0.00172636
0.00172636
0.00172636
0.00172636
0.00172636
0.00174857
0.00174857
0.00174854
0.00174853
0.00174851
0.0017485
0.00174848
0.00174847
0.00174846
0.00174844
0.00174844
0.00174843
0.00174842
0.00174841
0.00174841
0.0017484
0.0017484
0.0017484
0.0017484
0.00174839
0.00176417
0.00176417
0.00176414
0.00176412
0.0017641
0.00176409
0.00176407
0.00176406
0.00176405
0.00176404
0.00176403
0.00176402
0.00176401
0.001764
0.001764
0.00176399
0.00176399
0.00176399
0.00176399
0.00176399
0.00177431
0.00177431
0.00177428
0.00177427
0.00177425
0.00177423
0.00177422
0.0017742
0.00177419
0.00177418
0.00177417
0.00177416
0.00177415
0.00177415
0.00177414
0.00177414
0.00177413
0.00177413
0.00177413
0.00177413
0.00178069
0.00178069
0.00178065
0.00178064
0.00178062
0.00178061
0.00178059
0.00178057
0.00178056
0.00178055
0.00178054
0.00178053
0.00178052
0.00178052
0.00178051
0.00178051
0.0017805
0.0017805
0.0017805
0.0017805
0.00178477
0.00178477
0.00178473
0.00178472
0.0017847
0.00178469
0.00178467
0.00178466
0.00178464
0.00178463
0.00178462
0.00178461
0.0017846
0.0017846
0.00178459
0.00178459
0.00178458
0.00178458
0.00178458
0.00178458
0.00178761
0.00178761
0.00178757
0.00178756
0.00178754
0.00178753
0.00178751
0.0017875
0.00178748
0.00178747
0.00178746
0.00178745
0.00178744
0.00178744
0.00178743
0.00178742
0.00178742
0.00178742
0.00178742
0.00178742
0.00178986
0.00178986
0.00178982
0.00178981
0.00178979
0.00178978
0.00178976
0.00178975
0.00178973
0.00178972
0.00178971
0.0017897
0.00178969
0.00178969
0.00178968
0.00178968
0.00178967
0.00178967
0.00178967
0.00178967
0.0017919
0.0017919
0.00179187
0.00179186
0.00179183
0.00179182
0.0017918
0.00179179
0.00179177
0.00179176
0.00179175
0.00179174
0.00179173
0.00179173
0.00179172
0.00179172
0.00179171
0.00179171
0.00179171
0.00179171
0.00179396
0.00179396
0.00179392
0.00179391
0.00179389
0.00179387
0.00179386
0.00179384
0.00179383
0.00179382
0.00179381
0.0017938
0.00179379
0.00179378
0.00179378
0.00179377
0.00179377
0.00179377
0.00179376
0.00179376
0.00179614
0.00179614
0.00179611
0.0017961
0.00179607
0.00179606
0.00179604
0.00179603
0.00179602
0.00179601
0.00179599
0.00179599
0.00179597
0.00179597
0.00179596
0.00179596
0.00179595
0.00179595
0.00179595
0.00179595
0.00179852
0.00179852
0.00179849
0.00179848
0.00179845
0.00179844
0.00179842
0.00179841
0.00179839
0.00179838
0.00179837
0.00179836
0.00179835
0.00179835
0.00179834
0.00179834
0.00179833
0.00179833
0.00179833
0.00179833
0.00180107
0.00180107
0.00180103
0.00180102
0.001801
0.00180099
0.00180096
0.00180096
0.00180094
0.00180093
0.00180092
0.00180091
0.0018009
0.00180089
0.00180089
0.00180088
0.00180088
0.00180088
0.00180087
0.00180087
0.00180367
0.00180367
0.00180363
0.00180362
0.0018036
0.00180358
0.00180357
0.00180355
0.00180354
0.00180353
0.00180352
0.00180351
0.0018035
0.00180349
0.00180349
0.00180348
0.00180348
0.00180348
0.00180347
0.00180347
0.00180609
0.00180609
0.00180605
0.00180604
0.00180601
0.00180601
0.00180598
0.00180597
0.00180595
0.00180595
0.00180593
0.00180593
0.00180591
0.00180591
0.0018059
0.0018059
0.00180589
0.00180589
0.00180589
0.00180589
0.00180799
0.00180799
0.00180796
0.00180794
0.00180792
0.00180791
0.00180789
0.00180788
0.00180786
0.00180785
0.00180784
0.00180783
0.00180782
0.00180782
0.00180781
0.00180781
0.0018078
0.0018078
0.0018078
0.0018078
0.00180886
0.00180886
0.00180886
0.00180886
0.00180886
0.00180886
0.00180886
0.00180886
0.00180886
0.00180886
0.00180886
0.00180886
0.00180886
0.00180886
0.00180886
0.00180886
0.00180886
0.00180886
0.00180886
0.00180886
)
;

boundaryField
{
    movingWall
    {
        type            calculated;
        value           nonuniform List<scalar> 
20
(
0.00180886
0.00180886
0.00180886
0.00180886
0.00180886
0.00180886
0.00180886
0.00180886
0.00180886
0.00180886
0.00180886
0.00180886
0.00180886
0.00180886
0.00180886
0.00180886
0.00180886
0.00180886
0.00180886
0.00180886
)
;
    }
    fixedWalls
    {
        type            calculated;
        value           nonuniform List<scalar> 
60
(
0.00165517
0.00167259
0.00169938
0.00172653
0.00174857
0.00176417
0.00177431
0.00178069
0.00178477
0.00178761
0.00178986
0.0017919
0.00179396
0.00179614
0.00179852
0.00180107
0.00180367
0.00180609
0.00180799
0.00180886
0.00165517
0.00167244
0.00169922
0.00172636
0.00174839
0.00176399
0.00177413
0.0017805
0.00178458
0.00178742
0.00178967
0.00179171
0.00179376
0.00179595
0.00179833
0.00180087
0.00180347
0.00180589
0.0018078
0.00180886
0.00165517
0.00165517
0.00165517
0.00165517
0.00165517
0.00165517
0.00165517
0.00165517
0.00165517
0.00165517
0.00165517
0.00165517
0.00165517
0.00165517
0.00165517
0.00165517
0.00165517
0.00165517
0.00165517
0.00165517
)
;
    }
    frontAndBack
    {
        type            empty;
    }
}


// ************************************************************************* //
