/*--------------------------------*- C++ -*----------------------------------*\
| =========                 |                                                 |
| \\      /  F ield         | OpenFOAM: The Open Source CFD Toolbox           |
|  \\    /   O peration     | Version:  2312                                  |
|   \\  /    A nd           | Website:  www.openfoam.com                      |
|    \\/     M anipulation  |                                                 |
\*---------------------------------------------------------------------------*/
FoamFile
{
    version     2.0;
    format      ascii;
    arch        "LSB;label=32;scalar=64";
    class       volSymmTensorField;
    location    "8";
    object      turbulenceProperties:R;
}
// * * * * * * * * * * * * * * * * * * * * * * * * * * * * * * * * * * * * * //

dimensions      [0 2 -2 0 0 0 0];

internalField   nonuniform List<symmTensor> 
400
(
(2.73958e-06 -2.40538e-18 -0 2.73958e-06 -0 2.73958e-06)
(2.73958e-06 3.37775e-18 -0 2.73958e-06 -0 2.73958e-06)
(2.73958e-06 -6.2635e-19 -0 2.73958e-06 -0 2.73958e-06)
(2.73958e-06 1.74225e-19 -0 2.73958e-06 -0 2.73958e-06)
(2.73958e-06 -7.40579e-20 -0 2.73958e-06 -0 2.73958e-06)
(2.73958e-06 3.0951e-22 -0 2.73958e-06 -0 2.73958e-06)
(2.73957e-06 -8.66237e-21 -0 2.73957e-06 -0 2.73957e-06)
(2.73958e-06 -1.14571e-20 -0 2.73958e-06 -0 2.73958e-06)
(2.73957e-06 -5.60165e-20 -0 2.73957e-06 -0 2.73957e-06)
(2.73958e-06 2.24943e-20 -0 2.73958e-06 -0 2.73958e-06)
(2.73957e-06 7.04805e-21 -0 2.73957e-06 -0 2.73957e-06)
(2.73958e-06 -1.35409e-20 -0 2.73958e-06 -0 2.73958e-06)
(2.73957e-06 -3.4386e-20 -0 2.73957e-06 -0 2.73957e-06)
(2.73957e-06 7.72908e-21 -0 2.73957e-06 -0 2.73957e-06)
(2.73957e-06 -2.78416e-20 -0 2.73957e-06 -0 2.73957e-06)
(2.73957e-06 5.08711e-22 -0 2.73957e-06 -0 2.73957e-06)
(2.73957e-06 5.85227e-21 -0 2.73957e-06 -0 2.73957e-06)
(2.73957e-06 7.57211e-22 -0 2.73957e-06 -0 2.73957e-06)
(2.73957e-06 -1.00461e-20 -0 2.73957e-06 -0 2.73957e-06)
(2.73957e-06 9.58295e-21 -0 2.73957e-06 -0 2.73957e-06)
(2.79757e-06 -7.21127e-19 -0 2.79757e-06 -0 2.79757e-06)
(2.79758e-06 9.86752e-19 -0 2.79758e-06 -0 2.79758e-06)
(2.79748e-06 3.83668e-20 -0 2.79748e-06 -0 2.79748e-06)
(2.79745e-06 1.19248e-19 -0 2.79745e-06 -0 2.79745e-06)
(2.79738e-06 9.31181e-20 -0 2.79738e-06 -0 2.79738e-06)
(2.79736e-06 1.61102e-19 -0 2.79736e-06 -0 2.79736e-06)
(2.7973e-06 8.50666e-20 -0 2.7973e-06 -0 2.7973e-06)
(2.79728e-06 1.37175e-19 -0 2.79728e-06 -0 2.79728e-06)
(2.79723e-06 1.27187e-19 -0 2.79723e-06 -0 2.79723e-06)
(2.79721e-06 8.36745e-20 -0 2.79721e-06 -0 2.79721e-06)
(2.79717e-06 9.03306e-20 -0 2.79717e-06 -0 2.79717e-06)
(2.79716e-06 7.51365e-20 -0 2.79716e-06 -0 2.79716e-06)
(2.79712e-06 3.77599e-20 -0 2.79712e-06 -0 2.79712e-06)
(2.79712e-06 6.82573e-20 -0 2.79712e-06 -0 2.79712e-06)
(2.79709e-06 7.92869e-20 -0 2.79709e-06 -0 2.79709e-06)
(2.79709e-06 9.02656e-20 -0 2.79709e-06 -0 2.79709e-06)
(2.79707e-06 7.37274e-20 -0 2.79707e-06 -0 2.79707e-06)
(2.79707e-06 1.28382e-20 -0 2.79707e-06 -0 2.79707e-06)
(2.79706e-06 1.19867e-21 -0 2.79706e-06 -0 2.79706e-06)
(2.79706e-06 -1.05452e-21 -0 2.79706e-06 -0 2.79706e-06)
(2.88789e-06 1.62119e-18 -0 2.88789e-06 -0 2.88789e-06)
(2.88789e-06 -2.19482e-18 -0 2.88789e-06 -0 2.88789e-06)
(2.88779e-06 7.95446e-20 -0 2.88779e-06 -0 2.88779e-06)
(2.88776e-06 -2.4092e-19 -0 2.88776e-06 -0 2.88776e-06)
(2.88769e-06 -1.61655e-19 -0 2.88769e-06 -0 2.88769e-06)
(2.88766e-06 -2.27774e-19 -0 2.88766e-06 -0 2.88766e-06)
(2.8876e-06 -1.4094e-19 -0 2.8876e-06 -0 2.8876e-06)
(2.88757e-06 -1.75001e-19 -0 2.88757e-06 -0 2.88757e-06)
(2.88753e-06 -1.06523e-19 -0 2.88753e-06 -0 2.88753e-06)
(2.8875e-06 -9.65996e-20 -0 2.8875e-06 -0 2.8875e-06)
(2.88746e-06 -8.79099e-20 -0 2.88746e-06 -0 2.88746e-06)
(2.88744e-06 -9.25094e-20 -0 2.88744e-06 -0 2.88744e-06)
(2.88741e-06 -3.48506e-20 -0 2.88741e-06 -0 2.88741e-06)
(2.88739e-06 -1.05614e-20 -0 2.88739e-06 -0 2.88739e-06)
(2.88737e-06 -7.58867e-20 -0 2.88737e-06 -0 2.88737e-06)
(2.88736e-06 -3.32568e-20 -0 2.88736e-06 -0 2.88736e-06)
(2.88735e-06 7.63791e-21 -0 2.88735e-06 -0 2.88735e-06)
(2.88735e-06 -1.33403e-20 -0 2.88735e-06 -0 2.88735e-06)
(2.88734e-06 1.31895e-20 -0 2.88734e-06 -0 2.88734e-06)
(2.88734e-06 -5.80445e-20 -0 2.88734e-06 -0 2.88734e-06)
(2.9809e-06 3.34136e-20 -0 2.9809e-06 -0 2.9809e-06)
(2.98091e-06 -1.08332e-18 -0 2.98091e-06 -0 2.98091e-06)
(2.98079e-06 5.20473e-20 -0 2.98079e-06 -0 2.98079e-06)
(2.98076e-06 -9.23966e-20 -0 2.98076e-06 -0 2.98076e-06)
(2.98068e-06 -1.46693e-20 -0 2.98068e-06 -0 2.98068e-06)
(2.98065e-06 -4.56404e-20 -0 2.98065e-06 -0 2.98065e-06)
(2.98059e-06 -4.16058e-20 -0 2.98059e-06 -0 2.98059e-06)
(2.98056e-06 -6.62955e-20 -0 2.98056e-06 -0 2.98056e-06)
(2.98051e-06 -3.69659e-20 -0 2.98051e-06 -0 2.98051e-06)
(2.98048e-06 -3.40011e-20 -0 2.98048e-06 -0 2.98048e-06)
(2.98044e-06 -2.65199e-20 -0 2.98044e-06 -0 2.98044e-06)
(2.98041e-06 -3.73204e-20 -0 2.98041e-06 -0 2.98041e-06)
(2.98039e-06 1.62559e-20 -0 2.98039e-06 -0 2.98039e-06)
(2.98037e-06 -1.36897e-20 -0 2.98037e-06 -0 2.98037e-06)
(2.98035e-06 -3.05304e-21 -0 2.98035e-06 -0 2.98035e-06)
(2.98033e-06 -4.92752e-20 -0 2.98033e-06 -0 2.98033e-06)
(2.98032e-06 -1.0735e-19 -0 2.98032e-06 -0 2.98032e-06)
(2.98032e-06 7.92485e-21 -0 2.98032e-06 -0 2.98032e-06)
(2.98031e-06 -3.02687e-20 -0 2.98031e-06 -0 2.98031e-06)
(2.98031e-06 -4.89731e-20 -0 2.98031e-06 -0 2.98031e-06)
(3.05751e-06 -1.37346e-18 -0 3.05751e-06 -0 3.05751e-06)
(3.0575e-06 2.48535e-18 -0 3.0575e-06 -0 3.0575e-06)
(3.05739e-06 -2.78156e-19 -0 3.05739e-06 -0 3.05739e-06)
(3.05736e-06 1.411e-19 -0 3.05736e-06 -0 3.05736e-06)
(3.05728e-06 4.7646e-20 -0 3.05728e-06 -0 3.05728e-06)
(3.05724e-06 3.40984e-20 -0 3.05724e-06 -0 3.05724e-06)
(3.05718e-06 8.38849e-21 -0 3.05718e-06 -0 3.05718e-06)
(3.05714e-06 9.38129e-21 -0 3.05714e-06 -0 3.05714e-06)
(3.0571e-06 1.99213e-20 -0 3.0571e-06 -0 3.0571e-06)
(3.05706e-06 1.88251e-20 -0 3.05706e-06 -0 3.05706e-06)
(3.05703e-06 2.80509e-20 -0 3.05703e-06 -0 3.05703e-06)
(3.05699e-06 3.90098e-21 -0 3.05699e-06 -0 3.05699e-06)
(3.05697e-06 1.37548e-20 -0 3.05697e-06 -0 3.05697e-06)
(3.05694e-06 -5.21635e-20 -0 3.05694e-06 -0 3.05694e-06)
(3.05693e-06 4.84565e-21 -0 3.05693e-06 -0 3.05693e-06)
(3.05691e-06 6.56632e-22 -0 3.05691e-06 -0 3.05691e-06)
(3.0569e-06 5.69532e-20 -0 3.0569e-06 -0 3.0569e-06)
(3.05689e-06 8.93394e-20 -0 3.05689e-06 -0 3.05689e-06)
(3.05689e-06 3.65571e-20 -0 3.05689e-06 -0 3.05689e-06)
(3.05688e-06 3.72195e-20 -0 3.05688e-06 -0 3.05688e-06)
(3.11229e-06 2.19786e-18 -0 3.11229e-06 -0 3.11229e-06)
(3.11229e-06 -2.44358e-18 -0 3.11229e-06 -0 3.11229e-06)
(3.11217e-06 5.30369e-19 -0 3.11217e-06 -0 3.11217e-06)
(3.11213e-06 -1.06308e-19 -0 3.11213e-06 -0 3.11213e-06)
(3.11205e-06 2.55761e-20 -0 3.11205e-06 -0 3.11205e-06)
(3.11202e-06 -3.8204e-21 -0 3.11202e-06 -0 3.11202e-06)
(3.11195e-06 -2.17535e-21 -0 3.11195e-06 -0 3.11195e-06)
(3.11191e-06 -1.83772e-20 -0 3.11191e-06 -0 3.11191e-06)
(3.11186e-06 -5.68581e-20 -0 3.11186e-06 -0 3.11186e-06)
(3.11183e-06 -3.57355e-20 -0 3.11183e-06 -0 3.11183e-06)
(3.11179e-06 -5.06471e-20 -0 3.11179e-06 -0 3.11179e-06)
(3.11176e-06 -5.33653e-20 -0 3.11176e-06 -0 3.11176e-06)
(3.11173e-06 -8.99378e-20 -0 3.11173e-06 -0 3.11173e-06)
(3.11171e-06 -4.05122e-20 -0 3.11171e-06 -0 3.11171e-06)
(3.11169e-06 -3.42191e-20 -0 3.11169e-06 -0 3.11169e-06)
(3.11167e-06 -3.7185e-20 -0 3.11167e-06 -0 3.11167e-06)
(3.11166e-06 -3.10306e-20 -0 3.11166e-06 -0 3.11166e-06)
(3.11165e-06 -1.74885e-20 -0 3.11165e-06 -0 3.11165e-06)
(3.11165e-06 -5.43703e-21 -0 3.11165e-06 -0 3.11165e-06)
(3.11165e-06 1.436e-20 -0 3.11165e-06 -0 3.11165e-06)
(3.14819e-06 -8.62531e-20 -0 3.14819e-06 -0 3.14819e-06)
(3.14819e-06 2.29066e-19 -0 3.14819e-06 -0 3.14819e-06)
(3.14808e-06 -1.79404e-20 -0 3.14808e-06 -0 3.14808e-06)
(3.14803e-06 1.84202e-20 -0 3.14803e-06 -0 3.14803e-06)
(3.14795e-06 1.86677e-20 -0 3.14795e-06 -0 3.14795e-06)
(3.14791e-06 6.13135e-21 -0 3.14791e-06 -0 3.14791e-06)
(3.14785e-06 3.96679e-20 -0 3.14785e-06 -0 3.14785e-06)
(3.1478e-06 5.06726e-20 -0 3.1478e-06 -0 3.1478e-06)
(3.14776e-06 5.98955e-20 -0 3.14776e-06 -0 3.14776e-06)
(3.14772e-06 1.40638e-20 -0 3.14772e-06 -0 3.14772e-06)
(3.14768e-06 6.87102e-20 -0 3.14768e-06 -0 3.14768e-06)
(3.14765e-06 1.39308e-19 -0 3.14765e-06 -0 3.14765e-06)
(3.14762e-06 7.67439e-20 -0 3.14762e-06 -0 3.14762e-06)
(3.1476e-06 8.21534e-20 -0 3.1476e-06 -0 3.1476e-06)
(3.14758e-06 5.46513e-20 -0 3.14758e-06 -0 3.14758e-06)
(3.14756e-06 3.06011e-20 -0 3.14756e-06 -0 3.14756e-06)
(3.14755e-06 1.85435e-22 -0 3.14755e-06 -0 3.14755e-06)
(3.14754e-06 -5.84893e-20 -0 3.14754e-06 -0 3.14754e-06)
(3.14754e-06 -7.57027e-21 -0 3.14754e-06 -0 3.14754e-06)
(3.14753e-06 1.35653e-20 -0 3.14753e-06 -0 3.14753e-06)
(3.17085e-06 -4.25365e-18 -0 3.17085e-06 -0 3.17085e-06)
(3.17084e-06 4.13286e-18 -0 3.17084e-06 -0 3.17084e-06)
(3.17073e-06 -9.8141e-19 -0 3.17073e-06 -0 3.17073e-06)
(3.17068e-06 1.82857e-19 -0 3.17068e-06 -0 3.17068e-06)
(3.1706e-06 -1.08951e-19 -0 3.1706e-06 -0 3.1706e-06)
(3.17056e-06 2.69843e-20 -0 3.17056e-06 -0 3.17056e-06)
(3.1705e-06 2.10679e-20 -0 3.1705e-06 -0 3.1705e-06)
(3.17045e-06 5.29521e-20 -0 3.17045e-06 -0 3.17045e-06)
(3.1704e-06 3.33837e-20 -0 3.1704e-06 -0 3.1704e-06)
(3.17036e-06 1.09279e-19 -0 3.17036e-06 -0 3.17036e-06)
(3.17033e-06 7.77447e-20 -0 3.17033e-06 -0 3.17033e-06)
(3.17029e-06 6.0955e-20 -0 3.17029e-06 -0 3.17029e-06)
(3.17027e-06 8.74087e-20 -0 3.17027e-06 -0 3.17027e-06)
(3.17024e-06 8.63314e-21 -0 3.17024e-06 -0 3.17024e-06)
(3.17022e-06 1.01539e-19 -0 3.17022e-06 -0 3.17022e-06)
(3.1702e-06 -3.45684e-20 -0 3.1702e-06 -0 3.1702e-06)
(3.17019e-06 6.15293e-20 -0 3.17019e-06 -0 3.17019e-06)
(3.17018e-06 -8.10519e-21 -0 3.17018e-06 -0 3.17018e-06)
(3.17018e-06 -5.08632e-21 -0 3.17018e-06 -0 3.17018e-06)
(3.17017e-06 5.15718e-20 -0 3.17017e-06 -0 3.17017e-06)
(3.1854e-06 3.72236e-18 -0 3.1854e-06 -0 3.1854e-06)
(3.1854e-06 -5.04768e-18 -0 3.1854e-06 -0 3.1854e-06)
(3.18528e-06 9.82136e-19 -0 3.18528e-06 -0 3.18528e-06)
(3.18523e-06 -1.52607e-19 -0 3.18523e-06 -0 3.18523e-06)
(3.18515e-06 2.91986e-20 -0 3.18515e-06 -0 3.18515e-06)
(3.18511e-06 -2.50695e-20 -0 3.18511e-06 -0 3.18511e-06)
(3.18504e-06 -3.67222e-20 -0 3.18504e-06 -0 3.18504e-06)
(3.185e-06 -9.17654e-20 -0 3.185e-06 -0 3.185e-06)
(3.18495e-06 -7.09661e-20 -0 3.18495e-06 -0 3.18495e-06)
(3.18492e-06 -8.3717e-20 -0 3.18492e-06 -0 3.18492e-06)
(3.18487e-06 -1.31244e-19 -0 3.18487e-06 -0 3.18487e-06)
(3.18484e-06 -1.30682e-19 -0 3.18484e-06 -0 3.18484e-06)
(3.18481e-06 -1.0059e-19 -0 3.18481e-06 -0 3.18481e-06)
(3.18479e-06 -3.99484e-20 -0 3.18479e-06 -0 3.18479e-06)
(3.18476e-06 -7.39766e-20 -0 3.18476e-06 -0 3.18476e-06)
(3.18475e-06 -2.50136e-20 -0 3.18475e-06 -0 3.18475e-06)
(3.18474e-06 -7.6983e-20 -0 3.18474e-06 -0 3.18474e-06)
(3.18473e-06 -2.57422e-20 -0 3.18473e-06 -0 3.18473e-06)
(3.18472e-06 4.1122e-22 -0 3.18472e-06 -0 3.18472e-06)
(3.18472e-06 2.3126e-20 -0 3.18472e-06 -0 3.18472e-06)
(3.19554e-06 1.47393e-18 -0 3.19554e-06 -0 3.19554e-06)
(3.19554e-06 6.95859e-19 -0 3.19554e-06 -0 3.19554e-06)
(3.19542e-06 -2.41482e-20 -0 3.19542e-06 -0 3.19542e-06)
(3.19538e-06 -4.37983e-20 -0 3.19538e-06 -0 3.19538e-06)
(3.19529e-06 6.36751e-21 -0 3.19529e-06 -0 3.19529e-06)
(3.19525e-06 -5.60471e-20 -0 3.19525e-06 -0 3.19525e-06)
(3.19518e-06 -1.92841e-20 -0 3.19518e-06 -0 3.19518e-06)
(3.19514e-06 -3.43813e-20 -0 3.19514e-06 -0 3.19514e-06)
(3.19509e-06 -1.33158e-20 -0 3.19509e-06 -0 3.19509e-06)
(3.19505e-06 -6.61026e-20 -0 3.19505e-06 -0 3.19505e-06)
(3.19502e-06 -1.69093e-20 -0 3.19502e-06 -0 3.19502e-06)
(3.19498e-06 3.53038e-20 -0 3.19498e-06 -0 3.19498e-06)
(3.19495e-06 1.33013e-20 -0 3.19495e-06 -0 3.19495e-06)
(3.19493e-06 -2.96906e-20 -0 3.19493e-06 -0 3.19493e-06)
(3.19491e-06 -7.04964e-20 -0 3.19491e-06 -0 3.19491e-06)
(3.19489e-06 3.17859e-20 -0 3.19489e-06 -0 3.19489e-06)
(3.19488e-06 2.34268e-22 -0 3.19488e-06 -0 3.19488e-06)
(3.19487e-06 1.73638e-21 -0 3.19487e-06 -0 3.19487e-06)
(3.19486e-06 1.11544e-20 -0 3.19486e-06 -0 3.19486e-06)
(3.19486e-06 5.31739e-21 -0 3.19486e-06 -0 3.19486e-06)
(3.20359e-06 -2.51615e-18 -0 3.20359e-06 -0 3.20359e-06)
(3.20359e-06 1.38577e-18 -0 3.20359e-06 -0 3.20359e-06)
(3.20346e-06 -3.13749e-19 -0 3.20346e-06 -0 3.20346e-06)
(3.20343e-06 8.26253e-20 -0 3.20343e-06 -0 3.20343e-06)
(3.20334e-06 1.9925e-20 -0 3.20334e-06 -0 3.20334e-06)
(3.2033e-06 3.63885e-20 -0 3.2033e-06 -0 3.2033e-06)
(3.20323e-06 9.34804e-20 -0 3.20323e-06 -0 3.20323e-06)
(3.20319e-06 1.2017e-19 -0 3.20319e-06 -0 3.20319e-06)
(3.20314e-06 1.04988e-19 -0 3.20314e-06 -0 3.20314e-06)
(3.2031e-06 6.7782e-20 -0 3.2031e-06 -0 3.2031e-06)
(3.20306e-06 1.34683e-19 -0 3.20306e-06 -0 3.20306e-06)
(3.20303e-06 4.33351e-20 -0 3.20303e-06 -0 3.20303e-06)
(3.20299e-06 7.7349e-20 -0 3.20299e-06 -0 3.20299e-06)
(3.20298e-06 7.27504e-20 -0 3.20298e-06 -0 3.20298e-06)
(3.20295e-06 5.86201e-20 -0 3.20295e-06 -0 3.20295e-06)
(3.20294e-06 2.58108e-20 -0 3.20294e-06 -0 3.20294e-06)
(3.20292e-06 -1.8318e-20 -0 3.20292e-06 -0 3.20292e-06)
(3.20291e-06 7.85323e-20 -0 3.20291e-06 -0 3.20291e-06)
(3.20291e-06 -4.22706e-22 -0 3.20291e-06 -0 3.20291e-06)
(3.20291e-06 2.00549e-21 -0 3.20291e-06 -0 3.20291e-06)
(3.21091e-06 1.45035e-18 -0 3.21091e-06 -0 3.21091e-06)
(3.21091e-06 -3.94269e-19 -0 3.21091e-06 -0 3.21091e-06)
(3.21078e-06 3.18691e-19 -0 3.21078e-06 -0 3.21078e-06)
(3.21075e-06 7.9206e-20 -0 3.21075e-06 -0 3.21075e-06)
(3.21065e-06 1.6353e-19 -0 3.21065e-06 -0 3.21065e-06)
(3.21062e-06 8.52715e-20 -0 3.21062e-06 -0 3.21062e-06)
(3.21054e-06 6.23622e-20 -0 3.21054e-06 -0 3.21054e-06)
(3.21051e-06 3.35018e-20 -0 3.21051e-06 -0 3.21051e-06)
(3.21046e-06 4.63903e-20 -0 3.21046e-06 -0 3.21046e-06)
(3.21042e-06 9.80561e-20 -0 3.21042e-06 -0 3.21042e-06)
(3.21038e-06 3.83636e-20 -0 3.21038e-06 -0 3.21038e-06)
(3.21035e-06 4.08402e-20 -0 3.21035e-06 -0 3.21035e-06)
(3.21031e-06 8.3997e-20 -0 3.21031e-06 -0 3.21031e-06)
(3.21029e-06 6.15498e-20 -0 3.21029e-06 -0 3.21029e-06)
(3.21027e-06 6.77044e-20 -0 3.21027e-06 -0 3.21027e-06)
(3.21025e-06 7.33666e-20 -0 3.21025e-06 -0 3.21025e-06)
(3.21024e-06 4.77925e-20 -0 3.21024e-06 -0 3.21024e-06)
(3.21023e-06 1.52114e-20 -0 3.21023e-06 -0 3.21023e-06)
(3.21022e-06 6.48068e-20 -0 3.21022e-06 -0 3.21022e-06)
(3.21022e-06 4.23898e-22 -0 3.21022e-06 -0 3.21022e-06)
(3.21828e-06 1.7825e-19 -0 3.21828e-06 -0 3.21828e-06)
(3.21828e-06 -6.43854e-19 -0 3.21828e-06 -0 3.21828e-06)
(3.21816e-06 -2.81499e-20 -0 3.21816e-06 -0 3.21816e-06)
(3.21811e-06 -7.41732e-20 -0 3.21811e-06 -0 3.21811e-06)
(3.21803e-06 -8.29917e-20 -0 3.21803e-06 -0 3.21803e-06)
(3.21798e-06 -3.51778e-20 -0 3.21798e-06 -0 3.21798e-06)
(3.21792e-06 -1.02516e-19 -0 3.21792e-06 -0 3.21792e-06)
(3.21787e-06 -5.15974e-20 -0 3.21787e-06 -0 3.21787e-06)
(3.21782e-06 7.77396e-22 -0 3.21782e-06 -0 3.21782e-06)
(3.21778e-06 3.04142e-20 -0 3.21778e-06 -0 3.21778e-06)
(3.21774e-06 -2.54437e-20 -0 3.21774e-06 -0 3.21774e-06)
(3.21771e-06 7.59979e-20 -0 3.21771e-06 -0 3.21771e-06)
(3.21768e-06 -1.93835e-20 -0 3.21768e-06 -0 3.21768e-06)
(3.21765e-06 -6.19337e-21 -0 3.21765e-06 -0 3.21765e-06)
(3.21763e-06 -5.60339e-20 -0 3.21763e-06 -0 3.21763e-06)
(3.21762e-06 -4.41495e-20 -0 3.21762e-06 -0 3.21762e-06)
(3.2176e-06 1.12855e-20 -0 3.2176e-06 -0 3.2176e-06)
(3.2176e-06 -8.6656e-20 -0 3.2176e-06 -0 3.2176e-06)
(3.21759e-06 -6.1391e-20 -0 3.21759e-06 -0 3.21759e-06)
(3.21759e-06 -2.51636e-20 -0 3.21759e-06 -0 3.21759e-06)
(3.22614e-06 -9.69937e-19 -0 3.22614e-06 -0 3.22614e-06)
(3.22613e-06 -1.05051e-20 -0 3.22613e-06 -0 3.22613e-06)
(3.22601e-06 -1.77625e-19 -0 3.22601e-06 -0 3.22601e-06)
(3.22597e-06 -1.52242e-19 -0 3.22597e-06 -0 3.22597e-06)
(3.22588e-06 -1.85223e-19 -0 3.22588e-06 -0 3.22588e-06)
(3.22584e-06 -1.38156e-19 -0 3.22584e-06 -0 3.22584e-06)
(3.22577e-06 -1.22234e-19 -0 3.22577e-06 -0 3.22577e-06)
(3.22574e-06 -1.23941e-19 -0 3.22574e-06 -0 3.22574e-06)
(3.22567e-06 -1.05881e-19 -0 3.22567e-06 -0 3.22567e-06)
(3.22565e-06 -7.40313e-20 -0 3.22565e-06 -0 3.22565e-06)
(3.22559e-06 -5.22956e-20 -0 3.22559e-06 -0 3.22559e-06)
(3.22558e-06 -1.51038e-19 -0 3.22558e-06 -0 3.22558e-06)
(3.22552e-06 -3.4187e-20 -0 3.22552e-06 -0 3.22552e-06)
(3.22552e-06 -6.95192e-20 -0 3.22552e-06 -0 3.22552e-06)
(3.22548e-06 -1.50443e-20 -0 3.22548e-06 -0 3.22548e-06)
(3.22547e-06 5.4672e-20 -0 3.22547e-06 -0 3.22547e-06)
(3.22545e-06 1.22119e-20 -0 3.22545e-06 -0 3.22545e-06)
(3.22545e-06 1.75831e-20 -0 3.22545e-06 -0 3.22545e-06)
(3.22544e-06 -2.60939e-20 -0 3.22544e-06 -0 3.22544e-06)
(3.22544e-06 -5.93967e-20 -0 3.22544e-06 -0 3.22544e-06)
(3.23468e-06 4.40131e-19 -0 3.23468e-06 -0 3.23468e-06)
(3.23468e-06 1.27546e-18 -0 3.23468e-06 -0 3.23468e-06)
(3.23456e-06 -3.81419e-20 -0 3.23456e-06 -0 3.23456e-06)
(3.23451e-06 1.02838e-19 -0 3.23451e-06 -0 3.23451e-06)
(3.23443e-06 8.28797e-20 -0 3.23443e-06 -0 3.23443e-06)
(3.23438e-06 4.73713e-20 -0 3.23438e-06 -0 3.23438e-06)
(3.23432e-06 6.39658e-20 -0 3.23432e-06 -0 3.23432e-06)
(3.23426e-06 9.75137e-21 -0 3.23426e-06 -0 3.23426e-06)
(3.23422e-06 4.16828e-21 -0 3.23422e-06 -0 3.23422e-06)
(3.23418e-06 -1.28834e-21 -0 3.23418e-06 -0 3.23418e-06)
(3.23414e-06 -5.34166e-20 -0 3.23414e-06 -0 3.23414e-06)
(3.23411e-06 -5.38958e-20 -0 3.23411e-06 -0 3.23411e-06)
(3.23408e-06 -1.3098e-19 -0 3.23408e-06 -0 3.23408e-06)
(3.23405e-06 -8.53949e-20 -0 3.23405e-06 -0 3.23405e-06)
(3.23403e-06 -5.33607e-20 -0 3.23403e-06 -0 3.23403e-06)
(3.23401e-06 -6.67301e-22 -0 3.23401e-06 -0 3.23401e-06)
(3.234e-06 -5.58723e-21 -0 3.234e-06 -0 3.234e-06)
(3.23399e-06 2.36601e-20 -0 3.23399e-06 -0 3.23399e-06)
(3.23398e-06 2.85772e-20 -0 3.23398e-06 -0 3.23398e-06)
(3.23398e-06 -3.33029e-20 -0 3.23398e-06 -0 3.23398e-06)
(3.24385e-06 1.52099e-18 -0 3.24385e-06 -0 3.24385e-06)
(3.24385e-06 -2.56582e-18 -0 3.24385e-06 -0 3.24385e-06)
(3.24372e-06 3.17051e-19 -0 3.24372e-06 -0 3.24372e-06)
(3.24368e-06 -5.30201e-20 -0 3.24368e-06 -0 3.24368e-06)
(3.24359e-06 -5.34041e-20 -0 3.24359e-06 -0 3.24359e-06)
(3.24355e-06 -1.07962e-20 -0 3.24355e-06 -0 3.24355e-06)
(3.24347e-06 -1.24017e-20 -0 3.24347e-06 -0 3.24347e-06)
(3.24344e-06 6.45144e-20 -0 3.24344e-06 -0 3.24344e-06)
(3.24338e-06 9.85493e-21 -0 3.24338e-06 -0 3.24338e-06)
(3.24335e-06 -2.62817e-20 -0 3.24335e-06 -0 3.24335e-06)
(3.2433e-06 6.26298e-22 -0 3.2433e-06 -0 3.2433e-06)
(3.24328e-06 -5.19423e-21 -0 3.24328e-06 -0 3.24328e-06)
(3.24323e-06 -4.00191e-20 -0 3.24323e-06 -0 3.24323e-06)
(3.24322e-06 7.29656e-21 -0 3.24322e-06 -0 3.24322e-06)
(3.24319e-06 2.16719e-20 -0 3.24319e-06 -0 3.24319e-06)
(3.24318e-06 -6.21888e-20 -0 3.24318e-06 -0 3.24318e-06)
(3.24316e-06 -1.75516e-20 -0 3.24316e-06 -0 3.24316e-06)
(3.24316e-06 -4.70628e-21 -0 3.24316e-06 -0 3.24316e-06)
(3.24315e-06 1.88888e-21 -0 3.24315e-06 -0 3.24315e-06)
(3.24315e-06 7.22715e-20 -0 3.24315e-06 -0 3.24315e-06)
(3.25322e-06 -1.85922e-18 -0 3.25322e-06 -0 3.25322e-06)
(3.25322e-06 1.47128e-18 -0 3.25322e-06 -0 3.25322e-06)
(3.25309e-06 -2.9351e-19 -0 3.25309e-06 -0 3.25309e-06)
(3.25305e-06 8.45502e-20 -0 3.25305e-06 -0 3.25305e-06)
(3.25296e-06 9.41471e-21 -0 3.25296e-06 -0 3.25296e-06)
(3.25292e-06 1.47725e-20 -0 3.25292e-06 -0 3.25292e-06)
(3.25285e-06 -7.89565e-21 -0 3.25285e-06 -0 3.25285e-06)
(3.2528e-06 -6.13666e-21 -0 3.2528e-06 -0 3.2528e-06)
(3.25276e-06 6.99744e-20 -0 3.25276e-06 -0 3.25276e-06)
(3.25271e-06 5.10625e-20 -0 3.25271e-06 -0 3.25271e-06)
(3.25268e-06 7.93471e-20 -0 3.25268e-06 -0 3.25268e-06)
(3.25264e-06 4.70903e-20 -0 3.25264e-06 -0 3.25264e-06)
(3.25261e-06 6.49902e-20 -0 3.25261e-06 -0 3.25261e-06)
(3.25258e-06 1.47365e-19 -0 3.25258e-06 -0 3.25258e-06)
(3.25256e-06 6.95994e-20 -0 3.25256e-06 -0 3.25256e-06)
(3.25254e-06 1.7733e-20 -0 3.25254e-06 -0 3.25254e-06)
(3.25253e-06 1.15196e-19 -0 3.25253e-06 -0 3.25253e-06)
(3.25252e-06 1.0134e-20 -0 3.25252e-06 -0 3.25252e-06)
(3.25252e-06 1.87574e-21 -0 3.25252e-06 -0 3.25252e-06)
(3.25251e-06 -2.85497e-22 -0 3.25251e-06 -0 3.25251e-06)
(3.26195e-06 -2.08456e-18 -0 3.26195e-06 -0 3.26195e-06)
(3.26195e-06 3.00271e-18 -0 3.26195e-06 -0 3.26195e-06)
(3.26182e-06 -3.11642e-19 -0 3.26182e-06 -0 3.26182e-06)
(3.26178e-06 2.27939e-19 -0 3.26178e-06 -0 3.26178e-06)
(3.26168e-06 1.56511e-19 -0 3.26168e-06 -0 3.26168e-06)
(3.26165e-06 1.12873e-19 -0 3.26165e-06 -0 3.26165e-06)
(3.26157e-06 6.52541e-20 -0 3.26157e-06 -0 3.26157e-06)
(3.26155e-06 1.00816e-19 -0 3.26155e-06 -0 3.26155e-06)
(3.26147e-06 5.36797e-20 -0 3.26147e-06 -0 3.26147e-06)
(3.26145e-06 8.89519e-20 -0 3.26145e-06 -0 3.26145e-06)
(3.26139e-06 8.75783e-20 -0 3.26139e-06 -0 3.26139e-06)
(3.26137e-06 7.20576e-20 -0 3.26137e-06 -0 3.26137e-06)
(3.26133e-06 8.54461e-20 -0 3.26133e-06 -0 3.26133e-06)
(3.26132e-06 2.17222e-20 -0 3.26132e-06 -0 3.26132e-06)
(3.26128e-06 9.06342e-20 -0 3.26128e-06 -0 3.26128e-06)
(3.26128e-06 9.40278e-20 -0 3.26128e-06 -0 3.26128e-06)
(3.26125e-06 -6.03373e-20 -0 3.26125e-06 -0 3.26125e-06)
(3.26125e-06 5.17451e-21 -0 3.26125e-06 -0 3.26125e-06)
(3.26124e-06 -1.15594e-20 -0 3.26124e-06 -0 3.26124e-06)
(3.26124e-06 -5.26082e-21 -0 3.26124e-06 -0 3.26124e-06)
(3.26882e-06 2.46658e-18 -0 3.26882e-06 -0 3.26882e-06)
(3.26883e-06 -3.14976e-18 -0 3.26883e-06 -0 3.26883e-06)
(3.2687e-06 2.97219e-19 -0 3.2687e-06 -0 3.2687e-06)
(3.26866e-06 -3.09481e-19 -0 3.26866e-06 -0 3.26866e-06)
(3.26857e-06 -1.28592e-19 -0 3.26857e-06 -0 3.26857e-06)
(3.26853e-06 -1.08924e-19 -0 3.26853e-06 -0 3.26853e-06)
(3.26846e-06 -1.07908e-19 -0 3.26846e-06 -0 3.26846e-06)
(3.26842e-06 -1.34093e-19 -0 3.26842e-06 -0 3.26842e-06)
(3.26837e-06 -1.27678e-19 -0 3.26837e-06 -0 3.26837e-06)
(3.26833e-06 -9.16149e-20 -0 3.26833e-06 -0 3.26833e-06)
(3.26828e-06 -5.70759e-20 -0 3.26828e-06 -0 3.26828e-06)
(3.26826e-06 -7.51543e-20 -0 3.26826e-06 -0 3.26826e-06)
(3.26822e-06 -7.5105e-20 -0 3.26822e-06 -0 3.26822e-06)
(3.26821e-06 -1.43405e-19 -0 3.26821e-06 -0 3.26821e-06)
(3.26817e-06 -4.89426e-20 -0 3.26817e-06 -0 3.26817e-06)
(3.26817e-06 -7.202e-20 -0 3.26817e-06 -0 3.26817e-06)
(3.26814e-06 1.5769e-20 -0 3.26814e-06 -0 3.26814e-06)
(3.26814e-06 1.16577e-20 -0 3.26814e-06 -0 3.26814e-06)
(3.26813e-06 -1.31238e-20 -0 3.26813e-06 -0 3.26813e-06)
(3.26813e-06 -1.27577e-20 -0 3.26813e-06 -0 3.26813e-06)
(3.27198e-06 2.3097e-18 -0 3.27198e-06 -0 3.27198e-06)
(3.27198e-06 -2.393e-18 -0 3.27198e-06 -0 3.27198e-06)
(3.27198e-06 4.32751e-19 -0 3.27198e-06 -0 3.27198e-06)
(3.27197e-06 -8.4306e-20 -0 3.27197e-06 -0 3.27197e-06)
(3.27197e-06 2.70621e-20 -0 3.27197e-06 -0 3.27197e-06)
(3.27197e-06 -5.7269e-21 -0 3.27197e-06 -0 3.27197e-06)
(3.27197e-06 2.23332e-20 -0 3.27197e-06 -0 3.27197e-06)
(3.27197e-06 2.92284e-20 -0 3.27197e-06 -0 3.27197e-06)
(3.27197e-06 2.64176e-20 -0 3.27197e-06 -0 3.27197e-06)
(3.27197e-06 -1.76584e-20 -0 3.27197e-06 -0 3.27197e-06)
(3.27197e-06 -5.89874e-20 -0 3.27197e-06 -0 3.27197e-06)
(3.27197e-06 3.21095e-20 -0 3.27197e-06 -0 3.27197e-06)
(3.27197e-06 6.30967e-21 -0 3.27197e-06 -0 3.27197e-06)
(3.27197e-06 2.16672e-20 -0 3.27197e-06 -0 3.27197e-06)
(3.27197e-06 -6.31356e-20 -0 3.27197e-06 -0 3.27197e-06)
(3.27197e-06 2.22355e-21 -0 3.27197e-06 -0 3.27197e-06)
(3.27197e-06 -8.69251e-22 -0 3.27197e-06 -0 3.27197e-06)
(3.27197e-06 8.29802e-23 -0 3.27197e-06 -0 3.27197e-06)
(3.27197e-06 -1.09045e-20 -0 3.27197e-06 -0 3.27197e-06)
(3.27197e-06 -6.32208e-21 -0 3.27197e-06 -0 3.27197e-06)
)
;

boundaryField
{
    movingWall
    {
        type            kqRWallFunction;
        value           nonuniform List<symmTensor> 
20
(
(3.27198e-06 0 -0 3.27198e-06 -0 3.27198e-06)
(3.27198e-06 -0 -0 3.27198e-06 -0 3.27198e-06)
(3.27198e-06 0 -0 3.27198e-06 -0 3.27198e-06)
(3.27197e-06 0 -0 3.27197e-06 -0 3.27197e-06)
(3.27197e-06 0 -0 3.27197e-06 -0 3.27197e-06)
(3.27197e-06 0 -0 3.27197e-06 -0 3.27197e-06)
(3.27197e-06 0 -0 3.27197e-06 -0 3.27197e-06)
(3.27197e-06 0 -0 3.27197e-06 -0 3.27197e-06)
(3.27197e-06 0 -0 3.27197e-06 -0 3.27197e-06)
(3.27197e-06 0 -0 3.27197e-06 -0 3.27197e-06)
(3.27197e-06 0 -0 3.27197e-06 -0 3.27197e-06)
(3.27197e-06 0 -0 3.27197e-06 -0 3.27197e-06)
(3.27197e-06 0 -0 3.27197e-06 -0 3.27197e-06)
(3.27197e-06 0 -0 3.27197e-06 -0 3.27197e-06)
(3.27197e-06 0 -0 3.27197e-06 -0 3.27197e-06)
(3.27197e-06 0 -0 3.27197e-06 -0 3.27197e-06)
(3.27197e-06 -0 -0 3.27197e-06 -0 3.27197e-06)
(3.27197e-06 0 -0 3.27197e-06 -0 3.27197e-06)
(3.27197e-06 -0 -0 3.27197e-06 -0 3.27197e-06)
(3.27197e-06 -0 -0 3.27197e-06 -0 3.27197e-06)
)
;
    }
    fixedWalls
    {
        type            kqRWallFunction;
        value           nonuniform List<symmTensor> 
60
(
(2.73958e-06 -0 -0 2.73958e-06 -0 2.73958e-06)
(2.79757e-06 -0 -0 2.79757e-06 -0 2.79757e-06)
(2.88789e-06 0 -0 2.88789e-06 -0 2.88789e-06)
(2.9809e-06 0 -0 2.9809e-06 -0 2.9809e-06)
(3.05751e-06 -0 -0 3.05751e-06 -0 3.05751e-06)
(3.11229e-06 0 -0 3.11229e-06 -0 3.11229e-06)
(3.14819e-06 -0 -0 3.14819e-06 -0 3.14819e-06)
(3.17085e-06 -0 -0 3.17085e-06 -0 3.17085e-06)
(3.1854e-06 0 -0 3.1854e-06 -0 3.1854e-06)
(3.19554e-06 -0 -0 3.19554e-06 -0 3.19554e-06)
(3.20359e-06 -0 -0 3.20359e-06 -0 3.20359e-06)
(3.21091e-06 0 -0 3.21091e-06 -0 3.21091e-06)
(3.21828e-06 0 -0 3.21828e-06 -0 3.21828e-06)
(3.22614e-06 -0 -0 3.22614e-06 -0 3.22614e-06)
(3.23468e-06 -0 -0 3.23468e-06 -0 3.23468e-06)
(3.24385e-06 0 -0 3.24385e-06 -0 3.24385e-06)
(3.25322e-06 -0 -0 3.25322e-06 -0 3.25322e-06)
(3.26195e-06 -0 -0 3.26195e-06 -0 3.26195e-06)
(3.26882e-06 0 -0 3.26882e-06 -0 3.26882e-06)
(3.27198e-06 0 -0 3.27198e-06 -0 3.27198e-06)
(2.73957e-06 0 -0 2.73957e-06 -0 2.73957e-06)
(2.79706e-06 0 -0 2.79706e-06 -0 2.79706e-06)
(2.88734e-06 -0 -0 2.88734e-06 -0 2.88734e-06)
(2.98031e-06 -0 -0 2.98031e-06 -0 2.98031e-06)
(3.05688e-06 0 -0 3.05688e-06 -0 3.05688e-06)
(3.11165e-06 0 -0 3.11165e-06 -0 3.11165e-06)
(3.14753e-06 0 -0 3.14753e-06 -0 3.14753e-06)
(3.17017e-06 0 -0 3.17017e-06 -0 3.17017e-06)
(3.18472e-06 0 -0 3.18472e-06 -0 3.18472e-06)
(3.19486e-06 -0 -0 3.19486e-06 -0 3.19486e-06)
(3.20291e-06 0 -0 3.20291e-06 -0 3.20291e-06)
(3.21022e-06 0 -0 3.21022e-06 -0 3.21022e-06)
(3.21759e-06 -0 -0 3.21759e-06 -0 3.21759e-06)
(3.22544e-06 -0 -0 3.22544e-06 -0 3.22544e-06)
(3.23398e-06 -0 -0 3.23398e-06 -0 3.23398e-06)
(3.24315e-06 0 -0 3.24315e-06 -0 3.24315e-06)
(3.25251e-06 0 -0 3.25251e-06 -0 3.25251e-06)
(3.26124e-06 -0 -0 3.26124e-06 -0 3.26124e-06)
(3.26813e-06 -0 -0 3.26813e-06 -0 3.26813e-06)
(3.27197e-06 0 -0 3.27197e-06 -0 3.27197e-06)
(2.73958e-06 -0 -0 2.73958e-06 -0 2.73958e-06)
(2.73958e-06 0 -0 2.73958e-06 -0 2.73958e-06)
(2.73958e-06 -0 -0 2.73958e-06 -0 2.73958e-06)
(2.73958e-06 -0 -0 2.73958e-06 -0 2.73958e-06)
(2.73958e-06 -0 -0 2.73958e-06 -0 2.73958e-06)
(2.73958e-06 -0 -0 2.73958e-06 -0 2.73958e-06)
(2.73957e-06 -0 -0 2.73957e-06 -0 2.73957e-06)
(2.73958e-06 -0 -0 2.73958e-06 -0 2.73958e-06)
(2.73957e-06 -0 -0 2.73957e-06 -0 2.73957e-06)
(2.73958e-06 -0 -0 2.73958e-06 -0 2.73958e-06)
(2.73957e-06 -0 -0 2.73957e-06 -0 2.73957e-06)
(2.73958e-06 -0 -0 2.73958e-06 -0 2.73958e-06)
(2.73957e-06 -0 -0 2.73957e-06 -0 2.73957e-06)
(2.73957e-06 -0 -0 2.73957e-06 -0 2.73957e-06)
(2.73957e-06 -0 -0 2.73957e-06 -0 2.73957e-06)
(2.73957e-06 -0 -0 2.73957e-06 -0 2.73957e-06)
(2.73957e-06 0 -0 2.73957e-06 -0 2.73957e-06)
(2.73957e-06 -0 -0 2.73957e-06 -0 2.73957e-06)
(2.73957e-06 -0 -0 2.73957e-06 -0 2.73957e-06)
(2.73957e-06 0 -0 2.73957e-06 -0 2.73957e-06)
)
;
    }
    frontAndBack
    {
        type            empty;
    }
}


// ************************************************************************* //
