/*--------------------------------*- C++ -*----------------------------------*\
| =========                 |                                                 |
| \\      /  F ield         | OpenFOAM: The Open Source CFD Toolbox           |
|  \\    /   O peration     | Version:  2312                                  |
|   \\  /    A nd           | Website:  www.openfoam.com                      |
|    \\/     M anipulation  |                                                 |
\*---------------------------------------------------------------------------*/
FoamFile
{
    version     2.0;
    format      ascii;
    arch        "LSB;label=32;scalar=64";
    class       volTensorField;
    location    "8";
    object      U2;
}
// * * * * * * * * * * * * * * * * * * * * * * * * * * * * * * * * * * * * * //

dimensions      [0 2 -2 0 0 0 0];

internalField   nonuniform List<tensor> 
400
(
(1 -3.10848e-14 -0 -3.10969e-14 9.66639e-28 0 -0 0 0)
(1 6.25361e-15 -0 6.38773e-15 3.99464e-29 -0 -0 -0 0)
(1 -1.32811e-15 -0 -1.34715e-15 1.78917e-30 0 -0 0 0)
(1 3.37484e-16 -0 3.29013e-16 1.11037e-31 -0 -0 -0 0)
(1 -1.1904e-16 -0 -8.36996e-17 9.96363e-33 0 -0 0 0)
(1 -9.44985e-17 -0 -5.22056e-17 4.93336e-33 0 -0 0 0)
(1 -2.6153e-17 -0 -8.09735e-17 2.1177e-33 0 -0 0 0)
(1 -2.69143e-17 -0 -1.285e-16 3.45849e-33 0 -0 0 0)
(1 -1.75964e-16 -0 -1.81883e-16 3.20048e-32 0 -0 0 0)
(1 -1.2871e-16 -0 -7.97677e-17 1.02669e-32 0 -0 0 0)
(1 -6.48052e-17 -0 1.62372e-17 -1.05225e-33 -0 -0 0 0)
(1 -2.82366e-17 -0 -1.76915e-17 4.99546e-34 0 -0 0 0)
(1 -7.44404e-17 -0 -1.03025e-16 7.66925e-33 0 -0 0 0)
(1 -5.60924e-17 -0 -4.94982e-17 2.77647e-33 0 -0 0 0)
(1 -3.93209e-17 -0 -3.49508e-17 1.3743e-33 0 -0 0 0)
(1 -5.49189e-17 -0 -2.36645e-17 1.29963e-33 0 -0 0 0)
(1 -7.86955e-17 -0 -3.04703e-17 2.39787e-33 0 -0 0 0)
(1 -2.16412e-17 -0 2.78799e-17 -6.03354e-34 -0 -0 0 0)
(1 3.61938e-17 -0 -2.38011e-17 -8.61453e-34 0 -0 -0 0)
(1 3.44887e-17 -0 -6.06015e-17 -2.09007e-33 0 -0 -0 0)
(1 -7.8403e-15 -0 -7.6244e-15 5.97776e-29 0 -0 0 0)
(1 1.14895e-15 -0 1.33885e-15 1.53827e-30 -0 -0 -0 0)
(1 -2.16115e-16 -0 -2.12592e-16 4.59445e-32 0 -0 0 0)
(1 4.42919e-17 -0 4.32541e-17 1.91581e-33 -0 -0 -0 0)
(1 -8.90181e-17 -0 2.59915e-18 -2.31372e-34 -0 -0 0 0)
(1 -1.72397e-17 -0 3.3844e-17 -5.8346e-34 -0 -0 0 0)
(1 7.83619e-17 -0 3.85195e-17 3.01846e-33 -0 -0 -0 0)
(1 4.88163e-17 -0 -4.4059e-17 -2.1508e-33 0 -0 -0 0)
(1 -1.09447e-16 -0 -1.30552e-16 1.42885e-32 0 -0 0 0)
(1 -1.64201e-16 -0 -2.74486e-17 4.50709e-33 0 -0 0 0)
(1 4.3501e-18 -0 5.18968e-17 2.25756e-34 -0 -0 -0 0)
(1 -4.82668e-17 -0 -5.77109e-17 2.78552e-33 0 -0 0 0)
(1 -1.07348e-16 -0 -1.0974e-16 1.17803e-32 0 -0 0 0)
(1 -4.34367e-18 -0 -1.04768e-18 4.55077e-36 0 -0 0 0)
(1 -2.97829e-17 -0 -5.91594e-17 1.76194e-33 0 -0 0 0)
(1 -1.50305e-16 -0 -1.25129e-16 1.88075e-32 0 -0 0 0)
(1 -1.20962e-16 -0 -8.7443e-17 1.05772e-32 0 -0 0 0)
(1 -6.1907e-17 -0 -2.55913e-17 1.58428e-33 0 -0 0 0)
(1 9.16633e-17 -0 2.43419e-17 2.23126e-33 -0 -0 -0 0)
(1 1.11439e-16 -0 -1.51496e-17 -1.68825e-33 0 -0 -0 0)
(1 1.65596e-14 -0 1.70704e-14 2.8268e-28 -0 -0 -0 0)
(1 -3.17836e-15 -0 -3.1613e-15 1.00478e-29 0 -0 0 0)
(1 4.86053e-16 -0 6.4523e-16 3.13616e-31 -0 -0 -0 0)
(1 -2.25651e-16 -0 -4.7195e-17 1.06496e-32 0 -0 0 0)
(1 1.90174e-16 -0 2.27217e-16 4.32108e-32 -0 -0 -0 0)
(1 2.35339e-16 -0 2.06081e-16 4.84987e-32 -0 -0 -0 0)
(1 1.9599e-16 -0 1.89032e-16 3.70483e-32 -0 -0 -0 0)
(1 9.02964e-17 -0 9.14969e-17 8.26184e-33 -0 -0 -0 0)
(1 6.49791e-17 -0 5.5057e-17 3.57756e-33 -0 -0 -0 0)
(1 -4.04009e-17 -0 -2.68792e-18 1.08594e-34 0 -0 0 0)
(1 4.47093e-17 -0 4.49929e-17 2.0116e-33 -0 -0 -0 0)
(1 2.11363e-17 -0 6.06044e-17 1.28095e-33 -0 -0 -0 0)
(1 2.30725e-17 -0 6.8664e-17 1.58425e-33 -0 -0 -0 0)
(1 7.03854e-17 -0 3.39617e-17 2.3904e-33 -0 -0 -0 0)
(1 4.01875e-17 -0 -2.15955e-17 -8.67868e-34 0 -0 -0 0)
(1 -4.23795e-17 -0 -7.30779e-17 3.097e-33 0 -0 0 0)
(1 -1.75491e-17 -0 -3.51668e-17 6.17144e-34 0 -0 0 0)
(1 3.65837e-17 -0 -7.65031e-18 -2.79877e-34 0 -0 -0 0)
(1 1.52695e-16 -0 1.21552e-16 1.85604e-32 -0 -0 -0 0)
(1 1.57459e-16 -0 1.05441e-16 1.66026e-32 -0 -0 -0 0)
(1 1.03789e-14 -0 1.05182e-14 1.09167e-28 -0 -0 -0 0)
(1 -2.11429e-15 -0 -2.10449e-15 4.4495e-30 0 -0 0 0)
(1 2.48315e-16 -0 4.02198e-16 9.98717e-32 -0 -0 -0 0)
(1 -1.89501e-16 -0 -4.37416e-17 8.28909e-33 0 -0 0 0)
(1 1.50872e-16 -0 1.72691e-16 2.60542e-32 -0 -0 -0 0)
(1 1.12033e-16 -0 1.04685e-16 1.17283e-32 -0 -0 -0 0)
(1 4.91603e-17 -0 6.20404e-17 3.04993e-33 -0 -0 -0 0)
(1 3.56719e-18 -0 2.74421e-17 9.78912e-35 -0 -0 -0 0)
(1 1.76215e-17 -0 4.88899e-17 8.61514e-34 -0 -0 -0 0)
(1 3.73002e-17 -0 -1.14066e-17 -4.25467e-34 0 -0 -0 0)
(1 2.8904e-17 -0 3.47535e-17 1.00452e-33 -0 -0 -0 0)
(1 5.76592e-17 -0 3.69963e-17 2.13318e-33 -0 -0 -0 0)
(1 3.2546e-17 -0 -7.67629e-18 -2.49832e-34 0 -0 -0 0)
(1 -5.53005e-17 -0 -9.73812e-17 5.38523e-33 0 -0 0 0)
(1 -8.10759e-17 -0 -1.22832e-16 9.9587e-33 0 -0 0 0)
(1 -8.75692e-17 -0 -1.23087e-16 1.07786e-32 0 -0 0 0)
(1 -6.40546e-17 -0 4.17844e-18 -2.67648e-34 -0 -0 0 0)
(1 3.95644e-17 -0 5.59598e-17 2.21401e-33 -0 -0 -0 0)
(1 9.79357e-17 -0 7.10328e-17 6.95664e-33 -0 -0 -0 0)
(1 1.24979e-16 -0 7.15434e-17 8.94141e-33 -0 -0 -0 0)
(1 -2.13726e-14 -0 -2.17016e-14 4.6382e-28 0 -0 0 0)
(1 4.1673e-15 -0 4.28516e-15 1.78576e-29 -0 -0 -0 0)
(1 -9.46557e-16 -0 -9.73752e-16 9.21712e-31 0 -0 0 0)
(1 1.2015e-16 -0 9.55596e-17 1.14815e-32 -0 -0 -0 0)
(1 -1.27941e-16 -0 -8.14563e-17 1.04216e-32 0 -0 0 0)
(1 -1.17197e-16 -0 -5.33191e-17 6.24882e-33 0 -0 0 0)
(1 -1.59483e-16 -0 -7.09544e-17 1.1316e-32 0 -0 0 0)
(1 -5.2514e-17 -0 1.60124e-17 -8.40877e-34 -0 -0 0 0)
(1 1.3866e-17 -0 6.62172e-18 9.18167e-35 -0 -0 -0 0)
(1 -4.86359e-17 -0 -9.01457e-17 4.38431e-33 0 -0 0 0)
(1 -9.01197e-17 -0 -1.08531e-16 9.78074e-33 0 -0 0 0)
(1 -9.91707e-17 -0 -1.28674e-16 1.27607e-32 0 -0 0 0)
(1 -7.57996e-17 -0 -7.61777e-17 5.77424e-33 0 -0 0 0)
(1 -4.84618e-17 -0 -1.44894e-17 7.02183e-34 0 -0 0 0)
(1 -2.56613e-19 -0 3.26714e-17 -8.3839e-36 -0 -0 0 0)
(1 3.47429e-17 -0 2.5795e-17 8.96195e-34 -0 -0 -0 0)
(1 3.59222e-17 -0 3.81331e-17 1.36983e-33 -0 -0 -0 0)
(1 -4.51435e-17 -0 -4.21347e-17 1.90211e-33 0 -0 0 0)
(1 -7.0658e-18 -0 -3.08307e-17 2.17844e-34 0 -0 0 0)
(1 7.3398e-17 -0 -8.52439e-18 -6.25674e-34 0 -0 -0 0)
(1 2.0292e-14 -0 2.08211e-14 4.22503e-28 -0 -0 -0 0)
(1 -3.89329e-15 -0 -4.01006e-15 1.56124e-29 0 -0 0 0)
(1 9.03257e-16 -0 8.88175e-16 8.0225e-31 -0 -0 -0 0)
(1 -2.27425e-16 -0 -2.20516e-16 5.0151e-32 0 -0 0 0)
(1 -6.16938e-17 -0 1.95043e-17 -1.20329e-33 -0 -0 0 0)
(1 -6.33028e-17 -0 -1.13205e-17 7.16623e-34 0 -0 0 0)
(1 -4.24266e-17 -0 -1.17597e-17 4.98926e-34 0 -0 0 0)
(1 -2.03775e-17 -0 -2.91399e-17 5.93797e-34 0 -0 0 0)
(1 -8.3209e-17 -0 -1.62372e-16 1.35108e-32 0 -0 0 0)
(1 -1.95303e-16 -0 -2.2453e-16 4.38516e-32 0 -0 0 0)
(1 -2.25104e-16 -0 -1.84631e-16 4.15611e-32 0 -0 0 0)
(1 -1.36655e-16 -0 -9.85318e-17 1.34649e-32 0 -0 0 0)
(1 -6.04827e-17 -0 -8.11887e-17 4.91052e-33 0 -0 0 0)
(1 -2.93701e-17 -0 -2.53751e-17 7.45271e-34 0 -0 0 0)
(1 6.87592e-17 -0 1.27413e-16 8.76084e-33 -0 -0 -0 0)
(1 2.03626e-16 -0 2.34762e-16 4.78037e-32 -0 -0 -0 0)
(1 1.39106e-16 -0 9.19037e-17 1.27844e-32 -0 -0 -0 0)
(1 2.1159e-17 -0 -2.13052e-17 -4.50797e-34 0 -0 -0 0)
(1 -2.08438e-17 -0 -5.24874e-17 1.09404e-33 0 -0 0 0)
(1 2.66159e-17 -0 -6.62165e-17 -1.76241e-33 0 -0 -0 0)
(1 -1.61446e-15 -0 -1.74851e-15 2.82289e-30 0 -0 0 0)
(1 1.62482e-16 -0 2.26503e-16 3.68027e-32 -0 -0 -0 0)
(1 8.43603e-17 -0 1.09238e-16 9.21536e-33 -0 -0 -0 0)
(1 1.16868e-16 -0 8.0828e-17 9.44617e-33 -0 -0 -0 0)
(1 6.87653e-17 -0 -1.21671e-17 -8.36675e-34 0 -0 -0 0)
(1 -3.29877e-17 -0 -3.8415e-17 1.26722e-33 0 -0 0 0)
(1 1.12009e-17 -0 3.77189e-17 4.22486e-34 -0 -0 -0 0)
(1 -1.16826e-17 -0 1.35986e-17 -1.58867e-34 -0 -0 0 0)
(1 -5.33141e-17 -0 -9.14805e-17 4.8772e-33 0 -0 0 0)
(1 -7.26933e-17 -0 -3.99741e-17 2.90585e-33 0 -0 0 0)
(1 -2.11485e-17 -0 2.3288e-17 -4.92505e-34 -0 -0 0 0)
(1 -7.33677e-18 -0 -2.08169e-17 1.52729e-34 0 -0 0 0)
(1 -7.03664e-17 -0 -1.93435e-16 1.36114e-32 0 -0 0 0)
(1 -1.74532e-16 -0 -2.06155e-16 3.59805e-32 0 -0 0 0)
(1 -6.41129e-17 -0 -6.31227e-17 4.04698e-33 0 -0 0 0)
(1 1.7616e-17 -0 -2.94599e-17 -5.18964e-34 0 -0 -0 0)
(1 -7.00014e-17 -0 -8.33359e-17 5.83363e-33 0 -0 0 0)
(1 -6.45851e-17 -0 -2.79384e-17 1.8044e-33 0 -0 0 0)
(1 -4.57519e-17 -0 -2.13815e-17 9.78243e-34 0 -0 0 0)
(1 -3.24489e-17 -0 -9.01137e-17 2.92409e-33 0 -0 0 0)
(1 -3.37078e-14 -0 -3.34502e-14 1.12753e-27 0 -0 0 0)
(1 7.84067e-15 -0 7.83326e-15 6.1418e-29 -0 -0 -0 0)
(1 -1.41266e-15 -0 -1.40923e-15 1.99076e-30 0 -0 0 0)
(1 7.63498e-16 -0 7.06246e-16 5.39218e-31 -0 -0 -0 0)
(1 2.45988e-16 -0 7.09232e-17 1.74463e-32 -0 -0 -0 0)
(1 2.0738e-16 -0 9.44983e-17 1.9597e-32 -0 -0 -0 0)
(1 9.49288e-17 -0 1.86295e-17 1.76848e-33 -0 -0 -0 0)
(1 6.51893e-17 -0 -5.59008e-18 -3.64413e-34 0 -0 -0 0)
(1 -4.55458e-19 -0 -9.35514e-17 4.26087e-35 0 -0 0 0)
(1 -1.56974e-16 -0 -2.76383e-16 4.33849e-32 0 -0 0 0)
(1 -2.72129e-16 -0 -2.89185e-16 7.86956e-32 0 -0 0 0)
(1 -2.67743e-16 -0 -1.85712e-16 4.9723e-32 0 -0 0 0)
(1 -1.43335e-16 -0 -6.38591e-17 9.15327e-33 0 -0 0 0)
(1 -4.83477e-17 -0 -1.53232e-17 7.40842e-34 0 -0 0 0)
(1 2.02982e-17 -0 6.54831e-18 1.32919e-34 -0 -0 -0 0)
(1 2.82627e-17 -0 4.25825e-19 1.2035e-35 -0 -0 -0 0)
(1 1.41899e-17 -0 -4.74321e-18 -6.73059e-35 0 -0 -0 0)
(1 -4.27227e-17 -0 -3.86427e-17 1.65092e-33 0 -0 0 0)
(1 -5.39351e-17 -0 -7.10418e-17 3.83165e-33 0 -0 0 0)
(1 -6.40818e-17 -0 -8.02676e-17 5.14369e-33 0 -0 0 0)
(1 4.32974e-14 -0 4.38547e-14 1.89879e-27 -0 -0 -0 0)
(1 -8.57257e-15 -0 -8.83447e-15 7.57342e-29 0 -0 0 0)
(1 2.05376e-15 -0 2.0765e-15 4.26464e-30 -0 -0 -0 0)
(1 -2.94392e-16 -0 -3.64729e-16 1.07373e-31 0 -0 0 0)
(1 1.16446e-16 -0 3.09194e-17 3.60046e-33 -0 -0 -0 0)
(1 -2.71058e-17 -0 -1.28688e-16 3.48819e-33 0 -0 0 0)
(1 -4.79499e-17 -0 -1.71845e-16 8.23995e-33 0 -0 0 0)
(1 -2.00307e-17 -0 -1.54944e-16 3.10364e-33 0 -0 0 0)
(1 -4.45265e-17 -0 -1.02018e-16 4.54249e-33 0 -0 0 0)
(1 -4.30018e-17 -0 -1.88255e-16 8.09529e-33 0 -0 0 0)
(1 -1.82458e-16 -0 -2.39066e-16 4.36194e-32 0 -0 0 0)
(1 -2.08712e-16 -0 -1.69806e-16 3.54406e-32 0 -0 0 0)
(1 -3.1956e-17 -0 5.44472e-17 -1.73992e-33 -0 -0 0 0)
(1 9.92028e-17 -0 9.63454e-17 9.55773e-33 -0 -0 -0 0)
(1 -1.06037e-17 -0 4.47016e-19 -4.74002e-36 -0 -0 0 0)
(1 -6.54171e-17 -0 3.5931e-17 -2.3505e-33 -0 -0 0 0)
(1 5.22074e-17 -0 6.76644e-17 3.53258e-33 -0 -0 -0 0)
(1 2.68079e-17 -0 -4.9902e-17 -1.33777e-33 0 -0 -0 0)
(1 -4.08343e-17 -0 -1.42419e-16 5.81559e-33 0 -0 0 0)
(1 -5.38209e-17 -0 -4.65444e-17 2.50506e-33 0 -0 0 0)
(1 -9.85692e-15 -0 -1.03222e-14 1.01745e-28 0 -0 0 0)
(1 1.58752e-15 -0 1.74554e-15 2.77108e-30 -0 -0 -0 0)
(1 -1.14245e-16 -0 -1.13374e-16 1.29524e-32 0 -0 0 0)
(1 2.48713e-16 -0 1.95675e-16 4.86669e-32 -0 -0 -0 0)
(1 1.66392e-16 -0 7.5586e-17 1.25769e-32 -0 -0 -0 0)
(1 1.09481e-16 -0 -2.39831e-17 -2.62568e-33 0 -0 -0 0)
(1 8.44348e-17 -0 -1.0595e-16 -8.9459e-33 0 -0 -0 0)
(1 -3.59682e-17 -0 -1.79859e-16 6.4692e-33 0 -0 0 0)
(1 -7.62881e-17 -0 -1.12952e-16 8.61693e-33 0 -0 0 0)
(1 5.04855e-18 -0 -1.66034e-17 -8.38229e-35 0 -0 -0 0)
(1 -6.54699e-17 -0 -1.06249e-16 6.9561e-33 0 -0 0 0)
(1 -1.40717e-16 -0 -1.53694e-16 2.16274e-32 0 -0 0 0)
(1 -9.87658e-17 -0 -9.09276e-17 8.98055e-33 0 -0 0 0)
(1 -2.41566e-17 -0 -4.5693e-17 1.10379e-33 0 -0 0 0)
(1 -4.62187e-17 -0 -6.10781e-17 2.82295e-33 0 -0 0 0)
(1 -1.26816e-16 -0 -7.68468e-17 9.7454e-33 0 -0 0 0)
(1 -1.32982e-16 -0 -7.35199e-17 9.77679e-33 0 -0 0 0)
(1 -5.47258e-17 -0 -7.49389e-17 4.10109e-33 0 -0 0 0)
(1 -7.30998e-17 -0 -5.93717e-17 4.34006e-33 0 -0 0 0)
(1 4.86358e-17 -0 1.5992e-17 7.77784e-34 -0 -0 -0 0)
(1 -8.52172e-15 -0 -8.10224e-15 6.9045e-29 0 -0 0 0)
(1 2.11789e-15 -0 1.96893e-15 4.16996e-30 -0 -0 -0 0)
(1 -4.50331e-16 -0 -4.86154e-16 2.18931e-31 0 -0 0 0)
(1 2.47868e-16 -0 2.5682e-16 6.36575e-32 -0 -0 -0 0)
(1 2.02516e-16 -0 1.79197e-16 3.62902e-32 -0 -0 -0 0)
(1 2.95087e-16 -0 1.46381e-16 4.3195e-32 -0 -0 -0 0)
(1 1.1132e-16 -0 -6.9436e-17 -7.72965e-33 0 -0 -0 0)
(1 -4.81349e-17 -0 -1.83163e-16 8.81653e-33 0 -0 0 0)
(1 -1.00099e-16 -0 -1.83014e-16 1.83194e-32 0 -0 0 0)
(1 -1.69456e-16 -0 -1.47479e-16 2.49912e-32 0 -0 0 0)
(1 -2.30779e-16 -0 -1.7681e-16 4.08039e-32 0 -0 0 0)
(1 -1.94366e-16 -0 -1.41127e-16 2.74303e-32 0 -0 0 0)
(1 -1.2144e-16 -0 -9.67857e-17 1.17537e-32 0 -0 0 0)
(1 -5.77569e-17 -0 -5.59783e-17 3.23313e-33 0 -0 0 0)
(1 1.73157e-17 -0 -4.86238e-17 -8.41957e-34 0 -0 -0 0)
(1 -4.04267e-17 -0 -1.21997e-16 4.93194e-33 0 -0 0 0)
(1 -1.67049e-16 -0 -1.09944e-16 1.8366e-32 0 -0 0 0)
(1 -1.42914e-16 -0 6.18821e-20 -8.84384e-36 -0 -0 0 0)
(1 -9.95399e-17 -0 -1.29607e-17 1.29011e-33 0 -0 0 0)
(1 3.79725e-17 -0 -3.3797e-18 -1.28336e-34 0 -0 -0 0)
(1 3.20194e-15 -0 3.05082e-15 9.76856e-30 -0 -0 -0 0)
(1 -1.0048e-15 -0 -1.00611e-15 1.01094e-30 0 -0 0 0)
(1 1.85557e-16 -0 1.56127e-16 2.89706e-32 -0 -0 -0 0)
(1 3.13626e-18 -0 -7.03365e-17 -2.20594e-34 0 -0 -0 0)
(1 6.33242e-17 -0 -1.99418e-17 -1.2628e-33 0 -0 -0 0)
(1 -2.2006e-17 -0 -1.08925e-16 2.39701e-33 0 -0 0 0)
(1 -7.9584e-17 -0 -1.46183e-16 1.16339e-32 0 -0 0 0)
(1 -8.17467e-17 -0 -1.48159e-16 1.21115e-32 0 -0 0 0)
(1 -1.16055e-16 -0 -1.46949e-16 1.70541e-32 0 -0 0 0)
(1 -1.70363e-16 -0 -4.45723e-17 7.59348e-33 0 -0 0 0)
(1 6.52984e-17 -0 1.0324e-16 6.74144e-33 -0 -0 -0 0)
(1 7.02865e-17 -0 -5.3414e-18 -3.75428e-34 0 -0 -0 0)
(1 -8.72566e-17 -0 -1.08376e-16 9.45653e-33 0 -0 0 0)
(1 -1.54891e-16 -0 -1.38113e-16 2.13925e-32 0 -0 0 0)
(1 -1.58324e-16 -0 -1.5166e-16 2.40114e-32 0 -0 0 0)
(1 -8.67985e-17 -0 -1.30983e-16 1.13691e-32 0 -0 0 0)
(1 -8.99718e-17 -0 -9.82864e-17 8.84301e-33 0 -0 0 0)
(1 -1.68126e-16 -0 -1.37528e-17 2.3122e-33 0 -0 0 0)
(1 -6.68691e-17 -0 2.5361e-17 -1.69587e-33 -0 -0 0 0)
(1 -4.88265e-18 -0 -2.88109e-17 1.40674e-34 0 -0 0 0)
(1 4.00131e-15 -0 4.39976e-15 1.76048e-29 -0 -0 -0 0)
(1 -1.72493e-16 -0 -2.40366e-16 4.14615e-32 0 -0 0 0)
(1 3.48946e-16 -0 3.20168e-16 1.11721e-31 -0 -0 -0 0)
(1 1.84333e-16 -0 7.56901e-17 1.39522e-32 -0 -0 -0 0)
(1 8.67457e-17 -0 -4.6938e-18 -4.07167e-34 0 -0 -0 0)
(1 2.08062e-17 -0 -4.96452e-17 -1.03293e-33 0 -0 -0 0)
(1 5.26876e-17 -0 -1.66945e-17 -8.79593e-34 0 -0 -0 0)
(1 -4.13696e-17 -0 -6.21935e-17 2.57292e-33 0 -0 0 0)
(1 -1.29966e-16 -0 -1.61442e-16 2.09819e-32 0 -0 0 0)
(1 -1.27226e-16 -0 -5.59227e-17 7.11481e-33 0 -0 0 0)
(1 9.28187e-17 -0 8.40211e-17 7.79873e-33 -0 -0 -0 0)
(1 9.2057e-17 -0 9.57816e-18 8.81737e-34 -0 -0 -0 0)
(1 -6.82829e-17 -0 -1.14851e-16 7.84237e-33 0 -0 0 0)
(1 -1.45052e-16 -0 -1.47249e-16 2.13587e-32 0 -0 0 0)
(1 -2.17678e-16 -0 -1.64986e-16 3.59139e-32 0 -0 0 0)
(1 -1.19366e-16 -0 -5.91847e-17 7.06465e-33 0 -0 0 0)
(1 1.29143e-17 -0 1.91889e-17 2.47812e-34 -0 -0 -0 0)
(1 5.11539e-17 -0 3.23972e-17 1.65724e-33 -0 -0 -0 0)
(1 5.01566e-17 -0 1.28756e-16 6.45794e-33 -0 -0 -0 0)
(1 3.82991e-17 -0 7.58057e-17 2.90329e-33 -0 -0 -0 0)
(1 1.56449e-15 -0 1.51173e-15 2.36509e-30 -0 -0 -0 0)
(1 -6.17959e-17 -0 -1.70476e-16 1.05347e-32 0 -0 0 0)
(1 4.24432e-17 -0 7.23282e-17 3.06984e-33 -0 -0 -0 0)
(1 1.24445e-17 -0 3.12437e-17 3.88811e-34 -0 -0 -0 0)
(1 -2.33978e-17 -0 -6.50886e-17 1.52293e-33 0 -0 0 0)
(1 -6.59828e-17 -0 -1.01279e-16 6.68267e-33 0 -0 0 0)
(1 -1.12168e-16 -0 -9.11648e-17 1.02258e-32 0 -0 0 0)
(1 -8.85015e-17 -0 -3.86243e-19 3.41831e-35 0 -0 0 0)
(1 6.57273e-19 -0 -4.51059e-18 -2.96469e-36 0 -0 -0 0)
(1 5.93892e-17 -0 -4.02777e-17 -2.39206e-33 0 -0 -0 0)
(1 -7.45921e-17 -0 -5.91557e-17 4.41255e-33 0 -0 0 0)
(1 2.66994e-17 -0 7.98621e-17 2.13227e-33 -0 -0 -0 0)
(1 1.06774e-16 -0 7.67846e-17 8.19857e-33 -0 -0 -0 0)
(1 9.49924e-17 -0 7.46501e-17 7.09119e-33 -0 -0 -0 0)
(1 3.04608e-17 -0 5.68186e-17 1.73074e-33 -0 -0 -0 0)
(1 -2.94505e-17 -0 -4.71043e-17 1.38725e-33 0 -0 0 0)
(1 -1.93821e-17 -0 -4.25903e-17 8.25489e-34 0 -0 0 0)
(1 1.18005e-16 -0 5.18753e-17 6.12154e-33 -0 -0 -0 0)
(1 8.78115e-17 -0 9.99981e-17 8.78098e-33 -0 -0 -0 0)
(1 1.75527e-17 -0 1.11217e-16 1.95215e-33 -0 -0 -0 0)
(1 -1.25459e-14 -0 -1.32552e-14 1.66299e-28 0 -0 0 0)
(1 2.12224e-15 -0 2.18702e-15 4.6414e-30 -0 -0 -0 0)
(1 -3.3592e-16 -0 -3.41597e-16 1.14749e-31 0 -0 0 0)
(1 2.37552e-16 -0 2.55225e-16 6.06293e-32 -0 -0 -0 0)
(1 5.10405e-17 -0 -5.96051e-17 -3.04227e-33 0 -0 -0 0)
(1 -1.20674e-16 -0 -1.64149e-16 1.98086e-32 0 -0 0 0)
(1 -2.24686e-16 -0 -2.21517e-16 4.97716e-32 0 -0 0 0)
(1 -1.84071e-16 -0 -1.92367e-16 3.54091e-32 0 -0 0 0)
(1 -1.37436e-16 -0 -1.43136e-16 1.9672e-32 0 -0 0 0)
(1 -1.56843e-16 -0 -1.58829e-16 2.49113e-32 0 -0 0 0)
(1 -2.08719e-16 -0 -1.53507e-16 3.20398e-32 0 -0 0 0)
(1 -6.40051e-17 -0 -4.71603e-17 3.0185e-33 0 -0 0 0)
(1 1.63065e-17 -0 -4.59272e-17 -7.48912e-34 0 -0 -0 0)
(1 -8.61756e-18 -0 -1.99877e-17 1.72245e-34 0 -0 0 0)
(1 1.03808e-17 -0 7.77116e-17 8.06709e-34 -0 -0 -0 0)
(1 4.22004e-17 -0 9.08363e-17 3.83333e-33 -0 -0 -0 0)
(1 6.82155e-17 -0 7.23155e-17 4.93304e-33 -0 -0 -0 0)
(1 8.81177e-17 -0 4.56109e-17 4.01913e-33 -0 -0 -0 0)
(1 2.29583e-17 -0 -7.11921e-18 -1.63445e-34 0 -0 -0 0)
(1 -1.76453e-17 -0 6.1113e-18 -1.07835e-34 -0 -0 0 0)
(1 2.1533e-14 -0 2.20338e-14 4.74454e-28 -0 -0 -0 0)
(1 -3.81589e-15 -0 -4.02719e-15 1.53673e-29 0 -0 0 0)
(1 1.03294e-15 -0 9.95643e-16 1.02844e-30 -0 -0 -0 0)
(1 -8.70868e-17 -0 -1.36147e-16 1.18566e-32 0 -0 0 0)
(1 7.7127e-17 -0 2.92716e-17 2.25763e-33 -0 -0 -0 0)
(1 1.53217e-17 -0 -2.18238e-17 -3.34378e-34 0 -0 -0 0)
(1 -4.09944e-17 -0 -5.72521e-17 2.34702e-33 0 -0 0 0)
(1 -1.1008e-16 -0 -1.21315e-16 1.33544e-32 0 -0 0 0)
(1 -1.1453e-16 -0 -8.15306e-17 9.33771e-33 0 -0 0 0)
(1 -9.20515e-17 -0 -4.21357e-17 3.87866e-33 0 -0 0 0)
(1 -6.61778e-17 -0 -2.17486e-17 1.43927e-33 0 -0 0 0)
(1 -5.98957e-17 -0 -3.70961e-17 2.2219e-33 0 -0 0 0)
(1 -2.34752e-17 -0 -6.35662e-17 1.49223e-33 0 -0 0 0)
(1 -3.94001e-17 -0 -8.85503e-17 3.4889e-33 0 -0 0 0)
(1 1.10089e-17 -0 -4.73448e-18 -5.21212e-35 0 -0 -0 0)
(1 9.60871e-17 -0 8.63614e-17 8.29822e-33 -0 -0 -0 0)
(1 6.55339e-17 -0 3.51856e-17 2.30585e-33 -0 -0 -0 0)
(1 -3.46046e-17 -0 -5.55084e-17 1.92084e-33 0 -0 0 0)
(1 -1.96379e-17 -0 -2.87538e-18 5.64663e-35 0 -0 0 0)
(1 8.4716e-18 -0 -4.02251e-17 -3.40771e-34 0 -0 -0 0)
(1 -1.02703e-14 -0 -9.77437e-15 1.00385e-28 0 -0 0 0)
(1 2.82631e-15 -0 2.60346e-15 7.35818e-30 -0 -0 -0 0)
(1 -5.73729e-16 -0 -7.49238e-16 4.29859e-31 0 -0 0 0)
(1 1.09266e-16 -0 -1.16777e-17 -1.27598e-33 0 -0 -0 0)
(1 -9.92381e-17 -0 -7.36463e-17 7.30852e-33 0 -0 0 0)
(1 8.06624e-17 -0 6.36264e-17 5.13226e-33 -0 -0 -0 0)
(1 6.46028e-17 -0 4.45727e-17 2.87952e-33 -0 -0 -0 0)
(1 1.11764e-17 -0 3.76924e-19 4.21265e-36 -0 -0 -0 0)
(1 -5.7995e-17 -0 -4.61189e-18 2.67466e-34 0 -0 0 0)
(1 -6.23824e-18 -0 1.96672e-17 -1.22689e-34 -0 -0 0 0)
(1 6.38191e-17 -0 1.34218e-16 8.5657e-33 -0 -0 -0 0)
(1 9.78451e-17 -0 1.15117e-16 1.12636e-32 -0 -0 -0 0)
(1 4.36667e-17 -0 -2.93147e-17 -1.28008e-33 0 -0 -0 0)
(1 -6.84122e-17 -0 -1.75052e-16 1.19757e-32 0 -0 0 0)
(1 -8.17111e-17 -0 -1.98082e-16 1.61855e-32 0 -0 0 0)
(1 -1.12318e-16 -0 -1.56235e-16 1.7548e-32 0 -0 0 0)
(1 -5.03172e-17 -0 -5.50915e-17 2.77205e-33 0 -0 0 0)
(1 -1.52104e-17 -0 -3.9594e-17 6.0224e-34 0 -0 0 0)
(1 2.52881e-17 -0 2.67472e-17 6.76383e-34 -0 -0 -0 0)
(1 1.86687e-17 -0 -2.44387e-17 -4.5624e-34 0 -0 -0 0)
(1 -2.35551e-14 -0 -2.3708e-14 5.58444e-28 0 -0 0 0)
(1 4.70181e-15 -0 4.70891e-15 2.21404e-29 -0 -0 -0 0)
(1 -9.1272e-16 -0 -1.14446e-15 1.04457e-30 0 -0 0 0)
(1 2.174e-16 -0 5.49469e-17 1.19455e-32 -0 -0 -0 0)
(1 -1.44848e-16 -0 -1.38742e-16 2.00965e-32 0 -0 0 0)
(1 -1.00058e-16 -0 -5.01204e-17 5.01494e-33 0 -0 0 0)
(1 -8.63318e-17 -0 -4.98324e-17 4.30213e-33 0 -0 0 0)
(1 -5.17008e-17 -0 -7.0191e-17 3.62893e-33 0 -0 0 0)
(1 -1.0683e-16 -0 -5.60509e-17 5.9879e-33 0 -0 0 0)
(1 1.4708e-17 -0 8.88449e-17 1.30673e-33 -0 -0 -0 0)
(1 1.36125e-16 -0 1.14905e-16 1.56414e-32 -0 -0 -0 0)
(1 1.07379e-16 -0 -2.15599e-17 -2.31509e-33 0 -0 -0 0)
(1 -5.22433e-17 -0 -1.19741e-16 6.25569e-33 0 -0 0 0)
(1 -7.91512e-17 -0 -1.48036e-16 1.17172e-32 0 -0 0 0)
(1 -9.88414e-17 -0 -2.16134e-16 2.1363e-32 0 -0 0 0)
(1 -2.07624e-16 -0 -2.31719e-16 4.81104e-32 0 -0 0 0)
(1 -6.06118e-17 -0 -1.05862e-18 6.41646e-35 0 -0 0 0)
(1 1.00138e-16 -0 9.50778e-17 9.52089e-33 -0 -0 -0 0)
(1 7.3801e-17 -0 4.0673e-17 3.00171e-33 -0 -0 -0 0)
(1 -2.61796e-17 -0 1.80727e-18 -4.73134e-35 -0 -0 0 0)
(1 2.39851e-14 -0 2.41427e-14 5.79065e-28 -0 -0 -0 0)
(1 -4.74768e-15 -0 -4.79055e-15 2.2744e-29 0 -0 0 0)
(1 1.28304e-15 -0 1.24114e-15 1.59243e-30 -0 -0 -0 0)
(1 -2.43456e-16 -0 -2.53638e-16 6.17495e-32 0 -0 0 0)
(1 4.47042e-17 -0 1.28973e-16 5.76562e-33 -0 -0 -0 0)
(1 1.17862e-17 -0 7.53688e-17 8.8831e-34 -0 -0 -0 0)
(1 9.07931e-17 -0 7.24092e-17 6.57426e-33 -0 -0 -0 0)
(1 1.15189e-17 -0 2.60733e-17 3.00337e-34 -0 -0 -0 0)
(1 -1.14145e-17 -0 8.43368e-17 -9.62664e-34 -0 -0 0 0)
(1 7.53932e-17 -0 8.83079e-17 6.65782e-33 -0 -0 -0 0)
(1 5.12858e-17 -0 -1.07248e-16 -5.50033e-33 0 -0 -0 0)
(1 -4.7275e-17 -0 -9.81716e-17 4.64106e-33 0 -0 0 0)
(1 3.37178e-17 -0 1.03143e-16 3.47775e-33 -0 -0 -0 0)
(1 1.11029e-16 -0 1.12028e-16 1.24383e-32 -0 -0 -0 0)
(1 8.52066e-17 -0 3.54738e-17 3.0226e-33 -0 -0 -0 0)
(1 6.79598e-17 -0 -1.04256e-17 -7.08523e-34 0 -0 -0 0)
(1 4.69368e-17 -0 -1.77756e-18 -8.3433e-35 0 -0 -0 0)
(1 4.60396e-17 -0 1.16548e-16 5.36584e-33 -0 -0 -0 0)
(1 8.38861e-17 -0 9.21414e-17 7.72939e-33 -0 -0 -0 0)
(1 3.18126e-17 -0 1.07664e-17 3.42508e-34 -0 -0 -0 0)
(1 1.89924e-14 -0 1.95282e-14 3.70888e-28 -0 -0 -0 0)
(1 -3.08165e-15 -0 -3.34765e-15 1.03163e-29 0 -0 0 0)
(1 7.84395e-16 -0 7.78787e-16 6.10877e-31 -0 -0 -0 0)
(1 -1.81891e-16 -0 -1.30019e-16 2.36493e-32 0 -0 0 0)
(1 2.38049e-17 -0 9.9143e-17 2.36009e-33 -0 -0 -0 0)
(1 7.45262e-17 -0 8.81462e-17 6.5692e-33 -0 -0 -0 0)
(1 1.20618e-16 -0 5.29748e-17 6.38972e-33 -0 -0 -0 0)
(1 -2.35088e-18 -0 -2.86212e-18 6.72848e-36 0 -0 0 0)
(1 -4.43731e-17 -0 1.75528e-17 -7.78871e-34 -0 -0 0 0)
(1 -5.60837e-17 -0 -6.0943e-17 3.41791e-33 0 -0 0 0)
(1 -7.55825e-17 -0 -1.24803e-16 9.43292e-33 0 -0 0 0)
(1 -4.47896e-17 -0 5.62196e-18 -2.51806e-34 -0 -0 0 0)
(1 1.08118e-16 -0 1.34052e-16 1.44935e-32 -0 -0 -0 0)
(1 6.0189e-17 -0 5.64883e-17 3.39997e-33 -0 -0 -0 0)
(1 2.16985e-17 -0 3.76754e-17 8.17501e-34 -0 -0 -0 0)
(1 8.73583e-17 -0 8.96127e-17 7.82841e-33 -0 -0 -0 0)
(1 9.97081e-17 -0 5.56009e-17 5.54386e-33 -0 -0 -0 0)
(1 4.11334e-17 -0 8.26051e-17 3.39783e-33 -0 -0 -0 0)
(1 6.14332e-17 -0 5.62699e-17 3.45683e-33 -0 -0 -0 0)
(1 4.55672e-17 -0 -5.30346e-18 -2.41664e-34 0 -0 -0 0)
)
;

boundaryField
{
    movingWall
    {
        type            calculated;
        value           uniform (1 0 0 0 0 0 0 0 0);
    }
    fixedWalls
    {
        type            calculated;
        value           uniform (1 0 0 0 0 0 0 0 0);
    }
    frontAndBack
    {
        type            empty;
    }
}


// ************************************************************************* //
