/*--------------------------------*- C++ -*----------------------------------*\
| =========                 |                                                 |
| \\      /  F ield         | OpenFOAM: The Open Source CFD Toolbox           |
|  \\    /   O peration     | Version:  2312                                  |
|   \\  /    A nd           | Website:  www.openfoam.com                      |
|    \\/     M anipulation  |                                                 |
\*---------------------------------------------------------------------------*/
FoamFile
{
    version     2.0;
    format      ascii;
    arch        "LSB;label=32;scalar=64";
    class       volVectorField;
    location    "8";
    object      UMean;
}
// * * * * * * * * * * * * * * * * * * * * * * * * * * * * * * * * * * * * * //

dimensions      [0 1 -1 0 0 0 0];

internalField   nonuniform List<vector> 
400
(
(-0.687558 4.68209e-05 0)
(-0.687939 0.000211496 0)
(-0.688647 0.000318142 0)
(-0.689464 0.000371733 0)
(-0.690366 0.000421159 0)
(-0.691375 0.000486484 0)
(-0.692522 0.000572143 0)
(-0.693814 0.000664034 0)
(-0.695197 0.000713206 0)
(-0.696532 0.000669218 0)
(-0.697615 0.000506144 0)
(-0.698234 0.000233024 0)
(-0.698223 -0.000138961 0)
(-0.697446 -0.000534946 0)
(-0.695919 -0.000901528 0)
(-0.693816 -0.00114256 0)
(-0.691451 -0.00114886 0)
(-0.689198 -0.000838731 0)
(-0.6877 -0.000337364 0)
(-0.687341 8.23647e-05 0)
(-0.687761 0.000460032 0)
(-0.688522 0.000988865 0)
(-0.689563 0.00127765 0)
(-0.690728 0.00142761 0)
(-0.691984 0.00157375 0)
(-0.693353 0.00175903 0)
(-0.694853 0.00195592 0)
(-0.696451 0.0020931 0)
(-0.698059 0.0020779 0)
(-0.699545 0.00182698 0)
(-0.700742 0.00129797 0)
(-0.701469 0.000497907 0)
(-0.701551 -0.000522992 0)
(-0.700862 -0.0016547 0)
(-0.699333 -0.00272068 0)
(-0.697036 -0.00346948 0)
(-0.694206 -0.00362646 0)
(-0.691221 -0.00294598 0)
(-0.688627 -0.00153294 0)
(-0.687497 -8.76486e-05 0)
(-0.687955 0.00127624 0)
(-0.688935 0.00204972 0)
(-0.6901 0.00246933 0)
(-0.691404 0.00273103 0)
(-0.692819 0.00299422 0)
(-0.694359 0.00330297 0)
(-0.696034 0.00360278 0)
(-0.69782 0.00378353 0)
(-0.699636 0.0037124 0)
(-0.701363 0.00327307 0)
(-0.702834 0.00239357 0)
(-0.703859 0.00105695 0)
(-0.704249 -0.000671823 0)
(-0.703873 -0.0026483 0)
(-0.702635 -0.00462436 0)
(-0.700463 -0.00621796 0)
(-0.697405 -0.00692518 0)
(-0.693723 -0.00621039 0)
(-0.689992 -0.00387174 0)
(-0.687683 -0.000904492 0)
(-0.688066 0.00228398 0)
(-0.689177 0.00322163 0)
(-0.690403 0.00373732 0)
(-0.691754 0.00411512 0)
(-0.693223 0.00451061 0)
(-0.694838 0.00496084 0)
(-0.696621 0.00539417 0)
(-0.698552 0.00566164 0)
(-0.700555 0.00558008 0)
(-0.702496 0.00498325 0)
(-0.704198 0.00376515 0)
(-0.705467 0.00190772 0)
(-0.706135 -0.000514775 0)
(-0.706072 -0.00332364 0)
(-0.705205 -0.00624047 0)
(-0.703424 -0.00886516 0)
(-0.700577 -0.0105681 0)
(-0.696612 -0.0104591 0)
(-0.691944 -0.00765203 0)
(-0.688136 -0.00247601 0)
(-0.688105 0.00339354 0)
(-0.689265 0.00445993 0)
(-0.690492 0.00503954 0)
(-0.691825 0.0055186 0)
(-0.693279 0.00605235 0)
(-0.694891 0.00666996 0)
(-0.696694 0.00727238 0)
(-0.698671 0.00766252 0)
(-0.700738 0.00759624 0)
(-0.70274 0.00685307 0)
(-0.704489 0.00530833 0)
(-0.705819 0.00296745 0)
(-0.706607 -6.30256e-05 0)
(-0.706776 -0.00357653 0)
(-0.706248 -0.00730571 0)
(-0.704975 -0.0109179 0)
(-0.702717 -0.0138471 0)
(-0.699083 -0.0150167 0)
(-0.694047 -0.0126964 0)
(-0.689073 -0.00556862 0)
(-0.688084 0.00451571 0)
(-0.68922 0.00569102 0)
(-0.690393 0.00631471 0)
(-0.691652 0.0068841 0)
(-0.69302 0.00755648 0)
(-0.694538 0.00835009 0)
(-0.696245 0.0091329 0)
(-0.698126 0.00965245 0)
(-0.700094 0.00959652 0)
(-0.702006 0.00870271 0)
(-0.70371 0.00685059 0)
(-0.705079 0.00407354 0)
(-0.705986 0.000519143 0)
(-0.706315 -0.0036028 0)
(-0.706013 -0.00799753 0)
(-0.705093 -0.0123772 0)
(-0.703431 -0.0163853 0)
(-0.700511 -0.0191438 0)
(-0.695716 -0.0183586 0)
(-0.69007 -0.0102435 0)
(-0.688022 0.00557614 0)
(-0.689071 0.00685173 0)
(-0.690142 0.00750525 0)
(-0.691272 0.00814429 0)
(-0.692483 0.00893333 0)
(-0.69381 0.00988399 0)
(-0.695292 0.0108289 0)
(-0.696927 0.0114672 0)
(-0.698656 0.0114367 0)
(-0.700388 0.0104507 0)
(-0.702035 0.00838649 0)
(-0.703477 0.00526725 0)
(-0.704546 0.00122822 0)
(-0.705063 -0.00348491 0)
(-0.704959 -0.00851817 0)
(-0.704269 -0.0135185 0)
(-0.70301 -0.0183059 0)
(-0.700819 -0.022474 0)
(-0.696652 -0.0238497 0)
(-0.690834 -0.0162085 0)
(-0.687933 0.00651336 0)
(-0.688849 0.0078902 0)
(-0.689777 0.00855837 0)
(-0.690732 0.00923517 0)
(-0.691724 0.0100963 0)
(-0.692776 0.0111535 0)
(-0.693914 0.0122182 0)
(-0.695168 0.0129759 0)
(-0.696532 0.0130245 0)
(-0.697987 0.0120468 0)
(-0.699505 0.00990792 0)
(-0.700982 0.00657434 0)
(-0.702209 0.00212498 0)
(-0.702978 -0.00316392 0)
(-0.703158 -0.00883765 0)
(-0.702768 -0.014425 0)
(-0.701861 -0.019824 0)
(-0.700289 -0.0250531 0)
(-0.69689 -0.0287243 0)
(-0.691272 -0.0229024 0)
(-0.687829 0.00728551 0)
(-0.688579 0.00876601 0)
(-0.689337 0.00943394 0)
(-0.690088 0.0101099 0)
(-0.690821 0.0109839 0)
(-0.691538 0.0120743 0)
(-0.692259 0.0131946 0)
(-0.693031 0.0140461 0)
(-0.693901 0.0142234 0)
(-0.694922 0.0133972 0)
(-0.696149 0.0113608 0)
(-0.697524 0.00797271 0)
(-0.698866 0.00324727 0)
(-0.699914 -0.00253718 0)
(-0.700487 -0.00877774 0)
(-0.700569 -0.0149411 0)
(-0.700154 -0.0209085 0)
(-0.699202 -0.0269864 0)
(-0.696637 -0.03286 0)
(-0.691469 -0.0297735 0)
(-0.687723 0.00787029 0)
(-0.688291 0.0094564 0)
(-0.688865 0.0101101 0)
(-0.689401 0.0107431 0)
(-0.689867 0.011561 0)
(-0.690235 0.0125969 0)
(-0.690514 0.0136987 0)
(-0.690753 0.0145928 0)
(-0.691036 0.0149101 0)
(-0.691468 0.0143015 0)
(-0.692162 0.0125192 0)
(-0.693181 0.00934128 0)
(-0.694468 0.0046285 0)
(-0.695762 -0.00140432 0)
(-0.696875 -0.00809754 0)
(-0.697639 -0.0148289 0)
(-0.697912 -0.0213639 0)
(-0.6977 -0.0282388 0)
(-0.696044 -0.0361551 0)
(-0.691588 -0.0364854 0)
(-0.687624 0.00826543 0)
(-0.688015 0.00995617 0)
(-0.688408 0.010582 0)
(-0.688738 0.0111339 0)
(-0.688951 0.0118335 0)
(-0.688999 0.0127304 0)
(-0.688874 0.0137171 0)
(-0.688606 0.014561 0)
(-0.688289 0.0149545 0)
(-0.688051 0.0145727 0)
(-0.68806 0.0131476 0)
(-0.68845 0.0104085 0)
(-0.689376 0.00606563 0)
(-0.690822 0.000166935 0)
(-0.692519 -0.00670603 0)
(-0.694076 -0.0138633 0)
(-0.695188 -0.0209822 0)
(-0.695853 -0.0286363 0)
(-0.695208 -0.0385382 0)
(-0.691717 -0.0428742 0)
(-0.687546 0.00848838 0)
(-0.687783 0.0102788 0)
(-0.688011 0.0108636 0)
(-0.688157 0.0113037 0)
(-0.688151 0.0118372 0)
(-0.687937 0.0125274 0)
(-0.687491 0.0133082 0)
(-0.686826 0.0139979 0)
(-0.686018 0.0143512 0)
(-0.685195 0.0141016 0)
(-0.68453 0.0130016 0)
(-0.684224 0.010794 0)
(-0.684553 0.0072076 0)
(-0.685781 0.00202434 0)
(-0.687836 -0.00458392 0)
(-0.690147 -0.0119393 0)
(-0.692144 -0.0196298 0)
(-0.693744 -0.0280491 0)
(-0.69421 -0.0399259 0)
(-0.691884 -0.0488898 0)
(-0.687505 0.00858067 0)
(-0.687625 0.0104517 0)
(-0.687715 0.0109801 0)
(-0.687703 0.0112849 0)
(-0.687515 0.0116236 0)
(-0.687101 0.0120714 0)
(-0.68643 0.0125941 0)
(-0.685508 0.0130591 0)
(-0.684393 0.0132796 0)
(-0.683197 0.0130473 0)
(-0.682084 0.0121631 0)
(-0.681267 0.010438 0)
(-0.681026 0.007647 0)
(-0.681755 0.00354476 0)
(-0.683641 -0.00216217 0)
(-0.686303 -0.00931838 0)
(-0.689032 -0.0173166 0)
(-0.691499 -0.0264173 0)
(-0.693139 -0.0402413 0)
(-0.69211 -0.0545198 0)
(-0.687513 0.00862306 0)
(-0.68757 0.0105228 0)
(-0.687556 0.010963 0)
(-0.687408 0.011109 0)
(-0.687066 0.0112387 0)
(-0.686496 0.0114387 0)
(-0.685675 0.0116964 0)
(-0.68461 0.0119229 0)
(-0.68335 0.0119802 0)
(-0.681989 0.0117114 0)
(-0.680673 0.0109691 0)
(-0.679596 0.00962992 0)
(-0.678984 0.00755076 0)
(-0.679158 0.00446239 0)
(-0.680512 -3.54013e-05 0)
(-0.682995 -0.00638697 0)
(-0.686092 -0.0142201 0)
(-0.68925 -0.0237909 0)
(-0.692024 -0.039319 0)
(-0.692387 -0.0595851 0)
(-0.687593 0.00862132 0)
(-0.687669 0.0105114 0)
(-0.687573 0.0108216 0)
(-0.687297 0.0107838 0)
(-0.686808 0.0107012 0)
(-0.686098 0.0106676 0)
(-0.685161 0.0106857 0)
(-0.684013 0.0106981 0)
(-0.682695 0.0106084 0)
(-0.68129 0.0103031 0)
(-0.679918 0.00967668 0)
(-0.678728 0.00864118 0)
(-0.677896 0.00709659 0)
(-0.677648 0.00484283 0)
(-0.678353 0.00147034 0)
(-0.680298 -0.00360503 0)
(-0.683355 -0.0106832 0)
(-0.686975 -0.0203757 0)
(-0.690613 -0.0369171 0)
(-0.692599 -0.0638445 0)
(-0.687782 0.00904581 0)
(-0.68793 0.0106063 0)
(-0.687776 0.0106252 0)
(-0.687371 0.0103362 0)
(-0.686725 0.0100271 0)
(-0.685865 0.00977721 0)
(-0.684807 0.00959233 0)
(-0.68358 0.00943168 0)
(-0.682222 0.00922772 0)
(-0.680799 0.00890066 0)
(-0.679406 0.00837252 0)
(-0.678157 0.00757321 0)
(-0.677186 0.00642891 0)
(-0.676655 0.00480645 0)
(-0.676837 0.00237548 0)
(-0.678088 -0.00142836 0)
(-0.680878 -0.00724263 0)
(-0.684289 -0.0166444 0)
(-0.688326 -0.033134 0)
(-0.692505 -0.0676898 0)
(-0.688204 0.00846912 0)
(-0.688651 0.00994379 0)
(-0.6883 0.00989093 0)
(-0.68764 0.00951661 0)
(-0.686762 0.00909226 0)
(-0.685703 0.00870428 0)
(-0.684481 0.00838331 0)
(-0.683128 0.00810875 0)
(-0.681684 0.00783402 0)
(-0.680199 0.00750259 0)
(-0.678744 0.00705681 0)
(-0.677403 0.00644157 0)
(-0.676291 0.00560867 0)
(-0.675539 0.00446208 0)
(-0.675365 0.00278856 0)
(-0.675966 5.40314e-05 0)
(-0.678387 -0.0042768 0)
(-0.680431 -0.013228 0)
(-0.685243 -0.0287556 0)
(-0.691814 -0.0722375 0)
(-0.688786 0.0136866 0)
(-0.689256 0.0131709 0)
(-0.688539 0.0114369 0)
(-0.687551 0.00991138 0)
(-0.686383 0.00882304 0)
(-0.68502 0.00801835 0)
(-0.683497 0.00741578 0)
(-0.681871 0.006949 0)
(-0.680189 0.0065517 0)
(-0.678495 0.00616994 0)
(-0.676842 0.00576103 0)
(-0.67531 0.00529184 0)
(-0.673992 0.00472239 0)
(-0.672974 0.00398673 0)
(-0.672485 0.00296835 0)
(-0.672448 0.00115442 0)
(-0.674601 -0.00197755 0)
(-0.673607 -0.00995398 0)
(-0.683122 -0.0228167 0)
(-0.688653 -0.075853 0)
(-0.689592 0.00511358 0)
(-0.690407 0.0031491 0)
(-0.687884 0.00326035 0)
(-0.68508 0.00411535 0)
(-0.682188 0.00432043 0)
(-0.679371 0.00417123 0)
(-0.676707 0.0039881 0)
(-0.674189 0.00383972 0)
(-0.671798 0.0037007 0)
(-0.669518 0.00354731 0)
(-0.667358 0.0033699 0)
(-0.665341 0.00315933 0)
(-0.663519 0.00290383 0)
(-0.661897 0.00255238 0)
(-0.660754 0.00207178 0)
(-0.659576 0.00107138 0)
(-0.661619 -0.000325776 0)
(-0.657661 -0.00525922 0)
(-0.68018 -0.0118551 0)
(-0.669454 -0.0662641 0)
(-0.675026 0.0287277 0)
(-0.668504 0.0210131 0)
(-0.660896 0.0128805 0)
(-0.65446 0.00841578 0)
(-0.649575 0.0061089 0)
(-0.645509 0.00477111 0)
(-0.641828 0.00389724 0)
(-0.638425 0.0032816 0)
(-0.635273 0.00282199 0)
(-0.632342 0.00246616 0)
(-0.629612 0.0021788 0)
(-0.627075 0.00193689 0)
(-0.62476 0.00172428 0)
(-0.622648 0.00152177 0)
(-0.621033 0.00130249 0)
(-0.619227 0.000996969 0)
(-0.620911 0.00063259 0)
(-0.613967 -0.000687343 0)
(-0.65132 0.00177404 0)
(-0.574233 -0.029955 0)
)
;

boundaryField
{
    movingWall
    {
        type            calculated;
        value           uniform (-0.375 0 0);
    }
    fixedWalls
    {
        type            calculated;
        value           uniform (-0.6875 0 0);
    }
    frontAndBack
    {
        type            empty;
    }
}


// ************************************************************************* //
