/*--------------------------------*- C++ -*----------------------------------*\
| =========                 |                                                 |
| \\      /  F ield         | OpenFOAM: The Open Source CFD Toolbox           |
|  \\    /   O peration     | Version:  2312                                  |
|   \\  /    A nd           | Website:  www.openfoam.com                      |
|    \\/     M anipulation  |                                                 |
\*---------------------------------------------------------------------------*/
FoamFile
{
    version     2.0;
    format      ascii;
    arch        "LSB;label=32;scalar=64";
    class       volSymmTensorField;
    location    "8";
    object      UPrime2Mean;
}
// * * * * * * * * * * * * * * * * * * * * * * * * * * * * * * * * * * * * * //

dimensions      [0 2 -2 0 0 0 0];

internalField   nonuniform List<symmTensor> 
400
(
(0.214766 3.19764e-05 0 1.41403e-08 0 0)
(0.21424 0.000145171 0 1.32326e-07 0 0)
(0.213271 0.000217616 0 3.01938e-07 0 0)
(0.212155 0.000253309 0 4.19821e-07 0 0)
(0.21093 0.000285618 0 5.78079e-07 0 0)
(0.209566 0.000327826 0 8.90678e-07 0 0)
(0.208029 0.000382113 0 1.50475e-06 0 0)
(0.206314 0.000437904 0 2.51482e-06 0 0)
(0.204506 0.000462894 0 3.3992e-06 0 0)
(0.202787 0.000426889 0 3.33614e-06 0 0)
(0.201416 0.000317401 0 2.14109e-06 0 0)
(0.200647 0.000142697 0 6.56052e-07 0 0)
(0.200674 -9.24591e-05 0 1.17992e-07 0 0)
(0.20167 -0.000344176 0 1.2357e-06 0 0)
(0.20363 -0.000583276 0 3.84931e-06 0 0)
(0.206361 -0.000749684 0 6.51431e-06 0 0)
(0.209487 -0.000767498 0 6.72063e-06 0 0)
(0.212521 -0.000570488 0 3.37943e-06 0 0)
(0.214569 -0.000231866 0 3.87552e-07 0 0)
(0.215062 5.6924e-05 0 1.89722e-07 0 0)
(0.214487 0.000315711 0 6.35743e-07 0 0)
(0.213442 0.000676506 0 3.23788e-06 0 0)
(0.212023 0.000869193 0 5.57524e-06 0 0)
(0.210444 0.00096492 0 7.1721e-06 0 0)
(0.208755 0.00105522 0 9.38551e-06 0 0)
(0.206932 0.00116707 0 1.34815e-05 0 0)
(0.204957 0.00127952 0 1.97574e-05 0 0)
(0.202888 0.00134552 0 2.62243e-05 0 0)
(0.200841 0.00130994 0 2.87864e-05 0 0)
(0.198984 0.00112914 0 2.4279e-05 0 0)
(0.197515 0.000785891 0 1.39709e-05 0 0)
(0.19664 0.000288665 0 3.70536e-06 0 0)
(0.19656 -0.000335728 0 1.25974e-06 0 0)
(0.197427 -0.00103087 0 1.26066e-05 0 0)
(0.19934 -0.00170261 0 3.74107e-05 0 0)
(0.202243 -0.00220472 0 6.44414e-05 0 0)
(0.205882 -0.00235569 0 7.34585e-05 0 0)
(0.209808 -0.00196334 0 4.83505e-05 0 0)
(0.213301 -0.00104593 0 1.09203e-05 0 0)
(0.214848 -5.97406e-05 0 8.05618e-07 0 0)
(0.214222 0.000874867 0 5.33193e-06 0 0)
(0.212879 0.00139865 0 1.49918e-05 0 0)
(0.211296 0.00167349 0 2.25015e-05 0 0)
(0.209537 0.00183606 0 2.85249e-05 0 0)
(0.207647 0.00199284 0 3.71248e-05 0 0)
(0.205614 0.00216953 0 5.14758e-05 0 0)
(0.203436 0.00232691 0 7.05553e-05 0 0)
(0.201155 0.00239542 0 8.72604e-05 0 0)
(0.198877 0.0023007 0 9.09376e-05 0 0)
(0.196749 0.00198578 0 7.52019e-05 0 0)
(0.194962 0.0014213 0 4.42208e-05 0 0)
(0.193734 0.000604427 0 1.28482e-05 0 0)
(0.193276 -0.000430763 0 2.41884e-06 0 0)
(0.193749 -0.00161372 0 3.1821e-05 0 0)
(0.195277 -0.00281668 0 0.000107153 0 0)
(0.197973 -0.00383166 0 0.000207458 0 0)
(0.201818 -0.00435844 0 0.000274258 0 0)
(0.206543 -0.00402615 0 0.000232732 0 0)
(0.211466 -0.00259757 0 8.8443e-05 0 0)
(0.214593 -0.000620777 0 3.2632e-06 0 0)
(0.214069 0.00156483 0 1.81298e-05 0 0)
(0.212549 0.00219457 0 3.85124e-05 0 0)
(0.210886 0.00252686 0 5.37526e-05 0 0)
(0.209069 0.00275795 0 6.80949e-05 0 0)
(0.207114 0.00298985 0 8.8837e-05 0 0)
(0.204992 0.00324164 0 0.000120872 0 0)
(0.202685 0.00346266 0 0.000160511 0 0)
(0.20023 0.0035616 0 0.000192229 0 0)
(0.197723 0.00343822 0 0.000195688 0 0)
(0.195328 0.00301102 0 0.000160442 0 0)
(0.19325 0.00223374 0 9.6047e-05 0 0)
(0.191712 0.00110362 0 3.0957e-05 0 0)
(0.190907 -0.000340133 0 3.27322e-06 0 0)
(0.190988 -0.00200913 0 4.83353e-05 0 0)
(0.192058 -0.00376088 0 0.000183236 0 0)
(0.194265 -0.00538038 0 0.000391939 0 0)
(0.197821 -0.00651267 0 0.000596791 0 0)
(0.20284 -0.00661464 0 0.000637394 0 0)
(0.208891 -0.00502174 0 0.000370654 0 0)
(0.213976 -0.00168827 0 3.46721e-05 0 0)
(0.214015 0.00232436 0 4.15739e-05 0 0)
(0.21243 0.00303603 0 7.55508e-05 0 0)
(0.210766 0.00340469 0 0.000100039 0 0)
(0.208973 0.00369575 0 0.000125848 0 0)
(0.207039 0.00400901 0 0.000164149 0 0)
(0.20492 0.00435702 0 0.000221236 0 0)
(0.202583 0.00467153 0 0.000288 0 0)
(0.200056 0.00483293 0 0.000337126 0 0)
(0.19745 0.00470604 0 0.000336934 0 0)
(0.194952 0.00417796 0 0.0002742 0 0)
(0.192787 0.00319057 0 0.000167325 0 0)
(0.191151 0.00175351 0 6.04365e-05 0 0)
(0.190187 -7.34725e-05 0 6.74245e-06 0 0)
(0.189984 -0.00218096 0 5.47398e-05 0 0)
(0.190642 -0.0044311 0 0.000232732 0 0)
(0.192229 -0.0066445 0 0.000539873 0 0)
(0.195062 -0.00850548 0 0.000920666 0 0)
(0.19966 -0.00939328 0 0.00119007 0 0)
(0.206138 -0.00819844 0 0.00097317 0 0)
(0.212712 -0.00374834 0 0.000219524 0 0)
(0.214039 0.00309386 0 7.51941e-05 0 0)
(0.212491 0.00387512 0 0.000124227 0 0)
(0.210898 0.00426949 0 0.000158392 0 0)
(0.209203 0.00461691 0 0.000197705 0 0)
(0.207376 0.0050179 0 0.000257231 0 0)
(0.20537 0.00547772 0 0.000343462 0 0)
(0.203141 0.00590692 0 0.000439564 0 0)
(0.200712 0.00615039 0 0.000504816 0 0)
(0.198196 0.00602833 0 0.000496359 0 0)
(0.195774 0.00539736 0 0.000402032 0 0)
(0.193635 0.00419792 0 0.000252066 0 0)
(0.191934 0.00245868 0 0.000103642 0 0)
(0.190822 0.000272031 0 2.13332e-05 0 0)
(0.190432 -0.00224235 0 6.27175e-05 0 0)
(0.190823 -0.00492651 0 0.000265237 0 0)
(0.19198 -0.00762782 0 0.000637433 0 0)
(0.194068 -0.0101543 0 0.00115908 0 0)
(0.197771 -0.0120071 0 0.0017161 0 0)
(0.203939 -0.0117962 0 0.00183236 0 0)
(0.211371 -0.00683858 0 0.000726398 0 0)
(0.214123 0.00382228 0 0.000115321 0 0)
(0.212693 0.00467057 0 0.000179651 0 0)
(0.211235 0.00508481 0 0.000222695 0 0)
(0.209709 0.00548016 0 0.000274945 0 0)
(0.208083 0.00596297 0 0.000354837 0 0)
(0.206315 0.00653535 0 0.000468625 0 0)
(0.204357 0.00708444 0 0.000590953 0 0)
(0.202216 0.0074197 0 0.000669489 0 0)
(0.199971 0.00732105 0 0.000654016 0 0)
(0.197741 0.00662016 0 0.000535566 0 0)
(0.195645 0.00525206 0 0.00035215 0 0)
(0.193836 0.00324562 0 0.000167562 0 0)
(0.19252 0.000697223 0 5.52829e-05 0 0)
(0.19191 -0.00223912 0 8.43504e-05 0 0)
(0.192078 -0.00535947 0 0.000300488 0 0)
(0.192967 -0.00847215 0 0.000714092 0 0)
(0.194551 -0.0114993 0 0.00132498 0 0)
(0.197318 -0.0142342 0 0.00211407 0 0)
(0.202682 -0.015384 0 0.0027304 0 0)
(0.210341 -0.0108004 0 0.00164462 0 0)
(0.214245 0.00446824 0 0.000156051 0 0)
(0.212996 0.00538738 0 0.000235086 0 0)
(0.211729 0.00581536 0 0.000284824 0 0)
(0.210434 0.00624275 0 0.000346375 0 0)
(0.209093 0.00678607 0 0.000440581 0 0)
(0.207679 0.00744987 0 0.000573622 0 0)
(0.206156 0.00810702 0 0.000714395 0 0)
(0.204489 0.00854973 0 0.000806447 0 0)
(0.202688 0.00851833 0 0.000793394 0 0)
(0.200784 0.0078124 0 0.000665559 0 0)
(0.198822 0.00635498 0 0.000464312 0 0)
(0.196942 0.00414376 0 0.000253495 0 0)
(0.195417 0.00125241 0 0.000112799 0 0)
(0.194501 -0.00212843 0 0.000124763 0 0)
(0.194334 -0.0057101 0 0.000342975 0 0)
(0.194869 -0.0092208 0 0.000780689 0 0)
(0.196022 -0.012643 0 0.0014491 0 0)
(0.197985 -0.0160532 0 0.00239294 0 0)
(0.202344 -0.0186739 0 0.00351232 0 0)
(0.209746 -0.0152962 0 0.00289089 0 0)
(0.214388 0.00500199 0 0.000191058 0 0)
(0.213363 0.00599741 0 0.000283414 0 0)
(0.212327 0.00643222 0 0.00033688 0 0)
(0.211304 0.00686961 0 0.000402064 0 0)
(0.210306 0.00743915 0 0.000501012 0 0)
(0.209334 0.00815332 0 0.000640044 0 0)
(0.20836 0.00888535 0 0.000787507 0 0)
(0.207322 0.00943032 0 0.000889754 0 0)
(0.206158 0.00951125 0 0.00088935 0 0)
(0.204803 0.00890505 0 0.000774655 0 0)
(0.203191 0.00747755 0 0.000578013 0 0)
(0.201414 0.00515511 0 0.000355111 0 0)
(0.199718 0.00197927 0 0.000191851 0 0)
(0.19844 -0.0018313 0 0.000181382 0 0)
(0.197781 -0.00585874 0 0.000383026 0 0)
(0.197725 -0.0097709 0 0.000820478 0 0)
(0.19826 -0.0135531 0 0.00152272 0 0)
(0.199416 -0.0174938 0 0.00257501 0 0)
(0.20267 -0.0215407 0 0.00413855 0 0)
(0.209476 -0.0199605 0 0.00429151 0 0)
(0.214535 0.00540793 0 0.000215493 0 0)
(0.213758 0.00648315 0 0.00031908 0 0)
(0.212971 0.0069173 0 0.000373282 0 0)
(0.212238 0.00733773 0 0.000435699 0 0)
(0.211603 0.00788796 0 0.00052831 0 0)
(0.211103 0.00859387 0 0.000658005 0 0)
(0.210728 0.00935198 0 0.00079931 0 0)
(0.210413 0.00996923 0 0.000904052 0 0)
(0.210041 0.0101807 0 0.000920574 0 0)
(0.209473 0.00973559 0 0.000831522 0 0)
(0.208558 0.00845939 0 0.000661686 0 0)
(0.207222 0.00620992 0 0.000456457 0 0)
(0.205563 0.00292759 0 0.000285239 0 0)
(0.203934 -0.00118259 0 0.000243695 0 0)
(0.202557 -0.00561752 0 0.000402798 0 0)
(0.201606 -0.00994726 0 0.000807679 0 0)
(0.201242 -0.0140916 0 0.00151451 0 0)
(0.201425 -0.0185159 0 0.00265038 0 0)
(0.203464 -0.0238801 0 0.00458932 0 0)
(0.209311 -0.0245421 0 0.00571421 0 0)
(0.21467 0.00568328 0 0.000226937 0 0)
(0.214137 0.00683878 0 0.000339156 0 0)
(0.213598 0.00726325 0 0.000391487 0 0)
(0.213147 0.00763991 0 0.000445843 0 0)
(0.212859 0.00812554 0 0.000523317 0 0)
(0.212801 0.0087596 0 0.000630908 0 0)
(0.212987 0.00946985 0 0.00075105 0 0)
(0.213379 0.0100897 0 0.000844803 0 0)
(0.213848 0.0103898 0 0.000871029 0 0)
(0.214214 0.0101251 0 0.000811609 0 0)
(0.214243 0.00909436 0 0.000683952 0 0)
(0.213752 0.00710755 0 0.000522449 0 0)
(0.212543 0.00398268 0 0.000371094 0 0)
(0.210656 -0.000175561 0 0.000299735 0 0)
(0.208445 -0.00486201 0 0.000390404 0 0)
(0.206403 -0.00955538 0 0.000725689 0 0)
(0.204901 -0.0140951 0 0.00140035 0 0)
(0.20391 -0.0189908 0 0.0025855 0 0)
(0.204596 -0.0256226 0 0.0048529 0 0)
(0.209133 -0.0289082 0 0.00708071 0 0)
(0.214776 0.00583987 0 0.000225943 0 0)
(0.214456 0.00707108 0 0.000343719 0 0)
(0.214144 0.00747594 0 0.000392373 0 0)
(0.213949 0.0077854 0 0.000435476 0 0)
(0.213964 0.00816862 0 0.000492989 0 0)
(0.214273 0.00867483 0 0.000571255 0 0)
(0.214913 0.00926086 0 0.000659486 0 0)
(0.215872 0.00979524 0 0.000729761 0 0)
(0.217044 0.0100911 0 0.00075218 0 0)
(0.21825 0.00993983 0 0.000712908 0 0)
(0.219239 0.00914823 0 0.000624792 0 0)
(0.219724 0.00752562 0 0.000515956 0 0)
(0.219316 0.00488727 0 0.000414862 0 0)
(0.217665 0.00112912 0 0.000341889 0 0)
(0.214885 -0.00351291 0 0.000358556 0 0)
(0.211757 -0.00846022 0 0.000588117 0 0)
(0.209024 -0.0134308 0 0.00118286 0 0)
(0.206757 -0.0188138 0 0.00236691 0 0)
(0.205949 -0.0266989 0 0.00491198 0 0)
(0.208902 -0.0330101 0 0.00837049 0 0)
(0.214833 0.00590481 0 0.000215783 0 0)
(0.214675 0.00719712 0 0.000335279 0 0)
(0.214554 0.00756984 0 0.000379027 0 0)
(0.214579 0.0077931 0 0.000409799 0 0)
(0.214849 0.00804913 0 0.000446774 0 0)
(0.215439 0.00839414 0 0.000495643 0 0)
(0.216399 0.00880657 0 0.000550311 0 0)
(0.217727 0.00918958 0 0.000592847 0 0)
(0.219345 0.00939913 0 0.000603675 0 0)
(0.221091 0.00926902 0 0.00057353 0 0)
(0.222728 0.00864022 0 0.00051239 0 0)
(0.22394 0.00736891 0 0.000444846 0 0)
(0.224321 0.00529909 0 0.000390231 0 0)
(0.223321 0.00227974 0 0.000349516 0 0)
(0.22071 -0.00182373 0 0.000325267 0 0)
(0.217039 -0.00677233 0 0.000437841 0 0)
(0.213262 -0.0120552 0 0.000899277 0 0)
(0.209791 -0.0179191 0 0.00200943 0 0)
(0.2074 -0.0270483 0 0.00475372 0 0)
(0.208595 -0.0368312 0 0.00958834 0 0)
(0.214821 0.00593437 0 0.000202247 0 0)
(0.214752 0.00724846 0 0.000318526 0 0)
(0.214777 0.00756495 0 0.00035565 0 0)
(0.214992 0.00768326 0 0.000374119 0 0)
(0.215478 0.00779865 0 0.000392719 0 0)
(0.216289 0.00797324 0 0.000416968 0 0)
(0.217462 0.00819935 0 0.000443724 0 0)
(0.218992 0.00841113 0 0.000462838 0 0)
(0.220816 0.00850159 0 0.000462522 0 0)
(0.222797 0.00834532 0 0.000437165 0 0)
(0.22472 0.0078239 0 0.000393475 0 0)
(0.226298 0.00684264 0 0.000349273 0 0)
(0.227196 0.0053029 0 0.000320966 0 0)
(0.22696 0.00302442 0 0.000305573 0 0)
(0.225057 -0.000252717 0 0.000290527 0 0)
(0.221596 -0.00474713 0 0.000316825 0 0)
(0.217279 -0.0100537 0 0.000610606 0 0)
(0.212835 -0.0163131 0 0.00156078 0 0)
(0.208905 -0.0265586 0 0.00435253 0 0)
(0.208218 -0.0402528 0 0.010696 0 0)
(0.214709 0.00593097 0 0.000187846 0 0)
(0.214617 0.00723734 0 0.000296811 0 0)
(0.214757 0.00746648 0 0.000325269 0 0)
(0.215151 0.00746103 0 0.000331878 0 0)
(0.215843 0.00743152 0 0.000335408 0 0)
(0.216851 0.00744334 0 0.000341306 0 0)
(0.218186 0.00749805 0 0.000348385 0 0)
(0.219831 0.0075525 0 0.000351387 0 0)
(0.221731 0.00753198 0 0.00034395 0 0)
(0.223767 0.0073465 0 0.00032281 0 0)
(0.22576 0.006912 0 0.000291469 0 0)
(0.227487 0.00616161 0 0.00025998 0 0)
(0.22869 0.00502579 0 0.000239987 0 0)
(0.229044 0.00336811 0 0.000235184 0 0)
(0.228036 0.00090488 0 0.000233577 0 0)
(0.225296 -0.00274063 0 0.000236407 0 0)
(0.221017 -0.00765186 0 0.000375442 0 0)
(0.215924 -0.0141205 0 0.00109722 0 0)
(0.210808 -0.025088 0 0.00369319 0 0)
(0.20793 -0.0431418 0 0.0116181 0 0)
(0.214447 0.00621879 0 0.000194706 0 0)
(0.21426 0.00729352 0 0.000283664 0 0)
(0.214479 0.00732291 0 0.000295326 0 0)
(0.215054 0.00714595 0 0.000287938 0 0)
(0.215965 0.00696097 0 0.000278538 0 0)
(0.217181 0.00682155 0 0.000271342 0 0)
(0.218683 0.00673071 0 0.000265958 0 0)
(0.220436 0.00665742 0 0.000259522 0 0)
(0.222386 0.00654995 0 0.000248687 0 0)
(0.224437 0.00634608 0 0.00023148 0 0)
(0.226449 0.00598489 0 0.000208998 0 0)
(0.228251 0.00541354 0 0.00018567 0 0)
(0.229644 0.00458009 0 0.000167916 0 0)
(0.230396 0.00339293 0 0.000161044 0 0)
(0.230119 0.00162066 0 0.000161061 0 0)
(0.228334 -0.00112932 0 0.000163486 0 0)
(0.224406 -0.00523871 0 0.000217459 0 0)
(0.2196 -0.0116711 0 0.000708728 0 0)
(0.213922 -0.0227306 0 0.00286717 0 0)
(0.208059 -0.0458212 0 0.0124653 0 0)
(0.21386 0.00581426 0 0.000164647 0 0)
(0.213272 0.0068171 0 0.000235505 0 0)
(0.213759 0.00679877 0 0.000241867 0 0)
(0.214682 0.00656617 0 0.000231267 0 0)
(0.215912 0.00630313 0 0.000217422 0 0)
(0.217403 0.00606726 0 0.000204476 0 0)
(0.219133 0.00587871 0 0.000193538 0 0)
(0.221058 0.00572129 0 0.000183437 0 0)
(0.223125 0.0055598 0 0.00017232 0 0)
(0.225258 0.0053511 0 0.000158829 0 0)
(0.227352 0.00505105 0 0.000142873 0 0)
(0.229282 0.00461841 0 0.000125828 0 0)
(0.230875 0.00401863 0 0.000110341 0 0)
(0.231939 0.00318433 0 9.91456e-05 0 0)
(0.232165 0.00196492 0 9.36692e-05 0 0)
(0.231284 -1.66016e-05 0 9.15764e-05 0 0)
(0.227833 -0.00312018 0 0.000119199 0 0)
(0.224958 -0.00941512 0 0.000450307 0 0)
(0.218164 -0.0199704 0 0.00207728 0 0)
(0.209013 -0.0491209 0 0.0135525 0 0)
(0.213054 0.00937799 0 0.000423829 0 0)
(0.212442 0.00900537 0 0.000401979 0 0)
(0.213424 0.00784774 0 0.000312019 0 0)
(0.214794 0.00683036 0 0.000240717 0 0)
(0.216421 0.00611238 0 0.000195772 0 0)
(0.218331 0.00558893 0 0.000165697 0 0)
(0.220479 0.00520397 0 0.000144806 0 0)
(0.222787 0.0049105 0 0.000129262 0 0)
(0.225189 0.00466123 0 0.000116223 0 0)
(0.227623 0.00441688 0 0.000103992 0 0)
(0.230006 0.00414583 0 9.18294e-05 0 0)
(0.232218 0.00382337 0 7.9715e-05 0 0)
(0.234119 0.00342013 0 6.77402e-05 0 0)
(0.235579 0.00288857 0 5.58597e-05 0 0)
(0.236265 0.00214332 0 4.45534e-05 0 0)
(0.236294 0.00081528 0 3.385e-05 0 0)
(0.233163 -0.00146473 0 4.70658e-05 0 0)
(0.234631 -0.00725484 0 0.000277481 0 0)
(0.221075 -0.015977 0 0.00126129 0 0)
(0.213406 -0.0522689 0 0.0141114 0 0)
(0.21198 0.00349877 0 6.15776e-05 0 0)
(0.210867 0.00214203 0 2.32862e-05 0 0)
(0.21432 0.00224117 0 2.54251e-05 0 0)
(0.218196 0.00285657 0 4.11951e-05 0 0)
(0.222235 0.00303088 0 4.62256e-05 0 0)
(0.22621 0.00295704 0 4.39914e-05 0 0)
(0.230011 0.00285588 0 4.0937e-05 0 0)
(0.233638 0.00277594 0 3.84779e-05 0 0)
(0.237117 0.00269956 0 3.61488e-05 0 0)
(0.24046 0.00260941 0 3.35325e-05 0 0)
(0.243653 0.00249798 0 3.05562e-05 0 0)
(0.246654 0.00235801 0 2.72247e-05 0 0)
(0.24938 0.0021801 0 2.35265e-05 0 0)
(0.251818 0.00192528 0 1.88999e-05 0 0)
(0.253539 0.00156513 0 1.33582e-05 0 0)
(0.255311 0.000803196 0 5.66385e-06 0 0)
(0.25223 -0.000276223 0 7.4465e-06 0 0)
(0.258178 -0.00405894 0 9.5469e-05 0 0)
(0.22515 -0.00840602 0 0.000360472 0 0)
(0.240808 -0.0486239 0 0.0102735 0 0)
(0.232425 0.0205557 0 0.00183156 0 0)
(0.241763 0.0153444 0 0.00101012 0 0)
(0.253039 0.00964099 0 0.000392791 0 0)
(0.262765 0.00643075 0 0.00017297 0 0)
(0.270292 0.00474285 0 9.3295e-05 0 0)
(0.276647 0.00375327 0 5.78622e-05 0 0)
(0.282471 0.00310249 0 3.91001e-05 0 0)
(0.287918 0.00264127 0 2.80078e-05 0 0)
(0.293017 0.00229467 0 2.08974e-05 0 0)
(0.297807 0.00202459 0 1.60931e-05 0 0)
(0.302311 0.00180477 0 1.26622e-05 0 0)
(0.306532 0.00161786 0 1.00844e-05 0 0)
(0.310414 0.00145131 0 8.04856e-06 0 0)
(0.313981 0.00128962 0 6.29806e-06 0 0)
(0.316725 0.00110892 0 4.6033e-06 0 0)
(0.319793 0.000850667 0 2.61495e-06 0 0)
(0.316936 0.000530366 0 1.0429e-06 0 0)
(0.328623 -0.000620921 0 4.251e-06 0 0)
(0.267726 0.00130228 0 3.35248e-05 0 0)
(0.399951 -0.0281862 0 0.00199749 0 0)
)
;

boundaryField
{
    movingWall
    {
        type            calculated;
        value           uniform (0.859375 0 0 0 0 0);
    }
    fixedWalls
    {
        type            calculated;
        value           uniform (0.214844 0 0 0 0 0);
    }
    frontAndBack
    {
        type            empty;
    }
}


// ************************************************************************* //
