/*--------------------------------*- C++ -*----------------------------------*\
| =========                 |                                                 |
| \\      /  F ield         | OpenFOAM: The Open Source CFD Toolbox           |
|  \\    /   O peration     | Version:  2312                                  |
|   \\  /    A nd           | Website:  www.openfoam.com                      |
|    \\/     M anipulation  |                                                 |
\*---------------------------------------------------------------------------*/
FoamFile
{
    version     2.0;
    format      ascii;
    arch        "LSB;label=32;scalar=64";
    class       volScalarField;
    location    "8";
    object      Uy;
}
// * * * * * * * * * * * * * * * * * * * * * * * * * * * * * * * * * * * * * //

dimensions      [0 1 -1 0 0 0 0];

internalField   nonuniform List<scalar> 
400
(
3.10969e-14
-6.38773e-15
1.34715e-15
-3.29013e-16
8.36996e-17
5.22056e-17
8.09735e-17
1.285e-16
1.81883e-16
7.97677e-17
-1.62372e-17
1.76915e-17
1.03025e-16
4.94982e-17
3.49508e-17
2.36645e-17
3.04703e-17
-2.78799e-17
2.38011e-17
6.06015e-17
7.6244e-15
-1.33885e-15
2.12592e-16
-4.32541e-17
-2.59915e-18
-3.3844e-17
-3.85195e-17
4.4059e-17
1.30552e-16
2.74486e-17
-5.18968e-17
5.77109e-17
1.0974e-16
1.04768e-18
5.91594e-17
1.25129e-16
8.7443e-17
2.55913e-17
-2.43419e-17
1.51496e-17
-1.70704e-14
3.1613e-15
-6.4523e-16
4.7195e-17
-2.27217e-16
-2.06081e-16
-1.89032e-16
-9.14969e-17
-5.5057e-17
2.68792e-18
-4.49929e-17
-6.06044e-17
-6.8664e-17
-3.39617e-17
2.15955e-17
7.30779e-17
3.51668e-17
7.65031e-18
-1.21552e-16
-1.05441e-16
-1.05182e-14
2.10449e-15
-4.02198e-16
4.37416e-17
-1.72691e-16
-1.04685e-16
-6.20404e-17
-2.74421e-17
-4.88899e-17
1.14066e-17
-3.47535e-17
-3.69963e-17
7.67629e-18
9.73812e-17
1.22832e-16
1.23087e-16
-4.17844e-18
-5.59598e-17
-7.10328e-17
-7.15434e-17
2.17016e-14
-4.28516e-15
9.73752e-16
-9.55596e-17
8.14563e-17
5.33191e-17
7.09544e-17
-1.60124e-17
-6.62172e-18
9.01457e-17
1.08531e-16
1.28674e-16
7.61777e-17
1.44894e-17
-3.26714e-17
-2.5795e-17
-3.81331e-17
4.21347e-17
3.08307e-17
8.52439e-18
-2.08211e-14
4.01006e-15
-8.88175e-16
2.20516e-16
-1.95043e-17
1.13205e-17
1.17597e-17
2.91399e-17
1.62372e-16
2.2453e-16
1.84631e-16
9.85318e-17
8.11887e-17
2.53751e-17
-1.27413e-16
-2.34762e-16
-9.19037e-17
2.13052e-17
5.24874e-17
6.62165e-17
1.74851e-15
-2.26503e-16
-1.09238e-16
-8.0828e-17
1.21671e-17
3.8415e-17
-3.77189e-17
-1.35986e-17
9.14805e-17
3.99741e-17
-2.3288e-17
2.08169e-17
1.93435e-16
2.06155e-16
6.31227e-17
2.94599e-17
8.33359e-17
2.79384e-17
2.13815e-17
9.01137e-17
3.34502e-14
-7.83326e-15
1.40923e-15
-7.06246e-16
-7.09232e-17
-9.44983e-17
-1.86295e-17
5.59008e-18
9.35514e-17
2.76383e-16
2.89185e-16
1.85712e-16
6.38591e-17
1.53232e-17
-6.54831e-18
-4.25825e-19
4.74321e-18
3.86427e-17
7.10418e-17
8.02676e-17
-4.38547e-14
8.83447e-15
-2.0765e-15
3.64729e-16
-3.09194e-17
1.28688e-16
1.71845e-16
1.54944e-16
1.02018e-16
1.88255e-16
2.39066e-16
1.69806e-16
-5.44472e-17
-9.63454e-17
-4.47016e-19
-3.5931e-17
-6.76644e-17
4.9902e-17
1.42419e-16
4.65444e-17
1.03222e-14
-1.74554e-15
1.13374e-16
-1.95675e-16
-7.5586e-17
2.39831e-17
1.0595e-16
1.79859e-16
1.12952e-16
1.66034e-17
1.06249e-16
1.53694e-16
9.09276e-17
4.5693e-17
6.10781e-17
7.68468e-17
7.35199e-17
7.49389e-17
5.93717e-17
-1.5992e-17
8.10224e-15
-1.96893e-15
4.86154e-16
-2.5682e-16
-1.79197e-16
-1.46381e-16
6.9436e-17
1.83163e-16
1.83014e-16
1.47479e-16
1.7681e-16
1.41127e-16
9.67857e-17
5.59783e-17
4.86238e-17
1.21997e-16
1.09944e-16
-6.18821e-20
1.29607e-17
3.3797e-18
-3.05082e-15
1.00611e-15
-1.56127e-16
7.03365e-17
1.99418e-17
1.08925e-16
1.46183e-16
1.48159e-16
1.46949e-16
4.45723e-17
-1.0324e-16
5.3414e-18
1.08376e-16
1.38113e-16
1.5166e-16
1.30983e-16
9.82864e-17
1.37528e-17
-2.5361e-17
2.88109e-17
-4.39976e-15
2.40366e-16
-3.20168e-16
-7.56901e-17
4.6938e-18
4.96452e-17
1.66945e-17
6.21935e-17
1.61442e-16
5.59227e-17
-8.40211e-17
-9.57816e-18
1.14851e-16
1.47249e-16
1.64986e-16
5.91847e-17
-1.91889e-17
-3.23972e-17
-1.28756e-16
-7.58057e-17
-1.51173e-15
1.70476e-16
-7.23282e-17
-3.12437e-17
6.50886e-17
1.01279e-16
9.11648e-17
3.86243e-19
4.51059e-18
4.02777e-17
5.91557e-17
-7.98621e-17
-7.67846e-17
-7.46501e-17
-5.68186e-17
4.71043e-17
4.25903e-17
-5.18753e-17
-9.99981e-17
-1.11217e-16
1.32552e-14
-2.18702e-15
3.41597e-16
-2.55225e-16
5.96051e-17
1.64149e-16
2.21517e-16
1.92367e-16
1.43136e-16
1.58829e-16
1.53507e-16
4.71603e-17
4.59272e-17
1.99877e-17
-7.77116e-17
-9.08363e-17
-7.23155e-17
-4.56109e-17
7.11921e-18
-6.1113e-18
-2.20338e-14
4.02719e-15
-9.95643e-16
1.36147e-16
-2.92716e-17
2.18238e-17
5.72521e-17
1.21315e-16
8.15306e-17
4.21357e-17
2.17486e-17
3.70961e-17
6.35662e-17
8.85503e-17
4.73448e-18
-8.63614e-17
-3.51856e-17
5.55084e-17
2.87538e-18
4.02251e-17
9.77437e-15
-2.60346e-15
7.49238e-16
1.16777e-17
7.36463e-17
-6.36264e-17
-4.45727e-17
-3.76924e-19
4.61189e-18
-1.96672e-17
-1.34218e-16
-1.15117e-16
2.93147e-17
1.75052e-16
1.98082e-16
1.56235e-16
5.50915e-17
3.9594e-17
-2.67472e-17
2.44387e-17
2.3708e-14
-4.70891e-15
1.14446e-15
-5.49469e-17
1.38742e-16
5.01204e-17
4.98324e-17
7.0191e-17
5.60509e-17
-8.88449e-17
-1.14905e-16
2.15599e-17
1.19741e-16
1.48036e-16
2.16134e-16
2.31719e-16
1.05862e-18
-9.50778e-17
-4.0673e-17
-1.80727e-18
-2.41427e-14
4.79055e-15
-1.24114e-15
2.53638e-16
-1.28973e-16
-7.53688e-17
-7.24092e-17
-2.60733e-17
-8.43368e-17
-8.83079e-17
1.07248e-16
9.81716e-17
-1.03143e-16
-1.12028e-16
-3.54738e-17
1.04256e-17
1.77756e-18
-1.16548e-16
-9.21414e-17
-1.07664e-17
-1.95282e-14
3.34765e-15
-7.78787e-16
1.30019e-16
-9.9143e-17
-8.81462e-17
-5.29748e-17
2.86212e-18
-1.75528e-17
6.0943e-17
1.24803e-16
-5.62196e-18
-1.34052e-16
-5.64883e-17
-3.76754e-17
-8.96127e-17
-5.56009e-17
-8.26051e-17
-5.62699e-17
5.30346e-18
)
;

boundaryField
{
    movingWall
    {
        type            calculated;
        value           uniform -0;
    }
    fixedWalls
    {
        type            calculated;
        value           uniform -0;
    }
    frontAndBack
    {
        type            empty;
    }
}


// ************************************************************************* //
