/*--------------------------------*- C++ -*----------------------------------*\
| =========                 |                                                 |
| \\      /  F ield         | OpenFOAM: The Open Source CFD Toolbox           |
|  \\    /   O peration     | Version:  2312                                  |
|   \\  /    A nd           | Website:  www.openfoam.com                      |
|    \\/     M anipulation  |                                                 |
\*---------------------------------------------------------------------------*/
FoamFile
{
    version     2.0;
    format      ascii;
    arch        "LSB;label=32;scalar=64";
    class       volVectorField;
    location    "8";
    object      vorticityField;
}
// * * * * * * * * * * * * * * * * * * * * * * * * * * * * * * * * * * * * * //

dimensions      [0 0 -1 0 0 0 0];

internalField   nonuniform List<vector> 
400
(
(0 -0 2.82328e-12)
(0 -0 -2.97497e-12)
(0 -0 6.60082e-13)
(0 -0 -9.92402e-14)
(0 -0 1.10169e-14)
(0 -0 -2.72603e-16)
(0 -0 7.62944e-15)
(0 -0 1.00909e-14)
(0 -0 -5.90833e-14)
(0 -0 -1.9812e-14)
(0 -0 -6.20762e-15)
(0 -0 1.19262e-14)
(0 -0 -2.39244e-14)
(0 -0 -6.80745e-15)
(0 -0 -2.96884e-14)
(0 -0 -4.48051e-16)
(0 -0 -5.15443e-15)
(0 -0 -6.6692e-16)
(0 -0 8.84814e-15)
(0 -0 -8.44026e-15)
(0 -0 6.28555e-13)
(0 -0 -6.32761e-13)
(0 -0 2.9219e-13)
(0 -0 5.9796e-14)
(0 -0 8.22562e-14)
(0 -0 1.31933e-13)
(0 -0 8.91055e-14)
(0 -0 1.52432e-13)
(0 -0 1.06759e-13)
(0 -0 3.59652e-14)
(0 -0 8.43414e-14)
(0 -0 9.74788e-14)
(0 -0 2.14387e-14)
(0 -0 4.9152e-14)
(0 -0 9.37233e-14)
(0 -0 8.41435e-14)
(0 -0 4.42563e-14)
(0 -0 -1.11785e-14)
(0 -0 -1.04417e-15)
(0 -0 9.1923e-16)
(0 -0 -1.39091e-12)
(0 -0 1.42568e-12)
(0 -0 -5.55356e-13)
(0 -0 -1.20829e-13)
(0 -0 -1.87958e-13)
(0 -0 -1.85917e-13)
(0 -0 -9.69618e-14)
(0 -0 -1.22128e-13)
(0 -0 -7.18967e-14)
(0 -0 -8.03088e-14)
(0 -0 -8.76444e-14)
(0 -0 -8.36823e-14)
(0 -0 -2.44408e-14)
(0 -0 9.02595e-15)
(0 -0 -4.35062e-14)
(0 -0 -2.57479e-14)
(0 -0 -6.54276e-15)
(0 -0 -4.27769e-14)
(0 -0 -1.13091e-14)
(0 -0 -4.40577e-15)
(0 -0 -1.65452e-12)
(0 -0 1.12002e-12)
(0 -0 -3.68705e-13)
(0 -0 -3.12594e-14)
(0 -0 -4.19478e-14)
(0 -0 -1.604e-14)
(0 -0 -1.93807e-14)
(0 -0 -5.28951e-14)
(0 -0 -2.32202e-14)
(0 -0 -2.56914e-14)
(0 -0 -3.19453e-14)
(0 -0 -2.28621e-14)
(0 -0 4.05428e-14)
(0 -0 1.15156e-14)
(0 -0 2.57057e-15)
(0 -0 -6.69111e-14)
(0 -0 -1.26325e-13)
(0 -0 -6.68543e-15)
(0 -0 -2.86634e-14)
(0 -0 -1.28474e-14)
(0 -0 2.33795e-12)
(0 -0 -2.09989e-12)
(0 -0 6.08695e-13)
(0 -0 -6.21245e-14)
(0 -0 6.9098e-14)
(0 -0 2.60549e-14)
(0 -0 -6.93316e-15)
(0 -0 -7.75761e-15)
(0 -0 3.77209e-14)
(0 -0 3.86203e-14)
(0 -0 3.09579e-14)
(0 -0 -3.23528e-15)
(0 -0 -1.14185e-14)
(0 -0 -6.5095e-14)
(0 -0 -4.02845e-15)
(0 -0 -5.46172e-16)
(0 -0 6.10031e-14)
(0 -0 8.82115e-14)
(0 -0 2.3744e-14)
(0 -0 2.31695e-14)
(0 -0 -1.54558e-12)
(0 -0 1.9933e-12)
(0 -0 -3.24745e-13)
(0 -0 8.6867e-14)
(0 -0 -2.09196e-14)
(0 -0 3.1264e-15)
(0 -0 1.78193e-15)
(0 -0 1.50612e-14)
(0 -0 -7.566e-15)
(0 -0 -2.48792e-14)
(0 -0 -6.681e-14)
(0 -0 -6.45543e-14)
(0 -0 -8.86308e-14)
(0 -0 -7.50703e-14)
(0 -0 -8.02238e-14)
(0 -0 -2.35541e-14)
(0 -0 2.56067e-14)
(0 -0 1.44391e-14)
(0 -0 4.49114e-15)
(0 -0 -1.18704e-14)
(0 -0 2.33515e-13)
(0 -0 -1.85774e-13)
(0 -0 1.45676e-14)
(0 -0 3.92456e-14)
(0 -0 3.90294e-14)
(0 -0 -4.9886e-15)
(0 -0 2.19037e-14)
(0 -0 6.71301e-14)
(0 -0 5.95674e-14)
(0 -0 -1.14769e-14)
(0 -0 5.22944e-14)
(0 -0 1.57198e-13)
(0 -0 9.98489e-14)
(0 -0 4.11788e-14)
(0 -0 9.43558e-15)
(0 -0 2.91264e-14)
(0 -0 -1.52147e-16)
(0 -0 -6.04056e-14)
(0 -0 6.21753e-15)
(0 -0 -1.11495e-14)
(0 -0 1.64012e-12)
(0 -0 -3.06857e-12)
(0 -0 6.31386e-13)
(0 -0 -1.48016e-13)
(0 -0 3.40697e-14)
(0 -0 3.23344e-14)
(0 -0 3.71139e-14)
(0 -0 6.54282e-14)
(0 -0 8.12894e-14)
(0 -0 1.27984e-13)
(0 -0 4.5143e-14)
(0 -0 4.57246e-15)
(0 -0 3.71713e-14)
(0 -0 -7.04074e-15)
(0 -0 7.97403e-14)
(0 -0 -2.59759e-14)
(0 -0 5.8117e-14)
(0 -0 6.62986e-15)
(0 -0 4.16249e-15)
(0 -0 1.19741e-14)
(0 -0 -3.96281e-12)
(0 -0 4.28624e-12)
(0 -0 -9.01184e-13)
(0 -0 2.85874e-13)
(0 -0 -2.36041e-14)
(0 -0 2.02764e-14)
(0 -0 -2.44794e-14)
(0 -0 -8.82979e-14)
(0 -0 -5.08791e-14)
(0 -0 -4.05053e-14)
(0 -0 -1.10265e-13)
(0 -0 -1.64877e-13)
(0 -0 -1.35035e-13)
(0 -0 -2.1705e-14)
(0 -0 -4.81687e-14)
(0 -0 -3.38268e-14)
(0 -0 -4.56268e-14)
(0 -0 2.10084e-14)
(0 -0 -3.35761e-16)
(0 -0 -1.88964e-14)
(0 -0 2.91765e-12)
(0 -0 -1.48167e-12)
(0 -0 2.90511e-13)
(0 -0 -7.31061e-14)
(0 -0 4.90709e-14)
(0 -0 -8.95141e-15)
(0 -0 1.55876e-14)
(0 -0 -2.64049e-14)
(0 -0 -4.34306e-14)
(0 -0 -5.48805e-14)
(0 -0 1.37091e-14)
(0 -0 2.55729e-14)
(0 -0 -1.08001e-14)
(0 -0 -3.009e-14)
(0 -0 -5.10947e-14)
(0 -0 2.83492e-14)
(0 -0 -1.90784e-16)
(0 -0 -1.41482e-15)
(0 -0 -9.09309e-15)
(0 -0 -4.33797e-15)
(0 -0 -8.23237e-13)
(0 -0 -4.09243e-13)
(0 -0 8.98953e-14)
(0 -0 -6.65351e-14)
(0 -0 3.8149e-14)
(0 -0 7.90734e-14)
(0 -0 1.41375e-13)
(0 -0 1.19778e-13)
(0 -0 7.77468e-14)
(0 -0 5.35897e-14)
(0 -0 1.07785e-13)
(0 -0 1.91027e-14)
(0 -0 4.56952e-14)
(0 -0 4.93939e-14)
(0 -0 6.0812e-14)
(0 -0 3.3237e-14)
(0 -0 -3.9311e-14)
(0 -0 4.45118e-14)
(0 -0 3.44158e-16)
(0 -0 -1.63404e-15)
(0 -0 7.71311e-13)
(0 -0 2.62365e-13)
(0 -0 6.90528e-14)
(0 -0 9.89221e-14)
(0 -0 1.39384e-13)
(0 -0 9.39393e-14)
(0 -0 5.81335e-14)
(0 -0 2.71816e-14)
(0 -0 1.67464e-14)
(0 -0 2.91912e-14)
(0 -0 2.3182e-14)
(0 -0 7.53718e-14)
(0 -0 9.45923e-14)
(0 -0 5.85385e-14)
(0 -0 5.34971e-14)
(0 -0 4.88727e-14)
(0 -0 1.5382e-14)
(0 -0 -1.23647e-14)
(0 -0 5.57159e-14)
(0 -0 -3.44993e-16)
(0 -0 -6.8699e-13)
(0 -0 2.99539e-13)
(0 -0 -8.58157e-14)
(0 -0 5.38116e-15)
(0 -0 -4.16766e-14)
(0 -0 -2.5905e-14)
(0 -0 -8.00603e-14)
(0 -0 -1.26303e-14)
(0 -0 -6.27082e-16)
(0 -0 -2.45463e-14)
(0 -0 -3.36551e-14)
(0 -0 1.01202e-13)
(0 -0 1.56827e-14)
(0 -0 5.01352e-15)
(0 -0 -6.30166e-14)
(0 -0 -7.26276e-14)
(0 -0 -9.15819e-15)
(0 -0 -9.22718e-14)
(0 -0 -5.8551e-14)
(0 -0 2.04561e-14)
(0 -0 -1.0557e-12)
(0 -0 2.79465e-13)
(0 -0 -1.82802e-13)
(0 -0 -9.46785e-14)
(0 -0 -1.22273e-13)
(0 -0 -1.05813e-13)
(0 -0 -1.18509e-13)
(0 -0 -1.17086e-13)
(0 -0 -7.7326e-14)
(0 -0 -4.87456e-14)
(0 -0 -6.62241e-14)
(0 -0 -1.49119e-13)
(0 -0 -2.65839e-14)
(0 -0 -5.22135e-14)
(0 -0 1.21754e-14)
(0 -0 6.4151e-14)
(0 -0 -9.89796e-15)
(0 -0 -1.42588e-14)
(0 -0 -3.30392e-14)
(0 -0 -5.98357e-15)
(0 -0 2.57049e-12)
(0 -0 -1.56242e-12)
(0 -0 3.5581e-13)
(0 -0 2.60109e-14)
(0 -0 1.50358e-13)
(0 -0 7.04013e-14)
(0 -0 5.70319e-14)
(0 -0 -7.8381e-15)
(0 -0 -3.35374e-15)
(0 -0 1.03712e-15)
(0 -0 -6.5377e-14)
(0 -0 -6.49681e-14)
(0 -0 -1.11137e-13)
(0 -0 -9.3679e-14)
(0 -0 -6.52925e-14)
(0 -0 5.39617e-16)
(0 -0 4.52254e-15)
(0 -0 3.50485e-14)
(0 -0 3.1055e-14)
(0 -0 -2.72058e-14)
(0 -0 -2.36987e-12)
(0 -0 2.15803e-12)
(0 -0 -5.24629e-13)
(0 -0 1.50847e-13)
(0 -0 -6.56424e-14)
(0 -0 8.65237e-15)
(0 -0 9.94911e-15)
(0 -0 5.6638e-14)
(0 -0 -7.91792e-15)
(0 -0 -3.30833e-14)
(0 -0 -5.03958e-16)
(0 -0 4.18176e-15)
(0 -0 -2.19596e-14)
(0 -0 -5.88317e-15)
(0 -0 -1.74912e-14)
(0 -0 -5.82021e-14)
(0 -0 1.4187e-14)
(0 -0 3.8061e-15)
(0 -0 -1.52833e-15)
(0 -0 4.99001e-14)
(0 -0 -6.89561e-14)
(0 -0 -6.31462e-13)
(0 -0 2.88619e-13)
(0 -0 -6.75591e-14)
(0 -0 -7.53041e-15)
(0 -0 -1.18219e-14)
(0 -0 6.32495e-15)
(0 -0 4.91845e-15)
(0 -0 5.22811e-14)
(0 -0 1.3222e-14)
(0 -0 4.46651e-14)
(0 -0 7.05634e-14)
(0 -0 1.10332e-13)
(0 -0 1.52402e-13)
(0 -0 5.23284e-14)
(0 -0 -1.4299e-14)
(0 -0 6.96511e-14)
(0 -0 -8.18387e-15)
(0 -0 -1.51552e-15)
(0 -0 2.30842e-16)
(0 -0 2.11675e-12)
(0 -0 -2.12083e-12)
(0 -0 6.82236e-13)
(0 -0 -1.9257e-14)
(0 -0 1.46032e-13)
(0 -0 7.24242e-14)
(0 -0 5.62172e-14)
(0 -0 8.1937e-14)
(0 -0 1.12015e-14)
(0 -0 3.71145e-14)
(0 -0 9.23556e-14)
(0 -0 1.0478e-13)
(0 -0 9.39628e-14)
(0 -0 3.67443e-14)
(0 -0 8.96835e-14)
(0 -0 3.27026e-14)
(0 -0 -1.13995e-13)
(0 -0 -4.17316e-15)
(0 -0 9.32705e-15)
(0 -0 4.24803e-15)
(0 -0 -1.881e-12)
(0 -0 2.07331e-12)
(0 -0 -6.70531e-13)
(0 -0 -2.4309e-14)
(0 -0 -1.68426e-13)
(0 -0 -7.56588e-14)
(0 -0 -7.63856e-14)
(0 -0 -1.09613e-13)
(0 -0 -1.14644e-13)
(0 -0 -3.50516e-14)
(0 -0 -8.4571e-15)
(0 -0 -1.02354e-13)
(0 -0 -1.02335e-13)
(0 -0 -1.01653e-13)
(0 -0 -1.48597e-14)
(0 -0 -5.0485e-14)
(0 -0 -1.26974e-14)
(0 -0 -9.3919e-15)
(0 -0 1.05782e-14)
(0 -0 1.02908e-14)
(0 -0 -1.37411e-12)
(0 -0 1.82073e-12)
(0 -0 -2.94658e-13)
(0 -0 6.79644e-14)
(0 -0 -2.18165e-14)
(0 -0 4.61682e-15)
(0 -0 3.62059e-14)
(0 -0 3.06473e-14)
(0 -0 3.29131e-14)
(0 -0 1.42356e-14)
(0 -0 -6.08666e-14)
(0 -0 -2.58856e-14)
(0 -0 -5.08664e-15)
(0 -0 3.67428e-14)
(0 -0 -5.75225e-14)
(0 -0 -1.79255e-15)
(0 -0 7.0076e-16)
(0 -0 -6.68957e-17)
(0 -0 8.79085e-15)
(0 -0 5.09664e-15)
)
;

boundaryField
{
    movingWall
    {
        type            calculated;
        value           nonuniform List<vector> 
20
(
(0 -0 -6.41058e-13)
(0 -0 1.96376e-12)
(0 -0 7.79173e-14)
(0 -0 2.90009e-13)
(0 -0 2.44637e-13)
(0 -0 2.26661e-13)
(0 -0 1.86737e-13)
(0 -0 2.25587e-13)
(0 -0 1.83444e-13)
(0 -0 1.03053e-13)
(0 -0 3.77524e-14)
(0 -0 2.40568e-13)
(0 -0 1.72549e-13)
(0 -0 1.42864e-13)
(0 -0 4.10965e-14)
(0 -0 8.70253e-14)
(0 -0 7.0076e-16)
(0 -0 -6.68957e-17)
(0 -0 8.79085e-15)
(0 -0 5.09664e-15)
)
;
    }
    fixedWalls
    {
        type            calculated;
        value           nonuniform List<vector> 
60
(
(0 -0 1.27911e-11)
(0 -0 3.04976e-12)
(0 -0 -6.82816e-12)
(0 -0 -5.02043e-12)
(0 -0 9.27694e-12)
(0 -0 -8.19293e-12)
(0 -0 7.80718e-13)
(0 -0 1.24585e-11)
(0 -0 -1.80027e-11)
(0 -0 6.18885e-12)
(0 -0 1.80433e-12)
(0 -0 -2.44548e-13)
(0 -0 -2.03095e-12)
(0 -0 -1.52626e-12)
(0 -0 6.76577e-12)
(0 -0 -9.38273e-12)
(0 -0 3.1237e-12)
(0 -0 9.70004e-12)
(0 -0 -9.60285e-12)
(0 -0 -7.56733e-12)
(0 -0 -2.42406e-14)
(0 -0 -6.05983e-15)
(0 -0 1.50713e-14)
(0 -0 1.5123e-15)
(0 -0 2.36953e-14)
(0 -0 -2.64866e-14)
(0 -0 -3.60455e-14)
(0 -0 -5.00198e-15)
(0 -0 -1.86178e-14)
(0 -0 6.3968e-15)
(0 -0 -1.35188e-15)
(0 -0 -1.15244e-14)
(0 -0 3.03223e-14)
(0 -0 1.73816e-14)
(0 -0 -2.46605e-14)
(0 -0 3.81201e-14)
(0 -0 -9.77549e-15)
(0 -0 7.22906e-16)
(0 -0 4.30657e-15)
(0 -0 -2.12138e-15)
(0 -0 2.3821e-12)
(0 -0 -3.24143e-12)
(0 -0 2.06192e-13)
(0 -0 -3.4839e-13)
(0 -0 -2.72741e-13)
(0 -0 -3.55544e-13)
(0 -0 -2.58824e-13)
(0 -0 -2.56363e-13)
(0 -0 -2.71327e-13)
(0 -0 -1.53039e-13)
(0 -0 -1.83843e-13)
(0 -0 -1.65709e-13)
(0 -0 -1.74455e-13)
(0 -0 -9.56253e-14)
(0 -0 -9.14012e-14)
(0 -0 -4.4857e-14)
(0 -0 -5.15443e-15)
(0 -0 -4.50758e-14)
(0 -0 -3.55608e-14)
(0 -0 -8.44026e-15)
)
;
    }
    frontAndBack
    {
        type            empty;
    }
}


// ************************************************************************* //
