/*--------------------------------*- C++ -*----------------------------------*\
| =========                 |                                                 |
| \\      /  F ield         | OpenFOAM: The Open Source CFD Toolbox           |
|  \\    /   O peration     | Version:  2312                                  |
|   \\  /    A nd           | Website:  www.openfoam.com                      |
|    \\/     M anipulation  |                                                 |
\*---------------------------------------------------------------------------*/
FoamFile
{
    version     2.0;
    format      ascii;
    arch        "LSB;label=32;scalar=64";
    class       volVectorField;
    location    "8";
    object      wallShearStress;
}
// * * * * * * * * * * * * * * * * * * * * * * * * * * * * * * * * * * * * * //

dimensions      [0 2 -2 0 0 0 0];

internalField   uniform (0 0 0);

boundaryField
{
    movingWall
    {
        type            calculated;
        value           uniform (0 0 0);
    }
    fixedWalls
    {
        type            calculated;
        value           nonuniform List<vector> 
60
(
(2.463e-17 -1.20864e-16 0)
(-1.19795e-17 -3.04976e-17 0)
(-1.38714e-17 6.82816e-17 0)
(4.71643e-17 3.39412e-17 0)
(-5.30539e-17 -8.08432e-17 0)
(3.99887e-17 8.46398e-17 0)
(-4.08319e-18 -6.18087e-18 0)
(2.76255e-17 -1.43017e-16 0)
(-1.04829e-16 1.70811e-16 0)
(7.01651e-17 -2.06888e-17 0)
(1.00325e-17 -4.67746e-17 0)
(-4.91909e-17 2.19611e-17 0)
(7.32646e-17 1.48885e-17 0)
(-4.27049e-17 -3.1688e-18 0)
(7.6349e-18 -3.83842e-17 0)
(2.25484e-17 8.24432e-17 0)
(1.86522e-17 -4.69579e-17 0)
(-3.85986e-17 -9.26636e-17 0)
(-2.88241e-17 9.71127e-17 0)
(1.60873e-17 8.05522e-17 0)
(-5.05007e-20 -2.42406e-19 0)
(1.29493e-18 -6.05983e-20 0)
(5.77953e-20 6.92814e-19 0)
(-1.26021e-18 5.57224e-19 0)
(-6.83959e-19 -3.05148e-19 0)
(-6.46512e-19 -2.64866e-19 0)
(-1.19361e-18 -3.60455e-19 0)
(2.90461e-20 -5.92121e-19 0)
(6.41731e-20 -1.86178e-19 0)
(2.87765e-20 6.3968e-20 0)
(-6.21988e-19 -1.35188e-20 0)
(5.27903e-20 -1.15244e-19 0)
(1.27759e-18 3.03223e-19 0)
(-6.38582e-19 7.15917e-19 0)
(-1.2852e-18 2.95496e-19 0)
(-6.12486e-19 -7.03001e-19 0)
(2.80215e-20 -9.77549e-20 0)
(2.34701e-20 7.22906e-21 0)
(-4.74048e-21 4.30657e-20 0)
(-3.64198e-21 -2.12138e-20 0)
(-2.55973e-17 -1.65308e-16 0)
(2.70852e-17 3.461e-17 0)
(-1.00555e-17 -7.18481e-18 0)
(-9.56993e-19 1.57404e-18 0)
(-3.48984e-18 -8.49969e-20 0)
(-3.54999e-18 -4.5913e-19 0)
(-2.74083e-18 -6.12559e-19 0)
(-2.76544e-18 -6.85333e-19 0)
(-2.6158e-18 -1.15074e-18 0)
(-1.13415e-18 -7.86828e-19 0)
(-1.71428e-18 2.67299e-19 0)
(-1.89562e-18 -9.43544e-20 0)
(-1.80816e-18 -7.30169e-19 0)
(-8.20104e-19 -2.63991e-19 0)
(-8.62345e-19 -1.86404e-19 0)
(-4.39609e-19 -3.06911e-19 0)
(5.15443e-20 -3.43209e-19 0)
(-4.3742e-19 3.29393e-19 0)
(-5.32571e-19 -3.0764e-19 0)
(8.44026e-20 -3.23208e-19 0)
)
;
    }
    frontAndBack
    {
        type            empty;
    }
}


// ************************************************************************* //
