/*--------------------------------*- C++ -*----------------------------------*\
| =========                 |                                                 |
| \\      /  F ield         | OpenFOAM: The Open Source CFD Toolbox           |
|  \\    /   O peration     | Version:  2312                                  |
|   \\  /    A nd           | Website:  www.openfoam.com                      |
|    \\/     M anipulation  |                                                 |
\*---------------------------------------------------------------------------*/
FoamFile
{
    version     2.0;
    format      ascii;
    arch        "LSB;label=32;scalar=64";
    class       volScalarField;
    location    "8";
    object      yPlus;
}
// * * * * * * * * * * * * * * * * * * * * * * * * * * * * * * * * * * * * * //

dimensions      [0 0 0 0 0 0 0];

internalField   uniform 0;

boundaryField
{
    movingWall
    {
        type            calculated;
        value           nonuniform List<scalar> 
20
(
2.21813e-06
9.15834e-07
5.62772e-07
3.77536e-07
4.10326e-07
3.74855e-07
3.34379e-07
3.72532e-07
3.3333e-07
2.39925e-07
2.04352e-07
4.08092e-07
3.40544e-07
2.90613e-07
1.71202e-07
2.44666e-07
1.17899e-07
1.43705e-07
1.18606e-07
3.64124e-08
)
;
    }
    fixedWalls
    {
        type            calculated;
        value           nonuniform List<scalar> 
60
(
2.78826e-06
1.45839e-06
2.06601e-06
1.6772e-06
2.4169e-06
2.40284e-06
1.39188e-06
2.96543e-06
3.42599e-06
1.7525e-06
1.48719e-06
1.43577e-06
1.88689e-06
1.60665e-06
1.86042e-06
2.37286e-06
1.58299e-06
2.44422e-06
2.45676e-06
2.21813e-06
1.23087e-07
2.35882e-07
1.62358e-07
2.41498e-07
1.66845e-07
1.7977e-07
2.44762e-07
1.41658e-07
1.07871e-07
6.32297e-08
1.66639e-07
8.48689e-08
2.42192e-07
1.98209e-07
2.35653e-07
1.71817e-07
7.81645e-08
2.1256e-08
5.18807e-08
3.64124e-08
2.78826e-06
1.26712e-06
6.47547e-07
4.0165e-07
4.42055e-07
4.71623e-07
4.09584e-07
4.1183e-07
4.15487e-07
2.92611e-07
3.33311e-07
3.33332e-07
3.37596e-07
2.38482e-07
2.37054e-07
1.68461e-07
8.72787e-08
1.69167e-07
1.68482e-07
1.23087e-07
)
;
    }
    frontAndBack
    {
        type            empty;
    }
}


// ************************************************************************* //
