/*--------------------------------*- C++ -*----------------------------------*\
| =========                 |                                                 |
| \\      /  F ield         | OpenFOAM: The Open Source CFD Toolbox           |
|  \\    /   O peration     | Version:  2312                                  |
|   \\  /    A nd           | Website:  www.openfoam.com                      |
|    \\/     M anipulation  |                                                 |
\*---------------------------------------------------------------------------*/
FoamFile
{
    version     2.0;
    format      ascii;
    arch        "LSB;label=32;scalar=64";
    class       volVectorField;
    location    "8.625";
    object      diffU;
}
// * * * * * * * * * * * * * * * * * * * * * * * * * * * * * * * * * * * * * //

dimensions      [0 1 -1 0 0 0 0];

internalField   nonuniform List<vector> 
400
(
(0 0 0)
(7.21645e-15 -1.057e-13 0)
(5.44009e-15 -8.31112e-14 0)
(5.10703e-15 -8.8248e-14 0)
(4.88498e-15 -8.71825e-14 0)
(4.88498e-15 -8.74014e-14 0)
(4.77396e-15 -8.73041e-14 0)
(4.77396e-15 -8.72882e-14 0)
(4.44089e-15 -8.74218e-14 0)
(4.55191e-15 -8.74729e-14 0)
(4.55191e-15 -8.73794e-14 0)
(4.21885e-15 -8.73517e-14 0)
(4.21885e-15 -8.73787e-14 0)
(4.21885e-15 -8.74099e-14 0)
(4.10783e-15 -8.74352e-14 0)
(4.21885e-15 -8.74824e-14 0)
(4.21885e-15 -8.74735e-14 0)
(4.21885e-15 -8.73661e-14 0)
(4.21885e-15 -8.73536e-14 0)
(4.10783e-15 -8.74318e-14 0)
(1.28786e-14 -6.57961e-14 0)
(8.88178e-16 -9.0848e-14 0)
(3.33067e-15 -8.605e-14 0)
(3.33067e-15 -8.74194e-14 0)
(3.33067e-15 -8.73421e-14 0)
(3.33067e-15 -8.75008e-14 0)
(3.10862e-15 -8.75404e-14 0)
(3.77476e-15 -8.75116e-14 0)
(3.77476e-15 -8.7492e-14 0)
(3.77476e-15 -8.74127e-14 0)
(3.55271e-15 -8.72979e-14 0)
(3.33067e-15 -8.7381e-14 0)
(3.77476e-15 -8.74318e-14 0)
(3.77476e-15 -8.73706e-14 0)
(3.55271e-15 -8.74373e-14 0)
(3.77476e-15 -8.75637e-14 0)
(3.55271e-15 -8.75577e-14 0)
(3.55271e-15 -8.7446e-14 0)
(3.9968e-15 -8.73843e-14 0)
(3.9968e-15 -8.73955e-14 0)
(1.13243e-14 -1.51303e-13 0)
(2.44249e-15 -7.3488e-14 0)
(4.44089e-15 -9.04474e-14 0)
(4.10783e-15 -8.67372e-14 0)
(4.32987e-15 -8.74864e-14 0)
(4.44089e-15 -8.73512e-14 0)
(4.21885e-15 -8.75029e-14 0)
(4.21885e-15 -8.75633e-14 0)
(4.21885e-15 -8.73722e-14 0)
(4.10783e-15 -8.73209e-14 0)
(3.9968e-15 -8.72853e-14 0)
(4.55191e-15 -8.7424e-14 0)
(4.10783e-15 -8.75078e-14 0)
(4.21885e-15 -8.74551e-14 0)
(4.21885e-15 -8.74709e-14 0)
(4.32987e-15 -8.7479e-14 0)
(4.10783e-15 -8.74362e-14 0)
(3.77476e-15 -8.74868e-14 0)
(3.9968e-15 -8.74968e-14 0)
(3.9968e-15 -8.74263e-14 0)
(-1.4877e-14 -8.03947e-14 0)
(8.21565e-15 -8.8571e-14 0)
(2.66454e-15 -8.71442e-14 0)
(3.33067e-15 -8.74514e-14 0)
(3.33067e-15 -8.7287e-14 0)
(3.33067e-15 -8.73203e-14 0)
(3.33067e-15 -8.7453e-14 0)
(3.33067e-15 -8.75536e-14 0)
(3.33067e-15 -8.74941e-14 0)
(3.33067e-15 -8.75656e-14 0)
(3.55271e-15 -8.76104e-14 0)
(3.9968e-15 -8.76041e-14 0)
(3.9968e-15 -8.74758e-14 0)
(4.21885e-15 -8.73984e-14 0)
(4.10783e-15 -8.72917e-14 0)
(3.77476e-15 -8.72674e-14 0)
(3.77476e-15 -8.73113e-14 0)
(4.10783e-15 -8.74195e-14 0)
(3.77476e-15 -8.75117e-14 0)
(3.9968e-15 -8.74926e-14 0)
(1.67644e-14 -5.1358e-14 0)
(8.88178e-16 -9.51049e-14 0)
(4.88498e-15 -8.53652e-14 0)
(3.77476e-15 -8.78038e-14 0)
(4.21885e-15 -8.73914e-14 0)
(4.21885e-15 -8.75232e-14 0)
(4.66294e-15 -8.75347e-14 0)
(4.44089e-15 -8.75451e-14 0)
(4.21885e-15 -8.75237e-14 0)
(4.21885e-15 -8.74067e-14 0)
(3.9968e-15 -8.75166e-14 0)
(3.77476e-15 -8.76014e-14 0)
(3.55271e-15 -8.75429e-14 0)
(3.33067e-15 -8.7527e-14 0)
(3.55271e-15 -8.74581e-14 0)
(4.10783e-15 -8.74116e-14 0)
(4.21885e-15 -8.74427e-14 0)
(4.21885e-15 -8.74377e-14 0)
(4.44089e-15 -8.74333e-14 0)
(3.9968e-15 -8.74559e-14 0)
(4.44089e-16 -1.38087e-13 0)
(5.32907e-15 -7.58497e-14 0)
(4.32987e-15 -8.97859e-14 0)
(4.44089e-15 -8.67506e-14 0)
(4.10783e-15 -8.75803e-14 0)
(3.9968e-15 -8.74138e-14 0)
(3.77476e-15 -8.73642e-14 0)
(3.55271e-15 -8.74088e-14 0)
(3.77476e-15 -8.7528e-14 0)
(3.77476e-15 -8.74405e-14 0)
(4.21885e-15 -8.74757e-14 0)
(4.10783e-15 -8.74765e-14 0)
(4.32987e-15 -8.75096e-14 0)
(4.21885e-15 -8.75199e-14 0)
(4.32987e-15 -8.75902e-14 0)
(4.10783e-15 -8.74643e-14 0)
(4.10783e-15 -8.73844e-14 0)
(3.77476e-15 -8.74488e-14 0)
(3.9968e-15 -8.74186e-14 0)
(3.9968e-15 -8.74015e-14 0)
(9.99201e-15 -3.53239e-14 0)
(3.9968e-15 -9.70075e-14 0)
(4.88498e-15 -8.46409e-14 0)
(4.10783e-15 -8.7537e-14 0)
(4.21885e-15 -8.71468e-14 0)
(4.21885e-15 -8.73548e-14 0)
(4.21885e-15 -8.73721e-14 0)
(4.32987e-15 -8.74892e-14 0)
(4.44089e-15 -8.75882e-14 0)
(4.44089e-15 -8.75748e-14 0)
(4.21885e-15 -8.76321e-14 0)
(4.21885e-15 -8.75261e-14 0)
(4.32987e-15 -8.74131e-14 0)
(4.10783e-15 -8.73247e-14 0)
(4.10783e-15 -8.74172e-14 0)
(3.9968e-15 -8.73811e-14 0)
(3.9968e-15 -8.72913e-14 0)
(4.10783e-15 -8.74024e-14 0)
(3.9968e-15 -8.74686e-14 0)
(4.10783e-15 -8.74095e-14 0)
(-1.08802e-14 -8.67395e-14 0)
(5.10703e-15 -8.80058e-14 0)
(1.33227e-15 -8.69622e-14 0)
(3.77476e-15 -8.73049e-14 0)
(3.33067e-15 -8.72578e-14 0)
(3.55271e-15 -8.74487e-14 0)
(3.33067e-15 -8.75531e-14 0)
(3.77476e-15 -8.74814e-14 0)
(3.10862e-15 -8.74755e-14 0)
(3.33067e-15 -8.75254e-14 0)
(3.55271e-15 -8.74834e-14 0)
(3.55271e-15 -8.74282e-14 0)
(3.33067e-15 -8.7487e-14 0)
(3.33067e-15 -8.75242e-14 0)
(3.55271e-15 -8.75088e-14 0)
(3.77476e-15 -8.74843e-14 0)
(3.77476e-15 -8.74934e-14 0)
(3.9968e-15 -8.74227e-14 0)
(3.9968e-15 -8.74257e-14 0)
(3.9968e-15 -8.74195e-14 0)
(1.39888e-14 -1.59456e-13 0)
(3.33067e-15 -7.18775e-14 0)
(5.88418e-15 -9.0993e-14 0)
(4.32987e-15 -8.65845e-14 0)
(4.66294e-15 -8.75506e-14 0)
(4.77396e-15 -8.74756e-14 0)
(4.66294e-15 -8.76127e-14 0)
(4.66294e-15 -8.75686e-14 0)
(4.66294e-15 -8.75349e-14 0)
(4.55191e-15 -8.75902e-14 0)
(4.44089e-15 -8.74651e-14 0)
(4.55191e-15 -8.74352e-14 0)
(4.66294e-15 -8.74996e-14 0)
(4.55191e-15 -8.75076e-14 0)
(4.10783e-15 -8.74538e-14 0)
(4.21885e-15 -8.75125e-14 0)
(4.21885e-15 -8.75847e-14 0)
(3.9968e-15 -8.75049e-14 0)
(3.9968e-15 -8.74518e-14 0)
(4.10783e-15 -8.74689e-14 0)
(-1.77636e-15 1.20167e-14 0)
(5.44009e-15 -1.08404e-13 0)
(3.77476e-15 -8.25678e-14 0)
(4.55191e-15 -8.84317e-14 0)
(4.21885e-15 -8.72242e-14 0)
(4.32987e-15 -8.75022e-14 0)
(4.10783e-15 -8.74594e-14 0)
(4.32987e-15 -8.74727e-14 0)
(4.21885e-15 -8.73341e-14 0)
(4.21885e-15 -8.73622e-14 0)
(4.10783e-15 -8.7498e-14 0)
(4.44089e-15 -8.75429e-14 0)
(4.44089e-15 -8.74508e-14 0)
(4.32987e-15 -8.7435e-14 0)
(4.32987e-15 -8.73717e-14 0)
(4.21885e-15 -8.73851e-14 0)
(4.10783e-15 -8.73258e-14 0)
(3.77476e-15 -8.73836e-14 0)
(3.9968e-15 -8.746e-14 0)
(3.9968e-15 -8.74827e-14 0)
(6.10623e-15 -1.61017e-13 0)
(3.10862e-15 -7.15745e-14 0)
(3.77476e-15 -9.07992e-14 0)
(4.10783e-15 -8.65466e-14 0)
(3.9968e-15 -8.76373e-14 0)
(4.10783e-15 -8.75417e-14 0)
(3.9968e-15 -8.7547e-14 0)
(3.77476e-15 -8.74875e-14 0)
(3.77476e-15 -8.75056e-14 0)
(4.10783e-15 -8.75441e-14 0)
(4.10783e-15 -8.761e-14 0)
(4.10783e-15 -8.7553e-14 0)
(3.77476e-15 -8.74259e-14 0)
(3.77476e-15 -8.73846e-14 0)
(3.55271e-15 -8.73831e-14 0)
(3.55271e-15 -8.74581e-14 0)
(3.77476e-15 -8.74724e-14 0)
(4.10783e-15 -8.74298e-14 0)
(4.21885e-15 -8.73823e-14 0)
(4.21885e-15 -8.73863e-14 0)
(1.44329e-14 -6.44811e-14 0)
(2.88658e-15 -9.18431e-14 0)
(5.77316e-15 -8.62269e-14 0)
(4.21885e-15 -8.75644e-14 0)
(4.77396e-15 -8.73565e-14 0)
(4.44089e-15 -8.74178e-14 0)
(4.32987e-15 -8.73549e-14 0)
(4.32987e-15 -8.73611e-14 0)
(4.21885e-15 -8.7557e-14 0)
(4.32987e-15 -8.74921e-14 0)
(4.44089e-15 -8.73096e-14 0)
(4.32987e-15 -8.73437e-14 0)
(4.21885e-15 -8.73943e-14 0)
(4.21885e-15 -8.73544e-14 0)
(4.10783e-15 -8.73911e-14 0)
(4.21885e-15 -8.75262e-14 0)
(4.21885e-15 -8.75669e-14 0)
(3.9968e-15 -8.74406e-14 0)
(3.9968e-15 -8.73435e-14 0)
(3.9968e-15 -8.73368e-14 0)
(-1.24345e-14 -6.1067e-14 0)
(5.66214e-15 -9.28003e-14 0)
(1.55431e-15 -8.62568e-14 0)
(3.77476e-15 -8.78128e-14 0)
(3.33067e-15 -8.74525e-14 0)
(3.33067e-15 -8.74201e-14 0)
(3.33067e-15 -8.73792e-14 0)
(3.55271e-15 -8.74432e-14 0)
(3.55271e-15 -8.75238e-14 0)
(3.33067e-15 -8.75155e-14 0)
(3.33067e-15 -8.74672e-14 0)
(3.55271e-15 -8.74689e-14 0)
(3.77476e-15 -8.74205e-14 0)
(3.77476e-15 -8.73645e-14 0)
(3.55271e-15 -8.74512e-14 0)
(3.77476e-15 -8.74939e-14 0)
(3.77476e-15 -8.74368e-14 0)
(3.55271e-15 -8.74382e-14 0)
(3.77476e-15 -8.75241e-14 0)
(3.77476e-15 -8.74656e-14 0)
(1.11022e-14 -1.40225e-13 0)
(3.55271e-15 -7.64815e-14 0)
(5.10703e-15 -9.0035e-14 0)
(4.44089e-15 -8.69202e-14 0)
(4.44089e-15 -8.75741e-14 0)
(4.55191e-15 -8.73788e-14 0)
(4.44089e-15 -8.74038e-14 0)
(4.44089e-15 -8.74381e-14 0)
(4.44089e-15 -8.73721e-14 0)
(4.32987e-15 -8.74209e-14 0)
(4.32987e-15 -8.74389e-14 0)
(4.21885e-15 -8.73328e-14 0)
(3.77476e-15 -8.74085e-14 0)
(3.9968e-15 -8.75558e-14 0)
(4.21885e-15 -8.76101e-14 0)
(4.21885e-15 -8.74718e-14 0)
(4.10783e-15 -8.73824e-14 0)
(4.10783e-15 -8.74762e-14 0)
(4.21885e-15 -8.75666e-14 0)
(4.10783e-15 -8.74866e-14 0)
(2.66454e-15 -1.71439e-14 0)
(3.55271e-15 -1.02683e-13 0)
(3.33067e-15 -8.39781e-14 0)
(3.77476e-15 -8.82587e-14 0)
(3.55271e-15 -8.72961e-14 0)
(3.55271e-15 -8.74522e-14 0)
(3.55271e-15 -8.74147e-14 0)
(3.55271e-15 -8.74541e-14 0)
(3.77476e-15 -8.73835e-14 0)
(3.77476e-15 -8.73123e-14 0)
(3.55271e-15 -8.73497e-14 0)
(3.77476e-15 -8.74143e-14 0)
(4.32987e-15 -8.75705e-14 0)
(4.32987e-15 -8.76297e-14 0)
(4.10783e-15 -8.74756e-14 0)
(3.77476e-15 -8.73071e-14 0)
(3.77476e-15 -8.7364e-14 0)
(4.10783e-15 -8.7433e-14 0)
(3.9968e-15 -8.74353e-14 0)
(3.9968e-15 -8.74204e-14 0)
(1.0103e-14 -1.48037e-13 0)
(2.44249e-15 -7.422e-14 0)
(3.9968e-15 -9.07088e-14 0)
(4.10783e-15 -8.68227e-14 0)
(4.10783e-15 -8.7504e-14 0)
(3.9968e-15 -8.73296e-14 0)
(3.9968e-15 -8.74612e-14 0)
(3.9968e-15 -8.75204e-14 0)
(4.10783e-15 -8.75229e-14 0)
(3.9968e-15 -8.75081e-14 0)
(4.44089e-15 -8.74904e-14 0)
(4.32987e-15 -8.74669e-14 0)
(3.9968e-15 -8.74112e-14 0)
(3.55271e-15 -8.74315e-14 0)
(3.55271e-15 -8.74341e-14 0)
(3.77476e-15 -8.74523e-14 0)
(3.77476e-15 -8.75287e-14 0)
(3.9968e-15 -8.75118e-14 0)
(3.9968e-15 -8.7453e-14 0)
(3.9968e-15 -8.74615e-14 0)
(-1.13243e-14 -8.90059e-14 0)
(8.32667e-15 -8.72507e-14 0)
(3.9968e-15 -8.73476e-14 0)
(3.55271e-15 -8.73627e-14 0)
(3.33067e-15 -8.73638e-14 0)
(3.9968e-15 -8.74043e-14 0)
(3.9968e-15 -8.74342e-14 0)
(3.77476e-15 -8.74655e-14 0)
(3.55271e-15 -8.74988e-14 0)
(3.55271e-15 -8.75554e-14 0)
(3.55271e-15 -8.74463e-14 0)
(3.55271e-15 -8.73898e-14 0)
(3.77476e-15 -8.74329e-14 0)
(3.9968e-15 -8.7526e-14 0)
(4.21885e-15 -8.75545e-14 0)
(4.32987e-15 -8.75184e-14 0)
(4.21885e-15 -8.74753e-14 0)
(4.10783e-15 -8.74514e-14 0)
(3.9968e-15 -8.74773e-14 0)
(3.9968e-15 -8.74919e-14 0)
(9.21485e-15 -7.90781e-15 0)
(2.22045e-15 -1.04681e-13 0)
(4.21885e-15 -8.32976e-14 0)
(4.32987e-15 -8.81915e-14 0)
(4.66294e-15 -8.72878e-14 0)
(4.10783e-15 -8.74942e-14 0)
(4.32987e-15 -8.73605e-14 0)
(4.32987e-15 -8.73501e-14 0)
(4.10783e-15 -8.73481e-14 0)
(3.9968e-15 -8.74131e-14 0)
(3.9968e-15 -8.74916e-14 0)
(4.10783e-15 -8.76719e-14 0)
(4.21885e-15 -8.76743e-14 0)
(4.32987e-15 -8.75763e-14 0)
(3.9968e-15 -8.74678e-14 0)
(4.21885e-15 -8.73919e-14 0)
(3.9968e-15 -8.73831e-14 0)
(3.9968e-15 -8.73497e-14 0)
(4.10783e-15 -8.7456e-14 0)
(4.21885e-15 -8.74647e-14 0)
(2.26485e-14 -1.37784e-13 0)
(-8.88178e-16 -7.68986e-14 0)
(3.9968e-15 -9.01579e-14 0)
(3.55271e-15 -8.68171e-14 0)
(3.77476e-15 -8.74868e-14 0)
(3.55271e-15 -8.73229e-14 0)
(3.55271e-15 -8.73147e-14 0)
(3.55271e-15 -8.73123e-14 0)
(3.55271e-15 -8.73549e-14 0)
(3.77476e-15 -8.74519e-14 0)
(3.9968e-15 -8.75967e-14 0)
(3.9968e-15 -8.76884e-14 0)
(3.55271e-15 -8.75642e-14 0)
(3.9968e-15 -8.74956e-14 0)
(3.55271e-15 -8.75389e-14 0)
(3.9968e-15 -8.76072e-14 0)
(3.9968e-15 -8.74327e-14 0)
(4.10783e-15 -8.73868e-14 0)
(3.9968e-15 -8.7483e-14 0)
(3.9968e-15 -8.74776e-14 0)
(-5.77316e-15 -1.42619e-13 0)
(7.43849e-15 -7.57757e-14 0)
(4.44089e-15 -9.0243e-14 0)
(4.55191e-15 -8.68677e-14 0)
(4.77396e-15 -8.7572e-14 0)
(4.77396e-15 -8.74382e-14 0)
(4.88498e-15 -8.74634e-14 0)
(5.10703e-15 -8.75181e-14 0)
(4.88498e-15 -8.7583e-14 0)
(4.88498e-15 -8.76023e-14 0)
(4.55191e-15 -8.76489e-14 0)
(4.66294e-15 -8.76018e-14 0)
(4.21885e-15 -8.75117e-14 0)
(4.21885e-15 -8.74567e-14 0)
(4.21885e-15 -8.75319e-14 0)
(4.21885e-15 -8.76416e-14 0)
(3.77476e-15 -8.74753e-14 0)
(3.77476e-15 -8.74394e-14 0)
(4.21885e-15 -8.74876e-14 0)
(4.21885e-15 -8.74934e-14 0)
)
;

boundaryField
{
    movingWall
    {
        type            calculated;
        value           uniform (3.9968e-15 -8.74696e-14 0);
    }
    fixedWalls
    {
        type            calculated;
        value           uniform (3.9968e-15 -8.74696e-14 0);
    }
    frontAndBack
    {
        type            empty;
    }
}


// ************************************************************************* //
