/*--------------------------------*- C++ -*----------------------------------*\
| =========                 |                                                 |
| \\      /  F ield         | OpenFOAM: The Open Source CFD Toolbox           |
|  \\    /   O peration     | Version:  2312                                  |
|   \\  /    A nd           | Website:  www.openfoam.com                      |
|    \\/     M anipulation  |                                                 |
\*---------------------------------------------------------------------------*/
FoamFile
{
    version     2.0;
    format      ascii;
    arch        "LSB;label=32;scalar=64";
    class       volScalarField;
    location    "8.625";
    object      divU;
}
// * * * * * * * * * * * * * * * * * * * * * * * * * * * * * * * * * * * * * //

dimensions      [0 0 -1 0 0 0 0];

internalField   nonuniform List<scalar> 
400
(
1.0842e-11
-1.61875e-12
3.60955e-13
-1.27032e-13
4.1457e-14
3.70002e-15
-1.76369e-14
-1.31721e-14
-5.16686e-14
3.24588e-14
-9.09738e-16
-6.45635e-15
1.28707e-14
-1.12417e-14
6.67285e-15
1.64103e-14
-9.20597e-15
1.27095e-14
-6.9732e-15
-2.71051e-14
-1.45554e-11
2.25294e-12
-4.53985e-13
1.59573e-13
-4.31409e-14
8.72422e-15
-1.04085e-14
4.0632e-14
7.50575e-15
-6.54666e-15
8.49965e-15
-1.36841e-14
2.7062e-14
-4.28689e-14
3.09667e-15
1.67497e-14
-3.25772e-14
2.77359e-14
3.29167e-14
0
-8.67362e-13
-4.73816e-13
8.71234e-14
-6.25327e-15
4.36847e-14
-3.34098e-16
-1.67217e-15
9.33279e-15
7.29457e-15
-7.60429e-14
3.14524e-14
-8.88485e-15
-3.15504e-14
3.56659e-14
1.76514e-14
1.92757e-14
-3.50416e-14
3.28867e-15
-6.93418e-15
0
8.48388e-12
-4.12886e-13
2.61398e-14
-5.87107e-14
-1.03094e-15
-1.75401e-14
-4.84701e-15
1.11575e-14
-7.86073e-15
-3.31227e-15
6.25256e-14
2.75875e-14
1.9157e-14
2.84765e-14
-6.23821e-14
-5.52942e-14
4.5622e-14
8.20078e-15
-5.86856e-16
0
-4.8247e-12
7.31965e-14
5.91306e-15
1.1374e-14
2.38554e-14
2.73229e-14
3.11412e-14
-2.85785e-14
-1.12526e-14
-1.79088e-14
-5.32002e-15
-6.80803e-14
-1.13238e-14
-1.07727e-14
-1.09157e-14
6.05456e-14
1.12101e-14
5.26981e-15
8.72126e-15
-5.42101e-14
1.40946e-12
2.08196e-13
-3.00759e-14
1.09538e-14
-3.29986e-14
-3.71441e-14
2.02931e-14
-2.2994e-14
9.4098e-15
4.66007e-14
3.7346e-14
2.07603e-14
1.65545e-15
9.46187e-15
-6.82582e-15
-1.77249e-14
-7.60378e-16
8.80292e-15
5.19151e-15
0
5.71917e-12
-1.73925e-12
3.06502e-13
-1.25797e-13
5.34526e-14
-1.35306e-14
-2.57068e-14
2.39579e-14
1.46616e-14
-4.32077e-14
9.47191e-15
-1.51043e-15
3.91304e-15
-1.80789e-14
-2.57838e-14
7.3768e-15
1.5443e-14
-1.56989e-14
3.15892e-14
-2.71051e-14
-1.37965e-11
3.75531e-12
-7.89496e-13
3.21818e-13
-4.11356e-14
-2.56163e-14
-2.26583e-14
-1.10782e-14
-6.13243e-14
6.36769e-14
2.6175e-14
-4.66302e-14
-4.73934e-15
4.49496e-14
-2.33542e-15
2.13398e-14
1.32098e-14
1.1558e-15
6.16922e-15
0
1.07878e-11
-2.8653e-12
5.44414e-13
-2.51646e-13
9.77588e-14
-3.85868e-15
-1.32884e-14
-1.02024e-14
-2.00816e-14
2.57836e-14
-2.38844e-15
2.32167e-14
-1.12092e-15
-8.16513e-14
1.13718e-14
4.15455e-15
2.86375e-15
-2.20304e-14
2.73986e-15
0
-5.69206e-13
5.80233e-13
-5.96157e-14
2.31917e-14
-1.93271e-14
-1.04695e-14
-6.71969e-15
-2.09723e-15
9.95168e-15
3.28445e-15
-1.68796e-14
1.14353e-14
-2.08603e-14
1.19596e-14
1.84358e-14
-1.75102e-14
-1.3009e-14
1.25819e-14
9.69025e-15
0
-7.53521e-12
1.3961e-12
-2.3579e-13
1.09922e-13
-3.25624e-14
2.50678e-14
-2.33732e-14
-4.51533e-14
4.1874e-14
1.73989e-14
2.9071e-14
4.24891e-15
-4.23119e-14
-7.08222e-15
-1.06054e-14
-4.51155e-15
4.42027e-14
6.10892e-14
2.13366e-14
-2.71051e-14
1.09233e-11
-3.0033e-12
5.97919e-13
-2.33534e-13
4.01241e-14
-4.40855e-14
2.05068e-14
1.34859e-14
-1.41601e-14
2.02604e-14
1.62403e-14
-1.44496e-14
1.24396e-14
-5.07362e-15
-1.74076e-14
-8.09301e-15
-3.35542e-14
-2.10674e-14
-1.99467e-14
0
-9.02598e-12
2.92388e-12
-5.68944e-13
2.64571e-13
-6.2953e-14
1.40336e-14
-1.1487e-14
5.99978e-14
3.14321e-14
-5.39317e-14
3.04084e-14
1.37479e-14
3.8126e-14
-5.23269e-14
1.48949e-14
-2.65033e-15
1.1996e-14
2.47778e-15
-1.51456e-14
2.71051e-14
5.06865e-12
-1.61511e-12
3.36553e-13
-1.32382e-13
6.89648e-15
1.08269e-14
-4.21366e-14
4.69516e-15
-8.74483e-15
2.0599e-14
1.50572e-14
-6.21036e-14
-3.97894e-15
2.46516e-15
1.24544e-14
-1.10703e-14
1.92771e-14
3.01041e-14
-6.272e-15
-2.71051e-14
-9.75782e-13
3.45753e-13
-5.60833e-14
3.99957e-14
-1.32005e-14
1.57407e-14
6.3328e-15
-3.53796e-15
3.27929e-15
-1.52211e-14
-4.42982e-14
6.00105e-14
4.99621e-14
1.48945e-14
-2.41567e-14
-6.33376e-14
3.17507e-14
-5.67783e-16
5.08628e-15
0
-6.74916e-12
9.67369e-13
-2.03296e-13
1.29596e-13
-4.70757e-14
-6.57325e-15
4.37765e-15
2.24359e-14
-3.53615e-14
4.17867e-14
2.50424e-16
8.24787e-15
-9.89083e-14
-2.89406e-14
-4.94207e-15
-3.15868e-15
4.77311e-14
-2.40299e-15
8.91e-16
0
1.2902e-11
-1.50951e-12
2.66771e-13
-1.69915e-13
2.87545e-14
5.82856e-14
1.44492e-14
-6.89528e-14
9.22531e-15
-2.92813e-15
1.25014e-16
-1.22522e-14
6.4508e-14
1.07906e-14
1.87923e-14
2.88592e-15
8.08829e-15
-4.03941e-14
5.86362e-16
0
-4.55365e-12
5.28594e-13
-4.13727e-14
7.4373e-14
-1.06509e-14
-1.48942e-14
-7.07254e-16
2.76791e-14
-3.48542e-15
-1.96881e-14
-1.49109e-14
1.20991e-14
-2.82885e-15
1.38297e-14
-3.38581e-14
-5.98783e-15
-1.47567e-14
-6.83356e-15
5.42276e-14
-5.42101e-14
-1.20889e-11
1.00676e-12
-2.4802e-13
1.25435e-13
-6.61669e-14
1.78108e-14
-1.09978e-14
-1.62219e-14
1.24007e-16
-1.14993e-14
5.06755e-14
-3.51005e-14
1.3435e-14
-1.30958e-15
-1.31594e-14
2.32503e-14
3.12035e-15
-1.581e-14
-3.13909e-15
0
9.92045e-12
-1.21973e-12
2.43945e-13
-8.13152e-14
2.71051e-14
-2.71051e-14
0
0
0
-2.71051e-14
0
-2.71051e-14
0
0
0
-2.71051e-14
-5.42101e-14
5.42101e-14
5.42101e-14
-5.42101e-14
)
;

boundaryField
{
    movingWall
    {
        type            extrapolatedCalculated;
        value           nonuniform List<scalar> 
20
(
9.92045e-12
-1.21973e-12
2.43945e-13
-8.13152e-14
2.71051e-14
-2.71051e-14
0
0
0
-2.71051e-14
0
-2.71051e-14
0
0
0
-2.71051e-14
-5.42101e-14
5.42101e-14
5.42101e-14
-5.42101e-14
)
;
    }
    fixedWalls
    {
        type            extrapolatedCalculated;
        value           nonuniform List<scalar> 
60
(
1.0842e-11
-1.45554e-11
-8.67362e-13
8.48388e-12
-4.8247e-12
1.40946e-12
5.71917e-12
-1.37965e-11
1.07878e-11
-5.69206e-13
-7.53521e-12
1.09233e-11
-9.02598e-12
5.06865e-12
-9.75782e-13
-6.74916e-12
1.2902e-11
-4.55365e-12
-1.20889e-11
9.92045e-12
-2.71051e-14
0
0
0
-5.42101e-14
0
-2.71051e-14
0
0
0
-2.71051e-14
0
2.71051e-14
-2.71051e-14
0
0
0
-5.42101e-14
0
-5.42101e-14
1.0842e-11
-1.61875e-12
3.60955e-13
-1.27032e-13
4.1457e-14
3.70002e-15
-1.76369e-14
-1.31721e-14
-5.16686e-14
3.24588e-14
-9.09738e-16
-6.45635e-15
1.28707e-14
-1.12417e-14
6.67285e-15
1.64103e-14
-9.20597e-15
1.27095e-14
-6.9732e-15
-2.71051e-14
)
;
    }
    frontAndBack
    {
        type            empty;
    }
}


// ************************************************************************* //
