/*--------------------------------*- C++ -*----------------------------------*\
| =========                 |                                                 |
| \\      /  F ield         | OpenFOAM: The Open Source CFD Toolbox           |
|  \\    /   O peration     | Version:  2312                                  |
|   \\  /    A nd           | Website:  www.openfoam.com                      |
|    \\/     M anipulation  |                                                 |
\*---------------------------------------------------------------------------*/
FoamFile
{
    version     2.0;
    format      ascii;
    arch        "LSB;label=32;scalar=64";
    class       volScalarField;
    location    "8.625";
    object      enstrophyField;
}
// * * * * * * * * * * * * * * * * * * * * * * * * * * * * * * * * * * * * * //

dimensions      [0 0 -2 0 0 0 0];

internalField   nonuniform List<scalar> 
400
(
2.07114e-23
3.45374e-23
1.38423e-24
1.19289e-25
4.63422e-28
7.71057e-28
6.40582e-29
2.17651e-27
1.03863e-27
1.24827e-27
7.35099e-29
1.47306e-27
1.69527e-29
1.59479e-29
1.10274e-27
7.3514e-30
6.76852e-29
7.1882e-29
5.67204e-28
1.18227e-28
2.3881e-25
1.14065e-24
1.14422e-25
2.16081e-28
2.67787e-27
1.89057e-27
3.21837e-27
1.7435e-27
6.84416e-28
2.70989e-27
1.64623e-27
2.28507e-27
5.38187e-31
1.51375e-31
1.86449e-28
7.6634e-28
2.17665e-27
4.86718e-27
5.17003e-28
1.2703e-28
2.40533e-24
1.41862e-23
8.42152e-25
4.38397e-26
1.88505e-27
1.56038e-27
1.16749e-27
2.26355e-27
3.07751e-27
1.97821e-27
5.31195e-29
2.92346e-27
4.56692e-28
1.27614e-27
6.13902e-27
6.03994e-30
1.51213e-27
3.81755e-27
1.83315e-29
1.29484e-30
1.52608e-27
1.31234e-25
3.60031e-27
8.21734e-29
8.59393e-29
7.07327e-28
3.00598e-27
8.43314e-30
7.19159e-31
6.77119e-29
7.41089e-30
2.28978e-27
5.18956e-27
8.04255e-27
7.3837e-27
3.16176e-28
1.1558e-28
2.75645e-27
5.92399e-28
2.12265e-29
8.48439e-25
4.81296e-24
1.61013e-25
4.83733e-26
1.41803e-27
4.57332e-27
1.59025e-27
1.41071e-27
8.15091e-28
1.43122e-27
5.07786e-27
3.43427e-30
1.09413e-27
3.5907e-29
9.10004e-28
3.26726e-28
4.41679e-28
1.52049e-27
4.18337e-28
1.2467e-29
5.19109e-24
1.01469e-23
5.9414e-25
1.8713e-26
2.19928e-27
2.33469e-28
1.4963e-27
1.34184e-28
4.58132e-28
2.39384e-28
4.71587e-28
1.65848e-27
1.71369e-27
6.78454e-27
1.18343e-27
2.11839e-28
1.2022e-30
5.86136e-30
1.73656e-27
7.08113e-29
1.45756e-23
1.20275e-23
7.75269e-25
1.92827e-26
4.95399e-27
1.04786e-29
8.30717e-28
2.33418e-28
2.64697e-27
2.9585e-27
6.41743e-27
2.89657e-27
8.26391e-27
5.83255e-27
5.28175e-27
7.87732e-28
3.1193e-28
1.57164e-28
2.54446e-31
5.5141e-28
7.49565e-26
5.09911e-28
7.34521e-28
4.37003e-28
2.35212e-27
1.60361e-27
1.65211e-27
1.07859e-27
9.67885e-30
1.51287e-27
9.8962e-28
6.35125e-32
2.03611e-27
1.58974e-27
7.96806e-30
1.17765e-30
1.89554e-29
2.29194e-29
5.40533e-32
1.567e-28
2.15234e-23
2.34359e-23
1.51685e-24
3.45657e-26
1.45227e-26
3.82994e-27
4.10508e-27
1.0779e-27
9.47866e-27
1.11531e-27
7.49362e-28
3.59281e-27
6.68825e-27
2.94409e-27
5.93145e-27
2.26496e-27
1.42825e-27
8.8366e-29
6.46978e-30
4.19169e-28
3.73351e-23
4.47311e-23
2.51152e-24
9.61557e-26
1.08286e-26
4.70741e-28
1.6337e-27
7.31478e-27
4.26485e-27
1.34359e-28
4.08736e-29
5.06429e-28
4.24157e-27
3.98075e-27
1.75217e-27
1.72852e-27
1.47785e-27
9.00206e-29
6.85207e-28
6.17251e-32
2.71174e-23
2.63954e-23
1.46899e-24
4.99885e-26
8.01567e-27
4.07608e-29
2.35094e-28
8.56521e-30
1.60154e-29
5.44827e-29
3.91876e-28
1.69352e-28
9.65607e-28
9.15499e-30
1.09783e-27
3.98393e-29
4.0065e-30
1.63676e-28
9.45208e-30
1.45477e-28
6.96296e-24
2.92462e-24
2.07828e-25
1.72598e-27
8.71988e-28
1.47807e-27
6.50861e-27
2.04159e-28
8.4488e-28
8.86591e-27
2.38434e-27
1.046e-27
5.68827e-31
5.19767e-32
1.47615e-28
1.54543e-28
3.66358e-29
5.37135e-27
7.02349e-28
7.49864e-31
2.89284e-24
3.38076e-24
1.68237e-25
1.07569e-26
7.27013e-27
2.68453e-29
1.59735e-27
1.04546e-28
1.88727e-27
1.60161e-29
1.73252e-27
1.73349e-27
2.08999e-27
4.69567e-30
2.25472e-27
1.02852e-30
1.55166e-29
3.80571e-29
3.7456e-30
1.2737e-29
1.60602e-23
1.37069e-23
7.60887e-25
3.02804e-26
5.00703e-27
1.45072e-28
1.76081e-29
5.02122e-30
3.22255e-28
3.87188e-27
1.03036e-27
1.30885e-27
2.92746e-27
1.1173e-27
1.04888e-27
2.5928e-28
9.79653e-32
4.97328e-27
3.96103e-28
1.23344e-28
1.57904e-23
2.16153e-23
1.24492e-24
4.64202e-26
9.09343e-27
8.96912e-28
1.45869e-27
1.64324e-27
8.52475e-28
4.64682e-28
5.20456e-29
2.43826e-28
1.18337e-27
6.69775e-28
9.8963e-27
2.13635e-27
8.6599e-28
1.99465e-28
4.02214e-28
1.76024e-28
5.6093e-24
1.38971e-23
8.99917e-25
7.01944e-26
1.28491e-27
1.24627e-27
2.68581e-27
1.82295e-27
1.53713e-27
1.65096e-27
8.48291e-30
3.13863e-29
4.69347e-28
1.34741e-27
1.58416e-27
4.11994e-27
1.80976e-27
2.86713e-29
1.26768e-29
3.04805e-30
2.72001e-28
1.37501e-26
7.33269e-28
1.55873e-27
1.70355e-27
2.47913e-29
1.81984e-27
2.08846e-29
4.04121e-29
1.38057e-29
2.50366e-27
1.54283e-27
9.27041e-29
4.36839e-27
3.47171e-28
1.84001e-28
2.08019e-28
3.72852e-28
8.2306e-30
2.90454e-28
3.97568e-24
2.17161e-23
1.3595e-24
7.96094e-26
1.20445e-28
1.10198e-27
2.35412e-27
7.67536e-31
1.98466e-29
2.35058e-27
3.20692e-27
4.95869e-27
2.03294e-27
2.08341e-29
4.97611e-27
6.33128e-28
4.90694e-28
2.66408e-29
6.6148e-29
1.70413e-30
3.08415e-24
8.90652e-24
5.19137e-25
2.88021e-26
1.27905e-27
4.15989e-27
1.41237e-27
1.69521e-27
7.48869e-27
3.07216e-27
3.03122e-27
2.84583e-28
6.10005e-28
4.39146e-28
2.13651e-27
5.64124e-29
2.90683e-27
2.43622e-28
6.54472e-28
2.27578e-30
5.95516e-24
1.30158e-23
5.56498e-25
4.32799e-26
4.02389e-30
2.11684e-27
1.06817e-27
8.92279e-28
1.04834e-27
1.13393e-27
1.4721e-27
2.30737e-27
1.05263e-28
3.14622e-28
1.70977e-28
5.36704e-28
5.77747e-28
7.54003e-31
2.35647e-28
4.89398e-28
)
;

boundaryField
{
    movingWall
    {
        type            calculated;
        value           nonuniform List<scalar> 
20
(
3.40608e-23
2.18746e-23
4.33902e-25
1.19634e-25
3.22111e-26
5.17516e-26
6.03024e-26
9.33652e-26
6.01528e-26
6.079e-26
2.46631e-26
3.92491e-26
5.33827e-27
3.7669e-27
2.47286e-27
4.46283e-27
2.353e-27
4.05413e-27
3.47962e-27
4.32436e-27
)
;
    }
    fixedWalls
    {
        type            calculated;
        value           nonuniform List<scalar> 
60
(
5.95123e-22
2.83579e-23
2.58585e-22
2.61715e-24
8.32005e-23
1.9148e-22
2.41927e-22
6.5573e-27
4.41525e-22
8.23391e-22
4.81064e-22
6.12242e-23
5.89609e-23
2.55219e-22
3.98712e-22
2.60937e-22
1.28066e-25
4.03549e-22
1.73635e-22
2.23989e-22
1.14209e-28
4.38799e-28
1.50042e-28
4.24265e-29
1.49618e-29
3.70476e-28
1.30741e-27
2.4846e-29
3.7473e-28
1.3729e-29
5.54547e-28
3.37915e-28
1.27639e-30
2.06166e-28
2.77101e-29
5.24502e-30
1.65007e-28
1.93228e-30
5.0721e-30
6.70516e-28
3.63179e-23
4.60702e-23
6.81956e-25
3.62287e-25
3.66168e-26
6.75046e-26
4.48632e-26
5.2045e-26
1.92291e-26
2.37184e-26
2.20331e-26
3.93826e-27
4.47843e-27
4.46186e-27
1.3342e-27
4.29222e-27
2.9786e-27
2.95125e-27
4.54999e-27
1.78718e-27
)
;
    }
    frontAndBack
    {
        type            empty;
    }
}


// ************************************************************************* //
