/*--------------------------------*- C++ -*----------------------------------*\
| =========                 |                                                 |
| \\      /  F ield         | OpenFOAM: The Open Source CFD Toolbox           |
|  \\    /   O peration     | Version:  2312                                  |
|   \\  /    A nd           | Website:  www.openfoam.com                      |
|    \\/     M anipulation  |                                                 |
\*---------------------------------------------------------------------------*/
FoamFile
{
    version     2.0;
    format      ascii;
    arch        "LSB;label=32;scalar=64";
    class       volScalarField;
    location    "8.625";
    object      flowTypeField;
}
// * * * * * * * * * * * * * * * * * * * * * * * * * * * * * * * * * * * * * //

dimensions      [0 0 0 0 0 0 0];

internalField   nonuniform List<scalar> 
400
(
0.453594
0.0335527
0.0976916
-0.164568
0.658789
-0.414756
0.561775
-0.0429113
0.254829
0.167193
0.623737
0.142015
0.504325
0.754805
0.137628
0.805231
0.190945
0.27466
0.210106
0.472806
0.937986
0.562453
0.403051
0.874207
0.149871
0.242843
0.0405107
0.375961
-0.322954
-0.133934
-0.0415404
-0.229759
0.922333
0.938412
0.0160076
0.0249316
-0.0684728
-0.125483
0.432781
0.000574261
0.573197
0.13039
0.0332198
5.80942e-05
0.0840694
0.110213
-0.5461
-0.233283
-0.441442
0.184826
0.781495
-0.257064
0.199575
0.156647
-0.0126812
0.821778
0.286526
-0.0733157
0.489352
0.725029
0.992225
0.774273
0.843326
0.85643
0.169894
0.327139
-0.420563
0.0716816
0.84166
0.173423
0.927022
0.142354
-0.170412
-0.125614
0.00332893
0.526066
0.664258
-0.356261
-0.220463
0.078541
0.755628
0.177891
0.294095
-0.328795
0.445199
-0.0988285
0.0763102
0.288286
0.253066
0.126973
-0.14404
0.94475
0.136767
0.367669
0.338453
0.646708
0.217592
-0.0155375
-0.00712292
0.864768
0.227229
0.071074
0.00704862
0.1338
0.233286
0.57959
0.0325136
0.432482
0.203548
0.588658
0.448588
-0.0510539
-0.0477178
-0.0545866
0.103516
0.352077
0.903712
0.241691
-0.0835273
0.0627871
0.191023
0.0386145
-0.240018
0.260276
-0.0680245
0.810808
0.278318
0.345687
0.10598
0.102507
-0.0446067
-0.389776
-0.184245
0.0328498
0.0804265
-0.445458
0.332909
0.400807
0.929818
0.134852
0.957037
0.983685
0.920666
0.835136
0.0074199
-0.522777
0.0313947
0.149187
0.876905
0.25657
0.2075
0.973247
-0.157511
0.258508
0.212817
0.901626
0.855429
0.38161
0.500613
0.349213
0.38565
0.0467393
-0.123114
0.303954
-0.191739
-0.0731726
-0.0455385
0.141754
0.00899348
0.15931
0.282383
0.0201809
-0.0656822
0.303075
0.00333508
-0.212743
0.140058
0.496879
0.220921
-0.0378106
-0.097963
0.00164205
-0.120979
0.0596525
-0.563004
0.431301
-0.0457867
-0.111366
-0.13377
0.0351722
0.675352
0.193273
-0.0639716
-0.0830501
-0.0809403
0.0354849
0.111172
0.115591
-0.295632
0.842601
0.223098
-0.00584119
-0.102848
0.0381171
-0.200778
0.622564
0.40685
0.884527
0.858766
0.599241
0.140549
0.460321
0.274652
0.782806
0.134357
0.401578
0.94304
0.64066
0.556515
0.64355
0.583622
0.218832
0.0430647
0.659414
0.06876
0.271223
-0.0391139
0.0221742
0.238945
-0.180986
-0.216346
0.235979
0.0649223
0.551938
0.0655456
0.0191749
0.626117
-0.189789
-0.174823
0.931977
0.642639
0.188132
0.11589
0.339338
-0.12989
0.103313
-0.0377599
0.679501
-0.0657676
0.849492
0.223217
-0.0848153
-0.051799
0.855878
-0.0215987
0.598925
0.626968
0.066713
0.807658
0.866424
0.0933727
-0.0152515
-0.142506
0.0622497
-0.61082
0.414872
0.714102
0.0439776
0.336909
-0.0473782
0.176671
0.301761
-0.328672
0.0662356
0.229459
0.38225
0.810949
-0.149138
0.256197
0.542967
-0.00884171
0.0169011
-0.0925991
0.0846883
-0.47449
0.218492
0.00902966
-0.0443162
0.0501835
-0.0639634
0.579959
0.679288
0.22231
-0.186311
-0.11778
0.146067
0.423383
0.261337
0.0343772
0.302168
0.559974
0.11304
-0.0211519
-0.114819
0.116673
0.081294
-0.346124
0.0089039
0.0961476
0.259652
0.512617
0.0402063
0.667246
0.145575
-0.0267958
-0.022465
0.207021
0.025449
0.192987
0.555528
0.997586
0.933389
0.939747
0.567515
0.0023633
0.877002
-0.0909239
0.88578
0.471697
0.434601
-0.301399
0.0405051
0.790386
-0.0667756
0.282207
0.297805
0.312635
0.504802
0.00238806
0.108029
0.616059
0.13478
0.0242373
0.011369
0.771586
0.216962
-0.224014
0.840155
0.728248
-0.0893624
-0.381959
0.0396443
-0.135666
0.74337
-0.149243
-0.220756
0.176382
0.21514
0.730016
0.936148
0.778193
0.26088
0.193168
0.184225
0.193027
0.158643
0.0358697
-0.0234225
-0.0656385
-0.317985
0.0462145
0.546449
0.371224
0.00330075
-0.19294
0.766676
-0.369534
0.21501
-0.313416
0.3015
0.642033
0.11184
0.16053
0.0230593
0.942438
-0.127998
0.244113
0.230271
0.153333
0.212409
0.185199
0.188906
0.503056
0.0736213
0.167817
0.464614
0.512467
0.952197
0.579078
0.432975
)
;

boundaryField
{
    movingWall
    {
        type            calculated;
        value           nonuniform List<scalar> 
20
(
0.581722
0.0815844
0.379613
-0.162916
0.191523
-0.0339724
0.0252281
0.0278027
0.0312999
0.0316793
0.0530668
-0.0102339
-0.0854897
0.0241656
0.230795
0.223282
0.318323
0.131994
0.186088
0.105007
)
;
    }
    fixedWalls
    {
        type            calculated;
        value           nonuniform List<scalar> 
60
(
0.0580734
0.523322
0.115848
0.774757
0.19999
0.0386478
-0.0164123
0.98824
0.032057
-0.0179988
-0.0188048
0.210864
0.234322
-0.0374775
-0.00328535
0.0972703
0.954237
0.118255
0.244307
0.137723
0.61893
0.000169714
0.117077
0.0437873
0.408259
0.0137685
0.102135
0.724789
0.424931
0.388609
0.590957
0.507297
0.96465
0.549926
0.707613
0.483195
0.321433
0.958565
0.202333
0.547403
0.707554
0.131286
0.488618
-0.309555
0.267658
-0.0310434
0.0597194
-0.0064001
-0.0462125
0.0261203
0.072226
0.138655
0.0154597
0.0162076
-0.102085
0.00457004
0.130081
0.204082
0.0794114
-0.0629419
)
;
    }
    frontAndBack
    {
        type            empty;
    }
}


// ************************************************************************* //
