/*--------------------------------*- C++ -*----------------------------------*\
| =========                 |                                                 |
| \\      /  F ield         | OpenFOAM: The Open Source CFD Toolbox           |
|  \\    /   O peration     | Version:  2312                                  |
|   \\  /    A nd           | Website:  www.openfoam.com                      |
|    \\/     M anipulation  |                                                 |
\*---------------------------------------------------------------------------*/
FoamFile
{
    version     2.0;
    format      ascii;
    arch        "LSB;label=32;scalar=64";
    class       surfaceScalarField;
    location    "8.625";
    object      fluxField;
}
// * * * * * * * * * * * * * * * * * * * * * * * * * * * * * * * * * * * * * //

dimensions      [0 3 -1 0 0 0 0];

oriented        oriented;

internalField   nonuniform List<scalar> 
760
(
-5e-05
2.72858e-18
-5e-05
-5.40214e-19
-5e-05
1.44449e-19
-5e-05
-1.82055e-20
-5e-05
1.03642e-20
-5e-05
9.25005e-22
-5e-05
2.36703e-21
-5e-05
3.48325e-21
-5e-05
6.35386e-22
-5e-05
1.33844e-21
-5e-05
6.54883e-21
-5e-05
5.16218e-21
-5e-05
3.21768e-21
-5e-05
3.96584e-21
-5e-05
1.66821e-21
-5e-05
-2.6737e-21
-5e-05
-2.30149e-21
-5e-05
3.17737e-21
-5e-05
5.03296e-21
2.79611e-21
-5e-05
-1.05399e-18
-5e-05
2.6508e-19
-5e-05
-3.89573e-20
-5e-05
1.95644e-20
-5e-05
2.76731e-21
-5e-05
2.18105e-21
-5e-05
-2.60213e-21
-5e-05
-3.39454e-21
-5e-05
1.87644e-21
-5e-05
5.1396e-21
-5e-05
8.90118e-21
-5e-05
3.35524e-21
-5e-05
-1.07619e-23
-5e-05
2.83531e-21
-5e-05
7.74168e-22
-5e-05
-2.58885e-21
-5e-05
-1.36803e-21
-5e-05
1.57722e-22
-5e-05
1.45292e-21
2.9342e-21
-5e-05
-1.41895e-18
-5e-05
3.22003e-19
-5e-05
-6.63106e-20
-5e-05
1.87655e-20
-5e-05
4.14492e-21
-5e-05
6.69274e-21
-5e-05
-4.18042e-22
-5e-05
-4.44307e-21
-5e-05
1.82364e-21
-5e-05
1.31807e-21
-5e-05
1.08684e-21
-5e-05
-2.22121e-21
-5e-05
-1.11135e-21
-5e-05
2.1402e-21
-5e-05
4.41284e-21
-5e-05
4.81892e-21
-5e-05
4.79213e-21
-5e-05
8.22169e-22
-5e-05
-1.73355e-21
5.0696e-22
-5e-05
1.07966e-18
-5e-05
-2.18418e-19
-5e-05
6.07451e-20
-5e-05
-7.90142e-21
-5e-05
6.51853e-21
-5e-05
2.39124e-21
-5e-05
-1.21175e-21
-5e-05
-3.98689e-21
-5e-05
-1.96518e-21
-5e-05
-8.28067e-22
-5e-05
-4.69739e-21
-5e-05
-6.65564e-21
-5e-05
-1.98701e-21
-5e-05
3.42861e-22
-5e-05
4.73327e-21
-5e-05
6.50525e-21
-5e-05
4.62924e-21
-5e-05
2.05019e-21
-5e-05
-1.46714e-22
-2.33833e-22
-5e-05
-3.62648e-19
-5e-05
9.96143e-20
-5e-05
-5.298e-21
-5e-05
9.61976e-21
-5e-05
-8.12411e-22
-5e-05
5.44577e-23
-5e-05
1.00904e-21
-5e-05
-3.68372e-22
-5e-05
-2.81316e-21
-5e-05
2.29907e-21
-5e-05
-1.33001e-21
-5e-05
-3.46755e-21
-5e-05
-2.83096e-21
-5e-05
-2.69318e-21
-5e-05
-2.72892e-21
-5e-05
1.58387e-21
-5e-05
2.80252e-21
-5e-05
1.31745e-21
-5e-05
2.18032e-21
2.04317e-21
-5e-05
3.82033e-20
-5e-05
5.20491e-20
-5e-05
1.28098e-20
-5e-05
1.6291e-20
-5e-05
5.30287e-21
-5e-05
4.2665e-21
-5e-05
5.07327e-21
-5e-05
1.02777e-21
-5e-05
-4.42381e-21
-5e-05
-1.90236e-21
-5e-05
-4.21603e-21
-5e-05
-1.58619e-21
-5e-05
4.13863e-22
-5e-05
2.36547e-21
-5e-05
-1.70645e-21
-5e-05
2.34504e-21
-5e-05
6.58617e-21
-5e-05
2.20073e-21
-5e-05
1.29788e-21
3.20317e-21
-5e-05
1.32189e-18
-5e-05
-2.51854e-19
-5e-05
8.34018e-20
-5e-05
2.43204e-21
-5e-05
1.33632e-20
-5e-05
3.39361e-21
-5e-05
3.49569e-22
-5e-05
-7.86801e-22
-5e-05
-3.11086e-21
-5e-05
-4.02567e-21
-5e-05
-4.40829e-21
-5e-05
-3.77608e-22
-5e-05
9.78259e-22
-5e-05
2.25654e-21
-5e-05
3.30305e-22
-5e-05
1.8442e-21
-5e-05
3.86075e-21
-5e-05
2.85153e-21
-5e-05
1.12103e-21
2.75538e-21
-5e-05
-1.78141e-18
-5e-05
3.76397e-19
-5e-05
-7.54014e-20
-5e-05
2.62445e-20
-5e-05
3.26862e-21
-5e-05
3.72193e-22
-5e-05
-5.66457e-21
-5e-05
-2.76955e-21
-5e-05
-1.77856e-21
-5e-05
-4.40957e-21
-5e-05
-2.32521e-22
-5e-05
1.89498e-21
-5e-05
-1.18484e-21
-5e-05
-2.31512e-21
-5e-05
-5.83854e-22
-5e-05
-1.4413e-21
-5e-05
-3.47382e-21
-5e-05
2.8895e-22
-5e-05
1.5423e-21
1.27044e-21
-5e-05
6.87495e-19
-5e-05
-1.33567e-19
-5e-05
3.44596e-20
-5e-05
-1.92517e-21
-5e-05
4.11092e-21
-5e-05
-9.64671e-22
-5e-05
-3.3221e-21
-5e-05
-2.55059e-21
-5e-05
1.75587e-21
-5e-05
-3.30359e-22
-5e-05
-5.9711e-22
-5e-05
-9.72081e-22
-5e-05
-2.80229e-22
-5e-05
-8.40281e-23
-5e-05
2.84296e-21
-5e-05
1.03864e-21
-5e-05
7.15937e-22
-5e-05
1.26867e-21
-5e-05
6.84965e-22
-3.10551e-22
-5e-05
6.4847e-19
-5e-05
-1.25992e-19
-5e-05
3.93062e-20
-5e-05
-9.78346e-22
-5e-05
1.94448e-21
-5e-05
-2.61738e-21
-5e-05
-1.67992e-21
-5e-05
-5.24307e-22
-5e-05
2.48792e-21
-5e-05
8.21113e-22
-5e-05
-4.2199e-21
-5e-05
-3.91743e-21
-5e-05
1.56118e-21
-5e-05
2.98991e-21
-5e-05
4.60896e-21
-5e-05
2.39873e-21
-5e-05
3.52401e-21
-5e-05
3.14548e-21
-5e-05
2.42256e-21
1.75394e-21
-5e-05
-1.26397e-18
-5e-05
2.88039e-19
-5e-05
-5.21713e-20
-5e-05
2.07042e-20
-5e-05
-1.36435e-21
-5e-05
-5.09305e-22
-5e-05
9.32964e-22
-5e-05
2.26421e-21
-5e-05
-3.08403e-21
-5e-05
-2.42654e-21
-5e-05
4.91482e-22
-5e-05
1.06223e-21
-5e-05
2.97456e-21
-5e-05
5.00571e-21
-5e-05
4.12492e-21
-5e-05
-1.12789e-21
-5e-05
-2.50186e-21
-5e-05
1.71977e-21
-5e-05
5.33414e-21
5.4003e-21
-5e-05
1.23478e-18
-5e-05
-2.42605e-19
-5e-05
6.13883e-20
-5e-05
-1.09498e-20
-5e-05
3.25476e-21
-5e-05
2.53116e-21
-5e-05
5.12669e-21
-5e-05
3.37148e-21
-5e-05
-3.54002e-21
-5e-05
-1.71117e-21
-5e-05
4.06008e-21
-5e-05
3.16386e-21
-5e-05
3.10989e-21
-5e-05
5.50786e-21
-5e-05
2.42436e-21
-5e-05
-2.02325e-21
-5e-05
-1.61228e-21
-5e-05
1.50941e-21
-5e-05
1.78959e-21
3.41872e-21
-5e-05
-6.58817e-19
-5e-05
1.41436e-19
-5e-05
-3.38158e-20
-5e-05
5.15648e-21
-5e-05
-2.18573e-21
-5e-05
3.5084e-21
-5e-05
3.90452e-21
-5e-05
1.44693e-21
-5e-05
1.08177e-21
-5e-05
6.95945e-23
-5e-05
8.25832e-22
-5e-05
3.43699e-21
-5e-05
2.75523e-21
-5e-05
4.70795e-22
-5e-05
-3.05254e-21
-5e-05
-6.62582e-22
-5e-05
2.999e-21
-5e-05
6.19444e-22
-5e-05
-3.78639e-21
-3.25083e-22
-5e-05
4.39262e-19
-5e-05
-1.05623e-19
-5e-05
2.31519e-20
-5e-05
-5.99038e-21
-5e-05
1.72412e-21
-5e-05
2.70672e-21
-5e-05
3.01839e-21
-5e-05
1.17379e-21
-5e-05
4.59006e-21
-5e-05
5.14975e-21
-5e-05
3.7643e-21
-5e-05
4.80288e-21
-5e-05
-9.94736e-22
-5e-05
-6.15997e-21
-5e-05
-3.66268e-21
-5e-05
4.0087e-21
-5e-05
4.81927e-21
-5e-05
7.49772e-22
-5e-05
-1.568e-21
8.03844e-22
-5e-05
2.4396e-19
-5e-05
-4.90869e-20
-5e-05
6.30796e-21
-5e-05
-3.5536e-21
-5e-05
3.47614e-21
-5e-05
3.93518e-21
-5e-05
1.5832e-21
-5e-05
-8.84491e-22
-5e-05
8.19821e-22
-5e-05
2.971e-21
-5e-05
2.47799e-21
-5e-05
1.45011e-21
-5e-05
-1.062e-21
-5e-05
-3.05264e-21
-5e-05
7.37085e-22
-5e-05
4.4944e-21
-5e-05
1.16141e-21
-5e-05
-1.41946e-22
-5e-05
1.27157e-21
1.43121e-21
-5e-05
-1.55259e-18
-5e-05
3.3671e-19
-5e-05
-7.79291e-20
-5e-05
1.88464e-20
-5e-05
1.78359e-21
-5e-05
5.13295e-21
-5e-05
1.09441e-21
-5e-05
-1.16728e-21
-5e-05
-2.06412e-21
-5e-05
-3.10585e-21
-5e-05
6.2606e-23
-5e-05
2.06197e-21
-5e-05
2.37799e-21
-5e-05
-4.58885e-22
-5e-05
-1.23552e-21
-5e-05
-7.89669e-22
-5e-05
-1.61975e-21
-5e-05
-6.00748e-22
-5e-05
2.2275e-22
-3.56247e-22
-5e-05
1.95064e-18
-5e-05
-4.24811e-19
-5e-05
1.0735e-19
-5e-05
-1.53737e-20
-5e-05
7.18862e-21
-5e-05
1.01888e-21
-5e-05
3.61231e-21
-5e-05
3.09059e-21
-5e-05
2.30633e-21
-5e-05
-7.32032e-22
-5e-05
3.12535e-23
-5e-05
-3.06304e-21
-5e-05
-4.2018e-21
-5e-05
-4.07861e-21
-5e-05
-2.0782e-21
-5e-05
7.2148e-22
-5e-05
2.02207e-21
-5e-05
3.454e-21
-5e-05
1.46591e-22
-4.35808e-22
-5e-05
7.31173e-19
-5e-05
-1.66007e-19
-5e-05
3.70907e-20
-5e-05
-1.73555e-21
-5e-05
4.11354e-21
-5e-05
3.05272e-21
-5e-05
6.59945e-21
-5e-05
6.91977e-21
-5e-05
5.90491e-21
-5e-05
1.85424e-21
-5e-05
-3.72773e-21
-5e-05
-1.05277e-20
-5e-05
-7.48347e-21
-5e-05
-3.31883e-21
-5e-05
-1.68825e-21
-5e-05
-1.49696e-21
-5e-05
3.08709e-21
-5e-05
5.06787e-21
-5e-05
4.37334e-24
-7.61966e-23
-5e-05
-2.63662e-18
-5e-05
5.56621e-19
-5e-05
-1.36544e-19
-5e-05
3.13589e-20
-5e-05
-2.98921e-21
-5e-05
4.4527e-21
-5e-05
4.02681e-21
-5e-05
2.72078e-21
-5e-05
3.10018e-23
-5e-05
-2.87481e-21
-5e-05
-7.65992e-21
-5e-05
-8.77514e-21
-5e-05
-3.4175e-21
-5e-05
-3.27394e-22
-5e-05
-3.28985e-21
-5e-05
-7.73995e-21
-5e-05
7.80087e-22
-5e-05
2.82376e-21
-5e-05
-7.84773e-22
-7.93752e-22
-5e-05
-5e-05
-5e-05
-5e-05
-5e-05
-5e-05
-5e-05
-5e-05
-5e-05
-5e-05
-5e-05
-5e-05
-5e-05
-5e-05
-5e-05
-5e-05
-5e-05
-5e-05
-5e-05
)
;

boundaryField
{
    movingWall
    {
        type            calculated;
        value           uniform -0;
    }
    fixedWalls
    {
        type            calculated;
        value           nonuniform List<scalar> 
60
(
5e-05
5e-05
5e-05
5e-05
5e-05
5e-05
5e-05
5e-05
5e-05
5e-05
5e-05
5e-05
5e-05
5e-05
5e-05
5e-05
5e-05
5e-05
5e-05
5e-05
-5e-05
-5e-05
-5e-05
-5e-05
-5e-05
-5e-05
-5e-05
-5e-05
-5e-05
-5e-05
-5e-05
-5e-05
-5e-05
-5e-05
-5e-05
-5e-05
-5e-05
-5e-05
-5e-05
-5e-05
0
0
0
0
0
0
0
0
0
0
0
0
0
0
0
0
0
0
0
0
)
;
    }
    frontAndBack
    {
        type            empty;
        value           nonuniform List<scalar> 0();
    }
}


// ************************************************************************* //
