/*--------------------------------*- C++ -*----------------------------------*\
| =========                 |                                                 |
| \\      /  F ield         | OpenFOAM: The Open Source CFD Toolbox           |
|  \\    /   O peration     | Version:  2312                                  |
|   \\  /    A nd           | Website:  www.openfoam.com                      |
|    \\/     M anipulation  |                                                 |
\*---------------------------------------------------------------------------*/
FoamFile
{
    version     2.0;
    format      ascii;
    arch        "LSB;label=32;scalar=64";
    class       volTensorField;
    location    "8.625";
    object      gradU;
}
// * * * * * * * * * * * * * * * * * * * * * * * * * * * * * * * * * * * * * //

dimensions      [0 0 -1 0 0 0 0];

internalField   nonuniform List<tensor> 
400
(
(-8.13152e-14 6.92394e-12 0 4.87891e-13 1.09143e-11 0 0 0 0)
(5.42101e-13 -8.31112e-12 0 0 -2.16086e-12 0 0 0 0)
(-2.1684e-13 1.74518e-12 0 8.13152e-14 5.77796e-13 0 0 0 0)
(-5.42101e-14 -4.0713e-13 0 8.13152e-14 -7.28219e-14 0 0 0 0)
(0 8.46542e-14 0 5.42101e-14 4.1457e-14 0 0 0 0)
(0 -1.21647e-14 0 2.71051e-14 3.70002e-15 0 0 0 0)
(-2.71051e-14 1.13188e-14 0 0 9.46813e-15 0 0 0 0)
(-2.71051e-14 -1.17673e-14 0 5.42101e-14 1.3933e-14 0 0 0 0)
(-5.42101e-14 -1.84719e-14 0 2.71051e-14 2.54154e-15 0 0 0 0)
(2.71051e-14 4.24477e-15 0 5.42101e-14 5.35375e-15 0 0 0 0)
(-2.71051e-14 1.21252e-14 0 0 2.61953e-14 0 0 0 0)
(-2.71051e-14 6.81189e-17 0 -5.42101e-14 2.06487e-14 0 0 0 0)
(0 -5.82283e-15 0 0 1.28707e-14 0 0 0 0)
(-2.71051e-14 -5.64764e-15 0 0 1.58634e-14 0 0 0 0)
(0 -7.24759e-15 0 -5.42101e-14 6.67285e-15 0 0 0 0)
(2.71051e-14 -3.83442e-15 0 0 -1.06948e-14 0 0 0 0)
(0 1.16349e-14 0 0 -9.20597e-15 0 0 0 0)
(0 1.19902e-14 0 0 1.27095e-14 0 0 0 0)
(-2.71051e-14 -6.57593e-15 0 2.71051e-14 2.01319e-14 0 0 0 0)
(-2.71051e-14 -1.53771e-14 0 0 1.11844e-14 0 0 0 0)
(5.96311e-13 1.82951e-12 0 1.13841e-12 -1.51303e-11 0 0 0 0)
(-9.75782e-13 -2.02539e-12 0 -5.14996e-13 3.22117e-12 0 0 0 0)
(2.71051e-13 3.4285e-13 0 -1.35525e-13 -7.33625e-13 0 0 0 0)
(0 -1.29209e-13 0 -1.0842e-13 1.5108e-13 0 0 0 0)
(0 -8.13225e-15 0 -8.13152e-14 -3.03877e-14 0 0 0 0)
(0 -1.98242e-14 0 -8.13152e-14 5.0242e-15 0 0 0 0)
(0 -1.08587e-15 0 -8.13152e-14 -1.98767e-14 0 0 0 0)
(8.13152e-14 4.84068e-15 0 -5.42101e-14 -2.75111e-14 0 0 0 0)
(0 9.89268e-15 0 -2.71051e-14 4.96421e-15 0 0 0 0)
(-2.71051e-14 1.9409e-14 0 -5.42101e-14 1.52046e-14 0 0 0 0)
(0 3.16978e-15 0 -5.42101e-14 9.40938e-15 0 0 0 0)
(0 -1.33927e-14 0 5.42101e-14 -7.22777e-15 0 0 0 0)
(2.71051e-14 1.03748e-15 0 0 -1.29138e-14 0 0 0 0)
(-2.71051e-14 -5.50228e-16 0 0 -4.52211e-15 0 0 0 0)
(0 -1.93106e-14 0 0 -3.57617e-15 0 0 0 0)
(2.71051e-14 -1.20444e-14 0 2.71051e-14 3.39387e-16 0 0 0 0)
(-2.71051e-14 1.17694e-14 0 -5.42101e-14 3.73386e-15 0 0 0 0)
(2.71051e-14 1.73477e-14 0 -8.13152e-14 -1.20786e-14 0 0 0 0)
(5.42101e-14 5.05091e-15 0 -2.71051e-14 -1.43202e-14 0 0 0 0)
(0 -1.59392e-14 0 0 5.52354e-16 0 0 0 0)
(5.69206e-13 -4.98514e-12 0 -2.79182e-12 -1.45986e-12 0 0 0 0)
(-7.04731e-13 6.08551e-12 0 7.58942e-13 2.27693e-13 0 0 0 0)
(1.89735e-13 -1.32491e-12 0 -2.71051e-14 -1.09413e-13 0 0 0 0)
(0 2.96107e-13 0 0 -3.19576e-15 0 0 0 0)
(2.71051e-14 -6.14012e-14 0 0 5.51042e-15 0 0 0 0)
(-2.71051e-14 -1.65362e-15 0 5.42101e-14 1.80467e-14 0 0 0 0)
(0 -2.12165e-14 0 2.71051e-14 8.73636e-15 0 0 0 0)
(0 1.30736e-14 0 -5.42101e-14 -4.19412e-15 0 0 0 0)
(0 2.42439e-14 0 -5.42101e-14 -2.11181e-16 0 0 0 0)
(-5.42101e-14 8.68995e-15 0 -5.42101e-14 -1.52861e-14 0 0 0 0)
(5.42101e-14 -1.03072e-14 0 0 -3.12574e-14 0 0 0 0)
(0 -2.2255e-14 0 5.42101e-14 -2.23058e-14 0 0 0 0)
(-2.71051e-14 -3.11718e-15 0 2.71051e-14 -4.40233e-15 0 0 0 0)
(2.71051e-14 3.68995e-15 0 5.42101e-14 -2.78045e-15 0 0 0 0)
(0 -2.3861e-15 0 1.0842e-13 1.45547e-14 0 0 0 0)
(0 3.47561e-15 0 0 2.96311e-14 0 0 0 0)
(-5.42101e-14 -7.83078e-16 0 5.42101e-14 2.46406e-14 0 0 0 0)
(0 -6.06386e-15 0 8.13152e-14 2.65779e-15 0 0 0 0)
(0 6.055e-15 0 0 -1.27459e-14 0 0 0 0)
(0 -1.60925e-15 0 0 -9.70896e-15 0 0 0 0)
(-1.49078e-12 5.97347e-13 0 5.42101e-13 9.99446e-12 0 0 0 0)
(1.76183e-12 -6.74947e-13 0 -1.6263e-13 -2.16168e-12 0 0 0 0)
(-4.87891e-13 1.11962e-13 0 2.71051e-14 5.08222e-13 0 0 0 0)
(5.42101e-14 -1.42853e-14 0 -2.71051e-14 -1.06668e-13 0 0 0 0)
(0 1.31102e-14 0 0 9.49445e-15 0 0 0 0)
(0 -1.65982e-14 0 -5.42101e-14 -1.7206e-14 0 0 0 0)
(0 -2.33267e-14 0 5.42101e-14 -3.17484e-15 0 0 0 0)
(0 -4.10686e-15 0 0 1.8247e-15 0 0 0 0)
(0 -1.1993e-15 0 0 -1.51553e-14 0 0 0 0)
(0 -1.16372e-14 0 0 -8.58456e-15 0 0 0 0)
(8.13152e-14 -3.84991e-15 0 0 -2.31369e-14 0 0 0 0)
(5.42101e-14 1.34623e-14 0 -5.42101e-14 -1.77377e-14 0 0 0 0)
(2.71051e-14 2.05628e-14 0 -8.13152e-14 -3.50266e-15 0 0 0 0)
(2.71051e-14 1.84068e-14 0 -1.0842e-13 -7.18936e-15 0 0 0 0)
(-5.42101e-14 1.3101e-14 0 -1.0842e-13 1.28171e-15 0 0 0 0)
(-5.42101e-14 -1.95844e-15 0 -2.71051e-14 6.74531e-15 0 0 0 0)
(5.42101e-14 -1.52039e-14 0 0 -6.51564e-16 0 0 0 0)
(0 -2.00389e-14 0 5.42101e-14 4.9121e-15 0 0 0 0)
(0 -7.31583e-15 0 2.71051e-14 6.34733e-15 0 0 0 0)
(0 6.51559e-15 0 0 -2.96317e-15 0 0 0 0)
(9.48677e-13 2.84763e-12 0 1.54499e-12 -5.76924e-12 0 0 0 0)
(-1.19262e-12 -3.40072e-12 0 -2.98156e-13 1.27213e-12 0 0 0 0)
(2.71051e-13 7.30104e-13 0 1.6263e-13 -2.64172e-13 0 0 0 0)
(-5.42101e-14 -2.02621e-13 0 1.0842e-13 7.00847e-14 0 0 0 0)
(5.42101e-14 2.80604e-14 0 8.13152e-14 -2.93238e-14 0 0 0 0)
(2.71051e-14 -1.43229e-14 0 8.13152e-14 -9.34714e-15 0 0 0 0)
(2.71051e-14 -2.1858e-15 0 5.42101e-14 8.88319e-15 0 0 0 0)
(-5.42101e-14 1.09313e-15 0 5.42101e-14 1.44741e-14 0 0 0 0)
(0 1.38346e-14 0 5.42101e-14 -3.39191e-15 0 0 0 0)
(-2.71051e-14 7.08356e-16 0 5.42101e-14 1.25086e-14 0 0 0 0)
(-2.71051e-14 -1.94604e-14 0 8.13152e-14 1.34695e-14 0 0 0 0)
(-8.13152e-14 -2.62079e-15 0 0 1.27524e-14 0 0 0 0)
(0 7.4312e-15 0 5.42101e-14 -3.37578e-15 0 0 0 0)
(0 8.47432e-15 0 0 -1.21442e-14 0 0 0 0)
(2.71051e-14 1.15486e-14 0 5.42101e-14 -2.98488e-14 0 0 0 0)
(8.13152e-14 1.54234e-15 0 2.71051e-14 -1.96855e-14 0 0 0 0)
(2.71051e-14 -2.61628e-15 0 2.71051e-14 -7.3069e-15 0 0 0 0)
(0 9.35028e-16 0 -5.42101e-14 -2.93097e-15 0 0 0 0)
(0 -1.82028e-15 0 2.71051e-14 9.30812e-15 0 0 0 0)
(-5.42101e-14 -4.9934e-15 0 0 9.108e-15 0 0 0 0)
(-2.1684e-13 -3.89977e-12 0 -6.77626e-13 1.6034e-12 0 0 0 0)
(4.06576e-13 4.83012e-12 0 3.25261e-13 -1.90261e-13 0 0 0 0)
(-1.0842e-13 -1.09008e-12 0 0 7.24312e-14 0 0 0 0)
(-2.71051e-14 2.20563e-13 0 2.71051e-14 2.66849e-14 0 0 0 0)
(-5.42101e-14 -6.63216e-14 0 0 2.44611e-14 0 0 0 0)
(-5.42101e-14 2.16087e-14 0 0 1.68482e-14 0 0 0 0)
(0 4.94481e-16 0 -5.42101e-14 1.62569e-14 0 0 0 0)
(-2.71051e-14 -1.6382e-14 0 0 5.58458e-15 0 0 0 0)
(2.71051e-14 -3.1648e-15 0 2.71051e-14 -6.44261e-15 0 0 0 0)
(5.42101e-14 5.22426e-15 0 2.71051e-14 -1.68057e-14 0 0 0 0)
(5.42101e-14 -3.6061e-15 0 2.71051e-14 -1.15441e-14 0 0 0 0)
(0 -3.38301e-15 0 5.42101e-14 7.52545e-15 0 0 0 0)
(0 -4.33374e-15 0 5.42101e-14 1.29793e-14 0 0 0 0)
(0 -8.06618e-15 0 1.0842e-13 2.02346e-14 0 0 0 0)
(0 5.55964e-15 0 5.42101e-14 4.08987e-15 0 0 0 0)
(-2.71051e-14 2.05834e-14 0 0 3.04469e-15 0 0 0 0)
(-2.71051e-14 1.55062e-15 0 0 1.51346e-14 0 0 0 0)
(0 -3.42384e-15 0 0 3.53312e-15 0 0 0 0)
(0 4.72314e-15 0 -5.42101e-14 -3.52976e-15 0 0 0 0)
(0 -1.19005e-14 0 0 4.64002e-15 0 0 0 0)
(5.96311e-13 4.26077e-12 0 -1.13841e-12 5.13477e-12 0 0 0 0)
(-5.14996e-13 -4.9317e-12 0 -2.71051e-14 -1.21561e-12 0 0 0 0)
(2.71051e-14 9.4705e-13 0 -2.98156e-13 2.82368e-13 0 0 0 0)
(-8.13152e-14 -2.50591e-13 0 -5.42101e-14 -5.54358e-14 0 0 0 0)
(2.71051e-14 1.82237e-14 0 -8.13152e-14 3.22411e-14 0 0 0 0)
(0 -2.25272e-14 0 -2.71051e-14 -3.49159e-15 0 0 0 0)
(0 -1.34494e-14 0 -5.42101e-14 -1.88948e-14 0 0 0 0)
(2.71051e-14 -2.16064e-14 0 0 -7.2583e-15 0 0 0 0)
(0 -8.55573e-15 0 -8.13152e-14 5.25181e-15 0 0 0 0)
(-2.71051e-14 -4.39314e-15 0 -8.13152e-14 -8.49323e-15 0 0 0 0)
(0 4.8708e-15 0 -1.0842e-13 -7.69016e-16 0 0 0 0)
(0 2.19026e-14 0 -5.42101e-14 4.83431e-15 0 0 0 0)
(0 2.01404e-14 0 -1.0842e-13 2.25758e-15 0 0 0 0)
(-2.71051e-14 -4.15086e-16 0 -1.0842e-13 -4.3573e-16 0 0 0 0)
(-2.71051e-14 -5.64135e-15 0 -1.0842e-13 8.14704e-15 0 0 0 0)
(0 1.25871e-14 0 -2.71051e-14 -2.00337e-15 0 0 0 0)
(2.71051e-14 -2.12786e-15 0 -2.71051e-14 -1.09017e-14 0 0 0 0)
(-2.71051e-14 -1.77293e-14 0 0 2.60318e-15 0 0 0 0)
(2.71051e-14 -7.13366e-16 0 0 -7.07404e-16 0 0 0 0)
(-2.71051e-14 -6.10367e-15 0 2.71051e-14 -1.79116e-15 0 0 0 0)
(-1.38236e-12 1.93898e-14 0 4.06576e-13 -1.24132e-11 0 0 0 0)
(1.24683e-12 -2.22755e-14 0 -5.42101e-14 2.513e-12 0 0 0 0)
(-1.6263e-13 7.00921e-14 0 1.0842e-13 -6.35213e-13 0 0 0 0)
(2.1684e-13 -2.95636e-14 0 0 9.52498e-14 0 0 0 0)
(0 -1.43774e-14 0 5.42101e-14 -4.03782e-14 0 0 0 0)
(0 -2.95272e-14 0 2.71051e-14 -1.20857e-14 0 0 0 0)
(0 -3.27222e-15 0 5.42101e-14 -2.40566e-14 0 0 0 0)
(0 7.76465e-15 0 5.42101e-14 -7.93101e-15 0 0 0 0)
(-5.42101e-14 -4.39974e-15 0 0 5.32922e-15 0 0 0 0)
(5.42101e-14 -7.96563e-16 0 5.42101e-14 -1.5356e-15 0 0 0 0)
(0 9.72145e-15 0 5.42101e-14 1.67031e-14 0 0 0 0)
(-5.42101e-14 -3.56406e-16 0 0 9.09036e-15 0 0 0 0)
(0 -9.60378e-15 0 5.42101e-14 -8.65238e-15 0 0 0 0)
(5.42101e-14 -2.17673e-15 0 5.42101e-14 -1.82866e-14 0 0 0 0)
(0 3.99201e-15 0 0 -3.65664e-15 0 0 0 0)
(2.71051e-14 1.5347e-15 0 0 -1.3142e-14 0 0 0 0)
(5.42101e-14 6.15717e-15 0 0 -2.93383e-14 0 0 0 0)
(0 6.77044e-15 0 0 -1.02503e-14 0 0 0 0)
(0 3.28796e-16 0 0 1.68512e-15 0 0 0 0)
(0 -9.40196e-15 0 -2.71051e-14 -5.93978e-15 0 0 0 0)
(9.21572e-13 -5.63944e-12 0 9.21572e-13 9.87561e-12 0 0 0 0)
(-8.13152e-13 6.8463e-12 0 0 -2.03986e-12 0 0 0 0)
(1.0842e-13 -1.4707e-12 0 2.71051e-13 4.39444e-13 0 0 0 0)
(-1.35525e-13 3.44243e-13 0 8.13152e-14 -1.12679e-13 0 0 0 0)
(8.13152e-14 -8.91118e-14 0 8.13152e-14 3.36921e-15 0 0 0 0)
(0 -6.20556e-15 0 8.13152e-14 -5.34745e-15 0 0 0 0)
(-2.71051e-14 -9.29476e-15 0 8.13152e-14 9.36988e-15 0 0 0 0)
(0 7.77942e-15 0 5.42101e-14 8.75852e-16 0 0 0 0)
(-2.71051e-14 -2.16033e-15 0 1.35525e-13 1.41377e-14 0 0 0 0)
(0 6.9807e-15 0 5.42101e-14 1.63168e-14 0 0 0 0)
(0 1.54968e-14 0 5.42101e-14 -1.45836e-15 0 0 0 0)
(2.71051e-14 -3.45285e-15 0 8.13152e-14 -1.14682e-14 0 0 0 0)
(0 -7.23663e-15 0 1.0842e-13 3.61843e-15 0 0 0 0)
(-8.13152e-14 4.58066e-15 0 8.13152e-14 8.92437e-15 0 0 0 0)
(0 -4.96734e-16 0 1.0842e-13 1.37073e-14 0 0 0 0)
(0 -1.30946e-14 0 5.42101e-14 9.91976e-15 0 0 0 0)
(-2.71051e-14 7.63847e-16 0 5.42101e-14 1.6759e-14 0 0 0 0)
(-2.71051e-14 1.32941e-14 0 0 3.91888e-15 0 0 0 0)
(0 3.59716e-15 0 0 -3.42936e-15 0 0 0 0)
(0 -1.84901e-15 0 2.71051e-14 -6.32396e-15 0 0 0 0)
(-4.33681e-13 7.85515e-12 0 -7.86047e-13 -1.56097e-13 0 0 0 0)
(5.42101e-13 -9.45844e-12 0 0 3.02991e-14 0 0 0 0)
(-8.13152e-14 1.99727e-12 0 -2.43945e-13 1.93863e-14 0 0 0 0)
(2.71051e-14 -4.65638e-13 0 -2.71051e-14 3.78729e-15 0 0 0 0)
(0 9.29537e-14 0 -5.42101e-14 -8.66576e-15 0 0 0 0)
(0 -2.35265e-14 0 -5.42101e-14 -6.61084e-15 0 0 0 0)
(0 2.95108e-15 0 -5.42101e-14 6.56873e-15 0 0 0 0)
(0 1.25325e-14 0 -1.0842e-13 8.10514e-15 0 0 0 0)
(0 1.10413e-14 0 -8.13152e-14 2.9282e-15 0 0 0 0)
(0 -1.63926e-14 0 0 4.60589e-15 0 0 0 0)
(0 -1.80636e-14 0 -2.71051e-14 -1.44912e-14 0 0 0 0)
(2.71051e-14 4.72038e-15 0 -2.71051e-14 -1.17814e-14 0 0 0 0)
(-2.71051e-14 1.07888e-14 0 -8.13152e-14 7.36564e-15 0 0 0 0)
(0 7.9121e-15 0 -8.13152e-14 1.22958e-14 0 0 0 0)
(0 4.9874e-15 0 -5.42101e-14 7.064e-15 0 0 0 0)
(-2.71051e-14 4.58647e-15 0 -5.42101e-14 5.44035e-15 0 0 0 0)
(-2.71051e-14 1.56281e-16 0 -5.42101e-14 1.12323e-14 0 0 0 0)
(0 -1.34179e-14 0 0 7.50723e-15 0 0 0 0)
(0 -9.91404e-15 0 2.71051e-14 6.95039e-15 0 0 0 0)
(0 3.51355e-16 0 0 8.25796e-15 0 0 0 0)
(1.35525e-13 -5.76523e-12 0 1.5992e-12 -7.64978e-12 0 0 0 0)
(-2.71051e-13 7.02179e-12 0 -2.43945e-13 1.65613e-12 0 0 0 0)
(1.35525e-13 -1.49721e-12 0 2.1684e-13 -3.6591e-13 0 0 0 0)
(2.71051e-14 3.16191e-13 0 0 8.67302e-14 0 0 0 0)
(-2.71051e-14 -9.95099e-14 0 2.71051e-14 -1.32353e-14 0 0 0 0)
(2.71051e-14 9.02893e-15 0 0 8.4323e-15 0 0 0 0)
(-2.71051e-14 5.42122e-15 0 2.71051e-14 1.04515e-14 0 0 0 0)
(-5.42101e-14 4.13889e-15 0 0 1.11541e-14 0 0 0 0)
(5.42101e-14 -5.65957e-15 0 0 -2.22878e-14 0 0 0 0)
(2.71051e-14 -1.04387e-14 0 0 -1.29906e-14 0 0 0 0)
(0 -8.90531e-16 0 2.71051e-14 1.88455e-14 0 0 0 0)
(-2.71051e-14 1.84039e-14 0 0 1.99186e-14 0 0 0 0)
(-5.42101e-14 1.68405e-14 0 -2.71051e-14 5.65352e-15 0 0 0 0)
(-2.71051e-14 4.27902e-15 0 0 8.06318e-15 0 0 0 0)
(0 -7.35214e-15 0 -5.42101e-14 -1.93616e-15 0 0 0 0)
(0 -8.92628e-15 0 0 -1.41064e-14 0 0 0 0)
(8.13152e-14 2.83072e-15 0 0 -2.41034e-14 0 0 0 0)
(5.42101e-14 9.01217e-15 0 2.71051e-14 -5.70284e-15 0 0 0 0)
(0 4.34789e-15 0 0 1.16463e-14 0 0 0 0)
(-5.42101e-14 -1.70574e-14 0 0 1.45855e-14 0 0 0 0)
(9.21572e-13 1.86149e-12 0 -1.87025e-12 9.995e-12 0 0 0 0)
(-8.67362e-13 -2.17458e-12 0 2.43945e-13 -2.12258e-12 0 0 0 0)
(1.35525e-13 4.27873e-13 0 -2.1684e-13 4.54239e-13 0 0 0 0)
(-1.0842e-13 -1.12963e-13 0 -5.42101e-14 -1.26616e-13 0 0 0 0)
(2.71051e-14 1.46559e-14 0 -2.71051e-14 1.84764e-14 0 0 0 0)
(-5.42101e-14 1.60308e-16 0 -5.42101e-14 1.21619e-14 0 0 0 0)
(0 5.67284e-15 0 -1.0842e-13 1.67749e-14 0 0 0 0)
(0 -2.02069e-14 0 0 4.42909e-15 0 0 0 0)
(0 -1.31034e-14 0 -5.42101e-14 -1.82398e-15 0 0 0 0)
(2.71051e-14 2.47407e-14 0 -1.0842e-13 2.86148e-15 0 0 0 0)
(0 1.48456e-14 0 -5.42101e-14 1.42744e-14 0 0 0 0)
(-2.71051e-14 -8.47162e-15 0 -5.42101e-14 8.40654e-15 0 0 0 0)
(0 -1.06661e-15 0 0 5.41327e-16 0 0 0 0)
(0 3.22418e-16 0 0 2.0086e-15 0 0 0 0)
(0 -1.71822e-14 0 0 -6.80222e-15 0 0 0 0)
(0 -1.75808e-14 0 0 -3.58146e-15 0 0 0 0)
(-2.71051e-14 8.55989e-15 0 0 3.55831e-15 0 0 0 0)
(-2.71051e-14 2.23318e-14 0 -8.13152e-14 -8.41435e-16 0 0 0 0)
(0 1.03743e-14 0 -2.71051e-14 -1.41782e-14 0 0 0 0)
(0 -2.58804e-14 0 -2.71051e-14 -7.92633e-15 0 0 0 0)
(-1.46367e-12 2.10719e-12 0 -2.98156e-13 -7.57437e-12 0 0 0 0)
(1.38236e-12 -2.51898e-12 0 8.13152e-14 1.53616e-12 0 0 0 0)
(-1.89735e-13 4.98748e-13 0 -8.13152e-14 -3.80816e-13 0 0 0 0)
(1.89735e-13 -1.19571e-13 0 2.71051e-14 6.4425e-14 0 0 0 0)
(-5.42101e-14 3.92679e-14 0 -8.13152e-14 -2.1762e-14 0 0 0 0)
(0 7.32739e-15 0 0 3.90895e-15 0 0 0 0)
(0 -2.31156e-15 0 5.42101e-14 -4.88867e-15 0 0 0 0)
(5.42101e-14 -1.446e-14 0 0 -7.69821e-15 0 0 0 0)
(0 -7.22718e-15 0 5.42101e-14 1.84872e-14 0 0 0 0)
(-5.42101e-14 5.6597e-15 0 0 7.12305e-15 0 0 0 0)
(5.42101e-14 4.65453e-15 0 -5.42101e-14 -1.2937e-14 0 0 0 0)
(0 4.67088e-15 0 -5.42101e-14 1.0925e-15 0 0 0 0)
(2.71051e-14 1.04426e-14 0 -5.42101e-14 -1.41864e-15 0 0 0 0)
(-2.71051e-14 -3.06453e-15 0 0 -2.01483e-14 0 0 0 0)
(2.71051e-14 -1.29422e-14 0 5.42101e-14 -2.19076e-14 0 0 0 0)
(0 1.43424e-15 0 0 5.44268e-15 0 0 0 0)
(0 5.57075e-15 0 0 1.84451e-14 0 0 0 0)
(0 -8.72435e-15 0 0 -3.55985e-15 0 0 0 0)
(0 -2.737e-15 0 0 -2.23039e-14 0 0 0 0)
(5.42101e-14 5.04718e-15 0 0 -1.49752e-14 0 0 0 0)
(6.77626e-13 -4.17671e-12 0 1.49078e-12 4.39231e-12 0 0 0 0)
(-6.23416e-13 5.01898e-12 0 -2.1684e-13 -9.88236e-13 0 0 0 0)
(1.0842e-13 -1.04387e-12 0 1.89735e-13 2.27871e-13 0 0 0 0)
(-8.13152e-14 2.46091e-13 0 0 -4.45874e-14 0 0 0 0)
(0 -4.58602e-14 0 5.42101e-14 1.56394e-14 0 0 0 0)
(2.71051e-14 1.70336e-14 0 0 -3.2067e-15 0 0 0 0)
(-2.71051e-14 -5.93432e-15 0 0 -3.54454e-15 0 0 0 0)
(0 3.16898e-15 0 0 -1.09255e-15 0 0 0 0)
(-2.71051e-14 1.71785e-15 0 2.71051e-14 1.40331e-14 0 0 0 0)
(0 -6.68346e-15 0 8.13152e-14 2.03206e-14 0 0 0 0)
(0 8.81504e-15 0 5.42101e-14 1.17539e-14 0 0 0 0)
(-5.42101e-14 3.04672e-15 0 5.42101e-14 5.46358e-15 0 0 0 0)
(0 -2.23074e-14 0 5.42101e-14 -1.49999e-14 0 0 0 0)
(2.71051e-14 -2.01666e-14 0 2.71051e-14 -2.65231e-14 0 0 0 0)
(2.71051e-14 8.40869e-15 0 5.42101e-14 -2.44054e-15 0 0 0 0)
(-2.71051e-14 2.27719e-14 0 0 1.86851e-14 0 0 0 0)
(0 -4.4264e-16 0 0 7.28107e-15 0 0 0 0)
(2.71051e-14 -1.84172e-14 0 8.13152e-14 5.21312e-16 0 0 0 0)
(-2.71051e-14 -1.04111e-15 0 2.71051e-14 8.87358e-15 0 0 0 0)
(-2.71051e-14 1.13987e-14 0 2.71051e-14 4.51571e-15 0 0 0 0)
(-1.89735e-13 5.51127e-12 0 -1.0842e-13 -7.81208e-13 0 0 0 0)
(1.0842e-13 -6.68342e-12 0 -1.0842e-13 2.26144e-13 0 0 0 0)
(0 1.4424e-12 0 -1.35525e-13 -6.73757e-14 0 0 0 0)
(2.71051e-14 -3.31802e-13 0 -2.71051e-14 9.74709e-15 0 0 0 0)
(-2.71051e-14 8.06486e-14 0 -5.42101e-14 7.00809e-15 0 0 0 0)
(0 -1.18565e-14 0 -5.42101e-14 4.91383e-15 0 0 0 0)
(0 -1.97408e-16 0 -5.42101e-14 -5.74074e-15 0 0 0 0)
(0 3.1177e-15 0 -5.42101e-14 -8.23313e-15 0 0 0 0)
(2.71051e-14 1.4186e-14 0 -2.71051e-14 -1.50809e-14 0 0 0 0)
(0 3.38043e-15 0 -2.71051e-14 -8.71501e-15 0 0 0 0)
(-2.71051e-14 -1.02025e-14 0 0 -5.14525e-15 0 0 0 0)
(8.13152e-14 -2.20829e-14 0 0 -1.34111e-14 0 0 0 0)
(5.42101e-14 -2.15441e-14 0 2.71051e-14 -2.69045e-16 0 0 0 0)
(0 9.4948e-15 0 -2.71051e-14 1.24293e-14 0 0 0 0)
(-5.42101e-14 3.2266e-14 0 -1.0842e-13 1.7599e-14 0 0 0 0)
(-5.42101e-14 1.11558e-14 0 -5.42101e-14 1.94282e-15 0 0 0 0)
(5.42101e-14 -1.25931e-14 0 -5.42101e-14 -1.46315e-14 0 0 0 0)
(0 -7.13184e-15 0 -2.71051e-14 -3.56687e-15 0 0 0 0)
(0 1.25739e-15 0 -2.71051e-14 1.13583e-14 0 0 0 0)
(0 -8.3421e-15 0 -2.71051e-14 2.50948e-15 0 0 0 0)
(4.33681e-13 -4.73178e-12 0 -1.38236e-12 -7.1862e-12 0 0 0 0)
(-5.69206e-13 5.73281e-12 0 4.60786e-13 1.54319e-12 0 0 0 0)
(1.35525e-13 -1.26026e-12 0 8.13152e-14 -3.36948e-13 0 0 0 0)
(2.71051e-14 3.20475e-13 0 -5.42101e-14 8.95999e-14 0 0 0 0)
(-2.71051e-14 -5.06934e-14 0 0 -6.77021e-15 0 0 0 0)
(0 4.28478e-15 0 5.42101e-14 4.79108e-15 0 0 0 0)
(0 -1.90813e-14 0 5.42101e-14 -1.95515e-15 0 0 0 0)
(2.71051e-14 -6.17122e-15 0 5.42101e-14 -1.13115e-15 0 0 0 0)
(-2.71051e-14 1.23596e-15 0 -5.42101e-14 -1.15358e-14 0 0 0 0)
(5.42101e-14 3.25224e-15 0 -5.42101e-14 -2.43074e-14 0 0 0 0)
(0 4.11896e-15 0 0 -9.66153e-15 0 0 0 0)
(0 7.92292e-15 0 0 2.44743e-15 0 0 0 0)
(-1.0842e-13 3.53306e-15 0 -2.71051e-14 1.37599e-14 0 0 0 0)
(-2.71051e-14 -2.29848e-15 0 -5.42101e-14 1.0375e-14 0 0 0 0)
(0 -2.07781e-15 0 5.42101e-14 -7.89041e-15 0 0 0 0)
(2.71051e-14 -9.45857e-15 0 8.13152e-14 -2.11363e-14 0 0 0 0)
(5.42101e-14 -5.95234e-15 0 5.42101e-14 -1.11246e-14 0 0 0 0)
(0 7.57249e-15 0 0 -1.83521e-15 0 0 0 0)
(0 5.03524e-15 0 0 -4.19528e-15 0 0 0 0)
(0 -2.46903e-15 0 0 -7.14984e-15 0 0 0 0)
(-1.11131e-12 -1.31744e-13 0 -1.0842e-13 1.40129e-11 0 0 0 0)
(1.54499e-12 1.65832e-13 0 0 -3.04608e-12 0 0 0 0)
(-4.87891e-13 -1.11904e-14 0 2.71051e-14 7.41117e-13 0 0 0 0)
(-2.71051e-14 -1.6241e-15 0 5.42101e-14 -1.3688e-13 0 0 0 0)
(0 -4.16023e-15 0 5.42101e-14 2.16201e-14 0 0 0 0)
(8.13152e-14 -7.04149e-15 0 0 -1.64563e-14 0 0 0 0)
(0 -6.11964e-15 0 5.42101e-14 1.00716e-14 0 0 0 0)
(-8.13152e-14 -6.46291e-15 0 0 1.70315e-14 0 0 0 0)
(0 -8.99023e-15 0 0 1.74818e-14 0 0 0 0)
(0 5.25466e-15 0 0 9.49525e-15 0 0 0 0)
(0 1.65523e-14 0 -5.42101e-14 -1.2541e-16 0 0 0 0)
(0 1.33862e-15 0 -5.42101e-14 -2.05e-14 0 0 0 0)
(8.13152e-14 -1.36165e-14 0 0 -2.63192e-14 0 0 0 0)
(2.71051e-14 -1.21556e-14 0 8.13152e-14 -1.44789e-14 0 0 0 0)
(2.71051e-14 7.54669e-16 0 2.71051e-14 -3.37074e-15 0 0 0 0)
(0 7.92165e-15 0 2.71051e-14 6.0446e-15 0 0 0 0)
(0 6.70802e-15 0 2.71051e-14 1.45673e-14 0 0 0 0)
(-5.42101e-14 -2.02512e-16 0 2.71051e-14 1.6219e-14 0 0 0 0)
(0 -4.05724e-15 0 0 -3.04637e-16 0 0 0 0)
(0 3.00302e-15 0 2.71051e-14 -3.18246e-16 0 0 0 0)
(3.25261e-13 6.23505e-12 0 3.41524e-12 -4.87786e-12 0 0 0 0)
(-5.14996e-13 -7.53898e-12 0 -9.48677e-13 1.03521e-12 0 0 0 0)
(2.43945e-13 1.64894e-12 0 0 -2.81038e-13 0 0 0 0)
(2.71051e-14 -3.99022e-13 0 0 5.45528e-14 0 0 0 0)
(0 6.97307e-14 0 5.42101e-14 -1.23004e-14 0 0 0 0)
(-2.71051e-14 -7.26377e-15 0 -5.42101e-14 8.13535e-15 0 0 0 0)
(0 1.44065e-14 0 -5.42101e-14 1.19486e-14 0 0 0 0)
(0 1.23898e-15 0 0 1.53167e-14 0 0 0 0)
(-2.71051e-14 -6.30026e-15 0 0 1.43943e-14 0 0 0 0)
(-2.71051e-14 -1.4355e-14 0 5.42101e-14 1.03451e-14 0 0 0 0)
(0 -2.58763e-14 0 5.42101e-14 -1.50359e-14 0 0 0 0)
(5.42101e-14 -1.82708e-14 0 8.13152e-14 -2.98588e-14 0 0 0 0)
(0 9.5542e-15 0 -5.42101e-14 -1.31267e-14 0 0 0 0)
(0 2.065e-14 0 2.71051e-14 3.03913e-15 0 0 0 0)
(-2.71051e-14 1.84457e-14 0 -8.13152e-14 1.5598e-15 0 0 0 0)
(0 8.47945e-15 0 -2.71051e-14 -8.87375e-15 0 0 0 0)
(-2.71051e-14 4.22206e-15 0 -2.71051e-14 4.26005e-15 0 0 0 0)
(0 -7.29942e-15 0 0 6.45548e-15 0 0 0 0)
(5.42101e-14 -1.1502e-14 0 0 -5.68869e-16 0 0 0 0)
(-5.42101e-14 -1.84615e-15 0 0 1.43845e-15 0 0 0 0)
(1.38236e-12 -3.97439e-12 0 -1.49078e-12 -1.34712e-11 0 0 0 0)
(-1.87025e-12 4.76265e-12 0 5.42101e-13 2.89051e-12 0 0 0 0)
(4.33681e-13 -9.91852e-13 0 2.71051e-14 -6.94539e-13 0 0 0 0)
(0 2.67114e-13 0 2.71051e-14 1.32378e-13 0 0 0 0)
(-2.71051e-14 -5.05777e-14 0 0 -2.8411e-14 0 0 0 0)
(0 1.72074e-14 0 1.0842e-13 5.59994e-15 0 0 0 0)
(0 1.06175e-15 0 5.42101e-14 -1.02906e-14 0 0 0 0)
(0 -4.01715e-15 0 5.42101e-14 -1.6796e-14 0 0 0 0)
(2.71051e-14 -1.39619e-14 0 1.0842e-13 -2.34956e-14 0 0 0 0)
(0 -2.41756e-14 0 5.42101e-14 -1.89162e-14 0 0 0 0)
(5.42101e-14 -2.36516e-14 0 5.42101e-14 -1.57287e-14 0 0 0 0)
(-5.42101e-14 3.24785e-15 0 2.71051e-14 7.01043e-15 0 0 0 0)
(0 1.92815e-14 0 5.42101e-14 1.62639e-14 0 0 0 0)
(0 2.53094e-15 0 -2.71051e-14 1.19657e-14 0 0 0 0)
(0 -1.11582e-14 0 5.42101e-14 -6.4064e-15 0 0 0 0)
(5.42101e-14 1.06219e-14 0 0 -2.4972e-14 0 0 0 0)
(0 2.20373e-14 0 -5.42101e-14 -9.228e-15 0 0 0 0)
(0 -5.03143e-15 0 -2.71051e-14 -8.97647e-15 0 0 0 0)
(0 -9.07428e-15 0 2.71051e-14 -3.15659e-15 0 0 0 0)
(0 2.13344e-15 0 0 -2.87022e-15 0 0 0 0)
(-6.23416e-13 -4.3456e-12 0 -8.94467e-13 1.05465e-11 0 0 0 0)
(1.00289e-12 5.23764e-12 0 1.35525e-13 -2.22648e-12 0 0 0 0)
(-2.98156e-13 -1.1092e-12 0 -5.42101e-14 5.46176e-13 0 0 0 0)
(5.42101e-14 2.67105e-13 0 -2.71051e-14 -1.25435e-13 0 0 0 0)
(2.71051e-14 -5.7047e-14 0 -5.42101e-14 1.19568e-14 0 0 0 0)
(0 1.08566e-14 0 -5.42101e-14 -1.78108e-14 0 0 0 0)
(2.71051e-14 -7.98944e-15 0 -5.42101e-14 -1.61072e-14 0 0 0 0)
(0 -1.19661e-14 0 -5.42101e-14 -1.08831e-14 0 0 0 0)
(0 -8.4205e-15 0 -5.42101e-14 -1.24007e-16 0 0 0 0)
(-2.71051e-14 -6.58808e-15 0 -5.42101e-14 1.14993e-14 0 0 0 0)
(-2.71051e-14 5.03068e-17 0 -5.42101e-14 3.06397e-14 0 0 0 0)
(-5.42101e-14 1.37218e-14 0 -5.42101e-14 3.51005e-14 0 0 0 0)
(-2.71051e-14 1.45095e-14 0 0 1.367e-14 0 0 0 0)
(0 -2.02032e-15 0 -2.71051e-14 1.30958e-15 0 0 0 0)
(0 -1.8492e-14 0 0 1.31594e-14 0 0 0 0)
(-5.42101e-14 5.65784e-15 0 -2.71051e-14 3.09598e-14 0 0 0 0)
(-5.42101e-14 2.02175e-14 0 5.42101e-14 -3.12035e-15 0 0 0 0)
(5.42101e-14 -1.22801e-15 0 0 -1.1295e-14 0 0 0 0)
(5.42101e-14 -5.39575e-15 0 -2.71051e-14 3.13909e-15 0 0 0 0)
(-5.42101e-14 4.18066e-15 0 -2.71051e-14 3.17501e-15 0 0 0 0)
)
;

boundaryField
{
    movingWall
    {
        type            extrapolatedCalculated;
        value           nonuniform List<tensor> 
20
(
(-6.23416e-13 -4.3456e-12 0 3.90799e-12 2.20599e-11 0 0 0 0)
(1.00289e-12 5.23764e-12 0 -1.37668e-12 -4.67754e-12 0 0 0 0)
(-2.98156e-13 -1.1092e-12 0 -1.77636e-13 1.10936e-12 0 0 0 0)
(5.42101e-14 2.67105e-13 0 -2.22045e-13 -2.40754e-13 0 0 0 0)
(2.71051e-14 -5.7047e-14 0 -3.10862e-13 4.09428e-14 0 0 0 0)
(0 1.08566e-14 0 -3.10862e-13 -1.25663e-14 0 0 0 0)
(2.71051e-14 -7.98944e-15 0 -3.55271e-13 -2.48383e-15 0 0 0 0)
(0 -1.19661e-14 0 -4.44089e-13 1.93915e-14 0 0 0 0)
(0 -8.4205e-15 0 -3.55271e-13 4.53805e-14 0 0 0 0)
(-2.71051e-14 -6.58808e-15 0 -3.55271e-13 5.30735e-14 0 0 0 0)
(-2.71051e-14 5.03068e-17 0 -2.22045e-13 7.17328e-14 0 0 0 0)
(-5.42101e-14 1.37218e-14 0 -2.66454e-13 5.28722e-14 0 0 0 0)
(-2.71051e-14 1.45095e-14 0 -8.88178e-14 1.68457e-14 0 0 0 0)
(0 -2.02032e-15 0 -8.88178e-14 -5.16576e-15 0 0 0 0)
(0 -1.8492e-14 0 -8.88178e-14 2.49269e-14 0 0 0 0)
(-5.42101e-14 5.65784e-15 0 -8.88178e-14 6.88022e-14 0 0 0 0)
(-5.42101e-14 2.02175e-14 0 8.88178e-14 2.29557e-15 0 0 0 0)
(5.42101e-14 -1.22801e-15 0 8.88178e-14 -1.2068e-14 0 0 0 0)
(5.42101e-14 -5.39575e-15 0 -8.88178e-14 7.20761e-15 0 0 0 0)
(-5.42101e-14 4.18066e-15 0 -8.88178e-14 9.51504e-15 0 0 0 0)
)
;
    }
    fixedWalls
    {
        type            extrapolatedCalculated;
        value           nonuniform List<tensor> 
60
(
(-1.59872e-12 3.49878e-11 0 4.87891e-13 1.09143e-11 0 0 0 0)
(3.55271e-12 8.6694e-12 0 1.13841e-12 -1.51303e-11 0 0 0 0)
(2.93099e-12 -2.55332e-11 0 -2.79182e-12 -1.45986e-12 0 0 0 0)
(-7.54952e-12 2.82996e-12 0 5.42101e-13 9.99446e-12 0 0 0 0)
(5.10703e-12 1.44446e-11 0 1.54499e-12 -5.76924e-12 0 0 0 0)
(-1.42109e-12 -2.0247e-11 0 -6.77626e-13 1.6034e-12 0 0 0 0)
(2.39808e-12 2.08583e-11 0 -1.13841e-12 5.13477e-12 0 0 0 0)
(-5.9508e-12 2.92057e-13 0 4.06576e-13 -1.24132e-11 0 0 0 0)
(3.9968e-12 -2.87946e-11 0 9.21572e-13 9.87561e-12 0 0 0 0)
(-2.30926e-12 3.97945e-11 0 -7.86047e-13 -1.56097e-13 0 0 0 0)
(8.43769e-13 -2.9419e-11 0 1.5992e-12 -7.64978e-12 0 0 0 0)
(4.17444e-12 9.19539e-12 0 -1.87025e-12 9.995e-12 0 0 0 0)
(-6.57252e-12 1.0561e-11 0 -2.98156e-13 -7.57437e-12 0 0 0 0)
(2.84217e-12 -2.11021e-11 0 1.49078e-12 4.39231e-12 0 0 0 0)
(-5.32907e-13 2.81303e-11 0 -1.0842e-13 -7.81208e-13 0 0 0 0)
(2.44249e-12 -2.42269e-11 0 -1.38236e-12 -7.1862e-12 0 0 0 0)
(-6.12843e-12 -6.14514e-13 0 -1.0842e-13 1.40129e-11 0 0 0 0)
(2.08722e-12 3.18247e-11 0 3.41524e-12 -4.87786e-12 0 0 0 0)
(7.4607e-12 -2.01259e-11 0 -1.49078e-12 -1.34712e-11 0 0 0 0)
(-3.90799e-12 -2.20599e-11 0 -8.94467e-13 1.05465e-11 0 0 0 0)
(-4.44089e-14 -1.51135e-14 0 0 1.11844e-14 0 0 0 0)
(0 -2.96243e-14 0 0 5.52354e-16 0 0 0 0)
(0 -1.73229e-14 0 0 -9.70896e-15 0 0 0 0)
(0 9.21157e-15 0 0 -2.96317e-15 0 0 0 0)
(0 -5.47025e-15 0 0 9.108e-15 0 0 0 0)
(0 -2.72204e-14 0 0 4.64002e-15 0 0 0 0)
(-4.44089e-14 -2.40303e-14 0 2.71051e-14 -1.79116e-15 0 0 0 0)
(0 -2.00558e-14 0 -2.71051e-14 -5.93978e-15 0 0 0 0)
(-4.44089e-14 -2.71229e-16 0 2.71051e-14 -6.32396e-15 0 0 0 0)
(0 5.24004e-15 0 0 8.25796e-15 0 0 0 0)
(-8.88178e-14 -3.33031e-14 0 0 1.45855e-14 0 0 0 0)
(0 -5.31018e-14 0 -2.71051e-14 -7.92633e-15 0 0 0 0)
(8.88178e-14 -1.59774e-15 0 0 -1.49752e-14 0 0 0 0)
(-4.44089e-14 6.79908e-15 0 2.71051e-14 4.51571e-15 0 0 0 0)
(0 -1.96606e-14 0 -2.71051e-14 2.50948e-15 0 0 0 0)
(0 -3.23883e-15 0 0 -7.14984e-15 0 0 0 0)
(0 8.93878e-15 0 2.71051e-14 -3.18246e-16 0 0 0 0)
(-8.88178e-14 -1.96585e-15 0 0 1.43845e-15 0 0 0 0)
(0 3.18499e-15 0 0 -2.87022e-15 0 0 0 0)
(-8.88178e-14 9.51504e-15 0 -2.71051e-14 3.17501e-15 0 0 0 0)
(-8.13152e-14 6.92394e-12 0 -1.59872e-12 3.49878e-11 0 0 0 0)
(5.42101e-13 -8.31112e-12 0 1.28786e-12 -7.29208e-12 0 0 0 0)
(-2.1684e-13 1.74518e-12 0 5.77316e-13 1.74336e-12 0 0 0 0)
(-5.42101e-14 -4.0713e-13 0 4.44089e-13 -3.11346e-13 0 0 0 0)
(0 8.46542e-14 0 3.55271e-13 1.14839e-13 0 0 0 0)
(0 -1.21647e-14 0 3.55271e-13 2.7271e-14 0 0 0 0)
(-2.71051e-14 1.13188e-14 0 3.10862e-13 6.61798e-14 0 0 0 0)
(-2.71051e-14 -1.17673e-14 0 3.10862e-13 7.25464e-14 0 0 0 0)
(-5.42101e-14 -1.84719e-14 0 1.77636e-13 1.91107e-14 0 0 0 0)
(2.71051e-14 4.24477e-15 0 2.22045e-13 -1.34129e-15 0 0 0 0)
(-2.71051e-14 1.21252e-14 0 2.22045e-13 3.60898e-14 0 0 0 0)
(-2.71051e-14 6.81189e-17 0 8.88178e-14 4.71594e-14 0 0 0 0)
(0 -5.82283e-15 0 8.88178e-14 3.63623e-14 0 0 0 0)
(-2.71051e-14 -5.64764e-15 0 8.88178e-14 2.38681e-14 0 0 0 0)
(0 -7.24759e-15 0 4.44089e-14 1.37718e-14 0 0 0 0)
(2.71051e-14 -3.83442e-15 0 8.88178e-14 -5.1223e-15 0 0 0 0)
(0 1.16349e-14 0 8.88178e-14 -1.56594e-15 0 0 0 0)
(0 1.19902e-14 0 8.88178e-14 4.14172e-14 0 0 0 0)
(-2.71051e-14 -6.57593e-15 0 8.88178e-14 4.63947e-14 0 0 0 0)
(-2.71051e-14 -1.53771e-14 0 4.44089e-14 1.51135e-14 0 0 0 0)
)
;
    }
    frontAndBack
    {
        type            empty;
    }
}


// ************************************************************************* //
