/*--------------------------------*- C++ -*----------------------------------*\
| =========                 |                                                 |
| \\      /  F ield         | OpenFOAM: The Open Source CFD Toolbox           |
|  \\    /   O peration     | Version:  2312                                  |
|   \\  /    A nd           | Website:  www.openfoam.com                      |
|    \\/     M anipulation  |                                                 |
\*---------------------------------------------------------------------------*/
FoamFile
{
    version     2.0;
    format      ascii;
    arch        "LSB;label=32;scalar=64";
    class       volScalarField;
    location    "8.625";
    object      Lambda2Field;
}
// * * * * * * * * * * * * * * * * * * * * * * * * * * * * * * * * * * * * * //

dimensions      [0 0 -2 0 0 0 0];

internalField   nonuniform List<scalar> 
400
(
3.38474e-24
2.93874e-25
1.8893e-25
-2.78028e-26
4.58911e-27
-3.16035e-28
1.21675e-28
0
2.50922e-29
2.58772e-28
7.2295e-28
4.22676e-28
0
2.51646e-28
3.92893e-28
1.14379e-28
0
0
5.10653e-28
1.25092e-28
2.43833e-24
1.99522e-24
2.70035e-26
1.40088e-26
6.61275e-28
1.612e-27
8.82979e-29
4.94449e-28
0
-3.1748e-28
0
-6.73781e-28
1.67034e-28
2.04495e-29
0
0
9.66653e-29
-6.75944e-28
3.26663e-28
0
1.42416e-23
4.67039e-24
7.19113e-26
0
7.34684e-28
2.36042e-28
0
-6.9113e-28
0
0
1.00358e-27
-7.08899e-28
1.63235e-28
2.07763e-28
0
0
1.32077e-27
-4.8602e-28
0
0
2.54624e-24
3.21381e-24
2.41072e-25
3.32594e-27
0
8.99791e-28
0
0
0
0
5.39021e-28
0
0
-1.26098e-27
1.51832e-27
9.85827e-29
5.82145e-29
-1.06218e-27
0
0
5.29954e-24
2.43629e-24
1.92206e-25
-1.70563e-26
3.85064e-27
-4.29986e-28
6.16192e-28
2.68758e-28
7.49975e-28
1.94864e-28
0
1.62623e-28
4.02846e-28
0
1.36073e-27
4.29325e-28
2.03316e-28
-4.20974e-29
0
8.29557e-29
2.6896e-24
1.60725e-24
1.17549e-26
6.69046e-27
1.69799e-27
2.83861e-28
0
3.11875e-29
1.84791e-28
4.24037e-28
2.71317e-28
-1.26761e-28
0
-4.65098e-28
3.01389e-28
9.27017e-30
2.29657e-28
0
0
0
0
3.98895e-25
0
1.66577e-26
0
6.106e-28
7.29094e-28
5.26829e-29
6.95711e-28
4.29364e-28
0
-1.16397e-27
0
4.51936e-29
1.34632e-27
-3.3716e-28
3.32488e-28
6.77657e-30
6.27643e-31
0
1.9188e-24
1.5558e-24
3.4048e-26
9.07252e-27
0
-6.54273e-28
0
4.20923e-28
3.324e-29
0
5.27001e-28
8.26346e-29
0
2.164e-28
0
1.72712e-28
8.70211e-28
0
0
2.54841e-28
0
6.61216e-25
0
4.06887e-26
0
-4.76011e-28
0
4.21723e-28
4.41905e-28
3.78425e-28
8.40081e-28
0
0
4.52121e-28
0
-6.11456e-28
7.76092e-28
1.53576e-29
0
-1.01251e-29
0
9.18036e-28
0
1.26355e-26
0
1.27538e-27
0
-1.29308e-27
0
0
4.89616e-28
1.08553e-29
0
-4.92188e-28
0
0
7.26212e-28
0
0
0
0
0
0
7.34684e-28
0
7.11037e-29
3.73724e-28
1.24413e-28
5.04754e-28
1.68756e-28
0
3.96752e-28
5.83024e-29
6.50149e-29
3.98561e-28
0
5.82979e-28
2.76798e-28
0
2.12735e-28
0
2.21838e-25
0
1.78787e-26
3.37436e-28
1.39221e-28
0
0
7.10337e-28
-1.94771e-27
0
5.29917e-28
0
0
0
0
3.09795e-29
-1.08123e-27
0
7.0149e-28
1.51407e-24
1.70608e-24
0
9.09609e-28
0
0
0
5.92625e-29
0
5.07378e-29
7.81304e-28
-2.52016e-28
1.6859e-28
4.05952e-28
3.30858e-29
0
0
0
0
2.24257e-28
0
-1.11707e-25
0
1.98804e-27
0
1.02829e-29
2.13678e-29
0
4.04619e-28
-1.30539e-28
4.77864e-28
1.95014e-28
0
1.56858e-28
9.86235e-28
3.49133e-28
0
-7.62917e-28
2.48573e-28
3.29355e-28
0
7.36373e-25
0
9.08852e-27
0
6.42744e-28
1.07015e-29
-1.01227e-28
2.6916e-28
-1.56753e-29
5.24964e-29
1.79857e-28
7.80353e-30
-1.02869e-28
0
0
1.32975e-27
1.93309e-28
0
2.26113e-28
6.72909e-24
2.96559e-24
0
-9.34484e-27
6.88292e-28
2.32279e-28
0
0
6.67682e-28
4.14544e-28
0
0
3.28246e-28
2.32242e-28
0
-3.4441e-29
7.0596e-28
0
0
0
1.24929e-24
2.38699e-24
2.37734e-25
6.46641e-28
0
2.70809e-28
0
2.90071e-28
0
0
0
0
7.39051e-28
-2.53747e-28
2.05403e-28
2.14717e-28
1.81821e-28
2.57567e-28
0
8.1397e-29
2.14e-23
7.41728e-24
5.95094e-26
7.34684e-28
3.78011e-27
4.59954e-28
0
0
2.1712e-28
-4.34998e-29
0
0
0
5.59718e-28
0
-1.51092e-28
1.49056e-28
0
3.33976e-29
2.06913e-30
7.83584e-24
6.07967e-24
1.61195e-25
7.24013e-27
7.34684e-28
1.86563e-27
5.75575e-29
0
0
-9.52738e-28
4.80849e-28
1.37179e-28
1.04525e-27
0
0
6.23598e-28
0
1.36377e-28
0
0
4.27564e-24
1.71562e-24
1.49026e-25
0
3.2375e-27
-2.71315e-28
1.16779e-27
6.48683e-28
4.56476e-28
4.89373e-28
7.31957e-28
4.88189e-28
2.39501e-28
5.47609e-29
0
8.05152e-28
1.39461e-27
1.27578e-28
2.7393e-28
0
)
;

boundaryField
{
    movingWall
    {
        type            calculated;
        value           nonuniform List<scalar> 
20
(
0
0
2.8593e-25
-1.34673e-27
1.84684e-26
-3.21701e-27
3.5731e-27
5.31401e-27
2.99156e-27
3.07524e-27
7.23514e-28
-7.17484e-28
0
1.7944e-28
1.64242e-27
2.43622e-27
2.97745e-27
3.65671e-29
2.271e-27
0
)
;
    }
    fixedWalls
    {
        type            calculated;
        value           nonuniform List<scalar> 
60
(
1.96262e-23
2.24911e-23
7.98748e-23
5.85293e-23
4.83985e-23
1.57394e-23
0
3.55307e-23
0
-2.59476e-23
0
2.28264e-25
4.00492e-23
-1.21661e-23
0
3.9456e-23
3.76243e-23
1.13045e-22
8.56653e-23
3.50042e-23
1.82196e-28
0
0
0
0
0
5.57171e-30
5.43613e-28
2.20006e-28
0
4.90009e-28
1.43933e-27
2.24895e-28
2.04681e-28
5.32901e-28
0
2.42286e-28
2.06913e-30
0
0
0
0
1.05454e-24
-8.38658e-26
3.00752e-26
-3.57806e-27
4.25329e-27
0
0
9.44327e-28
3.42701e-27
7.40734e-28
0
6.80738e-29
0
0
1.03339e-27
1.06494e-27
1.50624e-28
0
)
;
    }
    frontAndBack
    {
        type            empty;
    }
}


// ************************************************************************* //
