/*--------------------------------*- C++ -*----------------------------------*\
| =========                 |                                                 |
| \\      /  F ield         | OpenFOAM: The Open Source CFD Toolbox           |
|  \\    /   O peration     | Version:  2312                                  |
|   \\  /    A nd           | Website:  www.openfoam.com                      |
|    \\/     M anipulation  |                                                 |
\*---------------------------------------------------------------------------*/
FoamFile
{
    version     2.0;
    format      ascii;
    arch        "LSB;label=32;scalar=64";
    class       volScalarField;
    location    "8.625";
    object      QField;
}
// * * * * * * * * * * * * * * * * * * * * * * * * * * * * * * * * * * * * * //

dimensions      [0 0 -2 0 0 0 0];

internalField   nonuniform List<scalar> 
400
(
-4.26563e-24
-1.1714e-24
-2.67199e-25
3.70535e-26
-4.58911e-27
3.29725e-28
-2.56634e-28
2.60251e-28
3.62905e-28
-8.49956e-29
-7.10025e-28
-5.55992e-28
0
-4.29977e-28
-3.92893e-28
-2.89883e-28
0
0
-3.67434e-28
-3.03155e-28
-1.11051e-23
-4.18623e-24
-1.52385e-25
-1.40088e-26
-6.61275e-28
-1.612e-27
-8.82979e-29
-1.97466e-27
2.68142e-28
6.40042e-28
1.71834e-28
7.26021e-28
-3.50028e-28
1.22572e-28
0
3.35663e-28
5.36812e-28
1.08324e-27
-6.39392e-28
0
-1.47486e-23
-4.77901e-24
-5.66713e-26
0
1.4936e-28
-3.99515e-28
5.75074e-28
7.08721e-28
1.31426e-27
1.29974e-27
-1.69446e-27
1.20645e-27
2.03817e-28
-2.75397e-28
2.58701e-28
0
-1.29332e-27
4.93084e-28
0
0
-1.52233e-23
-3.91828e-24
-2.50992e-25
-6.16966e-27
0
-8.99791e-28
1.26454e-27
0
0
0
-1.88138e-27
-2.31771e-28
1.57713e-27
1.8008e-27
1.35093e-27
-4.18747e-28
-3.53214e-29
1.08631e-27
1.98296e-28
0
-9.8727e-24
-2.53111e-24
-1.90341e-25
1.81689e-26
-3.87138e-27
9.11315e-28
3.59272e-28
-8.439e-28
-7.49975e-28
-3.77445e-28
1.21733e-27
-1.03696e-27
-4.02846e-28
0
-1.4351e-27
-1.64254e-27
-1.27139e-28
5.0688e-29
4.93387e-29
-4.93746e-28
-2.99027e-24
-1.6484e-24
-7.85301e-27
-6.70167e-27
-1.32604e-27
-9.13342e-28
2.68059e-29
-1.5137e-28
-8.88453e-29
-1.05265e-27
-5.28064e-28
1.83393e-28
2.34932e-28
8.74537e-28
-3.01389e-28
-8.25266e-29
-4.10224e-28
0
2.56042e-28
0
7.91244e-24
4.92361e-25
2.90022e-25
-9.07679e-27
2.35576e-27
-6.106e-28
-7.29094e-28
-1.96737e-28
-6.95711e-28
-1.27019e-28
5.28093e-28
1.18734e-27
2.18362e-27
-3.31932e-29
-8.32462e-28
3.41173e-28
-3.53167e-28
-7.05594e-29
-1.91742e-29
2.1399e-28
1.71516e-23
3.13209e-24
9.57054e-26
2.0654e-26
7.79401e-28
8.00337e-28
1.77388e-28
-4.20923e-28
-2.88898e-28
-4.00634e-29
-5.27001e-28
-4.92789e-28
5.20622e-28
-8.73319e-28
0
-3.56215e-28
-1.59043e-27
0
0
-2.54841e-28
1.42982e-23
1.65871e-24
4.46279e-25
-1.27214e-26
7.5201e-27
5.04606e-28
5.01834e-28
-4.21723e-28
-9.04244e-29
-3.78425e-28
-8.40081e-28
-3.0078e-29
7.84597e-28
-1.09816e-27
5.3856e-29
7.09857e-28
-4.95663e-28
-1.06221e-28
0
5.01176e-29
6.24221e-24
1.64252e-26
4.85649e-25
-1.25185e-26
5.03903e-27
-1.27538e-27
1.59978e-28
1.35877e-27
8.97821e-28
0
-4.89616e-28
-1.91389e-28
6.7765e-28
6.43373e-28
2.70367e-28
1.01172e-28
-2.95979e-28
0
2.68721e-28
0
8.18301e-24
1.26404e-24
2.75066e-25
2.35083e-27
3.05596e-27
2.28558e-28
-4.30232e-28
-6.04663e-28
-1.20822e-27
-3.52111e-28
2.41379e-29
-5.39896e-28
1.49985e-28
-2.18553e-28
-3.98561e-28
0
-1.95998e-27
-5.53427e-28
0
-7.90679e-28
1.26926e-23
2.37152e-24
1.54341e-25
7.60396e-27
8.98053e-28
-6.50606e-28
6.15051e-28
0
-7.10337e-28
2.75995e-27
8.04781e-28
-6.87107e-28
0
0
0
0
-9.64481e-29
1.83872e-27
2.81195e-28
-7.0149e-28
1.17147e-23
2.32836e-24
1.1281e-25
1.54647e-26
4.37279e-27
0
1.2531e-28
-4.17321e-28
3.91786e-28
-3.86141e-28
-4.48992e-28
2.53209e-28
5.27642e-28
5.46119e-28
1.07791e-28
0
0
0
0
-8.11808e-28
9.2029e-24
1.7044e-24
2.22764e-25
3.62563e-27
2.48609e-27
-8.69178e-29
9.60749e-29
0
-4.26931e-28
5.43467e-28
-4.77864e-28
-4.61344e-28
1.20928e-27
-1.72294e-28
-5.21987e-28
-5.06461e-28
0
1.51173e-27
-2.12299e-28
-4.31362e-28
7.45755e-25
-7.00099e-25
1.95481e-25
-8.72932e-27
4.18201e-27
-6.42744e-28
-1.07015e-29
1.69011e-28
-2.42578e-29
9.16267e-29
1.39462e-28
-1.09053e-27
5.69368e-28
2.57357e-28
2.54424e-27
4.99439e-28
-1.47584e-27
-1.93309e-28
3.40817e-29
-2.26113e-28
-9.65752e-24
-3.51999e-24
5.68135e-26
1.98016e-26
1.83507e-28
-2.32279e-28
1.0344e-27
3.03883e-28
3.79679e-28
-1.1414e-27
0
0
-1.39609e-27
-4.05816e-28
1.12638e-28
1.96225e-28
-2.80389e-28
0
0
0
-1.55869e-23
-4.70616e-24
-3.61281e-25
3.7982e-27
2.25527e-28
-1.33814e-27
3.31746e-28
-1.38492e-27
0
0
8.97301e-28
7.25666e-29
-2.14015e-27
5.95979e-28
-1.11819e-28
-2.14717e-28
-1.81821e-28
-8.73745e-28
0
-8.1397e-29
-2.28808e-23
-7.68519e-24
-6.8558e-26
1.47866e-27
-3.78011e-27
-6.14279e-28
7.80976e-28
0
-3.90159e-28
4.9778e-28
1.40276e-27
-1.32953e-28
5.17934e-28
-5.59718e-28
1.45764e-27
2.29836e-28
-1.02967e-30
0
-3.08384e-29
-7.79784e-29
-2.45469e-23
-7.98781e-24
-2.74324e-25
-7.24013e-27
7.70081e-28
-1.86563e-27
-5.75575e-29
2.1777e-28
8.769e-28
1.31056e-27
4.29498e-28
-4.68069e-28
-1.04525e-27
6.86012e-29
6.04888e-28
-1.35373e-27
1.19464e-27
-1.36377e-28
2.45959e-28
0
-1.04618e-23
-2.94274e-24
-2.22975e-25
4.40034e-28
-2.76843e-27
5.8854e-28
-8.69696e-28
-6.48683e-28
-4.56476e-28
-6.68829e-28
-8.27763e-28
-1.15894e-27
-3.70527e-28
-5.47609e-29
0
-1.52498e-27
-9.26841e-28
-6.12305e-28
2.39183e-29
-5.88005e-29
)
;

boundaryField
{
    movingWall
    {
        type            calculated;
        value           nonuniform List<scalar> 
20
(
3.23001e-24
2.5195e-24
-5.27796e-25
4.6258e-26
-1.6624e-26
3.37492e-27
-2.90574e-27
-5.31401e-27
-2.99156e-27
-3.77912e-27
-1.93315e-27
7.90009e-28
8.321e-28
-1.7944e-28
-1.64242e-27
-3.22726e-27
-1.92012e-27
-5.45138e-28
-8.85141e-29
-1.44494e-28
)
;
    }
    fixedWalls
    {
        type            calculated;
        value           nonuniform List<scalar> 
60
(
-3.45192e-23
-6.36228e-23
-7.55629e-23
-7.69875e-23
-5.17805e-23
-1.59985e-23
3.60589e-23
7.37497e-23
6.60072e-23
3.16408e-23
4.05921e-23
5.89212e-23
5.29315e-23
4.39422e-23
3.4662e-24
-5.10425e-23
-8.59438e-23
-1.1887e-22
-1.30508e-22
-6.09473e-23
-4.96689e-28
0
0
0
0
0
7.30887e-28
-5.43613e-28
2.88192e-28
0
-1.29545e-27
-1.43933e-27
-1.33007e-27
-3.84827e-28
-5.32901e-28
0
-2.42286e-28
-1.2776e-28
0
-2.40918e-29
8.22441e-24
6.75051e-24
-1.38555e-24
1.9768e-25
-3.00752e-26
4.32177e-27
-5.31241e-27
1.69163e-27
2.24528e-27
-9.78884e-28
-3.67055e-27
-1.28431e-27
5.17171e-28
-1.45334e-28
3.21858e-28
2.01725e-28
-1.03339e-27
-1.06494e-27
-6.73471e-28
2.73226e-28
)
;
    }
    frontAndBack
    {
        type            empty;
    }
}


// ************************************************************************* //
