/*--------------------------------*- C++ -*----------------------------------*\
| =========                 |                                                 |
| \\      /  F ield         | OpenFOAM: The Open Source CFD Toolbox           |
|  \\    /   O peration     | Version:  2312                                  |
|   \\  /    A nd           | Website:  www.openfoam.com                      |
|    \\/     M anipulation  |                                                 |
\*---------------------------------------------------------------------------*/
FoamFile
{
    version     2.0;
    format      ascii;
    arch        "LSB;label=32;scalar=64";
    class       volVectorField;
    location    "8.625";
    object      vorticityField;
}
// * * * * * * * * * * * * * * * * * * * * * * * * * * * * * * * * * * * * * //

dimensions      [0 0 -1 0 0 0 0];

internalField   nonuniform List<vector> 
400
(
(0 -0 6.43605e-12)
(0 -0 -8.31112e-12)
(0 -0 1.66387e-12)
(0 -0 -4.88445e-13)
(0 -0 3.04441e-14)
(0 -0 -3.92698e-14)
(0 -0 1.13188e-14)
(0 -0 -6.59774e-14)
(0 -0 -4.5577e-14)
(0 -0 -4.99653e-14)
(0 -0 1.21252e-14)
(0 -0 5.42782e-14)
(0 -0 -5.82283e-15)
(0 -0 -5.64764e-15)
(0 -0 4.69625e-14)
(0 -0 -3.83442e-15)
(0 -0 1.16349e-14)
(0 -0 1.19902e-14)
(0 -0 -3.3681e-14)
(0 -0 -1.53771e-14)
(0 -0 6.91101e-13)
(0 -0 -1.5104e-12)
(0 -0 4.78376e-13)
(0 -0 -2.07885e-14)
(0 -0 7.31829e-14)
(0 -0 6.1491e-14)
(0 -0 8.02293e-14)
(0 -0 5.90508e-14)
(0 -0 3.69977e-14)
(0 -0 7.36191e-14)
(0 -0 5.73799e-14)
(0 -0 -6.76028e-14)
(0 -0 1.03748e-15)
(0 -0 -5.50228e-16)
(0 -0 -1.93106e-14)
(0 -0 -3.91495e-14)
(0 -0 6.59795e-14)
(0 -0 9.86628e-14)
(0 -0 3.2156e-14)
(0 -0 -1.59392e-14)
(0 -0 -2.19332e-12)
(0 -0 5.32657e-12)
(0 -0 -1.29781e-12)
(0 -0 2.96107e-13)
(0 -0 -6.14012e-14)
(0 -0 -5.58637e-14)
(0 -0 -4.83215e-14)
(0 -0 6.72837e-14)
(0 -0 7.8454e-14)
(0 -0 6.29001e-14)
(0 -0 -1.03072e-14)
(0 -0 -7.64651e-14)
(0 -0 -3.02222e-14)
(0 -0 -5.05202e-14)
(0 -0 -1.10806e-13)
(0 -0 3.47561e-15)
(0 -0 -5.49932e-14)
(0 -0 -8.7379e-14)
(0 -0 6.055e-15)
(0 -0 -1.60925e-15)
(0 -0 5.52463e-14)
(0 -0 -5.12317e-13)
(0 -0 8.48565e-14)
(0 -0 1.28198e-14)
(0 -0 1.31102e-14)
(0 -0 3.76119e-14)
(0 -0 -7.75368e-14)
(0 -0 -4.10686e-15)
(0 -0 -1.1993e-15)
(0 -0 -1.16372e-14)
(0 -0 -3.84991e-15)
(0 -0 6.76724e-14)
(0 -0 1.01878e-13)
(0 -0 1.26827e-13)
(0 -0 1.21521e-13)
(0 -0 2.51466e-14)
(0 -0 -1.52039e-14)
(0 -0 -7.4249e-14)
(0 -0 -3.44209e-14)
(0 -0 6.51559e-15)
(0 -0 1.30264e-12)
(0 -0 -3.10257e-12)
(0 -0 5.67474e-13)
(0 -0 -3.11041e-13)
(0 -0 -5.32548e-14)
(0 -0 -9.56381e-14)
(0 -0 -5.63959e-14)
(0 -0 -5.3117e-14)
(0 -0 -4.03755e-14)
(0 -0 -5.35018e-14)
(0 -0 -1.00776e-13)
(0 -0 -2.62079e-15)
(0 -0 -4.67789e-14)
(0 -0 8.47432e-15)
(0 -0 -4.26615e-14)
(0 -0 -2.55627e-14)
(0 -0 -2.97213e-14)
(0 -0 5.51451e-14)
(0 -0 -2.89253e-14)
(0 -0 -4.9934e-15)
(0 -0 -3.22214e-12)
(0 -0 4.50486e-12)
(0 -0 -1.09008e-12)
(0 -0 1.93458e-13)
(0 -0 -6.63216e-14)
(0 -0 2.16087e-14)
(0 -0 5.47046e-14)
(0 -0 -1.6382e-14)
(0 -0 -3.02699e-14)
(0 -0 -2.18808e-14)
(0 -0 -3.07112e-14)
(0 -0 -5.75931e-14)
(0 -0 -5.85438e-14)
(0 -0 -1.16486e-13)
(0 -0 -4.86505e-14)
(0 -0 2.05834e-14)
(0 -0 1.55062e-15)
(0 -0 -3.42384e-15)
(0 -0 5.89332e-14)
(0 -0 -1.19005e-14)
(0 -0 5.39919e-12)
(0 -0 -4.90459e-12)
(0 -0 1.24521e-12)
(0 -0 -1.96381e-13)
(0 -0 9.95389e-14)
(0 -0 4.5779e-15)
(0 -0 4.07607e-14)
(0 -0 -2.16064e-14)
(0 -0 7.27594e-14)
(0 -0 7.6922e-14)
(0 -0 1.13291e-13)
(0 -0 7.61127e-14)
(0 -0 1.28561e-13)
(0 -0 1.08005e-13)
(0 -0 1.02779e-13)
(0 -0 3.96921e-14)
(0 -0 2.49772e-14)
(0 -0 -1.77293e-14)
(0 -0 -7.13366e-16)
(0 -0 -3.32087e-14)
(0 -0 -3.87186e-13)
(0 -0 3.19346e-14)
(0 -0 -3.83281e-14)
(0 -0 -2.95636e-14)
(0 -0 -6.85875e-14)
(0 -0 -5.66323e-14)
(0 -0 -5.74823e-14)
(0 -0 -4.64455e-14)
(0 -0 -4.39974e-15)
(0 -0 -5.50067e-14)
(0 -0 -4.44887e-14)
(0 -0 -3.56406e-16)
(0 -0 -6.38139e-14)
(0 -0 -5.63868e-14)
(0 -0 3.99201e-15)
(0 -0 1.5347e-15)
(0 -0 6.15717e-15)
(0 -0 6.77044e-15)
(0 -0 3.28796e-16)
(0 -0 1.77031e-14)
(0 -0 -6.56101e-12)
(0 -0 6.8463e-12)
(0 -0 -1.74175e-12)
(0 -0 2.62928e-13)
(0 -0 -1.70427e-13)
(0 -0 -8.75207e-14)
(0 -0 -9.06099e-14)
(0 -0 -4.64307e-14)
(0 -0 -1.37686e-13)
(0 -0 -4.72294e-14)
(0 -0 -3.87134e-14)
(0 -0 -8.4768e-14)
(0 -0 -1.15657e-13)
(0 -0 -7.67345e-14)
(0 -0 -1.08917e-13)
(0 -0 -6.73047e-14)
(0 -0 -5.34463e-14)
(0 -0 1.32941e-14)
(0 -0 3.59716e-15)
(0 -0 -2.89541e-14)
(0 -0 8.64119e-12)
(0 -0 -9.45844e-12)
(0 -0 2.24122e-12)
(0 -0 -4.38533e-13)
(0 -0 1.47164e-13)
(0 -0 3.06836e-14)
(0 -0 5.71612e-14)
(0 -0 1.20953e-13)
(0 -0 9.23564e-14)
(0 -0 -1.63926e-14)
(0 -0 9.04141e-15)
(0 -0 3.18254e-14)
(0 -0 9.2104e-14)
(0 -0 8.92273e-14)
(0 -0 5.91975e-14)
(0 -0 5.87966e-14)
(0 -0 5.43664e-14)
(0 -0 -1.34179e-14)
(0 -0 -3.70191e-14)
(0 -0 3.51355e-16)
(0 -0 -7.36443e-12)
(0 -0 7.26573e-12)
(0 -0 -1.71405e-12)
(0 -0 3.16191e-13)
(0 -0 -1.26615e-13)
(0 -0 9.02893e-15)
(0 -0 -2.16838e-14)
(0 -0 4.13889e-15)
(0 -0 -5.65957e-15)
(0 -0 -1.04387e-14)
(0 -0 -2.79956e-14)
(0 -0 1.84039e-14)
(0 -0 4.39456e-14)
(0 -0 4.27902e-15)
(0 -0 4.6858e-14)
(0 -0 -8.92628e-15)
(0 -0 2.83072e-15)
(0 -0 -1.80929e-14)
(0 -0 4.34789e-15)
(0 -0 -1.70574e-14)
(0 -0 3.73174e-12)
(0 -0 -2.41852e-12)
(0 -0 6.44713e-13)
(0 -0 -5.87533e-14)
(0 -0 4.17609e-14)
(0 -0 5.43704e-14)
(0 -0 1.14093e-13)
(0 -0 -2.02069e-14)
(0 -0 4.11067e-14)
(0 -0 1.33161e-13)
(0 -0 6.90557e-14)
(0 -0 4.57385e-14)
(0 -0 -1.06661e-15)
(0 -0 3.22418e-16)
(0 -0 -1.71822e-14)
(0 -0 -1.75808e-14)
(0 -0 8.55989e-15)
(0 -0 1.03647e-13)
(0 -0 3.74793e-14)
(0 -0 1.22463e-15)
(0 -0 2.40535e-12)
(0 -0 -2.60029e-12)
(0 -0 5.80063e-13)
(0 -0 -1.46676e-13)
(0 -0 1.20583e-13)
(0 -0 7.32739e-15)
(0 -0 -5.65217e-14)
(0 -0 -1.446e-14)
(0 -0 -6.14373e-14)
(0 -0 5.6597e-15)
(0 -0 5.88646e-14)
(0 -0 5.8881e-14)
(0 -0 6.46527e-14)
(0 -0 -3.06453e-15)
(0 -0 -6.71523e-14)
(0 -0 1.43424e-15)
(0 -0 5.57075e-15)
(0 -0 -8.72435e-15)
(0 -0 -2.737e-15)
(0 -0 5.04718e-15)
(0 -0 -5.66749e-12)
(0 -0 5.23582e-12)
(0 -0 -1.2336e-12)
(0 -0 2.46091e-13)
(0 -0 -1.0007e-13)
(0 -0 1.70336e-14)
(0 -0 -5.93432e-15)
(0 -0 3.16898e-15)
(0 -0 -2.53872e-14)
(0 -0 -8.79986e-14)
(0 -0 -4.53951e-14)
(0 -0 -5.11634e-14)
(0 -0 -7.65175e-14)
(0 -0 -4.72716e-14)
(0 -0 -4.58014e-14)
(0 -0 2.27719e-14)
(0 -0 -4.4264e-16)
(0 -0 -9.97324e-14)
(0 -0 -2.81462e-14)
(0 -0 -1.57063e-14)
(0 -0 5.61969e-12)
(0 -0 -6.575e-12)
(0 -0 1.57792e-12)
(0 -0 -3.04697e-13)
(0 -0 1.34859e-13)
(0 -0 4.23536e-14)
(0 -0 5.40127e-14)
(0 -0 5.73278e-14)
(0 -0 4.1291e-14)
(0 -0 3.04855e-14)
(0 -0 -1.02025e-14)
(0 -0 -2.20829e-14)
(0 -0 -4.86491e-14)
(0 -0 3.65999e-14)
(0 -0 1.40686e-13)
(0 -0 6.5366e-14)
(0 -0 4.16171e-14)
(0 -0 1.99732e-14)
(0 -0 2.83624e-14)
(0 -0 1.87629e-14)
(0 -0 -3.34942e-12)
(0 -0 5.27202e-12)
(0 -0 -1.34158e-12)
(0 -0 3.74685e-13)
(0 -0 -5.06934e-14)
(0 -0 -4.99253e-14)
(0 -0 -7.32914e-14)
(0 -0 -6.03813e-14)
(0 -0 5.54461e-14)
(0 -0 5.74623e-14)
(0 -0 4.11896e-15)
(0 -0 7.92292e-15)
(0 -0 3.06381e-14)
(0 -0 5.19116e-14)
(0 -0 -5.62879e-14)
(0 -0 -9.07737e-14)
(0 -0 -6.01624e-14)
(0 -0 7.57249e-15)
(0 -0 5.03524e-15)
(0 -0 -2.46903e-15)
(0 -0 -2.33239e-14)
(0 -0 1.65832e-13)
(0 -0 -3.82954e-14)
(0 -0 -5.58342e-14)
(0 -0 -5.83703e-14)
(0 -0 -7.04149e-15)
(0 -0 -6.03298e-14)
(0 -0 -6.46291e-15)
(0 -0 -8.99023e-15)
(0 -0 5.25466e-15)
(0 -0 7.07624e-14)
(0 -0 5.55487e-14)
(0 -0 -1.36165e-14)
(0 -0 -9.34707e-14)
(0 -0 -2.63504e-14)
(0 -0 -1.91834e-14)
(0 -0 -2.0397e-14)
(0 -0 -2.73076e-14)
(0 -0 -4.05724e-15)
(0 -0 -2.4102e-14)
(0 -0 2.81981e-12)
(0 -0 -6.5903e-12)
(0 -0 1.64894e-12)
(0 -0 -3.99022e-13)
(0 -0 1.55206e-14)
(0 -0 4.69463e-14)
(0 -0 6.86166e-14)
(0 -0 1.23898e-15)
(0 -0 -6.30026e-15)
(0 -0 -6.85651e-14)
(0 -0 -8.00864e-14)
(0 -0 -9.9586e-14)
(0 -0 6.37643e-14)
(0 -0 -6.4551e-15)
(0 -0 9.97609e-14)
(0 -0 3.55845e-14)
(0 -0 3.13271e-14)
(0 -0 -7.29942e-15)
(0 -0 -1.1502e-14)
(0 -0 -1.84615e-15)
(0 -0 -2.48361e-12)
(0 -0 4.22055e-12)
(0 -0 -1.01896e-12)
(0 -0 2.40009e-13)
(0 -0 -5.05777e-14)
(0 -0 -9.12128e-14)
(0 -0 -5.31484e-14)
(0 -0 -5.82273e-14)
(0 -0 -1.22382e-13)
(0 -0 -7.83857e-14)
(0 -0 -7.78617e-14)
(0 -0 -2.38572e-14)
(0 -0 -3.49286e-14)
(0 -0 2.9636e-14)
(0 -0 -6.53683e-14)
(0 -0 1.06219e-14)
(0 -0 7.62474e-14)
(0 -0 2.20736e-14)
(0 -0 -3.61793e-14)
(0 -0 2.13344e-15)
(0 -0 -3.45113e-12)
(0 -0 5.10212e-12)
(0 -0 -1.05499e-12)
(0 -0 2.9421e-13)
(0 -0 -2.83686e-15)
(0 -0 6.50668e-14)
(0 -0 4.62207e-14)
(0 -0 4.2244e-14)
(0 -0 4.57896e-14)
(0 -0 4.7622e-14)
(0 -0 5.42604e-14)
(0 -0 6.79319e-14)
(0 -0 1.45095e-14)
(0 -0 2.50847e-14)
(0 -0 -1.8492e-14)
(0 -0 3.27629e-14)
(0 -0 -3.39926e-14)
(0 -0 -1.22801e-15)
(0 -0 2.17093e-14)
(0 -0 3.12857e-14)
)
;

boundaryField
{
    movingWall
    {
        type            calculated;
        value           nonuniform List<vector> 
20
(
(0 -0 -8.25358e-12)
(0 -0 6.61432e-12)
(0 -0 -9.3156e-13)
(0 -0 4.8915e-13)
(0 -0 2.53815e-13)
(0 -0 3.21719e-13)
(0 -0 3.47282e-13)
(0 -0 4.32123e-13)
(0 -0 3.46851e-13)
(0 -0 3.48683e-13)
(0 -0 2.22095e-13)
(0 -0 2.80175e-13)
(0 -0 1.03327e-13)
(0 -0 8.67975e-14)
(0 -0 7.03258e-14)
(0 -0 9.44757e-14)
(0 -0 -6.86003e-14)
(0 -0 -9.00459e-14)
(0 -0 8.34221e-14)
(0 -0 9.29985e-14)
)
;
    }
    fixedWalls
    {
        type            calculated;
        value           nonuniform List<vector> 
60
(
(0 -0 3.44999e-11)
(0 -0 7.53098e-12)
(0 -0 -2.27414e-11)
(0 -0 2.28786e-12)
(0 -0 1.28997e-11)
(0 -0 -1.95694e-11)
(0 -0 2.19967e-11)
(0 -0 -1.14519e-13)
(0 -0 -2.97162e-11)
(0 -0 4.05806e-11)
(0 -0 -3.10182e-11)
(0 -0 1.10656e-11)
(0 -0 1.08592e-11)
(0 -0 -2.25929e-11)
(0 -0 2.82387e-11)
(0 -0 -2.28446e-11)
(0 -0 -5.06094e-13)
(0 -0 2.84095e-11)
(0 -0 -1.86352e-11)
(0 -0 -2.11655e-11)
(0 -0 -1.51135e-14)
(0 -0 -2.96243e-14)
(0 -0 -1.73229e-14)
(0 -0 9.21157e-15)
(0 -0 -5.47025e-15)
(0 -0 -2.72204e-14)
(0 -0 -5.11354e-14)
(0 -0 7.04926e-15)
(0 -0 -2.73763e-14)
(0 -0 5.24004e-15)
(0 -0 -3.33031e-14)
(0 -0 -2.59967e-14)
(0 -0 -1.59774e-15)
(0 -0 -2.0306e-14)
(0 -0 7.44447e-15)
(0 -0 -3.23883e-15)
(0 -0 -1.81663e-14)
(0 -0 -1.96585e-15)
(0 -0 3.18499e-15)
(0 -0 3.66201e-14)
(0 -0 8.52266e-12)
(0 -0 -9.59898e-12)
(0 -0 1.16787e-12)
(0 -0 -8.51219e-13)
(0 -0 -2.70617e-13)
(0 -0 -3.67436e-13)
(0 -0 -2.99544e-13)
(0 -0 -3.2263e-13)
(0 -0 -1.96108e-13)
(0 -0 -2.178e-13)
(0 -0 -2.09919e-13)
(0 -0 -8.87497e-14)
(0 -0 -9.46407e-14)
(0 -0 -9.44655e-14)
(0 -0 -5.16565e-14)
(0 -0 -9.26523e-14)
(0 -0 -7.7183e-14)
(0 -0 -7.68277e-14)
(0 -0 -9.53938e-14)
(0 -0 -5.9786e-14)
)
;
    }
    frontAndBack
    {
        type            empty;
    }
}


// ************************************************************************* //
