/*--------------------------------*- C++ -*----------------------------------*\
| =========                 |                                                 |
| \\      /  F ield         | OpenFOAM: The Open Source CFD Toolbox           |
|  \\    /   O peration     | Version:  2312                                  |
|   \\  /    A nd           | Website:  www.openfoam.com                      |
|    \\/     M anipulation  |                                                 |
\*---------------------------------------------------------------------------*/
FoamFile
{
    version     2.0;
    format      ascii;
    arch        "LSB;label=32;scalar=64";
    class       volVectorField;
    location    "8.625";
    object      zeroGradient(U);
}
// * * * * * * * * * * * * * * * * * * * * * * * * * * * * * * * * * * * * * //

dimensions      [0 1 -1 0 0 0 0];

internalField   nonuniform List<vector> 
400
(
(-1 8.74696e-14 0)
(-1 -1.82302e-14 0)
(-1 4.3584e-15 0)
(-1 -7.78365e-16 0)
(-1 2.87097e-16 0)
(-1 6.81775e-17 0)
(-1 1.6545e-16 0)
(-1 1.81366e-16 0)
(-1 4.77769e-17 0)
(-1 -3.35323e-18 0)
(-1 9.02246e-17 0)
(-1 1.17898e-16 0)
(-1 9.09057e-17 0)
(-1 5.96702e-17 0)
(-1 3.44294e-17 0)
(-1 -1.28058e-17 0)
(-1 -3.91484e-18 0)
(-1 1.03543e-16 0)
(-1 1.15987e-16 0)
(-1 3.77838e-17 0)
(-1 2.16735e-14 0)
(-1 -3.37836e-15 0)
(-1 1.41956e-15 0)
(-1 5.01452e-17 0)
(-1 1.27473e-16 0)
(-1 -3.11773e-17 0)
(-1 -7.07683e-17 0)
(-1 -4.20361e-17 0)
(-1 -2.23614e-17 0)
(-1 5.68908e-17 0)
(-1 1.71729e-16 0)
(-1 8.85886e-17 0)
(-1 3.78013e-17 0)
(-1 9.89634e-17 0)
(-1 3.22991e-17 0)
(-1 -9.41421e-17 0)
(-1 -8.81449e-17 0)
(-1 2.35516e-17 0)
(-1 8.53318e-17 0)
(-1 7.40607e-17 0)
(-1 -6.3833e-14 0)
(-1 1.39816e-14 0)
(-1 -2.97785e-15 0)
(-1 7.32431e-16 0)
(-1 -1.67808e-17 0)
(-1 1.1842e-16 0)
(-1 -3.3317e-17 0)
(-1 -9.37454e-17 0)
(-1 9.74189e-17 0)
(-1 1.48693e-16 0)
(-1 1.84318e-16 0)
(-1 4.56208e-17 0)
(-1 -3.82318e-17 0)
(-1 1.44491e-17 0)
(-1 -1.33233e-18 0)
(-1 -9.4119e-18 0)
(-1 3.34238e-17 0)
(-1 -1.72427e-17 0)
(-1 -2.72149e-17 0)
(-1 4.33073e-17 0)
(-1 7.0749e-15 0)
(-1 -1.10143e-15 0)
(-1 3.2543e-16 0)
(-1 1.81876e-17 0)
(-1 1.82577e-16 0)
(-1 1.4929e-16 0)
(-1 1.65953e-17 0)
(-1 -8.39772e-17 0)
(-1 -2.44733e-17 0)
(-1 -9.59702e-17 0)
(-1 -1.40845e-16 0)
(-1 -1.34469e-16 0)
(-1 -6.222e-18 0)
(-1 7.11589e-17 0)
(-1 1.77846e-16 0)
(-1 2.02169e-16 0)
(-1 1.58262e-16 0)
(-1 5.01294e-17 0)
(-1 -4.2127e-17 0)
(-1 -2.30289e-17 0)
(-1 3.61116e-14 0)
(-1 -7.63529e-15 0)
(-1 2.10437e-15 0)
(-1 -3.34244e-16 0)
(-1 7.81637e-17 0)
(-1 -5.36404e-17 0)
(-1 -6.50654e-17 0)
(-1 -7.54984e-17 0)
(-1 -5.41341e-17 0)
(-1 6.28475e-17 0)
(-1 -4.70505e-17 0)
(-1 -1.31756e-16 0)
(-1 -7.32584e-17 0)
(-1 -5.74445e-17 0)
(-1 1.14848e-17 0)
(-1 5.80412e-17 0)
(-1 2.69082e-17 0)
(-1 3.18784e-17 0)
(-1 3.62584e-17 0)
(-1 1.36756e-17 0)
(-1 -5.06175e-14 0)
(-1 1.16199e-14 0)
(-1 -2.31629e-15 0)
(-1 7.19035e-16 0)
(-1 -1.1066e-16 0)
(-1 5.58187e-17 0)
(-1 1.05427e-16 0)
(-1 6.07635e-17 0)
(-1 -5.83924e-17 0)
(-1 2.91154e-17 0)
(-1 -6.14972e-18 0)
(-1 -6.94552e-18 0)
(-1 -3.99798e-17 0)
(-1 -5.02829e-17 0)
(-1 -1.20642e-16 0)
(-1 5.31354e-18 0)
(-1 8.51926e-17 0)
(-1 2.08197e-17 0)
(-1 5.09542e-17 0)
(-1 6.80511e-17 0)
(-1 5.21456e-14 0)
(-1 -9.5379e-15 0)
(-1 2.82868e-15 0)
(-1 -6.73954e-17 0)
(-1 3.22775e-16 0)
(-1 1.14842e-16 0)
(-1 9.75035e-17 0)
(-1 -1.96526e-17 0)
(-1 -1.1856e-16 0)
(-1 -1.0521e-16 0)
(-1 -1.62492e-16 0)
(-1 -5.65019e-17 0)
(-1 5.65343e-17 0)
(-1 1.44902e-16 0)
(-1 5.23834e-17 0)
(-1 8.84881e-17 0)
(-1 1.78254e-16 0)
(-1 6.72095e-17 0)
(-1 9.60884e-19 0)
(-1 6.00759e-17 0)
(-1 7.30142e-16 0)
(-1 -5.36244e-16 0)
(-1 5.07387e-16 0)
(-1 1.64677e-16 0)
(-1 2.11751e-16 0)
(-1 2.09028e-17 0)
(-1 -8.35208e-17 0)
(-1 -1.18195e-17 0)
(-1 -5.87426e-18 0)
(-1 -5.58169e-17 0)
(-1 -1.38399e-17 0)
(-1 4.13976e-17 0)
(-1 -1.74039e-17 0)
(-1 -5.46402e-17 0)
(-1 -3.91712e-17 0)
(-1 -1.47201e-17 0)
(-1 -2.38243e-17 0)
(-1 4.68515e-17 0)
(-1 4.38801e-17 0)
(-1 5.01395e-17 0)
(-1 -7.19865e-14 0)
(-1 1.55921e-14 0)
(-1 -3.52344e-15 0)
(-1 8.85102e-16 0)
(-1 -8.10066e-17 0)
(-1 -6.01506e-18 0)
(-1 -1.43062e-16 0)
(-1 -9.89626e-17 0)
(-1 -6.5268e-17 0)
(-1 -1.20566e-16 0)
(-1 4.53905e-18 0)
(-1 3.44016e-17 0)
(-1 -2.99895e-17 0)
(-1 -3.79647e-17 0)
(-1 1.58171e-17 0)
(-1 -4.2932e-17 0)
(-1 -1.15129e-16 0)
(-1 -3.52935e-17 0)
(-1 1.78121e-17 0)
(-1 6.78071e-19 0)
(-1 9.94863e-14 0)
(-1 -2.09348e-14 0)
(-1 4.90183e-15 0)
(-1 -9.62109e-16 0)
(-1 2.45443e-16 0)
(-1 -3.25718e-17 0)
(-1 1.0178e-17 0)
(-1 -3.06097e-18 0)
(-1 1.35503e-16 0)
(-1 1.07352e-16 0)
(-1 -2.84234e-17 0)
(-1 -7.32849e-17 0)
(-1 1.87803e-17 0)
(-1 3.46035e-17 0)
(-1 9.79013e-17 0)
(-1 8.44775e-17 0)
(-1 1.43766e-16 0)
(-1 8.60403e-17 0)
(-1 9.58656e-18 0)
(-1 -1.31001e-17 0)
(-1 -7.35475e-14 0)
(-1 1.58951e-14 0)
(-1 -3.32958e-15 0)
(-1 9.22975e-16 0)
(-1 -1.67664e-16 0)
(-1 -7.21235e-17 0)
(-1 -7.73749e-17 0)
(-1 -1.79113e-17 0)
(-1 -3.5986e-17 0)
(-1 -7.4507e-17 0)
(-1 -1.40372e-16 0)
(-1 -8.34124e-17 0)
(-1 4.36669e-17 0)
(-1 8.49929e-17 0)
(-1 8.64571e-17 0)
(-1 1.14715e-17 0)
(-1 -2.80577e-18 0)
(-1 3.97787e-17 0)
(-1 8.7316e-17 0)
(-1 8.32577e-17 0)
(-1 2.29885e-14 0)
(-1 -4.37354e-15 0)
(-1 1.24272e-15 0)
(-1 -9.48075e-17 0)
(-1 1.1309e-16 0)
(-1 5.17512e-17 0)
(-1 1.14693e-16 0)
(-1 1.0848e-16 0)
(-1 -8.73752e-17 0)
(-1 -2.25545e-17 0)
(-1 1.60032e-16 0)
(-1 1.25901e-16 0)
(-1 7.53155e-17 0)
(-1 1.15235e-16 0)
(-1 7.85397e-17 0)
(-1 -5.6587e-17 0)
(-1 -9.72685e-17 0)
(-1 2.90119e-17 0)
(-1 1.2605e-16 0)
(-1 1.32754e-16 0)
(-1 2.64026e-14 0)
(-1 -5.33067e-15 0)
(-1 1.21281e-15 0)
(-1 -3.43183e-16 0)
(-1 1.71002e-17 0)
(-1 4.94952e-17 0)
(-1 9.03741e-17 0)
(-1 2.63796e-17 0)
(-1 -5.42257e-17 0)
(-1 -4.58922e-17 0)
(-1 2.37132e-18 0)
(-1 6.53037e-19 0)
(-1 4.90802e-17 0)
(-1 1.05079e-16 0)
(-1 1.84349e-17 0)
(-1 -2.43431e-17 0)
(-1 3.27773e-17 0)
(-1 3.13644e-17 0)
(-1 -5.44662e-17 0)
(-1 3.99436e-18 0)
(-1 -5.27552e-14 0)
(-1 1.09881e-14 0)
(-1 -2.56544e-15 0)
(-1 5.49443e-16 0)
(-1 -1.04529e-16 0)
(-1 9.08407e-17 0)
(-1 6.58067e-17 0)
(-1 3.14976e-17 0)
(-1 9.74966e-17 0)
(-1 4.8676e-17 0)
(-1 3.0662e-17 0)
(-1 1.36826e-16 0)
(-1 6.11292e-17 0)
(-1 -8.62472e-17 0)
(-1 -1.40536e-16 0)
(-1 -2.16022e-18 0)
(-1 8.71828e-17 0)
(-1 -6.58662e-18 0)
(-1 -9.69896e-17 0)
(-1 -1.69977e-17 0)
(-1 7.03257e-14 0)
(-1 -1.5213e-14 0)
(-1 3.49152e-15 0)
(-1 -7.89058e-16 0)
(-1 1.73494e-16 0)
(-1 1.74282e-17 0)
(-1 5.49287e-17 0)
(-1 1.54541e-17 0)
(-1 8.61057e-17 0)
(-1 1.57314e-16 0)
(-1 1.1991e-16 0)
(-1 5.52889e-17 0)
(-1 -1.00919e-16 0)
(-1 -1.60152e-16 0)
(-1 -5.97055e-18 0)
(-1 1.62508e-16 0)
(-1 1.05588e-16 0)
(-1 3.65775e-17 0)
(-1 3.42696e-17 0)
(-1 4.91515e-17 0)
(-1 -6.05673e-14 0)
(-1 1.32495e-14 0)
(-1 -3.2392e-15 0)
(-1 6.46913e-16 0)
(-1 -3.44485e-17 0)
(-1 1.39979e-16 0)
(-1 8.39934e-18 0)
(-1 -5.08337e-17 0)
(-1 -5.33129e-17 0)
(-1 -3.84741e-17 0)
(-1 -2.07905e-17 0)
(-1 2.7155e-18 0)
(-1 5.84387e-17 0)
(-1 3.80461e-17 0)
(-1 3.5454e-17 0)
(-1 1.7268e-17 0)
(-1 -5.91317e-17 0)
(-1 -4.22553e-17 0)
(-1 1.65932e-17 0)
(-1 8.09708e-18 0)
(-1 -1.53629e-15 0)
(-1 2.18845e-16 0)
(-1 1.22033e-16 0)
(-1 1.06941e-16 0)
(-1 1.05792e-16 0)
(-1 6.5339e-17 0)
(-1 3.53772e-17 0)
(-1 4.14255e-18 0)
(-1 -2.92519e-17 0)
(-1 -8.57597e-17 0)
(-1 2.32947e-17 0)
(-1 7.97632e-17 0)
(-1 3.66809e-17 0)
(-1 -5.64015e-17 0)
(-1 -8.48746e-17 0)
(-1 -4.88548e-17 0)
(-1 -5.6581e-18 0)
(-1 1.82254e-17 0)
(-1 -7.68322e-18 0)
(-1 -2.2347e-17 0)
(-1 7.95618e-14 0)
(-1 -1.72113e-14 0)
(-1 4.17198e-15 0)
(-1 -7.21891e-16 0)
(-1 1.81753e-16 0)
(-1 -2.45837e-17 0)
(-1 1.09115e-16 0)
(-1 1.19481e-16 0)
(-1 1.21505e-16 0)
(-1 5.64785e-17 0)
(-1 -2.20446e-17 0)
(-1 -2.02285e-16 0)
(-1 -2.04753e-16 0)
(-1 -1.06743e-16 0)
(-1 1.74659e-18 0)
(-1 7.7714e-17 0)
(-1 8.6541e-17 0)
(-1 1.19935e-16 0)
(-1 1.35468e-17 0)
(-1 4.91462e-18 0)
(-1 -5.03148e-14 0)
(-1 1.0571e-14 0)
(-1 -2.68835e-15 0)
(-1 6.52469e-16 0)
(-1 -1.72114e-17 0)
(-1 1.46692e-16 0)
(-1 1.54863e-16 0)
(-1 1.5731e-16 0)
(-1 1.14691e-16 0)
(-1 1.76911e-17 0)
(-1 -1.27065e-16 0)
(-1 -2.18825e-16 0)
(-1 -9.4586e-17 0)
(-1 -2.60102e-17 0)
(-1 -6.92766e-17 0)
(-1 -1.37592e-16 0)
(-1 3.69424e-17 0)
(-1 8.27803e-17 0)
(-1 -1.33719e-17 0)
(-1 -7.96249e-18 0)
(-1 -5.51498e-14 0)
(-1 1.16938e-14 0)
(-1 -2.77341e-15 0)
(-1 6.01885e-16 0)
(-1 -1.02357e-16 0)
(-1 3.14157e-17 0)
(-1 6.20958e-18 0)
(-1 -4.84787e-17 0)
(-1 -1.13451e-16 0)
(-1 -1.32684e-16 0)
(-1 -1.79332e-16 0)
(-1 -1.32181e-16 0)
(-1 -4.21142e-17 0)
(-1 1.29144e-17 0)
(-1 -6.23174e-17 0)
(-1 -1.72006e-16 0)
(-1 -5.73893e-18 0)
(-1 3.017e-17 0)
(-1 -1.8019e-17 0)
(-1 -2.37876e-17 0)
)
;

boundaryField
{
    movingWall
    {
        type            zeroGradient;
    }
    fixedWalls
    {
        type            zeroGradient;
    }
    frontAndBack
    {
        type            empty;
    }
}


// ************************************************************************* //
