/*--------------------------------*- C++ -*----------------------------------*\
| =========                 |                                                 |
| \\      /  F ield         | OpenFOAM: The Open Source CFD Toolbox           |
|  \\    /   O peration     | Version:  2312                                  |
|   \\  /    A nd           | Website:  www.openfoam.com                      |
|    \\/     M anipulation  |                                                 |
\*---------------------------------------------------------------------------*/
FoamFile
{
    version     2.0;
    format      ascii;
    arch        "LSB;label=32;scalar=64";
    class       volScalarField;
    location    "8.625";
    object      zeroGradient(epsilon);
}
// * * * * * * * * * * * * * * * * * * * * * * * * * * * * * * * * * * * * * //

dimensions      [0 2 -3 0 0 0 0];

internalField   nonuniform List<scalar> 
400
(
1.00884e-06
1.00884e-06
1.00884e-06
1.00884e-06
1.00884e-06
1.00884e-06
1.00884e-06
1.00884e-06
1.00884e-06
1.00883e-06
1.00883e-06
1.00883e-06
1.00883e-06
1.00883e-06
1.00883e-06
1.00883e-06
1.00883e-06
1.00883e-06
1.00883e-06
1.00883e-06
1.03478e-06
1.02333e-06
1.0243e-06
1.0247e-06
1.02551e-06
1.02592e-06
1.02673e-06
1.02715e-06
1.02797e-06
1.02839e-06
1.02921e-06
1.02964e-06
1.03047e-06
1.0309e-06
1.03174e-06
1.03218e-06
1.03302e-06
1.03347e-06
1.03389e-06
1.03454e-06
1.07645e-06
1.06417e-06
1.06523e-06
1.06567e-06
1.06654e-06
1.06698e-06
1.06787e-06
1.06831e-06
1.0692e-06
1.06964e-06
1.07053e-06
1.07098e-06
1.07188e-06
1.07233e-06
1.07323e-06
1.07369e-06
1.07459e-06
1.07506e-06
1.07551e-06
1.07619e-06
1.12116e-06
1.1082e-06
1.10932e-06
1.10978e-06
1.11071e-06
1.11118e-06
1.11211e-06
1.11257e-06
1.11351e-06
1.11398e-06
1.11492e-06
1.1154e-06
1.11634e-06
1.11682e-06
1.11777e-06
1.11825e-06
1.1192e-06
1.11969e-06
1.12017e-06
1.12089e-06
1.15962e-06
1.14606e-06
1.14724e-06
1.14772e-06
1.14869e-06
1.14917e-06
1.15014e-06
1.15063e-06
1.15161e-06
1.15211e-06
1.15309e-06
1.15359e-06
1.15457e-06
1.15508e-06
1.15607e-06
1.15658e-06
1.15757e-06
1.15808e-06
1.15858e-06
1.15934e-06
1.18824e-06
1.17422e-06
1.17544e-06
1.17593e-06
1.17693e-06
1.17744e-06
1.17844e-06
1.17895e-06
1.17996e-06
1.18047e-06
1.18148e-06
1.182e-06
1.18302e-06
1.18354e-06
1.18456e-06
1.18509e-06
1.18611e-06
1.18665e-06
1.18716e-06
1.18794e-06
1.20762e-06
1.19329e-06
1.19453e-06
1.19504e-06
1.19606e-06
1.19657e-06
1.1976e-06
1.19812e-06
1.19915e-06
1.19967e-06
1.20071e-06
1.20124e-06
1.20228e-06
1.20281e-06
1.20386e-06
1.20439e-06
1.20544e-06
1.20599e-06
1.20651e-06
1.20731e-06
1.22013e-06
1.2056e-06
1.20686e-06
1.20737e-06
1.20841e-06
1.20893e-06
1.20997e-06
1.2105e-06
1.21154e-06
1.21207e-06
1.21312e-06
1.21366e-06
1.21471e-06
1.21525e-06
1.21631e-06
1.21686e-06
1.21792e-06
1.21847e-06
1.21901e-06
1.21982e-06
1.22825e-06
1.21359e-06
1.21486e-06
1.21538e-06
1.21642e-06
1.21695e-06
1.218e-06
1.21853e-06
1.21959e-06
1.22012e-06
1.22118e-06
1.22172e-06
1.22279e-06
1.22333e-06
1.2244e-06
1.22495e-06
1.22602e-06
1.22658e-06
1.22712e-06
1.22793e-06
1.23389e-06
1.21914e-06
1.22041e-06
1.22094e-06
1.22199e-06
1.22252e-06
1.22358e-06
1.22411e-06
1.22517e-06
1.22571e-06
1.22678e-06
1.22732e-06
1.22839e-06
1.22894e-06
1.23001e-06
1.23057e-06
1.23165e-06
1.23221e-06
1.23275e-06
1.23357e-06
1.2383e-06
1.22348e-06
1.22476e-06
1.22529e-06
1.22634e-06
1.22687e-06
1.22794e-06
1.22847e-06
1.22954e-06
1.23008e-06
1.23115e-06
1.2317e-06
1.23278e-06
1.23333e-06
1.23441e-06
1.23496e-06
1.23605e-06
1.23661e-06
1.23715e-06
1.23798e-06
1.24225e-06
1.22736e-06
1.22865e-06
1.22918e-06
1.23024e-06
1.23077e-06
1.23184e-06
1.23238e-06
1.23345e-06
1.23399e-06
1.23507e-06
1.23562e-06
1.2367e-06
1.23725e-06
1.23834e-06
1.2389e-06
1.23998e-06
1.24055e-06
1.2411e-06
1.24193e-06
1.24617e-06
1.23122e-06
1.23251e-06
1.23304e-06
1.23411e-06
1.23465e-06
1.23572e-06
1.23626e-06
1.23734e-06
1.23788e-06
1.23896e-06
1.23951e-06
1.2406e-06
1.24115e-06
1.24224e-06
1.2428e-06
1.2439e-06
1.24447e-06
1.24501e-06
1.24585e-06
1.25032e-06
1.2353e-06
1.2366e-06
1.23713e-06
1.2382e-06
1.23874e-06
1.23982e-06
1.24036e-06
1.24144e-06
1.24199e-06
1.24307e-06
1.24363e-06
1.24472e-06
1.24528e-06
1.24637e-06
1.24693e-06
1.24803e-06
1.2486e-06
1.24915e-06
1.24999e-06
1.25478e-06
1.2397e-06
1.241e-06
1.24153e-06
1.24261e-06
1.24315e-06
1.24423e-06
1.24478e-06
1.24587e-06
1.24641e-06
1.24751e-06
1.24806e-06
1.24916e-06
1.24972e-06
1.25082e-06
1.25139e-06
1.25249e-06
1.25306e-06
1.25362e-06
1.25446e-06
1.25953e-06
1.24437e-06
1.24568e-06
1.24622e-06
1.2473e-06
1.24784e-06
1.24893e-06
1.24948e-06
1.25057e-06
1.25112e-06
1.25222e-06
1.25278e-06
1.25388e-06
1.25444e-06
1.25555e-06
1.25612e-06
1.25722e-06
1.2578e-06
1.25836e-06
1.2592e-06
1.26434e-06
1.24909e-06
1.25041e-06
1.25095e-06
1.25204e-06
1.25258e-06
1.25368e-06
1.25423e-06
1.25532e-06
1.25588e-06
1.25698e-06
1.25754e-06
1.25865e-06
1.25922e-06
1.26033e-06
1.2609e-06
1.26201e-06
1.26259e-06
1.26315e-06
1.264e-06
1.26876e-06
1.25345e-06
1.25477e-06
1.25531e-06
1.2564e-06
1.25695e-06
1.25805e-06
1.2586e-06
1.2597e-06
1.26026e-06
1.26137e-06
1.26193e-06
1.26304e-06
1.26361e-06
1.26473e-06
1.2653e-06
1.26642e-06
1.26701e-06
1.26757e-06
1.26842e-06
1.2722e-06
1.25713e-06
1.25841e-06
1.25893e-06
1.26e-06
1.26053e-06
1.2616e-06
1.26214e-06
1.26322e-06
1.26377e-06
1.26486e-06
1.26542e-06
1.26652e-06
1.26708e-06
1.26819e-06
1.26876e-06
1.26987e-06
1.27046e-06
1.27102e-06
1.27187e-06
1.27379e-06
1.27379e-06
1.27379e-06
1.27379e-06
1.27379e-06
1.27379e-06
1.27379e-06
1.27379e-06
1.27379e-06
1.27379e-06
1.27379e-06
1.27379e-06
1.27379e-06
1.27379e-06
1.27379e-06
1.27379e-06
1.27379e-06
1.27379e-06
1.27379e-06
1.27379e-06
)
;

boundaryField
{
    movingWall
    {
        type            zeroGradient;
    }
    fixedWalls
    {
        type            zeroGradient;
    }
    frontAndBack
    {
        type            empty;
    }
}


// ************************************************************************* //
