/*--------------------------------*- C++ -*----------------------------------*\
| =========                 |                                                 |
| \\      /  F ield         | OpenFOAM: The Open Source CFD Toolbox           |
|  \\    /   O peration     | Version:  2312                                  |
|   \\  /    A nd           | Website:  www.openfoam.com                      |
|    \\/     M anipulation  |                                                 |
\*---------------------------------------------------------------------------*/
FoamFile
{
    version     2.0;
    format      ascii;
    arch        "LSB;label=32;scalar=64";
    class       volVectorField;
    location    "6.125";
    object      diffU;
}
// * * * * * * * * * * * * * * * * * * * * * * * * * * * * * * * * * * * * * //

dimensions      [0 1 -1 0 0 0 0];

internalField   nonuniform List<vector> 
400
(
(0 0 0)
(2.60902e-14 -1.82706e-13 0)
(1.9984e-14 -1.42343e-13 0)
(2.06501e-14 -1.5187e-13 0)
(2.07612e-14 -1.49802e-13 0)
(2.08722e-14 -1.50177e-13 0)
(2.07612e-14 -1.50061e-13 0)
(2.06501e-14 -1.50102e-13 0)
(2.06501e-14 -1.50136e-13 0)
(2.04281e-14 -1.50158e-13 0)
(2.06501e-14 -1.5012e-13 0)
(2.05391e-14 -1.50129e-13 0)
(2.06501e-14 -1.5011e-13 0)
(2.03171e-14 -1.5011e-13 0)
(2.03171e-14 -1.50079e-13 0)
(2.02061e-14 -1.50049e-13 0)
(1.9984e-14 -1.50011e-13 0)
(2.02061e-14 -1.50135e-13 0)
(1.9984e-14 -1.50127e-13 0)
(2.02061e-14 -1.50131e-13 0)
(5.57332e-14 -1.34562e-13 0)
(1.08802e-14 -1.53532e-13 0)
(2.14273e-14 -1.49377e-13 0)
(2.04281e-14 -1.50424e-13 0)
(2.05391e-14 -1.50076e-13 0)
(2.07612e-14 -1.49962e-13 0)
(2.05391e-14 -1.49957e-13 0)
(2.03171e-14 -1.50093e-13 0)
(2.05391e-14 -1.50147e-13 0)
(2.05391e-14 -1.50086e-13 0)
(2.04281e-14 -1.50021e-13 0)
(2.02061e-14 -1.49981e-13 0)
(2.02061e-14 -1.49957e-13 0)
(1.9984e-14 -1.49996e-13 0)
(1.9984e-14 -1.50115e-13 0)
(2.02061e-14 -1.50014e-13 0)
(2.02061e-14 -1.4995e-13 0)
(2.03171e-14 -1.50075e-13 0)
(2.03171e-14 -1.50176e-13 0)
(1.9984e-14 -1.50224e-13 0)
(1.08802e-14 -2.94924e-13 0)
(2.26485e-14 -1.18261e-13 0)
(1.9762e-14 -1.57783e-13 0)
(1.95399e-14 -1.48598e-13 0)
(1.93179e-14 -1.50586e-13 0)
(1.95399e-14 -1.50102e-13 0)
(1.9762e-14 -1.50085e-13 0)
(2.04281e-14 -1.50028e-13 0)
(1.9984e-14 -1.50011e-13 0)
(1.95399e-14 -1.49945e-13 0)
(1.9762e-14 -1.50008e-13 0)
(1.9984e-14 -1.49982e-13 0)
(1.9984e-14 -1.49891e-13 0)
(1.9984e-14 -1.49886e-13 0)
(1.9984e-14 -1.50131e-13 0)
(1.9762e-14 -1.50185e-13 0)
(1.9984e-14 -1.50204e-13 0)
(2.03171e-14 -1.50133e-13 0)
(2.02061e-14 -1.50201e-13 0)
(2.03171e-14 -1.50229e-13 0)
(-6.66134e-16 -3.83007e-14 0)
(2.5091e-14 -1.74575e-13 0)
(1.95399e-14 -1.44408e-13 0)
(1.9984e-14 -1.51437e-13 0)
(1.9984e-14 -1.4997e-13 0)
(2.03171e-14 -1.50335e-13 0)
(1.9762e-14 -1.50155e-13 0)
(1.9762e-14 -1.50079e-13 0)
(1.9984e-14 -1.50043e-13 0)
(1.9984e-14 -1.5011e-13 0)
(2.04281e-14 -1.50147e-13 0)
(2.03171e-14 -1.5009e-13 0)
(1.9984e-14 -1.49981e-13 0)
(2.03171e-14 -1.49936e-13 0)
(2.06501e-14 -1.50041e-13 0)
(2.04281e-14 -1.50188e-13 0)
(2.02061e-14 -1.50254e-13 0)
(2.03171e-14 -1.50179e-13 0)
(2.02061e-14 -1.50198e-13 0)
(2.02061e-14 -1.50166e-13 0)
(4.35207e-14 -1.60849e-13 0)
(1.44329e-14 -1.47915e-13 0)
(2.10942e-14 -1.50616e-13 0)
(2.03171e-14 -1.50002e-13 0)
(2.03171e-14 -1.50134e-13 0)
(2.03171e-14 -1.50062e-13 0)
(2.03171e-14 -1.5009e-13 0)
(2.03171e-14 -1.50127e-13 0)
(2.04281e-14 -1.50195e-13 0)
(2.06501e-14 -1.50272e-13 0)
(2.05391e-14 -1.50139e-13 0)
(2.07612e-14 -1.49952e-13 0)
(2.04281e-14 -1.4989e-13 0)
(2.03171e-14 -1.50047e-13 0)
(2.04281e-14 -1.5004e-13 0)
(2.04281e-14 -1.50059e-13 0)
(2.03171e-14 -1.50125e-13 0)
(2.03171e-14 -1.50146e-13 0)
(2.02061e-14 -1.50161e-13 0)
(2.03171e-14 -1.50169e-13 0)
(1.22125e-14 -2.37179e-13 0)
(2.28706e-14 -1.31456e-13 0)
(2.08722e-14 -1.54385e-13 0)
(2.08722e-14 -1.49153e-13 0)
(2.06501e-14 -1.50227e-13 0)
(2.06501e-14 -1.5002e-13 0)
(2.06501e-14 -1.50134e-13 0)
(2.05391e-14 -1.501e-13 0)
(2.02061e-14 -1.50133e-13 0)
(1.9984e-14 -1.50178e-13 0)
(1.9762e-14 -1.50091e-13 0)
(1.9984e-14 -1.49974e-13 0)
(2.03171e-14 -1.49954e-13 0)
(2.04281e-14 -1.50011e-13 0)
(2.03171e-14 -1.50001e-13 0)
(2.03171e-14 -1.50056e-13 0)
(2.03171e-14 -1.5012e-13 0)
(2.02061e-14 -1.50128e-13 0)
(2.03171e-14 -1.5007e-13 0)
(2.04281e-14 -1.50106e-13 0)
(2.03171e-14 -4.52251e-14 0)
(2.10942e-14 -1.71996e-13 0)
(2.10942e-14 -1.44857e-13 0)
(2.03171e-14 -1.5108e-13 0)
(2.03171e-14 -1.49709e-13 0)
(2.04281e-14 -1.50078e-13 0)
(2.03171e-14 -1.50058e-13 0)
(2.04281e-14 -1.49971e-13 0)
(2.02061e-14 -1.49942e-13 0)
(2.05391e-14 -1.49988e-13 0)
(2.03171e-14 -1.50039e-13 0)
(2.03171e-14 -1.50124e-13 0)
(2.02061e-14 -1.50158e-13 0)
(2.02061e-14 -1.50028e-13 0)
(1.9984e-14 -1.50017e-13 0)
(2.04281e-14 -1.50084e-13 0)
(2.02061e-14 -1.50094e-13 0)
(2.02061e-14 -1.50071e-13 0)
(2.02061e-14 -1.50066e-13 0)
(2.03171e-14 -1.50077e-13 0)
(2.4647e-14 -1.7251e-13 0)
(1.73195e-14 -1.44961e-13 0)
(1.90958e-14 -1.5125e-13 0)
(1.9762e-14 -1.4977e-13 0)
(2.02061e-14 -1.50135e-13 0)
(2.03171e-14 -1.5007e-13 0)
(2.03171e-14 -1.50024e-13 0)
(2.04281e-14 -1.50036e-13 0)
(2.02061e-14 -1.50166e-13 0)
(2.03171e-14 -1.50078e-13 0)
(2.06501e-14 -1.50006e-13 0)
(2.05391e-14 -1.50089e-13 0)
(2.05391e-14 -1.50143e-13 0)
(2.04281e-14 -1.50019e-13 0)
(2.05391e-14 -1.49897e-13 0)
(2.05391e-14 -1.50018e-13 0)
(2.02061e-14 -1.50045e-13 0)
(1.9984e-14 -1.50094e-13 0)
(2.02061e-14 -1.50126e-13 0)
(2.03171e-14 -1.5009e-13 0)
(1.57652e-14 -2.15022e-13 0)
(2.18714e-14 -1.36983e-13 0)
(2.02061e-14 -1.53404e-13 0)
(1.9762e-14 -1.49607e-13 0)
(1.9762e-14 -1.50406e-13 0)
(1.9762e-14 -1.50167e-13 0)
(1.9762e-14 -1.5007e-13 0)
(1.9984e-14 -1.50162e-13 0)
(2.03171e-14 -1.50205e-13 0)
(1.9762e-14 -1.50151e-13 0)
(1.95399e-14 -1.50098e-13 0)
(1.9984e-14 -1.50048e-13 0)
(1.9984e-14 -1.50074e-13 0)
(1.9762e-14 -1.50013e-13 0)
(1.9762e-14 -1.49942e-13 0)
(2.04281e-14 -1.50041e-13 0)
(2.02061e-14 -1.49974e-13 0)
(1.9984e-14 -1.50082e-13 0)
(2.02061e-14 -1.50155e-13 0)
(2.03171e-14 -1.50099e-13 0)
(2.20934e-14 -7.27667e-14 0)
(1.9762e-14 -1.66649e-13 0)
(2.03171e-14 -1.46227e-13 0)
(1.9762e-14 -1.50949e-13 0)
(1.9984e-14 -1.50043e-13 0)
(1.9984e-14 -1.50219e-13 0)
(1.9762e-14 -1.50124e-13 0)
(1.9762e-14 -1.50189e-13 0)
(1.9762e-14 -1.50037e-13 0)
(1.9984e-14 -1.50022e-13 0)
(1.9984e-14 -1.50067e-13 0)
(1.9762e-14 -1.50078e-13 0)
(2.02061e-14 -1.50066e-13 0)
(1.9984e-14 -1.50106e-13 0)
(2.02061e-14 -1.50193e-13 0)
(2.02061e-14 -1.50096e-13 0)
(1.9984e-14 -1.50026e-13 0)
(2.02061e-14 -1.50032e-13 0)
(2.02061e-14 -1.5015e-13 0)
(2.02061e-14 -1.50149e-13 0)
(9.76996e-15 -2.10965e-13 0)
(2.12053e-14 -1.36975e-13 0)
(1.90958e-14 -1.53195e-13 0)
(2.03171e-14 -1.49453e-13 0)
(1.9984e-14 -1.50347e-13 0)
(1.9762e-14 -1.50133e-13 0)
(1.9984e-14 -1.50104e-13 0)
(1.9762e-14 -1.50152e-13 0)
(1.9984e-14 -1.50195e-13 0)
(1.95399e-14 -1.50127e-13 0)
(1.9762e-14 -1.5013e-13 0)
(2.02061e-14 -1.50208e-13 0)
(2.02061e-14 -1.50149e-13 0)
(2.03171e-14 -1.50136e-13 0)
(2.04281e-14 -1.50148e-13 0)
(2.02061e-14 -1.50056e-13 0)
(2.02061e-14 -1.50138e-13 0)
(2.02061e-14 -1.50076e-13 0)
(2.03171e-14 -1.50098e-13 0)
(2.02061e-14 -1.50095e-13 0)
(3.78586e-14 -9.44909e-14 0)
(1.88738e-14 -1.61845e-13 0)
(2.27596e-14 -1.47277e-13 0)
(2.05391e-14 -1.50626e-13 0)
(2.10942e-14 -1.49884e-13 0)
(2.06501e-14 -1.50085e-13 0)
(2.05391e-14 -1.50021e-13 0)
(2.06501e-14 -1.50024e-13 0)
(2.05391e-14 -1.50169e-13 0)
(2.04281e-14 -1.50153e-13 0)
(2.04281e-14 -1.50157e-13 0)
(2.03171e-14 -1.50267e-13 0)
(2.03171e-14 -1.50204e-13 0)
(2.04281e-14 -1.50108e-13 0)
(2.06501e-14 -1.50024e-13 0)
(2.04281e-14 -1.49987e-13 0)
(2.03171e-14 -1.50048e-13 0)
(2.04281e-14 -1.50059e-13 0)
(2.03171e-14 -1.49999e-13 0)
(2.02061e-14 -1.49998e-13 0)
(4.66294e-15 -1.67814e-13 0)
(2.06501e-14 -1.46277e-13 0)
(1.70974e-14 -1.50892e-13 0)
(1.95399e-14 -1.49878e-13 0)
(1.90958e-14 -1.50076e-13 0)
(1.9762e-14 -1.49929e-13 0)
(1.95399e-14 -1.49929e-13 0)
(1.9762e-14 -1.49936e-13 0)
(1.9762e-14 -1.4999e-13 0)
(1.93179e-14 -1.50123e-13 0)
(1.95399e-14 -1.50229e-13 0)
(1.9762e-14 -1.50225e-13 0)
(1.95399e-14 -1.50181e-13 0)
(1.95399e-14 -1.50209e-13 0)
(1.95399e-14 -1.5017e-13 0)
(1.95399e-14 -1.50003e-13 0)
(1.9762e-14 -1.50046e-13 0)
(1.9984e-14 -1.50091e-13 0)
(1.9984e-14 -1.50051e-13 0)
(1.9984e-14 -1.50077e-13 0)
(2.53131e-14 -2.11334e-13 0)
(2.02061e-14 -1.36542e-13 0)
(2.10942e-14 -1.53155e-13 0)
(1.95399e-14 -1.49406e-13 0)
(1.95399e-14 -1.50332e-13 0)
(1.88738e-14 -1.50102e-13 0)
(1.93179e-14 -1.502e-13 0)
(1.95399e-14 -1.50224e-13 0)
(1.9984e-14 -1.50239e-13 0)
(2.04281e-14 -1.50305e-13 0)
(2.04281e-14 -1.50337e-13 0)
(2.03171e-14 -1.50188e-13 0)
(2.02061e-14 -1.50085e-13 0)
(2.04281e-14 -1.50148e-13 0)
(2.02061e-14 -1.50138e-13 0)
(2.02061e-14 -1.50098e-13 0)
(2.03171e-14 -1.50166e-13 0)
(2.02061e-14 -1.50174e-13 0)
(2.02061e-14 -1.5017e-13 0)
(2.04281e-14 -1.50131e-13 0)
(5.32907e-15 -3.31538e-14 0)
(2.27596e-14 -1.75132e-13 0)
(1.88738e-14 -1.43988e-13 0)
(2.08722e-14 -1.51121e-13 0)
(2.04281e-14 -1.49591e-13 0)
(2.03171e-14 -1.50201e-13 0)
(2.05391e-14 -1.50361e-13 0)
(2.05391e-14 -1.50416e-13 0)
(2.03171e-14 -1.50357e-13 0)
(1.9984e-14 -1.50295e-13 0)
(2.02061e-14 -1.5024e-13 0)
(1.9762e-14 -1.50202e-13 0)
(1.9984e-14 -1.50167e-13 0)
(1.9984e-14 -1.50078e-13 0)
(1.9984e-14 -1.50087e-13 0)
(2.02061e-14 -1.50194e-13 0)
(1.9984e-14 -1.50144e-13 0)
(2.02061e-14 -1.50075e-13 0)
(2.02061e-14 -1.50147e-13 0)
(2.02061e-14 -1.50101e-13 0)
(4.28546e-14 -2.26123e-13 0)
(1.44329e-14 -1.3407e-13 0)
(2.10942e-14 -1.54096e-13 0)
(1.9762e-14 -1.49385e-13 0)
(2.03171e-14 -1.50338e-13 0)
(2.06501e-14 -1.50139e-13 0)
(2.03171e-14 -1.50199e-13 0)
(2.05391e-14 -1.50192e-13 0)
(2.04281e-14 -1.50088e-13 0)
(2.05391e-14 -1.5012e-13 0)
(2.06501e-14 -1.50074e-13 0)
(2.05391e-14 -1.50057e-13 0)
(2.03171e-14 -1.50142e-13 0)
(2.02061e-14 -1.50207e-13 0)
(2.05391e-14 -1.50232e-13 0)
(2.03171e-14 -1.50216e-13 0)
(1.9984e-14 -1.50136e-13 0)
(1.9984e-14 -1.50143e-13 0)
(2.02061e-14 -1.50148e-13 0)
(2.02061e-14 -1.50102e-13 0)
(-3.10862e-15 -1.71271e-13 0)
(2.66454e-14 -1.45662e-13 0)
(1.93179e-14 -1.51134e-13 0)
(2.05391e-14 -1.49903e-13 0)
(2.02061e-14 -1.50217e-13 0)
(1.9762e-14 -1.50187e-13 0)
(1.9984e-14 -1.50237e-13 0)
(1.9762e-14 -1.50285e-13 0)
(1.95399e-14 -1.50291e-13 0)
(1.9762e-14 -1.5031e-13 0)
(1.9984e-14 -1.50259e-13 0)
(1.9984e-14 -1.50156e-13 0)
(2.03171e-14 -1.50166e-13 0)
(2.04281e-14 -1.50172e-13 0)
(2.03171e-14 -1.50181e-13 0)
(2.03171e-14 -1.5016e-13 0)
(2.04281e-14 -1.50084e-13 0)
(2.04281e-14 -1.50138e-13 0)
(2.03171e-14 -1.50108e-13 0)
(2.03171e-14 -1.50052e-13 0)
(2.38698e-14 -5.73877e-14 0)
(1.9762e-14 -1.69978e-13 0)
(2.04281e-14 -1.45344e-13 0)
(2.02061e-14 -1.51e-13 0)
(2.04281e-14 -1.49772e-13 0)
(2.04281e-14 -1.50166e-13 0)
(2.04281e-14 -1.50186e-13 0)
(2.04281e-14 -1.50233e-13 0)
(2.05391e-14 -1.50327e-13 0)
(2.05391e-14 -1.5037e-13 0)
(2.03171e-14 -1.50364e-13 0)
(2.06501e-14 -1.5027e-13 0)
(2.02061e-14 -1.50235e-13 0)
(2.04281e-14 -1.50194e-13 0)
(2.02061e-14 -1.50233e-13 0)
(2.05391e-14 -1.50196e-13 0)
(2.03171e-14 -1.5005e-13 0)
(2.03171e-14 -1.49982e-13 0)
(2.02061e-14 -1.50024e-13 0)
(2.02061e-14 -1.50061e-13 0)
(4.06342e-14 -1.79965e-13 0)
(1.4877e-14 -1.43929e-13 0)
(2.04281e-14 -1.51722e-13 0)
(2.02061e-14 -1.49936e-13 0)
(2.05391e-14 -1.50219e-13 0)
(2.03171e-14 -1.50111e-13 0)
(2.03171e-14 -1.50155e-13 0)
(2.02061e-14 -1.5016e-13 0)
(2.02061e-14 -1.50174e-13 0)
(2.02061e-14 -1.50213e-13 0)
(1.9762e-14 -1.50223e-13 0)
(1.9984e-14 -1.50205e-13 0)
(1.9984e-14 -1.50211e-13 0)
(2.02061e-14 -1.5028e-13 0)
(1.9984e-14 -1.50235e-13 0)
(1.9984e-14 -1.5021e-13 0)
(1.9984e-14 -1.50154e-13 0)
(1.9984e-14 -1.50004e-13 0)
(2.02061e-14 -1.50039e-13 0)
(2.02061e-14 -1.50149e-13 0)
(1.17684e-14 -2.35499e-13 0)
(2.33147e-14 -1.32031e-13 0)
(2.13163e-14 -1.54447e-13 0)
(2.08722e-14 -1.49291e-13 0)
(2.08722e-14 -1.50311e-13 0)
(2.08722e-14 -1.50048e-13 0)
(2.08722e-14 -1.50151e-13 0)
(2.07612e-14 -1.50165e-13 0)
(2.08722e-14 -1.50146e-13 0)
(2.08722e-14 -1.50159e-13 0)
(2.08722e-14 -1.50219e-13 0)
(2.06501e-14 -1.50236e-13 0)
(2.06501e-14 -1.50228e-13 0)
(2.03171e-14 -1.50234e-13 0)
(2.02061e-14 -1.50155e-13 0)
(2.03171e-14 -1.50171e-13 0)
(2.02061e-14 -1.5018e-13 0)
(1.9984e-14 -1.50084e-13 0)
(2.03171e-14 -1.50091e-13 0)
(2.03171e-14 -1.50149e-13 0)
)
;

boundaryField
{
    movingWall
    {
        type            calculated;
        value           uniform (2.02061e-14 -1.50117e-13 0);
    }
    fixedWalls
    {
        type            calculated;
        value           uniform (2.02061e-14 -1.50117e-13 0);
    }
    frontAndBack
    {
        type            empty;
    }
}


// ************************************************************************* //
