/*--------------------------------*- C++ -*----------------------------------*\
| =========                 |                                                 |
| \\      /  F ield         | OpenFOAM: The Open Source CFD Toolbox           |
|  \\    /   O peration     | Version:  2312                                  |
|   \\  /    A nd           | Website:  www.openfoam.com                      |
|    \\/     M anipulation  |                                                 |
\*---------------------------------------------------------------------------*/
FoamFile
{
    version     2.0;
    format      ascii;
    arch        "LSB;label=32;scalar=64";
    class       volScalarField;
    location    "6.125";
    object      divU;
}
// * * * * * * * * * * * * * * * * * * * * * * * * * * * * * * * * * * * * * //

dimensions      [0 0 -1 0 0 0 0];

internalField   nonuniform List<scalar> 
400
(
1.51517e-11
-1.6218e-12
3.09252e-13
-1.51826e-13
8.97481e-14
9.5408e-15
-3.26282e-14
3.89801e-15
-3.20505e-14
-1.00664e-15
3.63281e-14
1.23348e-14
-1.05014e-14
-1.43154e-14
3.9133e-15
-1.00804e-14
-2.6935e-14
5.65748e-14
-6.84805e-15
0
-2.6834e-11
3.0338e-12
-6.11307e-13
2.56697e-13
-4.28324e-14
1.69529e-14
-3.50687e-14
1.12309e-14
7.56329e-15
2.0332e-14
-6.67667e-15
-1.72647e-17
1.14678e-14
-1.9e-14
5.29922e-14
-2.3675e-14
7.99709e-15
2.51474e-15
-4.14122e-14
-2.71051e-14
8.94467e-12
-1.23893e-12
2.37946e-13
-1.42766e-13
2.20051e-14
6.71009e-15
5.34997e-14
1.25903e-14
-6.33011e-14
-9.15834e-15
-1.92645e-14
1.61715e-14
9.06805e-15
1.41562e-14
-2.08998e-14
1.3125e-14
3.17967e-14
-7.90555e-15
3.76718e-14
-2.71051e-14
1.17907e-11
-9.24644e-13
1.95752e-13
-1.2054e-13
9.42623e-14
-4.34261e-14
-2.82789e-14
2.78147e-15
-3.73926e-16
1.23466e-14
4.89516e-14
-6.21463e-14
9.15273e-15
2.51235e-14
1.52724e-14
-1.33017e-15
-1.45314e-14
-9.13561e-15
1.46443e-14
2.71051e-14
-1.81604e-11
2.05911e-12
-3.95413e-13
1.34915e-13
-1.27565e-14
4.23413e-14
1.00331e-15
7.47103e-16
1.77501e-14
3.26402e-14
3.47444e-16
3.68703e-15
-1.51619e-14
-9.54791e-15
-7.78888e-15
1.1955e-14
-1.1696e-15
-3.11007e-14
3.65943e-16
0
1.10318e-11
-1.54158e-12
3.97252e-13
-1.35497e-13
2.64051e-15
-1.34611e-14
4.24891e-15
-1.0842e-14
-3.82444e-14
-2.0274e-14
-1.67301e-14
6.77512e-14
3.93286e-14
-7.70899e-15
-3.26104e-14
9.43572e-15
2.01286e-15
-2.36335e-14
6.39971e-14
-5.42101e-14
6.53232e-12
-1.23864e-12
2.22928e-13
-1.42983e-13
3.8931e-14
-1.85305e-14
1.52385e-14
-3.15292e-14
1.25957e-14
1.6756e-14
-8.22987e-15
-2.50534e-14
-6.68522e-15
-8.45946e-15
4.89629e-15
4.02831e-14
-1.7579e-14
6.84429e-15
3.12362e-14
-2.71051e-14
-1.68051e-11
2.94023e-12
-6.31755e-13
2.75408e-13
-3.65836e-15
2.67404e-14
1.40456e-14
-5.05425e-14
-1.37007e-14
3.9069e-16
1.29234e-14
-1.73972e-14
1.75067e-15
-6.93853e-15
1.23776e-14
1.74745e-14
-3.27343e-14
5.74317e-15
2.2345e-14
-2.71051e-14
9.70361e-12
-1.69516e-12
2.49993e-13
-1.40615e-13
5.57947e-15
-1.52613e-14
-2.30671e-14
6.96303e-14
-2.78702e-14
-2.10815e-14
6.79879e-15
3.78995e-14
9.42571e-15
-4.27155e-14
6.40421e-14
9.67252e-15
-3.08496e-14
1.20121e-14
-7.10674e-15
0
5.42101e-13
-1.76424e-13
2.70138e-14
1.02566e-14
1.14694e-14
-1.18613e-14
5.66828e-16
-1.07266e-14
1.59967e-16
3.56179e-14
-2.34889e-14
2.18806e-14
1.89748e-15
-7.79168e-16
4.34374e-14
-4.60873e-14
-2.0171e-14
6.68032e-14
-1.42346e-15
0
-3.08998e-12
1.41537e-12
-1.86425e-13
1.23885e-13
-2.68787e-14
-2.55594e-14
3.79424e-14
-2.13545e-14
-1.30024e-14
-4.58034e-15
2.17845e-14
3.01199e-14
-1.189e-14
5.31913e-14
-2.09198e-14
-8.08324e-15
4.76587e-15
3.69224e-14
1.36382e-14
0
5.96311e-12
-2.4693e-12
4.233e-13
-2.43856e-13
5.44982e-14
-5.93466e-14
5.54609e-14
2.73052e-14
-1.96199e-14
-4.1988e-15
-1.51991e-14
-2.58254e-14
1.2041e-14
-8.33619e-15
3.98504e-15
-2.71195e-15
-1.31161e-14
3.54122e-14
-6.2921e-14
0
-1.32002e-11
3.7743e-12
-6.79462e-13
2.84725e-13
9.76076e-15
4.74474e-14
-7.08395e-14
3.44506e-14
-5.37445e-14
-7.36328e-14
1.02303e-13
9.13007e-15
-3.02772e-14
-1.23877e-14
-7.46125e-15
4.04633e-14
-2.493e-14
2.39914e-14
-2.58221e-14
2.71051e-14
1.39862e-11
-3.3125e-12
6.34381e-13
-3.00343e-13
3.96431e-15
-6.10773e-14
4.8557e-14
1.36413e-14
4.51712e-14
4.46874e-14
-3.43094e-14
-1.56607e-14
2.52869e-14
7.46856e-16
-2.6236e-14
2.13071e-14
-7.62835e-15
-2.86079e-14
1.87994e-14
-2.71051e-14
-2.73761e-12
1.62389e-12
-2.99955e-13
1.62505e-13
-2.37462e-14
-1.0604e-14
-5.54196e-15
-1.03094e-14
-4.81471e-14
-4.52087e-14
1.91092e-14
-2.5355e-15
1.95258e-14
-5.10513e-15
-8.47032e-15
3.65838e-14
-4.60909e-15
1.54526e-15
-6.08182e-15
0
-1.2116e-11
7.76194e-13
-1.74286e-13
1.3265e-14
4.92152e-14
-9.21247e-15
6.86718e-15
2.77313e-15
1.26043e-14
7.52425e-15
-9.93774e-15
2.08816e-15
-3.45967e-14
-1.45678e-14
9.28087e-15
-4.1294e-14
-5.28116e-14
4.9457e-14
-2.18497e-15
0
1.51788e-11
-1.37801e-12
2.67199e-13
-3.97877e-14
-5.68837e-14
-3.90467e-14
8.13973e-15
-5.55441e-14
4.28575e-14
-1.74605e-14
-1.18414e-14
3.50034e-14
3.74367e-14
1.3878e-14
-1.7951e-14
4.20223e-14
9.93306e-15
-1.57541e-14
1.01709e-14
-2.71051e-14
-5.69206e-13
-1.74726e-13
1.86269e-14
-1.59649e-14
2.42054e-14
-4.36194e-15
1.63337e-14
1.11497e-14
3.81815e-16
1.93076e-14
-8.21582e-15
3.03031e-15
-2.12247e-14
-2.39888e-14
3.73026e-15
9.86432e-15
-2.41692e-14
-2.35088e-15
1.70724e-14
0
-1.62901e-11
1.77685e-12
-4.03735e-13
2.09148e-13
-5.67631e-14
-1.96149e-14
-3.43159e-14
1.79839e-14
1.84708e-14
-4.09209e-14
-2.08469e-14
3.34858e-14
6.5841e-15
5.3307e-14
-4.27395e-14
1.23537e-14
-1.00182e-14
4.16686e-14
-1.67252e-14
0
1.09775e-11
-1.46367e-12
3.52366e-13
-1.6263e-13
2.71051e-14
0
0
0
0
2.71051e-14
0
0
0
-2.71051e-14
2.71051e-14
2.71051e-14
-5.42101e-14
2.71051e-14
2.71051e-14
-2.71051e-14
)
;

boundaryField
{
    movingWall
    {
        type            extrapolatedCalculated;
        value           nonuniform List<scalar> 
20
(
1.09775e-11
-1.46367e-12
3.52366e-13
-1.6263e-13
2.71051e-14
0
0
0
0
2.71051e-14
0
0
0
-2.71051e-14
2.71051e-14
2.71051e-14
-5.42101e-14
2.71051e-14
2.71051e-14
-2.71051e-14
)
;
    }
    fixedWalls
    {
        type            extrapolatedCalculated;
        value           nonuniform List<scalar> 
60
(
1.51517e-11
-2.6834e-11
8.94467e-12
1.17907e-11
-1.81604e-11
1.10318e-11
6.53232e-12
-1.68051e-11
9.70361e-12
5.42101e-13
-3.08998e-12
5.96311e-12
-1.32002e-11
1.39862e-11
-2.73761e-12
-1.2116e-11
1.51788e-11
-5.69206e-13
-1.62901e-11
1.09775e-11
0
-2.71051e-14
-2.71051e-14
2.71051e-14
0
-5.42101e-14
-2.71051e-14
-2.71051e-14
0
0
0
0
2.71051e-14
-2.71051e-14
0
0
-2.71051e-14
0
0
-2.71051e-14
1.51517e-11
-1.6218e-12
3.09252e-13
-1.51826e-13
8.97481e-14
9.5408e-15
-3.26282e-14
3.89801e-15
-3.20505e-14
-1.00664e-15
3.63281e-14
1.23348e-14
-1.05014e-14
-1.43154e-14
3.9133e-15
-1.00804e-14
-2.6935e-14
5.65748e-14
-6.84805e-15
0
)
;
    }
    frontAndBack
    {
        type            empty;
    }
}


// ************************************************************************* //
