/*--------------------------------*- C++ -*----------------------------------*\
| =========                 |                                                 |
| \\      /  F ield         | OpenFOAM: The Open Source CFD Toolbox           |
|  \\    /   O peration     | Version:  2312                                  |
|   \\  /    A nd           | Website:  www.openfoam.com                      |
|    \\/     M anipulation  |                                                 |
\*---------------------------------------------------------------------------*/
FoamFile
{
    version     2.0;
    format      ascii;
    arch        "LSB;label=32;scalar=64";
    class       volScalarField;
    location    "6.125";
    object      enstrophyField;
}
// * * * * * * * * * * * * * * * * * * * * * * * * * * * * * * * * * * * * * //

dimensions      [0 0 -2 0 0 0 0];

internalField   nonuniform List<scalar> 
400
(
5.20992e-23
9.59786e-23
4.50682e-24
3.42119e-25
1.85849e-27
1.3029e-26
2.72607e-27
1.90389e-27
3.78052e-27
1.38507e-27
1.3172e-27
1.41602e-27
1.36493e-27
4.81873e-30
1.83285e-29
2.3003e-29
1.04149e-27
6.64811e-29
9.01665e-32
2.76924e-30
8.41824e-27
6.3746e-25
4.83107e-26
7.40221e-28
1.65102e-26
1.08735e-26
2.32534e-27
3.26017e-29
1.50945e-27
7.3218e-27
2.09097e-27
1.83602e-27
5.71519e-27
7.37869e-28
1.37239e-27
2.50555e-27
1.81802e-27
1.23491e-27
1.11092e-28
1.37965e-28
1.60023e-23
7.53687e-23
3.96745e-24
2.78884e-25
7.60191e-27
5.43302e-27
3.93495e-27
3.93981e-27
4.02142e-27
3.74821e-28
6.85245e-30
6.91155e-29
4.63642e-29
3.0581e-27
6.19114e-27
2.7114e-29
1.76325e-27
4.14615e-32
4.56294e-29
2.78627e-29
1.50325e-23
4.79963e-23
2.3139e-24
2.03215e-25
4.15718e-28
4.98509e-27
1.15079e-30
6.3534e-29
1.63708e-27
7.06483e-27
1.36677e-27
7.08188e-28
7.50778e-28
5.4704e-28
1.37214e-27
8.40779e-27
3.23328e-27
1.56079e-29
9.38886e-31
8.03661e-28
2.31995e-24
7.68977e-25
5.92509e-26
1.84343e-29
1.80844e-27
2.57428e-28
6.60166e-27
7.06774e-27
8.66724e-28
1.54761e-29
3.71613e-27
1.35439e-27
2.02984e-27
8.86987e-28
6.87758e-31
3.6544e-29
3.78949e-29
2.7821e-28
2.82433e-30
9.943e-28
1.01661e-23
2.90995e-23
1.5659e-24
7.55548e-26
3.75352e-27
4.36667e-29
3.20292e-29
6.532e-33
1.86586e-28
4.88092e-28
2.78047e-27
8.3497e-28
2.73211e-28
2.50579e-28
1.23906e-27
1.15041e-28
2.62443e-29
1.27617e-29
2.37653e-30
1.67629e-29
2.48826e-23
4.43788e-23
2.5407e-24
6.11306e-26
1.19304e-26
6.06979e-28
7.11695e-28
6.73095e-29
1.3524e-30
2.04415e-27
7.45076e-27
2.18602e-27
1.53488e-28
9.93305e-29
5.32557e-28
6.03965e-28
4.02876e-28
1.62063e-27
1.86337e-31
1.63209e-28
7.97492e-25
2.14614e-24
5.9646e-26
9.59897e-27
2.92662e-28
7.14845e-27
3.59541e-27
7.98588e-28
9.16042e-30
7.74135e-27
1.41285e-27
9.05304e-29
1.87393e-27
5.60815e-27
3.69065e-28
1.09892e-28
2.89902e-29
3.29416e-29
1.13129e-31
1.62481e-30
1.20352e-23
1.73507e-23
9.77017e-25
4.49415e-26
4.18045e-28
1.84617e-27
3.82364e-28
8.2862e-28
1.52426e-27
5.63373e-29
4.20308e-27
6.14904e-27
5.94799e-30
8.09837e-28
1.32379e-27
2.86162e-28
8.47423e-30
1.64149e-28
1.36298e-30
1.98988e-30
2.21177e-23
2.63881e-23
1.36351e-24
8.3515e-26
1.05104e-27
3.27728e-29
4.58355e-30
6.40923e-28
1.39531e-28
2.893e-28
5.34782e-28
3.63275e-28
3.77829e-30
4.42261e-27
3.23061e-27
9.5989e-28
2.08428e-29
2.21501e-27
6.88748e-29
5.64228e-28
1.99433e-23
1.73193e-23
1.07266e-24
1.55423e-26
1.55561e-26
1.62545e-27
3.4618e-27
4.08787e-27
1.3352e-27
2.12137e-28
3.31147e-29
1.57244e-27
1.98221e-28
1.46592e-27
1.83104e-28
3.40828e-28
1.97227e-30
2.67136e-28
4.19005e-28
8.31123e-30
1.18961e-23
1.37893e-23
8.60167e-25
1.15957e-26
5.85985e-27
9.3673e-29
1.81853e-27
1.08561e-28
8.2756e-29
6.89969e-31
6.46586e-29
1.22561e-27
4.72318e-27
7.9925e-27
7.2592e-27
3.11255e-27
1.10411e-27
5.11575e-28
5.52091e-28
2.79881e-28
9.64155e-27
1.21157e-24
1.94982e-26
1.32774e-26
1.70518e-26
2.08867e-26
9.08067e-27
2.82597e-27
1.96416e-27
2.84623e-28
5.25805e-29
1.16902e-29
1.29914e-30
5.38211e-31
2.13359e-28
7.7126e-29
3.93167e-29
1.13489e-31
1.05022e-30
5.63441e-29
1.16091e-23
1.56862e-23
1.04974e-24
1.07744e-26
2.10348e-26
8.42154e-28
1.09166e-26
4.79862e-28
4.00017e-27
2.05052e-27
2.42296e-27
3.17899e-28
1.26177e-27
1.77231e-27
1.20645e-27
1.62413e-27
1.91052e-27
8.64091e-32
8.97523e-30
2.06959e-28
2.76243e-23
5.5274e-23
2.88272e-24
1.72564e-25
5.71798e-29
3.55732e-26
8.43522e-27
5.82462e-27
8.87878e-28
6.80222e-29
1.59143e-28
1.1014e-27
7.72804e-29
3.21104e-29
6.76703e-29
1.63243e-29
2.18524e-27
3.42169e-32
3.26343e-30
4.05313e-28
1.32908e-23
2.3464e-23
1.25721e-24
8.11637e-26
1.16535e-27
2.31857e-27
1.19393e-27
2.13378e-27
6.68869e-27
9.55421e-31
5.58071e-28
2.35271e-29
8.86497e-28
6.48356e-28
1.51788e-27
1.53649e-28
1.10158e-27
7.33419e-31
2.63535e-28
3.25819e-28
2.5869e-26
1.0828e-24
6.83967e-26
7.00992e-28
1.54098e-27
1.36168e-27
4.77759e-29
1.19222e-27
3.09817e-30
5.05845e-30
9.01865e-28
1.58409e-28
1.36793e-30
4.07058e-28
1.53882e-27
1.52382e-28
1.35442e-27
1.60079e-27
6.39714e-28
2.77576e-29
4.35122e-24
2.91093e-23
1.60097e-24
7.5517e-26
1.58239e-27
1.12189e-26
5.72147e-28
4.55327e-27
7.44901e-27
1.67502e-27
2.06105e-27
8.27844e-29
3.95596e-27
3.74152e-28
1.45707e-27
2.62426e-27
2.85656e-27
1.61427e-27
3.14084e-29
7.55932e-29
6.88517e-25
3.05536e-24
2.32534e-25
4.61318e-27
2.57464e-27
2.14438e-28
1.74529e-27
4.18876e-28
1.40974e-29
1.21433e-29
3.23859e-27
7.5502e-31
3.94831e-27
2.8805e-30
1.11556e-27
3.25957e-29
2.12588e-28
2.16065e-27
8.63497e-28
5.0386e-28
1.53292e-23
3.11136e-23
1.2648e-24
1.09399e-25
5.35658e-28
4.74013e-27
2.42033e-27
1.49198e-27
1.50291e-27
1.10101e-27
1.87449e-28
3.43277e-28
3.74531e-28
5.91396e-28
1.97283e-29
3.02059e-30
3.78031e-29
1.02779e-27
2.12066e-28
3.85416e-28
)
;

boundaryField
{
    movingWall
    {
        type            calculated;
        value           nonuniform List<scalar> 
20
(
5.10525e-23
4.36992e-23
8.21647e-25
2.31201e-25
1.81955e-26
3.99045e-26
3.24394e-26
2.47442e-26
3.56629e-26
3.35843e-26
3.34656e-26
1.56172e-26
1.58241e-26
1.33622e-27
1.97283e-29
8.79945e-28
3.78031e-29
3.1957e-27
7.18142e-28
1.01555e-27
)
;
    }
    fixedWalls
    {
        type            calculated;
        value           nonuniform List<scalar> 
60
(
1.71123e-21
1.31981e-23
1.36686e-21
8.6004e-22
1.56449e-23
5.27924e-22
8.28648e-22
3.60941e-23
3.30018e-22
4.96417e-22
3.34995e-22
2.58515e-22
1.70054e-23
3.01135e-22
1.01355e-21
4.36966e-22
2.15438e-23
5.3644e-22
5.7747e-23
5.4319e-22
1.50661e-29
9.23496e-28
1.5655e-28
1.08849e-27
5.50961e-28
9.01499e-30
6.25677e-29
5.96153e-29
2.7025e-29
7.98378e-28
3.96649e-29
1.12745e-27
1.28586e-28
2.28085e-28
2.13038e-28
5.50844e-28
3.41787e-28
1.19722e-29
1.03665e-28
7.99814e-28
1.96717e-22
1.37581e-22
5.03208e-24
4.26433e-25
1.3864e-27
4.27352e-26
2.30197e-26
1.71371e-26
1.67948e-26
3.8054e-27
1.52691e-26
8.74285e-27
1.54306e-26
8.53031e-28
7.35531e-28
2.3003e-29
3.21983e-27
6.64811e-29
3.98211e-27
2.76924e-30
)
;
    }
    frontAndBack
    {
        type            empty;
    }
}


// ************************************************************************* //
