/*--------------------------------*- C++ -*----------------------------------*\
| =========                 |                                                 |
| \\      /  F ield         | OpenFOAM: The Open Source CFD Toolbox           |
|  \\    /   O peration     | Version:  2312                                  |
|   \\  /    A nd           | Website:  www.openfoam.com                      |
|    \\/     M anipulation  |                                                 |
\*---------------------------------------------------------------------------*/
FoamFile
{
    version     2.0;
    format      ascii;
    arch        "LSB;label=32;scalar=64";
    class       volScalarField;
    location    "6.125";
    object      epsilonzeroGrad;
}
// * * * * * * * * * * * * * * * * * * * * * * * * * * * * * * * * * * * * * //

dimensions      [0 2 -3 0 0 0 0];

internalField   nonuniform List<scalar> 
400
(
3.79649e-06
3.79648e-06
3.79648e-06
3.79647e-06
3.79647e-06
3.79646e-06
3.79646e-06
3.79646e-06
3.79645e-06
3.79645e-06
3.79645e-06
3.79645e-06
3.79645e-06
3.79644e-06
3.79645e-06
3.79644e-06
3.79644e-06
3.79644e-06
3.79644e-06
3.79644e-06
4.07127e-06
4.00027e-06
4.00616e-06
4.00858e-06
4.01347e-06
4.01598e-06
4.0209e-06
4.02346e-06
4.02842e-06
4.03105e-06
4.03603e-06
4.03874e-06
4.04374e-06
4.04653e-06
4.05154e-06
4.05443e-06
4.05945e-06
4.06243e-06
4.06495e-06
4.06897e-06
4.47451e-06
4.39275e-06
4.39965e-06
4.40246e-06
4.40816e-06
4.41106e-06
4.41678e-06
4.41972e-06
4.42547e-06
4.42847e-06
4.43425e-06
4.43731e-06
4.44309e-06
4.44623e-06
4.45201e-06
4.45524e-06
4.46101e-06
4.46433e-06
4.46722e-06
4.47178e-06
4.85659e-06
4.76526e-06
4.77294e-06
4.77608e-06
4.78244e-06
4.78567e-06
4.79205e-06
4.79534e-06
4.80175e-06
4.8051e-06
4.81154e-06
4.81496e-06
4.82141e-06
4.82492e-06
4.83137e-06
4.83497e-06
4.84142e-06
4.84513e-06
4.84835e-06
4.85345e-06
5.14379e-06
5.045e-06
5.0533e-06
5.05669e-06
5.06356e-06
5.06705e-06
5.07394e-06
5.0775e-06
5.08443e-06
5.08805e-06
5.09501e-06
5.09871e-06
5.10569e-06
5.10948e-06
5.11645e-06
5.12035e-06
5.12732e-06
5.13134e-06
5.13482e-06
5.14033e-06
5.3321e-06
5.22831e-06
5.23702e-06
5.24058e-06
5.24779e-06
5.25146e-06
5.25869e-06
5.26242e-06
5.2697e-06
5.2735e-06
5.28081e-06
5.28469e-06
5.29202e-06
5.296e-06
5.30333e-06
5.30743e-06
5.31475e-06
5.31897e-06
5.32263e-06
5.32842e-06
5.4471e-06
5.34023e-06
5.3492e-06
5.35286e-06
5.36028e-06
5.36405e-06
5.3715e-06
5.37534e-06
5.38283e-06
5.38674e-06
5.39426e-06
5.39826e-06
5.4058e-06
5.40991e-06
5.41745e-06
5.42167e-06
5.4292e-06
5.43355e-06
5.43732e-06
5.44328e-06
5.51672e-06
5.40799e-06
5.41711e-06
5.42083e-06
5.42837e-06
5.43221e-06
5.43979e-06
5.4437e-06
5.45132e-06
5.4553e-06
5.46295e-06
5.46702e-06
5.47469e-06
5.47886e-06
5.48654e-06
5.49083e-06
5.49849e-06
5.50292e-06
5.50675e-06
5.51282e-06
5.5615e-06
5.45155e-06
5.46077e-06
5.46453e-06
5.47216e-06
5.47604e-06
5.48369e-06
5.48765e-06
5.49535e-06
5.49937e-06
5.50711e-06
5.51122e-06
5.51898e-06
5.5232e-06
5.53095e-06
5.5353e-06
5.54304e-06
5.54752e-06
5.5514e-06
5.55753e-06
5.59406e-06
5.48325e-06
5.49254e-06
5.49633e-06
5.50402e-06
5.50793e-06
5.51564e-06
5.51963e-06
5.52739e-06
5.53144e-06
5.53924e-06
5.54339e-06
5.5512e-06
5.55546e-06
5.56328e-06
5.56766e-06
5.57546e-06
5.57997e-06
5.58388e-06
5.59006e-06
5.62161e-06
5.51007e-06
5.51942e-06
5.52324e-06
5.53097e-06
5.53491e-06
5.54268e-06
5.54668e-06
5.5545e-06
5.55858e-06
5.56643e-06
5.5706e-06
5.57847e-06
5.58275e-06
5.59062e-06
5.59503e-06
5.60289e-06
5.60743e-06
5.61136e-06
5.61758e-06
5.64812e-06
5.53586e-06
5.54527e-06
5.54911e-06
5.5569e-06
5.56086e-06
5.56867e-06
5.57271e-06
5.58057e-06
5.58468e-06
5.59257e-06
5.59677e-06
5.60469e-06
5.609e-06
5.61692e-06
5.62135e-06
5.62926e-06
5.63383e-06
5.63779e-06
5.64405e-06
5.67583e-06
5.56285e-06
5.57232e-06
5.57619e-06
5.58402e-06
5.58801e-06
5.59587e-06
5.59993e-06
5.60784e-06
5.61198e-06
5.61993e-06
5.62416e-06
5.63212e-06
5.63646e-06
5.64443e-06
5.6489e-06
5.65686e-06
5.66146e-06
5.66544e-06
5.67174e-06
5.70625e-06
5.59244e-06
5.60197e-06
5.60587e-06
5.61376e-06
5.61777e-06
5.62569e-06
5.62978e-06
5.63775e-06
5.64192e-06
5.64992e-06
5.65418e-06
5.6622e-06
5.66657e-06
5.6746e-06
5.6791e-06
5.68711e-06
5.69175e-06
5.69576e-06
5.7021e-06
5.74024e-06
5.62554e-06
5.63515e-06
5.63908e-06
5.64703e-06
5.65107e-06
5.65906e-06
5.66318e-06
5.67121e-06
5.67541e-06
5.68347e-06
5.68776e-06
5.69585e-06
5.70026e-06
5.70834e-06
5.71288e-06
5.72096e-06
5.72563e-06
5.72967e-06
5.73607e-06
5.77812e-06
5.6624e-06
5.67209e-06
5.67605e-06
5.68407e-06
5.68815e-06
5.6962e-06
5.70036e-06
5.70846e-06
5.7127e-06
5.72083e-06
5.72516e-06
5.73332e-06
5.73777e-06
5.74592e-06
5.7505e-06
5.75865e-06
5.76336e-06
5.76744e-06
5.77389e-06
5.81871e-06
5.70192e-06
5.7117e-06
5.71569e-06
5.72379e-06
5.72791e-06
5.73603e-06
5.74023e-06
5.7484e-06
5.75268e-06
5.76089e-06
5.76526e-06
5.77349e-06
5.77798e-06
5.78621e-06
5.79083e-06
5.79905e-06
5.80381e-06
5.80792e-06
5.81444e-06
5.85855e-06
5.74074e-06
5.75059e-06
5.75462e-06
5.76278e-06
5.76694e-06
5.77513e-06
5.77937e-06
5.78761e-06
5.79192e-06
5.8002e-06
5.80462e-06
5.81292e-06
5.81745e-06
5.82575e-06
5.83042e-06
5.83871e-06
5.84352e-06
5.84767e-06
5.85424e-06
5.89144e-06
5.77511e-06
5.78467e-06
5.78858e-06
5.79653e-06
5.80059e-06
5.8086e-06
5.81277e-06
5.82085e-06
5.82512e-06
5.83327e-06
5.83767e-06
5.84586e-06
5.85041e-06
5.85862e-06
5.86334e-06
5.87157e-06
5.87647e-06
5.8806e-06
5.8872e-06
5.90624e-06
5.90622e-06
5.90622e-06
5.90621e-06
5.9062e-06
5.9062e-06
5.90619e-06
5.90619e-06
5.90619e-06
5.90618e-06
5.90618e-06
5.90618e-06
5.90618e-06
5.90618e-06
5.90617e-06
5.90617e-06
5.90617e-06
5.90617e-06
5.90617e-06
5.90617e-06
)
;

boundaryField
{
    movingWall
    {
        type            zeroGradient;
    }
    fixedWalls
    {
        type            zeroGradient;
    }
    frontAndBack
    {
        type            empty;
    }
}


// ************************************************************************* //
