/*--------------------------------*- C++ -*----------------------------------*\
| =========                 |                                                 |
| \\      /  F ield         | OpenFOAM: The Open Source CFD Toolbox           |
|  \\    /   O peration     | Version:  2312                                  |
|   \\  /    A nd           | Website:  www.openfoam.com                      |
|    \\/     M anipulation  |                                                 |
\*---------------------------------------------------------------------------*/
FoamFile
{
    version     2.0;
    format      ascii;
    arch        "LSB;label=32;scalar=64";
    class       volScalarField;
    location    "6.125";
    object      flowTypeField;
}
// * * * * * * * * * * * * * * * * * * * * * * * * * * * * * * * * * * * * * //

dimensions      [0 0 0 0 0 0 0];

internalField   nonuniform List<scalar> 
400
(
0.451496
0.0632652
0.0725201
-0.0625817
0.652464
-0.186512
0.241139
-0.133174
-0.0105814
0.028894
0.152098
0.0415652
0.156812
0.837868
0.137079
0.722436
0.395687
0.729678
0.803731
0.709406
0.993798
0.805318
0.783202
0.857249
-0.103737
-0.0859025
0.196871
0.690642
0.0122575
-0.09216
-0.0346526
0.032708
0.0328935
0.472677
0.287463
-0.249266
0.0542033
-0.812152
0.468764
0.127191
0.587108
0.115648
0.086083
-0.024255
0.181087
-0.0555644
0.22137
-0.0906874
0.207388
-0.00605056
0.621517
0.555923
0.0273137
-0.421566
-0.260873
0.706122
0.255623
0.878956
0.594446
0.766165
0.608789
0.12136
0.126275
-0.10507
0.759971
-0.00296147
0.934674
0.216025
0.0926026
0.054759
0.29584
0.465547
0.281519
0.423606
-0.59075
-0.143818
0.0633854
0.0205826
0.523067
-0.40833
0.8582
0.69612
0.653511
0.962879
0.00240679
0.405714
-0.0592048
-0.0957541
0.0077314
0.73255
-0.563168
-0.506375
-0.037817
-0.435198
0.553713
0.395116
0.649654
0.348642
0.720742
0.179234
0.61246
0.116228
0.0526456
0.0944839
0.127628
0.013129
0.0655824
0.96405
0.64324
0.477079
-0.166628
0.482261
0.583757
0.171237
0.167733
0.430847
0.0747112
0.75254
0.929094
0.847461
0.304153
0.0625584
-0.0640851
0.291006
-0.428938
0.0101623
-0.243926
0.544779
0.887265
-0.154446
-0.0845334
-0.053355
0.433349
0.00134608
-0.108445
0.107649
0.246545
-0.0474634
0.93602
0.480076
0.900413
0.450487
0.601698
0.360267
0.717404
-0.0630007
0.0114268
0.34567
0.76872
-0.0951361
0.119518
0.605801
-0.112603
-0.299496
0.0324381
0.0370983
0.810663
0.00831797
0.94399
0.879658
0.510142
0.0969938
-0.00788934
0.0701722
0.482467
-0.459408
0.0412202
0.532887
0.262859
0.569458
-0.122823
0.00790714
0.488542
0.0279518
0.44473
0.346859
0.781602
0.0516988
0.303557
0.55145
-0.090614
0.0113942
-0.0516692
-0.069972
0.369454
0.640558
0.268363
-0.31156
0.00146658
0.334086
0.146597
0.313389
0.544024
-0.140218
0.180708
0.273855
0.552022
0.133878
0.0908928
-0.233096
-0.152784
-0.00250266
-0.165751
0.399832
-0.32486
0.330251
0.0354525
-0.0305906
0.0713026
0.294385
0.651258
0.262896
0.321545
0.266137
0.489719
0.307887
0.236363
0.356555
0.064583
0.806892
0.218859
0.057035
-0.123456
0.501636
-0.329292
0.785887
0.0469316
0.382397
0.576014
0.0303986
0.215646
0.171684
-0.121557
-0.161909
-0.110369
0.0314844
0.217916
0.15912
0.406766
0.00274029
0.98359
0.476164
0.666228
0.275649
0.0840518
-0.0333482
0.0802399
0.226704
0.334384
0.546757
0.869065
0.396214
0.943113
0.578322
0.115635
0.717854
0.344123
0.945572
0.840891
0.753001
0.605807
0.132395
0.0141661
0.550657
-0.252515
0.352754
0.0961282
0.538487
0.238166
0.176875
0.180638
0.286166
0.160431
-0.0639599
0.183952
0.0986751
-0.117926
0.944183
0.787502
0.423389
0.206116
0.0584896
0.00479751
-0.0057448
0.879751
-0.403851
-0.196706
0.00489355
0.41754
0.739369
0.479647
0.226258
0.521856
0.16738
0.194697
0.850334
-0.214303
0.6768
0.186653
-0.0427978
0.603161
0.144092
0.10227
0.0184293
0.614668
-0.252313
0.117657
-0.162174
-0.06429
0.211754
-0.222684
0.147445
-0.0228031
-0.223602
0.0962913
0.649526
0.351731
0.951933
0.156421
0.070634
0.981354
0.630498
0.618655
0.782122
0.5108
0.131236
0.00777545
0.328383
0.927155
0.805956
0.147068
0.66127
0.941603
-0.0500121
0.0808743
0.495791
0.0504435
0.0933196
-0.165595
0.662397
0.597105
0.133262
0.0583513
0.122241
0.347494
-0.373762
-0.176883
-0.155994
-0.117583
-0.049477
-0.178794
0.0597724
-0.0325618
0.0589003
0.00899066
-0.152817
-0.188047
0.0814067
0.212079
0.550211
0.91206
0.469635
0.393439
0.535209
0.081029
0.434328
0.0292347
-0.0329616
0.633681
0.873009
0.0712345
0.906219
-0.0919769
0.923017
0.349258
0.0401229
0.140329
0.148554
-0.43823
-0.103344
0.532177
0.0717199
0.131169
-0.0853585
0.700069
-0.189504
0.146035
0.0062318
0.00128505
0.155926
0.500655
0.354763
0.330302
0.43546
0.544439
0.745559
0.787652
0.378383
0.432442
0.25682
)
;

boundaryField
{
    movingWall
    {
        type            calculated;
        value           nonuniform List<scalar> 
20
(
0.654681
0.140133
0.439141
-0.156424
0.305658
-0.0540902
0.0451068
0.0018861
-0.00132279
0.0291451
0.0444581
0.0482478
0.0382098
0.348795
0.539656
0.141086
0.802301
0.220462
0.262389
0.147891
)
;
    }
    fixedWalls
    {
        type            calculated;
        value           nonuniform List<scalar> 
60
(
0.0668323
0.802406
0.110048
0.121292
0.695982
0.113879
0.0406623
0.50618
0.0755579
-0.0179989
-0.0430837
0.0415451
0.55678
0.118068
0.0454955
0.137775
0.632553
0.117752
0.480986
0.0866319
0.50223
0.50882
0.679797
-0.595464
0.490058
0.924959
0.732021
0.69465
0.777851
-0.461907
0.424993
0.000693198
0.769797
0.710902
0.235964
-0.194749
0.439563
0.805208
0.474699
0.235165
0.621663
0.142684
0.257673
0.107323
0.782588
-0.0921318
0.0640718
-0.0414105
-0.0186248
0.0336328
0.0271725
0.00809801
0.0221959
0.191324
0.173712
0.761539
0.261446
0.731433
-0.00376768
0.484742
)
;
    }
    frontAndBack
    {
        type            empty;
    }
}


// ************************************************************************* //
