/*--------------------------------*- C++ -*----------------------------------*\
| =========                 |                                                 |
| \\      /  F ield         | OpenFOAM: The Open Source CFD Toolbox           |
|  \\    /   O peration     | Version:  2312                                  |
|   \\  /    A nd           | Website:  www.openfoam.com                      |
|    \\/     M anipulation  |                                                 |
\*---------------------------------------------------------------------------*/
FoamFile
{
    version     2.0;
    format      ascii;
    arch        "LSB;label=32;scalar=64";
    class       surfaceScalarField;
    location    "6.125";
    object      fluxField;
}
// * * * * * * * * * * * * * * * * * * * * * * * * * * * * * * * * * * * * * //

dimensions      [0 3 -1 0 0 0 0];

oriented        oriented;

internalField   nonuniform List<scalar> 
760
(
-5e-05
4.14179e-18
-5e-05
-9.00116e-19
-5e-05
2.12838e-19
-5e-05
-5.15092e-20
-5e-05
8.8845e-21
-5e-05
2.3852e-21
-5e-05
5.39548e-21
-5e-05
9.74504e-22
-5e-05
-1.23636e-21
-5e-05
-2.51661e-22
-5e-05
2.30577e-21
-5e-05
3.0837e-21
-5e-05
4.15091e-21
-5e-05
3.1974e-21
-5e-05
9.78325e-22
-5e-05
4.25616e-21
-5e-05
6.81877e-21
-5e-05
5.91182e-22
-5e-05
-1.71201e-21
-3.02912e-21
-5e-05
-3.2313e-18
-5e-05
7.11017e-19
-5e-05
-1.73156e-19
-5e-05
3.02929e-20
-5e-05
-1.07081e-20
-5e-05
4.23822e-21
-5e-05
4.78536e-21
-5e-05
2.80772e-21
-5e-05
1.89082e-21
-5e-05
5.08299e-21
-5e-05
5.1071e-21
-5e-05
6.77195e-21
-5e-05
9.64321e-21
-5e-05
8.80252e-21
-5e-05
-3.04489e-22
-5e-05
8.57517e-22
-5e-05
1.99927e-21
-5e-05
6.28684e-22
-5e-05
-3.57679e-21
-5.48602e-21
-5e-05
-8.24772e-19
-5e-05
1.84934e-19
-5e-05
-4.89337e-20
-5e-05
4.96602e-21
-5e-05
-8.05126e-21
-5e-05
-5.09874e-21
-5e-05
-1.77599e-22
-5e-05
3.14757e-21
-5e-05
4.50352e-21
-5e-05
4.48668e-21
-5e-05
1.96015e-21
-5e-05
4.04288e-21
-5e-05
9.04328e-21
-5e-05
1.03153e-20
-5e-05
1.55131e-21
-5e-05
-3.49501e-21
-5e-05
-5.60335e-21
-5e-05
-1.97639e-21
-5e-05
-4.13458e-21
-4.02205e-21
-5e-05
2.52711e-18
-5e-05
-5.56422e-19
-5e-05
1.30253e-19
-5e-05
-3.01351e-20
-5e-05
3.23679e-21
-5e-05
-4.08025e-21
-5e-05
-2.93458e-22
-5e-05
6.95366e-22
-5e-05
-9.34814e-23
-5e-05
-3.6896e-21
-5e-05
-1.31462e-21
-5e-05
4.79221e-21
-5e-05
9.06445e-21
-5e-05
6.28087e-21
-5e-05
3.81811e-21
-5e-05
-3.32542e-22
-5e-05
-3.63285e-21
-5e-05
-2.2839e-21
-5e-05
-3.1152e-21
-2.5355e-21
-5e-05
-2.44484e-18
-5e-05
5.21554e-19
-5e-05
-1.19182e-19
-5e-05
2.69525e-20
-5e-05
-3.18913e-21
-5e-05
3.80906e-21
-5e-05
2.50828e-22
-5e-05
1.86776e-22
-5e-05
-2.33873e-21
-5e-05
-5.39249e-21
-5e-05
8.68609e-23
-5e-05
7.69802e-21
-5e-05
9.76205e-21
-5e-05
4.38928e-21
-5e-05
4.82904e-21
-5e-05
2.98875e-21
-5e-05
-2.924e-22
-5e-05
-9.9891e-22
-5e-05
9.14857e-23
-1.04804e-21
-5e-05
4.45743e-19
-5e-05
-8.04626e-20
-5e-05
2.47741e-20
-5e-05
6.94628e-24
-5e-05
7.43639e-21
-5e-05
3.41099e-21
-5e-05
1.06223e-21
-5e-05
4.06577e-21
-5e-05
3.99144e-21
-5e-05
1.70776e-21
-5e-05
2.59373e-21
-5e-05
3.38528e-21
-5e-05
3.05588e-21
-5e-05
4.84902e-21
-5e-05
5.39993e-21
-5e-05
2.35893e-21
-5e-05
5.03215e-22
-5e-05
8.67882e-22
-5e-05
2.44674e-21
1.2603e-21
-5e-05
2.06247e-18
-5e-05
-4.18081e-19
-5e-05
1.03166e-19
-5e-05
-1.54171e-20
-5e-05
9.73275e-21
-5e-05
2.14364e-21
-5e-05
3.80964e-21
-5e-05
5.67023e-21
-5e-05
3.14891e-21
-5e-05
4.189e-21
-5e-05
4.7188e-21
-5e-05
5.12915e-22
-5e-05
-1.67131e-21
-5e-05
4.6614e-21
-5e-05
8.00034e-21
-5e-05
3.29452e-21
-5e-05
2.3815e-21
-5e-05
1.71107e-21
-5e-05
1.0328e-21
1.67737e-21
-5e-05
-2.18246e-18
-5e-05
4.57232e-19
-5e-05
-1.10505e-19
-5e-05
2.14181e-20
-5e-05
-7.69085e-21
-5e-05
-9.11523e-23
-5e-05
3.51141e-21
-5e-05
9.16902e-22
-5e-05
-3.42518e-21
-5e-05
9.76725e-23
-5e-05
3.23085e-21
-5e-05
2.42697e-21
-5e-05
4.37668e-22
-5e-05
5.04163e-21
-5e-05
9.87066e-21
-5e-05
4.36863e-21
-5e-05
5.36895e-21
-5e-05
1.43579e-21
-5e-05
-1.19001e-21
1.14195e-21
-5e-05
3.11115e-19
-5e-05
-8.49763e-20
-5e-05
1.50644e-20
-5e-05
-8.04862e-21
-5e-05
-5.3814e-21
-5e-05
-3.81532e-21
-5e-05
1.0095e-21
-5e-05
-2.92123e-21
-5e-05
-1.91274e-22
-5e-05
1.5059e-21
-5e-05
1.6997e-21
-5e-05
2.69861e-21
-5e-05
2.35643e-21
-5e-05
2.87364e-21
-5e-05
2.458e-21
-5e-05
2.41813e-21
-5e-05
5.84012e-21
-5e-05
3.00303e-21
-5e-05
-1.77669e-21
-3.43907e-22
-5e-05
4.12555e-19
-5e-05
-8.47636e-20
-5e-05
2.0306e-20
-5e-05
-4.21211e-21
-5e-05
-3.90891e-21
-5e-05
-2.96533e-21
-5e-05
1.41707e-22
-5e-05
-2.68164e-21
-5e-05
3.99917e-23
-5e-05
2.12821e-21
-5e-05
9.04042e-22
-5e-05
-1.30611e-21
-5e-05
4.7437e-22
-5e-05
-1.94792e-22
-5e-05
-2.69318e-21
-5e-05
2.03069e-21
-5e-05
1.73351e-21
-5e-05
3.14828e-21
-5e-05
-3.55864e-22
-2.46728e-22
-5e-05
-1.30549e-19
-5e-05
3.53581e-20
-5e-05
-5.9486e-21
-5e-05
3.86613e-21
-5e-05
5.6584e-23
-5e-05
3.86418e-22
-5e-05
2.70934e-21
-5e-05
1.43764e-21
-5e-05
-3.25059e-21
-5e-05
-1.14508e-21
-5e-05
-1.33013e-21
-5e-05
-6.02256e-21
-5e-05
-2.97249e-21
-5e-05
-2.54697e-22
-5e-05
1.54631e-21
-5e-05
4.75545e-21
-5e-05
1.19147e-21
-5e-05
2.45432e-21
-5e-05
3.40956e-21
3.52453e-21
-5e-05
9.48231e-19
-5e-05
-1.97197e-19
-5e-05
5.16149e-20
-5e-05
-6.75377e-21
-5e-05
6.84828e-21
-5e-05
5.49215e-21
-5e-05
7.08897e-21
-5e-05
6.8263e-21
-5e-05
1.87128e-21
-5e-05
-1.0497e-21
-5e-05
-3.79977e-21
-5e-05
-6.45634e-21
-5e-05
-3.76602e-21
-5e-05
-2.08405e-21
-5e-05
9.9626e-22
-5e-05
6.09828e-21
-5e-05
3.49724e-21
-5e-05
2.07678e-21
-5e-05
4.59855e-21
3.97014e-21
-5e-05
-1.97286e-18
-5e-05
4.35356e-19
-5e-05
-9.53265e-20
-5e-05
2.37474e-20
-5e-05
-4.33607e-21
-5e-05
5.08559e-21
-5e-05
2.61892e-21
-5e-05
1.83638e-21
-5e-05
1.16402e-22
-5e-05
-4.85568e-21
-5e-05
-8.30562e-21
-5e-05
-4.49375e-21
-5e-05
-7.93025e-22
-5e-05
-3.09693e-21
-5e-05
-1.86531e-21
-5e-05
3.33957e-21
-5e-05
5.43774e-22
-5e-05
-7.78418e-22
-5e-05
3.2074e-22
6.43103e-22
-5e-05
1.39364e-18
-5e-05
-2.86024e-19
-5e-05
7.728e-20
-5e-05
-7.32318e-21
-5e-05
7.76734e-21
-5e-05
-1.71679e-21
-5e-05
-8.18955e-21
-5e-05
-1.01422e-20
-5e-05
-9.03599e-21
-5e-05
-9.15695e-21
-5e-05
-8.57734e-21
-5e-05
-3.91518e-21
-5e-05
-4.54529e-22
-5e-05
1.86714e-22
-5e-05
2.17255e-22
-5e-05
-1.44948e-21
-5e-05
-1.90709e-21
-5e-05
-3.75722e-22
-5e-05
-2.07642e-21
4.47841e-23
-5e-05
1.02392e-18
-5e-05
-2.24219e-19
-5e-05
5.37603e-20
-5e-05
-6.80769e-21
-5e-05
7.61598e-21
-5e-05
-2.651e-21
-5e-05
-8.16175e-21
-5e-05
-9.3536e-21
-5e-05
-5.2605e-21
-5e-05
-4.52591e-21
-5e-05
-1.99897e-21
-5e-05
-6.33874e-22
-5e-05
-1.89482e-21
-5e-05
-1.27628e-21
-5e-05
-2.11758e-21
-5e-05
-4.40659e-21
-5e-05
-1.15227e-21
-5e-05
3.86314e-22
-5e-05
-1.52045e-21
7.8438e-22
-5e-05
-2.429e-18
-5e-05
5.12533e-19
-5e-05
-1.24887e-19
-5e-05
2.3645e-20
-5e-05
-8.02499e-21
-5e-05
-2.30312e-21
-5e-05
-5.05947e-21
-5e-05
-6.08298e-21
-5e-05
-3.6252e-21
-5e-05
-4.8952e-21
-5e-05
-2.48444e-21
-5e-05
5.22041e-22
-5e-05
-1.87292e-21
-5e-05
-3.64194e-21
-5e-05
-4.45605e-21
-5e-05
-3.54723e-21
-5e-05
3.49625e-22
-5e-05
-1.18827e-21
-5e-05
-5.46243e-22
2.01449e-21
-5e-05
1.78939e-18
-5e-05
-3.85161e-19
-5e-05
9.39049e-20
-5e-05
-1.67232e-20
-5e-05
6.10786e-21
-5e-05
-2.98541e-21
-5e-05
-4.74133e-21
-5e-05
-7.10976e-21
-5e-05
-9.61441e-21
-5e-05
-1.11414e-20
-5e-05
-9.73661e-21
-5e-05
-4.80169e-21
-5e-05
-4.19336e-21
-5e-05
-3.30676e-21
-5e-05
-4.48775e-21
-5e-05
-3.04696e-21
-5e-05
2.48326e-21
-5e-05
2.83773e-21
-5e-05
2.54272e-21
3.02231e-21
-5e-05
1.57201e-18
-5e-05
-3.41837e-19
-5e-05
7.91956e-20
-5e-05
-1.75437e-20
-5e-05
6.05135e-21
-5e-05
-1.09049e-21
-5e-05
-2.69283e-21
-5e-05
-3.98884e-21
-5e-05
-6.68081e-21
-5e-05
-8.72562e-21
-5e-05
-8.83022e-21
-5e-05
-6.01869e-21
-5e-05
-5.30617e-21
-5e-05
-5.9972e-21
-5e-05
-5.8437e-21
-5e-05
-4.31018e-21
-5e-05
7.33952e-22
-5e-05
6.18854e-21
-5e-05
4.26811e-21
5.94102e-22
-5e-05
-2.88077e-18
-5e-05
6.06843e-19
-5e-05
-1.48368e-19
-5e-05
2.5182e-20
-5e-05
-7.41451e-21
-5e-05
1.87253e-21
-5e-05
-1.8027e-21
-5e-05
-2.28029e-21
-5e-05
-2.15856e-21
-5e-05
-3.45395e-21
-5e-05
-5.21172e-21
-5e-05
-5.18108e-21
-5e-05
-5.13024e-21
-5e-05
-7.00205e-21
-5e-05
-3.90862e-21
-5e-05
-3.68785e-21
-5e-05
-2.50456e-21
-5e-05
3.64089e-21
-5e-05
2.59496e-21
-1.59978e-21
-5e-05
-5e-05
-5e-05
-5e-05
-5e-05
-5e-05
-5e-05
-5e-05
-5e-05
-5e-05
-5e-05
-5e-05
-5e-05
-5e-05
-5e-05
-5e-05
-5e-05
-5e-05
-5e-05
)
;

boundaryField
{
    movingWall
    {
        type            calculated;
        value           uniform -0;
    }
    fixedWalls
    {
        type            calculated;
        value           nonuniform List<scalar> 
60
(
5e-05
5e-05
5e-05
5e-05
5e-05
5e-05
5e-05
5e-05
5e-05
5e-05
5e-05
5e-05
5e-05
5e-05
5e-05
5e-05
5e-05
5e-05
5e-05
5e-05
-5e-05
-5e-05
-5e-05
-5e-05
-5e-05
-5e-05
-5e-05
-5e-05
-5e-05
-5e-05
-5e-05
-5e-05
-5e-05
-5e-05
-5e-05
-5e-05
-5e-05
-5e-05
-5e-05
-5e-05
0
0
0
0
0
0
0
0
0
0
0
0
0
0
0
0
0
0
0
0
)
;
    }
    frontAndBack
    {
        type            empty;
        value           nonuniform List<scalar> 0();
    }
}


// ************************************************************************* //
