/*--------------------------------*- C++ -*----------------------------------*\
| =========                 |                                                 |
| \\      /  F ield         | OpenFOAM: The Open Source CFD Toolbox           |
|  \\    /   O peration     | Version:  2312                                  |
|   \\  /    A nd           | Website:  www.openfoam.com                      |
|    \\/     M anipulation  |                                                 |
\*---------------------------------------------------------------------------*/
FoamFile
{
    version     2.0;
    format      ascii;
    arch        "LSB;label=32;scalar=64";
    class       volVectorField;
    location    "6.125";
    object      LambVectorField;
}
// * * * * * * * * * * * * * * * * * * * * * * * * * * * * * * * * * * * * * //

dimensions      [0 1 -2 0 0 0 0];

internalField   nonuniform List<vector> 
400
(
(-1.53236e-24 -1.02078e-11 -1.02078e-11)
(-4.51521e-25 1.38549e-11 -0)
(-2.33385e-26 -3.00227e-12 -3.00227e-12)
(-1.45049e-27 8.27187e-13 -0)
(-1.91975e-29 -6.09671e-14 -6.09671e-14)
(-9.62784e-30 1.61425e-13 -0)
(4.12653e-30 7.38387e-14 7.38387e-14)
(9.33157e-31 6.17073e-14 0)
(-1.65961e-30 8.69542e-14 8.69542e-14)
(-2.17204e-30 5.26321e-14 -0)
(-1.69705e-31 5.13265e-14 5.13265e-14)
(-6.61597e-31 5.32168e-14 -0)
(3.4622e-31 5.2248e-14 5.2248e-14)
(-2.23172e-32 -3.10443e-15 0)
(-2.28078e-31 -6.0545e-15 -6.0545e-15)
(-4.59423e-31 -6.78277e-15 0)
(-4.81492e-30 -4.56397e-14 -4.56397e-14)
(-2.07208e-31 1.15309e-14 -0)
(4.16622e-33 -4.24656e-16 -4.24656e-16)
(3.22961e-32 -2.3534e-15 -0)
(-2.01832e-27 -1.29755e-13 -1.29755e-13)
(-3.85624e-27 1.12912e-12 -0)
(-2.30001e-28 -3.1084e-13 -3.1084e-13)
(1.18065e-29 -3.84765e-14 -0)
(-7.35895e-30 -1.81715e-13 -1.81715e-13)
(-2.28652e-29 -1.47469e-13 0)
(-1.09068e-29 -6.81959e-14 -6.81959e-14)
(-1.92649e-31 -8.07487e-15 0)
(1.66858e-30 -5.49445e-14 -5.49445e-14)
(-3.77576e-30 -1.21011e-13 0)
(-6.1782e-30 -6.46679e-14 -6.46679e-14)
(-8.22792e-30 -6.05974e-14 0)
(-1.7043e-29 -1.06913e-13 -1.06913e-13)
(-4.63701e-30 -3.84153e-14 0)
(-7.66106e-32 -5.23906e-14 -5.23906e-14)
(-7.25676e-30 -7.07891e-14 0)
(1.00853e-29 6.02996e-14 6.02996e-14)
(2.06825e-30 4.96973e-14 0)
(-8.74523e-31 1.49059e-14 1.49059e-14)
(1.78473e-30 -1.66111e-14 -0)
(-8.19211e-25 5.65726e-12 5.65726e-12)
(-3.91112e-25 -1.22775e-11 0)
(-2.15948e-26 2.8169e-12 2.8169e-12)
(-1.13412e-27 -7.46838e-13 0)
(-5.78074e-29 1.23304e-13 1.23304e-13)
(-1.50921e-30 -1.0424e-13 0)
(-2.79276e-30 -8.87125e-14 -8.87125e-14)
(-7.85156e-30 -8.87672e-14 0)
(-9.50639e-30 -8.96818e-14 -8.96818e-14)
(-4.71251e-30 -2.73796e-14 0)
(4.02581e-31 3.70201e-15 3.70201e-15)
(-1.58837e-30 -1.17572e-14 0)
(-2.17934e-30 -9.62956e-15 -9.62956e-15)
(1.80964e-29 7.82061e-14 0)
(-1.51801e-30 1.11276e-13 1.11276e-13)
(-5.02309e-31 7.36397e-15 -0)
(5.18315e-30 -5.93843e-14 -5.93843e-14)
(4.74267e-33 -2.87964e-16 -0)
(-8.06287e-31 9.55295e-15 9.55295e-15)
(-8.36068e-31 7.46495e-15 -0)
(-6.13105e-25 -5.48315e-12 -5.48315e-12)
(-2.39635e-25 9.79758e-12 -0)
(-1.2281e-26 -2.15123e-12 -2.15123e-12)
(-8.41478e-28 6.37519e-13 -0)
(-4.23209e-30 -2.88346e-14 -2.88346e-14)
(-2.18102e-29 9.98508e-14 -0)
(-5.85373e-32 1.5171e-15 1.5171e-15)
(-4.22172e-31 -1.12724e-14 0)
(4.24228e-30 5.72204e-14 5.72204e-14)
(8.73594e-31 1.18868e-13 0)
(-1.58631e-30 5.22833e-14 5.22833e-14)
(1.00175e-30 3.76348e-14 0)
(5.24723e-30 3.87499e-14 3.87499e-14)
(5.99418e-30 3.30769e-14 0)
(3.96532e-30 5.23859e-14 5.23859e-14)
(-9.28325e-30 1.29675e-13 -0)
(-1.1005e-29 8.04149e-14 8.04149e-14)
(3.49674e-31 -5.58712e-15 -0)
(1.1097e-31 -1.37032e-15 -1.37032e-15)
(1.95978e-30 -4.00914e-14 -0)
(-2.31166e-26 2.15404e-12 2.15404e-12)
(-2.73039e-27 -1.24014e-12 0)
(-1.71666e-28 3.44241e-13 3.44241e-13)
(6.95373e-31 6.07195e-15 0)
(-1.04039e-30 6.01405e-14 6.01405e-14)
(1.25292e-30 2.26905e-14 0)
(3.08484e-30 1.14906e-13 1.14906e-13)
(-1.14577e-30 1.18893e-13 -0)
(-3.24245e-30 4.16347e-14 4.16347e-14)
(8.61967e-31 -5.56347e-15 -0)
(1.91767e-30 -8.62105e-14 -8.62105e-14)
(-8.59127e-30 -5.2046e-14 0)
(1.4474e-29 6.37157e-14 6.37157e-14)
(2.94894e-30 4.21186e-14 0)
(9.03426e-32 1.17282e-15 1.17282e-15)
(4.98304e-31 8.54915e-15 0)
(-7.36636e-32 8.70573e-15 8.70573e-15)
(6.7865e-31 -2.35885e-14 -0)
(-1.03687e-31 2.37669e-15 2.37669e-15)
(-2.34283e-30 4.45937e-14 -0)
(-3.92574e-25 4.50913e-12 4.50913e-12)
(-1.42358e-25 -7.62883e-12 0)
(-7.55409e-27 1.76969e-12 1.76969e-12)
(-3.74569e-28 -3.88728e-13 0)
(-9.55379e-30 8.66432e-14 8.66432e-14)
(-9.07839e-31 -9.34523e-15 0)
(-1.3457e-31 8.00365e-15 8.00365e-15)
(-1.95542e-33 -1.14298e-16 0)
(3.02719e-31 -1.93176e-14 -1.93176e-14)
(1.89857e-30 -3.1244e-14 -0)
(-1.91787e-30 -7.45717e-14 -7.45717e-14)
(-5.83756e-30 -4.08649e-14 0)
(-3.81764e-30 -2.33757e-14 -2.33757e-14)
(-2.36304e-30 -2.23865e-14 0)
(-5.78113e-30 -4.97808e-14 -4.97808e-14)
(-9.29264e-31 -1.51684e-14 0)
(-2.34337e-32 7.24491e-15 7.24491e-15)
(5.65127e-32 -5.05206e-15 -0)
(-1.03091e-31 -2.18015e-15 -2.18015e-15)
(6.1465e-32 5.79015e-15 0)
(-7.39954e-25 -7.05445e-12 -7.05445e-12)
(-2.06125e-25 9.42112e-12 -0)
(-1.18561e-26 -2.2542e-12 -2.2542e-12)
(-3.36826e-28 3.49659e-13 -0)
(-6.29806e-29 -1.5447e-13 -1.5447e-13)
(1.36912e-30 3.48419e-14 0)
(-2.23736e-30 -3.77278e-14 -3.77278e-14)
(-1.68843e-30 -1.16025e-14 0)
(2.88349e-31 1.64463e-15 1.64463e-15)
(8.25314e-30 6.39398e-14 0)
(9.52535e-30 1.22072e-13 1.22072e-13)
(-4.91874e-31 6.61213e-14 -0)
(-7.19781e-31 1.75207e-14 1.75207e-14)
(-1.24604e-30 -1.40947e-14 0)
(3.25922e-30 3.26361e-14 3.26361e-14)
(1.1502e-30 3.47553e-14 0)
(-6.6318e-31 -2.83858e-14 -2.83858e-14)
(-2.61326e-30 -5.69321e-14 0)
(3.08796e-32 6.10471e-16 6.10471e-16)
(-7.19008e-31 -1.80671e-14 0)
(-2.82805e-26 1.26293e-12 1.26293e-12)
(-1.06816e-26 -2.07178e-12 0)
(-3.91298e-28 3.45387e-13 3.45387e-13)
(-4.80261e-29 -1.38557e-13 0)
(4.45442e-31 -2.41935e-14 -2.41935e-14)
(-5.55409e-30 -1.1957e-13 0)
(-7.89331e-30 -8.47987e-14 -8.47987e-14)
(-3.24858e-30 -3.99647e-14 0)
(-2.11324e-31 4.28029e-15 4.28029e-15)
(-4.78847e-30 -1.24429e-13 0)
(-5.88564e-30 -5.31573e-14 -5.31573e-14)
(-3.76167e-31 -1.34559e-14 0)
(1.57766e-30 -6.12197e-14 -6.12197e-14)
(-1.03843e-29 -1.05907e-13 0)
(-5.9811e-30 -2.71686e-14 -2.71686e-14)
(1.46304e-30 1.48251e-14 0)
(5.47459e-31 7.61449e-15 7.61449e-15)
(1.82966e-31 8.11685e-15 0)
(4.41013e-33 -4.75667e-16 -4.75667e-16)
(4.92097e-32 1.80267e-15 0)
(-3.18437e-25 4.90616e-12 4.90616e-12)
(-7.73667e-26 -5.89078e-12 0)
(-4.59517e-27 1.39787e-12 1.39787e-12)
(-1.52932e-28 -2.99805e-13 0)
(-8.36294e-30 2.89152e-14 2.89152e-14)
(3.04411e-30 -6.07646e-14 -0)
(-1.31005e-30 -2.76537e-14 -2.76537e-14)
(1.81604e-30 -4.07092e-14 -0)
(4.83867e-30 -5.52135e-14 -5.52135e-14)
(3.67024e-31 -1.06148e-14 -0)
(-1.69733e-30 -9.16851e-14 -9.16851e-14)
(-7.66554e-30 -1.10897e-13 0)
(-1.49266e-31 -3.44906e-15 -3.44906e-15)
(-4.16996e-30 -4.02452e-14 0)
(-8.98801e-30 -5.14546e-14 -5.14546e-14)
(-1.81957e-30 -2.39233e-14 0)
(5.88137e-31 4.11685e-15 4.11685e-15)
(6.32175e-31 1.8119e-14 0)
(-6.32831e-32 1.65105e-15 1.65105e-15)
(-3.66662e-32 -1.99493e-15 0)
(-5.14453e-25 -6.65097e-12 -6.65097e-12)
(-1.20105e-25 7.26472e-12 -0)
(-6.42357e-27 -1.65137e-12 -1.65137e-12)
(-3.40054e-28 4.08693e-13 -0)
(-3.39126e-30 -4.58484e-14 -4.58484e-14)
(-8.29973e-31 8.09602e-15 -0)
(2.11745e-32 -3.02772e-15 -3.02772e-15)
(2.58636e-30 -3.58029e-14 -0)
(-1.33616e-30 -1.67051e-14 -1.67051e-14)
(-2.28063e-30 -2.40541e-14 0)
(1.61805e-30 3.27042e-14 3.27042e-14)
(1.04641e-30 2.69546e-14 0)
(1.4014e-31 2.74892e-15 2.74892e-15)
(1.06576e-30 9.4049e-14 0)
(-6.13783e-30 8.03817e-14 8.03817e-14)
(-9.0551e-31 -4.38153e-14 0)
(-5.85882e-31 -6.45643e-15 -6.45643e-15)
(5.67282e-30 6.65583e-14 0)
(-3.8424e-31 1.17367e-14 1.17367e-14)
(1.07953e-30 -3.35925e-14 -0)
(-3.8429e-25 6.31558e-12 6.31558e-12)
(-7.73469e-26 -5.88546e-12 0)
(-4.50773e-27 1.46469e-12 1.46469e-12)
(-1.16992e-28 -1.76308e-13 0)
(-4.06259e-29 1.76387e-13 1.76387e-13)
(-9.17795e-31 5.70167e-14 -0)
(1.05357e-30 8.32081e-14 8.32081e-14)
(-3.16711e-30 9.04198e-14 -0)
(-4.05061e-30 5.16759e-14 5.16759e-14)
(-1.99475e-31 2.05979e-14 -0)
(-1.08348e-31 8.13815e-15 8.13815e-15)
(-5.1069e-30 5.60792e-14 -0)
(-6.37247e-31 1.99109e-14 1.99109e-14)
(-1.03548e-30 5.41465e-14 -0)
(-6.00289e-31 1.91366e-14 1.91366e-14)
(1.58116e-30 2.61085e-14 0)
(-4.25089e-32 1.98609e-15 1.98609e-15)
(9.40761e-31 2.31143e-14 0)
(5.35657e-31 2.89484e-14 2.89484e-14)
(9.07832e-32 4.07707e-15 0)
(-2.71328e-25 -4.87772e-12 -4.87772e-12)
(-6.15885e-26 5.25153e-12 -0)
(-3.72455e-27 -1.31161e-12 -1.31161e-12)
(-7.75024e-29 1.52288e-13 -0)
(-2.51792e-29 -1.08258e-13 -1.08258e-13)
(4.31889e-31 1.36874e-14 0)
(-5.77219e-30 -6.0308e-14 -6.0308e-14)
(1.36347e-30 1.47351e-14 0)
(-6.64338e-31 1.28651e-14 1.28651e-14)
(4.24294e-32 -1.17471e-15 -0)
(-4.53637e-31 1.13718e-14 1.13718e-14)
(7.41839e-30 -4.95098e-14 -0)
(8.44551e-30 -9.71924e-14 -9.71924e-14)
(-1.12977e-30 -1.26432e-13 0)
(-1.12324e-29 -1.20492e-13 -1.20492e-13)
(-1.02298e-29 -7.88993e-14 0)
(-3.24534e-30 -4.69917e-14 -4.69917e-14)
(-1.83836e-30 -3.19867e-14 0)
(-3.91701e-30 -3.32292e-14 -3.32292e-14)
(2.8087e-30 2.36593e-14 0)
(-2.45744e-27 1.38864e-13 1.38864e-13)
(-5.97725e-27 -1.55665e-12 0)
(-1.53057e-28 1.97475e-13 1.97475e-13)
(-3.89092e-29 -1.62957e-13 0)
(-7.63525e-30 -1.84672e-13 -1.84672e-13)
(-3.84515e-29 -2.04386e-13 0)
(-2.5315e-29 -1.34764e-13 -1.34764e-13)
(-1.35714e-29 -7.51794e-14 0)
(-7.92791e-30 -6.26763e-14 -6.26763e-14)
(-1.40024e-31 2.38589e-14 -0)
(-1.14956e-30 1.02548e-14 1.02548e-14)
(5.24232e-31 -4.83533e-15 -0)
(1.02753e-31 -1.61192e-15 -1.61192e-15)
(9.57596e-32 -1.03751e-15 -0)
(1.10249e-30 -2.06572e-14 -2.06572e-14)
(-1.41926e-30 -1.24198e-14 0)
(6.28066e-31 8.86755e-15 8.86755e-15)
(1.21957e-32 4.76423e-16 0)
(-9.57446e-32 -1.44929e-15 -1.44929e-15)
(4.25589e-31 1.06155e-14 0)
(-2.94977e-25 4.81852e-12 4.81852e-12)
(-7.60317e-26 -5.60111e-12 0)
(-4.40193e-27 1.44896e-12 1.44896e-12)
(-1.0439e-28 -1.46795e-13 0)
(-4.40549e-29 2.05109e-13 2.05109e-13)
(6.27555e-31 4.10403e-14 0)
(-1.22774e-29 1.47761e-13 1.47761e-13)
(-3.3168e-30 3.09794e-14 -0)
(-1.08974e-29 8.94446e-14 8.94446e-14)
(-1.20624e-29 6.40393e-14 -0)
(-1.53235e-29 6.96126e-14 6.96126e-14)
(1.79866e-30 -2.5215e-14 -0)
(1.60876e-30 5.02348e-14 5.02348e-14)
(-1.88014e-30 5.95368e-14 -0)
(-1.04342e-30 4.91213e-14 4.91213e-14)
(1.10047e-30 5.69936e-14 0)
(-3.03364e-30 6.18145e-14 6.18145e-14)
(-2.35856e-32 4.15714e-16 -0)
(2.2554e-31 -4.2368e-15 -4.2368e-15)
(-2.92302e-31 2.0345e-14 -0)
(-8.6938e-25 -7.43295e-12 -7.43295e-12)
(-2.63016e-25 1.05142e-11 -0)
(-1.4717e-26 -2.40113e-12 -2.40113e-12)
(-5.89858e-28 5.87476e-13 -0)
(-5.61945e-30 -1.06939e-14 -1.06939e-14)
(-2.23956e-29 2.66733e-13 -0)
(-3.17561e-29 1.29886e-13 1.29886e-13)
(-3.22309e-29 1.07932e-13 -0)
(-1.00969e-29 4.21397e-14 4.21397e-14)
(2.07522e-30 -1.16638e-14 -0)
(-2.19382e-30 1.78406e-14 1.78406e-14)
(-4.00226e-30 4.69339e-14 -0)
(6.24173e-31 -1.24322e-14 -1.24322e-14)
(-3.12923e-31 -8.01379e-15 0)
(3.48216e-31 1.16336e-14 1.16336e-14)
(-4.41615e-31 5.71389e-15 -0)
(1.79864e-30 -6.61095e-14 -6.61095e-14)
(1.09103e-32 2.61599e-16 0)
(-7.6191e-32 2.55477e-15 2.55477e-15)
(-4.60061e-31 -2.84715e-14 0)
(-3.91869e-25 5.15573e-12 5.15573e-12)
(-1.09926e-25 -6.8504e-12 0)
(-6.30913e-27 1.5857e-12 1.5857e-12)
(-2.94819e-28 -4.02899e-13 0)
(-1.06617e-29 4.82772e-14 4.82772e-14)
(1.50336e-30 -6.80965e-14 -0)
(4.00593e-30 -4.88657e-14 -4.88657e-14)
(4.93352e-30 -6.53265e-14 -0)
(-3.37567e-30 -1.15661e-13 -1.15661e-13)
(4.3091e-33 -1.38233e-15 -0)
(-1.43689e-30 -3.34087e-14 -3.34087e-14)
(4.11024e-31 6.8596e-15 0)
(-1.07738e-30 4.21069e-14 4.21069e-14)
(-3.24447e-30 3.60099e-14 -0)
(-6.31614e-30 5.50977e-14 5.50977e-14)
(-1.73504e-30 1.75299e-14 -0)
(-8.86369e-31 4.69379e-14 4.69379e-14)
(-3.17968e-32 1.21113e-15 -0)
(-7.11588e-31 2.2958e-14 2.2958e-14)
(3.88436e-31 2.55272e-14 0)
(4.81161e-27 -2.2746e-13 -2.2746e-13)
(-6.55554e-27 -1.4716e-12 0)
(-3.76029e-28 3.69856e-13 3.69856e-13)
(-8.01492e-30 -3.74431e-14 0)
(-5.56028e-30 5.55154e-14 5.55154e-14)
(3.6555e-30 -5.21858e-14 -0)
(-1.17692e-30 9.77506e-15 9.77506e-15)
(8.19372e-30 -4.88308e-14 -0)
(-4.33611e-31 2.48924e-15 2.48924e-15)
(6.12893e-31 -3.18071e-15 -0)
(6.04721e-30 -4.24703e-14 -4.24703e-14)
(-6.94849e-31 1.77994e-14 -0)
(-8.15944e-32 1.65405e-15 1.65405e-15)
(-1.5858e-30 2.85327e-14 -0)
(3.52868e-30 -5.54766e-14 -5.54766e-14)
(-7.49165e-31 1.74575e-14 -0)
(1.71071e-30 5.20465e-14 5.20465e-14)
(-1.20392e-30 5.65825e-14 -0)
(-3.27124e-31 -3.57691e-14 -3.57691e-14)
(4.87011e-31 7.45085e-15 0)
(-2.7355e-25 -2.94999e-12 -2.94999e-12)
(-1.51543e-25 7.63011e-12 -0)
(-8.54058e-27 -1.7894e-12 -1.7894e-12)
(-3.43155e-28 3.88631e-13 -0)
(-1.93788e-29 -5.62564e-14 -5.62564e-14)
(-7.39506e-30 1.49793e-13 -0)
(-2.34264e-30 3.38274e-14 3.38274e-14)
(-1.11262e-29 9.54282e-14 -0)
(-2.56788e-29 1.22057e-13 1.22057e-13)
(-1.46415e-29 5.78796e-14 -0)
(1.58633e-29 -6.42036e-14 -6.42036e-14)
(1.96909e-30 -1.28674e-14 -0)
(1.05319e-29 -8.89489e-14 -8.89489e-14)
(2.09792e-30 -2.73551e-14 -0)
(6.25678e-30 -5.39828e-14 -5.39828e-14)
(5.72074e-30 -7.24466e-14 -0)
(-5.02352e-30 -7.55852e-14 -7.55852e-14)
(-7.6586e-30 -5.68203e-14 0)
(7.33629e-31 7.9257e-15 7.9257e-15)
(-6.82777e-31 -1.22958e-14 0)
(-3.50265e-26 1.17347e-12 1.17347e-12)
(-1.52958e-26 -2.47199e-12 0)
(-1.09458e-27 6.81959e-13 6.81959e-13)
(-1.74082e-29 -9.6054e-14 0)
(-7.34937e-30 7.17585e-14 7.17585e-14)
(1.19062e-31 2.07093e-14 0)
(-2.2723e-30 5.90812e-14 5.90812e-14)
(-1.24348e-30 2.8944e-14 -0)
(-3.01865e-31 5.30987e-15 5.30987e-15)
(-4.73398e-31 4.92814e-15 -0)
(-8.54152e-30 8.04809e-14 8.04809e-14)
(1.07791e-31 -1.22884e-15 -0)
(-8.33914e-30 8.8863e-14 8.8863e-14)
(-3.91704e-31 2.40021e-15 -0)
(-5.56637e-30 4.72348e-14 4.72348e-14)
(7.54464e-31 -8.07411e-15 -0)
(7.65068e-31 -2.06198e-14 -2.06198e-14)
(-7.41215e-30 -6.57366e-14 0)
(3.24814e-30 4.15571e-14 4.15571e-14)
(-1.00838e-30 3.17446e-14 -0)
(-4.72761e-25 5.537e-12 5.537e-12)
(-1.4267e-25 -7.88842e-12 0)
(-6.88619e-27 1.59047e-12 1.59047e-12)
(-3.86389e-28 -4.67759e-13 0)
(6.35512e-30 -3.2731e-14 -3.2731e-14)
(-6.73311e-30 -9.73666e-14 0)
(2.34102e-30 -6.95749e-14 -6.95749e-14)
(2.6357e-30 -5.46256e-14 -0)
(1.61694e-30 -5.48254e-14 -5.48254e-14)
(1.97546e-30 -4.69256e-14 -0)
(1.9815e-30 -1.93623e-14 -1.93623e-14)
(3.13183e-30 -2.62022e-14 -0)
(3.048e-30 -2.7369e-14 -2.7369e-14)
(4.01992e-30 -3.43917e-14 -0)
(2.41836e-31 -6.28145e-15 -6.28145e-15)
(-1.32902e-31 2.45788e-15 -0)
(5.48481e-31 -8.69518e-15 -8.69518e-15)
(1.49074e-30 4.53385e-14 0)
(-5.27994e-31 -2.05945e-14 -2.05945e-14)
(8.94711e-31 -2.77639e-14 -0)
)
;

boundaryField
{
    movingWall
    {
        type            calculated;
        value           nonuniform List<vector> 
20
(
(0 1.01047e-11 -0)
(0 -9.34871e-12 -0)
(0 1.28191e-12 -0)
(0 -6.80002e-13 -0)
(0 -1.90764e-13 -0)
(0 -2.82505e-13 -0)
(0 -2.54713e-13 -0)
(0 -2.2246e-13 -0)
(0 -2.67069e-13 -0)
(0 -2.59169e-13 -0)
(0 -2.58711e-13 -0)
(0 -1.76733e-13 -0)
(0 -1.779e-13 -0)
(0 -5.16956e-14 -0)
(0 -6.28145e-15 -0)
(0 -4.1951e-14 -0)
(0 -8.69518e-15 -0)
(0 7.99462e-14 -0)
(0 -3.78983e-14 -0)
(0 -4.50677e-14 -0)
)
;
    }
    fixedWalls
    {
        type            calculated;
        value           nonuniform List<vector> 
60
(
(0 -5.85018e-11 -0)
(0 -5.13773e-12 -0)
(0 5.2285e-11 -0)
(0 -4.14739e-11 -0)
(0 5.59372e-12 -0)
(0 3.24938e-11 -0)
(0 -4.07099e-11 -0)
(0 8.49636e-12 -0)
(0 2.56912e-11 -0)
(0 -3.15093e-11 -0)
(0 2.58842e-11 -0)
(0 -2.27383e-11 -0)
(0 5.83188e-12 -0)
(0 2.45412e-11 -0)
(0 -4.50234e-11 -0)
(0 2.95623e-11 -0)
(0 6.56411e-12 -0)
(0 -3.27549e-11 -0)
(0 1.07468e-11 -0)
(0 3.29603e-11 -0)
(0 -5.48927e-15 -0)
(0 -4.29766e-14 -0)
(0 -1.76946e-14 -0)
(0 -4.66581e-14 -0)
(0 3.31952e-14 -0)
(0 4.24617e-15 -0)
(0 -1.11864e-14 -0)
(0 1.09193e-14 -0)
(0 7.35187e-15 -0)
(0 -3.99594e-14 -0)
(0 8.90672e-15 -0)
(0 4.74857e-14 -0)
(0 1.60366e-14 -0)
(0 2.13581e-14 -0)
(0 -2.06416e-14 -0)
(0 3.31917e-14 -0)
(0 2.61452e-14 -0)
(0 -4.89331e-15 -0)
(0 1.43989e-14 -0)
(0 -3.99954e-14 -0)
(0 -1.98352e-11 -0)
(0 1.6588e-11 -0)
(0 -3.17241e-12 -0)
(0 9.23507e-13 -0)
(0 5.26573e-14 -0)
(0 2.92353e-13 -0)
(0 2.14568e-13 -0)
(0 1.85133e-13 -0)
(0 1.83275e-13 -0)
(0 8.72399e-14 -0)
(0 1.74752e-13 -0)
(0 1.32233e-13 -0)
(0 1.75674e-13 -0)
(0 4.13045e-14 -0)
(0 3.83544e-14 -0)
(0 -6.78277e-15 -0)
(0 -8.02475e-14 -0)
(0 1.15309e-14 -0)
(0 -8.92425e-14 -0)
(0 -2.3534e-15 -0)
)
;
    }
    frontAndBack
    {
        type            empty;
    }
}


// ************************************************************************* //
