/*--------------------------------*- C++ -*----------------------------------*\
| =========                 |                                                 |
| \\      /  F ield         | OpenFOAM: The Open Source CFD Toolbox           |
|  \\    /   O peration     | Version:  2312                                  |
|   \\  /    A nd           | Website:  www.openfoam.com                      |
|    \\/     M anipulation  |                                                 |
\*---------------------------------------------------------------------------*/
FoamFile
{
    version     2.0;
    format      ascii;
    arch        "LSB;label=32;scalar=64";
    class       volScalarField;
    location    "6.125";
    object      Lambda2Field;
}
// * * * * * * * * * * * * * * * * * * * * * * * * * * * * * * * * * * * * * //

dimensions      [0 0 -2 0 0 0 0];

internalField   nonuniform List<scalar> 
400
(
2.01444e-23
9.31664e-24
5.44616e-25
-1.81996e-26
2.05572e-26
-3.41904e-27
2.43677e-27
-3.91228e-28
2.76143e-28
8.55414e-29
8.91005e-28
5.38461e-29
8.41049e-28
1.63574e-28
0
2.89838e-28
1.72928e-27
5.59194e-30
0
0
8.37208e-24
1.21859e-23
8.49295e-25
1.41955e-26
0
-1.56373e-27
1.80148e-27
5.15814e-28
0
-9.09735e-28
1.67764e-28
0
1.6342e-28
1.35891e-27
8.11159e-28
-7.13938e-28
4.0457e-28
-6.12341e-28
1.11185e-28
0
6.41393e-23
2.04535e-23
7.31305e-25
-9.24519e-27
4.07684e-27
0
1.76006e-27
-6.04115e-28
1.43959e-27
-1.75166e-30
0
1.19165e-28
0
-1.26421e-27
0
3.03112e-28
1.52593e-27
0
2.77927e-29
5.66638e-28
3.10589e-23
1.27607e-23
6.41525e-25
-2.55144e-26
1.12034e-26
0
6.94353e-28
0
5.71498e-28
0
9.59424e-28
9.07535e-28
8.38099e-28
9.8562e-29
0
-1.56975e-27
8.07891e-28
0
0
-3.16639e-28
1.89947e-24
4.83934e-24
3.27301e-25
9.22173e-27
0
1.19658e-28
0
-1.1313e-27
1.20194e-28
4.6397e-29
0
-5.40925e-28
2.19387e-28
-3.49693e-28
0
0
1.97485e-28
1.21735e-28
0
5.21306e-28
1.62385e-23
6.13821e-24
3.59995e-26
1.20059e-26
7.34684e-28
0
0
2.40746e-28
9.45507e-28
6.94432e-28
0
0
9.57254e-28
1.27895e-28
8.6486e-28
3.23543e-28
0
5.57586e-29
8.99435e-29
8.52554e-29
1.03569e-23
5.41283e-24
0
6.95611e-26
0
0
0
4.11884e-29
1.20337e-29
-4.28945e-28
0
0
2.59784e-28
0
0
0
2.23172e-28
-1.36186e-28
3.20808e-29
2.47759e-28
8.20711e-25
4.39246e-25
1.12195e-25
1.53462e-26
4.56594e-27
-4.74142e-28
4.51418e-28
1.13375e-27
0
-1.00104e-27
7.91755e-28
4.28579e-28
0
-1.99738e-27
0
0
1.57292e-28
0
7.91106e-29
4.58687e-30
1.47675e-24
1.88249e-24
0
7.34684e-28
1.51843e-27
-6.90434e-28
0
9.67585e-28
8.75069e-28
3.17296e-29
0
0
0
0
1.69043e-27
1.47113e-28
7.78916e-30
0
0
0
0
5.97345e-25
0
-1.01075e-26
1.97741e-27
1.15599e-29
0
-2.34837e-28
0
8.88922e-29
1.25755e-28
2.60683e-28
0
-8.84808e-28
2.11576e-27
0
0
0
0
-1.75691e-28
0
0
0
3.19145e-26
0
2.15558e-27
5.80756e-28
-5.66496e-30
1.37382e-28
1.76376e-28
9.64216e-29
2.54593e-28
1.94999e-28
3.50697e-30
5.95111e-28
1.458e-28
0
1.15874e-28
0
2.27558e-28
5.92e-25
1.00839e-24
0
3.00705e-26
0
4.17096e-28
4.04118e-28
0
4.61115e-28
0
0
2.57816e-28
0
-1.89928e-27
0
1.9645e-28
1.02843e-27
0
1.32668e-28
0
4.0317e-24
1.78392e-24
6.51762e-26
8.24647e-27
3.89952e-27
0
3.0419e-27
8.97316e-28
2.54698e-27
2.31768e-28
3.51133e-28
0
1.42068e-28
0
0
1.21768e-28
0
1.30435e-28
0
1.77107e-28
6.94734e-27
1.44965e-24
0
5.37077e-26
0
1.44862e-27
4.95393e-27
2.19076e-27
2.6793e-27
0
1.68628e-27
5.35574e-30
8.4822e-28
-1.16241e-28
9.48484e-28
2.16067e-28
0
2.59462e-30
9.64294e-29
1.8896e-28
1.77542e-23
6.36985e-24
4.70198e-26
0
7.51069e-27
-1.45952e-26
0
5.29722e-29
1.32635e-27
3.43143e-28
2.51115e-28
5.66716e-28
7.18311e-29
0
0
1.39912e-28
0
0
0
-2.82853e-29
7.86229e-24
7.23999e-24
2.10852e-25
1.56904e-27
6.54015e-27
-7.50847e-28
2.8972e-28
-4.31471e-28
0
0
0
0
3.66294e-29
-1.51825e-28
6.86566e-28
2.7135e-28
9.81109e-28
3.96693e-29
1.12406e-28
4.2768e-29
5.9925e-24
6.03164e-24
3.78576e-25
1.67235e-26
3.19623e-27
1.17187e-28
0
3.08482e-28
5.75481e-28
0
3.18207e-28
7.05703e-28
8.68347e-29
-3.68989e-29
6.66029e-28
2.65502e-28
1.17292e-28
1.30735e-28
0
1.62512e-29
3.16904e-23
1.02815e-23
2.12374e-25
2.40065e-26
2.9942e-27
-4.42816e-27
0
-9.91758e-28
0
-1.0555e-28
0
0
1.13943e-28
0
1.23214e-29
-2.53918e-28
0
3.81501e-29
0
4.01406e-28
5.12582e-24
5.01833e-24
2.16379e-25
8.88052e-27
0
3.13829e-28
4.70623e-28
-3.13724e-30
0
4.44647e-28
8.02521e-28
1.12253e-29
0
1.61556e-29
9.95828e-28
0
0
0
0
-4.87459e-29
8.31977e-24
2.7097e-24
2.93426e-25
-1.22724e-26
8.20625e-27
-1.24913e-27
9.5466e-28
0
0
3.94895e-28
7.38186e-28
4.53971e-28
6.01221e-28
5.86954e-28
0
0
1.19267e-28
6.9303e-28
3.90244e-28
2.30916e-29
)
;

boundaryField
{
    movingWall
    {
        type            calculated;
        value           nonuniform List<scalar> 
20
(
0
0
8.26007e-25
-1.01545e-27
2.01677e-26
-3.51185e-27
3.12823e-27
0
0
1.94099e-27
2.79777e-27
8.9507e-28
6.87799e-28
1.86238e-27
0
1.09152e-28
6.55531e-28
9.60937e-28
7.53366e-28
1.36903e-28
)
;
    }
    fixedWalls
    {
        type            calculated;
        value           nonuniform List<scalar> 
60
(
1.58097e-22
2.08694e-22
3.40476e-22
2.15181e-22
8.1387e-23
9.14015e-23
5.2315e-23
7.28277e-24
1.01925e-23
-1.70413e-23
0
7.76448e-24
4.74802e-23
2.84563e-24
1.1784e-22
1.07619e-22
1.03026e-22
1.61615e-22
8.10084e-23
5.21227e-23
0
9.65817e-29
1.32686e-27
-4.94629e-28
1.4501e-27
8.52554e-29
4.65543e-28
4.58687e-30
4.88367e-29
-3.48268e-28
0
0
2.414e-28
1.61498e-28
1.75192e-28
-1.40767e-28
1.87145e-28
6.02051e-28
3.444e-28
0
0
0
1.9996e-26
0
4.05503e-26
-6.33191e-27
4.59885e-27
-1.29518e-27
0
1.40151e-28
1.24692e-27
1.32332e-28
1.08322e-27
1.46133e-28
2.68874e-28
7.34061e-28
3.69994e-27
5.16659e-29
0
0
)
;
    }
    frontAndBack
    {
        type            empty;
    }
}


// ************************************************************************* //
