/*--------------------------------*- C++ -*----------------------------------*\
| =========                 |                                                 |
| \\      /  F ield         | OpenFOAM: The Open Source CFD Toolbox           |
|  \\    /   O peration     | Version:  2312                                  |
|   \\  /    A nd           | Website:  www.openfoam.com                      |
|    \\/     M anipulation  |                                                 |
\*---------------------------------------------------------------------------*/
FoamFile
{
    version     2.0;
    format      ascii;
    arch        "LSB;label=32;scalar=64";
    class       volVectorField;
    location    "6.125";
    object      U;
}
// * * * * * * * * * * * * * * * * * * * * * * * * * * * * * * * * * * * * * //

dimensions      [0 1 -1 0 0 0 0];

internalField   nonuniform List<vector> 
400
(
(-1 1.50117e-13 0)
(-1 -3.25894e-14 0)
(-1 7.7736e-15 0)
(-1 -1.75352e-15 0)
(-1 3.14883e-16 0)
(-1 -5.96428e-17 0)
(-1 5.58858e-17 0)
(-1 1.51223e-17 0)
(-1 -1.9086e-17 0)
(-1 -4.12682e-17 0)
(-1 -3.30639e-18 0)
(-1 -1.24321e-17 0)
(-1 6.62647e-18 0)
(-1 7.18884e-18 0)
(-1 3.76707e-17 0)
(-1 6.77339e-17 0)
(-1 1.05498e-16 0)
(-1 -1.79698e-17 0)
(-1 -9.8108e-18 0)
(-1 -1.37232e-17 0)
(-1 1.55548e-14 0)
(-1 -3.41525e-15 0)
(-1 7.39934e-16 0)
(-1 -3.0685e-16 0)
(-1 4.04971e-17 0)
(-1 1.55051e-16 0)
(-1 1.59933e-16 0)
(-1 2.38578e-17 0)
(-1 -3.03684e-17 0)
(-1 3.12018e-17 0)
(-1 9.55372e-17 0)
(-1 1.3578e-16 0)
(-1 1.5941e-16 0)
(-1 1.20707e-16 0)
(-1 1.4623e-18 0)
(-1 1.02512e-16 0)
(-1 1.67252e-16 0)
(-1 4.1617e-17 0)
(-1 -5.86697e-17 0)
(-1 -1.07442e-16 0)
(-1 -1.44807e-13 0)
(-1 3.18559e-14 0)
(-1 -7.66615e-15 0)
(-1 1.51857e-15 0)
(-1 -4.68821e-16 0)
(-1 1.44782e-17 0)
(-1 3.14811e-17 0)
(-1 8.84511e-17 0)
(-1 1.06001e-16 0)
(-1 1.72118e-16 0)
(-1 1.08747e-16 0)
(-1 1.35098e-16 0)
(-1 2.26318e-16 0)
(-1 2.31393e-16 0)
(-1 -1.36419e-17 0)
(-1 -6.82117e-17 0)
(-1 -8.72815e-17 0)
(-1 -1.64697e-17 0)
(-1 -8.44019e-17 0)
(-1 -1.11999e-16 0)
(-1 1.11816e-13 0)
(-1 -2.44585e-14 0)
(-1 5.70881e-15 0)
(-1 -1.31993e-15 0)
(-1 1.46771e-16 0)
(-1 -2.18428e-16 0)
(-1 -3.8585e-17 0)
(-1 3.74517e-17 0)
(-1 7.41394e-17 0)
(-1 7.34927e-18 0)
(-1 -3.03408e-17 0)
(-1 2.66176e-17 0)
(-1 1.35413e-16 0)
(-1 1.8122e-16 0)
(-1 7.56944e-17 0)
(-1 -7.15887e-17 0)
(-1 -1.36852e-16 0)
(-1 -6.25858e-17 0)
(-1 -8.09811e-17 0)
(-1 -4.88826e-17 0)
(-1 -1.07317e-14 0)
(-1 2.20168e-15 0)
(-1 -4.98681e-16 0)
(-1 1.14522e-16 0)
(-1 -1.72993e-17 0)
(-1 5.52178e-17 0)
(-1 2.68467e-17 0)
(-1 -9.63705e-18 0)
(-1 -7.78786e-17 0)
(-1 -1.54933e-16 0)
(-1 -2.2244e-17 0)
(-1 1.65071e-16 0)
(-1 2.27165e-16 0)
(-1 7.00152e-17 0)
(-1 7.703e-17 0)
(-1 5.8287e-17 0)
(-1 -8.46151e-18 0)
(-1 -2.87703e-17 0)
(-1 -4.36267e-17 0)
(-1 -5.25372e-17 0)
(-1 -8.70621e-14 0)
(-1 1.86605e-14 0)
(-1 -4.2686e-15 0)
(-1 9.63577e-16 0)
(-1 -1.10266e-16 0)
(-1 9.71446e-17 0)
(-1 -1.68136e-17 0)
(-1 1.71081e-17 0)
(-1 -1.56706e-17 0)
(-1 -6.07661e-17 0)
(-1 2.57184e-17 0)
(-1 1.4285e-16 0)
(-1 1.63317e-16 0)
(-1 1.05556e-16 0)
(-1 1.16132e-16 0)
(-1 6.1263e-17 0)
(-1 -3.23451e-18 0)
(-1 -1.11861e-17 0)
(-1 4.72861e-17 0)
(-1 1.06154e-17 0)
(-1 1.04892e-13 0)
(-1 -2.1879e-14 0)
(-1 5.25956e-15 0)
(-1 -9.63299e-16 0)
(-1 4.07722e-16 0)
(-1 3.92951e-17 0)
(-1 5.93026e-17 0)
(-1 1.45523e-16 0)
(-1 1.75328e-16 0)
(-1 1.29077e-16 0)
(-1 7.80307e-17 0)
(-1 -7.43895e-18 0)
(-1 -4.10817e-17 0)
(-1 8.84045e-17 0)
(-1 9.98654e-17 0)
(-1 3.30942e-17 0)
(-1 2.33631e-17 0)
(-1 4.59014e-17 0)
(-1 5.05833e-17 0)
(-1 3.97966e-17 0)
(-1 -2.23929e-14 0)
(-1 5.15574e-15 0)
(-1 -1.13293e-15 0)
(-1 3.46617e-16 0)
(-1 -1.84117e-17 0)
(-1 4.64507e-17 0)
(-1 9.30829e-17 0)
(-1 8.12862e-17 0)
(-1 -4.93714e-17 0)
(-1 3.84834e-17 0)
(-1 1.10721e-16 0)
(-1 2.79555e-17 0)
(-1 -2.57705e-17 0)
(-1 9.80514e-17 0)
(-1 2.20148e-16 0)
(-1 9.86864e-17 0)
(-1 7.1897e-17 0)
(-1 2.25415e-17 0)
(-1 -9.27147e-18 0)
(-1 2.72982e-17 0)
(-1 -6.49056e-14 0)
(-1 1.31335e-14 0)
(-1 -3.28727e-15 0)
(-1 5.10106e-16 0)
(-1 -2.89223e-16 0)
(-1 -5.00968e-17 0)
(-1 4.73734e-17 0)
(-1 -4.46102e-17 0)
(-1 -8.76357e-17 0)
(-1 -3.45765e-17 0)
(-1 1.85126e-17 0)
(-1 6.91232e-17 0)
(-1 4.32773e-17 0)
(-1 1.03614e-16 0)
(-1 1.74678e-16 0)
(-1 7.60587e-17 0)
(-1 1.42861e-16 0)
(-1 3.48902e-17 0)
(-1 -3.8329e-17 0)
(-1 1.83797e-17 0)
(-1 7.73502e-14 0)
(-1 -1.65326e-14 0)
(-1 3.88985e-15 0)
(-1 -8.32051e-16 0)
(-1 7.39667e-17 0)
(-1 -1.02516e-16 0)
(-1 -6.99354e-18 0)
(-1 -7.2239e-17 0)
(-1 7.99847e-17 0)
(-1 9.48125e-17 0)
(-1 4.94753e-17 0)
(-1 3.88212e-17 0)
(-1 5.09798e-17 0)
(-1 1.1332e-17 0)
(-1 -7.63585e-17 0)
(-1 2.06665e-17 0)
(-1 9.07439e-17 0)
(-1 8.52309e-17 0)
(-1 -3.27384e-17 0)
(-1 -3.21359e-17 0)
(-1 -6.0848e-14 0)
(-1 1.3142e-14 0)
(-1 -3.07761e-15 0)
(-1 6.63567e-16 0)
(-1 -2.30323e-16 0)
(-1 -1.6097e-17 0)
(-1 1.26618e-17 0)
(-1 -3.50267e-17 0)
(-1 -7.8385e-17 0)
(-1 -9.68423e-18 0)
(-1 -1.33136e-17 0)
(-1 -9.10657e-17 0)
(-1 -3.2005e-17 0)
(-1 -1.91237e-17 0)
(-1 -3.13687e-17 0)
(-1 6.05612e-17 0)
(-1 -2.14034e-17 0)
(-1 4.07003e-17 0)
(-1 1.85038e-17 0)
(-1 2.22668e-17 0)
(-1 5.5626e-14 0)
(-1 -1.17277e-14 0)
(-1 2.83966e-15 0)
(-1 -5.08921e-16 0)
(-1 2.32586e-16 0)
(-1 3.15537e-17 0)
(-1 9.57119e-17 0)
(-1 9.25323e-17 0)
(-1 -5.16386e-17 0)
(-1 -3.61191e-17 0)
(-1 -3.98915e-17 0)
(-1 -1.49837e-16 0)
(-1 -8.68948e-17 0)
(-1 8.93578e-18 0)
(-1 9.32212e-17 0)
(-1 1.29657e-16 0)
(-1 6.90621e-17 0)
(-1 5.74727e-17 0)
(-1 1.17879e-16 0)
(-1 1.18714e-16 0)
(-1 -1.76968e-14 0)
(-1 3.83983e-15 0)
(-1 -7.75069e-16 0)
(-1 2.38771e-16 0)
(-1 4.1345e-17 0)
(-1 1.88132e-16 0)
(-1 1.87847e-16 0)
(-1 1.8052e-16 0)
(-1 1.2649e-16 0)
(-1 -5.86884e-18 0)
(-1 -1.12099e-16 0)
(-1 -1.08417e-16 0)
(-1 -6.37459e-17 0)
(-1 -9.22977e-17 0)
(-1 -5.33708e-17 0)
(-1 1.14274e-16 0)
(-1 7.08275e-17 0)
(-1 2.55985e-17 0)
(-1 6.60632e-17 0)
(-1 4.00914e-17 0)
(-1 -6.12175e-14 0)
(-1 1.35744e-14 0)
(-1 -3.03799e-15 0)
(-1 7.11126e-16 0)
(-1 -2.14788e-16 0)
(-1 1.52912e-17 0)
(-1 -8.309e-17 0)
(-1 -1.07064e-16 0)
(-1 -1.21834e-16 0)
(-1 -1.88359e-16 0)
(-1 -2.20126e-16 0)
(-1 -7.13329e-17 0)
(-1 3.20248e-17 0)
(-1 -3.15795e-17 0)
(-1 -2.12417e-17 0)
(-1 1.93086e-17 0)
(-1 -4.90765e-17 0)
(-1 -5.67353e-17 0)
(-1 -5.32337e-17 0)
(-1 -1.43673e-17 0)
(-1 1.16963e-13 0)
(-1 -2.50154e-14 0)
(-1 6.12919e-15 0)
(-1 -1.00405e-15 0)
(-1 5.25482e-16 0)
(-1 -8.39629e-17 0)
(-1 -2.44492e-16 0)
(-1 -2.98623e-16 0)
(-1 -2.39606e-16 0)
(-1 -1.77919e-16 0)
(-1 -1.22968e-16 0)
(-1 -8.52744e-17 0)
(-1 -5.0206e-17 0)
(-1 3.90481e-17 0)
(-1 2.99319e-17 0)
(-1 -7.72879e-17 0)
(-1 -2.7207e-17 0)
(-1 4.17064e-17 0)
(-1 -2.9823e-17 0)
(-1 1.61586e-17 0)
(-1 -7.60065e-14 0)
(-1 1.60466e-14 0)
(-1 -3.97878e-15 0)
(-1 7.31746e-16 0)
(-1 -2.20842e-16 0)
(-1 -2.2077e-17 0)
(-1 -8.19782e-17 0)
(-1 -7.5521e-17 0)
(-1 2.9186e-17 0)
(-1 -3.11727e-18 0)
(-1 4.30093e-17 0)
(-1 5.99194e-17 0)
(-1 -2.55867e-17 0)
(-1 -9.00994e-17 0)
(-1 -1.14635e-16 0)
(-1 -9.89756e-17 0)
(-1 -1.88839e-17 0)
(-1 -2.62538e-17 0)
(-1 -3.09952e-17 0)
(-1 1.52166e-17 0)
(-1 -2.11537e-14 0)
(-1 4.45472e-15 0)
(-1 -1.01669e-15 0)
(-1 2.14056e-16 0)
(-1 -1.00157e-16 0)
(-1 -7.00477e-17 0)
(-1 -1.20401e-16 0)
(-1 -1.67798e-16 0)
(-1 -1.74194e-16 0)
(-1 -1.92691e-16 0)
(-1 -1.42387e-16 0)
(-1 -3.90378e-17 0)
(-1 -4.93302e-17 0)
(-1 -5.55782e-17 0)
(-1 -6.36067e-17 0)
(-1 -4.29137e-17 0)
(-1 3.28689e-17 0)
(-1 -2.12772e-17 0)
(-1 9.14545e-18 0)
(-1 6.53631e-17 0)
(-1 9.27292e-14 0)
(-1 -1.98611e-14 0)
(-1 4.77288e-15 0)
(-1 -8.82983e-16 0)
(-1 3.44472e-16 0)
(-1 -4.93686e-17 0)
(-1 -6.92527e-17 0)
(-1 -1.16592e-16 0)
(-1 -2.10383e-16 0)
(-1 -2.52964e-16 0)
(-1 -2.47078e-16 0)
(-1 -1.5303e-16 0)
(-1 -1.18404e-16 0)
(-1 -7.6692e-17 0)
(-1 -1.15903e-16 0)
(-1 -7.89649e-17 0)
(-1 6.64617e-17 0)
(-1 1.34786e-16 0)
(-1 9.25633e-17 0)
(-1 5.55294e-17 0)
(-1 -2.98486e-14 0)
(-1 6.18767e-15 0)
(-1 -1.60506e-15 0)
(-1 1.81233e-16 0)
(-1 -1.02418e-16 0)
(-1 5.74921e-18 0)
(-1 -3.84607e-17 0)
(-1 -4.29615e-17 0)
(-1 -5.68497e-17 0)
(-1 -9.60603e-17 0)
(-1 -1.06131e-16 0)
(-1 -8.77178e-17 0)
(-1 -9.38427e-17 0)
(-1 -1.63196e-16 0)
(-1 -1.17845e-16 0)
(-1 -9.34424e-17 0)
(-1 -3.71036e-17 0)
(-1 1.12755e-16 0)
(-1 7.81609e-17 0)
(-1 -3.17653e-17 0)
(-1 -8.53822e-14 0)
(-1 1.8086e-14 0)
(-1 -4.32965e-15 0)
(-1 8.26045e-16 0)
(-1 -1.94162e-16 0)
(-1 6.91522e-17 0)
(-1 -3.36474e-17 0)
(-1 -4.82503e-17 0)
(-1 -2.94926e-17 0)
(-1 -4.20978e-17 0)
(-1 -1.02338e-16 0)
(-1 -1.19525e-16 0)
(-1 -1.11367e-16 0)
(-1 -1.16886e-16 0)
(-1 -3.85e-17 0)
(-1 -5.40716e-17 0)
(-1 -6.30788e-17 0)
(-1 3.28801e-17 0)
(-1 2.56377e-17 0)
(-1 -3.22257e-17 0)
)
;

boundaryField
{
    movingWall
    {
        type            fixedValue;
        value           uniform (-1 -0 -0);
    }
    fixedWalls
    {
        type            noSlip;
    }
    frontAndBack
    {
        type            empty;
    }
}


// ************************************************************************* //
