/*--------------------------------*- C++ -*----------------------------------*\
| =========                 |                                                 |
| \\      /  F ield         | OpenFOAM: The Open Source CFD Toolbox           |
|  \\    /   O peration     | Version:  2312                                  |
|   \\  /    A nd           | Website:  www.openfoam.com                      |
|    \\/     M anipulation  |                                                 |
\*---------------------------------------------------------------------------*/
FoamFile
{
    version     2.0;
    format      ascii;
    arch        "LSB;label=32;scalar=64";
    class       volVectorField;
    location    "6.125";
    object      vorticityField;
}
// * * * * * * * * * * * * * * * * * * * * * * * * * * * * * * * * * * * * * //

dimensions      [0 0 -1 0 0 0 0];

internalField   nonuniform List<vector> 
400
(
(0 -0 1.02078e-11)
(0 -0 -1.38549e-11)
(0 -0 3.00227e-12)
(0 -0 -8.27187e-13)
(0 -0 6.09671e-14)
(0 -0 -1.61425e-13)
(0 -0 -7.38387e-14)
(0 -0 -6.17073e-14)
(0 -0 -8.69542e-14)
(0 -0 -5.26321e-14)
(0 -0 -5.13265e-14)
(0 -0 -5.32168e-14)
(0 -0 -5.2248e-14)
(0 -0 3.10443e-15)
(0 -0 6.0545e-15)
(0 -0 6.78277e-15)
(0 -0 4.56397e-14)
(0 -0 -1.15309e-14)
(0 -0 4.24656e-16)
(0 -0 2.3534e-15)
(0 -0 1.29755e-13)
(0 -0 -1.12912e-12)
(0 -0 3.1084e-13)
(0 -0 3.84765e-14)
(0 -0 1.81715e-13)
(0 -0 1.47469e-13)
(0 -0 6.81959e-14)
(0 -0 8.07487e-15)
(0 -0 5.49445e-14)
(0 -0 1.21011e-13)
(0 -0 6.46679e-14)
(0 -0 6.05974e-14)
(0 -0 1.06913e-13)
(0 -0 3.84153e-14)
(0 -0 5.23906e-14)
(0 -0 7.07891e-14)
(0 -0 -6.02996e-14)
(0 -0 -4.96973e-14)
(0 -0 -1.49059e-14)
(0 -0 1.66111e-14)
(0 -0 -5.65726e-12)
(0 -0 1.22775e-11)
(0 -0 -2.8169e-12)
(0 -0 7.46838e-13)
(0 -0 -1.23304e-13)
(0 -0 1.0424e-13)
(0 -0 8.87125e-14)
(0 -0 8.87672e-14)
(0 -0 8.96818e-14)
(0 -0 2.73796e-14)
(0 -0 -3.70201e-15)
(0 -0 1.17572e-14)
(0 -0 9.62956e-15)
(0 -0 -7.82061e-14)
(0 -0 -1.11276e-13)
(0 -0 -7.36397e-15)
(0 -0 5.93843e-14)
(0 -0 2.87964e-16)
(0 -0 -9.55295e-15)
(0 -0 -7.46495e-15)
(0 -0 5.48315e-12)
(0 -0 -9.79758e-12)
(0 -0 2.15123e-12)
(0 -0 -6.37519e-13)
(0 -0 2.88346e-14)
(0 -0 -9.98508e-14)
(0 -0 -1.5171e-15)
(0 -0 1.12724e-14)
(0 -0 -5.72204e-14)
(0 -0 -1.18868e-13)
(0 -0 -5.22833e-14)
(0 -0 -3.76348e-14)
(0 -0 -3.87499e-14)
(0 -0 -3.30769e-14)
(0 -0 -5.23859e-14)
(0 -0 -1.29675e-13)
(0 -0 -8.04149e-14)
(0 -0 5.58712e-15)
(0 -0 1.37032e-15)
(0 -0 4.00914e-14)
(0 -0 -2.15404e-12)
(0 -0 1.24014e-12)
(0 -0 -3.44241e-13)
(0 -0 -6.07195e-15)
(0 -0 -6.01405e-14)
(0 -0 -2.26905e-14)
(0 -0 -1.14906e-13)
(0 -0 -1.18893e-13)
(0 -0 -4.16347e-14)
(0 -0 5.56347e-15)
(0 -0 8.62105e-14)
(0 -0 5.2046e-14)
(0 -0 -6.37157e-14)
(0 -0 -4.21186e-14)
(0 -0 -1.17282e-15)
(0 -0 -8.54915e-15)
(0 -0 -8.70573e-15)
(0 -0 2.35885e-14)
(0 -0 -2.37669e-15)
(0 -0 -4.45937e-14)
(0 -0 -4.50913e-12)
(0 -0 7.62883e-12)
(0 -0 -1.76969e-12)
(0 -0 3.88728e-13)
(0 -0 -8.66432e-14)
(0 -0 9.34523e-15)
(0 -0 -8.00365e-15)
(0 -0 1.14298e-16)
(0 -0 1.93176e-14)
(0 -0 3.1244e-14)
(0 -0 7.45717e-14)
(0 -0 4.08649e-14)
(0 -0 2.33757e-14)
(0 -0 2.23865e-14)
(0 -0 4.97808e-14)
(0 -0 1.51684e-14)
(0 -0 -7.24491e-15)
(0 -0 5.05206e-15)
(0 -0 2.18015e-15)
(0 -0 -5.79015e-15)
(0 -0 7.05445e-12)
(0 -0 -9.42112e-12)
(0 -0 2.2542e-12)
(0 -0 -3.49659e-13)
(0 -0 1.5447e-13)
(0 -0 -3.48419e-14)
(0 -0 3.77278e-14)
(0 -0 1.16025e-14)
(0 -0 -1.64463e-15)
(0 -0 -6.39398e-14)
(0 -0 -1.22072e-13)
(0 -0 -6.61213e-14)
(0 -0 -1.75207e-14)
(0 -0 1.40947e-14)
(0 -0 -3.26361e-14)
(0 -0 -3.47553e-14)
(0 -0 2.83858e-14)
(0 -0 5.69321e-14)
(0 -0 -6.10471e-16)
(0 -0 1.80671e-14)
(0 -0 -1.26293e-12)
(0 -0 2.07178e-12)
(0 -0 -3.45387e-13)
(0 -0 1.38557e-13)
(0 -0 2.41935e-14)
(0 -0 1.1957e-13)
(0 -0 8.47987e-14)
(0 -0 3.99647e-14)
(0 -0 -4.28029e-15)
(0 -0 1.24429e-13)
(0 -0 5.31573e-14)
(0 -0 1.34559e-14)
(0 -0 6.12197e-14)
(0 -0 1.05907e-13)
(0 -0 2.71686e-14)
(0 -0 -1.48251e-14)
(0 -0 -7.61449e-15)
(0 -0 -8.11685e-15)
(0 -0 4.75667e-16)
(0 -0 -1.80267e-15)
(0 -0 -4.90616e-12)
(0 -0 5.89078e-12)
(0 -0 -1.39787e-12)
(0 -0 2.99805e-13)
(0 -0 -2.89152e-14)
(0 -0 6.07646e-14)
(0 -0 2.76537e-14)
(0 -0 4.07092e-14)
(0 -0 5.52135e-14)
(0 -0 1.06148e-14)
(0 -0 9.16851e-14)
(0 -0 1.10897e-13)
(0 -0 3.44906e-15)
(0 -0 4.02452e-14)
(0 -0 5.14546e-14)
(0 -0 2.39233e-14)
(0 -0 -4.11685e-15)
(0 -0 -1.8119e-14)
(0 -0 -1.65105e-15)
(0 -0 1.99493e-15)
(0 -0 6.65097e-12)
(0 -0 -7.26472e-12)
(0 -0 1.65137e-12)
(0 -0 -4.08693e-13)
(0 -0 4.58484e-14)
(0 -0 -8.09602e-15)
(0 -0 3.02772e-15)
(0 -0 3.58029e-14)
(0 -0 1.67051e-14)
(0 -0 2.40541e-14)
(0 -0 -3.27042e-14)
(0 -0 -2.69546e-14)
(0 -0 -2.74892e-15)
(0 -0 -9.4049e-14)
(0 -0 -8.03817e-14)
(0 -0 4.38153e-14)
(0 -0 6.45643e-15)
(0 -0 -6.65583e-14)
(0 -0 -1.17367e-14)
(0 -0 3.35925e-14)
(0 -0 -6.31558e-12)
(0 -0 5.88546e-12)
(0 -0 -1.46469e-12)
(0 -0 1.76308e-13)
(0 -0 -1.76387e-13)
(0 -0 -5.70167e-14)
(0 -0 -8.32081e-14)
(0 -0 -9.04198e-14)
(0 -0 -5.16759e-14)
(0 -0 -2.05979e-14)
(0 -0 -8.13815e-15)
(0 -0 -5.60792e-14)
(0 -0 -1.99109e-14)
(0 -0 -5.41465e-14)
(0 -0 -1.91366e-14)
(0 -0 -2.61085e-14)
(0 -0 -1.98609e-15)
(0 -0 -2.31143e-14)
(0 -0 -2.89484e-14)
(0 -0 -4.07707e-15)
(0 -0 4.87772e-12)
(0 -0 -5.25153e-12)
(0 -0 1.31161e-12)
(0 -0 -1.52288e-13)
(0 -0 1.08258e-13)
(0 -0 -1.36874e-14)
(0 -0 6.0308e-14)
(0 -0 -1.47351e-14)
(0 -0 -1.28651e-14)
(0 -0 1.17471e-15)
(0 -0 -1.13718e-14)
(0 -0 4.95098e-14)
(0 -0 9.71924e-14)
(0 -0 1.26432e-13)
(0 -0 1.20492e-13)
(0 -0 7.88993e-14)
(0 -0 4.69917e-14)
(0 -0 3.19867e-14)
(0 -0 3.32292e-14)
(0 -0 -2.36593e-14)
(0 -0 -1.38864e-13)
(0 -0 1.55665e-12)
(0 -0 -1.97475e-13)
(0 -0 1.62957e-13)
(0 -0 1.84672e-13)
(0 -0 2.04386e-13)
(0 -0 1.34764e-13)
(0 -0 7.51794e-14)
(0 -0 6.26763e-14)
(0 -0 -2.38589e-14)
(0 -0 -1.02548e-14)
(0 -0 4.83533e-15)
(0 -0 1.61192e-15)
(0 -0 1.03751e-15)
(0 -0 2.06572e-14)
(0 -0 1.24198e-14)
(0 -0 -8.86755e-15)
(0 -0 -4.76423e-16)
(0 -0 1.44929e-15)
(0 -0 -1.06155e-14)
(0 -0 -4.81852e-12)
(0 -0 5.60111e-12)
(0 -0 -1.44896e-12)
(0 -0 1.46795e-13)
(0 -0 -2.05109e-13)
(0 -0 -4.10403e-14)
(0 -0 -1.47761e-13)
(0 -0 -3.09794e-14)
(0 -0 -8.94446e-14)
(0 -0 -6.40393e-14)
(0 -0 -6.96126e-14)
(0 -0 2.5215e-14)
(0 -0 -5.02348e-14)
(0 -0 -5.95368e-14)
(0 -0 -4.91213e-14)
(0 -0 -5.69936e-14)
(0 -0 -6.18145e-14)
(0 -0 -4.15714e-16)
(0 -0 4.2368e-15)
(0 -0 -2.0345e-14)
(0 -0 7.43295e-12)
(0 -0 -1.05142e-11)
(0 -0 2.40113e-12)
(0 -0 -5.87476e-13)
(0 -0 1.06939e-14)
(0 -0 -2.66733e-13)
(0 -0 -1.29886e-13)
(0 -0 -1.07932e-13)
(0 -0 -4.21397e-14)
(0 -0 1.16638e-14)
(0 -0 -1.78406e-14)
(0 -0 -4.69339e-14)
(0 -0 1.24322e-14)
(0 -0 8.01379e-15)
(0 -0 -1.16336e-14)
(0 -0 -5.71389e-15)
(0 -0 6.61095e-14)
(0 -0 -2.61599e-16)
(0 -0 -2.55477e-15)
(0 -0 2.84715e-14)
(0 -0 -5.15573e-12)
(0 -0 6.8504e-12)
(0 -0 -1.5857e-12)
(0 -0 4.02899e-13)
(0 -0 -4.82772e-14)
(0 -0 6.80965e-14)
(0 -0 4.88657e-14)
(0 -0 6.53265e-14)
(0 -0 1.15661e-13)
(0 -0 1.38233e-15)
(0 -0 3.34087e-14)
(0 -0 -6.8596e-15)
(0 -0 -4.21069e-14)
(0 -0 -3.60099e-14)
(0 -0 -5.50977e-14)
(0 -0 -1.75299e-14)
(0 -0 -4.69379e-14)
(0 -0 -1.21113e-15)
(0 -0 -2.2958e-14)
(0 -0 -2.55272e-14)
(0 -0 2.2746e-13)
(0 -0 1.4716e-12)
(0 -0 -3.69856e-13)
(0 -0 3.74431e-14)
(0 -0 -5.55154e-14)
(0 -0 5.21858e-14)
(0 -0 -9.77506e-15)
(0 -0 4.88308e-14)
(0 -0 -2.48924e-15)
(0 -0 3.18071e-15)
(0 -0 4.24703e-14)
(0 -0 -1.77994e-14)
(0 -0 -1.65405e-15)
(0 -0 -2.85327e-14)
(0 -0 5.54766e-14)
(0 -0 -1.74575e-14)
(0 -0 -5.20465e-14)
(0 -0 -5.65825e-14)
(0 -0 3.57691e-14)
(0 -0 -7.45085e-15)
(0 -0 2.94999e-12)
(0 -0 -7.63011e-12)
(0 -0 1.7894e-12)
(0 -0 -3.88631e-13)
(0 -0 5.62564e-14)
(0 -0 -1.49793e-13)
(0 -0 -3.38274e-14)
(0 -0 -9.54282e-14)
(0 -0 -1.22057e-13)
(0 -0 -5.78796e-14)
(0 -0 6.42036e-14)
(0 -0 1.28674e-14)
(0 -0 8.89489e-14)
(0 -0 2.73551e-14)
(0 -0 5.39828e-14)
(0 -0 7.24466e-14)
(0 -0 7.55852e-14)
(0 -0 5.68203e-14)
(0 -0 -7.9257e-15)
(0 -0 1.22958e-14)
(0 -0 -1.17347e-12)
(0 -0 2.47199e-12)
(0 -0 -6.81959e-13)
(0 -0 9.6054e-14)
(0 -0 -7.17585e-14)
(0 -0 -2.07093e-14)
(0 -0 -5.90812e-14)
(0 -0 -2.8944e-14)
(0 -0 -5.30987e-15)
(0 -0 -4.92814e-15)
(0 -0 -8.04809e-14)
(0 -0 1.22884e-15)
(0 -0 -8.8863e-14)
(0 -0 -2.40021e-15)
(0 -0 -4.72348e-14)
(0 -0 8.07411e-15)
(0 -0 2.06198e-14)
(0 -0 6.57366e-14)
(0 -0 -4.15571e-14)
(0 -0 -3.17446e-14)
(0 -0 -5.537e-12)
(0 -0 7.88842e-12)
(0 -0 -1.59047e-12)
(0 -0 4.67759e-13)
(0 -0 3.2731e-14)
(0 -0 9.73666e-14)
(0 -0 6.95749e-14)
(0 -0 5.46256e-14)
(0 -0 5.48254e-14)
(0 -0 4.69256e-14)
(0 -0 1.93623e-14)
(0 -0 2.62022e-14)
(0 -0 2.7369e-14)
(0 -0 3.43917e-14)
(0 -0 6.28145e-15)
(0 -0 -2.45788e-15)
(0 -0 8.69518e-15)
(0 -0 -4.53385e-14)
(0 -0 2.05945e-14)
(0 -0 2.77639e-14)
)
;

boundaryField
{
    movingWall
    {
        type            calculated;
        value           nonuniform List<vector> 
20
(
(0 -0 -1.01047e-11)
(0 -0 9.34871e-12)
(0 -0 -1.28191e-12)
(0 -0 6.80002e-13)
(0 -0 1.90764e-13)
(0 -0 2.82505e-13)
(0 -0 2.54713e-13)
(0 -0 2.2246e-13)
(0 -0 2.67069e-13)
(0 -0 2.59169e-13)
(0 -0 2.58711e-13)
(0 -0 1.76733e-13)
(0 -0 1.779e-13)
(0 -0 5.16956e-14)
(0 -0 6.28145e-15)
(0 -0 4.1951e-14)
(0 -0 8.69518e-15)
(0 -0 -7.99462e-14)
(0 -0 3.78983e-14)
(0 -0 4.50677e-14)
)
;
    }
    fixedWalls
    {
        type            calculated;
        value           nonuniform List<vector> 
60
(
(0 -0 5.85018e-11)
(0 -0 5.13773e-12)
(0 -0 -5.2285e-11)
(0 -0 4.14739e-11)
(0 -0 -5.59372e-12)
(0 -0 -3.24938e-11)
(0 -0 4.07099e-11)
(0 -0 -8.49636e-12)
(0 -0 -2.56912e-11)
(0 -0 3.15093e-11)
(0 -0 -2.58842e-11)
(0 -0 2.27383e-11)
(0 -0 -5.83188e-12)
(0 -0 -2.45412e-11)
(0 -0 4.50234e-11)
(0 -0 -2.95623e-11)
(0 -0 -6.56411e-12)
(0 -0 3.27549e-11)
(0 -0 -1.07468e-11)
(0 -0 -3.29603e-11)
(0 -0 5.48927e-15)
(0 -0 4.29766e-14)
(0 -0 1.76946e-14)
(0 -0 4.66581e-14)
(0 -0 -3.31952e-14)
(0 -0 -4.24617e-15)
(0 -0 1.11864e-14)
(0 -0 -1.09193e-14)
(0 -0 -7.35187e-15)
(0 -0 3.99594e-14)
(0 -0 -8.90672e-15)
(0 -0 -4.74857e-14)
(0 -0 -1.60366e-14)
(0 -0 -2.13581e-14)
(0 -0 2.06416e-14)
(0 -0 -3.31917e-14)
(0 -0 -2.61452e-14)
(0 -0 4.89331e-15)
(0 -0 -1.43989e-14)
(0 -0 3.99954e-14)
(0 -0 1.98352e-11)
(0 -0 -1.6588e-11)
(0 -0 3.17241e-12)
(0 -0 -9.23507e-13)
(0 -0 -5.26573e-14)
(0 -0 -2.92353e-13)
(0 -0 -2.14568e-13)
(0 -0 -1.85133e-13)
(0 -0 -1.83275e-13)
(0 -0 -8.72399e-14)
(0 -0 -1.74752e-13)
(0 -0 -1.32233e-13)
(0 -0 -1.75674e-13)
(0 -0 -4.13045e-14)
(0 -0 -3.83544e-14)
(0 -0 6.78277e-15)
(0 -0 8.02475e-14)
(0 -0 -1.15309e-14)
(0 -0 8.92425e-14)
(0 -0 2.3534e-15)
)
;
    }
    frontAndBack
    {
        type            empty;
    }
}


// ************************************************************************* //
