# Probe 0 (0.1 0 0)
# Probe 1 (0.2 0 0)
# Time        0             1            
50            511.126       515.368      
100           494.889       515.702      
150           499.894       511.68       
200           496.633       510.527      
250           496.517       511.347      
281           496.308       511.057      
