# Probe 0 (0.1 0 0)
# Probe 1 (0.2 0 0)
# Time        0             1            
50            (5.87803 -0.673525 0) (5.60166 -0.219321 0)
100           (6.415 -0.757616 0) (5.67495 -0.227659 0)
150           (6.84152 -0.981373 0) (5.46337 -0.268067 0)
200           (6.40116 -0.570676 0) (6.06811 -0.709059 0)
250           (6.38014 -0.506411 0) (5.91037 -0.561742 0)
281           (6.38025 -0.49372 0) (5.85597 -0.511937 0)
