/*--------------------------------*- C++ -*----------------------------------*\
| =========                 |                                                 |
| \\      /  F ield         | OpenFOAM: The Open Source CFD Toolbox           |
|  \\    /   O peration     | Version:  2312                                  |
|   \\  /    A nd           | Website:  www.openfoam.com                      |
|    \\/     M anipulation  |                                                 |
\*---------------------------------------------------------------------------*/
FoamFile
{
    version     2.0;
    format      ascii;
    arch        "LSB;label=32;scalar=64";
    class       volVectorField;
    location    "5.25";
    object      diffU;
}
// * * * * * * * * * * * * * * * * * * * * * * * * * * * * * * * * * * * * * //

dimensions      [0 1 -1 0 0 0 0];

internalField   nonuniform List<vector> 
400
(
(0 0 0)
(6.32827e-15 -5.21697e-14 0)
(4.88498e-15 -4.20241e-14 0)
(4.996e-15 -4.42844e-14 0)
(4.88498e-15 -4.38319e-14 0)
(4.88498e-15 -4.39141e-14 0)
(4.996e-15 -4.38472e-14 0)
(4.66294e-15 -4.38373e-14 0)
(4.996e-15 -4.38962e-14 0)
(4.77396e-15 -4.39372e-14 0)
(4.996e-15 -4.3901e-14 0)
(4.77396e-15 -4.37953e-14 0)
(4.66294e-15 -4.38213e-14 0)
(4.66294e-15 -4.38806e-14 0)
(4.55191e-15 -4.39237e-14 0)
(4.55191e-15 -4.38878e-14 0)
(4.32987e-15 -4.38769e-14 0)
(4.32987e-15 -4.38693e-14 0)
(4.21885e-15 -4.38829e-14 0)
(4.32987e-15 -4.3871e-14 0)
(1.17684e-14 2.27366e-15 0)
(1.33227e-15 -5.35051e-14 0)
(3.55271e-15 -4.16785e-14 0)
(3.77476e-15 -4.43218e-14 0)
(3.77476e-15 -4.37836e-14 0)
(3.77476e-15 -4.39915e-14 0)
(3.77476e-15 -4.39276e-14 0)
(3.77476e-15 -4.39873e-14 0)
(3.9968e-15 -4.40672e-14 0)
(3.77476e-15 -4.4043e-14 0)
(3.77476e-15 -4.38946e-14 0)
(3.77476e-15 -4.37904e-14 0)
(3.55271e-15 -4.38603e-14 0)
(4.32987e-15 -4.38684e-14 0)
(4.21885e-15 -4.38652e-14 0)
(3.77476e-15 -4.39027e-14 0)
(3.77476e-15 -4.38894e-14 0)
(3.77476e-15 -4.39022e-14 0)
(3.9968e-15 -4.39055e-14 0)
(3.9968e-15 -4.38929e-14 0)
(-1.15463e-14 -1.37695e-13 0)
(7.54952e-15 -2.52577e-14 0)
(3.10862e-15 -4.84006e-14 0)
(4.66294e-15 -4.31697e-14 0)
(4.32987e-15 -4.41417e-14 0)
(4.44089e-15 -4.38855e-14 0)
(4.32987e-15 -4.38142e-14 0)
(4.32987e-15 -4.38087e-14 0)
(4.21885e-15 -4.37955e-14 0)
(3.77476e-15 -4.38263e-14 0)
(3.55271e-15 -4.38871e-14 0)
(3.77476e-15 -4.39632e-14 0)
(3.77476e-15 -4.40156e-14 0)
(3.9968e-15 -4.39247e-14 0)
(4.21885e-15 -4.37474e-14 0)
(3.9968e-15 -4.37518e-14 0)
(3.77476e-15 -4.39393e-14 0)
(3.77476e-15 -4.40951e-14 0)
(3.77476e-15 -4.41102e-14 0)
(3.9968e-15 -4.40293e-14 0)
(2.70894e-14 1.82271e-14 0)
(-2.22045e-16 -5.68529e-14 0)
(6.32827e-15 -4.11038e-14 0)
(3.33067e-15 -4.4561e-14 0)
(3.9968e-15 -4.37639e-14 0)
(3.55271e-15 -4.39489e-14 0)
(3.77476e-15 -4.39246e-14 0)
(3.55271e-15 -4.37774e-14 0)
(3.9968e-15 -4.36834e-14 0)
(3.9968e-15 -4.37391e-14 0)
(3.77476e-15 -4.38889e-14 0)
(3.9968e-15 -4.39573e-14 0)
(3.77476e-15 -4.39909e-14 0)
(3.77476e-15 -4.40369e-14 0)
(3.9968e-15 -4.39914e-14 0)
(3.9968e-15 -4.38551e-14 0)
(4.66294e-15 -4.39168e-14 0)
(3.9968e-15 -4.40497e-14 0)
(4.21885e-15 -4.41675e-14 0)
(4.32987e-15 -4.4077e-14 0)
(-2.73115e-14 -5.60149e-14 0)
(9.99201e-15 -4.09595e-14 0)
(1.33227e-15 -4.44993e-14 0)
(4.996e-15 -4.36952e-14 0)
(4.21885e-15 -4.40301e-14 0)
(4.66294e-15 -4.40333e-14 0)
(4.66294e-15 -4.39901e-14 0)
(4.32987e-15 -4.38627e-14 0)
(4.21885e-15 -4.38708e-14 0)
(4.55191e-15 -4.3818e-14 0)
(4.55191e-15 -4.37746e-14 0)
(4.55191e-15 -4.38425e-14 0)
(4.32987e-15 -4.39288e-14 0)
(4.55191e-15 -4.40929e-14 0)
(4.32987e-15 -4.41636e-14 0)
(4.55191e-15 -4.40179e-14 0)
(4.55191e-15 -4.39034e-14 0)
(4.55191e-15 -4.39417e-14 0)
(4.44089e-15 -4.40575e-14 0)
(4.44089e-15 -4.40113e-14 0)
(4.22995e-14 -5.73894e-14 0)
(-2.66454e-15 -4.14127e-14 0)
(7.77156e-15 -4.44607e-14 0)
(3.55271e-15 -4.38612e-14 0)
(4.88498e-15 -4.39958e-14 0)
(4.21885e-15 -4.3912e-14 0)
(3.9968e-15 -4.38536e-14 0)
(4.21885e-15 -4.38286e-14 0)
(4.21885e-15 -4.38262e-14 0)
(3.9968e-15 -4.38755e-14 0)
(4.44089e-15 -4.38897e-14 0)
(4.21885e-15 -4.39538e-14 0)
(4.44089e-15 -4.4011e-14 0)
(4.44089e-15 -4.40576e-14 0)
(4.32987e-15 -4.4071e-14 0)
(4.21885e-15 -4.40787e-14 0)
(4.21885e-15 -4.39968e-14 0)
(4.55191e-15 -4.38889e-14 0)
(3.9968e-15 -4.38903e-14 0)
(4.21885e-15 -4.39463e-14 0)
(-3.21965e-14 -3.25859e-14 0)
(1.14353e-14 -4.59859e-14 0)
(1.9984e-15 -4.31596e-14 0)
(5.21805e-15 -4.3887e-14 0)
(4.21885e-15 -4.37623e-14 0)
(4.88498e-15 -4.38047e-14 0)
(4.55191e-15 -4.39135e-14 0)
(4.66294e-15 -4.4007e-14 0)
(4.66294e-15 -4.38458e-14 0)
(4.77396e-15 -4.38933e-14 0)
(4.66294e-15 -4.39473e-14 0)
(4.66294e-15 -4.39247e-14 0)
(4.77396e-15 -4.39339e-14 0)
(4.55191e-15 -4.39295e-14 0)
(4.44089e-15 -4.39637e-14 0)
(4.55191e-15 -4.40427e-14 0)
(4.21885e-15 -4.39418e-14 0)
(4.21885e-15 -4.38424e-14 0)
(3.9968e-15 -4.38325e-14 0)
(4.44089e-15 -4.3917e-14 0)
(4.14113e-14 -4.76729e-14 0)
(-3.9968e-15 -4.25218e-14 0)
(6.43929e-15 -4.41007e-14 0)
(2.66454e-15 -4.3767e-14 0)
(3.77476e-15 -4.39777e-14 0)
(3.33067e-15 -4.38832e-14 0)
(3.9968e-15 -4.38707e-14 0)
(3.33067e-15 -4.39679e-14 0)
(3.55271e-15 -4.40325e-14 0)
(3.77476e-15 -4.40132e-14 0)
(3.77476e-15 -4.39921e-14 0)
(3.77476e-15 -4.39292e-14 0)
(3.9968e-15 -4.38635e-14 0)
(3.9968e-15 -4.38899e-14 0)
(3.9968e-15 -4.39339e-14 0)
(3.77476e-15 -4.39583e-14 0)
(3.9968e-15 -4.3981e-14 0)
(3.9968e-15 -4.40196e-14 0)
(4.21885e-15 -4.39203e-14 0)
(4.21885e-15 -4.38733e-14 0)
(-3.01981e-14 -3.75982e-14 0)
(1.17684e-14 -4.48218e-14 0)
(1.77636e-15 -4.36186e-14 0)
(5.44009e-15 -4.39009e-14 0)
(4.44089e-15 -4.38812e-14 0)
(4.996e-15 -4.38049e-14 0)
(4.77396e-15 -4.3763e-14 0)
(4.88498e-15 -4.38712e-14 0)
(4.77396e-15 -4.40902e-14 0)
(4.55191e-15 -4.40742e-14 0)
(4.55191e-15 -4.40466e-14 0)
(4.44089e-15 -4.39933e-14 0)
(4.55191e-15 -4.39018e-14 0)
(4.32987e-15 -4.39618e-14 0)
(4.44089e-15 -4.40173e-14 0)
(4.55191e-15 -4.40164e-14 0)
(4.66294e-15 -4.39929e-14 0)
(4.44089e-15 -4.39686e-14 0)
(4.32987e-15 -4.38611e-14 0)
(4.21885e-15 -4.38874e-14 0)
(3.30846e-14 -5.95009e-14 0)
(-1.55431e-15 -4.07079e-14 0)
(6.32827e-15 -4.45468e-14 0)
(3.55271e-15 -4.37235e-14 0)
(4.21885e-15 -4.38853e-14 0)
(3.55271e-15 -4.3951e-14 0)
(3.77476e-15 -4.39794e-14 0)
(4.21885e-15 -4.39642e-14 0)
(3.9968e-15 -4.39563e-14 0)
(3.9968e-15 -4.39243e-14 0)
(3.77476e-15 -4.39656e-14 0)
(3.77476e-15 -4.40462e-14 0)
(3.9968e-15 -4.40206e-14 0)
(4.55191e-15 -4.39489e-14 0)
(4.32987e-15 -4.38542e-14 0)
(3.9968e-15 -4.38328e-14 0)
(3.9968e-15 -4.38274e-14 0)
(3.9968e-15 -4.38793e-14 0)
(3.9968e-15 -4.39466e-14 0)
(4.21885e-15 -4.396e-14 0)
(-2.04281e-14 -2.78521e-14 0)
(9.4369e-15 -4.70241e-14 0)
(2.88658e-15 -4.30636e-14 0)
(4.66294e-15 -4.39414e-14 0)
(4.44089e-15 -4.37365e-14 0)
(4.55191e-15 -4.38809e-14 0)
(4.32987e-15 -4.39026e-14 0)
(4.32987e-15 -4.38892e-14 0)
(4.21885e-15 -4.38841e-14 0)
(4.32987e-15 -4.39513e-14 0)
(4.21885e-15 -4.41076e-14 0)
(4.55191e-15 -4.42e-14 0)
(4.21885e-15 -4.41374e-14 0)
(3.9968e-15 -4.39504e-14 0)
(3.55271e-15 -4.38656e-14 0)
(3.9968e-15 -4.39131e-14 0)
(3.9968e-15 -4.39689e-14 0)
(4.32987e-15 -4.39971e-14 0)
(4.21885e-15 -4.40365e-14 0)
(4.21885e-15 -4.39893e-14 0)
(2.65343e-14 -5.30549e-14 0)
(-8.88178e-16 -4.11708e-14 0)
(5.32907e-15 -4.42873e-14 0)
(3.33067e-15 -4.35361e-14 0)
(3.77476e-15 -4.37177e-14 0)
(3.9968e-15 -4.37299e-14 0)
(3.9968e-15 -4.38805e-14 0)
(4.21885e-15 -4.39835e-14 0)
(4.32987e-15 -4.4027e-14 0)
(4.66294e-15 -4.40843e-14 0)
(4.66294e-15 -4.41636e-14 0)
(4.55191e-15 -4.40724e-14 0)
(4.55191e-15 -4.38878e-14 0)
(4.32987e-15 -4.38126e-14 0)
(4.55191e-15 -4.38851e-14 0)
(4.66294e-15 -4.38941e-14 0)
(4.32987e-15 -4.39561e-14 0)
(4.32987e-15 -4.39603e-14 0)
(4.55191e-15 -4.39071e-14 0)
(4.55191e-15 -4.39235e-14 0)
(-2.55351e-14 -3.59028e-14 0)
(9.88098e-15 -4.60132e-14 0)
(1.77636e-15 -4.34495e-14 0)
(4.21885e-15 -4.39975e-14 0)
(4.21885e-15 -4.39319e-14 0)
(4.21885e-15 -4.41142e-14 0)
(4.55191e-15 -4.41691e-14 0)
(4.55191e-15 -4.41179e-14 0)
(4.32987e-15 -4.40894e-14 0)
(4.21885e-15 -4.40543e-14 0)
(4.21885e-15 -4.39993e-14 0)
(3.9968e-15 -4.39347e-14 0)
(3.77476e-15 -4.39051e-14 0)
(3.77476e-15 -4.3894e-14 0)
(3.55271e-15 -4.39484e-14 0)
(3.9968e-15 -4.39133e-14 0)
(3.9968e-15 -4.39344e-14 0)
(4.21885e-15 -4.39463e-14 0)
(3.9968e-15 -4.39458e-14 0)
(3.9968e-15 -4.39721e-14 0)
(2.72005e-14 -5.43716e-14 0)
(2.22045e-16 -4.18279e-14 0)
(6.21725e-15 -4.42627e-14 0)
(3.9968e-15 -4.38161e-14 0)
(4.88498e-15 -4.40452e-14 0)
(4.66294e-15 -4.4115e-14 0)
(4.32987e-15 -4.4116e-14 0)
(4.66294e-15 -4.40712e-14 0)
(4.44089e-15 -4.4042e-14 0)
(4.55191e-15 -4.39859e-14 0)
(4.44089e-15 -4.39594e-14 0)
(4.55191e-15 -4.39547e-14 0)
(4.44089e-15 -4.39775e-14 0)
(4.66294e-15 -4.39095e-14 0)
(4.66294e-15 -4.38815e-14 0)
(4.55191e-15 -4.39365e-14 0)
(4.21885e-15 -4.39791e-14 0)
(4.21885e-15 -4.3978e-14 0)
(4.21885e-15 -4.40128e-14 0)
(4.32987e-15 -4.40493e-14 0)
(-1.26565e-14 -2.48029e-14 0)
(7.54952e-15 -4.73613e-14 0)
(2.88658e-15 -4.32372e-14 0)
(4.88498e-15 -4.42202e-14 0)
(4.77396e-15 -4.408e-14 0)
(4.77396e-15 -4.39899e-14 0)
(4.55191e-15 -4.40065e-14 0)
(4.55191e-15 -4.40521e-14 0)
(4.44089e-15 -4.40623e-14 0)
(4.66294e-15 -4.3913e-14 0)
(4.32987e-15 -4.37812e-14 0)
(3.77476e-15 -4.37819e-14 0)
(3.55271e-15 -4.3834e-14 0)
(3.55271e-15 -4.40125e-14 0)
(4.21885e-15 -4.40082e-14 0)
(4.32987e-15 -4.38775e-14 0)
(4.21885e-15 -4.38841e-14 0)
(3.9968e-15 -4.39122e-14 0)
(4.21885e-15 -4.39642e-14 0)
(4.32987e-15 -4.39657e-14 0)
(1.08802e-14 -6.0771e-14 0)
(2.66454e-15 -4.11264e-14 0)
(4.21885e-15 -4.48917e-14 0)
(3.9968e-15 -4.40437e-14 0)
(3.9968e-15 -4.40916e-14 0)
(3.77476e-15 -4.39404e-14 0)
(3.55271e-15 -4.39513e-14 0)
(3.77476e-15 -4.39789e-14 0)
(3.77476e-15 -4.39916e-14 0)
(3.33067e-15 -4.39547e-14 0)
(3.77476e-15 -4.38184e-14 0)
(3.9968e-15 -4.3706e-14 0)
(3.9968e-15 -4.38754e-14 0)
(4.21885e-15 -4.41824e-14 0)
(4.32987e-15 -4.42191e-14 0)
(3.77476e-15 -4.40253e-14 0)
(3.9968e-15 -4.39064e-14 0)
(3.9968e-15 -4.3892e-14 0)
(4.21885e-15 -4.3949e-14 0)
(4.21885e-15 -4.39465e-14 0)
(-2.44249e-15 -4.16927e-14 0)
(6.21725e-15 -4.49224e-14 0)
(4.21885e-15 -4.39494e-14 0)
(4.66294e-15 -4.40827e-14 0)
(4.66294e-15 -4.38902e-14 0)
(4.66294e-15 -4.39482e-14 0)
(4.77396e-15 -4.3987e-14 0)
(4.77396e-15 -4.39523e-14 0)
(4.77396e-15 -4.38384e-14 0)
(4.66294e-15 -4.39132e-14 0)
(4.21885e-15 -4.40187e-14 0)
(4.21885e-15 -4.39826e-14 0)
(4.44089e-15 -4.39705e-14 0)
(4.21885e-15 -4.39239e-14 0)
(3.9968e-15 -4.39257e-14 0)
(3.77476e-15 -4.40358e-14 0)
(3.9968e-15 -4.40052e-14 0)
(3.9968e-15 -4.40236e-14 0)
(3.9968e-15 -4.40721e-14 0)
(4.44089e-15 -4.40238e-14 0)
(1.18794e-14 -3.05448e-14 0)
(3.10862e-15 -4.62882e-14 0)
(4.66294e-15 -4.36463e-14 0)
(3.77476e-15 -4.40784e-14 0)
(3.9968e-15 -4.39511e-14 0)
(3.9968e-15 -4.39772e-14 0)
(3.77476e-15 -4.40241e-14 0)
(3.9968e-15 -4.39267e-14 0)
(4.21885e-15 -4.38523e-14 0)
(4.55191e-15 -4.37986e-14 0)
(4.55191e-15 -4.37818e-14 0)
(4.44089e-15 -4.38292e-14 0)
(4.32987e-15 -4.38744e-14 0)
(4.32987e-15 -4.38518e-14 0)
(4.32987e-15 -4.38923e-14 0)
(4.44089e-15 -4.4048e-14 0)
(4.21885e-15 -4.40561e-14 0)
(4.44089e-15 -4.4027e-14 0)
(4.32987e-15 -4.39996e-14 0)
(4.32987e-15 -4.39993e-14 0)
(-2.22045e-16 -3.7976e-14 0)
(4.88498e-15 -4.58104e-14 0)
(3.55271e-15 -4.35588e-14 0)
(4.55191e-15 -4.39622e-14 0)
(4.21885e-15 -4.38575e-14 0)
(3.9968e-15 -4.38997e-14 0)
(4.32987e-15 -4.39388e-14 0)
(3.77476e-15 -4.40323e-14 0)
(3.77476e-15 -4.40522e-14 0)
(3.9968e-15 -4.39498e-14 0)
(3.9968e-15 -4.39164e-14 0)
(3.77476e-15 -4.39288e-14 0)
(4.21885e-15 -4.4029e-14 0)
(4.32987e-15 -4.40194e-14 0)
(4.44089e-15 -4.39296e-14 0)
(4.32987e-15 -4.39502e-14 0)
(4.21885e-15 -4.39724e-14 0)
(3.9968e-15 -4.3954e-14 0)
(3.9968e-15 -4.39434e-14 0)
(4.21885e-15 -4.40029e-14 0)
(1.11022e-14 -8.86424e-14 0)
(3.10862e-15 -3.50686e-14 0)
(5.21805e-15 -4.59431e-14 0)
(4.44089e-15 -4.34421e-14 0)
(4.55191e-15 -4.39312e-14 0)
(4.55191e-15 -4.38274e-14 0)
(4.66294e-15 -4.38055e-14 0)
(4.88498e-15 -4.39453e-14 0)
(4.66294e-15 -4.39465e-14 0)
(4.66294e-15 -4.39117e-14 0)
(4.77396e-15 -4.40243e-14 0)
(4.66294e-15 -4.41069e-14 0)
(4.66294e-15 -4.41143e-14 0)
(4.21885e-15 -4.40288e-14 0)
(4.32987e-15 -4.38975e-14 0)
(4.32987e-15 -4.38752e-14 0)
(3.9968e-15 -4.39113e-14 0)
(4.32987e-15 -4.39546e-14 0)
(4.44089e-15 -4.40083e-14 0)
(4.55191e-15 -4.40015e-14 0)
)
;

boundaryField
{
    movingWall
    {
        type            calculated;
        value           uniform (4.21885e-15 -4.39346e-14 0);
    }
    fixedWalls
    {
        type            calculated;
        value           uniform (4.21885e-15 -4.39346e-14 0);
    }
    frontAndBack
    {
        type            empty;
    }
}


// ************************************************************************* //
