/*--------------------------------*- C++ -*----------------------------------*\
| =========                 |                                                 |
| \\      /  F ield         | OpenFOAM: The Open Source CFD Toolbox           |
|  \\    /   O peration     | Version:  2312                                  |
|   \\  /    A nd           | Website:  www.openfoam.com                      |
|    \\/     M anipulation  |                                                 |
\*---------------------------------------------------------------------------*/
FoamFile
{
    version     2.0;
    format      ascii;
    arch        "LSB;label=32;scalar=64";
    class       volScalarField;
    location    "5.25";
    object      divPhi;
}
// * * * * * * * * * * * * * * * * * * * * * * * * * * * * * * * * * * * * * //

dimensions      [0 0 -1 0 0 0 0];

internalField   nonuniform List<scalar> 
400
(
8.13152e-14
2.15435e-14
-1.43368e-14
6.14303e-15
-4.88313e-15
-3.97681e-15
1.21528e-14
6.09684e-15
-2.21951e-15
-3.42655e-15
3.7682e-15
-5.08165e-16
-6.26628e-15
-2.35878e-15
9.55074e-16
2.05842e-15
-1.62257e-14
1.28785e-14
3.5307e-15
0
0
7.35238e-15
6.19829e-15
5.94577e-15
-4.64059e-15
2.41529e-16
1.6489e-14
9.94904e-15
-1.24488e-14
1.05744e-14
-1.84535e-14
-6.615e-15
2.30673e-15
-1.28788e-16
5.42011e-15
-1.58614e-14
2.70856e-14
-1.60264e-14
1.32951e-14
0
0
8.49515e-15
2.49513e-15
-1.83707e-15
2.88741e-14
-5.03613e-15
-3.8083e-14
2.73274e-14
-2.99566e-14
1.73639e-14
7.98237e-15
-1.0382e-14
-1.72932e-14
1.30495e-14
9.90328e-15
2.56948e-14
-1.67998e-14
-4.35693e-16
4.30182e-14
0
0
3.01165e-14
-9.29321e-15
-1.88004e-15
1.14044e-15
5.24417e-15
-1.71174e-14
-1.03439e-14
-2.32049e-16
-2.55195e-14
-4.04778e-15
3.28051e-15
1.40752e-14
6.09129e-15
4.60011e-15
1.36394e-14
2.90327e-15
-6.57706e-15
1.77027e-14
-2.71051e-14
2.71051e-14
7.03992e-16
-2.15151e-14
-1.75901e-16
-9.17381e-15
2.55149e-14
8.33832e-15
-2.60943e-14
1.7103e-14
-9.62993e-15
-1.75827e-15
9.50864e-15
-1.83015e-14
2.83281e-15
1.04346e-14
-2.42693e-14
-3.16043e-16
-2.22978e-14
1.27335e-14
0
0
-6.24366e-15
-9.69739e-15
8.31988e-15
-2.26566e-15
5.40487e-15
-1.6297e-14
3.03777e-15
2.07858e-14
-2.17087e-14
-6.31514e-15
1.75434e-15
1.18869e-14
1.3551e-14
-9.9277e-15
-4.79741e-16
4.52602e-15
5.39983e-15
2.44267e-14
0
0
-9.43242e-15
-1.09921e-14
2.39089e-14
5.79758e-15
-1.21951e-14
1.38921e-14
4.71916e-15
-2.21516e-14
-5.21896e-16
-3.50879e-15
-2.49609e-14
3.28124e-14
-5.66479e-16
-1.14879e-14
-6.23236e-15
1.16181e-14
1.12495e-14
1.18059e-14
-2.71051e-14
0
-9.2756e-15
-1.70992e-14
8.76285e-17
1.2823e-14
-7.92144e-15
-1.37069e-14
1.03948e-14
1.2295e-14
4.04783e-15
-1.3177e-14
1.52545e-14
3.2522e-14
-2.33434e-14
-2.56936e-14
-9.25913e-15
1.09062e-14
3.02113e-14
-9.22949e-16
0
0
-6.05473e-15
-4.99812e-15
3.00087e-15
1.47647e-14
-9.22277e-16
2.15064e-14
7.33912e-15
-1.64068e-15
-7.3059e-15
-2.14935e-14
-1.10509e-14
1.46972e-14
8.65467e-15
-1.05625e-14
-1.33142e-14
2.95538e-14
8.81162e-15
-1.06156e-14
0
0
-1.94432e-14
-9.80255e-16
-5.74476e-15
-5.26238e-15
-1.15848e-14
-1.27028e-14
1.89518e-14
-5.56389e-15
-8.38976e-15
-1.10612e-14
-1.04267e-14
-2.05066e-14
-1.99461e-15
-8.99317e-15
-5.89012e-16
-1.54692e-14
-2.7398e-15
-1.70564e-14
0
0
-4.5259e-15
-6.39405e-15
9.13597e-15
-2.10517e-15
2.14833e-14
-3.90167e-15
7.97977e-15
1.36851e-15
-3.63445e-14
-1.67323e-14
-1.2332e-14
1.71322e-14
1.12644e-15
-3.61323e-14
2.68302e-14
1.45746e-14
-6.59063e-15
2.13619e-14
2.71051e-14
-2.71051e-14
-3.74111e-15
-2.46882e-14
1.5288e-14
7.67733e-15
1.23066e-14
-2.53158e-14
1.58349e-15
2.44897e-14
-5.25081e-15
1.93246e-14
-2.98099e-14
2.14436e-15
1.22345e-14
-2.69722e-14
-1.29611e-14
-2.04015e-14
2.13445e-14
-1.21748e-15
-2.71051e-14
0
-8.31654e-15
1.70265e-14
-3.02091e-14
2.94562e-14
1.36225e-15
-1.38597e-14
-9.7724e-16
-1.86716e-14
1.02517e-14
-2.85312e-14
2.00945e-14
-2.23788e-14
7.75522e-15
2.72488e-14
-3.34255e-14
-1.05427e-14
-6.77449e-15
-8.5892e-15
0
2.71051e-14
2.60883e-15
-3.64451e-14
2.1361e-14
-4.68816e-15
1.46119e-14
2.6949e-14
-6.4461e-15
-4.39622e-15
2.59283e-14
1.44248e-15
-2.96445e-14
2.35774e-14
-1.24056e-15
-1.48756e-14
-1.26246e-14
-2.5084e-14
1.22008e-15
-3.14636e-15
0
-2.71051e-14
3.89644e-15
-1.32998e-14
-1.39381e-14
-6.63405e-15
-1.29257e-14
-1.03596e-14
-1.23333e-14
4.96391e-15
4.42345e-16
-7.61833e-15
-3.55581e-14
3.78753e-15
1.74253e-14
-2.32773e-15
-1.61726e-14
9.44253e-15
-1.9626e-14
1.22773e-14
0
0
-1.55462e-15
-4.65738e-15
3.68689e-14
-8.74463e-15
-2.0451e-14
-7.42012e-15
-1.07947e-14
1.09217e-14
-4.65428e-15
-1.67192e-14
2.04628e-14
-2.74729e-15
-1.75064e-15
-2.58005e-14
1.42161e-14
1.79229e-14
1.89021e-14
2.38535e-14
0
0
8.94434e-15
-9.41273e-15
1.15932e-14
5.39239e-15
1.47536e-14
1.38559e-15
-1.88162e-14
1.96074e-14
-3.48097e-15
-7.36912e-15
-5.5492e-16
-2.98268e-14
1.38577e-14
1.59347e-14
-2.09573e-14
-1.61132e-14
-1.46737e-14
-8.15295e-15
0
0
3.6761e-15
-1.85596e-15
-1.19143e-14
2.69011e-14
4.5577e-15
-8.88649e-15
-1.79801e-14
2.18839e-14
4.78489e-15
-2.05363e-14
-1.21198e-14
6.17176e-15
-1.81126e-14
-2.22553e-14
1.31775e-14
9.22862e-15
2.89622e-14
1.05258e-15
0
2.71051e-14
-3.52865e-16
6.85462e-15
-3.41097e-14
1.62215e-14
9.5264e-15
-2.00905e-14
2.11823e-14
-1.74468e-14
4.39198e-15
1.15202e-15
-1.84089e-14
1.55929e-14
-6.34403e-15
2.35175e-17
5.55123e-15
3.02686e-14
-1.23628e-14
1.77015e-14
0
-2.71051e-14
0
2.71051e-14
-2.71051e-14
-2.71051e-14
2.71051e-14
0
-2.71051e-14
2.71051e-14
0
2.71051e-14
0
-2.71051e-14
2.71051e-14
0
0
0
0
-2.71051e-14
0
)
;

boundaryField
{
    movingWall
    {
        type            extrapolatedCalculated;
        value           nonuniform List<scalar> 
20
(
-2.71051e-14
0
2.71051e-14
-2.71051e-14
-2.71051e-14
2.71051e-14
0
-2.71051e-14
2.71051e-14
0
2.71051e-14
0
-2.71051e-14
2.71051e-14
0
0
0
0
-2.71051e-14
0
)
;
    }
    fixedWalls
    {
        type            extrapolatedCalculated;
        value           nonuniform List<scalar> 
60
(
8.13152e-14
0
0
0
2.71051e-14
0
0
0
0
0
0
-2.71051e-14
0
2.71051e-14
-2.71051e-14
0
0
0
2.71051e-14
-2.71051e-14
0
0
0
-2.71051e-14
0
0
-2.71051e-14
0
0
0
2.71051e-14
-2.71051e-14
0
0
0
0
0
0
0
0
8.13152e-14
2.15435e-14
-1.43368e-14
6.14303e-15
-4.88313e-15
-3.97681e-15
1.21528e-14
6.09684e-15
-2.21951e-15
-3.42655e-15
3.7682e-15
-5.08165e-16
-6.26628e-15
-2.35878e-15
9.55074e-16
2.05842e-15
-1.62257e-14
1.28785e-14
3.5307e-15
0
)
;
    }
    frontAndBack
    {
        type            empty;
    }
}


// ************************************************************************* //
