/*--------------------------------*- C++ -*----------------------------------*\
| =========                 |                                                 |
| \\      /  F ield         | OpenFOAM: The Open Source CFD Toolbox           |
|  \\    /   O peration     | Version:  2312                                  |
|   \\  /    A nd           | Website:  www.openfoam.com                      |
|    \\/     M anipulation  |                                                 |
\*---------------------------------------------------------------------------*/
FoamFile
{
    version     2.0;
    format      ascii;
    arch        "LSB;label=32;scalar=64";
    class       volScalarField;
    location    "5.25";
    object      divU;
}
// * * * * * * * * * * * * * * * * * * * * * * * * * * * * * * * * * * * * * //

dimensions      [0 0 -1 0 0 0 0];

internalField   nonuniform List<scalar> 
400
(
8.80914e-12
-1.26557e-12
2.81133e-13
-7.37045e-14
-1.74347e-15
-3.64397e-15
-1.76668e-14
4.44926e-15
1.76794e-14
-1.11093e-14
7.35202e-15
-2.58656e-14
1.87553e-14
-1.50906e-14
8.01841e-15
7.85972e-15
-1.68242e-14
9.7546e-15
8.07126e-15
-2.71051e-14
-1.32815e-11
1.88642e-12
-3.56523e-13
1.19072e-13
-3.27175e-14
-7.87159e-16
1.27383e-14
7.31286e-15
6.45258e-16
-1.62697e-17
8.7389e-15
-1.55532e-14
-6.73376e-16
6.18147e-14
-2.85666e-14
-5.64102e-15
4.03742e-15
1.42837e-14
-1.46645e-14
5.42101e-14
3.25261e-13
1.11796e-12
-2.44851e-13
1.22254e-13
-3.64998e-15
-2.36302e-14
1.30362e-14
2.83081e-14
-4.22956e-14
3.27091e-15
-4.48982e-14
4.90733e-14
-1.37325e-14
1.78586e-14
4.01312e-14
-8.22006e-14
1.2983e-15
-2.75628e-14
1.33491e-14
2.71051e-14
1.00018e-11
-3.62352e-12
7.41593e-13
-3.36872e-13
6.17207e-14
-6.55125e-14
4.96553e-14
-4.20431e-15
3.14892e-14
4.10132e-15
-6.53893e-15
6.93019e-15
2.20503e-14
-2.60637e-14
-1.486e-15
5.38184e-14
4.89169e-15
-1.22245e-14
4.57314e-14
-2.71051e-14
-1.01644e-11
4.42571e-12
-8.40922e-13
3.56525e-13
-4.27802e-14
1.94865e-14
-2.45597e-14
-3.64341e-14
1.72094e-14
-9.54286e-15
-6.62526e-15
7.28421e-15
-7.0719e-15
-1.02717e-15
-9.44293e-15
-2.27512e-14
-3.10891e-15
3.84815e-15
1.92406e-14
-2.71051e-14
5.47522e-12
-3.9916e-12
7.83826e-13
-3.13173e-13
9.24111e-14
-9.31768e-14
1.02084e-14
3.04552e-14
-7.39706e-15
-1.70793e-14
3.20397e-15
-9.39398e-16
1.95222e-14
1.53085e-14
-4.36619e-14
1.87246e-15
2.01568e-14
-1.33299e-14
1.46308e-14
0
-1.95156e-12
3.29717e-12
-5.89635e-13
2.65452e-13
-4.13033e-14
1.81225e-14
8.49721e-15
-1.0582e-14
-9.21344e-16
-3.08488e-14
-7.03538e-15
1.51753e-15
7.1735e-15
-2.21406e-14
2.42549e-14
-1.31846e-14
-3.24675e-14
-8.06013e-14
3.87319e-14
0
2.41235e-12
-3.4169e-12
6.38404e-13
-2.78039e-13
8.23417e-14
-9.00239e-15
7.77513e-14
-1.05426e-13
8.30541e-14
-2.18276e-14
-1.69614e-14
2.17646e-14
1.03856e-14
1.73739e-15
-3.53155e-14
-1.05514e-14
1.66268e-14
4.23091e-14
8.77302e-15
0
-3.90313e-12
3.40522e-12
-7.07255e-13
2.95525e-13
-4.39444e-14
1.1325e-14
-1.44315e-14
3.37266e-15
-4.48437e-14
-1.29339e-14
1.27965e-14
-1.70416e-14
-5.33152e-15
-4.15756e-15
-2.41935e-16
1.98921e-15
4.87385e-15
-2.49794e-14
6.14838e-15
-2.71051e-14
3.27971e-12
-2.88653e-12
5.67968e-13
-2.23516e-13
-2.37126e-15
3.72198e-15
2.58219e-14
1.5792e-15
2.99793e-14
-6.52386e-16
-2.04143e-14
-1.06076e-14
7.95275e-14
2.40836e-14
-3.92791e-14
-4.18914e-14
7.2749e-15
-7.26434e-16
4.28164e-14
0
-1.30104e-12
2.29846e-12
-4.63173e-13
1.47583e-13
1.43892e-14
2.58307e-14
-1.84982e-14
-3.5594e-16
-4.19658e-15
-4.376e-14
4.11025e-14
-4.0336e-14
-1.56071e-14
-7.07083e-14
-1.5257e-14
3.33031e-14
4.86154e-14
-8.82446e-15
-7.44884e-15
0
9.21572e-13
-2.04567e-12
3.92704e-13
-1.56189e-13
4.90568e-14
-2.46061e-14
3.61702e-14
-2.32269e-14
2.94876e-14
2.72591e-14
-2.27512e-15
-1.37992e-14
3.4733e-14
1.62479e-14
3.06656e-14
-2.09287e-14
-2.92487e-14
2.3364e-14
1.61733e-15
-5.42101e-14
-2.52077e-12
2.6049e-12
-5.53514e-13
2.49491e-13
-3.79052e-14
1.81988e-14
-1.44841e-14
-4.88822e-15
-5.33255e-14
1.00003e-14
-3.60637e-14
-2.02133e-15
-1.34568e-15
-2.05461e-14
3.91775e-15
2.90354e-14
-4.43754e-15
-5.50986e-15
-8.95577e-15
2.71051e-14
3.00866e-12
-2.21909e-12
3.89291e-13
-1.52251e-13
2.8603e-14
-5.06818e-14
2.88794e-14
1.69005e-15
3.5899e-15
2.41269e-14
1.28526e-14
1.3257e-14
5.76082e-15
2.18134e-14
-2.91672e-14
-2.15982e-14
-2.65091e-14
-2.0999e-15
1.63136e-14
-2.71051e-14
-2.03288e-12
1.64576e-12
-3.24136e-13
2.04468e-13
-3.02429e-14
-6.1103e-15
-8.87058e-15
1.09213e-14
8.62679e-15
1.40401e-16
-8.14671e-14
1.10133e-14
-3.82393e-14
4.87341e-14
1.83824e-14
2.37339e-14
-1.92387e-14
6.49328e-15
2.27024e-14
0
-1.16552e-12
-4.14275e-13
6.54302e-14
-5.28336e-14
-1.12673e-14
-1.94796e-15
-6.92459e-15
2.09045e-14
-2.31922e-14
1.27161e-16
5.7413e-14
-9.05807e-15
-2.47896e-14
5.75959e-14
-5.46761e-14
-1.92023e-14
-4.24181e-15
4.95611e-14
-1.51925e-14
0
2.60209e-12
9.95329e-14
2.41619e-16
2.50105e-14
2.7794e-15
-5.62992e-15
1.29043e-14
-9.83534e-16
-9.26648e-15
-1.13746e-14
-4.7351e-14
5.73304e-15
2.41824e-15
9.33671e-15
-4.91012e-14
3.27371e-14
-1.92168e-14
-1.81472e-14
6.10608e-14
-2.71051e-14
1.00289e-12
-8.29525e-13
1.20611e-13
-7.1354e-14
3.31585e-14
-7.79696e-16
1.77278e-14
-8.99082e-15
5.06695e-14
1.20683e-14
1.709e-14
-1.59942e-14
-3.42981e-15
-2.10503e-16
4.71815e-15
1.4201e-14
1.11677e-14
4.30171e-14
-7.38278e-15
0
-6.15285e-12
1.48506e-12
-2.71706e-13
1.54906e-13
-7.32752e-14
6.84097e-14
-4.17302e-14
-3.79615e-14
1.41508e-14
7.60196e-16
-6.13655e-14
1.04439e-14
2.67838e-14
9.19509e-15
4.20352e-15
-2.27252e-14
2.56477e-14
-5.81638e-14
4.59509e-14
0
4.44523e-12
-1.27394e-12
2.98156e-13
-1.35525e-13
0
-2.71051e-14
5.42101e-14
0
-2.71051e-14
0
0
2.71051e-14
0
-2.71051e-14
2.71051e-14
-2.71051e-14
0
5.42101e-14
0
-5.42101e-14
)
;

boundaryField
{
    movingWall
    {
        type            extrapolatedCalculated;
        value           nonuniform List<scalar> 
20
(
4.44523e-12
-1.27394e-12
2.98156e-13
-1.35525e-13
0
-2.71051e-14
5.42101e-14
0
-2.71051e-14
0
0
2.71051e-14
0
-2.71051e-14
2.71051e-14
-2.71051e-14
0
5.42101e-14
0
-5.42101e-14
)
;
    }
    fixedWalls
    {
        type            extrapolatedCalculated;
        value           nonuniform List<scalar> 
60
(
8.80914e-12
-1.32815e-11
3.25261e-13
1.00018e-11
-1.01644e-11
5.47522e-12
-1.95156e-12
2.41235e-12
-3.90313e-12
3.27971e-12
-1.30104e-12
9.21572e-13
-2.52077e-12
3.00866e-12
-2.03288e-12
-1.16552e-12
2.60209e-12
1.00289e-12
-6.15285e-12
4.44523e-12
-2.71051e-14
5.42101e-14
2.71051e-14
-2.71051e-14
-2.71051e-14
0
0
0
-2.71051e-14
0
0
-5.42101e-14
2.71051e-14
-2.71051e-14
0
0
-2.71051e-14
0
0
-5.42101e-14
8.80914e-12
-1.26557e-12
2.81133e-13
-7.37045e-14
-1.74347e-15
-3.64397e-15
-1.76668e-14
4.44926e-15
1.76794e-14
-1.11093e-14
7.35202e-15
-2.58656e-14
1.87553e-14
-1.50906e-14
8.01841e-15
7.85972e-15
-1.68242e-14
9.7546e-15
8.07126e-15
-2.71051e-14
)
;
    }
    frontAndBack
    {
        type            empty;
    }
}


// ************************************************************************* //
