/*--------------------------------*- C++ -*----------------------------------*\
| =========                 |                                                 |
| \\      /  F ield         | OpenFOAM: The Open Source CFD Toolbox           |
|  \\    /   O peration     | Version:  2312                                  |
|   \\  /    A nd           | Website:  www.openfoam.com                      |
|    \\/     M anipulation  |                                                 |
\*---------------------------------------------------------------------------*/
FoamFile
{
    version     2.0;
    format      ascii;
    arch        "LSB;label=32;scalar=64";
    class       volScalarField;
    location    "5.25";
    object      epsilonzeroGrad;
}
// * * * * * * * * * * * * * * * * * * * * * * * * * * * * * * * * * * * * * //

dimensions      [0 2 -3 0 0 0 0];

internalField   nonuniform List<scalar> 
400
(
7.1442e-06
7.14417e-06
7.14417e-06
7.14413e-06
7.14415e-06
7.1441e-06
7.14412e-06
7.14408e-06
7.14409e-06
7.14407e-06
7.14407e-06
7.14406e-06
7.14406e-06
7.14405e-06
7.14406e-06
7.14405e-06
7.14405e-06
7.14405e-06
7.14405e-06
7.14405e-06
8.00584e-06
7.83148e-06
7.84559e-06
7.85149e-06
7.86332e-06
7.86937e-06
7.88129e-06
7.88753e-06
7.89955e-06
7.90597e-06
7.91809e-06
7.92469e-06
7.9369e-06
7.94371e-06
7.95597e-06
7.96305e-06
7.97531e-06
7.98269e-06
7.98883e-06
7.99871e-06
9.21795e-06
9.00443e-06
9.02192e-06
9.02922e-06
9.04384e-06
9.05128e-06
9.066e-06
9.0736e-06
9.08842e-06
9.09619e-06
9.11112e-06
9.11905e-06
9.13406e-06
9.14221e-06
9.15724e-06
9.16567e-06
9.18066e-06
9.18942e-06
9.19689e-06
9.20881e-06
1.03045e-05
1.00559e-05
1.00762e-05
1.00847e-05
1.01017e-05
1.01103e-05
1.01274e-05
1.01362e-05
1.01534e-05
1.01625e-05
1.01798e-05
1.0189e-05
1.02065e-05
1.0216e-05
1.02334e-05
1.02433e-05
1.02607e-05
1.02709e-05
1.02796e-05
1.02935e-05
1.10775e-05
1.08029e-05
1.08253e-05
1.08346e-05
1.08533e-05
1.08628e-05
1.08817e-05
1.08914e-05
1.09104e-05
1.09204e-05
1.09395e-05
1.09497e-05
1.0969e-05
1.09795e-05
1.09987e-05
1.10096e-05
1.10288e-05
1.10401e-05
1.10497e-05
1.10651e-05
1.15614e-05
1.12701e-05
1.12937e-05
1.13036e-05
1.13235e-05
1.13336e-05
1.13535e-05
1.13639e-05
1.1384e-05
1.13946e-05
1.14148e-05
1.14257e-05
1.1446e-05
1.14572e-05
1.14776e-05
1.14891e-05
1.15095e-05
1.15215e-05
1.15317e-05
1.1548e-05
1.18477e-05
1.15464e-05
1.15709e-05
1.15811e-05
1.16016e-05
1.1612e-05
1.16326e-05
1.16433e-05
1.16641e-05
1.1675e-05
1.1696e-05
1.17072e-05
1.17283e-05
1.17398e-05
1.17609e-05
1.17728e-05
1.17939e-05
1.18063e-05
1.18168e-05
1.18337e-05
1.20192e-05
1.17119e-05
1.17369e-05
1.17473e-05
1.17682e-05
1.17788e-05
1.17999e-05
1.18107e-05
1.18319e-05
1.18431e-05
1.18644e-05
1.18759e-05
1.18973e-05
1.19091e-05
1.19306e-05
1.19428e-05
1.19643e-05
1.1977e-05
1.19877e-05
1.20048e-05
1.21311e-05
1.18199e-05
1.18452e-05
1.18557e-05
1.18769e-05
1.18876e-05
1.19089e-05
1.192e-05
1.19414e-05
1.19527e-05
1.19743e-05
1.19859e-05
1.20077e-05
1.20196e-05
1.20414e-05
1.20537e-05
1.20754e-05
1.20883e-05
1.20991e-05
1.21165e-05
1.22153e-05
1.19012e-05
1.19267e-05
1.19373e-05
1.19586e-05
1.19695e-05
1.1991e-05
1.20021e-05
1.20238e-05
1.20352e-05
1.2057e-05
1.20687e-05
1.20906e-05
1.21026e-05
1.21246e-05
1.21371e-05
1.2159e-05
1.2172e-05
1.2183e-05
1.22005e-05
1.2289e-05
1.19724e-05
1.1998e-05
1.20088e-05
1.20303e-05
1.20412e-05
1.20629e-05
1.20741e-05
1.2096e-05
1.21074e-05
1.21294e-05
1.21412e-05
1.21633e-05
1.21754e-05
1.21976e-05
1.22102e-05
1.22323e-05
1.22454e-05
1.22564e-05
1.22741e-05
1.23617e-05
1.20426e-05
1.20685e-05
1.20793e-05
1.21009e-05
1.2112e-05
1.21338e-05
1.21451e-05
1.21671e-05
1.21787e-05
1.22009e-05
1.22127e-05
1.2235e-05
1.22472e-05
1.22696e-05
1.22822e-05
1.23045e-05
1.23177e-05
1.23288e-05
1.23466e-05
1.2439e-05
1.21171e-05
1.21432e-05
1.21541e-05
1.2176e-05
1.21871e-05
1.22091e-05
1.22205e-05
1.22427e-05
1.22544e-05
1.22767e-05
1.22887e-05
1.23112e-05
1.23235e-05
1.2346e-05
1.23588e-05
1.23812e-05
1.23945e-05
1.24057e-05
1.24237e-05
1.25244e-05
1.21997e-05
1.2226e-05
1.2237e-05
1.2259e-05
1.22703e-05
1.22925e-05
1.2304e-05
1.23263e-05
1.23381e-05
1.23607e-05
1.23727e-05
1.23954e-05
1.24079e-05
1.24306e-05
1.24435e-05
1.24662e-05
1.24796e-05
1.24909e-05
1.2509e-05
1.26211e-05
1.2293e-05
1.23196e-05
1.23307e-05
1.23529e-05
1.23643e-05
1.23867e-05
1.23983e-05
1.24209e-05
1.24328e-05
1.24556e-05
1.24678e-05
1.24907e-05
1.25033e-05
1.25262e-05
1.25393e-05
1.25622e-05
1.25757e-05
1.25872e-05
1.26055e-05
1.27307e-05
1.23987e-05
1.24256e-05
1.24369e-05
1.24594e-05
1.24708e-05
1.24935e-05
1.25053e-05
1.25281e-05
1.25402e-05
1.25632e-05
1.25756e-05
1.25987e-05
1.26114e-05
1.26347e-05
1.26478e-05
1.2671e-05
1.26847e-05
1.26963e-05
1.27148e-05
1.28514e-05
1.25152e-05
1.25424e-05
1.25538e-05
1.25766e-05
1.25882e-05
1.26112e-05
1.26231e-05
1.26462e-05
1.26584e-05
1.26818e-05
1.26942e-05
1.27177e-05
1.27306e-05
1.27541e-05
1.27674e-05
1.27909e-05
1.28048e-05
1.28165e-05
1.28352e-05
1.29739e-05
1.26337e-05
1.26612e-05
1.26727e-05
1.26958e-05
1.27075e-05
1.27307e-05
1.27428e-05
1.27662e-05
1.27786e-05
1.28022e-05
1.28148e-05
1.28385e-05
1.28516e-05
1.28754e-05
1.28889e-05
1.29126e-05
1.29267e-05
1.29386e-05
1.29576e-05
1.30784e-05
1.27417e-05
1.27684e-05
1.27796e-05
1.28021e-05
1.28136e-05
1.28363e-05
1.28482e-05
1.28712e-05
1.28835e-05
1.29068e-05
1.29194e-05
1.29429e-05
1.2956e-05
1.29796e-05
1.29933e-05
1.3017e-05
1.30314e-05
1.30432e-05
1.30623e-05
1.31244e-05
1.31243e-05
1.31243e-05
1.31242e-05
1.31242e-05
1.31242e-05
1.31242e-05
1.31242e-05
1.31241e-05
1.31241e-05
1.31241e-05
1.31241e-05
1.31241e-05
1.31241e-05
1.31241e-05
1.31241e-05
1.31241e-05
1.31241e-05
1.31241e-05
1.31241e-05
)
;

boundaryField
{
    movingWall
    {
        type            zeroGradient;
    }
    fixedWalls
    {
        type            zeroGradient;
    }
    frontAndBack
    {
        type            empty;
    }
}


// ************************************************************************* //
