/*--------------------------------*- C++ -*----------------------------------*\
| =========                 |                                                 |
| \\      /  F ield         | OpenFOAM: The Open Source CFD Toolbox           |
|  \\    /   O peration     | Version:  2312                                  |
|   \\  /    A nd           | Website:  www.openfoam.com                      |
|    \\/     M anipulation  |                                                 |
\*---------------------------------------------------------------------------*/
FoamFile
{
    version     2.0;
    format      ascii;
    arch        "LSB;label=32;scalar=64";
    class       surfaceScalarField;
    location    "5.25";
    object      fluxField;
}
// * * * * * * * * * * * * * * * * * * * * * * * * * * * * * * * * * * * * * //

dimensions      [0 3 -1 0 0 0 0];

oriented        oriented;

internalField   nonuniform List<scalar> 
760
(
-5e-05
2.25357e-18
-5e-05
-4.45141e-19
-5e-05
1.04165e-19
-5e-05
-1.84261e-20
-5e-05
6.3404e-21
-5e-05
-9.10993e-22
-5e-05
2.35956e-21
-5e-05
1.11232e-21
-5e-05
-2.35641e-21
-5e-05
-2.77732e-21
-5e-05
1.83801e-21
-5e-05
7.08614e-21
-5e-05
4.68883e-21
-5e-05
3.00361e-21
-5e-05
2.0046e-21
-5e-05
1.96493e-21
-5e-05
2.57022e-21
-5e-05
2.43865e-21
-5e-05
2.01781e-21
2.63149e-21
-5e-05
-1.18882e-18
-5e-05
2.27659e-19
-5e-05
-5.52493e-20
-5e-05
9.43924e-21
-5e-05
-1.40312e-21
-5e-05
-1.9679e-22
-5e-05
3.18457e-21
-5e-05
1.82821e-21
-5e-05
1.61315e-22
-5e-05
-4.06742e-24
-5e-05
2.18472e-21
-5e-05
2.88797e-21
-5e-05
-1.68344e-22
-5e-05
1.90114e-21
-5e-05
6.41088e-21
-5e-05
5.36601e-21
-5e-05
1.00936e-21
-5e-05
-3.20535e-21
-5e-05
-3.66612e-21
-1.32654e-21
-5e-05
-7.89979e-19
-5e-05
1.43965e-19
-5e-05
-4.08838e-20
-5e-05
3.45846e-21
-5e-05
-9.12495e-22
-5e-05
8.68707e-22
-5e-05
3.25905e-21
-5e-05
7.07702e-21
-5e-05
9.75488e-21
-5e-05
7.59399e-21
-5e-05
2.32798e-21
-5e-05
-1.28421e-21
-5e-05
-3.43312e-21
-5e-05
-2.31162e-21
-5e-05
3.25654e-21
-5e-05
6.55491e-21
-5e-05
3.24575e-22
-5e-05
-6.8907e-21
-5e-05
-1.02153e-20
-5.93082e-21
-5e-05
1.25203e-18
-5e-05
-2.48582e-19
-5e-05
5.66492e-20
-5e-05
-9.67906e-21
-5e-05
1.87764e-21
-5e-05
-2.8256e-21
-5e-05
-1.13871e-21
-5e-05
5.72519e-21
-5e-05
7.87231e-21
-5e-05
7.80159e-21
-5e-05
5.14153e-21
-5e-05
1.73255e-21
-5e-05
-1.2637e-21
-5e-05
-6.51593e-21
-5e-05
-7.14776e-21
-5e-05
-9.79384e-23
-5e-05
1.22292e-21
-5e-05
-3.05612e-21
-5e-05
-8.89595e-21
-5.4806e-21
-5e-05
-6.38378e-19
-5e-05
1.37421e-19
-5e-05
-2.72715e-20
-5e-05
7.816e-21
-5e-05
-3.91879e-21
-5e-05
-1.90463e-21
-5e-05
6.36336e-22
-5e-05
4.444e-21
-5e-05
4.30236e-21
-5e-05
4.39055e-21
-5e-05
5.11995e-21
-5e-05
1.82105e-21
-5e-05
-1.76797e-21
-5e-05
-7.03306e-21
-5e-05
-9.137e-21
-5e-05
-5.6878e-21
-5e-05
-7.77228e-22
-5e-05
9.62038e-22
-5e-05
-1.96612e-21
-2.21328e-21
-5e-05
-5.2655e-20
-5e-05
1.17624e-20
-5e-05
6.2211e-21
-5e-05
3.02195e-21
-5e-05
2.77398e-21
-5e-05
3.81085e-21
-5e-05
2.55211e-21
-5e-05
8.37533e-22
-5e-05
4.927e-21
-5e-05
2.50644e-21
-5e-05
8.00992e-22
-5e-05
-2.34849e-22
-5e-05
-1.89571e-21
-5e-05
-2.94913e-21
-5e-05
-4.13922e-21
-5e-05
-6.30815e-21
-5e-05
-1.73708e-21
-5e-05
3.4438e-21
-5e-05
3.65769e-21
1.4378e-22
-5e-05
1.90257e-19
-5e-05
-1.59641e-20
-5e-05
1.52215e-20
-5e-05
5.37669e-21
-5e-05
3.22671e-21
-5e-05
4.53061e-21
-5e-05
2.1243e-21
-5e-05
-2.64549e-21
-5e-05
-2.30336e-22
-5e-05
-9.35935e-22
-5e-05
-1.75884e-21
-5e-05
3.79384e-22
-5e-05
1.79337e-21
-5e-05
1.24111e-21
-5e-05
-7.12538e-22
-5e-05
-3.29615e-21
-5e-05
-1.3406e-21
-5e-05
1.78466e-22
-5e-05
2.90671e-21
1.97091e-21
-5e-05
6.49503e-20
-5e-05
1.31372e-20
-5e-05
3.74686e-21
-5e-05
5.02903e-21
-5e-05
2.5664e-22
-5e-05
4.52567e-21
-5e-05
5.88529e-21
-5e-05
7.48481e-22
-5e-05
-6.34152e-21
-5e-05
-5.45689e-21
-5e-05
-4.24035e-21
-5e-05
-1.3351e-21
-5e-05
2.59639e-21
-5e-05
4.34346e-22
-5e-05
-2.05262e-21
-5e-05
-2.63784e-21
-5e-05
-2.61957e-21
-5e-05
-2.97525e-21
-5e-05
2.19325e-21
2.71249e-21
-5e-05
-2.3075e-19
-5e-05
5.84834e-20
-5e-05
-7.40718e-21
-5e-05
6.11862e-21
-5e-05
2.56644e-21
-5e-05
2.83125e-21
-5e-05
3.1684e-21
-5e-05
8.43165e-22
-5e-05
-4.43467e-21
-5e-05
-3.23348e-21
-5e-05
-3.57714e-21
-5e-05
-4.26041e-21
-5e-05
-1.33288e-21
-5e-05
-1.03939e-21
-5e-05
-6.04838e-23
-5e-05
4.97302e-22
-5e-05
1.21846e-21
-5e-05
5.31409e-22
-5e-05
1.53709e-21
5.44779e-22
-5e-05
1.29032e-20
-5e-05
3.4278e-21
-5e-05
6.46667e-21
-5e-05
5.10735e-21
-5e-05
6.18345e-21
-5e-05
9.30494e-22
-5e-05
-3.20782e-22
-5e-05
3.94799e-22
-5e-05
7.18572e-22
-5e-05
-1.63097e-22
-5e-05
-5.10358e-21
-5e-05
-9.42816e-21
-5e-05
-7.22319e-21
-5e-05
-7.55364e-22
-5e-05
3.73275e-21
-5e-05
3.07968e-21
-5e-05
1.81872e-21
-5e-05
-1.81608e-22
-5e-05
-2.84842e-21
-2.00381e-21
-5e-05
1.74053e-19
-5e-05
-8.14258e-21
-5e-05
1.29557e-20
-5e-05
9.79059e-21
-5e-05
1.03736e-20
-5e-05
6.45767e-21
-5e-05
2.15172e-21
-5e-05
-8.89849e-23
-5e-05
-1.04915e-21
-5e-05
-4.16375e-21
-5e-05
-1.00532e-20
-5e-05
-1.0084e-20
-5e-05
-3.90176e-21
-5e-05
2.65172e-21
-5e-05
2.96202e-21
-5e-05
1.54952e-21
-5e-05
-1.39868e-21
-5e-05
-2.20612e-21
-5e-05
-1.86221e-21
-1.09258e-21
-5e-05
-2.72143e-20
-5e-05
1.713e-20
-5e-05
3.30839e-21
-5e-05
8.38671e-21
-5e-05
5.48794e-21
-5e-05
6.24746e-22
-5e-05
-4.50997e-21
-5e-05
-5.80673e-21
-5e-05
-6.18064e-21
-5e-05
-6.73776e-21
-5e-05
-7.34504e-21
-5e-05
-3.4498e-21
-5e-05
1.90698e-21
-5e-05
4.06198e-21
-5e-05
8.90136e-22
-5e-05
1.54409e-21
-5e-05
-5.35911e-22
-5e-05
-9.35254e-22
-5e-05
4.04331e-22
-6.63919e-22
-5e-05
-6.01326e-20
-5e-05
7.02766e-22
-5e-05
3.92296e-21
-5e-05
1.38646e-21
-5e-05
-2.70005e-21
-5e-05
-9.00282e-21
-5e-05
-1.03973e-20
-5e-05
-7.99832e-21
-5e-05
-6.5551e-21
-5e-05
-4.2762e-21
-5e-05
-2.23966e-21
-5e-05
-5.05332e-22
-5e-05
-3.36419e-22
-5e-05
1.63974e-21
-5e-05
9.79438e-22
-5e-05
4.82588e-22
-5e-05
-1.10938e-21
-5e-05
-1.37746e-21
-5e-05
-2.23894e-21
-3.8082e-21
-5e-05
2.17365e-19
-5e-05
-3.30006e-20
-5e-05
9.23141e-21
-5e-05
-4.18133e-21
-5e-05
-6.40177e-21
-5e-05
-5.89418e-21
-5e-05
-6.33269e-21
-5e-05
-6.35375e-21
-5e-05
-5.87879e-21
-5e-05
-7.44545e-22
-5e-05
3.21315e-21
-5e-05
3.31424e-21
-5e-05
1.44021e-21
-5e-05
-1.32291e-21
-5e-05
-5.15528e-22
-5e-05
1.37672e-21
-5e-05
1.48993e-22
-5e-05
-5.24975e-22
-5e-05
-2.69788e-21
-3.64646e-21
-5e-05
5.738e-20
-5e-05
-1.54638e-20
-5e-05
-6.49499e-21
-5e-05
-9.86947e-21
-5e-05
-7.56071e-21
-5e-05
-1.52758e-21
-5e-05
-2.21765e-21
-5e-05
-4.04595e-21
-5e-05
-4.61957e-21
-5e-05
3.51001e-23
-5e-05
6.73828e-21
-5e-05
9.52959e-21
-5e-05
3.9927e-21
-5e-05
-8.14527e-21
-5e-05
-8.95692e-21
-5e-05
-8.42799e-22
-5e-05
1.9666e-21
-5e-05
1.62332e-21
-5e-05
-1.10065e-21
-1.07557e-21
-5e-05
-3.64865e-19
-5e-05
4.5509e-20
-5e-05
-2.43e-20
-5e-05
-6.43213e-21
-5e-05
-2.81684e-21
-5e-05
-4.86989e-22
-5e-05
-1.73115e-21
-5e-05
-1.55013e-21
-5e-05
9.78217e-22
-5e-05
3.17901e-23
-5e-05
8.00735e-22
-5e-05
4.51175e-21
-5e-05
5.7886e-22
-5e-05
-5.92982e-21
-5e-05
-6.89276e-21
-5e-05
-4.80057e-21
-5e-05
-1.06045e-21
-5e-05
-1.16225e-21
-5e-05
-3.79812e-21
-2.52798e-21
-5e-05
3.90791e-19
-5e-05
-8.3537e-20
-5e-05
6.83667e-21
-5e-05
-7.29991e-21
-5e-05
6.94849e-22
-5e-05
-1.40748e-21
-5e-05
-3.55018e-21
-5e-05
-2.45883e-22
-5e-05
4.45964e-21
-5e-05
3.93262e-21
-5e-05
1.71478e-21
-5e-05
1.43326e-21
-5e-05
6.04561e-22
-5e-05
2.33418e-21
-5e-05
1.27723e-21
-5e-05
-5.36826e-21
-5e-05
-4.8042e-21
-5e-05
-4.53679e-21
-5e-05
-5.06359e-21
-3.84839e-21
-5e-05
4.83707e-19
-5e-05
-1.05737e-19
-5e-05
1.66003e-20
-5e-05
-4.28598e-21
-5e-05
1.51335e-21
-5e-05
-1.94924e-22
-5e-05
-2.34431e-21
-5e-05
-2.2477e-21
-5e-05
-8.85152e-22
-5e-05
3.01707e-21
-5e-05
4.2725e-21
-5e-05
2.77771e-21
-5e-05
-8.57453e-22
-5e-05
-5.26257e-23
-5e-05
1.17954e-21
-5e-05
-3.22603e-21
-5e-05
-3.98435e-21
-5e-05
-2.79824e-21
-5e-05
-1.8457e-21
-3.32537e-21
-5e-05
-9.68733e-19
-5e-05
1.74754e-19
-5e-05
-4.08214e-20
-5e-05
1.16214e-20
-5e-05
2.00998e-21
-5e-05
3.54991e-21
-5e-05
3.11999e-21
-5e-05
-2.71411e-21
-5e-05
-3.23858e-21
-5e-05
1.90049e-22
-5e-05
-1.78885e-21
-5e-05
-4.16529e-21
-5e-05
-6.85657e-21
-5e-05
-4.47749e-21
-5e-05
1.05088e-21
-5e-05
1.09498e-21
-5e-05
-3.64349e-22
-5e-05
-9.88419e-22
-5e-05
-2.0648e-21
-3.38163e-21
-5e-05
-5e-05
-5e-05
-5e-05
-5e-05
-5e-05
-5e-05
-5e-05
-5e-05
-5e-05
-5e-05
-5e-05
-5e-05
-5e-05
-5e-05
-5e-05
-5e-05
-5e-05
-5e-05
)
;

boundaryField
{
    movingWall
    {
        type            calculated;
        value           uniform -0;
    }
    fixedWalls
    {
        type            calculated;
        value           nonuniform List<scalar> 
60
(
5e-05
5e-05
5e-05
5e-05
5e-05
5e-05
5e-05
5e-05
5e-05
5e-05
5e-05
5e-05
5e-05
5e-05
5e-05
5e-05
5e-05
5e-05
5e-05
5e-05
-5e-05
-5e-05
-5e-05
-5e-05
-5e-05
-5e-05
-5e-05
-5e-05
-5e-05
-5e-05
-5e-05
-5e-05
-5e-05
-5e-05
-5e-05
-5e-05
-5e-05
-5e-05
-5e-05
-5e-05
0
0
0
0
0
0
0
0
0
0
0
0
0
0
0
0
0
0
0
0
)
;
    }
    frontAndBack
    {
        type            empty;
        value           nonuniform List<scalar> 0();
    }
}


// ************************************************************************* //
