/*--------------------------------*- C++ -*----------------------------------*\
| =========                 |                                                 |
| \\      /  F ield         | OpenFOAM: The Open Source CFD Toolbox           |
|  \\    /   O peration     | Version:  2312                                  |
|   \\  /    A nd           | Website:  www.openfoam.com                      |
|    \\/     M anipulation  |                                                 |
\*---------------------------------------------------------------------------*/
FoamFile
{
    version     2.0;
    format      ascii;
    arch        "LSB;label=32;scalar=64";
    class       volVectorField;
    location    "5.25";
    object      gradPhi;
}
// * * * * * * * * * * * * * * * * * * * * * * * * * * * * * * * * * * * * * //

dimensions      [0 2 -1 0 0 0 0];

internalField   nonuniform List<vector> 
400
(
(-0.02 4.78043e-17 0)
(7.11375e-17 -6.9396e-17 0)
(-2.15067e-17 2.09672e-17 0)
(1.65436e-18 -2.40335e-18 0)
(0 1.1111e-18 0)
(0 -1.9884e-19 0)
(0 6.07639e-19 0)
(0 3.04842e-19 0)
(0 -1.10976e-19 0)
(0 -1.71327e-19 0)
(0 1.8841e-19 0)
(-1.65436e-18 1.32984e-18 0)
(-1.65436e-18 1.04194e-18 0)
(-1.65436e-18 1.23731e-18 0)
(0 4.77537e-20 0)
(0 1.02921e-19 0)
(-1.65436e-18 5.43969e-19 0)
(0 6.43925e-19 0)
(0 1.76535e-19 0)
(0 1.54291e-18 0)
(-0.02 -7.74111e-17 0)
(-1.09188e-16 1.10421e-16 0)
(3.14329e-17 -3.28546e-17 0)
(-3.30872e-18 4.0559e-18 0)
(1.65436e-18 -1.34313e-18 0)
(0 2.10917e-19 0)
(0 2.16811e-19 0)
(0 1.9261e-19 0)
(0 -5.11464e-19 0)
(1.65436e-18 -6.55205e-19 0)
(-1.65436e-18 2.44167e-19 0)
(0 -3.05342e-19 0)
(1.65436e-18 -9.26602e-19 0)
(0 -1.24375e-18 0)
(0 1.5785e-18 0)
(-1.65436e-18 4.59263e-19 0)
(1.65436e-18 -5.44942e-19 0)
(0 -1.44524e-18 0)
(0 -8.67034e-19 0)
(1.65436e-18 -1.87954e-18 0)
(-0.02 4.10917e-17 0)
(4.46678e-17 -4.46662e-17 0)
(-6.61744e-18 5.23585e-18 0)
(3.30872e-18 -3.09965e-18 0)
(1.65436e-18 3.20483e-19 0)
(0 -2.63883e-19 0)
(-1.65436e-18 -1.80939e-20 0)
(0 8.68919e-19 0)
(-3.30872e-18 3.19037e-18 0)
(-3.30872e-18 3.04998e-18 0)
(0 -3.3459e-20 0)
(1.65436e-18 -1.5436e-18 0)
(0 -9.79994e-19 0)
(1.65436e-18 -6.96339e-19 0)
(0 -1.13109e-18 0)
(0 2.07781e-18 0)
(-1.65436e-18 5.16237e-19 0)
(0 -5.75718e-19 0)
(1.65436e-18 -1.22435e-18 0)
(1.65436e-18 -1.56615e-18 0)
(-0.02 -2.37989e-17 0)
(-1.15805e-17 1.19231e-17 0)
(-1.48893e-17 1.56736e-17 0)
(-3.30872e-18 2.70836e-18 0)
(0 -3.14307e-20 0)
(0 5.14015e-19 0)
(1.65436e-18 -1.66222e-18 0)
(0 -5.28311e-19 0)
(1.65436e-18 -1.22428e-18 0)
(0 -7.88916e-19 0)
(-1.65436e-18 7.53745e-19 0)
(0 6.83126e-19 0)
(0 2.13165e-19 0)
(0 -3.4791e-19 0)
(1.65436e-18 -1.62041e-18 0)
(3.30872e-18 -3.31328e-18 0)
(0 -3.701e-19 0)
(-1.65436e-18 1.04818e-18 0)
(1.65436e-18 8.94786e-20 0)
(-1.65436e-18 6.46618e-19 0)
(-0.02 5.6668e-17 0)
(4.1359e-17 -4.21282e-17 0)
(9.92617e-18 -1.14531e-17 0)
(3.30872e-18 -2.6253e-18 0)
(0 -5.15713e-19 0)
(3.30872e-18 -1.69697e-18 0)
(-1.65436e-18 1.27278e-18 0)
(-1.65436e-18 5.67732e-19 0)
(1.65436e-18 -4.88502e-19 0)
(0 -5.60774e-19 0)
(0 1.14476e-19 0)
(0 3.11406e-19 0)
(-1.65436e-18 1.09167e-18 0)
(0 -1.62924e-19 0)
(1.65436e-18 -1.06353e-18 0)
(0 -5.40182e-19 0)
(0 -1.60965e-19 0)
(-1.65436e-18 5.69218e-19 0)
(0 1.10679e-18 0)
(-1.65436e-18 1.03021e-18 0)
(-0.02 -9.67121e-17 0)
(-9.09899e-17 9.04545e-17 0)
(-1.65436e-18 5.90884e-19 0)
(-3.30872e-18 4.49055e-18 0)
(0 3.45407e-19 0)
(-3.30872e-18 3.06025e-18 0)
(-1.65436e-18 1.23488e-19 0)
(1.65436e-18 -1.2539e-18 0)
(1.65436e-18 1.84141e-19 0)
(0 -6.0394e-19 0)
(1.65436e-18 -1.5831e-18 0)
(0 -3.87715e-19 0)
(1.65436e-18 -1.20108e-18 0)
(0 5.35909e-19 0)
(-3.30872e-18 1.69239e-18 0)
(0 -1.65773e-19 0)
(1.65436e-18 -1.11315e-18 0)
(0 2.96264e-20 0)
(-1.65436e-18 1.93991e-18 0)
(0 3.31431e-19 0)
(-0.02 1.00507e-16 0)
(1.10842e-16 -1.09935e-16 0)
(-8.27181e-18 8.06678e-18 0)
(4.96308e-18 -4.64156e-18 0)
(-1.65436e-18 1.75841e-18 0)
(0 -8.79997e-19 0)
(0 1.54199e-19 0)
(1.65436e-18 -1.27118e-18 0)
(0 -7.91618e-19 0)
(0 -2.95911e-19 0)
(0 1.40318e-19 0)
(-1.65436e-18 1.94912e-20 0)
(0 1.04627e-18 0)
(-1.65436e-18 6.49379e-19 0)
(0 -7.80116e-20 0)
(0 1.06762e-18 0)
(-1.65436e-18 1.70986e-18 0)
(0 2.92483e-19 0)
(1.65436e-18 -6.31041e-19 0)
(-1.65436e-18 3.63943e-19 0)
(-0.02 -9.32207e-17 0)
(-1.05879e-16 1.05718e-16 0)
(8.27181e-18 -8.43687e-18 0)
(-6.61744e-18 5.5852e-18 0)
(3.30872e-18 -2.35924e-18 0)
(0 2.13681e-19 0)
(0 -2.4697e-20 0)
(-1.65436e-18 1.63903e-18 0)
(3.30872e-18 -2.34343e-18 0)
(1.65436e-18 -1.12677e-18 0)
(0 -4.83413e-19 0)
(0 -6.99737e-19 0)
(1.65436e-18 -1.45176e-20 0)
(-1.65436e-18 2.16406e-19 0)
(0 6.44971e-19 0)
(0 -1.51339e-19 0)
(0 -1.39085e-18 0)
(3.30872e-18 -1.76242e-18 0)
(0 -6.36444e-19 0)
(0 3.07815e-20 0)
(-0.02 8.16915e-17 0)
(8.60268e-17 -8.65751e-17 0)
(-3.30872e-18 3.31556e-18 0)
(4.96308e-18 -5.27535e-18 0)
(-1.65436e-18 1.45234e-18 0)
(1.65436e-18 -1.00529e-18 0)
(0 4.05415e-19 0)
(0 -1.52782e-19 0)
(-1.65436e-18 2.01372e-18 0)
(-1.65436e-18 7.87567e-19 0)
(0 -4.15825e-19 0)
(0 3.99822e-20 0)
(0 4.64013e-19 0)
(0 2.44651e-19 0)
(0 -5.98697e-19 0)
(0 -2.02751e-19 0)
(0 9.32382e-19 0)
(-1.65436e-18 1.64052e-18 0)
(-1.65436e-18 8.70619e-19 0)
(0 3.00441e-20 0)
(-0.02 -7.08351e-17 0)
(-7.27919e-17 7.25142e-17 0)
(3.30872e-18 -2.50961e-18 0)
(-4.96308e-18 3.62848e-18 0)
(0 3.53896e-19 0)
(-1.65436e-18 8.22126e-19 0)
(1.65436e-18 -1.71046e-18 0)
(1.65436e-18 -7.74621e-19 0)
(0 -1.96161e-19 0)
(0 -5.41933e-20 0)
(-1.65436e-18 5.21617e-19 0)
(1.65436e-18 -1.32404e-18 0)
(3.30872e-18 -3.11544e-18 0)
(1.65436e-18 -1.88772e-18 0)
(-1.65436e-18 1.43372e-18 0)
(-1.65436e-18 1.99151e-18 0)
(-1.65436e-18 4.59354e-19 0)
(0 -5.77571e-19 0)
(1.65436e-18 -1.67729e-18 0)
(1.65436e-18 -1.32948e-18 0)
(-0.02 6.58515e-17 0)
(7.11375e-17 -7.24378e-17 0)
(-6.61744e-18 6.50557e-18 0)
(3.30872e-18 -1.96647e-18 0)
(-1.65436e-18 1.51311e-18 0)
(1.65436e-18 2.98154e-19 0)
(-1.65436e-18 1.79531e-18 0)
(0 8.06653e-19 0)
(0 3.4662e-19 0)
(-1.65436e-18 -4.24824e-20 0)
(1.65436e-18 -1.63881e-18 0)
(0 -9.52668e-20 0)
(-1.65436e-18 1.88194e-18 0)
(-3.30872e-18 2.86656e-18 0)
(0 -1.70254e-21 0)
(1.65436e-18 -1.33955e-18 0)
(1.65436e-18 -1.20831e-18 0)
(0 -1.92541e-19 0)
(0 5.65665e-19 0)
(0 1.64798e-19 0)
(-0.02 -6.40299e-17 0)
(-7.27919e-17 7.18676e-17 0)
(6.61744e-18 -6.33572e-18 0)
(-3.30872e-18 3.01811e-18 0)
(3.30872e-18 -2.22138e-18 0)
(0 -4.58835e-19 0)
(1.65436e-18 -2.42596e-18 0)
(1.65436e-18 -1.67507e-18 0)
(3.30872e-18 -1.55445e-18 0)
(1.65436e-18 -1.15582e-18 0)
(0 4.47593e-19 0)
(-1.65436e-18 4.81357e-19 0)
(0 6.05859e-19 0)
(1.65436e-18 -7.9985e-19 0)
(0 -8.97248e-19 0)
(-1.65436e-18 7.20941e-19 0)
(-1.65436e-18 9.617e-19 0)
(1.65436e-18 4.1502e-20 0)
(0 2.26283e-19 0)
(-3.30872e-18 1.60139e-18 0)
(-0.02 7.62488e-17 0)
(7.27919e-17 -7.34124e-17 0)
(-3.30872e-18 3.44098e-18 0)
(4.96308e-18 -4.98536e-18 0)
(1.65436e-18 -2.66312e-19 0)
(1.65436e-18 -3.25772e-18 0)
(0 -7.8245e-19 0)
(0 -1.28036e-19 0)
(0 5.52443e-19 0)
(0 7.75124e-19 0)
(-3.30872e-18 1.67297e-18 0)
(-1.65436e-18 2.49522e-18 0)
(-1.65436e-18 1.29096e-19 0)
(0 -2.23964e-19 0)
(1.65436e-18 5.41581e-22 0)
(0 -1.02322e-18 0)
(0 -8.62312e-19 0)
(0 -5.06952e-20 0)
(0 -3.68586e-19 0)
(3.30872e-18 -2.56825e-18 0)
(-0.02 -6.06632e-17 0)
(-5.79026e-17 5.74669e-17 0)
(0 -1.31833e-18 0)
(-1.65436e-18 2.5785e-18 0)
(1.65436e-18 -1.70722e-18 0)
(-1.65436e-18 2.01774e-18 0)
(0 6.85184e-19 0)
(0 -2.73443e-19 0)
(0 -6.41486e-19 0)
(0 7.83831e-19 0)
(0 1.4343e-19 0)
(0 -1.1317e-18 0)
(1.65436e-18 -4.12696e-19 0)
(0 -4.49789e-19 0)
(-1.65436e-18 6.04287e-19 0)
(0 1.04005e-18 0)
(-1.65436e-18 6.28186e-19 0)
(0 3.99728e-19 0)
(0 2.72142e-19 0)
(0 6.36236e-19 0)
(-0.02 3.86809e-17 0)
(3.80503e-17 -3.92379e-17 0)
(1.65436e-18 -1.55324e-18 0)
(4.96308e-18 -4.47546e-18 0)
(0 -9.72948e-20 0)
(0 -2.16296e-20 0)
(-1.65436e-18 8.45077e-19 0)
(-1.65436e-18 1.06089e-18 0)
(0 4.68007e-19 0)
(0 8.09549e-20 0)
(-3.30872e-18 2.25746e-18 0)
(-3.30872e-18 2.41483e-18 0)
(-1.65436e-18 1.72101e-18 0)
(3.30872e-18 -1.77721e-18 0)
(1.65436e-18 -3.43836e-18 0)
(1.65436e-18 -1.53265e-18 0)
(0 3.71076e-19 0)
(-1.65436e-18 3.1295e-19 0)
(1.65436e-18 -5.84068e-19 0)
(-1.65436e-18 1.43932e-18 0)
(-0.02 -2.39864e-17 0)
(-2.97785e-17 3.08983e-17 0)
(4.96308e-18 -4.98889e-18 0)
(-1.65436e-18 2.54035e-18 0)
(-1.65436e-18 1.24972e-18 0)
(-1.65436e-18 9.78991e-19 0)
(0 1.46972e-19 0)
(0 7.69325e-20 0)
(0 1.65314e-18 0)
(0 -2.54831e-19 0)
(1.65436e-18 -3.16555e-18 0)
(3.30872e-18 -1.26471e-18 0)
(1.65436e-18 -1.68199e-18 0)
(0 3.96454e-19 0)
(-3.30872e-18 1.53687e-18 0)
(0 1.64182e-19 0)
(1.65436e-18 -9.31234e-19 0)
(1.65436e-18 -7.84102e-19 0)
(0 5.78808e-19 0)
(0 -9.59164e-19 0)
(-0.02 2.71732e-17 0)
(3.80503e-17 -3.74221e-17 0)
(-8.27181e-18 7.89375e-18 0)
(1.65436e-18 -1.26378e-18 0)
(0 7.06851e-19 0)
(1.65436e-18 -9.50277e-19 0)
(0 4.40285e-19 0)
(-1.65436e-18 9.54176e-19 0)
(0 4.34287e-19 0)
(-1.65436e-18 1.41392e-18 0)
(-1.65436e-18 1.82276e-18 0)
(1.65436e-18 -1.05089e-18 0)
(-1.65436e-18 1.27716e-21 0)
(-1.65436e-18 2.13567e-18 0)
(-1.65436e-18 2.08676e-18 0)
(0 -4.03417e-19 0)
(0 -3.46554e-19 0)
(0 -3.23537e-19 0)
(1.65436e-18 -1.60032e-18 0)
(1.65436e-18 -1.03952e-18 0)
(-0.02 -2.11925e-17 0)
(-2.15067e-17 2.00654e-17 0)
(0 3.77839e-19 0)
(-3.30872e-18 2.89038e-18 0)
(1.65436e-18 -2.7982e-19 0)
(0 8.45458e-19 0)
(1.65436e-18 -1.86886e-18 0)
(0 -1.31344e-18 0)
(1.65436e-18 -1.24143e-18 0)
(1.65436e-18 -9.4196e-19 0)
(0 -6.5836e-19 0)
(-1.65436e-18 7.77011e-19 0)
(0 4.44675e-19 0)
(0 -2.43261e-19 0)
(0 -5.54247e-19 0)
(0 3.51487e-19 0)
(0 -8.81612e-20 0)
(1.65436e-18 -5.28713e-19 0)
(-1.65436e-18 1.81553e-18 0)
(-1.65436e-18 1.81708e-18 0)
(-0.02 -1.09074e-17 0)
(-2.15067e-17 2.14826e-17 0)
(1.15805e-17 -1.04065e-17 0)
(-1.65436e-18 2.45482e-19 0)
(0 8.21277e-19 0)
(0 2.48435e-19 0)
(-4.96308e-18 3.50556e-18 0)
(0 6.02865e-19 0)
(0 -6.11283e-19 0)
(0 -1.96455e-20 0)
(0 -2.70836e-19 0)
(1.65436e-18 -1.66971e-18 0)
(3.30872e-18 -2.23945e-18 0)
(1.65436e-18 -2.12208e-18 0)
(0 -2.41314e-19 0)
(-1.65436e-18 9.73938e-19 0)
(0 1.052e-18 0)
(-3.30872e-18 1.99951e-18 0)
(1.65436e-18 -5.22806e-19 0)
(1.65436e-18 -1.92558e-18 0)
(-0.02 7.04041e-18 0)
(1.65436e-17 -1.76006e-17 0)
(-6.61744e-18 7.78879e-18 0)
(0 -1.00502e-18 0)
(0 -8.11077e-19 0)
(1.65436e-18 -4.7632e-19 0)
(1.65436e-18 -1.70598e-18 0)
(-1.65436e-18 2.96138e-19 0)
(0 8.72341e-19 0)
(0 -2.19599e-19 0)
(1.65436e-18 -5.76008e-20 0)
(-1.65436e-18 9.20445e-19 0)
(-1.65436e-18 1.93086e-18 0)
(0 1.67245e-18 0)
(0 -1.17587e-21 0)
(0 -2.77561e-19 0)
(0 -1.58179e-19 0)
(0 -7.37115e-19 0)
(0 4.70177e-19 0)
(-1.65436e-18 1.63291e-18 0)
)
;

boundaryField
{
    movingWall
    {
        type            extrapolatedCalculated;
        value           nonuniform List<vector> 
20
(
(-0.02 7.04041e-18 0)
(1.65436e-17 -1.76006e-17 0)
(-6.61744e-18 7.78879e-18 0)
(0 -1.00502e-18 0)
(0 -8.11077e-19 0)
(1.65436e-18 -4.7632e-19 0)
(1.65436e-18 -1.70598e-18 0)
(-1.65436e-18 2.96138e-19 0)
(0 8.72341e-19 0)
(0 -2.19599e-19 0)
(1.65436e-18 -5.76008e-20 0)
(-1.65436e-18 9.20445e-19 0)
(-1.65436e-18 1.93086e-18 0)
(0 1.67245e-18 0)
(0 -1.17587e-21 0)
(0 -2.77561e-19 0)
(0 -1.58179e-19 0)
(0 -7.37115e-19 0)
(0 4.70177e-19 0)
(-1.65436e-18 1.63291e-18 0)
)
;
    }
    fixedWalls
    {
        type            extrapolatedCalculated;
        value           nonuniform List<vector> 
60
(
(-0.02 4.78043e-17 0)
(-0.02 -7.74111e-17 0)
(-0.02 4.10917e-17 0)
(-0.02 -2.37989e-17 0)
(-0.02 5.6668e-17 0)
(-0.02 -9.67121e-17 0)
(-0.02 1.00507e-16 0)
(-0.02 -9.32207e-17 0)
(-0.02 8.16915e-17 0)
(-0.02 -7.08351e-17 0)
(-0.02 6.58515e-17 0)
(-0.02 -6.40299e-17 0)
(-0.02 7.62488e-17 0)
(-0.02 -6.06632e-17 0)
(-0.02 3.86809e-17 0)
(-0.02 -2.39864e-17 0)
(-0.02 2.71732e-17 0)
(-0.02 -2.11925e-17 0)
(-0.02 -1.09074e-17 0)
(-0.02 7.04041e-18 0)
(0 1.54291e-18 0)
(1.65436e-18 -1.87954e-18 0)
(1.65436e-18 -1.56615e-18 0)
(-1.65436e-18 6.46618e-19 0)
(-1.65436e-18 1.03021e-18 0)
(0 3.31431e-19 0)
(-1.65436e-18 3.63943e-19 0)
(0 3.07815e-20 0)
(0 3.00441e-20 0)
(1.65436e-18 -1.32948e-18 0)
(0 1.64798e-19 0)
(-3.30872e-18 1.60139e-18 0)
(3.30872e-18 -2.56825e-18 0)
(0 6.36236e-19 0)
(-1.65436e-18 1.43932e-18 0)
(0 -9.59164e-19 0)
(1.65436e-18 -1.03952e-18 0)
(-1.65436e-18 1.81708e-18 0)
(1.65436e-18 -1.92558e-18 0)
(-1.65436e-18 1.63291e-18 0)
(-0.02 4.78043e-17 0)
(7.11375e-17 -6.9396e-17 0)
(-2.15067e-17 2.09672e-17 0)
(1.65436e-18 -2.40335e-18 0)
(0 1.1111e-18 0)
(0 -1.9884e-19 0)
(0 6.07639e-19 0)
(0 3.04842e-19 0)
(0 -1.10976e-19 0)
(0 -1.71327e-19 0)
(0 1.8841e-19 0)
(-1.65436e-18 1.32984e-18 0)
(-1.65436e-18 1.04194e-18 0)
(-1.65436e-18 1.23731e-18 0)
(0 4.77537e-20 0)
(0 1.02921e-19 0)
(-1.65436e-18 5.43969e-19 0)
(0 6.43925e-19 0)
(0 1.76535e-19 0)
(0 1.54291e-18 0)
)
;
    }
    frontAndBack
    {
        type            empty;
    }
}


// ************************************************************************* //
