/*--------------------------------*- C++ -*----------------------------------*\
| =========                 |                                                 |
| \\      /  F ield         | OpenFOAM: The Open Source CFD Toolbox           |
|  \\    /   O peration     | Version:  2312                                  |
|   \\  /    A nd           | Website:  www.openfoam.com                      |
|    \\/     M anipulation  |                                                 |
\*---------------------------------------------------------------------------*/
FoamFile
{
    version     2.0;
    format      ascii;
    arch        "LSB;label=32;scalar=64";
    class       volTensorField;
    location    "5.25";
    object      gradU;
}
// * * * * * * * * * * * * * * * * * * * * * * * * * * * * * * * * * * * * * //

dimensions      [0 0 -1 0 0 0 0];

internalField   nonuniform List<tensor> 
400
(
(-2.1684e-13 3.56994e-12 0 3.25261e-13 9.01428e-12 0 0 0 0)
(5.14996e-13 -4.20241e-12 0 -1.0842e-13 -1.78057e-12 0 0 0 0)
(-1.35525e-13 7.88534e-13 0 0 4.16658e-13 0 0 0 0)
(0 -1.80786e-13 0 5.42101e-14 -7.37045e-14 0 0 0 0)
(-2.71051e-14 3.7028e-14 0 5.42101e-14 2.53616e-14 0 0 0 0)
(0 -1.52536e-15 0 2.71051e-14 -3.64397e-15 0 0 0 0)
(-2.71051e-14 7.67765e-15 0 5.42101e-14 9.43825e-15 0 0 0 0)
(0 -4.90003e-15 0 0 4.44926e-15 0 0 0 0)
(2.71051e-14 -9.98918e-15 0 5.42101e-14 -9.42563e-15 0 0 0 0)
(0 -4.79899e-16 0 2.71051e-14 -1.11093e-14 0 0 0 0)
(0 1.4193e-14 0 5.42101e-14 7.35202e-15 0 0 0 0)
(-5.42101e-14 7.96815e-15 0 0 2.83445e-14 0 0 0 0)
(0 -8.5355e-15 0 0 1.87553e-14 0 0 0 0)
(-2.71051e-14 -1.02388e-14 0 5.42101e-14 1.20144e-14 0 0 0 0)
(0 -7.20978e-16 0 5.42101e-14 8.01841e-15 0 0 0 0)
(0 4.67994e-15 0 0 7.85972e-15 0 0 0 0)
(-2.71051e-14 1.85037e-15 0 -5.42101e-14 1.02809e-14 0 0 0 0)
(0 -6.00642e-16 0 -5.42101e-14 9.7546e-15 0 0 0 0)
(0 -1.66764e-16 0 0 8.07126e-15 0 0 0 0)
(-2.71051e-14 -1.15236e-14 0 0 1.0526e-14 0 0 0 0)
(4.87891e-13 3.66377e-12 0 -1.11131e-12 -1.37695e-11 0 0 0 0)
(-8.13152e-13 -4.39521e-12 0 1.35525e-13 2.6912e-12 0 0 0 0)
(2.71051e-13 9.18327e-13 0 -1.89735e-13 -6.37656e-13 0 0 0 0)
(0 -2.10511e-13 0 -2.71051e-14 1.11461e-13 0 0 0 0)
(0 3.30325e-14 0 -8.13152e-14 -3.0974e-14 0 0 0 0)
(0 -1.4398e-14 0 -8.13152e-14 2.85681e-15 0 0 0 0)
(0 4.15588e-16 0 -1.0842e-13 3.30004e-15 0 0 0 0)
(0 -1.39638e-14 0 -5.42101e-14 2.86359e-15 0 0 0 0)
(0 -5.56935e-15 0 -1.0842e-13 1.00709e-14 0 0 0 0)
(0 1.72575e-14 0 -1.0842e-13 1.1093e-14 0 0 0 0)
(0 2.52608e-14 0 -1.35525e-13 1.38688e-15 0 0 0 0)
(0 3.43516e-15 0 -8.13152e-14 -1.67927e-14 0 0 0 0)
(2.71051e-14 -7.79462e-15 0 -8.13152e-14 -1.94287e-14 0 0 0 0)
(5.42101e-14 -4.98127e-16 0 -5.42101e-14 -4.40988e-15 0 0 0 0)
(-5.42101e-14 -3.43373e-15 0 -5.42101e-14 1.76251e-14 0 0 0 0)
(-2.71051e-14 -2.41746e-15 0 -5.42101e-14 1.36043e-14 0 0 0 0)
(0 4.45042e-17 0 -2.71051e-14 -6.24347e-15 0 0 0 0)
(2.71051e-14 -1.60899e-15 0 -2.71051e-14 -2.2576e-14 0 0 0 0)
(0 9.38137e-16 0 -8.13152e-14 -2.27358e-14 0 0 0 0)
(5.42101e-14 -7.07365e-15 0 -5.42101e-14 -1.58321e-14 0 0 0 0)
(-1.24683e-12 -7.50839e-12 0 1.49078e-12 1.59535e-12 0 0 0 0)
(1.46367e-12 8.92948e-12 0 -1.89735e-13 -3.34779e-13 0 0 0 0)
(-2.98156e-13 -1.79121e-12 0 2.98156e-13 5.74619e-14 0 0 0 0)
(1.35525e-13 4.25895e-13 0 -5.42101e-14 -2.39231e-14 0 0 0 0)
(0 -7.15766e-14 0 5.42101e-14 1.96249e-15 0 0 0 0)
(-2.71051e-14 3.27487e-14 0 0 4.26199e-15 0 0 0 0)
(0 7.68443e-15 0 0 2.9792e-16 0 0 0 0)
(0 1.87081e-15 0 0 2.09952e-14 0 0 0 0)
(-8.13152e-14 -1.75978e-15 0 0 3.83743e-14 0 0 0 0)
(-2.71051e-14 -9.16391e-15 0 0 3.03922e-14 0 0 0 0)
(-5.42101e-14 -1.36927e-14 0 0 5.73018e-16 0 0 0 0)
(5.42101e-14 -1.28474e-14 0 0 -1.66887e-14 0 0 0 0)
(0 3.84729e-15 0 0 -1.30591e-14 0 0 0 0)
(2.71051e-14 2.6815e-14 0 -5.42101e-14 -1.6851e-14 0 0 0 0)
(5.42101e-14 1.72932e-14 0 0 -1.26174e-14 0 0 0 0)
(-8.13152e-14 -1.91886e-14 0 0 4.7556e-15 0 0 0 0)
(0 -3.43299e-14 0 8.13152e-14 -2.73912e-15 0 0 0 0)
(0 -1.70929e-14 0 0 -1.47414e-14 0 0 0 0)
(2.71051e-14 6.57711e-15 0 2.71051e-14 -2.61965e-14 0 0 0 0)
(5.42101e-14 2.70443e-14 0 5.42101e-14 -1.84171e-14 0 0 0 0)
(1.81604e-12 4.92434e-12 0 -1.54499e-12 8.16805e-12 0 0 0 0)
(-2.05998e-12 -5.9331e-12 0 2.71051e-13 -1.57019e-12 0 0 0 0)
(3.52366e-13 1.22918e-12 0 -1.89735e-13 3.90132e-13 0 0 0 0)
(-2.71051e-13 -2.6601e-13 0 5.42101e-14 -5.25501e-14 0 0 0 0)
(5.42101e-14 6.12176e-14 0 0 1.11605e-14 0 0 0 0)
(-5.42101e-14 -1.60625e-14 0 0 -1.47772e-14 0 0 0 0)
(5.42101e-14 1.71488e-14 0 5.42101e-14 -1.75911e-14 0 0 0 0)
(0 2.41125e-14 0 0 -5.40733e-15 0 0 0 0)
(2.71051e-14 3.82766e-15 0 0 -7.53031e-15 0 0 0 0)
(0 -2.05437e-14 0 8.13152e-14 8.30414e-16 0 0 0 0)
(-2.71051e-14 -2.18201e-14 0 8.13152e-14 1.12542e-14 0 0 0 0)
(0 -1.0197e-14 0 8.13152e-14 1.2067e-14 0 0 0 0)
(0 -7.95694e-15 0 2.71051e-14 8.6777e-15 0 0 0 0)
(0 -5.63729e-17 0 5.42101e-14 -1.68172e-14 0 0 0 0)
(2.71051e-14 1.81729e-14 0 0 -4.16172e-14 0 0 0 0)
(8.13152e-14 7.46077e-15 0 5.42101e-14 -2.66114e-14 0 0 0 0)
(0 -1.94525e-14 0 5.42101e-14 3.59339e-15 0 0 0 0)
(-2.71051e-14 -2.50664e-14 0 8.13152e-14 1.53384e-14 0 0 0 0)
(2.71051e-14 -2.73759e-15 0 8.13152e-14 5.27724e-15 0 0 0 0)
(-2.71051e-14 3.754e-14 0 2.71051e-14 1.80089e-15 0 0 0 0)
(-2.60209e-12 -9.1053e-13 0 1.51788e-12 -7.56165e-12 0 0 0 0)
(2.87314e-12 1.15156e-12 0 -2.71051e-13 1.54401e-12 0 0 0 0)
(-5.14996e-13 -2.73571e-13 0 1.35525e-13 -3.35683e-13 0 0 0 0)
(2.98156e-13 4.69237e-14 0 2.71051e-14 6.99803e-14 0 0 0 0)
(-2.71051e-14 -3.38037e-14 0 5.42101e-14 -2.31857e-14 0 0 0 0)
(2.71051e-14 3.99715e-15 0 1.0842e-13 3.68385e-15 0 0 0 0)
(-2.71051e-14 1.70543e-14 0 2.71051e-14 7.10019e-15 0 0 0 0)
(-2.71051e-14 1.19316e-14 0 5.42101e-14 -5.12476e-15 0 0 0 0)
(2.71051e-14 4.47797e-15 0 5.42101e-14 -1.42798e-14 0 0 0 0)
(0 9.62061e-15 0 0 -1.36442e-14 0 0 0 0)
(0 -2.45607e-15 0 5.42101e-14 -8.63284e-17 0 0 0 0)
(0 -1.54239e-14 0 2.71051e-14 3.54018e-16 0 0 0 0)
(0 -2.5037e-14 0 8.13152e-14 -2.01711e-15 0 0 0 0)
(0 -2.34799e-14 0 5.42101e-14 -2.0685e-15 0 0 0 0)
(0 7.49905e-15 0 2.71051e-14 -7.95693e-15 0 0 0 0)
(0 2.6022e-14 0 5.42101e-14 -2.23594e-14 0 0 0 0)
(0 7.61981e-15 0 -2.71051e-14 -8.0006e-15 0 0 0 0)
(0 -1.54091e-14 0 5.42101e-14 1.60726e-14 0 0 0 0)
(0 -6.96036e-15 0 -2.71051e-14 2.77193e-14 0 0 0 0)
(-5.42101e-14 1.99662e-14 0 0 1.30693e-14 0 0 0 0)
(3.14419e-12 -1.0933e-12 0 -4.87891e-13 2.34289e-12 0 0 0 0)
(-3.49655e-12 1.29287e-12 0 1.6263e-13 -5.02635e-13 0 0 0 0)
(6.50521e-13 -2.4485e-13 0 8.13152e-14 1.3397e-13 0 0 0 0)
(-2.98156e-13 4.64871e-14 0 0 -1.91762e-14 0 0 0 0)
(5.42101e-14 -5.07881e-15 0 0 2.67711e-14 0 0 0 0)
(-1.0842e-13 1.42234e-14 0 0 2.28619e-14 0 0 0 0)
(0 8.34021e-15 0 -2.71051e-14 7.6631e-15 0 0 0 0)
(5.42101e-14 2.73253e-15 0 5.42101e-14 -1.44259e-14 0 0 0 0)
(0 -4.69176e-15 0 5.42101e-14 2.49857e-15 0 0 0 0)
(0 -6.35024e-15 0 5.42101e-14 -7.53643e-15 0 0 0 0)
(2.71051e-14 -7.82192e-15 0 0 -1.72758e-14 0 0 0 0)
(0 -1.21278e-14 0 2.71051e-14 -8.2236e-15 0 0 0 0)
(2.71051e-14 -1.03795e-14 0 2.71051e-14 -5.10945e-16 0 0 0 0)
(0 -5.99619e-15 0 0 1.63357e-14 0 0 0 0)
(-5.42101e-14 -2.11804e-15 0 0 1.99911e-14 0 0 0 0)
(0 7.4171e-15 0 -2.71051e-14 -2.48139e-15 0 0 0 0)
(2.71051e-14 1.89795e-14 0 -2.71051e-14 -3.83939e-15 0 0 0 0)
(-2.71051e-14 1.06535e-14 0 0 9.92703e-15 0 0 0 0)
(0 -5.7409e-15 0 -5.42101e-14 2.24952e-14 0 0 0 0)
(0 -3.2486e-15 0 0 9.42822e-15 0 0 0 0)
(-2.92735e-12 9.29728e-13 0 -1.0842e-13 9.71648e-13 0 0 0 0)
(3.41524e-12 -1.05736e-12 0 -1.0842e-13 -1.10906e-13 0 0 0 0)
(-6.23416e-13 2.09888e-13 0 -1.35525e-13 3.60018e-14 0 0 0 0)
(2.43945e-13 -6.02756e-14 0 -8.13152e-14 9.41897e-15 0 0 0 0)
(-5.42101e-14 8.23438e-15 0 -1.0842e-13 1.81095e-15 0 0 0 0)
(2.71051e-14 -1.51108e-14 0 -5.42101e-14 2.87907e-15 0 0 0 0)
(0 -2.02335e-14 0 0 -1.71123e-15 0 0 0 0)
(0 6.76702e-15 0 -1.0842e-13 -1.39321e-14 0 0 0 0)
(2.71051e-14 1.13674e-14 0 -1.0842e-13 -2.06293e-14 0 0 0 0)
(-2.71051e-14 -1.01538e-14 0 -5.42101e-14 -1.37695e-14 0 0 0 0)
(0 -3.14324e-15 0 -5.42101e-14 -1.02393e-14 0 0 0 0)
(0 1.34095e-15 0 -5.42101e-14 2.45693e-15 0 0 0 0)
(0 -4.77658e-16 0 -2.71051e-14 1.47563e-14 0 0 0 0)
(-2.71051e-14 -2.97786e-15 0 -5.42101e-14 1.67609e-14 0 0 0 0)
(0 -1.1318e-14 0 -2.71051e-14 1.37067e-14 0 0 0 0)
(-2.71051e-14 2.19149e-15 0 -2.71051e-14 1.2048e-14 0 0 0 0)
(-2.71051e-14 2.00282e-14 0 0 1.5859e-15 0 0 0 0)
(-5.42101e-14 1.09255e-14 0 -1.0842e-13 -1.30613e-14 0 0 0 0)
(5.42101e-14 -7.45917e-15 0 5.42101e-14 -3.00393e-15 0 0 0 0)
(0 -1.19573e-14 0 0 7.30852e-15 0 0 0 0)
(2.90024e-12 -2.32557e-13 0 2.1684e-13 -5.01226e-13 0 0 0 0)
(-3.52366e-12 3.57223e-13 0 0 1.16405e-13 0 0 0 0)
(6.77626e-13 -1.24525e-13 0 0 -4.58987e-14 0 0 0 0)
(-2.71051e-13 1.22963e-14 0 0 -1.39068e-15 0 0 0 0)
(8.13152e-14 -1.16187e-14 0 5.42101e-14 -1.18803e-14 0 0 0 0)
(0 1.07012e-14 0 0 -1.97866e-17 0 0 0 0)
(5.42101e-14 -8.47095e-15 0 5.42101e-14 1.50439e-14 0 0 0 0)
(-1.0842e-13 -1.61856e-14 0 0 1.35759e-14 0 0 0 0)
(1.0842e-13 -4.52917e-15 0 5.42101e-14 -2.44447e-14 0 0 0 0)
(0 4.03975e-15 0 0 -1.80838e-14 0 0 0 0)
(0 8.40451e-15 0 0 -9.92601e-15 0 0 0 0)
(2.71051e-14 1.28679e-14 0 -5.42101e-14 -6.85795e-15 0 0 0 0)
(0 3.92456e-15 0 0 3.21206e-15 0 0 0 0)
(0 -7.04579e-15 0 0 -3.22705e-15 0 0 0 0)
(-2.71051e-14 -6.83099e-15 0 0 -5.36032e-15 0 0 0 0)
(0 -4.70375e-15 0 0 2.63323e-15 0 0 0 0)
(2.71051e-14 -6.12977e-15 0 2.71051e-14 -5.11588e-15 0 0 0 0)
(5.42101e-14 6.0637e-15 0 5.42101e-14 -1.26149e-14 0 0 0 0)
(0 1.46289e-14 0 0 -2.85382e-15 0 0 0 0)
(0 -7.55319e-15 0 -2.71051e-14 2.96633e-15 0 0 0 0)
(-2.71051e-12 5.44907e-13 0 -8.67362e-13 -1.1828e-12 0 0 0 0)
(3.2255e-12 -6.02037e-13 0 2.71051e-13 1.81385e-13 0 0 0 0)
(-6.50521e-13 9.20923e-14 0 -5.42101e-14 -4.46161e-14 0 0 0 0)
(2.98156e-13 -2.62572e-14 0 1.0842e-13 4.35838e-15 0 0 0 0)
(-5.42101e-14 9.60527e-15 0 2.71051e-14 9.23919e-15 0 0 0 0)
(2.71051e-14 1.18134e-14 0 2.71051e-14 -6.77768e-15 0 0 0 0)
(0 -6.63779e-15 0 -2.71051e-14 -1.08676e-14 0 0 0 0)
(0 -3.27217e-14 0 1.0842e-13 3.78734e-16 0 0 0 0)
(-5.42101e-14 -2.02923e-14 0 5.42101e-14 7.62739e-15 0 0 0 0)
(-2.71051e-14 4.36493e-15 0 0 8.89365e-15 0 0 0 0)
(0 8.08263e-15 0 0 2.65283e-15 0 0 0 0)
(0 1.4479e-14 0 0 -1.17012e-14 0 0 0 0)
(0 3.15325e-15 0 -2.71051e-14 -1.57171e-14 0 0 0 0)
(0 -1.15502e-14 0 5.42101e-14 -5.89495e-15 0 0 0 0)
(0 -5.45777e-15 0 2.71051e-14 7.96853e-15 0 0 0 0)
(0 2.43593e-15 0 2.71051e-14 1.25406e-14 0 0 0 0)
(0 4.78016e-15 0 0 1.53521e-14 0 0 0 0)
(-2.71051e-14 1.31876e-14 0 0 1.40266e-14 0 0 0 0)
(0 8.12202e-15 0 0 -2.62464e-15 0 0 0 0)
(-2.71051e-14 -1.20698e-14 0 0 -8.67085e-15 0 0 0 0)
(2.30393e-12 -1.23397e-12 0 1.00289e-12 9.74614e-13 0 0 0 0)
(-2.6563e-12 1.49541e-12 0 -2.43945e-13 -2.20222e-13 0 0 0 0)
(5.14996e-13 -3.01551e-13 0 1.35525e-13 5.54954e-14 0 0 0 0)
(-2.1684e-13 6.61516e-14 0 -5.42101e-14 -4.04507e-15 0 0 0 0)
(-2.71051e-14 -2.27548e-14 0 0 1.4468e-14 0 0 0 0)
(0 -9.40556e-15 0 -8.13152e-14 -7.60301e-15 0 0 0 0)
(2.71051e-14 -1.31454e-15 0 -8.13152e-14 -1.39567e-14 0 0 0 0)
(0 2.30937e-15 0 -5.42101e-14 -1.79346e-15 0 0 0 0)
(0 3.98575e-15 0 -5.42101e-14 2.0613e-14 0 0 0 0)
(0 -9.34805e-16 0 0 1.22815e-14 0 0 0 0)
(-2.71051e-14 -1.21904e-14 0 -5.42101e-14 -6.10575e-15 0 0 0 0)
(0 -5.50197e-15 0 5.42101e-14 -2.0671e-14 0 0 0 0)
(1.0842e-13 9.73084e-15 0 0 -2.35612e-14 0 0 0 0)
(2.71051e-14 1.66398e-14 0 -5.42101e-14 1.13611e-15 0 0 0 0)
(-5.42101e-14 1.16045e-14 0 -8.13152e-14 1.51729e-14 0 0 0 0)
(-5.42101e-14 2.67986e-15 0 -8.13152e-14 1.03295e-14 0 0 0 0)
(0 -4.64373e-15 0 -8.13152e-14 2.40104e-15 0 0 0 0)
(0 -1.19131e-14 0 0 -2.85207e-15 0 0 0 0)
(5.42101e-14 -8.06853e-15 0 0 -1.75421e-14 0 0 0 0)
(0 3.74231e-15 0 0 -1.01944e-14 0 0 0 0)
(-1.95156e-12 1.2993e-12 0 -6.50521e-13 6.44601e-13 0 0 0 0)
(2.35814e-12 -1.52116e-12 0 8.13152e-14 -4.62815e-14 0 0 0 0)
(-4.87891e-13 3.0827e-13 0 -1.35525e-13 2.5956e-14 0 0 0 0)
(1.35525e-13 -6.72845e-14 0 -5.42101e-14 1.8733e-14 0 0 0 0)
(0 6.04732e-15 0 -2.71051e-14 1.67604e-14 0 0 0 0)
(0 -1.66114e-14 0 8.13152e-14 2.21087e-14 0 0 0 0)
(-2.71051e-14 -8.28241e-16 0 5.42101e-14 9.89001e-15 0 0 0 0)
(0 1.84804e-15 0 2.71051e-14 -1.93514e-15 0 0 0 0)
(0 -6.21733e-15 0 0 -7.07087e-15 0 0 0 0)
(-2.71051e-14 -2.23538e-14 0 5.42101e-14 -1.60026e-14 0 0 0 0)
(5.42101e-14 -2.48699e-14 0 1.0842e-13 -1.97984e-14 0 0 0 0)
(-2.71051e-14 -2.97648e-15 0 5.42101e-14 -2.62337e-15 0 0 0 0)
(-2.71051e-14 2.49603e-14 0 5.42101e-14 1.32857e-14 0 0 0 0)
(-8.13152e-14 2.7184e-14 0 0 1.36283e-14 0 0 0 0)
(0 3.73564e-15 0 0 -3.08295e-15 0 0 0 0)
(2.71051e-14 -1.0336e-14 0 8.13152e-14 -6.12065e-15 0 0 0 0)
(5.42101e-14 -8.40143e-15 0 5.42101e-14 -1.28696e-14 0 0 0 0)
(0 -6.75549e-15 0 2.71051e-14 -8.09803e-15 0 0 0 0)
(0 7.79733e-16 0 5.42101e-14 3.94484e-15 0 0 0 0)
(0 1.56666e-14 0 5.42101e-14 3.64492e-15 0 0 0 0)
(1.73472e-12 -6.35655e-13 0 -5.42101e-13 -8.05071e-13 0 0 0 0)
(-2.1413e-12 8.76764e-13 0 2.71051e-14 1.0109e-13 0 0 0 0)
(4.33681e-13 -2.36537e-13 0 -8.13152e-14 -3.85892e-14 0 0 0 0)
(-1.6263e-13 5.6956e-14 0 -2.71051e-14 -5.61551e-15 0 0 0 0)
(8.13152e-14 -1.9379e-14 0 -5.42101e-14 -1.95425e-14 0 0 0 0)
(0 -1.6276e-14 0 -2.71051e-14 -2.33317e-14 0 0 0 0)
(5.42101e-14 -2.53584e-14 0 0 -2.66468e-14 0 0 0 0)
(0 -1.46515e-14 0 2.71051e-14 -2.2871e-14 0 0 0 0)
(5.42101e-14 -1.00817e-14 0 2.71051e-14 -2.0526e-14 0 0 0 0)
(2.71051e-14 -1.36623e-14 0 0 -1.0296e-14 0 0 0 0)
(0 1.18887e-15 0 0 1.08325e-14 0 0 0 0)
(-2.71051e-14 2.75821e-14 0 -5.42101e-14 2.65368e-14 0 0 0 0)
(0 2.59825e-14 0 -5.42101e-14 2.3235e-14 0 0 0 0)
(0 2.71154e-16 0 -5.42101e-14 5.64105e-15 0 0 0 0)
(2.71051e-14 -8.14443e-15 0 0 -8.28752e-15 0 0 0 0)
(-2.71051e-14 -7.10679e-15 0 0 -2.17158e-17 0 0 0 0)
(-2.71051e-14 -6.62112e-15 0 0 3.45105e-15 0 0 0 0)
(2.71051e-14 4.90135e-15 0 0 5.08345e-15 0 0 0 0)
(0 3.67442e-15 0 -2.71051e-14 9.06616e-15 0 0 0 0)
(-5.42101e-14 -3.84745e-15 0 -2.71051e-14 1.71464e-15 0 0 0 0)
(-2.38524e-12 5.95318e-13 0 8.13152e-14 -1.31674e-13 0 0 0 0)
(2.6834e-12 -7.54674e-13 0 1.35525e-13 -6.57088e-14 0 0 0 0)
(-5.69206e-13 2.01564e-13 0 8.13152e-14 2.4583e-15 0 0 0 0)
(2.71051e-13 -4.82378e-14 0 8.13152e-14 -2.8001e-14 0 0 0 0)
(0 -1.16689e-14 0 1.0842e-13 -3.27519e-14 0 0 0 0)
(5.42101e-14 -2.37157e-14 0 5.42101e-14 -3.85103e-14 0 0 0 0)
(0 -3.67524e-16 0 5.42101e-14 -2.35492e-14 0 0 0 0)
(0 7.96885e-15 0 0 -8.76637e-15 0 0 0 0)
(-5.42101e-14 6.35759e-15 0 0 -1.49786e-15 0 0 0 0)
(0 9.00468e-15 0 0 9.84624e-15 0 0 0 0)
(-5.42101e-14 1.19629e-14 0 -2.71051e-14 2.04215e-14 0 0 0 0)
(-2.71051e-14 9.42597e-15 0 0 1.17779e-14 0 0 0 0)
(0 4.0646e-15 0 0 -8.97359e-15 0 0 0 0)
(0 -4.33853e-15 0 5.42101e-14 -9.68898e-15 0 0 0 0)
(0 -1.92713e-15 0 5.42101e-14 3.5721e-16 0 0 0 0)
(2.71051e-14 1.4026e-15 0 0 -4.24601e-15 0 0 0 0)
(0 -3.29626e-15 0 0 -2.29389e-15 0 0 0 0)
(0 -1.14038e-15 0 -2.71051e-14 -1.76884e-15 0 0 0 0)
(0 -2.58908e-15 0 -2.71051e-14 -1.05731e-14 0 0 0 0)
(5.42101e-14 4.8858e-15 0 -2.71051e-14 -1.25771e-14 0 0 0 0)
(1.89735e-12 -8.33038e-13 0 1.27394e-12 1.10999e-12 0 0 0 0)
(-2.08709e-12 1.0109e-12 0 -2.71051e-13 -1.34813e-13 0 0 0 0)
(3.79471e-13 -1.98829e-13 0 1.0842e-13 2.12338e-14 0 0 0 0)
(-1.35525e-13 2.17458e-14 0 5.42101e-14 -2.22712e-14 0 0 0 0)
(5.42101e-14 -2.98883e-14 0 8.13152e-14 -1.48069e-14 0 0 0 0)
(-5.42101e-14 -7.07326e-15 0 2.71051e-14 1.24346e-14 0 0 0 0)
(0 4.38553e-15 0 0 1.62584e-14 0 0 0 0)
(0 7.39987e-15 0 0 6.57827e-15 0 0 0 0)
(0 8.5309e-15 0 2.71051e-14 2.70525e-15 0 0 0 0)
(0 8.25708e-15 0 0 1.41266e-14 0 0 0 0)
(0 3.1205e-15 0 2.71051e-14 2.18113e-14 0 0 0 0)
(0 -1.81301e-15 0 0 1.52783e-14 0 0 0 0)
(0 4.51568e-15 0 -5.42101e-14 7.1065e-15 0 0 0 0)
(2.71051e-14 9.60196e-15 0 0 -1.18506e-14 0 0 0 0)
(-2.71051e-14 -2.70147e-15 0 5.42101e-14 -5.97986e-15 0 0 0 0)
(-2.71051e-14 -9.75789e-15 0 2.71051e-14 3.57651e-15 0 0 0 0)
(-2.71051e-14 -4.14394e-15 0 0 5.03351e-15 0 0 0 0)
(0 -3.37785e-15 0 0 3.40995e-15 0 0 0 0)
(2.71051e-14 -7.13386e-15 0 0 -1.83574e-15 0 0 0 0)
(-2.71051e-14 1.93028e-14 0 2.71051e-14 6.46954e-16 0 0 0 0)
(-1.38236e-12 1.57049e-12 0 -1.6263e-12 -6.3994e-13 0 0 0 0)
(1.57209e-12 -1.84343e-12 0 2.71051e-13 7.01471e-14 0 0 0 0)
(-2.71051e-13 3.14106e-13 0 -1.89735e-13 -6.29056e-14 0 0 0 0)
(2.1684e-13 -8.42785e-14 0 0 -2.27526e-14 0 0 0 0)
(-2.71051e-14 2.30369e-14 0 -1.0842e-13 -4.63576e-15 0 0 0 0)
(-2.71051e-14 7.34961e-15 0 -8.13152e-14 1.74664e-14 0 0 0 0)
(-2.71051e-14 -6.22382e-15 0 -1.0842e-13 1.64602e-14 0 0 0 0)
(0 -5.58428e-15 0 -5.42101e-14 9.23121e-15 0 0 0 0)
(0 1.39059e-14 0 -1.0842e-13 5.03689e-15 0 0 0 0)
(0 2.81107e-14 0 -1.0842e-13 3.11858e-15 0 0 0 0)
(-1.0842e-13 1.31146e-14 0 -1.0842e-13 1.41005e-14 0 0 0 0)
(-2.71051e-14 -5.27878e-15 0 -8.13152e-14 2.48614e-14 0 0 0 0)
(-5.42101e-14 -2.30643e-14 0 -2.71051e-14 1.021e-14 0 0 0 0)
(8.13152e-14 -1.74249e-14 0 -8.13152e-14 -2.72894e-14 0 0 0 0)
(5.42101e-14 1.35e-14 0 -5.42101e-14 -3.37656e-14 0 0 0 0)
(2.71051e-14 1.2416e-14 0 -1.0842e-13 -8.87806e-15 0 0 0 0)
(-2.71051e-14 -3.46282e-15 0 0 7.27041e-15 0 0 0 0)
(0 -8.00963e-15 0 -5.42101e-14 8.59318e-15 0 0 0 0)
(2.71051e-14 -5.35208e-15 0 0 6.38889e-15 0 0 0 0)
(-2.71051e-14 6.07458e-15 0 -2.71051e-14 1.02836e-14 0 0 0 0)
(5.14996e-13 -1.40283e-12 0 1.02999e-12 -1.68898e-12 0 0 0 0)
(-6.50521e-13 1.58793e-12 0 -1.35525e-13 2.43891e-13 0 0 0 0)
(1.35525e-13 -2.91729e-13 0 1.35525e-13 -7.12202e-14 0 0 0 0)
(-5.42101e-14 8.00156e-14 0 -2.71051e-14 1.37494e-14 0 0 0 0)
(-2.71051e-14 1.03307e-14 0 0 1.89755e-14 0 0 0 0)
(0 1.40227e-14 0 0 4.16234e-15 0 0 0 0)
(0 -3.84968e-15 0 5.42101e-14 1.94599e-15 0 0 0 0)
(0 -4.0234e-15 0 0 9.98326e-15 0 0 0 0)
(-5.42101e-14 2.41827e-15 0 8.13152e-14 2.23911e-14 0 0 0 0)
(0 1.73207e-14 0 0 -1.324e-17 0 0 0 0)
(8.13152e-14 2.48633e-14 0 0 -2.37502e-14 0 0 0 0)
(0 -5.70356e-15 0 8.13152e-14 -2.00714e-14 0 0 0 0)
(0 -4.76352e-14 0 8.13152e-14 -1.36554e-14 0 0 0 0)
(5.42101e-14 -3.43736e-14 0 8.13152e-14 8.86179e-15 0 0 0 0)
(-5.42101e-14 1.57099e-14 0 0 8.25667e-15 0 0 0 0)
(0 3.12781e-14 0 -2.71051e-14 -1.58311e-14 0 0 0 0)
(0 1.33273e-14 0 -5.42101e-14 -1.21082e-14 0 0 0 0)
(5.42101e-14 -4.25938e-15 0 0 -1.11423e-14 0 0 0 0)
(0 -5.44346e-15 0 -5.42101e-14 -1.07899e-14 0 0 0 0)
(0 2.63029e-15 0 2.71051e-14 -5.80964e-15 0 0 0 0)
(-4.33681e-13 1.25407e-13 0 8.13152e-14 3.02262e-12 0 0 0 0)
(6.23416e-13 -2.25672e-13 0 2.71051e-14 -5.16184e-13 0 0 0 0)
(-1.35525e-13 8.39644e-14 0 5.42101e-14 1.24547e-13 0 0 0 0)
(2.71051e-14 5.91722e-15 0 -2.71051e-14 -3.47112e-15 0 0 0 0)
(0 1.34498e-14 0 0 1.40467e-14 0 0 0 0)
(0 -9.67991e-15 0 2.71051e-14 -3.68196e-15 0 0 0 0)
(2.71051e-14 -4.02896e-16 0 0 -7.27614e-15 0 0 0 0)
(0 1.48609e-14 0 5.42101e-14 5.217e-15 0 0 0 0)
(-2.71051e-14 3.90943e-15 0 2.71051e-14 1.39257e-14 0 0 0 0)
(-2.71051e-14 -1.80306e-14 0 1.35525e-13 1.56033e-14 0 0 0 0)
(-5.42101e-14 -6.94349e-15 0 8.13152e-14 3.65618e-15 0 0 0 0)
(2.71051e-14 4.81606e-15 0 2.71051e-14 -1.23139e-14 0 0 0 0)
(0 5.86888e-15 0 5.42101e-14 1.02805e-16 0 0 0 0)
(-2.71051e-14 4.48713e-15 0 0 3.3056e-14 0 0 0 0)
(-8.13152e-14 -1.11929e-14 0 0 3.26799e-14 0 0 0 0)
(2.71051e-14 -7.94889e-15 0 2.71051e-14 -2.27076e-15 0 0 0 0)
(0 1.226e-15 0 0 -1.4975e-14 0 0 0 0)
(0 -6.69132e-15 0 5.42101e-14 -1.34982e-14 0 0 0 0)
(5.42101e-14 -1.94499e-17 0 5.42101e-14 -5.06185e-15 0 0 0 0)
(0 2.26741e-14 0 2.71051e-14 -5.28167e-15 0 0 0 0)
(6.50521e-13 1.10361e-12 0 2.1684e-13 3.71663e-13 0 0 0 0)
(-7.31836e-13 -1.31015e-12 0 -1.35525e-13 -8.88008e-14 0 0 0 0)
(8.13152e-14 2.20984e-13 0 -1.0842e-13 3.90544e-14 0 0 0 0)
(-8.13152e-14 -3.04845e-14 0 0 1.20557e-14 0 0 0 0)
(2.71051e-14 1.01199e-14 0 -2.71051e-14 3.27401e-15 0 0 0 0)
(0 -7.30022e-15 0 -8.13152e-14 4.85022e-15 0 0 0 0)
(0 5.04928e-15 0 -5.42101e-14 4.82349e-15 0 0 0 0)
(0 1.71784e-14 0 -1.35525e-13 -8.00728e-15 0 0 0 0)
(8.13152e-14 1.28046e-14 0 -1.0842e-13 -2.13792e-14 0 0 0 0)
(2.71051e-14 7.05119e-15 0 -8.13152e-14 -3.66222e-15 0 0 0 0)
(0 -3.05396e-15 0 -2.71051e-14 1.02309e-14 0 0 0 0)
(-2.71051e-14 -9.25693e-15 0 -2.71051e-14 5.37779e-15 0 0 0 0)
(0 -2.26521e-15 0 -5.42101e-14 -5.84806e-15 0 0 0 0)
(0 -1.79645e-15 0 2.71051e-14 -9.54721e-15 0 0 0 0)
(0 -1.96169e-14 0 5.42101e-14 -3.90779e-16 0 0 0 0)
(0 -1.63768e-14 0 8.13152e-14 8.56894e-15 0 0 0 0)
(0 2.09989e-15 0 5.42101e-14 3.2794e-15 0 0 0 0)
(2.71051e-14 5.65375e-15 0 0 6.95418e-15 0 0 0 0)
(-2.71051e-14 2.77303e-15 0 0 1.28716e-14 0 0 0 0)
(-2.71051e-14 1.29738e-14 0 -5.42101e-14 2.09209e-15 0 0 0 0)
(-3.52366e-13 4.0827e-13 0 -5.42101e-14 -5.80976e-12 0 0 0 0)
(3.52366e-13 -5.5828e-13 0 0 1.12197e-12 0 0 0 0)
(-5.42101e-14 1.84821e-13 0 1.0842e-13 -2.29687e-13 0 0 0 0)
(8.13152e-14 -2.98632e-14 0 5.42101e-14 6.36297e-14 0 0 0 0)
(-8.13152e-14 6.24434e-15 0 5.42101e-14 1.98651e-15 0 0 0 0)
(5.42101e-14 -8.13043e-15 0 5.42101e-14 1.49793e-14 0 0 0 0)
(-5.42101e-14 -1.32604e-14 0 1.0842e-13 2.18572e-14 0 0 0 0)
(-2.71051e-14 -1.13418e-14 0 1.0842e-13 -1.86564e-15 0 0 0 0)
(2.71051e-14 8.25449e-15 0 5.42101e-14 -9.41369e-15 0 0 0 0)
(0 1.35794e-14 0 2.71051e-14 -1.13081e-14 0 0 0 0)
(-2.71051e-14 2.09652e-15 0 5.42101e-14 -2.42454e-14 0 0 0 0)
(2.71051e-14 -1.12629e-14 0 0 -2.7772e-14 0 0 0 0)
(5.42101e-14 -9.05613e-15 0 5.42101e-14 -2.39965e-14 0 0 0 0)
(2.71051e-14 9.94441e-15 0 -2.71051e-14 -1.76995e-14 0 0 0 0)
(0 6.92325e-15 0 -2.71051e-14 -5.14628e-16 0 0 0 0)
(-2.71051e-14 -4.27871e-15 0 0 1.7284e-14 0 0 0 0)
(0 -3.8876e-16 0 -5.42101e-14 1.448e-14 0 0 0 0)
(-5.42101e-14 2.90085e-15 0 0 7.2393e-15 0 0 0 0)
(5.42101e-14 -4.88154e-15 0 0 -8.76405e-16 0 0 0 0)
(0 7.71046e-15 0 5.42101e-14 -2.2504e-16 0 0 0 0)
(5.69206e-13 -3.58418e-12 0 -2.43945e-13 3.87493e-12 0 0 0 0)
(-5.69206e-13 4.26993e-12 0 5.42101e-14 -6.99016e-13 0 0 0 0)
(1.35525e-13 -8.37352e-13 0 -5.42101e-14 1.63286e-13 0 0 0 0)
(-8.13152e-14 2.01189e-13 0 -5.42101e-14 -4.64857e-14 0 0 0 0)
(0 -3.85304e-14 0 -5.42101e-14 -8.03992e-15 0 0 0 0)
(0 1.25705e-14 0 0 -1.41996e-14 0 0 0 0)
(5.42101e-14 -1.17957e-14 0 -5.42101e-14 -1.24799e-14 0 0 0 0)
(0 -1.40924e-14 0 -2.71051e-14 1.08565e-14 0 0 0 0)
(-2.71051e-14 3.36216e-15 0 0 1.29543e-14 0 0 0 0)
(0 -7.78055e-15 0 -2.71051e-14 -7.60196e-16 0 0 0 0)
(0 -1.95179e-14 0 -5.42101e-14 7.15541e-15 0 0 0 0)
(0 -9.00798e-15 0 0 1.66612e-14 0 0 0 0)
(-2.71051e-14 7.80731e-15 0 -5.42101e-14 2.74263e-14 0 0 0 0)
(-5.42101e-14 2.16854e-14 0 0 1.791e-14 0 0 0 0)
(2.71051e-14 1.53666e-14 0 -2.71051e-14 -4.20352e-15 0 0 0 0)
(-2.71051e-14 -1.3822e-15 0 -2.71051e-14 -4.3799e-15 0 0 0 0)
(0 -7.94482e-15 0 5.42101e-14 1.45739e-15 0 0 0 0)
(5.42101e-14 -9.70264e-15 0 0 3.95368e-15 0 0 0 0)
(0 -4.69131e-15 0 0 8.25919e-15 0 0 0 0)
(-5.42101e-14 1.40753e-14 0 -5.42101e-14 1.35265e-14 0 0 0 0)
)
;

boundaryField
{
    movingWall
    {
        type            extrapolatedCalculated;
        value           nonuniform List<tensor> 
20
(
(5.69206e-13 -3.58418e-12 0 -2.75335e-12 1.78831e-11 0 0 0 0)
(-5.69206e-13 4.26993e-12 0 4.44089e-13 -3.5464e-12 0 0 0 0)
(1.35525e-13 -8.37352e-13 0 -3.9968e-13 8.0343e-13 0 0 0 0)
(-8.13152e-14 2.01189e-13 0 -8.88178e-14 -1.9699e-13 0 0 0 0)
(0 -3.85304e-14 0 -1.33227e-13 -1.32531e-15 0 0 0 0)
(0 1.25705e-14 0 -1.33227e-13 -4.28678e-14 0 0 0 0)
(5.42101e-14 -1.17957e-14 0 -1.77636e-13 -5.16072e-14 0 0 0 0)
(0 -1.40924e-14 0 -2.66454e-13 4.31493e-15 0 0 0 0)
(-2.71051e-14 3.36216e-15 0 -1.77636e-13 4.76257e-15 0 0 0 0)
(0 -7.78055e-15 0 -1.77636e-13 -9.13369e-15 0 0 0 0)
(0 -1.95179e-14 0 -2.22045e-13 3.58848e-14 0 0 0 0)
(0 -9.00798e-15 0 -1.77636e-13 6.89378e-14 0 0 0 0)
(-2.71051e-14 7.80731e-15 0 -1.77636e-13 7.19167e-14 0 0 0 0)
(-5.42101e-14 2.16854e-14 0 0 3.77085e-14 0 0 0 0)
(2.71051e-14 1.53666e-14 0 -4.44089e-14 -1.48249e-14 0 0 0 0)
(-2.71051e-14 -1.3822e-15 0 -4.44089e-14 -2.3758e-14 0 0 0 0)
(0 -7.94482e-15 0 8.88178e-14 -9.29608e-15 0 0 0 0)
(5.42101e-14 -9.70264e-15 0 -4.44089e-14 8.02131e-15 0 0 0 0)
(0 -4.69131e-15 0 -8.88178e-14 2.95145e-14 0 0 0 0)
(-5.42101e-14 1.40753e-14 0 -1.33227e-13 2.67866e-14 0 0 0 0)
)
;
    }
    fixedWalls
    {
        type            extrapolatedCalculated;
        value           nonuniform List<tensor> 
60
(
(-1.68754e-12 1.75738e-11 0 3.25261e-13 9.01428e-12 0 0 0 0)
(3.01981e-12 1.84833e-11 0 -1.11131e-12 -1.37695e-11 0 0 0 0)
(-6.30607e-12 -3.75043e-11 0 1.49078e-12 1.59535e-12 0 0 0 0)
(9.14824e-12 2.48647e-11 0 -1.54499e-12 8.16805e-12 0 0 0 0)
(-1.26121e-11 -4.83213e-12 0 1.51788e-12 -7.56165e-12 0 0 0 0)
(1.52323e-11 -5.38192e-12 0 -4.87891e-13 2.34289e-12 0 0 0 0)
(-1.45661e-11 4.53944e-12 0 -1.0842e-13 9.71648e-13 0 0 0 0)
(1.4877e-11 -1.49533e-12 0 2.1684e-13 -5.01226e-13 0 0 0 0)
(-1.37668e-11 2.53454e-12 0 -8.67362e-13 -1.1828e-12 0 0 0 0)
(1.15463e-11 -6.22654e-12 0 1.00289e-12 9.74614e-13 0 0 0 0)
(-9.85878e-12 6.43299e-12 0 -6.50521e-13 6.44601e-13 0 0 0 0)
(8.92619e-12 -3.64814e-12 0 -5.42101e-13 -8.05071e-13 0 0 0 0)
(-1.19016e-11 3.21271e-12 0 8.13152e-14 -1.31674e-13 0 0 0 0)
(9.19265e-12 -4.17483e-12 0 1.27394e-12 1.10999e-12 0 0 0 0)
(-6.75016e-12 7.65267e-12 0 -1.6263e-12 -6.3994e-13 0 0 0 0)
(2.66454e-12 -6.73459e-12 0 1.02999e-12 -1.68898e-12 0 0 0 0)
(-2.66454e-12 8.96757e-13 0 8.13152e-14 3.02262e-12 0 0 0 0)
(3.06422e-12 5.3559e-12 0 2.1684e-13 3.71663e-13 0 0 0 0)
(-1.77636e-12 2.38341e-12 0 -5.42101e-14 -5.80976e-12 0 0 0 0)
(2.75335e-12 -1.78831e-11 0 -2.43945e-13 3.87493e-12 0 0 0 0)
(-4.44089e-14 -2.54284e-14 0 0 1.0526e-14 0 0 0 0)
(8.88178e-14 -1.66755e-14 0 -5.42101e-14 -1.58321e-14 0 0 0 0)
(8.88178e-14 3.79001e-14 0 5.42101e-14 -1.84171e-14 0 0 0 0)
(-4.44089e-14 5.69931e-14 0 2.71051e-14 1.80089e-15 0 0 0 0)
(-8.88178e-14 3.06965e-14 0 0 1.30693e-14 0 0 0 0)
(0 4.71589e-15 0 0 9.42822e-15 0 0 0 0)
(-8.88178e-14 -7.01636e-15 0 0 7.30852e-15 0 0 0 0)
(0 -2.45182e-14 0 -2.71051e-14 2.96633e-15 0 0 0 0)
(0 -1.88817e-14 0 0 -8.67085e-15 0 0 0 0)
(0 1.01652e-14 0 0 -1.01944e-14 0 0 0 0)
(0 2.18957e-14 0 5.42101e-14 3.64492e-15 0 0 0 0)
(-1.33227e-13 -4.41446e-15 0 -2.71051e-14 1.71464e-15 0 0 0 0)
(8.88178e-14 1.50372e-14 0 -2.71051e-14 -1.25771e-14 0 0 0 0)
(-4.44089e-14 4.5894e-14 0 2.71051e-14 6.46954e-16 0 0 0 0)
(-4.44089e-14 1.24494e-14 0 -2.71051e-14 1.02836e-14 0 0 0 0)
(0 4.7597e-15 0 2.71051e-14 -5.80964e-15 0 0 0 0)
(-8.88178e-14 3.56879e-14 0 2.71051e-14 -5.28167e-15 0 0 0 0)
(-4.44089e-14 2.58864e-14 0 -5.42101e-14 2.09209e-15 0 0 0 0)
(0 2.73196e-14 0 5.42101e-14 -2.2504e-16 0 0 0 0)
(-1.33227e-13 2.67866e-14 0 -5.42101e-14 1.35265e-14 0 0 0 0)
(-2.1684e-13 3.56994e-12 0 -1.68754e-12 1.75738e-11 0 0 0 0)
(5.14996e-13 -4.20241e-12 0 8.43769e-13 -3.29406e-12 0 0 0 0)
(-1.35525e-13 7.88534e-13 0 2.66454e-13 7.64197e-13 0 0 0 0)
(0 -1.80786e-13 0 3.10862e-13 -1.39918e-13 0 0 0 0)
(-2.71051e-14 3.7028e-14 0 2.66454e-13 4.10524e-14 0 0 0 0)
(0 -1.52536e-15 0 2.66454e-13 8.19408e-15 0 0 0 0)
(-2.71051e-14 7.67765e-15 0 3.10862e-13 3.4951e-14 0 0 0 0)
(0 -4.90003e-15 0 1.77636e-13 3.89047e-14 0 0 0 0)
(2.71051e-14 -9.98918e-15 0 3.10862e-13 1.53509e-14 0 0 0 0)
(0 -4.79899e-16 0 2.22045e-13 -1.05204e-15 0 0 0 0)
(0 1.4193e-14 0 3.10862e-13 1.34313e-14 0 0 0 0)
(-5.42101e-14 7.96815e-15 0 2.22045e-13 5.57199e-14 0 0 0 0)
(0 -8.5355e-15 0 1.77636e-13 4.53039e-14 0 0 0 0)
(-2.71051e-14 -1.02388e-14 0 1.77636e-13 2.15779e-14 0 0 0 0)
(0 -7.20978e-16 0 1.33227e-13 4.3487e-15 0 0 0 0)
(0 4.67994e-15 0 1.33227e-13 1.8694e-14 0 0 0 0)
(-2.71051e-14 1.85037e-15 0 4.44089e-14 2.30685e-14 0 0 0 0)
(0 -6.00642e-16 0 4.44089e-14 2.60955e-14 0 0 0 0)
(0 -1.66764e-16 0 0 2.06659e-14 0 0 0 0)
(-2.71051e-14 -1.15236e-14 0 4.44089e-14 2.54284e-14 0 0 0 0)
)
;
    }
    frontAndBack
    {
        type            empty;
    }
}


// ************************************************************************* //
