/*--------------------------------*- C++ -*----------------------------------*\
| =========                 |                                                 |
| \\      /  F ield         | OpenFOAM: The Open Source CFD Toolbox           |
|  \\    /   O peration     | Version:  2312                                  |
|   \\  /    A nd           | Website:  www.openfoam.com                      |
|    \\/     M anipulation  |                                                 |
\*---------------------------------------------------------------------------*/
FoamFile
{
    version     2.0;
    format      ascii;
    arch        "LSB;label=32;scalar=64";
    class       volVectorField;
    location    "5.25";
    object      LambVectorField;
}
// * * * * * * * * * * * * * * * * * * * * * * * * * * * * * * * * * * * * * //

dimensions      [0 1 -2 0 0 0 0];

internalField   nonuniform List<vector> 
400
(
(-1.42554e-25 -3.24468e-12 -3.24468e-12)
(-3.37145e-26 4.09399e-12 -0)
(-1.50649e-27 -7.88534e-13 -7.88534e-13)
(-8.22005e-29 2.34996e-13 -0)
(1.76342e-30 1.71821e-14 1.71821e-14)
(5.865e-31 2.86304e-14 0)
(4.06589e-30 4.65325e-14 4.65325e-14)
(4.76585e-31 4.90003e-15 0)
(2.46379e-30 6.41993e-14 6.41993e-14)
(-7.25513e-32 2.7585e-14 -0)
(1.3437e-30 4.00171e-14 4.00171e-14)
(-1.10996e-30 -7.96815e-15 0)
(9.66728e-31 8.5355e-15 8.5355e-15)
(3.47668e-30 6.44489e-14 0)
(5.97197e-31 5.49311e-14 5.49311e-14)
(-2.18717e-31 -4.67994e-15 0)
(-3.23307e-30 -5.60605e-14 -5.60605e-14)
(-3.49741e-30 -5.36095e-14 0)
(8.6158e-33 1.66764e-16 1.66764e-16)
(7.32566e-31 1.15236e-14 0)
(-2.20648e-25 -4.77508e-12 -4.77508e-12)
(-4.33615e-26 4.53074e-12 -0)
(-2.49989e-27 -1.10806e-12 -1.10806e-12)
(-7.10238e-29 1.83406e-13 -0)
(-1.72648e-29 -1.14348e-13 -1.14348e-13)
(3.80925e-30 -6.69172e-14 -0)
(-7.62392e-31 -1.08836e-13 -1.08836e-13)
(2.12376e-30 -4.02463e-14 -0)
(1.36415e-29 -1.02851e-13 -1.02851e-13)
(1.36313e-29 -1.25678e-13 -0)
(-6.42213e-30 -1.60786e-13 -1.60786e-13)
(-1.22164e-29 -8.47503e-14 0)
(-5.46211e-30 -7.35205e-14 -7.35205e-14)
(-3.55571e-30 -5.3712e-14 0)
(-3.51943e-30 -5.07764e-14 -5.07764e-14)
(-1.65023e-30 -5.17926e-14 0)
(-1.22547e-30 -2.71496e-14 -2.71496e-14)
(-8.2371e-31 -2.54961e-14 0)
(-2.38928e-30 -8.22533e-14 -8.22533e-14)
(-1.96506e-30 -4.71365e-14 0)
(-8.4377e-25 8.99917e-12 8.99917e-12)
(-1.70319e-25 -9.11921e-12 0)
(-9.33123e-27 2.08936e-12 2.08936e-12)
(-3.67194e-28 -4.80105e-13 0)
(-2.60516e-29 1.25787e-13 1.25787e-13)
(-1.60643e-30 -3.27487e-14 0)
(-9.25036e-31 -7.68443e-15 -7.68443e-15)
(-2.3553e-31 -1.87081e-15 0)
(2.4476e-31 1.75978e-15 1.75978e-15)
(9.9245e-31 9.16391e-15 0)
(6.49676e-31 1.36927e-14 1.36927e-14)
(-3.67784e-31 1.28474e-14 -0)
(3.11736e-31 -3.84729e-15 -3.84729e-15)
(-7.97766e-31 -8.10251e-14 0)
(-3.23595e-30 -1.72932e-14 -1.72932e-14)
(3.50726e-30 1.91886e-14 0)
(-5.50873e-31 1.15645e-13 1.15645e-13)
(-2.74378e-30 1.70929e-14 -0)
(-3.60661e-30 2.05279e-14 2.05279e-14)
(-2.57397e-30 2.71658e-14 -0)
(-4.02144e-25 -6.46933e-12 -6.46933e-12)
(-8.01471e-26 6.20415e-12 -0)
(-4.01655e-27 -1.41892e-12 -1.41892e-12)
(-2.00612e-28 3.2022e-13 -0)
(-1.04443e-29 -6.12176e-14 -6.12176e-14)
(-2.29775e-31 1.60625e-14 -0)
(3.70026e-31 3.70613e-14 3.70613e-14)
(-3.79008e-30 -2.41125e-14 0)
(-9.61162e-31 -3.82766e-15 -3.82766e-15)
(1.99093e-29 1.01859e-13 0)
(4.71042e-30 1.03135e-13 1.03135e-13)
(-2.08112e-30 9.15121e-14 -0)
(-1.9739e-30 3.5062e-14 3.5062e-14)
(-5.55205e-30 5.42665e-14 -0)
(1.03333e-30 -1.81729e-14 -1.81729e-14)
(3.71275e-30 4.67493e-14 0)
(1.30725e-30 7.36626e-14 7.36626e-14)
(-1.22453e-29 1.06382e-13 -0)
(-1.95774e-29 8.40527e-14 8.40527e-14)
(1.48681e-30 -1.0435e-14 -0)
(-2.9336e-26 2.42841e-12 2.42841e-12)
(-4.2323e-27 -1.42261e-12 0)
(-2.31033e-28 4.09096e-13 4.09096e-13)
(-4.74297e-30 -1.98186e-14 0)
(-8.40568e-30 8.80138e-14 8.80138e-14)
(-1.03085e-29 1.04423e-13 -0)
(-5.58144e-31 1.00507e-14 1.00507e-14)
(3.03663e-30 4.22786e-14 0)
(3.17206e-30 4.97321e-14 4.97321e-14)
(-1.1218e-30 -9.62061e-15 0)
(9.06596e-30 5.66662e-14 5.66662e-14)
(3.91451e-30 4.2529e-14 0)
(6.11488e-31 1.06352e-13 1.06352e-13)
(-1.23004e-29 7.769e-14 -0)
(-4.49074e-30 1.9606e-14 1.9606e-14)
(-2.34908e-30 2.81881e-14 -0)
(-1.08239e-30 -3.47249e-14 -3.47249e-14)
(-4.96924e-31 6.96192e-14 -0)
(2.47619e-30 -2.01447e-14 -2.01447e-14)
(1.53223e-30 -1.99662e-14 -0)
(-8.14564e-27 6.05408e-13 6.05408e-13)
(-2.85026e-27 -1.13024e-12 0)
(-1.71602e-28 3.26165e-13 3.26165e-13)
(-3.40851e-30 -4.64871e-14 0)
(-3.11065e-31 5.07881e-15 5.07881e-15)
(-3.20502e-31 -1.42234e-14 0)
(-2.87057e-30 -3.54453e-14 -3.54453e-14)
(5.45331e-30 5.14776e-14 0)
(6.37974e-30 5.89019e-14 5.89019e-14)
(3.57415e-30 6.05604e-14 0)
(3.50492e-31 7.82192e-15 7.82192e-15)
(-7.53318e-31 3.92328e-14 -0)
(-2.86639e-30 3.74845e-14 3.74845e-14)
(-7.37506e-31 5.99619e-15 -0)
(-2.88965e-31 2.11804e-15 2.11804e-15)
(4.97727e-30 -3.45222e-14 -0)
(2.86921e-30 -4.60846e-14 -4.60846e-14)
(-4.86006e-31 -1.06535e-14 0)
(-2.14601e-30 -4.84692e-14 -4.84692e-14)
(-3.83e-32 3.2486e-15 -0)
(-1.17815e-26 -1.03815e-12 -1.03815e-12)
(-1.94659e-27 9.48944e-13 -0)
(-2.67683e-28 -3.45414e-13 -3.45414e-13)
(-1.00057e-30 -2.10396e-14 0)
(-2.00887e-29 -1.16655e-13 -1.16655e-13)
(-5.07901e-30 -3.90993e-14 0)
(4.26894e-31 2.02335e-14 2.02335e-14)
(8.3435e-30 -1.15187e-13 -0)
(-1.06334e-29 -1.19788e-13 -1.19788e-13)
(-1.81687e-30 -4.40563e-14 0)
(6.52086e-31 -5.10669e-14 -5.10669e-14)
(-5.44804e-31 -5.55511e-14 0)
(-1.70471e-32 -2.66274e-14 -2.66274e-14)
(-2.57733e-31 -5.12322e-14 0)
(4.60008e-31 -1.5787e-14 -1.5787e-14)
(3.16842e-30 -2.92965e-14 -0)
(1.44673e-31 -2.00282e-14 -2.00282e-14)
(-1.09956e-29 -1.19346e-13 0)
(6.29224e-30 6.16693e-14 6.16693e-14)
(2.09742e-31 1.19573e-14 0)
(-1.68e-27 4.49397e-13 4.49397e-13)
(-5.04671e-28 -3.57223e-13 0)
(-2.06838e-29 1.24525e-13 1.24525e-13)
(-2.05977e-30 -1.22963e-14 0)
(-2.83973e-30 6.58288e-14 6.58288e-14)
(-5.49229e-31 -1.07012e-14 0)
(4.00367e-30 6.26811e-14 6.26811e-14)
(-5.40361e-31 1.61856e-14 -0)
(-5.75539e-30 5.87393e-14 5.87393e-14)
(3.17836e-31 -4.03975e-15 -0)
(4.8397e-31 -8.40451e-15 -8.40451e-15)
(-3.6008e-31 -6.7078e-14 0)
(-2.79016e-31 -3.92456e-15 -3.92456e-15)
(3.14338e-31 7.04579e-15 0)
(4.35071e-33 6.83099e-15 6.83099e-15)
(-1.11461e-31 4.70375e-15 -0)
(-1.54211e-30 3.32348e-14 3.32348e-14)
(-4.09215e-30 4.81464e-14 -0)
(-2.08263e-31 -1.46289e-14 -1.46289e-14)
(-1.19844e-30 -1.95519e-14 0)
(-8.94862e-27 -1.41227e-12 -1.41227e-12)
(-7.74667e-28 8.73087e-13 -0)
(-4.6228e-29 -1.46302e-13 -1.46302e-13)
(4.53187e-30 1.34677e-13 0)
(9.34554e-31 1.74998e-14 1.74998e-14)
(1.98336e-30 1.52916e-14 0)
(-3.51091e-30 -2.04673e-14 -2.04673e-14)
(8.93775e-30 1.41142e-13 0)
(-1.15984e-29 7.45024e-14 7.45024e-14)
(6.09337e-31 -4.36493e-15 -0)
(9.05492e-31 -8.08263e-15 -8.08263e-15)
(8.50965e-31 -1.4479e-14 -0)
(-9.91285e-31 -3.02583e-14 -3.02583e-14)
(-1.7913e-30 6.57603e-14 -0)
(-2.6943e-30 3.25628e-14 3.25628e-14)
(-2.01837e-30 2.46691e-14 -0)
(2.79076e-31 -4.78016e-15 -4.78016e-15)
(4.48589e-31 -1.31876e-14 -0)
(-5.96918e-31 -8.12202e-15 -8.12202e-15)
(5.69745e-31 1.20698e-14 0)
(-3.48198e-26 2.23686e-12 2.23686e-12)
(-5.61222e-27 -1.73935e-12 0)
(-2.67606e-28 4.37077e-13 4.37077e-13)
(-2.54078e-29 -1.20362e-13 0)
(1.12076e-30 2.27548e-14 2.27548e-14)
(1.1831e-30 -7.19096e-14 -0)
(3.58418e-30 -8.00006e-14 -8.00006e-14)
(1.67286e-30 -5.65195e-14 -0)
(1.26332e-30 -5.81959e-14 -5.81959e-14)
(9.5906e-33 9.34805e-16 0)
(1.30497e-30 -4.20197e-14 -4.20197e-14)
(-6.66651e-30 5.97121e-14 -0)
(8.37591e-31 -9.73084e-15 -9.73084e-15)
(1.01569e-30 -7.08499e-14 -0)
(-7.46352e-30 -9.29197e-14 -9.29197e-14)
(-8.5431e-30 -8.3995e-14 0)
(-8.2131e-30 -7.66714e-14 -7.66714e-14)
(6.58463e-31 1.19131e-14 0)
(-9.69031e-32 8.06853e-15 8.06853e-15)
(9.51034e-32 -3.74231e-15 -0)
(-3.13579e-26 -1.94982e-12 -1.94982e-12)
(-4.95083e-27 1.60247e-12 -0)
(-3.86514e-28 -4.43795e-13 -4.43795e-13)
(-8.89167e-32 1.30744e-14 -0)
(-6.56696e-30 -3.31524e-14 -3.31524e-14)
(5.25595e-30 9.79265e-14 0)
(1.75961e-30 5.50384e-14 5.50384e-14)
(1.14642e-30 2.5257e-14 0)
(3.13671e-31 6.21733e-15 6.21733e-15)
(-1.285e-30 7.65639e-14 -0)
(-2.30708e-29 1.3329e-13 1.3329e-13)
(-1.5182e-29 5.71866e-14 -0)
(-5.93337e-30 2.92498e-14 2.92498e-14)
(4.31647e-31 -2.7184e-14 -0)
(-2.57714e-31 -3.73564e-15 -3.73564e-15)
(1.96845e-30 9.16511e-14 0)
(-2.15207e-30 6.26115e-14 6.26115e-14)
(-2.11752e-30 3.38605e-14 -0)
(-5.44598e-30 5.34304e-14 5.34304e-14)
(-2.10984e-30 3.85435e-14 -0)
(-8.53246e-28 9.35541e-14 9.35541e-14)
(-2.34828e-27 -8.49659e-13 0)
(-5.4747e-29 1.55222e-13 1.55222e-13)
(-3.3492e-29 -8.40611e-14 0)
(-7.5534e-30 -3.48311e-14 -3.48311e-14)
(-2.216e-30 -1.08291e-14 0)
(1.37184e-30 2.53584e-14 2.53584e-14)
(-2.04396e-30 4.17566e-14 -0)
(-3.43668e-30 3.71868e-14 3.71868e-14)
(-2.04616e-30 1.36623e-14 -0)
(2.72298e-31 -1.18887e-15 -1.18887e-15)
(1.12773e-29 -8.17922e-14 -0)
(-3.75151e-30 -8.01926e-14 -8.01926e-14)
(-6.64385e-30 -5.44813e-14 0)
(4.0309e-31 8.14443e-15 8.14443e-15)
(2.87847e-31 7.10679e-15 0)
(-1.42852e-31 6.62112e-15 6.62112e-15)
(1.26004e-31 -4.90135e-15 -0)
(-8.44538e-31 -3.07795e-14 -3.07795e-14)
(-2.56674e-31 -2.32576e-14 0)
(-4.12836e-27 -5.14003e-13 -5.14003e-13)
(-1.85036e-27 8.90199e-13 -0)
(-5.83252e-29 -1.20249e-13 -1.20249e-13)
(-8.15612e-30 1.29553e-13 -0)
(3.19387e-31 1.20089e-13 1.20089e-13)
(-1.39989e-29 7.79258e-14 -0)
(-1.27983e-29 5.45776e-14 5.45776e-14)
(1.46085e-30 -7.96885e-15 -0)
(9.8421e-31 -6.35759e-15 -6.35759e-15)
(1.07825e-30 -9.00468e-15 -0)
(2.53011e-30 -3.9068e-14 -3.9068e-14)
(1.07693e-33 -9.42597e-15 -0)
(-1.19898e-31 -4.0646e-15 -4.0646e-15)
(2.37308e-30 5.85486e-14 0)
(-7.79595e-31 5.61372e-14 5.61372e-14)
(-2.982e-32 -1.4026e-15 0)
(4.57224e-34 3.29626e-15 3.29626e-15)
(3.03842e-31 -2.59647e-14 -0)
(2.76175e-31 -2.4516e-14 -2.4516e-14)
(1.20263e-30 -3.19909e-14 -0)
(-2.19907e-26 2.10698e-12 2.10698e-12)
(-2.70068e-27 -1.28195e-12 0)
(-1.00814e-28 3.07249e-13 3.07249e-13)
(3.84425e-30 3.24644e-14 0)
(-1.23059e-29 1.11203e-13 1.11203e-13)
(-6.16811e-30 3.41783e-14 -0)
(7.9551e-31 -4.38553e-15 -4.38553e-15)
(1.01092e-30 -7.39987e-15 -0)
(-1.99478e-30 1.85742e-14 1.85742e-14)
(4.23622e-31 -8.25708e-15 -0)
(-5.95408e-31 2.39846e-14 2.39846e-14)
(-3.64398e-32 1.81301e-15 -0)
(2.52255e-30 -5.87258e-14 -5.87258e-14)
(-2.40603e-31 -9.60196e-15 0)
(3.02e-30 5.69116e-14 5.69116e-14)
(-7.21398e-32 3.68629e-14 -0)
(-1.84464e-31 4.14394e-15 4.14394e-15)
(-1.46587e-31 3.37785e-15 -0)
(-5.58528e-31 7.13386e-15 7.13386e-15)
(-8.95197e-31 7.8023e-15 -0)
(-6.11601e-26 -3.1968e-12 -3.1968e-12)
(-7.24575e-27 2.11448e-12 -0)
(-3.51367e-28 -5.03842e-13 -5.03842e-13)
(-2.40756e-29 8.42785e-14 -0)
(1.91151e-29 -1.31457e-13 -1.31457e-13)
(4.90306e-30 -8.86648e-14 -0)
(7.34928e-30 -1.02196e-13 -1.02196e-13)
(5.71533e-30 -4.86258e-14 -0)
(1.56279e-29 -1.22326e-13 -1.22326e-13)
(-2.93846e-30 -1.36531e-13 0)
(-1.86375e-29 -1.21535e-13 -1.21535e-13)
(-1.16084e-29 -7.60364e-14 0)
(-4.06353e-31 -4.04078e-15 -4.04078e-15)
(4.98179e-30 -6.38903e-14 -0)
(4.98928e-30 -6.77101e-14 -6.77101e-14)
(-6.89075e-30 -1.20836e-13 0)
(1.74782e-31 3.46282e-15 3.46282e-15)
(-1.03477e-30 -4.62005e-14 0)
(-1.58542e-31 5.35208e-15 5.35208e-15)
(1.03266e-30 -3.31796e-14 -0)
(-4.09602e-26 2.43282e-12 2.43282e-12)
(-4.83977e-27 -1.72346e-12 0)
(-4.08957e-28 4.27254e-13 4.27254e-13)
(1.16881e-29 -1.07121e-13 -0)
(1.62212e-30 -1.03307e-14 -1.03307e-14)
(8.13899e-32 -1.40227e-14 -0)
(-9.7497e-31 5.80598e-14 5.80598e-14)
(-1.78241e-31 4.0234e-15 -0)
(-4.49922e-30 7.88969e-14 7.88969e-14)
(3.48463e-31 -1.73207e-14 -0)
(-2.88863e-30 -2.48633e-14 -2.48633e-14)
(1.98851e-29 8.70187e-14 0)
(7.62676e-30 1.2895e-13 1.2895e-13)
(-2.86719e-29 1.15689e-13 -0)
(4.4709e-30 -1.57099e-14 -1.57099e-14)
(5.29754e-30 -5.83832e-14 -0)
(-1.90389e-30 -6.75374e-14 -6.75374e-14)
(1.81174e-31 4.25938e-15 0)
(7.02419e-31 -4.87666e-14 -4.87666e-14)
(-2.91231e-31 2.44748e-14 -0)
(-9.885e-29 -4.40922e-14 -4.40922e-14)
(-2.49697e-28 2.52777e-13 -0)
(4.41149e-31 -2.97543e-14 -2.97543e-14)
(4.89303e-30 -3.30223e-14 -0)
(-5.96443e-31 -1.34498e-14 -1.34498e-14)
(-5.03049e-31 3.6785e-14 -0)
(-2.11333e-32 4.02896e-16 4.02896e-16)
(-6.96654e-31 3.93492e-14 -0)
(2.23038e-30 2.31956e-14 2.31956e-14)
(3.28454e-30 1.53556e-13 0)
(-7.42707e-30 8.82587e-14 8.82587e-14)
(-1.07088e-30 2.2289e-14 -0)
(-1.73983e-30 4.83412e-14 4.83412e-14)
(-4.77599e-32 -4.48713e-15 0)
(9.94015e-32 1.11929e-14 1.11929e-14)
(-3.55045e-30 3.50539e-14 -0)
(8.65655e-32 -1.226e-15 -1.226e-15)
(-5.42177e-30 6.09014e-14 -0)
(-7.45772e-30 5.42296e-14 5.42296e-14)
(-3.95328e-31 4.43094e-15 -0)
(-1.18736e-26 -8.86768e-13 -8.86768e-13)
(-2.76466e-27 1.17462e-12 -0)
(-9.4965e-29 -3.29404e-13 -3.29404e-13)
(-4.38436e-30 3.04845e-14 -0)
(6.16139e-31 -3.72249e-14 -3.72249e-14)
(3.1548e-30 -7.40149e-14 -0)
(5.30691e-30 -5.92594e-14 -5.92594e-14)
(-1.20163e-30 -1.52704e-13 0)
(-9.96838e-30 -1.21225e-13 -1.21225e-13)
(-1.20103e-29 -8.83663e-14 0)
(-3.67362e-30 -2.40511e-14 -2.40511e-14)
(-1.88075e-30 -1.78481e-14 0)
(-3.12568e-30 -5.19449e-14 -5.19449e-14)
(2.39083e-30 2.89015e-14 0)
(3.11613e-30 7.3827e-14 7.3827e-14)
(-1.10827e-29 9.7692e-14 -0)
(-6.3345e-30 5.21102e-14 5.21102e-14)
(5.22668e-31 -5.65375e-15 -0)
(1.80309e-31 -2.77303e-15 -2.77303e-15)
(4.34787e-30 -6.71839e-14 -0)
(-2.7557e-27 -4.6248e-13 -4.6248e-13)
(-1.04724e-27 5.5828e-13 -0)
(-2.87051e-29 -7.64006e-14 -7.64006e-14)
(-2.32182e-30 8.40733e-14 -0)
(3.69748e-30 4.79658e-14 4.79658e-14)
(2.17112e-30 6.23405e-14 0)
(-5.13306e-31 1.21681e-13 1.21681e-13)
(-1.171e-29 1.19762e-13 -0)
(-5.40606e-30 4.59556e-14 4.59556e-14)
(-2.06026e-31 1.35256e-14 -0)
(9.4627e-31 5.21136e-14 5.21136e-14)
(6.45691e-32 1.12629e-14 0)
(-5.97683e-30 6.32662e-14 6.32662e-14)
(3.14285e-30 -3.70495e-14 -0)
(-1.69222e-31 -3.40283e-14 -3.40283e-14)
(-6.67302e-32 4.27871e-15 -0)
(2.03521e-30 -5.38213e-14 -5.38213e-14)
(5.65186e-32 -2.90085e-15 -0)
(-4.29851e-32 4.88154e-15 4.88154e-15)
(-3.17588e-30 4.64997e-14 -0)
(-1.49335e-25 3.34024e-12 3.34024e-12)
(-3.73765e-26 -4.21572e-12 0)
(-1.573e-27 7.83141e-13 7.83141e-13)
(-1.25777e-28 -2.55399e-13 0)
(-5.19512e-32 -1.56797e-14 -1.56797e-14)
(-1.34717e-30 -1.25705e-14 0)
(-5.47222e-30 -4.24144e-14 -4.24144e-14)
(1.40371e-31 -1.30126e-14 -0)
(4.00313e-32 -3.36216e-15 -3.36216e-15)
(-4.4126e-31 -1.93245e-14 0)
(3.11231e-30 -3.46922e-14 -3.46922e-14)
(-1.55248e-30 9.00798e-15 -0)
(1.11502e-29 -6.20174e-14 -6.20174e-14)
(2.04431e-30 -2.16854e-14 -0)
(-1.57409e-30 -4.24717e-14 -4.24717e-14)
(-1.52781e-30 -2.57229e-14 0)
(1.44449e-30 6.21549e-14 6.21549e-14)
(-1.9457e-31 9.70264e-15 -0)
(-3.46154e-31 4.69131e-15 4.69131e-15)
(4.57282e-30 -6.82854e-14 -0)
)
;

boundaryField
{
    movingWall
    {
        type            calculated;
        value           nonuniform List<vector> 
20
(
(0 8.30831e-13 -0)
(0 -3.82584e-12 -0)
(0 4.37671e-13 -0)
(0 -2.90007e-13 -0)
(0 -9.46963e-14 -0)
(0 -1.45797e-13 -0)
(0 -1.6584e-13 -0)
(0 -2.52361e-13 -0)
(0 -1.80998e-13 -0)
(0 -1.69855e-13 -0)
(0 -2.02527e-13 -0)
(0 -1.68628e-13 -0)
(0 -1.85443e-13 -0)
(0 -2.16854e-14 -0)
(0 -5.97755e-14 -0)
(0 -4.30267e-14 -0)
(0 9.67627e-14 -0)
(0 -3.47063e-14 -0)
(0 -8.41265e-14 -0)
(0 -1.47302e-13 -0)
)
;
    }
    fixedWalls
    {
        type            calculated;
        value           nonuniform List<vector> 
60
(
(0 -1.72486e-11 -0)
(0 -1.95946e-11 -0)
(0 3.89951e-11 -0)
(0 -2.64097e-11 -0)
(0 6.35002e-12 -0)
(0 4.89403e-12 -0)
(0 -4.64786e-12 -0)
(0 1.71217e-12 -0)
(0 -3.4019e-12 -0)
(0 7.22943e-12 -0)
(0 -7.08351e-12 -0)
(0 3.10604e-12 -0)
(0 -3.13139e-12 -0)
(0 5.44877e-12 -0)
(0 -9.27897e-12 -0)
(0 7.76458e-12 -0)
(0 -8.15441e-13 -0)
(0 -5.13906e-12 -0)
(0 -2.43762e-12 -0)
(0 1.76392e-11 -0)
(0 2.54284e-14 -0)
(0 -3.75346e-14 -0)
(0 1.631e-14 -0)
(0 -2.9888e-14 -0)
(0 -3.06965e-14 -0)
(0 -4.71589e-15 -0)
(0 7.01636e-15 -0)
(0 -2.58686e-15 -0)
(0 1.88817e-14 -0)
(0 -1.01652e-14 -0)
(0 3.23144e-14 -0)
(0 -2.26906e-14 -0)
(0 -4.21422e-14 -0)
(0 -1.8789e-14 -0)
(0 -3.95544e-14 -0)
(0 2.23454e-14 -0)
(0 -8.58287e-15 -0)
(0 -8.00965e-14 -0)
(0 2.68905e-14 -0)
(0 -8.09967e-14 -0)
(0 -5.25748e-12 -0)
(0 5.04618e-12 -0)
(0 -5.22081e-13 -0)
(0 4.91649e-13 -0)
(0 2.29426e-13 -0)
(0 2.67979e-13 -0)
(0 3.03185e-13 -0)
(0 1.82536e-13 -0)
(0 3.20852e-13 -0)
(0 2.22525e-13 -0)
(0 2.96669e-13 -0)
(0 2.14076e-13 -0)
(0 1.86171e-13 -0)
(0 1.87874e-13 -0)
(0 1.33948e-13 -0)
(0 1.28547e-13 -0)
(0 4.25585e-14 -0)
(0 4.50096e-14 -0)
(0 1.66764e-16 -0)
(0 5.59325e-14 -0)
)
;
    }
    frontAndBack
    {
        type            empty;
    }
}


// ************************************************************************* //
