/*--------------------------------*- C++ -*----------------------------------*\
| =========                 |                                                 |
| \\      /  F ield         | OpenFOAM: The Open Source CFD Toolbox           |
|  \\    /   O peration     | Version:  2312                                  |
|   \\  /    A nd           | Website:  www.openfoam.com                      |
|    \\/     M anipulation  |                                                 |
\*---------------------------------------------------------------------------*/
FoamFile
{
    version     2.0;
    format      ascii;
    arch        "LSB;label=32;scalar=64";
    class       volScalarField;
    location    "5.25";
    object      Lambda2Field;
}
// * * * * * * * * * * * * * * * * * * * * * * * * * * * * * * * * * * * * * //

dimensions      [0 0 -2 0 0 0 0];

internalField   nonuniform List<scalar> 
400
(
1.20818e-24
7.20847e-25
1.83671e-26
-4.36809e-27
2.72431e-27
-2.80664e-29
1.0466e-27
0
1.9317e-28
0
7.69403e-28
8.03413e-28
0
0
0
0
6.34375e-28
3.25609e-29
0
1.10796e-28
0
6.55532e-26
0
5.7059e-27
0
1.17077e-27
0
7.56981e-28
6.0383e-28
-1.74801e-27
0
0
1.3685e-27
4.64506e-29
1.14135e-27
3.16128e-28
0
5.53287e-28
0
6.3412e-28
0
0
0
-4.72074e-27
0
1.81645e-29
0
0
1.47336e-27
7.34684e-28
4.72007e-29
2.78513e-28
0
-7.18961e-28
2.33961e-28
2.26158e-29
0
0
9.12957e-28
1.80527e-27
0
8.57318e-25
0
0
1.06146e-27
2.18366e-28
1.58247e-27
0
6.03684e-29
-1.66983e-27
0
-6.83555e-28
0
0
7.34684e-28
1.11262e-27
0
-1.3036e-27
5.12077e-28
1.02077e-27
5.38877e-24
2.07185e-24
1.17447e-25
6.16911e-27
0
4.46943e-28
5.37925e-28
6.73074e-28
9.77435e-28
0
0
-4.17941e-28
0
-1.26857e-27
2.03262e-28
1.41065e-27
0
-5.76999e-28
1.88661e-28
1.70807e-28
6.11419e-24
4.62902e-25
2.4634e-26
3.67726e-28
7.23139e-28
5.22667e-28
0
3.56236e-28
0
-2.8745e-28
3.1375e-28
-2.61096e-28
7.01975e-29
0
4.00765e-28
-1.94883e-28
3.12469e-29
9.85459e-29
3.11215e-28
0
1.11274e-24
1.2694e-25
2.67859e-27
4.99004e-27
2.04596e-27
8.27449e-28
0
-5.39578e-28
0
7.40037e-28
1.70395e-28
-6.66564e-29
1.29469e-29
4.4236e-28
3.06776e-28
8.57537e-29
1.02798e-28
0
5.55436e-28
0
2.5129e-25
1.35502e-26
5.98331e-27
1.93398e-30
5.94648e-28
0
7.49338e-28
1.84305e-28
1.21459e-27
0
0
0
0
0
4.03986e-29
0
1.36163e-28
4.87848e-28
0
2.0473e-28
1.42502e-24
0
2.34936e-27
0
4.22275e-28
3.6614e-28
1.79918e-28
-3.54755e-27
3.45781e-28
7.9097e-29
0
0
0
-5.91389e-28
0
6.6026e-29
0
1.96746e-28
0
7.51837e-29
9.63223e-25
0
9.97091e-27
0
3.38769e-28
7.64815e-28
8.41576e-28
-1.21975e-28
0
0
1.13954e-27
0
5.78805e-28
-1.67362e-28
1.44511e-27
0
3.77606e-28
0
3.23999e-28
0
5.20739e-25
0
8.13387e-27
3.99842e-27
0
-8.61961e-28
6.89785e-28
5.00912e-29
0
-4.77118e-28
2.42339e-28
0
1.7435e-27
1.85732e-28
0
-1.05787e-28
6.90235e-28
-1.1753e-28
4.22694e-29
8.49288e-28
9.94916e-25
3.3984e-26
2.67466e-26
0
1.73575e-27
4.41161e-28
8.70812e-28
0
4.93764e-28
1.06008e-28
0
-7.60546e-28
0
0
8.52659e-29
4.71575e-34
2.28696e-29
2.58414e-29
0
1.07225e-28
1.31796e-25
0
2.00112e-26
0
0
1.97412e-28
0
0
1.23483e-29
0
4.7436e-28
1.38719e-28
0
-1.41316e-28
0
1.80286e-29
0
3.09101e-29
7.01771e-29
2.5754e-29
1.28068e-24
0
2.49432e-27
1.67484e-27
5.08366e-28
0
0
0
2.3123e-28
0
8.45814e-29
0
0
1.40437e-28
5.88237e-28
0
2.96293e-29
0
1.60929e-29
5.23621e-28
0
0
7.82414e-27
5.1768e-28
0
0
1.40947e-27
3.02725e-28
0
-3.03804e-27
2.46961e-27
1.04733e-27
7.33484e-28
2.16162e-27
1.55444e-27
-6.11458e-28
5.58567e-29
4.34203e-28
4.79791e-29
0
0
0
0
0
3.86751e-28
0
0
0
2.25419e-27
0
7.18618e-28
-6.09258e-29
0
0
1.29873e-28
-5.97172e-28
0
1.2415e-28
2.95091e-28
7.12942e-29
1.98277e-25
2.60329e-25
2.0285e-26
0
0
-2.48818e-28
5.29829e-29
8.05609e-28
4.344e-28
-1.70892e-27
1.39615e-27
2.82173e-28
3.18153e-28
7.34684e-28
1.0993e-27
0
0
-1.80536e-28
7.59779e-28
6.14583e-28
5.7403e-25
1.85443e-25
0
1.4534e-28
8.28431e-29
5.93618e-28
0
-2.264e-27
2.74266e-27
0
8.27777e-29
2.7983e-28
1.22797e-28
0
0
-1.25826e-27
1.13835e-28
4.83607e-29
1.676e-28
0
1.02029e-25
1.24162e-25
2.29771e-26
2.42985e-27
9.17631e-28
0
1.50104e-27
-4.94998e-28
1.06407e-27
3.68072e-28
8.48336e-28
7.34684e-28
1.08555e-27
4.37272e-29
0
2.98737e-28
2.10747e-29
5.24075e-29
6.72545e-30
4.17985e-28
1.19834e-24
5.55469e-25
6.376e-26
-4.29431e-27
2.08874e-27
0
1.24494e-27
3.81976e-28
1.7064e-28
2.10892e-28
1.05807e-27
0
3.11449e-28
3.20767e-28
5.21173e-29
5.66482e-29
0
1.56316e-29
0
0
)
;

boundaryField
{
    movingWall
    {
        type            calculated;
        value           nonuniform List<scalar> 
20
(
1.01925e-23
2.22022e-24
3.5304e-25
0
5.13329e-27
0
5.03407e-27
3.75498e-27
1.37445e-28
1.3821e-27
4.33384e-27
1.60014e-27
0
1.42193e-27
5.22688e-29
6.25823e-28
0
4.95225e-28
4.16672e-28
0
)
;
    }
    fixedWalls
    {
        type            calculated;
        value           nonuniform List<scalar> 
60
(
8.56386e-24
0
0
2.83014e-23
5.99246e-23
8.11494e-24
5.85259e-24
0
2.09389e-24
0
8.77476e-24
2.6258e-24
2.72999e-24
0
9.4888e-24
0
7.17267e-24
1.29951e-24
3.02624e-24
1.19435e-23
2.72447e-28
1.15464e-27
2.46026e-27
1.54804e-27
4.06376e-28
0
6.57218e-29
6.64567e-28
0
0
1.18697e-27
1.22594e-28
1.94592e-28
1.24438e-27
1.59449e-28
1.29012e-28
1.01364e-27
0
1.481e-27
0
0
0
2.28475e-25
-3.66226e-26
1.06009e-26
-3.39294e-28
3.12138e-27
0
0
-1.05452e-28
4.41206e-27
4.70802e-27
0
-1.08409e-27
0
6.23494e-28
8.16857e-28
0
0
1.34854e-28
)
;
    }
    frontAndBack
    {
        type            empty;
    }
}


// ************************************************************************* //
