/*--------------------------------*- C++ -*----------------------------------*\
| =========                 |                                                 |
| \\      /  F ield         | OpenFOAM: The Open Source CFD Toolbox           |
|  \\    /   O peration     | Version:  2312                                  |
|   \\  /    A nd           | Website:  www.openfoam.com                      |
|    \\/     M anipulation  |                                                 |
\*---------------------------------------------------------------------------*/
FoamFile
{
    version     2.0;
    format      ascii;
    arch        "LSB;label=32;scalar=64";
    class       volScalarField;
    location    "5.25";
    object      magSqrP;
}
// * * * * * * * * * * * * * * * * * * * * * * * * * * * * * * * * * * * * * //

dimensions      [0 4 -4 0 0 0 0];

internalField   nonuniform List<scalar> 
400
(
0
3.30995e-30
8.91597e-32
7.24219e-32
9.08483e-32
8.10013e-32
2.50384e-31
3.20132e-31
1.76367e-31
6.34031e-32
2.41868e-33
2.46553e-32
0
7.23114e-34
1.83866e-33
4.68811e-33
1.3169e-32
0
0
0
1.62351e-30
0
5.3585e-32
0
9.18204e-32
9.80311e-32
1.25379e-31
1.71833e-31
1.79538e-31
9.70812e-32
8.66512e-33
2.93348e-35
0
0
1.26935e-32
1.69886e-32
2.54813e-33
0
0
0
1.792e-31
0
5.6137e-32
4.3398e-33
5.71489e-32
1.33996e-31
4.97425e-32
1.46975e-31
2.65013e-31
1.90326e-31
1.25802e-32
0
0
0
0
5.22582e-32
1.08607e-33
0
0
0
0
8.88819e-30
2.05899e-33
1.33566e-31
2.2234e-32
1.59224e-31
3.60458e-32
1.02566e-31
8.04278e-32
8.16724e-32
2.35373e-32
4.68014e-34
3.26073e-33
1.14704e-33
0
0
0
0
0
0
8.69048e-33
0
3.43952e-32
0
1.71717e-32
8.24198e-32
9.93592e-32
7.84558e-32
4.62173e-32
6.40689e-32
2.61834e-32
3.74911e-33
9.17689e-33
0
0
0
0
0
0
2.11465e-32
0
6.75277e-30
0
1.28552e-32
1.1131e-32
1.03497e-31
6.7351e-33
0
3.38513e-32
8.01958e-32
3.77517e-32
5.53936e-33
0
0
0
0
0
0
0
3.13524e-32
0
0
0
0
1.29703e-33
5.05773e-33
2.98563e-35
7.91256e-36
3.61374e-33
9.96739e-32
1.06402e-31
2.58934e-32
1.07472e-32
0
0
0
0
0
0
4.43287e-32
0
3.7064e-30
0
0
0
0
0
3.40635e-32
0
7.80382e-32
1.14741e-31
7.74142e-32
4.66382e-32
2.30568e-33
2.63121e-34
0
0
0
0
9.01344e-33
0
0
0
0
0
0
0
9.52256e-33
4.24877e-32
7.8407e-32
7.90375e-32
7.89901e-32
2.98346e-32
2.85166e-32
1.00886e-32
1.01775e-34
0
0
0
0
0
1.74836e-30
0
0
0
0
0
1.05187e-32
3.25892e-32
3.13189e-32
6.67998e-32
4.24774e-32
0
2.3807e-32
8.99774e-32
7.97377e-32
0
0
0
3.84168e-33
0
0
0
0
0
0
0
3.48155e-33
3.04789e-32
8.87855e-32
3.1366e-32
1.23569e-31
7.56475e-32
1.59495e-31
5.53656e-32
3.54347e-32
1.96097e-33
1.0961e-32
6.42719e-34
1.02847e-32
0
3.9572e-31
0
0
0
0
0
4.41121e-34
2.8194e-32
7.94465e-32
1.06889e-31
1.96834e-31
1.24564e-31
1.30798e-31
3.35742e-32
5.12882e-32
3.15701e-32
3.27897e-33
1.0798e-32
4.70615e-32
0
0
0
0
0
0
0
2.50712e-33
2.63274e-32
1.24993e-31
1.99934e-31
4.18099e-31
1.88159e-31
1.21994e-31
1.09119e-31
3.51706e-32
4.60923e-32
2.98968e-32
3.19298e-32
2.99036e-32
0
1.57672e-30
0
0
0
2.53733e-33
1.35167e-33
1.02461e-32
2.31199e-32
1.77152e-31
2.236e-31
3.19288e-31
3.02695e-31
1.18237e-31
1.53701e-31
1.24228e-31
1.23147e-31
5.45392e-32
3.57365e-32
1.5662e-31
0
0
0
0
0
0
1.52407e-32
5.42251e-32
1.22476e-31
1.95782e-31
3.14726e-31
4.77642e-31
3.48034e-31
8.65581e-32
1.57084e-31
2.29796e-31
2.77504e-31
9.01037e-32
4.63797e-32
3.05555e-31
0
0
0
0
0
0
1.72733e-32
1.13458e-31
2.89156e-31
2.41434e-31
1.99899e-31
4.43175e-31
2.70166e-31
3.00807e-31
6.62272e-31
4.79596e-31
4.28878e-31
1.44914e-31
1.42076e-31
2.52131e-31
0
0
0
0
0
0
7.6613e-33
1.41786e-31
2.66435e-31
3.12363e-31
4.02171e-31
3.02563e-31
3.80829e-31
5.68753e-31
9.28852e-31
4.43956e-31
4.58039e-31
2.99471e-31
1.90788e-31
3.32615e-31
0
2.13005e-31
0
0
0
0
0
1.00102e-31
2.32241e-31
3.14394e-31
4.75282e-31
4.44836e-31
4.0911e-31
4.85538e-31
6.19395e-31
5.61324e-31
4.28192e-31
3.96697e-31
4.99253e-31
6.26186e-31
0
0
6.83452e-34
0
0
0
2.30185e-32
1.00248e-31
1.78279e-31
3.1948e-31
5.72862e-31
5.7029e-31
4.31239e-31
5.35792e-31
6.06353e-31
6.67987e-31
5.00422e-31
4.65589e-31
3.42857e-31
6.69258e-31
0
1.1277e-30
0
0
0
0
0
1.20965e-31
2.59841e-31
2.36814e-31
4.32321e-31
5.31421e-31
5.99482e-31
8.78266e-31
5.77762e-31
7.00688e-31
4.37194e-31
1.92833e-31
2.69308e-31
1.16117e-30
)
;

boundaryField
{
    movingWall
    {
        type            calculated;
        value           nonuniform List<scalar> 
20
(
0
1.1277e-30
0
0
0
0
0
1.20965e-31
2.59841e-31
2.36814e-31
4.32321e-31
5.31421e-31
5.99482e-31
8.78266e-31
5.77762e-31
7.00688e-31
4.37194e-31
1.92833e-31
2.69308e-31
1.16117e-30
)
;
    }
    fixedWalls
    {
        type            calculated;
        value           nonuniform List<scalar> 
60
(
0
1.62351e-30
1.792e-31
0
8.69048e-33
0
0
0
0
0
0
0
0
0
0
0
0
0
0
0
0
0
0
0
2.11465e-32
3.13524e-32
4.43287e-32
9.01344e-33
0
3.84168e-33
1.02847e-32
4.70615e-32
2.99036e-32
1.5662e-31
3.05555e-31
2.52131e-31
3.32615e-31
6.26186e-31
6.69258e-31
1.16117e-30
0
3.30995e-30
8.91597e-32
7.24219e-32
9.08483e-32
8.10013e-32
2.50384e-31
3.20132e-31
1.76367e-31
6.34031e-32
2.41868e-33
2.46553e-32
0
7.23114e-34
1.83866e-33
4.68811e-33
1.3169e-32
0
0
0
)
;
    }
    frontAndBack
    {
        type            empty;
    }
}


// ************************************************************************* //
