/*--------------------------------*- C++ -*----------------------------------*\
| =========                 |                                                 |
| \\      /  F ield         | OpenFOAM: The Open Source CFD Toolbox           |
|  \\    /   O peration     | Version:  2312                                  |
|   \\  /    A nd           | Website:  www.openfoam.com                      |
|    \\/     M anipulation  |                                                 |
\*---------------------------------------------------------------------------*/
FoamFile
{
    version     2.0;
    format      ascii;
    arch        "LSB;label=32;scalar=64";
    class       volScalarField;
    location    "5.25";
    object      pNear;
}
// * * * * * * * * * * * * * * * * * * * * * * * * * * * * * * * * * * * * * //

dimensions      [0 2 -2 0 0 0 0];

internalField   nonuniform List<scalar> 
400
(
0
1.81933e-15
2.98596e-16
2.69113e-16
3.01411e-16
2.84607e-16
5.00384e-16
5.65802e-16
4.19961e-16
2.518e-16
4.91801e-17
1.5702e-16
0
2.68908e-17
4.28796e-17
6.84698e-17
1.14756e-16
0
0
0
1.27417e-15
0
2.31484e-16
0
3.03019e-16
3.13099e-16
3.54089e-16
4.14527e-16
4.2372e-16
3.11579e-16
9.30866e-17
5.41616e-18
0
0
1.12666e-16
1.3034e-16
5.0479e-17
0
0
0
4.2332e-16
0
2.36933e-16
6.58772e-17
2.39058e-16
3.66055e-16
2.2303e-16
3.83373e-16
5.14794e-16
4.36264e-16
1.12161e-16
0
0
0
0
2.28601e-16
3.29557e-17
0
0
0
0
2.98131e-15
4.53761e-17
3.65466e-16
1.49111e-16
3.99029e-16
1.89857e-16
3.20259e-16
2.83598e-16
2.85784e-16
1.53419e-16
2.16336e-17
5.71028e-17
3.3868e-17
0
0
0
0
0
0
9.32227e-17
0
1.85459e-16
0
1.31041e-16
2.87088e-16
3.15213e-16
2.801e-16
2.14982e-16
2.53118e-16
1.61813e-16
6.123e-17
9.57961e-17
0
0
0
0
0
0
1.45418e-16
0
2.59861e-15
0
1.13381e-16
1.05504e-16
3.2171e-16
8.20677e-17
0
1.83987e-16
2.83189e-16
1.94298e-16
7.44269e-17
0
0
0
0
0
0
0
1.77066e-16
0
0
0
0
3.60143e-17
7.11177e-17
5.46409e-18
2.81293e-18
6.01143e-17
3.15712e-16
3.26193e-16
1.60914e-16
1.03669e-16
0
0
0
0
0
0
2.10544e-16
0
1.9252e-15
0
0
0
0
0
1.84563e-16
0
2.79353e-16
3.38735e-16
2.78234e-16
2.15959e-16
4.80175e-17
1.6221e-17
0
0
0
0
9.49391e-17
0
0
0
0
0
0
0
9.75836e-17
2.06125e-16
2.80013e-16
2.81136e-16
2.81052e-16
1.72727e-16
1.68868e-16
1.00442e-16
1.00883e-17
0
0
0
0
0
1.32226e-15
0
0
0
0
0
1.02561e-16
1.80525e-16
1.76971e-16
2.58457e-16
2.061e-16
0
1.54295e-16
2.99962e-16
2.82379e-16
0
0
0
6.19813e-17
0
0
0
0
0
0
0
5.90047e-17
1.74582e-16
2.97969e-16
1.77104e-16
3.51524e-16
2.75041e-16
3.99368e-16
2.35299e-16
1.88241e-16
4.42828e-17
1.04695e-16
2.53519e-17
1.01413e-16
0
6.29063e-16
0
0
0
0
0
2.10029e-17
1.67911e-16
2.81863e-16
3.26939e-16
4.43659e-16
3.52937e-16
3.6166e-16
1.83233e-16
2.26469e-16
1.7768e-16
5.72623e-17
1.03914e-16
2.16937e-16
0
0
0
0
0
0
0
5.00711e-17
1.62257e-16
3.53543e-16
4.4714e-16
6.46605e-16
4.33773e-16
3.49276e-16
3.30332e-16
1.87538e-16
2.14691e-16
1.72907e-16
1.78689e-16
1.72927e-16
0
1.25567e-15
0
0
0
5.03719e-17
3.6765e-17
1.01223e-16
1.52052e-16
4.20894e-16
4.72864e-16
5.65055e-16
5.50177e-16
3.43857e-16
3.92047e-16
3.52459e-16
3.50923e-16
2.33536e-16
1.89041e-16
3.95753e-16
0
0
0
0
0
0
1.23453e-16
2.32863e-16
3.49966e-16
4.42473e-16
5.61005e-16
6.91117e-16
5.89944e-16
2.94208e-16
3.96339e-16
4.7937e-16
5.26787e-16
3.00173e-16
2.1536e-16
5.5277e-16
0
0
0
0
0
0
1.31428e-16
3.36835e-16
5.37732e-16
4.9136e-16
4.47101e-16
6.65714e-16
5.19775e-16
5.48458e-16
8.13801e-16
6.92528e-16
6.54887e-16
3.80676e-16
3.7693e-16
5.02126e-16
0
0
0
0
0
0
8.75288e-17
3.76545e-16
5.16173e-16
5.58894e-16
6.34169e-16
5.50058e-16
6.17113e-16
7.54157e-16
9.6377e-16
6.663e-16
6.76786e-16
5.47239e-16
4.36793e-16
5.76728e-16
0
4.61525e-16
0
0
0
0
0
3.16389e-16
4.81913e-16
5.60709e-16
6.89407e-16
6.6696e-16
6.39617e-16
6.96805e-16
7.87016e-16
7.49215e-16
6.54364e-16
6.29839e-16
7.06578e-16
7.91319e-16
0
0
2.61429e-17
0
0
0
1.51719e-16
3.1662e-16
4.22231e-16
5.65225e-16
7.56876e-16
7.55176e-16
6.56688e-16
7.31978e-16
7.78687e-16
8.17305e-16
7.07405e-16
6.82341e-16
5.8554e-16
8.18082e-16
0
1.06193e-15
0
0
0
0
0
3.47801e-16
5.09746e-16
4.86636e-16
6.57511e-16
7.28986e-16
7.74263e-16
9.37158e-16
7.60106e-16
8.37071e-16
6.61206e-16
4.39127e-16
5.18949e-16
1.07757e-15
)
;

boundaryField
{
    movingWall
    {
        type            zeroGradient;
    }
    fixedWalls
    {
        type            calculated;
        value           nonuniform List<scalar> 
60
(
1.91125e-16
9.55417e-16
4.87449e-16
7.74814e-17
6.52559e-17
1.39834e-17
0
0
0
0
0
0
0
0
0
0
0
0
0
0
0
0
0
2.18128e-17
1.28353e-16
1.77341e-16
1.88182e-16
9.8039e-17
2.35381e-17
5.85989e-17
1.12827e-16
1.93007e-16
2.12952e-16
3.85882e-16
5.21621e-16
5.20913e-16
5.97726e-16
7.63145e-16
8.52991e-16
1.03865e-15
2.72899e-16
1.31832e-15
5.22283e-16
2.7838e-16
2.94045e-16
3.19494e-16
4.7783e-16
5.34113e-16
4.16613e-16
2.46631e-16
9.57491e-17
1.17291e-16
2.75866e-17
2.52555e-17
4.43198e-17
7.15742e-17
9.05998e-17
1.72134e-17
0
0
)
;
    }
    frontAndBack
    {
        type            empty;
    }
}


// ************************************************************************* //
