/*--------------------------------*- C++ -*----------------------------------*\
| =========                 |                                                 |
| \\      /  F ield         | OpenFOAM: The Open Source CFD Toolbox           |
|  \\    /   O peration     | Version:  2312                                  |
|   \\  /    A nd           | Website:  www.openfoam.com                      |
|    \\/     M anipulation  |                                                 |
\*---------------------------------------------------------------------------*/
FoamFile
{
    version     2.0;
    format      ascii;
    arch        "LSB;label=32;scalar=64";
    class       volScalarField;
    location    "5.25";
    object      QField;
}
// * * * * * * * * * * * * * * * * * * * * * * * * * * * * * * * * * * * * * //

dimensions      [0 0 -2 0 0 0 0];

internalField   nonuniform List<scalar> 
400
(
-3.11582e-24
-1.37261e-24
-5.64677e-26
9.80044e-27
-2.69472e-27
4.13449e-29
-6.7203e-28
0
2.86032e-28
1.30077e-29
-7.69403e-28
-1.53656e-27
0
2.29394e-28
3.90843e-29
0
-1.78355e-28
-3.25609e-29
0
-2.85307e-28
-2.64646e-24
-1.59269e-24
1.40219e-27
-5.7059e-27
2.68604e-27
-1.17077e-27
4.50582e-29
-7.56981e-28
-6.0383e-28
1.87107e-27
3.42348e-27
2.7933e-28
-1.16044e-27
-2.66064e-28
-1.1416e-27
-4.99797e-28
1.20629e-30
-6.55535e-28
7.62848e-29
-1.24172e-27
9.20422e-24
1.20423e-24
5.16926e-25
1.98456e-26
3.88018e-27
-1.15521e-28
0
0
-3.12041e-27
-8.23783e-28
-3.10634e-29
-9.04697e-28
0
9.96896e-28
-6.83988e-28
-3.86703e-28
2.79154e-27
0
-8.88332e-28
-2.46447e-27
2.24415e-23
4.84273e-24
3.70689e-25
2.86642e-26
6.05014e-28
8.01074e-28
-1.88325e-27
0
-2.0411e-28
1.67052e-27
1.46926e-27
8.29168e-28
2.15673e-28
3.05598e-30
-1.12804e-27
-2.56836e-27
1.05452e-27
1.62253e-27
3.65647e-28
-1.06634e-27
2.10581e-23
4.74829e-24
2.09951e-25
1.95931e-26
2.46095e-27
-3.33521e-28
-6.54709e-28
-5.07904e-28
-6.29806e-28
0
1.33144e-28
4.18067e-28
2.03589e-27
1.27285e-27
-2.03262e-28
-1.41065e-27
2.06535e-28
8.35328e-28
-1.88661e-28
-7.08488e-28
6.83308e-24
1.54723e-24
1.07061e-25
5.71749e-27
1.45126e-27
-2.47869e-27
2.26062e-28
-9.30158e-28
2.54341e-28
3.44247e-28
-4.68262e-28
3.28723e-28
2.67487e-28
0
-1.08372e-27
2.01041e-28
4.10375e-28
-2.69073e-28
-3.11215e-28
0
-2.74355e-24
-4.9341e-25
6.00108e-27
-2.60361e-27
7.94601e-28
-7.41122e-28
0
7.33682e-28
6.73296e-28
-1.77215e-28
-1.70395e-28
7.26929e-29
-1.29469e-29
-6.15737e-28
-3.06776e-28
-2.67161e-28
-4.29858e-29
1.89261e-27
2.41519e-28
0
-1.40325e-24
-4.10172e-25
-3.11022e-26
3.76943e-28
-3.36197e-28
0
1.27475e-27
-1.4719e-27
-2.40478e-27
0
0
5.11687e-28
0
0
1.45292e-28
0
2.74816e-29
-1.01257e-27
0
-2.0473e-28
3.67862e-24
7.48239e-25
3.40161e-26
4.14628e-27
-7.61209e-28
-5.03912e-28
-1.79918e-28
3.54769e-27
6.86567e-28
-2.41063e-28
0
0
8.5469e-29
6.2614e-28
1.47933e-28
-6.6026e-29
0
-3.80192e-28
0
2.35024e-28
3.48298e-24
9.49774e-25
6.94477e-26
4.46322e-27
-3.92157e-28
-7.64815e-28
-4.8519e-28
1.25191e-28
2.16068e-28
0
-4.95344e-28
2.98263e-28
-2.55452e-27
9.32841e-28
1.21098e-28
-3.42051e-28
-3.77606e-28
0
-9.50956e-28
0
-4.12759e-25
1.45547e-26
2.91146e-26
-1.10871e-27
1.63913e-28
1.35076e-27
-2.2317e-28
-5.00912e-29
0
1.64555e-27
1.62312e-27
2.32462e-28
-1.71321e-27
-1.10819e-27
0
6.74571e-28
-2.4222e-28
1.83108e-28
-4.22694e-29
-8.49288e-28
-1.74116e-24
-2.40229e-25
-3.59694e-26
2.45705e-27
-2.63964e-27
-4.41161e-28
-1.44452e-27
3.9713e-28
-8.39449e-28
-2.79075e-28
0
7.75949e-28
1.40852e-27
1.46993e-29
-2.24634e-28
5.88607e-31
-9.3541e-29
1.37787e-28
9.95952e-29
-1.97236e-28
2.65665e-25
-7.40457e-26
-1.77895e-26
-3.66722e-27
1.26514e-27
-8.02017e-28
1.99235e-29
0
8.11993e-29
0
-7.82797e-28
-3.1924e-28
0
2.35192e-28
1.0447e-28
-1.15088e-28
0
-3.09101e-29
-7.01771e-29
-5.49377e-28
3.16728e-24
5.55372e-25
2.96147e-26
1.83946e-27
1.62769e-27
-4.82358e-28
0
0
-2.3123e-28
0
-8.45814e-29
0
2.44795e-28
-3.21211e-28
3.08532e-28
1.67547e-28
-1.36434e-28
0
-4.97577e-29
-5.40738e-28
3.43873e-24
6.09941e-25
7.66476e-26
-4.93368e-27
2.62331e-27
1.24206e-28
-1.12094e-27
-3.02725e-28
1.50768e-27
3.04777e-27
-1.0689e-28
-1.10311e-27
-1.17864e-27
-3.63595e-27
-1.0986e-27
1.1055e-27
-1.97065e-28
-4.34203e-28
1.73171e-28
-1.14085e-28
5.75087e-25
5.65483e-26
2.98845e-26
1.42347e-27
-5.14332e-28
0
2.08692e-28
0
-1.41047e-27
0
-1.93125e-27
4.63786e-28
3.87346e-27
3.27549e-27
-4.47595e-28
8.47795e-28
7.22474e-28
-6.04024e-28
-2.95091e-28
-7.12942e-29
-1.32105e-24
-3.15681e-25
-2.1431e-26
6.63015e-29
0
2.62375e-28
-1.9722e-28
-8.05609e-28
-4.83422e-28
2.02068e-27
3.66409e-28
-4.6431e-28
-3.18153e-28
-8.95985e-28
-2.65738e-27
1.53906e-28
0
3.62737e-28
-2.73349e-28
-6.14583e-28
2.46775e-27
-1.1257e-25
2.71348e-26
-9.80312e-28
3.63043e-28
-5.93618e-28
2.73722e-28
2.32811e-27
-3.50174e-28
4.74104e-28
-8.27777e-29
-3.96675e-28
-1.22797e-28
4.86929e-29
1.06343e-27
1.33168e-27
-1.13835e-28
1.88494e-28
-3.48885e-28
6.46606e-28
2.06929e-24
3.95342e-25
-7.58697e-27
6.79294e-27
-5.00039e-28
1.25278e-27
2.52815e-28
1.28025e-27
-7.02636e-28
-3.68072e-28
5.43521e-28
-7.52761e-28
-8.09918e-28
-2.10201e-28
1.87655e-28
-4.68484e-28
-2.10747e-29
-3.92443e-28
-4.751e-29
-4.17985e-28
1.33129e-24
1.66411e-25
-2.32636e-26
1.46865e-26
-2.08874e-27
0
-1.31598e-27
-3.81976e-28
-3.51127e-28
-2.10892e-28
-1.05807e-27
0
-3.20156e-28
-9.70901e-28
3.02577e-28
8.12529e-29
4.3069e-28
2.14329e-28
0
2.97469e-29
)
;

boundaryField
{
    movingWall
    {
        type            calculated;
        value           nonuniform List<scalar> 
20
(
3.10664e-25
1.22402e-25
-2.25788e-25
3.38874e-26
-5.13329e-27
1.67472e-27
-4.89296e-27
-3.75498e-27
4.68149e-28
-1.3821e-27
-4.33384e-27
-1.60014e-27
-5.62449e-28
-2.04418e-27
2.80586e-28
5.82579e-28
7.05642e-28
3.95236e-30
-4.16672e-28
4.231e-28
)
;
    }
    fixedWalls
    {
        type            calculated;
        value           nonuniform List<scalar> 
60
(
-2.0928e-23
-2.10407e-23
4.58503e-23
1.13139e-22
1.02703e-22
3.30618e-23
-1.3661e-23
-7.13249e-24
1.84817e-23
1.74977e-23
-2.17018e-24
-9.16388e-24
1.30588e-24
1.55222e-23
1.67653e-23
2.43623e-24
-8.12681e-24
-2.25198e-26
1.04494e-23
6.30654e-24
-4.67447e-28
-2.31015e-27
-3.69034e-27
-1.62478e-27
-1.16079e-27
0
-6.49127e-28
-6.64567e-28
0
0
-1.18697e-27
-3.4809e-28
-7.09489e-28
-1.27269e-27
-1.19242e-28
-1.29012e-28
-4.98216e-28
1.3104e-27
-1.481e-27
-3.49994e-28
2.2137e-24
1.84944e-24
-3.13676e-25
5.61996e-26
-1.0979e-26
4.06437e-28
-3.33404e-27
8.70421e-28
3.52135e-27
1.06559e-28
-4.41206e-27
-4.78986e-27
1.51621e-27
1.23391e-27
9.60536e-29
-6.23494e-28
-7.07445e-28
2.66739e-29
0
-1.77489e-28
)
;
    }
    frontAndBack
    {
        type            empty;
    }
}


// ************************************************************************* //
