/*--------------------------------*- C++ -*----------------------------------*\
| =========                 |                                                 |
| \\      /  F ield         | OpenFOAM: The Open Source CFD Toolbox           |
|  \\    /   O peration     | Version:  2312                                  |
|   \\  /    A nd           | Website:  www.openfoam.com                      |
|    \\/     M anipulation  |                                                 |
\*---------------------------------------------------------------------------*/
FoamFile
{
    version     2.0;
    format      ascii;
    arch        "LSB;label=32;scalar=64";
    class       volVectorField;
    location    "5.25";
    object      UNear;
}
// * * * * * * * * * * * * * * * * * * * * * * * * * * * * * * * * * * * * * //

dimensions      [0 1 -1 0 0 0 0];

internalField   nonuniform List<vector> 
400
(
(-1 4.39346e-14 0)
(-1 -8.23514e-15 0)
(-1 1.91049e-15 0)
(-1 -3.49795e-16 0)
(-1 1.02631e-16 0)
(-1 2.04852e-17 0)
(-1 8.73775e-17 0)
(-1 9.72617e-17 0)
(-1 3.83772e-17 0)
(-1 -2.6301e-18 0)
(-1 3.35782e-17 0)
(-1 1.393e-16 0)
(-1 1.1326e-16 0)
(-1 5.39447e-17 0)
(-1 1.08717e-17 0)
(-1 4.67349e-17 0)
(-1 5.76712e-17 0)
(-1 6.52387e-17 0)
(-1 5.16648e-17 0)
(-1 6.3571e-17 0)
(-1 4.62082e-14 0)
(-1 -9.57052e-15 0)
(-1 2.25609e-15 0)
(-1 -3.8725e-16 0)
(-1 1.50985e-16 0)
(-1 -5.69249e-17 0)
(-1 7.00498e-18 0)
(-1 -5.2769e-17 0)
(-1 -1.32633e-16 0)
(-1 -1.08463e-16 0)
(-1 3.9942e-17 0)
(-1 1.44146e-16 0)
(-1 7.42936e-17 0)
(-1 6.61996e-17 0)
(-1 6.93124e-17 0)
(-1 3.18623e-17 0)
(-1 4.51377e-17 0)
(-1 3.23073e-17 0)
(-1 2.90478e-17 0)
(-1 4.16887e-17 0)
(-1 -9.37608e-14 0)
(-1 1.86769e-14 0)
(-1 -4.46606e-15 0)
(-1 7.6482e-16 0)
(-1 -2.07109e-16 0)
(-1 4.90533e-17 0)
(-1 1.20378e-16 0)
(-1 1.25898e-16 0)
(-1 1.39086e-16 0)
(-1 1.083e-16 0)
(-1 4.74469e-17 0)
(-1 -2.8627e-17 0)
(-1 -8.10274e-17 0)
(-1 9.84591e-18 0)
(-1 1.87123e-16 0)
(-1 1.82778e-16 0)
(-1 -4.76348e-18 0)
(-1 -1.60521e-16 0)
(-1 -1.75693e-16 0)
(-1 -9.47502e-17 0)
(-1 6.21617e-14 0)
(-1 -1.29183e-14 0)
(-1 2.83071e-15 0)
(-1 -6.26481e-16 0)
(-1 1.7061e-16 0)
(-1 -1.4305e-17 0)
(-1 9.98418e-18 0)
(-1 1.57183e-16 0)
(-1 2.51109e-16 0)
(-1 1.9546e-16 0)
(-1 4.56722e-17 0)
(-1 -2.27414e-17 0)
(-1 -5.62975e-17 0)
(-1 -1.02311e-16 0)
(-1 -5.68612e-17 0)
(-1 7.94183e-17 0)
(-1 1.77465e-17 0)
(-1 -1.15107e-16 0)
(-1 -2.32918e-16 0)
(-1 -1.42483e-16 0)
(-1 -1.20803e-14 0)
(-1 2.97503e-15 0)
(-1 -5.64741e-16 0)
(-1 2.39318e-16 0)
(-1 -9.55041e-17 0)
(-1 -9.87188e-17 0)
(-1 -5.55326e-17 0)
(-1 7.18243e-17 0)
(-1 6.37829e-17 0)
(-1 1.16604e-16 0)
(-1 1.59989e-16 0)
(-1 9.20433e-17 0)
(-1 5.74965e-18 0)
(-1 -1.58326e-16 0)
(-1 -2.29049e-16 0)
(-1 -8.33358e-17 0)
(-1 3.11704e-17 0)
(-1 -7.13774e-18 0)
(-1 -1.2292e-16 0)
(-1 -7.67413e-17 0)
(-1 -1.34548e-14 0)
(-1 2.52182e-15 0)
(-1 -5.26119e-16 0)
(-1 7.33215e-17 0)
(-1 -6.12476e-17 0)
(-1 2.25335e-17 0)
(-1 8.0986e-17 0)
(-1 1.05936e-16 0)
(-1 1.08311e-16 0)
(-1 5.90179e-17 0)
(-1 4.48089e-17 0)
(-1 -1.92012e-17 0)
(-1 -7.64686e-17 0)
(-1 -1.22996e-16 0)
(-1 -1.36431e-16 0)
(-1 -1.44176e-16 0)
(-1 -6.22595e-17 0)
(-1 4.56193e-17 0)
(-1 4.42757e-17 0)
(-1 -1.17897e-17 0)
(-1 1.13486e-14 0)
(-1 -2.05133e-15 0)
(-1 7.74963e-16 0)
(-1 4.75566e-17 0)
(-1 1.72207e-16 0)
(-1 1.299e-16 0)
(-1 2.10984e-17 0)
(-1 -7.24343e-17 0)
(-1 8.87686e-17 0)
(-1 4.12397e-17 0)
(-1 -1.27693e-17 0)
(-1 9.80726e-18 0)
(-1 6.40208e-19 0)
(-1 5.03068e-18 0)
(-1 -2.91384e-17 0)
(-1 -1.0815e-16 0)
(-1 -7.22347e-18 0)
(-1 9.21326e-17 0)
(-1 1.02032e-16 0)
(-1 1.75409e-17 0)
(-1 -3.73833e-15 0)
(-1 1.41276e-15 0)
(-1 -1.66101e-16 0)
(-1 1.67511e-16 0)
(-1 -4.31382e-17 0)
(-1 5.13242e-17 0)
(-1 6.38737e-17 0)
(-1 -3.33853e-17 0)
(-1 -9.7982e-17 0)
(-1 -7.86771e-17 0)
(-1 -5.75845e-17 0)
(-1 5.36808e-18 0)
(-1 7.10948e-17 0)
(-1 4.46137e-17 0)
(-1 6.36908e-19 0)
(-1 -2.36962e-17 0)
(-1 -4.64006e-17 0)
(-1 -8.49939e-17 0)
(-1 1.42364e-17 0)
(-1 6.12955e-17 0)
(-1 6.33634e-15 0)
(-1 -8.87273e-16 0)
(-1 3.15975e-16 0)
(-1 3.36498e-17 0)
(-1 5.34037e-17 0)
(-1 1.29702e-16 0)
(-1 1.71538e-16 0)
(-1 6.33246e-17 0)
(-1 -1.55679e-16 0)
(-1 -1.39599e-16 0)
(-1 -1.12029e-16 0)
(-1 -5.87723e-17 0)
(-1 3.27608e-17 0)
(-1 -2.72398e-17 0)
(-1 -8.27416e-17 0)
(-1 -8.18175e-17 0)
(-1 -5.83823e-17 0)
(-1 -3.40159e-17 0)
(-1 7.34938e-17 0)
(-1 4.72042e-17 0)
(-1 -1.55664e-14 0)
(-1 3.22661e-15 0)
(-1 -6.12263e-16 0)
(-1 2.11095e-16 0)
(-1 4.92538e-17 0)
(-1 -1.64526e-17 0)
(-1 -4.48019e-17 0)
(-1 -2.9598e-17 0)
(-1 -2.17082e-17 0)
(-1 1.02595e-17 0)
(-1 -3.10562e-17 0)
(-1 -1.11644e-16 0)
(-1 -8.60759e-17 0)
(-1 -1.43358e-17 0)
(-1 8.03222e-17 0)
(-1 1.0171e-16 0)
(-1 1.07121e-16 0)
(-1 5.52723e-17 0)
(-1 -1.201e-17 0)
(-1 -2.5413e-17 0)
(-1 1.60825e-14 0)
(-1 -3.0895e-15 0)
(-1 8.70929e-16 0)
(-1 -6.80082e-18 0)
(-1 1.98084e-16 0)
(-1 5.36724e-17 0)
(-1 3.19706e-17 0)
(-1 4.539e-17 0)
(-1 5.0451e-17 0)
(-1 -1.67833e-17 0)
(-1 -1.73087e-16 0)
(-1 -2.65482e-16 0)
(-1 -2.02852e-16 0)
(-1 -1.58787e-17 0)
(-1 6.89879e-17 0)
(-1 2.14777e-17 0)
(-1 -3.43718e-17 0)
(-1 -6.25366e-17 0)
(-1 -1.01927e-16 0)
(-1 -5.47393e-17 0)
(-1 -9.12035e-15 0)
(-1 2.76379e-15 0)
(-1 -3.52702e-16 0)
(-1 3.98424e-16 0)
(-1 2.16858e-16 0)
(-1 2.04634e-16 0)
(-1 5.40982e-17 0)
(-1 -4.89494e-17 0)
(-1 -9.24168e-17 0)
(-1 -1.49767e-16 0)
(-1 -2.2904e-16 0)
(-1 -1.37878e-16 0)
(-1 4.67812e-17 0)
(-1 1.21947e-16 0)
(-1 4.94927e-17 0)
(-1 4.05032e-17 0)
(-1 -2.15752e-17 0)
(-1 -2.5708e-17 0)
(-1 2.74384e-17 0)
(-1 1.10361e-17 0)
(-1 8.03177e-15 0)
(-1 -2.07859e-15 0)
(-1 4.85038e-16 0)
(-1 -6.29559e-17 0)
(-1 2.65958e-18 0)
(-1 -1.79644e-16 0)
(-1 -2.34497e-16 0)
(-1 -1.8332e-16 0)
(-1 -1.54809e-16 0)
(-1 -1.19744e-16 0)
(-1 -6.47617e-17 0)
(-1 -1.14252e-19 0)
(-1 2.9498e-17 0)
(-1 4.05318e-17 0)
(-1 -1.38873e-17 0)
(-1 2.12605e-17 0)
(-1 1.3871e-19 0)
(-1 -1.17021e-17 0)
(-1 -1.12651e-17 0)
(-1 -3.75929e-17 0)
(-1 -1.04371e-14 0)
(-1 2.10671e-15 0)
(-1 -3.28119e-16 0)
(-1 1.18414e-16 0)
(-1 -1.10662e-16 0)
(-1 -1.80468e-16 0)
(-1 -1.81394e-16 0)
(-1 -1.36613e-16 0)
(-1 -1.07395e-16 0)
(-1 -5.13041e-17 0)
(-1 -2.48247e-17 0)
(-1 -2.0099e-17 0)
(-1 -4.29548e-17 0)
(-1 2.50577e-17 0)
(-1 5.30648e-17 0)
(-1 -1.95697e-18 0)
(-1 -4.45141e-17 0)
(-1 -4.33964e-17 0)
(-1 -7.82926e-17 0)
(-1 -1.14735e-16 0)
(-1 1.91317e-14 0)
(-1 -3.42673e-15 0)
(-1 6.97376e-16 0)
(-1 -2.85667e-16 0)
(-1 -1.45409e-16 0)
(-1 -5.52989e-17 0)
(-1 -7.19133e-17 0)
(-1 -1.17537e-16 0)
(-1 -1.27756e-16 0)
(-1 2.15223e-17 0)
(-1 1.53351e-16 0)
(-1 1.52669e-16 0)
(-1 1.00563e-16 0)
(-1 -7.79741e-17 0)
(-1 -7.36859e-17 0)
(-1 5.70256e-17 0)
(-1 5.04738e-17 0)
(-1 2.23974e-17 0)
(-1 -2.96225e-17 0)
(-1 -3.11234e-17 0)
(-1 -1.68365e-14 0)
(-1 2.80818e-15 0)
(-1 -9.57175e-16 0)
(-1 -1.09111e-16 0)
(-1 -1.57019e-16 0)
(-1 -5.80417e-18 0)
(-1 -1.67925e-17 0)
(-1 -4.4301e-17 0)
(-1 -5.70266e-17 0)
(-1 -2.01183e-17 0)
(-1 1.16181e-16 0)
(-1 2.28515e-16 0)
(-1 5.9145e-17 0)
(-1 -2.47837e-16 0)
(-1 -2.84591e-16 0)
(-1 -9.07375e-17 0)
(-1 2.81901e-17 0)
(-1 4.25354e-17 0)
(-1 -1.44037e-17 0)
(-1 -1.18992e-17 0)
(-1 2.24189e-15 0)
(-1 -9.87818e-16 0)
(-1 -1.48264e-17 0)
(-1 -1.48174e-16 0)
(-1 4.43457e-17 0)
(-1 -1.36754e-17 0)
(-1 -5.24534e-17 0)
(-1 -1.77044e-17 0)
(-1 9.61552e-17 0)
(-1 2.13899e-17 0)
(-1 -8.41512e-17 0)
(-1 -4.8045e-17 0)
(-1 -3.59906e-17 0)
(-1 1.06437e-17 0)
(-1 8.88076e-18 0)
(-1 -1.01285e-16 0)
(-1 -7.06082e-17 0)
(-1 -8.90253e-17 0)
(-1 -1.37521e-16 0)
(-1 -8.92198e-17 0)
(-1 1.33898e-14 0)
(-1 -2.35366e-15 0)
(-1 2.88293e-16 0)
(-1 -1.43823e-16 0)
(-1 -1.65518e-17 0)
(-1 -4.26238e-17 0)
(-1 -8.9554e-17 0)
(-1 7.86904e-18 0)
(-1 8.22305e-17 0)
(-1 1.35915e-16 0)
(-1 1.52742e-16 0)
(-1 1.05375e-16 0)
(-1 6.0173e-17 0)
(-1 8.27233e-17 0)
(-1 4.22085e-17 0)
(-1 -1.13445e-16 0)
(-1 -1.2156e-16 0)
(-1 -9.24463e-17 0)
(-1 -6.50222e-17 0)
(-1 -6.4716e-17 0)
(-1 5.95852e-15 0)
(-1 -1.87583e-15 0)
(-1 3.75718e-16 0)
(-1 -2.76166e-17 0)
(-1 7.70859e-17 0)
(-1 3.48268e-17 0)
(-1 -4.21847e-18 0)
(-1 -9.77772e-17 0)
(-1 -1.17637e-16 0)
(-1 -1.52323e-17 0)
(-1 1.81578e-17 0)
(-1 5.7329e-18 0)
(-1 -9.44712e-17 0)
(-1 -8.48284e-17 0)
(-1 4.97297e-18 0)
(-1 -1.55959e-17 0)
(-1 -3.78141e-17 0)
(-1 -1.94835e-17 0)
(-1 -8.80564e-18 0)
(-1 -6.82989e-17 0)
(-1 -4.47078e-14 0)
(-1 8.86599e-15 0)
(-1 -2.00857e-15 0)
(-1 4.92474e-16 0)
(-1 3.31328e-18 0)
(-1 1.07169e-16 0)
(-1 1.29018e-16 0)
(-1 -1.07873e-17 0)
(-1 -1.19064e-17 0)
(-1 2.28342e-17 0)
(-1 -8.97119e-17 0)
(-1 -1.72344e-16 0)
(-1 -1.79792e-16 0)
(-1 -9.42713e-17 0)
(-1 3.70622e-17 0)
(-1 5.93949e-17 0)
(-1 2.32402e-17 0)
(-1 -2.00533e-17 0)
(-1 -7.37862e-17 0)
(-1 -6.69664e-17 0)
)
;

boundaryField
{
    movingWall
    {
        type            fixedValue;
        value           uniform (-1 -0 -0);
    }
    fixedWalls
    {
        type            calculated;
        value           nonuniform List<vector> 
60
(
(-1 1.75738e-14 0)
(-1 1.84833e-14 0)
(-1 -3.75043e-14 0)
(-1 2.48647e-14 0)
(-1 -4.83213e-15 0)
(-1 -5.38192e-15 0)
(-1 4.53944e-15 0)
(-1 -1.49533e-15 0)
(-1 2.53454e-15 0)
(-1 -6.22654e-15 0)
(-1 6.43299e-15 0)
(-1 -3.64814e-15 0)
(-1 3.21271e-15 0)
(-1 -4.17483e-15 0)
(-1 7.65267e-15 0)
(-1 -6.73459e-15 0)
(-1 8.96757e-16 0)
(-1 5.3559e-15 0)
(-1 2.38341e-15 0)
(-1 -1.78831e-14 0)
(-1 2.54284e-17 0)
(-1 1.66755e-17 0)
(-1 -3.79001e-17 0)
(-1 -5.69931e-17 0)
(-1 -3.06965e-17 0)
(-1 -4.71589e-18 0)
(-1 7.01636e-18 0)
(-1 2.45182e-17 0)
(-1 1.88817e-17 0)
(-1 -1.01652e-17 0)
(-1 -2.18957e-17 0)
(-1 4.41446e-18 0)
(-1 -1.50372e-17 0)
(-1 -4.5894e-17 0)
(-1 -1.24494e-17 0)
(-1 -4.7597e-18 0)
(-1 -3.56879e-17 0)
(-1 -2.58864e-17 0)
(-1 -2.73196e-17 0)
(-1 -2.67866e-17 0)
(-1 1.75738e-14 0)
(-1 -3.29406e-15 0)
(-1 7.64197e-16 0)
(-1 -1.39918e-16 0)
(-1 4.10524e-17 0)
(-1 8.19408e-18 0)
(-1 3.4951e-17 0)
(-1 3.89047e-17 0)
(-1 1.53509e-17 0)
(-1 -1.05204e-18 0)
(-1 1.34313e-17 0)
(-1 5.57199e-17 0)
(-1 4.53039e-17 0)
(-1 2.15779e-17 0)
(-1 4.3487e-18 0)
(-1 1.8694e-17 0)
(-1 2.30685e-17 0)
(-1 2.60955e-17 0)
(-1 2.06659e-17 0)
(-1 2.54284e-17 0)
)
;
    }
    frontAndBack
    {
        type            empty;
    }
}


// ************************************************************************* //
