/*--------------------------------*- C++ -*----------------------------------*\
| =========                 |                                                 |
| \\      /  F ield         | OpenFOAM: The Open Source CFD Toolbox           |
|  \\    /   O peration     | Version:  2312                                  |
|   \\  /    A nd           | Website:  www.openfoam.com                      |
|    \\/     M anipulation  |                                                 |
\*---------------------------------------------------------------------------*/
FoamFile
{
    version     2.0;
    format      ascii;
    arch        "LSB;label=32;scalar=64";
    class       volVectorField;
    location    "5.25";
    object      vorticityField;
}
// * * * * * * * * * * * * * * * * * * * * * * * * * * * * * * * * * * * * * //

dimensions      [0 0 -1 0 0 0 0];

internalField   nonuniform List<vector> 
400
(
(0 -0 3.24468e-12)
(0 -0 -4.09399e-12)
(0 -0 7.88534e-13)
(0 -0 -2.34996e-13)
(0 -0 -1.71821e-14)
(0 -0 -2.86304e-14)
(0 -0 -4.65325e-14)
(0 -0 -4.90003e-15)
(0 -0 -6.41993e-14)
(0 -0 -2.7585e-14)
(0 -0 -4.00171e-14)
(0 -0 7.96815e-15)
(0 -0 -8.5355e-15)
(0 -0 -6.44489e-14)
(0 -0 -5.49311e-14)
(0 -0 4.67994e-15)
(0 -0 5.60605e-14)
(0 -0 5.36095e-14)
(0 -0 -1.66764e-16)
(0 -0 -1.15236e-14)
(0 -0 4.77508e-12)
(0 -0 -4.53074e-12)
(0 -0 1.10806e-12)
(0 -0 -1.83406e-13)
(0 -0 1.14348e-13)
(0 -0 6.69172e-14)
(0 -0 1.08836e-13)
(0 -0 4.02463e-14)
(0 -0 1.02851e-13)
(0 -0 1.25678e-13)
(0 -0 1.60786e-13)
(0 -0 8.47503e-14)
(0 -0 7.35205e-14)
(0 -0 5.3712e-14)
(0 -0 5.07764e-14)
(0 -0 5.17926e-14)
(0 -0 2.71496e-14)
(0 -0 2.54961e-14)
(0 -0 8.22533e-14)
(0 -0 4.71365e-14)
(0 -0 -8.99917e-12)
(0 -0 9.11921e-12)
(0 -0 -2.08936e-12)
(0 -0 4.80105e-13)
(0 -0 -1.25787e-13)
(0 -0 3.27487e-14)
(0 -0 7.68443e-15)
(0 -0 1.87081e-15)
(0 -0 -1.75978e-15)
(0 -0 -9.16391e-15)
(0 -0 -1.36927e-14)
(0 -0 -1.28474e-14)
(0 -0 3.84729e-15)
(0 -0 8.10251e-14)
(0 -0 1.72932e-14)
(0 -0 -1.91886e-14)
(0 -0 -1.15645e-13)
(0 -0 -1.70929e-14)
(0 -0 -2.05279e-14)
(0 -0 -2.71658e-14)
(0 -0 6.46933e-12)
(0 -0 -6.20415e-12)
(0 -0 1.41892e-12)
(0 -0 -3.2022e-13)
(0 -0 6.12176e-14)
(0 -0 -1.60625e-14)
(0 -0 -3.70613e-14)
(0 -0 2.41125e-14)
(0 -0 3.82766e-15)
(0 -0 -1.01859e-13)
(0 -0 -1.03135e-13)
(0 -0 -9.15121e-14)
(0 -0 -3.5062e-14)
(0 -0 -5.42665e-14)
(0 -0 1.81729e-14)
(0 -0 -4.67493e-14)
(0 -0 -7.36626e-14)
(0 -0 -1.06382e-13)
(0 -0 -8.40527e-14)
(0 -0 1.0435e-14)
(0 -0 -2.42841e-12)
(0 -0 1.42261e-12)
(0 -0 -4.09096e-13)
(0 -0 1.98186e-14)
(0 -0 -8.80138e-14)
(0 -0 -1.04423e-13)
(0 -0 -1.00507e-14)
(0 -0 -4.22786e-14)
(0 -0 -4.97321e-14)
(0 -0 9.62061e-15)
(0 -0 -5.66662e-14)
(0 -0 -4.2529e-14)
(0 -0 -1.06352e-13)
(0 -0 -7.769e-14)
(0 -0 -1.9606e-14)
(0 -0 -2.81881e-14)
(0 -0 3.47249e-14)
(0 -0 -6.96192e-14)
(0 -0 2.01447e-14)
(0 -0 1.99662e-14)
(0 -0 -6.05408e-13)
(0 -0 1.13024e-12)
(0 -0 -3.26165e-13)
(0 -0 4.64871e-14)
(0 -0 -5.07881e-15)
(0 -0 1.42234e-14)
(0 -0 3.54453e-14)
(0 -0 -5.14776e-14)
(0 -0 -5.89019e-14)
(0 -0 -6.05604e-14)
(0 -0 -7.82192e-15)
(0 -0 -3.92328e-14)
(0 -0 -3.74845e-14)
(0 -0 -5.99619e-15)
(0 -0 -2.11804e-15)
(0 -0 3.45222e-14)
(0 -0 4.60846e-14)
(0 -0 1.06535e-14)
(0 -0 4.84692e-14)
(0 -0 -3.2486e-15)
(0 -0 1.03815e-12)
(0 -0 -9.48944e-13)
(0 -0 3.45414e-13)
(0 -0 2.10396e-14)
(0 -0 1.16655e-13)
(0 -0 3.90993e-14)
(0 -0 -2.02335e-14)
(0 -0 1.15187e-13)
(0 -0 1.19788e-13)
(0 -0 4.40563e-14)
(0 -0 5.10669e-14)
(0 -0 5.55511e-14)
(0 -0 2.66274e-14)
(0 -0 5.12322e-14)
(0 -0 1.5787e-14)
(0 -0 2.92965e-14)
(0 -0 2.00282e-14)
(0 -0 1.19346e-13)
(0 -0 -6.16693e-14)
(0 -0 -1.19573e-14)
(0 -0 -4.49397e-13)
(0 -0 3.57223e-13)
(0 -0 -1.24525e-13)
(0 -0 1.22963e-14)
(0 -0 -6.58288e-14)
(0 -0 1.07012e-14)
(0 -0 -6.26811e-14)
(0 -0 -1.61856e-14)
(0 -0 -5.87393e-14)
(0 -0 4.03975e-15)
(0 -0 8.40451e-15)
(0 -0 6.7078e-14)
(0 -0 3.92456e-15)
(0 -0 -7.04579e-15)
(0 -0 -6.83099e-15)
(0 -0 -4.70375e-15)
(0 -0 -3.32348e-14)
(0 -0 -4.81464e-14)
(0 -0 1.46289e-14)
(0 -0 1.95519e-14)
(0 -0 1.41227e-12)
(0 -0 -8.73087e-13)
(0 -0 1.46302e-13)
(0 -0 -1.34677e-13)
(0 -0 -1.74998e-14)
(0 -0 -1.52916e-14)
(0 -0 2.04673e-14)
(0 -0 -1.41142e-13)
(0 -0 -7.45024e-14)
(0 -0 4.36493e-15)
(0 -0 8.08263e-15)
(0 -0 1.4479e-14)
(0 -0 3.02583e-14)
(0 -0 -6.57603e-14)
(0 -0 -3.25628e-14)
(0 -0 -2.46691e-14)
(0 -0 4.78016e-15)
(0 -0 1.31876e-14)
(0 -0 8.12202e-15)
(0 -0 -1.20698e-14)
(0 -0 -2.23686e-12)
(0 -0 1.73935e-12)
(0 -0 -4.37077e-13)
(0 -0 1.20362e-13)
(0 -0 -2.27548e-14)
(0 -0 7.19096e-14)
(0 -0 8.00006e-14)
(0 -0 5.65195e-14)
(0 -0 5.81959e-14)
(0 -0 -9.34805e-16)
(0 -0 4.20197e-14)
(0 -0 -5.97121e-14)
(0 -0 9.73084e-15)
(0 -0 7.08499e-14)
(0 -0 9.29197e-14)
(0 -0 8.3995e-14)
(0 -0 7.66714e-14)
(0 -0 -1.19131e-14)
(0 -0 -8.06853e-15)
(0 -0 3.74231e-15)
(0 -0 1.94982e-12)
(0 -0 -1.60247e-12)
(0 -0 4.43795e-13)
(0 -0 -1.30744e-14)
(0 -0 3.31524e-14)
(0 -0 -9.79265e-14)
(0 -0 -5.50384e-14)
(0 -0 -2.5257e-14)
(0 -0 -6.21733e-15)
(0 -0 -7.65639e-14)
(0 -0 -1.3329e-13)
(0 -0 -5.71866e-14)
(0 -0 -2.92498e-14)
(0 -0 2.7184e-14)
(0 -0 3.73564e-15)
(0 -0 -9.16511e-14)
(0 -0 -6.26115e-14)
(0 -0 -3.38605e-14)
(0 -0 -5.34304e-14)
(0 -0 -3.85435e-14)
(0 -0 -9.35541e-14)
(0 -0 8.49659e-13)
(0 -0 -1.55222e-13)
(0 -0 8.40611e-14)
(0 -0 3.48311e-14)
(0 -0 1.08291e-14)
(0 -0 -2.53584e-14)
(0 -0 -4.17566e-14)
(0 -0 -3.71868e-14)
(0 -0 -1.36623e-14)
(0 -0 1.18887e-15)
(0 -0 8.17922e-14)
(0 -0 8.01926e-14)
(0 -0 5.44813e-14)
(0 -0 -8.14443e-15)
(0 -0 -7.10679e-15)
(0 -0 -6.62112e-15)
(0 -0 4.90135e-15)
(0 -0 3.07795e-14)
(0 -0 2.32576e-14)
(0 -0 5.14003e-13)
(0 -0 -8.90199e-13)
(0 -0 1.20249e-13)
(0 -0 -1.29553e-13)
(0 -0 -1.20089e-13)
(0 -0 -7.79258e-14)
(0 -0 -5.45776e-14)
(0 -0 7.96885e-15)
(0 -0 6.35759e-15)
(0 -0 9.00468e-15)
(0 -0 3.9068e-14)
(0 -0 9.42597e-15)
(0 -0 4.0646e-15)
(0 -0 -5.85486e-14)
(0 -0 -5.61372e-14)
(0 -0 1.4026e-15)
(0 -0 -3.29626e-15)
(0 -0 2.59647e-14)
(0 -0 2.4516e-14)
(0 -0 3.19909e-14)
(0 -0 -2.10698e-12)
(0 -0 1.28195e-12)
(0 -0 -3.07249e-13)
(0 -0 -3.24644e-14)
(0 -0 -1.11203e-13)
(0 -0 -3.41783e-14)
(0 -0 4.38553e-15)
(0 -0 7.39987e-15)
(0 -0 -1.85742e-14)
(0 -0 8.25708e-15)
(0 -0 -2.39846e-14)
(0 -0 -1.81301e-15)
(0 -0 5.87258e-14)
(0 -0 9.60196e-15)
(0 -0 -5.69116e-14)
(0 -0 -3.68629e-14)
(0 -0 -4.14394e-15)
(0 -0 -3.37785e-15)
(0 -0 -7.13386e-15)
(0 -0 -7.8023e-15)
(0 -0 3.1968e-12)
(0 -0 -2.11448e-12)
(0 -0 5.03842e-13)
(0 -0 -8.42785e-14)
(0 -0 1.31457e-13)
(0 -0 8.86648e-14)
(0 -0 1.02196e-13)
(0 -0 4.86258e-14)
(0 -0 1.22326e-13)
(0 -0 1.36531e-13)
(0 -0 1.21535e-13)
(0 -0 7.60364e-14)
(0 -0 4.04078e-15)
(0 -0 6.38903e-14)
(0 -0 6.77101e-14)
(0 -0 1.20836e-13)
(0 -0 -3.46282e-15)
(0 -0 4.62005e-14)
(0 -0 -5.35208e-15)
(0 -0 3.31796e-14)
(0 -0 -2.43282e-12)
(0 -0 1.72346e-12)
(0 -0 -4.27254e-13)
(0 -0 1.07121e-13)
(0 -0 1.03307e-14)
(0 -0 1.40227e-14)
(0 -0 -5.80598e-14)
(0 -0 -4.0234e-15)
(0 -0 -7.88969e-14)
(0 -0 1.73207e-14)
(0 -0 2.48633e-14)
(0 -0 -8.70187e-14)
(0 -0 -1.2895e-13)
(0 -0 -1.15689e-13)
(0 -0 1.57099e-14)
(0 -0 5.83832e-14)
(0 -0 6.75374e-14)
(0 -0 -4.25938e-15)
(0 -0 4.87666e-14)
(0 -0 -2.44748e-14)
(0 -0 4.40922e-14)
(0 -0 -2.52777e-13)
(0 -0 2.97543e-14)
(0 -0 3.30223e-14)
(0 -0 1.34498e-14)
(0 -0 -3.6785e-14)
(0 -0 -4.02896e-16)
(0 -0 -3.93492e-14)
(0 -0 -2.31956e-14)
(0 -0 -1.53556e-13)
(0 -0 -8.82587e-14)
(0 -0 -2.2289e-14)
(0 -0 -4.83412e-14)
(0 -0 4.48713e-15)
(0 -0 -1.11929e-14)
(0 -0 -3.50539e-14)
(0 -0 1.226e-15)
(0 -0 -6.09014e-14)
(0 -0 -5.42296e-14)
(0 -0 -4.43094e-15)
(0 -0 8.86768e-13)
(0 -0 -1.17462e-12)
(0 -0 3.29404e-13)
(0 -0 -3.04845e-14)
(0 -0 3.72249e-14)
(0 -0 7.40149e-14)
(0 -0 5.92594e-14)
(0 -0 1.52704e-13)
(0 -0 1.21225e-13)
(0 -0 8.83663e-14)
(0 -0 2.40511e-14)
(0 -0 1.78481e-14)
(0 -0 5.19449e-14)
(0 -0 -2.89015e-14)
(0 -0 -7.3827e-14)
(0 -0 -9.7692e-14)
(0 -0 -5.21102e-14)
(0 -0 5.65375e-15)
(0 -0 2.77303e-15)
(0 -0 6.71839e-14)
(0 -0 4.6248e-13)
(0 -0 -5.5828e-13)
(0 -0 7.64006e-14)
(0 -0 -8.40733e-14)
(0 -0 -4.79658e-14)
(0 -0 -6.23405e-14)
(0 -0 -1.21681e-13)
(0 -0 -1.19762e-13)
(0 -0 -4.59556e-14)
(0 -0 -1.35256e-14)
(0 -0 -5.21136e-14)
(0 -0 -1.12629e-14)
(0 -0 -6.32662e-14)
(0 -0 3.70495e-14)
(0 -0 3.40283e-14)
(0 -0 -4.27871e-15)
(0 -0 5.38213e-14)
(0 -0 2.90085e-15)
(0 -0 -4.88154e-15)
(0 -0 -4.64997e-14)
(0 -0 -3.34024e-12)
(0 -0 4.21572e-12)
(0 -0 -7.83141e-13)
(0 -0 2.55399e-13)
(0 -0 1.56797e-14)
(0 -0 1.25705e-14)
(0 -0 4.24144e-14)
(0 -0 1.30126e-14)
(0 -0 3.36216e-15)
(0 -0 1.93245e-14)
(0 -0 3.46922e-14)
(0 -0 -9.00798e-15)
(0 -0 6.20174e-14)
(0 -0 2.16854e-14)
(0 -0 4.24717e-14)
(0 -0 2.57229e-14)
(0 -0 -6.21549e-14)
(0 -0 -9.70264e-15)
(0 -0 -4.69131e-15)
(0 -0 6.82854e-14)
)
;

boundaryField
{
    movingWall
    {
        type            calculated;
        value           nonuniform List<vector> 
20
(
(0 -0 -8.30831e-13)
(0 -0 3.82584e-12)
(0 -0 -4.37671e-13)
(0 -0 2.90007e-13)
(0 -0 9.46963e-14)
(0 -0 1.45797e-13)
(0 -0 1.6584e-13)
(0 -0 2.52361e-13)
(0 -0 1.80998e-13)
(0 -0 1.69855e-13)
(0 -0 2.02527e-13)
(0 -0 1.68628e-13)
(0 -0 1.85443e-13)
(0 -0 2.16854e-14)
(0 -0 5.97755e-14)
(0 -0 4.30267e-14)
(0 -0 -9.67627e-14)
(0 -0 3.47063e-14)
(0 -0 8.41265e-14)
(0 -0 1.47302e-13)
)
;
    }
    fixedWalls
    {
        type            calculated;
        value           nonuniform List<vector> 
60
(
(0 -0 1.72486e-11)
(0 -0 1.95946e-11)
(0 -0 -3.89951e-11)
(0 -0 2.64097e-11)
(0 -0 -6.35002e-12)
(0 -0 -4.89403e-12)
(0 -0 4.64786e-12)
(0 -0 -1.71217e-12)
(0 -0 3.4019e-12)
(0 -0 -7.22943e-12)
(0 -0 7.08351e-12)
(0 -0 -3.10604e-12)
(0 -0 3.13139e-12)
(0 -0 -5.44877e-12)
(0 -0 9.27897e-12)
(0 -0 -7.76458e-12)
(0 -0 8.15441e-13)
(0 -0 5.13906e-12)
(0 -0 2.43762e-12)
(0 -0 -1.76392e-11)
(0 -0 -2.54284e-14)
(0 -0 3.75346e-14)
(0 -0 -1.631e-14)
(0 -0 2.9888e-14)
(0 -0 3.06965e-14)
(0 -0 4.71589e-15)
(0 -0 -7.01636e-15)
(0 -0 2.58686e-15)
(0 -0 -1.88817e-14)
(0 -0 1.01652e-14)
(0 -0 -3.23144e-14)
(0 -0 2.26906e-14)
(0 -0 4.21422e-14)
(0 -0 1.8789e-14)
(0 -0 3.95544e-14)
(0 -0 -2.23454e-14)
(0 -0 8.58287e-15)
(0 -0 8.00965e-14)
(0 -0 -2.68905e-14)
(0 -0 8.09967e-14)
(0 -0 5.25748e-12)
(0 -0 -5.04618e-12)
(0 -0 5.22081e-13)
(0 -0 -4.91649e-13)
(0 -0 -2.29426e-13)
(0 -0 -2.67979e-13)
(0 -0 -3.03185e-13)
(0 -0 -1.82536e-13)
(0 -0 -3.20852e-13)
(0 -0 -2.22525e-13)
(0 -0 -2.96669e-13)
(0 -0 -2.14076e-13)
(0 -0 -1.86171e-13)
(0 -0 -1.87874e-13)
(0 -0 -1.33948e-13)
(0 -0 -1.28547e-13)
(0 -0 -4.25585e-14)
(0 -0 -4.50096e-14)
(0 -0 -1.66764e-16)
(0 -0 -5.59325e-14)
)
;
    }
    frontAndBack
    {
        type            empty;
    }
}


// ************************************************************************* //
