/*--------------------------------*- C++ -*----------------------------------*\
| =========                 |                                                 |
| \\      /  F ield         | OpenFOAM: The Open Source CFD Toolbox           |
|  \\    /   O peration     | Version:  2312                                  |
|   \\  /    A nd           | Website:  www.openfoam.com                      |
|    \\/     M anipulation  |                                                 |
\*---------------------------------------------------------------------------*/
FoamFile
{
    version     2.0;
    format      ascii;
    arch        "LSB;label=32;scalar=64";
    class       volVectorField;
    location    "4.625";
    object      diffU;
}
// * * * * * * * * * * * * * * * * * * * * * * * * * * * * * * * * * * * * * //

dimensions      [0 1 -1 0 0 0 0];

internalField   nonuniform List<vector> 
400
(
(0 0 0)
(1.95799e-11 -1.12764e-08 0)
(7.60148e-12 -8.59876e-09 0)
(1.26128e-11 -9.23495e-09 0)
(1.05276e-11 -9.08392e-09 0)
(1.1111e-11 -9.11986e-09 0)
(1.0857e-11 -9.11134e-09 0)
(1.09025e-11 -9.11337e-09 0)
(1.08683e-11 -9.11289e-09 0)
(1.08662e-11 -9.11301e-09 0)
(1.08583e-11 -9.11298e-09 0)
(1.08547e-11 -9.11299e-09 0)
(1.08518e-11 -9.11299e-09 0)
(1.08497e-11 -9.11299e-09 0)
(1.08481e-11 -9.11299e-09 0)
(1.08471e-11 -9.11299e-09 0)
(1.08464e-11 -9.11299e-09 0)
(1.08459e-11 -9.11299e-09 0)
(1.08453e-11 -9.11299e-09 0)
(1.08457e-11 -9.11299e-09 0)
(3.00343e-11 -1.82274e-08 0)
(6.55431e-12 -6.94673e-09 0)
(1.23002e-11 -9.62632e-09 0)
(1.05922e-11 -8.9908e-09 0)
(1.10053e-11 -9.14181e-09 0)
(1.08868e-11 -9.10606e-09 0)
(1.08948e-11 -9.11458e-09 0)
(1.08763e-11 -9.11258e-09 0)
(1.08681e-11 -9.11307e-09 0)
(1.08615e-11 -9.11296e-09 0)
(1.08564e-11 -9.11299e-09 0)
(1.08533e-11 -9.11298e-09 0)
(1.08508e-11 -9.11299e-09 0)
(1.0849e-11 -9.11299e-09 0)
(1.08479e-11 -9.11299e-09 0)
(1.08468e-11 -9.11299e-09 0)
(1.08463e-11 -9.11299e-09 0)
(1.08458e-11 -9.11299e-09 0)
(1.08457e-11 -9.11299e-09 0)
(1.08457e-11 -9.11299e-09 0)
(-4.30895e-11 -1.4924e-11 0)
(2.16817e-11 -1.12734e-08 0)
(6.51701e-12 -8.59999e-09 0)
(1.17587e-11 -9.23456e-09 0)
(1.05744e-11 -9.08397e-09 0)
(1.09475e-11 -9.11978e-09 0)
(1.08474e-11 -9.11131e-09 0)
(1.08711e-11 -9.11335e-09 0)
(1.08592e-11 -9.11288e-09 0)
(1.08574e-11 -9.113e-09 0)
(1.08538e-11 -9.11297e-09 0)
(1.08517e-11 -9.11298e-09 0)
(1.085e-11 -9.11298e-09 0)
(1.08484e-11 -9.11299e-09 0)
(1.08477e-11 -9.11299e-09 0)
(1.0847e-11 -9.11299e-09 0)
(1.08464e-11 -9.11299e-09 0)
(1.08463e-11 -9.11299e-09 0)
(1.08458e-11 -9.11299e-09 0)
(1.08453e-11 -9.11299e-09 0)
(7.19398e-11 -1.81919e-08 0)
(-1.49925e-12 -6.95827e-09 0)
(1.54843e-11 -9.62413e-09 0)
(9.75242e-12 -8.99158e-09 0)
(1.11231e-11 -9.14169e-09 0)
(1.07558e-11 -9.1061e-09 0)
(1.08707e-11 -9.11456e-09 0)
(1.08459e-11 -9.11257e-09 0)
(1.08538e-11 -9.11306e-09 0)
(1.08509e-11 -9.11295e-09 0)
(1.08508e-11 -9.11298e-09 0)
(1.08494e-11 -9.11298e-09 0)
(1.08488e-11 -9.11298e-09 0)
(1.0848e-11 -9.11298e-09 0)
(1.08471e-11 -9.11299e-09 0)
(1.08464e-11 -9.11299e-09 0)
(1.08461e-11 -9.11299e-09 0)
(1.08459e-11 -9.11299e-09 0)
(1.08455e-11 -9.11299e-09 0)
(1.08455e-11 -9.11299e-09 0)
(-5.48357e-11 -6.04405e-11 0)
(2.38294e-11 -1.12606e-08 0)
(5.74785e-12 -8.60339e-09 0)
(1.19103e-11 -9.2338e-09 0)
(1.04983e-11 -9.08425e-09 0)
(1.09215e-11 -9.11974e-09 0)
(1.08153e-11 -9.11134e-09 0)
(1.08498e-11 -9.11334e-09 0)
(1.08435e-11 -9.11288e-09 0)
(1.08469e-11 -9.11299e-09 0)
(1.0847e-11 -9.11297e-09 0)
(1.08471e-11 -9.11298e-09 0)
(1.08467e-11 -9.11298e-09 0)
(1.08464e-11 -9.11298e-09 0)
(1.08461e-11 -9.11299e-09 0)
(1.08461e-11 -9.11299e-09 0)
(1.08461e-11 -9.11299e-09 0)
(1.08457e-11 -9.11299e-09 0)
(1.08455e-11 -9.11299e-09 0)
(1.08457e-11 -9.11299e-09 0)
(7.15423e-11 -1.81401e-08 0)
(-1.19948e-12 -6.97177e-09 0)
(1.5366e-11 -9.6209e-09 0)
(9.78151e-12 -8.99246e-09 0)
(1.10958e-11 -9.14153e-09 0)
(1.07405e-11 -9.10617e-09 0)
(1.08523e-11 -9.11457e-09 0)
(1.08316e-11 -9.11258e-09 0)
(1.08424e-11 -9.11306e-09 0)
(1.08422e-11 -9.11295e-09 0)
(1.0844e-11 -9.11298e-09 0)
(1.08444e-11 -9.11298e-09 0)
(1.08449e-11 -9.11298e-09 0)
(1.08451e-11 -9.11298e-09 0)
(1.08453e-11 -9.11299e-09 0)
(1.08453e-11 -9.11299e-09 0)
(1.08451e-11 -9.11299e-09 0)
(1.08453e-11 -9.11299e-09 0)
(1.08455e-11 -9.11299e-09 0)
(1.08457e-11 -9.11299e-09 0)
(-4.51041e-11 -1.12873e-10 0)
(2.17909e-11 -1.12476e-08 0)
(6.61804e-12 -8.60659e-09 0)
(1.17244e-11 -9.23307e-09 0)
(1.05529e-11 -9.08447e-09 0)
(1.0895e-11 -9.11972e-09 0)
(1.08091e-11 -9.11136e-09 0)
(1.0838e-11 -9.11335e-09 0)
(1.08356e-11 -9.11288e-09 0)
(1.084e-11 -9.113e-09 0)
(1.08413e-11 -9.11297e-09 0)
(1.08429e-11 -9.11298e-09 0)
(1.08442e-11 -9.11298e-09 0)
(1.08449e-11 -9.11298e-09 0)
(1.08451e-11 -9.11299e-09 0)
(1.08451e-11 -9.11299e-09 0)
(1.08449e-11 -9.11299e-09 0)
(1.08451e-11 -9.11299e-09 0)
(1.08453e-11 -9.11299e-09 0)
(1.08455e-11 -9.11299e-09 0)
(5.87657e-11 -1.80887e-08 0)
(1.4444e-12 -6.9842e-09 0)
(1.43197e-11 -9.61795e-09 0)
(1.00246e-11 -8.99319e-09 0)
(1.10244e-11 -9.14138e-09 0)
(1.07556e-11 -9.10623e-09 0)
(1.08398e-11 -9.11457e-09 0)
(1.08258e-11 -9.11259e-09 0)
(1.08353e-11 -9.11307e-09 0)
(1.08373e-11 -9.11296e-09 0)
(1.084e-11 -9.11299e-09 0)
(1.08418e-11 -9.11298e-09 0)
(1.08427e-11 -9.11298e-09 0)
(1.08438e-11 -9.11298e-09 0)
(1.08442e-11 -9.11299e-09 0)
(1.08449e-11 -9.11299e-09 0)
(1.08447e-11 -9.11299e-09 0)
(1.08453e-11 -9.11299e-09 0)
(1.08457e-11 -9.11299e-09 0)
(1.08457e-11 -9.11299e-09 0)
(-3.11584e-11 -1.61064e-10 0)
(1.89848e-11 -1.12361e-08 0)
(7.75313e-12 -8.60933e-09 0)
(1.14776e-11 -9.23244e-09 0)
(1.06273e-11 -9.08464e-09 0)
(1.08715e-11 -9.1197e-09 0)
(1.08107e-11 -9.11138e-09 0)
(1.08324e-11 -9.11336e-09 0)
(1.0832e-11 -9.11289e-09 0)
(1.08364e-11 -9.113e-09 0)
(1.08387e-11 -9.11298e-09 0)
(1.08407e-11 -9.11298e-09 0)
(1.08422e-11 -9.11298e-09 0)
(1.08431e-11 -9.11299e-09 0)
(1.0844e-11 -9.11299e-09 0)
(1.08449e-11 -9.11299e-09 0)
(1.08451e-11 -9.11299e-09 0)
(1.08451e-11 -9.11299e-09 0)
(1.08455e-11 -9.11299e-09 0)
(1.08455e-11 -9.11299e-09 0)
(4.57281e-11 -1.80437e-08 0)
(4.05853e-12 -6.99476e-09 0)
(1.32954e-11 -9.61546e-09 0)
(1.02607e-11 -8.9938e-09 0)
(1.09605e-11 -9.14125e-09 0)
(1.07758e-11 -9.10628e-09 0)
(1.08342e-11 -9.11457e-09 0)
(1.08258e-11 -9.1126e-09 0)
(1.08331e-11 -9.11307e-09 0)
(1.08356e-11 -9.11296e-09 0)
(1.08382e-11 -9.11299e-09 0)
(1.08398e-11 -9.11298e-09 0)
(1.08415e-11 -9.11299e-09 0)
(1.08429e-11 -9.11299e-09 0)
(1.08438e-11 -9.11299e-09 0)
(1.08447e-11 -9.11299e-09 0)
(1.08451e-11 -9.11299e-09 0)
(1.08457e-11 -9.11299e-09 0)
(1.08455e-11 -9.11299e-09 0)
(1.08455e-11 -9.11299e-09 0)
(-1.96347e-11 -2.0199e-10 0)
(1.67117e-11 -1.12266e-08 0)
(8.65041e-12 -8.61159e-09 0)
(1.1281e-11 -9.23192e-09 0)
(1.06855e-11 -9.08478e-09 0)
(1.08553e-11 -9.11968e-09 0)
(1.08147e-11 -9.1114e-09 0)
(1.08311e-11 -9.11336e-09 0)
(1.08316e-11 -9.1129e-09 0)
(1.08356e-11 -9.11301e-09 0)
(1.0838e-11 -9.11298e-09 0)
(1.08402e-11 -9.11299e-09 0)
(1.08418e-11 -9.11299e-09 0)
(1.08429e-11 -9.11299e-09 0)
(1.08438e-11 -9.11299e-09 0)
(1.08442e-11 -9.11299e-09 0)
(1.08444e-11 -9.11299e-09 0)
(1.08447e-11 -9.11299e-09 0)
(1.08451e-11 -9.11299e-09 0)
(1.08458e-11 -9.11299e-09 0)
(3.62174e-11 -1.80062e-08 0)
(5.91838e-12 -7.00349e-09 0)
(1.25707e-11 -9.61341e-09 0)
(1.04214e-11 -8.99429e-09 0)
(1.09158e-11 -9.14115e-09 0)
(1.07896e-11 -9.10631e-09 0)
(1.08313e-11 -9.11458e-09 0)
(1.08269e-11 -9.11262e-09 0)
(1.0834e-11 -9.11308e-09 0)
(1.08362e-11 -9.11297e-09 0)
(1.08387e-11 -9.11299e-09 0)
(1.08407e-11 -9.11299e-09 0)
(1.08418e-11 -9.11299e-09 0)
(1.08435e-11 -9.11299e-09 0)
(1.08442e-11 -9.11299e-09 0)
(1.08447e-11 -9.11299e-09 0)
(1.08453e-11 -9.11299e-09 0)
(1.08453e-11 -9.11299e-09 0)
(1.08455e-11 -9.11299e-09 0)
(1.08455e-11 -9.11299e-09 0)
(-1.21803e-11 -2.35986e-10 0)
(1.52711e-11 -1.12187e-08 0)
(9.20486e-12 -8.61347e-09 0)
(1.11584e-11 -9.2315e-09 0)
(1.07199e-11 -9.08489e-09 0)
(1.08467e-11 -9.11967e-09 0)
(1.08191e-11 -9.11142e-09 0)
(1.0832e-11 -9.11337e-09 0)
(1.08333e-11 -9.1129e-09 0)
(1.08371e-11 -9.11301e-09 0)
(1.08393e-11 -9.11299e-09 0)
(1.08409e-11 -9.11299e-09 0)
(1.08422e-11 -9.11299e-09 0)
(1.08431e-11 -9.11299e-09 0)
(1.0844e-11 -9.11299e-09 0)
(1.08444e-11 -9.11299e-09 0)
(1.08447e-11 -9.11299e-09 0)
(1.08453e-11 -9.11299e-09 0)
(1.08455e-11 -9.11299e-09 0)
(1.08453e-11 -9.11299e-09 0)
(3.04095e-11 -1.79748e-08 0)
(7.02594e-12 -7.0108e-09 0)
(1.21406e-11 -9.6117e-09 0)
(1.05145e-11 -8.99471e-09 0)
(1.08912e-11 -9.14107e-09 0)
(1.07996e-11 -9.10635e-09 0)
(1.08329e-11 -9.11458e-09 0)
(1.08311e-11 -9.11262e-09 0)
(1.08362e-11 -9.11309e-09 0)
(1.08384e-11 -9.11297e-09 0)
(1.08409e-11 -9.113e-09 0)
(1.0842e-11 -9.11299e-09 0)
(1.08431e-11 -9.11299e-09 0)
(1.08438e-11 -9.11299e-09 0)
(1.08444e-11 -9.11299e-09 0)
(1.08447e-11 -9.11299e-09 0)
(1.08453e-11 -9.11299e-09 0)
(1.08453e-11 -9.11299e-09 0)
(1.08457e-11 -9.11299e-09 0)
(1.08457e-11 -9.11299e-09 0)
(-8.01181e-12 -2.64719e-10 0)
(1.4472e-11 -1.1212e-08 0)
(9.49463e-12 -8.61507e-09 0)
(1.10902e-11 -9.23114e-09 0)
(1.0739e-11 -9.08499e-09 0)
(1.0846e-11 -9.11966e-09 0)
(1.08253e-11 -9.11143e-09 0)
(1.08364e-11 -9.11338e-09 0)
(1.08382e-11 -9.11291e-09 0)
(1.08407e-11 -9.11302e-09 0)
(1.08415e-11 -9.11299e-09 0)
(1.08427e-11 -9.11299e-09 0)
(1.08438e-11 -9.11299e-09 0)
(1.08447e-11 -9.11299e-09 0)
(1.08451e-11 -9.11299e-09 0)
(1.08455e-11 -9.11299e-09 0)
(1.08455e-11 -9.11299e-09 0)
(1.08458e-11 -9.11299e-09 0)
(1.08457e-11 -9.11299e-09 0)
(1.08455e-11 -9.11299e-09 0)
(2.66852e-11 -1.79476e-08 0)
(7.72271e-12 -7.0172e-09 0)
(1.18576e-11 -9.61022e-09 0)
(1.05729e-11 -8.99509e-09 0)
(1.08785e-11 -9.14101e-09 0)
(1.0812e-11 -9.10638e-09 0)
(1.08396e-11 -9.11459e-09 0)
(1.08387e-11 -9.11263e-09 0)
(1.08418e-11 -9.11309e-09 0)
(1.08431e-11 -9.11298e-09 0)
(1.0844e-11 -9.113e-09 0)
(1.08444e-11 -9.11299e-09 0)
(1.08447e-11 -9.11299e-09 0)
(1.08444e-11 -9.11299e-09 0)
(1.08449e-11 -9.11299e-09 0)
(1.08451e-11 -9.11299e-09 0)
(1.08455e-11 -9.11299e-09 0)
(1.08455e-11 -9.11299e-09 0)
(1.08455e-11 -9.11299e-09 0)
(1.08455e-11 -9.11299e-09 0)
(-5.7212e-12 -2.89987e-10 0)
(1.40096e-11 -1.12061e-08 0)
(9.64451e-12 -8.61655e-09 0)
(1.10589e-11 -9.23084e-09 0)
(1.07598e-11 -9.08511e-09 0)
(1.08584e-11 -9.11966e-09 0)
(1.08396e-11 -9.11145e-09 0)
(1.08477e-11 -9.11338e-09 0)
(1.08465e-11 -9.11291e-09 0)
(1.08468e-11 -9.11302e-09 0)
(1.08465e-11 -9.11299e-09 0)
(1.08462e-11 -9.11299e-09 0)
(1.08463e-11 -9.11299e-09 0)
(1.0846e-11 -9.11299e-09 0)
(1.08458e-11 -9.11299e-09 0)
(1.08461e-11 -9.11299e-09 0)
(1.08455e-11 -9.11299e-09 0)
(1.08455e-11 -9.11299e-09 0)
(1.08455e-11 -9.11299e-09 0)
(1.08455e-11 -9.11299e-09 0)
(2.26056e-11 -1.79228e-08 0)
(8.51585e-12 -7.02307e-09 0)
(1.15373e-11 -9.60899e-09 0)
(1.06646e-11 -8.99546e-09 0)
(1.08835e-11 -9.14097e-09 0)
(1.08462e-11 -9.10641e-09 0)
(1.08582e-11 -9.11459e-09 0)
(1.08543e-11 -9.11264e-09 0)
(1.08524e-11 -9.11309e-09 0)
(1.08505e-11 -9.11298e-09 0)
(1.08489e-11 -9.113e-09 0)
(1.08479e-11 -9.11299e-09 0)
(1.0847e-11 -9.11299e-09 0)
(1.08469e-11 -9.11299e-09 0)
(1.08464e-11 -9.11299e-09 0)
(1.0846e-11 -9.11299e-09 0)
(1.08459e-11 -9.11299e-09 0)
(1.08455e-11 -9.11299e-09 0)
(1.08455e-11 -9.11299e-09 0)
(1.08457e-11 -9.11299e-09 0)
(-5.36526e-12 -3.12219e-10 0)
(1.37661e-11 -1.12011e-08 0)
(9.66272e-12 -8.61825e-09 0)
(1.11654e-11 -9.2305e-09 0)
(1.08082e-11 -9.08525e-09 0)
(1.09091e-11 -9.11962e-09 0)
(1.08634e-11 -9.11145e-09 0)
(1.08653e-11 -9.11337e-09 0)
(1.08564e-11 -9.11291e-09 0)
(1.08538e-11 -9.11302e-09 0)
(1.08507e-11 -9.11299e-09 0)
(1.08493e-11 -9.11299e-09 0)
(1.08477e-11 -9.11299e-09 0)
(1.08468e-11 -9.11299e-09 0)
(1.08462e-11 -9.11299e-09 0)
(1.08459e-11 -9.11299e-09 0)
(1.08457e-11 -9.11299e-09 0)
(1.08455e-11 -9.11299e-09 0)
(1.08455e-11 -9.11299e-09 0)
(1.08457e-11 -9.11299e-09 0)
(5.2951e-12 -1.79021e-08 0)
(1.8107e-11 -7.02861e-09 0)
(7.84128e-12 -9.60798e-09 0)
(1.23663e-11 -8.99563e-09 0)
(1.04925e-11 -9.1409e-09 0)
(1.10603e-11 -9.10638e-09 0)
(1.08344e-11 -9.11457e-09 0)
(1.08846e-11 -9.11262e-09 0)
(1.08568e-11 -9.11308e-09 0)
(1.08572e-11 -9.11297e-09 0)
(1.0852e-11 -9.113e-09 0)
(1.08502e-11 -9.11299e-09 0)
(1.08485e-11 -9.11299e-09 0)
(1.08477e-11 -9.11299e-09 0)
(1.0847e-11 -9.11299e-09 0)
(1.08464e-11 -9.11299e-09 0)
(1.0846e-11 -9.11299e-09 0)
(1.08458e-11 -9.11299e-09 0)
(1.08455e-11 -9.11299e-09 0)
(1.08455e-11 -9.11299e-09 0)
)
;

boundaryField
{
    movingWall
    {
        type            calculated;
        value           uniform (1.08455e-11 -9.11299e-09 0);
    }
    fixedWalls
    {
        type            calculated;
        value           uniform (1.08455e-11 -9.11299e-09 0);
    }
    frontAndBack
    {
        type            empty;
    }
}


// ************************************************************************* //
