/*--------------------------------*- C++ -*----------------------------------*\
| =========                 |                                                 |
| \\      /  F ield         | OpenFOAM: The Open Source CFD Toolbox           |
|  \\    /   O peration     | Version:  2312                                  |
|   \\  /    A nd           | Website:  www.openfoam.com                      |
|    \\/     M anipulation  |                                                 |
\*---------------------------------------------------------------------------*/
FoamFile
{
    version     2.0;
    format      ascii;
    arch        "LSB;label=32;scalar=64";
    class       volScalarField;
    location    "4.625";
    object      divU;
}
// * * * * * * * * * * * * * * * * * * * * * * * * * * * * * * * * * * * * * //

dimensions      [0 0 -1 0 0 0 0];

internalField   nonuniform List<scalar> 
400
(
-3.57353e-10
1.05023e-09
-6.06158e-10
3.16132e-10
-1.25712e-10
3.87486e-11
-1.45534e-11
3.85429e-12
-1.44764e-12
3.15089e-13
-1.89952e-13
1.94663e-14
-2.3555e-14
-7.60476e-15
8.31076e-15
-9.0558e-15
1.57099e-14
-4.32323e-14
-6.18854e-15
0
-2.62919e-12
-1.48099e-09
2.80454e-10
-9.07692e-11
2.52619e-11
-3.08984e-12
1.32739e-12
-1.39461e-13
1.78148e-14
-6.43161e-14
-2.06498e-14
1.21475e-15
-2.15471e-14
-1.44162e-14
-7.32606e-15
-2.22577e-14
-1.39478e-14
2.22136e-14
2.53434e-14
0
-7.54307e-10
3.80642e-09
-7.73338e-10
3.27253e-10
-6.93057e-11
2.38832e-11
-6.03448e-12
2.02248e-12
-5.08153e-13
1.34376e-13
-3.93448e-14
2.76311e-14
-1.3348e-14
3.15314e-14
-3.3831e-15
-1.13486e-14
4.1639e-14
-2.00845e-14
-2.90041e-14
0
3.23282e-10
-4.36564e-09
7.84825e-10
-3.60521e-10
7.18284e-11
-2.16567e-11
6.62913e-12
-1.38464e-12
5.55951e-13
-6.16081e-14
5.98577e-14
-5.75437e-15
3.37509e-14
3.16994e-16
-3.54124e-14
-4.1207e-15
-2.60802e-14
1.17219e-14
1.12911e-14
2.71051e-14
-9.14253e-11
4.70846e-09
-8.69757e-10
3.87495e-10
-8.21976e-11
2.4165e-11
-7.33223e-12
1.8483e-12
-5.10064e-13
1.9155e-13
2.50464e-14
2.66821e-15
-2.17432e-14
-1.43619e-14
4.89004e-15
2.76122e-14
-2.30279e-14
-1.88184e-14
1.78382e-14
0
-3.78034e-10
-4.31365e-09
7.78656e-10
-3.53312e-10
7.39482e-11
-2.18205e-11
6.55131e-12
-1.62663e-12
5.33289e-13
-1.27295e-13
4.03782e-14
-2.58676e-14
5.0637e-14
-1.46248e-14
1.74175e-14
-2.61137e-15
-3.55693e-14
6.46793e-14
4.31535e-15
-2.71051e-14
6.39435e-10
3.92894e-09
-7.1166e-10
3.19876e-10
-6.79864e-11
1.97664e-11
-6.04169e-12
1.39943e-12
-3.85245e-13
1.05601e-13
4.21715e-16
4.24344e-14
6.09261e-14
4.58001e-14
-4.77168e-14
-7.63743e-14
1.91118e-14
2.12713e-15
3.52482e-14
0
-9.67217e-10
-3.3009e-09
5.84136e-10
-2.66632e-10
5.60712e-11
-1.6304e-11
4.93176e-12
-1.23151e-12
3.77534e-13
-1.20743e-13
5.07858e-14
-4.57803e-14
4.54366e-14
-1.91862e-14
1.94899e-14
-6.01385e-14
4.64436e-14
4.02467e-14
1.17085e-14
-5.42101e-14
1.10927e-09
2.83526e-09
-5.01657e-10
2.27251e-10
-4.81431e-11
1.38151e-11
-4.2519e-12
1.02472e-12
-3.19321e-13
8.37312e-14
-8.06643e-15
6.23897e-14
-3.92029e-14
-2.31703e-14
3.26615e-14
-3.85868e-14
-2.51595e-14
6.14109e-15
5.39605e-14
0
-1.2831e-09
-2.28992e-09
3.93649e-10
-1.81729e-10
3.79473e-11
-1.08229e-11
3.27189e-12
-7.7407e-13
2.46501e-13
-7.31428e-14
-2.61852e-14
-2.23061e-14
1.90292e-14
3.33694e-14
-2.56415e-15
-3.05305e-15
1.30262e-14
3.20085e-14
-1.46826e-14
0
1.29524e-09
1.95568e-09
-3.37879e-10
1.54261e-10
-3.25349e-11
9.20949e-12
-2.84848e-12
6.90064e-13
-2.15014e-13
1.92431e-14
4.68969e-14
7.72616e-14
-5.62012e-14
4.2409e-14
-1.37729e-14
-7.35729e-14
2.61314e-14
4.55721e-15
5.70164e-14
2.71051e-14
-1.35506e-09
-1.57612e-09
2.63071e-10
-1.23115e-10
2.54362e-11
-7.20576e-12
2.16017e-12
-4.74836e-13
1.76124e-13
-7.34268e-14
-3.4496e-14
1.95287e-14
-3.0526e-16
1.11562e-14
1.42597e-14
3.92555e-16
2.19227e-14
1.64901e-14
-3.28471e-14
0
1.28061e-09
1.40733e-09
-2.39867e-10
1.09765e-10
-2.30665e-11
6.48103e-12
-2.00144e-12
4.5434e-13
-1.03118e-13
2.71768e-14
-1.32491e-14
-4.39657e-14
-6.14335e-17
1.30435e-14
-2.72713e-15
-1.20895e-14
-2.41569e-14
7.40045e-14
-8.03262e-14
5.42101e-14
-1.29893e-09
-1.15595e-09
1.88135e-10
-8.93262e-11
1.80495e-11
-5.0938e-12
1.57893e-12
-3.62519e-13
5.10903e-14
9.05567e-15
4.95859e-14
-9.29745e-14
4.58461e-14
-6.8304e-15
2.31566e-14
3.08175e-14
-3.21413e-14
-2.44768e-16
1.92552e-14
-2.71051e-14
1.19436e-09
1.11077e-09
-1.89867e-10
8.62877e-11
-1.8256e-11
5.11878e-12
-1.6281e-12
3.86665e-13
-8.29253e-14
3.16866e-14
-5.40256e-14
6.03256e-14
4.36542e-15
2.47972e-14
9.71255e-15
4.27762e-15
-1.0045e-14
2.0866e-15
-3.39813e-14
0
-1.25507e-09
-8.87548e-10
1.37649e-10
-6.78125e-11
1.28599e-11
-3.70649e-12
1.12924e-12
-1.9398e-13
8.84011e-14
3.40775e-14
1.63009e-14
-1.54693e-16
-2.02788e-14
-4.54764e-14
5.32073e-14
-1.55195e-14
2.86027e-14
3.96911e-15
-5.35334e-15
0
1.13511e-09
9.49143e-10
-1.72239e-10
7.38037e-11
-1.68066e-11
4.91821e-12
-1.35816e-12
5.05554e-13
-4.86273e-14
4.87967e-14
1.68731e-14
5.91427e-15
2.00489e-14
-1.24799e-14
3.5814e-14
5.72366e-17
-2.90461e-14
6.26583e-15
-6.95367e-15
0
-1.28025e-09
-6.07147e-10
4.42945e-11
-3.18548e-11
3.78044e-12
1.12018e-12
2.0454e-13
3.07571e-13
-1.0145e-14
3.07449e-14
-3.12445e-14
-6.15463e-15
6.41843e-17
2.70503e-14
5.88961e-15
-6.13251e-16
4.15934e-15
-2.78837e-14
2.22896e-14
-2.71051e-14
7.45877e-10
9.49299e-10
-1.58987e-10
9.80924e-11
-1.82861e-11
8.38113e-12
-2.41813e-12
7.58828e-13
-2.77603e-13
7.7935e-14
-9.92487e-15
-7.66122e-15
-6.15655e-14
-1.68617e-15
-1.44325e-14
2.26691e-14
-2.24105e-14
2.07477e-14
3.54514e-14
-2.71051e-14
-9.9527e-10
6.24934e-10
-5.4904e-10
2.80375e-10
-1.13299e-10
3.68629e-11
-1.31188e-11
3.7676e-12
-1.35525e-12
2.98156e-13
-1.6263e-13
2.71051e-14
-2.71051e-14
0
0
0
-2.71051e-14
0
0
0
)
;

boundaryField
{
    movingWall
    {
        type            extrapolatedCalculated;
        value           nonuniform List<scalar> 
20
(
-9.9527e-10
6.24934e-10
-5.4904e-10
2.80375e-10
-1.13299e-10
3.68629e-11
-1.31188e-11
3.7676e-12
-1.35525e-12
2.98156e-13
-1.6263e-13
2.71051e-14
-2.71051e-14
0
0
0
-2.71051e-14
0
0
0
)
;
    }
    fixedWalls
    {
        type            extrapolatedCalculated;
        value           nonuniform List<scalar> 
60
(
-3.57353e-10
-2.62919e-12
-7.54307e-10
3.23282e-10
-9.14253e-11
-3.78034e-10
6.39435e-10
-9.67217e-10
1.10927e-09
-1.2831e-09
1.29524e-09
-1.35506e-09
1.28061e-09
-1.29893e-09
1.19436e-09
-1.25507e-09
1.13511e-09
-1.28025e-09
7.45877e-10
-9.9527e-10
0
0
0
2.71051e-14
0
-2.71051e-14
0
-5.42101e-14
0
0
2.71051e-14
0
5.42101e-14
-2.71051e-14
0
0
0
-2.71051e-14
-2.71051e-14
0
-3.57353e-10
1.05023e-09
-6.06158e-10
3.16132e-10
-1.25712e-10
3.87486e-11
-1.45534e-11
3.85429e-12
-1.44764e-12
3.15089e-13
-1.89952e-13
1.94663e-14
-2.3555e-14
-7.60476e-15
8.31076e-15
-9.0558e-15
1.57099e-14
-4.32323e-14
-6.18854e-15
0
)
;
    }
    frontAndBack
    {
        type            empty;
    }
}


// ************************************************************************* //
