/*--------------------------------*- C++ -*----------------------------------*\
| =========                 |                                                 |
| \\      /  F ield         | OpenFOAM: The Open Source CFD Toolbox           |
|  \\    /   O peration     | Version:  2312                                  |
|   \\  /    A nd           | Website:  www.openfoam.com                      |
|    \\/     M anipulation  |                                                 |
\*---------------------------------------------------------------------------*/
FoamFile
{
    version     2.0;
    format      ascii;
    arch        "LSB;label=32;scalar=64";
    class       volScalarField;
    location    "4.625";
    object      enstrophyField;
}
// * * * * * * * * * * * * * * * * * * * * * * * * * * * * * * * * * * * * * //

dimensions      [0 0 -2 0 0 0 0];

internalField   nonuniform List<scalar> 
400
(
2.40907e-13
3.70075e-13
2.08732e-14
1.18429e-15
6.6408e-17
3.84155e-18
2.06529e-19
1.35042e-20
5.04815e-22
8.06181e-23
1.04641e-25
2.64049e-24
6.39503e-25
3.61128e-25
1.37305e-25
4.75836e-26
2.42245e-26
3.19951e-27
1.57598e-28
5.37643e-28
2.38402e-13
3.69716e-13
2.0869e-14
1.17787e-15
6.64841e-17
3.75215e-18
2.1183e-19
1.1942e-20
6.77292e-22
3.80567e-23
2.1796e-24
8.17894e-26
1.02205e-26
8.12196e-29
2.71799e-27
4.11187e-27
3.62235e-27
5.46376e-27
4.6343e-27
2.11531e-29
2.37755e-13
3.67826e-13
2.072e-14
1.1671e-15
6.57373e-17
3.7033e-18
2.08489e-19
1.17597e-20
6.612e-22
3.76837e-23
1.82301e-24
1.77061e-25
4.00508e-27
2.354e-26
7.66915e-27
5.58332e-27
3.80657e-27
8.09305e-27
7.32947e-28
3.32849e-31
2.38908e-13
3.66848e-13
2.06562e-14
1.16299e-15
6.54803e-17
3.68667e-18
2.07623e-19
1.16804e-20
6.59878e-22
3.6585e-23
2.37365e-24
7.11146e-26
1.57799e-26
2.53553e-27
3.33438e-27
4.34788e-27
3.53749e-27
1.34363e-27
2.17069e-27
1.03788e-26
2.38416e-13
3.64936e-13
2.05425e-14
1.15626e-15
6.50789e-17
3.66363e-18
2.0607e-19
1.16434e-20
6.46955e-22
3.78247e-23
1.98152e-24
1.45134e-25
2.83518e-27
3.14164e-27
3.64705e-27
3.79774e-27
6.32605e-28
2.69527e-27
7.23125e-27
7.99729e-27
2.37748e-13
3.63057e-13
2.04335e-14
1.14991e-15
6.47162e-17
3.64129e-18
2.05068e-19
1.15183e-20
6.55881e-22
3.54451e-23
2.20144e-24
9.58192e-26
3.9781e-26
1.36373e-26
1.03207e-26
2.91017e-27
2.11711e-27
2.84627e-27
6.68704e-27
4.74627e-27
2.36555e-13
3.60941e-13
2.03126e-14
1.14302e-15
6.43193e-17
3.61949e-18
2.03665e-19
1.1465e-20
6.42516e-22
3.75723e-23
1.75682e-24
2.43991e-25
2.47746e-28
6.27367e-27
3.89502e-27
1.38496e-26
1.64588e-27
8.27051e-27
4.47871e-27
1.766e-27
2.35358e-13
3.59006e-13
2.02031e-14
1.13682e-15
6.39697e-17
3.59934e-18
2.0257e-19
1.13736e-20
6.46149e-22
3.5084e-23
2.32089e-24
6.2123e-26
1.64755e-26
2.81629e-28
6.6388e-27
7.09314e-27
2.3434e-26
7.97612e-27
3.35383e-27
4.95574e-27
2.34051e-13
3.57087e-13
2.00949e-14
1.13074e-15
6.36241e-17
3.5808e-18
2.01314e-19
1.13614e-20
6.33525e-22
3.69367e-23
1.81295e-24
1.21702e-25
1.03458e-27
3.48853e-27
1.87573e-27
1.15666e-26
1.96259e-26
4.81851e-27
1.4541e-27
5.58152e-28
2.32838e-13
3.55371e-13
1.99987e-14
1.12532e-15
6.3324e-17
3.56307e-18
2.00556e-19
1.1264e-20
6.36148e-22
3.52063e-23
2.23715e-24
7.25456e-26
2.86725e-26
3.92075e-27
6.82085e-27
1.00048e-28
3.38206e-28
7.82186e-28
3.32313e-31
3.36185e-27
2.31668e-13
3.53763e-13
1.99085e-14
1.12028e-15
6.30399e-17
3.54748e-18
1.99625e-19
1.1238e-20
6.27342e-22
3.68304e-23
1.89979e-24
1.84069e-25
1.31063e-27
2.08267e-26
5.97982e-27
1.33021e-27
4.93686e-27
7.01321e-29
6.64349e-28
6.20116e-28
2.30598e-13
3.52314e-13
1.98274e-14
1.11574e-15
6.27861e-17
3.53329e-18
1.98895e-19
1.11899e-20
6.30946e-22
3.5371e-23
2.10918e-24
1.00996e-25
1.40057e-26
4.40436e-28
2.19238e-29
9.69833e-28
4.37616e-27
6.78422e-27
2.12693e-27
2.22735e-28
2.29643e-13
3.51004e-13
1.97541e-14
1.11165e-15
6.25559e-17
3.52053e-18
1.98098e-19
1.11543e-20
6.29801e-22
3.53187e-23
1.91509e-24
1.23286e-25
1.27882e-27
7.18864e-29
2.63653e-28
3.0257e-28
7.57925e-31
1.92107e-28
6.58835e-28
1.1946e-28
2.28742e-13
3.49772e-13
1.96851e-14
1.10778e-15
6.2341e-17
3.50818e-18
1.97422e-19
1.1118e-20
6.27647e-22
3.53906e-23
1.79116e-24
1.16472e-25
5.20039e-27
1.07402e-28
2.20314e-28
2.67432e-27
2.77475e-28
6.68607e-28
4.94355e-28
9.15664e-30
2.28012e-13
3.487e-13
1.96251e-14
1.10441e-15
6.21531e-17
3.49761e-18
1.96886e-19
1.1071e-20
6.27367e-22
3.47223e-23
2.01505e-24
8.20401e-26
1.29642e-26
1.06615e-27
9.80761e-30
1.59071e-28
5.98923e-28
2.21066e-29
2.43669e-27
1.08792e-27
2.27213e-13
3.47598e-13
1.95632e-14
1.10093e-15
6.1957e-17
3.48661e-18
1.96251e-19
1.10429e-20
6.19802e-22
3.56468e-23
2.06671e-24
9.52024e-26
1.01306e-26
4.48362e-27
3.48377e-27
5.50095e-29
1.77155e-27
3.02911e-27
4.26934e-28
2.36388e-28
2.26734e-13
3.46724e-13
1.9514e-14
1.09817e-15
6.17996e-17
3.47801e-18
1.95718e-19
1.10163e-20
6.18289e-22
3.51133e-23
1.9977e-24
1.11833e-25
7.70349e-27
1.22829e-26
1.43192e-27
8.43628e-29
8.5201e-28
1.29234e-27
7.12667e-28
2.22318e-28
2.25812e-13
3.45621e-13
1.9452e-14
1.09468e-15
6.16016e-17
3.46729e-18
1.95053e-19
1.09894e-20
6.17195e-22
3.47546e-23
1.86885e-24
1.1334e-25
5.81366e-28
4.15731e-27
7.58432e-28
9.65924e-27
1.83149e-28
3.24178e-28
4.13836e-28
1.57153e-29
2.26464e-13
3.45748e-13
1.94887e-14
1.0984e-15
6.19078e-17
3.48909e-18
1.96648e-19
1.10898e-20
6.22718e-22
3.53853e-23
1.90247e-24
1.24506e-25
4.45651e-27
2.65906e-28
1.08114e-28
5.21676e-28
6.09208e-28
2.68836e-29
2.44761e-28
8.6616e-28
2.26228e-13
3.44807e-13
1.94283e-14
1.09941e-15
6.17676e-17
3.54015e-18
1.94026e-19
1.19871e-20
5.35267e-22
5.59423e-23
2.50683e-25
9.74474e-25
1.02907e-25
7.08526e-26
2.56491e-26
1.27757e-26
2.56278e-27
7.25404e-28
7.31653e-29
6.06621e-30
)
;

boundaryField
{
    movingWall
    {
        type            calculated;
        value           nonuniform List<scalar> 
20
(
2.26258e-13
3.46375e-13
1.95829e-14
1.11939e-15
6.29086e-17
3.69637e-18
1.97228e-19
1.35443e-20
4.63794e-22
8.75789e-23
2.46492e-25
2.93054e-24
6.47194e-25
4.00465e-25
1.72265e-25
7.20459e-26
1.90161e-26
4.98024e-27
7.31653e-29
6.06621e-30
)
;
    }
    fixedWalls
    {
        type            calculated;
        value           nonuniform List<scalar> 
60
(
6.64068e-12
6.63016e-12
6.60674e-12
6.58984e-12
6.55603e-12
6.52261e-12
6.48477e-12
6.45008e-12
6.41563e-12
6.38479e-12
6.35586e-12
6.32976e-12
6.30616e-12
6.28397e-12
6.26467e-12
6.24483e-12
6.22907e-12
6.20921e-12
6.20238e-12
6.18752e-12
2.97829e-28
4.27272e-30
1.02552e-28
9.6824e-27
6.25077e-27
3.9621e-27
1.82262e-27
5.9753e-27
1.27295e-27
3.77739e-27
5.81297e-28
1.27745e-28
3.3762e-28
9.78592e-30
5.80409e-28
2.47453e-28
1.85074e-28
7.48902e-29
4.09429e-28
1.03442e-29
2.44511e-13
3.72703e-13
2.11024e-14
1.21148e-15
6.76982e-17
4.05367e-18
2.07492e-19
1.5903e-20
3.69849e-22
1.49623e-22
5.14037e-24
9.06977e-24
3.00692e-24
1.50346e-24
5.59203e-25
2.1725e-25
7.43619e-26
1.26422e-26
2.52505e-27
1.25477e-27
)
;
    }
    frontAndBack
    {
        type            empty;
    }
}


// ************************************************************************* //
