/*--------------------------------*- C++ -*----------------------------------*\
| =========                 |                                                 |
| \\      /  F ield         | OpenFOAM: The Open Source CFD Toolbox           |
|  \\    /   O peration     | Version:  2312                                  |
|   \\  /    A nd           | Website:  www.openfoam.com                      |
|    \\/     M anipulation  |                                                 |
\*---------------------------------------------------------------------------*/
FoamFile
{
    version     2.0;
    format      ascii;
    arch        "LSB;label=32;scalar=64";
    class       surfaceScalarField;
    location    "4.625";
    object      fluxField;
}
// * * * * * * * * * * * * * * * * * * * * * * * * * * * * * * * * * * * * * //

dimensions      [0 3 -1 0 0 0 0];

oriented        oriented;

internalField   nonuniform List<scalar> 
760
(
-5e-05
-3.65552e-17
-5e-05
7.25166e-17
-5e-05
2.26376e-17
-5e-05
5.88324e-18
-5e-05
6.11261e-18
-5e-05
1.454e-18
-5e-05
1.57938e-18
-5e-05
6.7897e-19
-5e-05
5.39332e-19
-5e-05
3.29494e-19
-5e-05
2.43891e-19
-5e-05
1.67497e-19
-5e-05
1.2286e-19
-5e-05
8.61902e-20
-5e-05
6.30641e-20
-5e-05
4.51699e-20
-5e-05
3.10325e-20
-5e-05
1.6297e-20
-5e-05
5.22913e-21
1.34268e-21
-5e-05
-4.09656e-16
-5e-05
1.45631e-16
-5e-05
-8.19966e-18
-5e-05
1.55665e-17
-5e-05
5.06187e-18
-5e-05
3.44238e-18
-5e-05
2.16822e-18
-5e-05
1.31361e-18
-5e-05
9.12473e-19
-5e-05
6.14113e-19
-5e-05
4.42071e-19
-5e-05
3.12012e-19
-5e-05
2.25006e-19
-5e-05
1.59026e-19
-5e-05
1.13365e-19
-5e-05
8.2527e-20
-5e-05
5.74994e-20
-5e-05
3.26585e-20
-5e-05
1.31121e-20
5.79459e-21
-5e-05
4.7924e-16
-5e-05
-1.4293e-16
-5e-05
4.65451e-17
-5e-05
-4.06224e-18
-5e-05
8.0168e-18
-5e-05
2.58944e-18
-5e-05
2.56391e-18
-5e-05
1.52884e-18
-5e-05
1.13335e-18
-5e-05
7.85759e-19
-5e-05
5.72922e-19
-5e-05
4.13484e-19
-5e-05
3.01595e-19
-5e-05
2.17947e-19
-5e-05
1.55008e-19
-5e-05
1.12359e-19
-5e-05
7.81724e-20
-5e-05
4.9189e-20
-5e-05
2.66303e-20
9.59243e-21
-5e-05
-6.58672e-16
-5e-05
1.77054e-16
-5e-05
-3.8544e-17
-5e-05
1.48476e-17
-5e-05
8.80911e-19
-5e-05
3.48307e-18
-5e-05
1.96899e-18
-5e-05
1.61218e-18
-5e-05
1.14187e-18
-5e-05
8.45183e-19
-5e-05
6.24828e-19
-5e-05
4.66124e-19
-5e-05
3.47251e-19
-5e-05
2.57577e-19
-5e-05
1.87659e-19
-5e-05
1.34495e-19
-5e-05
9.51239e-20
-5e-05
6.39169e-20
-5e-05
3.67041e-20
1.06033e-20
-5e-05
6.35914e-16
-5e-05
-1.60426e-16
-5e-05
4.20037e-17
-5e-05
-7.04699e-18
-5e-05
5.05133e-18
-5e-05
1.59602e-18
-5e-05
1.94132e-18
-5e-05
1.36332e-18
-5e-05
1.08544e-18
-5e-05
8.13605e-19
-5e-05
6.22902e-19
-5e-05
4.75006e-19
-5e-05
3.60482e-19
-5e-05
2.6746e-19
-5e-05
1.97734e-19
-5e-05
1.42428e-19
-5e-05
1.02663e-19
-5e-05
6.98343e-20
-5e-05
3.83409e-20
1.08577e-20
-5e-05
-6.74892e-16
-5e-05
1.65568e-16
-5e-05
-3.78567e-17
-5e-05
1.13846e-17
-5e-05
-4.45818e-19
-5e-05
2.22915e-18
-5e-05
1.29901e-18
-5e-05
1.21287e-18
-5e-05
9.39698e-19
-5e-05
7.47447e-19
-5e-05
5.79301e-19
-5e-05
4.47543e-19
-5e-05
3.44696e-19
-5e-05
2.60618e-19
-5e-05
1.9409e-19
-5e-05
1.41649e-19
-5e-05
9.95279e-20
-5e-05
6.36037e-20
-5e-05
3.49602e-20
1.10312e-20
-5e-05
6.10081e-16
-5e-05
-1.45248e-16
-5e-05
3.58896e-17
-5e-05
-7.02459e-18
-5e-05
3.2983e-18
-5e-05
7.60633e-19
-5e-05
1.21363e-18
-5e-05
9.12286e-19
-5e-05
7.84603e-19
-5e-05
6.29488e-19
-5e-05
5.01549e-19
-5e-05
3.90079e-19
-5e-05
3.06611e-19
-5e-05
2.41843e-19
-5e-05
1.84582e-19
-5e-05
1.3676e-19
-5e-05
9.28694e-20
-5e-05
5.47419e-20
-5e-05
2.91408e-20
1.06059e-20
-5e-05
-5.94696e-16
-5e-05
1.40685e-16
-5e-05
-3.25951e-17
-5e-05
8.70086e-18
-5e-05
-9.57746e-19
-5e-05
1.30434e-18
-5e-05
6.90839e-19
-5e-05
7.15338e-19
-5e-05
5.82274e-19
-5e-05
4.91587e-19
-5e-05
3.98943e-19
-5e-05
3.20592e-19
-5e-05
2.55305e-19
-5e-05
2.05268e-19
-5e-05
1.60727e-19
-5e-05
1.20491e-19
-5e-05
7.93735e-20
-5e-05
4.3943e-20
-5e-05
2.32559e-20
9.98598e-21
-5e-05
5.29238e-16
-5e-05
-1.23297e-16
-5e-05
2.9674e-17
-5e-05
-6.34205e-18
-5e-05
2.16049e-18
-5e-05
1.74065e-19
-5e-05
6.03985e-19
-5e-05
4.39139e-19
-5e-05
4.08061e-19
-5e-05
3.46193e-19
-5e-05
2.89363e-19
-5e-05
2.39214e-19
-5e-05
1.93487e-19
-5e-05
1.56838e-19
-5e-05
1.23362e-19
-5e-05
9.19972e-20
-5e-05
6.14728e-20
-5e-05
3.54166e-20
-5e-05
2.02664e-20
8.58595e-21
-5e-05
-4.93922e-16
-5e-05
1.15041e-16
-5e-05
-2.69621e-17
-5e-05
6.58909e-18
-5e-05
-1.21966e-18
-5e-05
6.14654e-19
-5e-05
1.81003e-19
-5e-05
2.67268e-19
-5e-05
2.24256e-19
-5e-05
2.05331e-19
-5e-05
1.76413e-19
-5e-05
1.50278e-19
-5e-05
1.2673e-19
-5e-05
1.0321e-19
-5e-05
8.06741e-20
-5e-05
6.02231e-20
-5e-05
4.39141e-20
-5e-05
2.83309e-20
-5e-05
1.66581e-20
5.86938e-21
-5e-05
4.45241e-16
-5e-05
-1.03169e-16
-5e-05
2.433e-17
-5e-05
-5.71763e-18
-5e-05
1.29207e-18
-5e-05
-3.20042e-19
-5e-05
8.07027e-20
-5e-05
1.6662e-20
-5e-05
5.46666e-20
-5e-05
5.90209e-20
-5e-05
6.59343e-20
-5e-05
6.67492e-20
-5e-05
6.04886e-20
-5e-05
5.12598e-20
-5e-05
4.39906e-20
-5e-05
3.58169e-20
-5e-05
2.68617e-20
-5e-05
1.46918e-20
-5e-05
7.47784e-21
2.82612e-21
-5e-05
-4.04645e-16
-5e-05
9.39697e-17
-5e-05
-2.24863e-17
-5e-05
4.88467e-18
-5e-05
-1.54886e-18
-5e-05
-1.25063e-20
-5e-05
-3.13768e-19
-5e-05
-1.72919e-19
-5e-05
-1.32152e-19
-5e-05
-7.93431e-20
-5e-05
-4.25053e-20
-5e-05
-1.54466e-20
-5e-05
-6.85258e-21
-5e-05
2.78905e-21
-5e-05
1.03412e-20
-5e-05
1.36507e-20
-5e-05
1.22569e-20
-5e-05
4.12253e-21
-5e-05
-1.43551e-21
-9.29022e-22
-5e-05
3.80512e-16
-5e-05
-8.88288e-17
-5e-05
2.03659e-17
-5e-05
-5.55241e-18
-5e-05
4.74308e-19
-5e-05
-8.73408e-19
-5e-05
-4.46151e-19
-5e-05
-4.14964e-19
-5e-05
-2.9683e-19
-5e-05
-2.16822e-19
-5e-05
-1.45614e-19
-5e-05
-9.23066e-20
-5e-05
-6.10017e-20
-5e-05
-3.73967e-20
-5e-05
-2.10106e-20
-5e-05
-9.79865e-21
-5e-05
-6.03923e-21
-5e-05
-8.60393e-21
-5e-05
-6.52902e-21
-3.04165e-21
-5e-05
-3.37821e-16
-5e-05
7.89024e-17
-5e-05
-1.98209e-17
-5e-05
3.35727e-18
-5e-05
-2.13515e-18
-5e-05
-6.97466e-19
-5e-05
-8.38548e-19
-5e-05
-5.92073e-19
-5e-05
-4.61566e-19
-5e-05
-3.29773e-19
-5e-05
-2.31549e-19
-5e-05
-1.58769e-19
-5e-05
-1.03735e-19
-5e-05
-6.94702e-20
-5e-05
-4.16447e-20
-5e-05
-2.6177e-20
-5e-05
-2.15879e-20
-5e-05
-2.039e-20
-5e-05
-8.73872e-21
-1.85292e-21
-5e-05
3.41538e-16
-5e-05
-8.10636e-17
-5e-05
1.72533e-17
-5e-05
-6.18365e-18
-5e-05
-5.86328e-19
-5e-05
-1.58666e-18
-5e-05
-1.00334e-18
-5e-05
-8.11353e-19
-5e-05
-5.83161e-19
-5e-05
-4.12207e-19
-5e-05
-2.91333e-19
-5e-05
-2.08535e-19
-5e-05
-1.4121e-19
-5e-05
-9.54447e-20
-5e-05
-5.85582e-20
-5e-05
-3.95882e-20
-5e-05
-2.96163e-20
-5e-05
-1.98071e-20
-5e-05
-8.49532e-21
-1.82576e-21
-5e-05
-2.90154e-16
-5e-05
6.77373e-17
-5e-05
-1.95878e-17
-5e-05
1.34278e-18
-5e-05
-3.35799e-18
-5e-05
-1.53649e-18
-5e-05
-1.38465e-18
-5e-05
-9.22633e-19
-5e-05
-6.69079e-19
-5e-05
-4.59043e-19
-5e-05
-3.21185e-19
-5e-05
-2.23655e-19
-5e-05
-1.54148e-19
-5e-05
-1.06237e-19
-5e-05
-7.47896e-20
-5e-05
-5.13137e-20
-5e-05
-3.35069e-20
-5e-05
-1.93365e-20
-5e-05
-8.1146e-21
-2.59285e-21
-5e-05
3.28687e-16
-5e-05
-7.91184e-17
-5e-05
1.11166e-17
-5e-05
-8.09171e-18
-5e-05
-2.54823e-18
-5e-05
-2.30088e-18
-5e-05
-1.45085e-18
-5e-05
-9.71366e-19
-5e-05
-6.62678e-19
-5e-05
-4.48587e-19
-5e-05
-3.0749e-19
-5e-05
-2.08586e-19
-5e-05
-1.44066e-19
-5e-05
-9.79877e-20
-5e-05
-7.23617e-20
-5e-05
-4.74195e-20
-5e-05
-2.75903e-20
-5e-05
-1.87623e-20
-5e-05
-8.51468e-21
-2.13161e-21
-5e-05
-2.27126e-16
-5e-05
4.57886e-17
-5e-05
-3.1522e-17
-5e-05
2.96566e-19
-5e-05
-6.14964e-18
-5e-05
-1.38692e-18
-5e-05
-1.60227e-18
-5e-05
-7.49811e-19
-5e-05
-5.71742e-19
-5e-05
-3.51456e-19
-5e-05
-2.4498e-19
-5e-05
-1.64169e-19
-5e-05
-1.1518e-19
-5e-05
-7.45526e-20
-5e-05
-5.27377e-20
-5e-05
-3.40346e-20
-5e-05
-1.9289e-20
-5e-05
-1.37472e-20
-5e-05
-7.98014e-21
-1.02358e-21
-5e-05
2.91598e-16
-5e-05
-9.25844e-17
-5e-05
-6.25845e-18
-5e-05
-3.80846e-18
-5e-05
-4.32079e-18
-5e-05
-6.69433e-19
-5e-05
-1.11275e-18
-5e-05
-3.86275e-19
-5e-05
-3.47228e-19
-5e-05
-1.9058e-19
-5e-05
-1.38006e-19
-5e-05
-9.00067e-20
-5e-05
-6.28252e-20
-5e-05
-4.10791e-20
-5e-05
-3.07132e-20
-5e-05
-2.14378e-20
-5e-05
-1.23789e-20
-5e-05
-8.3656e-21
-5e-05
-4.68968e-21
1.89863e-22
-5e-05
-5e-05
-5e-05
-5e-05
-5e-05
-5e-05
-5e-05
-5e-05
-5e-05
-5e-05
-5e-05
-5e-05
-5e-05
-5e-05
-5e-05
-5e-05
-5e-05
-5e-05
-5e-05
)
;

boundaryField
{
    movingWall
    {
        type            calculated;
        value           uniform -0;
    }
    fixedWalls
    {
        type            calculated;
        value           nonuniform List<scalar> 
60
(
5e-05
5e-05
5e-05
5e-05
5e-05
5e-05
5e-05
5e-05
5e-05
5e-05
5e-05
5e-05
5e-05
5e-05
5e-05
5e-05
5e-05
5e-05
5e-05
5e-05
-5e-05
-5e-05
-5e-05
-5e-05
-5e-05
-5e-05
-5e-05
-5e-05
-5e-05
-5e-05
-5e-05
-5e-05
-5e-05
-5e-05
-5e-05
-5e-05
-5e-05
-5e-05
-5e-05
-5e-05
0
0
0
0
0
0
0
0
0
0
0
0
0
0
0
0
0
0
0
0
)
;
    }
    frontAndBack
    {
        type            empty;
        value           nonuniform List<scalar> 0();
    }
}


// ************************************************************************* //
