/*--------------------------------*- C++ -*----------------------------------*\
| =========                 |                                                 |
| \\      /  F ield         | OpenFOAM: The Open Source CFD Toolbox           |
|  \\    /   O peration     | Version:  2312                                  |
|   \\  /    A nd           | Website:  www.openfoam.com                      |
|    \\/     M anipulation  |                                                 |
\*---------------------------------------------------------------------------*/
FoamFile
{
    version     2.0;
    format      ascii;
    arch        "LSB;label=32;scalar=64";
    class       volTensorField;
    location    "4.625";
    object      gradU;
}
// * * * * * * * * * * * * * * * * * * * * * * * * * * * * * * * * * * * * * //

dimensions      [0 0 -1 0 0 0 0];

internalField   nonuniform List<tensor> 
400
(
(-2.11121e-10 6.94963e-07 0 8.34321e-10 -1.46221e-10 0 0 0 0)
(7.60161e-10 -8.59876e-07 0 4.44279e-10 2.90066e-10 0 0 0 0)
(-6.96708e-10 2.0414e-07 0 -1.78975e-10 9.05505e-11 0 0 0 0)
(2.92599e-10 -4.85167e-08 0 1.51409e-10 2.35329e-11 0 0 0 0)
(-1.50162e-10 1.15088e-08 0 -1.57751e-11 2.44504e-11 0 0 0 0)
(3.29326e-11 -2.74116e-09 0 3.06829e-11 5.81599e-12 0 0 0 0)
(-2.08709e-11 6.48767e-10 0 6.07153e-12 6.31754e-12 0 0 0 0)
(1.13841e-12 -1.5556e-10 0 8.78204e-12 2.71588e-12 0 0 0 0)
(-3.60497e-12 3.63012e-11 0 4.52654e-12 2.15733e-12 0 0 0 0)
(-1.00289e-12 -9.0387e-12 0 3.65918e-12 1.31798e-12 0 0 0 0)
(-1.16552e-12 1.90067e-12 0 2.35814e-12 9.75566e-13 0 0 0 0)
(-6.50521e-13 -6.17523e-13 0 1.68051e-12 6.69988e-13 0 0 0 0)
(-5.14996e-13 3.45856e-14 0 1.16552e-12 4.91441e-13 0 0 0 0)
(-3.52366e-13 -9.09144e-14 0 7.58942e-13 3.44761e-13 0 0 0 0)
(-2.43945e-13 -3.61422e-14 0 4.87891e-13 2.52256e-13 0 0 0 0)
(-1.89735e-13 -3.74414e-14 0 2.71051e-13 1.8068e-13 0 0 0 0)
(-1.0842e-13 -3.03759e-14 0 1.89735e-13 1.2413e-13 0 0 0 0)
(-1.0842e-13 -2.57838e-14 0 5.42101e-14 6.51879e-14 0 0 0 0)
(-2.71051e-14 -1.77538e-14 0 0 2.09165e-14 0 0 0 0)
(0 -5.68648e-15 0 2.71051e-14 5.37071e-15 0 0 0 0)
(1.48978e-09 -6.94819e-07 0 -4.30897e-09 -1.4924e-09 0 0 0 0)
(-1.77343e-09 8.60112e-07 0 2.10173e-10 2.92456e-10 0 0 0 0)
(4.03811e-10 -2.04407e-07 0 -1.08393e-10 -1.23349e-10 0 0 0 0)
(-1.29508e-10 4.84506e-08 0 -8.53809e-11 3.8733e-11 0 0 0 0)
(2.94632e-11 -1.15265e-08 0 4.66207e-12 -4.20294e-12 0 0 0 0)
(-1.10318e-11 2.72303e-09 0 -1.63715e-11 7.95352e-12 0 0 0 0)
(-1.02999e-12 -6.51867e-10 0 -9.75782e-13 2.35533e-12 0 0 0 0)
(-2.6834e-12 1.514e-10 0 -3.14419e-12 2.53856e-12 0 0 0 0)
(-1.46367e-12 -3.76991e-11 0 -8.94467e-13 1.49256e-12 0 0 0 0)
(-1.19262e-12 7.85693e-12 0 -8.67362e-13 1.13848e-12 0 0 0 0)
(-8.13152e-13 -2.54865e-12 0 -4.60786e-13 7.92718e-13 0 0 0 0)
(-5.69206e-13 1.33398e-13 0 -2.71051e-13 5.7806e-13 0 0 0 0)
(-4.33681e-13 -3.59812e-13 0 -2.1684e-13 4.08584e-13 0 0 0 0)
(-2.98156e-13 -1.4827e-13 0 -1.35525e-13 2.91344e-13 0 0 0 0)
(-2.1684e-13 -1.27939e-13 0 -5.42101e-14 2.01204e-13 0 0 0 0)
(-1.6263e-13 -9.06848e-14 0 0 1.49428e-13 0 0 0 0)
(-1.0842e-13 -8.51158e-14 0 0 1.05868e-13 0 0 0 0)
(-5.42101e-14 -7.74297e-14 0 2.71051e-14 6.54459e-14 0 0 0 0)
(0 -4.20634e-14 0 5.42101e-14 3.15319e-14 0 0 0 0)
(-2.71051e-14 -2.06007e-14 0 -2.71051e-14 1.78076e-14 0 0 0 0)
(-4.30989e-09 6.93763e-07 0 4.19058e-09 3.55558e-09 0 0 0 0)
(4.96066e-09 -8.58507e-07 0 -8.05345e-10 -1.15424e-09 0 0 0 0)
(-9.92316e-10 2.03887e-07 0 3.18376e-10 2.18979e-10 0 0 0 0)
(4.05763e-10 -4.83976e-08 0 -8.39986e-11 -7.85149e-11 0 0 0 0)
(-8.11254e-11 1.1478e-08 0 1.17907e-11 1.18197e-11 0 0 0 0)
(2.72948e-11 -2.7346e-09 0 -1.30917e-11 -3.41175e-12 0 0 0 0)
(-7.61652e-12 6.43352e-10 0 -2.38524e-12 1.58279e-12 0 0 0 0)
(1.16552e-12 -1.56423e-10 0 -3.06287e-12 8.60899e-13 0 0 0 0)
(-1.38236e-12 3.49011e-11 0 -1.46367e-12 8.83495e-13 0 0 0 0)
(-5.42101e-13 -9.73854e-12 0 -1.0571e-12 6.86583e-13 0 0 0 0)
(-5.69206e-13 1.34025e-12 0 -5.69206e-13 5.23406e-13 0 0 0 0)
(-3.79471e-13 -1.00166e-12 0 -4.06576e-13 4.05887e-13 0 0 0 0)
(-3.25261e-13 -2.5213e-13 0 -1.6263e-13 3.06355e-13 0 0 0 0)
(-2.1684e-13 -2.98294e-13 0 -8.13152e-14 2.35683e-13 0 0 0 0)
(-1.6263e-13 -1.78058e-13 0 -5.42101e-14 1.66573e-13 0 0 0 0)
(-1.35525e-13 -1.32777e-13 0 -2.71051e-14 1.19329e-13 0 0 0 0)
(-5.42101e-14 -1.14358e-13 0 -2.71051e-14 8.26919e-14 0 0 0 0)
(-8.13152e-14 -1.0012e-13 0 2.71051e-14 6.61221e-14 0 0 0 0)
(-8.13152e-14 -6.5392e-14 0 -2.71051e-14 5.40728e-14 0 0 0 0)
(0 -5.5026e-14 0 -5.42101e-14 1.51914e-14 0 0 0 0)
(4.87493e-09 -6.92418e-07 0 -1.17462e-09 -4.55165e-09 0 0 0 0)
(-5.64558e-09 8.56776e-07 0 2.1478e-10 1.27993e-09 0 0 0 0)
(1.12519e-09 -2.03331e-07 0 -7.69241e-11 -3.40356e-10 0 0 0 0)
(-4.36147e-10 4.82435e-08 0 1.51517e-11 7.56394e-11 0 0 0 0)
(1.0037e-10 -1.14514e-08 0 -7.61652e-12 -2.85436e-11 0 0 0 0)
(-2.52348e-11 2.71279e-09 0 -2.60209e-12 3.57452e-12 0 0 0 0)
(8.99888e-12 -6.47595e-10 0 -3.1984e-12 -2.3797e-12 0 0 0 0)
(-1.70762e-12 1.50701e-10 0 -2.1413e-12 3.33382e-13 0 0 0 0)
(5.14996e-13 -3.78734e-11 0 -1.54499e-12 3.41123e-14 0 0 0 0)
(-2.98156e-13 7.49684e-12 0 -1.0571e-12 2.37697e-13 0 0 0 0)
(-1.35525e-13 -2.82935e-12 0 -6.50521e-13 2.07623e-13 0 0 0 0)
(-2.1684e-13 -8.36531e-14 0 -4.60786e-13 2.1056e-13 0 0 0 0)
(-1.35525e-13 -5.30016e-13 0 -3.52366e-13 1.82624e-13 0 0 0 0)
(-1.6263e-13 -2.88052e-13 0 -2.1684e-13 1.58521e-13 0 0 0 0)
(-1.6263e-13 -2.44293e-13 0 -1.6263e-13 1.30601e-13 0 0 0 0)
(-8.13152e-14 -1.74566e-13 0 -8.13152e-14 8.85431e-14 0 0 0 0)
(-8.13152e-14 -1.38323e-13 0 -5.42101e-14 6.7806e-14 0 0 0 0)
(-5.42101e-14 -1.06049e-13 0 -5.42101e-14 5.89115e-14 0 0 0 0)
(-2.71051e-14 -9.29942e-14 0 -2.71051e-14 4.02952e-14 0 0 0 0)
(0 -8.98649e-14 0 5.42101e-14 4.0434e-15 0 0 0 0)
(-5.26976e-09 6.90491e-07 0 -3.9736e-11 5.17834e-09 0 0 0 0)
(6.05836e-09 -8.54295e-07 0 2.99782e-11 -1.34992e-09 0 0 0 0)
(-1.19194e-09 2.02682e-07 0 -1.18178e-11 3.22191e-10 0 0 0 0)
(4.7507e-10 -4.80858e-08 0 2.90024e-12 -8.75783e-11 0 0 0 0)
(-9.88792e-11 1.1406e-08 0 -2.71051e-12 1.66817e-11 0 0 0 0)
(3.17129e-11 -2.70844e-09 0 -1.54499e-12 -7.54822e-12 0 0 0 0)
(-7.20994e-12 6.40111e-10 0 -1.87025e-12 -1.10675e-13 0 0 0 0)
(2.84603e-12 -1.54009e-10 0 -1.40946e-12 -9.95449e-13 0 0 0 0)
(-2.71051e-13 3.48055e-11 0 -1.16552e-12 -2.25758e-13 0 0 0 0)
(3.25261e-13 -9.56503e-12 0 -8.67362e-13 -1.26313e-13 0 0 0 0)
(2.71051e-14 1.31311e-12 0 -6.77626e-13 -7.70633e-15 0 0 0 0)
(-2.71051e-14 -1.02666e-12 0 -4.87891e-13 3.55276e-14 0 0 0 0)
(-8.13152e-14 -3.04169e-13 0 -3.79471e-13 5.29261e-14 0 0 0 0)
(-5.42101e-14 -3.50318e-13 0 -2.71051e-13 3.95312e-14 0 0 0 0)
(-2.71051e-14 -2.48036e-13 0 -1.6263e-13 4.03025e-14 0 0 0 0)
(0 -1.95572e-13 0 -1.0842e-13 3.17329e-14 0 0 0 0)
(-5.42101e-14 -1.4399e-13 0 -1.0842e-13 3.01573e-14 0 0 0 0)
(-5.42101e-14 -1.2763e-13 0 -5.42101e-14 2.36698e-14 0 0 0 0)
(0 -1.2026e-13 0 0 6.54712e-15 0 0 0 0)
(0 -9.93646e-14 0 2.71051e-14 1.01764e-15 0 0 0 0)
(4.86517e-09 -6.88589e-07 0 9.73153e-10 -5.24322e-09 0 0 0 0)
(-5.61763e-09 8.5192e-07 0 -2.03857e-10 1.30397e-09 0 0 0 0)
(1.09811e-09 -2.02069e-07 0 8.70343e-11 -3.19442e-10 0 0 0 0)
(-4.2704e-10 4.7938e-08 0 -1.8567e-11 7.37265e-11 0 0 0 0)
(9.59248e-11 -1.13714e-08 0 5.44812e-12 -2.19886e-11 0 0 0 0)
(-2.43403e-11 2.696e-09 0 -2.62919e-12 2.53253e-12 0 0 0 0)
(9.1073e-12 -6.41042e-10 0 -6.23416e-13 -2.56923e-12 0 0 0 0)
(-1.02999e-12 1.50586e-10 0 -1.19262e-12 -6.01796e-13 0 0 0 0)
(1.11131e-12 -3.70043e-11 0 -7.86047e-13 -5.82951e-13 0 0 0 0)
(1.35525e-13 7.7149e-12 0 -7.04731e-13 -2.64635e-13 0 0 0 0)
(2.1684e-13 -2.66751e-12 0 -5.69206e-13 -1.74404e-13 0 0 0 0)
(8.13152e-14 -2.30207e-14 0 -4.60786e-13 -1.09851e-13 0 0 0 0)
(1.0842e-13 -5.26013e-13 0 -2.43945e-13 -6.3145e-14 0 0 0 0)
(0 -3.00675e-13 0 -1.35525e-13 -2.73679e-14 0 0 0 0)
(2.71051e-14 -2.52091e-13 0 -1.0842e-13 -1.45776e-14 0 0 0 0)
(0 -1.84711e-13 0 -1.0842e-13 -3.11852e-15 0 0 0 0)
(-2.71051e-14 -1.46386e-13 0 -8.13152e-14 -1.25414e-14 0 0 0 0)
(8.13152e-14 -1.29659e-13 0 -5.42101e-14 -2.49226e-14 0 0 0 0)
(2.71051e-14 -1.15646e-13 0 0 -1.35229e-14 0 0 0 0)
(-2.71051e-14 -9.74297e-14 0 0 6.93921e-16 0 0 0 0)
(-4.50044e-09 6.86552e-07 0 -1.27768e-09 5.13989e-09 0 0 0 0)
(5.17221e-09 -8.49372e-07 0 2.6441e-10 -1.24326e-09 0 0 0 0)
(-1.00665e-09 2.01452e-07 0 -1.04653e-10 2.94985e-10 0 0 0 0)
(3.93511e-10 -4.77883e-08 0 2.43132e-11 -7.36369e-11 0 0 0 0)
(-8.29686e-11 1.13348e-08 0 -7.12863e-12 1.49765e-11 0 0 0 0)
(2.56414e-11 -2.68902e-09 0 1.51788e-12 -5.87406e-12 0 0 0 0)
(-5.69206e-12 6.36977e-10 0 -1.24683e-12 -3.41514e-13 0 0 0 0)
(2.60209e-12 -1.52023e-10 0 -5.96311e-13 -1.20234e-12 0 0 0 0)
(2.43945e-13 3.51426e-11 0 -7.04731e-13 -6.20379e-13 0 0 0 0)
(5.69206e-13 -9.15648e-12 0 -4.87891e-13 -4.71835e-13 0 0 0 0)
(2.98156e-13 1.46789e-12 0 -4.06576e-13 -3.11007e-13 0 0 0 0)
(2.71051e-13 -9.15397e-13 0 -2.1684e-13 -2.29854e-13 0 0 0 0)
(2.1684e-13 -2.21686e-13 0 -2.43945e-13 -1.52341e-13 0 0 0 0)
(1.0842e-13 -3.0175e-13 0 -1.89735e-13 -7.51004e-14 0 0 0 0)
(0 -2.23786e-13 0 -1.35525e-13 -3.80292e-14 0 0 0 0)
(-5.42101e-14 -1.93536e-13 0 -2.71051e-14 -1.95529e-14 0 0 0 0)
(5.42101e-14 -1.65794e-13 0 -1.0842e-13 -2.66341e-14 0 0 0 0)
(2.71051e-14 -1.28612e-13 0 0 -3.54471e-14 0 0 0 0)
(5.42101e-14 -9.46436e-14 0 0 -2.32773e-14 0 0 0 0)
(0 -8.65356e-14 0 -2.71051e-14 -1.70106e-15 0 0 0 0)
(3.8519e-09 -6.84693e-07 0 1.39458e-09 -4.81911e-09 0 0 0 0)
(-4.44463e-09 8.47075e-07 0 -2.80646e-10 1.14373e-09 0 0 0 0)
(8.58065e-10 -2.00899e-07 0 1.13516e-10 -2.73939e-10 0 0 0 0)
(-3.29543e-10 4.7658e-08 0 -2.46656e-11 6.29018e-11 0 0 0 0)
(7.31023e-11 -1.13036e-08 0 7.39968e-12 -1.70242e-11 0 0 0 0)
(-1.84856e-11 2.68068e-09 0 -2.35814e-12 2.17483e-12 0 0 0 0)
(7.02021e-12 -6.3637e-10 0 1.35525e-13 -2.09118e-12 0 0 0 0)
(-4.33681e-13 1.50307e-10 0 -5.14996e-13 -7.87792e-13 0 0 0 0)
(1.19262e-12 -3.62738e-11 0 -3.25261e-13 -8.09314e-13 0 0 0 0)
(4.33681e-13 8.02427e-12 0 -3.52366e-13 -5.51605e-13 0 0 0 0)
(4.60786e-13 -2.42553e-12 0 -2.71051e-13 -4.10422e-13 0 0 0 0)
(2.43945e-13 1.35645e-13 0 -2.1684e-13 -2.7795e-13 0 0 0 0)
(2.43945e-13 -3.7126e-13 0 -1.89735e-13 -2.05225e-13 0 0 0 0)
(1.35525e-13 -1.86363e-13 0 -1.6263e-13 -1.46301e-13 0 0 0 0)
(1.0842e-13 -1.96544e-13 0 -8.13152e-14 -9.54236e-14 0 0 0 0)
(0 -1.73316e-13 0 -5.42101e-14 -6.50794e-14 0 0 0 0)
(1.0842e-13 -1.6228e-13 0 5.42101e-14 -5.39833e-14 0 0 0 0)
(8.13152e-14 -1.26302e-13 0 0 -4.31956e-14 0 0 0 0)
(2.71051e-14 -8.19003e-14 0 0 -2.35397e-14 0 0 0 0)
(-2.71051e-14 -7.24514e-14 0 2.71051e-14 -2.47974e-15 0 0 0 0)
(-3.38648e-09 6.82876e-07 0 -1.30375e-09 4.49574e-09 0 0 0 0)
(3.89117e-09 -8.44826e-07 0 2.61428e-10 -1.05593e-09 0 0 0 0)
(-7.50729e-10 2.00371e-07 0 -1.0243e-10 2.49077e-10 0 0 0 0)
(2.87422e-10 -4.75314e-08 0 2.35814e-11 -6.01717e-11 0 0 0 0)
(-6.06069e-11 1.1274e-08 0 -6.39679e-12 1.24729e-11 0 0 0 0)
(1.8323e-11 -2.67408e-09 0 2.03288e-12 -4.52111e-12 0 0 0 0)
(-3.90313e-12 6.34014e-10 0 -5.14996e-13 -3.47415e-13 0 0 0 0)
(2.1413e-12 -1.50741e-10 0 0 -1.1048e-12 0 0 0 0)
(3.79471e-13 3.53788e-11 0 -2.1684e-13 -6.96855e-13 0 0 0 0)
(6.77626e-13 -8.75759e-12 0 -1.6263e-13 -5.81572e-13 0 0 0 0)
(4.33681e-13 1.74155e-12 0 -1.6263e-13 -4.38323e-13 0 0 0 0)
(3.79471e-13 -7.102e-13 0 -2.1684e-13 -3.25511e-13 0 0 0 0)
(2.1684e-13 -9.00372e-14 0 -1.35525e-13 -2.4727e-13 0 0 0 0)
(1.6263e-13 -1.91949e-13 0 -1.0842e-13 -1.9372e-13 0 0 0 0)
(1.89735e-13 -1.42564e-13 0 -8.13152e-14 -1.49459e-13 0 0 0 0)
(8.13152e-14 -1.52096e-13 0 0 -1.13974e-13 0 0 0 0)
(5.42101e-14 -1.4391e-13 0 5.42101e-14 -7.16031e-14 0 0 0 0)
(2.71051e-14 -9.81683e-14 0 0 -3.41056e-14 0 0 0 0)
(5.42101e-14 -5.39277e-14 0 0 -1.19581e-14 0 0 0 0)
(0 -6.05162e-14 0 -2.71051e-14 -5.60013e-15 0 0 0 0)
(2.80955e-09 -6.81253e-07 0 1.15234e-09 -4.09264e-09 0 0 0 0)
(-3.24326e-09 8.42828e-07 0 -2.27276e-10 9.5335e-10 0 0 0 0)
(6.20191e-10 -1.99904e-07 0 8.97448e-11 -2.26544e-10 0 0 0 0)
(-2.33456e-10 4.74214e-08 0 -1.96512e-11 5.17246e-11 0 0 0 0)
(5.14725e-11 -1.1248e-08 0 5.82759e-12 -1.35206e-11 0 0 0 0)
(-1.25767e-11 2.66786e-09 0 -1.6263e-12 1.76236e-12 0 0 0 0)
(4.96022e-12 -6.32954e-10 0 3.79471e-13 -1.69193e-12 0 0 0 0)
(-8.13152e-14 1.49957e-10 0 -1.35525e-13 -6.87482e-13 0 0 0 0)
(9.75782e-13 -3.57506e-11 0 -8.13152e-14 -7.3522e-13 0 0 0 0)
(4.87891e-13 8.2828e-12 0 -1.0842e-13 -5.6345e-13 0 0 0 0)
(4.33681e-13 -2.16947e-12 0 -5.42101e-14 -4.518e-13 0 0 0 0)
(3.25261e-13 3.26698e-13 0 -5.42101e-14 -3.55746e-13 0 0 0 0)
(2.98156e-13 -2.39468e-13 0 0 -2.67029e-13 0 0 0 0)
(2.43945e-13 -8.85523e-14 0 0 -2.14511e-13 0 0 0 0)
(1.6263e-13 -1.16798e-13 0 0 -1.70751e-13 0 0 0 0)
(1.35525e-13 -9.54607e-14 0 -8.13152e-14 -1.27097e-13 0 0 0 0)
(8.13152e-14 -8.24123e-14 0 -1.0842e-13 -7.02345e-14 0 0 0 0)
(5.42101e-14 -6.66572e-14 0 -2.71051e-14 -2.83427e-14 0 0 0 0)
(0 -5.33949e-14 0 -5.42101e-14 -1.4433e-14 0 0 0 0)
(0 -5.48931e-14 0 2.71051e-14 -1.08663e-14 0 0 0 0)
(-2.46141e-09 6.79737e-07 0 -9.51062e-10 3.75665e-09 0 0 0 0)
(2.82852e-09 -8.4096e-07 0 1.85941e-10 -8.72838e-10 0 0 0 0)
(-5.4305e-10 1.9947e-07 0 -7.24518e-11 2.05168e-10 0 0 0 0)
(2.03478e-10 -4.73184e-08 0 1.60733e-11 -4.92269e-11 0 0 0 0)
(-4.2582e-11 1.12241e-08 0 -4.44523e-12 1.00469e-11 0 0 0 0)
(1.29562e-11 -2.66225e-09 0 1.38236e-12 -3.73879e-12 0 0 0 0)
(-2.43945e-12 6.31564e-10 0 -2.98156e-13 -4.01201e-13 0 0 0 0)
(1.68051e-12 -1.49784e-10 0 1.35525e-13 -1.00243e-12 0 0 0 0)
(4.60786e-13 3.55028e-11 0 8.13152e-14 -6.78356e-13 0 0 0 0)
(5.96311e-13 -8.47417e-12 0 1.0842e-13 -5.8524e-13 0 0 0 0)
(4.87891e-13 1.94925e-12 0 0 -4.41914e-13 0 0 0 0)
(4.06576e-13 -5.25429e-13 0 8.13152e-14 -3.34113e-13 0 0 0 0)
(2.1684e-13 5.11982e-14 0 0 -2.64966e-13 0 0 0 0)
(2.43945e-13 -9.56714e-14 0 1.0842e-13 -2.07801e-13 0 0 0 0)
(1.35525e-13 -5.51501e-14 0 5.42101e-14 -1.46734e-13 0 0 0 0)
(2.71051e-14 -5.15793e-14 0 0 -9.76249e-14 0 0 0 0)
(8.13152e-14 -4.51565e-14 0 5.42101e-14 -6.82099e-14 0 0 0 0)
(5.42101e-14 -4.23668e-14 0 -5.42101e-14 -5.45564e-14 0 0 0 0)
(8.13152e-14 -3.64513e-14 0 0 -3.67212e-14 0 0 0 0)
(5.42101e-14 -3.52169e-14 0 0 -1.2173e-14 0 0 0 0)
(2.04448e-09 -6.78369e-07 0 7.4547e-10 -3.39954e-09 0 0 0 0)
(-2.36467e-09 8.39277e-07 0 -1.44063e-10 7.88554e-10 0 0 0 0)
(4.50323e-10 -1.9908e-07 0 5.54298e-11 -1.87265e-10 0 0 0 0)
(-1.65531e-10 4.72262e-08 0 -1.22786e-11 4.24092e-11 0 0 0 0)
(3.68087e-11 -1.12025e-08 0 3.41524e-12 -1.13637e-11 0 0 0 0)
(-8.42967e-12 2.65741e-09 0 -8.94467e-13 1.23014e-12 0 0 0 0)
(3.7405e-12 -6.30218e-10 0 4.87891e-13 -1.57788e-12 0 0 0 0)
(2.71051e-13 1.4968e-10 0 8.13152e-14 -7.58324e-13 0 0 0 0)
(9.21572e-13 -3.53334e-11 0 1.89735e-13 -7.47274e-13 0 0 0 0)
(4.87891e-13 8.51924e-12 0 1.0842e-13 -5.53456e-13 0 0 0 0)
(4.06576e-13 -1.91834e-12 0 1.35525e-13 -4.33759e-13 0 0 0 0)
(3.52366e-13 5.03646e-13 0 5.42101e-14 -3.28783e-13 0 0 0 0)
(2.71051e-13 -1.13156e-13 0 5.42101e-14 -2.69365e-13 0 0 0 0)
(2.1684e-13 2.96795e-14 0 0 -1.93883e-13 0 0 0 0)
(1.35525e-13 -6.62175e-15 0 0 -1.34598e-13 0 0 0 0)
(8.13152e-14 -1.69366e-14 0 2.71051e-14 -8.86649e-14 0 0 0 0)
(8.13152e-14 -3.93438e-14 0 5.42101e-14 -5.84188e-14 0 0 0 0)
(5.42101e-14 -3.51685e-14 0 8.13152e-14 -4.22772e-14 0 0 0 0)
(0 -1.10115e-14 0 5.42101e-14 -3.56534e-14 0 0 0 0)
(0 -5.9989e-15 0 -2.71051e-14 -1.50206e-14 0 0 0 0)
(-1.86003e-09 6.77126e-07 0 -5.8078e-10 3.14063e-09 0 0 0 0)
(2.13851e-09 -8.37748e-07 0 1.10778e-10 -7.31194e-10 0 0 0 0)
(-4.11265e-10 1.98724e-07 0 -4.30157e-11 1.71409e-10 0 0 0 0)
(1.51517e-10 -4.71425e-08 0 9.32414e-12 -4.17483e-11 0 0 0 0)
(-3.11708e-11 1.11829e-08 0 -2.43945e-12 8.09267e-12 0 0 0 0)
(9.92045e-12 -2.65247e-09 0 1.02999e-12 -3.44361e-12 0 0 0 0)
(-1.46367e-12 6.29576e-10 0 1.35525e-13 -5.29533e-13 0 0 0 0)
(1.40946e-12 -1.48954e-10 0 4.06576e-13 -9.68178e-13 0 0 0 0)
(5.42101e-13 3.57077e-11 0 2.1684e-13 -6.58712e-13 0 0 0 0)
(5.69206e-13 -8.16066e-12 0 2.43945e-13 -5.49918e-13 0 0 0 0)
(4.06576e-13 2.17392e-12 0 2.1684e-13 -4.12434e-13 0 0 0 0)
(2.71051e-13 -3.61035e-13 0 1.35525e-13 -3.0744e-13 0 0 0 0)
(2.1684e-13 1.86098e-13 0 1.35525e-13 -2.16597e-13 0 0 0 0)
(1.6263e-13 3.90956e-14 0 2.71051e-14 -1.60743e-13 0 0 0 0)
(1.35525e-13 5.00682e-14 0 2.71051e-14 -1.25407e-13 0 0 0 0)
(8.13152e-14 2.45996e-14 0 0 -9.37973e-14 0 0 0 0)
(5.42101e-14 1.2312e-15 0 0 -7.31847e-14 0 0 0 0)
(1.35525e-13 -1.96014e-14 0 0 -5.09058e-14 0 0 0 0)
(-5.42101e-14 -9.19466e-15 0 2.71051e-14 -2.0374e-14 0 0 0 0)
(5.42101e-14 1.5457e-14 0 0 -8.45052e-15 0 0 0 0)
(1.57442e-09 -6.75959e-07 0 4.16822e-10 -2.87333e-09 0 0 0 0)
(-1.82688e-09 8.36307e-07 0 -7.99328e-11 6.70925e-10 0 0 0 0)
(3.48869e-10 -1.9839e-07 0 2.89753e-11 -1.60747e-10 0 0 0 0)
(-1.24954e-10 4.70629e-08 0 -6.80337e-12 3.56387e-11 0 0 0 0)
(2.84874e-11 -1.11642e-08 0 1.92446e-12 -1.04378e-11 0 0 0 0)
(-5.80048e-12 2.64879e-09 0 -5.42101e-14 7.03765e-13 0 0 0 0)
(3.14419e-12 -6.27742e-10 0 6.23416e-13 -1.56959e-12 0 0 0 0)
(3.52366e-13 1.49551e-10 0 4.33681e-13 -7.08439e-13 0 0 0 0)
(7.04731e-13 -3.49151e-11 0 5.14996e-13 -6.58944e-13 0 0 0 0)
(4.60786e-13 8.76552e-12 0 3.52366e-13 -4.51802e-13 0 0 0 0)
(4.06576e-13 -1.67586e-12 0 2.1684e-13 -3.43741e-13 0 0 0 0)
(1.6263e-13 6.99484e-13 0 2.1684e-13 -2.65849e-13 0 0 0 0)
(2.1684e-13 3.35411e-14 0 1.35525e-13 -1.70933e-13 0 0 0 0)
(1.0842e-13 1.20869e-13 0 1.35525e-13 -1.28294e-13 0 0 0 0)
(1.0842e-13 6.0324e-14 0 8.13152e-14 -8.25365e-14 0 0 0 0)
(1.0842e-13 3.52858e-14 0 1.0842e-13 -6.55132e-14 0 0 0 0)
(2.71051e-14 3.54769e-15 0 2.71051e-14 -6.21945e-14 0 0 0 0)
(5.42101e-14 1.76422e-14 0 5.42101e-14 -4.71442e-14 0 0 0 0)
(2.71051e-14 3.14438e-14 0 0 -8.83879e-15 0 0 0 0)
(-2.71051e-14 2.28257e-14 0 2.71051e-14 4.75491e-15 0 0 0 0)
(-1.52309e-09 6.74924e-07 0 -3.72423e-10 2.71743e-09 0 0 0 0)
(1.75063e-09 -8.35035e-07 0 6.96871e-11 -6.39864e-10 0 0 0 0)
(-3.38163e-10 1.98088e-07 0 -2.82977e-11 1.48297e-10 0 0 0 0)
(1.24439e-10 -4.69922e-08 0 5.82759e-12 -3.81637e-11 0 0 0 0)
(-2.44488e-11 1.1148e-08 0 -1.30104e-12 6.19529e-12 0 0 0 0)
(8.67362e-12 -2.6436e-09 0 1.24683e-12 -3.55679e-12 0 0 0 0)
(-9.75782e-13 6.28164e-10 0 6.50521e-13 -6.59153e-13 0 0 0 0)
(1.27394e-12 -1.48043e-10 0 7.58942e-13 -8.77119e-13 0 0 0 0)
(4.06576e-13 3.59643e-11 0 5.42101e-13 -4.86381e-13 0 0 0 0)
(3.52366e-13 -7.84545e-12 0 4.87891e-13 -3.29735e-13 0 0 0 0)
(1.89735e-13 2.35988e-12 0 3.52366e-13 -2.39137e-13 0 0 0 0)
(2.71051e-13 -1.88228e-13 0 2.1684e-13 -1.99066e-13 0 0 0 0)
(1.6263e-13 3.23654e-13 0 1.6263e-13 -1.49901e-13 0 0 0 0)
(1.35525e-13 1.27492e-13 0 8.13152e-14 -1.03898e-13 0 0 0 0)
(8.13152e-14 1.12849e-13 0 1.0842e-13 -6.76542e-14 0 0 0 0)
(5.42101e-14 4.49416e-14 0 2.71051e-14 -5.36449e-14 0 0 0 0)
(2.71051e-14 1.96002e-14 0 5.42101e-14 -3.21138e-14 0 0 0 0)
(0 3.37544e-14 0 2.71051e-14 2.33137e-15 0 0 0 0)
(-2.71051e-14 4.27045e-14 0 -2.71051e-14 9.73611e-16 0 0 0 0)
(0 1.95409e-14 0 -2.71051e-14 1.08645e-16 0 0 0 0)
(1.27169e-09 -6.73882e-07 0 2.29065e-10 -2.52677e-09 0 0 0 0)
(-1.48275e-09 8.33738e-07 0 -4.62412e-11 5.95204e-10 0 0 0 0)
(2.8501e-10 -1.97789e-07 0 1.4962e-11 -1.47364e-10 0 0 0 0)
(-9.79306e-11 4.69208e-08 0 -3.17129e-12 3.01057e-11 0 0 0 0)
(2.39338e-11 -1.11296e-08 0 2.08709e-12 -1.10866e-11 0 0 0 0)
(-3.90313e-12 2.64193e-09 0 1.24683e-12 2.00713e-13 0 0 0 0)
(2.6563e-12 -6.25063e-10 0 1.43657e-12 -1.52526e-12 0 0 0 0)
(2.43945e-13 1.49724e-10 0 1.11131e-12 -4.45119e-13 0 0 0 0)
(4.33681e-13 -3.43678e-11 0 8.40257e-13 -3.4367e-13 0 0 0 0)
(2.1684e-13 9.01276e-12 0 5.69206e-13 -1.87344e-13 0 0 0 0)
(1.35525e-13 -1.54519e-12 0 4.87891e-13 -1.19409e-13 0 0 0 0)
(5.42101e-14 7.8872e-13 0 3.52366e-13 -6.04803e-14 0 0 0 0)
(2.71051e-14 1.28709e-13 0 2.71051e-13 -5.17493e-14 0 0 0 0)
(0 2.03116e-13 0 1.0842e-13 -4.31685e-14 0 0 0 0)
(1.0842e-13 1.10577e-13 0 2.71051e-14 -6.49255e-14 0 0 0 0)
(2.71051e-14 7.08262e-14 0 8.13152e-14 -4.69021e-14 0 0 0 0)
(5.42101e-14 5.9524e-14 0 0 -1.55624e-14 0 0 0 0)
(0 5.07296e-14 0 -2.71051e-14 1.88251e-15 0 0 0 0)
(0 2.9221e-14 0 0 1.52288e-15 0 0 0 0)
(0 2.17434e-14 0 0 -3.06837e-15 0 0 0 0)
(-1.34026e-09 6.72992e-07 0 -4.07985e-10 2.47536e-09 0 0 0 0)
(1.53656e-09 -8.32656e-07 0 7.93365e-11 -5.87423e-10 0 0 0 0)
(-2.95066e-10 1.97523e-07 0 -3.20111e-11 1.22817e-10 0 0 0 0)
(1.11537e-10 -4.68559e-08 0 9.21572e-12 -3.7738e-11 0 0 0 0)
(-2.00577e-11 1.11181e-08 0 5.42101e-13 3.23903e-12 0 0 0 0)
(7.96889e-12 -2.63404e-09 0 3.38813e-12 -3.05758e-12 0 0 0 0)
(-1.0842e-12 6.27518e-10 0 1.87025e-12 -2.64788e-13 0 0 0 0)
(7.04731e-13 -1.46862e-10 0 1.57209e-12 -1.94933e-13 0 0 0 0)
(-8.13152e-14 3.62221e-11 0 1.0571e-12 2.56019e-14 0 0 0 0)
(0 -7.62119e-12 0 7.58942e-13 4.18242e-14 0 0 0 0)
(-2.71051e-14 2.48674e-12 0 4.87891e-13 5.47823e-14 0 0 0 0)
(-5.42101e-14 -1.20568e-13 0 3.52366e-13 6.02791e-14 0 0 0 0)
(-2.71051e-14 3.40965e-13 0 2.1684e-13 4.03278e-14 0 0 0 0)
(-5.42101e-14 1.14316e-13 0 2.71051e-13 3.29964e-14 0 0 0 0)
(2.71051e-14 1.09116e-13 0 1.6263e-13 9.71178e-15 0 0 0 0)
(-2.71051e-14 9.43046e-14 0 8.13152e-14 1.55767e-14 0 0 0 0)
(-5.42101e-14 6.83848e-14 0 2.71051e-14 2.36664e-14 0 0 0 0)
(0 5.08397e-14 0 0 2.29672e-15 0 0 0 0)
(0 3.77536e-14 0 0 -1.60033e-15 0 0 0 0)
(0 2.10864e-14 0 0 1.84497e-15 0 0 0 0)
(9.43012e-10 -6.71994e-07 0 3.5616e-11 -2.22325e-09 0 0 0 0)
(-1.10678e-09 8.31386e-07 0 -2.43674e-11 4.99628e-10 0 0 0 0)
(2.14862e-10 -1.97239e-07 0 1.81604e-12 -1.70554e-10 0 0 0 0)
(-6.54045e-11 4.68012e-08 0 1.06252e-11 3.35531e-11 0 0 0 0)
(1.81875e-11 -1.10949e-08 0 4.79759e-12 -1.44056e-11 0 0 0 0)
(-2.54788e-12 2.63843e-09 0 5.06865e-12 3.65586e-12 0 0 0 0)
(8.13152e-13 -6.222e-10 0 2.38524e-12 -6.05701e-13 0 0 0 0)
(-5.69206e-13 1.50014e-10 0 1.76183e-12 8.86219e-13 0 0 0 0)
(-3.79471e-13 -3.4131e-11 0 1.00289e-12 3.63743e-13 0 0 0 0)
(-3.52366e-13 9.04194e-12 0 7.04731e-13 3.88524e-13 0 0 0 0)
(-2.71051e-13 -1.52674e-12 0 4.06576e-13 2.50038e-13 0 0 0 0)
(-1.89735e-13 7.74265e-13 0 2.98156e-13 1.77666e-13 0 0 0 0)
(-1.0842e-13 1.01426e-13 0 1.35525e-13 1.15541e-13 0 0 0 0)
(-5.42101e-14 1.725e-13 0 8.13152e-14 9.37403e-14 0 0 0 0)
(-8.13152e-14 9.3157e-14 0 5.42101e-14 7.84958e-14 0 0 0 0)
(-5.42101e-14 8.47808e-14 0 -5.42101e-14 5.35396e-14 0 0 0 0)
(-2.71051e-14 4.6244e-14 0 2.71051e-14 3.32054e-14 0 0 0 0)
(-5.42101e-14 2.54628e-14 0 0 2.00606e-14 0 0 0 0)
(2.71051e-14 2.87693e-14 0 0 2.13817e-15 0 0 0 0)
(-2.71051e-14 2.14988e-14 0 2.71051e-14 4.43214e-15 0 0 0 0)
(-1.32902e-09 6.71269e-07 0 -1.73106e-09 2.0749e-09 0 0 0 0)
(1.50279e-09 -8.30603e-07 0 9.59085e-10 -5.53492e-10 0 0 0 0)
(-2.60046e-10 1.97057e-07 0 -3.69605e-10 1.01054e-10 0 0 0 0)
(1.14519e-10 -4.66998e-08 0 1.70193e-10 -1.64201e-11 0 0 0 0)
(-2.56143e-11 1.10882e-08 0 -3.90855e-11 7.31539e-12 0 0 0 0)
(5.50233e-12 -2.62024e-09 0 2.13859e-11 2.86993e-12 0 0 0 0)
(-4.36391e-12 6.24748e-10 0 -2.38524e-12 1.95809e-12 0 0 0 0)
(-7.04731e-13 -1.45892e-10 0 3.03577e-12 1.45414e-12 0 0 0 0)
(-1.16552e-12 3.57244e-11 0 4.33681e-13 8.98059e-13 0 0 0 0)
(-5.69206e-13 -7.7349e-12 0 6.77626e-13 6.43501e-13 0 0 0 0)
(-4.33681e-13 2.27588e-12 0 3.25261e-13 4.27895e-13 0 0 0 0)
(-2.98156e-13 -2.55065e-13 0 2.43945e-13 2.96649e-13 0 0 0 0)
(-2.71051e-13 2.57039e-13 0 1.6263e-13 2.09421e-13 0 0 0 0)
(-1.35525e-13 7.72712e-14 0 5.42101e-14 1.33894e-13 0 0 0 0)
(-1.0842e-13 6.89148e-14 0 5.42101e-14 8.80981e-14 0 0 0 0)
(-2.71051e-14 4.90142e-14 0 8.13152e-14 5.03874e-14 0 0 0 0)
(-5.42101e-14 3.49058e-14 0 0 2.76403e-14 0 0 0 0)
(0 1.97724e-14 0 2.71051e-14 2.15263e-14 0 0 0 0)
(2.71051e-14 2.21251e-14 0 0 1.31618e-14 0 0 0 0)
(-2.71051e-14 1.45161e-14 0 -2.71051e-14 4.85375e-15 0 0 0 0)
(1.71114e-10 -6.70473e-07 0 2.17613e-09 -1.16639e-09 0 0 0 0)
(2.54598e-10 8.29412e-07 0 -1.01817e-09 3.70338e-10 0 0 0 0)
(-5.74085e-10 -1.96702e-07 0 4.18719e-10 2.50338e-11 0 0 0 0)
(2.65142e-10 4.67075e-08 0 -1.8407e-10 1.52338e-11 0 0 0 0)
(-1.30592e-10 -1.10756e-08 0 3.90313e-11 1.72832e-11 0 0 0 0)
(3.41795e-11 2.63307e-09 0 -2.78098e-11 2.67773e-12 0 0 0 0)
(-1.75641e-11 -6.23616e-10 0 -6.77626e-13 4.45101e-12 0 0 0 0)
(2.22261e-12 1.48954e-10 0 -5.8818e-12 1.5451e-12 0 0 0 0)
(-2.73761e-12 -3.49416e-11 0 -2.22261e-12 1.38891e-12 0 0 0 0)
(-4.60786e-13 8.57178e-12 0 -2.00577e-12 7.62322e-13 0 0 0 0)
(-7.04731e-13 -1.87359e-12 0 -1.16552e-12 5.52026e-13 0 0 0 0)
(-3.25261e-13 5.55791e-13 0 -8.40257e-13 3.60027e-13 0 0 0 0)
(-2.71051e-13 -6.13287e-14 0 -5.14996e-13 2.51301e-13 0 0 0 0)
(-1.6263e-13 5.1177e-14 0 -3.25261e-13 1.64317e-13 0 0 0 0)
(-1.35525e-13 9.65054e-15 0 -2.1684e-13 1.22853e-13 0 0 0 0)
(-8.13152e-14 2.4323e-14 0 -1.35525e-13 8.57512e-14 0 0 0 0)
(-8.13152e-14 1.73829e-14 0 -5.42101e-14 4.95156e-14 0 0 0 0)
(-2.71051e-14 1.09844e-14 0 -2.71051e-14 3.34624e-14 0 0 0 0)
(-2.71051e-14 1.20967e-14 0 0 1.87587e-14 0 0 0 0)
(0 3.48316e-15 0 0 -7.59451e-16 0 0 0 0)
)
;

boundaryField
{
    movingWall
    {
        type            extrapolatedCalculated;
        value           nonuniform List<tensor> 
20
(
(1.71114e-10 -6.70473e-07 0 2.22018e-09 3.51564e-06 0 0 0 0)
(2.54598e-10 8.29412e-07 0 -2.90457e-09 -8.33752e-07 0 0 0 0)
(-5.74085e-10 -1.96702e-07 0 1.20171e-09 1.97995e-07 0 0 0 0)
(2.65142e-10 4.67075e-08 0 -6.08313e-10 -4.69442e-08 0 0 0 0)
(-1.30592e-10 -1.10756e-08 0 1.4122e-10 1.1165e-08 0 0 0 0)
(3.41795e-11 2.63307e-09 0 -8.58869e-11 -2.64182e-09 0 0 0 0)
(-1.75641e-11 -6.23616e-10 0 4.44089e-12 6.32692e-10 0 0 0 0)
(2.22261e-12 1.48954e-10 0 -1.56319e-11 -1.47354e-10 0 0 0 0)
(-2.73761e-12 -3.49416e-11 0 -4.4853e-12 3.68747e-11 0 0 0 0)
(-4.60786e-13 8.57178e-12 0 -4.66294e-12 -7.5877e-12 0 0 0 0)
(-7.04731e-13 -1.87359e-12 0 -2.57572e-12 2.58758e-12 0 0 0 0)
(-3.25261e-13 5.55791e-13 0 -1.86517e-12 -9.33426e-14 0 0 0 0)
(-2.71051e-13 -6.13287e-14 0 -1.19904e-12 3.64419e-13 0 0 0 0)
(-1.6263e-13 5.1177e-14 0 -8.43769e-13 1.51972e-13 0 0 0 0)
(-1.35525e-13 9.65054e-15 0 -5.77316e-13 1.59711e-13 0 0 0 0)
(-8.13152e-14 2.4323e-14 0 -3.55271e-13 1.1337e-13 0 0 0 0)
(-8.13152e-14 1.73829e-14 0 -1.77636e-13 6.24187e-14 0 0 0 0)
(-2.71051e-14 1.09844e-14 0 -8.88178e-14 4.38384e-14 0 0 0 0)
(-2.71051e-14 1.20967e-14 0 0 1.84811e-14 0 0 0 0)
(0 3.48316e-15 0 0 -4.54844e-15 0 0 0 0)
)
;
    }
    fixedWalls
    {
        type            extrapolatedCalculated;
        value           nonuniform List<tensor> 
60
(
(-4.33822e-09 3.6452e-06 0 8.34321e-10 -1.46221e-10 0 0 0 0)
(7.6755e-09 -3.64578e-06 0 -4.30897e-09 -1.4924e-09 0 0 0 0)
(-2.1574e-08 3.63923e-06 0 4.19058e-09 3.55558e-09 0 0 0 0)
(2.44377e-08 -3.63156e-06 0 -1.17462e-09 -4.55165e-09 0 0 0 0)
(-2.62725e-08 3.62102e-06 0 -3.9736e-11 5.17834e-09 0 0 0 0)
(2.42787e-08 -3.61084e-06 0 9.73153e-10 -5.24322e-09 0 0 0 0)
(-2.23799e-08 3.60005e-06 0 -1.27768e-09 5.13989e-09 0 0 0 0)
(1.9168e-08 -3.59029e-06 0 1.39458e-09 -4.81911e-09 0 0 0 0)
(-1.68016e-08 3.58077e-06 0 -1.30375e-09 4.49574e-09 0 0 0 0)
(1.3953e-08 -3.5723e-06 0 1.15234e-09 -4.09264e-09 0 0 0 0)
(-1.21921e-08 3.5644e-06 0 -9.51062e-10 3.75665e-09 0 0 0 0)
(1.01487e-08 -3.55728e-06 0 7.4547e-10 -3.39954e-09 0 0 0 0)
(-9.21032e-09 3.5508e-06 0 -5.8078e-10 3.14063e-09 0 0 0 0)
(7.82556e-09 -3.54471e-06 0 4.16822e-10 -2.87333e-09 0 0 0 0)
(-7.54294e-09 3.53931e-06 0 -3.72423e-10 2.71743e-09 0 0 0 0)
(6.33587e-09 -3.53384e-06 0 2.29065e-10 -2.52677e-09 0 0 0 0)
(-6.6267e-09 3.5292e-06 0 -4.07985e-10 2.47536e-09 0 0 0 0)
(4.70401e-09 -3.52394e-06 0 3.5616e-11 -2.22325e-09 0 0 0 0)
(-6.48432e-09 3.52031e-06 0 -1.73106e-09 2.0749e-09 0 0 0 0)
(-2.22018e-09 -3.51564e-06 0 2.17613e-09 -1.16639e-09 0 0 0 0)
(-4.44089e-14 2.69896e-15 0 2.71051e-14 5.37071e-15 0 0 0 0)
(-4.44089e-14 -2.41818e-14 0 -2.71051e-14 1.78076e-14 0 0 0 0)
(8.88178e-14 -6.85316e-14 0 -5.42101e-14 1.51914e-14 0 0 0 0)
(0 -8.49474e-14 0 5.42101e-14 4.0434e-15 0 0 0 0)
(-4.44089e-14 -8.47052e-14 0 2.71051e-14 1.01764e-15 0 0 0 0)
(-4.44089e-14 -8.9018e-14 0 0 6.93921e-16 0 0 0 0)
(0 -8.74809e-14 0 -2.71051e-14 -1.70106e-15 0 0 0 0)
(-4.44089e-14 -8.22137e-14 0 2.71051e-14 -2.47974e-15 0 0 0 0)
(0 -7.75619e-14 0 -2.71051e-14 -5.60013e-15 0 0 0 0)
(0 -5.98132e-14 0 2.71051e-14 -1.08663e-14 0 0 0 0)
(-8.88178e-14 -3.40968e-14 0 0 -1.2173e-14 0 0 0 0)
(0 -1.1121e-14 0 -2.71051e-14 -1.50206e-14 0 0 0 0)
(8.88178e-14 2.59854e-14 0 0 -8.45052e-15 0 0 0 0)
(-4.44089e-14 2.2681e-14 0 2.71051e-14 4.75491e-15 0 0 0 0)
(0 6.96573e-15 0 -2.71051e-14 1.08645e-16 0 0 0 0)
(0 2.22465e-14 0 0 -3.06837e-15 0 0 0 0)
(0 1.92392e-14 0 0 1.84497e-15 0 0 0 0)
(-4.44089e-14 1.48666e-14 0 2.71051e-14 4.43214e-15 0 0 0 0)
(-4.44089e-14 1.51064e-15 0 -2.71051e-14 4.85375e-15 0 0 0 0)
(0 -4.54844e-15 0 0 -7.59451e-16 0 0 0 0)
(-2.11121e-10 6.94963e-07 0 -4.33822e-09 3.6452e-06 0 0 0 0)
(7.60161e-10 -8.59876e-07 0 3.49374e-09 -8.65345e-07 0 0 0 0)
(-6.96708e-10 2.0414e-07 0 -1.29763e-09 2.05693e-07 0 0 0 0)
(2.92599e-10 -4.85167e-08 0 7.06901e-10 -4.87829e-08 0 0 0 0)
(-1.50162e-10 1.15088e-08 0 -1.27187e-10 1.16261e-08 0 0 0 0)
(3.29326e-11 -2.74116e-09 0 1.06182e-10 -2.74768e-09 0 0 0 0)
(-2.08709e-11 6.48767e-10 0 4.57412e-12 6.61508e-10 0 0 0 0)
(1.13841e-12 -1.5556e-10 0 2.27818e-11 -1.52612e-10 0 0 0 0)
(-3.60497e-12 3.63012e-11 0 9.10383e-12 3.92669e-11 0 0 0 0)
(-1.00289e-12 -9.0387e-12 0 8.26006e-12 -7.40662e-12 0 0 0 0)
(-1.16552e-12 1.90067e-12 0 5.10703e-12 3.11209e-12 0 0 0 0)
(-6.50521e-13 -6.17523e-13 0 3.64153e-12 1.96046e-13 0 0 0 0)
(-5.14996e-13 3.45856e-14 0 2.4869e-12 6.42003e-13 0 0 0 0)
(-3.52366e-13 -9.09144e-14 0 1.64313e-12 3.34388e-13 0 0 0 0)
(-2.43945e-13 -3.61422e-14 0 1.02141e-12 2.78346e-13 0 0 0 0)
(-1.89735e-13 -3.74414e-14 0 6.21725e-13 1.8982e-13 0 0 0 0)
(-1.0842e-13 -3.03759e-14 0 3.55271e-13 1.2858e-13 0 0 0 0)
(-1.0842e-13 -2.57838e-14 0 1.33227e-13 6.83161e-14 0 0 0 0)
(-2.71051e-14 -1.77538e-14 0 -8.88178e-14 2.54449e-14 0 0 0 0)
(0 -5.68648e-15 0 4.44089e-14 -2.69896e-15 0 0 0 0)
)
;
    }
    frontAndBack
    {
        type            empty;
    }
}


// ************************************************************************* //
