/*--------------------------------*- C++ -*----------------------------------*\
| =========                 |                                                 |
| \\      /  F ield         | OpenFOAM: The Open Source CFD Toolbox           |
|  \\    /   O peration     | Version:  2312                                  |
|   \\  /    A nd           | Website:  www.openfoam.com                      |
|    \\/     M anipulation  |                                                 |
\*---------------------------------------------------------------------------*/
FoamFile
{
    version     2.0;
    format      ascii;
    arch        "LSB;label=32;scalar=64";
    class       volVectorField;
    location    "4.625";
    object      LambVectorField;
}
// * * * * * * * * * * * * * * * * * * * * * * * * * * * * * * * * * * * * * //

dimensions      [0 1 -2 0 0 0 0];

internalField   nonuniform List<vector> 
400
(
(-6.32559e-15 -6.94128e-07 -6.94128e-07)
(-1.86118e-15 8.6032e-07 -0)
(-1.05068e-16 -2.04319e-07 -2.04319e-07)
(-5.93543e-18 4.86681e-08 -0)
(-3.34966e-19 -1.15246e-08 -1.15246e-08)
(-1.90403e-20 2.77184e-09 -0)
(-1.06287e-21 -6.42696e-10 -6.42696e-10)
(-6.27013e-23 1.64342e-10 -0)
(-3.11923e-24 -3.17747e-11 -3.17747e-11)
(-2.35121e-25 1.26979e-11 -0)
(3.55926e-27 4.57474e-13 4.57474e-13)
(1.1263e-27 2.29804e-12 0)
(1.81515e-27 1.13093e-12 1.13093e-12)
(7.10455e-28 8.49856e-13 0)
(3.64656e-28 5.24033e-13 5.24033e-13)
(1.46395e-28 3.08492e-13 0)
(7.07549e-29 2.20111e-13 2.20111e-13)
(1.36622e-29 7.99939e-14 0)
(1.12936e-30 1.77538e-14 1.77538e-14)
(-2.21257e-31 3.27915e-14 -0)
(-6.29362e-15 6.9051e-07 6.9051e-07)
(-1.86277e-15 -8.59902e-07 0)
(-1.04872e-16 2.04299e-07 2.04299e-07)
(-5.93074e-18 -4.8536e-08 0)
(-3.32339e-19 1.15312e-08 1.15312e-08)
(-1.89768e-20 -2.7394e-09 0)
(-1.03531e-21 6.50892e-10 6.50892e-10)
(-6.31603e-23 -1.54544e-10 0)
(-2.81901e-24 3.68047e-11 3.68047e-11)
(-2.76528e-25 -8.72429e-12 0)
(4.12442e-27 2.08787e-12 2.08787e-12)
(-2.51153e-27 -4.04449e-13 0)
(4.73152e-28 1.42972e-13 1.42972e-13)
(3.32858e-29 1.27452e-14 0)
(1.34681e-28 7.37291e-14 7.37291e-14)
(1.20815e-28 9.06848e-14 0)
(7.82938e-29 8.51158e-14 8.51158e-14)
(5.02905e-29 1.04535e-13 0)
(1.40129e-29 9.62735e-14 9.62735e-14)
(-3.93215e-31 -6.50432e-15 0)
(-6.27377e-15 -6.89572e-07 -6.89572e-07)
(-1.85301e-15 8.57701e-07 -0)
(-1.0443e-16 -2.03568e-07 -2.03568e-07)
(-5.87348e-18 4.83136e-08 -0)
(-3.32788e-19 -1.14662e-08 -1.14662e-08)
(-1.84781e-20 2.72151e-09 -0)
(-1.08311e-21 -6.45738e-10 -6.45738e-10)
(-5.46182e-23 1.5336e-10 -0)
(-4.1126e-24 -3.63648e-11 -3.63648e-11)
(-6.1914e-26 8.68144e-12 -0)
(-2.99926e-26 -1.90945e-12 -1.90945e-12)
(3.73158e-27 5.95081e-13 0)
(5.09328e-28 8.94995e-14 8.94995e-14)
(8.13545e-28 2.16979e-13 0)
(3.35368e-28 1.23848e-13 1.23848e-13)
(2.08051e-28 1.05672e-13 0)
(1.20421e-28 8.72533e-14 8.72533e-14)
(1.04992e-28 1.27225e-13 0)
(1.45081e-29 3.8287e-14 3.8287e-14)
(1.39788e-31 8.15904e-16 0)
(-6.27572e-15 6.91243e-07 6.91243e-07)
(-1.84565e-15 -8.56561e-07 0)
(-1.03891e-16 2.03254e-07 2.03254e-07)
(-5.85528e-18 -4.82283e-08 0)
(-3.28467e-19 1.14438e-08 1.14438e-08)
(-1.87178e-20 -2.71539e-09 0)
(-1.01477e-21 6.44396e-10 6.44396e-10)
(-6.37805e-23 -1.52842e-10 0)
(-2.46158e-24 3.63285e-11 3.63285e-11)
(-3.29858e-25 -8.55394e-12 0)
(1.57082e-26 2.17883e-12 2.17883e-12)
(-3.87264e-27 -3.77133e-13 0)
(1.13216e-27 1.77651e-13 1.77651e-13)
(3.53812e-28 7.12114e-14 0)
(2.85201e-28 8.16625e-14 8.16625e-14)
(2.35509e-28 9.32511e-14 0)
(1.46926e-28 8.41129e-14 8.41129e-14)
(5.92159e-29 5.18387e-14 0)
(4.52184e-29 6.58891e-14 6.58891e-14)
(3.0597e-29 1.44075e-13 0)
(-6.25106e-15 -6.90531e-07 -6.90531e-07)
(-1.83478e-15 8.54325e-07 -0)
(-1.03292e-16 -2.02694e-07 -2.02694e-07)
(-5.80976e-18 4.80887e-08 -0)
(-3.27861e-19 -1.14087e-08 -1.14087e-08)
(-1.82821e-20 2.70689e-09 -0)
(-1.06153e-21 -6.41981e-10 -6.41981e-10)
(-5.38386e-23 1.526e-10 -0)
(-4.08033e-24 -3.5971e-11 -3.5971e-11)
(-4.13556e-26 8.69767e-12 -0)
(-3.54026e-26 -1.99074e-12 -1.99074e-12)
(4.51286e-27 5.38765e-13 0)
(-5.66051e-28 -7.53019e-14 -7.53019e-14)
(4.2286e-28 7.92671e-14 0)
(3.4281e-28 8.54055e-14 8.54055e-14)
(2.48755e-28 8.71521e-14 0)
(7.32093e-29 3.55698e-14 3.55698e-14)
(1.03843e-28 7.34203e-14 0)
(9.40293e-29 1.2026e-13 1.2026e-13)
(2.67816e-29 1.2647e-13 0)
(-6.22476e-15 6.89562e-07 6.89562e-07)
(-1.82458e-15 -8.52124e-07 0)
(-1.02678e-16 2.02156e-07 2.02156e-07)
(-5.78028e-18 -4.79565e-08 0)
(-3.24648e-19 1.13768e-08 1.13768e-08)
(-1.83986e-20 -2.69863e-09 0)
(-1.00922e-21 6.40419e-10 6.40419e-10)
(-6.18257e-23 -1.51778e-10 0)
(-2.53588e-24 3.62183e-11 3.62183e-11)
(-3.14044e-25 -8.41963e-12 0)
(1.4966e-26 2.0983e-12 2.0983e-12)
(-4.65078e-27 -4.37765e-13 0)
(1.94689e-27 2.82067e-13 2.82067e-13)
(8.85829e-28 1.6515e-13 0)
(5.59664e-28 1.43671e-13 1.43671e-13)
(2.16886e-28 7.62912e-14 0)
(1.33287e-28 6.50709e-14 6.50709e-14)
(1.04045e-28 7.54489e-14 0)
(8.69374e-29 1.15646e-13 1.15646e-13)
(2.16825e-29 9.74297e-14 0)
(-6.19055e-15 -6.8783e-07 -6.8783e-07)
(-1.81363e-15 8.49636e-07 -0)
(-1.02069e-16 -2.01557e-07 -2.01557e-07)
(-5.74116e-18 4.78126e-08 -0)
(-3.23448e-19 -1.13419e-08 -1.13419e-08)
(-1.81035e-20 2.69053e-09 -0)
(-1.03892e-21 -6.38224e-10 -6.38224e-10)
(-5.4336e-23 1.51427e-10 -0)
(-3.85733e-24 -3.58473e-11 -3.58473e-11)
(-6.41574e-26 8.66859e-12 -0)
(-3.00658e-26 -1.87447e-12 -1.87447e-12)
(5.08396e-27 6.98557e-13 0)
(-1.53272e-28 -2.22596e-14 -2.22596e-14)
(5.66901e-28 1.12015e-13 0)
(3.41406e-28 8.82612e-14 8.82612e-14)
(4.69848e-28 1.66431e-13 0)
(1.10891e-28 5.73738e-14 5.73738e-14)
(1.49851e-28 1.28612e-13 0)
(6.12017e-29 9.46436e-14 9.46436e-14)
(1.29976e-29 5.94306e-14 0)
(-6.15812e-15 6.86087e-07 6.86087e-07)
(-1.80384e-15 -8.47355e-07 0)
(-1.01505e-16 2.01013e-07 2.01013e-07)
(-5.71215e-18 -4.76826e-08 0)
(-3.21076e-19 1.1311e-08 1.1311e-08)
(-1.81347e-20 -2.68304e-09 0)
(-1.00523e-21 6.36506e-10 6.36506e-10)
(-5.96227e-23 -1.50822e-10 0)
(-2.74001e-24 3.59485e-11 3.59485e-11)
(-2.72916e-25 -8.37663e-12 0)
(8.66605e-27 2.15448e-12 2.15448e-12)
(-2.93457e-27 -3.52486e-13 0)
(9.76382e-28 1.81524e-13 1.81524e-13)
(1.09475e-28 2.3733e-14 0)
(4.05047e-28 1.15228e-13 1.15228e-13)
(3.15315e-28 1.19106e-13 0)
(3.85786e-28 2.1649e-13 2.1649e-13)
(1.29401e-28 1.26302e-13 0)
(4.25046e-29 8.19003e-14 8.19003e-14)
(2.04623e-29 9.95564e-14 0)
(-6.12473e-15 -6.8418e-07 -6.8418e-07)
(-1.79426e-15 8.45088e-07 -0)
(-1.00971e-16 -2.00474e-07 -2.00474e-07)
(-5.68031e-18 4.7555e-08 -0)
(-3.19775e-19 -1.12804e-08 -1.12804e-08)
(-1.79483e-20 2.67612e-09 -0)
(-1.01964e-21 -6.34529e-10 -6.34529e-10)
(-5.52776e-23 1.50741e-10 -0)
(-3.54217e-24 -3.55956e-11 -3.55956e-11)
(-1.11023e-25 8.59496e-12 -0)
(-2.27271e-26 -1.90418e-12 -1.90418e-12)
(2.21928e-27 4.9336e-13 0)
(-2.19861e-28 -4.5488e-14 -4.5488e-14)
(3.00531e-28 8.35288e-14 0)
(1.78474e-28 6.12492e-14 6.12492e-14)
(3.30395e-28 1.52096e-13 0)
(2.7597e-28 1.9812e-13 1.9812e-13)
(7.19752e-29 9.81683e-14 0)
(2.21782e-29 5.39277e-14 5.39277e-14)
(6.47858e-30 3.34111e-14 0)
(-6.09439e-15 6.82405e-07 6.82405e-07)
(-1.78578e-15 -8.43055e-07 0)
(-1.00492e-16 1.99993e-07 1.99993e-07)
(-5.65466e-18 -4.7441e-08 0)
(-3.18048e-19 1.12538e-08 1.12538e-08)
(-1.79224e-20 -2.66948e-09 0)
(-1.00242e-21 6.33333e-10 6.33333e-10)
(-5.76763e-23 -1.50093e-10 0)
(-2.96729e-24 3.56693e-11 3.56693e-11)
(-2.2459e-25 -8.39122e-12 0)
(-7.6336e-28 2.11526e-12 2.11526e-12)
(-1.93131e-27 -3.80908e-13 0)
(6.95919e-28 2.39468e-13 2.39468e-13)
(2.36929e-28 8.85523e-14 0)
(2.35999e-28 1.16798e-13 1.16798e-13)
(2.13258e-29 1.41455e-14 0)
(-2.77237e-29 -2.60079e-14 -2.60079e-14)
(2.70332e-29 3.95521e-14 0)
(-3.25608e-31 -8.15246e-16 -8.15246e-16)
(1.22614e-29 8.19982e-14 0)
(-6.06561e-15 -6.80688e-07 -6.80688e-07)
(-1.77787e-15 8.41146e-07 -0)
(-1.0005e-16 -1.99542e-07 -1.99542e-07)
(-5.62949e-18 4.73345e-08 -0)
(-3.16785e-19 -1.12285e-08 -1.12285e-08)
(-1.78177e-20 2.66364e-09 -0)
(-1.00466e-21 -6.31863e-10 -6.31863e-10)
(-5.60071e-23 1.4992e-10 -0)
(-3.26442e-24 -3.54215e-11 -3.54215e-11)
(-1.59222e-25 8.58259e-12 -0)
(-1.44584e-26 -1.94925e-12 -1.94925e-12)
(5.70848e-28 6.06745e-13 0)
(-1.10747e-28 -5.11982e-14 -5.11982e-14)
(2.96508e-28 2.04092e-13 0)
(1.31931e-28 1.0936e-13 1.0936e-13)
(4.64894e-29 5.15793e-14 0)
(6.8622e-29 9.93666e-14 9.93666e-14)
(-5.3266e-30 -1.18433e-14 0)
(9.72985e-30 3.64513e-14 3.64513e-14)
(3.00197e-30 3.52169e-14 0)
(-6.03949e-15 6.79114e-07 6.79114e-07)
(-1.77076e-15 -8.39421e-07 0)
(-9.9652e-17 1.99135e-07 1.99135e-07)
(-5.60727e-18 -4.72385e-08 0)
(-3.15568e-19 1.12059e-08 1.12059e-08)
(-1.7748e-20 -2.6583e-09 0)
(-1.00079e-21 6.30706e-10 6.30706e-10)
(-5.59869e-23 -1.49599e-10 0)
(-3.1961e-24 3.55231e-11 3.55231e-11)
(-1.75891e-25 -8.41082e-12 0)
(-9.81751e-27 2.05386e-12 2.05386e-12)
(-7.77134e-28 -4.49436e-13 0)
(4.29197e-29 1.67366e-13 1.67366e-13)
(-1.77357e-29 -2.96795e-14 0)
(3.6634e-30 6.62175e-15 6.62175e-15)
(2.34018e-29 4.40416e-14 0)
(3.59126e-29 9.35539e-14 9.35539e-14)
(1.60652e-29 1.16484e-13 0)
(2.09926e-30 6.52216e-14 6.52216e-14)
(-5.86804e-31 -2.11062e-14 0)
(-6.01601e-15 -6.77707e-07 -6.77707e-07)
(-1.76431e-15 8.37859e-07 -0)
(-9.92886e-17 -1.98767e-07 -1.98767e-07)
(-5.58777e-18 4.71518e-08 -0)
(-3.14296e-19 -1.11853e-08 -1.11853e-08)
(-1.77172e-20 2.6535e-09 -0)
(-9.90881e-22 -6.2944e-10 -6.2944e-10)
(-5.69307e-23 1.4936e-10 -0)
(-3.00559e-24 -3.54909e-11 -3.54909e-11)
(-2.02435e-25 8.4046e-12 -0)
(-6.02745e-27 -1.95708e-12 -1.95708e-12)
(-1.16543e-27 4.96561e-13 -0)
(2.68314e-29 -5.05732e-14 -5.05732e-14)
(5.82753e-30 -1.19905e-14 -0)
(3.20541e-30 -2.29631e-14 -2.29631e-14)
(-3.60906e-31 -2.45996e-14 0)
(-1.31008e-31 -1.2312e-15 -1.2312e-15)
(5.28907e-31 1.96014e-14 0)
(-3.25271e-30 3.62997e-14 3.62997e-14)
(1.00414e-30 -1.5457e-14 -0)
(-5.9939e-15 6.76376e-07 6.76376e-07)
(-1.75824e-15 -8.36387e-07 0)
(-9.89536e-17 1.98419e-07 1.98419e-07)
(-5.56759e-18 -4.70697e-08 0)
(-3.13544e-19 1.11661e-08 1.11661e-08)
(-1.75936e-20 -2.64884e-09 0)
(-1.0004e-21 6.28366e-10 6.28366e-10)
(-5.4363e-23 -1.49117e-10 0)
(-3.42112e-24 3.54301e-11 3.54301e-11)
(-1.29675e-25 -8.41315e-12 0)
(-1.68533e-26 1.8927e-12 1.8927e-12)
(6.49285e-28 -4.82643e-13 -0)
(-1.94741e-28 1.01984e-13 1.01984e-13)
(-1.48007e-29 1.46562e-14 -0)
(-1.47113e-29 2.09912e-14 2.09912e-14)
(-2.97377e-29 7.31344e-14 -0)
(-8.19739e-30 2.35574e-14 2.35574e-14)
(-1.35718e-29 3.65679e-14 -0)
(5.3943e-30 -3.14438e-14 -3.14438e-14)
(-2.42653e-31 4.2794e-15 -0)
(-5.9752e-15 -6.75296e-07 -6.75296e-07)
(-1.75291e-15 8.35105e-07 -0)
(-9.86455e-17 -1.98117e-07 -1.98117e-07)
(-5.55279e-18 4.6998e-08 -0)
(-3.12119e-19 -1.11493e-08 -1.11493e-08)
(-1.76408e-20 2.64485e-09 -0)
(-9.77998e-22 -6.27513e-10 -6.27513e-10)
(-5.77721e-23 1.48802e-10 -0)
(-2.76637e-24 -3.54222e-11 -3.54222e-11)
(-2.38369e-25 8.33334e-12 -0)
(7.17883e-28 -2.00751e-12 -2.00751e-12)
(-2.02756e-27 4.05068e-13 -0)
(3.60672e-28 -1.61023e-13 -1.61023e-13)
(8.16847e-29 -4.61769e-14 -0)
(4.27369e-30 -4.42891e-15 -4.42891e-15)
(1.14236e-29 -1.78365e-14 -0)
(-1.78427e-29 3.46099e-14 3.46099e-14)
(2.95534e-30 -6.6493e-15 -0)
(1.24257e-29 -6.98095e-14 -6.98095e-14)
(8.12309e-31 -4.6646e-14 -0)
(-5.95551e-15 6.74111e-07 6.74111e-07)
(-1.74744e-15 -8.33784e-07 0)
(-9.83532e-17 1.97804e-07 1.97804e-07)
(-5.53244e-18 -4.6924e-08 0)
(-3.11887e-19 1.11317e-08 1.11317e-08)
(-1.74455e-20 -2.64069e-09 0)
(-1.00156e-21 6.26499e-10 6.26499e-10)
(-5.28754e-23 -1.48613e-10 0)
(-3.57091e-24 3.5208e-11 3.5208e-11)
(-1.02302e-25 -8.44356e-12 0)
(-2.29652e-26 2.03308e-12 2.03308e-12)
(1.45564e-27 -4.36354e-13 -0)
(-4.85176e-28 1.42342e-13 1.42342e-13)
(1.94015e-28 -9.46955e-14 -0)
(1.14972e-28 -8.34717e-14 -8.34717e-14)
(-9.89182e-30 1.0489e-14 -0)
(3.98283e-29 -5.9524e-14 -5.9524e-14)
(2.70729e-29 -7.78346e-14 -0)
(4.72848e-30 -2.9221e-14 -2.9221e-14)
(1.20928e-30 -2.17434e-14 -0)
(-5.94141e-15 -6.734e-07 -6.734e-07)
(-1.74298e-15 8.32735e-07 -0)
(-9.80748e-17 -1.97555e-07 -1.97555e-07)
(-5.52298e-18 4.68651e-08 -0)
(-3.09997e-19 -1.11175e-08 -1.11175e-08)
(-1.7586e-20 2.63743e-09 -0)
(-9.65547e-22 -6.25648e-10 -6.25648e-10)
(-5.82897e-23 1.48434e-10 -0)
(-2.62543e-24 -3.5165e-11 -3.5165e-11)
(-2.55407e-25 8.38013e-12 -0)
(3.10159e-27 -1.99885e-12 -1.99885e-12)
(-2.6533e-27 4.72934e-13 -0)
(3.42258e-28 -1.24125e-13 -1.24125e-13)
(-3.44916e-28 1.56735e-13 -0)
(-8.63841e-29 5.35148e-14 5.35148e-14)
(1.44116e-29 -1.29894e-14 -0)
(2.77055e-29 -4.12798e-14 -4.12798e-14)
(2.16391e-29 -5.08397e-14 -0)
(6.14501e-30 -3.77536e-14 -3.77536e-14)
(1.01421e-30 -2.10864e-14 -0)
(-5.92048e-15 6.7203e-07 6.7203e-07)
(-1.73758e-15 -8.3141e-07 0)
(-9.78311e-17 1.97241e-07 1.97241e-07)
(-5.49906e-18 -4.67906e-08 0)
(-3.10632e-19 1.10997e-08 1.10997e-08)
(-1.73166e-20 -2.63336e-09 0)
(-1.00015e-21 6.24585e-10 6.24585e-10)
(-5.24583e-23 -1.48252e-10 0)
(-3.5544e-24 3.51339e-11 3.51339e-11)
(-1.04501e-25 -8.33721e-12 0)
(-2.07791e-26 1.93331e-12 1.93331e-12)
(1.30127e-27 -4.7611e-13 -0)
(-1.02476e-28 3.40989e-14 3.40989e-14)
(1.56734e-28 -9.11846e-14 -0)
(4.98621e-29 -3.89469e-14 -3.89469e-14)
(1.09427e-28 -1.38991e-13 -0)
(8.27662e-30 -1.91389e-14 -1.91389e-14)
(8.27184e-30 -2.54628e-14 -0)
(5.11579e-30 -2.87693e-14 -2.87693e-14)
(-2.08366e-31 5.6063e-15 -0)
(-5.92292e-15 -6.73e-07 -6.73e-07)
(-1.73637e-15 8.31562e-07 -0)
(-9.76743e-17 -1.97427e-07 -1.97427e-07)
(-5.50782e-18 4.68699e-08 -0)
(-3.08666e-19 -1.11272e-08 -1.11272e-08)
(-1.75175e-20 2.64163e-09 -0)
(-9.64042e-22 -6.27134e-10 -6.27134e-10)
(-5.7164e-23 1.48928e-10 -0)
(-2.76318e-24 -3.52907e-11 -3.52907e-11)
(-2.2371e-25 8.41252e-12 -0)
(-1.85054e-27 -1.95062e-12 -1.95062e-12)
(-1.91302e-27 4.99011e-13 -0)
(1.51239e-28 -9.44088e-14 -9.44088e-14)
(2.91315e-29 -2.30611e-14 -0)
(1.21939e-29 -1.47047e-14 -1.47047e-14)
(-1.85435e-29 3.2301e-14 -0)
(1.18369e-29 -3.49058e-14 -3.49058e-14)
(-1.65004e-30 7.33262e-15 -0)
(3.12815e-30 -2.21251e-14 -2.21251e-14)
(1.57187e-31 -4.16212e-14 -0)
(-5.91198e-15 6.72649e-07 6.72649e-07)
(-1.73093e-15 -8.3043e-07 0)
(-9.75723e-17 1.97121e-07 1.97121e-07)
(-5.50322e-18 -4.68916e-08 0)
(-3.10237e-19 1.11146e-08 1.11146e-08)
(-1.75739e-20 -2.66088e-09 0)
(-9.85319e-22 6.22938e-10 6.22938e-10)
(-5.70394e-23 -1.54836e-10 0)
(-3.01626e-24 3.2719e-11 3.2719e-11)
(-2.00648e-25 -1.05776e-11 0)
(-4.58048e-27 7.08072e-13 7.08072e-13)
(-3.25777e-28 -1.39605e-12 0)
(4.13312e-28 -4.53667e-13 -4.53667e-13)
(1.4302e-28 -3.76438e-13 -0)
(9.04325e-29 -2.26491e-13 -2.26491e-13)
(4.53051e-29 -1.59848e-13 -0)
(1.11719e-29 -7.1593e-14 -7.1593e-14)
(4.17446e-30 -3.80895e-14 -0)
(5.58902e-31 -1.20967e-14 -1.20967e-14)
(-3.96074e-32 -3.48316e-15 0)
)
;

boundaryField
{
    movingWall
    {
        type            calculated;
        value           nonuniform List<vector> 
20
(
(0 6.72693e-07 -0)
(0 -8.32316e-07 -0)
(0 1.97904e-07 -0)
(0 -4.73158e-08 -0)
(0 1.12168e-08 -0)
(0 -2.71896e-09 -0)
(0 6.28057e-10 -0)
(0 -1.64586e-10 -0)
(0 3.04563e-11 -0)
(0 -1.32347e-11 -0)
(0 -7.02128e-13 -0)
(0 -2.42097e-12 -0)
(0 -1.13771e-12 -0)
(0 -8.94946e-13 -0)
(0 -5.86967e-13 -0)
(0 -3.79594e-13 -0)
(0 -1.95019e-13 -0)
(0 -9.98022e-14 -0)
(0 -1.20967e-14 -0)
(0 -3.48316e-15 -0)
)
;
    }
    fixedWalls
    {
        type            calculated;
        value           nonuniform List<vector> 
60
(
(0 -3.64436e-06 -0)
(0 3.64147e-06 -0)
(0 -3.63504e-06 -0)
(0 3.63038e-06 -0)
(0 -3.62106e-06 -0)
(0 3.61182e-06 -0)
(0 -3.60132e-06 -0)
(0 3.59168e-06 -0)
(0 -3.58207e-06 -0)
(0 3.57345e-06 -0)
(0 -3.56535e-06 -0)
(0 3.55802e-06 -0)
(0 -3.55138e-06 -0)
(0 3.54513e-06 -0)
(0 -3.53968e-06 -0)
(0 3.53407e-06 -0)
(0 -3.52961e-06 -0)
(0 3.52398e-06 -0)
(0 -3.52204e-06 -0)
(0 3.51782e-06 -0)
(0 2.44061e-14 -0)
(0 -2.92326e-15 -0)
(0 1.43215e-14 -0)
(0 1.39157e-13 -0)
(0 1.1181e-13 -0)
(0 8.9018e-14 -0)
(0 6.03758e-14 -0)
(0 1.09319e-13 -0)
(0 5.04569e-14 -0)
(0 8.69183e-14 -0)
(0 3.40968e-14 -0)
(0 -1.5984e-14 -0)
(0 -2.59854e-14 -0)
(0 4.42401e-15 -0)
(0 -3.40708e-14 -0)
(0 -2.22465e-14 -0)
(0 -1.92392e-14 -0)
(0 1.22385e-14 -0)
(0 -2.86157e-14 -0)
(0 4.54844e-15 -0)
(0 -6.99301e-07 -0)
(0 8.63369e-07 -0)
(0 -2.05438e-07 -0)
(0 4.92236e-08 -0)
(0 -1.1636e-08 -0)
(0 2.84734e-09 -0)
(0 -6.44193e-10 -0)
(0 1.78342e-10 -0)
(0 -2.71974e-11 -0)
(0 1.72988e-11 -0)
(0 3.20636e-12 -0)
(0 4.25905e-12 -0)
(0 2.45231e-12 -0)
(0 1.73404e-12 -0)
(0 1.05755e-12 -0)
(0 6.59166e-13 -0)
(0 3.85647e-13 -0)
(0 1.59011e-13 -0)
(0 -7.10641e-14 -0)
(0 5.00954e-14 -0)
)
;
    }
    frontAndBack
    {
        type            empty;
    }
}


// ************************************************************************* //
