/*--------------------------------*- C++ -*----------------------------------*\
| =========                 |                                                 |
| \\      /  F ield         | OpenFOAM: The Open Source CFD Toolbox           |
|  \\    /   O peration     | Version:  2312                                  |
|   \\  /    A nd           | Website:  www.openfoam.com                      |
|    \\/     M anipulation  |                                                 |
\*---------------------------------------------------------------------------*/
FoamFile
{
    version     2.0;
    format      ascii;
    arch        "LSB;label=32;scalar=64";
    class       volScalarField;
    location    "4.625";
    object      pNear;
}
// * * * * * * * * * * * * * * * * * * * * * * * * * * * * * * * * * * * * * //

dimensions      [0 2 -2 0 0 0 0];

internalField   nonuniform List<scalar> 
400
(
9.11337e-16
0
1.166e-12
5.63787e-14
2.41359e-13
6.32641e-14
6.3004e-14
3.16363e-14
2.28383e-14
1.42198e-14
9.49038e-15
5.62166e-15
3.41952e-15
1.69738e-15
4.27009e-16
0
0
0
0
0
0
7.00412e-13
6.80931e-14
7.8704e-14
7.26823e-14
5.29874e-14
3.95823e-14
2.58766e-14
1.75948e-14
1.17106e-14
7.77544e-15
4.57681e-15
2.47038e-15
1.14275e-15
1.00541e-16
0
0
0
0
0
9.67186e-15
0
0
0
4.27054e-14
9.79063e-15
2.0737e-14
1.31216e-14
1.05307e-14
7.13981e-15
4.73356e-15
2.60592e-15
1.15995e-15
1.65693e-16
0
0
0
0
0
0
1.21697e-13
3.64856e-12
0
9.69606e-14
0
0
0
2.78761e-15
2.22318e-15
1.84683e-15
9.78044e-16
1.35624e-16
0
0
0
0
0
0
0
0
0
0
0
0
9.28192e-15
0
0
0
0
0
0
0
0
0
0
0
0
0
0
0
3.18698e-13
3.62189e-12
0
8.6399e-14
0
0
0
0
0
0
0
0
0
0
0
0
0
0
0
0
0
0
0
0
0
0
0
0
0
0
0
0
0
0
0
0
0
0
0
0
4.26973e-13
2.76384e-12
0
5.33891e-14
0
0
0
0
0
0
0
0
0
0
0
0
0
0
0
0
0
0
0
0
0
0
0
0
0
0
0
0
0
0
0
0
0
0
0
0
4.4131e-13
1.90858e-12
0
2.20984e-14
0
0
0
0
0
0
0
0
0
0
0
0
0
0
0
0
0
0
0
0
0
0
0
0
0
0
0
0
0
0
0
0
0
0
0
0
3.91901e-13
1.30193e-12
0
0
0
0
0
0
0
0
0
0
0
0
0
0
0
0
0
0
0
0
0
0
0
0
0
0
0
0
0
0
0
0
0
0
0
0
0
0
3.25014e-13
9.37398e-13
0
0
0
0
0
0
0
0
0
0
0
0
0
0
0
0
0
0
0
0
0
0
0
0
0
0
0
0
0
0
0
0
0
0
0
0
0
0
2.81097e-13
6.89613e-13
0
0
0
0
0
0
0
0
0
0
0
0
0
0
0
0
0
0
0
0
0
0
0
0
0
0
0
0
0
0
0
0
0
0
0
0
0
0
2.81818e-13
3.85274e-13
0
0
0
3.30267e-15
5.8453e-15
3.94284e-15
2.41565e-15
4.64844e-16
0
0
0
0
0
0
0
0
0
0
0
0
8.71496e-14
0
6.2107e-14
2.38349e-14
2.18378e-14
1.15382e-14
7.33243e-15
3.29313e-15
1.04293e-15
0
0
0
0
0
0
0
0
0
1.3401e-13
0
9.44613e-13
0
1.70278e-13
2.51643e-14
3.76131e-14
1.48548e-14
1.09554e-14
4.95384e-15
2.24913e-15
2.05332e-16
0
0
0
0
0
0
0
0
)
;

boundaryField
{
    movingWall
    {
        type            zeroGradient;
    }
    fixedWalls
    {
        type            calculated;
        value           nonuniform List<scalar> 
60
(
7.74636e-16
1.58748e-15
2.50248e-14
8.66384e-14
6.60592e-14
2.23089e-13
1.11851e-13
2.98881e-13
1.30242e-13
3.08917e-13
1.24982e-13
2.74331e-13
1.07537e-13
2.2751e-13
9.09167e-14
1.96768e-13
8.44373e-14
1.97273e-13
6.23742e-14
1.13908e-13
0
0
0
0
0
0
0
0
0
0
0
0
0
0
0
0
0
0
0
0
7.74636e-16
1.75037e-13
8.24656e-13
2.50569e-13
1.86898e-13
8.99393e-14
5.83379e-14
3.50217e-14
2.28652e-14
1.48032e-14
9.61949e-15
5.87165e-15
3.49152e-15
1.76515e-15
5.53514e-16
6.40514e-17
0
0
0
0
)
;
    }
    frontAndBack
    {
        type            empty;
    }
}


// ************************************************************************* //
