/*--------------------------------*- C++ -*----------------------------------*\
| =========                 |                                                 |
| \\      /  F ield         | OpenFOAM: The Open Source CFD Toolbox           |
|  \\    /   O peration     | Version:  2312                                  |
|   \\  /    A nd           | Website:  www.openfoam.com                      |
|    \\/     M anipulation  |                                                 |
\*---------------------------------------------------------------------------*/
FoamFile
{
    version     2.0;
    format      ascii;
    arch        "LSB;label=32;scalar=64";
    class       volScalarField;
    location    "4.625";
    object      QField;
}
// * * * * * * * * * * * * * * * * * * * * * * * * * * * * * * * * * * * * * //

dimensions      [0 0 -2 0 0 0 0];

internalField   nonuniform List<scalar> 
400
(
-5.79791e-16
3.82245e-16
3.64729e-17
7.35275e-18
1.77882e-19
8.42983e-20
-4.07086e-21
1.36923e-21
-1.72096e-22
3.17525e-23
-5.61907e-24
6.01914e-25
-2.934e-25
-5.24832e-26
-4.39033e-26
-2.41328e-26
-7.69482e-27
-5.66994e-27
-5.66943e-28
1.54132e-28
-2.99618e-15
-1.81291e-16
-2.22061e-17
4.13174e-18
5.36136e-20
4.44921e-20
-6.38506e-22
4.69218e-22
-3.59052e-23
5.45703e-24
-1.81898e-24
-2.92877e-25
-2.55217e-25
-1.0696e-25
-5.05647e-26
-2.43016e-26
-1.14782e-26
-1.44909e-27
2.28026e-27
-1.04106e-27
-2.92259e-15
-6.9712e-16
-6.51299e-17
-4.09719e-18
-1.36293e-19
-3.58938e-20
1.5225e-21
-4.781e-22
4.98625e-23
-1.06668e-23
4.64951e-25
-5.61272e-25
-1.40649e-25
-7.53615e-26
-3.67424e-26
-1.97711e-26
-7.58242e-27
-2.66299e-27
-6.16939e-27
-2.98297e-27
-8.3552e-16
-1.91245e-16
-1.6024e-17
-7.63962e-19
-9.00849e-20
6.9687e-21
-2.09268e-21
3.22126e-22
-5.84965e-23
7.85402e-24
-1.86869e-24
-8.42041e-26
-2.1151e-25
-8.82416e-26
-6.09691e-26
-2.13948e-26
-1.30122e-26
-8.94251e-27
-3.61282e-27
4.87159e-27
1.48707e-19
1.7432e-17
2.01123e-18
9.78545e-20
2.92664e-20
-4.42388e-21
1.19797e-21
-2.19903e-22
4.06275e-23
-8.33743e-24
8.89589e-25
-5.01859e-25
-1.19727e-25
-9.70968e-26
-4.14305e-26
-2.1204e-26
-1.72463e-26
-8.202e-27
0
2.69328e-27
6.44593e-16
1.66345e-16
1.72362e-17
8.58578e-19
5.98434e-20
7.02664e-21
-4.23035e-22
1.80212e-22
-2.97349e-23
5.40106e-24
-1.55618e-24
-1.95402e-26
-1.35165e-25
-4.07491e-26
-2.77269e-26
-2.00264e-26
-1.15635e-26
-9.05541e-27
-3.66539e-28
-1.88088e-29
8.5406e-16
2.18152e-16
2.07855e-17
1.13291e-18
7.95588e-20
3.93099e-21
7.96147e-22
-9.37816e-23
2.46148e-23
-4.73594e-24
5.04082e-25
-2.60797e-25
-8.7113e-26
-6.53951e-26
-3.03287e-26
-4.18584e-27
-1.94193e-26
-9.60795e-28
-1.26186e-27
-2.34555e-27
9.36297e-16
2.32644e-16
2.25702e-17
1.15478e-18
8.23987e-20
6.28121e-21
7.15637e-23
7.77491e-23
-1.27636e-23
2.58826e-24
-8.46557e-25
-3.83913e-26
-1.20505e-25
-5.01359e-26
-2.63278e-26
-9.39549e-27
2.94435e-27
-3.51246e-27
-6.38045e-28
2.03101e-27
8.75078e-16
2.16753e-16
2.0337e-17
1.10356e-18
7.13618e-20
5.35325e-21
3.27871e-22
-2.3657e-24
7.40712e-24
-1.81834e-24
9.31363e-26
-2.77522e-25
-6.58204e-26
-5.23158e-26
-3.99502e-26
-9.26778e-27
3.91978e-27
-9.24433e-28
-6.4825e-28
-1.64029e-27
7.73539e-16
1.88463e-16
1.77998e-17
9.1981e-19
6.48526e-20
4.31658e-21
2.31795e-22
2.03789e-23
-3.62448e-24
6.23121e-25
-3.13544e-25
-9.79999e-26
-7.96161e-26
-5.2329e-26
-2.77693e-26
-2.49872e-26
-1.46463e-26
-3.34321e-27
-2.89454e-27
1.48788e-27
6.37226e-16
1.539e-16
1.43405e-17
7.50546e-19
4.94658e-20
3.63175e-21
1.89283e-22
1.8615e-23
-3.1995e-24
5.69786e-25
-2.15606e-25
-9.3117e-26
-5.74553e-26
-4.03194e-26
-1.68965e-26
-2.64613e-27
-3.09857e-27
-5.25422e-27
-2.98599e-27
-6.59902e-28
4.98754e-16
1.19044e-16
1.09506e-17
5.72852e-19
3.78409e-20
2.36659e-21
3.01575e-22
-1.23768e-23
6.01533e-24
-1.19368e-24
8.36276e-26
-1.43155e-25
-6.68773e-26
-4.20417e-26
-1.82414e-26
-6.75073e-27
-2.61751e-27
5.67877e-28
5.96936e-28
-1.62601e-28
3.8742e-16
9.12407e-17
8.47774e-18
4.33238e-19
2.70279e-20
2.69786e-21
-8.45484e-23
5.91964e-23
-8.09996e-24
1.67774e-24
-6.3908e-25
-3.44023e-26
-7.21879e-26
-2.72014e-26
-1.83529e-26
-7.62714e-27
-3.96735e-27
-6.89902e-27
1.3537e-27
-4.58103e-28
2.77231e-16
6.56227e-17
5.69234e-18
3.15733e-19
2.11877e-20
1.39509e-22
3.8641e-22
-6.51071e-23
1.75168e-23
-3.29685e-24
2.23638e-25
-1.94912e-25
-4.16108e-26
-3.02905e-26
-1.38539e-26
-1.09286e-26
-1.78195e-27
-3.51208e-27
-2.39576e-28
-7.47573e-28
2.47219e-16
5.7071e-17
5.55529e-18
2.69102e-19
1.43525e-20
3.26528e-21
-4.07991e-22
1.11239e-22
-1.96941e-23
3.71154e-24
-8.76913e-25
-1.31415e-26
-7.70143e-26
-2.44478e-26
-1.77364e-26
-4.12624e-27
-1.93297e-27
-9.14914e-28
1.13112e-27
5.29658e-28
1.51149e-16
3.76705e-17
2.91731e-18
1.45851e-19
2.29631e-20
-3.29483e-21
8.93893e-22
-1.66498e-22
2.87287e-23
-5.17074e-24
7.37702e-25
-2.81196e-25
-3.62893e-26
-2.20219e-26
-1.00364e-26
-7.03053e-27
-8.43641e-28
1.37503e-27
0
0
2.71253e-16
6.51574e-17
6.28669e-18
4.27602e-19
-6.09208e-21
8.90011e-21
-1.17333e-21
2.30743e-22
-3.82924e-23
5.78404e-24
-1.21474e-24
3.92163e-26
-7.50282e-26
-3.27741e-26
-1.74823e-26
-8.0906e-27
-3.13653e-27
0
0
0
2.18372e-17
1.97058e-17
3.21548e-19
-4.99466e-19
5.29668e-20
-1.33826e-20
1.48361e-21
-2.64804e-22
3.40915e-23
-6.50905e-24
5.52961e-25
-2.64561e-25
-2.62728e-26
-1.91085e-26
-1.1433e-26
1.69359e-27
-2.15348e-27
-1.08749e-27
5.79551e-29
-7.02858e-28
1.15925e-15
7.95788e-16
7.28069e-17
7.94607e-18
4.33199e-19
5.60519e-20
1.48163e-21
4.4187e-22
-1.65397e-23
4.87508e-24
-9.25826e-25
-2.62255e-26
-9.8566e-26
-2.23349e-26
-1.32875e-26
-5.35135e-27
-1.49838e-27
-5.35933e-28
3.56752e-28
2.61898e-28
1.45884e-15
8.4458e-16
8.23485e-17
8.60151e-18
4.30038e-19
7.33167e-20
-5.00756e-22
8.79553e-22
-8.14641e-23
1.68418e-23
-2.57273e-24
3.49904e-25
-9.96993e-26
-1.0077e-26
-1.4557e-26
-3.67649e-27
-3.08404e-27
-6.09267e-28
-5.08456e-28
0
)
;

boundaryField
{
    movingWall
    {
        type            calculated;
        value           nonuniform List<scalar> 
20
(
2.09015e-15
2.19681e-15
1.22712e-16
1.59659e-17
1.06043e-19
1.3585e-19
-8.34324e-21
2.00093e-21
-2.57672e-22
4.3466e-23
-6.64939e-24
1.06701e-24
-1.72311e-25
1.84663e-26
-1.60734e-26
-5.77459e-28
-1.98776e-27
-2.12632e-28
-5.00931e-28
0
)
;
    }
    fixedWalls
    {
        type            calculated;
        value           nonuniform List<scalar> 
60
(
-3.04063e-15
-1.5721e-14
-1.53272e-14
-4.37695e-15
7.83685e-18
3.3866e-15
4.48467e-15
4.91457e-15
4.5929e-15
4.05942e-15
3.34416e-15
2.61734e-15
2.03331e-15
1.45503e-15
1.29762e-15
7.9347e-16
1.42346e-15
1.15051e-16
6.08043e-15
7.65308e-15
-3.11663e-28
-1.44627e-27
-2.36584e-27
4.60501e-27
2.25075e-27
-3.08163e-29
-2.37117e-27
2.33853e-27
-2.10232e-27
1.62124e-27
1.08118e-27
-3.01436e-28
-7.50557e-28
-8.25931e-28
1.88807e-28
0
0
-5.99786e-28
-1.74604e-28
0
2.24532e-15
2.34638e-15
1.2159e-16
2.00227e-17
-2.82032e-19
2.00573e-19
-1.67738e-20
3.37021e-21
-4.72036e-22
8.20882e-23
-1.33339e-23
2.1212e-24
-4.1664e-25
3.15571e-26
-3.09854e-26
-1.27373e-26
-3.149e-27
-3.97175e-27
-2.26654e-27
2.52531e-28
)
;
    }
    frontAndBack
    {
        type            empty;
    }
}


// ************************************************************************* //
