/*--------------------------------*- C++ -*----------------------------------*\
| =========                 |                                                 |
| \\      /  F ield         | OpenFOAM: The Open Source CFD Toolbox           |
|  \\    /   O peration     | Version:  2312                                  |
|   \\  /    A nd           | Website:  www.openfoam.com                      |
|    \\/     M anipulation  |                                                 |
\*---------------------------------------------------------------------------*/
FoamFile
{
    version     2.0;
    format      ascii;
    arch        "LSB;label=32;scalar=64";
    class       volScalarField;
    location    "4.625";
    object      Uy;
}
// * * * * * * * * * * * * * * * * * * * * * * * * * * * * * * * * * * * * * //

dimensions      [0 1 -1 0 0 0 0];

internalField   nonuniform List<scalar> 
400
(
9.11299e-09
-2.16336e-09
5.14233e-10
-1.21957e-10
2.90654e-11
-6.8692e-12
1.65377e-12
-3.81529e-13
9.81672e-14
-1.85165e-14
7.78024e-15
4.90115e-16
1.60501e-15
8.35971e-16
6.95864e-16
4.74549e-16
3.2145e-16
1.7079e-16
6.36122e-17
-6.74739e-18
-9.11445e-09
2.16626e-09
-5.13327e-10
1.22193e-10
-2.88208e-11
6.92736e-12
-1.5906e-12
4.08688e-13
-7.65939e-14
3.16963e-14
1.97542e-15
6.20976e-15
3.3094e-15
2.61164e-15
1.8267e-15
1.33225e-15
9.1985e-16
4.81089e-16
1.45553e-16
6.04545e-17
9.09807e-09
-2.16044e-09
5.12999e-10
-1.2157e-10
2.90233e-11
-6.78967e-12
1.67732e-12
-3.56143e-13
1.13093e-13
-7.13176e-15
1.57074e-14
6.27071e-15
5.69084e-15
3.74941e-15
2.7079e-15
1.96883e-15
1.38013e-15
8.25249e-16
3.78931e-16
1.71329e-16
-9.0789e-09
2.15472e-09
-5.11137e-10
1.21407e-10
-2.87026e-11
6.89324e-12
-1.57477e-12
4.17297e-13
-6.7759e-14
3.85621e-14
7.20948e-15
1.02686e-14
6.37295e-15
4.96847e-15
3.49243e-15
2.52554e-15
1.74677e-15
1.14231e-15
6.86281e-16
2.12368e-16
9.05255e-09
-2.14764e-09
5.09596e-10
-1.20814e-10
2.87379e-11
-6.75392e-12
1.65353e-12
-3.52809e-13
1.13434e-13
-4.75479e-15
1.77836e-14
8.37631e-15
7.51709e-15
5.33462e-15
4.01391e-15
2.85426e-15
2.05819e-15
1.41436e-15
7.81883e-16
2.11763e-16
-9.02711e-09
2.14122e-09
-5.07916e-10
1.20532e-10
-2.85358e-11
6.81776e-12
-1.57587e-12
4.07342e-13
-7.00165e-14
3.7299e-14
7.13242e-15
1.06239e-14
6.90221e-15
5.36378e-15
3.89546e-15
2.84287e-15
2.04834e-15
1.37901e-15
7.51752e-16
2.22545e-16
9.00012e-09
-2.1346e-09
5.06401e-10
-1.20076e-10
2.8518e-11
-6.7286e-12
1.62783e-12
-3.58827e-13
1.07604e-13
-7.40114e-15
1.60396e-14
7.2778e-15
6.88564e-15
5.06094e-15
3.86813e-15
2.82308e-15
1.93277e-15
1.16514e-15
6.46654e-16
2.18702e-16
-8.97571e-09
2.12879e-09
-5.04966e-10
1.19795e-10
-2.83861e-11
6.75902e-12
-1.57929e-12
3.95319e-13
-7.62203e-14
3.25806e-14
4.02235e-15
8.32537e-15
5.3788e-15
4.61278e-15
3.51516e-15
2.64734e-15
1.782e-15
1.02454e-15
5.18979e-16
2.05534e-16
8.95193e-09
-2.12316e-09
5.03662e-10
-1.19447e-10
2.83478e-11
-6.70685e-12
1.60692e-12
-3.66705e-13
9.95113e-14
-1.29172e-14
1.19354e-14
4.4983e-15
4.83339e-15
3.59793e-15
2.9139e-15
2.17229e-15
1.39294e-15
7.33182e-16
4.11257e-16
1.93905e-16
-8.93076e-09
2.11823e-09
-5.02475e-10
1.19194e-10
-2.82613e-11
6.71381e-12
-1.58276e-12
3.84271e-13
-8.31889e-14
2.67649e-14
-3.60883e-16
5.07026e-15
2.9061e-15
2.67558e-15
2.02058e-15
1.5076e-15
1.06597e-15
6.83482e-16
3.99398e-16
1.49533e-16
8.911e-09
-2.11363e-09
5.01396e-10
-1.1893e-10
2.82126e-11
-6.68922e-12
1.59e-12
-3.7358e-13
9.21591e-14
-1.85517e-14
7.4174e-15
9.40838e-16
2.1631e-15
1.45282e-15
1.20639e-15
9.0132e-16
6.90595e-16
4.49755e-16
2.66927e-16
8.52421e-17
-8.89319e-09
2.1095e-09
-5.00423e-10
1.18701e-10
-2.81609e-11
6.67642e-12
-1.58678e-12
3.74246e-13
-8.99724e-14
2.09125e-14
-4.78002e-15
1.72913e-15
2.56442e-16
5.97573e-16
5.53237e-16
5.31355e-16
3.83871e-16
1.37918e-16
3.21865e-17
2.78025e-17
8.877e-09
-2.10574e-09
4.99524e-10
-1.18506e-10
2.80989e-11
-6.67692e-12
1.57422e-12
-3.81163e-13
8.46864e-14
-2.40862e-14
3.07981e-15
-2.347e-15
-5.30545e-16
-4.86011e-16
-1.39589e-16
1.46712e-17
1.06407e-16
2.69832e-17
-8.96071e-17
-6.49634e-17
-8.86178e-09
2.10219e-09
-4.98709e-10
1.18284e-10
-2.80799e-11
6.64199e-12
-1.59207e-12
3.64565e-13
-9.65596e-14
1.54133e-14
-8.90436e-15
-1.34527e-15
-1.90952e-15
-1.00986e-15
-7.00834e-16
-4.06617e-16
-3.47976e-16
-3.7114e-16
-1.71554e-16
-5.67026e-17
8.84827e-09
-2.09903e-09
4.97916e-10
-1.1815e-10
2.79945e-11
-6.66989e-12
1.55853e-12
-3.88248e-13
7.80969e-14
-2.86043e-14
-3.57599e-16
-5.00549e-15
-2.23987e-15
-1.76895e-15
-9.64954e-16
-6.40461e-16
-5.15538e-16
-4.44459e-16
-1.77995e-16
-1.74143e-17
-8.83461e-09
2.09579e-09
-4.97226e-10
1.17902e-10
-2.8018e-11
6.60642e-12
-1.59866e-12
3.55794e-13
-1.01423e-13
1.2116e-14
-1.12957e-14
-3.33592e-15
-3.40853e-15
-2.04883e-15
-1.37738e-15
-9.43066e-16
-6.69114e-16
-3.47827e-16
-1.61818e-16
-5.56162e-17
8.823e-09
-2.09308e-09
4.96443e-10
-1.17848e-10
2.78837e-11
-6.66788e-12
1.54328e-12
-3.92699e-13
7.46602e-14
-3.04777e-14
-1.55169e-15
-5.61029e-15
-2.75737e-15
-2.20064e-15
-1.61421e-15
-1.10948e-15
-6.71163e-16
-4.25634e-16
-1.62766e-16
-4.8098e-17
-8.80986e-09
2.08992e-09
-4.95998e-10
1.17525e-10
-2.79856e-11
6.57584e-12
-1.60131e-12
3.53844e-13
-1.01167e-13
1.25342e-14
-1.07479e-14
-2.73313e-15
-3.00525e-15
-1.71887e-15
-1.28026e-15
-7.87299e-16
-4.32449e-16
-3.24859e-16
-1.77821e-16
-3.71664e-17
8.80077e-09
-2.08808e-09
4.94737e-10
-1.17513e-10
2.77396e-11
-6.63132e-12
1.53722e-12
-3.83837e-13
7.82977e-14
-2.65925e-14
9.48692e-16
-3.83363e-15
-1.60196e-15
-1.26323e-15
-8.29251e-16
-5.74086e-16
-3.39109e-16
-2.25028e-16
-1.41384e-16
-3.7766e-18
-8.78911e-09
2.08438e-09
-4.94987e-10
1.17361e-10
-2.79124e-11
6.60454e-12
-1.58173e-12
3.68386e-13
-9.21868e-14
1.89692e-14
-6.46895e-15
2.33356e-16
-9.11046e-16
-3.79931e-16
-3.99277e-16
-2.83425e-16
-1.56047e-16
-1.09596e-16
-4.62027e-17
1.13711e-17
)
;

boundaryField
{
    movingWall
    {
        type            calculated;
        value           uniform -0;
    }
    fixedWalls
    {
        type            calculated;
        value           uniform -0;
    }
    frontAndBack
    {
        type            empty;
    }
}


// ************************************************************************* //
