/*--------------------------------*- C++ -*----------------------------------*\
| =========                 |                                                 |
| \\      /  F ield         | OpenFOAM: The Open Source CFD Toolbox           |
|  \\    /   O peration     | Version:  2312                                  |
|   \\  /    A nd           | Website:  www.openfoam.com                      |
|    \\/     M anipulation  |                                                 |
\*---------------------------------------------------------------------------*/
FoamFile
{
    version     2.0;
    format      ascii;
    arch        "LSB;label=32;scalar=64";
    class       volVectorField;
    location    "4.625";
    object      vorticityField;
}
// * * * * * * * * * * * * * * * * * * * * * * * * * * * * * * * * * * * * * //

dimensions      [0 0 -1 0 0 0 0];

internalField   nonuniform List<vector> 
400
(
(0 -0 6.94128e-07)
(0 -0 -8.6032e-07)
(0 -0 2.04319e-07)
(0 -0 -4.86681e-08)
(0 -0 1.15246e-08)
(0 -0 -2.77184e-09)
(0 -0 6.42696e-10)
(0 -0 -1.64342e-10)
(0 -0 3.17747e-11)
(0 -0 -1.26979e-11)
(0 -0 -4.57474e-13)
(0 -0 -2.29804e-12)
(0 -0 -1.13093e-12)
(0 -0 -8.49856e-13)
(0 -0 -5.24033e-13)
(0 -0 -3.08492e-13)
(0 -0 -2.20111e-13)
(0 -0 -7.99939e-14)
(0 -0 -1.77538e-14)
(0 -0 -3.27915e-14)
(0 -0 -6.9051e-07)
(0 -0 8.59902e-07)
(0 -0 -2.04299e-07)
(0 -0 4.8536e-08)
(0 -0 -1.15312e-08)
(0 -0 2.7394e-09)
(0 -0 -6.50892e-10)
(0 -0 1.54544e-10)
(0 -0 -3.68047e-11)
(0 -0 8.72429e-12)
(0 -0 -2.08787e-12)
(0 -0 4.04449e-13)
(0 -0 -1.42972e-13)
(0 -0 -1.27452e-14)
(0 -0 -7.37291e-14)
(0 -0 -9.06848e-14)
(0 -0 -8.51158e-14)
(0 -0 -1.04535e-13)
(0 -0 -9.62735e-14)
(0 -0 6.50432e-15)
(0 -0 6.89572e-07)
(0 -0 -8.57701e-07)
(0 -0 2.03568e-07)
(0 -0 -4.83136e-08)
(0 -0 1.14662e-08)
(0 -0 -2.72151e-09)
(0 -0 6.45738e-10)
(0 -0 -1.5336e-10)
(0 -0 3.63648e-11)
(0 -0 -8.68144e-12)
(0 -0 1.90945e-12)
(0 -0 -5.95081e-13)
(0 -0 -8.94995e-14)
(0 -0 -2.16979e-13)
(0 -0 -1.23848e-13)
(0 -0 -1.05672e-13)
(0 -0 -8.72533e-14)
(0 -0 -1.27225e-13)
(0 -0 -3.8287e-14)
(0 -0 -8.15904e-16)
(0 -0 -6.91243e-07)
(0 -0 8.56561e-07)
(0 -0 -2.03254e-07)
(0 -0 4.82283e-08)
(0 -0 -1.14438e-08)
(0 -0 2.71539e-09)
(0 -0 -6.44396e-10)
(0 -0 1.52842e-10)
(0 -0 -3.63285e-11)
(0 -0 8.55394e-12)
(0 -0 -2.17883e-12)
(0 -0 3.77133e-13)
(0 -0 -1.77651e-13)
(0 -0 -7.12114e-14)
(0 -0 -8.16625e-14)
(0 -0 -9.32511e-14)
(0 -0 -8.41129e-14)
(0 -0 -5.18387e-14)
(0 -0 -6.58891e-14)
(0 -0 -1.44075e-13)
(0 -0 6.90531e-07)
(0 -0 -8.54325e-07)
(0 -0 2.02694e-07)
(0 -0 -4.80887e-08)
(0 -0 1.14087e-08)
(0 -0 -2.70689e-09)
(0 -0 6.41981e-10)
(0 -0 -1.526e-10)
(0 -0 3.5971e-11)
(0 -0 -8.69767e-12)
(0 -0 1.99074e-12)
(0 -0 -5.38765e-13)
(0 -0 7.53019e-14)
(0 -0 -7.92671e-14)
(0 -0 -8.54055e-14)
(0 -0 -8.71521e-14)
(0 -0 -3.55698e-14)
(0 -0 -7.34203e-14)
(0 -0 -1.2026e-13)
(0 -0 -1.2647e-13)
(0 -0 -6.89562e-07)
(0 -0 8.52124e-07)
(0 -0 -2.02156e-07)
(0 -0 4.79565e-08)
(0 -0 -1.13768e-08)
(0 -0 2.69863e-09)
(0 -0 -6.40419e-10)
(0 -0 1.51778e-10)
(0 -0 -3.62183e-11)
(0 -0 8.41963e-12)
(0 -0 -2.0983e-12)
(0 -0 4.37765e-13)
(0 -0 -2.82067e-13)
(0 -0 -1.6515e-13)
(0 -0 -1.43671e-13)
(0 -0 -7.62912e-14)
(0 -0 -6.50709e-14)
(0 -0 -7.54489e-14)
(0 -0 -1.15646e-13)
(0 -0 -9.74297e-14)
(0 -0 6.8783e-07)
(0 -0 -8.49636e-07)
(0 -0 2.01557e-07)
(0 -0 -4.78126e-08)
(0 -0 1.13419e-08)
(0 -0 -2.69053e-09)
(0 -0 6.38224e-10)
(0 -0 -1.51427e-10)
(0 -0 3.58473e-11)
(0 -0 -8.66859e-12)
(0 -0 1.87447e-12)
(0 -0 -6.98557e-13)
(0 -0 2.22596e-14)
(0 -0 -1.12015e-13)
(0 -0 -8.82612e-14)
(0 -0 -1.66431e-13)
(0 -0 -5.73738e-14)
(0 -0 -1.28612e-13)
(0 -0 -9.46436e-14)
(0 -0 -5.94306e-14)
(0 -0 -6.86087e-07)
(0 -0 8.47355e-07)
(0 -0 -2.01013e-07)
(0 -0 4.76826e-08)
(0 -0 -1.1311e-08)
(0 -0 2.68304e-09)
(0 -0 -6.36506e-10)
(0 -0 1.50822e-10)
(0 -0 -3.59485e-11)
(0 -0 8.37663e-12)
(0 -0 -2.15448e-12)
(0 -0 3.52486e-13)
(0 -0 -1.81524e-13)
(0 -0 -2.3733e-14)
(0 -0 -1.15228e-13)
(0 -0 -1.19106e-13)
(0 -0 -2.1649e-13)
(0 -0 -1.26302e-13)
(0 -0 -8.19003e-14)
(0 -0 -9.95564e-14)
(0 -0 6.8418e-07)
(0 -0 -8.45088e-07)
(0 -0 2.00474e-07)
(0 -0 -4.7555e-08)
(0 -0 1.12804e-08)
(0 -0 -2.67612e-09)
(0 -0 6.34529e-10)
(0 -0 -1.50741e-10)
(0 -0 3.55956e-11)
(0 -0 -8.59496e-12)
(0 -0 1.90418e-12)
(0 -0 -4.9336e-13)
(0 -0 4.5488e-14)
(0 -0 -8.35288e-14)
(0 -0 -6.12492e-14)
(0 -0 -1.52096e-13)
(0 -0 -1.9812e-13)
(0 -0 -9.81683e-14)
(0 -0 -5.39277e-14)
(0 -0 -3.34111e-14)
(0 -0 -6.82405e-07)
(0 -0 8.43055e-07)
(0 -0 -1.99993e-07)
(0 -0 4.7441e-08)
(0 -0 -1.12538e-08)
(0 -0 2.66948e-09)
(0 -0 -6.33333e-10)
(0 -0 1.50093e-10)
(0 -0 -3.56693e-11)
(0 -0 8.39122e-12)
(0 -0 -2.11526e-12)
(0 -0 3.80908e-13)
(0 -0 -2.39468e-13)
(0 -0 -8.85523e-14)
(0 -0 -1.16798e-13)
(0 -0 -1.41455e-14)
(0 -0 2.60079e-14)
(0 -0 -3.95521e-14)
(0 -0 8.15246e-16)
(0 -0 -8.19982e-14)
(0 -0 6.80688e-07)
(0 -0 -8.41146e-07)
(0 -0 1.99542e-07)
(0 -0 -4.73345e-08)
(0 -0 1.12285e-08)
(0 -0 -2.66364e-09)
(0 -0 6.31863e-10)
(0 -0 -1.4992e-10)
(0 -0 3.54215e-11)
(0 -0 -8.58259e-12)
(0 -0 1.94925e-12)
(0 -0 -6.06745e-13)
(0 -0 5.11982e-14)
(0 -0 -2.04092e-13)
(0 -0 -1.0936e-13)
(0 -0 -5.15793e-14)
(0 -0 -9.93666e-14)
(0 -0 1.18433e-14)
(0 -0 -3.64513e-14)
(0 -0 -3.52169e-14)
(0 -0 -6.79114e-07)
(0 -0 8.39421e-07)
(0 -0 -1.99135e-07)
(0 -0 4.72385e-08)
(0 -0 -1.12059e-08)
(0 -0 2.6583e-09)
(0 -0 -6.30706e-10)
(0 -0 1.49599e-10)
(0 -0 -3.55231e-11)
(0 -0 8.41082e-12)
(0 -0 -2.05386e-12)
(0 -0 4.49436e-13)
(0 -0 -1.67366e-13)
(0 -0 2.96795e-14)
(0 -0 -6.62175e-15)
(0 -0 -4.40416e-14)
(0 -0 -9.35539e-14)
(0 -0 -1.16484e-13)
(0 -0 -6.52216e-14)
(0 -0 2.11062e-14)
(0 -0 6.77707e-07)
(0 -0 -8.37859e-07)
(0 -0 1.98767e-07)
(0 -0 -4.71518e-08)
(0 -0 1.11853e-08)
(0 -0 -2.6535e-09)
(0 -0 6.2944e-10)
(0 -0 -1.4936e-10)
(0 -0 3.54909e-11)
(0 -0 -8.4046e-12)
(0 -0 1.95708e-12)
(0 -0 -4.96561e-13)
(0 -0 5.05732e-14)
(0 -0 1.19905e-14)
(0 -0 2.29631e-14)
(0 -0 2.45996e-14)
(0 -0 1.2312e-15)
(0 -0 -1.96014e-14)
(0 -0 -3.62997e-14)
(0 -0 1.5457e-14)
(0 -0 -6.76376e-07)
(0 -0 8.36387e-07)
(0 -0 -1.98419e-07)
(0 -0 4.70697e-08)
(0 -0 -1.11661e-08)
(0 -0 2.64884e-09)
(0 -0 -6.28366e-10)
(0 -0 1.49117e-10)
(0 -0 -3.54301e-11)
(0 -0 8.41315e-12)
(0 -0 -1.8927e-12)
(0 -0 4.82643e-13)
(0 -0 -1.01984e-13)
(0 -0 -1.46562e-14)
(0 -0 -2.09912e-14)
(0 -0 -7.31344e-14)
(0 -0 -2.35574e-14)
(0 -0 -3.65679e-14)
(0 -0 3.14438e-14)
(0 -0 -4.2794e-15)
(0 -0 6.75296e-07)
(0 -0 -8.35105e-07)
(0 -0 1.98117e-07)
(0 -0 -4.6998e-08)
(0 -0 1.11493e-08)
(0 -0 -2.64485e-09)
(0 -0 6.27513e-10)
(0 -0 -1.48802e-10)
(0 -0 3.54222e-11)
(0 -0 -8.33334e-12)
(0 -0 2.00751e-12)
(0 -0 -4.05068e-13)
(0 -0 1.61023e-13)
(0 -0 4.61769e-14)
(0 -0 4.42891e-15)
(0 -0 1.78365e-14)
(0 -0 -3.46099e-14)
(0 -0 6.6493e-15)
(0 -0 6.98095e-14)
(0 -0 4.6646e-14)
(0 -0 -6.74111e-07)
(0 -0 8.33784e-07)
(0 -0 -1.97804e-07)
(0 -0 4.6924e-08)
(0 -0 -1.11317e-08)
(0 -0 2.64069e-09)
(0 -0 -6.26499e-10)
(0 -0 1.48613e-10)
(0 -0 -3.5208e-11)
(0 -0 8.44356e-12)
(0 -0 -2.03308e-12)
(0 -0 4.36354e-13)
(0 -0 -1.42342e-13)
(0 -0 9.46955e-14)
(0 -0 8.34717e-14)
(0 -0 -1.0489e-14)
(0 -0 5.9524e-14)
(0 -0 7.78346e-14)
(0 -0 2.9221e-14)
(0 -0 2.17434e-14)
(0 -0 6.734e-07)
(0 -0 -8.32735e-07)
(0 -0 1.97555e-07)
(0 -0 -4.68651e-08)
(0 -0 1.11175e-08)
(0 -0 -2.63743e-09)
(0 -0 6.25648e-10)
(0 -0 -1.48434e-10)
(0 -0 3.5165e-11)
(0 -0 -8.38013e-12)
(0 -0 1.99885e-12)
(0 -0 -4.72934e-13)
(0 -0 1.24125e-13)
(0 -0 -1.56735e-13)
(0 -0 -5.35148e-14)
(0 -0 1.29894e-14)
(0 -0 4.12798e-14)
(0 -0 5.08397e-14)
(0 -0 3.77536e-14)
(0 -0 2.10864e-14)
(0 -0 -6.7203e-07)
(0 -0 8.3141e-07)
(0 -0 -1.97241e-07)
(0 -0 4.67906e-08)
(0 -0 -1.10997e-08)
(0 -0 2.63336e-09)
(0 -0 -6.24585e-10)
(0 -0 1.48252e-10)
(0 -0 -3.51339e-11)
(0 -0 8.33721e-12)
(0 -0 -1.93331e-12)
(0 -0 4.7611e-13)
(0 -0 -3.40989e-14)
(0 -0 9.11846e-14)
(0 -0 3.89469e-14)
(0 -0 1.38991e-13)
(0 -0 1.91389e-14)
(0 -0 2.54628e-14)
(0 -0 2.87693e-14)
(0 -0 -5.6063e-15)
(0 -0 6.73e-07)
(0 -0 -8.31562e-07)
(0 -0 1.97427e-07)
(0 -0 -4.68699e-08)
(0 -0 1.11272e-08)
(0 -0 -2.64163e-09)
(0 -0 6.27134e-10)
(0 -0 -1.48928e-10)
(0 -0 3.52907e-11)
(0 -0 -8.41252e-12)
(0 -0 1.95062e-12)
(0 -0 -4.99011e-13)
(0 -0 9.44088e-14)
(0 -0 2.30611e-14)
(0 -0 1.47047e-14)
(0 -0 -3.2301e-14)
(0 -0 3.49058e-14)
(0 -0 -7.33262e-15)
(0 -0 2.21251e-14)
(0 -0 4.16212e-14)
(0 -0 -6.72649e-07)
(0 -0 8.3043e-07)
(0 -0 -1.97121e-07)
(0 -0 4.68916e-08)
(0 -0 -1.11146e-08)
(0 -0 2.66088e-09)
(0 -0 -6.22938e-10)
(0 -0 1.54836e-10)
(0 -0 -3.2719e-11)
(0 -0 1.05776e-11)
(0 -0 -7.08072e-13)
(0 -0 1.39605e-12)
(0 -0 4.53667e-13)
(0 -0 3.76438e-13)
(0 -0 2.26491e-13)
(0 -0 1.59848e-13)
(0 -0 7.1593e-14)
(0 -0 3.80895e-14)
(0 -0 1.20967e-14)
(0 -0 3.48316e-15)
)
;

boundaryField
{
    movingWall
    {
        type            calculated;
        value           nonuniform List<vector> 
20
(
(0 -0 -6.72693e-07)
(0 -0 8.32316e-07)
(0 -0 -1.97904e-07)
(0 -0 4.73158e-08)
(0 -0 -1.12168e-08)
(0 -0 2.71896e-09)
(0 -0 -6.28057e-10)
(0 -0 1.64586e-10)
(0 -0 -3.04563e-11)
(0 -0 1.32347e-11)
(0 -0 7.02128e-13)
(0 -0 2.42097e-12)
(0 -0 1.13771e-12)
(0 -0 8.94946e-13)
(0 -0 5.86967e-13)
(0 -0 3.79594e-13)
(0 -0 1.95019e-13)
(0 -0 9.98022e-14)
(0 -0 1.20967e-14)
(0 -0 3.48316e-15)
)
;
    }
    fixedWalls
    {
        type            calculated;
        value           nonuniform List<vector> 
60
(
(0 -0 3.64436e-06)
(0 -0 -3.64147e-06)
(0 -0 3.63504e-06)
(0 -0 -3.63038e-06)
(0 -0 3.62106e-06)
(0 -0 -3.61182e-06)
(0 -0 3.60132e-06)
(0 -0 -3.59168e-06)
(0 -0 3.58207e-06)
(0 -0 -3.57345e-06)
(0 -0 3.56535e-06)
(0 -0 -3.55802e-06)
(0 -0 3.55138e-06)
(0 -0 -3.54513e-06)
(0 -0 3.53968e-06)
(0 -0 -3.53407e-06)
(0 -0 3.52961e-06)
(0 -0 -3.52398e-06)
(0 -0 3.52204e-06)
(0 -0 -3.51782e-06)
(0 -0 -2.44061e-14)
(0 -0 2.92326e-15)
(0 -0 -1.43215e-14)
(0 -0 -1.39157e-13)
(0 -0 -1.1181e-13)
(0 -0 -8.9018e-14)
(0 -0 -6.03758e-14)
(0 -0 -1.09319e-13)
(0 -0 -5.04569e-14)
(0 -0 -8.69183e-14)
(0 -0 -3.40968e-14)
(0 -0 1.5984e-14)
(0 -0 2.59854e-14)
(0 -0 -4.42401e-15)
(0 -0 3.40708e-14)
(0 -0 2.22465e-14)
(0 -0 1.92392e-14)
(0 -0 -1.22385e-14)
(0 -0 2.86157e-14)
(0 -0 -4.54844e-15)
(0 -0 6.99301e-07)
(0 -0 -8.63369e-07)
(0 -0 2.05438e-07)
(0 -0 -4.92236e-08)
(0 -0 1.1636e-08)
(0 -0 -2.84734e-09)
(0 -0 6.44193e-10)
(0 -0 -1.78342e-10)
(0 -0 2.71974e-11)
(0 -0 -1.72988e-11)
(0 -0 -3.20636e-12)
(0 -0 -4.25905e-12)
(0 -0 -2.45231e-12)
(0 -0 -1.73404e-12)
(0 -0 -1.05755e-12)
(0 -0 -6.59166e-13)
(0 -0 -3.85647e-13)
(0 -0 -1.59011e-13)
(0 -0 7.10641e-14)
(0 -0 -5.00954e-14)
)
;
    }
    frontAndBack
    {
        type            empty;
    }
}


// ************************************************************************* //
