/*--------------------------------*- C++ -*----------------------------------*\
| =========                 |                                                 |
| \\      /  F ield         | OpenFOAM: The Open Source CFD Toolbox           |
|  \\    /   O peration     | Version:  2312                                  |
|   \\  /    A nd           | Website:  www.openfoam.com                      |
|    \\/     M anipulation  |                                                 |
\*---------------------------------------------------------------------------*/
FoamFile
{
    version     2.0;
    format      ascii;
    arch        "LSB;label=32;scalar=64";
    class       volVectorField;
    location    "4.625";
    object      zeroGradient(U);
}
// * * * * * * * * * * * * * * * * * * * * * * * * * * * * * * * * * * * * * //

dimensions      [0 1 -1 0 0 0 0];

internalField   nonuniform List<vector> 
400
(
(-1 9.11299e-09 0)
(-1 -2.16336e-09 0)
(-1 5.14233e-10 0)
(-1 -1.21957e-10 0)
(-1 2.90654e-11 0)
(-1 -6.8692e-12 0)
(-1 1.65377e-12 0)
(-1 -3.81529e-13 0)
(-1 9.81672e-14 0)
(-1 -1.85165e-14 0)
(-1 7.78024e-15 0)
(-1 4.90115e-16 0)
(-1 1.60501e-15 0)
(-1 8.35971e-16 0)
(-1 6.95864e-16 0)
(-1 4.74549e-16 0)
(-1 3.2145e-16 0)
(-1 1.7079e-16 0)
(-1 6.36122e-17 0)
(-1 -6.74739e-18 0)
(-1 -9.11445e-09 0)
(-1 2.16626e-09 0)
(-1 -5.13327e-10 0)
(-1 1.22193e-10 0)
(-1 -2.88208e-11 0)
(-1 6.92736e-12 0)
(-1 -1.5906e-12 0)
(-1 4.08688e-13 0)
(-1 -7.65939e-14 0)
(-1 3.16963e-14 0)
(-1 1.97542e-15 0)
(-1 6.20976e-15 0)
(-1 3.3094e-15 0)
(-1 2.61164e-15 0)
(-1 1.8267e-15 0)
(-1 1.33225e-15 0)
(-1 9.1985e-16 0)
(-1 4.81089e-16 0)
(-1 1.45553e-16 0)
(-1 6.04545e-17 0)
(-1 9.09807e-09 0)
(-1 -2.16044e-09 0)
(-1 5.12999e-10 0)
(-1 -1.2157e-10 0)
(-1 2.90233e-11 0)
(-1 -6.78967e-12 0)
(-1 1.67732e-12 0)
(-1 -3.56143e-13 0)
(-1 1.13093e-13 0)
(-1 -7.13176e-15 0)
(-1 1.57074e-14 0)
(-1 6.27071e-15 0)
(-1 5.69084e-15 0)
(-1 3.74941e-15 0)
(-1 2.7079e-15 0)
(-1 1.96883e-15 0)
(-1 1.38013e-15 0)
(-1 8.25249e-16 0)
(-1 3.78931e-16 0)
(-1 1.71329e-16 0)
(-1 -9.0789e-09 0)
(-1 2.15472e-09 0)
(-1 -5.11137e-10 0)
(-1 1.21407e-10 0)
(-1 -2.87026e-11 0)
(-1 6.89324e-12 0)
(-1 -1.57477e-12 0)
(-1 4.17297e-13 0)
(-1 -6.7759e-14 0)
(-1 3.85621e-14 0)
(-1 7.20948e-15 0)
(-1 1.02686e-14 0)
(-1 6.37295e-15 0)
(-1 4.96847e-15 0)
(-1 3.49243e-15 0)
(-1 2.52554e-15 0)
(-1 1.74677e-15 0)
(-1 1.14231e-15 0)
(-1 6.86281e-16 0)
(-1 2.12368e-16 0)
(-1 9.05255e-09 0)
(-1 -2.14764e-09 0)
(-1 5.09596e-10 0)
(-1 -1.20814e-10 0)
(-1 2.87379e-11 0)
(-1 -6.75392e-12 0)
(-1 1.65353e-12 0)
(-1 -3.52809e-13 0)
(-1 1.13434e-13 0)
(-1 -4.75479e-15 0)
(-1 1.77836e-14 0)
(-1 8.37631e-15 0)
(-1 7.51709e-15 0)
(-1 5.33462e-15 0)
(-1 4.01391e-15 0)
(-1 2.85426e-15 0)
(-1 2.05819e-15 0)
(-1 1.41436e-15 0)
(-1 7.81883e-16 0)
(-1 2.11763e-16 0)
(-1 -9.02711e-09 0)
(-1 2.14122e-09 0)
(-1 -5.07916e-10 0)
(-1 1.20532e-10 0)
(-1 -2.85358e-11 0)
(-1 6.81776e-12 0)
(-1 -1.57587e-12 0)
(-1 4.07342e-13 0)
(-1 -7.00165e-14 0)
(-1 3.7299e-14 0)
(-1 7.13242e-15 0)
(-1 1.06239e-14 0)
(-1 6.90221e-15 0)
(-1 5.36378e-15 0)
(-1 3.89546e-15 0)
(-1 2.84287e-15 0)
(-1 2.04834e-15 0)
(-1 1.37901e-15 0)
(-1 7.51752e-16 0)
(-1 2.22545e-16 0)
(-1 9.00012e-09 0)
(-1 -2.1346e-09 0)
(-1 5.06401e-10 0)
(-1 -1.20076e-10 0)
(-1 2.8518e-11 0)
(-1 -6.7286e-12 0)
(-1 1.62783e-12 0)
(-1 -3.58827e-13 0)
(-1 1.07604e-13 0)
(-1 -7.40114e-15 0)
(-1 1.60396e-14 0)
(-1 7.2778e-15 0)
(-1 6.88564e-15 0)
(-1 5.06094e-15 0)
(-1 3.86813e-15 0)
(-1 2.82308e-15 0)
(-1 1.93277e-15 0)
(-1 1.16514e-15 0)
(-1 6.46654e-16 0)
(-1 2.18702e-16 0)
(-1 -8.97571e-09 0)
(-1 2.12879e-09 0)
(-1 -5.04966e-10 0)
(-1 1.19795e-10 0)
(-1 -2.83861e-11 0)
(-1 6.75902e-12 0)
(-1 -1.57929e-12 0)
(-1 3.95319e-13 0)
(-1 -7.62203e-14 0)
(-1 3.25806e-14 0)
(-1 4.02235e-15 0)
(-1 8.32537e-15 0)
(-1 5.3788e-15 0)
(-1 4.61278e-15 0)
(-1 3.51516e-15 0)
(-1 2.64734e-15 0)
(-1 1.782e-15 0)
(-1 1.02454e-15 0)
(-1 5.18979e-16 0)
(-1 2.05534e-16 0)
(-1 8.95193e-09 0)
(-1 -2.12316e-09 0)
(-1 5.03662e-10 0)
(-1 -1.19447e-10 0)
(-1 2.83478e-11 0)
(-1 -6.70685e-12 0)
(-1 1.60692e-12 0)
(-1 -3.66705e-13 0)
(-1 9.95113e-14 0)
(-1 -1.29172e-14 0)
(-1 1.19354e-14 0)
(-1 4.4983e-15 0)
(-1 4.83339e-15 0)
(-1 3.59793e-15 0)
(-1 2.9139e-15 0)
(-1 2.17229e-15 0)
(-1 1.39294e-15 0)
(-1 7.33182e-16 0)
(-1 4.11257e-16 0)
(-1 1.93905e-16 0)
(-1 -8.93076e-09 0)
(-1 2.11823e-09 0)
(-1 -5.02475e-10 0)
(-1 1.19194e-10 0)
(-1 -2.82613e-11 0)
(-1 6.71381e-12 0)
(-1 -1.58276e-12 0)
(-1 3.84271e-13 0)
(-1 -8.31889e-14 0)
(-1 2.67649e-14 0)
(-1 -3.60883e-16 0)
(-1 5.07026e-15 0)
(-1 2.9061e-15 0)
(-1 2.67558e-15 0)
(-1 2.02058e-15 0)
(-1 1.5076e-15 0)
(-1 1.06597e-15 0)
(-1 6.83482e-16 0)
(-1 3.99398e-16 0)
(-1 1.49533e-16 0)
(-1 8.911e-09 0)
(-1 -2.11363e-09 0)
(-1 5.01396e-10 0)
(-1 -1.1893e-10 0)
(-1 2.82126e-11 0)
(-1 -6.68922e-12 0)
(-1 1.59e-12 0)
(-1 -3.7358e-13 0)
(-1 9.21591e-14 0)
(-1 -1.85517e-14 0)
(-1 7.4174e-15 0)
(-1 9.40838e-16 0)
(-1 2.1631e-15 0)
(-1 1.45282e-15 0)
(-1 1.20639e-15 0)
(-1 9.0132e-16 0)
(-1 6.90595e-16 0)
(-1 4.49755e-16 0)
(-1 2.66927e-16 0)
(-1 8.52421e-17 0)
(-1 -8.89319e-09 0)
(-1 2.1095e-09 0)
(-1 -5.00423e-10 0)
(-1 1.18701e-10 0)
(-1 -2.81609e-11 0)
(-1 6.67642e-12 0)
(-1 -1.58678e-12 0)
(-1 3.74246e-13 0)
(-1 -8.99724e-14 0)
(-1 2.09125e-14 0)
(-1 -4.78002e-15 0)
(-1 1.72913e-15 0)
(-1 2.56442e-16 0)
(-1 5.97573e-16 0)
(-1 5.53237e-16 0)
(-1 5.31355e-16 0)
(-1 3.83871e-16 0)
(-1 1.37918e-16 0)
(-1 3.21865e-17 0)
(-1 2.78025e-17 0)
(-1 8.877e-09 0)
(-1 -2.10574e-09 0)
(-1 4.99524e-10 0)
(-1 -1.18506e-10 0)
(-1 2.80989e-11 0)
(-1 -6.67692e-12 0)
(-1 1.57422e-12 0)
(-1 -3.81163e-13 0)
(-1 8.46864e-14 0)
(-1 -2.40862e-14 0)
(-1 3.07981e-15 0)
(-1 -2.347e-15 0)
(-1 -5.30545e-16 0)
(-1 -4.86011e-16 0)
(-1 -1.39589e-16 0)
(-1 1.46712e-17 0)
(-1 1.06407e-16 0)
(-1 2.69832e-17 0)
(-1 -8.96071e-17 0)
(-1 -6.49634e-17 0)
(-1 -8.86178e-09 0)
(-1 2.10219e-09 0)
(-1 -4.98709e-10 0)
(-1 1.18284e-10 0)
(-1 -2.80799e-11 0)
(-1 6.64199e-12 0)
(-1 -1.59207e-12 0)
(-1 3.64565e-13 0)
(-1 -9.65596e-14 0)
(-1 1.54133e-14 0)
(-1 -8.90436e-15 0)
(-1 -1.34527e-15 0)
(-1 -1.90952e-15 0)
(-1 -1.00986e-15 0)
(-1 -7.00834e-16 0)
(-1 -4.06617e-16 0)
(-1 -3.47976e-16 0)
(-1 -3.7114e-16 0)
(-1 -1.71554e-16 0)
(-1 -5.67026e-17 0)
(-1 8.84827e-09 0)
(-1 -2.09903e-09 0)
(-1 4.97916e-10 0)
(-1 -1.1815e-10 0)
(-1 2.79945e-11 0)
(-1 -6.66989e-12 0)
(-1 1.55853e-12 0)
(-1 -3.88248e-13 0)
(-1 7.80969e-14 0)
(-1 -2.86043e-14 0)
(-1 -3.57599e-16 0)
(-1 -5.00549e-15 0)
(-1 -2.23987e-15 0)
(-1 -1.76895e-15 0)
(-1 -9.64954e-16 0)
(-1 -6.40461e-16 0)
(-1 -5.15538e-16 0)
(-1 -4.44459e-16 0)
(-1 -1.77995e-16 0)
(-1 -1.74143e-17 0)
(-1 -8.83461e-09 0)
(-1 2.09579e-09 0)
(-1 -4.97226e-10 0)
(-1 1.17902e-10 0)
(-1 -2.8018e-11 0)
(-1 6.60642e-12 0)
(-1 -1.59866e-12 0)
(-1 3.55794e-13 0)
(-1 -1.01423e-13 0)
(-1 1.2116e-14 0)
(-1 -1.12957e-14 0)
(-1 -3.33592e-15 0)
(-1 -3.40853e-15 0)
(-1 -2.04883e-15 0)
(-1 -1.37738e-15 0)
(-1 -9.43066e-16 0)
(-1 -6.69114e-16 0)
(-1 -3.47827e-16 0)
(-1 -1.61818e-16 0)
(-1 -5.56162e-17 0)
(-1 8.823e-09 0)
(-1 -2.09308e-09 0)
(-1 4.96443e-10 0)
(-1 -1.17848e-10 0)
(-1 2.78837e-11 0)
(-1 -6.66788e-12 0)
(-1 1.54328e-12 0)
(-1 -3.92699e-13 0)
(-1 7.46602e-14 0)
(-1 -3.04777e-14 0)
(-1 -1.55169e-15 0)
(-1 -5.61029e-15 0)
(-1 -2.75737e-15 0)
(-1 -2.20064e-15 0)
(-1 -1.61421e-15 0)
(-1 -1.10948e-15 0)
(-1 -6.71163e-16 0)
(-1 -4.25634e-16 0)
(-1 -1.62766e-16 0)
(-1 -4.8098e-17 0)
(-1 -8.80986e-09 0)
(-1 2.08992e-09 0)
(-1 -4.95998e-10 0)
(-1 1.17525e-10 0)
(-1 -2.79856e-11 0)
(-1 6.57584e-12 0)
(-1 -1.60131e-12 0)
(-1 3.53844e-13 0)
(-1 -1.01167e-13 0)
(-1 1.25342e-14 0)
(-1 -1.07479e-14 0)
(-1 -2.73313e-15 0)
(-1 -3.00525e-15 0)
(-1 -1.71887e-15 0)
(-1 -1.28026e-15 0)
(-1 -7.87299e-16 0)
(-1 -4.32449e-16 0)
(-1 -3.24859e-16 0)
(-1 -1.77821e-16 0)
(-1 -3.71664e-17 0)
(-1 8.80077e-09 0)
(-1 -2.08808e-09 0)
(-1 4.94737e-10 0)
(-1 -1.17513e-10 0)
(-1 2.77396e-11 0)
(-1 -6.63132e-12 0)
(-1 1.53722e-12 0)
(-1 -3.83837e-13 0)
(-1 7.82977e-14 0)
(-1 -2.65925e-14 0)
(-1 9.48692e-16 0)
(-1 -3.83363e-15 0)
(-1 -1.60196e-15 0)
(-1 -1.26323e-15 0)
(-1 -8.29251e-16 0)
(-1 -5.74086e-16 0)
(-1 -3.39109e-16 0)
(-1 -2.25028e-16 0)
(-1 -1.41384e-16 0)
(-1 -3.7766e-18 0)
(-1 -8.78911e-09 0)
(-1 2.08438e-09 0)
(-1 -4.94987e-10 0)
(-1 1.17361e-10 0)
(-1 -2.79124e-11 0)
(-1 6.60454e-12 0)
(-1 -1.58173e-12 0)
(-1 3.68386e-13 0)
(-1 -9.21868e-14 0)
(-1 1.89692e-14 0)
(-1 -6.46895e-15 0)
(-1 2.33356e-16 0)
(-1 -9.11046e-16 0)
(-1 -3.79931e-16 0)
(-1 -3.99277e-16 0)
(-1 -2.83425e-16 0)
(-1 -1.56047e-16 0)
(-1 -1.09596e-16 0)
(-1 -4.62027e-17 0)
(-1 1.13711e-17 0)
)
;

boundaryField
{
    movingWall
    {
        type            zeroGradient;
    }
    fixedWalls
    {
        type            zeroGradient;
    }
    frontAndBack
    {
        type            empty;
    }
}


// ************************************************************************* //
