/*--------------------------------*- C++ -*----------------------------------*\
| =========                 |                                                 |
| \\      /  F ield         | OpenFOAM: The Open Source CFD Toolbox           |
|  \\    /   O peration     | Version:  2312                                  |
|   \\  /    A nd           | Website:  www.openfoam.com                      |
|    \\/     M anipulation  |                                                 |
\*---------------------------------------------------------------------------*/
FoamFile
{
    version     2.0;
    format      ascii;
    arch        "LSB;label=32;scalar=64";
    class       volScalarField;
    location    "4.625";
    object      zeroGradient(epsilon);
}
// * * * * * * * * * * * * * * * * * * * * * * * * * * * * * * * * * * * * * //

dimensions      [0 2 -3 0 0 0 0];

internalField   nonuniform List<scalar> 
400
(
1.22247e-05
1.22246e-05
1.22246e-05
1.22245e-05
1.22246e-05
1.22244e-05
1.22245e-05
1.22244e-05
1.22244e-05
1.22243e-05
1.22243e-05
1.22243e-05
1.22243e-05
1.22243e-05
1.22243e-05
1.22243e-05
1.22243e-05
1.22243e-05
1.22243e-05
1.22243e-05
1.45337e-05
1.41497e-05
1.418e-05
1.41929e-05
1.42184e-05
1.42317e-05
1.42573e-05
1.42712e-05
1.4297e-05
1.43114e-05
1.43373e-05
1.43523e-05
1.43784e-05
1.43939e-05
1.44202e-05
1.44362e-05
1.44627e-05
1.44793e-05
1.44927e-05
1.45144e-05
1.77042e-05
1.7197e-05
1.72373e-05
1.72545e-05
1.72884e-05
1.7306e-05
1.734e-05
1.73583e-05
1.73925e-05
1.74113e-05
1.74457e-05
1.74652e-05
1.74996e-05
1.75198e-05
1.75544e-05
1.75752e-05
1.761e-05
1.76314e-05
1.76489e-05
1.76772e-05
2.04449e-05
1.98263e-05
1.98752e-05
1.98961e-05
1.99371e-05
1.99586e-05
1.99998e-05
2.00221e-05
2.00635e-05
2.00865e-05
2.01282e-05
2.0152e-05
2.01939e-05
2.02185e-05
2.02606e-05
2.0286e-05
2.03283e-05
2.03545e-05
2.03758e-05
2.04103e-05
2.23253e-05
2.16263e-05
2.16814e-05
2.17049e-05
2.17511e-05
2.17753e-05
2.18217e-05
2.18468e-05
2.18936e-05
2.19195e-05
2.19665e-05
2.19934e-05
2.20406e-05
2.20684e-05
2.21159e-05
2.21446e-05
2.21923e-05
2.2222e-05
2.2246e-05
2.22851e-05
2.34679e-05
2.27189e-05
2.27777e-05
2.28029e-05
2.28523e-05
2.28782e-05
2.29279e-05
2.29547e-05
2.30047e-05
2.30325e-05
2.30828e-05
2.31116e-05
2.31621e-05
2.31919e-05
2.32427e-05
2.32735e-05
2.33246e-05
2.33564e-05
2.33822e-05
2.3424e-05
2.41322e-05
2.33539e-05
2.3415e-05
2.34411e-05
2.34923e-05
2.35192e-05
2.35708e-05
2.35987e-05
2.36506e-05
2.36795e-05
2.37317e-05
2.37616e-05
2.38141e-05
2.3845e-05
2.38978e-05
2.39298e-05
2.39828e-05
2.4016e-05
2.40427e-05
2.40861e-05
2.45304e-05
2.37344e-05
2.37968e-05
2.38234e-05
2.38758e-05
2.39033e-05
2.3956e-05
2.39845e-05
2.40376e-05
2.40671e-05
2.41204e-05
2.4151e-05
2.42047e-05
2.42363e-05
2.42903e-05
2.4323e-05
2.43772e-05
2.44111e-05
2.44384e-05
2.44829e-05
2.4795e-05
2.39874e-05
2.40507e-05
2.40777e-05
2.41309e-05
2.41587e-05
2.42122e-05
2.42411e-05
2.42949e-05
2.43249e-05
2.4379e-05
2.441e-05
2.44644e-05
2.44965e-05
2.45513e-05
2.45845e-05
2.46395e-05
2.46739e-05
2.47016e-05
2.47467e-05
2.50001e-05
2.41835e-05
2.42474e-05
2.42747e-05
2.43284e-05
2.43566e-05
2.44107e-05
2.44399e-05
2.44943e-05
2.45246e-05
2.45793e-05
2.46106e-05
2.46657e-05
2.46981e-05
2.47535e-05
2.47871e-05
2.48427e-05
2.48775e-05
2.49055e-05
2.49511e-05
2.51846e-05
2.43599e-05
2.44244e-05
2.4452e-05
2.45063e-05
2.45347e-05
2.45893e-05
2.46188e-05
2.46737e-05
2.47043e-05
2.47595e-05
2.47912e-05
2.48468e-05
2.48796e-05
2.49354e-05
2.49694e-05
2.50255e-05
2.50607e-05
2.5089e-05
2.5135e-05
2.53699e-05
2.4537e-05
2.46021e-05
2.463e-05
2.46848e-05
2.47135e-05
2.47686e-05
2.47984e-05
2.48538e-05
2.48847e-05
2.49405e-05
2.49725e-05
2.50286e-05
2.50617e-05
2.51181e-05
2.51524e-05
2.52091e-05
2.52446e-05
2.52731e-05
2.53196e-05
2.55686e-05
2.47269e-05
2.47928e-05
2.48209e-05
2.48762e-05
2.49052e-05
2.49609e-05
2.4991e-05
2.5047e-05
2.50782e-05
2.51345e-05
2.51669e-05
2.52235e-05
2.5257e-05
2.5314e-05
2.53486e-05
2.54059e-05
2.54418e-05
2.54706e-05
2.55176e-05
2.57899e-05
2.49385e-05
2.50051e-05
2.50335e-05
2.50894e-05
2.51188e-05
2.51751e-05
2.52055e-05
2.52621e-05
2.52937e-05
2.53507e-05
2.53834e-05
2.54407e-05
2.54746e-05
2.55322e-05
2.55673e-05
2.56252e-05
2.56615e-05
2.56907e-05
2.57382e-05
2.6042e-05
2.51794e-05
2.52468e-05
2.52756e-05
2.53322e-05
2.53619e-05
2.54189e-05
2.54498e-05
2.55071e-05
2.55391e-05
2.55968e-05
2.563e-05
2.5688e-05
2.57223e-05
2.57807e-05
2.58162e-05
2.58749e-05
2.59117e-05
2.59412e-05
2.59894e-05
2.63312e-05
2.54559e-05
2.55242e-05
2.55534e-05
2.56109e-05
2.5641e-05
2.56989e-05
2.57302e-05
2.57883e-05
2.58208e-05
2.58793e-05
2.5913e-05
2.59718e-05
2.60067e-05
2.60659e-05
2.61019e-05
2.61615e-05
2.61988e-05
2.62288e-05
2.62777e-05
2.66572e-05
2.57675e-05
2.58369e-05
2.58666e-05
2.5925e-05
2.59556e-05
2.60144e-05
2.60461e-05
2.61053e-05
2.61382e-05
2.61977e-05
2.62319e-05
2.62917e-05
2.63271e-05
2.63873e-05
2.6424e-05
2.64845e-05
2.65225e-05
2.65529e-05
2.66026e-05
2.6999e-05
2.60944e-05
2.61649e-05
2.61951e-05
2.62544e-05
2.62855e-05
2.63452e-05
2.63775e-05
2.64376e-05
2.64711e-05
2.65315e-05
2.65663e-05
2.66271e-05
2.66631e-05
2.67243e-05
2.67616e-05
2.68231e-05
2.68618e-05
2.68927e-05
2.69432e-05
2.72996e-05
2.64018e-05
2.64702e-05
2.64997e-05
2.65577e-05
2.65883e-05
2.66468e-05
2.66789e-05
2.67379e-05
2.67714e-05
2.6831e-05
2.68661e-05
2.69262e-05
2.69628e-05
2.70235e-05
2.70616e-05
2.71229e-05
2.71626e-05
2.71936e-05
2.72447e-05
2.74278e-05
2.74275e-05
2.74276e-05
2.74273e-05
2.74273e-05
2.74271e-05
2.74271e-05
2.7427e-05
2.7427e-05
2.74269e-05
2.74269e-05
2.74268e-05
2.74268e-05
2.74268e-05
2.74268e-05
2.74268e-05
2.74268e-05
2.74268e-05
2.74268e-05
2.74268e-05
)
;

boundaryField
{
    movingWall
    {
        type            zeroGradient;
    }
    fixedWalls
    {
        type            zeroGradient;
    }
    frontAndBack
    {
        type            empty;
    }
}


// ************************************************************************* //
