/*--------------------------------*- C++ -*----------------------------------*\
| =========                 |                                                 |
| \\      /  F ield         | OpenFOAM: The Open Source CFD Toolbox           |
|  \\    /   O peration     | Version:  2312                                  |
|   \\  /    A nd           | Website:  www.openfoam.com                      |
|    \\/     M anipulation  |                                                 |
\*---------------------------------------------------------------------------*/
FoamFile
{
    version     2.0;
    format      ascii;
    arch        "LSB;label=32;scalar=64";
    class       volScalarField;
    location    "3.25";
    object      divPhi;
}
// * * * * * * * * * * * * * * * * * * * * * * * * * * * * * * * * * * * * * //

dimensions      [0 0 -1 0 0 0 0];

internalField   nonuniform List<scalar> 
400
(
1.74529e-10
4.66108e-12
5.93866e-12
5.44852e-12
4.50106e-12
3.71124e-12
3.06989e-12
2.69692e-12
2.37335e-12
2.15651e-12
1.98317e-12
1.88009e-12
1.77365e-12
1.67442e-12
1.63003e-12
1.50889e-12
1.35212e-12
1.20357e-12
1.99178e-12
6.50521e-13
7.31836e-12
3.87986e-12
4.75737e-12
4.53472e-12
4.0365e-12
3.44003e-12
2.9785e-12
2.63076e-12
2.3792e-12
2.1369e-12
2.01706e-12
1.88729e-12
1.80708e-12
1.70391e-12
1.61596e-12
1.49223e-12
1.40621e-12
1.52972e-12
1.12774e-12
1.11131e-12
-6.28837e-12
1.09075e-12
2.66315e-12
3.17227e-12
3.06482e-12
2.81864e-12
2.56931e-12
2.35172e-12
2.09686e-12
1.99822e-12
1.84913e-12
1.76164e-12
1.66377e-12
1.56522e-12
1.516e-12
1.42324e-12
1.21602e-12
1.08992e-12
2.1084e-12
4.06576e-13
3.14419e-12
8.16392e-13
1.68293e-12
2.119e-12
2.24216e-12
2.19512e-12
2.07894e-12
1.97377e-12
1.85607e-12
1.69319e-12
1.62803e-12
1.51299e-12
1.50262e-12
1.40394e-12
1.36646e-12
1.17946e-12
1.17516e-12
1.47537e-12
5.83565e-13
1.0842e-12
-6.39679e-12
-3.63475e-13
6.90223e-13
1.2467e-12
1.4615e-12
1.56013e-12
1.55326e-12
1.51468e-12
1.49985e-12
1.41293e-12
1.33338e-12
1.28716e-12
1.21469e-12
1.19336e-12
1.14574e-12
1.09107e-12
8.82798e-13
6.10121e-13
2.02047e-12
1.0842e-13
3.14419e-12
2.16213e-14
3.97008e-13
6.67716e-13
8.88637e-13
1.0007e-12
1.11098e-12
1.09469e-12
1.05646e-12
1.05504e-12
1.01677e-12
1.00619e-12
9.35404e-13
9.28845e-13
9.2052e-13
7.81891e-13
7.80064e-13
1.1927e-12
-5.51467e-14
8.94467e-13
-5.58364e-12
-7.17539e-13
-1.74482e-13
1.55582e-13
3.46466e-13
5.20872e-13
5.48166e-13
6.49986e-13
6.6395e-13
6.55659e-13
6.51692e-13
6.42127e-13
6.46374e-13
6.51636e-13
6.16095e-13
5.90206e-13
4.52702e-13
2.49735e-14
1.66765e-12
-1.89735e-13
2.6834e-12
-3.51163e-13
-3.628e-13
-2.52835e-13
-1.02315e-13
5.22448e-14
1.08605e-13
1.8762e-13
2.44573e-13
2.40244e-13
3.06877e-13
3.20983e-13
3.14146e-13
3.48849e-13
3.21551e-13
2.26936e-13
2.64013e-13
8.00696e-13
-6.83064e-13
6.23416e-13
-5.50233e-12
-1.18127e-12
-8.36303e-13
-7.07171e-13
-5.56079e-13
-4.35249e-13
-3.61306e-13
-2.45495e-13
-1.9103e-13
-1.46878e-13
-8.63242e-14
-6.25873e-14
-3.41034e-14
1.86253e-16
4.68961e-15
3.77593e-14
-8.41188e-14
-5.80647e-13
1.13233e-12
-5.42101e-13
1.27394e-12
-9.79551e-13
-1.12692e-12
-1.08997e-12
-9.79026e-13
-8.81299e-13
-8.0738e-13
-6.96087e-13
-6.06877e-13
-5.33441e-13
-4.57113e-13
-4.26673e-13
-3.77161e-13
-3.54758e-13
-3.05906e-13
-3.63765e-13
-2.95638e-13
2.76365e-13
-1.29187e-12
2.43945e-13
-5.85469e-12
-1.80415e-12
-1.59701e-12
-1.50053e-12
-1.43543e-12
-1.33322e-12
-1.1866e-12
-1.10898e-12
-1.03651e-12
-8.78916e-13
-8.33651e-13
-7.61006e-13
-7.0906e-13
-6.7269e-13
-6.44798e-13
-5.99765e-13
-6.40356e-13
-1.14137e-12
4.0572e-13
-7.86047e-13
-6.77626e-13
-1.77423e-12
-1.87463e-12
-1.90894e-12
-1.81424e-12
-1.73809e-12
-1.60007e-12
-1.46304e-12
-1.42289e-12
-1.29484e-12
-1.18018e-12
-1.11769e-12
-1.05554e-12
-9.67666e-13
-9.37804e-13
-9.75348e-13
-8.56172e-13
-3.23362e-13
-1.80659e-12
-1.35525e-13
-6.12574e-12
-2.42546e-12
-2.27918e-12
-2.2511e-12
-2.14362e-12
-2.05729e-12
-1.97397e-12
-1.8242e-12
-1.72257e-12
-1.60857e-12
-1.47464e-12
-1.44698e-12
-1.33524e-12
-1.30829e-12
-1.22961e-12
-1.15179e-12
-1.1193e-12
-1.58812e-12
-2.96852e-13
-9.75782e-13
-2.62919e-12
-2.42623e-12
-2.50814e-12
-2.48733e-12
-2.44029e-12
-2.30805e-12
-2.24351e-12
-2.09851e-12
-1.97288e-12
-1.86297e-12
-1.7777e-12
-1.70044e-12
-1.61496e-12
-1.53429e-12
-1.46643e-12
-1.48394e-12
-1.31578e-12
-7.83432e-13
-2.04687e-12
-4.60786e-13
-5.8818e-12
-2.76456e-12
-2.68078e-12
-2.68694e-12
-2.57857e-12
-2.55828e-12
-2.38542e-12
-2.32309e-12
-2.16002e-12
-2.05764e-12
-1.95147e-12
-1.85799e-12
-1.77627e-12
-1.71521e-12
-1.67574e-12
-1.56526e-12
-1.43546e-12
-1.7837e-12
-9.20504e-13
-1.00289e-12
-4.03865e-12
-2.74885e-12
-2.77845e-12
-2.74049e-12
-2.68335e-12
-2.60508e-12
-2.48024e-12
-2.39126e-12
-2.25194e-12
-2.15365e-12
-2.06429e-12
-1.99634e-12
-1.86372e-12
-1.87674e-12
-1.76899e-12
-1.68524e-12
-1.51446e-12
-1.12217e-12
-1.97844e-12
-7.86047e-13
-5.17707e-12
-2.80385e-12
-2.75173e-12
-2.7051e-12
-2.69915e-12
-2.58162e-12
-2.54324e-12
-2.39278e-12
-2.34625e-12
-2.20879e-12
-2.17554e-12
-2.0352e-12
-1.98339e-12
-1.93915e-12
-1.89635e-12
-1.70807e-12
-1.55343e-12
-1.7804e-12
-1.47865e-12
-9.75782e-13
-4.55365e-12
-2.74621e-12
-2.66243e-12
-2.63365e-12
-2.58721e-12
-2.53343e-12
-2.4409e-12
-2.40962e-12
-2.29021e-12
-2.23027e-12
-2.13544e-12
-2.10233e-12
-2.00964e-12
-1.96437e-12
-1.8982e-12
-1.76794e-12
-1.60784e-12
-1.42142e-12
-1.93902e-12
-1.00289e-12
-4.41812e-12
-2.54343e-12
-2.50374e-12
-2.46226e-12
-2.39187e-12
-2.37655e-12
-2.28552e-12
-2.24247e-12
-2.18389e-12
-2.12698e-12
-2.06101e-12
-1.97894e-12
-1.95041e-12
-1.91979e-12
-1.84437e-12
-1.67768e-12
-1.5046e-12
-1.68969e-12
-1.87246e-12
-9.48677e-13
-1.84314e-12
-1.19262e-12
-1.21973e-12
-1.13841e-12
-1.19262e-12
-1.0842e-12
-1.11131e-12
-1.0571e-12
-1.02999e-12
-1.02999e-12
-1.00289e-12
-9.48677e-13
-9.48677e-13
-8.94467e-13
-8.67362e-13
-7.58942e-13
-7.31836e-13
-9.21572e-13
-9.21572e-13
0
)
;

boundaryField
{
    movingWall
    {
        type            extrapolatedCalculated;
        value           nonuniform List<scalar> 
20
(
-1.84314e-12
-1.19262e-12
-1.21973e-12
-1.13841e-12
-1.19262e-12
-1.0842e-12
-1.11131e-12
-1.0571e-12
-1.02999e-12
-1.02999e-12
-1.00289e-12
-9.48677e-13
-9.48677e-13
-8.94467e-13
-8.67362e-13
-7.58942e-13
-7.31836e-13
-9.21572e-13
-9.21572e-13
0
)
;
    }
    fixedWalls
    {
        type            extrapolatedCalculated;
        value           nonuniform List<scalar> 
60
(
1.74529e-10
7.31836e-12
-6.28837e-12
3.14419e-12
-6.39679e-12
3.14419e-12
-5.58364e-12
2.6834e-12
-5.50233e-12
1.27394e-12
-5.85469e-12
-6.77626e-13
-6.12574e-12
-2.62919e-12
-5.8818e-12
-4.03865e-12
-5.17707e-12
-4.55365e-12
-4.41812e-12
-1.84314e-12
6.50521e-13
1.11131e-12
4.06576e-13
1.0842e-12
1.0842e-13
8.94467e-13
-1.89735e-13
6.23416e-13
-5.42101e-13
2.43945e-13
-7.86047e-13
-1.35525e-13
-9.75782e-13
-4.60786e-13
-1.00289e-12
-7.86047e-13
-9.75782e-13
-1.00289e-12
-9.48677e-13
0
1.74529e-10
4.66108e-12
5.93866e-12
5.44852e-12
4.50106e-12
3.71124e-12
3.06989e-12
2.69692e-12
2.37335e-12
2.15651e-12
1.98317e-12
1.88009e-12
1.77365e-12
1.67442e-12
1.63003e-12
1.50889e-12
1.35212e-12
1.20357e-12
1.99178e-12
6.50521e-13
)
;
    }
    frontAndBack
    {
        type            empty;
    }
}


// ************************************************************************* //
