/*--------------------------------*- C++ -*----------------------------------*\
| =========                 |                                                 |
| \\      /  F ield         | OpenFOAM: The Open Source CFD Toolbox           |
|  \\    /   O peration     | Version:  2312                                  |
|   \\  /    A nd           | Website:  www.openfoam.com                      |
|    \\/     M anipulation  |                                                 |
\*---------------------------------------------------------------------------*/
FoamFile
{
    version     2.0;
    format      ascii;
    arch        "LSB;label=32;scalar=64";
    class       volScalarField;
    location    "3.25";
    object      divU;
}
// * * * * * * * * * * * * * * * * * * * * * * * * * * * * * * * * * * * * * //

dimensions      [0 0 -1 0 0 0 0];

internalField   nonuniform List<scalar> 
400
(
-1.39601e-07
-9.81404e-07
1.36118e-07
-8.20259e-08
9.32452e-09
-4.63048e-09
1.00988e-09
-2.13635e-10
7.33951e-11
-1.1762e-11
5.9762e-12
1.87784e-12
4.13782e-12
2.66892e-12
2.48788e-12
2.63986e-12
-4.32109e-13
-1.79772e-12
8.00243e-12
1.35525e-13
1.08439e-07
3.43008e-06
-5.64217e-07
3.12209e-07
-4.82057e-08
2.07292e-08
-5.17685e-09
1.30034e-09
-4.27807e-10
1.05228e-10
-2.8549e-11
9.71387e-12
-1.17124e-13
2.11062e-12
2.24494e-12
-4.9935e-13
-3.27159e-12
3.31426e-12
8.59898e-12
-1.32815e-12
-2.68537e-07
-5.77857e-06
9.28784e-07
-5.221e-07
7.7772e-08
-3.38852e-08
8.27909e-09
-2.04811e-09
6.87645e-10
-1.53852e-10
4.70697e-11
-1.04274e-11
5.82765e-12
1.41208e-13
2.166e-12
3.22573e-12
-2.15928e-12
-3.61646e-12
6.50053e-12
7.58942e-13
-1.31573e-07
9.01802e-06
-1.50407e-06
8.15796e-07
-1.27681e-07
5.40607e-08
-1.34474e-08
3.39963e-09
-1.1331e-09
2.68467e-10
-7.66414e-11
2.2913e-11
-3.88404e-12
3.24071e-12
2.39622e-12
-1.13012e-12
-3.83422e-12
3.95528e-12
8.99792e-12
-1.84314e-12
4.60333e-07
-1.22269e-05
2.04499e-06
-1.10514e-06
1.73653e-07
-7.34553e-08
1.81257e-08
-4.62636e-09
1.56179e-09
-3.56626e-10
1.06187e-10
-2.91121e-11
8.76382e-12
-1.97581e-12
1.6402e-12
2.45464e-12
-2.24865e-12
-4.24176e-12
5.60261e-12
8.94467e-13
-1.49351e-06
1.62447e-05
-2.77452e-06
1.46882e-06
-2.3731e-07
9.83334e-08
-2.47633e-08
6.24962e-09
-2.14409e-09
4.86749e-10
-1.49295e-10
3.90683e-11
-1.1014e-11
4.00301e-12
1.87673e-12
-2.63243e-12
-5.358e-12
4.52652e-12
8.52765e-12
-2.11419e-12
3.32732e-06
-2.08423e-05
3.64296e-06
-1.88877e-06
3.13303e-07
-1.28991e-07
3.2094e-08
-8.42595e-09
2.84515e-09
-6.65248e-10
1.92789e-10
-5.84819e-11
1.33135e-11
-4.79902e-12
1.55308e-12
1.40617e-12
-2.65339e-12
-4.59465e-12
4.47394e-12
9.75782e-13
-6.18382e-06
2.52797e-05
-4.47994e-06
2.29883e-06
-3.84752e-07
1.57647e-07
-3.98487e-08
1.02297e-08
-3.59997e-09
7.85913e-10
-2.57312e-10
6.44699e-11
-1.97373e-11
6.20307e-12
1.58646e-12
-3.80426e-12
-6.65545e-12
4.91244e-12
7.90566e-12
-2.19551e-12
1.33085e-05
-3.02156e-05
5.59636e-06
-2.76495e-06
4.70899e-07
-1.95961e-07
4.75398e-08
-1.314e-08
4.34164e-09
-1.01683e-09
3.10787e-10
-8.76849e-11
2.22361e-11
-6.5784e-12
2.50672e-12
3.4601e-13
-3.06425e-12
-4.34216e-12
3.35583e-12
1.0571e-12
-2.00645e-05
3.32745e-05
-6.37398e-06
3.05829e-06
-5.40359e-07
2.21921e-07
-5.43466e-08
1.52731e-08
-4.99551e-09
1.18899e-09
-3.65398e-10
1.01275e-10
-2.72913e-11
1.02698e-11
1.65499e-12
-4.37939e-12
-7.59663e-12
5.15611e-12
6.88282e-12
-2.00577e-12
2.24165e-05
-3.3962e-05
6.63436e-06
-3.13852e-06
5.78755e-07
-2.33634e-07
5.87488e-08
-1.65554e-08
5.4816e-09
-1.30166e-09
4.17521e-10
-1.1091e-10
3.19817e-11
-7.56883e-12
3.77858e-12
-7.67601e-13
-3.51772e-12
-3.75341e-12
2.3631e-12
1.02999e-12
-2.22774e-05
3.25846e-05
-6.42287e-06
3.01477e-06
-5.62432e-07
2.2627e-07
-5.69625e-08
1.62281e-08
-5.33033e-09
1.30159e-09
-4.01929e-10
1.14338e-10
-3.11063e-11
1.19171e-11
1.53627e-12
-4.99652e-12
-8.48313e-12
4.76735e-12
5.63685e-12
-1.68051e-12
2.13715e-05
-3.06263e-05
6.10245e-06
-2.84165e-06
5.40794e-07
-2.1576e-07
5.51016e-08
-1.57404e-08
5.18199e-09
-1.27164e-09
4.00062e-10
-1.11861e-10
3.01157e-11
-8.04004e-12
3.56472e-12
-2.38916e-12
-4.22776e-12
-2.6068e-12
1.27232e-12
8.94467e-13
-1.93754e-05
2.74822e-05
-5.48421e-06
2.54928e-06
-4.85245e-07
1.93859e-07
-4.93122e-08
1.41426e-08
-4.66137e-09
1.14119e-09
-3.62381e-10
9.73999e-11
-3.10053e-11
9.73026e-12
8.30838e-13
-5.64223e-12
-8.9784e-12
3.76698e-12
3.73713e-12
-1.0571e-12
1.71943e-05
-2.41838e-05
4.85802e-06
-2.24867e-06
4.34526e-07
-1.72481e-07
4.45088e-08
-1.27567e-08
4.19421e-09
-1.05454e-09
3.21542e-10
-9.72968e-11
2.19529e-11
-7.89315e-12
2.2746e-12
-4.70583e-12
-5.70262e-12
-1.36837e-12
-5.21447e-14
7.58942e-13
-1.45702e-05
2.03426e-05
-4.07354e-06
1.88623e-06
-3.62162e-07
1.43696e-07
-3.68539e-08
1.04969e-08
-3.498e-09
8.34841e-10
-2.82112e-10
6.36075e-11
-3.00917e-11
3.28224e-12
-2.09831e-12
-7.79133e-12
-9.49749e-12
3.01557e-12
2.23082e-12
-4.33681e-13
1.25422e-05
-1.73373e-05
3.54781e-06
-1.61337e-06
3.20458e-07
-1.25238e-07
3.27934e-08
-9.43043e-09
3.05141e-09
-8.01313e-10
2.3402e-10
-7.44834e-11
1.65031e-11
-3.69947e-12
4.80399e-12
-1.72317e-12
-2.36997e-12
1.96227e-12
-1.33041e-13
1.0842e-13
-8.09016e-06
1.13338e-05
-2.22974e-06
1.05639e-06
-1.99279e-07
8.02603e-08
-2.06896e-08
5.83914e-09
-1.96089e-09
4.71291e-10
-1.53568e-10
3.84388e-11
-1.55843e-11
4.96216e-12
2.18985e-12
-5.1504e-12
-1.01996e-11
-1.0808e-12
2.32246e-13
-2.71051e-14
6.53762e-06
-8.78988e-06
1.80011e-06
-8.09672e-07
1.58206e-07
-6.11081e-08
1.60593e-08
-4.47938e-09
1.42226e-09
-3.81194e-10
9.48272e-11
-4.77594e-11
-6.66883e-12
-1.0532e-11
-6.62264e-12
-1.63231e-11
-1.40554e-11
3.85218e-13
-5.23695e-13
1.13841e-12
-4.11875e-06
5.28595e-06
-1.23954e-06
5.15149e-07
-1.17745e-07
4.37618e-08
-1.15946e-08
3.66509e-09
-1.06385e-09
3.30167e-10
-8.54351e-11
3.36916e-11
-3.7405e-12
1.22515e-11
6.53232e-12
-1.46367e-12
2.1684e-12
9.78492e-12
-3.11708e-12
9.75782e-13
)
;

boundaryField
{
    movingWall
    {
        type            extrapolatedCalculated;
        value           nonuniform List<scalar> 
20
(
-4.11875e-06
5.28595e-06
-1.23954e-06
5.15149e-07
-1.17745e-07
4.37618e-08
-1.15946e-08
3.66509e-09
-1.06385e-09
3.30167e-10
-8.54351e-11
3.36916e-11
-3.7405e-12
1.22515e-11
6.53232e-12
-1.46367e-12
2.1684e-12
9.78492e-12
-3.11708e-12
9.75782e-13
)
;
    }
    fixedWalls
    {
        type            extrapolatedCalculated;
        value           nonuniform List<scalar> 
60
(
-1.39601e-07
1.08439e-07
-2.68537e-07
-1.31573e-07
4.60333e-07
-1.49351e-06
3.32732e-06
-6.18382e-06
1.33085e-05
-2.00645e-05
2.24165e-05
-2.22774e-05
2.13715e-05
-1.93754e-05
1.71943e-05
-1.45702e-05
1.25422e-05
-8.09016e-06
6.53762e-06
-4.11875e-06
1.35525e-13
-1.32815e-12
7.58942e-13
-1.84314e-12
8.94467e-13
-2.11419e-12
9.75782e-13
-2.19551e-12
1.0571e-12
-2.00577e-12
1.02999e-12
-1.68051e-12
8.94467e-13
-1.0571e-12
7.58942e-13
-4.33681e-13
1.0842e-13
-2.71051e-14
1.13841e-12
9.75782e-13
-1.39601e-07
-9.81404e-07
1.36118e-07
-8.20259e-08
9.32452e-09
-4.63048e-09
1.00988e-09
-2.13635e-10
7.33951e-11
-1.1762e-11
5.9762e-12
1.87784e-12
4.13782e-12
2.66892e-12
2.48788e-12
2.63986e-12
-4.32109e-13
-1.79772e-12
8.00243e-12
1.35525e-13
)
;
    }
    frontAndBack
    {
        type            empty;
    }
}


// ************************************************************************* //
