/*--------------------------------*- C++ -*----------------------------------*\
| =========                 |                                                 |
| \\      /  F ield         | OpenFOAM: The Open Source CFD Toolbox           |
|  \\    /   O peration     | Version:  2312                                  |
|   \\  /    A nd           | Website:  www.openfoam.com                      |
|    \\/     M anipulation  |                                                 |
\*---------------------------------------------------------------------------*/
FoamFile
{
    version     2.0;
    format      ascii;
    arch        "LSB;label=32;scalar=64";
    class       volScalarField;
    location    "3.25";
    object      enstrophyField;
}
// * * * * * * * * * * * * * * * * * * * * * * * * * * * * * * * * * * * * * //

dimensions      [0 0 -2 0 0 0 0];

internalField   nonuniform List<scalar> 
400
(
3.27364e-10
3.85835e-10
2.00439e-11
1.11159e-12
5.64299e-14
3.42856e-15
1.05396e-16
2.9408e-17
2.18071e-18
4.03991e-18
2.2195e-18
1.49871e-18
8.62119e-19
4.64555e-19
2.21508e-19
9.113e-20
2.96462e-20
5.31975e-21
1.13777e-22
2.05995e-24
4.45807e-10
4.36745e-10
2.34462e-11
1.25815e-12
6.7416e-14
3.62084e-15
1.92379e-16
1.05261e-17
5.4011e-19
2.74379e-20
3.7056e-21
6.23681e-22
2.37347e-21
2.94227e-21
3.31702e-21
2.80676e-21
2.04445e-21
3.4539e-21
5.14802e-21
3.81383e-22
5.43987e-10
5.21184e-10
2.79628e-11
1.49806e-12
8.03355e-14
4.27591e-15
2.32813e-16
1.17141e-17
7.33782e-19
2.92116e-20
8.61303e-22
2.55063e-21
4.00429e-21
6.94058e-21
8.09502e-21
7.18738e-21
5.36648e-21
9.25982e-21
1.38923e-20
1.07836e-21
6.9451e-10
6.63254e-10
3.55977e-11
1.90885e-12
1.02061e-13
5.49306e-15
2.87202e-16
1.64646e-17
7.18406e-19
5.38043e-20
4.61594e-21
2.01747e-21
8.66027e-21
1.28843e-20
1.54671e-20
1.37057e-20
1.0308e-20
1.75794e-20
2.61034e-20
2.06097e-21
9.07925e-10
8.85786e-10
4.77605e-11
2.57005e-12
1.38439e-13
7.38603e-15
4.05528e-16
2.01184e-17
1.31837e-18
4.88425e-20
1.03368e-21
7.03505e-21
1.22185e-20
2.06626e-20
2.42049e-20
2.16364e-20
1.63579e-20
2.76368e-20
4.07164e-20
3.32469e-21
1.24302e-09
1.22088e-09
6.61246e-11
3.57705e-12
1.9287e-13
1.04708e-14
5.514e-16
3.19413e-17
1.3979e-18
1.04975e-19
9.88465e-21
4.77152e-21
1.92953e-20
2.85627e-20
3.42444e-20
3.05993e-20
2.32926e-20
3.87262e-20
5.63903e-20
4.71806e-21
1.61587e-09
1.67958e-09
9.16335e-11
4.98992e-12
2.71963e-13
1.4691e-14
8.14455e-16
4.11761e-17
2.66981e-18
1.06423e-19
2.07353e-21
1.37013e-20
2.2482e-20
3.77591e-20
4.40826e-20
3.97169e-20
3.03657e-20
4.97809e-20
7.15695e-20
6.16823e-21
2.05588e-09
2.28462e-09
1.25562e-10
6.88869e-12
3.76714e-13
2.07155e-14
1.10971e-15
6.43447e-17
2.96681e-18
2.07835e-19
2.04604e-20
7.446e-21
3.10263e-20
4.47588e-20
5.35554e-20
4.81016e-20
3.70689e-20
5.97806e-20
8.47842e-20
7.47965e-21
2.36217e-09
2.9554e-09
1.64476e-10
9.12777e-12
5.06696e-13
2.79246e-14
1.5711e-15
8.21627e-17
5.20037e-18
2.32924e-19
4.81268e-21
2.16713e-20
3.14128e-20
5.26238e-20
6.08622e-20
5.51688e-20
4.26483e-20
6.75933e-20
9.45785e-20
8.51829e-21
2.3228e-09
3.41834e-09
1.93524e-10
1.09506e-11
6.1803e-13
3.50086e-14
1.93949e-15
1.14086e-16
5.63994e-18
3.70526e-19
3.75121e-20
8.84451e-21
4.00328e-20
5.55204e-20
6.6194e-20
5.96185e-20
4.63101e-20
7.22692e-20
1.00161e-19
9.20483e-21
2.29478e-09
3.75273e-09
2.12789e-10
1.20549e-11
6.83772e-13
3.8577e-14
2.2167e-15
1.20255e-16
7.5972e-18
3.78267e-19
8.14436e-21
2.79464e-20
3.5396e-20
5.92032e-20
6.75814e-20
6.14211e-20
4.76494e-20
7.34209e-20
1.00947e-19
9.39284e-21
2.3738e-09
4.08471e-09
2.31588e-10
1.31233e-11
7.4273e-13
4.22502e-14
2.36492e-15
1.396e-16
7.18859e-18
4.54379e-19
4.87989e-20
8.84024e-21
4.16274e-20
5.57052e-20
6.60719e-20
5.93461e-20
4.59968e-20
7.03574e-20
9.7117e-20
9.17691e-21
2.44707e-09
4.37272e-09
2.48125e-10
1.40713e-11
7.99265e-13
4.523e-14
2.59911e-15
1.42613e-16
8.81099e-18
4.63448e-19
9.92914e-21
2.81852e-20
3.21239e-20
5.34836e-20
6.0323e-20
5.45516e-20
4.19849e-20
6.39241e-20
8.87784e-20
8.47054e-21
2.52008e-09
4.63951e-09
2.63251e-10
1.49343e-11
8.46706e-13
4.82064e-14
2.71007e-15
1.58717e-16
8.38774e-18
5.06251e-19
5.32317e-20
6.49288e-21
3.42661e-20
4.4184e-20
5.21408e-20
4.63454e-20
3.53963e-20
5.41609e-20
7.68567e-20
7.47254e-21
2.62113e-09
4.87936e-09
2.76999e-10
1.57168e-11
8.92866e-13
5.05806e-14
2.89781e-15
1.60484e-16
9.67493e-18
5.29148e-19
1.32501e-20
2.29735e-20
2.20647e-20
3.74e-20
4.14949e-20
3.71735e-20
2.80646e-20
4.30644e-20
6.2022e-20
6.06769e-21
2.78657e-09
5.1124e-09
2.90332e-10
1.64838e-11
9.35568e-13
5.32596e-14
3.00621e-15
1.74468e-16
9.47508e-18
5.50862e-19
5.31615e-20
2.90606e-21
2.17027e-20
2.63148e-20
3.10456e-20
2.72046e-20
2.04773e-20
3.15133e-20
4.5909e-20
4.50833e-21
2.68524e-09
5.2202e-09
2.96063e-10
1.67801e-11
9.51753e-13
5.3888e-14
3.07218e-15
1.71626e-16
1.00576e-17
5.71378e-19
1.71233e-20
1.54984e-20
1.08999e-20
1.92522e-20
2.08031e-20
1.84775e-20
1.38084e-20
2.11906e-20
3.06799e-20
2.91744e-21
2.84816e-09
5.39163e-09
3.05843e-10
1.73403e-11
9.82954e-13
5.58134e-14
3.15418e-15
1.80996e-16
1.00219e-17
5.71629e-19
4.57687e-20
2.20359e-22
8.47518e-21
9.08164e-21
1.09098e-20
9.24753e-21
6.68188e-21
1.10045e-20
1.76321e-20
1.69856e-21
3.15975e-09
5.56912e-09
3.1701e-10
1.80399e-11
1.0272e-12
5.84943e-14
3.33947e-15
1.89473e-16
1.09506e-17
6.19677e-19
3.06256e-20
4.95787e-21
7.21819e-22
2.36821e-21
2.32055e-21
1.75651e-21
8.98447e-22
2.54631e-21
7.24744e-21
9.08283e-22
3.38045e-09
5.69227e-09
3.37557e-10
1.89934e-11
1.15868e-12
6.25983e-14
4.60164e-15
1.28327e-16
4.82117e-17
2.51361e-18
4.85001e-18
2.11227e-18
1.30884e-18
6.53409e-19
3.05329e-19
1.23322e-19
4.25036e-20
8.84854e-21
3.63866e-22
3.34389e-24
)
;

boundaryField
{
    movingWall
    {
        type            calculated;
        value           nonuniform List<scalar> 
20
(
6.32378e-09
6.4388e-09
4.16924e-10
2.30802e-11
1.57319e-12
8.32121e-14
7.56949e-15
1.28269e-16
1.30301e-16
1.45114e-17
1.86565e-17
8.78291e-18
5.30062e-18
2.66026e-18
1.24275e-18
5.09549e-19
1.81941e-19
3.46202e-20
6.37067e-23
1.14186e-22
)
;
    }
    fixedWalls
    {
        type            calculated;
        value           nonuniform List<scalar> 
60
(
6.96414e-09
7.98699e-09
9.53105e-09
1.21172e-08
1.61482e-08
2.21909e-08
3.04398e-08
4.12307e-08
5.30321e-08
6.10046e-08
6.70471e-08
7.30285e-08
7.8206e-08
8.30037e-08
8.72941e-08
9.14164e-08
9.34734e-08
9.65009e-08
9.93356e-08
1.02131e-07
2.22488e-22
7.96418e-22
2.02761e-21
3.68649e-21
5.47223e-21
7.25185e-21
8.74102e-21
9.89741e-21
1.06028e-20
1.08694e-20
1.07409e-20
1.02371e-20
9.39102e-21
8.16909e-21
6.71329e-21
5.08738e-21
3.63128e-21
2.24533e-21
9.46109e-22
4.42425e-22
1.42791e-10
3.46705e-10
1.59773e-11
9.69736e-13
4.26257e-14
2.98144e-15
3.69084e-17
5.38577e-17
1.38581e-17
1.44595e-17
9.01081e-18
5.8429e-18
3.38382e-18
1.80421e-18
8.51574e-19
3.45163e-19
1.10956e-19
1.6502e-20
1.73046e-23
1.97143e-23
)
;
    }
    frontAndBack
    {
        type            empty;
    }
}


// ************************************************************************* //
