/*--------------------------------*- C++ -*----------------------------------*\
| =========                 |                                                 |
| \\      /  F ield         | OpenFOAM: The Open Source CFD Toolbox           |
|  \\    /   O peration     | Version:  2312                                  |
|   \\  /    A nd           | Website:  www.openfoam.com                      |
|    \\/     M anipulation  |                                                 |
\*---------------------------------------------------------------------------*/
FoamFile
{
    version     2.0;
    format      ascii;
    arch        "LSB;label=32;scalar=64";
    class       volScalarField;
    location    "3.25";
    object      epsilonzeroGrad;
}
// * * * * * * * * * * * * * * * * * * * * * * * * * * * * * * * * * * * * * //

dimensions      [0 2 -3 0 0 0 0];

internalField   nonuniform List<scalar> 
400
(
5.6482e-05
5.64797e-05
5.64776e-05
5.64758e-05
5.64741e-05
5.64726e-05
5.64714e-05
5.64699e-05
5.64691e-05
5.64678e-05
5.64672e-05
5.64663e-05
5.64659e-05
5.64654e-05
5.6465e-05
5.64647e-05
5.64645e-05
5.64643e-05
5.64642e-05
5.64642e-05
0.000102339
9.74694e-05
9.78092e-05
9.79561e-05
9.82481e-05
9.84039e-05
9.87007e-05
9.88661e-05
9.91678e-05
9.93428e-05
9.96493e-05
9.98345e-05
0.000100145
0.000100341
0.000100656
0.000100864
0.000101182
0.000101402
0.000101563
0.000101836
0.000179885
0.000169053
0.000169784
0.000170102
0.000170735
0.000171074
0.000171718
0.00017208
0.000172735
0.00017312
0.000173787
0.000174195
0.000174873
0.000175306
0.000175993
0.000176454
0.000177149
0.000177638
0.00017799
0.000178593
0.000251549
0.000234114
0.000235249
0.000235745
0.000236735
0.000237269
0.000238278
0.000238852
0.000239882
0.000240496
0.000241547
0.000242203
0.000243273
0.000243974
0.000245061
0.000245809
0.000246914
0.000247711
0.000248273
0.000249243
0.000300794
0.000278383
0.000279808
0.000280434
0.000281683
0.00028236
0.000283635
0.000284366
0.000285669
0.000286455
0.000287785
0.000288628
0.000289986
0.000290888
0.000292272
0.000293237
0.000294645
0.000295676
0.000296394
0.000297641
0.000330071
0.000304571
0.000306169
0.000306874
0.00030828
0.000309043
0.00031048
0.000311307
0.000312776
0.000313667
0.000315169
0.000316127
0.000317661
0.000318688
0.000320252
0.000321354
0.000322947
0.000324125
0.000324938
0.000326356
0.000347105
0.000319778
0.000321478
0.000322228
0.000323725
0.00032454
0.000326071
0.000326955
0.000328521
0.000329474
0.000331076
0.000332102
0.000333739
0.000334841
0.000336511
0.000337693
0.000339395
0.00034066
0.00034153
0.000343049
0.000357775
0.000329292
0.000331055
0.000331834
0.000333388
0.000334235
0.000335825
0.000336744
0.000338371
0.000339364
0.000341029
0.000342098
0.000343799
0.000344948
0.000346685
0.000347917
0.000349689
0.000351008
0.000351913
0.000353496
0.000365484
0.000336167
0.000337975
0.000338775
0.000340371
0.00034124
0.000342873
0.000343818
0.000345489
0.00034651
0.00034822
0.00034932
0.000351068
0.000352251
0.000354036
0.000355305
0.000357126
0.000358485
0.000359416
0.000361045
0.00037201
0.000341985
0.000343832
0.000344649
0.00034628
0.000347169
0.000348838
0.000349804
0.000351512
0.000352558
0.000354306
0.000355433
0.00035722
0.000358432
0.000360257
0.000361558
0.00036342
0.000364813
0.000365766
0.000367434
0.000378298
0.00034759
0.000349475
0.000350308
0.000351972
0.00035288
0.000354584
0.000355571
0.000357315
0.000358384
0.000360169
0.000361321
0.000363147
0.000364386
0.000366251
0.000367581
0.000369485
0.00037091
0.000371884
0.00037359
0.000384897
0.000353471
0.000355395
0.000356246
0.000357946
0.000358873
0.000360613
0.000361623
0.000363404
0.000364497
0.000366322
0.0003675
0.000369366
0.000370634
0.000372541
0.000373903
0.000375849
0.000377309
0.000378305
0.00038005
0.000392183
0.000359959
0.000361926
0.000362796
0.000364535
0.000365485
0.000367265
0.000368299
0.000370123
0.000371243
0.00037311
0.000374318
0.000376229
0.000377529
0.000379482
0.000380879
0.000382872
0.00038437
0.00038539
0.00038718
0.000400467
0.000367331
0.000369347
0.00037024
0.000372024
0.000372998
0.000374825
0.000375887
0.000377758
0.000378909
0.000380825
0.000382067
0.000384028
0.000385366
0.000387371
0.000388809
0.000390856
0.000392397
0.000393446
0.000395286
0.000410091
0.000375886
0.000377957
0.000378877
0.000380713
0.000381717
0.000383597
0.000384692
0.000386618
0.000387806
0.000389779
0.000391061
0.000393082
0.000394463
0.000396529
0.000398014
0.000400124
0.000401716
0.000402798
0.000404697
0.0004215
0.000386016
0.000388153
0.000389105
0.000391003
0.000392041
0.000393985
0.000395119
0.000397112
0.000398342
0.000400384
0.000401714
0.000403805
0.000405238
0.000407376
0.000408918
0.000411104
0.000412757
0.000413877
0.000415847
0.000435272
0.000398235
0.000400452
0.000401443
0.000403416
0.000404496
0.000406519
0.0004077
0.000409772
0.000411055
0.00041318
0.000414568
0.000416744
0.00041824
0.000420468
0.000422078
0.000424355
0.000426083
0.000427251
0.000429307
0.000451585
0.000412721
0.000415031
0.000416066
0.000418125
0.000419254
0.000421366
0.000422603
0.000424769
0.000426115
0.000428336
0.000429793
0.000432069
0.000433642
0.000435973
0.000437666
0.000440051
0.000441869
0.000443092
0.00044525
0.000468013
0.000428473
0.000430746
0.000431771
0.000433815
0.000434949
0.000437056
0.00043831
0.000440483
0.00044186
0.000444102
0.000445605
0.000447916
0.000449552
0.000451932
0.000453708
0.000456157
0.000458079
0.000459343
0.000461599
0.000472879
0.000472844
0.000472823
0.000472805
0.00047279
0.000472774
0.000472764
0.000472752
0.000472744
0.000472737
0.000472732
0.000472728
0.000472724
0.000472722
0.00047272
0.000472719
0.000472718
0.000472718
0.000472717
0.000472717
)
;

boundaryField
{
    movingWall
    {
        type            zeroGradient;
    }
    fixedWalls
    {
        type            zeroGradient;
    }
    frontAndBack
    {
        type            empty;
    }
}


// ************************************************************************* //
