/*--------------------------------*- C++ -*----------------------------------*\
| =========                 |                                                 |
| \\      /  F ield         | OpenFOAM: The Open Source CFD Toolbox           |
|  \\    /   O peration     | Version:  2312                                  |
|   \\  /    A nd           | Website:  www.openfoam.com                      |
|    \\/     M anipulation  |                                                 |
\*---------------------------------------------------------------------------*/
FoamFile
{
    version     2.0;
    format      ascii;
    arch        "LSB;label=32;scalar=64";
    class       volScalarField;
    location    "3.25";
    object      flowTypeField;
}
// * * * * * * * * * * * * * * * * * * * * * * * * * * * * * * * * * * * * * //

dimensions      [0 0 0 0 0 0 0];

internalField   nonuniform List<scalar> 
400
(
-0.144339
-0.0215154
-0.0448602
-0.0352127
-0.0452565
-0.117437
0.153251
-0.767564
0.310684
-0.038716
0.0567532
0.0418509
0.0604123
0.0738973
0.097906
0.136061
0.219197
0.408613
0.750011
0.880677
-0.236232
-0.0288779
-0.0765295
-0.0308051
-0.087721
-0.0601687
-0.0690014
-0.105621
0.202624
0.58025
0.836876
0.921563
0.838313
0.793498
0.740325
0.701852
0.676185
0.501048
0.138204
0.13524
-0.195269
-0.0149723
-0.0689522
0.00179974
-0.0684262
-0.015838
-0.0152153
0.0115586
-0.0206775
0.666858
0.913702
0.853526
0.795909
0.70336
0.626613
0.566194
0.529726
0.334147
0.0523041
0.0467003
-0.138083
0.00771334
-0.0516356
0.0506317
-0.036885
0.0598887
0.0765071
0.0152558
0.398315
0.441258
0.838904
0.865947
0.719261
0.618477
0.523852
0.45853
0.412088
0.213358
0.0223808
0.00860502
-0.0897302
0.0258531
-0.0343444
0.0824895
-0.00686803
0.105414
0.101595
0.187251
0.0728989
0.679579
0.906924
0.77938
0.673624
0.546942
0.445563
0.370699
0.321831
0.153592
0.00923401
-0.000808609
-0.062822
0.0400076
-0.0223638
0.108397
0.0136612
0.134392
0.172111
0.093961
0.466495
0.286144
0.797391
0.803603
0.615304
0.488483
0.380605
0.308313
0.253141
0.100319
0.00241395
-0.00789451
-0.0239075
0.0554773
-0.00240132
0.132989
0.0418616
0.179604
0.169983
0.276464
0.19525
0.651391
0.868215
0.714775
0.582715
0.439818
0.331803
0.254838
0.199712
0.0776048
-0.000859581
-0.00944538
0.000752191
0.0631486
0.00829567
0.142972
0.0573812
0.180094
0.226992
0.163959
0.482492
0.20829
0.742193
0.756631
0.536139
0.401471
0.292838
0.220708
0.162462
0.0536868
-0.00303647
-0.0098765
0.0356069
0.0727228
0.0264107
0.159368
0.0679747
0.219745
0.197878
0.303896
0.29943
0.58235
0.809417
0.64979
0.518702
0.370062
0.265858
0.191369
0.13341
0.0450218
-0.00320001
-0.00849304
0.0878693
0.0790078
0.0495086
0.162259
0.0975718
0.219195
0.240399
0.251346
0.449954
0.335077
0.665344
0.73238
0.479764
0.353383
0.248076
0.177123
0.118913
0.0373339
-0.00370872
-0.00795881
0.123036
0.0791336
0.0619977
0.161305
0.113838
0.231429
0.241014
0.314212
0.37415
0.518006
0.783677
0.596011
0.490924
0.340605
0.243174
0.17038
0.111521
0.0356522
-0.00280753
-0.00693556
0.132578
0.0717323
0.0619652
0.147239
0.111261
0.214929
0.234257
0.273397
0.411236
0.396896
0.599979
0.73546
0.4661
0.353919
0.250108
0.17807
0.120003
0.0407876
-0.00313301
-0.00664995
0.138068
0.0642269
0.0606054
0.131512
0.106519
0.197896
0.215099
0.275951
0.353172
0.443385
0.781559
0.583102
0.517252
0.366395
0.272597
0.198161
0.13719
0.0480624
-0.00100039
-0.00773693
0.139799
0.0550811
0.0564787
0.112044
0.0951983
0.171898
0.190545
0.232339
0.340614
0.382142
0.557705
0.781369
0.513166
0.41557
0.309956
0.234455
0.175145
0.0711987
0.00013184
-0.00908994
0.134219
0.04582
0.0513233
0.0922661
0.0848091
0.146663
0.163061
0.217412
0.28241
0.375243
0.762376
0.628674
0.603265
0.456191
0.364737
0.286357
0.225178
0.0976053
0.00673955
-0.00835497
0.117265
0.0352039
0.0423228
0.0700076
0.0673675
0.111934
0.131225
0.155587
0.25095
0.327859
0.564445
0.86184
0.615735
0.536125
0.431695
0.353937
0.291879
0.14441
0.0142245
-0.00219075
0.140834
0.0353645
0.0479123
0.0671849
0.072816
0.113034
0.122879
0.181486
0.215429
0.349003
0.756813
0.709421
0.723978
0.593008
0.510025
0.429599
0.367608
0.19436
0.027412
0.0103222
0.118696
0.0242793
0.0379932
0.0427176
0.0565066
0.0695149
0.0955025
0.0948688
0.192665
0.292978
0.635497
0.96352
0.760137
0.711038
0.625853
0.563582
0.516811
0.318955
0.0461407
0.00773896
0.0773657
0.0133446
0.0222951
0.0223187
0.0255026
0.0414291
0.0304615
0.0742261
0.0879554
0.295378
0.715499
0.844096
0.927692
0.846615
0.813716
0.788436
0.797117
0.598485
0.139599
0.00547555
0.0462145
0.00749718
0.0120606
0.0135038
0.00703182
0.0445101
-0.0591881
0.283814
-0.708174
0.39611
-0.0788796
0.0864535
0.0467293
0.0800444
0.0963821
0.131234
0.208935
0.397486
0.692112
0.883726
)
;

boundaryField
{
    movingWall
    {
        type            calculated;
        value           nonuniform List<scalar> 
20
(
0.703987
0.2462
0.210573
0.228121
0.180418
0.218709
0.0721437
0.471117
-0.319967
0.232145
-0.0608076
0.0288358
0.000386175
0.0135804
0.0136263
0.0226308
0.051657
0.167033
0.869899
0.574566
)
;
    }
    fixedWalls
    {
        type            calculated;
        value           nonuniform List<scalar> 
60
(
-0.0275752
-0.0410914
-0.0259101
-0.000923548
0.0195737
0.0360989
0.0539343
0.063827
0.0767953
0.0862325
0.0863093
0.0782919
0.070306
0.0604723
0.0507316
0.0397525
0.039129
0.0275789
0.0180161
0.0100637
0.174602
0.100466
0.0492176
0.0249981
0.0191709
0.0127517
0.011775
0.00915165
0.00787094
0.00743866
0.00664238
0.00782052
0.00939119
0.0147188
0.0181431
0.0233493
0.0228542
0.0509376
0.168626
0.243106
0.813762
0.269645
0.310142
0.270888
0.31739
0.232235
0.601069
-0.299829
0.162175
-0.0310312
0.0201395
0.00721005
0.0128155
0.013995
0.0194073
0.0312382
0.0643954
0.193749
0.905306
0.711087
)
;
    }
    frontAndBack
    {
        type            empty;
    }
}


// ************************************************************************* //
