/*--------------------------------*- C++ -*----------------------------------*\
| =========                 |                                                 |
| \\      /  F ield         | OpenFOAM: The Open Source CFD Toolbox           |
|  \\    /   O peration     | Version:  2312                                  |
|   \\  /    A nd           | Website:  www.openfoam.com                      |
|    \\/     M anipulation  |                                                 |
\*---------------------------------------------------------------------------*/
FoamFile
{
    version     2.0;
    format      ascii;
    arch        "LSB;label=32;scalar=64";
    class       surfaceScalarField;
    location    "3.25";
    object      fluxField;
}
// * * * * * * * * * * * * * * * * * * * * * * * * * * * * * * * * * * * * * //

dimensions      [0 3 -1 0 0 0 0];

oriented        oriented;

internalField   nonuniform List<scalar> 
760
(
-5e-05
-3.19493e-13
-5e-05
6.59644e-14
-5e-05
-1.51113e-14
-5e-05
2.86658e-15
-5e-05
-6.55611e-16
-5e-05
1.32486e-16
-5e-05
4.59083e-17
-5e-05
9.47813e-17
-5e-05
1.08297e-16
-5e-05
1.14777e-16
-5e-05
1.13675e-16
-5e-05
1.06877e-16
-5e-05
9.61054e-17
-5e-05
8.21247e-17
-5e-05
6.72055e-17
-5e-05
5.24577e-17
-5e-05
4.06241e-17
-5e-05
2.99218e-17
-5e-05
1.25919e-17
-3.3571e-18
-5e-05
6.64393e-13
-5e-05
-1.45034e-13
-5e-05
3.33882e-14
-5e-05
-7.63005e-15
-5e-05
1.53172e-15
-5e-05
-3.25078e-16
-5e-05
2.06384e-16
-5e-05
1.76732e-16
-5e-05
2.27626e-16
-5e-05
2.34758e-16
-5e-05
2.31062e-16
-5e-05
2.16043e-16
-5e-05
1.93426e-16
-5e-05
1.64784e-16
-5e-05
1.34603e-16
-5e-05
1.04745e-16
-5e-05
8.06667e-17
-5e-05
5.97346e-17
-5e-05
2.4796e-17
-6.53881e-18
-5e-05
-1.03445e-12
-5e-05
2.274e-13
-5e-05
-5.42132e-14
-5e-05
1.12954e-14
-5e-05
-2.75075e-15
-5e-05
6.85097e-16
-5e-05
1.17794e-16
-5e-05
3.42345e-16
-5e-05
3.48433e-16
-5e-05
3.64203e-16
-5e-05
3.51644e-16
-5e-05
3.26299e-16
-5e-05
2.9037e-16
-5e-05
2.46346e-16
-5e-05
2.00692e-16
-5e-05
1.55902e-16
-5e-05
1.1961e-16
-5e-05
8.83054e-17
-5e-05
3.67126e-17
-9.44492e-18
-5e-05
1.44662e-12
-5e-05
-3.33918e-13
-5e-05
7.73806e-14
-5e-05
-1.85092e-14
-5e-05
4.09239e-15
-5e-05
-7.47829e-16
-5e-05
5.97369e-16
-5e-05
4.15704e-16
-5e-05
5.11438e-16
-5e-05
4.97362e-16
-5e-05
4.76652e-16
-5e-05
4.36394e-16
-5e-05
3.85567e-16
-5e-05
3.25434e-16
-5e-05
2.64202e-16
-5e-05
2.04727e-16
-5e-05
1.56596e-16
-5e-05
1.15304e-16
-5e-05
4.79757e-17
-1.20271e-17
-5e-05
-1.83778e-12
-5e-05
4.14228e-13
-5e-05
-9.85918e-14
-5e-05
2.14728e-14
-5e-05
-4.80593e-15
-5e-05
1.55366e-15
-5e-05
3.61463e-16
-5e-05
7.05846e-16
-5e-05
6.55257e-16
-5e-05
6.46664e-16
-5e-05
6.0156e-16
-5e-05
5.44777e-16
-5e-05
4.76956e-16
-5e-05
4.00308e-16
-5e-05
3.23706e-16
-5e-05
2.50129e-16
-5e-05
1.90711e-16
-5e-05
1.39872e-16
-5e-05
5.83145e-17
-1.4206e-17
-5e-05
2.24573e-12
-5e-05
-5.32772e-13
-5e-05
1.25736e-13
-5e-05
-2.95851e-14
-5e-05
7.56279e-15
-5e-05
-8.6733e-16
-5e-05
1.24212e-15
-5e-05
7.827e-16
-5e-05
8.64984e-16
-5e-05
7.8753e-16
-5e-05
7.25738e-16
-5e-05
6.4677e-16
-5e-05
5.61526e-16
-5e-05
4.68502e-16
-5e-05
3.77345e-16
-5e-05
2.90708e-16
-5e-05
2.20895e-16
-5e-05
1.61417e-16
-5e-05
6.73806e-17
-1.59448e-17
-5e-05
-2.56127e-12
-5e-05
6.03309e-13
-5e-05
-1.44857e-13
-5e-05
3.40617e-14
-5e-05
-6.82898e-15
-5e-05
3.07459e-15
-5e-05
7.61335e-16
-5e-05
1.21358e-15
-5e-05
1.00173e-15
-5e-05
9.37535e-16
-5e-05
8.35382e-16
-5e-05
7.38107e-16
-5e-05
6.35073e-16
-5e-05
5.27207e-16
-5e-05
4.23051e-16
-5e-05
3.25063e-16
-5e-05
2.4623e-16
-5e-05
1.79168e-16
-5e-05
7.49188e-17
-1.7218e-17
-5e-05
2.60707e-12
-5e-05
-6.54608e-13
-5e-05
1.60338e-13
-5e-05
-3.48983e-14
-5e-05
1.16504e-14
-5e-05
-2.95191e-16
-5e-05
2.06849e-15
-5e-05
1.21184e-15
-5e-05
1.20726e-15
-5e-05
1.04221e-15
-5e-05
9.29431e-16
-5e-05
8.10587e-16
-5e-05
6.93759e-16
-5e-05
5.73406e-16
-5e-05
4.58804e-16
-5e-05
3.51726e-16
-5e-05
2.65653e-16
-5e-05
1.92637e-16
-5e-05
8.06556e-17
-1.80438e-17
-5e-05
-1.82972e-12
-5e-05
5.60422e-13
-5e-05
-1.22018e-13
-5e-05
4.15535e-14
-5e-05
-6.01717e-15
-5e-05
4.48991e-15
-5e-05
1.13491e-15
-5e-05
1.60933e-15
-5e-05
1.24361e-15
-5e-05
1.1355e-15
-5e-05
9.87925e-16
-5e-05
8.61155e-16
-5e-05
7.3333e-16
-5e-05
6.04702e-16
-5e-05
4.82832e-16
-5e-05
3.69562e-16
-5e-05
2.78491e-16
-5e-05
2.01288e-16
-5e-05
8.44513e-17
-1.84553e-17
-5e-05
1.31909e-12
-5e-05
-3.68499e-13
-5e-05
9.29259e-14
-5e-05
-2.21397e-14
-5e-05
9.15068e-15
-5e-05
2.67201e-16
-5e-05
2.23695e-15
-5e-05
1.3611e-15
-5e-05
1.35063e-15
-5e-05
1.14843e-15
-5e-05
1.02032e-15
-5e-05
8.82977e-16
-5e-05
7.52281e-16
-5e-05
6.19275e-16
-5e-05
4.94031e-16
-5e-05
3.77712e-16
-5e-05
2.84147e-16
-5e-05
2.04977e-16
-5e-05
8.61801e-17
-1.85025e-17
-5e-05
-1.13529e-12
-5e-05
3.01264e-13
-5e-05
-7.03025e-14
-5e-05
2.15604e-14
-5e-05
-3.02842e-15
-5e-05
3.09313e-15
-5e-05
1.23045e-15
-5e-05
1.52844e-15
-5e-05
1.25895e-15
-5e-05
1.15298e-15
-5e-05
1.00914e-15
-5e-05
8.80251e-16
-5e-05
7.48926e-16
-5e-05
6.16862e-16
-5e-05
4.91844e-16
-5e-05
3.75877e-16
-5e-05
2.8249e-16
-5e-05
2.03535e-16
-5e-05
8.58768e-17
-1.82237e-17
-5e-05
9.39967e-13
-5e-05
-2.45174e-13
-5e-05
6.02608e-14
-5e-05
-1.42943e-14
-5e-05
5.52328e-15
-5e-05
4.78038e-16
-5e-05
1.71518e-15
-5e-05
1.26111e-15
-5e-05
1.23779e-15
-5e-05
1.09294e-15
-5e-05
9.76395e-16
-5e-05
8.50356e-16
-5e-05
7.2551e-16
-5e-05
5.97569e-16
-5e-05
4.76552e-16
-5e-05
3.64052e-16
-5e-05
2.73483e-16
-5e-05
1.97155e-16
-5e-05
8.35308e-17
-1.76372e-17
-5e-05
-8.37748e-13
-5e-05
2.1538e-13
-5e-05
-5.05359e-14
-5e-05
1.43244e-14
-5e-05
-2.0424e-15
-5e-05
2.14562e-15
-5e-05
1.05992e-15
-5e-05
1.27495e-15
-5e-05
1.11463e-15
-5e-05
1.03063e-15
-5e-05
9.14068e-16
-5e-05
8.00541e-16
-5e-05
6.82845e-16
-5e-05
5.62805e-16
-5e-05
4.48748e-16
-5e-05
3.42776e-16
-5e-05
2.57539e-16
-5e-05
1.85885e-16
-5e-05
7.91938e-17
-1.67084e-17
-5e-05
6.90789e-13
-5e-05
-1.74639e-13
-5e-05
4.19108e-14
-5e-05
-9.89531e-15
-5e-05
3.70666e-15
-5e-05
4.91162e-16
-5e-05
1.33769e-15
-5e-05
1.06508e-15
-5e-05
1.04376e-15
-5e-05
9.34883e-16
-5e-05
8.37245e-16
-5e-05
7.30857e-16
-5e-05
6.23729e-16
-5e-05
5.13708e-16
-5e-05
4.09474e-16
-5e-05
3.12642e-16
-5e-05
2.34959e-16
-5e-05
1.69996e-16
-5e-05
7.28304e-17
-1.53986e-17
-5e-05
-5.80176e-13
-5e-05
1.34966e-13
-5e-05
-3.11007e-14
-5e-05
8.0766e-15
-5e-05
-5.66789e-16
-5e-05
1.47183e-15
-5e-05
9.98847e-16
-5e-05
1.0259e-15
-5e-05
9.24736e-16
-5e-05
8.3635e-16
-5e-05
7.41193e-16
-5e-05
6.45462e-16
-5e-05
5.49365e-16
-5e-05
4.51765e-16
-5e-05
3.5967e-16
-5e-05
2.74387e-16
-5e-05
2.06267e-16
-5e-05
1.4959e-16
-5e-05
6.44089e-17
-1.36854e-17
-5e-05
4.69035e-13
-5e-05
-1.31405e-13
-5e-05
3.37275e-14
-5e-05
-7.79921e-15
-5e-05
3.70951e-15
-5e-05
4.72294e-16
-5e-05
1.21543e-15
-5e-05
8.56544e-16
-5e-05
8.25311e-16
-5e-05
7.11712e-16
-5e-05
6.29067e-16
-5e-05
5.42587e-16
-5e-05
4.6029e-16
-5e-05
3.77405e-16
-5e-05
3.00003e-16
-5e-05
2.28696e-16
-5e-05
1.72182e-16
-5e-05
1.2539e-16
-5e-05
5.42731e-17
-1.1695e-17
-5e-05
-3.67806e-13
-5e-05
8.55116e-14
-5e-05
-1.711e-14
-5e-05
6.66233e-15
-5e-05
4.19724e-16
-5e-05
1.4519e-15
-5e-05
8.75756e-16
-5e-05
8.04698e-16
-5e-05
6.63567e-16
-5e-05
5.77885e-16
-5e-05
4.96929e-16
-5e-05
4.26654e-16
-5e-05
3.59568e-16
-5e-05
2.94114e-16
-5e-05
2.33451e-16
-5e-05
1.78103e-16
-5e-05
1.34492e-16
-5e-05
9.8455e-17
-5e-05
4.29486e-17
-9.5925e-18
-5e-05
1.94336e-13
-5e-05
-1.31017e-14
-5e-05
5.93943e-15
-5e-05
4.77742e-15
-5e-05
7.56933e-16
-5e-05
1.55893e-15
-5e-05
6.19567e-16
-5e-05
6.6562e-16
-5e-05
4.6857e-16
-5e-05
4.17022e-16
-5e-05
3.45463e-16
-5e-05
2.96042e-16
-5e-05
2.47293e-16
-5e-05
2.01784e-16
-5e-05
1.59824e-16
-5e-05
1.21891e-16
-5e-05
9.22975e-17
-5e-05
6.88274e-17
-5e-05
3.12492e-17
-7.20177e-18
-5e-05
-2.36522e-13
-5e-05
1.65194e-13
-5e-05
-3.79922e-14
-5e-05
1.91235e-14
-5e-05
-3.88813e-15
-5e-05
2.39062e-15
-5e-05
-5.01339e-17
-5e-05
4.98185e-16
-5e-05
2.09178e-16
-5e-05
2.26622e-16
-5e-05
1.71395e-16
-5e-05
1.4945e-16
-5e-05
1.22881e-16
-5e-05
1.00176e-16
-5e-05
7.89683e-17
-5e-05
5.99549e-17
-5e-05
4.57089e-17
-5e-05
3.58614e-17
-5e-05
1.76026e-17
-4.00359e-18
-5e-05
-5e-05
-5e-05
-5e-05
-5e-05
-5e-05
-5e-05
-5e-05
-5e-05
-5e-05
-5e-05
-5e-05
-5e-05
-5e-05
-5e-05
-5e-05
-5e-05
-5e-05
-5e-05
)
;

boundaryField
{
    movingWall
    {
        type            calculated;
        value           uniform -0;
    }
    fixedWalls
    {
        type            calculated;
        value           nonuniform List<scalar> 
60
(
5e-05
5e-05
5e-05
5e-05
5e-05
5e-05
5e-05
5e-05
5e-05
5e-05
5e-05
5e-05
5e-05
5e-05
5e-05
5e-05
5e-05
5e-05
5e-05
5e-05
-5e-05
-5e-05
-5e-05
-5e-05
-5e-05
-5e-05
-5e-05
-5e-05
-5e-05
-5e-05
-5e-05
-5e-05
-5e-05
-5e-05
-5e-05
-5e-05
-5e-05
-5e-05
-5e-05
-5e-05
0
0
0
0
0
0
0
0
0
0
0
0
0
0
0
0
0
0
0
0
)
;
    }
    frontAndBack
    {
        type            empty;
        value           nonuniform List<scalar> 0();
    }
}


// ************************************************************************* //
