/*--------------------------------*- C++ -*----------------------------------*\
| =========                 |                                                 |
| \\      /  F ield         | OpenFOAM: The Open Source CFD Toolbox           |
|  \\    /   O peration     | Version:  2312                                  |
|   \\  /    A nd           | Website:  www.openfoam.com                      |
|    \\/     M anipulation  |                                                 |
\*---------------------------------------------------------------------------*/
FoamFile
{
    version     2.0;
    format      ascii;
    arch        "LSB;label=32;scalar=64";
    class       volVectorField;
    location    "3.25";
    object      gradPhi;
}
// * * * * * * * * * * * * * * * * * * * * * * * * * * * * * * * * * * * * * //

dimensions      [0 2 -1 0 0 0 0];

internalField   nonuniform List<vector> 
400
(
(-0.02 -4.2812e-11 0)
(-4.18688e-11 4.1869e-11 0)
(1.31154e-12 -1.31124e-12 0)
(-2.29324e-12 2.29352e-12 0)
(2.76837e-13 -2.76612e-13 0)
(-8.86556e-14 8.88408e-14 0)
(2.51e-14 -2.49458e-14 0)
(-2.23405e-14 2.24748e-14 0)
(-1.93726e-14 1.9492e-14 0)
(-2.33149e-14 2.34222e-14 0)
(-2.2453e-14 2.25516e-14 0)
(-2.12536e-14 2.13484e-14 0)
(-1.90632e-14 1.91517e-14 0)
(-1.63004e-14 1.63847e-14 0)
(-1.33275e-14 1.34091e-14 0)
(-1.03613e-14 1.04364e-14 0)
(-8.02365e-15 8.0907e-15 0)
(-5.96563e-15 6.026e-15 0)
(-2.44018e-15 2.53904e-15 0)
(7.27919e-16 -6.94492e-16 0)
(-0.02 1.32827e-10 0)
(1.30897e-10 -1.30897e-10 0)
(-4.58923e-12 4.58947e-12 0)
(7.44259e-12 -7.44237e-12 0)
(-8.8973e-13 8.89932e-13 0)
(2.79794e-13 -2.79621e-13 0)
(-1.35512e-13 1.3566e-13 0)
(-5.67446e-15 5.80531e-15 0)
(-3.05527e-14 3.06724e-14 0)
(-2.22181e-14 2.23255e-14 0)
(-2.37351e-14 2.38365e-14 0)
(-2.16258e-14 2.17196e-14 0)
(-1.94288e-14 1.95173e-14 0)
(-1.6446e-14 1.65328e-14 0)
(-1.34152e-14 1.34949e-14 0)
(-1.04671e-14 1.0543e-14 0)
(-7.97733e-15 8.04748e-15 0)
(-5.77041e-15 5.8466e-15 0)
(-2.32769e-15 2.3827e-15 0)
(6.36929e-16 -5.805e-16 0)
(-0.02 -2.32523e-10 0)
(-2.29408e-10 2.29408e-10 0)
(8.83498e-12 -8.83485e-12 0)
(-1.30741e-11 1.30743e-11 0)
(1.67049e-12 -1.67034e-12 0)
(-5.27142e-13 5.27283e-13 0)
(1.91084e-13 -1.90955e-13 0)
(-5.08931e-14 5.10113e-14 0)
(-1.13985e-14 1.15028e-14 0)
(-2.86618e-14 2.87624e-14 0)
(-2.33348e-14 2.34266e-14 0)
(-2.218e-14 2.22687e-14 0)
(-1.92435e-14 1.93269e-14 0)
(-1.6269e-14 1.63469e-14 0)
(-1.31472e-14 1.32236e-14 0)
(-1.0085e-14 1.01569e-14 0)
(-7.7176e-15 7.77777e-15 0)
(-5.81508e-15 5.86929e-15 0)
(-2.36905e-15 2.47494e-15 0)
(6.58436e-16 -6.38174e-16 0)
(-0.02 3.4587e-10 0)
(3.42197e-10 -3.42197e-10 0)
(-1.3739e-11 1.37391e-11 0)
(1.97895e-11 -1.97894e-11 0)
(-2.61286e-12 2.61297e-12 0)
(7.70228e-13 -7.70118e-13 0)
(-3.53831e-13 3.53936e-13 0)
(1.16996e-14 -1.16009e-14 0)
(-5.18444e-14 5.19362e-14 0)
(-2.2051e-14 2.21364e-14 0)
(-2.59106e-14 2.59908e-14 0)
(-2.15729e-14 2.16486e-14 0)
(-1.90549e-14 1.91308e-14 0)
(-1.57098e-14 1.57793e-14 0)
(-1.2636e-14 1.27048e-14 0)
(-9.79713e-15 9.85676e-15 0)
(-7.37018e-15 7.42881e-15 0)
(-5.1798e-15 5.25326e-15 0)
(-2.13082e-15 2.15993e-15 0)
(4.96308e-16 -4.41769e-16 0)
(-0.02 -4.68157e-10 0)
(-4.62603e-10 4.62603e-10 0)
(1.87488e-11 -1.87487e-11 0)
(-2.68388e-11 2.68389e-11 0)
(3.52837e-12 -3.5283e-12 0)
(-1.13436e-12 1.13444e-12 0)
(3.84366e-13 -3.84288e-13 0)
(-9.24705e-14 9.25462e-14 0)
(-7.42808e-16 8.17024e-16 0)
(-3.59509e-14 3.60208e-14 0)
(-2.3482e-14 2.3549e-14 0)
(-2.21668e-14 2.22311e-14 0)
(-1.81202e-14 1.81799e-14 0)
(-1.49968e-14 1.50572e-14 0)
(-1.187e-14 1.19274e-14 0)
(-8.94679e-15 9.00123e-15 0)
(-6.74979e-15 6.79417e-15 0)
(-5.05242e-15 5.0823e-15 0)
(-2.0845e-15 2.18604e-15 0)
(5.06235e-16 -5.02016e-16 0)
(-0.02 6.00586e-10 0)
(5.94698e-10 -5.94698e-10 0)
(-2.45374e-11 2.45374e-11 0)
(3.4729e-11 -3.4729e-11 0)
(-4.85488e-12 4.85492e-12 0)
(1.36187e-12 -1.36182e-12 0)
(-6.3361e-13 6.33666e-13 0)
(2.9623e-14 -2.95682e-14 0)
(-7.99553e-14 8.00069e-14 0)
(-1.98854e-14 1.99382e-14 0)
(-2.68404e-14 2.68914e-14 0)
(-1.96803e-14 1.97306e-14 0)
(-1.70796e-14 1.71259e-14 0)
(-1.35443e-14 1.35908e-14 0)
(-1.06921e-14 1.07372e-14 0)
(-8.1924e-15 8.23125e-15 0)
(-6.05827e-15 6.09757e-15 0)
(-4.08958e-15 4.15045e-15 0)
(-1.70234e-15 1.70006e-15 0)
(3.07711e-16 -2.63261e-16 0)
(-0.02 -7.40462e-10 0)
(-7.31296e-10 7.31296e-10 0)
(3.01289e-11 -3.01289e-11 0)
(-4.36409e-11 4.36409e-11 0)
(5.9146e-12 -5.91458e-12 0)
(-1.95132e-12 1.95135e-12 0)
(6.34041e-13 -6.34013e-13 0)
(-1.42014e-13 1.42045e-13 0)
(2.26796e-14 -2.26456e-14 0)
(-4.09223e-14 4.09547e-14 0)
(-1.94669e-14 1.95001e-14 0)
(-1.93229e-14 1.93551e-14 0)
(-1.45253e-14 1.45586e-14 0)
(-1.18485e-14 1.18798e-14 0)
(-9.14862e-15 9.18017e-15 0)
(-6.75476e-15 6.7843e-15 0)
(-4.99948e-15 5.02246e-15 0)
(-3.73058e-15 3.73226e-15 0)
(-1.56172e-15 1.64468e-15 0)
(3.17637e-16 -3.26735e-16 0)
(-0.02 8.63548e-10 0)
(8.52546e-10 -8.52546e-10 0)
(-3.39449e-11 3.39449e-11 0)
(5.13006e-11 -5.13006e-11 0)
(-7.37767e-12 7.37766e-12 0)
(2.0884e-12 -2.0884e-12 0)
(-9.40609e-13 9.40613e-13 0)
(6.74119e-14 -6.74022e-14 0)
(-1.06283e-13 1.06295e-13 0)
(-8.31317e-15 8.32488e-15 0)
(-2.23934e-14 2.24081e-14 0)
(-1.33358e-14 1.33522e-14 0)
(-1.20487e-14 1.20655e-14 0)
(-9.13538e-15 9.15315e-15 0)
(-7.14353e-15 7.15998e-15 0)
(-5.44285e-15 5.45299e-15 0)
(-3.94565e-15 3.9601e-15 0)
(-2.48981e-15 2.52974e-15 0)
(-1.05383e-15 1.02088e-15 0)
(1.09188e-16 -7.79872e-17 0)
(-0.02 -9.447e-10 0)
(-9.20183e-10 9.20183e-10 0)
(2.94329e-11 -2.9433e-11 0)
(-5.94588e-11 5.94588e-11 0)
(7.55647e-12 -7.55649e-12 0)
(-2.79052e-12 2.7905e-12 0)
(9.25465e-13 -9.25482e-13 0)
(-1.70123e-13 1.70111e-13 0)
(6.97611e-14 -6.97712e-14 0)
(-3.43627e-14 3.43566e-14 0)
(-7.5108e-15 7.50606e-15 0)
(-1.16798e-14 1.16767e-14 0)
(-7.60344e-15 7.60182e-15 0)
(-6.41727e-15 6.41731e-15 0)
(-4.82412e-15 4.82512e-15 0)
(-3.4692e-15 3.47083e-15 0)
(-2.50801e-15 2.50336e-15 0)
(-1.93395e-15 1.90554e-15 0)
(-8.43724e-16 8.99856e-16 0)
(1.30695e-16 -1.57391e-16 0)
(-0.02 9.25509e-10 0)
(8.89971e-10 -8.89971e-10 0)
(-1.9215e-11 1.92149e-11 0)
(6.02132e-11 -6.02133e-11 0)
(-7.37616e-12 7.37611e-12 0)
(2.91351e-12 -2.91356e-12 0)
(-1.03654e-12 1.0365e-12 0)
(1.6046e-13 -1.60495e-13 0)
(-1.09297e-13 1.09268e-13 0)
(1.5417e-14 -1.54435e-14 0)
(-1.15044e-14 1.14821e-14 0)
(-2.56591e-15 2.54458e-15 0)
(-4.18719e-15 4.16787e-15 0)
(-2.75782e-15 2.74019e-15 0)
(-2.24662e-15 2.23148e-15 0)
(-1.75031e-15 1.73091e-15 0)
(-1.22092e-15 1.20644e-15 0)
(-5.59174e-16 5.7411e-16 0)
(-2.77933e-16 2.13537e-16 0)
(-5.62483e-17 6.92063e-17 0)
(-0.02 -8.62201e-10 0)
(-8.24231e-10 8.24231e-10 0)
(1.27619e-11 -1.2762e-11 0)
(-5.59641e-11 5.59641e-11 0)
(6.95016e-12 -6.95023e-12 0)
(-2.71633e-12 2.71626e-12 0)
(1.05109e-12 -1.05114e-12 0)
(-1.54842e-13 1.54786e-13 0)
(1.13026e-13 -1.13077e-13 0)
(-1.97977e-14 1.97518e-14 0)
(8.07659e-15 -8.11782e-15 0)
(-1.32349e-15 1.28568e-15 0)
(1.13985e-15 -1.17669e-15 0)
(3.02748e-16 -3.35736e-16 0)
(4.21862e-16 -4.53336e-16 0)
(4.45023e-16 -4.73941e-16 0)
(3.82157e-16 -4.14325e-16 0)
(7.61006e-17 -1.34584e-16 0)
(-4.79765e-17 6.86162e-17 0)
(-2.48154e-17 -1.50205e-17 0)
(-0.02 8.0305e-10 0)
(7.64773e-10 -7.64773e-10 0)
(-9.9817e-12 9.98161e-12 0)
(5.2521e-11 -5.25211e-11 0)
(-6.14612e-12 6.14603e-12 0)
(2.65855e-12 -2.65863e-12 0)
(-9.22803e-13 9.22722e-13 0)
(1.80115e-13 -1.80188e-13 0)
(-8.95886e-14 8.95168e-14 0)
(3.19176e-14 -3.19804e-14 0)
(8.71848e-16 -9.32122e-16 0)
(8.0402e-15 -8.09514e-15 0)
(4.23351e-15 -4.28637e-15 0)
(4.03002e-15 -4.07915e-15 0)
(3.03244e-15 -3.08023e-15 0)
(2.23835e-15 -2.28612e-15 0)
(1.68249e-15 -1.72654e-15 0)
(1.40621e-15 -1.42142e-15 0)
(5.06235e-16 -5.95796e-16 0)
(-1.85288e-16 1.77538e-16 0)
(-0.02 -7.31484e-10 0)
(-6.96983e-10 6.96983e-10 0)
(8.89249e-12 -8.8926e-12 0)
(-4.77543e-11 4.77542e-11 0)
(5.73688e-12 -5.73699e-12 0)
(-2.33361e-12 2.33351e-12 0)
(9.18688e-13 -9.18787e-13 0)
(-1.26251e-13 1.2616e-13 0)
(1.14449e-13 -1.14534e-13 0)
(-6.50826e-15 6.42719e-15 0)
(1.81781e-14 -1.82524e-14 0)
(8.0435e-15 -8.11681e-15 0)
(8.97987e-15 -9.04674e-15 0)
(6.74649e-15 -6.81091e-15 0)
(5.51895e-15 -5.58197e-15 0)
(4.29307e-15 -4.3497e-15 0)
(3.2227e-15 -3.28067e-15 0)
(2.06133e-15 -2.14084e-15 0)
(7.46117e-16 -7.60704e-16 0)
(-1.77017e-16 1.28651e-16 0)
(-0.02 6.52793e-10 0)
(6.20997e-10 -6.20998e-10 0)
(-7.56157e-12 7.56145e-12 0)
(4.27451e-11 -4.27452e-11 0)
(-4.99471e-12 4.99459e-12 0)
(2.17711e-12 -2.17723e-12 0)
(-7.65787e-13 7.65674e-13 0)
(1.57603e-13 -1.57707e-13 0)
(-6.81134e-14 6.80144e-14 0)
(3.68492e-14 -3.6942e-14 0)
(1.00668e-14 -1.01552e-14 0)
(1.56718e-14 -1.57566e-14 0)
(1.13357e-14 -1.14157e-14 0)
(9.92617e-15 -1.00036e-14 0)
(7.80197e-15 -7.87502e-15 0)
(5.90276e-15 -5.97565e-15 0)
(4.38075e-15 -4.44692e-15 0)
(3.23758e-15 -3.27607e-15 0)
(1.2689e-15 -1.37228e-15 0)
(-3.24255e-16 3.02086e-16 0)
(-0.02 -5.62096e-10 0)
(-5.34591e-10 5.3459e-10 0)
(5.81346e-12 -5.8136e-12 0)
(-3.65691e-11 3.6569e-11 0)
(4.2487e-12 -4.24883e-12 0)
(-1.80503e-12 1.8049e-12 0)
(7.08042e-13 -7.08162e-13 0)
(-9.62855e-14 9.61697e-14 0)
(9.68976e-14 -9.70061e-14 0)
(3.63132e-15 -3.73397e-15 0)
(2.37864e-14 -2.38842e-14 0)
(1.53971e-14 -1.54903e-14 0)
(1.51887e-14 -1.52777e-14 0)
(1.21695e-14 -1.22565e-14 0)
(9.87819e-15 -9.96209e-15 0)
(7.61337e-15 -7.69241e-15 0)
(5.71913e-15 -5.7902e-15 0)
(3.90429e-15 -3.99515e-15 0)
(1.55345e-15 -1.5998e-15 0)
(-3.54033e-16 3.04086e-16 0)
(-0.02 4.76676e-10 0)
(4.53992e-10 -4.53992e-10 0)
(-5.90597e-12 5.90583e-12 0)
(3.11971e-11 -3.11972e-11 0)
(-3.83693e-12 3.8368e-12 0)
(1.59326e-12 -1.59339e-12 0)
(-5.87862e-13 5.87739e-13 0)
(1.25081e-13 -1.25202e-13 0)
(-4.35527e-14 4.34407e-14 0)
(3.82124e-14 -3.83205e-14 0)
(1.793e-14 -1.80332e-14 0)
(2.1596e-14 -2.16964e-14 0)
(1.71971e-14 -1.72906e-14 0)
(1.47635e-14 -1.48576e-14 0)
(1.1736e-14 -1.18252e-14 0)
(8.9352e-15 -9.01978e-15 0)
(6.64722e-15 -6.72329e-15 0)
(4.84728e-15 -4.90275e-15 0)
(2.0117e-15 -2.11017e-15 0)
(-4.51641e-16 4.12228e-16 0)
(-0.02 -3.84441e-10 0)
(-3.66007e-10 3.66007e-10 0)
(4.71346e-12 -4.7136e-12 0)
(-2.5597e-11 2.55969e-11 0)
(3.08983e-12 -3.08997e-12 0)
(-1.3296e-12 1.32947e-12 0)
(5.31808e-13 -5.31936e-13 0)
(-6.73077e-14 6.71879e-14 0)
(8.25841e-14 -8.27009e-14 0)
(1.49835e-14 -1.50935e-14 0)
(2.95485e-14 -2.96571e-14 0)
(2.2051e-14 -2.21535e-14 0)
(2.04562e-14 -2.05557e-14 0)
(1.66098e-14 -1.67066e-14 0)
(1.33705e-14 -1.3464e-14 0)
(1.02339e-14 -1.032e-14 0)
(7.69278e-15 -7.77026e-15 0)
(5.38164e-15 -5.47019e-15 0)
(2.15894e-15 -2.23286e-15 0)
(-4.74802e-16 4.263e-16 0)
(-0.02 2.71072e-10 0)
(2.56085e-10 -2.56085e-10 0)
(-9.05417e-13 9.05283e-13 0)
(1.69287e-11 -1.69288e-11 0)
(-1.8306e-12 1.83047e-12 0)
(8.147e-13 -8.14826e-13 0)
(-2.86638e-13 2.86515e-13 0)
(8.79624e-14 -8.80828e-14 0)
(8.83429e-16 -9.97374e-16 0)
(4.08991e-14 -4.10097e-14 0)
(2.79124e-14 -2.80192e-14 0)
(2.69942e-14 -2.71003e-14 0)
(2.22478e-14 -2.23467e-14 0)
(1.85123e-14 -1.86116e-14 0)
(1.47023e-14 -1.47967e-14 0)
(1.11802e-14 -1.12692e-14 0)
(8.25857e-15 -8.33888e-15 0)
(5.7456e-15 -5.81641e-15 0)
(2.22512e-15 -2.32288e-15 0)
(-5.22778e-16 4.71973e-16 0)
(-0.02 -2.04693e-10 0)
(-1.98897e-10 1.98897e-10 0)
(6.5946e-12 -6.59472e-12 0)
(-1.45902e-11 1.45901e-11 0)
(2.31136e-12 -2.31148e-12 0)
(-7.57067e-13 7.56949e-13 0)
(3.98145e-13 -3.9826e-13 0)
(-1.35095e-14 1.33983e-14 0)
(7.68252e-14 -7.69337e-14 0)
(3.14279e-14 -3.15343e-14 0)
(3.5855e-14 -3.59593e-14 0)
(2.81059e-14 -2.82048e-14 0)
(2.44184e-14 -2.45163e-14 0)
(1.97283e-14 -1.98238e-14 0)
(1.56651e-14 -1.57562e-14 0)
(1.18783e-14 -1.19624e-14 0)
(8.90212e-15 -8.9761e-15 0)
(6.36764e-15 -6.45222e-15 0)
(2.66518e-15 -2.75868e-15 0)
(-6.23694e-16 5.75669e-16 0)
(-0.02 1.01637e-10 0)
(9.99096e-11 -9.99097e-11 0)
(-6.85324e-12 6.85318e-12 0)
(8.91361e-12 -8.91366e-12 0)
(-1.36439e-12 1.36433e-12 0)
(7.75851e-13 -7.75906e-13 0)
(-1.05007e-13 1.04953e-13 0)
(1.21397e-13 -1.2145e-13 0)
(3.32444e-14 -3.32964e-14 0)
(4.83123e-14 -4.83629e-14 0)
(3.40815e-14 -3.4132e-14 0)
(3.04998e-14 -3.05474e-14 0)
(2.48667e-14 -2.49137e-14 0)
(2.0352e-14 -2.03968e-14 0)
(1.60556e-14 -1.6099e-14 0)
(1.2277e-14 -1.23153e-14 0)
(9.4249e-15 -9.46168e-15 0)
(7.31393e-15 -7.35992e-15 0)
(3.4907e-15 -3.5371e-15 0)
(-8.28835e-16 8.2961e-16 0)
)
;

boundaryField
{
    movingWall
    {
        type            extrapolatedCalculated;
        value           nonuniform List<vector> 
20
(
(-0.02 1.01637e-10 0)
(9.99096e-11 -9.99097e-11 0)
(-6.85324e-12 6.85318e-12 0)
(8.91361e-12 -8.91366e-12 0)
(-1.36439e-12 1.36433e-12 0)
(7.75851e-13 -7.75906e-13 0)
(-1.05007e-13 1.04953e-13 0)
(1.21397e-13 -1.2145e-13 0)
(3.32444e-14 -3.32964e-14 0)
(4.83123e-14 -4.83629e-14 0)
(3.40815e-14 -3.4132e-14 0)
(3.04998e-14 -3.05474e-14 0)
(2.48667e-14 -2.49137e-14 0)
(2.0352e-14 -2.03968e-14 0)
(1.60556e-14 -1.6099e-14 0)
(1.2277e-14 -1.23153e-14 0)
(9.4249e-15 -9.46168e-15 0)
(7.31393e-15 -7.35992e-15 0)
(3.4907e-15 -3.5371e-15 0)
(-8.28835e-16 8.2961e-16 0)
)
;
    }
    fixedWalls
    {
        type            extrapolatedCalculated;
        value           nonuniform List<vector> 
60
(
(-0.02 -4.2812e-11 0)
(-0.02 1.32827e-10 0)
(-0.02 -2.32523e-10 0)
(-0.02 3.4587e-10 0)
(-0.02 -4.68157e-10 0)
(-0.02 6.00586e-10 0)
(-0.02 -7.40462e-10 0)
(-0.02 8.63548e-10 0)
(-0.02 -9.447e-10 0)
(-0.02 9.25509e-10 0)
(-0.02 -8.62201e-10 0)
(-0.02 8.0305e-10 0)
(-0.02 -7.31484e-10 0)
(-0.02 6.52793e-10 0)
(-0.02 -5.62096e-10 0)
(-0.02 4.76676e-10 0)
(-0.02 -3.84441e-10 0)
(-0.02 2.71072e-10 0)
(-0.02 -2.04693e-10 0)
(-0.02 1.01637e-10 0)
(7.27919e-16 -6.94492e-16 0)
(6.36929e-16 -5.805e-16 0)
(6.58436e-16 -6.38174e-16 0)
(4.96308e-16 -4.41769e-16 0)
(5.06235e-16 -5.02016e-16 0)
(3.07711e-16 -2.63261e-16 0)
(3.17637e-16 -3.26735e-16 0)
(1.09188e-16 -7.79872e-17 0)
(1.30695e-16 -1.57391e-16 0)
(-5.62483e-17 6.92063e-17 0)
(-2.48154e-17 -1.50205e-17 0)
(-1.85288e-16 1.77538e-16 0)
(-1.77017e-16 1.28651e-16 0)
(-3.24255e-16 3.02086e-16 0)
(-3.54033e-16 3.04086e-16 0)
(-4.51641e-16 4.12228e-16 0)
(-4.74802e-16 4.263e-16 0)
(-5.22778e-16 4.71973e-16 0)
(-6.23694e-16 5.75669e-16 0)
(-8.28835e-16 8.2961e-16 0)
(-0.02 -4.2812e-11 0)
(-4.18688e-11 4.1869e-11 0)
(1.31154e-12 -1.31124e-12 0)
(-2.29324e-12 2.29352e-12 0)
(2.76837e-13 -2.76612e-13 0)
(-8.86556e-14 8.88408e-14 0)
(2.51e-14 -2.49458e-14 0)
(-2.23405e-14 2.24748e-14 0)
(-1.93726e-14 1.9492e-14 0)
(-2.33149e-14 2.34222e-14 0)
(-2.2453e-14 2.25516e-14 0)
(-2.12536e-14 2.13484e-14 0)
(-1.90632e-14 1.91517e-14 0)
(-1.63004e-14 1.63847e-14 0)
(-1.33275e-14 1.34091e-14 0)
(-1.03613e-14 1.04364e-14 0)
(-8.02365e-15 8.0907e-15 0)
(-5.96563e-15 6.026e-15 0)
(-2.44018e-15 2.53904e-15 0)
(7.27919e-16 -6.94492e-16 0)
)
;
    }
    frontAndBack
    {
        type            empty;
    }
}


// ************************************************************************* //
