/*--------------------------------*- C++ -*----------------------------------*\
| =========                 |                                                 |
| \\      /  F ield         | OpenFOAM: The Open Source CFD Toolbox           |
|  \\    /   O peration     | Version:  2312                                  |
|   \\  /    A nd           | Website:  www.openfoam.com                      |
|    \\/     M anipulation  |                                                 |
\*---------------------------------------------------------------------------*/
FoamFile
{
    version     2.0;
    format      ascii;
    arch        "LSB;label=32;scalar=64";
    class       volTensorField;
    location    "3.25";
    object      gradU;
}
// * * * * * * * * * * * * * * * * * * * * * * * * * * * * * * * * * * * * * //

dimensions      [0 0 -1 0 0 0 0];

internalField   nonuniform List<tensor> 
400
(
(1.13837e-06 2.22833e-05 0 -3.3043e-06 -1.27797e-06 0 0 0 0)
(-1.24526e-06 -2.71634e-05 0 6.15569e-07 2.63858e-07 0 0 0 0)
(1.96563e-07 6.056e-06 0 -2.75493e-07 -6.04452e-08 0 0 0 0)
(-9.34922e-08 -1.43712e-06 0 5.39171e-08 1.14663e-08 0 0 0 0)
(1.1947e-08 3.21157e-07 0 -1.47894e-08 -2.62244e-09 0 0 0 0)
(-5.16042e-09 -7.38987e-08 0 8.90905e-09 5.29943e-10 0 0 0 0)
(8.26243e-10 1.71283e-08 0 2.60957e-09 1.83633e-10 0 0 0 0)
(-5.9276e-10 -3.75261e-09 0 3.91654e-09 3.79125e-10 0 0 0 0)
(-3.59792e-10 9.00933e-10 0 2.98934e-09 4.33188e-10 0 0 0 0)
(-4.70869e-10 -1.90896e-10 0 2.65161e-09 4.59107e-10 0 0 0 0)
(-4.48724e-10 3.68986e-11 0 2.14379e-09 4.547e-10 0 0 0 0)
(-4.25631e-10 -2.65852e-11 0 1.70472e-09 4.27509e-10 0 0 0 0)
(-3.80284e-10 -2.18447e-11 0 1.29126e-09 3.84422e-10 0 0 0 0)
(-3.2583e-10 -2.886e-11 0 9.35043e-10 3.28499e-10 0 0 0 0)
(-2.66334e-10 -2.87344e-11 0 6.3686e-10 2.68822e-10 0 0 0 0)
(-2.07191e-10 -2.55477e-11 0 4.01372e-10 2.09831e-10 0 0 0 0)
(-1.62928e-10 -2.34345e-11 0 2.20066e-10 1.62496e-10 0 0 0 0)
(-1.21485e-10 -2.81483e-11 0 7.49997e-11 1.19687e-10 0 0 0 0)
(-4.23652e-11 -3.24864e-11 0 -1.74014e-11 5.03676e-11 0 0 0 0)
(1.35525e-11 -9.61917e-12 0 -7.58942e-12 -1.34284e-11 0 0 0 0)
(-3.8271e-06 -2.32975e-05 0 6.56246e-06 3.93554e-06 0 0 0 0)
(4.27407e-06 2.83809e-05 0 -1.17397e-06 -8.43994e-07 0 0 0 0)
(-7.58215e-07 -6.30839e-06 0 5.39412e-07 1.93998e-07 0 0 0 0)
(3.54196e-07 1.49494e-06 0 -9.13482e-08 -4.19865e-08 0 0 0 0)
(-5.6955e-08 -3.32093e-07 0 3.51017e-08 8.74934e-09 0 0 0 0)
(2.25595e-08 7.67047e-08 0 -8.39332e-09 -1.83025e-09 0 0 0 0)
(-5.81875e-09 -1.72791e-08 0 2.33618e-09 6.41902e-10 0 0 0 0)
(9.72529e-10 4.00217e-09 0 -5.86093e-10 3.27804e-10 0 0 0 0)
(-9.05119e-10 -8.20951e-10 0 2.18385e-10 4.77317e-10 0 0 0 0)
(-3.747e-10 2.12409e-10 0 -2.18467e-11 4.79927e-10 0 0 0 0)
(-4.9811e-10 -6.84971e-11 0 1.75912e-11 4.69548e-10 0 0 0 0)
(-4.26959e-10 -4.36935e-11 0 -8.37546e-12 4.36665e-10 0 0 0 0)
(-3.89391e-10 -7.7165e-11 0 -8.26704e-12 3.89283e-10 0 0 0 0)
(-3.2854e-10 -8.67396e-11 0 -1.00289e-11 3.30638e-10 0 0 0 0)
(-2.67337e-10 -8.99335e-11 0 -8.48388e-12 2.69588e-10 0 0 0 0)
(-2.09658e-10 -8.07781e-11 0 -5.85469e-12 2.09148e-10 0 0 0 0)
(-1.63443e-10 -6.67093e-11 0 -2.76472e-12 1.6017e-10 0 0 0 0)
(-1.15928e-10 -8.39805e-11 0 -8.67362e-13 1.19251e-10 0 0 0 0)
(-4.02239e-11 -1.00629e-10 0 8.40257e-13 4.88164e-11 0 0 0 0)
(1.14112e-11 -2.73201e-11 0 2.98156e-13 -1.27269e-11 0 0 0 0)
(6.52685e-06 2.53749e-05 0 -7.60956e-06 -6.79539e-06 0 0 0 0)
(-7.26831e-06 -3.09049e-05 0 1.3808e-06 1.48974e-06 0 0 0 0)
(1.27919e-06 6.858e-06 0 -6.20343e-07 -3.50406e-07 0 0 0 0)
(-5.97802e-07 -1.62236e-06 0 1.08568e-07 7.57017e-08 0 0 0 0)
(9.49018e-08 3.61313e-07 0 -3.9525e-08 -1.71299e-08 0 0 0 0)
(-3.79259e-08 -8.20061e-08 0 1.047e-08 4.0407e-09 0 0 0 0)
(8.63345e-09 1.92863e-08 0 -2.29203e-09 -3.54357e-10 0 0 0 0)
(-2.71056e-09 -3.9172e-09 0 9.23063e-10 6.62449e-10 0 0 0 0)
(2.04426e-10 1.05306e-09 0 -1.58375e-10 4.83227e-10 0 0 0 0)
(-6.71636e-10 -1.98666e-10 0 4.30428e-11 5.17778e-10 0 0 0 0)
(-4.35253e-10 -6.36324e-12 0 -4.78675e-11 4.8233e-10 0 0 0 0)
(-4.51462e-10 -1.06849e-10 0 -3.54263e-11 4.41024e-10 0 0 0 0)
(-3.81937e-10 -1.27871e-10 0 -3.83808e-11 3.87774e-10 0 0 0 0)
(-3.26101e-10 -1.48555e-10 0 -3.07371e-11 3.26246e-10 0 0 0 0)
(-2.62187e-10 -1.50225e-10 0 -2.29851e-11 2.64358e-10 0 0 0 0)
(-2.01391e-10 -1.34965e-10 0 -1.50704e-11 2.04628e-10 0 0 0 0)
(-1.57941e-10 -1.13331e-10 0 -9.73071e-12 1.55774e-10 0 0 0 0)
(-1.17907e-10 -1.39502e-10 0 -3.41524e-12 1.14283e-10 0 0 0 0)
(-4.11726e-11 -1.64465e-10 0 2.22261e-12 4.76664e-11 0 0 0 0)
(1.2387e-11 -4.57087e-11 0 7.31836e-13 -1.16244e-11 0 0 0 0)
(-1.00559e-05 -2.86031e-05 0 8.66644e-06 9.9243e-06 0 0 0 0)
(1.12633e-05 3.48259e-05 0 -1.59536e-06 -2.24527e-06 0 0 0 0)
(-2.03044e-06 -7.72242e-06 0 7.15314e-07 5.26375e-07 0 0 0 0)
(9.35014e-07 1.82821e-06 0 -1.25679e-07 -1.19218e-07 0 0 0 0)
(-1.55053e-07 -4.03754e-07 0 4.80448e-08 2.73726e-08 0 0 0 0)
(5.97923e-08 9.34803e-08 0 -1.13344e-08 -5.7317e-09 0 0 0 0)
(-1.53657e-08 -2.06573e-08 0 3.30939e-09 1.9183e-09 0 0 0 0)
(3.10619e-09 4.83975e-09 0 -8.98641e-10 2.93437e-10 0 0 0 0)
(-1.78511e-09 -9.65622e-10 0 2.33049e-10 6.5202e-10 0 0 0 0)
(-2.64166e-10 2.11513e-10 0 -1.16525e-10 5.32636e-10 0 0 0 0)
(-5.7666e-10 -1.45251e-10 0 -4.91686e-11 5.0003e-10 0 0 0 0)
(-4.17472e-10 -1.3825e-10 0 -7.47286e-11 4.40377e-10 0 0 0 0)
(-3.84675e-10 -1.91943e-10 0 -6.03359e-11 3.80791e-10 0 0 0 0)
(-3.13118e-10 -2.10155e-10 0 -4.96294e-11 3.16353e-10 0 0 0 0)
(-2.51643e-10 -2.11551e-10 0 -3.56703e-11 2.54042e-10 0 0 0 0)
(-1.9643e-10 -1.89362e-10 0 -2.37982e-11 1.953e-10 0 0 0 0)
(-1.51788e-10 -1.57054e-10 0 -1.34712e-11 1.47945e-10 0 0 0 0)
(-1.04029e-10 -1.92088e-10 0 -4.58075e-12 1.07996e-10 0 0 0 0)
(-3.60497e-11 -2.26537e-10 0 1.95156e-12 4.50523e-11 0 0 0 0)
(8.48388e-12 -6.33621e-11 0 8.40257e-13 -1.03286e-11 0 0 0 0)
(1.35979e-05 3.30539e-05 0 -9.55888e-06 -1.31376e-05 0 0 0 0)
(-1.52194e-05 -4.03028e-05 0 1.7872e-06 2.99258e-06 0 0 0 0)
(2.74888e-06 8.98406e-06 0 -7.89427e-07 -7.0389e-07 0 0 0 0)
(-1.26507e-06 -2.12137e-06 0 1.45811e-07 1.59928e-07 0 0 0 0)
(2.09246e-07 4.74799e-07 0 -5.13926e-08 -3.55933e-08 0 0 0 0)
(-8.26613e-08 -1.0746e-07 0 1.408e-08 9.20596e-09 0 0 0 0)
(1.90693e-08 2.53115e-08 0 -3.16758e-09 -9.43627e-10 0 0 0 0)
(-5.78693e-09 -5.18348e-09 0 1.15977e-09 1.16057e-09 0 0 0 0)
(9.86516e-10 1.29225e-09 0 -3.31549e-10 5.75276e-10 0 0 0 0)
(-9.53827e-10 -3.50656e-10 0 -3.81097e-11 5.97209e-10 0 0 0 0)
(-3.93457e-10 -9.86223e-11 0 -1.4409e-10 4.99632e-10 0 0 0 0)
(-4.62656e-10 -2.26089e-10 0 -1.07472e-10 4.33535e-10 0 0 0 0)
(-3.56784e-10 -2.51896e-10 0 -9.55724e-11 3.65556e-10 0 0 0 0)
(-3.01462e-10 -2.75304e-10 0 -7.20181e-11 2.99498e-10 0 0 0 0)
(-2.36383e-10 -2.71278e-10 0 -5.12557e-11 2.38012e-10 0 0 0 0)
(-1.79164e-10 -2.41062e-10 0 -3.30411e-11 1.81611e-10 0 0 0 0)
(-1.38697e-10 -2.00635e-10 0 -1.97596e-11 1.3646e-10 0 0 0 0)
(-1.02511e-10 -2.42395e-10 0 -7.29126e-12 9.82716e-11 0 0 0 0)
(-3.57516e-11 -2.82789e-10 0 2.57498e-12 4.13551e-11 0 0 0 0)
(9.59519e-12 -8.04324e-11 0 1.11131e-12 -8.71587e-12 0 0 0 0)
(-1.78275e-05 -3.87481e-05 0 1.11121e-05 1.6334e-05 0 0 0 0)
(2.00327e-05 4.72596e-05 0 -2.15466e-06 -3.788e-06 0 0 0 0)
(-3.67184e-06 -1.05551e-05 0 9.4489e-07 8.97311e-07 0 0 0 0)
(1.67305e-06 2.49651e-06 0 -1.78206e-07 -2.04232e-07 0 0 0 0)
(-2.86784e-07 -5.54476e-07 0 6.66033e-08 4.94749e-08 0 0 0 0)
(1.08017e-07 1.2813e-07 0 -1.65819e-08 -9.68397e-09 0 0 0 0)
(-2.82859e-08 -2.87027e-08 0 4.5057e-09 3.52263e-09 0 0 0 0)
(5.94219e-09 6.35865e-09 0 -1.634e-09 3.07418e-10 0 0 0 0)
(-2.98299e-09 -1.52898e-09 0 1.43088e-10 8.3891e-10 0 0 0 0)
(-7.67073e-11 1.35869e-10 0 -3.22333e-10 5.63461e-10 0 0 0 0)
(-6.45995e-10 -3.08926e-10 0 -1.68322e-10 4.9671e-10 0 0 0 0)
(-3.689e-10 -2.72326e-10 0 -1.74638e-10 4.07969e-10 0 0 0 0)
(-3.49303e-10 -3.2598e-10 0 -1.29535e-10 3.3828e-10 0 0 0 0)
(-2.68774e-10 -3.37699e-10 0 -9.86895e-11 2.72774e-10 0 0 0 0)
(-2.12666e-10 -3.29439e-10 0 -6.77355e-11 2.14556e-10 0 0 0 0)
(-1.64934e-10 -2.90914e-10 0 -4.35307e-11 1.62314e-10 0 0 0 0)
(-1.26093e-10 -2.40393e-10 0 -2.45572e-11 1.20734e-10 0 0 0 0)
(-8.16404e-11 -2.87193e-10 0 -8.89046e-12 8.61803e-11 0 0 0 0)
(-2.77285e-11 -3.33524e-10 0 2.30393e-12 3.62643e-11 0 0 0 0)
(4.8518e-12 -9.60013e-11 0 1.13841e-12 -6.95519e-12 0 0 0 0)
(2.25553e-05 4.56e-05 0 -1.12484e-05 -1.9228e-05 0 0 0 0)
(-2.53866e-05 -5.57396e-05 0 2.21877e-06 4.54433e-06 0 0 0 0)
(4.72533e-06 1.25678e-05 0 -9.69788e-07 -1.08237e-06 0 0 0 0)
(-2.14336e-06 -2.9692e-06 0 1.89884e-07 2.54587e-07 0 0 0 0)
(3.7087e-07 6.69347e-07 0 -6.81657e-08 -5.75671e-08 0 0 0 0)
(-1.44759e-07 -1.53413e-07 0 1.79989e-08 1.57677e-08 0 0 0 0)
(3.40172e-08 3.53028e-08 0 -5.05691e-09 -1.92315e-09 0 0 0 0)
(-1.01495e-08 -7.8672e-09 0 1.20761e-09 1.72351e-09 0 0 0 0)
(2.29816e-09 1.5483e-09 0 -7.62465e-10 5.46986e-10 0 0 0 0)
(-1.26526e-09 -6.92856e-10 0 -2.31504e-10 6.0002e-10 0 0 0 0)
(-2.45789e-10 -2.54114e-10 0 -3.18511e-10 4.38578e-10 0 0 0 0)
(-4.23842e-10 -3.84519e-10 0 -2.18982e-10 3.6535e-10 0 0 0 0)
(-2.80863e-10 -3.87091e-10 0 -1.75044e-10 2.94185e-10 0 0 0 0)
(-2.39609e-10 -3.99028e-10 0 -1.24222e-10 2.34818e-10 0 0 0 0)
(-1.81279e-10 -3.81738e-10 0 -8.48117e-11 1.82825e-10 0 0 0 0)
(-1.36013e-10 -3.34885e-10 0 -5.30446e-11 1.37423e-10 0 0 0 0)
(-1.04002e-10 -2.76768e-10 0 -3.03306e-11 1.0134e-10 0 0 0 0)
(-7.5596e-11 -3.26864e-10 0 -1.13299e-11 7.10014e-11 0 0 0 0)
(-2.56685e-11 -3.75925e-10 0 2.41235e-12 3.01529e-11 0 0 0 0)
(6.07153e-12 -1.09741e-10 0 1.32815e-12 -5.09279e-12 0 0 0 0)
(-2.68572e-05 -5.34318e-05 0 1.06912e-05 2.06734e-05 0 0 0 0)
(3.03114e-05 6.54052e-05 0 -2.19092e-06 -5.03167e-06 0 0 0 0)
(-5.70072e-06 -1.48448e-05 0 1.0021e-06 1.22078e-06 0 0 0 0)
(2.57467e-06 3.52132e-06 0 -1.90472e-07 -2.7584e-07 0 0 0 0)
(-4.5867e-07 -7.93296e-07 0 7.47067e-08 7.39175e-08 0 0 0 0)
(1.71126e-07 1.83774e-07 0 -1.97722e-08 -1.34791e-08 0 0 0 0)
(-4.50773e-08 -4.27469e-08 0 4.36391e-09 5.2286e-09 0 0 0 0)
(1.02367e-08 8.82879e-09 0 -2.51535e-09 -6.95786e-12 0 0 0 0)
(-4.42211e-09 -2.65247e-09 0 -2.16569e-10 8.2213e-10 0 0 0 0)
(3.67219e-10 2.74617e-11 0 -6.17263e-10 4.18702e-10 0 0 0 0)
(-6.33499e-10 -5.43596e-10 0 -3.41307e-10 3.76197e-10 0 0 0 0)
(-2.2546e-10 -4.16719e-10 0 -2.94686e-10 2.89919e-10 0 0 0 0)
(-2.54489e-10 -4.56511e-10 0 -2.07408e-10 2.34747e-10 0 0 0 0)
(-1.78595e-10 -4.49059e-10 0 -1.49864e-10 1.848e-10 0 0 0 0)
(-1.41434e-10 -4.26835e-10 0 -9.95569e-11 1.43013e-10 0 0 0 0)
(-1.10453e-10 -3.724e-10 0 -6.22332e-11 1.06652e-10 0 0 0 0)
(-8.43509e-11 -3.06814e-10 0 -3.45318e-11 7.76926e-11 0 0 0 0)
(-4.89788e-11 -3.5838e-10 0 -1.26039e-11 5.38781e-11 0 0 0 0)
(-1.50433e-11 -4.09618e-10 0 2.1684e-12 2.29474e-11 0 0 0 0)
(1.11131e-12 -1.21061e-10 0 1.24683e-12 -3.30305e-12 0 0 0 0)
(3.10556e-05 6.12416e-05 0 -7.49222e-06 -1.77471e-05 0 0 0 0)
(-3.50757e-05 -7.51921e-05 0 1.68962e-06 4.86012e-06 0 0 0 0)
(6.72578e-06 1.73237e-05 0 -8.13356e-07 -1.12942e-06 0 0 0 0)
(-3.07075e-06 -4.11607e-06 0 1.56584e-07 3.05807e-07 0 0 0 0)
(5.41569e-07 9.31708e-07 0 -7.49661e-08 -7.06703e-08 0 0 0 0)
(-2.15102e-07 -2.22102e-07 0 1.42227e-08 1.91404e-08 0 0 0 0)
(5.12741e-08 4.8775e-08 0 -7.28042e-09 -3.7343e-09 0 0 0 0)
(-1.473e-08 -1.22737e-08 0 5.45272e-10 1.58997e-09 0 0 0 0)
(4.19627e-09 1.97396e-09 0 -1.25106e-09 1.45386e-10 0 0 0 0)
(-1.39e-09 -1.13879e-09 0 -4.56259e-10 3.73174e-10 0 0 0 0)
(7.68157e-11 -3.82897e-10 0 -4.81006e-10 2.33975e-10 0 0 0 0)
(-2.89943e-10 -5.25969e-10 0 -3.1778e-10 2.02271e-10 0 0 0 0)
(-1.3604e-10 -4.92211e-10 0 -2.4156e-10 1.58281e-10 0 0 0 0)
(-1.31758e-10 -4.90763e-10 0 -1.66344e-10 1.25183e-10 0 0 0 0)
(-9.35938e-11 -4.59886e-10 0 -1.10995e-10 9.61132e-11 0 0 0 0)
(-7.09881e-11 -4.00205e-10 0 -6.80337e-11 7.13437e-11 0 0 0 0)
(-5.44269e-11 -3.29542e-10 0 -3.74863e-11 5.13503e-11 0 0 0 0)
(-3.895e-11 -3.81609e-10 0 -1.3932e-11 3.46014e-11 0 0 0 0)
(-1.18178e-11 -4.33106e-10 0 1.81604e-12 1.51826e-11 0 0 0 0)
(2.71051e-12 -1.29386e-10 0 1.13841e-12 -1.64608e-12 0 0 0 0)
(-3.26598e-05 -6.63188e-05 0 1.83974e-06 1.25953e-05 0 0 0 0)
(3.69902e-05 8.2023e-05 0 -6.6129e-07 -3.71569e-06 0 0 0 0)
(-7.23376e-06 -1.93991e-05 0 2.74388e-07 8.59776e-07 0 0 0 0)
(3.31306e-06 4.58007e-06 0 -9.97992e-08 -2.54773e-07 0 0 0 0)
(-6.01031e-07 -1.07996e-06 0 3.18204e-08 6.06714e-08 0 0 0 0)
(2.38812e-07 2.5071e-07 0 -1.38976e-08 -1.68908e-08 0 0 0 0)
(-5.87547e-08 -6.02973e-08 0 1.98409e-09 4.40817e-09 0 0 0 0)
(1.6266e-08 1.27085e-08 0 -2.3969e-09 -9.9292e-10 0 0 0 0)
(-5.42361e-09 -3.86927e-09 0 -5.10713e-10 4.28093e-10 0 0 0 0)
(1.1373e-09 1.16051e-10 0 -7.44793e-10 5.16989e-11 0 0 0 0)
(-4.94993e-10 -7.14498e-10 0 -4.40593e-10 1.29594e-10 0 0 0 0)
(1.39862e-11 -4.92413e-10 0 -3.59413e-10 8.72888e-11 0 0 0 0)
(-1.03108e-10 -5.33599e-10 0 -2.5064e-10 7.58064e-11 0 0 0 0)
(-4.80302e-11 -5.11227e-10 0 -1.77999e-10 5.82918e-11 0 0 0 0)
(-4.31512e-11 -4.80674e-10 0 -1.16823e-10 4.47932e-11 0 0 0 0)
(-3.69713e-11 -4.17163e-10 0 -7.18555e-11 3.25983e-11 0 0 0 0)
(-3.02221e-11 -3.43557e-10 0 -3.9221e-11 2.26269e-11 0 0 0 0)
(-9.59519e-12 -3.94548e-10 0 -1.43657e-11 1.47567e-11 0 0 0 0)
(-2.71051e-14 -4.45866e-10 0 1.70762e-12 6.91512e-12 0 0 0 0)
(-1.84314e-12 -1.34598e-10 0 1.0842e-12 -1.88782e-13 0 0 0 0)
(3.22341e-05 7.01212e-05 0 2.37495e-06 -9.81752e-06 0 0 0 0)
(-3.66411e-05 -8.69276e-05 0 -2.93629e-07 2.67905e-06 0 0 0 0)
(7.28727e-06 2.07846e-05 0 1.55047e-07 -6.52913e-07 0 0 0 0)
(-3.31332e-06 -4.91517e-06 0 -4.99018e-09 1.74801e-07 0 0 0 0)
(6.27471e-07 1.16959e-06 0 1.70138e-10 -4.87164e-08 0 0 0 0)
(-2.44938e-07 -2.78365e-07 0 -5.98724e-10 1.13037e-08 0 0 0 0)
(6.27748e-08 6.46729e-08 0 -1.91085e-09 -4.02602e-09 0 0 0 0)
(-1.72248e-08 -1.62538e-08 0 -7.45362e-10 6.69371e-10 0 0 0 0)
(5.84832e-09 3.01858e-09 0 -8.79423e-10 -3.66732e-10 0 0 0 0)
(-1.31988e-09 -1.43729e-09 0 -5.67499e-10 1.82194e-11 0 0 0 0)
(4.6225e-10 -3.47308e-10 0 -4.74935e-10 -4.47342e-11 0 0 0 0)
(-1.00018e-10 -5.79756e-10 0 -3.4334e-10 -1.09031e-11 0 0 0 0)
(4.5401e-11 -5.21208e-10 0 -2.5514e-10 -1.34228e-11 0 0 0 0)
(2.08709e-12 -5.21776e-10 0 -1.77674e-10 -9.65291e-12 0 0 0 0)
(1.25225e-11 -4.85579e-10 0 -1.17934e-10 -8.74554e-12 0 0 0 0)
(6.55942e-12 -4.22371e-10 0 -7.18826e-11 -7.33866e-12 0 0 0 0)
(3.11708e-12 -3.47384e-10 0 -3.86789e-11 -6.62759e-12 0 0 0 0)
(2.00577e-12 -3.97321e-10 0 -1.41217e-11 -5.76533e-12 0 0 0 0)
(3.57787e-12 -4.48051e-10 0 1.27394e-12 -1.2129e-12 0 0 0 0)
(-8.13152e-14 -1.36112e-10 0 9.48677e-13 1.11538e-12 0 0 0 0)
(-3.05785e-05 -7.34573e-05 0 -4.55446e-06 8.30102e-06 0 0 0 0)
(3.47703e-05 9.11876e-05 0 8.02764e-07 -2.18575e-06 0 0 0 0)
(-6.94512e-06 -2.19034e-05 0 -3.81866e-07 5.22253e-07 0 0 0 0)
(3.15818e-06 5.18427e-06 0 6.11245e-08 -1.43419e-07 0 0 0 0)
(-5.96639e-07 -1.24346e-06 0 -2.46651e-08 3.42068e-08 0 0 0 0)
(2.36731e-07 2.954e-07 0 4.71064e-09 -1.04604e-08 0 0 0 0)
(-5.89014e-08 -7.09316e-08 0 -2.15778e-09 1.93893e-09 0 0 0 0)
(1.72974e-08 1.63678e-08 0 -3.41524e-10 -1.06934e-09 0 0 0 0)
(-5.2457e-09 -4.52042e-09 0 -7.28692e-10 -8.46375e-11 0 0 0 0)
(1.54174e-09 4.38048e-10 0 -5.1524e-10 -2.40156e-10 0 0 0 0)
(-2.70942e-10 -7.43621e-10 0 -4.31214e-10 -1.30981e-10 0 0 0 0)
(2.33917e-10 -4.61102e-10 0 -3.28134e-10 -1.19582e-10 0 0 0 0)
(6.25585e-11 -5.32349e-10 0 -2.4381e-10 -9.36625e-11 0 0 0 0)
(8.90943e-11 -5.0655e-10 0 -1.72768e-10 -7.71707e-11 0 0 0 0)
(6.2694e-11 -4.7836e-10 0 -1.14844e-10 -6.11687e-11 0 0 0 0)
(4.2311e-11 -4.15045e-10 0 -7.05274e-11 -4.72989e-11 0 0 0 0)
(2.75387e-11 -3.41983e-10 0 -3.86789e-11 -3.60278e-11 0 0 0 0)
(3.03035e-11 -3.89133e-10 0 -1.40133e-11 -2.55232e-11 0 0 0 0)
(1.50162e-11 -4.38985e-10 0 1.73472e-12 -9.38431e-12 0 0 0 0)
(-4.01155e-12 -1.345e-10 0 9.75782e-13 2.34584e-12 0 0 0 0)
(2.84824e-05 7.62365e-05 0 6.27831e-06 -7.11086e-06 0 0 0 0)
(-3.24685e-05 -9.47064e-05 0 -1.18939e-06 1.84222e-06 0 0 0 0)
(6.54563e-06 2.28269e-05 0 5.50245e-07 -4.43187e-07 0 0 0 0)
(-2.95612e-06 -5.40322e-06 0 -9.82642e-08 1.14475e-07 0 0 0 0)
(5.71057e-07 1.30255e-06 0 3.82188e-08 -3.02627e-08 0 0 0 0)
(-2.22431e-07 -3.10633e-07 0 -9.86686e-09 6.67032e-09 0 0 0 0)
(5.77227e-08 7.40639e-08 0 1.96522e-09 -2.62104e-09 0 0 0 0)
(-1.57958e-08 -1.82773e-08 0 -1.38867e-09 5.53678e-11 0 0 0 0)
(5.67466e-09 3.84776e-09 0 -3.50089e-10 -4.92662e-10 0 0 0 0)
(-1.02238e-09 -1.48363e-09 0 -5.20878e-10 -2.49263e-10 0 0 0 0)
(6.49356e-10 -2.26734e-10 0 -3.67653e-10 -2.49306e-10 0 0 0 0)
(8.73867e-11 -5.42438e-10 0 -3.05013e-10 -1.99257e-10 0 0 0 0)
(2.00767e-10 -4.78796e-10 0 -2.25324e-10 -1.70662e-10 0 0 0 0)
(1.31026e-10 -4.89282e-10 0 -1.62224e-10 -1.39057e-10 0 0 0 0)
(1.1479e-10 -4.55707e-10 0 -1.08366e-10 -1.11216e-10 0 0 0 0)
(8.27246e-11 -3.9723e-10 0 -6.69224e-11 -8.51046e-11 0 0 0 0)
(5.95498e-11 -3.25608e-10 0 -3.58329e-11 -6.37783e-11 0 0 0 0)
(4.24736e-11 -3.70678e-10 0 -1.31188e-11 -4.50773e-11 0 0 0 0)
(1.86212e-11 -4.20182e-10 0 1.19262e-12 -1.73478e-11 0 0 0 0)
(-2.81893e-12 -1.29074e-10 0 1.0842e-12 3.71511e-12 0 0 0 0)
(-2.54895e-05 -7.87259e-05 0 -7.7318e-06 6.11415e-06 0 0 0 0)
(2.90423e-05 9.78552e-05 0 1.52755e-06 -1.56008e-06 0 0 0 0)
(-5.85399e-06 -2.36311e-05 0 -6.85519e-07 3.69787e-07 0 0 0 0)
(2.64616e-06 5.59719e-06 0 1.31975e-07 -9.68788e-08 0 0 0 0)
(-5.08242e-07 -1.35126e-06 0 -4.99522e-08 2.29963e-08 0 0 0 0)
(2.00477e-07 3.23042e-07 0 1.25379e-08 -6.61782e-09 0 0 0 0)
(-5.04232e-08 -7.75466e-08 0 -3.92506e-09 1.11106e-09 0 0 0 0)
(1.49821e-08 1.84961e-08 0 6.79442e-10 -8.39493e-10 0 0 0 0)
(-4.3779e-09 -4.82505e-09 0 -7.29261e-10 -2.83462e-10 0 0 0 0)
(1.52417e-09 6.81405e-10 0 -3.24827e-10 -3.8298e-10 0 0 0 0)
(-5.50775e-11 -6.93615e-10 0 -3.67328e-10 -3.07295e-10 0 0 0 0)
(3.76137e-10 -3.82458e-10 0 -2.68503e-10 -2.78738e-10 0 0 0 0)
(2.05456e-10 -4.72149e-10 0 -2.10362e-10 -2.36464e-10 0 0 0 0)
(2.06107e-10 -4.47104e-10 0 -1.49837e-10 -1.96387e-10 0 0 0 0)
(1.57941e-10 -4.24408e-10 0 -1.01481e-10 -1.57097e-10 0 0 0 0)
(1.14898e-10 -3.67607e-10 0 -6.31548e-11 -1.20537e-10 0 0 0 0)
(8.13423e-11 -3.01956e-10 0 -3.58871e-11 -9.03213e-11 0 0 0 0)
(6.7329e-11 -3.42703e-10 0 -1.35796e-11 -6.35573e-11 0 0 0 0)
(2.91921e-11 -3.90193e-10 0 1.87025e-12 -2.54534e-11 0 0 0 0)
(-6.31548e-12 -1.20868e-10 0 1.38236e-12 5.2394e-12 0 0 0 0)
(2.22781e-05 8.07905e-05 0 8.38706e-06 -5.08386e-06 0 0 0 0)
(-2.54222e-05 -0.000100451 0 -1.66457e-06 1.23842e-06 0 0 0 0)
(5.15006e-06 2.42901e-05 0 7.52921e-07 -2.92046e-07 0 0 0 0)
(-2.32055e-06 -5.75001e-06 0 -1.43434e-07 7.18876e-08 0 0 0 0)
(4.5162e-07 1.39281e-06 0 5.64967e-08 -1.70938e-08 0 0 0 0)
(-1.76403e-07 -3.32518e-07 0 -1.44593e-08 3.92268e-09 0 0 0 0)
(4.58642e-08 7.98423e-08 0 3.71326e-09 -1.35536e-09 0 0 0 0)
(-1.25999e-08 -1.96718e-08 0 -1.75627e-09 -1.5672e-10 0 0 0 0)
(4.67031e-09 4.30428e-09 0 -9.45695e-11 -4.76097e-10 0 0 0 0)
(-6.60415e-10 -1.50746e-09 0 -4.78729e-10 -3.94134e-10 0 0 0 0)
(7.05761e-10 -1.22492e-10 0 -2.85281e-10 -3.84207e-10 0 0 0 0)
(2.44271e-10 -4.71607e-10 0 -2.57254e-10 -3.41579e-10 0 0 0 0)
(3.19406e-10 -3.96444e-10 0 -1.86374e-10 -2.97456e-10 0 0 0 0)
(2.3988e-10 -4.09916e-10 0 -1.3642e-10 -2.47772e-10 0 0 0 0)
(2.01499e-10 -3.79857e-10 0 -9.17777e-11 -1.99215e-10 0 0 0 0)
(1.48319e-10 -3.30454e-10 0 -5.7788e-11 -1.5302e-10 0 0 0 0)
(1.09071e-10 -2.68629e-10 0 -3.17129e-11 -1.14767e-10 0 0 0 0)
(8.02581e-11 -3.0581e-10 0 -1.23328e-11 -8.16258e-11 0 0 0 0)
(3.36374e-11 -3.51386e-10 0 8.13152e-13 -3.36862e-11 0 0 0 0)
(-6.07153e-12 -1.0886e-10 0 1.30104e-12 6.85291e-12 0 0 0 0)
(-1.8767e-05 -8.25714e-05 0 -7.91789e-06 4.19685e-06 0 0 0 0)
(2.14081e-05 0.000102647 0 1.52931e-06 -1.06548e-06 0 0 0 0)
(-4.33285e-06 -2.47977e-05 0 -7.00672e-07 2.59313e-07 0 0 0 0)
(1.94973e-06 5.87214e-06 0 1.3041e-07 -6.35032e-08 0 0 0 0)
(-3.79267e-07 -1.41923e-06 0 -5.13337e-08 1.71052e-08 0 0 0 0)
(1.47694e-07 3.3878e-07 0 1.24077e-08 -3.99815e-09 0 0 0 0)
(-3.77202e-08 -8.1626e-08 0 -4.0862e-09 8.66318e-10 0 0 0 0)
(1.11743e-08 1.93754e-08 0 6.9557e-10 -6.77411e-10 0 0 0 0)
(-3.1003e-09 -5.06246e-09 0 -7.09285e-10 -3.97698e-10 0 0 0 0)
(1.33338e-09 7.73295e-10 0 -2.76336e-10 -4.9855e-10 0 0 0 0)
(1.66398e-10 -6.4106e-10 0 -3.14988e-10 -4.48504e-10 0 0 0 0)
(4.75097e-10 -2.95707e-10 0 -2.1947e-10 -4.115e-10 0 0 0 0)
(3.26209e-10 -3.78342e-10 0 -1.70003e-10 -3.56299e-10 0 0 0 0)
(3.00731e-10 -3.48863e-10 0 -1.19452e-10 -2.97443e-10 0 0 0 0)
(2.36573e-10 -3.29656e-10 0 -8.04749e-11 -2.38669e-10 0 0 0 0)
(1.74963e-10 -2.83158e-10 0 -4.99004e-11 -1.82765e-10 0 0 0 0)
(1.26852e-10 -2.30561e-10 0 -2.81893e-11 -1.36339e-10 0 0 0 0)
(9.98279e-11 -2.61622e-10 0 -1.0571e-11 -9.67992e-11 0 0 0 0)
(4.27718e-11 -3.01714e-10 0 1.30104e-12 -4.0543e-11 0 0 0 0)
(-8.40257e-12 -9.40345e-11 0 9.21572e-13 7.96126e-12 0 0 0 0)
(1.58895e-05 8.39219e-05 0 1.06383e-05 -3.34737e-06 0 0 0 0)
(-1.8205e-05 -0.000104388 0 -2.21002e-06 8.67667e-07 0 0 0 0)
(3.75116e-06 2.52921e-05 0 9.58444e-07 -2.0335e-07 0 0 0 0)
(-1.67122e-06 -5.99222e-06 0 -1.99103e-07 5.78462e-08 0 0 0 0)
(3.33618e-07 1.45231e-06 0 7.26387e-08 -1.31592e-08 0 0 0 0)
(-1.29156e-07 -3.48757e-07 0 -2.04641e-08 3.91844e-09 0 0 0 0)
(3.4152e-08 8.3163e-08 0 4.77702e-09 -1.35868e-09 0 0 0 0)
(-9.22304e-09 -2.09359e-08 0 -2.40877e-09 -2.07383e-10 0 0 0 0)
(3.69838e-09 4.48314e-09 0 -1.87025e-12 -6.46978e-10 0 0 0 0)
(-2.66009e-10 -1.55827e-09 0 -4.89273e-10 -5.35309e-10 0 0 0 0)
(7.62574e-10 -3.54415e-11 0 -2.205e-10 -5.28551e-10 0 0 0 0)
(3.89256e-10 -3.79401e-10 0 -2.03342e-10 -4.63731e-10 0 0 0 0)
(4.19397e-10 -2.82387e-10 0 -1.34739e-10 -4.02888e-10 0 0 0 0)
(3.29462e-10 -2.92286e-10 0 -9.60603e-11 -3.33164e-10 0 0 0 0)
(2.71023e-10 -2.65179e-10 0 -6.12032e-11 -2.66208e-10 0 0 0 0)
(2.00659e-10 -2.28124e-10 0 -3.58871e-11 -2.0237e-10 0 0 0 0)
(1.484e-10 -1.82663e-10 0 -1.64799e-11 -1.50759e-10 0 0 0 0)
(1.09694e-10 -2.10014e-10 0 -4.14707e-12 -1.07739e-10 0 0 0 0)
(4.5157e-11 -2.46625e-10 0 1.0842e-12 -4.52983e-11 0 0 0 0)
(-8.29415e-12 -7.62779e-11 0 1.0842e-13 8.41019e-12 0 0 0 0)
(-1.03387e-05 -8.50511e-05 0 -9.57712e-06 2.24857e-06 0 0 0 0)
(1.17282e-05 0.000105791 0 1.94864e-06 -3.94453e-07 0 0 0 0)
(-2.32193e-06 -2.56075e-05 0 -8.75208e-07 9.21979e-08 0 0 0 0)
(1.06393e-06 6.06233e-06 0 1.73307e-07 -7.53962e-09 0 0 0 0)
(-2.00628e-07 -1.47316e-06 0 -7.10479e-08 1.34883e-09 0 0 0 0)
(7.98322e-08 3.50581e-07 0 1.64749e-08 4.281e-10 0 0 0 0)
(-1.96648e-08 -8.57518e-08 0 -6.3267e-09 -1.02475e-09 0 0 0 0)
(6.39544e-09 2.00871e-08 0 1.061e-09 -5.56311e-10 0 0 0 0)
(-1.18091e-09 -5.39039e-09 0 -9.13359e-10 -7.79986e-10 0 0 0 0)
(1.11475e-09 8.91721e-10 0 -1.77511e-10 -6.43453e-10 0 0 0 0)
(4.52302e-10 -5.69482e-10 0 -2.66931e-10 -6.05865e-10 0 0 0 0)
(5.60885e-10 -1.70044e-10 0 -1.49051e-10 -5.22447e-10 0 0 0 0)
(4.33518e-10 -2.47775e-10 0 -1.17582e-10 -4.49099e-10 0 0 0 0)
(3.74294e-10 -2.12183e-10 0 -7.7412e-11 -3.69318e-10 0 0 0 0)
(2.96692e-10 -1.98862e-10 0 -5.11472e-11 -2.94508e-10 0 0 0 0)
(2.19686e-10 -1.67709e-10 0 -3.17129e-11 -2.24848e-10 0 0 0 0)
(1.58592e-10 -1.35931e-10 0 -2.03288e-11 -1.68779e-10 0 0 0 0)
(1.17419e-10 -1.56161e-10 0 -7.80626e-12 -1.18511e-10 0 0 0 0)
(4.70273e-11 -1.85565e-10 0 2.22261e-12 -4.67975e-11 0 0 0 0)
(-9.59519e-12 -5.71464e-11 0 1.13841e-12 9.5629e-12 0 0 0 0)
(8.26106e-06 8.5776e-05 0 6.28074e-06 -1.72343e-06 0 0 0 0)
(-9.50306e-06 -0.000106545 0 -1.00685e-06 7.13182e-07 0 0 0 0)
(1.97583e-06 2.5679e-05 0 4.99247e-07 -1.75726e-07 0 0 0 0)
(-8.67056e-07 -6.08306e-06 0 -7.64251e-08 5.73845e-08 0 0 0 0)
(1.76786e-07 1.46028e-06 0 2.69617e-08 -1.85802e-08 0 0 0 0)
(-6.44349e-08 -3.5113e-07 0 -9.09429e-09 3.32677e-09 0 0 0 0)
(1.87381e-08 8.21786e-08 0 4.53766e-10 -2.6788e-09 0 0 0 0)
(-3.80964e-09 -2.06911e-08 0 -1.22458e-09 -6.6974e-10 0 0 0 0)
(2.45984e-09 4.396e-09 0 -2.83871e-10 -1.03757e-09 0 0 0 0)
(3.80419e-10 -1.38415e-09 0 -2.70888e-10 -7.61601e-10 0 0 0 0)
(7.91088e-10 8.5564e-11 0 -1.61926e-10 -6.9627e-10 0 0 0 0)
(5.38605e-10 -2.22635e-10 0 -1.23057e-10 -5.86368e-10 0 0 0 0)
(4.90981e-10 -1.29258e-10 0 -9.12627e-11 -4.97651e-10 0 0 0 0)
(3.95896e-10 -1.37696e-10 0 -6.88739e-11 -4.0643e-10 0 0 0 0)
(3.16804e-10 -1.20709e-10 0 -5.25838e-11 -3.23421e-10 0 0 0 0)
(2.31423e-10 -1.02395e-10 0 -4.31241e-11 -2.47746e-10 0 0 0 0)
(1.72307e-10 -7.63253e-11 0 -3.39355e-11 -1.86354e-10 0 0 0 0)
(1.32246e-10 -8.80322e-11 0 -1.66696e-11 -1.31864e-10 0 0 0 0)
(5.40746e-11 -1.18552e-10 0 1.84314e-12 -5.45866e-11 0 0 0 0)
(-1.16552e-11 -3.90433e-11 0 3.57787e-12 1.27927e-11 0 0 0 0)
(-5.06484e-06 -8.60613e-05 0 -3.83668e-06 9.46088e-07 0 0 0 0)
(5.94672e-06 0.000107339 0 6.4046e-07 -6.60776e-07 0 0 0 0)
(-1.39151e-06 -2.62633e-05 0 -2.80339e-07 1.51969e-07 0 0 0 0)
(5.91643e-07 6.21948e-06 0 5.61395e-08 -7.64942e-08 0 0 0 0)
(-1.33297e-07 -1.52721e-06 0 -4.92523e-09 1.55525e-08 0 0 0 0)
(5.33242e-08 3.66482e-07 0 1.26509e-08 -9.56249e-09 0 0 0 0)
(-1.17951e-08 -8.97483e-08 0 6.1854e-09 2.00535e-10 0 0 0 0)
(5.65783e-09 2.17283e-08 0 5.70789e-09 -1.99274e-09 0 0 0 0)
(-2.2714e-10 -5.48225e-09 0 4.3373e-09 -8.36711e-10 0 0 0 0)
(1.23664e-09 1.23302e-09 0 3.47517e-09 -9.06486e-10 0 0 0 0)
(6.0016e-10 -3.94248e-10 0 2.72024e-09 -6.85582e-10 0 0 0 0)
(6.31494e-10 2.8575e-11 0 2.08394e-09 -5.97802e-10 0 0 0 0)
(4.87783e-10 -6.78379e-11 0 1.55008e-09 -4.91522e-10 0 0 0 0)
(4.12946e-10 -3.79532e-11 0 1.10521e-09 -4.00706e-10 0 0 0 0)
(3.22415e-10 -4.01769e-11 0 7.41269e-10 -3.15873e-10 0 0 0 0)
(2.38362e-10 -3.06427e-11 0 4.6599e-10 -2.3982e-10 0 0 0 0)
(1.84992e-10 -2.00487e-11 0 2.71511e-10 -1.82836e-10 0 0 0 0)
(1.53225e-10 -2.43933e-11 0 1.08637e-10 -1.43446e-10 0 0 0 0)
(6.73018e-11 -4.09085e-11 0 -1.3932e-11 -7.04102e-11 0 0 0 0)
(-1.50433e-11 -1.53526e-11 0 -1.27665e-11 1.60144e-11 0 0 0 0)
)
;

boundaryField
{
    movingWall
    {
        type            extrapolatedCalculated;
        value           nonuniform List<tensor> 
20
(
(-5.06484e-06 -8.60613e-05 0 2.64001e-05 0.00045579 0 0 0 0)
(5.94672e-06 0.000107339 0 -6.14071e-06 -0.000111545 0 0 0 0)
(-1.39151e-06 -2.62633e-05 0 2.61316e-06 2.64354e-05 0 0 0 0)
(5.91643e-07 6.21948e-06 0 -5.74658e-07 -6.49201e-06 0 0 0 0)
(-1.33297e-07 -1.52721e-06 0 2.46589e-07 1.55744e-06 0 0 0 0)
(5.33242e-08 3.66482e-07 0 -4.1469e-08 -3.83158e-07 0 0 0 0)
(-1.17951e-08 -8.97483e-08 0 3.32922e-08 9.15094e-08 0 0 0 0)
(5.65783e-09 2.17283e-08 0 5.71152e-09 -2.41649e-08 0 0 0 0)
(-2.2714e-10 -5.48225e-09 0 1.06609e-08 4.59604e-09 0 0 0 0)
(1.23664e-09 1.23302e-09 0 6.6203e-09 -2.2359e-09 0 0 0 0)
(6.0016e-10 -3.94248e-10 0 5.71418e-09 -3.36047e-10 0 0 0 0)
(6.31494e-10 2.8575e-11 0 4.21974e-09 -6.58908e-10 0 0 0 0)
(4.87783e-10 -6.78379e-11 0 3.18812e-09 -4.50347e-10 0 0 0 0)
(4.12946e-10 -3.79532e-11 0 2.26867e-09 -3.87556e-10 0 0 0 0)
(3.22415e-10 -4.01769e-11 0 1.53637e-09 -2.98534e-10 0 0 0 0)
(2.38362e-10 -3.06427e-11 0 9.78861e-10 -2.26849e-10 0 0 0 0)
(1.84992e-10 -2.00487e-11 0 5.83178e-10 -1.75963e-10 0 0 0 0)
(1.53225e-10 -2.43933e-11 0 2.38742e-10 -1.46654e-10 0 0 0 0)
(6.73018e-11 -4.09085e-11 0 -2.96208e-11 -7.83902e-11 0 0 0 0)
(-1.50433e-11 -1.53526e-11 0 -3.04645e-11 1.69799e-11 0 0 0 0)
)
;
    }
    fixedWalls
    {
        type            extrapolatedCalculated;
        value           nonuniform List<tensor> 
60
(
(5.38419e-06 0.000114714 0 -3.3043e-06 -1.27797e-06 0 0 0 0)
(-1.86014e-05 -0.000119826 0 6.56246e-06 3.93554e-06 0 0 0 0)
(3.1634e-05 0.000130456 0 -7.60956e-06 -6.79539e-06 0 0 0 0)
(-4.90397e-05 -0.000147007 0 8.66644e-06 9.9243e-06 0 0 0 0)
(6.62998e-05 0.000170153 0 -9.55888e-06 -1.31376e-05 0 0 0 0)
(-8.72752e-05 -0.000199558 0 1.11121e-05 1.6334e-05 0 0 0 0)
(0.000110748 0.000235489 0 -1.12484e-05 -1.9228e-05 0 0 0 0)
(-0.000132269 -0.00027647 0 1.06912e-05 2.06734e-05 0 0 0 0)
(0.000153513 0.000318183 0 -7.49222e-06 -1.77471e-05 0 0 0 0)
(-0.000162238 -0.000347458 0 1.83974e-06 1.25953e-05 0 0 0 0)
(0.000160872 0.000368564 0 2.37495e-06 -9.81752e-06 0 0 0 0)
(-0.000152738 -0.000386728 0 -4.55446e-06 8.30102e-06 0 0 0 0)
(0.000142654 0.000401768 0 6.27831e-06 -7.11086e-06 0 0 0 0)
(-0.000127625 -0.000415172 0 -7.7318e-06 6.11415e-06 0 0 0 0)
(0.000111727 0.000426224 0 8.38706e-06 -5.08386e-06 0 0 0 0)
(-9.40764e-05 -0.000435507 0 -7.91789e-06 4.19685e-06 0 0 0 0)
(8.00553e-05 0.000443012 0 1.06383e-05 -3.34737e-06 0 0 0 0)
(-5.1523e-05 -0.000448897 0 -9.57712e-06 2.24857e-06 0 0 0 0)
(4.17468e-05 0.000452006 0 6.28074e-06 -1.72343e-06 0 0 0 0)
(-2.64001e-05 -0.00045579 0 -3.83668e-06 9.46088e-07 0 0 0 0)
(1.58984e-11 1.3505e-11 0 -7.58942e-12 -1.34284e-11 0 0 0 0)
(1.44773e-11 4.02085e-11 0 2.98156e-13 -1.27269e-11 0 0 0 0)
(1.45661e-11 6.44125e-11 0 7.31836e-13 -1.16244e-11 0 0 0 0)
(1.16351e-11 8.67063e-11 0 8.40257e-13 -1.03286e-11 0 0 0 0)
(1.1191e-11 1.05727e-10 0 1.11131e-12 -8.71587e-12 0 0 0 0)
(7.37188e-12 1.2157e-10 0 1.13841e-12 -6.95519e-12 0 0 0 0)
(6.39488e-12 1.33548e-10 0 1.32815e-12 -5.09279e-12 0 0 0 0)
(2.04281e-12 1.41941e-10 0 1.24683e-12 -3.30305e-12 0 0 0 0)
(1.5099e-12 1.4676e-10 0 1.13841e-12 -1.64608e-12 0 0 0 0)
(-2.4869e-12 1.48525e-10 0 1.0842e-12 -1.88782e-13 0 0 0 0)
(-2.84217e-12 1.47515e-10 0 9.48677e-13 1.11538e-12 0 0 0 0)
(-6.21725e-12 1.44064e-10 0 9.75782e-13 2.34584e-12 0 0 0 0)
(-6.79456e-12 1.38132e-10 0 1.0842e-12 3.71511e-12 0 0 0 0)
(-1.05249e-11 1.29203e-10 0 1.38236e-12 5.2394e-12 0 0 0 0)
(-1.23901e-11 1.17174e-10 0 1.30104e-12 6.85291e-12 0 0 0 0)
(-1.57208e-11 1.01792e-10 0 9.21572e-13 7.96126e-12 0 0 0 0)
(-1.6076e-11 8.53291e-11 0 1.0842e-13 8.41019e-12 0 0 0 0)
(-1.61648e-11 6.81509e-11 0 1.13841e-12 9.5629e-12 0 0 0 0)
(-2.05613e-11 4.70775e-11 0 3.57787e-12 1.27927e-11 0 0 0 0)
(-3.04645e-11 1.69799e-11 0 -1.27665e-11 1.60144e-11 0 0 0 0)
(1.13837e-06 2.22833e-05 0 5.38419e-06 0.000114714 0 0 0 0)
(-1.24526e-06 -2.71634e-05 0 -8.3072e-07 -2.55805e-05 0 0 0 0)
(1.96563e-07 6.056e-06 0 4.03147e-07 6.06032e-06 0 0 0 0)
(-9.34922e-08 -1.43712e-06 0 -4.44669e-08 -1.35648e-06 0 0 0 0)
(1.1947e-08 3.21157e-07 0 2.91783e-08 3.11857e-07 0 0 0 0)
(-5.16042e-09 -7.38987e-08 0 3.32103e-09 -7.18519e-08 0 0 0 0)