/*--------------------------------*- C++ -*----------------------------------*\
| =========                 |                                                 |
| \\      /  F ield         | OpenFOAM: The Open Source CFD Toolbox           |
|  \\    /   O peration     | Version:  2312                                  |
|   \\  /    A nd           | Website:  www.openfoam.com                      |
|    \\/     M anipulation  |                                                 |
\*---------------------------------------------------------------------------*/
FoamFile
{
    version     2.0;
    format      ascii;
    arch        "LSB;label=32;scalar=64";
    class       volScalarField;
    location    "3.25";
    object      Lambda2Field;
}
// * * * * * * * * * * * * * * * * * * * * * * * * * * * * * * * * * * * * * //

dimensions      [0 0 -2 0 0 0 0];

internalField   nonuniform List<scalar> 
400
(
0
-1.51703e-11
0
-6.87444e-14
0
-6.31737e-16
4.538e-17
-1.43459e-17
2.82264e-18
-2.84465e-19
2.80456e-19
1.35841e-19
1.16409e-19
7.91798e-20
5.26341e-20
3.2674e-20
2.13886e-20
1.22139e-20
2.36012e-21
2.53326e-22
0
-1.50508e-11
0
-1.11053e-14
0
-1.34879e-16
0
-1.39983e-18
3.18603e-19
1.3576e-19
2.21123e-19
1.8266e-19
1.52263e-19
1.08809e-19
7.22321e-20
4.42156e-20
2.68612e-20
1.35122e-20
1.53341e-21
1.2207e-22
0
0
0
0
0
0
3.03316e-17
0
0
2.59543e-19
1.8975e-19
1.98288e-19
1.50784e-19
1.10908e-19
7.21951e-20
4.25921e-20
2.60482e-20
1.35371e-20
1.32964e-21
1.01676e-22
0
0
0
0
4.64322e-15
0
7.89176e-17
0
5.59295e-19
4.51372e-20
2.5948e-19
1.84614e-19
1.59556e-19
1.08472e-19
7.08705e-20
4.26486e-20
2.51554e-20
1.1702e-20
8.57482e-22
1.87359e-23
0
0
4.64056e-13
0
1.93828e-14
0
1.23478e-16
0
5.44767e-19
3.70022e-19
1.69019e-19
2.12251e-19
1.51369e-19
1.09526e-19
6.97815e-20
4.00648e-20
2.32012e-20
1.14247e-20
5.49998e-22
0
0
0
3.50899e-12
0
4.53154e-14
0
1.58783e-16
0
1.18394e-18
0
3.03662e-19
1.83646e-19
1.64238e-19
1.05567e-19
6.75417e-20
3.90095e-20
2.18027e-20
9.21844e-21
4.51851e-25
-6.09144e-23
0
0
1.01406e-11
0
9.19179e-14
0
2.32403e-16
0
4.53576e-19
5.20423e-19
1.4135e-19
2.17683e-19
1.46642e-19
1.04708e-19
6.52378e-20
3.62634e-20
1.9211e-20
8.74454e-21
0
-1.08889e-22
1.50058e-10
0
1.76222e-11
0
1.34556e-13
0
3.95651e-16
0
2.73374e-18
1.17899e-19
3.37287e-19
1.73633e-19
1.59449e-19
9.91939e-20
6.2498e-20
3.45503e-20
1.77099e-20
6.91589e-21
0
-1.40033e-22
5.05615e-10
0
3.11459e-11
0
1.88496e-13
0
4.44395e-16
0
1.51782e-19
6.58842e-19
1.90077e-19
2.08056e-19
1.37405e-19
9.73061e-20
5.98049e-20
3.22667e-20
1.53156e-20
6.51384e-21
0
-1.39948e-22
9.44652e-10
0
4.70044e-11
0
2.78331e-13
0
8.6954e-16
0
4.97932e-18
0
3.50353e-19
1.77175e-19
1.44373e-19
9.33047e-20
5.80157e-20
3.10381e-20
1.4388e-20
5.76001e-21
0
-1.42534e-22
1.20557e-09
3.27018e-11
5.6327e-11
5.50829e-14
3.44458e-13
2.94437e-16
1.00098e-15
1.2563e-17
1.27849e-18
8.15991e-19
1.71022e-19
1.99172e-19
1.35042e-19
9.27102e-20
5.74231e-20
3.04042e-20
1.34461e-20
5.61489e-21
0
-1.27882e-22
1.2696e-09
7.79797e-11
5.65989e-11
3.37455e-13
3.86648e-13
1.50094e-15
1.33928e-15
0
6.89545e-18
0
3.62215e-19
1.65603e-19
1.33706e-19
9.34707e-20
5.88674e-20
3.10622e-20
1.39859e-20
6.10448e-21
0
-1.15151e-22
1.28988e-09
1.16037e-10
5.54057e-11
5.44047e-13
3.75888e-13
3.10946e-15
1.45198e-15
2.53843e-17
3.30115e-18
8.34923e-19
1.50477e-19
1.73087e-19
1.48192e-19
9.65409e-20
6.25599e-20
3.34269e-20
1.52137e-20
6.66687e-21
0
-1.2614e-22
1.25841e-09
1.51912e-10
5.04689e-11
7.48075e-13
3.25808e-13
4.09406e-15
1.66064e-15
1.32718e-17
7.79294e-18
0
2.57817e-19
1.80386e-19
1.41535e-19
1.0556e-19
6.80149e-20
3.64177e-20
1.74529e-20
8.6933e-21
1.22424e-22
-1.27197e-22
1.17391e-09
1.68741e-10
4.48117e-11
8.29915e-13
2.8265e-13
4.82336e-15
1.74722e-15
3.45737e-17
4.65708e-18
8.77009e-19
1.89184e-19
1.80991e-19
1.73399e-19
1.13463e-19
7.54643e-20
4.10948e-20
2.04154e-20
1.02128e-20
8.45743e-22
-9.46687e-23
1.00599e-09
1.58114e-10
3.61487e-11
7.69819e-13
2.16698e-13
4.21946e-15
1.75635e-15
1.39358e-17
8.48643e-18
3.48634e-20
2.29614e-19
2.34231e-19
1.70732e-19
1.30145e-19
8.24958e-20
4.47418e-20
2.25907e-20
1.21357e-20
1.43688e-21
-1.60564e-23
1.14527e-09
2.31453e-10
3.83123e-11
1.19641e-12
2.16795e-13
7.15234e-15
1.56363e-15
5.04727e-17
5.43902e-18
8.33181e-19
2.95743e-19
2.28668e-19
2.05818e-19
1.36622e-19
8.96835e-20
4.84506e-20
2.50329e-20
1.24786e-20
1.77177e-21
6.05228e-23
9.21434e-10
2.06304e-10
2.78032e-11
1.0507e-12
1.44916e-13
5.77597e-15
9.29231e-16
2.16219e-17
6.31792e-18
2.55741e-19
3.56589e-19
2.98296e-19
2.17072e-19
1.52822e-19
9.81973e-20
5.35807e-20
2.79146e-20
1.50063e-20
1.79912e-21
2.63929e-23
6.06982e-10
1.07783e-10
1.67241e-11
4.68192e-13
7.06249e-14
3.20435e-15
3.88406e-16
2.57864e-17
4.80291e-18
5.19669e-19
4.86249e-19
3.17492e-19
2.52859e-19
1.66218e-19
1.06712e-19
5.79723e-20
3.22798e-20
1.88555e-20
2.70555e-21
0
3.55842e-10
6.91828e-11
9.29892e-12
3.5501e-13
2.529e-14
4.72777e-15
0
1.27994e-16
0
5.10667e-18
0
4.16916e-19
1.32777e-19
1.18619e-19
7.41693e-20
4.25372e-20
2.87786e-20
1.79266e-20
5.09948e-21
4.22299e-22
)
;

boundaryField
{
    movingWall
    {
        type            calculated;
        value           nonuniform List<scalar> 
20
(
0
0
0
0
0
0
0
1.56113e-16
0
9.69226e-18
0
5.19363e-19
2.16568e-20
6.40963e-20
4.22246e-20
2.14655e-20
2.25301e-20
1.56837e-20
5.74128e-21
6.94009e-22
)
;
    }
    fixedWalls
    {
        type            calculated;
        value           nonuniform List<scalar> 
60
(
0
-4.40339e-10
7.99882e-12
0
2.76919e-09
0
9.61625e-09
0
2.11823e-08
0
2.67551e-08
1.83025e-09
2.28726e-08
3.24741e-09
1.60577e-08
3.46591e-09
1.11218e-08
4.3042e-09
4.58172e-09
1.74962e-09
1.50264e-22
1.73961e-22
2.59311e-22
1.79536e-22
2.42735e-22
1.86771e-22
2.18266e-22
1.8115e-22
1.69353e-22
1.61067e-22
1.48022e-22
1.46078e-22
1.95929e-22
2.06056e-22
3.05963e-22
1.5719e-22
2.6769e-22
1.69033e-22
5.91205e-22
3.96857e-23
1.21274e-10
2.41158e-11
2.4801e-12
7.26449e-14
9.51354e-15
0
1.469e-16
-1.3717e-17
5.6842e-18
-7.68413e-19
3.59356e-19
7.99787e-20
8.82647e-20
5.17113e-20
3.42599e-20
2.23543e-20
1.60554e-20
9.237e-21
3.04129e-21
3.35316e-22
)
;
    }
    frontAndBack
    {
        type            empty;
    }
}


// ************************************************************************* //
