/*--------------------------------*- C++ -*----------------------------------*\
| =========                 |                                                 |
| \\      /  F ield         | OpenFOAM: The Open Source CFD Toolbox           |
|  \\    /   O peration     | Version:  2312                                  |
|   \\  /    A nd           | Website:  www.openfoam.com                      |
|    \\/     M anipulation  |                                                 |
\*---------------------------------------------------------------------------*/
FoamFile
{
    version     2.0;
    format      ascii;
    arch        "LSB;label=32;scalar=64";
    class       volScalarField;
    location    "3.25";
    object      QField;
}
// * * * * * * * * * * * * * * * * * * * * * * * * * * * * * * * * * * * * * //

dimensions      [0 0 -2 0 0 0 0];

internalField   nonuniform List<scalar> 
400
(
7.21761e-11
1.63924e-11
1.6565e-12
7.64132e-14
4.7184e-15
6.55632e-16
-4.45456e-17
1.44726e-17
-2.84905e-18
2.90003e-19
-2.83138e-19
-1.36641e-19
-1.17982e-19
-8.00494e-20
-5.32967e-20
-3.3221e-20
-2.13182e-20
-1.24291e-20
-2.69914e-21
-2.54992e-22
1.37827e-10
2.97112e-11
3.25572e-12
1.21689e-13
1.11587e-14
6.02518e-16
3.66321e-17
2.66444e-18
-2.52745e-19
-1.75188e-19
-2.32681e-19
-1.86804e-19
-1.52221e-19
-1.09498e-19
-7.28338e-20
-4.43223e-20
-2.63632e-20
-1.38975e-20
-1.87903e-21
-1.37083e-22
1.48739e-10
3.18455e-11
3.80608e-12
1.30883e-13
1.26552e-14
7.05355e-16
4.11455e-17
1.82021e-18
2.65562e-19
-3.39207e-19
-2.1024e-19
-2.02891e-19
-1.53013e-19
-1.10955e-19
-7.27642e-20
-4.32441e-20
-2.57059e-20
-1.39512e-20
-1.59701e-21
-1.10541e-22
1.4809e-10
3.02708e-11
4.45519e-12
1.18297e-13
1.51541e-14
7.16834e-16
3.88872e-17
5.26067e-18
-9.38891e-19
-1.16058e-19
-2.95489e-19
-1.94176e-19
-1.58062e-19
-1.09485e-19
-7.14741e-20
-4.28693e-20
-2.4572e-20
-1.21146e-20
-1.18202e-21
-3.43866e-23
1.37314e-10
2.6484e-11
5.15735e-12
1.06999e-13
1.69534e-14
7.52064e-16
6.21817e-17
-7.0447e-19
9.95964e-19
-5.82998e-19
-2.10794e-19
-2.24876e-19
-1.54499e-19
-1.10114e-19
-7.01667e-20
-4.05031e-20
-2.2891e-20
-1.18413e-20
-7.50334e-22
5.75471e-24
1.39376e-10
2.59444e-11
6.67861e-12
1.03203e-13
2.27413e-14
1.0786e-15
2.96849e-17
1.22168e-17
-2.28369e-18
5.73614e-22
-3.72871e-19
-1.98058e-19
-1.60388e-19
-1.06642e-19
-6.79436e-20
-3.94348e-20
-2.1127e-20
-9.58907e-21
-2.37136e-22
7.55439e-23
7.92324e-11
8.30823e-12
7.07355e-12
1.81325e-14
2.42766e-14
4.78756e-16
1.13103e-16
-7.99218e-18
2.43758e-18
-9.19582e-19
-1.88736e-19
-2.39053e-19
-1.50384e-19
-1.05833e-19
-6.55181e-20
-3.64551e-20
-1.89341e-20
-9.07076e-21
1.32883e-22
1.14832e-22
1.60223e-11
-9.21893e-12
7.91669e-12
-3.94855e-14
2.53608e-14
1.32699e-15
-4.91475e-17
2.21363e-17
-4.20999e-18
1.70707e-19
-4.23853e-19
-1.88166e-19
-1.54425e-19
-1.00302e-19
-6.27212e-20
-3.49557e-20
-1.71483e-20
-7.15585e-21
5.43014e-22
1.47273e-22
-9.23127e-11
-4.3426e-11
6.49404e-12
-2.9455e-13
3.15736e-14
-9.58244e-16
1.63629e-16
-1.67278e-17
3.07962e-18
-1.0383e-18
-1.66203e-19
-2.25789e-19
-1.40431e-19
-9.81291e-20
-6.00407e-20
-3.2292e-20
-1.51482e-20
-6.6643e-21
6.07111e-22
1.42833e-22
-2.89349e-10
-8.32032e-11
-8.9653e-13
-3.86991e-13
-2.10052e-15
-5.49466e-16
-1.39366e-16
1.43101e-17
-4.2979e-18
1.45231e-19
-3.78951e-19
-1.75759e-19
-1.41558e-19
-9.37976e-20
-5.80866e-20
-3.11806e-20
-1.41585e-20
-5.80954e-21
7.61181e-22
1.46279e-22
-4.82993e-10
-1.23688e-10
-7.98054e-12
-6.03699e-13
-3.07671e-14
-2.93537e-15
-1.29152e-16
-2.36447e-17
5.09843e-19
-8.39706e-19
-1.85627e-19
-1.97963e-19
-1.3359e-19
-9.2726e-20
-5.73758e-20
-3.04093e-20
-1.34571e-20
-5.62243e-21
5.6645e-22
1.29036e-22
-5.88391e-10
-1.49202e-10
-1.19913e-11
-7.69829e-13
-5.10792e-14
-3.86781e-15
-2.6726e-16
-1.29069e-17
-2.85001e-18
-1.44557e-19
-2.85172e-19
-1.79275e-19
-1.35651e-19
-9.43908e-20
-5.87718e-20
-3.12733e-20
-1.42197e-20
-6.22648e-21
6.20601e-22
1.21833e-22
-6.8117e-10
-1.72457e-10
-1.54613e-11
-8.69344e-13
-6.70636e-14
-4.54865e-15
-2.96846e-16
-2.62558e-17
-1.44863e-18
-5.17951e-19
-2.45247e-19
-1.82863e-19
-1.42148e-19
-9.75932e-20
-6.21497e-20
-3.36238e-20
-1.54655e-20
-6.77746e-21
1.78081e-22
1.29469e-22
-7.6454e-10
-1.94787e-10
-1.83643e-11
-9.95046e-13
-7.91863e-14
-5.37699e-15
-3.60398e-16
-2.51445e-17
-2.27775e-18
-3.62389e-19
-2.37859e-19
-2.07535e-19
-1.47905e-19
-1.07469e-19
-6.78816e-20
-3.70656e-20
-1.81833e-20
-8.93302e-21
-1.32819e-23
1.33993e-22
-7.90854e-10
-1.98691e-10
-1.97926e-11
-9.91567e-13
-8.6409e-14
-5.49995e-15
-3.58637e-16
-3.25744e-17
-1.81647e-18
-4.61376e-19
-3.06103e-19
-2.0476e-19
-1.68896e-19
-1.15356e-19
-7.5004e-20
-4.17921e-20
-2.10367e-20
-1.03226e-20
-8.47384e-22
1.00023e-22
-7.32554e-10
-1.79789e-10
-1.84986e-11
-8.89601e-13
-7.93417e-14
-4.79398e-15
-3.66217e-16
-2.10466e-17
-2.35774e-18
-4.51068e-19
-2.76556e-19
-2.60401e-19
-1.80547e-19
-1.31123e-19
-8.29916e-20
-4.61068e-20
-2.37941e-20
-1.24289e-20
-1.34155e-21
1.97645e-23
-9.45978e-10
-2.46496e-10
-2.50039e-11
-1.28974e-12
-1.09884e-13
-7.64307e-15
-4.43673e-16
-4.8517e-17
-2.38438e-18
-6.20023e-19
-4.10874e-19
-2.57658e-19
-2.07019e-19
-1.37842e-19
-8.83785e-20
-4.87939e-20
-2.5383e-20
-1.26893e-20
-1.77814e-21
-6.14853e-23
-8.37792e-10
-2.10775e-10
-2.26259e-11
-1.05867e-12
-1.04935e-13
-5.74161e-15
-5.22374e-16
-2.48703e-17
-4.00226e-18
-5.58999e-19
-4.26046e-19
-3.18378e-19
-2.23826e-19
-1.54659e-19
-9.75495e-20
-5.47147e-20
-2.95303e-20
-1.51344e-20
-1.78832e-21
-2.67017e-23
-5.52974e-10
-1.14052e-10
-1.31674e-11
-5.14654e-13
-4.26564e-14
-3.40764e-15
-8.74855e-17
-2.27864e-17
-1.30436e-18
-6.64678e-19
-5.36956e-19
-3.43217e-19
-2.56134e-19
-1.70388e-19
-1.08808e-19
-6.17497e-20
-3.47002e-20
-1.89059e-20
-2.73324e-21
-9.40967e-24
-3.34981e-10
-7.26756e-11
-7.57408e-12
-3.94416e-13
-9.59499e-15
-5.14625e-15
5.52764e-16
-1.35298e-16
2.39682e-17
-5.40595e-18
6.6099e-19
-4.37057e-19
-1.34601e-19
-1.23523e-19
-7.20603e-20
-4.28847e-20
-2.83797e-20
-1.93294e-20
-5.30868e-21
-4.36907e-22
)
;

boundaryField
{
    movingWall
    {
        type            calculated;
        value           nonuniform List<scalar> 
20
(
-3.64802e-11
-4.19182e-12
3.1845e-11
-2.6688e-13
1.68992e-13
-5.23398e-15
1.90855e-15
-2.60823e-16
5.74017e-17
-1.0928e-17
2.05113e-18
-5.36675e-19
-3.39639e-21
-7.39361e-20
-3.45252e-20
-2.40772e-20
-2.08599e-20
-1.66473e-20
-6.48754e-21
-7.23143e-22
)
;
    }
    fixedWalls
    {
        type            calculated;
        value           nonuniform List<scalar> 
60
(
3.72168e-10
7.13145e-10
7.77748e-10
7.87346e-10
7.55454e-10
7.91942e-10
5.19414e-10
2.21354e-10
-3.4052e-10
-1.40419e-09
-2.45469e-09
-3.02922e-09
-3.53682e-09
-3.99034e-09
-4.14277e-09
-3.84312e-09
-4.98089e-09
-4.41499e-09
-2.91088e-09
-1.7737e-09
-1.10994e-22
-1.96239e-22
-2.16462e-22
-1.93031e-22
-2.15035e-22
-1.89669e-22
-2.09939e-22
-1.83724e-22
-1.69559e-22
-1.60562e-22
-1.43114e-22
-1.55159e-22
-1.75005e-22
-2.33749e-22
-2.37357e-22
-2.18965e-22
-1.44454e-22
-2.32167e-22
-4.31473e-22
-2.71096e-22
1.06088e-11
9.28921e-12
-1.25022e-12
6.29161e-14
-5.64506e-15
6.16206e-16
-1.3278e-16
2.68439e-17
-6.00526e-18
8.65397e-19
-3.77225e-19
-8.53972e-20
-8.89954e-20
-5.19434e-20
-3.43747e-20
-2.29733e-20
-1.63236e-20
-9.82438e-21
-3.4487e-21
-3.35957e-22
)
;
    }
    frontAndBack
    {
        type            empty;
    }
}


// ************************************************************************* //
