/*--------------------------------*- C++ -*----------------------------------*\
| =========                 |                                                 |
| \\      /  F ield         | OpenFOAM: The Open Source CFD Toolbox           |
|  \\    /   O peration     | Version:  2312                                  |
|   \\  /    A nd           | Website:  www.openfoam.com                      |
|    \\/     M anipulation  |                                                 |
\*---------------------------------------------------------------------------*/
FoamFile
{
    version     2.0;
    format      ascii;
    arch        "LSB;label=32;scalar=64";
    class       volScalarField;
    location    "3.25";
    object      Uy;
}
// * * * * * * * * * * * * * * * * * * * * * * * * * * * * * * * * * * * * * //

dimensions      [0 1 -1 0 0 0 0];

internalField   nonuniform List<scalar> 
400
(
2.86785e-07
-6.39512e-08
1.51508e-08
-3.3912e-09
7.79643e-10
-1.7963e-10
4.06565e-11
-8.34708e-12
3.13033e-12
6.62251e-13
1.22136e-12
1.03124e-12
9.55513e-13
8.1279e-13
6.66913e-13
5.25446e-13
4.11437e-13
2.91101e-13
1.29954e-13
-3.37626e-14
-2.99564e-07
6.65897e-08
-1.57553e-08
3.50586e-09
-8.05867e-10
1.84929e-10
-3.88201e-11
1.21383e-11
1.20155e-12
3.92882e-12
3.32564e-12
3.24385e-12
2.8887e-12
2.4722e-12
2.02131e-12
1.57286e-12
1.21353e-12
9.0577e-13
3.73722e-13
-1.00521e-13
3.2614e-07
-7.23911e-08
1.70908e-08
-3.81106e-09
8.67136e-10
-1.97932e-10
4.70755e-11
-5.06904e-12
7.9035e-12
5.46152e-12
5.91684e-12
5.39789e-12
4.84835e-12
4.11917e-12
3.36279e-12
2.61692e-12
2.01314e-12
1.48361e-12
6.18119e-13
-1.61031e-13
-3.67518e-07
8.14871e-08
-1.92593e-08
4.26288e-09
-9.77166e-10
2.25336e-10
-4.23637e-11
1.87628e-11
6.03381e-12
9.1066e-12
8.14894e-12
7.65409e-12
6.76644e-12
5.73465e-12
4.66489e-12
3.61914e-12
2.77126e-12
2.0486e-12
8.50386e-13
-2.16766e-13
4.25383e-07
-9.48438e-08
2.23545e-08
-5.00324e-09
1.14086e-09
-2.55249e-10
6.62585e-11
-2.13466e-12
1.44237e-11
1.07879e-11
1.09171e-11
9.80166e-12
8.65625e-12
7.2827e-12
5.90321e-12
4.56992e-12
3.49259e-12
2.56357e-12
1.06864e-12
-2.64318e-13
-4.98894e-07
1.11413e-07
-2.62982e-08
5.86215e-09
-1.3331e-09
3.17396e-10
-5.18e-11
3.03685e-11
1.17866e-11
1.50787e-11
1.31453e-11
1.19894e-11
1.0422e-11
8.72964e-12
7.04501e-12
5.43525e-12
4.13587e-12
3.03132e-12
1.26394e-12
-3.03924e-13
5.88723e-07
-1.32724e-07
3.13276e-08
-7.04556e-09
1.63561e-09
-3.52089e-10
1.01485e-10
9.3952e-13
2.28128e-11
1.64225e-11
1.58842e-11
1.38814e-11
1.20391e-11
1.00104e-11
8.04877e-12
6.19306e-12
4.69993e-12
3.42538e-12
1.43128e-12
-3.3387e-13
-6.91174e-07
1.56856e-07
-3.71219e-08
8.40803e-09
-1.90877e-09
4.75072e-10
-7.10314e-11
4.76036e-11
1.72564e-11
2.10789e-11
1.7531e-11
1.56429e-11
1.33639e-11
1.10778e-11
8.87326e-12
6.80947e-12
5.14927e-12
3.74133e-12
1.56547e-12
-3.54852e-13
7.95457e-07
-1.83041e-07
4.35355e-08
-9.80396e-09
2.37479e-09
-4.8688e-10
1.53771e-10
8.69941e-13
3.10341e-11
2.06095e-11
1.96462e-11
1.67805e-11
1.43865e-11
1.18584e-11
9.4789e-12
7.25958e-12
5.47685e-12
3.96416e-12
1.66076e-12
-3.669e-13
-8.68646e-07
2.05457e-07
-4.84162e-08
1.14661e-08
-2.61547e-09
6.66477e-10
-1.08374e-10
6.35033e-11
1.87103e-11
2.48106e-11
1.98708e-11
1.76656e-11
1.49467e-11
1.23297e-11
9.8344e-12
7.52291e-12
5.66277e-12
4.08734e-12
1.71729e-12
-3.71313e-13
9.2141e-07
-2.20197e-07
5.21332e-08
-1.23517e-08
2.9815e-09
-6.55788e-10
1.97853e-10
-9.05926e-12
3.5315e-11
2.11265e-11
2.09422e-11
1.76534e-11
1.51446e-11
1.24414e-11
9.92683e-12
7.58556e-12
5.70312e-12
4.11172e-12
1.72991e-12
-3.68788e-13
-9.66821e-07
2.32248e-07
-5.49453e-08
1.32141e-08
-3.10264e-09
7.79513e-10
-1.48635e-10
7.0197e-11
1.5043e-11
2.49928e-11
1.94235e-11
1.75566e-11
1.48124e-11
1.22331e-11
9.74694e-12
7.44952e-12
5.59649e-12
4.02969e-12
1.70516e-12
-3.60159e-13
1.00442e-06
-2.42055e-07
5.73557e-08
-1.37859e-08
3.32357e-09
-7.60392e-10
2.17242e-10
-1.97527e-11
3.44687e-11
1.87249e-11
1.96323e-11
1.64576e-11
1.4208e-11
1.16696e-11
9.31514e-12
7.11257e-12
5.34284e-12
3.85649e-12
1.63607e-12
-3.45329e-13
-1.03793e-06
2.5067e-07
-5.93772e-08
1.43589e-08
-3.40526e-09
8.46217e-10
-1.74845e-10
7.07507e-11
1.01163e-11
2.25002e-11
1.69304e-11
1.5564e-11
1.31058e-11
1.08426e-11
8.63478e-12
6.59848e-12
4.95871e-12
3.57892e-12
1.53169e-12
-3.23008e-13
1.06556e-06
-2.57656e-07
6.10536e-08
-1.47547e-08
3.55353e-09
-8.2657e-10
2.28352e-10
-2.81476e-11
3.1634e-11
1.48951e-11
1.65594e-11
1.36702e-11
1.18433e-11
9.70578e-12
7.74417e-12
5.90721e-12
4.43963e-12
3.22092e-12
1.38153e-12
-2.92935e-13
-1.08877e-06
2.63054e-07
-6.22976e-08
1.50777e-08
-3.5762e-09
8.85443e-10
-1.88399e-10
6.91835e-11
5.35538e-12
1.85589e-11
1.30883e-11
1.21483e-11
1.01313e-11
8.36483e-12
6.64263e-12
5.06828e-12
3.81104e-12
2.76266e-12
1.19482e-12
-2.54479e-13
1.10753e-06
-2.68311e-07
6.36467e-08
-1.53897e-08
3.72458e-09
-8.66552e-10
2.37016e-10
-3.49217e-11
2.76571e-11
9.90964e-12
1.20743e-11
9.55522e-12
8.28034e-12
6.73135e-12
5.35748e-12
4.07956e-12
3.07624e-12
2.25293e-12
9.76102e-13
-2.13323e-13
-1.12224e-06
2.71731e-07
-6.43311e-08
1.56562e-08
-3.70779e-09
9.24628e-10
-2.01985e-10
6.71097e-11
-1.11439e-12
1.32058e-11
7.80282e-12
7.51095e-12
6.10238e-12
5.03319e-12
3.98054e-12
3.04458e-12
2.30345e-12
1.68527e-12
7.41841e-13
-1.70377e-13
1.13002e-06
-2.72255e-07
6.45687e-08
-1.54651e-08
3.73807e-09
-8.62271e-10
2.26768e-10
-4.04848e-11
1.98572e-11
3.47511e-12
6.0157e-12
4.33075e-12
3.78935e-12
3.03817e-12
2.4124e-12
1.83107e-12
1.38845e-12
1.06782e-12
5.08127e-13
-1.17694e-13
-1.13948e-06
2.78863e-07
-6.60884e-08
1.623e-08
-3.8936e-09
9.57896e-10
-2.28773e-10
6.04123e-11
-1.14901e-11
5.58975e-12
8.40118e-13
1.64727e-12
1.12587e-12
9.68891e-13
7.46335e-13
5.67122e-13
4.39909e-13
3.66635e-13
1.95975e-13
-4.24498e-14
)
;

boundaryField
{
    movingWall
    {
        type            calculated;
        value           uniform -0;
    }
    fixedWalls
    {
        type            calculated;
        value           uniform -0;
    }
    frontAndBack
    {
        type            empty;
    }
}


// ************************************************************************* //
