/*--------------------------------*- C++ -*----------------------------------*\
| =========                 |                                                 |
| \\      /  F ield         | OpenFOAM: The Open Source CFD Toolbox           |
|  \\    /   O peration     | Version:  2312                                  |
|   \\  /    A nd           | Website:  www.openfoam.com                      |
|    \\/     M anipulation  |                                                 |
\*---------------------------------------------------------------------------*/
FoamFile
{
    version     2.0;
    format      ascii;
    arch        "LSB;label=32;scalar=64";
    class       volVectorField;
    location    "3.25";
    object      vorticityField;
}
// * * * * * * * * * * * * * * * * * * * * * * * * * * * * * * * * * * * * * //

dimensions      [0 0 -1 0 0 0 0];

internalField   nonuniform List<vector> 
400
(
(0 -0 2.55876e-05)
(0 -0 -2.77789e-05)
(0 -0 6.33149e-06)
(0 -0 -1.49103e-06)
(0 -0 3.35946e-07)
(0 -0 -8.28077e-08)
(0 -0 1.45187e-08)
(0 -0 -7.66916e-09)
(0 -0 -2.0884e-09)
(0 -0 -2.8425e-09)
(0 -0 -2.10689e-09)
(0 -0 -1.7313e-09)
(0 -0 -1.3131e-09)
(0 -0 -9.63903e-10)
(0 -0 -6.65595e-10)
(0 -0 -4.26919e-10)
(0 -0 -2.435e-10)
(0 -0 -1.03148e-10)
(0 -0 -1.50849e-11)
(0 -0 -2.02976e-12)
(0 -0 -2.98599e-05)
(0 -0 2.95549e-05)
(0 -0 -6.8478e-06)
(0 -0 1.58629e-06)
(0 -0 -3.67195e-07)
(0 -0 8.50981e-08)
(0 -0 -1.96153e-08)
(0 -0 4.58826e-09)
(0 -0 -1.03934e-09)
(0 -0 2.34256e-10)
(0 -0 -8.60883e-11)
(0 -0 -3.5318e-11)
(0 -0 -6.8898e-11)
(0 -0 -7.67107e-11)
(0 -0 -8.14496e-11)
(0 -0 -7.49234e-11)
(0 -0 -6.39446e-11)
(0 -0 -8.31131e-11)
(0 -0 -1.01469e-10)
(0 -0 -2.76182e-11)
(0 -0 3.29845e-05)
(0 -0 -3.22857e-05)
(0 -0 7.47835e-06)
(0 -0 -1.73093e-06)
(0 -0 4.00838e-07)
(0 -0 -9.24761e-08)
(0 -0 2.15784e-08)
(0 -0 -4.84026e-09)
(0 -0 1.21143e-09)
(0 -0 -2.41709e-10)
(0 -0 4.15043e-11)
(0 -0 -7.14231e-11)
(0 -0 -8.94907e-11)
(0 -0 -1.17818e-10)
(0 -0 -1.2724e-10)
(0 -0 -1.19895e-10)
(0 -0 -1.036e-10)
(0 -0 -1.36087e-10)
(0 -0 -1.66687e-10)
(0 -0 -4.64406e-11)
(0 -0 -3.72696e-05)
(0 -0 3.64213e-05)
(0 -0 -8.43774e-06)
(0 -0 1.95389e-06)
(0 -0 -4.51799e-07)
(0 -0 1.04815e-07)
(0 -0 -2.39667e-08)
(0 -0 5.73839e-09)
(0 -0 -1.19867e-09)
(0 -0 3.28037e-10)
(0 -0 -9.60827e-11)
(0 -0 -6.35211e-11)
(0 -0 -1.31608e-10)
(0 -0 -1.60526e-10)
(0 -0 -1.75881e-10)
(0 -0 -1.65564e-10)
(0 -0 -1.43583e-10)
(0 -0 -1.87507e-10)
(0 -0 -2.28488e-10)
(0 -0 -6.42023e-11)
(0 -0 4.26128e-05)
(0 -0 -4.209e-05)
(0 -0 9.77348e-06)
(0 -0 -2.26718e-06)
(0 -0 5.26192e-07)
(0 -0 -1.2154e-07)
(0 -0 2.8479e-08)
(0 -0 -6.34325e-09)
(0 -0 1.6238e-09)
(0 -0 -3.12546e-10)
(0 -0 4.54682e-11)
(0 -0 -1.18617e-10)
(0 -0 -1.56323e-10)
(0 -0 -2.03286e-10)
(0 -0 -2.20022e-10)
(0 -0 -2.08021e-10)
(0 -0 -1.80875e-10)
(0 -0 -2.35103e-10)
(0 -0 -2.85364e-10)
(0 -0 -8.15437e-11)
(0 -0 -4.98602e-05)
(0 -0 4.94143e-05)
(0 -0 -1.15e-05)
(0 -0 2.67472e-06)
(0 -0 -6.21079e-07)
(0 -0 1.44712e-07)
(0 -0 -3.32084e-08)
(0 -0 7.99266e-09)
(0 -0 -1.67207e-09)
(0 -0 4.58203e-10)
(0 -0 -1.40603e-10)
(0 -0 -9.76884e-11)
(0 -0 -1.96445e-10)
(0 -0 -2.39009e-10)
(0 -0 -2.61704e-10)
(0 -0 -2.47384e-10)
(0 -0 -2.15836e-10)
(0 -0 -2.78303e-10)
(0 -0 -3.35828e-10)
(0 -0 -9.71397e-11)
(0 -0 5.68484e-05)
(0 -0 -5.79583e-05)
(0 -0 1.35376e-05)
(0 -0 -3.15909e-06)
(0 -0 7.37513e-07)
(0 -0 -1.71412e-07)
(0 -0 4.03598e-08)
(0 -0 -9.07481e-09)
(0 -0 2.31076e-09)
(0 -0 -4.61352e-10)
(0 -0 6.43976e-11)
(0 -0 -1.65537e-10)
(0 -0 -2.12047e-10)
(0 -0 -2.74806e-10)
(0 -0 -2.96926e-10)
(0 -0 -2.8184e-10)
(0 -0 -2.46438e-10)
(0 -0 -3.15534e-10)
(0 -0 -3.78337e-10)
(0 -0 -1.1107e-10)
(0 -0 -6.4123e-05)
(0 -0 6.75962e-05)
(0 -0 -1.58469e-05)
(0 -0 3.71179e-06)
(0 -0 -8.68002e-07)
(0 -0 2.03546e-07)
(0 -0 -4.71108e-08)
(0 -0 1.13441e-08)
(0 -0 -2.4359e-09)
(0 -0 6.44725e-10)
(0 -0 -2.02289e-10)
(0 -0 -1.22033e-10)
(0 -0 -2.49104e-10)
(0 -0 -2.99195e-10)
(0 -0 -3.27278e-10)
(0 -0 -3.10167e-10)
(0 -0 -2.72282e-10)
(0 -0 -3.45776e-10)
(0 -0 -4.11787e-10)
(0 -0 -1.22308e-10)
(0 -0 6.87339e-05)
(0 -0 -7.68818e-05)
(0 -0 1.8137e-05)
(0 -0 -4.27265e-06)
(0 -0 1.00667e-06)
(0 -0 -2.36324e-07)
(0 -0 5.60554e-08)
(0 -0 -1.2819e-08)
(0 -0 3.22502e-09)
(0 -0 -6.8253e-10)
(0 -0 9.81089e-11)
(0 -0 -2.08189e-10)
(0 -0 -2.5065e-10)
(0 -0 -3.24419e-10)
(0 -0 -3.4889e-10)
(0 -0 -3.32171e-10)
(0 -0 -2.92056e-10)
(0 -0 -3.67677e-10)
(0 -0 -4.34922e-10)
(0 -0 -1.30524e-10)
(0 -0 -6.81586e-05)
(0 -0 8.26843e-05)
(0 -0 -1.96735e-05)
(0 -0 4.67987e-06)
(0 -0 -1.11178e-06)
(0 -0 2.64607e-07)
(0 -0 -6.22814e-08)
(0 -0 1.51054e-08)
(0 -0 -3.35855e-09)
(0 -0 8.60844e-10)
(0 -0 -2.73906e-10)
(0 -0 -1.33e-10)
(0 -0 -2.82959e-10)
(0 -0 -3.33228e-10)
(0 -0 -3.63852e-10)
(0 -0 -3.45307e-10)
(0 -0 -3.04336e-10)
(0 -0 -3.80182e-10)
(0 -0 -4.47573e-10)
(0 -0 -1.35682e-10)
(0 -0 6.77463e-05)
(0 -0 -8.6634e-05)
(0 -0 2.06295e-05)
(0 -0 -4.91018e-06)
(0 -0 1.16942e-06)
(0 -0 -2.77766e-07)
(0 -0 6.65838e-08)
(0 -0 -1.55084e-08)
(0 -0 3.898e-09)
(0 -0 -8.6979e-10)
(0 -0 1.27627e-10)
(0 -0 -2.36416e-10)
(0 -0 -2.66068e-10)
(0 -0 -3.44102e-10)
(0 -0 -3.67645e-10)
(0 -0 -3.50488e-10)
(0 -0 -3.08705e-10)
(0 -0 -3.83199e-10)
(0 -0 -4.49325e-10)
(0 -0 -1.37061e-10)
(0 -0 -6.89028e-05)
(0 -0 9.03848e-05)
(0 -0 -2.15215e-05)
(0 -0 5.12314e-06)
(0 -0 -1.21879e-06)
(0 -0 2.9069e-07)
(0 -0 -6.87739e-08)
(0 -0 1.67093e-08)
(0 -0 -3.79173e-09)
(0 -0 9.53288e-10)
(0 -0 -3.12406e-10)
(0 -0 -1.32968e-10)
(0 -0 -2.88539e-10)
(0 -0 -3.33782e-10)
(0 -0 -3.63516e-10)
(0 -0 -3.44517e-10)
(0 -0 -3.03304e-10)
(0 -0 -3.7512e-10)
(0 -0 -4.4072e-10)
(0 -0 -1.35476e-10)
(0 -0 6.99582e-05)
(0 -0 -9.3517e-05)
(0 -0 2.22767e-05)
(0 -0 -5.30495e-06)
(0 -0 1.26433e-06)
(0 -0 -3.00766e-07)
(0 -0 7.20987e-08)
(0 -0 -1.68886e-08)
(0 -0 4.19785e-09)
(0 -0 -9.62754e-10)
(0 -0 1.40919e-10)
(0 -0 -2.37425e-10)
(0 -0 -2.53472e-10)
(0 -0 -3.27058e-10)
(0 -0 -3.47341e-10)
(0 -0 -3.30308e-10)
(0 -0 -2.89775e-10)
(0 -0 -3.57559e-10)
(0 -0 -4.21375e-10)
(0 -0 -1.30158e-10)
(0 -0 -7.09942e-05)
(0 -0 9.63277e-05)
(0 -0 -2.29456e-05)
(0 -0 5.46522e-06)
(0 -0 -1.30131e-06)
(0 -0 3.10504e-07)
(0 -0 -7.36215e-08)
(0 -0 1.78167e-08)
(0 -0 -4.09579e-09)
(0 -0 1.00623e-09)
(0 -0 -3.26287e-10)
(0 -0 -1.13955e-10)
(0 -0 -2.61787e-10)
(0 -0 -2.97268e-10)
(0 -0 -3.22927e-10)
(0 -0 -3.04452e-10)
(0 -0 -2.66069e-10)
(0 -0 -3.29123e-10)
(0 -0 -3.92063e-10)
(0 -0 -1.2225e-10)
(0 -0 7.24035e-05)
(0 -0 -9.87862e-05)
(0 -0 2.35372e-05)
(0 -0 -5.60657e-06)
(0 -0 1.33631e-06)
(0 -0 -3.18059e-07)
(0 -0 7.6129e-08)
(0 -0 -1.79156e-08)
(0 -0 4.39885e-09)
(0 -0 -1.02874e-09)
(0 -0 1.62789e-10)
(0 -0 -2.14353e-10)
(0 -0 -2.1007e-10)
(0 -0 -2.73496e-10)
(0 -0 -2.88079e-10)
(0 -0 -2.72666e-10)
(0 -0 -2.36916e-10)
(0 -0 -2.93477e-10)
(0 -0 -3.52199e-10)
(0 -0 -1.10161e-10)
(0 -0 -7.46535e-05)
(0 -0 0.000101118)
(0 -0 -2.4097e-05)
(0 -0 5.74173e-06)
(0 -0 -1.3679e-06)
(0 -0 3.26373e-07)
(0 -0 -7.75398e-08)
(0 -0 1.86798e-08)
(0 -0 -4.35318e-09)
(0 -0 1.04963e-09)
(0 -0 -3.26072e-10)
(0 -0 -7.62373e-11)
(0 -0 -2.08339e-10)
(0 -0 -2.29411e-10)
(0 -0 -2.49181e-10)
(0 -0 -2.33258e-10)
(0 -0 -2.02372e-10)
(0 -0 -2.51051e-10)
(0 -0 -3.03015e-10)
(0 -0 -9.4956e-11)
(0 -0 7.32836e-05)
(0 -0 -0.000102178)
(0 -0 2.43336e-05)
(0 -0 -5.79311e-06)
(0 -0 1.37968e-06)
(0 -0 -3.28293e-07)
(0 -0 7.8386e-08)
(0 -0 -1.85271e-08)
(0 -0 4.48501e-09)
(0 -0 -1.069e-09)
(0 -0 1.85058e-10)
(0 -0 -1.76059e-10)
(0 -0 -1.47648e-10)
(0 -0 -1.96225e-10)
(0 -0 -2.03976e-10)
(0 -0 -1.92237e-10)
(0 -0 -1.66183e-10)
(0 -0 -2.05867e-10)
(0 -0 -2.47709e-10)
(0 -0 -7.63863e-11)
(0 -0 -7.5474e-05)
(0 -0 0.000103842)
(0 -0 -2.47323e-05)
(0 -0 5.88903e-06)
(0 -0 -1.40211e-06)
(0 -0 3.34106e-07)
(0 -0 -7.94251e-08)
(0 -0 1.90261e-08)
(0 -0 -4.47703e-09)
(0 -0 1.06923e-09)
(0 -0 -3.02551e-10)
(0 -0 -2.09933e-11)
(0 -0 -1.30194e-10)
(0 -0 -1.34771e-10)
(0 -0 -1.47714e-10)
(0 -0 -1.35997e-10)
(0 -0 -1.15602e-10)
(0 -0 -1.48355e-10)
(0 -0 -1.87788e-10)
(0 -0 -5.82848e-11)
(0 -0 7.94953e-05)
(0 -0 -0.000105538)
(0 -0 2.51798e-05)
(0 -0 -6.00664e-06)
(0 -0 1.43332e-06)
(0 -0 -3.42036e-07)
(0 -0 8.17248e-08)
(0 -0 -1.94665e-08)
(0 -0 4.67987e-09)
(0 -0 -1.11326e-09)
(0 -0 2.4749e-10)
(0 -0 -9.95778e-11)
(0 -0 -3.79952e-11)
(0 -0 -6.88216e-11)
(0 -0 -6.81256e-11)
(0 -0 -5.92707e-11)
(0 -0 -4.23898e-11)
(0 -0 -7.13626e-11)
(0 -0 -1.20395e-10)
(0 -0 -4.26212e-11)
(0 -0 -8.22247e-05)
(0 -0 0.000106698)
(0 -0 -2.59829e-05)
(0 -0 6.16334e-06)
(0 -0 -1.52229e-06)
(0 -0 3.53831e-07)
(0 -0 -9.59337e-08)
(0 -0 1.60204e-08)
(0 -0 -9.81955e-09)
(0 -0 -2.24214e-09)
(0 -0 -3.11448e-09)
(0 -0 -2.05537e-09)
(0 -0 -1.61792e-09)
(0 -0 -1.14316e-09)
(0 -0 -7.81446e-10)
(0 -0 -4.96633e-10)
(0 -0 -2.9156e-10)
(0 -0 -1.3303e-10)
(0 -0 -2.69765e-11)
(0 -0 -2.58607e-12)
)
;

boundaryField
{
    movingWall
    {
        type            calculated;
        value           nonuniform List<vector> 
20
(
(0 -0 -0.000112461)
(0 -0 0.000113479)
(0 -0 -2.88764e-05)
(0 -0 6.79414e-06)
(0 -0 -1.7738e-06)
(0 -0 4.07951e-07)
(0 -0 -1.23041e-07)
(0 -0 1.60168e-08)
(0 -0 -1.61431e-08)
(0 -0 -5.38728e-09)
(0 -0 -6.10843e-09)
(0 -0 -4.19116e-09)
(0 -0 -3.25595e-09)
(0 -0 -2.30663e-09)
(0 -0 -1.57655e-09)
(0 -0 -1.0095e-09)
(0 -0 -6.03227e-10)
(0 -0 -2.63136e-10)
(0 -0 -1.12878e-11)
(0 -0 1.5112e-11)
)
;
    }
    fixedWalls
    {
        type            calculated;
        value           nonuniform List<vector> 
60
(
(0 -0 0.000118018)
(0 -0 -0.000126388)
(0 -0 0.000138066)
(0 -0 -0.000155674)
(0 -0 0.000179712)
(0 -0 -0.00021067)
(0 -0 0.000246738)
(0 -0 -0.000287161)
(0 -0 0.000325675)
(0 -0 -0.000349298)
(0 -0 0.000366189)
(0 -0 -0.000382174)
(0 -0 0.00039549)
(0 -0 -0.00040744)
(0 -0 0.000417837)
(0 -0 -0.000427589)
(0 -0 0.000432374)
(0 -0 -0.00043932)
(0 -0 0.000445725)
(0 -0 -0.000451954)
(0 -0 2.10945e-11)
(0 -0 3.99104e-11)
(0 -0 6.36806e-11)
(0 -0 8.5866e-11)
(0 -0 1.04616e-10)
(0 -0 1.20431e-10)
(0 -0 1.3222e-10)
(0 -0 1.40694e-10)
(0 -0 1.45622e-10)
(0 -0 1.47441e-10)
(0 -0 1.46566e-10)
(0 -0 1.43088e-10)
(0 -0 1.37048e-10)
(0 -0 1.27821e-10)
(0 -0 1.15873e-10)
(0 -0 1.0087e-10)
(0 -0 8.52207e-11)
(0 -0 6.70124e-11)
(0 -0 4.34996e-11)
(0 -0 2.97464e-11)
(0 -0 1.68992e-05)
(0 -0 -2.63327e-05)
(0 -0 5.65285e-06)
(0 -0 -1.39265e-06)
(0 -0 2.91978e-07)
(0 -0 -7.72197e-08)
(0 -0 8.59167e-09)
(0 -0 -1.03786e-08)
(0 -0 -5.26462e-09)
(0 -0 -5.37764e-09)
(0 -0 -4.24519e-09)
(0 -0 -3.41845e-09)
(0 -0 -2.60147e-09)
(0 -0 -1.89959e-09)
(0 -0 -1.30505e-09)
(0 -0 -8.30859e-10)
(0 -0 -4.71076e-10)
(0 -0 -1.8167e-10)
(0 -0 5.88295e-12)
(0 -0 6.27922e-12)
)
;
    }
    frontAndBack
    {
        type            empty;
    }
}


// ************************************************************************* //
