/*--------------------------------*- C++ -*----------------------------------*\
| =========                 |                                                 |
| \\      /  F ield         | OpenFOAM: The Open Source CFD Toolbox           |
|  \\    /   O peration     | Version:  2312                                  |
|   \\  /    A nd           | Website:  www.openfoam.com                      |
|    \\/     M anipulation  |                                                 |
\*---------------------------------------------------------------------------*/
FoamFile
{
    version     2.0;
    format      ascii;
    arch        "LSB;label=32;scalar=64";
    class       volScalarField;
    location    "2";
    object      blendingFactorField;
}
// * * * * * * * * * * * * * * * * * * * * * * * * * * * * * * * * * * * * * //

dimensions      [0 0 0 0 0 0 0];

internalField   nonuniform List<scalar> 
400
(
0
0
0
0.0875617
0.222684
0.37354
0.538319
0.71298
0.891274
1
1
1
1
1
1
0.762775
0.403605
0.0551559
0
0
0
0
0.137055
0.319705
0.511992
0.706831
0.90212
1
1
1
1
1
1
1
1
1
0.926313
0.42486
0.0592678
0
0
0.128138
0.22539
0.426711
0.636528
0.849849
1
1
1
1
1
1
1
1
1
1
1
1
0.577762
0
0.147804
0.304326
0.395342
0.47137
0.687009
0.922909
1
1
1
1
1
1
1
1
1
1
1
1
1
0.217306
0.309222
0.481656
0.579361
0.65393
0.718309
0.936492
1
1
1
1
1
1
1
1
1
1
1
1
1
1
0.463269
0.648804
0.749749
0.835422
0.92361
1
1
1
1
1
1
1
1
1
1
1
1
1
1
1
0.598092
0.795942
0.898298
0.993182
1
1
1
1
1
1
1
1
1
1
1
1
1
1
1
1
0.705055
0.915446
1
1
1
1
1
1
1
1
1
1
1
1
1
1
1
1
1
1
0.778954
1
1
1
1
1
1
1
1
1
1
0.610774
0.433122
0.60619
1
1
1
1
1
1
0.817633
1
1
1
1
1
1
1
1
1
1
0.621589
0
0.60619
1
1
1
1
1
1
0.822047
1
1
1
1
1
1
1
1
1
1
0.624331
0.535414
0.586022
1
1
1
1
1
1
0.822047
1
1
1
1
1
1
1
1
1
1
1
1
1
1
1
1
1
1
1
0.796732
1
1
1
1
1
1
1
1
1
1
1
1
1
1
1
1
1
1
1
0.748632
1
1
1
1
1
1
1
1
1
1
1
1
1
1
1
1
1
1
1
0.687058
0.954723
1
1
1
1
1
1
1
1
1
1
1
1
1
1
1
1
1
1
0.624198
0.879309
0.936864
0.948855
0.951433
0.952198
0.949505
0.934476
0.984233
1
1
1
1
1
1
1
0.797376
1
1
1
0.577962
0.795392
0.833471
0.825893
0.809479
0.790905
0.769794
0.807762
0.997026
1
1
1
1
1
1
1
0.87924
1
1
1
0.661411
0.722086
0.714579
0.68063
0.647452
0.613987
0.645259
0.856771
1
1
1
1
1
1
1
1
1
0.928848
1
1
0.886045
0.637175
0.576268
0.522745
0.519727
0.809688
1
1
1
1
1
1
1
1
1
1
1
1
1
1
0.886045
1
1
1
1
1
1
1
1
1
1
1
1
1
1
1
1
1
1
1
)
;

boundaryField
{
    movingWall
    {
        type            zeroGradient;
    }
    fixedWalls
    {
        type            zeroGradient;
    }
    frontAndBack
    {
        type            empty;
    }
}


// ************************************************************************* //
