/*--------------------------------*- C++ -*----------------------------------*\
| =========                 |                                                 |
| \\      /  F ield         | OpenFOAM: The Open Source CFD Toolbox           |
|  \\    /   O peration     | Version:  2312                                  |
|   \\  /    A nd           | Website:  www.openfoam.com                      |
|    \\/     M anipulation  |                                                 |
\*---------------------------------------------------------------------------*/
FoamFile
{
    version     2.0;
    format      ascii;
    arch        "LSB;label=32;scalar=64";
    class       volScalarField;
    location    "2";
    object      CourantNumberField;
}
// * * * * * * * * * * * * * * * * * * * * * * * * * * * * * * * * * * * * * //

dimensions      [0 0 0 0 0 0 0];

internalField   nonuniform List<scalar> 
400
(
0.00122825
0.0043814
0.00865506
0.0135025
0.0189073
0.0249416
0.0315327
0.0385192
0.0456509
0.0523796
0.0576686
0.0601697
0.0601697
0.0585665
0.0519126
0.040511
0.0261442
0.0122062
0.00356409
0.000987586
0.00463095
0.0120154
0.0197559
0.0276356
0.0358845
0.0443075
0.0526759
0.0611402
0.0698135
0.0780447
0.084173
0.0860545
0.0851567
0.0903475
0.0888781
0.0792716
0.0609905
0.0363221
0.0128918
0.000987587
0.00976736
0.0202619
0.0299093
0.0392218
0.0485575
0.0578218
0.0674932
0.0786626
0.0916683
0.105009
0.115469
0.119499
0.116095
0.128966
0.136676
0.13323
0.115328
0.0810592
0.0370694
0.00395891
0.0159121
0.0283178
0.039006
0.049061
0.0589694
0.069277
0.0816613
0.097956
0.117788
0.137252
0.150308
0.152246
0.141689
0.155648
0.173218
0.181799
0.174842
0.143877
0.0847999
0.0186922
0.0223689
0.035723
0.0467244
0.0570679
0.0674852
0.0792564
0.0949952
0.116436
0.14087
0.160854
0.168845
0.162103
0.142868
0.154634
0.178437
0.198557
0.209766
0.198823
0.146043
0.0506165
0.0285308
0.0421141
0.0528378
0.0630802
0.0738674
0.0870112
0.105462
0.129812
0.154175
0.168826
0.166713
0.147869
0.118458
0.129749
0.154091
0.179213
0.204961
0.221112
0.198065
0.0969641
0.0339237
0.0472306
0.0572103
0.0669476
0.077676
0.0913226
0.110527
0.134367
0.154453
0.160752
0.147893
0.119494
0.0846483
0.102502
0.124934
0.147211
0.175014
0.208629
0.222694
0.145937
0.0382022
0.0508964
0.0597727
0.0685464
0.0785002
0.0913043
0.108932
0.129391
0.143187
0.141909
0.122196
0.0900909
0.0552158
0.0811201
0.103766
0.122502
0.144754
0.180341
0.221628
0.187032
0.0411582
0.0530534
0.0605662
0.0679188
0.0763196
0.0869871
0.101136
0.1164
0.123655
0.116913
0.0939436
0.0612401
0.028156
0.0595215
0.084964
0.103924
0.122959
0.154092
0.207335
0.215486
0.0427053
0.0537267
0.0597134
0.0652948
0.0715511
0.0792075
0.0887814
0.0981573
0.0998209
0.0912303
0.0695745
0.0374221
0.0025585
0.034538
0.0623403
0.0843229
0.104777
0.134083
0.191333
0.232963
0.0428819
0.053056
0.057473
0.0611029
0.0649162
0.0707629
0.0814465
0.0962782
0.10789
0.109185
0.0945886
0.0663898
0.0317841
0.0573818
0.0789305
0.092664
0.102901
0.121631
0.176946
0.243204
0.0428819
0.053892
0.0581803
0.0620883
0.0673089
0.0748102
0.08568
0.0998062
0.112448
0.117218
0.109066
0.0873687
0.0570908
0.0724373
0.0889989
0.0983925
0.104821
0.116723
0.166705
0.249305
0.0418693
0.0542322
0.0593734
0.0637816
0.0691905
0.0763909
0.0860229
0.0980821
0.109689
0.115776
0.112009
0.0965579
0.0718705
0.0765298
0.089337
0.0962625
0.10048
0.109937
0.157504
0.253421
0.0399453
0.0531279
0.0588355
0.0635076
0.0688471
0.0754791
0.0836989
0.093362
0.10279
0.108567
0.107181
0.0965999
0.0776213
0.072913
0.0830663
0.0886618
0.0916482
0.0996448
0.146438
0.257067
0.0374823
0.0507033
0.0565941
0.0613521
0.0665425
0.0726237
0.0796756
0.087395
0.0946761
0.099471
0.0993036
0.0923878
0.0786093
0.0665583
0.0744514
0.0788995
0.0808158
0.0882407
0.133522
0.26063
0.0349679
0.0470514
0.0527103
0.0573256
0.0623472
0.068056
0.0743999
0.0809872
0.0869554
0.0910346
0.0916763
0.0875303
0.0781182
0.0645418
0.0664236
0.0695243
0.0704119
0.0792776
0.118317
0.261376
0.0331185
0.0418157
0.0462415
0.050694
0.055848
0.0615861
0.0678184
0.0741569
0.0798966
0.0841357
0.0858856
0.0842362
0.0786344
0.068877
0.0615769
0.0627161
0.0628699
0.0749658
0.107111
0.261376
0.0364564
0.0388835
0.0386417
0.0428161
0.0478044
0.0538488
0.0606346
0.0676567
0.0742864
0.07982
0.0835081
0.0846901
0.0828852
0.0777523
0.0690421
0.0644031
0.0648542
0.0778091
0.0988038
0.255299
0.0454418
0.0404539
0.0330507
0.0371437
0.0472303
0.0572624
0.0672118
0.0769124
0.0860455
0.0942571
0.101166
0.10646
0.109863
0.111155
0.110127
0.105585
0.104482
0.110336
0.101044
0.239401
0.0454418
0.0769103
0.0987603
0.117189
0.13363
0.148505
0.16219
0.174959
0.186902
0.197989
0.208114
0.217144
0.224917
0.231195
0.235737
0.237618
0.237618
0.236228
0.221961
0.200599
)
;

boundaryField
{
    movingWall
    {
        type            zeroGradient;
    }
    fixedWalls
    {
        type            zeroGradient;
    }
    frontAndBack
    {
        type            empty;
    }
}


// ************************************************************************* //
