/*--------------------------------*- C++ -*----------------------------------*\
| =========                 |                                                 |
| \\      /  F ield         | OpenFOAM: The Open Source CFD Toolbox           |
|  \\    /   O peration     | Version:  2312                                  |
|   \\  /    A nd           | Website:  www.openfoam.com                      |
|    \\/     M anipulation  |                                                 |
\*---------------------------------------------------------------------------*/
FoamFile
{
    version     2.0;
    format      ascii;
    arch        "LSB;label=32;scalar=64";
    class       volVectorField;
    location    "2";
    object      ddtU;
}
// * * * * * * * * * * * * * * * * * * * * * * * * * * * * * * * * * * * * * //

dimensions      [0 1 -2 0 0 0 0];

internalField   nonuniform List<vector> 
400
(
(0.000534746 -0.000690642 0)
(0.000871598 -0.00081228 0)
(0.000717607 -0.00093661 0)
(0.000451886 -0.000581101 0)
(-0.000560385 0.000466862 0)
(-0.00308108 0.00189114 0)
(-0.00755842 0.003216 0)
(-0.0153513 0.0048593 0)
(-0.0288985 0.00758365 0)
(-0.0479706 0.0105179 0)
(-0.0688805 0.0112924 0)
(-0.0868504 0.00837265 0)
(-0.0972145 0.00310815 0)
(-0.0971708 -0.00207315 0)
(-0.0853305 -0.00627998 0)
(-0.0652104 -0.00999328 0)
(-0.0387187 -0.011176 0)
(-0.0109164 -0.00633108 0)
(0.0037548 -0.00104923 0)
(0.00321908 0.00216526 0)
(-8.05285e-05 -0.000616289 0)
(-0.002149 0.00109416 0)
(-0.00611556 0.00156818 0)
(-0.0105581 0.00189824 0)
(-0.0146507 0.00315169 0)
(-0.0181785 0.00501483 0)
(-0.023642 0.00904635 0)
(-0.0363144 0.016804 0)
(-0.0588237 0.0259146 0)
(-0.0883297 0.0310667 0)
(-0.117677 0.0296155 0)
(-0.139286 0.0232345 0)
(-0.149381 0.0132041 0)
(-0.149515 -0.000274968 0)
(-0.141362 -0.0165606 0)
(-0.122759 -0.0312807 0)
(-0.093304 -0.0376363 0)
(-0.0521955 -0.0337303 0)
(-0.00763346 -0.0124896 0)
(0.00429194 0.00578674 0)
(-0.00123383 0.00177244 0)
(-0.00486848 0.00561249 0)
(-0.0103947 0.00730318 0)
(-0.0170881 0.00764606 0)
(-0.0232529 0.00797177 0)
(-0.0290438 0.0109184 0)
(-0.0409119 0.0216544 0)
(-0.0658054 0.0405527 0)
(-0.101507 0.0600542 0)
(-0.137521 0.0698834 0)
(-0.16421 0.0624185 0)
(-0.175913 0.037117 0)
(-0.174332 0.00559112 0)
(-0.166346 -0.022486 0)
(-0.161312 -0.0461749 0)
(-0.152217 -0.0691688 0)
(-0.138507 -0.0899733 0)
(-0.108493 -0.0898684 0)
(-0.0527616 -0.0552929 0)
(0.000142453 -0.00210945 0)
(-0.00227417 0.00563408 0)
(-0.00711406 0.0109909 0)
(-0.0132678 0.0137965 0)
(-0.0206418 0.0146746 0)
(-0.02828 0.0157922 0)
(-0.0382112 0.0239174 0)
(-0.058052 0.046434 0)
(-0.0891696 0.0756731 0)
(-0.121239 0.094602 0)
(-0.138447 0.0875615 0)
(-0.129812 0.0588215 0)
(-0.101628 0.0246392 0)
(-0.0713151 -0.00241303 0)
(-0.0568776 -0.0218169 0)
(-0.056009 -0.0376247 0)
(-0.0731816 -0.0655411 0)
(-0.0948887 -0.0971156 0)
(-0.108428 -0.127604 0)
(-0.0971169 -0.123019 0)
(-0.0207009 -0.0394543 0)
(-0.00288724 0.010631 0)
(-0.00830582 0.0168874 0)
(-0.0142234 0.020382 0)
(-0.0212417 0.0221244 0)
(-0.0293116 0.0258067 0)
(-0.040845 0.0406059 0)
(-0.0611412 0.0714235 0)
(-0.0880984 0.101693 0)
(-0.103888 0.106011 0)
(-0.0896654 0.074763 0)
(-0.0491864 0.0254093 0)
(-0.000434586 -0.0163542 0)
(0.0376836 -0.0333895 0)
(0.0657792 -0.0294045 0)
(0.0724365 -0.0211986 0)
(0.0526519 -0.0197678 0)
(0.0105665 -0.0466657 0)
(-0.037689 -0.100359 0)
(-0.0649488 -0.148522 0)
(-0.0630539 -0.111315 0)
(-0.0028251 0.0159949 0)
(-0.00812135 0.0226623 0)
(-0.0131837 0.0265032 0)
(-0.019166 0.0294089 0)
(-0.0265052 0.0360798 0)
(-0.0363328 0.0558475 0)
(-0.0531973 0.0906042 0)
(-0.0666191 0.113995 0)
(-0.0615027 0.094218 0)
(-0.0288019 0.039514 0)
(0.0228952 -0.0203684 0)
(0.0748509 -0.0542028 0)
(0.11281 -0.0565322 0)
(0.12628 -0.0374181 0)
(0.131622 -0.0100454 0)
(0.128083 0.0130794 0)
(0.103733 0.013957 0)
(0.0533884 -0.0338172 0)
(-0.00271035 -0.131083 0)
(-0.0328013 -0.170942 0)
(-0.00225002 0.0209268 0)
(-0.00673243 0.0276671 0)
(-0.0105853 0.0315579 0)
(-0.0150811 0.0355687 0)
(-0.0206929 0.0446371 0)
(-0.0266976 0.0665927 0)
(-0.0355411 0.0999355 0)
(-0.0373351 0.108417 0)
(-0.0217491 0.0696614 0)
(0.0139703 -0.00126268 0)
(0.0572366 -0.0669264 0)
(0.0871123 -0.0934653 0)
(0.0920168 -0.0819839 0)
(0.0920245 -0.0570539 0)
(0.0974578 -0.0297 0)
(0.107936 0.000881931 0)
(0.115215 0.0293156 0)
(0.0982203 0.0253761 0)
(0.053435 -0.0553772 0)
(0.00487881 -0.166653 0)
(-0.00136113 0.0246897 0)
(-0.00457268 0.0313914 0)
(-0.00704876 0.0352024 0)
(-0.00979665 0.0399243 0)
(-0.0126753 0.0496719 0)
(-0.0141021 0.0703598 0)
(-0.0142894 0.0980618 0)
(-0.00933884 0.0961549 0)
(0.00877588 0.0447876 0)
(0.0344797 -0.0315919 0)
(0.0592358 -0.0919294 0)
(0.066728 -0.104034 0)
(0.0609129 -0.0829031 0)
(0.0577474 -0.0592542 0)
(0.0598267 -0.0372559 0)
(0.0636364 -0.015125 0)
(0.0745417 0.00995498 0)
(0.083296 0.0330474 0)
(0.0675475 0.00419755 0)
(0.0278614 -0.126787 0)
(-0.000365648 0.0268511 0)
(-0.00212442 0.0335917 0)
(-0.00313413 0.0371995 0)
(-0.00384896 0.0416689 0)
(-0.0038876 0.0505307 0)
(-0.00107712 0.0679238 0)
(0.00549559 0.0903612 0)
(0.0158776 0.0797152 0)
(0.0290144 0.0300887 0)
(0.0410765 -0.0430357 0)
(0.0492445 -0.0993387 0)
(0.0469007 -0.103162 0)
(0.0431037 -0.0798467 0)
(0.0416281 -0.0572083 0)
(0.0420246 -0.033073 0)
(0.0403491 -0.0122939 0)
(0.0404814 0.00241642 0)
(0.048612 0.0213021 0)
(0.052323 0.0138797 0)
(0.028398 -0.0678585 0)
(0.000572648 0.0273698 0)
(0.000321626 0.0343045 0)
(0.000736634 0.0373578 0)
(0.001772 0.0410241 0)
(0.00404004 0.0480902 0)
(0.00990663 0.0609829 0)
(0.0213677 0.0772019 0)
(0.0322206 0.068304 0)
(0.0464122 0.0235219 0)
(0.0454114 -0.0462155 0)
(0.0374722 -0.0935721 0)
(0.0341339 -0.0993029 0)
(0.0315173 -0.083301 0)
(0.0312717 -0.0584226 0)
(0.0274086 -0.030412 0)
(0.0248138 -0.00873748 0)
(0.0231064 0.00464204 0)
(0.0244707 0.0113993 0)
(0.0309552 0.0139604 0)
(0.0167678 -0.0334273 0)
(0.00157443 0.0260012 0)
(0.0025258 0.0334411 0)
(0.00417893 0.0360433 0)
(0.00648908 0.0385651 0)
(0.0101737 0.0432444 0)
(0.0174865 0.0516497 0)
(0.0311772 0.0623631 0)
(0.0433353 0.0576454 0)
(0.0567937 0.0185461 0)
(0.0484363 -0.0372484 0)
(0.0371934 -0.0832223 0)
(0.0249985 -0.0921442 0)
(0.0187875 -0.0833021 0)
(0.0175686 -0.0586228 0)
(0.0115877 -0.0297263 0)
(0.0105986 -0.00765651 0)
(0.0105754 0.00573643 0)
(0.0106431 0.0123295 0)
(0.0149925 0.00945247 0)
(0.00784239 -0.0154213 0)
(0.00190452 0.023729 0)
(0.00431915 0.0313811 0)
(0.00691948 0.0336591 0)
(0.0100303 0.0350042 0)
(0.0145666 0.0373153 0)
(0.0218202 0.0417558 0)
(0.0345987 0.0472598 0)
(0.0484187 0.0440862 0)
(0.0587324 0.0154397 0)
(0.053619 -0.0258744 0)
(0.0408078 -0.0638466 0)
(0.0234012 -0.0788204 0)
(0.0109349 -0.073051 0)
(0.00137274 -0.0544356 0)
(-0.00273822 -0.0284484 0)
(-0.00140175 -0.00785603 0)
(0.000852069 0.00499841 0)
(0.00220483 0.0106096 0)
(0.005486 0.00726715 0)
(0.00307539 -0.0071921 0)
(0.00239118 0.0199169 0)
(0.00568469 0.0282688 0)
(0.00899295 0.0305272 0)
(0.0125506 0.0309681 0)
(0.0172701 0.031389 0)
(0.0238472 0.0325491 0)
(0.0340076 0.0338904 0)
(0.0469185 0.0305694 0)
(0.0557455 0.0121181 0)
(0.0540844 -0.0170626 0)
(0.0430867 -0.0460183 0)
(0.0248507 -0.0611828 0)
(0.00931999 -0.0594201 0)
(-0.00254225 -0.0452519 0)
(-0.00863018 -0.0262722 0)
(-0.007582 -0.00919895 0)
(-0.0044596 0.00289647 0)
(-0.00218375 0.00847533 0)
(0.000773918 0.00476501 0)
(0.00109996 -0.00444407 0)
(0.00253735 0.0157091 0)
(0.00648778 0.0245131 0)
(0.0104071 0.0268572 0)
(0.0142834 0.0267687 0)
(0.0187977 0.0259493 0)
(0.0244505 0.0250094 0)
(0.0319538 0.0236967 0)
(0.0416388 0.0196226 0)
(0.0495613 0.00767668 0)
(0.0497997 -0.0116943 0)
(0.0408223 -0.0318924 0)
(0.025814 -0.0439401 0)
(0.0110141 -0.0443786 0)
(-0.00116724 -0.0359051 0)
(-0.00760734 -0.0233254 0)
(-0.00834219 -0.010186 0)
(-0.00600677 0.00056848 0)
(-0.00386213 0.00617504 0)
(-0.0011624 0.00242804 0)
(0.000410039 -0.00378355 0)
(0.0023149 0.0110349 0)
(0.00679588 0.0200372 0)
(0.0113741 0.0226744 0)
(0.0155923 0.0224808 0)
(0.019859 0.0211198 0)
(0.0245903 0.0191519 0)
(0.0301213 0.016504 0)
(0.0364633 0.0119906 0)
(0.0417787 0.00359073 0)
(0.0427081 -0.00808 0)
(0.0365307 -0.0212772 0)
(0.0252636 -0.0301713 0)
(0.0129227 -0.0325266 0)
(0.00238991 -0.0281268 0)
(-0.0043647 -0.0194149 0)
(-0.00643818 -0.00988063 0)
(-0.00570581 -0.00093059 0)
(-0.00415341 0.00393282 0)
(-0.00159538 0.000548357 0)
(0.000812124 -0.00430981 0)
(0.00185334 0.00733153 0)
(0.0068741 0.015286 0)
(0.0122794 0.0182448 0)
(0.0168705 0.0182309 0)
(0.0210361 0.0168902 0)
(0.0250781 0.0147055 0)
(0.0291215 0.0117589 0)
(0.0329646 0.00758831 0)
(0.0356395 0.00138675 0)
(0.035768 -0.00599745 0)
(0.0317226 -0.0139182 0)
(0.0237988 -0.0199434 0)
(0.0142838 -0.0222278 0)
(0.00570966 -0.0202525 0)
(-0.000449949 -0.0148301 0)
(-0.00384585 -0.00843653 0)
(-0.00479887 -0.0016106 0)
(-0.00315935 0.00149023 0)
(-0.00104832 -0.000823466 0)
(0.00137741 -0.00504422 0)
(0.000276353 0.00155833 0)
(0.00610841 0.00930204 0)
(0.012652 0.0126774 0)
(0.0174778 0.0135008 0)
(0.0216919 0.012683 0)
(0.0254635 0.0109271 0)
(0.0287122 0.0084388 0)
(0.0312395 0.00514261 0)
(0.0323622 0.000739743 0)
(0.0315587 -0.00412417 0)
(0.0282313 -0.00898827 0)
(0.0227357 -0.0129692 0)
(0.0152451 -0.0142141 0)
(0.00781483 -0.0133188 0)
(0.00195056 -0.0105495 0)
(-0.00157008 -0.00638466 0)
(-0.00361874 -0.00174011 0)
(-0.00139847 -0.000832476 0)
(-0.000337858 -0.00229375 0)
(0.00174902 -0.00454819 0)
(0.000162222 -0.00187842 0)
(0.00467487 0.00537419 0)
(0.0100838 0.00801015 0)
(0.0147848 0.00912656 0)
(0.0196277 0.00887633 0)
(0.0238338 0.00791189 0)
(0.0271037 0.00630599 0)
(0.0292657 0.00410011 0)
(0.0300041 0.00135461 0)
(0.0289579 -0.00170137 0)
(0.026069 -0.00455679 0)
(0.021025 -0.00641744 0)
(0.0151953 -0.00751553 0)
(0.00926647 -0.00679455 0)
(0.00399092 -0.00545727 0)
(0.00078663 -0.00353027 0)
(-0.00129614 -0.00162618 0)
(0.00101205 -0.00198154 0)
(2.01203e-06 -0.00286289 0)
(0.00213178 -0.00363534 0)
(-0.00131966 -0.00384908 0)
(-0.000824847 0.000296562 0)
(0.00367057 0.00295862 0)
(0.00898015 0.00351686 0)
(0.0132741 0.00404394 0)
(0.0171388 0.00412308 0)
(0.0203163 0.00373186 0)
(0.0224945 0.00293803 0)
(0.0234455 0.00182618 0)
(0.0229951 0.000518666 0)
(0.0212394 -0.000799691 0)
(0.0182218 -0.00180442 0)
(0.0146401 -0.00242504 0)
(0.0110362 -0.00247258 0)
(0.00783011 -0.00208579 0)
(0.00552063 -0.00166825 0)
(0.00426506 -0.00120303 0)
(0.00404839 -0.0010437 0)
(0.000667969 -0.00180036 0)
(0.00213438 -0.00240237 0)
(-0.000604947 0.000469262 0)
(-0.00214544 -0.00114208 0)
(-0.00140795 -0.00134346 0)
(-0.000326769 -0.00125851 0)
(0.00126425 -0.000945584 0)
(0.00326365 -0.000570748 0)
(0.00537793 -0.000216101 0)
(0.00728455 5.15813e-05 0)
(0.00878479 0.000232528 0)
(0.00968677 0.000312206 0)
(0.00990451 0.000330941 0)
(0.00944805 0.000293702 0)
(0.00846374 0.000224361 0)
(0.00719596 0.000140993 0)
(0.00594222 1.27217e-05 0)
(0.00491241 -8.39693e-05 0)
(0.00415877 -0.000201904 0)
(0.00310211 -0.000229947 0)
(0.00322447 -0.000674111 0)
(0.00161213 -0.000457364 0)
)
;

boundaryField
{
    movingWall
    {
        type            calculated;
        value           uniform (0 0 0);
    }
    fixedWalls
    {
        type            calculated;
        value           uniform (0 0 0);
    }
    frontAndBack
    {
        type            empty;
    }
}


// ************************************************************************* //
