/*--------------------------------*- C++ -*----------------------------------*\
| =========                 |                                                 |
| \\      /  F ield         | OpenFOAM: The Open Source CFD Toolbox           |
|  \\    /   O peration     | Version:  2312                                  |
|   \\  /    A nd           | Website:  www.openfoam.com                      |
|    \\/     M anipulation  |                                                 |
\*---------------------------------------------------------------------------*/
FoamFile
{
    version     2.0;
    format      ascii;
    arch        "LSB;label=32;scalar=64";
    class       volVectorField;
    location    "2";
    object      diffU;
}
// * * * * * * * * * * * * * * * * * * * * * * * * * * * * * * * * * * * * * //

dimensions      [0 1 -1 0 0 0 0];

internalField   nonuniform List<vector> 
400
(
(0 0 0)
(-0.00208597 0.000849688 0)
(-0.00604831 0.00139733 0)
(-0.0106749 0.00167555 0)
(-0.0158036 0.00200305 0)
(-0.0215449 0.00249025 0)
(-0.0279317 0.0030255 0)
(-0.0348145 0.00342874 0)
(-0.0420132 0.00361286 0)
(-0.0491939 0.00348615 0)
(-0.0555057 0.00282652 0)
(-0.0596572 0.00139363 0)
(-0.0601038 -0.000850607 0)
(-0.055648 -0.0035408 0)
(-0.0462141 -0.00591309 0)
(-0.0331362 -0.00726157 0)
(-0.0187643 -0.00679337 0)
(-0.00602434 -0.00429143 0)
(0.000783056 -0.00145189 0)
(0.00146204 0.000638421 0)
(-0.0010871 0.00226296 0)
(-0.00544843 0.00541085 0)
(-0.0116189 0.00718112 0)
(-0.0187067 0.00807501 0)
(-0.0263213 0.00885094 0)
(-0.0341558 0.0095808 0)
(-0.0419413 0.0101041 0)
(-0.0498042 0.0104705 0)
(-0.0581422 0.0106262 0)
(-0.0669884 0.0100257 0)
(-0.0755234 0.0078333 0)
(-0.0820796 0.00360084 0)
(-0.0846677 -0.00244517 0)
(-0.0815254 -0.00950632 0)
(-0.0718892 -0.0164209 0)
(-0.0564413 -0.0211013 0)
(-0.0369967 -0.0212441 0)
(-0.0167841 -0.0155501 0)
(-0.00216184 -0.00631908 0)
(0.00136654 0.00076061 0)
(-0.0022367 0.00684472 0)
(-0.00790286 0.0116151 0)
(-0.0147576 0.0143892 0)
(-0.0225916 0.0160255 0)
(-0.0309734 0.0171206 0)
(-0.0394426 0.0178045 0)
(-0.0480272 0.01838 0)
(-0.05762 0.0193285 0)
(-0.0691566 0.0205045 0)
(-0.0826325 0.0208042 0)
(-0.0966344 0.0184476 0)
(-0.108534 0.011638 0)
(-0.115519 8.41295e-05 0)
(-0.116036 -0.0145688 0)
(-0.10825 -0.0295031 0)
(-0.0922371 -0.0409578 0)
(-0.0686415 -0.0450596 0)
(-0.039607 -0.037394 0)
(-0.00986859 -0.0183319 0)
(0.00150881 -0.000101955 0)
(-0.00291117 0.0125687 0)
(-0.00935436 0.0183989 0)
(-0.0164572 0.0218371 0)
(-0.0243469 0.0240971 0)
(-0.0327805 0.0255948 0)
(-0.0416259 0.0267016 0)
(-0.0515606 0.0284741 0)
(-0.0640547 0.0317991 0)
(-0.080123 0.0358106 0)
(-0.0990214 0.0375937 0)
(-0.117572 0.0335051 0)
(-0.13169 0.0218683 0)
(-0.138853 0.00364726 0)
(-0.139371 -0.0187103 0)
(-0.13481 -0.0421652 0)
(-0.123205 -0.0632428 0)
(-0.102421 -0.0762442 0)
(-0.0710082 -0.0732243 0)
(-0.0321734 -0.0470682 0)
(-0.000273776 -0.0079907 0)
(-0.00312353 0.018895 0)
(-0.00981408 0.0255105 0)
(-0.016785 0.029319 0)
(-0.0243577 0.0320613 0)
(-0.032547 0.0341836 0)
(-0.0415626 0.0364755 0)
(-0.0525109 0.0406514 0)
(-0.0670298 0.0474602 0)
(-0.0855307 0.0545402 0)
(-0.105311 0.0565696 0)
(-0.121826 0.0490925 0)
(-0.132145 0.0315991 0)
(-0.136528 0.00686869 0)
(-0.136229 -0.0208146 0)
(-0.132665 -0.0490913 0)
(-0.12718 -0.0768637 0)
(-0.116472 -0.100762 0)
(-0.0940848 -0.111197 0)
(-0.0564886 -0.0906503 0)
(-0.0105526 -0.0276715 0)
(-0.00294949 0.0252373 0)
(-0.00937833 0.0324642 0)
(-0.0158649 0.0364703 0)
(-0.0227976 0.0396797 0)
(-0.0304207 0.0426993 0)
(-0.0391057 0.0467167 0)
(-0.0500668 0.0538147 0)
(-0.0646446 0.0641363 0)
(-0.0819138 0.0728023 0)
(-0.0982945 0.07264 0)
(-0.109484 0.0598197 0)
(-0.113582 0.0361901 0)
(-0.111632 0.00762729 0)
(-0.107295 -0.0215595 0)
(-0.103615 -0.0497516 0)
(-0.102135 -0.078307 0)
(-0.10149 -0.108779 0)
(-0.0938965 -0.135791 0)
(-0.0687476 -0.136506 0)
(-0.0261953 -0.0713515 0)
(-0.0024919 0.03108 0)
(-0.00822229 0.038823 0)
(-0.013904 0.0429242 0)
(-0.0198839 0.0465601 0)
(-0.0265147 0.050569 0)
(-0.0340948 0.0563652 0)
(-0.0435468 0.066071 0)
(-0.0555872 0.0786511 0)
(-0.0688124 0.0869988 0)
(-0.0798761 0.0834789 0)
(-0.0853494 0.0649711 0)
(-0.0845943 0.0358474 0)
(-0.0804437 0.00400064 0)
(-0.0756269 -0.0255615 0)
(-0.0708881 -0.0520426 0)
(-0.0681453 -0.0767844 0)
(-0.0699345 -0.105109 0)
(-0.0730805 -0.141318 0)
(-0.0635393 -0.169255 0)
(-0.0313933 -0.122759 0)
(-0.00183881 0.035994 0)
(-0.00653942 0.0442282 0)
(-0.011149 0.0483578 0)
(-0.0158886 0.0523076 0)
(-0.0210579 0.0571043 0)
(-0.0267395 0.0641461 0)
(-0.0333217 0.0753262 0)
(-0.0411261 0.0888022 0)
(-0.0488679 0.0959494 0)
(-0.054873 0.0891621 0)
(-0.0570464 0.0662889 0)
(-0.0559349 0.0335718 0)
(-0.0534708 -0.000374379 0)
(-0.0499897 -0.0313265 0)
(-0.0455208 -0.0578746 0)
(-0.0415669 -0.0797436 0)
(-0.0408606 -0.101982 0)
(-0.0460412 -0.135514 0)
(-0.0471388 -0.181481 0)
(-0.0280983 -0.171026 0)
(-0.00107978 0.0396845 0)
(-0.00453767 0.0484196 0)
(-0.00789087 0.0525241 0)
(-0.0111788 0.0565564 0)
(-0.0145402 0.0616839 0)
(-0.0178471 0.0691263 0)
(-0.0208803 0.0804319 0)
(-0.0237444 0.0935652 0)
(-0.0256111 0.099279 0)
(-0.0271224 0.0915344 0)
(-0.0273778 0.0672932 0)
(-0.0270443 0.0333286 0)
(-0.0266768 -0.00191887 0)
(-0.0253934 -0.034918 0)
(-0.0228512 -0.0624786 0)
(-0.0209261 -0.0833442 0)
(-0.0202654 -0.102191 0)
(-0.0243088 -0.129406 0)
(-0.0293234 -0.181039 0)
(-0.0208711 -0.205749 0)
(-0.000294152 0.0419923 0)
(-0.00239769 0.0512396 0)
(-0.00439505 0.0552375 0)
(-0.00615032 0.0590802 0)
(-0.00760487 0.0640187 0)
(-0.00847756 0.071027 0)
(-0.0080697 0.0812154 0)
(-0.00618775 0.092968 0)
(-0.00284338 0.0980339 0)
(0.000541298 0.0908545 0)
(0.00271725 0.0675986 0)
(0.00319254 0.0345236 0)
(0.0021484 -0.000981442 0)
(0.00109817 -0.0348254 0)
(0.000272554 -0.0627543 0)
(-0.0018485 -0.0830925 0)
(-0.00435822 -0.100598 0)
(-0.00956167 -0.124854 0)
(-0.0158174 -0.176677 0)
(-0.0145786 -0.226785 0)
(0.000458259 0.0428848 0)
(-0.000309636 0.0526443 0)
(-0.000954952 0.0564723 0)
(-0.00122874 0.0598906 0)
(-0.000899366 0.0641817 0)
(0.000381306 0.0700726 0)
(0.00350635 0.0782831 0)
(0.00909048 0.087741 0)
(0.0166632 0.0921471 0)
(0.0244477 0.0860731 0)
(0.029868 0.0663603 0)
(0.0319822 0.0361224 0)
(0.0310882 0.00179883 0)
(0.0280046 -0.0313028 0)
(0.0223922 -0.0585223 0)
(0.0154261 -0.0784671 0)
(0.00896207 -0.0952989 0)
(0.000934485 -0.118231 0)
(-0.00678198 -0.170533 0)
(-0.0113047 -0.239294 0)
(0.00106013 0.0424397 0)
(0.00153887 0.0526921 0)
(0.00214365 0.0563095 0)
(0.00318674 0.0591416 0)
(0.00501381 0.062503 0)
(0.00799086 0.0669138 0)
(0.0128852 0.0727465 0)
(0.0205897 0.0792738 0)
(0.0305682 0.0823059 0)
(0.0412748 0.0770305 0)
(0.0497057 0.06105 0)
(0.054112 0.0356842 0)
(0.0538925 0.00552554 0)
(0.0492788 -0.0245706 0)
(0.0400466 -0.0501885 0)
(0.0292642 -0.0698329 0)
(0.0193025 -0.0865061 0)
(0.00843555 -0.108749 0)
(-0.00119496 -0.162515 0)
(-0.0102114 -0.246822 0)
(0.00148524 0.0409329 0)
(0.00299608 0.0515405 0)
(0.00468862 0.0549187 0)
(0.00684576 0.0570954 0)
(0.0098441 0.0594335 0)
(0.0140138 0.0623257 0)
(0.0198723 0.0658588 0)
(0.0281895 0.0694647 0)
(0.0388387 0.0706391 0)
(0.0503008 0.0657795 0)
(0.0599472 0.0530373 0)
(0.0656147 0.0326938 0)
(0.0659619 0.00791763 0)
(0.0608063 -0.0173159 0)
(0.0506183 -0.039754 0)
(0.038321 -0.0584606 0)
(0.0262808 -0.0749987 0)
(0.0133955 -0.0969703 0)
(0.00195562 -0.152455 0)
(-0.0104299 -0.251956 0)
(0.00166815 0.0387101 0)
(0.00394527 0.0494474 0)
(0.0065265 0.0525105 0)
(0.00960758 0.0540106 0)
(0.0135087 0.055357 0)
(0.0184665 0.0568963 0)
(0.0247918 0.0585673 0)
(0.0329159 0.059868 0)
(0.0428808 0.0593383 0)
(0.0535491 0.0548441 0)
(0.0628236 0.0447664 0)
(0.0684341 0.0291703 0)
(0.0690435 0.0100998 0)
(0.0644366 -0.00996527 0)
(0.0551594 -0.0289265 0)
(0.0431347 -0.0461151 0)
(0.0304706 -0.0620253 0)
(0.0163866 -0.0835618 0)
(0.00365415 -0.140571 0)
(-0.0112843 -0.255549 0)
(0.00157836 0.0358924 0)
(0.00421012 0.046516 0)
(0.00749292 0.0492023 0)
(0.0113562 0.0500465 0)
(0.0159901 0.0505259 0)
(0.021516 0.0509715 0)
(0.0280868 0.0512969 0)
(0.0358209 0.0510912 0)
(0.0446492 0.0494692 0)
(0.0538435 0.0452943 0)
(0.0619091 0.0375452 0)
(0.0670021 0.0260422 0)
(0.0679724 0.0117876 0)
(0.0643383 -0.00359668 0)
(0.0564708 -0.0190291 0)
(0.0456559 -0.0340513 0)
(0.033159 -0.0486383 0)
(0.0185075 -0.0695717 0)
(0.00573275 -0.126256 0)
(-0.011936 -0.257862 0)
(0.000905666 0.0343488 0)
(0.00368762 0.0437692 0)
(0.00745314 0.0455323 0)
(0.0119301 0.0455193 0)
(0.017201 0.0451646 0)
(0.0232555 0.0447312 0)
(0.0300854 0.0441536 0)
(0.0376051 0.0431212 0)
(0.0455835 0.0410629 0)
(0.0534661 0.0373602 0)
(0.0603162 0.0314836 0)
(0.0648713 0.0232305 0)
(0.0661128 0.0130051 0)
(0.0635084 0.00158439 0)
(0.0570881 -0.0103971 0)
(0.0477745 -0.0228755 0)
(0.0354503 -0.0356197 0)
(0.0221889 -0.0568022 0)
(0.0109732 -0.109984 0)
(-0.0111491 -0.260576 0)
(-0.00048422 0.0289819 0)
(0.00103538 0.0374537 0)
(0.00534908 0.0393662 0)
(0.0107109 0.0393754 0)
(0.0168166 0.038788 0)
(0.0235964 0.0379225 0)
(0.0309277 0.0368971 0)
(0.0386198 0.035566 0)
(0.046369 0.0335873 0)
(0.0536952 0.0305831 0)
(0.059947 0.0262495 0)
(0.0643477 0.0204283 0)
(0.0660924 0.0134214 0)
(0.0644373 0.00546531 0)
(0.0592303 -0.00327157 0)
(0.0512967 -0.0130709 0)
(0.038822 -0.0238444 0)
(0.0314208 -0.0471095 0)
(0.0190014 -0.0948567 0)
(-0.00747734 -0.266533 0)
(-0.00298794 0.0439522 0)
(-0.00228416 0.0466536 0)
(0.0028902 0.0426127 0)
(0.00881653 0.0382302 0)
(0.01572 0.035014 0)
(0.0234666 0.0326073 0)
(0.0317563 0.030695 0)
(0.0402492 0.0289413 0)
(0.0486039 0.0270129 0)
(0.0564038 0.0246372 0)
(0.0631236 0.0216121 0)
(0.0681037 0.0179679 0)
(0.0706707 0.013698 0)
(0.0705939 0.00894132 0)
(0.0671328 0.00370074 0)
(0.0614952 -0.00329404 0)
(0.049 -0.0130481 0)
(0.0522021 -0.0381919 0)
(0.0228605 -0.0763261 0)
(0.00574453 -0.268229 0)
(-0.00641829 0.0145553 0)
(-0.00969118 0.00922391 0)
(0.000963492 0.0112505 0)
(0.0129204 0.0150438 0)
(0.0248406 0.0161612 0)
(0.0367482 0.0160585 0)
(0.0482127 0.0156874 0)
(0.0591414 0.0152781 0)
(0.0694543 0.0147351 0)
(0.0790071 0.0139353 0)
(0.0875464 0.0128149 0)
(0.0947618 0.0113777 0)
(0.100301 0.00965801 0)
(0.104172 0.0075823 0)
(0.105457 0.00518153 0)
(0.106219 0.0011373 0)
(0.0959383 -0.00413648 0)
(0.106644 -0.0214942 0)
(0.029925 -0.0423702 0)
(0.071884 -0.226311 0)
(0.0406729 0.092866 0)
(0.061093 0.0694185 0)
(0.0867076 0.0433634 0)
(0.108971 0.0287189 0)
(0.126633 0.0211064 0)
(0.141799 0.0166776 0)
(0.155819 0.013773 0)
(0.169007 0.0117099 0)
(0.181356 0.0101577 0)
(0.192866 0.00894509 0)
(0.203481 0.00793656 0)
(0.213097 0.00705874 0)
(0.221504 0.00625354 0)
(0.228698 0.00545465 0)
(0.233657 0.00455772 0)
(0.2388 0.00329372 0)
(0.231739 0.00186549 0)
(0.252465 -0.00330247 0)
(0.125988 0.00324576 0)
(0.3788 -0.0984294 0)
)
;

boundaryField
{
    movingWall
    {
        type            calculated;
        value           uniform (1.00026 -0.000210241 0);
    }
    fixedWalls
    {
        type            calculated;
        value           uniform (0.000259338 -0.000210241 0);
    }
    frontAndBack
    {
        type            empty;
    }
}


// ************************************************************************* //
