/*--------------------------------*- C++ -*----------------------------------*\
| =========                 |                                                 |
| \\      /  F ield         | OpenFOAM: The Open Source CFD Toolbox           |
|  \\    /   O peration     | Version:  2312                                  |
|   \\  /    A nd           | Website:  www.openfoam.com                      |
|    \\/     M anipulation  |                                                 |
\*---------------------------------------------------------------------------*/
FoamFile
{
    version     2.0;
    format      ascii;
    arch        "LSB;label=32;scalar=64";
    class       volScalarField;
    location    "2";
    object      divPhi;
}
// * * * * * * * * * * * * * * * * * * * * * * * * * * * * * * * * * * * * * //

dimensions      [0 0 -1 0 0 0 0];

internalField   nonuniform List<scalar> 
400
(
-4.05959e-06
-7.12309e-08
-1.20613e-07
-3.73432e-08
8.21785e-08
1.84052e-07
2.6434e-07
3.19124e-07
3.57928e-07
3.82455e-07
4.01524e-07
4.14548e-07
4.27925e-07
4.35841e-07
4.43454e-07
4.45655e-07
4.22899e-07
4.08294e-07
5.39533e-07
2.07288e-07
2.92212e-07
1.40009e-07
6.46854e-08
9.89195e-08
1.62129e-07
2.32762e-07
2.84114e-07
3.24482e-07
3.49989e-07
3.68775e-07
3.81169e-07
3.93177e-07
4.03891e-07
4.14437e-07
4.17306e-07
4.09727e-07
4.16539e-07
4.39569e-07
3.77444e-07
2.82144e-07
5.88733e-07
3.87466e-07
2.80104e-07
2.47328e-07
2.60734e-07
2.81273e-07
3.02969e-07
3.16935e-07
3.26967e-07
3.32767e-07
3.40999e-07
3.50346e-07
3.59833e-07
3.66019e-07
3.67688e-07
3.66694e-07
3.43521e-07
3.29073e-07
5.174e-07
1.40395e-07
6.61976e-07
5.13706e-07
4.00144e-07
3.44988e-07
3.1897e-07
3.10567e-07
3.04864e-07
3.01813e-07
2.9824e-07
2.9877e-07
3.03159e-07
3.12506e-07
3.22345e-07
3.30181e-07
3.26963e-07
3.09206e-07
3.07948e-07
3.60448e-07
2.23711e-07
2.50855e-07
5.7118e-07
5.11898e-07
4.39706e-07
3.84003e-07
3.49011e-07
3.23166e-07
3.04933e-07
2.90981e-07
2.82481e-07
2.78735e-07
2.84513e-07
2.95533e-07
3.05963e-07
3.07719e-07
3.00028e-07
2.91904e-07
2.56486e-07
2.01807e-07
4.34194e-07
7.00826e-08
6.16512e-07
5.09617e-07
4.34172e-07
3.82462e-07
3.43318e-07
3.14246e-07
2.9188e-07
2.76064e-07
2.66227e-07
2.65793e-07
2.7005e-07
2.80649e-07
2.89493e-07
2.90355e-07
2.77749e-07
2.51539e-07
2.41069e-07
2.96636e-07
9.47336e-08
2.04367e-07
3.74795e-07
4.00268e-07
3.73448e-07
3.397e-07
3.10858e-07
2.86862e-07
2.67377e-07
2.52911e-07
2.46295e-07
2.44173e-07
2.51802e-07
2.63761e-07
2.68461e-07
2.60721e-07
2.48664e-07
2.40615e-07
2.03185e-07
1.19664e-07
3.66058e-07
1.88572e-08
4.51433e-07
3.58336e-07
3.13074e-07
2.83549e-07
2.6032e-07
2.41554e-07
2.2745e-07
2.16279e-07
2.10253e-07
2.13105e-07
2.16919e-07
2.2371e-07
2.25997e-07
2.21996e-07
2.08623e-07
1.84169e-07
1.78624e-07
2.46541e-07
1.88429e-09
1.51778e-07
1.62502e-07
2.20808e-07
2.18999e-07
2.04852e-07
1.8991e-07
1.77854e-07
1.67368e-07
1.59551e-07
1.57174e-07
1.5523e-07
1.59446e-07
1.65082e-07
1.65021e-07
1.54717e-07
1.44426e-07
1.41808e-07
1.13811e-07
2.44325e-08
2.78918e-07
-3.49028e-08
2.53667e-07
1.68948e-07
1.39889e-07
1.23588e-07
1.11208e-07
1.01003e-07
9.33006e-08
8.74567e-08
8.24392e-08
8.14838e-08
7.85289e-08
7.69968e-08
7.36946e-08
7.18283e-08
6.5363e-08
4.86438e-08
5.44634e-08
1.37228e-07
-1.16439e-07
7.26484e-08
-3.35792e-08
2.94604e-08
3.67404e-08
3.11617e-08
2.30846e-08
1.51777e-08
8.23636e-09
1.49095e-09
-4.10423e-09
-1.19002e-08
-1.64797e-08
-2.24501e-08
-2.60276e-08
-3.1028e-08
-3.31868e-08
-2.53331e-08
-3.94614e-08
-1.23302e-07
1.1717e-07
-1.04836e-07
4.21378e-08
-2.8349e-08
-4.70706e-08
-5.59668e-08
-6.38802e-08
-7.11993e-08
-7.86062e-08
-8.51096e-08
-9.20356e-08
-9.77383e-08
-1.07951e-07
-1.18455e-07
-1.26714e-07
-1.27394e-07
-1.24261e-07
-1.30308e-07
-1.17581e-07
-3.52656e-08
-2.64192e-07
-2.70169e-08
-2.03671e-07
-1.51753e-07
-1.41696e-07
-1.42585e-07
-1.46825e-07
-1.53049e-07
-1.59275e-07
-1.65919e-07
-1.71849e-07
-1.80242e-07
-1.90495e-07
-2.04597e-07
-2.12603e-07
-2.1688e-07
-2.15881e-07
-2.02574e-07
-2.06871e-07
-2.81575e-07
-8.33522e-08
-1.65635e-07
-1.5899e-07
-2.06278e-07
-2.14206e-07
-2.16329e-07
-2.19566e-07
-2.24536e-07
-2.30396e-07
-2.361e-07
-2.41381e-07
-2.48517e-07
-2.61575e-07
-2.75612e-07
-2.86125e-07
-2.91166e-07
-2.87659e-07
-2.86839e-07
-2.71941e-07
-2.03385e-07
-3.79379e-07
-1.11285e-07
-3.25025e-07
-2.92932e-07
-2.83191e-07
-2.79789e-07
-2.8086e-07
-2.83792e-07
-2.8835e-07
-2.92391e-07
-2.97501e-07
-3.0506e-07
-3.16696e-07
-3.29382e-07
-3.38751e-07
-3.45117e-07
-3.46151e-07
-3.33185e-07
-3.26671e-07
-3.82401e-07
-2.44955e-07
-1.88829e-07
-3.11562e-07
-3.31315e-07
-3.30076e-07
-3.27955e-07
-3.27952e-07
-3.29923e-07
-3.32892e-07
-3.35673e-07
-3.38724e-07
-3.4501e-07
-3.54731e-07
-3.65605e-07
-3.7477e-07
-3.80817e-07
-3.80391e-07
-3.76728e-07
-3.58309e-07
-3.05331e-07
-4.13391e-07
-1.59373e-07
-3.79686e-07
-3.74035e-07
-3.69184e-07
-3.6953e-07
-3.68999e-07
-3.71229e-07
-3.71961e-07
-3.72936e-07
-3.73796e-07
-3.77209e-07
-3.84027e-07
-3.90102e-07
-3.96743e-07
-4.02789e-07
-4.03441e-07
-3.88945e-07
-3.69498e-07
-4.00936e-07
-3.40894e-07
-1.86293e-07
-3.8295e-07
-3.93722e-07
-3.96805e-07
-3.98174e-07
-3.99852e-07
-3.9977e-07
-3.98869e-07
-3.97066e-07
-3.95604e-07
-3.96559e-07
-3.98819e-07
-4.01797e-07
-4.05509e-07
-4.08551e-07
-4.03642e-07
-3.88947e-07
-3.67145e-07
-3.44001e-07
-3.92768e-07
-1.80569e-07
-3.84869e-07
-3.88781e-07
-3.91064e-07
-3.90434e-07
-3.89755e-07
-3.86739e-07
-3.83806e-07
-3.81288e-07
-3.79764e-07
-3.78995e-07
-3.79036e-07
-3.79805e-07
-3.80065e-07
-3.79288e-07
-3.72094e-07
-3.52069e-07
-3.25733e-07
-3.44226e-07
-3.71352e-07
-1.76839e-07
-1.86799e-07
-1.83338e-07
-1.80293e-07
-1.78584e-07
-1.76983e-07
-1.76005e-07
-1.74875e-07
-1.73788e-07
-1.72971e-07
-1.72379e-07
-1.72284e-07
-1.7205e-07
-1.7187e-07
-1.69913e-07
-1.62581e-07
-1.48959e-07
-1.42794e-07
-1.68236e-07
-1.78287e-07
0
)
;

boundaryField
{
    movingWall
    {
        type            extrapolatedCalculated;
        value           nonuniform List<scalar> 
20
(
-1.86799e-07
-1.83338e-07
-1.80293e-07
-1.78584e-07
-1.76983e-07
-1.76005e-07
-1.74875e-07
-1.73788e-07
-1.72971e-07
-1.72379e-07
-1.72284e-07
-1.7205e-07
-1.7187e-07
-1.69913e-07
-1.62581e-07
-1.48959e-07
-1.42794e-07
-1.68236e-07
-1.78287e-07
0
)
;
    }
    fixedWalls
    {
        type            extrapolatedCalculated;
        value           nonuniform List<scalar> 
60
(
-4.05959e-06
2.92212e-07
5.88733e-07
6.61976e-07
5.7118e-07
6.16512e-07
3.74795e-07
4.51433e-07
1.62502e-07
2.53667e-07
-3.35792e-08
4.21378e-08
-2.03671e-07
-1.5899e-07
-3.25025e-07
-3.11562e-07
-3.79686e-07
-3.8295e-07
-3.84869e-07
-1.86799e-07
2.07288e-07
2.82144e-07
1.40395e-07
2.50855e-07
7.00826e-08
2.04367e-07
1.88572e-08
1.51778e-07
-3.49028e-08
7.26484e-08
-1.04836e-07
-2.70169e-08
-1.65635e-07
-1.11285e-07
-1.88829e-07
-1.59373e-07
-1.86293e-07
-1.80569e-07
-1.76839e-07
0
-4.05959e-06
-7.12309e-08
-1.20613e-07
-3.73432e-08
8.21785e-08
1.84052e-07
2.6434e-07
3.19124e-07
3.57928e-07
3.82455e-07
4.01524e-07
4.14548e-07
4.27925e-07
4.35841e-07
4.43454e-07
4.45655e-07
4.22899e-07
4.08294e-07
5.39533e-07
2.07288e-07
)
;
    }
    frontAndBack
    {
        type            empty;
    }
}


// ************************************************************************* //
