/*--------------------------------*- C++ -*----------------------------------*\
| =========                 |                                                 |
| \\      /  F ield         | OpenFOAM: The Open Source CFD Toolbox           |
|  \\    /   O peration     | Version:  2312                                  |
|   \\  /    A nd           | Website:  www.openfoam.com                      |
|    \\/     M anipulation  |                                                 |
\*---------------------------------------------------------------------------*/
FoamFile
{
    version     2.0;
    format      ascii;
    arch        "LSB;label=32;scalar=64";
    class       volScalarField;
    location    "2";
    object      divU;
}
// * * * * * * * * * * * * * * * * * * * * * * * * * * * * * * * * * * * * * //

dimensions      [0 0 -1 0 0 0 0];

internalField   nonuniform List<scalar> 
400
(
0.00787911
0.0632712
0.0410032
0.0415747
0.0404485
0.0363487
0.0280434
0.0238152
0.0280237
0.0439808
0.0616969
0.0816859
0.113389
0.126301
0.0598271
-0.0492522
-0.0505065
0.0126243
0.0135893
0.0093096
-0.0209485
0.023355
-0.0266407
-0.0352467
-0.0331508
-0.0305747
-0.0293935
-0.0301202
-0.0292622
-0.00631203
0.0529939
0.11001
0.148892
0.175049
0.149412
0.119615
0.139095
0.173234
0.127068
0.0573595
-0.0352517
0.0467123
-0.003277
-0.0193702
-0.0107103
0.00670684
0.0192539
0.0199176
0.0171862
0.00902184
-0.0229308
-0.0617124
-0.140974
-0.193501
-0.194553
-0.253298
-0.237003
0.109871
0.0366657
0.0127147
-0.0733928
0.0349461
-0.00628322
-0.0287496
-0.0215999
-0.0109048
-0.0157387
-0.043059
-0.0930971
-0.168343
-0.202338
-0.132032
-0.0896507
-0.220212
-0.342206
-0.351691
-0.350622
-0.355537
-0.158401
0.539628
-0.0787672
0.040378
0.00896183
-0.0179329
-0.0100483
0.00511774
-0.0126563
-0.0682562
-0.128942
-0.124888
-0.0519602
-0.0380396
-0.0104099
0.101381
0.146297
0.112864
0.0560339
-0.258293
-0.590536
0.419907
-0.0661442
0.0397083
0.0185993
-0.00570155
0.00772727
0.0243596
-0.0119275
-0.0656101
-0.119133
-0.0661091
0.0591383
0.210089
0.34185
0.326951
0.22086
0.220488
0.389228
0.262106
-1.09031
0.0373911
-0.047615
0.0351941
0.0225882
0.00170677
0.0194084
0.039733
0.00191981
-0.0599777
-0.114189
-0.00147795
0.175101
0.22874
0.0965761
-0.0211424
-0.064136
-0.0482987
0.186179
0.667166
-0.32881
-0.422302
-0.029242
0.0286377
0.0250679
0.00873926
0.0264027
0.0497343
-0.00256533
-0.0632227
-0.146675
-0.0123049
0.126024
0.105689
0.00256931
-0.140652
-0.201321
-0.189961
-0.155678
0.56335
0.615811
-0.723422
-0.0137811
0.0200312
0.0238634
0.0123288
0.0246102
0.0540796
-0.000818484
-0.056498
-0.12935
-0.00743771
0.138783
0.165266
0.104388
0.032678
-0.0412407
-0.0763142
-0.199837
0.16029
0.824181
-0.504584
-0.00101998
0.0123835
0.0195547
0.0124361
0.0170517
0.0481456
0.0141068
-0.059788
-0.0402819
0.00994028
0.17183
0.22249
0.162334
0.173939
0.100962
0.0246378
-0.0820812
-0.0284376
0.548893
-0.262996
0.00772872
0.00392914
0.015295
0.0116971
0.00942944
0.0292538
0.0240326
-0.0537324
-0.0370864
-0.0619317
0.098588
0.238084
0.252942
0.155876
-0.00127497
-0.017043
-0.0400038
0.0360347
0.192277
-0.143224
0.0128432
-0.00203427
0.00943161
0.00749817
0.00558959
0.0124448
0.0174595
-0.0593238
-0.082303
-0.115609
-0.0485837
0.0758168
0.128562
0.0140916
-0.124628
-0.0737671
-0.0528501
0.0763282
-0.0568059
-0.0737531
0.0233046
-0.00412355
0.00506045
0.00244305
0.00219906
0.00107859
-0.000349445
-0.0439333
-0.0856246
-0.107788
-0.0969737
-0.0499122
-0.0234128
-0.0738364
-0.122338
-0.0619687
-0.0444728
0.0862165
-0.188155
0.0266128
0.00541525
-0.0166082
-0.00541742
-0.00666629
-0.0048565
-0.00712045
-0.0112521
-0.0284565
-0.0536757
-0.054239
-0.0606984
-0.0431646
-0.0127559
-0.0164836
-0.0576878
-0.0279569
-0.0387671
0.0582257
-0.147227
0.224372
0.0908516
0.0236301
0.0167841
0.000585964
-0.00325324
-0.00684767
-0.0108805
-0.0184384
-0.0252761
-0.0224025
-0.012418
0.0123512
0.0241476
0.00480096
-0.0152983
-0.00722796
-0.0742814
-0.066663
0.0143108
0.16949
-0.283585
-0.251486
-0.159352
-0.0923308
-0.0412583
-0.0164546
-0.00502275
-0.00269841
-0.00208366
0.00215289
0.0109491
0.0182695
0.027083
0.00373144
0.00235223
-0.0657366
-0.0791634
-0.201491
-0.193883
-0.797634
0.963596
0.871776
0.6756
0.417848
0.273493
0.198725
0.156474
0.126138
0.102537
0.0855009
0.0781069
0.0882789
0.0782489
0.0494856
0.0957288
-0.0826803
0.269572
-0.121029
-0.523984
-1.86579
-2.02174
-2.23516
-1.7015
-1.15017
-0.797675
-0.582771
-0.442717
-0.344041
-0.269758
-0.212813
-0.173468
-0.150353
-0.127313
-0.142089
-0.0645641
-0.39246
1.04148
-0.0524278
0.602887
1.21349
3.22856
3.01467
2.33623
1.43658
0.992014
0.744248
0.547122
0.401018
0.301052
0.240004
0.207906
0.184546
0.196612
0.16695
0.290373
-0.293117
1.53386
-3.11239
4.48117
6.85091
-0.659463
-3.30282
-0.715591
-0.425792
-0.486056
-0.397011
-0.267294
-0.187195
-0.145378
-0.117618
-0.0940872
-0.0833326
-0.0731283
-0.130479
-0.00575474
-0.676929
1.55147
-8.13747
16.504
-17.995
)
;

boundaryField
{
    movingWall
    {
        type            extrapolatedCalculated;
        value           nonuniform List<scalar> 
20
(
-0.659463
-3.30282
-0.715591
-0.425792
-0.486056
-0.397011
-0.267294
-0.187195
-0.145378
-0.117618
-0.0940872
-0.0833326
-0.0731283
-0.130479
-0.00575474
-0.676929
1.55147
-8.13747
16.504
-17.995
)
;
    }
    fixedWalls
    {
        type            extrapolatedCalculated;
        value           nonuniform List<scalar> 
60
(
0.00787911
-0.0209485
-0.0352517
-0.0733928
-0.0787672
-0.0661442
-0.047615
-0.029242
-0.0137811
-0.00101998
0.00772872
0.0128432
0.0233046
0.00541525
0.0908516
-0.283585
0.963596
-2.02174
3.22856
-0.659463
0.0093096
0.0573595
0.0127147
0.539628
0.419907
0.0373911
-0.422302
-0.723422
-0.504584
-0.262996
-0.143224
-0.0737531
0.0266128
0.224372
0.16949
-0.797634
-1.86579
1.21349
6.85091
-17.995
0.00787911
0.0632712
0.0410032
0.0415747
0.0404485
0.0363487
0.0280434
0.0238152
0.0280237
0.0439808
0.0616969
0.0816859
0.113389
0.126301
0.0598271
-0.0492522
-0.0505065
0.0126243
0.0135893
0.0093096
)
;
    }
    frontAndBack
    {
        type            empty;
    }
}


// ************************************************************************* //
