/*--------------------------------*- C++ -*----------------------------------*\
| =========                 |                                                 |
| \\      /  F ield         | OpenFOAM: The Open Source CFD Toolbox           |
|  \\    /   O peration     | Version:  2312                                  |
|   \\  /    A nd           | Website:  www.openfoam.com                      |
|    \\/     M anipulation  |                                                 |
\*---------------------------------------------------------------------------*/
FoamFile
{
    version     2.0;
    format      ascii;
    arch        "LSB;label=32;scalar=64";
    class       volScalarField;
    location    "2";
    object      dpdt2;
}
// * * * * * * * * * * * * * * * * * * * * * * * * * * * * * * * * * * * * * //

dimensions      [0 4 -6 0 0 0 0];

internalField   nonuniform List<scalar> 
400
(
4.23453e-11
3.25054e-11
5.98e-09
5.20386e-08
2.15373e-07
6.17586e-07
1.42823e-06
2.84414e-06
5.12295e-06
8.33476e-06
1.18337e-05
1.37891e-05
1.13162e-05
4.29702e-06
8.4559e-09
3.4368e-06
9.30913e-06
1.14127e-05
1.03627e-05
9.43555e-06
7.43512e-09
4.00518e-09
1.96837e-10
3.17275e-08
1.91e-07
6.09023e-07
1.4658e-06
3.06707e-06
5.95146e-06
1.0598e-05
1.62259e-05
1.93106e-05
1.63423e-05
8.58874e-06
1.28277e-06
8.92188e-07
6.05505e-06
9.34204e-06
9.62189e-06
9.1142e-06
3.17214e-08
1.89286e-08
2.70006e-09
1.51453e-08
1.60767e-07
5.92501e-07
1.6303e-06
4.19654e-06
1.03901e-05
2.21567e-05
4.02299e-05
6.01379e-05
6.69333e-05
5.85854e-05
3.38799e-05
9.48885e-06
1.43868e-09
4.21995e-06
8.10992e-06
6.70995e-06
6.63095e-08
3.70563e-08
8.49815e-09
8.15449e-09
1.43987e-07
6.40349e-07
2.42834e-06
8.99928e-06
2.75559e-05
6.59158e-05
0.000120712
0.000169126
0.000191889
0.000182839
0.000149468
9.43199e-05
3.40789e-05
9.89446e-07
5.07577e-06
9.79653e-06
7.65798e-08
3.22018e-08
2.44529e-09
2.34333e-08
2.27041e-07
1.01048e-06
4.63134e-06
2.05565e-05
6.8237e-05
0.000157228
0.000241169
0.00027317
0.000266012
0.000223172
0.000175734
0.000145699
0.000106629
3.46862e-05
2.14259e-07
5.01286e-06
4.49122e-08
6.61164e-09
8.75116e-09
1.15478e-07
5.38986e-07
2.07551e-06
1.01649e-05
4.23979e-05
0.000124895
0.000236871
0.000283307
0.000231605
0.000143916
7.87674e-05
5.40454e-05
5.45124e-05
7.31482e-05
7.89009e-05
2.47197e-05
2.62588e-07
5.05974e-09
6.16916e-09
8.79803e-08
3.50269e-07
1.13983e-06
3.83479e-06
1.63858e-05
6.18501e-05
0.000161202
0.000242204
0.00020638
0.00011534
6.25028e-05
1.58998e-05
4.90333e-06
5.1687e-06
1.5775e-05
5.42122e-05
8.55127e-05
2.40878e-05
1.02708e-08
6.19864e-08
2.37761e-07
6.69904e-07
1.79641e-06
5.39886e-06
2.01731e-05
6.75564e-05
0.000159981
0.000203325
0.000132336
5.84769e-05
6.19603e-05
1.51668e-06
3.17991e-07
4.00383e-07
2.24324e-07
1.098e-05
5.66783e-05
6.4839e-05
6.27959e-08
1.4701e-07
3.82924e-07
9.1666e-07
2.22503e-06
5.94507e-06
1.95659e-05
5.98725e-05
0.000125931
0.000154195
7.48136e-05
7.1449e-06
2.35882e-05
1.38397e-05
8.11419e-06
5.86588e-06
2.3506e-06
1.17638e-09
1.14618e-05
5.98172e-05
1.08683e-07
1.9069e-07
4.31159e-07
9.67651e-07
2.23391e-06
5.28118e-06
1.44696e-05
4.4464e-05
7.57144e-05
0.000115914
4.56934e-05
1.46335e-06
1.82656e-05
3.59582e-05
9.66353e-06
1.16164e-05
7.22711e-06
2.90953e-06
1.41118e-07
2.07892e-05
1.06236e-07
1.58461e-07
3.48182e-07
7.76259e-07
1.78361e-06
3.71993e-06
9.53087e-06
2.85757e-05
4.87725e-05
6.0831e-05
2.92895e-05
7.25583e-07
1.14027e-05
2.41752e-05
2.0223e-05
1.52793e-05
9.88936e-06
5.45467e-06
1.56504e-06
2.12564e-06
5.72348e-08
8.25212e-08
1.86702e-07
4.33784e-07
1.01075e-06
2.31886e-06
5.37159e-06
1.3681e-05
2.49575e-05
3.06947e-05
1.82473e-05
9.73792e-07
4.28523e-06
1.3819e-05
1.59809e-05
1.2821e-05
9.04661e-06
5.85654e-06
3.09084e-06
1.6922e-07
9.52368e-09
1.45726e-08
4.58999e-08
1.42372e-07
4.02101e-07
1.03712e-06
2.38619e-06
5.33938e-06
1.04856e-05
1.38743e-05
8.95437e-06
9.12482e-07
1.46736e-06
6.46797e-06
9.303e-06
8.43946e-06
6.52533e-06
4.67767e-06
3.11324e-06
1.23442e-06
2.67899e-09
4.69559e-09
1.29585e-09
4.19281e-09
6.32346e-08
2.78379e-07
8.00032e-07
1.85548e-06
3.7287e-06
4.97993e-06
3.44129e-06
5.70898e-07
4.22517e-07
3.04792e-06
5.0978e-06
5.15179e-06
4.27163e-06
3.19614e-06
2.21154e-06
1.64053e-06
2.84998e-08
6.75894e-08
9.18776e-08
6.49469e-08
1.18019e-08
1.42404e-08
1.67235e-07
5.49035e-07
1.19082e-06
1.60593e-06
1.0949e-06
1.53123e-07
2.39253e-07
1.60048e-06
2.9275e-06
3.26688e-06
2.8174e-06
2.07156e-06
1.34377e-06
1.46409e-06
4.55711e-08
2.24111e-07
3.68259e-07
3.40291e-07
1.97216e-07
4.83124e-08
2.78019e-09
1.15802e-07
3.61153e-07
5.09636e-07
3.24775e-07
1.73129e-08
2.2347e-07
1.04669e-06
1.86816e-06
2.26022e-06
1.99825e-06
1.44561e-06
9.27977e-07
1.22872e-06
2.32208e-10
5.05124e-07
9.46785e-07
8.38056e-07
5.7174e-07
2.63256e-07
4.77889e-08
6.48401e-09
1.08304e-07
1.90629e-07
1.23576e-07
2.21853e-09
1.67745e-07
6.84135e-07
1.25476e-06
1.69026e-06
1.622e-06
1.24384e-06
9.38208e-07
1.14009e-06
6.71179e-08
4.91218e-08
2.3767e-06
1.60864e-06
1.17275e-06
6.79715e-07
2.46827e-07
2.30937e-08
2.04965e-08
9.12038e-08
7.16969e-08
2.4863e-09
9.59629e-08
5.10862e-07
1.1331e-06
1.46449e-06
1.60471e-06
1.47264e-06
1.37462e-06
1.60154e-06
3.1283e-07
7.89454e-07
2.06302e-06
2.22697e-06
1.8416e-06
1.1405e-06
4.80337e-07
9.34455e-08
6.31623e-10
5.43717e-08
6.97622e-08
1.19445e-08
3.67838e-08
3.43562e-07
9.25102e-07
1.55055e-06
1.90441e-06
2.31804e-06
2.65e-06
3.50721e-06
4.66547e-07
9.26429e-07
1.55087e-06
1.78937e-06
1.564e-06
1.01065e-06
4.3641e-07
8.58774e-08
7.05156e-10
5.4921e-08
7.53174e-08
1.54852e-08
3.41069e-08
3.46382e-07
9.55321e-07
1.58654e-06
2.00206e-06
2.55185e-06
3.83884e-06
8.14755e-06
)
;

boundaryField
{
    movingWall
    {
        type            calculated;
        value           nonuniform List<scalar> 
20
(
4.66547e-07
9.26429e-07
1.55087e-06
1.78937e-06
1.564e-06
1.01065e-06
4.3641e-07
8.58774e-08
7.05156e-10
5.4921e-08
7.53174e-08
1.54852e-08
3.41069e-08
3.46382e-07
9.55321e-07
1.58654e-06
2.00206e-06
2.55185e-06
3.83884e-06
8.14755e-06
)
;
    }
    fixedWalls
    {
        type            calculated;
        value           nonuniform List<scalar> 
60
(
4.23453e-11
7.43512e-09
3.17214e-08
6.63095e-08
7.65798e-08
4.49122e-08
5.05974e-09
1.02708e-08
6.27959e-08
1.08683e-07
1.06236e-07
5.72348e-08
9.52368e-09
2.67899e-09
2.84998e-08
4.55711e-08
2.32208e-10
6.71179e-08
3.1283e-07
4.66547e-07
9.43555e-06
9.1142e-06
6.70995e-06
9.79653e-06
5.01286e-06
2.62588e-07
2.40878e-05
6.4839e-05
5.98172e-05
2.07892e-05
2.12564e-06
1.6922e-07
1.23442e-06
1.64053e-06
1.46409e-06
1.22872e-06
1.14009e-06
1.60154e-06
3.50721e-06
8.14755e-06
4.23453e-11
3.25054e-11
5.98e-09
5.20386e-08
2.15373e-07
6.17586e-07
1.42823e-06
2.84414e-06
5.12295e-06
8.33476e-06
1.18337e-05
1.37891e-05
1.13162e-05
4.29702e-06
8.4559e-09
3.4368e-06
9.30913e-06
1.14127e-05
1.03627e-05
9.43555e-06
)
;
    }
    frontAndBack
    {
        type            empty;
    }
}


// ************************************************************************* //
