/*--------------------------------*- C++ -*----------------------------------*\
| =========                 |                                                 |
| \\      /  F ield         | OpenFOAM: The Open Source CFD Toolbox           |
|  \\    /   O peration     | Version:  2312                                  |
|   \\  /    A nd           | Website:  www.openfoam.com                      |
|    \\/     M anipulation  |                                                 |
\*---------------------------------------------------------------------------*/
FoamFile
{
    version     2.0;
    format      ascii;
    arch        "LSB;label=32;scalar=64";
    class       volScalarField;
    location    "2";
    object      dUdt2;
}
// * * * * * * * * * * * * * * * * * * * * * * * * * * * * * * * * * * * * * //

dimensions      [0 2 -4 0 0 0 0];

internalField   nonuniform List<scalar> 
400
(
7.6294e-07
1.41948e-06
1.3922e-06
5.41879e-07
5.31992e-07
1.30695e-05
6.74723e-05
0.000259276
0.000892636
0.0024118
0.00487204
0.00761309
0.00946032
0.00944647
0.00732074
0.00435226
0.00162404
0.00015925
1.51994e-05
1.50509e-05
3.86297e-07
5.81539e-06
3.98592e-05
0.000115077
0.000224577
0.000355608
0.000640782
0.00160111
0.00413179
0.00876727
0.014725
0.0199406
0.022489
0.0223548
0.0202576
0.0160483
0.0101221
0.0038621
0.00021426
5.19071e-05
4.66389e-06
5.52021e-05
0.000161386
0.000350467
0.000604245
0.000962753
0.00214269
0.00597487
0.0139102
0.0237956
0.0308611
0.0323231
0.0304228
0.0281765
0.0281535
0.0279544
0.0272793
0.0198471
0.00584109
4.47007e-06
3.69147e-05
0.00017141
0.000366378
0.000641426
0.00104915
0.00203214
0.00552615
0.0136776
0.0236485
0.0268346
0.0203111
0.0109354
0.00509167
0.00371104
0.00455263
0.00965118
0.0184353
0.0280395
0.0245655
0.00198517
0.000121354
0.00035417
0.00061773
0.000940697
0.00152515
0.00331716
0.00883956
0.0181029
0.0220311
0.0136294
0.00306493
0.000267648
0.00253491
0.00519153
0.00569643
0.00316298
0.00228934
0.0114924
0.0262771
0.0163669
0.000263818
0.000579535
0.00087623
0.00123222
0.00200427
0.00443902
0.0110391
0.017433
0.0126596
0.00239091
0.000939062
0.0085406
0.015922
0.0173469
0.0174253
0.0165763
0.0109553
0.00399392
0.01719
0.030297
0.000442992
0.000810795
0.00110795
0.00149257
0.00242067
0.00514735
0.0112503
0.0131482
0.00532574
0.000196764
0.00775517
0.0163243
0.0151884
0.0117237
0.0103801
0.0116509
0.0141339
0.0102912
0.00592194
0.027797
0.000611434
0.00100633
0.00128889
0.00168992
0.00262796
0.00514937
0.0098203
0.00933297
0.00208294
0.0021869
0.0119599
0.0152757
0.0105833
0.00684582
0.00496724
0.00427836
0.00565556
0.00803036
0.00458029
0.0168512
0.000721115
0.00113292
0.00139363
0.00175111
0.00256847
0.0046148
0.00819534
0.00660662
0.00174717
0.00353936
0.0122932
0.012842
0.00823342
0.00500569
0.00285989
0.00177919
0.00164458
0.00281691
0.00293034
0.00541123
0.000749436
0.0011769
0.00139615
0.00168612
0.00232899
0.00381706
0.0064167
0.0057036
0.00270738
0.00419806
0.0101599
0.0110262
0.00793239
0.00439112
0.00167612
0.000692069
0.000555456
0.000728758
0.00115312
0.00139855
0.000678541
0.00112469
0.00131658
0.00152938
0.00197359
0.00297347
0.00486118
0.00520094
0.00356948
0.00373352
0.0083093
0.00911548
0.00729221
0.00374529
0.00101793
0.000170953
0.000144747
0.000265293
0.000314124
0.00029932
0.000566691
0.00100343
0.00118081
0.0013259
0.00160462
0.00221967
0.00343056
0.00428797
0.00368788
0.00354449
0.00574167
0.00676027
0.00545602
0.00296512
0.000816807
6.36821e-05
2.57102e-05
0.000117426
8.29076e-05
6.11843e-05
0.000402402
0.000831441
0.00101278
0.00111654
0.00128352
0.00162813
0.00230508
0.00313583
0.00325441
0.00321625
0.00397415
0.0043609
0.00361762
0.0020542
0.00076471
0.000142107
2.82776e-05
7.65999e-05
2.33043e-05
2.09596e-05
0.000253212
0.000642982
0.000829615
0.00092058
0.00102672
0.0012233
0.00158258
0.00211883
0.00251526
0.00261676
0.00268358
0.00259709
0.00209077
0.00129054
0.000601947
0.000173346
3.64044e-05
5.30472e-05
7.24656e-06
1.44834e-05
0.000127128
0.000447675
0.000643499
0.000748506
0.000840423
0.000971479
0.00117968
0.00147335
0.00175835
0.00188927
0.00178721
0.00154855
0.00122497
0.000796827
0.000395989
0.000139077
3.34223e-05
3.27179e-05
2.84594e-06
1.9234e-05
5.71862e-05
0.000280916
0.000483657
0.000616979
0.000727798
0.00084516
0.000986331
0.00114425
0.00127209
0.00131532
0.00120004
0.000964119
0.000698103
0.000442764
0.000220134
8.59657e-05
2.56232e-05
1.22022e-05
1.77707e-06
2.73414e-05
2.50476e-06
0.000123841
0.00032079
0.000487744
0.000631398
0.000767791
0.000895602
0.00100236
0.00104786
0.00101296
0.000877795
0.000685112
0.000434452
0.000238463
0.000115097
4.32291e-05
1.61233e-05
2.64873e-06
5.37544e-06
2.37451e-05
3.55478e-06
5.07364e-05
0.000165846
0.000301885
0.000464035
0.000630648
0.000774375
0.000873291
0.000902082
0.000841456
0.000700358
0.000483233
0.000287379
0.000132033
4.57093e-05
1.30816e-05
4.32443e-06
4.95074e-06
8.19614e-06
1.77602e-05
1.65569e-05
7.68321e-07
2.22265e-05
9.30115e-05
0.000192555
0.000310737
0.000426677
0.000514635
0.000553026
0.000529045
0.00045175
0.000335291
0.000220214
0.000127911
6.56611e-05
3.32604e-05
1.9638e-05
1.74788e-05
3.68748e-06
1.0327e-05
5.86168e-07
5.90727e-06
3.78721e-06
1.69064e-06
2.49245e-06
1.09772e-05
2.89689e-05
5.30673e-05
7.72266e-05
9.3931e-05
9.82088e-05
8.93518e-05
7.16853e-05
5.18017e-05
3.53101e-05
2.41388e-05
1.73361e-05
9.67594e-06
1.08516e-05
2.80815e-06
)
;

boundaryField
{
    movingWall
    {
        type            calculated;
        value           uniform 0;
    }
    fixedWalls
    {
        type            calculated;
        value           uniform 0;
    }
    frontAndBack
    {
        type            empty;
    }
}


// ************************************************************************* //
