/*--------------------------------*- C++ -*----------------------------------*\
| =========                 |                                                 |
| \\      /  F ield         | OpenFOAM: The Open Source CFD Toolbox           |
|  \\    /   O peration     | Version:  2312                                  |
|   \\  /    A nd           | Website:  www.openfoam.com                      |
|    \\/     M anipulation  |                                                 |
\*---------------------------------------------------------------------------*/
FoamFile
{
    version     2.0;
    format      ascii;
    arch        "LSB;label=32;scalar=64";
    class       volScalarField;
    location    "2";
    object      enstrophyField;
}
// * * * * * * * * * * * * * * * * * * * * * * * * * * * * * * * * * * * * * //

dimensions      [0 0 -2 0 0 0 0];

internalField   nonuniform List<scalar> 
400
(
0.0413553
0.446551
1.80724
4.65308
9.44311
16.3831
25.4399
36.7437
50.7342
67.181
83.7933
96.0198
98.4986
87.9531
66.0114
39.7974
17.5527
4.10945
0.233061
0.0183729
0.533647
0.576206
0.646777
0.922966
1.39038
1.83378
2.2019
2.72088
3.56405
4.69578
6.02181
7.449
8.94987
10.7703
12.7215
14.7304
15.3616
11.7649
3.63485
0.129602
2.14335
0.655564
0.427687
0.350414
0.339345
0.381026
0.620861
1.3407
2.75105
4.49285
5.40615
4.88174
3.91406
3.99261
6.6727
13.1106
23.7966
32.766
22.6488
1.93133
5.20833
0.624918
0.298429
0.152567
0.0872837
0.124966
0.458988
1.4022
2.45727
2.07528
0.448027
0.195084
1.91484
3.28165
2.02359
0.00372964
7.16281
34.9898
62.5562
22.2443
10.064
0.5458
0.177519
0.0549535
0.0211032
0.0779188
0.450395
1.04818
0.594077
0.190634
5.46417
18.1996
31.7088
38.7513
38.057
26.4557
6.21773
5.44506
72.1193
103.425
16.5257
0.464767
0.0939399
0.0154031
0.00504718
0.0665258
0.357484
0.284632
0.337396
7.37949
26.5912
49.7435
64.7909
69.5979
70.2403
69.6929
54.1023
11.8736
25.554
260.553
23.9521
0.405477
0.0456376
0.00270658
0.000977514
0.0491645
0.153501
0.0335587
3.9813
21.4179
50.0694
70.3504
71.4847
64.2397
59.7513
64.5639
78.328
62.7213
0.0465249
430.7
31.3874
0.376638
0.0213491
8.56691e-06
9.25455e-05
0.019487
0.0197919
0.629395
9.17694
33.9605
64.4815
77.1446
70.4071
58.0327
46.5168
41.7026
55.588
82.267
24.3094
583.33
37.8276
0.378263
0.00956153
0.0016731
0.00389877
0.00118094
0.00330575
1.29463
11.5466
38.1939
69.5839
82.3552
76.7137
62.326
44.3866
31.5464
34.0841
66.5024
57.9583
695.08
42.4252
0.406545
0.00409296
0.00683038
0.0143503
0.0053226
0.0299055
1.28261
9.85136
33.6245
64.4983
81.4172
80.7898
66.3216
43.7211
27.5249
25.1968
51.3312
77.4673
774.112
44.7414
0.465697
0.00250299
0.0132467
0.0296853
0.0280124
0.0540054
0.833792
6.15282
22.1248
46.9861
66.6792
71.0066
58.8632
37.7913
23.0447
20.1135
43.4609
92.0524
820.286
44.6751
0.558009
0.00324807
0.0176922
0.0441436
0.057424
0.0802395
0.45503
2.98138
11.0963
25.5081
39.7448
45.2471
39.1751
27.0028
17.5306
15.8119
39.1346
107.767
832.492
42.5834
0.670411
0.00686887
0.0181664
0.0532868
0.0820238
0.113652
0.284704
1.27966
4.46293
10.6739
17.6666
21.2296
19.7377
15.8246
12.0615
12.3394
36.4717
127.737
820.382
39.1478
0.792086
0.0154673
0.0138432
0.0531445
0.0921061
0.137435
0.235317
0.586924
1.64071
3.81864
6.49944
8.46501
9.05606
8.82097
8.17442
9.82344
34.9931
154.466
788.863
34.9376
0.920393
0.0338995
0.00498867
0.0382894
0.0807219
0.133844
0.212353
0.36122
0.701036
1.40191
2.46305
3.56661
4.46664
5.24339
5.86495
8.20128
34.7945
191.314
735.598
32.4826
1.03079
0.0758136
0.000385212
0.013035
0.0477806
0.0990538
0.173436
0.279814
0.444717
0.74024
1.25201
1.95349
2.76156
3.7045
4.76275
7.83672
38.0871
235.538
668.615
25.0276
1.33761
0.21025
0.0321407
3.9524e-06
0.0220894
0.0811041
0.177248
0.320263
0.527925
0.840085
1.2897
1.90535
2.82706
4.08437
5.88022
11.3232
51.0308
267.523
591.938
47.0066
0.440581
0.0815205
0.480995
0.931186
1.52614
2.19473
2.92909
3.75089
4.71636
5.87175
7.34527
9.34642
12.3665
17.0892
25.6837
42.333
95.9132
290.31
350.524
1.89368
22.2324
30.418
45.3573
60.388
70.5746
77.9296
84.1234
89.9071
95.7488
102.123
109.743
119.55
132.162
149.591
174.141
210.885
284.402
474.149
54.9098
16264.1
19972.4
19081.7
18066.8
17318.2
16731.8
16226.2
15770.6
15355.8
14979.5
14644.1
14354
14117.3
13933.5
13837.3
13748
14102.6
13448.5
18812.8
10586.2
)
;

boundaryField
{
    movingWall
    {
        type            calculated;
        value           nonuniform List<scalar> 
20
(
67551.7
72434.6
68261.7
64347.5
61479.4
59208.4
57214.2
55398.7
53738.8
52222.4
50848.6
49622.9
48566.7
47676.9
47080.6
46467.6
47452.9
44694.5
64519.9
28586.1
)
;
    }
    fixedWalls
    {
        type            calculated;
        value           nonuniform List<scalar> 
60
(
0.0299327
0.735624
4.51318
13.5213
29.2301
51.1652
76.9426
102.825
124.874
139.9
146.25
143.774
134.422
121.038
105.376
98.4185
72.7968
166.685
1.18599
12703.5
0.16271
0.0772314
0.00728629
9.32396
92.1628
466.364
1210.81
2262.9
3269.46
4020.64
4531.21
4856.78
5080.9
5231.24
5309.34
5376.9
5495.67
4927.39
1411.65
6692.76
0.0266233
0.580889
3.39469
9.83132
21.1682
38.9308
64.6412
99.2399
143.055
194.097
244.133
278.454
279.704
238.858
165.935
88.0491
31.256
4.64399
0.0401856
0.0975855
)
;
    }
    frontAndBack
    {
        type            empty;
    }
}


// ************************************************************************* //
