/*--------------------------------*- C++ -*----------------------------------*\
| =========                 |                                                 |
| \\      /  F ield         | OpenFOAM: The Open Source CFD Toolbox           |
|  \\    /   O peration     | Version:  2312                                  |
|   \\  /    A nd           | Website:  www.openfoam.com                      |
|    \\/     M anipulation  |                                                 |
\*---------------------------------------------------------------------------*/
FoamFile
{
    version     2.0;
    format      ascii;
    arch        "LSB;label=32;scalar=64";
    class       volScalarField;
    location    "2";
    object      flowTypeField;
}
// * * * * * * * * * * * * * * * * * * * * * * * * * * * * * * * * * * * * * //

dimensions      [0 0 0 0 0 0 0];

internalField   nonuniform List<scalar> 
400
(
0.296427
0.206804
0.130445
0.0747019
0.042653
0.027174
0.0214155
0.019828
0.019431
0.0200027
0.0223236
0.02703
0.0345007
0.0452513
0.0622666
0.088378
0.126449
0.199061
0.37853
0.398755
0.187025
0.330158
0.406273
0.387925
0.335089
0.294368
0.269523
0.252388
0.243059
0.241567
0.239911
0.234615
0.236645
0.254503
0.272758
0.266735
0.235932
0.184621
0.136788
0.0481536
0.132486
0.384745
0.520751
0.589036
0.60917
0.598309
0.541212
0.458955
0.396074
0.367079
0.377025
0.425155
0.489087
0.517985
0.473158
0.387662
0.28566
0.192928
0.099572
0.100808
0.0986511
0.435264
0.592016
0.708852
0.783159
0.764506
0.647012
0.544193
0.517986
0.583167
0.776948
0.830691
0.527531
0.445827
0.588849
0.982379
0.527801
0.272424
0.126556
0.0532674
0.0722896
0.478434
0.668945
0.812221
0.889029
0.824255
0.692892
0.643285
0.748085
0.841029
0.25567
-0.230391
-0.501322
-0.560002
-0.488953
-0.248782
0.352401
0.577575
0.197801
0.0534221
0.052545
0.503534
0.73876
0.892711
0.944512
0.845876
0.743145
0.805408
0.791986
0.185261
-0.401111
-0.848462
-0.839787
-0.793773
-0.847317
-0.950308
-0.717246
0.129855
0.375705
0.077619
0.03842
0.505792
0.796287
0.950737
0.974651
0.867849
0.825806
0.925384
0.365384
-0.24871
-0.781057
-0.865714
-0.747152
-0.708169
-0.729979
-0.870172
-0.818341
-0.714678
0.938142
0.0868175
0.0286298
0.481537
0.839086
0.996878
0.991637
0.911418
0.930628
0.687868
0.0846547
-0.489735
-0.926616
-0.837102
-0.758859
-0.702539
-0.671302
-0.771197
-0.831343
-0.56028
-0.392962
0.0736803
0.0219447
0.431412
0.871347
0.951304
0.941595
0.975572
0.968656
0.544226
-0.0400941
-0.573603
-0.959751
-0.852452
-0.811751
-0.806222
-0.812978
-0.859892
-0.767374
-0.423028
-0.403207
0.0521189
0.0175539
0.364383
0.897003
0.888743
0.877827
0.943447
0.900149
0.521101
-0.0218744
-0.549585
-0.930667
-0.849691
-0.813641
-0.837805
-0.849605
-0.770294
-0.573116
-0.290977
-0.211107
0.0297695
0.0141323
0.295754
0.903319
0.82568
0.808524
0.861188
0.855723
0.580914
0.117612
-0.365742
-0.74094
-0.785843
-0.724575
-0.655734
-0.536743
-0.426636
-0.318131
-0.17469
-0.105974
0.0128408
0.0111836
0.242128
0.878945
0.781687
0.750371
0.78766
0.809705
0.656387
0.31302
-0.0851588
-0.429754
-0.587157
-0.549306
-0.42118
-0.268502
-0.159631
-0.0952106
-0.0755322
-0.0439477
0.00303853
0.00823312
0.206734
0.829051
0.774683
0.717302
0.73239
0.755036
0.695488
0.483129
0.187164
-0.105426
-0.282541
-0.286988
-0.173935
-0.0497889
0.0342412
0.0639796
-0.000383236
-0.00904511
-0.00217256
0.00429648
0.176343
0.770308
0.809912
0.718835
0.707393
0.711428
0.690138
0.588423
0.396416
0.164788
-0.00515417
-0.0404103
0.027494
0.104568
0.156593
0.160545
0.0435736
0.00246105
-0.00348065
-0.00575586
0.125418
0.700979
0.891275
0.765849
0.722023
0.699179
0.67374
0.621651
0.512736
0.343199
0.176097
0.106025
0.135167
0.182974
0.213339
0.207084
0.0377568
-0.0119614
0.000591427
-0.0208228
0.104904
0.646758
0.973237
0.869164
0.787153
0.732087
0.680905
0.621031
0.533583
0.391528
0.205646
0.0908775
0.113157
0.16841
0.206286
0.186745
-0.0602793
-0.0378451
0.0123154
-0.0469004
-0.23153
0.382985
0.770587
0.997598
0.852322
0.752615
0.665597
0.569863
0.443903
0.254527
-0.0363688
-0.302578
-0.161449
-0.00058733
0.0839744
-0.00398108
-0.285038
-0.0252526
0.0474278
-0.0490895
0.638362
0.834053
0.600323
0.473532
0.385055
0.31925
0.256687
0.184931
0.0934666
-0.0226017
-0.155716
-0.249331
-0.242743
-0.208856
-0.176321
-0.415565
-0.445589
-0.000970854
0.236871
0.673406
0.0167248
0.0992004
0.0771783
0.037802
0.0232472
0.0183668
0.0145144
0.00880316
0.00128938
-0.00701879
-0.0148703
-0.0218567
-0.0274947
-0.0386072
-0.0501966
-0.119606
-0.104416
-0.31774
0.739451
0.0851336
-0.0242411
-0.0205194
-0.0113336
-0.00614231
-0.00372887
-0.00251095
-0.00181564
-0.001382
-0.00111175
-0.000956451
-0.000875352
-0.00086488
-0.000957667
-0.00126339
-0.00162126
-0.00390887
0.00301344
-0.0487415
0.119574
)
;

boundaryField
{
    movingWall
    {
        type            calculated;
        value           nonuniform List<scalar> 
20
(
0.0469869
-0.0102951
-0.00988996
-0.00564679
-0.00310183
-0.00190512
-0.00130072
-0.00095475
-0.000737235
-0.000599879
-0.000519372
-0.000475445
-0.000467921
-0.000514735
-0.00067991
-0.000873101
-0.00213216
0.00109357
-0.0265054
0.0669788
)
;
    }
    fixedWalls
    {
        type            calculated;
        value           nonuniform List<scalar> 
60
(
0.257061
0.0891107
0.05132
0.0369352
0.0273288
0.0207027
0.0161909
0.0131062
0.0109219
0.00937182
0.00787016
0.00625852
0.00438912
0.00177326
-0.00414718
-0.0134574
-0.0294132
-0.0272152
0.787389
0.19265
0.126331
0.307421
0.845329
0.00369445
0.00510836
0.0412807
0.0453485
0.0351078
0.0236764
0.0133104
0.00593943
0.00186691
-0.000126217
-0.000435111
0.00126046
0.00526539
0.0162917
0.074812
0.438578
0.433474
0.253867
0.0990108
0.0489244
0.0240003
0.0106177
0.00542618
0.00505171
0.00610566
0.00725456
0.00900316
0.0119031
0.0158681
0.0206227
0.026152
0.0338963
0.0460968
0.0678598
0.148391
0.673257
0.257945
)
;
    }
    frontAndBack
    {
        type            empty;
    }
}


// ************************************************************************* //
