/*--------------------------------*- C++ -*----------------------------------*\
| =========                 |                                                 |
| \\      /  F ield         | OpenFOAM: The Open Source CFD Toolbox           |
|  \\    /   O peration     | Version:  2312                                  |
|   \\  /    A nd           | Website:  www.openfoam.com                      |
|    \\/     M anipulation  |                                                 |
\*---------------------------------------------------------------------------*/
FoamFile
{
    version     2.0;
    format      ascii;
    arch        "LSB;label=32;scalar=64";
    class       surfaceScalarField;
    location    "2";
    object      fluxField;
}
// * * * * * * * * * * * * * * * * * * * * * * * * * * * * * * * * * * * * * //

dimensions      [0 3 -1 0 0 0 0];

oriented        oriented;

internalField   nonuniform List<scalar> 
760
(
-6.51162e-08
6.7086e-08
-2.16324e-07
1.67026e-07
-4.31047e-07
2.24973e-07
-6.74929e-07
2.54276e-07
-9.46679e-07
2.81862e-07
-1.24988e-06
3.12288e-07
-1.58162e-06
3.38753e-07
-1.93366e-06
3.57993e-07
-2.29314e-06
3.6649e-07
-2.63046e-06
3.48307e-07
-2.89204e-06
2.77008e-07
-3.00699e-06
1.35374e-07
-2.90676e-06
-7.18822e-08
-2.55952e-06
-3.15666e-07
-1.99673e-06
-5.47839e-07
-1.31048e-06
-6.9856e-07
-6.32682e-07
-6.90424e-07
-1.43999e-07
-4.85527e-07
4.31604e-08
-1.83762e-07
4.54878e-08
-1.76355e-07
2.38204e-07
-4.39651e-07
4.3616e-07
-7.71108e-07
5.49771e-07
-1.13867e-06
6.13024e-07
-1.52489e-06
6.598e-07
-1.91539e-06
6.95144e-07
-2.3066e-06
7.22615e-07
-2.71163e-06
7.55486e-07
-3.14123e-06
7.8878e-07
-3.57576e-06
7.81259e-07
-3.95304e-06
6.67535e-07
-4.18165e-06
3.91482e-07
-4.16779e-06
-4.85138e-08
-3.84833e-06
-5.91366e-07
-3.22123e-06
-1.13759e-06
-2.34892e-06
-1.54097e-06
-1.35749e-06
-1.64708e-06
-4.86616e-07
-1.31309e-06
-3.28493e-08
-6.05762e-07
2.69784e-08
-2.66456e-07
4.95847e-07
-5.79478e-07
7.60861e-07
-9.46696e-07
9.1617e-07
-1.35209e-06
1.01358e-06
-1.77337e-06
1.0784e-06
-2.19971e-06
1.12317e-06
-2.65415e-06
1.18186e-06
-3.18238e-06
1.2887e-06
-3.80769e-06
1.41839e-06
-4.49464e-06
1.47046e-06
-5.14217e-06
1.30933e-06
-5.61428e-06
8.48169e-07
-5.80184e-06
1.03797e-07
-5.62011e-06
-8.21465e-07
-5.02515e-06
-1.78119e-06
-4.03493e-06
-2.59451e-06
-2.71918e-06
-3.02208e-06
-1.24986e-06
-2.75495e-06
-2.21961e-07
-1.62449e-06
-1.91804e-07
-3.19605e-07
7.97104e-07
-6.58255e-07
1.10825e-06
-1.03307e-06
1.28941e-06
-1.44115e-06
1.41447e-06
-1.87313e-06
1.50497e-06
-2.34263e-06
1.58994e-06
-2.90335e-06
1.73865e-06
-3.61741e-06
1.99199e-06
-4.49158e-06
2.26928e-06
-5.4278e-06
2.3646e-06
-6.2445e-06
2.07545e-06
-6.77654e-06
1.3472e-06
-6.96857e-06
2.73411e-07
-6.86747e-06
-9.7761e-07
-6.46332e-06
-2.2709e-06
-5.6536e-06
-3.49215e-06
-4.34869e-06
-4.41465e-06
-2.59251e-06
-4.60001e-06
-8.24146e-07
-3.43245e-06
-8.81043e-07
-3.36407e-07
1.11382e-06
-6.77945e-07
1.45988e-06
-1.04153e-06
1.65524e-06
-1.43558e-06
1.80404e-06
-1.86571e-06
1.93258e-06
-2.3648e-06
2.09032e-06
-3.00148e-06
2.37216e-06
-3.82698e-06
2.80043e-06
-4.78401e-06
3.19408e-06
-5.69139e-06
3.24075e-06
-6.36224e-06
2.73332e-06
-6.7298e-06
1.70524e-06
-6.8319e-06
3.72912e-07
-6.73532e-06
-1.04884e-06
-6.50909e-06
-2.46056e-06
-6.10427e-06
-3.86876e-06
-5.27689e-06
-5.22802e-06
-3.7773e-06
-6.16417e-06
-1.689e-06
-5.66839e-06
-2.46506e-06
-3.21162e-07
1.41845e-06
-6.44048e-07
1.79269e-06
-9.7953e-07
1.99538e-06
-1.34343e-06
2.16651e-06
-1.75113e-06
2.34222e-06
-2.24228e-06
2.58756e-06
-2.88075e-06
3.00765e-06
-3.67693e-06
3.5802e-06
-4.51818e-06
4.00554e-06
-5.20744e-06
3.91349e-06
-5.58962e-06
3.13028e-06
-5.6433e-06
1.81145e-06
-5.48614e-06
3.0121e-07
-5.28573e-06
-1.16751e-06
-5.15673e-06
-2.53434e-06
-5.10359e-06
-3.86677e-06
-4.89762e-06
-5.33668e-06
-4.07907e-06
-6.9172e-06
-2.38654e-06
-7.6335e-06
-4.84226e-06
-2.80822e-07
1.68736e-06
-5.66123e-07
2.08679e-06
-8.57663e-07
2.29256e-06
-1.17293e-06
2.48221e-06
-1.52821e-06
2.70234e-06
-1.95401e-06
3.02329e-06
-2.49132e-06
3.54544e-06
-3.12296e-06
4.19685e-06
-3.73018e-06
4.58422e-06
-4.1436e-06
4.32654e-06
-4.26156e-06
3.29201e-06
-4.13892e-06
1.74599e-06
-3.91473e-06
1.01168e-07
-3.67584e-06
-1.41169e-06
-3.4888e-06
-2.73742e-06
-3.46496e-06
-3.90269e-06
-3.58834e-06
-5.16675e-06
-3.42846e-06
-6.91029e-06
-2.38628e-06
-8.75788e-06
-7.33411e-06
-2.22423e-07
1.90248e-06
-4.55177e-07
2.32671e-06
-6.88907e-07
2.53256e-06
-9.36628e-07
2.73211e-06
-1.2079e-06
2.98022e-06
-1.5145e-06
3.34232e-06
-1.87416e-06
3.90446e-06
-2.26282e-06
4.5697e-06
-2.60649e-06
4.89122e-06
-2.81095e-06
4.52793e-06
-2.8375e-06
3.35007e-06
-2.74811e-06
1.68302e-06
-2.59948e-06
-4.68191e-08
-2.40073e-06
-1.6456e-06
-2.19016e-06
-2.99832e-06
-2.07365e-06
-4.06668e-06
-2.18551e-06
-5.09382e-06
-2.34247e-06
-6.6125e-06
-1.89389e-06
-9.0525e-06
-9.40886e-06
-1.53403e-07
2.05243e-06
-3.2368e-07
2.50199e-06
-4.89708e-07
2.70455e-06
-6.55941e-07
2.90143e-06
-8.22649e-07
3.15308e-06
-9.81151e-07
3.51434e-06
-1.12858e-06
4.05169e-06
-1.24685e-06
4.67384e-06
-1.3313e-06
4.94334e-06
-1.37547e-06
4.57023e-06
-1.37352e-06
3.38281e-06
-1.356e-06
1.70682e-06
-1.31472e-06
-6.19957e-08
-1.21908e-06
-1.73307e-06
-1.1074e-06
-3.12031e-06
-1.04276e-06
-4.15041e-06
-1.12732e-06
-5.05921e-06
-1.35377e-06
-6.34597e-06
-1.26783e-06
-8.93239e-06
-1.08028e-05
-8.0263e-08
2.13244e-06
-1.82785e-07
2.60761e-06
-2.76601e-07
2.80326e-06
-3.56847e-07
2.98478e-06
-4.15028e-07
3.21552e-06
-4.26648e-07
3.538e-06
-3.69403e-07
3.99797e-06
-2.38745e-07
4.52824e-06
-7.0519e-08
4.76504e-06
6.84969e-08
4.4337e-06
1.34778e-07
3.35948e-06
1.20557e-07
1.77666e-06
6.81974e-08
3.09468e-08
2.13013e-08
-1.64269e-06
-5.23655e-08
-3.0214e-06
-1.68135e-07
-4.02848e-06
-3.60964e-07
-4.8869e-06
-6.47444e-07
-6.0666e-06
-7.72868e-07
-8.66975e-06
-1.16415e-05
-9.2513e-09
2.14362e-06
-4.45816e-08
2.64392e-06
-6.75591e-08
2.83006e-06
-6.61695e-08
2.98632e-06
-2.59184e-08
3.17763e-06
8.42246e-08
3.43517e-06
3.01954e-07
3.78625e-06
6.30876e-07
4.18588e-06
1.01481e-06
4.37184e-06
1.34492e-06
4.0881e-06
1.53329e-06
3.19577e-06
1.56379e-06
1.80568e-06
1.46435e-06
1.93621e-07
1.24695e-06
-1.38632e-06
9.32489e-07
-2.70726e-06
5.96737e-07
-3.69699e-06
2.34447e-07
-4.53461e-06
-1.59154e-07
-5.66399e-06
-4.65134e-07
-8.3157e-06
-1.21424e-05
5.20082e-08
2.09483e-06
7.90963e-08
2.61633e-06
1.20293e-07
2.79122e-06
1.92047e-07
2.91644e-06
3.1215e-07
3.05892e-06
5.08933e-07
3.2415e-06
8.23906e-07
3.47565e-06
1.26598e-06
3.72897e-06
1.78311e-06
3.83414e-06
2.26155e-06
3.58076e-06
2.58248e-06
2.86269e-06
2.68714e-06
1.71996e-06
2.56632e-06
3.46591e-07
2.22017e-06
-1.03665e-06
1.7198e-06
-2.23805e-06
1.2012e-06
-3.19683e-06
6.80485e-07
-4.02711e-06
1.68048e-07
-5.13248e-06
-2.98127e-07
-7.86372e-06
-1.2459e-05
9.90661e-08
2.00159e-06
1.79151e-07
2.53521e-06
2.75393e-07
2.69624e-06
4.0428e-07
2.78816e-06
5.8348e-07
2.88027e-06
8.34185e-07
2.99106e-06
1.18858e-06
3.12116e-06
1.66274e-06
3.24383e-06
2.21552e-06
3.25995e-06
2.74323e-06
3.0261e-06
3.12608e-06
2.4556e-06
3.27645e-06
1.55711e-06
3.15624e-06
4.60948e-07
2.77265e-06
-6.71518e-07
2.21052e-06
-1.7065e-06
1.60208e-06
-2.60388e-06
9.78941e-07
-3.41509e-06
3.70811e-07
-4.50279e-06
-2.24824e-07
-7.31513e-06
-1.26771e-05
1.27369e-07
1.87557e-06
2.48827e-07
2.4096e-06
3.90385e-07
2.55333e-06
5.64941e-07
2.61194e-06
7.86414e-07
2.65758e-06
1.06849e-06
2.70721e-06
1.42973e-06
2.75712e-06
1.88195e-06
2.78449e-06
2.39778e-06
2.7307e-06
2.89635e-06
2.51397e-06
3.26848e-06
2.0683e-06
3.42397e-06
1.39083e-06
3.32404e-06
5.57698e-07
2.97693e-06
-3.28537e-07
2.44439e-06
-1.18838e-06
1.82716e-06
-1.99365e-06
1.15846e-06
-2.75608e-06
4.88051e-07
-3.81782e-06
-2.03721e-07
-6.66016e-06
-1.28248e-05
1.31745e-07
1.76654e-06
2.79609e-07
2.26764e-06
4.58261e-07
2.37887e-06
6.7069e-07
2.39966e-06
9.24686e-07
2.40277e-06
1.2271e-06
2.40308e-06
1.58472e-06
2.39678e-06
1.99879e-06
2.36582e-06
2.44935e-06
2.27381e-06
2.88085e-06
2.07687e-06
3.20981e-06
1.73623e-06
3.3614e-06
1.24233e-06
3.2948e-06
6.30331e-07
3.00726e-06
-3.97952e-08
2.5402e-06
-7.25143e-07
1.95741e-06
-1.41266e-06
1.2787e-06
-2.09594e-06
5.9304e-07
-3.14883e-06
-1.68049e-07
-5.8955e-06
-1.29504e-05
1.01865e-07
1.59378e-06
2.65552e-07
2.04108e-06
4.71615e-07
2.13297e-06
7.15311e-07
2.13288e-06
9.98445e-07
2.10933e-06
1.32055e-06
2.07685e-06
1.67929e-06
2.03678e-06
2.06675e-06
1.97769e-06
2.46327e-06
1.87677e-06
2.83159e-06
1.70909e-06
3.11672e-06
1.45384e-06
3.26164e-06
1.10198e-06
3.22756e-06
6.71174e-07
3.00195e-06
1.86755e-07
2.6086e-06
-3.31206e-07
2.06765e-06
-8.8815e-07
1.42801e-06
-1.47609e-06
8.16086e-07
-2.58728e-06
-1.7365e-08
-5.11051e-06
-1.31672e-05
8.12152e-10
1.83387e-06
1.46645e-07
2.1132e-06
3.88533e-07
2.05998e-06
6.75222e-07
1.95065e-06
9.97359e-07
1.85556e-06
1.35014e-06
1.77376e-06
1.72572e-06
1.70032e-06
2.11175e-06
1.6232e-06
2.48864e-06
1.52552e-06
2.82809e-06
1.39102e-06
3.0944e-06
1.20705e-06
3.24804e-06
9.70418e-07
3.25028e-06
6.88495e-07
3.07872e-06
3.70678e-07
2.75021e-06
2.12414e-08
2.24e-06
-3.98612e-07
1.7431e-06
-9.11798e-07
1.24759e-06
-2.12202e-06
2.75135e-07
-4.26906e-06
-1.33585e-05
-1.4477e-07
1.4732e-06
2.18412e-09
1.40745e-06
2.79701e-07
1.35709e-06
6.00447e-07
1.34236e-06
9.66698e-07
1.28989e-06
1.36761e-06
1.22716e-06
1.78717e-06
1.17007e-06
2.20836e-06
1.116e-06
2.61222e-06
1.05421e-06
2.97522e-06
9.74824e-07
3.26771e-06
8.71189e-07
3.45639e-06
7.44151e-07
3.51865e-06
5.94411e-07
3.4302e-06
4.23603e-07
3.20273e-06
2.32569e-07
2.74941e-06
-4.34065e-08
2.51709e-06
-4.19101e-07
1.8636e-06
-1.48164e-06
7.02159e-07
-2.9569e-06
-1.2353e-05
-4.15704e-07
2.69605e-06
-2.31159e-07
1.97657e-06
3.34129e-07
1.37586e-06
9.31057e-07
1.10458e-06
1.52675e-06
9.42201e-07
2.11106e-06
8.28916e-07
2.67089e-06
7.47021e-07
3.20192e-06
6.85212e-07
3.69857e-06
6.32831e-07
4.15087e-06
5.82521e-07
4.54474e-06
5.29299e-07
4.8636e-06
4.71422e-07
5.09887e-06
4.08301e-07
5.22777e-06
3.36436e-07
5.27894e-06
2.53993e-07
5.04097e-06
1.21288e-07
5.05159e-06
-4.62627e-08
3.40126e-06
-6.09406e-07
2.53226e-06
-9.676e-07
-8.108e-06
2.53118e-06
3.68205e-06
4.87901e-06
5.87714e-06
6.69783e-06
7.42749e-06
8.10769e-06
8.7461e-06
9.34259e-06
9.89571e-06
1.04015e-05
1.08521e-05
1.12421e-05
1.15459e-05
1.17985e-05
1.17505e-05
1.20921e-05
9.44835e-06
1.26067e-05
)
;

boundaryField
{
    movingWall
    {
        type            calculated;
        value           uniform 0;
    }
    fixedWalls
    {
        type            calculated;
        value           uniform 0;
    }
    frontAndBack
    {
        type            empty;
        value           nonuniform List<scalar> 0();
    }
}


// ************************************************************************* //
