/*--------------------------------*- C++ -*----------------------------------*\
| =========                 |                                                 |
| \\      /  F ield         | OpenFOAM: The Open Source CFD Toolbox           |
|  \\    /   O peration     | Version:  2312                                  |
|   \\  /    A nd           | Website:  www.openfoam.com                      |
|    \\/     M anipulation  |                                                 |
\*---------------------------------------------------------------------------*/
FoamFile
{
    version     2.0;
    format      ascii;
    arch        "LSB;label=32;scalar=64";
    class       volTensorField;
    location    "2";
    object      gradU;
}
// * * * * * * * * * * * * * * * * * * * * * * * * * * * * * * * * * * * * * //

dimensions      [0 0 -1 0 0 0 0];

internalField   nonuniform List<tensor> 
400
(
(-0.260465 0.127017 0 -0.160577 0.268344 0 0 0 0)
(-0.604831 0.139733 0 -0.805308 0.668102 0 0 0 0)
(-0.85889 0.0825863 0 -1.81859 0.899894 0 0 0 0)
(-0.975529 0.0605717 0 -2.99003 1.0171 0 0 0 0)
(-1.087 0.0814701 0 -4.26436 1.12745 0 0 0 0)
(-1.2128 0.102245 0 -5.62193 1.24915 0 0 0 0)
(-1.32697 0.0938487 0 -7.03916 1.35501 0 0 0 0)
(-1.40816 0.0587361 0 -8.51374 1.43197 0 0 0 0)
(-1.43794 0.00574104 0 -10.0674 1.46596 0 0 0 0)
(-1.34925 -0.0786335 0 -11.6701 1.39323 0 0 0 0)
(-1.04633 -0.209252 0 -13.1548 1.10803 0 0 0 0)
(-0.459809 -0.367713 0 -14.2255 0.541495 0 0 0 0)
(0.400918 -0.493443 0 -14.529 -0.287529 0 0 0 0)
(1.38897 -0.506248 0 -13.7692 -1.26266 0 0 0 0)
(2.25118 -0.372077 0 -11.8622 -2.19135 0 0 0 0)
(2.74499 -0.0880283 0 -9.00962 -2.79424 0 0 0 0)
(2.71119 0.297014 0 -5.62797 -2.7617 0 0 0 0)
(1.95473 0.534148 0 -2.33271 -1.94211 0 0 0 0)
(0.748638 0.492985 0 -0.189746 -0.735048 0 0 0 0)
(-0.172642 0.0392982 0 0.23099 0.181951 0 0 0 0)
(-0.70542 0.809429 0 -0.22367 0.684472 0 0 0 0)
(-1.05318 0.491816 0 -0.581688 1.07654 0 0 0 0)
(-1.32583 0.266416 0 -0.870929 1.29919 0 0 0 0)
(-1.47024 0.166982 0 -1.19167 1.43499 0 0 0 0)
(-1.5449 0.150579 0 -1.51698 1.51175 0 0 0 0)
(-1.562 0.125319 0 -1.78977 1.53142 0 0 0 0)
(-1.56484 0.088969 0 -2.00955 1.53545 0 0 0 0)
(-1.62009 0.0522123 0 -2.28054 1.58997 0 0 0 0)
(-1.71842 -0.0444842 0 -2.71434 1.68916 0 0 0 0)
(-1.73812 -0.279295 0 -3.34386 1.73181 0 0 0 0)
(-1.50912 -0.642482 0 -4.11287 1.56211 0 0 0 0)
(-0.914424 -1.02785 0 -4.88764 1.02443 0 0 0 0)
(0.0554185 -1.31072 0 -5.54152 0.0934736 0 0 0 0)
(1.27785 -1.39758 0 -6.03877 -1.1028 0 0 0 0)
(2.50841 -1.1595 0 -6.20359 -2.359 0 0 0 0)
(3.48924 -0.482313 0 -5.91009 -3.36963 0 0 0 0)
(3.96572 0.555119 0 -4.98773 -3.82662 0 0 0 0)
(3.48349 1.4925 0 -3.35826 -3.31026 0 0 0 0)
(1.81507 1.63107 0 -1.06516 -1.688 0 0 0 0)
(0.131397 0.513799 0 0.00467709 -0.0740376 0 0 0 0)
(-1.06582 1.88803 0 -0.182407 1.03057 0 0 0 0)
(-1.25209 0.754452 0 -0.390593 1.2988 0 0 0 0)
(-1.46887 0.441039 0 -0.483825 1.46559 0 0 0 0)
(-1.62158 0.273134 0 -0.56402 1.60221 0 0 0 0)
(-1.6851 0.177904 0 -0.645923 1.67439 0 0 0 0)
(-1.70538 0.12594 0 -0.747015 1.71208 0 0 0 0)
(-1.81774 0.152396 0 -0.96193 1.837 0 0 0 0)
(-2.11294 0.21245 0 -1.42505 2.13286 0 0 0 0)
(-2.50125 0.147579 0 -2.19808 2.51844 0 0 0 0)
(-2.74778 -0.205685 0 -3.2033 2.75681 0 0 0 0)
(-2.59011 -0.916628 0 -4.20484 2.56718 0 0 0 0)
(-1.88846 -1.83635 0 -4.96101 1.82675 0 0 0 0)
(-0.750217 -2.62068 0 -5.41856 0.609242 0 0 0 0)
(0.726895 -2.95872 0 -5.78453 -0.920395 0 0 0 0)
(2.37987 -2.6389 0 -6.29204 -2.57442 0 0 0 0)
(3.96086 -1.55565 0 -6.67633 -4.21415 0 0 0 0)
(5.26301 0.356386 0 -6.54239 -5.50001 0 0 0 0)
(5.87729 2.67278 0 -5.42241 -5.76742 0 0 0 0)
(4.11158 3.7292 0 -3.00115 -4.07491 0 0 0 0)
(0.887846 1.80133 0 -0.164032 -0.875131 0 0 0 0)
(-1.27842 3.1388 0 -0.0886829 1.20503 0 0 0 0)
(-1.3546 0.926839 0 -0.191122 1.38955 0 0 0 0)
(-1.49926 0.569823 0 -0.202743 1.49298 0 0 0 0)
(-1.63233 0.375776 0 -0.176612 1.60359 0 0 0 0)
(-1.7279 0.260454 0 -0.157359 1.7063 0 0 0 0)
(-1.87801 0.287926 0 -0.212007 1.8671 0 0 0 0)
(-2.24288 0.509742 0 -0.448368 2.22714 0 0 0 0)
(-2.85624 0.733654 0 -0.940983 2.81318 0 0 0 0)
(-3.49667 0.579465 0 -1.63741 3.40358 0 0 0 0)
(-3.74488 -0.230552 0 -2.26784 3.57654 0 0 0 0)
(-3.26682 -1.57254 0 -2.51914 3.06449 0 0 0 0)
(-2.12814 -2.98578 0 -2.36115 1.99611 0 0 0 0)
(-0.768107 -4.05786 0 -2.1009 0.678456 0 0 0 0)
(0.404367 -4.58124 0 -2.01935 -0.624578 0 0 0 0)
(1.61662 -4.45326 0 -2.4415 -1.95882 0 0 0 0)
(3.23889 -3.4079 0 -3.49427 -3.59058 0 0 0 0)
(5.21964 -0.998149 0 -4.78307 -5.57026 0 0 0 0)
(7.02473 2.9176 0 -5.44778 -7.38026 0 0 0 0)
(7.07344 6.52336 0 -4.66201 -7.23184 0 0 0 0)
(3.29658 5.46384 0 -1.20614 -2.75695 0 0 0 0)
(-1.34563 4.4826 0 -0.00383214 1.26686 0 0 0 0)
(-1.36615 1.0424 0 -0.00239682 1.40653 0 0 0 0)
(-1.45436 0.655078 0 0.0592267 1.46332 0 0 0 0)
(-1.5762 0.486457 0 0.154935 1.55826 0 0 0 0)
(-1.72049 0.441419 0 0.235977 1.71044 0 0 0 0)
(-1.99639 0.64678 0 0.252018 2.0015 0 0 0 0)
(-2.54672 1.09847 0 0.149374 2.53406 0 0 0 0)
(-3.30198 1.38889 0 -0.0589928 3.23373 0 0 0 0)
(-3.82811 0.910937 0 -0.179087 3.69917 0 0 0 0)
(-3.62951 -0.544776 0 0.0726927 3.50463 0 0 0 0)
(-2.68342 -2.49705 0 0.80875 2.63146 0 0 0 0)
(-1.47022 -4.22238 0 1.81079 1.43218 0 0 0 0)
(-0.408413 -5.24137 0 2.72215 0.398003 0 0 0 0)
(0.386301 -5.596 0 3.20755 -0.284921 0 0 0 0)
(0.904944 -5.60491 0 3.11943 -0.758647 0 0 0 0)
(1.61928 -5.16709 0 2.10693 -1.50642 0 0 0 0)
(3.3095 -3.4333 0 0.0930994 -3.25347 0 0 0 0)
(5.99836 1.01119 0 -2.28883 -6.25665 0 0 0 0)
(8.35322 8.35251 0 -3.65742 -8.94375 0 0 0 0)
(6.75599 11.7901 0 -2.59215 -6.33608 0 0 0 0)
(-1.28465 5.81219 0 0.0631628 1.21851 0 0 0 0)
(-1.29154 1.1233 0 0.159179 1.33125 0 0 0 0)
(-1.34193 0.721558 0 0.288107 1.36053 0 0 0 0)
(-1.45558 0.622898 0 0.447381 1.44988 0 0 0 0)
(-1.63082 0.703695 0 0.603224 1.63854 0 0 0 0)
(-1.96461 1.11154 0 0.74678 1.98897 0 0 0 0)
(-2.55389 1.74196 0 0.896405 2.54196 0 0 0 0)
(-3.1847 1.89876 0 1.14427 3.11909 0 0 0 0)
(-3.36499 0.850365 0 1.67182 3.24586 0 0 0 0)
(-2.75704 -1.29826 0 2.54348 2.69093 0 0 0 0)
(-1.52873 -3.64498 0 3.64764 1.58786 0 0 0 0)
(-0.214742 -5.21924 0 4.75508 0.424831 0 0 0 0)
(0.628656 -5.77496 0 5.60844 -0.286806 0 0 0 0)
(0.801645 -5.73789 0 6.06024 -0.474695 0 0 0 0)
(0.515994 -5.67475 0 6.1777 -0.295135 0 0 0 0)
(0.212559 -5.90273 0 5.90345 0.00792901 0 0 0 0)
(0.823879 -5.74838 0 4.65377 -0.434651 0 0 0 0)
(3.2742 -2.77268 0 2.10043 -3.0121 0 0 0 0)
(6.77012 6.44393 0 -0.705063 -7.86043 0 0 0 0)
(9.54616 20.7437 0 -2.08407 -9.50877 0 0 0 0)
(-1.12329 7.03236 0 0.111068 1.07567 0 0 0 0)
(-1.14121 1.18442 0 0.283891 1.1764 0 0 0 0)
(-1.16616 0.77371 0 0.471592 1.18875 0 0 0 0)
(-1.26108 0.764474 0 0.690899 1.26279 0 0 0 0)
(-1.42109 0.980505 0 0.93629 1.4405 0 0 0 0)
(-1.70321 1.5502 0 1.23662 1.74294 0 0 0 0)
(-2.14923 2.2286 0 1.67452 2.15115 0 0 0 0)
(-2.52656 2.09278 0 2.35185 2.46659 0 0 0 0)
(-2.4289 0.482781 0 3.30459 2.31471 0 0 0 0)
(-1.65369 -2.20277 0 4.34215 1.65222 0 0 0 0)
(-0.471819 -4.76316 0 5.24378 0.646921 0 0 0 0)
(0.49057 -6.09705 0 5.76469 -0.26183 0 0 0 0)
(0.896743 -6.14089 0 5.81609 -0.800167 0 0 0 0)
(0.95556 -5.60433 0 5.73055 -0.976702 0 0 0 0)
(0.74816 -5.12228 0 5.80944 -0.812296 0 0 0 0)
(0.0953545 -5.30661 0 6.05683 -0.143653 0 0 0 0)
(-0.493521 -6.45332 0 6.06291 0.6797 0 0 0 0)
(0.639528 -6.41459 0 4.78553 0.0276383 0 0 0 0)
(4.16872 1.85584 0 2.16088 -4.49753 0 0 0 0)
(9.54512 29.1593 0 -0.190302 -9.96743 0 0 0 0)
(-0.889691 8.06426 0 0.141212 0.860449 0 0 0 0)
(-0.931018 1.23638 0 0.368462 0.959656 0 0 0 0)
(-0.934918 0.807944 0 0.601309 0.959986 0 0 0 0)
(-0.990886 0.874652 0 0.870513 0.999626 0 0 0 0)
(-1.08509 1.18385 0 1.19745 1.11149 0 0 0 0)
(-1.22638 1.82219 0 1.62477 1.27612 0 0 0 0)
(-1.43866 2.46561 0 2.26665 1.43609 0 0 0 0)
(-1.55463 2.06232 0 3.18427 1.49141 0 0 0 0)
(-1.3747 0.0359966 0 4.32014 1.22802 0 0 0 0)
(-0.817848 -2.96605 0 5.27537 0.805543 0 0 0 0)
(-0.106186 -5.55903 0 5.79716 0.23221 0 0 0 0)
(0.357566 -6.66633 0 5.755 -0.251878 0 0 0 0)
(0.59452 -6.48984 0 5.37668 -0.59195 0 0 0 0)
(0.794997 -5.75002 0 5.02335 -0.935649 0 0 0 0)
(0.842279 -4.84171 0 4.80369 -1.0436 0 0 0 0)
(0.466022 -4.41073 0 4.72191 -0.655983 0 0 0 0)
(-0.447429 -5.57709 0 4.96692 0.291751 0 0 0 0)
(-0.62782 -7.94991 0 4.87717 1.19117 0 0 0 0)
(1.79429 -3.55114 0 3.42159 -1.17848 0 0 0 0)
(7.57558 35.2086 0 1.05222 -8.299 0 0 0 0)
(-0.613612 8.85246 0 0.154466 0.599831 0 0 0 0)
(-0.681109 1.28396 0 0.414173 0.70114 0 0 0 0)
(-0.664109 0.81368 0 0.675394 0.687972 0 0 0 0)
(-0.664935 0.915982 0 0.973828 0.677263 0 0 0 0)
(-0.666833 1.257 0 1.3453 0.691443 0 0 0 0)
(-0.634007 1.8748 0 1.8262 0.688087 0 0 0 0)
(-0.589732 2.44388 0 2.5252 0.588914 0 0 0 0)
(-0.473077 1.88471 0 3.49383 0.416579 0 0 0 0)
(-0.337804 -0.203082 0 4.60246 0.208454 0 0 0 0)
(-0.176674 -3.19858 0 5.54143 0.169236 0 0 0 0)
(0.00781024 -5.82058 0 5.97637 0.130973 0 0 0 0)
(0.0700949 -6.92121 0 5.91274 0.0951712 0 0 0 0)
(0.165094 -6.82466 0 5.56192 -0.0607062 0 0 0 0)
(0.382563 -6.05598 0 5.10879 -0.349885 0 0 0 0)
(0.446726 -4.84262 0 4.57933 -0.487967 0 0 0 0)
(0.258582 -3.97126 0 3.97184 -0.334896 0 0 0 0)
(-0.338264 -4.60617 0 3.65023 0.138426 0 0 0 0)
(-0.9058 -7.88482 0 3.64795 1.06609 0 0 0 0)
(0.343765 -7.63433 0 3.13213 0.480416 0 0 0 0)
(5.07132 38.6368 0 1.35197 -5.5759 0 0 0 0)
(-0.321052 9.36524 0 0.153804 0.320032 0 0 0 0)
(-0.41009 1.32452 0 0.422803 0.422474 0 0 0 0)
(-0.375263 0.784068 0 0.693592 0.394818 0 0 0 0)
(-0.320981 0.878123 0 0.995002 0.333417 0 0 0 0)
(-0.232724 1.19467 0 1.36408 0.249775 0 0 0 0)
(-0.0464837 1.71966 0 1.82284 0.0946293 0 0 0 0)
(0.228981 2.1941 0 2.43866 -0.214874 0 0 0 0)
(0.522632 1.68186 0 3.28349 -0.58242 0 0 0 0)
(0.672905 -0.211346 0 4.22743 -0.713187 0 0 0 0)
(0.556064 -3.04353 0 5.15701 -0.546123 0 0 0 0)
(0.265124 -5.63309 0 5.72458 -0.0932938 0 0 0 0)
(-0.0568853 -6.85801 0 5.90265 0.279375 0 0 0 0)
(-0.209437 -6.93489 0 5.7765 0.37177 0 0 0 0)
(-0.187585 -6.17728 0 5.3398 0.361524 0 0 0 0)
(-0.294667 -4.82672 0 4.52434 0.395629 0 0 0 0)
(-0.463078 -3.78434 0 3.63522 0.487715 0 0 0 0)
(-0.771317 -4.1761 0 2.92275 0.689236 0 0 0 0)
(-1.14592 -7.60792 0 2.52433 1.11748 0 0 0 0)
(-0.501697 -10.1931 0 2.25414 1.05059 0 0 0 0)
(3.09147 40.3041 0 0.956643 -3.35447 0 0 0 0)
(-0.0370052 9.59497 0 0.135428 0.0447339 0 0 0 0)
(-0.141321 1.35874 0 0.393656 0.14525 0 0 0 0)
(-0.0919101 0.724624 0 0.653871 0.107205 0 0 0 0)
(0.00555858 0.770939 0 0.933706 0.00613849 0 0 0 0)
(0.161004 1.01821 0 1.26187 -0.151575 0 0 0 0)
(0.440572 1.41015 0 1.64684 -0.411318 0 0 0 0)
(0.870917 1.76684 0 2.09549 -0.846885 0 0 0 0)
(1.31569 1.3864 0 2.67775 -1.36942 0 0 0 0)
(1.53572 -0.166785 0 3.34116 -1.57281 0 0 0 0)
(1.32047 -2.57869 0 4.07335 -1.3824 0 0 0 0)
(0.753451 -4.99508 0 4.69885 -0.654863 0 0 0 0)
(0.122024 -6.45615 0 5.09194 0.116061 0 0 0 0)
(-0.397757 -6.74252 0 5.17441 0.650698 0 0 0 0)
(-0.869604 -6.03212 0 4.81806 1.02548 0 0 0 0)
(-1.25785 -4.71643 0 3.9774 1.25658 0 0 0 0)
(-1.34301 -3.67765 0 3.11127 1.32597 0 0 0 0)
(-1.44916 -3.9764 0 2.36607 1.40916 0 0 0 0)
(-1.57441 -7.52346 0 1.79972 1.61044 0 0 0 0)
(-1.22392 -12.1063 0 1.46225 1.4162 0 0 0 0)
(1.86054 40.9407 0 0.43672 -2.00376 0 0 0 0)
(0.208033 9.55522 0 0.102698 -0.19519 0 0 0 0)
(0.108352 1.38699 0 0.330572 -0.110387 0 0 0 0)
(0.164787 0.644956 0 0.564357 -0.155355 0 0 0 0)
(0.287016 0.619343 0 0.80745 -0.279518 0 0 0 0)
(0.480412 0.777216 0 1.07435 -0.474822 0 0 0 0)
(0.787134 1.02435 0 1.36325 -0.774689 0 0 0 0)
(1.25989 1.236 0 1.6366 -1.24243 0 0 0 0)
(1.7683 0.955934 0 1.90991 -1.82763 0 0 0 0)
(2.0685 -0.224329 0 2.21755 -2.1508 0 0 0 0)
(1.91376 -2.12559 0 2.58531 -2.02937 0 0 0 0)
(1.28372 -4.13463 0 3.00793 -1.3323 0 0 0 0)
(0.418677 -5.55245 0 3.36325 -0.34286 0 0 0 0)
(-0.483317 -6.02547 0 3.48737 0.611879 0 0 0 0)
(-1.38459 -5.5714 0 3.28017 1.39868 0 0 0 0)
(-2.00146 -4.52623 0 2.82261 1.87683 0 0 0 0)
(-2.07441 -3.63176 0 2.28949 2.00064 0 0 0 0)
(-2.08286 -3.89163 0 1.73188 2.03001 0 0 0 0)
(-2.04975 -7.60088 0 1.2461 2.12607 0 0 0 0)
(-1.8647 -13.8073 0 0.87376 1.80789 0 0 0 0)
(1.19251 40.8917 0 0.0874811 -1.26626 0 0 0 0)
(0.396265 9.28939 0 0.0608023 -0.37296 0 0 0 0)
(0.320338 1.39858 0 0.24064 -0.324462 0 0 0 0)
(0.384968 0.555493 0 0.438285 -0.379908 0 0 0 0)
(0.515548 0.451472 0 0.642084 -0.513105 0 0 0 0)
(0.7168 0.523035 0 0.849491 -0.714601 0 0 0 0)
(1.00282 0.642539 0 1.04757 -1.00174 0 0 0 0)
(1.41758 0.713899 0 1.19066 -1.41793 0 0 0 0)
(1.89664 0.478026 0 1.23262 -1.94057 0 0 0 0)
(2.21113 -0.368526 0 1.23126 -2.29675 0 0 0 0)
(2.11085 -1.76018 0 1.22743 -2.21864 0 0 0 0)
(1.53139 -3.30857 0 1.31179 -1.62836 0 0 0 0)
(0.601471 -4.51196 0 1.43222 -0.651383 0 0 0 0)
(-0.48084 -5.00097 0 1.5151 0.457427 0 0 0 0)
(-1.53436 -4.76717 0 1.51578 1.46053 0 0 0 0)
(-2.24853 -4.11447 0 1.51129 2.12619 0 0 0 0)
(-2.43375 -3.52447 0 1.38705 2.37178 0 0 0 0)
(-2.49255 -3.85097 0 1.1168 2.44808 0 0 0 0)
(-2.43252 -7.74558 0 0.795102 2.51874 0 0 0 0)
(-2.38254 -15.4986 0 0.484911 2.19438 0 0 0 0)
(0.899295 40.3991 0 -0.107289 -0.872682 0 0 0 0)
(0.509475 8.8578 0 0.00931207 -0.50406 0 0 0 0)
(0.485835 1.38004 0 0.121403 -0.502443 0 0 0 0)
(0.566231 0.456313 0 0.28043 -0.571648 0 0 0 0)
(0.698223 0.284649 0 0.451042 -0.704889 0 0 0 0)
(0.885895 0.288578 0 0.614598 -0.890751 0 0 0 0)
(1.12831 0.321029 0 0.750228 -1.13543 0 0 0 0)
(1.44494 0.297167 0 0.821446 -1.45619 0 0 0 0)
(1.8089 0.0771074 0 0.763135 -1.83736 0 0 0 0)
(2.06332 -0.502394 0 0.581049 -2.11699 0 0 0 0)
(1.99428 -1.4572 0 0.354271 -2.04852 0 0 0 0)
(1.4885 -2.56737 0 0.196187 -1.5492 0 0 0 0)
(0.621991 -3.46666 0 0.13874 -0.665155 0 0 0 0)
(-0.399756 -3.91356 0 0.20105 0.387001 0 0 0 0)
(-1.38841 -3.90264 0 0.353198 1.37193 0 0 0 0)
(-2.13019 -3.61498 0 0.585249 2.0725 0 0 0 0)
(-2.46889 -3.30988 0 0.733491 2.44093 0 0 0 0)
(-2.67481 -3.74467 0 0.687813 2.63605 0 0 0 0)
(-2.68164 -7.85457 0 0.511203 2.73987 0 0 0 0)
(-2.76709 -17.1987 0 0.377713 2.61986 0 0 0 0)
(0.814885 39.57 0 -0.150616 -0.590513 0 0 0 0)
(0.52698 8.28289 0 -0.0762487 -0.436128 0 0 0 0)
(0.591457 1.33099 0 -0.0257652 -0.567827 0 0 0 0)
(0.714606 0.353047 0 0.0926643 -0.697822 0 0 0 0)
(0.849716 0.132369 0 0.232256 -0.84913 0 0 0 0)
(1.01599 0.0924964 0 0.369225 -1.01924 0 0 0 0)
(1.20967 0.0770987 0 0.478899 -1.21652 0 0 0 0)
(1.43048 0.0119705 0 0.529356 -1.44136 0 0 0 0)
(1.65624 -0.182778 0 0.468917 -1.67468 0 0 0 0)
(1.80226 -0.579692 0 0.270272 -1.82754 0 0 0 0)
(1.72599 -1.19239 0 -0.00829929 -1.74839 0 0 0 0)
(1.31586 -1.9252 0 -0.250744 -1.32828 0 0 0 0)
(0.606333 -2.57576 0 -0.356278 -0.593982 0 0 0 0)
(-0.266382 -2.96389 0 -0.293079 0.29053 0 0 0 0)
(-1.15017 -3.08167 0 -0.0928117 1.15497 0 0 0 0)
(-1.86824 -3.04547 0 0.192864 1.85294 0 0 0 0)
(-2.33118 -2.96092 0 0.463976 2.32395 0 0 0 0)
(-2.71484 -3.55203 0 0.497975 2.64056 0 0 0 0)
(-2.74262 -7.76177 0 0.580237 2.67596 0 0 0 0)
(-3.04436 -18.829 0 0.731903 3.05867 0 0 0 0)
(0.672198 38.3697 0 0.0135225 -0.502707 0 0 0 0)
(0.407461 7.85384 0 -0.206258 -0.691046 0 0 0 0)
(0.654748 1.11835 0 -0.317473 -0.906234 0 0 0 0)
(0.824252 0.175009 0 -0.214384 -0.983604 0 0 0 0)
(0.974783 -0.0367687 0 -0.0645252 -1.06711 0 0 0 0)
(1.13254 -0.0788091 0 0.0826532 -1.1738 0 0 0 0)
(1.28844 -0.101095 0 0.208035 -1.30489 0 0 0 0)
(1.43496 -0.160998 0 0.284095 -1.43998 0 0 0 0)
(1.54982 -0.309069 0 0.279889 -1.55251 0 0 0 0)
(1.5861 -0.576104 0 0.171979 -1.58819 0 0 0 0)
(1.47327 -0.957933 0 -0.0148349 -1.47111 0 0 0 0)
(1.14052 -1.41296 0 -0.196214 -1.12957 0 0 0 0)
(0.579656 -1.84785 0 -0.265441 -0.561387 0 0 0 0)
(-0.13629 -2.16461 0 -0.188004 0.163373 0 0 0 0)
(-0.902467 -2.34023 0 0.00990479 0.906199 0 0 0 0)
(-1.5734 -2.44599 0 0.275953 1.57575 0 0 0 0)
(-2.16378 -2.52226 0 0.564082 2.09804 0 0 0 0)
(-2.55855 -3.39266 0 0.566305 2.47939 0 0 0 0)
(-2.44771 -7.43646 0 1.29132 2.24622 0 0 0 0)
(-3.33381 -20.3774 0 1.32687 3.13992 0 0 0 0)
(0.0694601 37.014 0 0.445871 -0.867094 0 0 0 0)
(0.00324861 6.68561 0 -0.389361 0.960347 0 0 0 0)
(0.58333 1.03843 0 -0.597178 0.288446 0 0 0 0)
(0.967555 0.192166 0 -0.456294 -0.291955 0 0 0 0)
(1.14675 -0.0578231 0 -0.311361 -0.728906 0 0 0 0)
(1.28855 -0.145282 0 -0.148093 -1.01505 0 0 0 0)
(1.41111 -0.189084 0 0.0211041 -1.21239 0 0 0 0)
(1.50234 -0.235652 0 0.167099 -1.34586 0 0 0 0)
(1.54413 -0.330987 0 0.264408 -1.41799 0 0 0 0)
(1.50754 -0.498292 0 0.302037 -1.405 0 0 0 0)
(1.3578 -0.733778 0 0.293768 -1.2723 0 0 0 0)
(1.06525 -1.01548 0 0.280738 -0.987146 0 0 0 0)
(0.614543 -1.28281 0 0.323234 -0.526264 0 0 0 0)
(0.00896364 -1.4963 0 0.455797 0.0692852 0 0 0 0)
(-0.686208 -1.66929 0 0.708545 0.735693 0 0 0 0)
(-1.31406 -1.85362 0 1.00448 1.40979 0 0 0 0)
(-2.04083 -2.05728 0 1.37207 1.95815 0 0 0 0)
(-1.9876 -3.40385 0 1.35497 2.25717 0 0 0 0)
(-1.98206 -7.10123 0 3.00132 1.86103 0 0 0 0)
(-3.88981 -21.9423 0 1.18873 3.36583 0 0 0 0)
(-1.10054 36.0969 0 1.68936 -0.765247 0 0 0 0)
(-0.579078 9.10264 0 -0.593407 -1.44266 0 0 0 0)
(0.587815 -0.133954 0 -1.07266 -2.82298 0 0 0 0)
(1.11007 -0.842342 0 -0.438559 -2.81157 0 0 0 0)
(1.28298 -0.759868 0 0.220943 -2.43315 0 0 0 0)
(1.465 -0.56229 0 0.802397 -2.26268 0 0 0 0)
(1.60363 -0.431904 0 1.31518 -2.1864 0 0 0 0)
(1.67826 -0.366601 0 1.7285 -2.12098 0 0 0 0)
(1.68475 -0.368208 0 2.05216 -2.0288 0 0 0 0)
(1.61546 -0.43041 0 2.30853 -1.88522 0 0 0 0)
(1.45197 -0.540077 0 2.5312 -1.66478 0 0 0 0)
(1.16999 -0.666932 0 2.75995 -1.34346 0 0 0 0)
(0.754715 -0.791417 0 3.04141 -0.905068 0 0 0 0)
(0.249022 -0.902656 0 3.42086 -0.376335 0 0 0 0)
(-0.353788 -0.999723 0 3.9735 0.211699 0 0 0 0)
(-0.909874 -1.22354 0 4.62269 0.84531 0 0 0 0)
(-1.81328 -1.67488 0 5.49223 1.42082 0 0 0 0)
(-0.929305 -3.48978 0 5.71163 1.97079 0 0 0 0)
(-2.61395 -6.32781 0 7.52234 2.56152 0 0 0 0)
(-4.64576 -23.0037 0 1.09236 5.24865 0 0 0 0)
(-2.80864 34.4134 0 7.93614 4.02213 0 0 0 0)
(-1.66282 2.41997 0 4.36608 4.89138 0 0 0 0)
(0.738179 -0.330479 0 6.33771 2.27649 0 0 0 0)
(2.26115 0.581993 0 8.38174 0.0750719 0 0 0 0)
(2.38771 0.491071 0 10.0155 -0.951132 0 0 0 0)
(2.38278 0.101469 0 11.0913 -1.39077 0 0 0 0)
(2.33722 -0.0473825 0 11.8332 -1.59297 0 0 0 0)
(2.23932 -0.0780474 0 12.4063 -1.6922 0 0 0 0)
(2.12416 -0.0952295 0 12.8758 -1.72314 0 0 0 0)
(1.98658 -0.134277 0 13.2752 -1.68552 0 0 0 0)
(1.80922 -0.192015 0 13.6463 -1.56921 0 0 0 0)
(1.57546 -0.255762 0 14.0357 -1.36756 0 0 0 0)
(1.27546 -0.315692 0 14.4994 -1.09091 0 0 0 0)
(0.941055 -0.379537 0 15.0833 -0.744442 0 0 0 0)
(0.515617 -0.447648 0 15.8104 -0.348667 0 0 0 0)
(0.204675 -0.6445 0 16.6524 0.0856983 0 0 0 0)
(-0.951893 -0.931801 0 17.7305 0.658776 0 0 0 0)
(0.0425077 -2.26315 0 18.2739 1.49135 0 0 0 0)
(-6.60133 -3.82338 0 20.0262 3.48894 0 0 0 0)
(-3.47601 -20.4817 0 10.3128 7.95719 0 0 0 0)
(-10.129 26.8261 0 37.3056 16.9799 0 0 0 0)
(10.1247 16.2705 0 196.626 -10.7842 0 0 0 0)
(4.60347 -4.95026 0 194.912 -7.90629 0 0 0 0)
(4.78785 -4.06996 0 191.285 -5.50344 0 0 0 0)
(3.99253 -2.22571 0 187.863 -4.41832 0 0 0 0)
(3.28275 -1.20413 0 184.905 -3.7688 0 0 0 0)
(2.91865 -0.733337 0 182.197 -3.31566 0 0 0 0)
(2.72079 -0.49677 0 179.649 -2.98809 0 0 0 0)
(2.55365 -0.361533 0 177.237 -2.74085 0 0 0 0)
(2.38595 -0.276484 0 174.971 -2.53132 0 0 0 0)
(2.21247 -0.222111 0 172.865 -2.33009 0 0 0 0)
(2.02311 -0.188635 0 170.949 -2.1172 0 0 0 0)
(1.80236 -0.168302 0 169.266 -1.88569 0 0 0 0)
(1.56008 -0.160409 0 167.871 -1.6332 0 0 0 0)
(1.21527 -0.169582 0 166.765 -1.34574 0 0 0 0)
(1.01022 -0.216094 0 166.14 -1.01597 0 0 0 0)
(-0.191778 -0.269223 0 165.55 -0.48515 0 0 0 0)
(1.36642 -0.659619 0 167.284 0.185051 0 0 0 0)
(-10.5751 0.138027 0 164.141 2.43762 0 0 0 0)
(12.6336 -9.51269 0 184.461 3.8704 0 0 0 0)
(-50.427 9.47631 0 154.983 32.432 0 0 0 0)
)
;

boundaryField
{
    movingWall
    {
        type            extrapolatedCalculated;
        value           nonuniform List<tensor> 
20
(
(10.1247 16.2705 0 383.835 -37.2305 0 0 0 0)
(4.60347 -4.95026 0 375.667 -27.8515 0 0 0 0)
(4.78785 -4.06996 0 365.421 -17.4295 0 0 0 0)
(3.99253 -2.22571 0 356.515 -11.5716 0 0 0 0)
(3.28275 -1.20413 0 349.451 -8.52664 0 0 0 0)
(2.91865 -0.733337 0 343.384 -6.75515 0 0 0 0)
(2.72079 -0.49677 0 337.776 -5.5933 0 0 0 0)
(2.55365 -0.361533 0 332.501 -4.76807 0 0 0 0)
(2.38595 -0.276484 0 327.561 -4.14716 0 0 0 0)
(2.21247 -0.222111 0 322.957 -3.66213 0 0 0 0)
(2.02311 -0.188635 0 318.711 -3.25872 0 0 0 0)
(1.80236 -0.168302 0 314.865 -2.90759 0 0 0 0)
(1.56008 -0.160409 0 311.502 -2.58551 0 0 0 0)
(1.21527 -0.169582 0 308.624 -2.26596 0 0 0 0)
(1.01022 -0.216094 0 306.641 -1.90719 0 0 0 0)
(-0.191778 -0.269223 0 304.584 -1.40158 0 0 0 0)
(1.36642 -0.659619 0 307.408 -0.830292 0 0 0 0)
(-10.5751 0.138027 0 299.118 1.23689 0 0 0 0)
(12.6336 -9.51269 0 349.708 -1.3824 0 0 0 0)
(-50.427 9.47631 0 248.584 39.2876 0 0 0 0)
)
;
    }
    fixedWalls
    {
        type            extrapolatedCalculated;
        value           nonuniform List<tensor> 
60
(
(-0.103735 0.0840965 0 -0.160577 0.268344 0 0 0 0)
(-0.538575 0.98928 0 -0.22367 0.684472 0 0 0 0)
(-0.998415 2.82198 0 -0.182407 1.03057 0 0 0 0)
(-1.2682 5.11157 0 -0.0886829 1.20503 0 0 0 0)
(-1.35315 7.64209 0 -0.00383214 1.26686 0 0 0 0)
(-1.28353 10.179 0 0.0631628 1.21851 0 0 0 0)
(-1.1005 12.5161 0 0.111068 1.07567 0 0 0 0)
(-0.839259 14.4817 0 0.141212 0.860449 0 0 0 0)
(-0.535647 15.9579 0 0.154466 0.599831 0 0 0 0)
(-0.221396 16.881 0 0.153804 0.320032 0 0 0 0)
(0.0795686 17.238 0 0.135428 0.0447339 0 0 0 0)
(0.320317 17.06 0 0.102698 -0.19519 0 0 0 0)
(0.490359 16.4573 0 0.0608023 -0.37296 0 0 0 0)
(0.563526 15.5681 0 0.00931207 -0.50406 0 0 0 0)
(0.527608 14.441 0 -0.0762487 -0.436128 0 0 0 0)
(0.258531 13.8236 0 -0.206258 -0.691046 0 0 0 0)
(-0.297423 11.6769 0 -0.389361 0.960347 0 0 0 0)
(-1.29891 17.665 0 -0.593407 -1.44266 0 0 0 0)
(-2.67105 5.90621 0 4.36608 4.89138 0 0 0 0)
(16.1654 37.2305 0 196.626 -10.7842 0 0 0 0)
(-0.48108 -0.339465 0 0.23099 0.181951 0 0 0 0)
(-0.442881 -0.388341 0 0.00467709 -0.0740376 0 0 0 0)
(-0.499788 -0.0433147 0 -0.164032 -0.875131 0 0 0 0)
(0.213245 3.11218 0 -1.20614 -2.75695 0 0 0 0)
(4.32477 10.9845 0 -2.59215 -6.33608 0 0 0 0)
(10.5819 28.4565 0 -2.08407 -9.50877 0 0 0 0)
(12.6611 49.0196 0 -0.190302 -9.96743 0 0 0 0)
(11.3431 68.3262 0 1.05222 -8.299 0 0 0 0)
(8.45219 82.2156 0 1.35197 -5.5759 0 0 0 0)
(5.93519 90.6298 0 0.956643 -3.35447 0 0 0 0)
(4.62562 95.6334 0 0.43672 -2.00376 0 0 0 0)
(4.18831 98.6449 0 0.0874811 -1.26626 0 0 0 0)
(4.27569 100.698 0 -0.107289 -0.872682 0 0 0 0)
(4.61747 102.136 0 -0.150616 -0.590513 0 0 0 0)
(4.87815 103.061 0 0.0135225 -0.502707 0 0 0 0)
(4.56338 104.146 0 0.445871 -0.867094 0 0 0 0)
(3.09467 106.529 0 1.68936 -0.765247 0 0 0 0)
(-2.19408 107.207 0 7.93614 4.02213 0 0 0 0)
(-28.6499 90.4404 0 37.3056 16.9799 0 0 0 0)
(-151.416 39.2876 0 154.983 32.432 0 0 0 0)
(-0.260465 0.127017 0 -0.103735 0.0840965 0 0 0 0)
(-0.604831 0.139733 0 -0.938125 0.423972 0 0 0 0)
(-0.85889 0.0825863 0 -2.52306 0.643029 0 0 0 0)
(-0.975529 0.0605717 0 -4.37369 0.754317 0 0 0 0)
(-1.087 0.0814701 0 -6.42518 0.885316 0 0 0 0)
(-1.2128 0.102245 0 -8.72168 1.0802 0 0 0 0)
(-1.32697 0.0938487 0 -11.2764 1.2943 0 0 0 0)
(-1.40816 0.0587361 0 -14.0295 1.45559 0 0 0 0)
(-1.43794 0.00574104 0 -16.909 1.52924 0 0 0 0)
(-1.34925 -0.0786335 0 -19.7813 1.47856 0 0 0 0)
(-1.04633 -0.209252 0 -22.306 1.21471 0 0 0 0)
(-0.459809 -0.367713 0 -23.9666 0.641548 0 0 0 0)
(0.400918 -0.493443 0 -24.1452 -0.256146 0 0 0 0)
(1.38897 -0.506248 0 -22.363 -1.33222 0 0 0 0)
(2.25118 -0.372077 0 -18.5894 -2.28114 0 0 0 0)
(2.74499 -0.0880283 0 -13.3582 -2.82053 0 0 0 0)
(2.71119 0.297014 0 -7.60944 -2.63325 0 0 0 0)
(1.95473 0.534148 0 -2.51347 -1.63248 0 0 0 0)
(0.748638 0.492985 0 0.209487 -0.496658 0 0 0 0)
(-0.172642 0.0392982 0 0.48108 0.339465 0 0 0 0)
)
;
    }
    frontAndBack
    {
        type            empty;
    }
}


// ************************************************************************* //
