/*--------------------------------*- C++ -*----------------------------------*\
| =========                 |                                                 |
| \\      /  F ield         | OpenFOAM: The Open Source CFD Toolbox           |
|  \\    /   O peration     | Version:  2312                                  |
|   \\  /    A nd           | Website:  www.openfoam.com                      |
|    \\/     M anipulation  |                                                 |
\*---------------------------------------------------------------------------*/
FoamFile
{
    version     2.0;
    format      ascii;
    arch        "LSB;label=32;scalar=64";
    class       volVectorField;
    location    "2";
    object      gradPhi;
}
// * * * * * * * * * * * * * * * * * * * * * * * * * * * * * * * * * * * * * //

dimensions      [0 2 -1 0 0 0 0];

internalField   nonuniform List<vector> 
400
(
(-1.22826e-05 1.22823e-05 0)
(-3.15314e-05 3.15314e-05 0)
(-4.27366e-05 4.27366e-05 0)
(-4.84741e-05 4.84741e-05 0)
(-5.40488e-05 5.40488e-05 0)
(-6.03426e-05 6.03426e-05 0)
(-6.59114e-05 6.59114e-05 0)
(-6.98644e-05 6.98644e-05 0)
(-7.13176e-05 7.13176e-05 0)
(-6.7286e-05 6.72861e-05 0)
(-5.28907e-05 5.28907e-05 0)
(-2.5011e-05 2.50111e-05 0)
(1.60327e-05 -1.60327e-05 0)
(6.65383e-05 -6.65383e-05 0)
(0.000114016 -0.000114016 0)
(0.000143668 -0.000143668 0)
(0.00013938 -0.00013938 0)
(9.62974e-05 -9.62973e-05 0)
(3.56409e-05 -3.56408e-05 0)
(-9.87586e-06 9.87587e-06 0)
(-3.40271e-05 3.40271e-05 0)
(-5.45951e-05 5.45951e-05 0)
(-6.62e-05 6.62e-05 0)
(-7.30597e-05 7.30597e-05 0)
(-7.69147e-05 7.69147e-05 0)
(-7.7936e-05 7.7936e-05 0)
(-7.81155e-05 7.81155e-05 0)
(-8.0689e-05 8.0689e-05 0)
(-8.52799e-05 8.52799e-05 0)
(-8.63443e-05 8.63443e-05 0)
(-7.56781e-05 7.56781e-05 0)
(-4.66946e-05 4.66946e-05 0)
(-1.4032e-06 1.40322e-06 0)
(6.21721e-05 -6.21721e-05 0)
(0.000125717 -0.000125717 0)
(0.000178523 -0.000178523 0)
(0.000203601 -0.000203601 0)
(0.000173647 -0.000173647 0)
(8.80663e-05 -8.80663e-05 0)
(5.21091e-06 -5.2109e-06 0)
(-5.13642e-05 5.13642e-05 0)
(-6.51285e-05 6.51285e-05 0)
(-7.36634e-05 7.36634e-05 0)
(-8.05285e-05 8.05285e-05 0)
(-8.39267e-05 8.39267e-05 0)
(-8.53283e-05 8.53283e-05 0)
(-9.09659e-05 9.09659e-05 0)
(-0.000105167 0.000105167 0)
(-0.000124013 0.000124013 0)
(-0.000136369 0.000136369 0)
(-0.000129665 0.000129665 0)
(-9.71637e-05 9.71637e-05 0)
(-3.76673e-05 3.76673e-05 0)
(3.39197e-05 -3.39197e-05 0)
(0.000116922 -0.000116922 0)
(0.000199811 -0.000199811 0)
(0.00026965 -0.00026965 0)
(0.000293661 -0.000293661 0)
(0.000207398 -0.000207398 0)
(3.95891e-05 -3.95891e-05 0)
(-6.14478e-05 6.14478e-05 0)
(-7.04753e-05 7.04754e-05 0)
(-7.55368e-05 7.55368e-05 0)
(-8.10881e-05 8.10881e-05 0)
(-8.62554e-05 8.62555e-05 0)
(-9.43601e-05 9.43601e-05 0)
(-0.000112456 0.000112456 0)
(-0.00014222 0.00014222 0)
(-0.000173429 0.000173429 0)
(-0.000185249 0.000185249 0)
(-0.00016233 0.00016233 0)
(-0.000108744 0.000108744 0)
(-4.026e-05 4.02601e-05 0)
(1.83238e-05 -1.83238e-05 0)
(7.95441e-05 -7.95441e-05 0)
(0.000160196 -0.000160196 0)
(0.000260621 -0.000260621 0)
(0.000358272 -0.000358272 0)
(0.000364896 -0.000364896 0)
(0.000151998 -0.000151998 0)
(-6.45674e-05 6.45674e-05 0)
(-7.09319e-05 7.09319e-05 0)
(-7.36077e-05 7.36077e-05 0)
(-7.84217e-05 7.84217e-05 0)
(-8.61779e-05 8.61779e-05 0)
(-0.00010089 0.00010089 0)
(-0.000127906 0.000127906 0)
(-0.00016392 0.00016392 0)
(-0.00018824 0.00018824 0)
(-0.000178629 0.000178629 0)
(-0.000134599 0.000134599 0)
(-7.55273e-05 7.55273e-05 0)
(-2.19662e-05 2.19663e-05 0)
(1.72163e-05 -1.72162e-05 0)
(4.47915e-05 -4.47915e-05 0)
(7.89638e-05 -7.89638e-05 0)
(0.000158056 -0.000158056 0)
(0.000301927 -0.000301927 0)
(0.000445187 -0.000445187 0)
(0.000319242 -0.000319242 0)
(-6.16189e-05 6.16189e-05 0)
(-6.68594e-05 6.68595e-05 0)
(-6.81551e-05 6.81551e-05 0)
(-7.25964e-05 7.25965e-05 0)
(-8.21205e-05 8.21205e-05 0)
(-9.99045e-05 9.99045e-05 0)
(-0.000128014 0.000128014 0)
(-0.000156994 0.000156994 0)
(-0.000163207 0.000163207 0)
(-0.000134917 0.000134917 0)
(-7.75786e-05 7.75786e-05 0)
(-1.35861e-05 1.35861e-05 0)
(2.62351e-05 -2.62351e-05 0)
(3.9397e-05 -3.9397e-05 0)
(2.89538e-05 -2.89538e-05 0)
(1.26625e-05 -1.26625e-05 0)
(3.09864e-05 -3.09864e-05 0)
(0.000147856 -0.000147856 0)
(0.000375982 -0.000375982 0)
(0.000463477 -0.000463477 0)
(-5.39291e-05 5.39291e-05 0)
(-5.8855e-05 5.8855e-05 0)
(-5.94195e-05 5.94195e-05 0)
(-6.31039e-05 6.31039e-05 0)
(-7.20084e-05 7.20084e-05 0)
(-8.71481e-05 8.71482e-05 0)
(-0.000107441 0.000107441 0)
(-0.000122913 0.000122913 0)
(-0.000114231 0.000114231 0)
(-7.96744e-05 7.96745e-05 0)
(-2.74653e-05 2.74653e-05 0)
(1.79757e-05 -1.79756e-05 0)
(4.07584e-05 -4.07584e-05 0)
(4.80584e-05 -4.80584e-05 0)
(4.11105e-05 -4.11105e-05 0)
(1.04353e-05 -1.04353e-05 0)
(-2.6778e-05 2.6778e-05 0)
(4.85898e-06 -4.85897e-06 0)
(0.000220041 -0.000220041 0)
(0.000489728 -0.000489728 0)
(-4.27853e-05 4.27853e-05 0)
(-4.78016e-05 4.78016e-05 0)
(-4.78206e-05 4.78206e-05 0)
(-4.97838e-05 4.97838e-05 0)
(-5.5358e-05 5.53581e-05 0)
(-6.3584e-05 6.3584e-05 0)
(-7.1374e-05 7.1374e-05 0)
(-7.36399e-05 7.36399e-05 0)
(-6.00015e-05 6.00015e-05 0)
(-3.84696e-05 3.84696e-05 0)
(-1.11385e-05 1.11385e-05 0)
(9.59893e-06 -9.59892e-06 0)
(2.65824e-05 -2.65824e-05 0)
(3.8968e-05 -3.8968e-05 0)
(4.58447e-05 -4.58447e-05 0)
(2.8741e-05 -2.8741e-05 0)
(-1.4869e-05 1.4869e-05 0)
(-5.21747e-05 5.21747e-05 0)
(6.81132e-05 -6.81132e-05 0)
(0.000410952 -0.000410952 0)
(-2.95594e-05 2.95594e-05 0)
(-3.4796e-05 3.4796e-05 0)
(-3.41671e-05 3.41671e-05 0)
(-3.3609e-05 3.3609e-05 0)
(-3.4254e-05 3.4254e-05 0)
(-3.39917e-05 3.39917e-05 0)
(-2.87971e-05 2.87971e-05 0)
(-1.94171e-05 1.94171e-05 0)
(-8.23799e-06 8.238e-06 0)
(-5.36446e-06 5.36447e-06 0)
(-5.89799e-06 5.89799e-06 0)
(-5.15702e-06 5.15703e-06 0)
(2.62697e-06 -2.62696e-06 0)
(1.78823e-05 -1.78823e-05 0)
(2.65033e-05 -2.65033e-05 0)
(1.72962e-05 -1.72962e-05 0)
(-7.63999e-06 7.64e-06 0)
(-5.14507e-05 5.14507e-05 0)
(-1.65097e-05 1.65097e-05 0)
(0.00028454 -0.00028454 0)
(-1.54715e-05 1.54715e-05 0)
(-2.08208e-05 2.08208e-05 0)
(-1.95345e-05 1.95345e-05 0)
(-1.64563e-05 1.64563e-05 0)
(-1.21637e-05 1.21637e-05 0)
(-4.143e-06 4.143e-06 0)
(1.17567e-05 -1.17567e-05 0)
(3.00846e-05 -3.00846e-05 0)
(3.64962e-05 -3.64962e-05 0)
(2.87551e-05 -2.87551e-05 0)
(1.14083e-05 -1.14083e-05 0)
(-4.32605e-06 4.32606e-06 0)
(-1.46137e-05 1.46137e-05 0)
(-8.06711e-06 8.06711e-06 0)
(-1.58367e-05 1.58367e-05 0)
(-2.18247e-05 2.18247e-05 0)
(-3.31789e-05 3.31789e-05 0)
(-5.65814e-05 5.65815e-05 0)
(-5.02555e-05 5.02555e-05 0)
(0.000174773 -0.000174773 0)
(-1.76554e-06 1.76554e-06 0)
(-6.99967e-06 6.99967e-06 0)
(-5.12297e-06 5.12297e-06 0)
(-1.92631e-08 1.92647e-08 0)
(7.97349e-06 -7.97349e-06 0)
(2.11748e-05 -2.11748e-05 0)
(4.28013e-05 -4.28013e-05 0)
(6.93927e-05 -6.93927e-05 0)
(8.08691e-05 -8.08691e-05 0)
(7.17479e-05 -7.17479e-05 0)
(3.52104e-05 -3.52104e-05 0)
(-1.09653e-06 1.09653e-06 0)
(-2.87781e-05 2.87781e-05 0)
(-4.59781e-05 4.59781e-05 0)
(-5.76712e-05 5.76712e-05 0)
(-6.35704e-05 6.35704e-05 0)
(-6.89835e-05 6.89835e-05 0)
(-8.00804e-05 8.00804e-05 0)
(-7.15052e-05 7.15052e-05 0)
(0.000102401 -0.000102401 0)
(1.01257e-05 -1.01257e-05 0)
(5.71319e-06 -5.71319e-06 0)
(7.90354e-06 -7.90354e-06 0)
(1.40922e-05 -1.40922e-05 0)
(2.38135e-05 -2.38135e-05 0)
(3.87296e-05 -3.87296e-05 0)
(6.2338e-05 -6.2338e-05 0)
(9.11714e-05 -9.11714e-05 0)
(0.000106492 -0.000106492 0)
(9.96603e-05 -9.96603e-05 0)
(6.39153e-05 -6.39153e-05 0)
(1.44999e-05 -1.44999e-05 0)
(-2.98414e-05 2.98414e-05 0)
(-7.26706e-05 7.26706e-05 0)
(-9.58496e-05 9.58496e-05 0)
(-0.00010107 0.00010107 0)
(-0.000101663 0.000101663 0)
(-0.000106367 0.000106367 0)
(-9.20125e-05 9.20125e-05 0)
(6.10189e-05 -6.10189e-05 0)
(1.92403e-05 -1.92403e-05 0)
(1.64326e-05 -1.64326e-05 0)
(1.90947e-05 -1.90947e-05 0)
(2.56964e-05 -2.56964e-05 0)
(3.57207e-05 -3.57207e-05 0)
(4.99592e-05 -4.99593e-05 0)
(7.05014e-05 -7.05014e-05 0)
(9.61452e-05 -9.61452e-05 0)
(0.000112825 -0.000112825 0)
(0.000107766 -0.000107766 0)
(7.69647e-05 -7.69647e-05 0)
(2.60641e-05 -2.60641e-05 0)
(-2.77266e-05 2.77266e-05 0)
(-7.91461e-05 7.91461e-05 0)
(-0.000110214 0.000110214 0)
(-0.000120531 0.000120531 0)
(-0.000123173 0.000123173 0)
(-0.000126116 0.000126116 0)
(-0.000110661 0.000110661 0)
(4.11573e-05 -4.11573e-05 0)
(2.46295e-05 -2.46295e-05 0)
(2.47596e-05 -2.47596e-05 0)
(2.83348e-05 -2.83349e-05 0)
(3.50266e-05 -3.50267e-05 0)
(4.42749e-05 -4.42749e-05 0)
(5.63797e-05 -5.63797e-05 0)
(7.2185e-05 -7.21851e-05 0)
(9.1034e-05 -9.1034e-05 0)
(0.000104674 -0.000104674 0)
(0.000100767 -0.000100767 0)
(7.47656e-05 -7.47656e-05 0)
(2.93613e-05 -2.93613e-05 0)
(-2.25883e-05 2.25883e-05 0)
(-7.10877e-05 7.10877e-05 0)
(-0.000105685 0.000105685 0)
(-0.000123514 0.000123514 0)
(-0.000132844 0.000132844 0)
(-0.000137773 0.000137773 0)
(-0.000129157 0.000129157 0)
(3.64578e-05 -3.64578e-05 0)
(2.51441e-05 -2.51441e-05 0)
(3.01658e-05 -3.01658e-05 0)
(3.58857e-05 -3.58857e-05 0)
(4.27836e-05 -4.27836e-05 0)
(5.08724e-05 -5.08724e-05 0)
(6.05062e-05 -6.05062e-05 0)
(7.15963e-05 -7.15964e-05 0)
(8.32059e-05 -8.32059e-05 0)
(9.09437e-05 -9.09437e-05 0)
(8.69543e-05 -8.69543e-05 0)
(6.60135e-05 -6.60135e-05 0)
(2.9412e-05 -2.9412e-05 0)
(-1.51993e-05 1.51993e-05 0)
(-5.82276e-05 5.82276e-05 0)
(-9.36893e-05 9.36893e-05 0)
(-0.000117159 0.000117159 0)
(-0.000134215 0.000134215 0)
(-0.000138561 0.000138561 0)
(-0.000152057 0.000152057 0)
(3.56258e-05 -3.56258e-05 0)
(1.87902e-05 -1.87902e-05 0)
(3.35668e-05 -3.35669e-05 0)
(4.13571e-05 -4.13571e-05 0)
(4.91848e-05 -4.91848e-05 0)
(5.67816e-05 -5.67817e-05 0)
(6.45169e-05 -6.45169e-05 0)
(7.18845e-05 -7.18845e-05 0)
(7.78152e-05 -7.78153e-05 0)
(7.97959e-05 -7.97959e-05 0)
(7.41055e-05 -7.41055e-05 0)
(5.71099e-05 -5.71099e-05 0)
(2.84647e-05 -2.84647e-05 0)
(-7.95518e-06 7.95516e-06 0)
(-4.58703e-05 4.58702e-05 0)
(-7.97695e-05 7.97695e-05 0)
(-0.000107163 0.000107163 0)
(-0.000127447 0.000127447 0)
(-0.000119807 0.000119807 0)
(-0.000172825 0.000172825 0)
(7.46407e-06 -7.46408e-06 0)
(-2.95923e-07 2.95904e-07 0)
(2.93222e-05 -2.93222e-05 0)
(4.75569e-05 -4.75569e-05 0)
(5.81053e-05 -5.81053e-05 0)
(6.48107e-05 -6.48107e-05 0)
(7.07673e-05 -7.07673e-05 0)
(7.53273e-05 -7.53273e-05 0)
(7.75112e-05 -7.75112e-05 0)
(7.57054e-05 -7.57054e-05 0)
(6.81913e-05 -6.81913e-05 0)
(5.34302e-05 -5.34303e-05 0)
(3.01488e-05 -3.01488e-05 0)
(-3.82018e-07 3.81999e-07 0)
(-3.44299e-05 3.44298e-05 0)
(-6.82305e-05 6.82305e-05 0)
(-9.58421e-05 9.58421e-05 0)
(-0.000114501 0.000114501 0)
(-9.51445e-05 9.51445e-05 0)
(-0.000181285 0.000181285 0)
(-6.07658e-05 6.07658e-05 0)
(-3.33797e-05 3.33796e-05 0)
(3.39646e-05 -3.39647e-05 0)
(5.53243e-05 -5.53243e-05 0)
(6.31537e-05 -6.31537e-05 0)
(7.38307e-05 -7.38307e-05 0)
(8.0862e-05 -8.0862e-05 0)
(8.43478e-05 -8.43478e-05 0)
(8.46048e-05 -8.46048e-05 0)
(8.11359e-05 -8.11359e-05 0)
(7.28121e-05 -7.28121e-05 0)
(5.84635e-05 -5.84635e-05 0)
(3.75864e-05 -3.75864e-05 0)
(1.18153e-05 -1.18153e-05 0)
(-1.76423e-05 1.76423e-05 0)
(-4.89572e-05 4.89572e-05 0)
(-7.35134e-05 7.35134e-05 0)
(-9.28693e-05 9.28693e-05 0)
(-0.000105911 0.000105911 0)
(-0.000206645 0.000206645 0)
(-0.000158982 0.000158982 0)
(-8.98537e-05 8.98537e-05 0)
(4.01849e-05 -4.01849e-05 0)
(0.000112008 -0.000112008 0)
(0.000124815 -0.000124815 0)
(0.000120737 -0.000120737 0)
(0.000115985 -0.000115985 0)
(0.000111389 -0.000111389 0)
(0.000106171 -0.000106171 0)
(9.95927e-05 -9.95927e-05 0)
(9.06714e-05 -9.06714e-05 0)
(7.87037e-05 -7.87038e-05 0)
(6.38977e-05 -6.38978e-05 0)
(4.66053e-05 -4.66053e-05 0)
(2.78647e-05 -2.78647e-05 0)
(7.07645e-06 -7.07647e-06 0)
(-2.49194e-05 2.49194e-05 0)
(-7.02363e-05 7.02363e-05 0)
(-0.000163879 0.000163879 0)
(-0.000408786 0.000408786 0)
(-0.000388026 0.000388026 0)
(0.000454418 -0.000454418 0)
(0.000314685 -0.000314685 0)
(0.0002185 -0.0002185 0)
(0.000184283 -0.000184284 0)
(0.000164413 -0.000164413 0)
(0.000148748 -0.000148748 0)
(0.000136853 -0.000136853 0)
(0.000127688 -0.000127688 0)
(0.000119427 -0.000119427 0)
(0.000110872 -0.000110872 0)
(0.000101257 -0.000101257 0)
(9.02972e-05 -9.02972e-05 0)
(7.77252e-05 -7.77252e-05 0)
(6.2779e-05 -6.2779e-05 0)
(4.54228e-05 -4.54229e-05 0)
(1.88101e-05 -1.88101e-05 0)
(-1.38972e-05 1.38972e-05 0)
(-0.000142672 0.000142672 0)
(-0.000213623 0.000213623 0)
(-0.00200599 0.00200599 0)
)
;

boundaryField
{
    movingWall
    {
        type            extrapolatedCalculated;
        value           nonuniform List<vector> 
20
(
(0.000454418 -0.000454418 0)
(0.000314685 -0.000314685 0)
(0.0002185 -0.0002185 0)
(0.000184283 -0.000184284 0)
(0.000164413 -0.000164413 0)
(0.000148748 -0.000148748 0)
(0.000136853 -0.000136853 0)
(0.000127688 -0.000127688 0)
(0.000119427 -0.000119427 0)
(0.000110872 -0.000110872 0)
(0.000101257 -0.000101257 0)
(9.02972e-05 -9.02972e-05 0)
(7.77252e-05 -7.77252e-05 0)
(6.2779e-05 -6.2779e-05 0)
(4.54228e-05 -4.54229e-05 0)
(1.88101e-05 -1.88101e-05 0)
(-1.38972e-05 1.38972e-05 0)
(-0.000142672 0.000142672 0)
(-0.000213623 0.000213623 0)
(-0.00200599 0.00200599 0)
)
;
    }
    fixedWalls
    {
        type            extrapolatedCalculated;
        value           nonuniform List<vector> 
60
(
(-1.22826e-05 1.22823e-05 0)
(-3.40271e-05 3.40271e-05 0)
(-5.13642e-05 5.13642e-05 0)
(-6.14478e-05 6.14478e-05 0)
(-6.45674e-05 6.45674e-05 0)
(-6.16189e-05 6.16189e-05 0)
(-5.39291e-05 5.39291e-05 0)
(-4.27853e-05 4.27853e-05 0)
(-2.95594e-05 2.95594e-05 0)
(-1.54715e-05 1.54715e-05 0)
(-1.76554e-06 1.76554e-06 0)
(1.01257e-05 -1.01257e-05 0)
(1.92403e-05 -1.92403e-05 0)
(2.46295e-05 -2.46295e-05 0)
(2.51441e-05 -2.51441e-05 0)
(1.87902e-05 -1.87902e-05 0)
(-2.95923e-07 2.95904e-07 0)
(-3.33797e-05 3.33796e-05 0)
(-8.98537e-05 8.98537e-05 0)
(0.000454418 -0.000454418 0)
(-9.87586e-06 9.87587e-06 0)
(5.21091e-06 -5.2109e-06 0)
(3.95891e-05 -3.95891e-05 0)
(0.000151998 -0.000151998 0)
(0.000319242 -0.000319242 0)
(0.000463477 -0.000463477 0)
(0.000489728 -0.000489728 0)
(0.000410952 -0.000410952 0)
(0.00028454 -0.00028454 0)
(0.000174773 -0.000174773 0)
(0.000102401 -0.000102401 0)
(6.10189e-05 -6.10189e-05 0)
(4.11573e-05 -4.11573e-05 0)
(3.64578e-05 -3.64578e-05 0)
(3.56258e-05 -3.56258e-05 0)
(7.46407e-06 -7.46408e-06 0)
(-6.07658e-05 6.07658e-05 0)
(-0.000158982 0.000158982 0)
(-0.000388026 0.000388026 0)
(-0.00200599 0.00200599 0)
(-1.22826e-05 1.22823e-05 0)
(-3.15314e-05 3.15314e-05 0)
(-4.27366e-05 4.27366e-05 0)
(-4.84741e-05 4.84741e-05 0)
(-5.40488e-05 5.40488e-05 0)
(-6.03426e-05 6.03426e-05 0)
(-6.59114e-05 6.59114e-05 0)
(-6.98644e-05 6.98644e-05 0)
(-7.13176e-05 7.13176e-05 0)
(-6.7286e-05 6.72861e-05 0)
(-5.28907e-05 5.28907e-05 0)
(-2.5011e-05 2.50111e-05 0)
(1.60327e-05 -1.60327e-05 0)
(6.65383e-05 -6.65383e-05 0)
(0.000114016 -0.000114016 0)
(0.000143668 -0.000143668 0)
(0.00013938 -0.00013938 0)
(9.62974e-05 -9.62973e-05 0)
(3.56409e-05 -3.56408e-05 0)
(-9.87586e-06 9.87587e-06 0)
)
;
    }
    frontAndBack
    {
        type            empty;
    }
}


// ************************************************************************* //
