/*--------------------------------*- C++ -*----------------------------------*\
| =========                 |                                                 |
| \\      /  F ield         | OpenFOAM: The Open Source CFD Toolbox           |
|  \\    /   O peration     | Version:  2312                                  |
|   \\  /    A nd           | Website:  www.openfoam.com                      |
|    \\/     M anipulation  |                                                 |
\*---------------------------------------------------------------------------*/
FoamFile
{
    version     2.0;
    format      ascii;
    arch        "LSB;label=32;scalar=64";
    class       volScalarField;
    location    "2";
    object      initialResidual:Uy;
}
// * * * * * * * * * * * * * * * * * * * * * * * * * * * * * * * * * * * * * //

dimensions      [0 0 0 0 0 0 0];

internalField   nonuniform List<scalar> 
400
(
-1.63708e-10
-1.95984e-10
-2.29127e-10
-1.43796e-10
1.13142e-10
4.65735e-10
7.89674e-10
1.17892e-09
1.83525e-09
2.56971e-09
2.78935e-09
2.07735e-09
7.51089e-10
-5.78787e-10
-1.64134e-09
-2.53831e-09
-2.80197e-09
-1.57355e-09
-2.60663e-10
5.39278e-10
-1.35607e-10
2.92698e-10
4.09348e-10
4.84049e-10
7.86062e-10
1.22175e-09
2.1651e-09
4.04624e-09
6.3153e-09
7.60531e-09
7.19289e-09
5.53275e-09
3.02489e-09
-3.53863e-10
-4.43893e-09
-8.06698e-09
-9.36516e-09
-8.29452e-09
-3.06811e-09
1.41892e-09
4.64173e-10
1.42662e-09
1.8523e-09
1.93523e-09
1.98523e-09
2.61138e-09
5.1267e-09
9.74577e-09
1.46246e-08
1.72382e-08
1.55655e-08
9.15509e-09
9.77096e-10
-6.30998e-09
-1.24552e-08
-1.82784e-08
-2.34651e-08
-2.2553e-08
-1.35012e-08
-4.15802e-10
1.42658e-09
2.76579e-09
3.47322e-09
3.68695e-09
3.88324e-09
5.69787e-09
1.11713e-08
1.85094e-08
2.35044e-08
2.1913e-08
1.46535e-08
5.9158e-09
-9.11411e-10
-5.78984e-09
-9.58881e-09
-1.74784e-08
-2.61249e-08
-3.37762e-08
-3.09005e-08
-9.6253e-09
2.66851e-09
4.229e-09
5.10529e-09
5.5169e-09
6.30759e-09
9.76296e-09
1.7402e-08
2.52651e-08
2.67908e-08
1.91261e-08
6.62634e-09
-4.08143e-09
-8.37575e-09
-7.02622e-09
-4.86841e-09
-4.37746e-09
-1.21134e-08
-2.72885e-08
-3.89971e-08
-2.7524e-08
4.0013e-09
5.66261e-09
6.61889e-09
7.30678e-09
8.83383e-09
1.35577e-08
2.23684e-08
2.88096e-08
2.41579e-08
1.04754e-08
-4.70914e-09
-1.32178e-08
-1.37265e-08
-8.61991e-09
-1.4041e-09
4.85458e-09
5.24285e-09
-8.53405e-09
-3.66597e-08
-4.40684e-08
5.2295e-09
6.90963e-09
7.87309e-09
8.83485e-09
1.09959e-08
1.63525e-08
2.4956e-08
2.75571e-08
1.81085e-08
3.10388e-10
-1.63824e-08
-2.31513e-08
-2.0607e-08
-1.38398e-08
-6.92104e-09
1.06588e-09
9.08167e-09
8.46631e-09
-1.53418e-08
-4.45134e-08
6.17053e-09
7.84176e-09
8.78579e-09
9.94069e-09
1.23018e-08
1.74e-08
2.45395e-08
2.45349e-08
1.17975e-08
-7.42648e-09
-2.26796e-08
-2.54981e-08
-1.94765e-08
-1.4147e-08
-9.02982e-09
-3.58337e-09
3.09248e-09
1.00583e-08
2.83569e-09
-3.51121e-08
6.71525e-09
8.39747e-09
9.29498e-09
1.03863e-08
1.25471e-08
1.68555e-08
2.26805e-08
2.01703e-08
7.99394e-09
-1.02536e-08
-2.44076e-08
-2.51705e-08
-1.8586e-08
-1.35509e-08
-8.11725e-09
-2.88066e-09
7.98967e-10
6.33878e-09
5.12095e-09
-1.85928e-08
6.85072e-09
8.58618e-09
9.33951e-09
1.02354e-08
1.19663e-08
1.51606e-08
1.93077e-08
1.72763e-08
6.29004e-09
-1.11531e-08
-2.30249e-08
-2.46253e-08
-2.10418e-08
-1.44746e-08
-7.40169e-09
-1.99964e-09
1.35148e-09
3.08491e-09
4.58463e-09
-8.73947e-09
6.50992e-09
8.37345e-09
9.0189e-09
9.63369e-09
1.07766e-08
1.28411e-08
1.55551e-08
1.46103e-08
4.85675e-09
-8.80846e-09
-2.07173e-08
-2.3039e-08
-2.10712e-08
-1.48162e-08
-7.18619e-09
-1.78139e-09
1.55427e-09
3.26549e-09
2.8241e-09
-3.79667e-09
5.94536e-09
7.86043e-09
8.4301e-09
8.75467e-09
9.31097e-09
1.03839e-08
1.17619e-08
1.11584e-08
4.09083e-09
-6.09662e-09
-1.58492e-08
-1.98659e-08
-1.84968e-08
-1.37414e-08
-7.02904e-09
-1.87362e-09
1.32229e-09
2.72772e-09
2.02143e-09
-1.68498e-09
4.98033e-09
7.07988e-09
7.65176e-09
7.75443e-09
7.84137e-09
8.10337e-09
8.42393e-09
7.69604e-09
3.24217e-09
-4.01148e-09
-1.14154e-08
-1.54299e-08
-1.50392e-08
-1.14094e-08
-6.54743e-09
-2.23845e-09
7.70134e-10
2.13996e-09
1.25655e-09
-1.07116e-09
3.92026e-09
6.13743e-09
6.7369e-09
6.71194e-09
6.49225e-09
6.23593e-09
5.89144e-09
4.9085e-09
2.04112e-09
-2.76624e-09
-7.88466e-09
-1.10407e-08
-1.12164e-08
-9.04187e-09
-5.84857e-09
-2.50873e-09
1.73566e-10
1.54714e-09
5.95638e-10
-9.19531e-10
2.73338e-09
5.01357e-09
5.69267e-09
5.64416e-09
5.29195e-09
4.78154e-09
4.10403e-09
2.97938e-09
9.32247e-10
-1.91841e-09
-5.25779e-09
-7.54724e-09
-8.18217e-09
-7.08635e-09
-4.8633e-09
-2.44259e-09
-2.00813e-10
9.93233e-10
1.10504e-10
-1.07025e-09
1.77949e-09
3.83092e-09
4.60016e-09
4.58898e-09
4.24319e-09
3.68209e-09
2.93136e-09
1.88664e-09
3.51205e-10
-1.46503e-09
-3.44645e-09
-4.98639e-09
-5.5864e-09
-5.09591e-09
-3.71209e-09
-2.09026e-09
-3.65529e-10
3.88042e-10
-1.94015e-10
-1.33359e-09
3.39788e-10
2.23476e-09
3.23038e-09
3.40501e-09
3.19393e-09
2.74888e-09
2.11834e-09
1.29e-09
1.89013e-10
-1.02522e-09
-2.24169e-09
-3.26759e-09
-3.5754e-09
-3.3438e-09
-2.63801e-09
-1.57861e-09
-3.89789e-10
-1.90936e-10
-5.42545e-10
-1.1949e-09
-4.50308e-10
1.33166e-09
2.01353e-09
2.31708e-09
2.25736e-09
2.0141e-09
1.60573e-09
1.04628e-09
3.53858e-10
-4.22981e-10
-1.14543e-09
-1.60273e-09
-1.89208e-09
-1.69526e-09
-1.35173e-09
-8.56696e-10
-3.63396e-10
-4.56697e-10
-6.60972e-10
-8.93327e-10
-9.55766e-10
1.16988e-10
6.62247e-10
8.46352e-10
1.00244e-09
1.03266e-09
9.37974e-10
7.38659e-10
4.59486e-10
1.28573e-10
-2.08144e-10
-4.62775e-10
-6.19122e-10
-6.24719e-10
-5.16967e-10
-4.0058e-10
-2.72258e-10
-2.10944e-10
-3.71644e-10
-5.12826e-10
1.94138e-10
-3.1369e-10
-3.99164e-10
-3.66884e-10
-2.72567e-10
-1.65255e-10
-6.60472e-11
7.62544e-12
5.84255e-11
8.09094e-11
8.7647e-11
7.85632e-11
6.19064e-11
4.04402e-11
4.34356e-12
-2.04666e-11
-5.12692e-11
-4.7598e-11
-1.53623e-10
2.51213e-11
)
;

boundaryField
{
    movingWall
    {
        type            zeroGradient;
    }
    fixedWalls
    {
        type            zeroGradient;
    }
    frontAndBack
    {
        type            empty;
    }
}


// ************************************************************************* //
