/*--------------------------------*- C++ -*----------------------------------*\
| =========                 |                                                 |
| \\      /  F ield         | OpenFOAM: The Open Source CFD Toolbox           |
|  \\    /   O peration     | Version:  2312                                  |
|   \\  /    A nd           | Website:  www.openfoam.com                      |
|    \\/     M anipulation  |                                                 |
\*---------------------------------------------------------------------------*/
FoamFile
{
    version     2.0;
    format      ascii;
    arch        "LSB;label=32;scalar=64";
    class       volScalarField;
    location    "2";
    object      initialResidual:k;
}
// * * * * * * * * * * * * * * * * * * * * * * * * * * * * * * * * * * * * * //

dimensions      [0 0 0 0 0 0 0];

internalField   nonuniform List<scalar> 
400
(
-7.89493e-12
-8.95382e-12
-4.5691e-12
5.88042e-12
2.18968e-11
4.24664e-11
6.49286e-11
8.86284e-11
1.17661e-10
1.60076e-10
1.90039e-10
2.03833e-10
2.21985e-10
2.27219e-10
2.17706e-10
1.96869e-10
1.38696e-10
5.40209e-11
1.78841e-12
-5.05752e-12
-1.08226e-11
-1.94866e-11
-1.83944e-11
-6.94417e-12
8.01958e-12
2.75387e-11
5.31936e-11
9.92919e-11
1.65769e-10
2.28737e-10
2.77334e-10
3.24897e-10
3.80931e-10
4.31655e-10
4.61299e-10
5.07642e-10
5.10683e-10
3.02256e-10
6.93341e-11
-1.54468e-12
-8.87639e-12
-1.81966e-11
-2.41102e-11
-3.07695e-11
-2.90152e-11
-8.18544e-12
5.5068e-11
1.36229e-10
2.41003e-10
3.2987e-10
2.80173e-10
1.57123e-10
6.70362e-11
6.53666e-11
6.98921e-11
4.65317e-11
3.0018e-10
6.09023e-10
3.85135e-10
6.83411e-11
-2.20372e-12
-8.14632e-12
-1.04694e-11
-1.45681e-11
-5.91515e-12
3.86168e-11
1.26147e-10
2.33537e-10
2.14688e-10
-6.43393e-11
-1.7478e-10
-2.39033e-10
-2.39052e-10
-2.32236e-10
-2.27612e-10
-1.91463e-10
4.5357e-11
2.07922e-10
6.83988e-10
4.50411e-10
7.3311e-12
4.5447e-12
6.30756e-12
7.91851e-12
2.82202e-11
8.90785e-11
1.81703e-10
3.10752e-11
-8.24232e-11
-1.7357e-10
-2.94831e-10
-3.03607e-10
-2.93465e-10
-2.4344e-10
-2.27463e-10
-1.87889e-10
-2.39846e-10
-5.71206e-11
2.1781e-10
8.41982e-10
1.75757e-11
1.42367e-11
1.91627e-11
2.44477e-11
4.88913e-11
1.12538e-10
2.62385e-11
-8.8724e-11
-2.18733e-10
-3.82493e-10
-2.52954e-10
-1.66684e-10
-1.17857e-10
-4.96959e-11
-8.32868e-11
-8.107e-11
-1.19197e-10
-2.7899e-10
1.24106e-10
7.66562e-10
2.74207e-11
1.90787e-11
2.53026e-11
3.2352e-11
5.18278e-11
7.49436e-11
-6.23439e-11
-1.58818e-10
-3.746e-10
-3.01539e-10
-1.58447e-10
-1.07071e-10
-4.73557e-11
-3.82435e-11
-5.13395e-11
-5.24131e-11
-7.75823e-11
-1.05942e-10
-1.1763e-10
3.74353e-10
3.58885e-11
1.90081e-11
2.47911e-11
3.13761e-11
4.48836e-11
2.23112e-11
-1.02459e-10
-2.28586e-10
-4.1854e-10
-2.52269e-10
-1.29079e-10
-8.85742e-11
-7.89579e-11
-5.44427e-11
-2.81408e-11
-1.02146e-11
-4.1635e-11
-7.55821e-11
-1.12866e-10
1.76779e-10
4.2999e-11
1.55335e-11
1.83928e-11
2.40547e-11
3.29263e-11
-1.47703e-11
-1.22547e-10
-2.41353e-10
-3.9657e-10
-2.33708e-10
-1.13651e-10
-8.67309e-11
-8.14829e-11
-4.10411e-11
-3.21738e-12
5.18325e-12
-2.14204e-11
-2.97685e-11
-7.88501e-11
7.21978e-11
4.76411e-11
1.19012e-11
1.36518e-11
1.78301e-11
1.99891e-11
-1.40555e-11
-1.18847e-10
-2.44414e-10
-3.7817e-10
-2.56264e-10
-1.30959e-10
-8.20415e-11
-6.65521e-11
-3.37254e-11
1.07898e-11
3.81722e-11
4.20583e-12
-3.60392e-11
-4.31577e-11
3.08395e-11
5.04105e-11
6.81724e-12
4.77433e-12
7.01422e-12
7.06477e-12
-1.39179e-11
-9.73375e-11
-2.29422e-10
-3.3532e-10
-2.93252e-10
-1.52072e-10
-8.90095e-11
-5.07754e-11
-2.11098e-11
3.04819e-11
3.7612e-11
-2.80778e-11
-6.69068e-11
-4.72494e-11
1.33737e-11
4.97528e-11
1.97824e-12
-5.00902e-12
-3.77885e-12
-4.63166e-12
-1.65832e-11
-7.97759e-11
-1.82997e-10
-2.44617e-10
-3.40161e-10
-1.9622e-10
-1.15861e-10
-3.3843e-11
-3.11873e-12
4.93039e-11
8.08029e-12
-5.67942e-11
-8.62533e-11
-6.45435e-11
7.32512e-12
4.7182e-11
-1.40968e-12
-1.23667e-11
-1.03502e-11
-9.43018e-12
-1.58504e-11
-4.39718e-11
-1.14796e-10
-1.76084e-10
-2.50344e-10
-2.62143e-10
-1.75037e-10
-5.51444e-11
-2.31296e-11
2.26307e-11
-3.33341e-11
-7.20379e-11
-9.53314e-11
-6.24324e-11
8.34251e-12
4.10061e-11
-5.58369e-12
-1.84543e-11
-1.58436e-11
-1.42073e-11
-1.747e-11
-3.22249e-11
-8.55321e-11
-1.40781e-10
-1.6645e-10
-2.0079e-10
-1.75351e-10
-9.32988e-11
-7.0169e-11
-4.69255e-11
-5.76361e-11
-9.56601e-11
-1.23223e-10
-6.27686e-11
8.34474e-12
2.94736e-11
-1.2698e-11
-2.53455e-11
-2.06843e-11
-1.72496e-11
-1.86466e-11
-2.66462e-11
-4.60168e-11
-9.53831e-11
-1.30213e-10
-1.40723e-10
-1.50567e-10
-1.10125e-10
-9.80332e-11
-7.83724e-11
-8.16248e-11
-1.06172e-10
-1.22336e-10
-6.10012e-11
1.05546e-11
2.01135e-11
-1.80481e-11
-3.00733e-11
-2.32367e-11
-1.76427e-11
-1.68423e-11
-2.20873e-11
-3.63533e-11
-7.30963e-11
-1.09009e-10
-1.18854e-10
-1.30542e-10
-1.16987e-10
-9.85117e-11
-9.24066e-11
-8.50017e-11
-9.53274e-11
-9.80236e-11
-5.73379e-11
9.41235e-12
1.01595e-13
-3.33418e-11
-4.1415e-11
-2.92904e-11
-2.07093e-11
-1.84096e-11
-2.26016e-11
-3.37765e-11
-4.85165e-11
-7.69698e-11
-1.00741e-10
-1.07512e-10
-1.13149e-10
-1.02226e-10
-8.46832e-11
-7.91052e-11
-8.57525e-11
-8.51502e-11
-4.80656e-11
7.19563e-12
-6.94374e-12
-3.77489e-11
-4.28167e-11
-3.08003e-11
-2.23406e-11
-2.04132e-11
-2.44282e-11
-3.60719e-11
-5.07163e-11
-6.93163e-11
-9.63998e-11
-1.01475e-10
-1.08747e-10
-1.03411e-10
-9.00973e-11
-8.45457e-11
-7.54202e-11
-5.32436e-11
-2.46824e-11
1.49157e-12
-1.12685e-11
-4.50302e-11
-5.38779e-11
-5.44418e-11
-5.54941e-11
-5.89456e-11
-6.39254e-11
-7.03789e-11
-7.78362e-11
-8.47018e-11
-9.51701e-11
-9.47925e-11
-9.33898e-11
-8.35653e-11
-7.60134e-11
-6.3939e-11
-5.06969e-11
-3.20609e-11
-1.1004e-11
-5.12374e-12
7.21267e-12
1.27584e-11
-3.97003e-12
-2.58929e-11
-5.17777e-11
-7.56116e-11
-9.35605e-11
-1.0448e-10
-1.069e-10
-1.03546e-10
-9.59415e-11
-7.92565e-11
-6.78473e-11
-4.57397e-11
-4.16644e-11
-3.55446e-11
-2.98087e-11
-2.94798e-11
-2.95082e-11
-1.75719e-11
)
;

boundaryField
{
    movingWall
    {
        type            zeroGradient;
    }
    fixedWalls
    {
        type            zeroGradient;
    }
    frontAndBack
    {
        type            empty;
    }
}


// ************************************************************************* //
