/*--------------------------------*- C++ -*----------------------------------*\
| =========                 |                                                 |
| \\      /  F ield         | OpenFOAM: The Open Source CFD Toolbox           |
|  \\    /   O peration     | Version:  2312                                  |
|   \\  /    A nd           | Website:  www.openfoam.com                      |
|    \\/     M anipulation  |                                                 |
\*---------------------------------------------------------------------------*/
FoamFile
{
    version     2.0;
    format      ascii;
    arch        "LSB;label=32;scalar=64";
    class       volScalarField;
    location    "2";
    object      initialResidual:Ux;
}
// * * * * * * * * * * * * * * * * * * * * * * * * * * * * * * * * * * * * * //

dimensions      [0 0 0 0 0 0 0];

internalField   nonuniform List<scalar> 
400
(
1.33753e-10
2.11084e-10
1.57123e-10
7.43332e-11
-1.92098e-10
-8.3056e-10
-1.9413e-09
-3.8427e-09
-7.15504e-09
-1.18708e-08
-1.70909e-08
-2.15724e-08
-2.41088e-08
-2.40151e-08
-2.0937e-08
-1.592e-08
-9.44156e-09
-2.65451e-09
9.3019e-10
7.91504e-10
-2.00134e-11
-5.43596e-10
-1.55204e-09
-2.68562e-09
-3.73282e-09
-4.61294e-09
-5.90163e-09
-8.93884e-09
-1.44692e-08
-2.18248e-08
-2.92255e-08
-3.46935e-08
-3.72049e-08
-3.71753e-08
-3.50759e-08
-3.0345e-08
-2.28766e-08
-1.27384e-08
-1.79173e-09
1.08203e-09
-3.09248e-10
-1.22116e-09
-2.61e-09
-4.30472e-09
-5.86508e-09
-7.25827e-09
-1.00706e-08
-1.6203e-08
-2.51915e-08
-3.44147e-08
-4.13869e-08
-4.44627e-08
-4.40895e-08
-4.21416e-08
-4.11635e-08
-3.88361e-08
-3.51918e-08
-2.70107e-08
-1.28885e-08
8.32306e-11
-5.7e-10
-1.78366e-09
-3.32373e-09
-5.17966e-09
-7.0836e-09
-9.48109e-09
-1.43966e-08
-2.23402e-08
-3.08006e-08
-3.57427e-08
-3.38535e-08
-2.64685e-08
-1.83369e-08
-1.4374e-08
-1.42866e-08
-1.91219e-08
-2.47928e-08
-2.80618e-08
-2.468e-08
-4.87933e-09
-7.24581e-10
-2.08665e-09
-3.56338e-09
-5.32151e-09
-7.32801e-09
-1.01745e-08
-1.5349e-08
-2.25788e-08
-2.72729e-08
-2.39961e-08
-1.35634e-08
-8.71608e-10
8.93903e-09
1.63637e-08
1.84977e-08
1.3523e-08
2.32632e-09
-1.04304e-08
-1.71202e-08
-1.60108e-08
-7.10231e-10
-2.04682e-09
-3.30799e-09
-4.80474e-09
-6.65358e-09
-9.14717e-09
-1.36846e-08
-1.75214e-08
-1.65983e-08
-8.23597e-09
5.38578e-09
1.90754e-08
2.903e-08
3.22845e-08
3.38562e-08
3.31525e-08
2.69122e-08
1.35326e-08
-1.46887e-09
-8.64437e-09
-5.67113e-10
-1.70301e-09
-2.66333e-09
-3.79188e-09
-5.23925e-09
-6.83673e-09
-9.35882e-09
-1.01761e-08
-6.27419e-09
3.28034e-09
1.49205e-08
2.26863e-08
2.38703e-08
2.38566e-08
2.49271e-08
2.76155e-08
2.97405e-08
2.53971e-08
1.37338e-08
8.71995e-10
-3.44311e-10
-1.16148e-09
-1.78135e-09
-2.47661e-09
-3.24605e-09
-3.73055e-09
-3.98144e-09
-3.00295e-09
1.82876e-09
8.90126e-09
1.56294e-08
1.70712e-08
1.6022e-08
1.55571e-08
1.53468e-08
1.60672e-08
1.89275e-08
2.13961e-08
1.74616e-08
6.91824e-09
-9.46521e-11
-5.46162e-10
-8.0076e-10
-9.87248e-10
-1.03983e-09
-4.46386e-10
1.04962e-09
3.62198e-09
7.12664e-09
1.06931e-08
1.33852e-08
1.32625e-08
1.15665e-08
1.02313e-08
1.05735e-08
1.0218e-08
1.01507e-08
1.22735e-08
1.33209e-08
7.19238e-09
1.40703e-10
7.0286e-11
1.68462e-10
4.18102e-10
9.56517e-10
2.35819e-09
5.12635e-09
7.8108e-09
1.15885e-08
1.17121e-08
1.03164e-08
9.79383e-09
8.77467e-09
7.79907e-09
6.77044e-09
6.43587e-09
5.84581e-09
6.10414e-09
7.74607e-09
4.17294e-09
3.95116e-10
6.25176e-10
1.03198e-09
1.59861e-09
2.50187e-09
4.27883e-09
7.61789e-09
1.06517e-08
1.42493e-08
1.23199e-08
1.00674e-08
7.15943e-09
5.34736e-09
4.64495e-09
2.92259e-09
2.69161e-09
2.65931e-09
2.63286e-09
3.70412e-09
1.89706e-09
4.71829e-10
1.07758e-09
1.72201e-09
2.48918e-09
3.6064e-09
5.37356e-09
8.50616e-09
1.19799e-08
1.46124e-08
1.35872e-08
1.06973e-08
6.38244e-09
3.1245e-09
4.52917e-10
-7.2741e-10
-3.93512e-10
1.70895e-10
4.92928e-10
1.31595e-09
7.16184e-10
5.97762e-10
1.42344e-09
2.24662e-09
3.12495e-09
4.28829e-09
5.89768e-09
8.38e-09
1.16058e-08
1.38253e-08
1.35972e-08
1.10308e-08
6.45017e-09
2.48981e-09
-6.25377e-10
-2.25962e-09
-1.97231e-09
-1.1711e-09
-6.07267e-10
1.37028e-10
2.36262e-10
6.35053e-10
1.6296e-09
2.60678e-09
3.56431e-09
4.67384e-09
6.05997e-09
7.88551e-09
1.02746e-08
1.23002e-08
1.24583e-08
1.02616e-08
6.5262e-09
2.80012e-09
-3.35428e-10
-1.98843e-09
-2.16475e-09
-1.55161e-09
-1.02579e-09
-3.37022e-10
5.20455e-11
5.8448e-10
1.7182e-09
2.8584e-09
3.8979e-09
4.94262e-09
6.10054e-09
7.45174e-09
9.00243e-09
1.03381e-08
1.064e-08
9.13514e-09
6.32883e-09
3.22793e-09
5.52555e-10
-1.16938e-09
-1.67464e-09
-1.47769e-09
-1.11397e-09
-4.42817e-10
1.78092e-10
4.87298e-10
1.7667e-09
3.10063e-09
4.22566e-09
5.24541e-09
6.23355e-09
7.22026e-09
8.15447e-09
8.81496e-09
8.88402e-09
7.91806e-09
5.95129e-09
3.55783e-09
1.39351e-09
-1.60276e-10
-1.02231e-09
-1.26089e-09
-8.58016e-10
-2.88088e-10
3.45003e-10
1.3427e-10
1.63445e-09
3.20643e-09
4.36618e-09
5.40225e-09
6.32845e-09
7.12516e-09
7.74741e-09
8.02707e-09
7.84223e-09
7.03532e-09
5.69711e-09
3.80212e-09
1.91905e-09
4.46969e-10
-4.34181e-10
-9.69073e-10
-3.89923e-10
-9.40841e-11
4.33246e-10
2.65921e-11
1.31607e-09
2.63372e-09
3.62748e-09
4.85374e-09
5.89716e-09
6.7061e-09
7.24592e-09
7.44352e-09
7.20119e-09
6.50208e-09
5.23829e-09
3.79259e-09
2.30673e-09
9.6268e-10
1.62209e-10
-3.7572e-10
2.51112e-10
-1.74776e-11
5.57212e-10
-3.08394e-10
-1.5809e-10
9.40079e-10
2.21386e-09
3.25527e-09
4.20214e-09
4.99299e-09
5.54486e-09
5.79392e-09
5.6988e-09
5.28302e-09
4.54622e-09
3.66932e-09
2.77742e-09
1.96987e-09
1.37971e-09
1.07121e-09
1.04937e-09
1.17196e-10
6.09999e-10
-1.04194e-10
-5.04879e-10
-3.3249e-10
-1.20439e-10
2.46733e-10
7.33127e-10
1.26086e-09
1.74479e-09
2.13641e-09
2.3839e-09
2.46336e-09
2.37037e-09
2.13635e-09
1.8188e-09
1.49413e-09
1.22237e-09
1.04052e-09
7.78471e-10
9.81984e-10
4.31198e-10
)
;

boundaryField
{
    movingWall
    {
        type            zeroGradient;
    }
    fixedWalls
    {
        type            zeroGradient;
    }
    frontAndBack
    {
        type            empty;
    }
}


// ************************************************************************* //
