/*--------------------------------*- C++ -*----------------------------------*\
| =========                 |                                                 |
| \\      /  F ield         | OpenFOAM: The Open Source CFD Toolbox           |
|  \\    /   O peration     | Version:  2312                                  |
|   \\  /    A nd           | Website:  www.openfoam.com                      |
|    \\/     M anipulation  |                                                 |
\*---------------------------------------------------------------------------*/
FoamFile
{
    version     2.0;
    format      ascii;
    arch        "LSB;label=32;scalar=64";
    class       volScalarField;
    location    "2";
    object      initialResidual:epsilon;
}
// * * * * * * * * * * * * * * * * * * * * * * * * * * * * * * * * * * * * * //

dimensions      [0 0 0 0 0 0 0];

internalField   nonuniform List<scalar> 
400
(
0
0
0
0
0
0
0
0
0
0
0
0
0
0
0
0
0
0
0
0
0
-1.43548e-11
2.355e-12
3.44733e-11
8.3934e-11
1.51124e-10
2.44465e-10
4.03909e-10
6.47212e-10
9.19258e-10
1.14958e-09
1.32758e-09
1.5744e-09
1.98524e-09
2.04178e-09
2.42772e-09
1.95405e-09
1.31907e-09
3.26018e-10
0
0
-9.55624e-12
1.35269e-11
4.26832e-11
8.78662e-11
1.75355e-10
3.54797e-10
6.0888e-10
9.00713e-10
1.17043e-09
1.37605e-09
1.07124e-09
6.78758e-10
3.44163e-10
1.97347e-10
1.57752e-09
2.58471e-09
3.62549e-09
1.78416e-09
0
0
2.00308e-12
3.02313e-11
6.50214e-11
1.26233e-10
2.67188e-10
5.42687e-10
9.71153e-10
1.21047e-09
5.66767e-10
-5.09424e-10
-7.48744e-10
-8.58073e-10
-1.0297e-09
-1.08961e-09
-7.4071e-10
4.29869e-10
1.40249e-09
4.75756e-09
0
0
1.56362e-11
4.73049e-11
1.00496e-10
2.09557e-10
4.43953e-10
7.95046e-10
1.00808e-09
9.96661e-11
-6.31757e-10
-9.64483e-10
-1.229e-09
-1.40634e-09
-1.46629e-09
-1.64896e-09
-1.7409e-09
-1.63624e-09
-9.98987e-11
3.91831e-09
0
0
2.99388e-11
6.12199e-11
1.3547e-10
2.88657e-10
5.72754e-10
8.69277e-10
1.28479e-10
-3.87645e-10
-8.1415e-10
-1.31853e-09
-1.05466e-09
-9.6056e-10
-9.61974e-10
-1.12548e-09
-1.44446e-09
-2.09689e-09
-3.35721e-09
1.669e-09
0
0
4.11683e-11
6.83431e-11
1.56526e-10
3.27787e-10
5.76568e-10
6.09843e-10
-3.1114e-10
-7.89304e-10
-1.12883e-09
-8.3939e-10
-6.62396e-10
-5.66307e-10
-5.09019e-10
-5.25177e-10
-7.20455e-10
-1.04075e-09
-1.09165e-09
-9.97899e-10
0
0
4.50182e-11
6.86618e-11
1.55812e-10
3.13301e-10
5.22829e-10
3.24986e-10
-2.61247e-10
-8.54028e-10
-9.68955e-10
-5.9965e-10
-4.34089e-10
-3.34007e-10
-2.72013e-10
-2.3568e-10
-3.30926e-10
-6.91831e-10
-1.42322e-09
-1.90651e-09
0
0
4.46067e-11
5.88719e-11
1.38316e-10
2.83948e-10
4.79999e-10
2.62908e-10
-2.91211e-10
-8.1605e-10
-8.31296e-10
-4.6432e-10
-3.11818e-10
-2.38747e-10
-1.61565e-10
-1.19294e-10
-1.44668e-10
-3.05467e-10
-6.77803e-10
-1.3483e-09
0
0
4.29772e-11
5.07757e-11
1.13892e-10
2.30168e-10
3.71863e-10
2.1939e-10
-2.43649e-10
-7.04799e-10
-7.30309e-10
-4.38064e-10
-2.67243e-10
-1.93708e-10
-1.28665e-10
-7.75646e-11
-7.6666e-11
-1.76945e-10
-4.05793e-10
-9.11499e-10
0
0
3.90023e-11
3.64486e-11
8.455e-11
1.66377e-10
2.70589e-10
2.50769e-10
-1.40213e-10
-5.10352e-10
-6.83657e-10
-4.39736e-10
-2.691e-10
-1.65853e-10
-1.19834e-10
-4.4478e-11
-3.04895e-11
-1.44081e-10
-2.85883e-10
-5.34168e-10
0
0
4.9666e-11
2.8358e-11
5.92066e-11
1.21267e-10
2.014e-10
2.31244e-10
2.66999e-11
-4.08721e-10
-5.12721e-10
-4.98354e-10
-3.07098e-10
-1.56543e-10
-1.17146e-10
-5.41041e-11
-1.11163e-10
-1.90881e-10
-2.53849e-10
-2.28945e-10
0
0
5.90511e-11
2.27506e-11
3.95141e-11
8.09724e-11
1.41752e-10
1.87427e-10
1.15755e-10
-2.06807e-10
-2.86478e-10
-4.18523e-10
-3.54602e-10
-1.96403e-10
-1.55426e-10
-1.23651e-10
-1.65601e-10
-2.06876e-10
-2.62778e-10
-1.47147e-10
0
0
6.28489e-11
1.95281e-11
2.65993e-11
5.06518e-11
9.23957e-11
1.32095e-10
1.20664e-10
3.54394e-11
-2.05973e-10
-2.45105e-10
-2.8967e-10
-2.12172e-10
-1.93293e-10
-1.73159e-10
-1.79783e-10
-2.25842e-10
-3.05931e-10
-1.2995e-10
0
0
5.75887e-11
1.41278e-11
1.47237e-11
2.60275e-11
5.30538e-11
8.03533e-11
8.62893e-11
3.8789e-11
-6.16209e-11
-1.84738e-10
-2.1174e-10
-1.93487e-10
-1.85141e-10
-1.75681e-10
-1.77636e-10
-2.09077e-10
-2.76403e-10
-1.51097e-10
0
0
5.0715e-11
1.05391e-11
8.51553e-12
1.02692e-11
2.09284e-11
3.23869e-11
3.37583e-11
7.92115e-12
-4.37745e-11
-1.01753e-10
-1.43695e-10
-1.55809e-10
-1.50459e-10
-1.44756e-10
-1.45198e-10
-1.72534e-10
-2.38377e-10
-2.19017e-10
0
0
-2.42109e-12
-8.29556e-12
-1.11253e-11
-9.20712e-12
-3.41939e-12
1.05615e-12
-2.09086e-12
-2.16682e-11
-5.90986e-11
-1.06767e-10
-1.36447e-10
-1.42784e-10
-1.40874e-10
-1.32356e-10
-1.20568e-10
-1.38216e-10
-1.88159e-10
-2.10191e-10
0
0
-4.06546e-11
-6.35954e-11
-7.00644e-11
-7.4423e-11
-7.95283e-11
-8.85189e-11
-1.0429e-10
-1.25423e-10
-1.50906e-10
-1.8941e-10
-2.01535e-10
-2.01201e-10
-1.8503e-10
-1.65777e-10
-1.50703e-10
-1.5198e-10
-1.49082e-10
-1.09521e-10
0
0
-1.6215e-10
-2.8641e-10
-3.72831e-10
-4.47789e-10
-5.17629e-10
-5.75896e-10
-6.19164e-10
-6.42349e-10
-6.42107e-10
-6.45399e-10
-5.92307e-10
-5.40705e-10
-4.44729e-10
-3.78555e-10
-3.61289e-10
-2.42063e-10
-2.02534e-10
-6.62752e-12
0
0
0
0
0
0
0
0
0
0
0
0
0
0
0
0
0
0
0
0
0
)
;

boundaryField
{
    movingWall
    {
        type            zeroGradient;
    }
    fixedWalls
    {
        type            zeroGradient;
    }
    frontAndBack
    {
        type            empty;
    }
}


// ************************************************************************* //
