/*--------------------------------*- C++ -*----------------------------------*\
| =========                 |                                                 |
| \\      /  F ield         | OpenFOAM: The Open Source CFD Toolbox           |
|  \\    /   O peration     | Version:  2312                                  |
|   \\  /    A nd           | Website:  www.openfoam.com                      |
|    \\/     M anipulation  |                                                 |
\*---------------------------------------------------------------------------*/
FoamFile
{
    version     2.0;
    format      ascii;
    arch        "LSB;label=32;scalar=64";
    class       volScalarField;
    location    "2";
    object      initialResidual:p;
}
// * * * * * * * * * * * * * * * * * * * * * * * * * * * * * * * * * * * * * //

dimensions      [0 0 0 0 0 0 0];

internalField   nonuniform List<scalar> 
400
(
1.44168e-11
2.8444e-12
-3.89786e-12
-8.79822e-12
-1.46081e-11
-2.05784e-11
-2.55341e-11
-4.04797e-11
-6.05196e-11
-8.08634e-11
-8.47499e-11
-2.87708e-11
3.68039e-11
-7.09907e-11
-2.84334e-10
-4.21611e-10
-3.70465e-10
-2.02103e-10
-2.61743e-11
2.34921e-11
-1.71725e-12
-1.16618e-11
-2.06756e-11
-2.2133e-11
-1.89984e-11
-2.24121e-11
-4.58847e-11
-1.03722e-10
-1.9135e-10
-2.62653e-10
-3.24497e-10
-4.6673e-10
-6.31058e-10
-7.36779e-10
-7.78079e-10
-8.50996e-10
-6.78209e-10
-3.15523e-10
-6.84052e-11
-7.22961e-11
-1.23307e-11
-1.5303e-11
-2.7993e-11
-3.10098e-11
-2.83499e-11
-5.14397e-11
-1.30365e-10
-2.71548e-10
-3.86319e-10
-4.95708e-10
-4.63938e-10
-1.77406e-10
-8.06485e-11
9.06902e-11
-1.11319e-10
-4.35614e-10
-8.86323e-10
-7.71307e-10
-3.71835e-10
2.90414e-10
-3.02576e-11
-2.47872e-11
-4.0121e-11
-5.07151e-11
-6.72522e-11
-1.37423e-10
-2.55934e-10
-3.42692e-10
-3.64713e-10
-1.8671e-10
2.82299e-10
7.38187e-10
1.08035e-09
1.30195e-09
1.52637e-09
1.29282e-09
5.86672e-10
-6.72146e-10
-8.67161e-10
-6.03757e-10
-4.40321e-11
-2.83232e-11
-4.22394e-11
-6.2337e-11
-9.90395e-11
-2.20307e-10
-4.04992e-10
-3.99413e-10
-4.97188e-11
7.0857e-10
1.24046e-09
1.42878e-09
1.8241e-09
1.7728e-09
1.44802e-09
1.67014e-09
1.90931e-09
8.83349e-10
-1.70076e-09
-9.09071e-10
-5.02522e-11
-2.54414e-11
-3.2748e-11
-5.63914e-11
-1.06799e-10
-2.79882e-10
-3.30136e-10
-1.34423e-10
4.82226e-10
1.28838e-09
1.57142e-09
1.09007e-09
-4.26298e-11
-6.18809e-10
-5.06449e-10
-1.21917e-10
8.00888e-10
1.86114e-09
5.43447e-10
-1.32115e-09
-4.43288e-11
-1.89509e-11
-1.72867e-11
-4.29724e-11
-9.84359e-11
-2.60362e-10
-2.98407e-10
4.07975e-11
8.52541e-10
1.29304e-09
7.03271e-10
-4.16917e-10
-6.97255e-10
-1.01103e-09
-9.85822e-10
-8.71136e-10
-5.68232e-10
8.82101e-10
2.58869e-09
-4.90537e-10
-3.0679e-11
-1.31938e-11
-9.32546e-12
-3.02216e-11
-9.24167e-11
-2.31127e-10
-2.39545e-10
7.85756e-11
9.96284e-10
1.13863e-09
2.9165e-10
-4.43905e-10
4.41878e-09
-6.69388e-10
-5.42563e-10
-5.54154e-10
-7.28585e-10
-4.60863e-10
1.25903e-09
1.01505e-09
-1.58542e-11
-5.28059e-12
-3.62215e-12
-2.39432e-11
-7.21994e-11
-1.94314e-10
-1.82947e-10
1.21748e-10
8.29095e-10
1.14057e-09
2.96539e-10
-4.85e-10
-5.17929e-09
-5.9287e-10
-3.71312e-10
-3.0479e-10
-3.82027e-10
-7.56306e-10
-4.44356e-10
1.56674e-09
-6.42219e-12
-4.95659e-12
-1.40464e-12
-1.57563e-11
-3.96825e-11
-1.22956e-10
-2.90178e-10
2.5143e-10
-1.07797e-10
1.72068e-09
2.69812e-10
-3.0544e-10
-1.02869e-09
-1.89249e-09
9.39178e-10
-3.53321e-10
-2.34264e-10
-5.09774e-10
-7.31458e-10
8.55405e-10
2.00836e-12
-1.09968e-11
-2.0807e-12
-1.18506e-11
-5.54846e-13
-1.30893e-10
-2.4185e-10
2.11113e-10
2.77304e-10
6.26976e-10
4.84674e-10
-1.91547e-10
-7.57192e-10
-5.15554e-10
-4.94963e-10
-2.39407e-10
-1.53412e-10
-1.93991e-10
-5.74187e-10
2.96597e-10
1.47248e-12
-9.58926e-12
-5.32645e-12
-1.48217e-11
-3.2606e-11
-5.16185e-11
-1.40464e-10
-3.45566e-11
1.37613e-10
3.41522e-10
5.05565e-10
-4.80785e-13
-2.25775e-10
-3.25716e-10
-2.78639e-10
-1.2827e-10
-7.98515e-11
-9.53192e-11
-2.47021e-10
3.69856e-11
-3.6943e-12
-1.11701e-11
-8.7261e-12
-1.5103e-11
-2.87449e-11
-4.15876e-11
-8.89088e-11
-1.34834e-10
7.50961e-12
2.09924e-10
2.7647e-10
8.06415e-11
-1.19337e-10
-1.09438e-10
-1.23718e-10
-4.73521e-11
-2.08162e-11
-2.62539e-11
-1.06776e-10
2.67585e-11
-3.81509e-12
-1.11556e-11
-1.19727e-11
-1.86663e-11
-2.72485e-11
-4.23261e-11
-6.53354e-11
-1.01776e-10
-4.50042e-11
3.83162e-11
9.6484e-11
1.10145e-10
2.32414e-11
-6.09466e-11
-6.21936e-11
-1.54156e-11
2.72505e-12
4.75968e-12
1.85497e-11
-5.15484e-12
4.20389e-12
-6.70818e-12
-1.28021e-11
-2.08514e-11
-2.53795e-11
-3.17951e-11
-4.24204e-11
-5.84046e-11
-4.24677e-11
-4.0142e-12
2.43069e-11
2.98396e-11
1.0311e-11
-2.11815e-11
-3.52444e-11
-1.81162e-11
1.38371e-12
2.02444e-11
1.07824e-10
-1.29457e-11
3.59314e-12
-2.45802e-11
-2.295e-11
-2.6138e-11
-2.54502e-11
-2.25585e-11
-2.43437e-11
-2.78766e-11
-1.83273e-11
-6.08743e-12
7.69489e-12
-9.42327e-13
-2.16545e-11
-3.66622e-11
-2.63363e-11
-2.96298e-11
-2.10615e-13
3.15571e-11
1.33793e-10
-9.08193e-12
2.72277e-10
-2.73953e-10
-2.85691e-11
-2.09728e-11
-1.6754e-11
-8.23769e-12
-2.2106e-13
4.44576e-12
1.14174e-11
1.0781e-11
1.90152e-11
1.4931e-11
-1.62767e-11
-1.01206e-11
1.5965e-11
-2.17478e-11
-1.13806e-13
4.76063e-11
1.02894e-10
3.7833e-11
1.16221e-11
5.8726e-10
-5.33611e-10
-1.31282e-11
-3.16517e-11
-3.29613e-11
-2.39832e-11
-7.31501e-12
1.53271e-11
2.92142e-11
2.49094e-11
2.10595e-11
7.85708e-12
-1.48123e-11
-5.66722e-11
6.43089e-12
1.59175e-12
5.1382e-11
8.69879e-11
5.70331e-11
4.1088e-11
-8.36564e-11
-1.42102e-10
-1.39855e-10
-1.28526e-10
-9.44835e-11
-5.82078e-11
-2.66494e-11
5.75909e-13
2.54291e-11
4.12338e-11
4.60918e-11
4.89508e-11
2.77488e-11
6.58664e-12
-3.87468e-11
-1.81149e-11
-6.22084e-11
8.81566e-13
-2.96788e-14
3.66556e-11
-1.77627e-11
-8.50883e-13
-8.05673e-12
-1.50097e-11
-1.1902e-11
-1.18454e-12
1.13457e-11
2.45041e-11
3.8262e-11
4.68669e-11
4.29148e-11
2.79165e-11
1.66628e-12
-2.31856e-11
-3.06371e-11
-5.38493e-12
1.92635e-11
4.13384e-11
-4.08371e-10
)
;

boundaryField
{
    movingWall
    {
        type            zeroGradient;
    }
    fixedWalls
    {
        type            zeroGradient;
    }
    frontAndBack
    {
        type            empty;
    }
}


// ************************************************************************* //
