/*--------------------------------*- C++ -*----------------------------------*\
| =========                 |                                                 |
| \\      /  F ield         | OpenFOAM: The Open Source CFD Toolbox           |
|  \\    /   O peration     | Version:  2312                                  |
|   \\  /    A nd           | Website:  www.openfoam.com                      |
|    \\/     M anipulation  |                                                 |
\*---------------------------------------------------------------------------*/
FoamFile
{
    version     2.0;
    format      ascii;
    arch        "LSB;label=32;scalar=64";
    class       volScalarField;
    location    "2";
    object      k;
}
// * * * * * * * * * * * * * * * * * * * * * * * * * * * * * * * * * * * * * //

dimensions      [0 2 -2 0 0 0 0];

internalField   nonuniform List<scalar> 
400
(
6.51395e-05
0.000104178
0.000156858
0.000214144
0.000277157
0.000346731
0.000419939
0.000489971
0.000549732
0.000594176
0.000617264
0.000624602
0.000610142
0.000575553
0.000518085
0.000430979
0.000316274
0.000191352
9.99148e-05
6.5128e-05
9.64228e-05
0.000155613
0.000208358
0.000255314
0.000303709
0.000355826
0.00041125
0.000470914
0.00053997
0.000615611
0.000693892
0.000781917
0.000876767
0.000948429
0.000978767
0.000936425
0.000767731
0.000490775
0.000206001
8.95239e-05
0.000151514
0.000243632
0.000313371
0.00035896
0.00039595
0.000436573
0.00049572
0.000582004
0.000700862
0.000851074
0.000989939
0.00108457
0.00114905
0.00121103
0.00127972
0.00131118
0.00129816
0.00106583
0.00047926
0.000150952
0.000209217
0.00032399
0.000415614
0.000479518
0.000533795
0.000597415
0.000692543
0.000832113
0.000987231
0.00106073
0.00108687
0.00109902
0.00112979
0.00118041
0.00126291
0.00136199
0.00146992
0.00152835
0.00119032
0.000434106
0.000266248
0.000393122
0.000503753
0.000585178
0.000661357
0.000755338
0.000888136
0.00101243
0.00105006
0.00104233
0.00099911
0.000949834
0.000936778
0.000974371
0.00107311
0.00121798
0.00144551
0.00166754
0.00177622
0.00117446
0.000320305
0.000447499
0.000573346
0.000670944
0.000767276
0.000884514
0.00101293
0.00105846
0.00103842
0.000943674
0.00083354
0.000804724
0.00080714
0.000874905
0.000966423
0.00110635
0.0013158
0.00166594
0.00203474
0.00212865
0.000369596
0.000486134
0.000622605
0.000734224
0.000846746
0.000974978
0.00106453
0.00107513
0.000990566
0.00081266
0.00074143
0.000726942
0.000743378
0.000811217
0.000908213
0.00105718
0.00126293
0.00156804
0.00212669
0.00281017
0.000412558
0.000509749
0.000651979
0.000773976
0.000897026
0.00102578
0.00108575
0.00106812
0.000919424
0.00074039
0.00067733
0.000660493
0.00065977
0.000703658
0.000820502
0.00101118
0.00124335
0.00155657
0.00212815
0.00320133
0.00044828
0.000521174
0.000663717
0.000792736
0.000922865
0.00104885
0.00109997
0.00106858
0.000900134
0.000699022
0.000622497
0.000594829
0.000583282
0.000614994
0.000753913
0.000992596
0.0012423
0.00157928
0.00214583
0.003465
0.000475258
0.000520372
0.000660346
0.00078989
0.000920383
0.00104689
0.00110953
0.00108026
0.000919483
0.000709251
0.000606529
0.000557913
0.000540477
0.000581891
0.000730359
0.00100136
0.00129072
0.00163298
0.00220949
0.00366711
0.00049366
0.000516036
0.000650227
0.000779039
0.00090905
0.00103557
0.00111542
0.00110757
0.000979018
0.000761452
0.000630907
0.000569175
0.00055517
0.000598346
0.000761278
0.00108567
0.00136986
0.00167775
0.0022994
0.00386292
0.000502733
0.000506706
0.000632331
0.00075835
0.00088594
0.00101222
0.00111213
0.00114151
0.00107536
0.000899924
0.000723596
0.00063372
0.000632632
0.000693184
0.000882418
0.00120464
0.00144347
0.001697
0.00237259
0.00407083
0.000500946
0.000493032
0.000610437
0.000733849
0.000857777
0.000982536
0.00109707
0.00116142
0.00114606
0.00107472
0.000935753
0.000817251
0.000816107
0.000878198
0.00105904
0.00130625
0.00147539
0.00169706
0.00243167
0.00431511
0.000493566
0.00047737
0.000587549
0.000709137
0.000829938
0.000951434
0.00106822
0.00115867
0.00119369
0.00117638
0.00112177
0.00104092
0.00102836
0.00106967
0.00118022
0.00134243
0.00147023
0.00160762
0.00245676
0.00461088
0.000476461
0.000458178
0.000565026
0.000686979
0.00080635
0.000924568
0.00103939
0.0011408
0.00119988
0.001216
0.00120156
0.00116393
0.00114162
0.00115683
0.00121097
0.00131198
0.0013699
0.00143012
0.0024629
0.00498328
0.000463755
0.000444087
0.000550839
0.000672352
0.000788418
0.000901263
0.00100994
0.00110725
0.00117923
0.00120871
0.00120282
0.0011818
0.001151
0.00114624
0.00116223
0.00119979
0.00120431
0.00124911
0.00245514
0.0054632
0.000434861
0.000423926
0.00053246
0.000648766
0.000758116
0.000861802
0.00095915
0.00104609
0.00111651
0.00115744
0.00115974
0.00114615
0.00111611
0.00108817
0.00108539
0.001101
0.00110214
0.00118336
0.0025701
0.00609461
0.000473994
0.000446782
0.000567441
0.000673961
0.000773992
0.000869799
0.000960086
0.00103855
0.00110215
0.00114665
0.00116412
0.00115938
0.00114415
0.00112358
0.00110703
0.00111119
0.00113144
0.00141263
0.00303728
0.00703416
0.000681799
0.000813253
0.0011049
0.00130331
0.00145456
0.00158347
0.00169483
0.00179251
0.0018749
0.00194559
0.00200623
0.00205959
0.00211035
0.0021812
0.00225177
0.00239921
0.00258836
0.00335427
0.00454959
0.0085603
0.00418735
0.00650881
0.00836926
0.00941432
0.0100002
0.0103422
0.0105246
0.0106167
0.010621
0.0106058
0.0105701
0.0105245
0.0104848
0.0104608
0.0104692
0.010507
0.0106449
0.0106884
0.0113166
0.010298
)
;

boundaryField
{
    movingWall
    {
        type            kqRWallFunction;
        value           nonuniform List<scalar> 
20
(
0.00418735
0.00650881
0.00836926
0.00941432
0.0100002
0.0103422
0.0105246
0.0106167
0.010621
0.0106058
0.0105701
0.0105245
0.0104848
0.0104608
0.0104692
0.010507
0.0106449
0.0106884
0.0113166
0.010298
)
;
    }
    fixedWalls
    {
        type            kqRWallFunction;
        value           nonuniform List<scalar> 
60
(
6.51395e-05
9.64228e-05
0.000151514
0.000209217
0.000266248
0.000320305
0.000369596
0.000412558
0.00044828
0.000475258
0.00049366
0.000502733
0.000500946
0.000493566
0.000476461
0.000463755
0.000434861
0.000473994
0.000681799
0.00418735
6.5128e-05
8.95239e-05
0.000150952
0.000434106
0.00117446
0.00212865
0.00281017
0.00320133
0.003465
0.00366711
0.00386292
0.00407083
0.00431511
0.00461088
0.00498328
0.0054632
0.00609461
0.00703416
0.0085603
0.010298
6.51395e-05
0.000104178
0.000156858
0.000214144
0.000277157
0.000346731
0.000419939
0.000489971
0.000549732
0.000594176
0.000617264
0.000624602
0.000610142
0.000575553
0.000518085
0.000430979
0.000316274
0.000191352
9.99148e-05
6.5128e-05
)
;
    }
    frontAndBack
    {
        type            empty;
    }
}


// ************************************************************************* //
