/*--------------------------------*- C++ -*----------------------------------*\
| =========                 |                                                 |
| \\      /  F ield         | OpenFOAM: The Open Source CFD Toolbox           |
|  \\    /   O peration     | Version:  2312                                  |
|   \\  /    A nd           | Website:  www.openfoam.com                      |
|    \\/     M anipulation  |                                                 |
\*---------------------------------------------------------------------------*/
FoamFile
{
    version     2.0;
    format      ascii;
    arch        "LSB;label=32;scalar=64";
    class       volScalarField;
    location    "2";
    object      k2;
}
// * * * * * * * * * * * * * * * * * * * * * * * * * * * * * * * * * * * * * //

dimensions      [0 4 -4 0 0 0 0];

internalField   nonuniform List<scalar> 
400
(
4.25339e-09
1.08715e-08
2.46187e-08
4.58324e-08
7.66951e-08
1.1993e-07
1.75808e-07
2.3921e-07
3.00918e-07
3.51159e-07
3.78701e-07
3.87619e-07
3.69601e-07
3.28681e-07
2.66179e-07
1.84054e-07
9.91459e-08
3.64044e-08
9.9785e-09
4.24815e-09
9.31812e-09
2.42754e-08
4.34883e-08
6.52189e-08
9.21877e-08
1.26413e-07
1.68679e-07
2.20807e-07
2.89761e-07
3.76156e-07
4.77655e-07
6.06352e-07
7.62148e-07
8.9156e-07
9.49297e-07
8.67784e-07
5.81825e-07
2.3791e-07
4.2141e-08
8.01645e-09
2.29835e-08
5.94452e-08
9.83516e-08
1.29069e-07
1.56996e-07
1.90644e-07
2.45163e-07
3.37106e-07
4.87803e-07
7.18796e-07
9.74655e-07
1.17311e-06
1.31887e-06
1.46507e-06
1.63607e-06
1.71799e-06
1.67756e-06
1.12357e-06
2.2603e-07
2.2573e-08
4.37813e-08
1.05023e-07
1.72824e-07
2.30077e-07
2.84991e-07
3.56421e-07
4.77838e-07
6.88563e-07
9.70701e-07
1.12656e-06
1.185e-06
1.21294e-06
1.28165e-06
1.39872e-06
1.60054e-06
1.85963e-06
2.15908e-06
2.33002e-06
1.40128e-06
1.84555e-07
7.08504e-08
1.54512e-07
2.53708e-07
3.42342e-07
4.3701e-07
5.69171e-07
7.85703e-07
1.02441e-06
1.10424e-06
1.0901e-06
1.004e-06
9.07787e-07
8.82859e-07
9.53907e-07
1.15618e-06
1.48786e-06
2.09605e-06
2.78237e-06
3.14738e-06
1.36025e-06
1.02486e-07
2.0013e-07
3.2851e-07
4.49838e-07
5.87948e-07
7.80451e-07
1.02551e-06
1.12215e-06
1.0828e-06
8.97358e-07
6.98822e-07
6.50251e-07
6.53274e-07
7.66291e-07
9.35519e-07
1.22572e-06
1.73443e-06
2.78313e-06
4.13535e-06
4.50085e-06
1.36404e-07
2.36142e-07
3.87325e-07
5.38609e-07
7.16096e-07
9.49209e-07
1.13452e-06
1.15937e-06
9.88322e-07
6.65155e-07
5.52022e-07
5.29975e-07
5.53292e-07
6.58697e-07
8.25753e-07
1.11868e-06
1.59683e-06
2.46185e-06
4.52665e-06
7.8787e-06
1.69917e-07
2.59648e-07
4.24752e-07
5.9855e-07
8.03859e-07
1.05182e-06
1.18105e-06
1.14574e-06
8.52843e-07
5.51814e-07
4.60487e-07
4.37412e-07
4.36315e-07
4.95871e-07
6.73643e-07
1.02267e-06
1.54691e-06
2.42516e-06
4.53309e-06
1.02391e-05
2.0058e-07
2.71458e-07
4.40274e-07
6.28046e-07
8.51093e-07
1.10042e-06
1.21261e-06
1.147e-06
8.17257e-07
4.91844e-07
3.88902e-07
3.54844e-07
3.4115e-07
3.78704e-07
5.68415e-07
9.85129e-07
1.54379e-06
2.49501e-06
4.60747e-06
1.20023e-05
2.2543e-07
2.70659e-07
4.35871e-07
6.23639e-07
8.46737e-07
1.09632e-06
1.23371e-06
1.17221e-06
8.52336e-07
5.06608e-07
3.69459e-07
3.12183e-07
2.92828e-07
3.38983e-07
5.33262e-07
1.00197e-06
1.66588e-06
2.66785e-06
4.88356e-06
1.34459e-05
2.43215e-07
2.66217e-07
4.22725e-07
6.06782e-07
8.26235e-07
1.07271e-06
1.24635e-06
1.23178e-06
9.65041e-07
5.84203e-07
3.9997e-07
3.24985e-07
3.08782e-07
3.58273e-07
5.79092e-07
1.17792e-06
1.8773e-06
2.81711e-06
5.2894e-06
1.49214e-05
2.52252e-07
2.56726e-07
3.99897e-07
5.75143e-07
7.84963e-07
1.02494e-06
1.23863e-06
1.30724e-06
1.16172e-06
8.15888e-07
5.26448e-07
4.03099e-07
4.00687e-07
4.80581e-07
7.7785e-07
1.45101e-06
2.08521e-06
2.88269e-06
5.63214e-06
1.65712e-05
2.50484e-07
2.4309e-07
3.72776e-07
5.3868e-07
7.3594e-07
9.65693e-07
1.20457e-06
1.3516e-06
1.3175e-06
1.16039e-06
8.80483e-07
6.70806e-07
6.67005e-07
7.717e-07
1.1212e-06
1.70715e-06
2.17886e-06
2.88322e-06
5.9159e-06
1.86196e-05
2.4321e-07
2.27931e-07
3.45423e-07
5.03096e-07
6.8903e-07
9.05559e-07
1.14179e-06
1.3445e-06
1.42824e-06
1.38781e-06
1.26287e-06
1.0872e-06
1.05949e-06
1.14573e-06
1.39406e-06
1.80367e-06
2.16433e-06
2.58834e-06
6.03863e-06
2.12595e-05
2.26737e-07
2.10038e-07
3.19533e-07
4.72221e-07
6.50477e-07
8.5517e-07
1.08088e-06
1.30252e-06
1.44198e-06
1.4818e-06
1.44713e-06
1.35822e-06
1.30582e-06
1.34052e-06
1.46836e-06
1.72342e-06
1.87947e-06
2.04863e-06
6.06877e-06
2.48322e-05
2.14884e-07
1.97368e-07
3.03748e-07
4.52368e-07
6.21882e-07
8.12581e-07
1.02042e-06
1.22682e-06
1.3923e-06
1.46358e-06
1.4496e-06
1.3997e-06
1.3275e-06
1.31614e-06
1.35291e-06
1.44152e-06
1.45262e-06
1.56265e-06
6.03045e-06
2.98457e-05
1.89101e-07
1.7999e-07
2.83946e-07
4.21275e-07
5.75054e-07
7.43019e-07
9.204e-07
1.09501e-06
1.24767e-06
1.34146e-06
1.34732e-06
1.31613e-06
1.2482e-06
1.18634e-06
1.17992e-06
1.21393e-06
1.21658e-06
1.4023e-06
6.60776e-06
3.71437e-05
2.24735e-07
1.99946e-07
3.2247e-07
4.54637e-07
5.99411e-07
7.56907e-07
9.22232e-07
1.07932e-06
1.21584e-06
1.31635e-06
1.35738e-06
1.34648e-06
1.31154e-06
1.26475e-06
1.22749e-06
1.23661e-06
1.28184e-06
1.99699e-06
9.22648e-06
4.94794e-05
4.65001e-07
6.62084e-07
1.22195e-06
1.69997e-06
2.11727e-06
2.50915e-06
2.87451e-06
3.2155e-06
3.51801e-06
3.78847e-06
4.02863e-06
4.24568e-06
4.4574e-06
4.76117e-06
5.07378e-06
5.75922e-06
6.70216e-06
1.12533e-05
2.06998e-05
7.32801e-05
1.75334e-05
4.23632e-05
7.00451e-05
8.86337e-05
0.000100013
0.000106974
0.000110784
0.000112735
0.000112827
0.000112503
0.000111745
0.000110781
0.000109945
0.000109437
0.000109613
0.000110405
0.00011332
0.000114248
0.000128071
0.000106052
)
;

boundaryField
{
    movingWall
    {
        type            calculated;
        value           nonuniform List<scalar> 
20
(
1.75334e-05
4.23632e-05
7.00451e-05
8.86337e-05
0.000100013
0.000106974
0.000110784
0.000112735
0.000112827
0.000112503
0.000111745
0.000110781
0.000109945
0.000109437
0.000109613
0.000110405
0.00011332
0.000114248
0.000128071
0.000106052
)
;
    }
    fixedWalls
    {
        type            calculated;
        value           nonuniform List<scalar> 
60
(
4.25339e-09
9.31812e-09
2.29835e-08
4.37813e-08
7.08504e-08
1.02486e-07
1.36404e-07
1.69917e-07
2.0058e-07
2.2543e-07
2.43215e-07
2.52252e-07
2.50484e-07
2.4321e-07
2.26737e-07
2.14884e-07
1.89101e-07
2.24735e-07
4.65001e-07
1.75334e-05
4.24815e-09
8.01645e-09
2.2573e-08
1.84555e-07
1.36025e-06
4.50085e-06
7.8787e-06
1.02391e-05
1.20023e-05
1.34459e-05
1.49214e-05
1.65712e-05
1.86196e-05
2.12595e-05
2.48322e-05
2.98457e-05
3.71437e-05
4.94794e-05
7.32801e-05
0.000106052
4.25339e-09
1.08715e-08
2.46187e-08
4.58324e-08
7.66951e-08
1.1993e-07
1.75808e-07
2.3921e-07
3.00918e-07
3.51159e-07
3.78701e-07
3.87619e-07
3.69601e-07
3.28681e-07
2.66179e-07
1.84054e-07
9.91459e-08
3.64044e-08
9.9785e-09
4.24815e-09
)
;
    }
    frontAndBack
    {
        type            empty;
    }
}


// ************************************************************************* //
