/*--------------------------------*- C++ -*----------------------------------*\
| =========                 |                                                 |
| \\      /  F ield         | OpenFOAM: The Open Source CFD Toolbox           |
|  \\    /   O peration     | Version:  2312                                  |
|   \\  /    A nd           | Website:  www.openfoam.com                      |
|    \\/     M anipulation  |                                                 |
\*---------------------------------------------------------------------------*/
FoamFile
{
    version     2.0;
    format      ascii;
    arch        "LSB;label=32;scalar=64";
    class       volScalarField;
    location    "2";
    object      kDiff;
}
// * * * * * * * * * * * * * * * * * * * * * * * * * * * * * * * * * * * * * //

dimensions      [0 2 -2 0 0 0 0];

internalField   nonuniform List<scalar> 
400
(
-1.57118e-07
-1.77881e-07
-9.01137e-08
1.18474e-07
4.3691e-07
8.44189e-07
1.28799e-06
1.75912e-06
2.34122e-06
3.17503e-06
3.74834e-06
4.01556e-06
4.38051e-06
4.48304e-06
4.31053e-06
3.91951e-06
2.7936e-06
1.10363e-06
4.46415e-08
-9.97777e-08
-2.15397e-07
-3.85556e-07
-3.60631e-07
-1.31173e-07
1.68949e-07
5.60799e-07
1.08761e-06
2.02284e-06
3.34625e-06
4.58264e-06
5.52248e-06
6.44802e-06
7.49547e-06
8.39093e-06
8.87582e-06
9.72531e-06
9.88015e-06
6.01063e-06
1.43405e-06
-2.15911e-08
-1.7757e-07
-3.63458e-07
-4.80161e-07
-6.04415e-07
-5.54311e-07
-1.10095e-07
1.16102e-06
2.78789e-06
4.858e-06
6.49866e-06
5.37893e-06
2.9291e-06
1.25227e-06
1.26168e-06
1.25911e-06
9.17909e-07
5.89116e-06
1.16641e-05
7.63636e-06
1.41484e-06
-4.6511e-08
-1.66024e-07
-2.15057e-07
-2.9187e-07
-1.01382e-07
8.09663e-07
2.56758e-06
4.62555e-06
3.97414e-06
-1.3258e-06
-3.41739e-06
-4.62502e-06
-4.61727e-06
-4.52758e-06
-4.4301e-06
-3.3803e-06
1.08893e-06
3.81899e-06
1.30931e-05
8.96705e-06
1.40551e-07
8.53434e-08
1.17257e-07
1.55782e-07
5.7865e-07
1.80734e-06
3.47149e-06
5.95726e-07
-1.54105e-06
-3.49787e-06
-5.78131e-06
-5.89889e-06
-5.66513e-06
-4.62668e-06
-4.29412e-06
-3.60111e-06
-4.53548e-06
-1.01753e-06
4.25784e-06
1.62702e-05
3.409e-07
2.79926e-07
3.74996e-07
4.88148e-07
9.9602e-07
2.16326e-06
5.07856e-07
-1.71686e-06
-4.32235e-06
-7.24523e-06
-4.83935e-06
-3.3173e-06
-2.22959e-06
-9.51969e-07
-1.59926e-06
-1.54624e-06
-2.35458e-06
-4.66806e-06
2.35956e-06
1.42364e-05
5.32806e-07
3.79904e-07
5.01794e-07
6.47804e-07
1.0423e-06
1.40935e-06
-1.22427e-06
-3.2265e-06
-7.1693e-06
-5.83047e-06
-3.10683e-06
-2.10645e-06
-9.15582e-07
-7.70118e-07
-9.93054e-07
-9.89091e-07
-1.45046e-06
-1.97797e-06
-1.81358e-06
6.53012e-06
6.97481e-07
3.82948e-07
4.96977e-07
6.3246e-07
8.87455e-07
3.9603e-07
-2.01734e-06
-4.54332e-06
-8.15888e-06
-4.91305e-06
-2.52641e-06
-1.75796e-06
-1.54391e-06
-1.04641e-06
-5.10688e-07
-1.78223e-07
-8.0189e-07
-1.44014e-06
-1.91785e-06
2.94132e-06
8.35866e-07
3.14781e-07
3.71782e-07
4.85896e-07
6.35377e-07
-3.18832e-07
-2.43199e-06
-4.81902e-06
-7.79484e-06
-4.59517e-06
-2.24746e-06
-1.71972e-06
-1.59677e-06
-7.9009e-07
-4.01821e-08
1.18994e-07
-3.9716e-07
-5.61875e-07
-1.34045e-06
1.13716e-06
9.27294e-07
2.45984e-07
2.79929e-07
3.63179e-07
3.9879e-07
-3.20965e-07
-2.3843e-06
-4.86417e-06
-7.48975e-06
-5.03539e-06
-2.6072e-06
-1.64248e-06
-1.31985e-06
-6.63097e-07
2.22015e-07
7.51751e-07
5.94692e-08
-7.45319e-07
-7.69766e-07
4.81252e-07
9.83128e-07
1.47809e-07
1.08189e-07
1.54404e-07
1.51407e-07
-2.98243e-07
-1.96063e-06
-4.56947e-06
-6.70506e-06
-5.7691e-06
-3.0521e-06
-1.80055e-06
-1.02344e-06
-4.27246e-07
5.9525e-07
6.98888e-07
-5.82987e-07
-1.34315e-06
-9.35058e-07
2.03941e-07
9.71029e-07
4.99142e-08
-8.66879e-08
-6.38365e-08
-8.28417e-08
-3.41214e-07
-1.60494e-06
-3.67972e-06
-4.93735e-06
-6.69405e-06
-3.94743e-06
-2.36382e-06
-7.3441e-07
-1.09571e-07
9.18987e-07
1.25293e-07
-1.12237e-06
-1.68769e-06
-1.24807e-06
1.19742e-07
9.23324e-07
-1.8812e-08
-2.34258e-07
-1.99184e-07
-1.84741e-07
-3.21423e-07
-9.21641e-07
-2.32107e-06
-3.5347e-06
-4.99754e-06
-5.18233e-06
-3.55673e-06
-1.19398e-06
-5.32002e-07
3.4683e-07
-6.57373e-07
-1.41892e-06
-1.88453e-06
-1.19179e-06
1.47115e-07
8.0636e-07
-1.00972e-07
-3.55928e-07
-3.10322e-07
-2.79992e-07
-3.48612e-07
-6.55518e-07
-1.70718e-06
-2.80799e-06
-3.35455e-06
-4.008e-06
-3.53542e-06
-1.91731e-06
-1.43962e-06
-9.70815e-07
-1.14702e-06
-1.88518e-06
-2.41511e-06
-1.20558e-06
1.49055e-07
5.82184e-07
-2.41878e-07
-4.92932e-07
-4.08306e-07
-3.42984e-07
-3.71577e-07
-5.35002e-07
-9.55297e-07
-1.88981e-06
-2.58552e-06
-2.82465e-06
-3.00765e-06
-2.22067e-06
-1.95919e-06
-1.57717e-06
-1.62136e-06
-2.081e-06
-2.36585e-06
-1.17689e-06
1.86117e-07
3.98658e-07
-3.48333e-07
-5.8819e-07
-4.61663e-07
-3.54109e-07
-3.39247e-07
-4.43488e-07
-7.27303e-07
-1.44775e-06
-2.15457e-06
-2.35911e-06
-2.58903e-06
-2.34052e-06
-1.97662e-06
-1.84091e-06
-1.69232e-06
-1.87421e-06
-1.90338e-06
-1.10678e-06
1.56007e-07
6.32921e-09
-6.51967e-07
-8.12133e-07
-5.81382e-07
-4.14111e-07
-3.68053e-07
-4.48763e-07
-6.67133e-07
-9.74533e-07
-1.53463e-06
-1.99953e-06
-2.14287e-06
-2.24904e-06
-2.04655e-06
-1.70082e-06
-1.5818e-06
-1.69276e-06
-1.65601e-06
-9.14127e-07
1.04206e-07
-1.36307e-07
-7.42272e-07
-8.4661e-07
-6.14218e-07
-4.48498e-07
-4.09243e-07
-4.8582e-07
-7.10085e-07
-9.94367e-07
-1.35894e-06
-1.89195e-06
-2.00207e-06
-2.14475e-06
-2.05172e-06
-1.78585e-06
-1.67137e-06
-1.48414e-06
-1.04054e-06
-4.69414e-07
-3.18402e-09
-2.22134e-07
-8.65192e-07
-1.02878e-06
-1.03171e-06
-1.04778e-06
-1.11219e-06
-1.20778e-06
-1.33402e-06
-1.47869e-06
-1.61412e-06
-1.82474e-06
-1.82721e-06
-1.80856e-06
-1.62439e-06
-1.47715e-06
-1.25232e-06
-9.91491e-07
-6.45923e-07
-2.32767e-07
-1.53803e-07
1.21639e-07
2.05279e-07
-7.23445e-08
-4.50575e-07
-9.05388e-07
-1.33547e-06
-1.66961e-06
-1.89552e-06
-1.96031e-06
-1.91405e-06
-1.79953e-06
-1.50971e-06
-1.32105e-06
-9.03609e-07
-8.04511e-07
-6.87278e-07
-5.75858e-07
-5.4877e-07
-5.39948e-07
-3.58512e-07
)
;

boundaryField
{
    movingWall
    {
        type            calculated;
        value           nonuniform List<scalar> 
20
(
1.21639e-07
2.05279e-07
-7.23445e-08
-4.50575e-07
-9.05388e-07
-1.33547e-06
-1.66961e-06
-1.89552e-06
-1.96031e-06
-1.91405e-06
-1.79953e-06
-1.50971e-06
-1.32105e-06
-9.03609e-07
-8.04511e-07
-6.87278e-07
-5.75858e-07
-5.4877e-07
-5.39948e-07
-3.58512e-07
)
;
    }
    fixedWalls
    {
        type            calculated;
        value           nonuniform List<scalar> 
60
(
-1.57118e-07
-2.15397e-07
-1.7757e-07
-4.6511e-08
1.40551e-07
3.409e-07
5.32806e-07
6.97481e-07
8.35866e-07
9.27294e-07
9.83128e-07
9.71029e-07
9.23324e-07
8.0636e-07
5.82184e-07
3.98658e-07
6.32921e-09
-1.36307e-07
-2.22134e-07
1.21639e-07
-9.97777e-08
-2.15911e-08
1.41484e-06
8.96705e-06
1.62702e-05
1.42364e-05
6.53012e-06
2.94132e-06
1.13716e-06
4.81252e-07
2.03941e-07
1.19742e-07
1.47115e-07
1.49055e-07
1.86117e-07
1.56007e-07
1.04206e-07
-3.18402e-09
-1.53803e-07
-3.58512e-07
-1.57118e-07
-1.77881e-07
-9.01137e-08
1.18474e-07
4.3691e-07
8.44189e-07
1.28799e-06
1.75912e-06
2.34122e-06
3.17503e-06
3.74834e-06
4.01556e-06
4.38051e-06
4.48304e-06
4.31053e-06
3.91951e-06
2.7936e-06
1.10363e-06
4.46415e-08
-9.97777e-08
)
;
    }
    frontAndBack
    {
        type            empty;
    }
}


// ************************************************************************* //
