/*--------------------------------*- C++ -*----------------------------------*\
| =========                 |                                                 |
| \\      /  F ield         | OpenFOAM: The Open Source CFD Toolbox           |
|  \\    /   O peration     | Version:  2312                                  |
|   \\  /    A nd           | Website:  www.openfoam.com                      |
|    \\/     M anipulation  |                                                 |
\*---------------------------------------------------------------------------*/
FoamFile
{
    version     2.0;
    format      ascii;
    arch        "LSB;label=32;scalar=64";
    class       volScalarField;
    location    "2";
    object      kTotal;
}
// * * * * * * * * * * * * * * * * * * * * * * * * * * * * * * * * * * * * * //

dimensions      [0 2 -2 0 0 0 0];

internalField   nonuniform List<scalar> 
400
(
0.000130436
0.000208533
0.000313807
0.00042817
0.000553878
0.000692617
0.000838589
0.000978183
0.00109712
0.00118518
0.00123078
0.00124519
0.0012159
0.00114662
0.00103186
0.000858039
0.000629755
0.0003816
0.000199785
0.000130356
0.000193061
0.000311612
0.000417077
0.00051076
0.000607249
0.000711091
0.000821412
0.000939804
0.00107659
0.00122664
0.00138226
0.00155739
0.00174604
0.00188847
0.00194866
0.00186312
0.00152558
0.00097554
0.000410568
0.000179069
0.000303206
0.000487628
0.000627221
0.000718524
0.000792455
0.000873255
0.000990279
0.00116122
0.00139687
0.00169565
0.0019745
0.0021662
0.00229684
0.0024208
0.00255818
0.00262144
0.00259042
0.00212
0.000950884
0.00030049
0.00041848
0.000648146
0.000831443
0.000959327
0.00106769
0.00119402
0.00138252
0.0016596
0.00197049
0.00212279
0.00217715
0.00220267
0.00226421
0.00236535
0.00253026
0.00272737
0.00293876
0.00305288
0.00236755
0.000859245
0.000532355
0.000786159
0.00100739
0.0011702
0.00132214
0.00150887
0.0017728
0.00202426
0.00210166
0.00208816
0.002004
0.00190557
0.00187922
0.00195337
0.00215052
0.00243956
0.00289555
0.00333609
0.00354817
0.00233265
0.00064027
0.000894718
0.00114632
0.0013414
0.00153356
0.00176686
0.00202535
0.00211864
0.00208116
0.00189459
0.00167192
0.00161277
0.00161651
0.00175076
0.00193445
0.00221424
0.00263395
0.00333655
0.00406711
0.00424307
0.000738658
0.000971888
0.00124471
0.0014678
0.00169245
0.00194855
0.00213028
0.00215348
0.0019883
0.00163115
0.00148597
0.00145599
0.00148767
0.0016232
0.00181742
0.00211536
0.00252732
0.00313806
0.00425519
0.00561381
0.000824419
0.00101911
0.00130346
0.00154732
0.00179316
0.00205116
0.00217352
0.00214079
0.00184701
0.00148569
0.00135719
0.00132274
0.00132108
0.00140836
0.00164152
0.00202254
0.00248749
0.00311459
0.00425821
0.00639971
0.000895724
0.00104203
0.00132706
0.00158499
0.00184509
0.00209802
0.00220237
0.00214197
0.00180806
0.00140264
0.00124724
0.00119138
0.00116816
0.00123078
0.00150787
0.00198507
0.00248499
0.00315912
0.00429301
0.00692885
0.000949589
0.0010405
0.00132041
0.00157942
0.00184037
0.0020941
0.00222145
0.00216538
0.00184646
0.00142354
0.00121567
0.00111747
0.00108227
0.00116444
0.0014605
0.00200197
0.00258138
0.00326671
0.00441976
0.00733374
0.000986337
0.00103192
0.00130035
0.00155792
0.00181795
0.00207144
0.00223281
0.00221971
0.00196474
0.00152867
0.00126487
0.00114015
0.00111136
0.00119712
0.00152196
0.00217064
0.00274029
0.00335685
0.00459974
0.00772565
0.00100449
0.00101336
0.00126475
0.00151676
0.00177196
0.00202479
0.00222587
0.00228669
0.00215567
0.00180654
0.00145114
0.0012698
0.001266
0.00138648
0.00176392
0.00240916
0.00288805
0.0033957
0.00474642
0.00814155
0.00100097
0.000986084
0.00122111
0.0014679
0.00171574
0.00196539
0.00219506
0.00232516
0.00229566
0.00215443
0.00187669
0.00163806
0.00163341
0.00175693
0.00211773
0.00261316
0.00295219
0.00339601
0.00486452
0.00863008
0.000986326
0.000954842
0.00117545
0.00141859
0.00166016
0.00190322
0.00213709
0.00231905
0.00239018
0.00235611
0.00224755
0.00208538
0.00205863
0.00214078
0.00236141
0.00268602
0.00294234
0.00321766
0.00491473
0.00922161
0.000952339
0.000916598
0.00113055
0.00137437
0.00161304
0.00184951
0.00207931
0.00228256
0.00240165
0.00243458
0.00240594
0.00233086
0.00228545
0.00231561
0.00242352
0.00262558
0.00274188
0.00286261
0.00492697
0.00996638
0.000927112
0.000888522
0.00110227
0.00134517
0.00157719
0.00180287
0.00202031
0.00221524
0.00235991
0.00241957
0.00240799
0.00236618
0.00230434
0.00229446
0.00232629
0.00240127
0.0024105
0.00250012
0.0049114
0.0109262
0.000869716
0.000848504
0.00106573
0.00129811
0.00151665
0.00172397
0.00191875
0.00209285
0.00223399
0.00231642
0.00232148
0.00229445
0.00223446
0.00217839
0.00217248
0.00220357
0.00220597
0.00236837
0.00514111
0.0121891
0.000948124
0.000894306
0.00113573
0.00134854
0.00154843
0.00174001
0.00192066
0.00207781
0.0022053
0.00229465
0.00233014
0.00232076
0.00229045
0.00224922
0.00221584
0.00222406
0.00226436
0.00282629
0.00607503
0.0140683
0.00136382
0.00162737
0.00221084
0.00260766
0.00291017
0.00316806
0.00339087
0.00358636
0.00375127
0.0038928
0.00401429
0.00412101
0.00422251
0.00436402
0.00450501
0.00479967
0.00517771
0.00670919
0.0090994
0.0171208
0.00837458
0.0130174
0.0167386
0.0188291
0.0200013
0.0206857
0.0210508
0.0212354
0.021244
0.0212135
0.0211419
0.0210505
0.0209709
0.0209224
0.0209392
0.0210148
0.0212903
0.0213773
0.0226337
0.0205963
)
;

boundaryField
{
    movingWall
    {
        type            calculated;
        value           nonuniform List<scalar> 
20
(
0.00837458
0.0130174
0.0167386
0.0188291
0.0200013
0.0206857
0.0210508
0.0212354
0.021244
0.0212135
0.0211419
0.0210505
0.0209709
0.0209224
0.0209392
0.0210148
0.0212903
0.0213773
0.0226337
0.0205963
)
;
    }
    fixedWalls
    {
        type            calculated;
        value           nonuniform List<scalar> 
60
(
0.000130436
0.000193061
0.000303206
0.00041848
0.000532355
0.00064027
0.000738658
0.000824419
0.000895724
0.000949589
0.000986337
0.00100449
0.00100097
0.000986326
0.000952339
0.000927112
0.000869716
0.000948124
0.00136382
0.00837458
0.000130356
0.000179069
0.00030049
0.000859245
0.00233265
0.00424307
0.00561381
0.00639971
0.00692885
0.00733374
0.00772565
0.00814155
0.00863008
0.00922161
0.00996638
0.0109262
0.0121891
0.0140683
0.0171208
0.0205963
0.000130436
0.000208533
0.000313807
0.00042817
0.000553878
0.000692617
0.000838589
0.000978183
0.00109712
0.00118518
0.00123078
0.00124519
0.0012159
0.00114662
0.00103186
0.000858039
0.000629755
0.0003816
0.000199785
0.000130356
)
;
    }
    frontAndBack
    {
        type            empty;
    }
}


// ************************************************************************* //
