/*--------------------------------*- C++ -*----------------------------------*\
| =========                 |                                                 |
| \\      /  F ield         | OpenFOAM: The Open Source CFD Toolbox           |
|  \\    /   O peration     | Version:  2312                                  |
|   \\  /    A nd           | Website:  www.openfoam.com                      |
|    \\/     M anipulation  |                                                 |
\*---------------------------------------------------------------------------*/
FoamFile
{
    version     2.0;
    format      ascii;
    arch        "LSB;label=32;scalar=64";
    class       volVectorField;
    location    "2";
    object      kU;
}
// * * * * * * * * * * * * * * * * * * * * * * * * * * * * * * * * * * * * * //

dimensions      [0 3 -3 0 0 0 0];

internalField   nonuniform List<vector> 
400
(
(-1.68931e-08 1.3695e-08 0)
(-2.44329e-07 1.10421e-07 0)
(-9.89408e-07 2.52162e-07 0)
(-2.3415e-06 4.03831e-07 0)
(-4.45196e-06 6.1343e-07 0)
(-7.56019e-06 9.36344e-07 0)
(-1.18385e-05 1.35881e-06 0)
(-1.71852e-05 1.78299e-06 0)
(-2.32386e-05 2.10168e-06 0)
(-2.93839e-05 2.19631e-06 0)
(-3.44217e-05 1.87448e-06 0)
(-3.7424e-05 1.00178e-06 0)
(-3.68301e-05 -3.90714e-07 0)
(-3.21777e-05 -1.91691e-06 0)
(-2.40772e-05 -2.95456e-06 0)
(-1.43928e-05 -3.03898e-06 0)
(-6.01667e-06 -2.08207e-06 0)
(-1.20239e-06 -7.80943e-07 0)
(5.23272e-08 -1.24059e-07 0)
(7.83294e-08 5.52717e-08 0)
(-1.29827e-07 2.38473e-07 0)
(-8.88203e-07 8.74715e-07 0)
(-2.47493e-06 1.54005e-06 0)
(-4.84231e-06 2.11534e-06 0)
(-8.07277e-06 2.75196e-06 0)
(-1.22458e-05 3.48391e-06 0)
(-1.7355e-05 4.24178e-06 0)
(-2.35756e-05 5.0297e-06 0)
(-3.15351e-05 5.85138e-06 0)
(-4.13985e-05 6.30133e-06 0)
(-5.25851e-05 5.58135e-06 0)
(-6.43822e-05 2.97994e-06 0)
(-7.44611e-05 -1.95951e-06 0)
(-7.7567e-05 -8.81668e-06 0)
(-7.06165e-05 -1.58665e-05 0)
(-5.30959e-05 -1.95629e-05 0)
(-2.86026e-05 -1.61483e-05 0)
(-8.3645e-06 -7.52843e-06 0)
(-4.98764e-07 -1.25843e-06 0)
(9.9121e-08 8.69143e-08 0)
(-3.78186e-07 1.06893e-06 0)
(-1.98857e-06 2.88103e-06 0)
(-4.70587e-06 4.57505e-06 0)
(-8.20255e-06 5.82796e-06 0)
(-1.23666e-05 6.86214e-06 0)
(-1.73328e-05 7.86474e-06 0)
(-2.39366e-05 9.21554e-06 0)
(-3.3686e-05 1.13716e-05 0)
(-4.8651e-05 1.45182e-05 0)
(-7.05471e-05 1.78849e-05 0)
(-9.59189e-05 1.84702e-05 0)
(-0.000117993 1.28502e-05 0)
(-0.000133035 3.38245e-07 0)
(-0.000140837 -1.73887e-05 0)
(-0.000138861 -3.74866e-05 0)
(-0.000121279 -5.34274e-05 0)
(-8.94441e-05 -5.82215e-05 0)
(-4.24908e-05 -3.96316e-05 0)
(-4.85391e-06 -8.68497e-06 0)
(1.88611e-07 1.63461e-08 0)
(-6.63322e-07 2.67356e-06 0)
(-3.11474e-06 6.02917e-06 0)
(-6.94762e-06 9.16317e-06 0)
(-1.17991e-05 1.16558e-05 0)
(-1.76365e-05 1.37746e-05 0)
(-2.50229e-05 1.60776e-05 0)
(-3.58875e-05 1.98651e-05 0)
(-5.35165e-05 2.66354e-05 0)
(-7.93559e-05 3.55609e-05 0)
(-0.00010531 4.00999e-05 0)
(-0.000128067 3.66442e-05 0)
(-0.000145015 2.42649e-05 0)
(-0.000157169 4.35818e-06 0)
(-0.000164821 -2.18377e-05 0)
(-0.00017058 -5.29854e-05 0)
(-0.000168157 -8.58499e-05 0)
(-0.000150932 -0.000111764 0)
(-0.000108922 -0.000111591 0)
(-3.86053e-05 -5.5776e-05 0)
(-2.31428e-07 -3.37754e-06 0)
(-9.0068e-07 5.08672e-06 0)
(-3.96008e-06 1.01114e-05 0)
(-8.58615e-06 1.48754e-05 0)
(-1.44053e-05 1.88846e-05 0)
(-2.16967e-05 2.27466e-05 0)
(-3.15897e-05 2.77101e-05 0)
(-4.68671e-05 3.62907e-05 0)
(-6.81254e-05 4.82629e-05 0)
(-9.00846e-05 5.74912e-05 0)
(-0.000110039 5.91833e-05 0)
(-0.000121976 4.92588e-05 0)
(-0.000125762 3.02136e-05 0)
(-0.000128139 6.63139e-06 0)
(-0.00013299 -2.00763e-05 0)
(-0.000142643 -5.24548e-05 0)
(-0.000155218 -9.33622e-05 0)
(-0.000168736 -0.000145349 0)
(-0.000157322 -0.000185074 0)
(-0.000100797 -0.000160641 0)
(-1.26982e-05 -3.22522e-05 0)
(-1.0278e-06 8.15098e-06 0)
(-4.31285e-06 1.46218e-05 0)
(-9.24477e-06 2.10306e-05 0)
(-1.54699e-05 2.67639e-05 0)
(-2.35401e-05 3.29234e-05 0)
(-3.4819e-05 4.15075e-05 0)
(-5.09769e-05 5.47235e-05 0)
(-6.86982e-05 6.81082e-05 0)
(-8.533e-05 7.58175e-05 0)
(-9.30027e-05 6.87469e-05 0)
(-9.14757e-05 5.00373e-05 0)
(-9.16107e-05 2.92923e-05 0)
(-9.03117e-05 6.32598e-06 0)
(-9.41e-05 -1.86786e-05 0)
(-0.000100387 -4.78779e-05 0)
(-0.000113284 -8.64022e-05 0)
(-0.000133881 -0.000142855 0)
(-0.000156858 -0.000225869 0)
(-0.000140411 -0.000277325 0)
(-5.63127e-05 -0.000151435 0)
(-1.01685e-06 1.15648e-05 0)
(-4.12321e-06 1.89754e-05 0)
(-8.81814e-06 2.68558e-05 0)
(-1.47896e-05 3.43399e-05 0)
(-2.26708e-05 4.29971e-05 0)
(-3.34946e-05 5.51598e-05 0)
(-4.66329e-05 7.05582e-05 0)
(-6.00422e-05 8.47862e-05 0)
(-6.84202e-05 8.63863e-05 0)
(-6.51229e-05 6.80109e-05 0)
(-6.34729e-05 4.83274e-05 0)
(-6.16836e-05 2.62118e-05 0)
(-5.99929e-05 3.13027e-06 0)
(-6.15602e-05 -2.05654e-05 0)
(-6.4617e-05 -4.70749e-05 0)
(-7.23162e-05 -8.09529e-05 0)
(-8.86503e-05 -0.00013248 0)
(-0.000115 -0.000221262 0)
(-0.00013568 -0.000359504 0)
(-8.89493e-05 -0.000344383 0)
(-8.65608e-07 1.49364e-05 0)
(-3.46566e-06 2.26524e-05 0)
(-7.43799e-06 3.16653e-05 0)
(-1.24981e-05 4.06476e-05 0)
(-1.91221e-05 5.14126e-05 0)
(-2.76949e-05 6.60155e-05 0)
(-3.64607e-05 8.20139e-05 0)
(-4.42047e-05 9.50761e-05 0)
(-4.51688e-05 8.84115e-05 0)
(-4.08194e-05 6.61704e-05 0)
(-3.88149e-05 4.50418e-05 0)
(-3.71159e-05 2.23128e-05 0)
(-3.54495e-05 -1.08293e-07 0)
(-3.53581e-05 -2.18952e-05 0)
(-3.75627e-05 -4.73137e-05 0)
(-4.22939e-05 -8.04226e-05 0)
(-5.11263e-05 -0.000126537 0)
(-7.20702e-05 -0.000210611 0)
(-0.00010087 -0.000385771 0)
(-9.07822e-05 -0.000546837 0)
(-6.00299e-07 1.7884e-05 0)
(-2.50007e-06 2.53446e-05 0)
(-5.40943e-06 3.50007e-05 0)
(-9.06739e-06 4.5001e-05 0)
(-1.3658e-05 5.71199e-05 0)
(-1.89909e-05 7.27237e-05 0)
(-2.3253e-05 8.87039e-05 0)
(-2.56498e-05 0.000100206 0)
(-2.32868e-05 8.95536e-05 0)
(-1.91405e-05 6.41315e-05 0)
(-1.7204e-05 4.20207e-05 0)
(-1.6241e-05 1.99499e-05 0)
(-1.57114e-05 -9.96612e-07 0)
(-1.57763e-05 -2.13451e-05 0)
(-1.74233e-05 -4.6945e-05 0)
(-2.10286e-05 -8.25185e-05 0)
(-2.54978e-05 -0.000126691 0)
(-3.87999e-05 -0.000204036 0)
(-6.34796e-05 -0.000388029 0)
(-7.3217e-05 -0.000712191 0)
(-2.6305e-07 2.00571e-05 0)
(-1.38264e-06 2.6773e-05 0)
(-3.07351e-06 3.66147e-05 0)
(-5.06292e-06 4.68329e-05 0)
(-7.23808e-06 5.91152e-05 0)
(-9.14657e-06 7.45775e-05 0)
(-9.24134e-06 9.03444e-05 0)
(-6.96452e-06 0.000100657 0)
(-2.8529e-06 9.03339e-05 0)
(1.99981e-07 6.45877e-05 0)
(1.4908e-06 4.11281e-05 0)
(1.63647e-06 1.93784e-05 0)
(1.02099e-06 -4.16816e-07 0)
(4.8811e-07 -2.01422e-05 0)
(9.65272e-09 -4.56796e-05 0)
(-2.11071e-06 -8.29951e-05 0)
(-5.95998e-06 -0.000129572 0)
(-1.60375e-05 -0.00020354 0)
(-3.55215e-05 -0.000389902 0)
(-5.44125e-05 -0.000830874 0)
(9.81995e-08 2.12743e-05 0)
(-2.93611e-07 2.72749e-05 0)
(-7.89564e-07 3.68565e-05 0)
(-1.15927e-06 4.68209e-05 0)
(-1.05332e-06 5.85355e-05 0)
(1.26307e-07 7.27828e-05 0)
(3.62179e-06 8.75533e-05 0)
(9.78113e-06 9.74124e-05 0)
(1.60597e-05 9.04196e-05 0)
(1.84183e-05 6.57007e-05 0)
(1.86803e-05 4.19998e-05 0)
(1.80559e-05 2.06796e-05 0)
(1.71153e-05 1.11538e-06 0)
(1.66013e-05 -1.86041e-05 0)
(1.68492e-05 -4.43917e-05 0)
(1.64661e-05 -8.4961e-05 0)
(1.19215e-05 -0.000130258 0)
(1.13273e-06 -0.00019801 0)
(-1.61908e-05 -0.000391642 0)
(-4.4671e-05 -0.000923562 0)
(4.02585e-07 2.14415e-05 0)
(6.48348e-07 2.68059e-05 0)
(1.19151e-06 3.57392e-05 0)
(2.22e-06 4.50095e-05 0)
(4.21218e-06 5.55601e-05 0)
(7.82603e-06 6.79445e-05 0)
(1.40416e-05 8.11377e-05 0)
(2.32073e-05 9.07314e-05 0)
(3.2593e-05 8.87348e-05 0)
(3.69108e-05 6.95108e-05 0)
(3.57792e-05 4.43277e-05 0)
(3.41275e-05 2.2747e-05 0)
(3.393e-05 3.62864e-06 0)
(3.39795e-05 -1.68862e-05 0)
(3.5109e-05 -4.41017e-05 0)
(3.49405e-05 -8.38703e-05 0)
(2.74882e-05 -0.000124565 0)
(1.38751e-05 -0.000184191 0)
(-3.45045e-06 -0.000385082 0)
(-4.26248e-05 -0.00100392 0)
(6.14108e-07 2.06105e-05 0)
(1.3493e-06 2.55148e-05 0)
(2.7038e-06 3.36528e-05 0)
(4.83344e-06 4.20537e-05 0)
(8.22159e-06 5.1161e-05 0)
(1.35142e-05 6.14439e-05 0)
(2.15168e-05 7.24824e-05 0)
(3.24387e-05 8.0922e-05 0)
(4.42143e-05 8.11976e-05 0)
(5.37804e-05 7.09202e-05 0)
(5.58531e-05 4.98265e-05 0)
(5.34117e-05 2.68908e-05 0)
(5.36203e-05 6.63321e-06 0)
(5.31723e-05 -1.50222e-05 0)
(5.33322e-05 -4.18785e-05 0)
(4.9718e-05 -7.60896e-05 0)
(3.83918e-05 -0.000110342 0)
(2.22929e-05 -0.000164208 0)
(4.12479e-06 -0.000370207 0)
(-4.61252e-05 -0.00108631 0)
(6.95344e-07 1.92097e-05 0)
(1.75956e-06 2.37051e-05 0)
(3.68227e-06 3.0976e-05 0)
(6.62919e-06 3.845e-05 0)
(1.09962e-05 4.61174e-05 0)
(1.73229e-05 5.43332e-05 0)
(2.6206e-05 6.27873e-05 0)
(3.78383e-05 6.96111e-05 0)
(5.08767e-05 7.10824e-05 0)
(6.26888e-05 6.47646e-05 0)
(7.01829e-05 5.04535e-05 0)
(7.09648e-05 3.05829e-05 0)
(7.07346e-05 1.06024e-05 0)
(6.86484e-05 -1.04347e-05 0)
(6.47942e-05 -3.38915e-05 0)
(5.75574e-05 -6.16243e-05 0)
(4.44173e-05 -9.08821e-05 0)
(2.59265e-05 -0.000133998 0)
(8.34025e-06 -0.000344833 0)
(-5.32265e-05 -0.00117734 0)
(6.28461e-07 1.72015e-05 0)
(1.81016e-06 2.1409e-05 0)
(4.08717e-06 2.79194e-05 0)
(7.6233e-06 3.45253e-05 0)
(1.26845e-05 4.09111e-05 0)
(1.96533e-05 4.7321e-05 0)
(2.89234e-05 5.35358e-05 0)
(4.05687e-05 5.85247e-05 0)
(5.32625e-05 5.96092e-05 0)
(6.51583e-05 5.53334e-05 0)
(7.40757e-05 4.53653e-05 0)
(7.76836e-05 3.05559e-05 0)
(7.73024e-05 1.3697e-05 0)
(7.41283e-05 -3.91752e-06 0)
(6.80705e-05 -2.27891e-05 0)
(5.95595e-05 -4.43989e-05 0)
(4.50691e-05 -6.63414e-05 0)
(2.60971e-05 -9.91952e-05 0)
(1.34804e-05 -0.000310438 0)
(-6.0773e-05 -0.00128395 0)
(2.99738e-07 1.60269e-05 0)
(1.52246e-06 1.95307e-05 0)
(3.96263e-06 2.51968e-05 0)
(7.84689e-06 3.07463e-05 0)
(1.33571e-05 3.57743e-05 0)
(2.07256e-05 4.0504e-05 0)
(3.01223e-05 4.48046e-05 0)
(4.13512e-05 4.79789e-05 0)
(5.34478e-05 4.86707e-05 0)
(6.43114e-05 4.54116e-05 0)
(7.22373e-05 3.81219e-05 0)
(7.63583e-05 2.77022e-05 0)
(7.57974e-05 1.52109e-05 0)
(7.24989e-05 2.05708e-06 0)
(6.60478e-05 -1.18395e-05 0)
(5.70081e-05 -2.71936e-05 0)
(4.23809e-05 -4.2644e-05 0)
(2.73925e-05 -7.06896e-05 0)
(2.6304e-05 -0.000269511 0)
(-6.23265e-05 -0.00142243 0)
(-3.23344e-07 1.26945e-05 0)
(3.28985e-07 1.59667e-05 0)
(2.71008e-06 2.10729e-05 0)
(6.78064e-06 2.56818e-05 0)
(1.25523e-05 2.95652e-05 0)
(2.01119e-05 3.28629e-05 0)
(2.94156e-05 3.55916e-05 0)
(4.01285e-05 3.74253e-05 0)
(5.14817e-05 3.77352e-05 0)
(6.1849e-05 3.56416e-05 0)
(6.92222e-05 3.06865e-05 0)
(7.34551e-05 2.3655e-05 0)
(7.34767e-05 1.52143e-05 0)
(6.98365e-05 6.17596e-06 0)
(6.40065e-05 -3.32273e-06 0)
(5.6192e-05 -1.41596e-05 0)
(4.25015e-05 -2.60481e-05 0)
(3.68751e-05 -5.54986e-05 0)
(4.8169e-05 -0.000243251 0)
(-4.7152e-05 -0.00162313 0)
(-1.53919e-06 2.09327e-05 0)
(-1.13639e-06 2.09379e-05 0)
(1.49286e-06 2.42995e-05 0)
(5.76721e-06 2.59073e-05 0)
(1.19665e-05 2.72633e-05 0)
(2.01856e-05 2.85447e-05 0)
(3.02398e-05 2.96717e-05 0)
(4.15314e-05 3.02753e-05 0)
(5.32831e-05 3.00041e-05 0)
(6.43778e-05 2.84912e-05 0)
(7.31817e-05 2.54039e-05 0)
(7.86572e-05 2.10753e-05 0)
(8.05615e-05 1.59131e-05 0)
(7.90268e-05 1.02825e-05 0)
(7.40309e-05 4.32956e-06 0)
(6.80448e-05 -3.4267e-06 0)
(5.51471e-05 -1.45252e-05 0)
(7.33758e-05 -5.36539e-05 0)
(6.86461e-05 -0.000231185 0)
(3.85837e-05 -0.00188528 0)
(-4.5528e-06 1.00671e-05 0)
(-8.09229e-06 7.67235e-06 0)
(7.78023e-07 1.2663e-05 0)
(1.65013e-05 1.98808e-05 0)
(3.57549e-05 2.38132e-05 0)
(5.77791e-05 2.57612e-05 0)
(8.1273e-05 2.69438e-05 0)
(0.000105547 2.7763e-05 0)
(0.000129733 2.8021e-05 0)
(0.000153211 2.75214e-05 0)
(0.000175118 2.61315e-05 0)
(0.000194636 2.38664e-05 0)
(0.000211123 2.08255e-05 0)
(0.000226655 1.69971e-05 0)
(0.000236881 1.2141e-05 0)
(0.00025422 3.23304e-06 0)
(0.000247651 -1.01625e-05 0)
(0.000356844 -7.13923e-05 0)
(0.000134966 -0.000191811 0)
(0.000613129 -0.00193549 0)
(0.000169226 0.000389743 0)
(0.000395954 0.0004532 0)
(0.000723508 0.000364679 0)
(0.00102345 0.000272348 0)
(0.00126376 0.00021317 0)
(0.00146383 0.000174657 0)
(0.0016372 0.000147168 0)
(0.00179155 0.000126553 0)
(0.00192343 0.000110118 0)
(0.00204275 9.70996e-05 0)
(0.00214806 8.61122e-05 0)
(0.00224002 7.65025e-05 0)
(0.00231971 6.77715e-05 0)
(0.00238964 5.92591e-05 0)
(0.00244349 4.99168e-05 0)
(0.00250636 3.68163e-05 0)
(0.00246407 2.20959e-05 0)
(0.00269567 -3.3051e-05 0)
(0.00142282 3.911e-05 0)
(0.00389821 -0.00101146 0)
)
;

boundaryField
{
    movingWall
    {
        type            calculated;
        value           nonuniform List<vector> 
20
(
(0.00418735 0 0)
(0.00650881 0 0)
(0.00836926 0 0)
(0.00941432 0 0)
(0.0100002 0 0)
(0.0103422 0 0)
(0.0105246 0 0)
(0.0106167 0 0)
(0.010621 0 0)
(0.0106058 0 0)
(0.0105701 0 0)
(0.0105245 0 0)
(0.0104848 0 0)
(0.0104608 0 0)
(0.0104692 0 0)
(0.010507 0 0)
(0.0106449 0 0)
(0.0106884 0 0)
(0.0113166 0 0)
(0.010298 0 0)
)
;
    }
    fixedWalls
    {
        type            calculated;
        value           uniform (0 0 0);
    }
    frontAndBack
    {
        type            empty;
    }
}


// ************************************************************************* //
