/*--------------------------------*- C++ -*----------------------------------*\
| =========                 |                                                 |
| \\      /  F ield         | OpenFOAM: The Open Source CFD Toolbox           |
|  \\    /   O peration     | Version:  2312                                  |
|   \\  /    A nd           | Website:  www.openfoam.com                      |
|    \\/     M anipulation  |                                                 |
\*---------------------------------------------------------------------------*/
FoamFile
{
    version     2.0;
    format      ascii;
    arch        "LSB;label=32;scalar=64";
    class       volTensorField;
    location    "2";
    object      kU2;
}
// * * * * * * * * * * * * * * * * * * * * * * * * * * * * * * * * * * * * * //

dimensions      [0 4 -4 0 0 0 0];

internalField   nonuniform List<tensor> 
400
(
(4.42619e-12 -3.60997e-12 -0 -3.58825e-12 2.92654e-12 0 -0 0 0)
(5.74092e-10 -2.59964e-10 -0 -2.59453e-10 1.17487e-10 0 -0 0 0)
(6.24438e-09 -1.59518e-09 -0 -1.59145e-09 4.06549e-10 0 -0 0 0)
(2.56077e-08 -4.42238e-09 -0 -4.41649e-09 7.62715e-10 0 -0 0 0)
(7.14991e-08 -9.84309e-09 -0 -9.85177e-09 1.35627e-09 0 -0 0 0)
(1.64727e-07 -2.03447e-08 -0 -2.04018e-08 2.51974e-09 0 -0 0 0)
(3.33291e-07 -3.81159e-08 -0 -3.82549e-08 4.37491e-09 0 -0 0 0)
(6.01432e-07 -6.2119e-08 -0 -6.23996e-08 6.44496e-09 0 -0 0 0)
(9.78996e-07 -8.79622e-08 -0 -8.85397e-08 7.95524e-09 0 -0 0 0)
(1.44608e-06 -1.07069e-07 -0 -1.08088e-07 8.0029e-09 0 -0 0 0)
(1.90767e-06 -1.02587e-07 -0 -1.03885e-07 5.58653e-09 0 -0 0 0)
(2.22607e-06 -5.84566e-08 -0 -5.95882e-08 1.56479e-09 0 -0 0 0)
(2.20528e-06 2.41571e-08 -0 2.33948e-08 2.56272e-10 -0 -0 -0 0)
(1.78334e-06 1.06836e-07 -0 1.06238e-07 6.36453e-09 -0 -0 -0 0)
(1.10868e-06 1.36553e-07 -0 1.36048e-07 1.67566e-08 -0 -0 -0 0)
(4.75963e-07 1.00769e-07 -0 1.00497e-07 2.1277e-08 -0 -0 -0 0)
(1.13294e-07 3.92723e-08 -0 3.92055e-08 1.35902e-08 -0 -0 -0 0)
(7.48982e-09 4.86913e-09 -0 4.86457e-09 3.16246e-09 -0 -0 -0 0)
(2.64223e-11 -6.46972e-11 0 -6.26427e-11 1.53386e-10 -0 0 -0 0)
(9.2946e-11 6.56272e-11 0 6.55856e-11 4.63086e-11 0 0 0 0)
(1.74752e-10 -3.21489e-10 -0 -3.20993e-10 5.90526e-10 0 -0 0 0)
(5.06011e-09 -4.98781e-09 -0 -4.98327e-09 4.91207e-09 0 -0 0 0)
(2.93222e-08 -1.82737e-08 -0 -1.8246e-08 1.1371e-08 0 -0 0 0)
(9.1584e-08 -4.00738e-08 -0 -4.00081e-08 1.75061e-08 0 -0 0 0)
(2.13988e-07 -7.30216e-08 -0 -7.29473e-08 2.48926e-08 0 -0 0 0)
(4.20327e-07 -1.19592e-07 -0 -1.19582e-07 3.40237e-08 0 -0 0 0)
(7.3034e-07 -1.78221e-07 -0 -1.78504e-07 4.35594e-08 0 -0 0 0)
(1.176e-06 -2.49824e-07 -0 -2.50891e-07 5.32983e-08 0 -0 0 0)
(1.83242e-06 -3.37643e-07 -0 -3.40008e-07 6.26502e-08 0 -0 0 0)
(2.76567e-06 -4.1732e-07 -0 -4.20967e-07 6.35209e-08 0 -0 0 0)
(3.9541e-06 -4.15183e-07 -0 -4.19686e-07 4.40673e-08 0 -0 0 0)
(5.25632e-06 -2.37886e-07 -0 -2.4329e-07 1.10106e-08 0 -0 0 0)
(6.26815e-06 1.71331e-07 -0 1.64951e-07 4.50872e-09 -0 -0 -0 0)
(6.28581e-06 7.20963e-07 -0 7.14479e-07 8.19484e-08 -0 -0 -0 0)
(5.04496e-06 1.1389e-06 -0 1.13353e-06 2.55893e-07 -0 -0 -0 0)
(2.97798e-06 1.10093e-06 -0 1.09722e-06 4.0563e-07 -0 -0 -0 0)
(1.05228e-06 5.9624e-07 -0 5.94089e-07 3.36622e-07 -0 -0 -0 0)
(1.40377e-07 1.269e-07 -0 1.26346e-07 1.14216e-07 -0 -0 -0 0)
(1.18856e-09 3.01572e-09 -0 2.99884e-09 7.60894e-09 -0 -0 -0 0)
(1.0762e-10 9.33638e-11 0 9.43666e-11 8.18662e-11 0 0 0 0)
(9.41633e-10 -2.66473e-09 -0 -2.66149e-09 7.53177e-09 0 -0 0 0)
(1.61827e-08 -2.34597e-08 -0 -2.34454e-08 3.39882e-08 0 -0 0 0)
(7.04232e-08 -6.85314e-08 -0 -6.84654e-08 6.66263e-08 0 -0 0 0)
(1.86735e-07 -1.32861e-07 -0 -1.32676e-07 9.43982e-08 0 -0 0 0)
(3.84806e-07 -2.13831e-07 -0 -2.13526e-07 1.18653e-07 0 -0 0 0)
(6.85626e-07 -3.11299e-07 -0 -3.11103e-07 1.41252e-07 0 -0 0 0)
(1.15092e-06 -4.42395e-07 -0 -4.43101e-07 1.70321e-07 0 -0 0 0)
(1.93864e-06 -6.5135e-07 -0 -6.54439e-07 2.1988e-07 0 -0 0 0)
(3.35246e-06 -9.93183e-07 -0 -1.00042e-06 2.9638e-07 0 -0 0 0)
(5.79927e-06 -1.45786e-06 -0 -1.47021e-06 3.69592e-07 0 -0 0 0)
(9.21519e-06 -1.75971e-06 -0 -1.77448e-06 3.3885e-07 0 -0 0 0)
(1.2733e-05 -1.37611e-06 -0 -1.3867e-06 1.49867e-07 0 -0 0 0)
(1.52866e-05 -3.54424e-08 -0 -3.88666e-08 9.01136e-11 0 -0 0 0)
(1.62615e-05 2.00639e-06 -0 2.00776e-06 2.47722e-07 -0 -0 -0 0)
(1.49558e-05 4.03559e-06 -0 4.03741e-06 1.08943e-06 -0 -0 -0 0)
(1.11256e-05 4.8999e-06 -0 4.90118e-06 2.15856e-06 -0 -0 -0 0)
(6.10083e-06 3.97127e-06 -0 3.97119e-06 2.58501e-06 -0 -0 -0 0)
(1.6709e-06 1.56087e-06 -0 1.55847e-06 1.45584e-06 -0 -0 -0 0)
(4.78796e-08 8.66188e-08 -0 8.56696e-08 1.54985e-07 -0 -0 -0 0)
(2.35529e-10 2.24133e-11 0 2.04124e-11 1.94247e-12 0 0 0 0)
(2.09552e-09 -8.45785e-09 -0 -8.44614e-09 3.40899e-08 0 -0 0 0)
(2.98334e-08 -5.77915e-08 -0 -5.77482e-08 1.11866e-07 0 -0 0 0)
(1.15679e-07 -1.52697e-07 -0 -1.52568e-07 2.01391e-07 0 -0 0 0)
(2.89115e-07 -2.8594e-07 -0 -2.85603e-07 2.82466e-07 0 -0 0 0)
(5.80214e-07 -4.53718e-07 -0 -4.53163e-07 3.54367e-07 0 -0 0 0)
(1.04331e-06 -6.7042e-07 -0 -6.70341e-07 4.30755e-07 0 -0 0 0)
(1.84927e-06 -1.02108e-06 -0 -1.02364e-06 5.65206e-07 0 -0 0 0)
(3.418e-06 -1.69278e-06 -0 -1.70115e-06 8.42502e-07 0 -0 0 0)
(6.3307e-06 -2.82093e-06 -0 -2.83691e-06 1.26411e-06 0 -0 0 0)
(1.03824e-05 -3.93504e-06 -0 -3.95339e-06 1.49838e-06 0 -0 0 0)
(1.50071e-05 -4.28016e-06 -0 -4.29404e-06 1.22469e-06 0 -0 0 0)
(1.90609e-05 -3.18386e-06 -0 -3.1894e-06 5.32744e-07 0 -0 0 0)
(2.18081e-05 -6.08174e-07 -0 -6.04724e-07 1.68643e-08 0 -0 0 0)
(2.29671e-05 3.03121e-06 -0 3.04298e-06 4.01615e-07 -0 -0 -0 0)
(2.29923e-05 7.12459e-06 -0 7.14184e-06 2.21303e-06 -0 -0 -0 0)
(2.06998e-05 1.05443e-05 -0 1.0568e-05 5.38321e-06 -0 -0 -0 0)
(1.54261e-05 1.14026e-05 -0 1.14229e-05 8.4436e-06 -0 -0 -0 0)
(7.70354e-06 7.88333e-06 -0 7.89233e-06 8.07653e-06 -0 -0 -0 0)
(1.23333e-06 1.78522e-06 -0 1.78188e-06 2.57924e-06 -0 -0 -0 0)
(9.94235e-11 1.75496e-09 -0 1.45102e-09 2.56125e-08 -0 -0 -0 0)
(3.03388e-09 -1.71598e-08 -0 -1.71343e-08 9.69126e-08 0 -0 0 0)
(3.97271e-08 -1.01522e-07 -0 -1.01436e-07 2.59219e-07 0 -0 0 0)
(1.45735e-07 -2.52667e-07 -0 -2.52485e-07 4.37744e-07 0 -0 0 0)
(3.53087e-07 -4.63289e-07 -0 -4.62877e-07 6.07346e-07 0 -0 0 0)
(7.08609e-07 -7.43432e-07 -0 -7.42898e-07 7.79406e-07 0 -0 0 0)
(1.31469e-06 -1.15248e-06 -0 -1.15323e-06 1.01094e-06 0 -0 0 0)
(2.45886e-06 -1.89833e-06 -0 -1.90397e-06 1.46993e-06 0 -0 0 0)
(4.55409e-06 -3.21293e-06 -0 -3.22631e-06 2.27618e-06 0 -0 0 0)
(7.68156e-06 -4.88442e-06 -0 -4.90231e-06 3.1172e-06 0 -0 0 0)
(1.15675e-05 -6.20686e-06 -0 -6.22147e-06 3.3383e-06 0 -0 0 0)
(1.48615e-05 -5.99828e-06 -0 -6.00166e-06 2.42234e-06 0 -0 0 0)
(1.66512e-05 -4.01069e-06 -0 -4.00034e-06 9.63544e-07 0 -0 0 0)
(1.7552e-05 -9.28483e-07 -0 -9.0834e-07 4.80503e-08 0 -0 0 0)
(1.81954e-05 2.72063e-06 -0 2.74679e-06 4.10707e-07 -0 -0 -0 0)
(1.90124e-05 6.95741e-06 -0 6.99152e-06 2.55849e-06 -0 -0 -0 0)
(1.98217e-05 1.18827e-05 -0 1.19226e-05 7.1473e-06 -0 -0 -0 0)
(1.97058e-05 1.69274e-05 -0 1.69745e-05 1.45812e-05 -0 -0 -0 0)
(1.48128e-05 1.73817e-05 -0 1.74257e-05 2.04478e-05 -0 -0 -0 0)
(5.68727e-06 9.0412e-06 -0 9.06389e-06 1.44091e-05 -0 -0 -0 0)
(1.33289e-07 3.41641e-07 -0 3.3854e-07 8.67735e-07 -0 -0 -0 0)
(3.28352e-09 -2.60729e-08 -0 -2.60399e-08 2.0677e-07 0 -0 0 0)
(4.13906e-08 -1.40431e-07 -0 -1.40326e-07 4.761e-07 0 -0 0 0)
(1.48456e-07 -3.37878e-07 -0 -3.37717e-07 7.68628e-07 0 -0 0 0)
(3.55206e-07 -6.1482e-07 -0 -6.1453e-07 1.06368e-06 0 -0 0 0)
(7.19092e-07 -1.00585e-06 -0 -1.00573e-06 1.40679e-06 0 -0 0 0)
(1.36433e-06 -1.62422e-06 -0 -1.62641e-06 1.93623e-06 0 -0 0 0)
(2.55191e-06 -2.73093e-06 -0 -2.73947e-06 2.93164e-06 0 -0 0 0)
(4.4359e-06 -4.38134e-06 -0 -4.39781e-06 4.34371e-06 0 -0 0 0)
(6.9856e-06 -6.18996e-06 -0 -6.20685e-06 5.49991e-06 0 -0 0 0)
(9.15238e-06 -6.75689e-06 -0 -6.76537e-06 4.99464e-06 0 -0 0 0)
(1.00493e-05 -5.50059e-06 -0 -5.49701e-06 3.00883e-06 0 -0 0 0)
(1.04634e-05 -3.35949e-06 -0 -3.34563e-06 1.07419e-06 0 -0 0 0)
(1.0156e-05 -7.33348e-07 -0 -7.11389e-07 5.13682e-08 0 -0 0 0)
(1.01803e-05 1.99136e-06 -0 2.02076e-06 3.95279e-07 -0 -0 -0 0)
(1.04937e-05 4.96826e-06 -0 5.00481e-06 2.36954e-06 -0 -0 -0 0)
(1.16722e-05 8.85453e-06 -0 8.90245e-06 6.75338e-06 -0 -0 -0 0)
(1.36917e-05 1.45446e-05 -0 1.46094e-05 1.55195e-05 -0 -0 -0 0)
(1.4811e-05 2.12404e-05 -0 2.13272e-05 3.05853e-05 -0 -0 -0 0)
(9.68742e-06 1.90453e-05 -0 1.91336e-05 3.76164e-05 -0 -0 -0 0)
(1.4805e-06 3.95803e-06 -0 3.98132e-06 1.06439e-05 -0 -0 -0 0)
(2.78615e-09 -3.1711e-08 -0 -3.16873e-08 3.60654e-07 0 -0 0 0)
(3.48327e-08 -1.60372e-07 -0 -1.60304e-07 7.38047e-07 0 -0 0 0)
(1.24427e-07 -3.78975e-07 -0 -3.78945e-07 1.15417e-06 0 -0 0 0)
(2.96796e-07 -6.89087e-07 -0 -6.89127e-07 1.59998e-06 0 -0 0 0)
(6.04646e-07 -1.14615e-06 -0 -1.14676e-06 2.17376e-06 0 -0 0 0)
(1.14621e-06 -1.88382e-06 -0 -1.88761e-06 3.10232e-06 0 -0 0 0)
(2.03452e-06 -3.06758e-06 -0 -3.07835e-06 4.64143e-06 0 -0 0 0)
(3.34194e-06 -4.70246e-06 -0 -4.71918e-06 6.64039e-06 0 -0 0 0)
(4.71846e-06 -5.94302e-06 -0 -5.95746e-06 7.50358e-06 0 -0 0 0)
(5.2232e-06 -5.45049e-06 -0 -5.45483e-06 5.6922e-06 0 -0 0 0)
(5.452e-06 -4.15849e-06 -0 -4.15108e-06 3.16622e-06 0 -0 0 0)
(5.26095e-06 -2.25299e-06 -0 -2.23558e-06 9.57385e-07 0 -0 0 0)
(4.86921e-06 -2.77215e-07 -0 -2.54063e-07 1.44644e-08 0 -0 0 0)
(4.69989e-06 1.54307e-06 -0 1.57009e-06 5.15493e-07 -0 -0 -0 0)
(4.62882e-06 3.33966e-06 -0 3.3722e-06 2.43301e-06 -0 -0 -0 0)
(4.98579e-06 5.53787e-06 -0 5.58124e-06 6.19925e-06 -0 -0 -0 0)
(6.27378e-06 9.31227e-06 -0 9.3756e-06 1.39164e-05 -0 -0 -0 0)
(8.49054e-06 1.62419e-05 -0 1.6336e-05 3.12498e-05 -0 -0 -0 0)
(8.69242e-06 2.28983e-05 -0 2.30319e-05 6.06726e-05 -0 -0 -0 0)
(2.81765e-06 1.08265e-05 -0 1.0909e-05 4.19168e-05 -0 -0 -0 0)
(1.81028e-09 -3.12318e-08 -0 -3.1237e-08 5.38916e-07 0 -0 0 0)
(2.34829e-08 -1.53464e-07 -0 -1.5349e-07 1.00308e-06 0 -0 0 0)
(8.45928e-08 -3.59939e-07 -0 -3.60132e-07 1.53235e-06 0 -0 0 0)
(2.01207e-07 -6.53879e-07 -0 -6.54383e-07 2.12661e-06 0 -0 0 0)
(4.06417e-07 -1.09122e-06 -0 -1.09271e-06 2.93392e-06 0 -0 0 0)
(7.45778e-07 -1.7726e-06 -0 -1.77769e-06 4.22529e-06 0 -0 0 0)
(1.22178e-06 -2.73623e-06 -0 -2.74825e-06 6.15483e-06 0 -0 0 0)
(1.82737e-06 -3.91351e-06 -0 -3.93033e-06 8.41725e-06 0 -0 0 0)
(2.221e-06 -4.3333e-06 -0 -4.3473e-06 8.48182e-06 0 -0 0 0)
(2.25751e-06 -3.65458e-06 -0 -3.65954e-06 5.92426e-06 0 -0 0 0)
(2.23581e-06 -2.599e-06 -0 -2.5945e-06 3.01595e-06 0 -0 0 0)
(2.09808e-06 -1.27316e-06 -0 -1.2613e-06 7.65381e-07 0 -0 0 0)
(1.9155e-06 -8.87576e-09 -0 5.8516e-09 -2.71142e-11 -0 -0 0 0)
(1.78692e-06 1.08974e-06 -0 1.10654e-06 6.7481e-07 -0 -0 -0 0)
(1.73086e-06 2.15903e-06 -0 2.18018e-06 2.7195e-06 -0 -0 -0 0)
(1.78245e-06 3.36058e-06 -0 3.38936e-06 6.39019e-06 -0 -0 -0 0)
(2.12136e-06 5.20575e-06 -0 5.25037e-06 1.28842e-05 -0 -0 -0 0)
(3.36691e-06 9.76331e-06 -0 9.83912e-06 2.85314e-05 -0 -0 -0 0)
(4.81512e-06 1.82869e-05 -0 1.84151e-05 6.9937e-05 -0 -0 -0 0)
(2.58702e-06 1.54495e-05 -0 1.55832e-05 9.30615e-05 -0 -0 -0 0)
(8.02773e-10 -2.38682e-08 -0 -2.39161e-08 7.11078e-07 0 -0 0 0)
(1.19663e-08 -1.21158e-07 -0 -1.21309e-07 1.22825e-06 0 -0 0 0)
(4.40032e-08 -2.84257e-07 -0 -2.84714e-07 1.83923e-06 0 -0 0 0)
(1.03539e-07 -5.12836e-07 -0 -5.13859e-07 2.54518e-06 0 -0 0 0)
(2.01867e-07 -8.41899e-07 -0 -8.44239e-07 3.52096e-06 0 -0 0 0)
(3.43755e-07 -1.31032e-06 -0 -1.31637e-06 5.01771e-06 0 -0 0 0)
(4.92198e-07 -1.86466e-06 -0 -1.8776e-06 7.1132e-06 0 -0 0 0)
(6.17728e-07 -2.3951e-06 -0 -2.41328e-06 9.35693e-06 0 -0 0 0)
(6.05817e-07 -2.31328e-06 -0 -2.32978e-06 8.89615e-06 0 -0 0 0)
(5.28032e-07 -1.76015e-06 -0 -1.76921e-06 5.89752e-06 0 -0 0 0)
(4.79706e-07 -1.16988e-06 -0 -1.17168e-06 2.85742e-06 0 -0 0 0)
(4.47248e-07 -5.53082e-07 -0 -5.49383e-07 6.79386e-07 0 -0 0 0)
(4.26591e-07 2.05724e-08 -0 2.70597e-08 1.30496e-09 -0 -0 -0 0)
(4.07989e-07 5.43048e-07 -0 5.52003e-07 7.34736e-07 -0 -0 -0 0)
(4.06324e-07 1.08204e-06 -0 1.09479e-06 2.91542e-06 -0 -0 -0 0)
(4.49744e-07 1.7469e-06 -0 1.76484e-06 6.85501e-06 -0 -0 -0 0)
(5.28496e-07 2.6006e-06 -0 2.62593e-06 1.29216e-05 -0 -0 -0 0)
(9.62672e-07 5.01691e-06 -0 5.06237e-06 2.63823e-05 -0 -0 -0 0)
(1.89451e-06 1.14834e-05 -0 1.15805e-05 7.01939e-05 -0 -0 -0 0)
(1.55751e-06 1.50241e-05 -0 1.51501e-05 0.000146141 -0 -0 -0 0)
(1.46349e-10 -1.10654e-08 -0 -1.11588e-08 8.43717e-07 0 -0 0 0)
(3.67594e-09 -7.08995e-08 -0 -7.11797e-08 1.37287e-06 0 -0 0 0)
(1.43166e-08 -1.69845e-07 -0 -1.70554e-07 2.02336e-06 0 -0 0 0)
(3.24965e-08 -2.99145e-07 -0 -3.00598e-07 2.76714e-06 0 -0 0 0)
(5.70679e-08 -4.63154e-07 -0 -4.66088e-07 3.7827e-06 0 -0 0 0)
(8.03657e-08 -6.48787e-07 -0 -6.5527e-07 5.28996e-06 0 -0 0 0)
(7.79589e-08 -7.48915e-07 -0 -7.62134e-07 7.32147e-06 0 -0 0 0)
(4.60229e-08 -6.46563e-07 -0 -6.65158e-07 9.34462e-06 0 -0 0 0)
(9.5138e-09 -2.79945e-07 -0 -3.01244e-07 8.86415e-06 0 -0 0 0)
(1.09797e-11 1.82574e-08 0 3.5461e-09 5.89659e-06 0 0 0 0)
(3.38494e-09 1.01787e-07 0 9.33835e-08 2.80809e-06 0 0 0 0)
(4.5208e-09 5.76533e-08 0 5.35335e-08 6.82708e-07 0 0 0 0)
(1.76783e-09 -3.62142e-10 0 -7.21706e-10 1.47843e-10 -0 0 -0 0)
(3.33123e-10 -1.67534e-08 0 -1.37466e-08 6.91342e-07 -0 0 -0 0)
(-1.19526e-12 -6.02252e-10 0 5.65635e-09 2.85004e-06 -0 -0 -0 0)
(4.7109e-09 1.74848e-07 -0 1.85237e-07 6.8752e-06 -0 -0 -0 0)
(2.82091e-08 5.98445e-07 -0 6.13276e-07 1.30104e-05 -0 -0 -0 0)
(1.59467e-07 1.99988e-06 -0 2.02387e-06 2.53815e-05 -0 -0 -0 0)
(5.76569e-07 6.27084e-06 -0 6.32871e-06 6.88319e-05 -0 -0 -0 0)
(8.11933e-07 1.23194e-05 -0 1.23981e-05 0.000188116 -0 -0 -0 0)
(1.8761e-11 4.21915e-09 0 4.06444e-09 9.14053e-07 0 0 0 0)
(1.70765e-10 -1.54696e-08 -0 -1.58631e-08 1.43704e-06 0 -0 0 0)
(9.75257e-10 -4.46122e-08 -0 -4.55246e-08 2.08248e-06 0 -0 0 0)
(1.76269e-09 -6.94495e-08 -0 -7.11921e-08 2.80495e-06 0 -0 0 0)
(1.27407e-09 -6.75976e-08 -0 -7.08029e-08 3.75656e-06 0 -0 0 0)
(4.36209e-12 8.84459e-09 0 2.5136e-09 5.09659e-06 0 0 0 0)
(1.11954e-08 2.83158e-07 0 2.70639e-07 6.84505e-06 0 0 0 0)
(8.42592e-08 8.57443e-07 0 8.39155e-07 8.53946e-06 0 0 0 0)
(2.58882e-07 1.48174e-06 0 1.45756e-06 8.34253e-06 0 0 0 0)
(4.41047e-07 1.59262e-06 0 1.57328e-06 5.68111e-06 0 0 0 0)
(5.49624e-07 1.25133e-06 0 1.23575e-06 2.81343e-06 0 0 0 0)
(5.70527e-07 6.64335e-07 0 6.53432e-07 7.60872e-07 0 0 0 0)
(5.26037e-07 4.15145e-08 0 3.42811e-08 2.70545e-09 0 0 0 0)
(4.59149e-07 -5.1131e-07 0 -5.14542e-07 5.72996e-07 -0 0 -0 0)
(3.71945e-07 -9.8001e-07 0 -9.79942e-07 2.58198e-06 -0 0 -0 0)
(2.48864e-07 -1.28795e-06 0 -1.28408e-06 6.64552e-06 -0 0 -0 0)
(1.03119e-07 -1.13394e-06 0 -1.12671e-06 1.23898e-05 -0 0 -0 0)
(7.04482e-10 -1.33756e-07 0 -1.23149e-07 2.33815e-05 -0 0 -0 0)
(1.15219e-07 2.75844e-06 -0 2.78703e-06 6.67242e-05 -0 -0 -0 0)
(5.18329e-07 1.06767e-05 -0 1.07163e-05 0.000220737 -0 -0 -0 0)
(3.18553e-10 1.71224e-08 0 1.6966e-08 9.11934e-07 0 0 0 0)
(8.15583e-10 3.41974e-08 0 3.37202e-08 1.41389e-06 0 0 0 0)
(2.20396e-09 6.71434e-08 0 6.61075e-08 2.01396e-06 0 0 0 0)
(6.38749e-09 1.31372e-07 0 1.29504e-07 2.66352e-06 0 0 0 0)
(1.97199e-08 2.63373e-07 0 2.60113e-07 3.47399e-06 0 0 0 0)
(5.96533e-08 5.23681e-07 0 5.17902e-07 4.54653e-06 0 0 0 0)
(1.74857e-07 1.02111e-06 0 1.01039e-06 5.90037e-06 0 0 0 0)
(4.66195e-07 1.83949e-06 0 1.82264e-06 7.1917e-06 0 0 0 0)
(9.78285e-07 2.68693e-06 0 2.66339e-06 7.3152e-06 0 0 0 0)
(1.50402e-06 2.85579e-06 0 2.83238e-06 5.37805e-06 0 0 0 0)
(1.76185e-06 2.20327e-06 0 2.1828e-06 2.72967e-06 0 0 0 0)
(1.83386e-06 1.23844e-06 0 1.22232e-06 8.25455e-07 0 0 0 0)
(1.81792e-06 2.07009e-07 0 1.94417e-07 2.21385e-08 0 0 0 0)
(1.66542e-06 -8.18503e-07 0 -8.27636e-07 4.06757e-07 -0 0 -0 0)
(1.39737e-06 -1.74969e-06 0 -1.75529e-06 2.19785e-06 -0 0 -0 0)
(1.01369e-06 -2.43128e-06 0 -2.43324e-06 5.83598e-06 -0 0 -0 0)
(5.23345e-07 -2.3728e-06 0 -2.37158e-06 1.07526e-05 -0 0 -0 0)
(1.13293e-07 -1.50672e-06 0 -1.50395e-06 2.00017e-05 -0 0 -0 0)
(5.11262e-09 5.60149e-07 -0 5.70586e-07 6.25146e-05 -0 -0 -0 0)
(4.4697e-07 1.05103e-05 -0 1.05272e-05 0.000247542 -0 -0 -0 0)
(7.45492e-10 2.52052e-08 0 2.502e-08 8.45929e-07 0 0 0 0)
(3.65435e-09 6.96368e-08 0 6.91023e-08 1.3168e-06 0 0 0 0)
(1.18543e-08 1.48645e-07 0 1.47544e-07 1.85011e-06 0 0 0 0)
(3.15318e-08 2.76235e-07 0 2.74344e-07 2.4034e-06 0 0 0 0)
(7.80921e-08 4.89076e-07 0 4.85948e-07 3.0434e-06 0 0 0 0)
(1.84269e-07 8.42926e-07 0 8.37799e-07 3.83245e-06 0 0 0 0)
(4.1835e-07 1.41795e-06 0 1.40927e-06 4.77657e-06 0 0 0 0)
(8.9841e-07 2.25521e-06 0 2.24118e-06 5.62587e-06 0 0 0 0)
(1.69344e-06 3.12988e-06 0 3.10992e-06 5.74788e-06 0 0 0 0)
(2.67671e-06 3.55354e-06 0 3.52977e-06 4.68606e-06 0 0 0 0)
(3.32172e-06 2.98689e-06 0 2.96331e-06 2.6646e-06 0 0 0 0)
(3.48411e-06 1.7738e-06 0 1.75412e-06 8.93043e-07 0 0 0 0)
(3.5205e-06 4.5175e-07 0 4.3551e-07 5.58846e-08 0 0 0 0)
(3.22009e-06 -8.97518e-07 0 -9.0974e-07 2.53566e-07 -0 0 -0 0)
(2.68805e-06 -2.10195e-06 0 -2.11076e-06 1.65053e-06 -0 0 -0 0)
(1.89424e-06 -2.89381e-06 0 -2.89898e-06 4.42875e-06 -0 0 -0 0)
(9.99867e-07 -2.87182e-06 0 -2.87372e-06 8.2539e-06 -0 0 -0 0)
(2.93087e-07 -2.15801e-06 0 -2.15886e-06 1.58957e-05 -0 0 -0 0)
(6.98086e-09 -6.28075e-07 0 -6.26544e-07 5.63708e-05 -0 0 -0 0)
(4.93297e-07 1.16108e-05 -0 1.16178e-05 0.000273451 -0 -0 -0 0)
(9.70789e-10 2.70084e-08 0 2.68193e-08 7.4614e-07 0 0 0 0)
(6.42853e-09 8.71598e-08 0 8.66065e-08 1.17423e-06 0 0 0 0)
(2.28857e-08 1.93637e-07 0 1.9252e-07 1.62892e-06 0 0 0 0)
(6.14978e-08 3.58553e-07 0 3.56694e-07 2.07964e-06 0 0 0 0)
(1.44659e-07 6.096e-07 0 6.06692e-07 2.55663e-06 0 0 0 0)
(3.13284e-07 9.87088e-07 0 9.82612e-07 3.09599e-06 0 0 0 0)
(6.38712e-07 1.53722e-06 0 1.53029e-06 3.68304e-06 0 0 0 0)
(1.22779e-06 2.26955e-06 0 2.25877e-06 4.17528e-06 0 0 0 0)
(2.15583e-06 3.02768e-06 0 3.01202e-06 4.23013e-06 0 0 0 0)
(3.32506e-06 3.45496e-06 0 3.43516e-06 3.56936e-06 0 0 0 0)
(4.37662e-06 3.16778e-06 0 3.14629e-06 2.27727e-06 0 0 0 0)
(4.82885e-06 2.10058e-06 0 2.08104e-06 9.05264e-07 0 0 0 0)
(4.86153e-06 7.44973e-07 0 7.28694e-07 1.11664e-07 0 0 0 0)
(4.40606e-06 -6.57343e-07 0 -6.69728e-07 9.99171e-08 -0 0 -0 0)
(3.55967e-06 -1.85309e-06 0 -1.86194e-06 9.69287e-07 -0 0 -0 0)
(2.4702e-06 -2.63923e-06 0 -2.64473e-06 2.82572e-06 -0 0 -0 0)
(1.34323e-06 -2.74579e-06 0 -2.74839e-06 5.61814e-06 -0 0 -0 0)
(4.18624e-07 -2.16182e-06 0 -2.16361e-06 1.11731e-05 -0 0 -0 0)
(2.83621e-08 -1.17074e-06 0 -1.17265e-06 4.84052e-05 -0 0 -0 0)
(6.14538e-07 1.35898e-05 -0 1.35932e-05 0.000300598 -0 -0 -0 0)
(8.21678e-10 2.26544e-08 0 2.249e-08 6.20068e-07 0 0 0 0)
(7.09003e-09 8.44007e-08 0 8.38546e-08 9.98216e-07 0 0 0 0)
(2.93324e-08 2.01494e-07 0 2.00369e-07 1.3764e-06 0 0 0 0)
(8.40003e-08 3.82265e-07 0 3.80431e-07 1.73125e-06 0 0 0 0)
(1.98277e-07 6.42223e-07 0 6.39501e-07 2.07136e-06 0 0 0 0)
(4.15348e-07 1.00401e-06 0 1.00007e-06 2.41744e-06 0 0 0 0)
(8.00509e-07 1.48738e-06 0 1.4817e-06 2.75306e-06 0 0 0 0)
(1.43529e-06 2.0788e-06 0 2.07056e-06 2.99889e-06 0 0 0 0)
(2.35319e-06 2.64509e-06 0 2.63359e-06 2.96028e-06 0 0 0 0)
(3.47754e-06 2.96763e-06 0 2.95318e-06 2.52016e-06 0 0 0 0)
(4.55322e-06 2.80464e-06 0 2.78848e-06 1.71762e-06 0 0 0 0)
(5.17501e-06 2.05111e-06 0 2.03553e-06 8.06777e-07 0 0 0 0)
(5.22939e-06 9.40036e-07 0 9.26579e-07 1.66562e-07 0 0 0 0)
(4.74918e-06 -2.40606e-07 0 -2.50984e-07 1.27155e-08 -0 0 -0 0)
(3.82783e-06 -1.2744e-06 0 -1.2815e-06 4.26651e-07 -0 0 -0 0)
(2.70571e-06 -2.01261e-06 0 -2.01699e-06 1.50031e-06 -0 0 -0 0)
(1.48404e-06 -2.1824e-06 0 -2.1845e-06 3.21247e-06 -0 0 -0 0)
(4.76767e-07 -1.81065e-06 0 -1.81219e-06 6.88227e-06 -0 0 -0 0)
(7.38915e-08 -1.69919e-06 0 -1.70163e-06 3.91302e-05 -0 0 -0 0)
(7.41397e-07 1.56569e-05 -0 1.56635e-05 0.000330784 -0 -0 -0 0)
(1.90952e-10 1.03477e-08 0 1.02101e-08 5.53287e-07 0 0 0 0)
(5.16708e-09 6.68403e-08 0 6.62854e-08 8.57455e-07 0 0 0 0)
(2.82631e-08 1.80899e-07 0 1.79714e-07 1.15026e-06 0 0 0 0)
(9.09176e-08 3.58119e-07 0 3.56241e-07 1.40321e-06 0 0 0 0)
(2.24886e-07 6.04948e-07 0 6.02313e-07 1.62023e-06 0 0 0 0)
(4.74011e-07 9.29914e-07 0 9.26359e-07 1.81733e-06 0 0 0 0)
(8.94043e-07 1.33457e-06 0 1.32982e-06 1.98507e-06 0 0 0 0)
(1.53748e-06 1.79024e-06 0 1.7839e-06 2.07717e-06 0 0 0 0)
(2.41295e-06 2.20559e-06 0 2.19729e-06 2.00846e-06 0 0 0 0)
(3.4103e-06 2.41813e-06 0 2.40808e-06 1.70749e-06 0 0 0 0)
(4.32689e-06 2.29451e-06 0 2.28343e-06 1.21088e-06 0 0 0 0)
(4.92458e-06 1.79751e-06 0 1.7866e-06 6.52124e-07 0 0 0 0)
(4.9861e-06 1.01011e-06 0 1.0006e-06 2.02708e-07 0 0 0 0)
(4.58342e-06 1.3745e-07 0 1.3005e-07 3.90001e-09 0 0 0 0)
(3.75356e-06 -6.67925e-07 0 -6.72849e-07 1.1973e-07 -0 0 -0 0)
(2.70984e-06 -1.2897e-06 0 -1.29263e-06 6.15203e-07 -0 0 -0 0)
(1.49244e-06 -1.50034e-06 0 -1.50171e-06 1.50966e-06 -0 0 -0 0)
(6.0114e-07 -1.5504e-06 0 -1.55131e-06 4.00099e-06 -0 0 -0 0)
(2.81955e-07 -2.88739e-06 0 -2.88891e-06 2.95843e-05 -0 0 -0 0)
(7.11478e-07 1.62261e-05 -0 1.62375e-05 0.000370317 -0 -0 -0 0)
(2.40872e-10 -9.43659e-09 -0 -9.45665e-09 3.70481e-07 0 -0 0 0)
(2.45259e-10 1.23756e-08 0 1.19032e-08 6.00627e-07 0 0 0 0)
(1.36222e-08 1.07084e-07 0 1.05922e-07 8.32654e-07 0 0 0 0)
(7.02759e-08 2.67958e-07 0 2.66171e-07 1.0149e-06 0 0 0 0)
(2.06471e-07 4.88723e-07 0 4.86312e-07 1.15111e-06 0 0 0 0)
(4.66792e-07 7.65825e-07 0 7.62739e-07 1.25136e-06 0 0 0 0)
(8.97906e-07 1.09029e-06 0 1.08643e-06 1.31921e-06 0 0 0 0)
(1.53308e-06 1.43462e-06 0 1.4298e-06 1.33797e-06 0 0 0 0)
(2.36548e-06 1.73976e-06 0 1.73385e-06 1.27522e-06 0 0 0 0)
(3.2952e-06 1.90581e-06 0 1.89891e-06 1.09826e-06 0 0 0 0)
(4.12194e-06 1.83471e-06 0 1.82727e-06 8.13335e-07 0 0 0 0)
(4.69927e-06 1.52077e-06 0 1.51332e-06 4.8974e-07 0 0 0 0)
(4.8316e-06 1.00683e-06 0 1.00045e-06 2.08477e-07 0 0 0 0)
(4.47924e-06 4.01012e-07 0 3.96119e-07 3.54633e-08 0 0 0 0)
(3.7739e-06 -1.92569e-07 0 -1.95912e-07 9.9967e-09 -0 0 -0 0)
(2.86833e-06 -7.20873e-07 0 -7.22778e-07 1.8165e-07 -0 0 -0 0)
(1.63974e-06 -1.00412e-06 0 -1.00496e-06 6.15398e-07 -0 0 -0 0)
(1.14934e-06 -1.72926e-06 0 -1.7298e-06 2.60261e-06 -0 0 -0 0)
(9.02868e-07 -4.55847e-06 0 -4.55943e-06 2.302e-05 -0 0 -0 0)
(3.65212e-07 1.25566e-05 -0 1.25718e-05 0.000432239 -0 -0 -0 0)
(4.99944e-09 -6.7989e-08 -0 -6.79915e-08 9.24638e-07 0 -0 0 0)
(2.91697e-09 -5.32251e-08 -0 -5.3745e-08 9.80669e-07 0 -0 0 0)
(3.85225e-09 6.38689e-08 0 6.27035e-08 1.0396e-06 0 0 0 0)
(4.89248e-08 2.21431e-07 0 2.19779e-07 9.94708e-07 0 0 0 0)
(1.83836e-07 4.20979e-07 0 4.18834e-07 9.5912e-07 0 0 0 0)
(4.66047e-07 6.61644e-07 0 6.59041e-07 9.35637e-07 0 0 0 0)
(9.48366e-07 9.33616e-07 0 9.30548e-07 9.16075e-07 0 0 0 0)
(1.65476e-06 1.20985e-06 0 1.20627e-06 8.81951e-07 0 0 0 0)
(2.56795e-06 1.45017e-06 0 1.44603e-06 8.16602e-07 0 0 0 0)
(3.60513e-06 1.60017e-06 0 1.5955e-06 7.08176e-07 0 0 0 0)
(4.59097e-06 1.59867e-06 0 1.59369e-06 5.54953e-07 0 0 0 0)
(5.32818e-06 1.43236e-06 0 1.42763e-06 3.83786e-07 0 0 0 0)
(5.66633e-06 1.12349e-06 0 1.11926e-06 2.21921e-07 0 0 0 0)
(5.55465e-06 7.25903e-07 0 7.22742e-07 9.44507e-08 0 0 0 0)
(4.94923e-06 2.91553e-07 0 2.89447e-07 1.7051e-08 0 0 0 0)
(4.16651e-06 -2.08636e-07 0 -2.09823e-07 1.05068e-08 -0 0 -0 0)
(2.68827e-06 -7.0752e-07 0 -7.08063e-07 1.86354e-07 -0 0 -0 0)
(3.81097e-06 -2.7862e-06 0 -2.78666e-06 2.03733e-06 -0 0 -0 0)
(1.55148e-06 -5.22407e-06 0 -5.22505e-06 1.75935e-05 -0 0 -0 0)
(2.11227e-07 -1.03404e-05 0 -1.0321e-05 0.000505257 -0 0 -0 0)
(3.03719e-08 -6.73121e-08 -0 -6.71581e-08 1.4884e-07 0 -0 0 0)
(8.04891e-08 -7.63319e-08 -0 -7.63123e-08 7.23708e-08 0 -0 0 0)
(5.33569e-10 8.9052e-09 0 8.68431e-09 1.4494e-07 0 0 0 0)
(2.08182e-07 2.51422e-07 0 2.50819e-07 3.02914e-07 0 0 0 0)
(8.76527e-07 5.84636e-07 0 5.83779e-07 3.89376e-07 0 0 0 0)
(2.10334e-06 9.38805e-07 0 9.37788e-07 4.18572e-07 0 0 0 0)
(3.88906e-06 1.29053e-06 0 1.28931e-06 4.2784e-07 0 0 0 0)
(6.20294e-06 1.63319e-06 0 1.63162e-06 4.29594e-07 0 0 0 0)
(8.9617e-06 1.93772e-06 0 1.93562e-06 4.18526e-07 0 0 0 0)
(1.20474e-05 2.16685e-06 0 2.16409e-06 3.89234e-07 0 0 0 0)
(1.5267e-05 2.28165e-06 0 2.27817e-06 3.40472e-07 0 0 0 0)
(1.83759e-05 2.25719e-06 0 2.25325e-06 2.76777e-07 0 0 0 0)
(2.11057e-05 2.08598e-06 0 2.08189e-06 2.05764e-07 0 0 0 0)
(2.35399e-05 1.76902e-06 0 1.76528e-06 1.32661e-07 0 0 0 0)
(2.49101e-05 1.27968e-06 0 1.27673e-06 6.55883e-08 0 0 0 0)
(2.693e-05 3.44693e-07 0 3.42483e-07 4.38363e-09 0 0 0 0)
(2.36897e-05 -9.70848e-07 0 -9.72121e-07 3.98393e-08 -0 0 -0 0)
(3.79555e-05 -7.59319e-06 0 -7.59361e-06 1.51914e-06 -0 0 -0 0)
(4.00342e-06 -5.68897e-06 0 -5.68955e-06 8.08501e-06 -0 0 -0 0)
(4.39086e-05 -0.000138622 0 -0.000138608 0.000437594 -0 0 -0 0)
(6.83952e-06 1.57505e-05 0 1.57521e-05 3.62749e-05 0 0 0 0)
(2.40916e-05 2.75721e-05 0 2.75747e-05 3.15584e-05 0 0 0 0)
(6.25511e-05 3.15307e-05 0 3.15284e-05 1.58929e-05 0 0 0 0)
(0.000111263 2.9614e-05 0 2.9608e-05 7.8805e-06 0 0 0 0)
(0.000159698 2.6945e-05 0 2.69377e-05 4.54507e-06 0 0 0 0)
(0.000207165 2.47251e-05 0 2.4718e-05 2.95008e-06 0 0 0 0)
(0.00025464 2.28952e-05 0 2.28895e-05 2.05804e-06 0 0 0 0)
(0.000302254 2.13551e-05 0 2.13509e-05 1.5085e-06 0 0 0 0)
(0.000348242 1.99397e-05 0 1.99371e-05 1.14156e-06 0 0 0 0)
(0.000393349 1.86989e-05 0 1.86974e-05 8.88827e-07 0 0 0 0)
(0.000436425 1.74963e-05 0 1.74956e-05 7.01396e-07 0 0 0 0)
(0.000476655 1.62794e-05 0 1.6279e-05 5.55983e-07 0 0 0 0)
(0.000513126 1.49915e-05 0 1.49912e-05 4.37984e-07 0 0 0 0)
(0.000545801 1.35354e-05 0 1.35349e-05 3.35655e-07 0 0 0 0)
(0.000570232 1.16503e-05 0 1.1649e-05 2.37998e-07 0 0 0 0)
(0.000597808 8.78324e-06 0 8.78128e-06 1.29018e-07 0 0 0 0)
(0.000570332 5.11724e-06 0 5.11429e-06 4.58874e-08 0 0 0 0)
(0.00067982 -8.33253e-06 0 -8.33512e-06 1.02163e-07 -0 0 -0 0)
(0.000178866 4.92205e-06 0 4.91662e-06 1.35296e-07 0 0 0 0)
(0.0014756 -0.00038287 0 -0.000382871 9.93424e-05 -0 0 -0 0)
)
;

boundaryField
{
    movingWall
    {
        type            calculated;
        value           nonuniform List<tensor> 
20
(
(0.00418735 0 0 0 0 0 0 0 0)
(0.00650881 0 0 0 0 0 0 0 0)
(0.00836926 0 0 0 0 0 0 0 0)
(0.00941432 0 0 0 0 0 0 0 0)
(0.0100002 0 0 0 0 0 0 0 0)
(0.0103422 0 0 0 0 0 0 0 0)
(0.0105246 0 0 0 0 0 0 0 0)
(0.0106167 0 0 0 0 0 0 0 0)
(0.010621 0 0 0 0 0 0 0 0)
(0.0106058 0 0 0 0 0 0 0 0)
(0.0105701 0 0 0 0 0 0 0 0)
(0.0105245 0 0 0 0 0 0 0 0)
(0.0104848 0 0 0 0 0 0 0 0)
(0.0104608 0 0 0 0 0 0 0 0)
(0.0104692 0 0 0 0 0 0 0 0)
(0.010507 0 0 0 0 0 0 0 0)
(0.0106449 0 0 0 0 0 0 0 0)
(0.0106884 0 0 0 0 0 0 0 0)
(0.0113166 0 0 0 0 0 0 0 0)
(0.010298 0 0 0 0 0 0 0 0)
)
;
    }
    fixedWalls
    {
        type            calculated;
        value           uniform (0 0 0 0 0 0 0 0 0);
    }
    frontAndBack
    {
        type            empty;
    }
}


// ************************************************************************* //
