/*--------------------------------*- C++ -*----------------------------------*\
| =========                 |                                                 |
| \\      /  F ield         | OpenFOAM: The Open Source CFD Toolbox           |
|  \\    /   O peration     | Version:  2312                                  |
|   \\  /    A nd           | Website:  www.openfoam.com                      |
|    \\/     M anipulation  |                                                 |
\*---------------------------------------------------------------------------*/
FoamFile
{
    version     2.0;
    format      ascii;
    arch        "LSB;label=32;scalar=64";
    class       volScalarField;
    location    "2";
    object      L_P;
}
// * * * * * * * * * * * * * * * * * * * * * * * * * * * * * * * * * * * * * //

dimensions      [0 0 0 0 0 0 0];

internalField   nonuniform List<scalar> 
400
(
-154.429
-146.277
-139.175
-133.774
-129.3
-125.415
-122.091
-119.415
-117.42
-116.077
-115.419
-115.216
-115.628
-116.646
-118.477
-121.68
-127.054
-135.763
-147.016
-154.438
-147.617
-142.062
-137.143
-133.511
-130.412
-127.637
-125.183
-122.965
-120.767
-118.653
-116.676
-114.69
-112.701
-111.076
-110.416
-110.924
-114.048
-121.316
-135.642
-148.919
-139.773
-136.152
-132.273
-129.68
-127.731
-125.844
-123.479
-120.546
-117.28
-113.88
-110.961
-108.933
-107.561
-106.394
-105.223
-104.531
-104.441
-107.719
-120.438
-139.906
-134.173
-131.877
-128.546
-126.104
-124.1
-121.874
-118.926
-115.259
-111.654
-109.613
-108.817
-108.364
-107.613
-106.636
-105.259
-103.676
-101.984
-101.02
-105.101
-121.631
-129.991
-128.865
-125.879
-123.376
-121.033
-118.233
-114.716
-111.502
-110.027
-109.787
-110.169
-110.773
-110.904
-110.036
-108.165
-105.618
-102.309
-99.3184
-97.7512
-104.296
-126.783
-126.766
-124.015
-121.377
-118.678
-115.493
-112.141
-110.358
-110.242
-111.321
-113.374
-114.149
-114.251
-113.142
-111.165
-108.225
-104.341
-99.5151
-95.1769
-93.9181
-124.299
-125.369
-122.787
-120.019
-117.073
-113.794
-111.072
-110.195
-111.037
-113.98
-116.011
-116.804
-116.83
-115.894
-113.761
-110.53
-106.279
-101.028
-94.4551
-89.0645
-122.39
-124.496
-122.085
-119.241
-116.189
-113.01
-110.795
-110.41
-112.346
-115.869
-118.102
-119.134
-119.517
-118.839
-116.176
-112.227
-107.575
-101.793
-94.5959
-86.7914
-120.949
-123.999
-121.826
-118.99
-115.908
-112.826
-110.789
-110.674
-112.982
-117.134
-119.81
-121.147
-121.762
-121.111
-117.822
-113.085
-108.326
-102.348
-94.7395
-85.4126
-119.934
-123.838
-121.902
-119.118
-116.082
-113.072
-110.993
-110.778
-112.92
-117.024
-120.163
-122.055
-122.951
-121.942
-118.383
-113.186
-108.19
-102.331
-94.5109
-84.4265
-119.274
-123.806
-122.136
-119.471
-116.528
-113.619
-111.398
-110.737
-112.287
-116.043
-119.47
-121.576
-122.303
-121.201
-117.563
-112.073
-107.577
-102.192
-94.0729
-83.5223
-118.958
-123.836
-122.527
-120.026
-117.215
-114.394
-112.004
-110.767
-111.31
-113.723
-117.25
-119.682
-120.042
-118.711
-115.105
-110.37
-106.837
-102.111
-93.5357
-82.6115
-119.019
-123.986
-122.979
-120.64
-117.998
-115.29
-112.813
-111.131
-110.774
-111.609
-113.568
-115.719
-116.045
-115.024
-112.364
-109.225
-106.547
-102.13
-93.0213
-81.5991
-119.275
-124.263
-123.452
-121.226
-118.758
-116.193
-113.783
-111.848
-110.782
-110.738
-111.379
-112.483
-112.83
-112.32
-110.925
-108.876
-106.699
-102.926
-92.6517
-80.4475
-119.885
-124.752
-123.952
-121.734
-119.395
-116.978
-114.703
-112.733
-111.422
-110.805
-110.831
-111.283
-111.647
-111.456
-110.737
-109.354
-107.818
-104.6
-92.4315
-79.0982
-120.353
-125.22
-124.222
-121.943
-119.657
-117.404
-115.332
-113.54
-112.191
-111.459
-111.294
-111.445
-111.772
-111.781
-111.416
-110.535
-109.405
-106.274
-92.339
-77.5009
-121.465
-126.02
-124.351
-121.879
-119.546
-117.391
-115.479
-113.848
-112.561
-111.745
-111.482
-111.512
-111.765
-111.941
-111.714
-110.953
-109.823
-106.214
-91.213
-75.6009
-119.966
-124.011
-120.799
-118.115
-115.864
-113.923
-112.266
-110.919
-109.868
-109.112
-108.696
-108.55
-108.513
-108.462
-108.306
-107.753
-106.555
-101.343
-87.9968
-73.1101
-113.65
-109.479
-104.201
-101.417
-99.6226
-98.2725
-97.2205
-96.3689
-95.7003
-95.1458
-94.6746
-94.2559
-93.8535
-93.3071
-92.7651
-91.7552
-90.4434
-85.8421
-80.7247
-69.6989
-82.1212
-74.4588
-70.0911
-68.0467
-66.9977
-66.4133
-66.1094
-65.9578
-65.9508
-65.9757
-66.0344
-66.1096
-66.1754
-66.2155
-66.2015
-66.139
-65.9126
-65.8418
-64.8497
-66.4883
)
;

boundaryField
{
    movingWall
    {
        type            calculated;
        value           nonuniform List<scalar> 
20
(
-82.1212
-74.4588
-70.0911
-68.0467
-66.9977
-66.4133
-66.1094
-65.9578
-65.9508
-65.9757
-66.0344
-66.1096
-66.1754
-66.2155
-66.2015
-66.139
-65.9126
-65.8418
-64.8497
-66.4883
)
;
    }
    fixedWalls
    {
        type            calculated;
        value           nonuniform List<scalar> 
60
(
-154.429
-147.617
-139.773
-134.173
-129.991
-126.783
-124.299
-122.39
-120.949
-119.934
-119.274
-118.958
-119.019
-119.275
-119.885
-120.353
-121.465
-119.966
-113.65
-82.1212
-154.438
-148.919
-139.906
-121.631
-104.296
-93.9181
-89.0645
-86.7914
-85.4126
-84.4265
-83.5223
-82.6115
-81.5991
-80.4475
-79.0982
-77.5009
-75.6009
-73.1101
-69.6989
-66.4883
-154.429
-146.277
-139.175
-133.774
-129.3
-125.415
-122.091
-119.415
-117.42
-116.077
-115.419
-115.216
-115.628
-116.646
-118.477
-121.68
-127.054
-135.763
-147.016
-154.438
)
;
    }
    frontAndBack
    {
        type            empty;
    }
}


// ************************************************************************* //
