/*--------------------------------*- C++ -*----------------------------------*\
| =========                 |                                                 |
| \\      /  F ield         | OpenFOAM: The Open Source CFD Toolbox           |
|  \\    /   O peration     | Version:  2312                                  |
|   \\  /    A nd           | Website:  www.openfoam.com                      |
|    \\/     M anipulation  |                                                 |
\*---------------------------------------------------------------------------*/
FoamFile
{
    version     2.0;
    format      ascii;
    arch        "LSB;label=32;scalar=64";
    class       volScalarField;
    location    "2";
    object      Lambda2Field;
}
// * * * * * * * * * * * * * * * * * * * * * * * * * * * * * * * * * * * * * //

dimensions      [0 0 -2 0 0 0 0];

internalField   nonuniform List<scalar> 
400
(
0.0474459
0.24812
0.586206
0.73832
0.832661
0.830984
1.09948
1.41045
2.00908
2.53313
3.84343
4.88581
7.31523
7.81549
9.47738
8.20217
5.67696
2.52327
0.466873
0.0384579
0.316414
0.823087
1.52554
1.85712
2.15744
2.11456
2.26915
2.39843
3.07276
3.92821
4.91488
5.62415
7.20909
9.18078
13.432
14.0544
12.9438
5.9238
1.55616
0
0.790685
1.27244
1.9442
2.4129
2.7246
2.81405
3.15743
4.16007
5.93165
8.20481
10.5616
12.3228
14.5969
16.9418
22.099
25.6405
25.3306
18.7527
5.71315
0.466291
1.35084
1.65611
2.13224
2.50503
2.91407
3.42502
4.80194
7.22354
11.2738
13.2796
13.4337
10.8608
9.03153
8.79238
12.9786
21.892
31.8819
33.4131
19.621
0.647099
1.7871
1.86006
2.15388
2.50297
3.03986
4.14831
6.64947
10.3705
13.8145
12.2418
5.18046
-5.46772
0
-17.7085
0
-8.19417
10.63
33.6573
39.1861
8.97357
2.01278
1.84099
2.00776
2.38029
3.08316
4.68471
8.08178
11.8786
12.0914
3.93437
0
-24.6216
0
-34.1238
0
-34.8013
0
3.24423
40.9543
47.043
2.04041
1.6311
1.72228
2.11816
2.93193
4.79834
8.35086
10.9552
7.46335
-6.82956
0
-34.8989
0
-31.1619
0
-32.1074
0
-29.9118
21.2439
82.3054
1.9294
1.31391
1.35495
1.74038
2.58126
4.42097
7.65347
8.69578
2.02118
-14.9707
0
-38.2111
0
-27.9986
0
-20.3928
0
-36.8608
0
85.8607
1.74372
0.987604
0.983451
1.32813
2.11681
3.75519
6.51735
6.62954
0
-17.686
0
-40.833
0
-30.7848
0
-15.6611
0
-27.4104
0
70.1999
1.54348
0.721355
0.676409
0.968495
1.66836
3.05488
5.37449
5.67647
0
-15.3799
0
-40.3271
0
-32.8154
0
-13.5189
0
-17.8448
0
43.47
1.30073
0.551925
0.473647
0.709895
1.30443
2.45751
4.40678
5.38474
1.8001
-8.58089
0
-32.6977
0
-27.9838
0
-9.63799
0
-10.886
0
18.6419
1.0244
0.468702
0.384697
0.574587
1.06432
1.98856
3.58323
4.92291
3.77758
-1.37543
0
-18.44
0
-16.313
0
-4.00378
0
-4.82045
0
3.5761
0.721284
0.436868
0.388922
0.552583
0.95802
1.67626
2.85954
4.17847
4.43401
2.29342
0
-5.9861
0
-4.81906
0
0.72265
1.9114
0
0
-3.01256
0.34202
0.396857
0.4483
0.615299
0.962033
1.51307
2.33157
3.3296
3.96536
3.45692
1.70948
0
0
0.489471
2.42019
3.5215
4.57825
3.06801
1.14055
-1.02837
0
0.281205
0.534959
0.751765
1.06636
1.50001
2.05253
2.65732
3.09142
2.98668
2.21397
1.25835
0.938752
1.60501
2.90276
4.0247
5.59805
2.53783
0
0
0
0.0493225
0.641841
0.952459
1.27613
1.63902
2.01336
2.31543
2.41664
2.17822
1.57781
0.794134
0.424502
0.789139
1.8006
2.96494
4.62135
-3.30543
0
1.93751
0
-0.177058
0.0921532
0.541789
1.04931
1.46536
1.81245
1.92313
1.98293
1.40161
0.846548
-0.0215415
0
-0.634246
0
1.00921
0
-17.277
0
26.6272
0
0.25772
1.42922
1.4558
1.69239
1.97401
2.15056
2.02017
1.59353
0.679274
0
-1.50246
0
-3.67235
0
-5.56369
0
-40.7636
0
259.115
8.82207
0
3.4166
0.302577
5.68508
0
3.73987
0
2.07487
0
0
-1.84203
0
-5.59935
0
-13.378
0
-18.9883
0
957.721
3301.12
-608.63
0
-360.834
0
-87.8129
0
-40.4978
0
-23.0765
0
-18.0383
0
-15.7665
0
0
0
0
0
1609.11
)
;

boundaryField
{
    movingWall
    {
        type            calculated;
        value           nonuniform List<scalar> 
20
(
5528.15
0
0
0
0
0
0
0
0
0
0
0
0
0
0
0
0
0
0
2877.17
)
;
    }
    fixedWalls
    {
        type            calculated;
        value           nonuniform List<scalar> 
60
(
0
0.0527516
0.481309
0.900056
1.79418
1.86625
2.60059
2.61139
2.74759
1.83154
2.3249
0.748127
1.22709
0
0
0
0
0
27.2748
6875.93
0.0338395
0
0.220365
0
0
24.1025
143.143
60.9165
173.584
0
56.1284
0
0
0
6.00394
0
183.755
755.911
3531
2165.79
0.00711907
0.0239367
0.48053
0
0.618089
0
0.701532
0.888537
1.96229
2.26179
5.73305
6.91082
12.0523
12.5198
11.9835
8.3714
5.0851
1.24026
0.345427
0.0305276
)
;
    }
    frontAndBack
    {
        type            empty;
    }
}


// ************************************************************************* //
