/*--------------------------------*- C++ -*----------------------------------*\
| =========                 |                                                 |
| \\      /  F ield         | OpenFOAM: The Open Source CFD Toolbox           |
|  \\    /   O peration     | Version:  2312                                  |
|   \\  /    A nd           | Website:  www.openfoam.com                      |
|    \\/     M anipulation  |                                                 |
\*---------------------------------------------------------------------------*/
FoamFile
{
    version     2.0;
    format      ascii;
    arch        "LSB;label=32;scalar=64";
    class       volScalarField;
    location    "2";
    object      logk;
}
// * * * * * * * * * * * * * * * * * * * * * * * * * * * * * * * * * * * * * //

dimensions      [0 2 -2 0 0 0 0];

internalField   nonuniform List<scalar> 
400
(
-6.90776
-6.90776
-6.90776
-6.90776
-6.90776
-6.90776
-6.90776
-6.90776
-6.90776
-6.90776
-6.90776
-6.90776
-6.90776
-6.90776
-6.90776
-6.90776
-6.90776
-6.90776
-6.90776
-6.90776
-6.90776
-6.90776
-6.90776
-6.90776
-6.90776
-6.90776
-6.90776
-6.90776
-6.90776
-6.90776
-6.90776
-6.90776
-6.90776
-6.90776
-6.90776
-6.90776
-6.90776
-6.90776
-6.90776
-6.90776
-6.90776
-6.90776
-6.90776
-6.90776
-6.90776
-6.90776
-6.90776
-6.90776
-6.90776
-6.90776
-6.90776
-6.82658
-6.76882
-6.71628
-6.66112
-6.63683
-6.64681
-6.844
-6.90776
-6.90776
-6.90776
-6.90776
-6.90776
-6.90776
-6.90776
-6.90776
-6.90776
-6.90776
-6.90776
-6.8488
-6.82445
-6.81333
-6.78572
-6.74189
-6.67433
-6.59881
-6.52254
-6.48357
-6.73353
-6.90776
-6.90776
-6.90776
-6.90776
-6.90776
-6.90776
-6.90776
-6.90776
-6.8954
-6.85891
-6.8663
-6.90776
-6.90776
-6.90776
-6.90776
-6.83719
-6.71056
-6.53929
-6.39641
-6.33327
-6.74695
-6.90776
-6.90776
-6.90776
-6.90776
-6.90776
-6.90776
-6.89491
-6.85094
-6.87006
-6.90776
-6.90776
-6.90776
-6.90776
-6.90776
-6.90776
-6.80669
-6.63331
-6.39737
-6.19739
-6.15227
-6.90776
-6.90776
-6.90776
-6.90776
-6.90776
-6.90776
-6.84522
-6.83531
-6.90776
-6.90776
-6.90776
-6.90776
-6.90776
-6.90776
-6.90776
-6.85215
-6.67432
-6.45793
-6.15319
-5.87451
-6.90776
-6.90776
-6.90776
-6.90776
-6.90776
-6.8823
-6.82548
-6.84185
-6.90776
-6.90776
-6.90776
-6.90776
-6.90776
-6.90776
-6.90776
-6.89664
-6.68995
-6.46527
-6.1525
-5.74419
-6.90776
-6.90776
-6.90776
-6.90776
-6.90776
-6.86006
-6.81247
-6.84143
-6.90776
-6.90776
-6.90776
-6.90776
-6.90776
-6.90776
-6.90776
-6.90776
-6.69079
-6.45079
-6.14423
-5.66504
-6.90776
-6.90776
-6.90776
-6.90776
-6.90776
-6.86193
-6.80382
-6.83055
-6.90776
-6.90776
-6.90776
-6.90776
-6.90776
-6.90776
-6.90776
-6.90639
-6.65256
-6.41735
-6.11499
-5.60835
-6.90776
-6.90776
-6.90776
-6.90776
-6.90776
-6.8728
-6.79852
-6.80558
-6.90776
-6.90776
-6.90776
-6.90776
-6.90776
-6.90776
-6.90776
-6.82556
-6.59305
-6.3903
-6.07511
-5.55633
-6.90776
-6.90776
-6.90776
-6.90776
-6.90776
-6.89561
-6.80147
-6.77541
-6.8351
-6.90776
-6.90776
-6.90776
-6.90776
-6.90776
-6.90776
-6.72157
-6.54071
-6.37889
-6.04377
-5.50391
-6.90776
-6.90776
-6.90776
-6.90776
-6.90776
-6.90776
-6.81511
-6.75811
-6.77143
-6.8357
-6.90776
-6.90776
-6.90776
-6.90776
-6.85039
-6.6406
-6.51883
-6.37886
-6.01918
-5.44563
-6.90776
-6.90776
-6.90776
-6.90776
-6.90776
-6.90776
-6.84176
-6.76048
-6.73071
-6.74532
-6.79285
-6.86765
-6.87979
-6.84041
-6.74205
-6.61327
-6.52234
-6.433
-6.00891
-5.37934
-6.90776
-6.90776
-6.90776
-6.90776
-6.90776
-6.90776
-6.86913
-6.77602
-6.72554
-6.71219
-6.72414
-6.75596
-6.77531
-6.76207
-6.71633
-6.63622
-6.59302
-6.55
-6.00642
-5.30167
-6.90776
-6.90776
-6.90776
-6.90776
-6.90776
-6.90776
-6.89787
-6.80587
-6.74289
-6.7182
-6.72309
-6.74072
-6.76712
-6.77127
-6.75742
-6.72561
-6.72185
-6.68532
-6.00957
-5.20972
-6.90776
-6.90776
-6.90776
-6.90776
-6.90776
-6.90776
-6.90776
-6.86269
-6.79755
-6.76154
-6.75956
-6.77134
-6.79791
-6.82326
-6.82582
-6.81154
-6.8105
-6.7394
-5.96381
-5.10035
-6.90776
-6.90776
-6.90776
-6.90776
-6.90776
-6.90776
-6.90776
-6.86993
-6.81049
-6.77091
-6.75579
-6.75987
-6.77309
-6.79123
-6.80608
-6.80232
-6.78426
-6.5623
-5.79679
-4.95698
-6.90776
-6.90776
-6.808
-6.64285
-6.53305
-6.44813
-6.38017
-6.32414
-6.2792
-6.24219
-6.2115
-6.18525
-6.1609
-6.12788
-6.09604
-6.03262
-5.95673
-5.69752
-5.39272
-4.76062
-5.47569
-5.0346
-4.78319
-4.66552
-4.60515
-4.57153
-4.55404
-4.54532
-4.54492
-4.54635
-4.54973
-4.55405
-4.55783
-4.56012
-4.55932
-4.55571
-4.54268
-4.5386
-4.48149
-4.57581
)
;

boundaryField
{
    movingWall
    {
        type            calculated;
        value           nonuniform List<scalar> 
20
(
-5.47569
-5.0346
-4.78319
-4.66552
-4.60515
-4.57153
-4.55404
-4.54532
-4.54492
-4.54635
-4.54973
-4.55405
-4.55783
-4.56012
-4.55932
-4.55571
-4.54268
-4.5386
-4.48149
-4.57581
)
;
    }
    fixedWalls
    {
        type            calculated;
        value           nonuniform List<scalar> 
60
(
-6.90776
-6.90776
-6.90776
-6.90776
-6.90776
-6.90776
-6.90776
-6.90776
-6.90776
-6.90776
-6.90776
-6.90776
-6.90776
-6.90776
-6.90776
-6.90776
-6.90776
-6.90776
-6.90776
-5.47569
-6.90776
-6.90776
-6.90776
-6.90776
-6.74695
-6.15227
-5.87451
-5.74419
-5.66504
-5.60835
-5.55633
-5.50391
-5.44563
-5.37934
-5.30167
-5.20972
-5.10035
-4.95698
-4.76062
-4.57581
-6.90776
-6.90776
-6.90776
-6.90776
-6.90776
-6.90776
-6.90776
-6.90776
-6.90776
-6.90776
-6.90776
-6.90776
-6.90776
-6.90776
-6.90776
-6.90776
-6.90776
-6.90776
-6.90776
-6.90776
)
;
    }
    frontAndBack
    {
        type            empty;
    }
}


// ************************************************************************* //
