/*--------------------------------*- C++ -*----------------------------------*\
| =========                 |                                                 |
| \\      /  F ield         | OpenFOAM: The Open Source CFD Toolbox           |
|  \\    /   O peration     | Version:  2312                                  |
|   \\  /    A nd           | Website:  www.openfoam.com                      |
|    \\/     M anipulation  |                                                 |
\*---------------------------------------------------------------------------*/
FoamFile
{
    version     2.0;
    format      ascii;
    arch        "LSB;label=32;scalar=64";
    class       volScalarField;
    location    "2";
    object      magU;
}
// * * * * * * * * * * * * * * * * * * * * * * * * * * * * * * * * * * * * * //

dimensions      [0 1 -1 0 0 0 0];

internalField   nonuniform List<scalar> 
400
(
0.000333852
0.0025737
0.00650928
0.0110956
0.0162147
0.0219708
0.0283761
0.0352621
0.0424451
0.0495912
0.0558477
0.059938
0.0603665
0.0560065
0.0468221
0.0341319
0.0201304
0.00749271
0.00134758
0.00147198
0.00281596
0.00801095
0.0139902
0.0206968
0.0280826
0.0357808
0.0434428
0.0511902
0.0593984
0.0680223
0.0762084
0.0824271
0.0849564
0.0823114
0.0739472
0.0604268
0.0427836
0.0229301
0.00657115
0.00147257
0.00748349
0.0143687
0.0209441
0.0280314
0.0357189
0.0435978
0.0517415
0.0610883
0.0724408
0.0855141
0.0986738
0.109436
0.115779
0.117178
0.112394
0.101074
0.0822119
0.0545156
0.0207598
0.00125415
0.0131663
0.0209457
0.0276681
0.0345878
0.041923
0.0497858
0.0592292
0.0718393
0.0880841
0.106235
0.12256
0.133783
0.139166
0.14085
0.141435
0.138623
0.127767
0.10203
0.0569873
0.0077987
0.0194024
0.027623
0.0340952
0.0405888
0.0475309
0.055632
0.066741
0.082464
0.101772
0.119871
0.131665
0.136172
0.13697
0.138035
0.141627
0.148716
0.154068
0.145667
0.10677
0.029513
0.025649
0.0340661
0.0400681
0.0460742
0.0527494
0.0612515
0.0738337
0.0913948
0.109924
0.122556
0.125089
0.119519
0.112165
0.109653
0.115084
0.128778
0.148795
0.165068
0.152769
0.0759008
0.031411
0.0399441
0.0454003
0.0509236
0.0574054
0.066189
0.0794492
0.0966331
0.111249
0.115869
0.107599
0.092197
0.0808128
0.0800088
0.0880259
0.102678
0.126218
0.159028
0.180683
0.126571
0.036265
0.0449555
0.0498899
0.0549443
0.0611505
0.0697902
0.0826646
0.0981629
0.107982
0.10501
0.0877843
0.0655669
0.0537303
0.0591032
0.0736274
0.0898609
0.109765
0.143007
0.187365
0.173153
0.0399172
0.0488659
0.0533605
0.0579075
0.0636389
0.0716617
0.0833669
0.0967988
0.102798
0.0957436
0.072942
0.0432475
0.0269903
0.0431589
0.0664188
0.0857909
0.104026
0.131511
0.183233
0.206622
0.0422062
0.0515184
0.0556427
0.0596359
0.0647086
0.071771
0.0818505
0.093401
0.0982931
0.0910652
0.0678534
0.0348574
0.00204042
0.0346253
0.062544
0.0829091
0.100494
0.12503
0.177197
0.22706
0.0430955
0.0528576
0.0566955
0.0601192
0.0644023
0.070283
0.0785605
0.0883935
0.0938028
0.0896097
0.0728581
0.0482327
0.0308943
0.0416719
0.0623712
0.079713
0.095486
0.118023
0.170469
0.239363
0.0426574
0.0529178
0.0565512
0.059424
0.0628932
0.0675678
0.0740412
0.0820429
0.0879064
0.0874551
0.0787259
0.0647187
0.053939
0.0547388
0.0638815
0.0754228
0.088372
0.108846
0.162311
0.246834
0.0411615
0.051823
0.0553066
0.0576829
0.0604089
0.0640307
0.0689187
0.0750646
0.0806722
0.0828178
0.0799871
0.073171
0.0662034
0.0629169
0.0640292
0.069583
0.0791861
0.0976477
0.152254
0.251973
0.0389458
0.0497943
0.0530919
0.0550208
0.057125
0.0599388
0.0636917
0.0683802
0.0732299
0.076621
0.0770531
0.0742362
0.0695526
0.0649144
0.0619568
0.0628136
0.0688028
0.0848974
0.140402
0.2556
0.0361267
0.046893
0.0499392
0.0514673
0.0531189
0.0554203
0.0585436
0.0624216
0.0666221
0.0702988
0.0722923
0.0717202
0.0687678
0.0641684
0.0592779
0.0566222
0.0585462
0.0717217
0.126164
0.25794
0.0345651
0.0441128
0.0463047
0.0471953
0.0484344
0.0504832
0.0534579
0.0572042
0.0613005
0.0651344
0.0679067
0.0687327
0.0671663
0.0632746
0.0577346
0.0526441
0.0499223
0.0606923
0.110296
0.260616
0.0292016
0.0376719
0.0399024
0.0409421
0.0423675
0.0447071
0.0481405
0.0524544
0.0571697
0.0616735
0.0652896
0.0673296
0.0672295
0.0644285
0.0590504
0.0526328
0.0452289
0.0563078
0.0964843
0.266435
0.0442817
0.0469328
0.0429037
0.0393814
0.0384679
0.0401941
0.044127
0.0494874
0.0554824
0.061397
0.0665442
0.0702374
0.0717719
0.0709274
0.0669878
0.0613134
0.050403
0.0643479
0.0794005
0.268075
0.0162053
0.0137119
0.0114823
0.0198239
0.0295341
0.0399513
0.0505199
0.060885
0.0707906
0.0800082
0.0882536
0.0952102
0.100527
0.104205
0.105336
0.105968
0.0957595
0.108493
0.0515511
0.237175
0.101471
0.0924602
0.0968089
0.112495
0.128159
0.142544
0.156187
0.169168
0.181393
0.192824
0.203385
0.212962
0.221339
0.228509
0.233446
0.238567
0.231489
0.252224
0.125776
0.391076
)
;

boundaryField
{
    movingWall
    {
        type            calculated;
        value           uniform 1;
    }
    fixedWalls
    {
        type            calculated;
        value           uniform 0;
    }
    frontAndBack
    {
        type            empty;
    }
}


// ************************************************************************* //
