/*--------------------------------*- C++ -*----------------------------------*\
| =========                 |                                                 |
| \\      /  F ield         | OpenFOAM: The Open Source CFD Toolbox           |
|  \\    /   O peration     | Version:  2312                                  |
|   \\  /    A nd           | Website:  www.openfoam.com                      |
|    \\/     M anipulation  |                                                 |
\*---------------------------------------------------------------------------*/
FoamFile
{
    version     2.0;
    format      ascii;
    arch        "LSB;label=32;scalar=64";
    class       volVectorField;
    location    "2";
    object      momentum1:momentum;
}
// * * * * * * * * * * * * * * * * * * * * * * * * * * * * * * * * * * * * * //

dimensions      [1 1 -1 0 0 0 0];

internalField   nonuniform List<vector> 
400
(
(-6.48344e-11 5.25603e-11 0)
(-5.86328e-10 2.64982e-10 0)
(-1.57691e-09 4.01893e-10 0)
(-2.73355e-09 4.71448e-10 0)
(-4.01574e-09 5.53323e-10 0)
(-5.45105e-09 6.75123e-10 0)
(-7.04775e-09 8.08935e-10 0)
(-8.76847e-09 9.09745e-10 0)
(-1.05681e-08 9.55775e-10 0)
(-1.23633e-08 9.24097e-10 0)
(-1.39413e-08 7.59191e-10 0)
(-1.49791e-08 4.00968e-10 0)
(-1.50908e-08 -1.60091e-10 0)
(-1.39768e-08 -8.3264e-10 0)
(-1.16184e-08 -1.42571e-09 0)
(-8.34889e-09 -1.76283e-09 0)
(-4.7559e-09 -1.64578e-09 0)
(-1.57092e-09 -1.0203e-09 0)
(1.30929e-10 -3.10411e-10 0)
(3.00675e-10 2.12166e-10 0)
(-3.36609e-10 6.183e-10 0)
(-1.42694e-09 1.40527e-09 0)
(-2.96957e-09 1.84784e-09 0)
(-4.74152e-09 2.07131e-09 0)
(-6.64516e-09 2.26529e-09 0)
(-8.60378e-09 2.44776e-09 0)
(-1.05502e-08 2.57859e-09 0)
(-1.25159e-08 2.67018e-09 0)
(-1.46004e-08 2.70912e-09 0)
(-1.68119e-08 2.55897e-09 0)
(-1.89457e-08 2.01088e-09 0)
(-2.05847e-08 9.52769e-10 0)
(-2.12317e-08 -5.58731e-10 0)
(-2.04462e-08 -2.32402e-09 0)
(-1.80371e-08 -4.05267e-09 0)
(-1.41752e-08 -5.22277e-09 0)
(-9.31402e-09 -5.25846e-09 0)
(-4.26086e-09 -3.83497e-09 0)
(-6.05293e-10 -1.52721e-09 0)
(2.76801e-10 2.42713e-10 0)
(-6.24009e-10 1.76374e-09 0)
(-2.04055e-09 2.95633e-09 0)
(-3.75424e-09 3.64987e-09 0)
(-5.71273e-09 4.05892e-09 0)
(-7.80819e-09 4.3327e-09 0)
(-9.92547e-09 4.50368e-09 0)
(-1.20716e-08 4.64755e-09 0)
(-1.44698e-08 4.88467e-09 0)
(-1.7354e-08 5.17868e-09 0)
(-2.0723e-08 5.25362e-09 0)
(-2.42234e-08 4.66447e-09 0)
(-2.71982e-08 2.96205e-09 0)
(-2.89446e-08 7.35927e-11 0)
(-2.90738e-08 -3.58964e-09 0)
(-2.71274e-08 -7.32321e-09 0)
(-2.31241e-08 -1.01869e-08 0)
(-1.72252e-08 -1.12123e-08 0)
(-9.96658e-09 -9.29594e-09 0)
(-2.53198e-09 -4.53041e-09 0)
(3.12368e-10 2.70717e-11 0)
(-7.92626e-10 3.19473e-09 0)
(-2.40342e-09 4.65228e-09 0)
(-4.17913e-09 5.51183e-09 0)
(-6.15157e-09 6.07684e-09 0)
(-8.25997e-09 6.45127e-09 0)
(-1.04713e-08 6.72797e-09 0)
(-1.2955e-08 7.17108e-09 0)
(-1.60785e-08 8.00233e-09 0)
(-2.00956e-08 9.00522e-09 0)
(-2.48202e-08 9.45099e-09 0)
(-2.94578e-08 8.42884e-09 0)
(-3.29873e-08 5.51964e-09 0)
(-3.47781e-08 9.64375e-10 0)
(-3.49075e-08 -4.62501e-09 0)
(-3.37672e-08 -1.04887e-08 0)
(-3.0866e-08 -1.57582e-08 0)
(-2.567e-08 -1.90085e-08 0)
(-1.78169e-08 -1.82535e-08 0)
(-8.10818e-09 -1.17145e-08 0)
(-1.33278e-10 -1.94511e-09 0)
(-8.45717e-10 4.77631e-09 0)
(-2.51835e-09 6.43019e-09 0)
(-4.26109e-09 7.38231e-09 0)
(-6.15426e-09 8.06789e-09 0)
(-8.20158e-09 8.59845e-09 0)
(-1.04555e-08 9.17144e-09 0)
(-1.31925e-08 1.02154e-08 0)
(-1.68223e-08 1.19176e-08 0)
(-2.14475e-08 1.36876e-08 0)
(-2.63926e-08 1.4195e-08 0)
(-3.05213e-08 1.23257e-08 0)
(-3.31011e-08 7.95233e-09 0)
(-3.41968e-08 1.76973e-09 0)
(-3.41221e-08 -5.15109e-09 0)
(-3.32311e-08 -1.22203e-08 0)
(-3.18598e-08 -1.91634e-08 0)
(-2.91829e-08 -2.5138e-08 0)
(-2.3586e-08 -2.77466e-08 0)
(-1.4187e-08 -2.261e-08 0)
(-2.70298e-09 -6.86531e-09 0)
(-8.02206e-10 6.36188e-09 0)
(-2.40942e-09 8.1686e-09 0)
(-4.03106e-09 9.17013e-09 0)
(-5.76423e-09 9.9725e-09 0)
(-7.67002e-09 1.07274e-08 0)
(-9.84127e-09 1.17317e-08 0)
(-1.25815e-08 1.35062e-08 0)
(-1.6226e-08 1.60866e-08 0)
(-2.05433e-08 1.82531e-08 0)
(-2.46385e-08 1.82126e-08 0)
(-2.74359e-08 1.50075e-08 0)
(-2.84603e-08 9.1001e-09 0)
(-2.79728e-08 1.95938e-09 0)
(-2.68886e-08 -5.33731e-09 0)
(-2.59686e-08 -1.23853e-08 0)
(-2.55987e-08 -1.95242e-08 0)
(-2.54372e-08 -2.71422e-08 0)
(-2.3539e-08 -3.38951e-08 0)
(-1.72517e-08 -3.40739e-08 0)
(-6.61366e-09 -1.77853e-08 0)
(-6.8781e-10 7.82257e-09 0)
(-2.12041e-09 9.75832e-09 0)
(-3.54082e-09 1.07836e-08 0)
(-5.03581e-09 1.16926e-08 0)
(-6.69352e-09 1.26948e-08 0)
(-8.58854e-09 1.41439e-08 0)
(-1.09515e-08 1.65703e-08 0)
(-1.39616e-08 1.97153e-08 0)
(-1.72679e-08 2.18023e-08 0)
(-2.00339e-08 2.09223e-08 0)
(-2.14022e-08 1.62953e-08 0)
(-2.12134e-08 9.01441e-09 0)
(-2.01758e-08 1.05272e-09 0)
(-1.89716e-08 -6.33782e-09 0)
(-1.77869e-08 -1.29581e-08 0)
(-1.71012e-08 -1.91435e-08 0)
(-1.75485e-08 -2.62246e-08 0)
(-1.8335e-08 -3.52768e-08 0)
(-1.59497e-08 -4.22611e-08 0)
(-7.91316e-09 -3.06372e-08 0)
(-5.24537e-10 9.05106e-09 0)
(-1.69969e-09 1.11096e-08 0)
(-2.85208e-09 1.2142e-08 0)
(-4.03699e-09 1.31295e-08 0)
(-5.3293e-09 1.43286e-08 0)
(-6.74971e-09 1.60891e-08 0)
(-8.39525e-09 1.88841e-08 0)
(-1.03464e-08 2.22531e-08 0)
(-1.22818e-08 2.40399e-08 0)
(-1.37831e-08 2.23431e-08 0)
(-1.43264e-08 1.66248e-08 0)
(-1.40486e-08 8.44552e-09 0)
(-1.34325e-08 -4.10345e-11 0)
(-1.25623e-08 -7.77907e-09 0)
(-1.1445e-08 -1.44161e-08 0)
(-1.04566e-08 -1.98833e-08 0)
(-1.028e-08 -2.54429e-08 0)
(-1.15751e-08 -3.38261e-08 0)
(-1.18495e-08 -4.53177e-08 0)
(-7.08942e-09 -4.27039e-08 0)
(-3.34779e-10 9.97369e-09 0)
(-1.19925e-09 1.21575e-08 0)
(-2.03755e-09 1.31836e-08 0)
(-2.85952e-09 1.41917e-08 0)
(-3.69989e-09 1.54735e-08 0)
(-4.52661e-09 1.73341e-08 0)
(-5.28491e-09 2.01605e-08 0)
(-6.00094e-09 2.34439e-08 0)
(-6.4676e-09 2.48723e-08 0)
(-6.84545e-09 2.29362e-08 0)
(-6.90928e-09 1.68759e-08 0)
(-6.82592e-09 8.38471e-09 0)
(-6.73405e-09 -4.27157e-10 0)
(-6.41319e-09 -8.67695e-09 0)
(-5.77764e-09 -1.55671e-08 0)
(-5.29637e-09 -2.07835e-08 0)
(-5.13118e-09 -2.54952e-08 0)
(-6.14203e-09 -3.22989e-08 0)
(-7.39568e-09 -4.52073e-08 0)
(-5.28262e-09 -5.13847e-08 0)
(-1.38372e-10 1.05506e-08 0)
(-6.64257e-10 1.28624e-08 0)
(-1.1636e-09 1.38619e-08 0)
(-1.60242e-09 1.48226e-08 0)
(-1.96605e-09 1.60572e-08 0)
(-2.18422e-09 1.78093e-08 0)
(-2.08226e-09 2.03564e-08 0)
(-1.61177e-09 2.32946e-08 0)
(-7.7568e-10 2.4561e-08 0)
(7.04901e-11 2.27662e-08 0)
(6.14479e-10 1.69522e-08 0)
(7.333e-10 8.68345e-09 0)
(4.72265e-10 -1.928e-10 0)
(2.09709e-10 -8.65378e-09 0)
(3.3041e-12 -1.5636e-08 0)
(-5.26959e-10 -2.07206e-08 0)
(-1.15439e-09 -2.50969e-08 0)
(-2.45525e-09 -3.11608e-08 0)
(-4.01919e-09 -4.41167e-08 0)
(-3.70949e-09 -5.66437e-08 0)
(4.97304e-11 1.07738e-08 0)
(-1.42243e-10 1.32136e-08 0)
(-3.03572e-10 1.41706e-08 0)
(-3.72019e-10 1.50252e-08 0)
(-2.89676e-10 1.6098e-08 0)
(3.04921e-11 1.75707e-08 0)
(8.11754e-10 1.96233e-08 0)
(2.20779e-09 2.19878e-08 0)
(4.10098e-09 2.30893e-08 0)
(6.04709e-09 2.15708e-08 0)
(7.40216e-09 1.66426e-08 0)
(7.93071e-09 9.08315e-09 0)
(7.70721e-09 5.02269e-10 0)
(6.93632e-09 -7.77314e-09 0)
(5.5332e-09 -1.4578e-08 0)
(3.79169e-09 -1.95642e-08 0)
(2.17568e-09 -2.37722e-08 0)
(1.68787e-10 -2.95052e-08 0)
(-1.76033e-09 -4.25808e-08 0)
(-2.89101e-09 -5.97709e-08 0)
(2.00198e-10 1.06625e-08 0)
(3.19884e-10 1.32256e-08 0)
(4.71079e-10 1.41299e-08 0)
(7.31851e-10 1.4838e-08 0)
(1.18862e-09 1.56783e-08 0)
(1.93288e-09 1.6781e-08 0)
(3.15645e-09 1.82392e-08 0)
(5.0826e-09 1.9871e-08 0)
(7.57721e-09 2.0629e-08 0)
(1.02539e-08 1.93102e-08 0)
(1.23616e-08 1.53151e-08 0)
(1.34632e-08 8.9736e-09 0)
(1.34083e-08 1.43395e-09 0)
(1.22549e-08 -6.09008e-09 0)
(9.94681e-09 -1.24946e-08 0)
(7.25122e-09 -1.74057e-08 0)
(4.76079e-09 -2.1574e-08 0)
(2.04405e-09 -2.71347e-08 0)
(-3.63574e-10 -4.05762e-08 0)
(-2.61769e-09 -6.16531e-08 0)
(3.06475e-10 1.02858e-08 0)
(6.84187e-10 1.29377e-08 0)
(1.10732e-09 1.37822e-08 0)
(1.64661e-09 1.43264e-08 0)
(2.39619e-09 1.49109e-08 0)
(3.43861e-09 1.5634e-08 0)
(4.90324e-09 1.65173e-08 0)
(6.98255e-09 1.74187e-08 0)
(9.64485e-09 1.77123e-08 0)
(1.25104e-08 1.64974e-08 0)
(1.4922e-08 1.33119e-08 0)
(1.63388e-08 8.226e-09 0)
(1.64257e-08 2.03197e-09 0)
(1.51367e-08 -4.27643e-09 0)
(1.25897e-08 -9.88595e-09 0)
(9.51542e-09 -1.45626e-08 0)
(6.50537e-09 -1.86971e-08 0)
(3.28404e-09 -2.419e-08 0)
(4.24071e-10 -3.80611e-08 0)
(-2.67231e-09 -6.29366e-08 0)
(3.52204e-10 9.73007e-09 0)
(9.21484e-10 1.24144e-08 0)
(1.56679e-09 1.31802e-08 0)
(2.33706e-09 1.35552e-08 0)
(3.31235e-09 1.38918e-08 0)
(4.5518e-09 1.42766e-08 0)
(6.13311e-09 1.46944e-08 0)
(8.16414e-09 1.50196e-08 0)
(1.06554e-08 1.48871e-08 0)
(1.33224e-08 1.37636e-08 0)
(1.56411e-08 1.12442e-08 0)
(1.70437e-08 7.34514e-09 0)
(1.71961e-08 2.57751e-09 0)
(1.60443e-08 -2.43876e-09 0)
(1.3725e-08 -7.17907e-09 0)
(1.07188e-08 -1.14762e-08 0)
(7.5528e-09 -1.54538e-08 0)
(4.03181e-09 -2.08379e-08 0)
(8.48704e-10 -3.50902e-08 0)
(-2.88592e-09 -6.38348e-08 0)
(3.29755e-10 9.02565e-09 0)
(9.87695e-10 1.16816e-08 0)
(1.8084e-09 1.23531e-08 0)
(2.77421e-09 1.25642e-08 0)
(3.93269e-09 1.2684e-08 0)
(5.31418e-09 1.27954e-08 0)
(6.95686e-09 1.28768e-08 0)
(8.89039e-09 1.28254e-08 0)
(1.10975e-08 1.24198e-08 0)
(1.3396e-08 1.13761e-08 0)
(1.54124e-08 9.43887e-09 0)
(1.66857e-08 6.56311e-09 0)
(1.69283e-08 2.99947e-09 0)
(1.60197e-08 -8.46609e-10 0)
(1.40529e-08 -4.70471e-09 0)
(1.13491e-08 -8.46027e-09 0)
(8.22491e-09 -1.2107e-08 0)
(4.56205e-09 -1.73404e-08 0)
(1.36835e-09 -3.15114e-08 0)
(-3.04885e-09 -6.44128e-08 0)
(1.61582e-10 8.63975e-09 0)
(8.57071e-10 1.09949e-08 0)
(1.79845e-09 1.14356e-08 0)
(2.9177e-09 1.14324e-08 0)
(4.23541e-09 1.13437e-08 0)
(5.74905e-09 1.12354e-08 0)
(7.4565e-09 1.1091e-08 0)
(9.33644e-09 1.08329e-08 0)
(1.1331e-08 1.03183e-08 0)
(1.33017e-08 9.3926e-09 0)
(1.50142e-08 7.92346e-09 0)
(1.6153e-08 5.86019e-09 0)
(1.64634e-08 3.30384e-09 0)
(1.58123e-08 4.48657e-10 0)
(1.42072e-08 -2.54673e-09 0)
(1.18788e-08 -5.66633e-09 0)
(8.79774e-09 -8.85238e-09 0)
(5.4824e-09 -1.4148e-08 0)
(2.67846e-09 -2.74435e-08 0)
(-2.85211e-09 -6.50915e-08 0)
(-1.85889e-10 7.29803e-09 0)
(1.94011e-10 9.41598e-09 0)
(1.27244e-09 9.89411e-09 0)
(2.6129e-09 9.8964e-09 0)
(4.13932e-09 9.74956e-09 0)
(5.83427e-09 9.5332e-09 0)
(7.6671e-09 9.27685e-09 0)
(9.59011e-09 8.94407e-09 0)
(1.15274e-08 8.44938e-09 0)
(1.3359e-08 7.69834e-09 0)
(1.49219e-08 6.61494e-09 0)
(1.60221e-08 5.15965e-09 0)
(1.64583e-08 3.4079e-09 0)
(1.60445e-08 1.41889e-09 0)
(1.47427e-08 -7.65331e-10 0)
(1.27593e-08 -3.21517e-09 0)
(9.64067e-09 -5.90853e-09 0)
(7.79036e-09 -1.17248e-08 0)
(4.68552e-09 -2.36616e-08 0)
(-1.93417e-09 -6.65806e-08 0)
(-8.1182e-10 1.10406e-08 0)
(-6.35875e-10 1.1716e-08 0)
(6.57716e-10 1.07057e-08 0)
(2.1393e-09 9.61011e-09 0)
(3.86518e-09 8.80607e-09 0)
(5.80181e-09 8.20439e-09 0)
(7.87425e-09 7.72631e-09 0)
(9.99746e-09 7.28788e-09 0)
(1.20861e-08 6.80579e-09 0)
(1.40361e-08 6.21186e-09 0)
(1.57161e-08 5.45559e-09 0)
(1.69611e-08 4.54453e-09 0)
(1.76028e-08 3.47705e-09 0)
(1.75836e-08 2.28789e-09 0)
(1.67184e-08 9.77745e-10 0)
(1.5309e-08 -7.70951e-10 0)
(1.21852e-08 -3.20945e-09 0)
(1.29857e-08 -9.49541e-09 0)
(5.6503e-09 -1.9029e-08 0)
(1.3713e-09 -6.70046e-08 0)
(-1.66941e-09 3.69138e-09 0)
(-2.48763e-09 2.35854e-09 0)
(1.76039e-10 2.86518e-09 0)
(3.16526e-09 3.81352e-09 0)
(6.14531e-09 4.09286e-09 0)
(9.12221e-09 4.06719e-09 0)
(1.19884e-08 3.9744e-09 0)
(1.47205e-08 3.87208e-09 0)
(1.72987e-08 3.73633e-09 0)
(1.96869e-08 3.53638e-09 0)
(2.18218e-08 3.25629e-09 0)
(2.36256e-08 2.89698e-09 0)
(2.50104e-08 2.46706e-09 0)
(2.59782e-08 1.94814e-09 0)
(2.62995e-08 1.34794e-09 0)
(2.64899e-08 3.36886e-10 0)
(2.39197e-08 -9.8156e-10 0)
(2.65962e-08 -5.321e-09 0)
(7.41641e-09 -1.054e-08 0)
(1.79062e-08 -5.65252e-08 0)
(1.01034e-08 2.32691e-08 0)
(1.52084e-08 1.74072e-08 0)
(2.16121e-08 1.08934e-08 0)
(2.7178e-08 7.23228e-09 0)
(3.15934e-08 5.32915e-09 0)
(3.53849e-08 4.22197e-09 0)
(3.889e-08 3.49581e-09 0)
(4.21869e-08 2.98004e-09 0)
(4.52742e-08 2.59198e-09 0)
(4.81517e-08 2.28883e-09 0)
(5.08053e-08 2.0367e-09 0)
(5.32095e-08 1.81725e-09 0)
(5.53112e-08 1.61595e-09 0)
(5.71097e-08 1.41622e-09 0)
(5.83494e-08 1.19199e-09 0)
(5.96353e-08 8.7599e-10 0)
(5.78699e-08 5.18932e-10 0)
(6.30513e-08 -7.73058e-10 0)
(3.14322e-08 8.63999e-10 0)
(9.46352e-08 -2.45548e-08 0)
)
;

boundaryField
{
    movingWall
    {
        type            calculated;
        value           uniform (0 0 0);
    }
    fixedWalls
    {
        type            calculated;
        value           uniform (0 0 0);
    }
    frontAndBack
    {
        type            empty;
    }
}


// ************************************************************************* //
