/*--------------------------------*- C++ -*----------------------------------*\
| =========                 |                                                 |
| \\      /  F ield         | OpenFOAM: The Open Source CFD Toolbox           |
|  \\    /   O peration     | Version:  2312                                  |
|   \\  /    A nd           | Website:  www.openfoam.com                      |
|    \\/     M anipulation  |                                                 |
\*---------------------------------------------------------------------------*/
FoamFile
{
    version     2.0;
    format      ascii;
    arch        "LSB;label=32;scalar=64";
    class       volVectorField;
    location    "2";
    object      norm_U_Lp;
}
// * * * * * * * * * * * * * * * * * * * * * * * * * * * * * * * * * * * * * //

dimensions      [0 0 0 0 0 0 0];

internalField   nonuniform List<vector> 
400
(
(-0.776804 0.629743 0)
(-0.91126 0.411831 0)
(-0.969024 0.246967 0)
(-0.985451 0.169958 0)
(-0.99064 0.136499 0)
(-0.992417 0.122913 0)
(-0.993477 0.11403 0)
(-0.994661 0.103198 0)
(-0.995935 0.0900717 0)
(-0.997218 0.0745372 0)
(-0.998521 0.0543759 0)
(-0.999642 0.0267588 0)
(-0.999944 -0.010608 0)
(-0.99823 -0.0594674 0)
(-0.992555 -0.121798 0)
(-0.978427 -0.206591 0)
(-0.945016 -0.327024 0)
(-0.838639 -0.544688 0)
(0.388637 -0.921391 0)
(0.817065 0.576546 0)
(-0.478146 0.878281 0)
(-0.712496 0.701676 0)
(-0.849042 0.528325 0)
(-0.916377 0.400316 0)
(-0.946515 0.322661 0)
(-0.961832 0.27364 0)
(-0.971406 0.237424 0)
(-0.977991 0.208648 0)
(-0.983217 0.182437 0)
(-0.988613 0.150478 0)
(-0.994414 0.105547 0)
(-0.998931 0.0462357 0)
(-0.999654 -0.0263067 0)
(-0.993602 -0.112938 0)
(-0.975675 -0.21922 0)
(-0.938336 -0.345725 0)
(-0.870803 -0.491633 0)
(-0.743277 -0.668983 0)
(-0.368455 -0.929646 0)
(0.751887 0.659292 0)
(-0.333539 0.942736 0)
(-0.568054 0.822991 0)
(-0.717003 0.69707 0)
(-0.815188 0.579196 0)
(-0.874403 0.4852 0)
(-0.910639 0.413203 0)
(-0.933226 0.35929 0)
(-0.94747 0.319844 0)
(-0.958243 0.285954 0)
(-0.969335 0.245743 0)
(-0.98196 0.189086 0)
(-0.994122 0.108266 0)
(-0.999997 0.00254253 0)
(-0.992464 -0.122536 0)
(-0.96544 -0.260627 0)
(-0.915136 -0.403146 0)
(-0.838089 -0.545534 0)
(-0.731282 -0.682075 0)
(-0.487863 -0.87292 0)
(0.996266 0.0863424 0)
(-0.240804 0.970574 0)
(-0.458982 0.888446 0)
(-0.604179 0.796848 0)
(-0.711415 0.702772 0)
(-0.788109 0.615536 0)
(-0.84131 0.540554 0)
(-0.874905 0.484294 0)
(-0.895248 0.445568 0)
(-0.912563 0.408937 0)
(-0.934542 0.355853 0)
(-0.961418 0.275093 0)
(-0.986288 0.165032 0)
(-0.999616 0.0277187 0)
(-0.991337 -0.131345 0)
(-0.95499 -0.296638 0)
(-0.890643 -0.454704 0)
(-0.803652 -0.5951 0)
(-0.698496 -0.715614 0)
(-0.569122 -0.822253 0)
(-0.0683593 -0.997661 0)
(-0.174353 0.984683 0)
(-0.364674 0.931135 0)
(-0.499905 0.866081 0)
(-0.606498 0.795085 0)
(-0.69021 0.723609 0)
(-0.751761 0.659436 0)
(-0.790671 0.612241 0)
(-0.815982 0.578077 0)
(-0.842963 0.537972 0)
(-0.8807 0.473675 0)
(-0.927244 0.374457 0)
(-0.972334 0.233597 0)
(-0.998664 0.0516822 0)
(-0.988797 -0.149269 0)
(-0.938552 -0.345139 0)
(-0.856929 -0.515435 0)
(-0.757662 -0.652647 0)
(-0.647671 -0.76192 0)
(-0.5315 -0.847059 0)
(-0.366344 -0.930479 0)
(-0.125105 0.992143 0)
(-0.282911 0.959146 0)
(-0.402421 0.915455 0)
(-0.50043 0.865777 0)
(-0.58162 0.81346 0)
(-0.642679 0.766135 0)
(-0.681615 0.731711 0)
(-0.71015 0.704051 0)
(-0.747546 0.66421 0)
(-0.804152 0.594423 0)
(-0.877324 0.479898 0)
(-0.952494 0.304557 0)
(-0.997556 0.0698749 0)
(-0.980863 -0.194698 0)
(-0.9026 -0.430481 0)
(-0.795125 -0.606445 0)
(-0.683819 -0.729652 0)
(-0.570407 -0.821363 0)
(-0.451707 -0.892166 0)
(-0.348542 -0.937293 0)
(-0.0875884 0.996157 0)
(-0.212337 0.977196 0)
(-0.311965 0.950094 0)
(-0.395557 0.918441 0)
(-0.466404 0.884572 0)
(-0.519031 0.854755 0)
(-0.551373 0.834259 0)
(-0.577923 0.816091 0)
(-0.620876 0.783909 0)
(-0.691605 0.722276 0)
(-0.79563 0.605782 0)
(-0.920351 0.391093 0)
(-0.998642 0.0521066 0)
(-0.948474 -0.316856 0)
(-0.808256 -0.588831 0)
(-0.666205 -0.745769 0)
(-0.556134 -0.831093 0)
(-0.461175 -0.887309 0)
(-0.353097 -0.935587 0)
(-0.250079 -0.968225 0)
(-0.057856 0.998325 0)
(-0.151233 0.988498 0)
(-0.22867 0.973504 0)
(-0.293896 0.955837 0)
(-0.348602 0.937271 0)
(-0.386857 0.92214 0)
(-0.406232 0.91377 0)
(-0.421599 0.906782 0)
(-0.454957 0.890513 0)
(-0.525023 0.851088 0)
(-0.652802 0.757529 0)
(-0.857052 0.515231 0)
(-0.999995 -0.00305485 0)
(-0.850192 -0.526473 0)
(-0.621781 -0.783191 0)
(-0.465455 -0.885071 0)
(-0.374618 -0.927179 0)
(-0.323764 -0.946138 0)
(-0.252972 -0.967474 0)
(-0.163772 -0.986498 0)
(-0.0335473 0.999437 0)
(-0.0981669 0.99517 0)
(-0.152739 0.988267 0)
(-0.197523 0.980298 0)
(-0.232555 0.972583 0)
(-0.252665 0.967554 0)
(-0.253573 0.967316 0)
(-0.247976 0.968766 0)
(-0.251663 0.967815 0)
(-0.285991 0.958232 0)
(-0.378892 0.925441 0)
(-0.631336 0.77551 0)
(-0.997994 -0.0633052 0)
(-0.594379 -0.804185 0)
(-0.347952 -0.937512 0)
(-0.246943 -0.96903 0)
(-0.197304 -0.980342 0)
(-0.186814 -0.982395 0)
(-0.161449 -0.986881 0)
(-0.102266 -0.994757 0)
(-0.0131139 0.999914 0)
(-0.0515744 0.998669 0)
(-0.0836478 0.996495 0)
(-0.10748 0.994207 0)
(-0.121533 0.992587 0)
(-0.121733 0.992563 0)
(-0.101759 0.994809 0)
(-0.0690259 0.997615 0)
(-0.031566 0.999502 0)
(0.00309625 0.999995 0)
(0.0362239 0.999344 0)
(0.0841485 0.996453 0)
(0.925821 -0.377962 0)
(0.0242261 -0.999707 0)
(0.000211314 -1 0)
(-0.0254235 -0.999677 0)
(-0.0459488 -0.998944 0)
(-0.0785494 -0.99691 0)
(-0.090728 -0.995876 0)
(-0.0653483 -0.997863 0)
(0.00461582 0.999989 0)
(-0.0107643 0.999942 0)
(-0.0214177 0.999771 0)
(-0.0247521 0.999694 0)
(-0.0179916 0.999838 0)
(0.00173539 0.999998 0)
(0.0413314 0.999145 0)
(0.0999071 0.994997 0)
(0.174876 0.98459 0)
(0.26993 0.96288 0)
(0.406387 0.913701 0)
(0.657704 0.753277 0)
(0.997883 0.0650307 0)
(0.665803 -0.746127 0)
(0.354856 -0.934921 0)
(0.190267 -0.981732 0)
(0.0911414 -0.995838 0)
(0.00572049 -0.999984 0)
(-0.0413056 -0.999147 0)
(-0.0483117 -0.998832 0)
(0.0187726 0.999824 0)
(0.0241797 0.999708 0)
(0.0333205 0.999445 0)
(0.049263 0.998786 0)
(0.075596 0.997139 0)
(0.114426 0.993432 0)
(0.170524 0.985353 0)
(0.247802 0.968811 0)
(0.344785 0.938682 0)
(0.468988 0.883204 0)
(0.628083 0.778146 0)
(0.832103 0.554622 0)
(0.99433 0.106338 0)
(0.895516 -0.445029 0)
(0.622829 -0.782358 0)
(0.384564 -0.923098 0)
(0.215489 -0.976506 0)
(0.075117 -0.997175 0)
(-0.00895993 -0.99996 0)
(-0.0424202 -0.9991 0)
(0.0297827 0.999556 0)
(0.0528095 0.998605 0)
(0.0800859 0.996788 0)
(0.114183 0.99346 0)
(0.158665 0.987333 0)
(0.21481 0.976656 0)
(0.284581 0.958652 0)
(0.372082 0.9282 0)
(0.478224 0.878238 0)
(0.604236 0.796806 0)
(0.746219 0.665701 0)
(0.893187 0.449686 0)
(0.992435 0.122771 0)
(0.962332 -0.271878 0)
(0.7865 -0.61759 0)
(0.546996 -0.837135 0)
(0.328612 -0.944465 0)
(0.134526 -0.99091 0)
(0.0111412 -0.999938 0)
(-0.0424221 -0.9991 0)
(0.0361738 0.999346 0)
(0.0740232 0.997257 0)
(0.118044 0.993008 0)
(0.169904 0.985461 0)
(0.231937 0.972731 0)
(0.303763 0.952748 0)
(0.385175 0.922844 0)
(0.477574 0.878592 0)
(0.582022 0.813173 0)
(0.695498 0.718528 0)
(0.811963 0.583709 0)
(0.918349 0.395771 0)
(0.988952 0.148234 0)
(0.988644 -0.150275 0)
(0.886103 -0.463489 0)
(0.682581 -0.73081 0)
(0.439099 -0.898439 0)
(0.189962 -0.981792 0)
(0.0241793 -0.999708 0)
(-0.045163 -0.99898 0)
(0.0365109 0.999333 0)
(0.0842509 0.996445 0)
(0.144848 0.989454 0)
(0.21561 0.97648 0)
(0.296142 0.955144 0)
(0.383554 0.923518 0)
(0.475328 0.879808 0)
(0.569699 0.821853 0)
(0.666294 0.745689 0)
(0.762235 0.647301 0)
(0.852785 0.522262 0)
(0.930599 0.36604 0)
(0.984663 0.174469 0)
(0.998606 -0.0527742 0)
(0.948269 -0.317468 0)
(0.801746 -0.597665 0)
(0.561943 -0.827176 0)
(0.254431 -0.967091 0)
(0.0433831 -0.999059 0)
(-0.04728 -0.998882 0)
(0.0186989 0.999825 0)
(0.0777162 0.996976 0)
(0.155358 0.987858 0)
(0.247287 0.968942 0)
(0.349785 0.93683 0)
(0.455521 0.890225 0)
(0.557935 0.829885 0)
(0.65285 0.757487 0)
(0.739377 0.673292 0)
(0.816876 0.576813 0)
(0.884402 0.466726 0)
(0.940048 0.341042 0)
(0.980453 0.196756 0)
(0.999598 0.0283626 0)
(0.984311 -0.176444 0)
(0.902572 -0.430538 0)
(0.704915 -0.709292 0)
(0.361324 -0.93244 0)
(0.0971374 -0.995271 0)
(-0.0437749 -0.999041 0)
(-0.0254629 0.999676 0)
(0.0206 0.999788 0)
(0.127555 0.991832 0)
(0.255277 0.966868 0)
(0.390801 0.920475 0)
(0.521999 0.852946 0)
(0.63706 0.770814 0)
(0.73131 0.682045 0)
(0.80654 0.591179 0)
(0.866431 0.499296 0)
(0.914198 0.405267 0)
(0.951861 0.306531 0)
(0.979228 0.202762 0)
(0.996112 0.0880908 0)
(0.998655 -0.0518426 0)
(0.969688 -0.244347 0)
(0.852612 -0.522545 0)
(0.553412 -0.832908 0)
(0.19425 -0.980952 0)
(-0.0290378 -0.999578 0)
(-0.0733323 0.997308 0)
(-0.0541945 0.99853 0)
(0.0613203 0.998118 0)
(0.21729 0.976107 0)
(0.401911 0.915679 0)
(0.577379 0.816477 0)
(0.71378 0.70037 0)
(0.808082 0.58907 0)
(0.87135 0.490663 0)
(0.914449 0.404701 0)
(0.944699 0.327938 0)
(0.965928 0.25881 0)
(0.981044 0.193784 0)
(0.991641 0.129027 0)
(0.998294 0.0583835 0)
(0.998734 -0.0502957 0)
(0.967019 -0.254703 0)
(0.807217 -0.590254 0)
(0.284648 -0.958632 0)
(0.0204614 -0.999791 0)
(-0.412065 0.911154 0)
(-0.725685 0.688027 0)
(0.061325 0.998118 0)
(0.638673 0.769478 0)
(0.832301 0.554324 0)
(0.913332 0.407215 0)
(0.949198 0.31468 0)
(0.967103 0.254386 0)
(0.97746 0.21112 0)
(0.984247 0.176801 0)
(0.989049 0.147588 0)
(0.992566 0.121709 0)
(0.99517 0.098165 0)
(0.9972 0.0747811 0)
(0.998689 0.0511865 0)
(0.999919 0.0127165 0)
(0.999159 -0.041001 0)
(0.980568 -0.196178 0)
(0.575461 -0.817829 0)
(0.301991 -0.953311 0)
(0.398275 0.917266 0)
(0.657944 0.753067 0)
(0.892978 0.4501 0)
(0.966369 0.257158 0)
(0.98607 0.16633 0)
(0.992957 0.118475 0)
(0.995984 0.0895287 0)
(0.997514 0.0704635 0)
(0.998365 0.0571571 0)
(0.998872 0.0474801 0)
(0.999197 0.0400562 0)
(0.999417 0.0341327 0)
(0.999573 0.0292031 0)
(0.999693 0.0247907 0)
(0.999791 0.0204242 0)
(0.999892 0.0146875 0)
(0.99996 0.00896686 0)
(0.999925 -0.0122598 0)
(0.999622 0.0274773 0)
(0.967948 -0.251151 0)
)
;

boundaryField
{
    movingWall
    {
        type            calculated;
        value           uniform (1 0 0);
    }
    fixedWalls
    {
        type            calculated;
        value           uniform (0 0 0);
    }
    frontAndBack
    {
        type            empty;
    }
}


// ************************************************************************* //
