/*--------------------------------*- C++ -*----------------------------------*\
| =========                 |                                                 |
| \\      /  F ield         | OpenFOAM: The Open Source CFD Toolbox           |
|  \\    /   O peration     | Version:  2312                                  |
|   \\  /    A nd           | Website:  www.openfoam.com                      |
|    \\/     M anipulation  |                                                 |
\*---------------------------------------------------------------------------*/
FoamFile
{
    version     2.0;
    format      ascii;
    arch        "LSB;label=32;scalar=64";
    class       volVectorField;
    location    "2";
    object      norm_U_L1;
}
// * * * * * * * * * * * * * * * * * * * * * * * * * * * * * * * * * * * * * //

dimensions      [0 0 0 0 0 0 0];

internalField   nonuniform List<vector> 
400
(
(-8.07366e-06 6.5452e-06 0)
(-7.30139e-05 3.29976e-05 0)
(-0.000196369 5.00467e-05 0)
(-0.000340402 5.87082e-05 0)
(-0.000500069 6.89038e-05 0)
(-0.000678805 8.40713e-05 0)
(-0.000877638 0.000100735 0)
(-0.00109191 0.000113288 0)
(-0.00131602 0.00011902 0)
(-0.00153957 0.000115075 0)
(-0.00173607 9.45401e-05 0)
(-0.00186531 4.99315e-05 0)
(-0.00187922 -1.99358e-05 0)
(-0.0017405 -0.000103687 0)
(-0.00144681 -0.00017754 0)
(-0.00103967 -0.000219521 0)
(-0.00059224 -0.000204945 0)
(-0.000195623 -0.000127055 0)
(1.63043e-05 -3.86547e-05 0)
(3.74423e-05 2.64204e-05 0)
(-4.19171e-05 7.69953e-05 0)
(-0.000177693 0.000174995 0)
(-0.000369792 0.000230107 0)
(-0.000590449 0.000257935 0)
(-0.000827505 0.000282091 0)
(-0.00107141 0.000304813 0)
(-0.00131378 0.000321105 0)
(-0.00155857 0.000332511 0)
(-0.00181815 0.00033736 0)
(-0.00209355 0.000318662 0)
(-0.00235926 0.00025041 0)
(-0.00256336 0.000118646 0)
(-0.00264393 -6.95773e-05 0)
(-0.00254611 -0.000289404 0)
(-0.00224612 -0.000504669 0)
(-0.0017652 -0.000650378 0)
(-0.00115985 -0.000654822 0)
(-0.000530594 -0.000477559 0)
(-7.53756e-05 -0.000190179 0)
(3.44693e-05 3.02244e-05 0)
(-7.77063e-05 0.000219634 0)
(-0.000254104 0.000368144 0)
(-0.000467505 0.000454509 0)
(-0.000711391 0.000505447 0)
(-0.000972333 0.00053954 0)
(-0.00123599 0.000560832 0)
(-0.00150325 0.000578748 0)
(-0.00180189 0.000608276 0)
(-0.00216105 0.000644888 0)
(-0.00258058 0.00065422 0)
(-0.00301648 0.000580854 0)
(-0.00338693 0.000368857 0)
(-0.0036044 9.16431e-06 0)
(-0.00362048 -0.000447009 0)
(-0.0033781 -0.00091194 0)
(-0.00287959 -0.00126855 0)
(-0.00214501 -0.00139624 0)
(-0.00124111 -0.0011576 0)
(-0.000315301 -0.00056416 0)
(3.88983e-05 3.37116e-06 0)
(-9.87037e-05 0.000397831 0)
(-0.000299292 0.000579336 0)
(-0.000520416 0.000686374 0)
(-0.000766039 0.000756733 0)
(-0.00102859 0.00080336 0)
(-0.00130397 0.000837817 0)
(-0.00161325 0.000892996 0)
(-0.00200222 0.000996509 0)
(-0.00250245 0.0011214 0)
(-0.00309079 0.00117691 0)
(-0.0036683 0.00104962 0)
(-0.00410782 0.000687346 0)
(-0.00433083 0.000120091 0)
(-0.00434694 -0.00057594 0)
(-0.00420494 -0.00130613 0)
(-0.00384366 -0.00196232 0)
(-0.00319662 -0.00236708 0)
(-0.00221869 -0.00227306 0)
(-0.00100969 -0.00145878 0)
(-1.65968e-05 -0.00024222 0)
(-0.000105315 0.000594781 0)
(-0.000313604 0.000800735 0)
(-0.000530623 0.0009193 0)
(-0.000766374 0.00100467 0)
(-0.00102132 0.00107074 0)
(-0.001302 0.0011421 0)
(-0.00164283 0.0012721 0)
(-0.00209484 0.00148407 0)
(-0.0026708 0.00170448 0)
(-0.0032866 0.00176766 0)
(-0.00380074 0.00153489 0)
(-0.004122 0.000990283 0)
(-0.00425845 0.00022038 0)
(-0.00424914 -0.000641452 0)
(-0.00413818 -0.00152176 0)
(-0.00396742 -0.00238636 0)
(-0.00363407 -0.00313037 0)
(-0.00293711 -0.00345521 0)
(-0.00176667 -0.00281557 0)
(-0.000336595 -0.00085492 0)
(-9.98967e-05 0.000792229 0)
(-0.000300038 0.00101721 0)
(-0.000501978 0.00114193 0)
(-0.000717805 0.00124185 0)
(-0.000955128 0.00133585 0)
(-0.00122551 0.00146092 0)
(-0.00156675 0.0016819 0)
(-0.00202058 0.00200323 0)
(-0.0025582 0.00227302 0)
(-0.00306816 0.00226796 0)
(-0.00341652 0.00186884 0)
(-0.00354408 0.00113321 0)
(-0.00348337 0.000243997 0)
(-0.00334837 -0.000664642 0)
(-0.00323381 -0.00154232 0)
(-0.00318773 -0.0024313 0)
(-0.00316763 -0.00337994 0)
(-0.00293125 -0.00422088 0)
(-0.00214831 -0.00424313 0)
(-0.000823582 -0.00221476 0)
(-8.56512e-05 0.000974125 0)
(-0.000264049 0.00121518 0)
(-0.00044093 0.00134286 0)
(-0.000627096 0.00145605 0)
(-0.000833527 0.00158085 0)
(-0.00106951 0.0017613 0)
(-0.00136377 0.00206346 0)
(-0.0017386 0.0024551 0)
(-0.00215033 0.00271498 0)
(-0.00249477 0.0026054 0)
(-0.00266516 0.00202922 0)
(-0.00264165 0.00112254 0)
(-0.00251243 0.000131092 0)
(-0.00236248 -0.000789233 0)
(-0.00221495 -0.00161364 0)
(-0.00212956 -0.00238389 0)
(-0.00218527 -0.00326568 0)
(-0.00228321 -0.00439293 0)
(-0.00198617 -0.00526266 0)
(-0.000985405 -0.00381518 0)
(-6.53192e-05 0.00112711 0)
(-0.000211658 0.00138345 0)
(-0.000355162 0.00151201 0)
(-0.000502715 0.00163498 0)
(-0.000663644 0.00178431 0)
(-0.000840524 0.00200353 0)
(-0.00104544 0.00235159 0)
(-0.00128841 0.00277112 0)
(-0.00152942 0.00299363 0)
(-0.00171637 0.00278233 0)
(-0.00178403 0.00207024 0)
(-0.00174943 0.0010517 0)
(-0.00167272 -5.10992e-06 0)
(-0.00156435 -0.000968707 0)
(-0.00142522 -0.0017952 0)
(-0.00130213 -0.00247602 0)
(-0.00128014 -0.00316834 0)
(-0.00144142 -0.00421227 0)
(-0.00147559 -0.0056433 0)
(-0.000882827 -0.00531781 0)
(-4.16892e-05 0.001242 0)
(-0.00014934 0.00151394 0)
(-0.000253731 0.00164172 0)
(-0.000356089 0.00176725 0)
(-0.000460737 0.00192688 0)
(-0.000563687 0.00215858 0)
(-0.000658116 0.00251054 0)
(-0.000747281 0.0029194 0)
(-0.000805393 0.00309728 0)
(-0.000852446 0.00285618 0)
(-0.000860395 0.00210151 0)
(-0.000850014 0.00104413 0)
(-0.000838573 -5.31927e-05 0)
(-0.000798618 -0.00108052 0)
(-0.000719474 -0.00193853 0)
(-0.000659543 -0.00258811 0)
(-0.000638973 -0.00317486 0)
(-0.000764851 -0.0040221 0)
(-0.000920965 -0.00562955 0)
(-0.000657831 -0.00639881 0)
(-1.72312e-05 0.00131384 0)
(-8.27182e-05 0.00160173 0)
(-0.0001449 0.00172619 0)
(-0.000199545 0.00184582 0)
(-0.000244827 0.00199957 0)
(-0.000271996 0.00221775 0)
(-0.000259299 0.00253493 0)
(-0.00020071 0.00290081 0)
(-9.65935e-05 0.00305852 0)
(8.77795e-06 0.00283501 0)
(7.65194e-05 0.00211102 0)
(9.1316e-05 0.00108133 0)
(5.881e-05 -2.40089e-05 0)
(2.61145e-05 -0.00107763 0)
(4.11451e-07 -0.00194711 0)
(-6.56209e-05 -0.00258028 0)
(-0.000143753 -0.00312525 0)
(-0.000305746 -0.00388038 0)
(-0.000500499 -0.00549373 0)
(-0.000461934 -0.00705369 0)
(6.19279e-06 0.00134163 0)
(-1.77132e-05 0.00164546 0)
(-3.78031e-05 0.00176463 0)
(-4.63265e-05 0.00187105 0)
(-3.60726e-05 0.00200464 0)
(3.7971e-06 0.00218804 0)
(0.000101086 0.00244364 0)
(0.00027493 0.00273809 0)
(0.000510684 0.00287526 0)
(0.000753028 0.00268616 0)
(0.000921771 0.00207246 0)
(0.000987591 0.0011311 0)
(0.00095976 6.25462e-05 0)
(0.000863762 -0.000967969 0)
(0.000689036 -0.00181536 0)
(0.000472169 -0.00243628 0)
(0.000270932 -0.00296029 0)
(2.10186e-05 -0.00367421 0)
(-0.000219209 -0.00530248 0)
(-0.00036001 -0.00744312 0)
(2.49301e-05 0.00132777 0)
(3.98343e-05 0.00164695 0)
(5.86622e-05 0.00175957 0)
(9.11355e-05 0.00184773 0)
(0.000148016 0.00195238 0)
(0.000240697 0.0020897 0)
(0.000393065 0.00227128 0)
(0.000632923 0.00247448 0)
(0.00094357 0.00256888 0)
(0.00127689 0.00240465 0)
(0.00153936 0.00190714 0)
(0.00167653 0.00111746 0)
(0.0016697 0.000178566 0)
(0.00152607 -0.000758382 0)
(0.00123865 -0.00155591 0)
(0.000902975 -0.00216748 0)
(0.000592849 -0.00268655 0)
(0.000254541 -0.00337902 0)
(-4.5275e-05 -0.00505284 0)
(-0.000325975 -0.0076775 0)
(3.81645e-05 0.00128086 0)
(8.52e-05 0.0016111 0)
(0.000137892 0.00171627 0)
(0.000205048 0.00178403 0)
(0.000298392 0.00185682 0)
(0.000428201 0.00194686 0)
(0.000610588 0.00205685 0)
(0.000869519 0.00216911 0)
(0.00120105 0.00220567 0)
(0.00155788 0.00205438 0)
(0.0018582 0.00165769 0)
(0.00203463 0.00102436 0)
(0.00204544 0.000253036 0)
(0.00188494 -0.000532532 0)
(0.00156777 -0.00123107 0)
(0.00118493 -0.00181344 0)
(0.000810097 -0.0023283 0)
(0.000408953 -0.00301232 0)
(5.28084e-05 -0.00473965 0)
(-0.000332776 -0.00783733 0)
(4.3859e-05 0.00121166 0)
(0.00011475 0.00154594 0)
(0.000195108 0.00164129 0)
(0.000291028 0.00168799 0)
(0.000412478 0.00172991 0)
(0.000566823 0.00177783 0)
(0.000763741 0.00182985 0)
(0.00101666 0.00187035 0)
(0.00132689 0.00185386 0)
(0.00165901 0.00171394 0)
(0.00194774 0.00140021 0)
(0.00212241 0.000914672 0)
(0.00214138 0.000320971 0)
(0.00199796 -0.000303692 0)
(0.00170914 -0.000893992 0)
(0.00133479 -0.0014291 0)
(0.000940531 -0.00192442 0)
(0.000502071 -0.00259489 0)
(0.000105687 -0.00436969 0)
(-0.000359376 -0.00794918 0)
(4.10635e-05 0.00112394 0)
(0.000122995 0.00145468 0)
(0.000225195 0.0015383 0)
(0.000345465 0.00156459 0)
(0.000489727 0.00157951 0)
(0.000661761 0.00159338 0)
(0.00086632 0.00160351 0)
(0.0011071 0.00159711 0)
(0.00138194 0.00154661 0)
(0.00166818 0.00141664 0)
(0.00191927 0.0011754 0)
(0.00207783 0.000817288 0)
(0.00210803 0.000373516 0)
(0.0019949 -0.000105426 0)
(0.00174997 -0.000585865 0)
(0.00141328 -0.00105354 0)
(0.00102423 -0.00150765 0)
(0.0005681 -0.00215935 0)
(0.000170397 -0.00392404 0)
(-0.000379665 -0.00802116 0)
(2.01214e-05 0.00107589 0)
(0.000106729 0.00136916 0)
(0.000223956 0.00142405 0)
(0.000363334 0.00142364 0)
(0.000527425 0.0014126 0)
(0.000715914 0.00139911 0)
(0.000928539 0.00138113 0)
(0.00116264 0.00134899 0)
(0.00141103 0.00128491 0)
(0.00165643 0.00116964 0)
(0.00186968 0.000986688 0)
(0.00201149 0.000729754 0)
(0.00205014 0.000411418 0)
(0.00196906 5.58702e-05 0)
(0.00176918 -0.000317137 0)
(0.00147923 -0.000705613 0)
(0.00109556 -0.00110236 0)
(0.000682709 -0.00176181 0)
(0.000333542 -0.00341747 0)
(-0.000355166 -0.00810568 0)
(-2.31483e-05 0.000908805 0)
(2.41597e-05 0.00117255 0)
(0.000158453 0.00123209 0)
(0.000325377 0.00123237 0)
(0.000515459 0.00121409 0)
(0.000726526 0.00118714 0)
(0.000954764 0.00115522 0)
(0.00119423 0.00111378 0)
(0.00143548 0.00105218 0)
(0.00166356 0.000958654 0)
(0.00185819 0.000823741 0)
(0.00199519 0.000642518 0)
(0.00204951 0.000424377 0)
(0.00199798 0.00017669 0)
(0.00183588 -9.53047e-05 0)
(0.00158889 -0.000400377 0)
(0.00120053 -0.000735774 0)
(0.000970113 -0.00146006 0)
(0.000583475 -0.00294652 0)
(-0.000240857 -0.00829111 0)
(-0.000101094 0.00137486 0)
(-7.91839e-05 0.00145896 0)
(8.19037e-05 0.00133316 0)
(0.000266401 0.00119672 0)
(0.00048132 0.0010966 0)
(0.000722484 0.00102167 0)
(0.00098056 0.000962137 0)
(0.00124496 0.000907542 0)
(0.00150506 0.000847507 0)
(0.00174788 0.000773547 0)
(0.00195708 0.000679371 0)
(0.00211212 0.000565919 0)
(0.00219204 0.000432988 0)
(0.00218965 0.000284905 0)
(0.0020819 0.000121756 0)
(0.00190638 -9.60045e-05 0)
(0.00151739 -0.000399665 0)
(0.00161707 -0.00118244 0)
(0.000703617 -0.00236963 0)
(0.000170764 -0.00834392 0)
(-0.000207887 0.000459678 0)
(-0.000309778 0.000293703 0)
(2.19216e-05 0.000356794 0)
(0.000394161 0.000474888 0)
(0.00076526 0.000509673 0)
(0.00113596 0.000506477 0)
(0.00149288 0.000494922 0)
(0.00183311 0.00048218 0)
(0.00215417 0.000465276 0)
(0.00245156 0.000440377 0)
(0.00271741 0.000405498 0)
(0.00294204 0.000360753 0)
(0.00311448 0.000307217 0)
(0.003235 0.000242596 0)
(0.00327501 0.000167856 0)
(0.00329872 4.19515e-05 0)
(0.00297866 -0.000122231 0)
(0.00331196 -0.00066261 0)
(0.000923547 -0.00131252 0)
(0.00222981 -0.00703894 0)
(0.00125815 0.00289764 0)
(0.00189386 0.00216767 0)
(0.00269129 0.00135653 0)
(0.00338441 0.000900617 0)
(0.00393424 0.000663625 0)
(0.00440639 0.000525751 0)
(0.00484287 0.000435324 0)
(0.00525342 0.000371097 0)
(0.00563787 0.000322772 0)
(0.00599621 0.000285022 0)
(0.00632666 0.000253625 0)
(0.00662604 0.000226297 0)
(0.00688776 0.00020123 0)
(0.00711172 0.000176359 0)
(0.0072661 0.000148436 0)
(0.00742622 0.000109085 0)
(0.00720639 6.46213e-05 0)
(0.00785162 -9.62669e-05 0)
(0.00391417 0.000107592 0)
(0.0117847 -0.00305774 0)
)
;

boundaryField
{
    movingWall
    {
        type            calculated;
        value           uniform (0.0311319 0 0);
    }
    fixedWalls
    {
        type            calculated;
        value           uniform (0 0 0);
    }
    frontAndBack
    {
        type            empty;
    }
}


// ************************************************************************* //
