/*--------------------------------*- C++ -*----------------------------------*\
| =========                 |                                                 |
| \\      /  F ield         | OpenFOAM: The Open Source CFD Toolbox           |
|  \\    /   O peration     | Version:  2312                                  |
|   \\  /    A nd           | Website:  www.openfoam.com                      |
|    \\/     M anipulation  |                                                 |
\*---------------------------------------------------------------------------*/
FoamFile
{
    version     2.0;
    format      ascii;
    arch        "LSB;label=32;scalar=64";
    class       volVectorField;
    location    "2";
    object      norm_U_composite;
}
// * * * * * * * * * * * * * * * * * * * * * * * * * * * * * * * * * * * * * //

dimensions      [0 0 0 0 0 0 0];

internalField   nonuniform List<vector> 
400
(
(-0.000129669 0.000105121 0)
(-0.00117266 0.000529965 0)
(-0.00315382 0.000803787 0)
(-0.00546711 0.000942896 0)
(-0.00803147 0.00110665 0)
(-0.0109021 0.00135025 0)
(-0.0140955 0.00161787 0)
(-0.0175369 0.00181949 0)
(-0.0211363 0.00191155 0)
(-0.0247266 0.00184819 0)
(-0.0278825 0.00151838 0)
(-0.0299583 0.000801935 0)
(-0.0301816 -0.000320183 0)
(-0.0279537 -0.00166528 0)
(-0.0232367 -0.00285142 0)
(-0.0166978 -0.00352566 0)
(-0.0095118 -0.00329156 0)
(-0.00314184 -0.00204059 0)
(0.000261859 -0.000620822 0)
(0.00060135 0.000424331 0)
(-0.000673218 0.0012366 0)
(-0.00285388 0.00281055 0)
(-0.00593913 0.00369568 0)
(-0.00948304 0.00414262 0)
(-0.0132903 0.00453059 0)
(-0.0172076 0.00489552 0)
(-0.0211003 0.00515718 0)
(-0.0250318 0.00534037 0)
(-0.0292008 0.00541825 0)
(-0.0336239 0.00511795 0)
(-0.0378914 0.00402177 0)
(-0.0411695 0.00190554 0)
(-0.0424635 -0.00111746 0)
(-0.0408924 -0.00464804 0)
(-0.0360742 -0.00810535 0)
(-0.0283503 -0.0104455 0)
(-0.018628 -0.0105169 0)
(-0.00852173 -0.00766994 0)
(-0.00121059 -0.00305442 0)
(0.000553601 0.000485426 0)
(-0.00124802 0.00352748 0)
(-0.0040811 0.00591265 0)
(-0.00750847 0.00729974 0)
(-0.0114255 0.00811785 0)
(-0.0156164 0.00866541 0)
(-0.0198509 0.00900737 0)
(-0.0241433 0.00929511 0)
(-0.0289397 0.00976935 0)
(-0.034708 0.0103574 0)
(-0.0414459 0.0105072 0)
(-0.0484469 0.00932894 0)
(-0.0543965 0.0059241 0)
(-0.0578892 0.000147185 0)
(-0.0581476 -0.00717928 0)
(-0.0542547 -0.0146464 0)
(-0.0462482 -0.0203738 0)
(-0.0344504 -0.0224247 0)
(-0.0199332 -0.0185919 0)
(-0.00506396 -0.00906081 0)
(0.000624735 5.41433e-05 0)
(-0.00158525 0.00638946 0)
(-0.00480685 0.00930456 0)
(-0.00835826 0.0110237 0)
(-0.0123031 0.0121537 0)
(-0.0165199 0.0129025 0)
(-0.0209426 0.0134559 0)
(-0.02591 0.0143422 0)
(-0.032157 0.0160047 0)
(-0.0401912 0.0180104 0)
(-0.0496404 0.018902 0)
(-0.0589156 0.0168577 0)
(-0.0659745 0.0110393 0)
(-0.0695563 0.00192875 0)
(-0.069815 -0.00925002 0)
(-0.0675344 -0.0209775 0)
(-0.061732 -0.0315163 0)
(-0.05134 -0.038017 0)
(-0.0356338 -0.036507 0)
(-0.0162164 -0.023429 0)
(-0.000266557 -0.00389023 0)
(-0.00169143 0.00955262 0)
(-0.00503671 0.0128604 0)
(-0.00852218 0.0147646 0)
(-0.0123085 0.0161358 0)
(-0.0164032 0.0171969 0)
(-0.020911 0.0183429 0)
(-0.0263851 0.0204308 0)
(-0.0336446 0.0238352 0)
(-0.042895 0.0273752 0)
(-0.0527851 0.0283899 0)
(-0.0610426 0.0246514 0)
(-0.0662022 0.0159047 0)
(-0.0683937 0.00353947 0)
(-0.0682443 -0.0103022 0)
(-0.0664622 -0.0244405 0)
(-0.0637196 -0.0383267 0)
(-0.0583658 -0.050276 0)
(-0.047172 -0.0554932 0)
(-0.028374 -0.04522 0)
(-0.00540597 -0.0137306 0)
(-0.00160441 0.0127238 0)
(-0.00481883 0.0163372 0)
(-0.00806212 0.0183403 0)
(-0.0115285 0.019945 0)
(-0.01534 0.0214548 0)
(-0.0196825 0.0234635 0)
(-0.0251631 0.0270125 0)
(-0.032452 0.0321733 0)
(-0.0410866 0.0365063 0)
(-0.0492769 0.0364251 0)
(-0.0548718 0.030015 0)
(-0.0569206 0.0182002 0)
(-0.0559455 0.00391877 0)
(-0.0537773 -0.0106746 0)
(-0.0519373 -0.0247707 0)
(-0.0511973 -0.0390484 0)
(-0.0508745 -0.0542843 0)
(-0.0470779 -0.0677903 0)
(-0.0345035 -0.0681477 0)
(-0.0132273 -0.0355707 0)
(-0.00137562 0.0156451 0)
(-0.00424081 0.0195166 0)
(-0.00708165 0.0215672 0)
(-0.0100716 0.0233852 0)
(-0.013387 0.0253896 0)
(-0.0171771 0.0282877 0)
(-0.0219031 0.0331406 0)
(-0.0279232 0.0394307 0)
(-0.0345359 0.0436045 0)
(-0.0400677 0.0418446 0)
(-0.0428044 0.0325907 0)
(-0.0424268 0.0180288 0)
(-0.0403515 0.00210544 0)
(-0.0379431 -0.0126756 0)
(-0.0355737 -0.0259162 0)
(-0.0342023 -0.0382871 0)
(-0.0350969 -0.0524492 0)
(-0.0366699 -0.0705537 0)
(-0.0318993 -0.0845222 0)
(-0.0158263 -0.0612745 0)
(-0.00104907 0.0181021 0)
(-0.00339938 0.0222192 0)
(-0.00570416 0.024284 0)
(-0.00807397 0.0262589 0)
(-0.0106586 0.0286573 0)
(-0.0134994 0.0321782 0)
(-0.0167905 0.0377682 0)
(-0.0206927 0.0445062 0)
(-0.0245636 0.0480798 0)
(-0.0275662 0.0446862 0)
(-0.0286529 0.0332496 0)
(-0.0280971 0.016891 0)
(-0.026865 -8.2069e-05 0)
(-0.0251245 -0.0155581 0)
(-0.0228901 -0.0288322 0)
(-0.0209131 -0.0397667 0)
(-0.02056 -0.0508858 0)
(-0.0231503 -0.0676521 0)
(-0.0236991 -0.0906354 0)
(-0.0141788 -0.0854078 0)
(-0.000669558 0.0199474 0)
(-0.0023985 0.0243149 0)
(-0.0040751 0.0263672 0)
(-0.00571905 0.0283833 0)
(-0.00739978 0.0309471 0)
(-0.00905321 0.0346683 0)
(-0.0105698 0.0403211 0)
(-0.0120019 0.0468877 0)
(-0.0129352 0.0497446 0)
(-0.0136909 0.0458723 0)
(-0.0138186 0.0337517 0)
(-0.0136518 0.0167694 0)
(-0.0134681 -0.000854313 0)
(-0.0128264 -0.0173539 0)
(-0.0115553 -0.0311342 0)
(-0.0105927 -0.041567 0)
(-0.0102624 -0.0509905 0)
(-0.0122841 -0.0645978 0)
(-0.0147914 -0.0904146 0)
(-0.0105652 -0.102769 0)
(-0.000276745 0.0211013 0)
(-0.00132851 0.0257249 0)
(-0.0023272 0.0277239 0)
(-0.00320483 0.0296452 0)
(-0.0039321 0.0321145 0)
(-0.00436845 0.0356186 0)
(-0.00416452 0.0407128 0)
(-0.00322354 0.0465891 0)
(-0.00155136 0.0491221 0)
(0.00014098 0.0455324 0)
(0.00122896 0.0339044 0)
(0.0014666 0.0173669 0)
(0.000944531 -0.0003856 0)
(0.000419417 -0.0173076 0)
(6.6082e-06 -0.031272 0)
(-0.00105392 -0.0414411 0)
(-0.00230878 -0.0501937 0)
(-0.0049105 -0.0623217 0)
(-0.00803838 -0.0882333 0)
(-0.00741899 -0.113287 0)
(9.94607e-05 0.0215475 0)
(-0.000284487 0.0264273 0)
(-0.000607145 0.0283413 0)
(-0.000744037 0.0300504 0)
(-0.000579352 0.032196 0)
(6.09842e-05 0.0351414 0)
(0.00162351 0.0392467 0)
(0.00441557 0.0439756 0)
(0.00820195 0.0461787 0)
(0.0120942 0.0431417 0)
(0.0148043 0.0332853 0)
(0.0158614 0.0181663 0)
(0.0154144 0.00100454 0)
(0.0138726 -0.0155463 0)
(0.0110664 -0.0291561 0)
(0.00758337 -0.0391284 0)
(0.00435137 -0.0475443 0)
(0.000337574 -0.0590104 0)
(-0.00352066 -0.0851616 0)
(-0.00578202 -0.119542 0)
(0.000400396 0.0213249 0)
(0.000639768 0.0264511 0)
(0.000942158 0.0282599 0)
(0.0014637 0.0296759 0)
(0.00237724 0.0313566 0)
(0.00386576 0.033562 0)
(0.00631291 0.0364784 0)
(0.0101652 0.039742 0)
(0.0151544 0.041258 0)
(0.0205077 0.0386204 0)
(0.0247232 0.0306301 0)
(0.0269263 0.0179472 0)
(0.0268166 0.00286789 0)
(0.0245097 -0.0121802 0)
(0.0198936 -0.0249891 0)
(0.0145024 -0.0348113 0)
(0.00952158 -0.0431479 0)
(0.00408811 -0.0542695 0)
(-0.000727148 -0.0811523 0)
(-0.00523539 -0.123306 0)
(0.000612949 0.0205716 0)
(0.00136837 0.0258754 0)
(0.00221464 0.0275645 0)
(0.00329321 0.0286528 0)
(0.00479238 0.0298218 0)
(0.00687721 0.031268 0)
(0.00980649 0.0330345 0)
(0.0139651 0.0348375 0)
(0.0192897 0.0354247 0)
(0.0250207 0.0329949 0)
(0.0298439 0.0266237 0)
(0.0326777 0.016452 0)
(0.0328513 0.00406393 0)
(0.0302735 -0.00855285 0)
(0.0251795 -0.0197719 0)
(0.0190308 -0.0291252 0)
(0.0130107 -0.0373942 0)
(0.00656808 -0.04838 0)
(0.000848142 -0.0761222 0)
(-0.00534461 -0.125873 0)
(0.000704408 0.0194601 0)
(0.00184297 0.0248288 0)
(0.00313358 0.0263604 0)
(0.00467412 0.0271104 0)
(0.00662469 0.0277836 0)
(0.00910359 0.0285533 0)
(0.0122662 0.0293887 0)
(0.0163283 0.0300391 0)
(0.0213107 0.0297743 0)
(0.0266449 0.0275272 0)
(0.0312821 0.0224883 0)
(0.0340874 0.0146903 0)
(0.0343921 0.00515503 0)
(0.0320886 -0.00487752 0)
(0.0274501 -0.0143581 0)
(0.0214377 -0.0229524 0)
(0.0151056 -0.0309075 0)
(0.00806362 -0.0416758 0)
(0.00169741 -0.0701804 0)
(-0.00577183 -0.12767 0)
(0.00065951 0.0180513 0)
(0.00197539 0.0233631 0)
(0.00361679 0.0247062 0)
(0.00554842 0.0251284 0)
(0.00786537 0.0253681 0)
(0.0106284 0.0255909 0)
(0.0139137 0.0257536 0)
(0.0177808 0.0256507 0)
(0.0221949 0.0248397 0)
(0.0267921 0.0227522 0)
(0.0308249 0.0188777 0)
(0.0333714 0.0131262 0)
(0.0338566 0.00599894 0)
(0.0320395 -0.00169322 0)
(0.0281057 -0.00940941 0)
(0.0226983 -0.0169205 0)
(0.0164498 -0.024214 0)
(0.0091241 -0.0346807 0)
(0.0027367 -0.0630228 0)
(-0.00609769 -0.128826 0)
(0.000323164 0.0172795 0)
(0.00171414 0.0219897 0)
(0.0035969 0.0228712 0)
(0.0058354 0.0228648 0)
(0.00847082 0.0226874 0)
(0.0114981 0.0224707 0)
(0.014913 0.0221819 0)
(0.0186729 0.0216657 0)
(0.0226621 0.0206366 0)
(0.0266034 0.0187852 0)
(0.0300284 0.0158469 0)
(0.032306 0.0117204 0)
(0.0329267 0.00660768 0)
(0.0316246 0.000897315 0)
(0.0284144 -0.00509345 0)
(0.0237576 -0.0113327 0)
(0.0175955 -0.0177048 0)
(0.0109648 -0.028296 0)
(0.00535692 -0.0548871 0)
(-0.00570422 -0.130183 0)
(-0.000371779 0.0145961 0)
(0.000388022 0.018832 0)
(0.00254487 0.0197882 0)
(0.0052258 0.0197928 0)
(0.00827864 0.0194991 0)
(0.0116685 0.0190664 0)
(0.0153342 0.0185537 0)
(0.0191802 0.0178881 0)
(0.0230548 0.0168988 0)
(0.0267179 0.0153967 0)
(0.0298438 0.0132299 0)
(0.0320442 0.0103193 0)
(0.0329165 0.0068158 0)
(0.032089 0.00283778 0)
(0.0294855 -0.00153066 0)
(0.0255187 -0.00643034 0)
(0.0192813 -0.0118171 0)
(0.0155807 -0.0234496 0)
(0.00937103 -0.0473232 0)
(-0.00386834 -0.133161 0)
(-0.00162364 0.0220812 0)
(-0.00127175 0.0234319 0)
(0.00131543 0.0214115 0)
(0.0042786 0.0192202 0)
(0.00773035 0.0176121 0)
(0.0116036 0.0164088 0)
(0.0157485 0.0154526 0)
(0.0199949 0.0145758 0)
(0.0241723 0.0136116 0)
(0.0280722 0.0124237 0)
(0.0314321 0.0109112 0)
(0.0339222 0.00908906 0)
(0.0352057 0.0069541 0)
(0.0351673 0.00457578 0)
(0.0334368 0.00195549 0)
(0.0306179 -0.0015419 0)
(0.0243703 -0.0064189 0)
(0.0259714 -0.0189908 0)
(0.0113006 -0.0380579 0)
(0.00274259 -0.134009 0)
(-0.00333882 0.00738276 0)
(-0.00497526 0.00471708 0)
(0.000352077 0.00573037 0)
(0.00633051 0.00762704 0)
(0.0122906 0.00818572 0)
(0.0182444 0.00813439 0)
(0.0239767 0.00794881 0)
(0.029441 0.00774415 0)
(0.0345975 0.00747266 0)
(0.0393739 0.00707276 0)
(0.0436436 0.00651258 0)
(0.0472512 0.00579396 0)
(0.0500209 0.00493413 0)
(0.0519565 0.00389627 0)
(0.0525989 0.00269589 0)
(0.0529799 0.000673772 0)
(0.0478395 -0.00196312 0)
(0.0531924 -0.010642 0)
(0.0148328 -0.02108 0)
(0.0358123 -0.11305 0)
(0.0202068 0.0465381 0)
(0.0304168 0.0348144 0)
(0.0432241 0.0217868 0)
(0.0543561 0.0144646 0)
(0.0631868 0.0106583 0)
(0.0707698 0.00844393 0)
(0.07778 0.00699162 0)
(0.0843738 0.00596008 0)
(0.0905483 0.00518396 0)
(0.0963035 0.00457766 0)
(0.101611 0.0040734 0)
(0.106419 0.00363449 0)
(0.110622 0.00323189 0)
(0.114219 0.00283245 0)
(0.116699 0.00238398 0)
(0.119271 0.00175198 0)
(0.11574 0.00103786 0)
(0.126103 -0.00154612 0)
(0.0628644 0.001728 0)
(0.18927 -0.0491096 0)
)
;

boundaryField
{
    movingWall
    {
        type            calculated;
        value           uniform (0.5 0 0);
    }
    fixedWalls
    {
        type            calculated;
        value           uniform (0 0 0);
    }
    frontAndBack
    {
        type            empty;
    }
}


// ************************************************************************* //
