/*--------------------------------*- C++ -*----------------------------------*\
| =========                 |                                                 |
| \\      /  F ield         | OpenFOAM: The Open Source CFD Toolbox           |
|  \\    /   O peration     | Version:  2312                                  |
|   \\  /    A nd           | Website:  www.openfoam.com                      |
|    \\/     M anipulation  |                                                 |
\*---------------------------------------------------------------------------*/
FoamFile
{
    version     2.0;
    format      ascii;
    arch        "LSB;label=32;scalar=64";
    class       volScalarField;
    location    "2";
    object      norm_k_field;
}
// * * * * * * * * * * * * * * * * * * * * * * * * * * * * * * * * * * * * * //

dimensions      [0 0 0 0 0 0 0];

internalField   nonuniform List<scalar> 
400
(
5971.18
1.04178e+11
1.56858e+11
2.14144e+11
2.77157e+11
3.46731e+11
4.19939e+11
4.89971e+11
5.49732e+11
5.94176e+11
6.17264e+11
6.24602e+11
1.16045
0.434781
0.231829
0.143698
0.0918962
0.0535085
0.0283426
0.0188141
4.64197
1.55613e+11
2.08358e+11
2.55314e+11
3.03709e+11
3.55826e+11
4.1125e+11
4.70914e+11
5.3997e+11
6.15611e+11
6.93892e+11
7.81917e+11
5.01811
0.973766
0.508226
0.336468
0.231091
0.139756
0.0588988
0.02623
11.125
2.43632e+11
3.13371e+11
3.5896e+11
3.9595e+11
4.36573e+11
4.9572e+11
5.82004e+11
7.00862e+11
8.51074e+11
9.89939e+11
1.08457e+12
1.14905e+12
1.21103e+12
1.29154
0.623308
0.436324
0.315655
0.138408
0.0451554
2.09217e+11
3.2399e+11
4.15614e+11
4.79518e+11
5.33795e+11
5.97415e+11
6.92543e+11
8.32113e+11
9.87231e+11
1.06073e+12
1.08687e+12
1.09902e+12
1.12979e+12
1.18041e+12
1.26291e+12
1.36199e+12
0.938231
0.535632
0.354122
0.135358
2.66248e+11
3.93122e+11
5.03753e+11
5.85178e+11
6.61357e+11
7.55338e+11
8.88136e+11
1.01243e+12
1.05006e+12
1.04233e+12
9.9911e+11
9.49834e+11
9.36778e+11
9.74371e+11
1.07311e+12
1.21798e+12
1.44551e+12
1.48842
0.604318
0.3718
3.20305e+11
4.47499e+11
5.73346e+11
6.70944e+11
7.67276e+11
8.84514e+11
1.01293e+12
1.05846e+12
1.03842e+12
9.43674e+11
8.3354e+11
8.04724e+11
8.0714e+11
8.74905e+11
9.66423e+11
1.10635e+12
1.3158e+12
1.66594e+12
1.30855
0.782657
3.69596e+11
4.86134e+11
6.22605e+11
7.34224e+11
8.46746e+11
9.74978e+11
1.06453e+12
1.07513e+12
9.90566e+11
8.1266e+11
7.4143e+11
7.26942e+11
7.43378e+11
8.11217e+11
9.08213e+11
1.05718e+12
1.26293e+12
1.56804e+12
2.12669e+12
2.20554
4.12558e+11
5.09749e+11
6.51979e+11
7.73976e+11
8.97026e+11
1.02578e+12
1.08575e+12
1.06812e+12
9.19424e+11
7.4039e+11
6.7733e+11
6.60493e+11
6.5977e+11
7.03658e+11
8.20502e+11
1.01118e+12
1.24335e+12
1.55657e+12
2.12815e+12
3.20133e+12
4.4828e+11
5.21174e+11
6.63717e+11
7.92736e+11
9.22865e+11
1.04885e+12
1.09997e+12
1.06858e+12
9.00134e+11
6.99022e+11
6.22497e+11
5.94829e+11
5.83282e+11
6.14994e+11
7.53913e+11
9.92596e+11
1.2423e+12
1.57928e+12
2.14583e+12
3.465e+12
4.75258e+11
5.20372e+11
6.60346e+11
7.8989e+11
9.20383e+11
1.04689e+12
1.10953e+12
1.08026e+12
9.19483e+11
7.09251e+11
6.06529e+11
5.57913e+11
5.40477e+11
5.81891e+11
7.30359e+11
1.00136e+12
1.29072e+12
1.63298e+12
2.20949e+12
3.66711e+12
4.9366e+11
5.16036e+11
6.50227e+11
7.79039e+11
9.0905e+11
1.03557e+12
1.11542e+12
1.10757e+12
9.79018e+11
7.61452e+11
6.30907e+11
5.69175e+11
5.5517e+11
5.98346e+11
7.61278e+11
1.08567e+12
1.36986e+12
1.67775e+12
2.2994e+12
3.86292e+12
5.02733e+11
5.06706e+11
6.32331e+11
7.5835e+11
8.8594e+11
1.01222e+12
1.11213e+12
1.14151e+12
1.07536e+12
8.99924e+11
7.23596e+11
6.3372e+11
6.32632e+11
6.93184e+11
8.82418e+11
1.20464e+12
1.44347e+12
1.697e+12
2.37259e+12
4.07083e+12
5.00946e+11
4.93032e+11
6.10437e+11
7.33849e+11
8.57777e+11
9.82536e+11
1.09707e+12
1.16142e+12
1.14606e+12
1.07472e+12
9.35753e+11
8.17251e+11
8.16107e+11
8.78198e+11
1.05904e+12
1.30625e+12
1.47539e+12
1.69706e+12
2.43167e+12
4.31511e+12
4.93566e+11
4.7737e+11
5.87549e+11
7.09137e+11
8.29938e+11
9.51434e+11
1.06822e+12
1.15867e+12
1.19369e+12
1.17638e+12
1.12177e+12
1.04092e+12
1.02836e+12
1.06967e+12
1.18022e+12
1.34243e+12
1.47023e+12
1.60762e+12
2.45676e+12
4.61088e+12
4.76461e+11
4.58178e+11
5.65026e+11
6.86979e+11
8.0635e+11
9.24568e+11
1.03939e+12
1.1408e+12
1.19988e+12
1.216e+12
1.20156e+12
1.16393e+12
1.14162e+12
1.15683e+12
1.21097e+12
1.31198e+12
1.3699e+12
1.43012e+12
2.4629e+12
4.98328e+12
4.63755e+11
4.44087e+11
5.50839e+11
6.72352e+11
7.88418e+11
9.01263e+11
1.00994e+12
1.10725e+12
1.17923e+12
1.20871e+12
1.20282e+12
1.1818e+12
1.151e+12
1.14624e+12
1.16223e+12
1.19979e+12
1.20431e+12
1.24911e+12
2.45514e+12
5.4632e+12
4.34861e+11
4.23926e+11
5.3246e+11
6.48766e+11
7.58116e+11
8.61802e+11
9.5915e+11
1.04609e+12
1.11651e+12
1.15744e+12
1.15974e+12
1.14615e+12
1.11611e+12
1.08817e+12
1.08539e+12
1.101e+12
1.10214e+12
1.18336e+12
2.5701e+12
6.09461e+12
4.73994e+11
4.46782e+11
5.67441e+11
6.73961e+11
7.73992e+11
8.69799e+11
9.60086e+11
1.03855e+12
1.10215e+12
1.14665e+12
1.16412e+12
1.15938e+12
1.14415e+12
1.12358e+12
1.10703e+12
1.11119e+12
1.13144e+12
1.41263e+12
3.03728e+12
7.03416e+12
6.81799e+11
8.13253e+11
1.1049e+12
1.30331e+12
1.45456e+12
1.58347e+12
1.69483e+12
1.79251e+12
1.8749e+12
1.94559e+12
2.00623e+12
2.05959e+12
2.11035e+12
2.1812e+12
2.25177e+12
2.39921e+12
2.58836e+12
4.18767
1.95644
0.564775
4.18735e+12
5.10493
13.7355
9.41432e+12
1.00002e+13
1.03422e+13
1.05246e+13
1.06167e+13
1.0621e+13
1.06058e+13
1.05701e+13
1.05245e+13
1.04848e+13
1.04608e+13
1.04692e+13
1.0507e+13
1.06449e+13
3.12334
2.2105
0.177753
)
;

boundaryField
{
    movingWall
    {
        type            calculated;
        value           nonuniform List<scalar> 
20
(
4.18735e+12
5.10493
13.7355
9.41432e+12
1.00002e+13
1.03422e+13
1.05246e+13
1.06167e+13
1.0621e+13
1.06058e+13
1.05701e+13
1.05245e+13
1.04848e+13
1.04608e+13
1.04692e+13
1.0507e+13
1.06449e+13
3.12334
2.2105
0.177753
)
;
    }
    fixedWalls
    {
        type            calculated;
        value           nonuniform List<scalar> 
60
(
5971.18
4.64197
11.125
2.09217e+11
2.66248e+11
3.20305e+11
3.69596e+11
4.12558e+11
4.4828e+11
4.75258e+11
4.9366e+11
5.02733e+11
5.00946e+11
4.93566e+11
4.76461e+11
4.63755e+11
4.34861e+11
4.73994e+11
6.81799e+11
4.18735e+12
0.0188141
0.02623
0.0451554
0.135358
0.3718
0.782657
2.20554
3.20133e+12
3.465e+12
3.66711e+12
3.86292e+12
4.07083e+12
4.31511e+12
4.61088e+12
4.98328e+12
5.4632e+12
6.09461e+12
7.03416e+12
0.564775
0.177753
5971.18
1.04178e+11
1.56858e+11
2.14144e+11
2.77157e+11
3.46731e+11
4.19939e+11
4.89971e+11
5.49732e+11
5.94176e+11
6.17264e+11
6.24602e+11
1.16045
0.434781
0.231829
0.143698
0.0918962
0.0535085
0.0283426
0.0188141
)
;
    }
    frontAndBack
    {
        type            empty;
    }
}


// ************************************************************************* //
