/*--------------------------------*- C++ -*----------------------------------*\
| =========                 |                                                 |
| \\      /  F ield         | OpenFOAM: The Open Source CFD Toolbox           |
|  \\    /   O peration     | Version:  2312                                  |
|   \\  /    A nd           | Website:  www.openfoam.com                      |
|    \\/     M anipulation  |                                                 |
\*---------------------------------------------------------------------------*/
FoamFile
{
    version     2.0;
    format      ascii;
    arch        "LSB;label=32;scalar=64";
    class       volScalarField;
    location    "2";
    object      P_A;
}
// * * * * * * * * * * * * * * * * * * * * * * * * * * * * * * * * * * * * * //

dimensions      [1 -1 -3 0 0 0 0];

internalField   nonuniform List<scalar> 
400
(
3.60649e-28
2.35693e-27
1.20933e-26
4.19376e-26
1.17494e-25
2.87422e-25
6.17847e-25
1.14413e-24
1.81118e-24
2.46779e-24
2.87113e-24
3.0085e-24
2.73633e-24
2.16465e-24
1.42004e-24
6.79223e-25
1.97067e-25
2.65278e-26
1.98777e-27
3.5992e-28
1.73105e-27
6.22044e-27
1.93083e-26
4.4554e-26
9.09476e-26
1.72295e-25
3.03186e-25
5.05234e-25
8.38142e-25
1.36357e-24
2.14977e-24
3.39638e-24
5.36915e-24
7.80474e-24
9.08577e-24
8.08371e-24
3.93726e-24
7.38616e-25
2.72803e-26
1.28248e-27
1.0537e-26
2.42558e-26
5.92561e-26
1.07636e-25
1.68603e-25
2.60365e-25
4.48799e-25
8.81892e-25
1.87056e-24
4.09219e-24
8.01416e-24
1.27843e-23
1.75339e-23
2.29378e-23
3.00376e-23
3.52288e-23
3.59661e-23
1.69073e-23
9.04146e-25
1.02179e-26
3.82533e-26
6.49044e-26
1.39774e-25
2.45262e-25
3.8906e-25
6.49517e-25
1.28043e-24
2.9793e-24
6.83352e-24
1.09313e-23
1.31317e-23
1.4574e-23
1.73241e-23
2.16972e-23
2.97951e-23
4.2893e-23
6.33262e-23
7.90732e-23
3.08924e-23
6.86949e-25
1.00216e-25
1.29878e-25
2.58304e-25
4.59625e-25
7.88246e-25
1.50203e-24
3.37617e-24
7.07699e-24
9.93833e-24
1.05023e-23
9.61741e-24
8.36954e-24
8.12019e-24
9.91796e-24
1.52564e-23
2.74282e-23
5.87687e-23
1.16993e-22
1.67835e-22
3.71883e-23
2.09749e-25
2.10577e-25
3.96761e-25
7.28242e-25
1.35596e-24
2.82292e-24
6.10826e-24
9.20846e-24
9.4586e-24
7.37717e-24
4.59798e-24
3.84701e-24
3.75731e-24
4.8511e-24
7.64664e-24
1.50504e-23
3.68041e-23
1.11811e-22
3.03609e-22
4.05682e-22
3.71626e-25
2.90481e-25
5.26403e-25
9.95576e-25
1.9621e-24
4.17489e-24
7.81314e-24
9.56116e-24
7.87556e-24
3.99912e-24
2.50575e-24
2.0873e-24
2.07506e-24
2.5741e-24
4.20611e-24
8.85119e-24
2.35537e-23
7.89139e-23
3.58502e-22
1.24038e-21
5.76736e-25
3.55166e-25
6.18658e-25
1.19092e-24
2.40507e-24
5.00004e-24
8.32806e-24
9.1e-24
5.82629e-24
2.58851e-24
1.54801e-24
1.22067e-24
1.11752e-24
1.30659e-24
2.41197e-24
5.98851e-24
1.74797e-23
6.61739e-23
3.47065e-22
2.09344e-21
8.03749e-25
3.9824e-25
6.5679e-25
1.2618e-24
2.56543e-24
5.21631e-24
8.33948e-24
8.56271e-24
5.03237e-24
1.93486e-24
1.04479e-24
7.6787e-25
6.66478e-25
7.74217e-25
1.65107e-24
4.91487e-24
1.47036e-23
5.82408e-23
3.35779e-22
2.87565e-21
1.01528e-24
4.13278e-25
6.45283e-25
1.22506e-24
2.46489e-24
4.92949e-24
7.95684e-24
8.35977e-24
5.10485e-24
1.98437e-24
9.631e-25
6.23066e-25
5.06826e-25
6.39424e-25
1.45097e-24
4.80173e-24
1.51715e-23
5.84637e-23
3.53928e-22
3.60868e-21
1.18182e-24
4.16262e-25
6.11466e-25
1.12957e-24
2.22422e-24
4.34616e-24
7.24763e-24
8.43938e-24
5.90652e-24
2.48713e-24
1.12992e-24
6.95625e-25
5.88393e-25
7.58443e-25
1.75286e-24
6.20471e-24
1.74699e-23
6.03687e-23
3.91481e-22
4.44395e-21
1.27124e-24
4.13414e-25
5.58893e-25
9.93924e-25
1.89885e-24
3.63549e-24
6.30353e-24
8.38189e-24
7.39543e-24
4.24294e-24
1.88362e-24
1.07606e-24
9.90313e-25
1.34566e-24
3.08701e-24
9.1841e-24
2.07142e-23
6.15021e-23
4.43027e-22
5.48091e-21
1.25343e-24
3.99415e-25
5.03601e-25
8.63064e-25
1.58555e-24
2.9578e-24
5.23275e-24
7.70753e-24
8.3672e-24
6.90408e-24
4.39793e-24
2.68003e-24
2.48596e-24
3.14511e-24
5.80272e-24
1.19526e-23
2.21474e-23
6.12366e-23
4.9873e-22
6.91967e-21
1.18156e-24
3.74693e-25
4.51667e-25
7.54022e-25
1.33119e-24
2.40276e-24
4.18467e-24
6.53485e-24
8.35124e-24
8.43784e-24
7.2801e-24
5.64511e-24
5.21155e-24
5.86133e-24
8.08087e-24
1.29553e-23
2.13841e-23
5.09825e-23
5.43039e-22
9.02096e-21
1.02672e-24
3.34813e-25
4.02557e-25
6.70773e-25
1.14947e-24
2.00527e-24
3.38644e-24
5.32908e-24
7.20843e-24
8.3074e-24
8.25906e-24
7.44297e-24
6.8441e-24
7.15139e-24
8.43854e-24
1.16031e-23
1.65284e-23
3.4677e-23
5.71283e-22
1.23077e-20
9.22007e-25
3.00627e-25
3.78252e-25
6.39299e-25
1.08209e-24
1.81795e-24
2.92936e-24
4.42592e-24
6.03841e-24
7.14655e-24
7.4227e-24
7.17035e-24
6.64944e-24
6.63586e-24
7.21748e-24
8.84085e-24
1.14677e-23
2.35845e-23
5.83576e-22
1.7779e-20
7.13725e-25
2.50024e-25
3.67168e-25
6.48756e-25
1.11026e-24
1.82349e-24
2.83232e-24
4.1228e-24
5.54478e-24
6.69157e-24
7.1084e-24
7.05967e-24
6.66033e-24
6.39631e-24
6.73984e-24
8.0293e-24
1.04155e-23
2.3911e-23
7.56313e-22
2.75367e-20
1.0079e-24
3.97062e-25
8.31934e-25
1.54355e-24
2.5918e-24
4.05215e-24
5.93415e-24
8.09302e-24
1.03089e-23
1.22695e-23
1.35018e-23
1.39648e-23
1.40819e-23
1.42493e-23
1.47712e-23
1.67781e-23
2.21033e-23
7.3401e-23
1.58606e-21
4.88638e-20
4.31495e-24
1.1274e-23
3.80091e-23
7.21637e-23
1.09079e-22
1.48852e-22
1.89648e-22
2.30733e-22
2.69134e-22
3.0579e-22
3.40835e-22
3.75325e-22
4.11761e-22
4.66973e-22
5.29043e-22
6.67547e-22
9.02949e-22
2.60489e-21
8.46308e-21
1.07178e-19
6.13588e-21
3.58198e-20
9.79246e-20
1.56793e-19
1.99631e-19
2.28385e-19
2.44941e-19
2.53641e-19
2.54051e-19
2.52598e-19
2.49206e-19
2.44929e-19
2.41247e-19
2.39027e-19
2.39798e-19
2.43278e-19
2.56293e-19
2.60508e-19
3.27361e-19
2.24477e-19
)
;

boundaryField
{
    movingWall
    {
        type            calculated;
        value           nonuniform List<scalar> 
20
(
6.13588e-21
3.58198e-20
9.79246e-20
1.56793e-19
1.99631e-19
2.28385e-19
2.44941e-19
2.53641e-19
2.54051e-19
2.52598e-19
2.49206e-19
2.44929e-19
2.41247e-19
2.39027e-19
2.39798e-19
2.43278e-19
2.56293e-19
2.60508e-19
3.27361e-19
2.24477e-19
)
;
    }
    fixedWalls
    {
        type            calculated;
        value           nonuniform List<scalar> 
60
(
3.60649e-28
1.73105e-27
1.0537e-26
3.82533e-26
1.00216e-25
2.09749e-25
3.71626e-25
5.76736e-25
8.03749e-25
1.01528e-24
1.18182e-24
1.27124e-24
1.25343e-24
1.18156e-24
1.02672e-24
9.22007e-25
7.13725e-25
1.0079e-24
4.31495e-24
6.13588e-21
3.5992e-28
1.28248e-27
1.02179e-26
6.86949e-25
3.71883e-23
4.05682e-22
1.24038e-21
2.09344e-21
2.87565e-21
3.60868e-21
4.44395e-21
5.48091e-21
6.91967e-21
9.02096e-21
1.23077e-20
1.7779e-20
2.75367e-20
4.88638e-20
1.07178e-19
2.24477e-19
3.60649e-28
2.35693e-27
1.20933e-26
4.19376e-26
1.17494e-25
2.87422e-25
6.17847e-25
1.14413e-24
1.81118e-24
2.46779e-24
2.87113e-24
3.0085e-24
2.73633e-24
2.16465e-24
1.42004e-24
6.79223e-25
1.97067e-25
2.65278e-26
1.98777e-27
3.5992e-28
)
;
    }
    frontAndBack
    {
        type            empty;
    }
}


// ************************************************************************* //
