/*--------------------------------*- C++ -*----------------------------------*\
| =========                 |                                                 |
| \\      /  F ield         | OpenFOAM: The Open Source CFD Toolbox           |
|  \\    /   O peration     | Version:  2312                                  |
|   \\  /    A nd           | Website:  www.openfoam.com                      |
|    \\/     M anipulation  |                                                 |
\*---------------------------------------------------------------------------*/
FoamFile
{
    version     2.0;
    format      ascii;
    arch        "LSB;label=32;scalar=64";
    class       surfaceScalarField;
    location    "2";
    object      PecletNoField;
}
// * * * * * * * * * * * * * * * * * * * * * * * * * * * * * * * * * * * * * //

dimensions      [0 0 0 0 0 0 0];

oriented        oriented;

internalField   nonuniform List<scalar> 
760
(
0.406299
0.409286
1.33821
0.810737
2.4555
0.998209
3.59194
1.07012
4.74334
1.13461
5.9314
1.20304
7.15804
1.2437
8.42096
1.24397
9.70408
1.19545
10.9417
1.06669
11.9536
0.802506
12.4871
0.364316
12.292
0.2273
11.1478
0.958721
9.0516
1.66815
6.23463
2.22974
3.21625
2.42345
0.770272
2.03455
0.327711
0.983681
0.331068
0.879909
1.42962
1.80992
1.4702
2.92871
1.60038
4.11759
1.74061
5.26108
1.85049
6.26358
1.91172
7.07838
1.92018
7.72761
1.90965
8.28097
1.8494
8.79205
1.68466
9.13902
1.36661
9.1815
0.759401
9.0683
0.155171
8.49664
1.39386
7.37337
2.62865
5.88071
3.71796
3.99035
4.32655
1.8613
4.00395
0.145043
2.75331
0.1444
0.982048
2.78939
1.49953
1.89911
2.23639
1.8071
3.17515
1.91272
4.16356
2.0172
5.10166
2.102
5.98279
2.20559
6.80766
2.38578
7.58759
2.61753
8.60669
2.78378
10.0416
2.5441
11.4971
1.73868
12.3076
0.24723
12.203
1.78687
11.2444
3.97214
9.43086
5.98509
6.77497
7.33251
3.96856
7.2119
0.958351
5.57077
0.894
0.985396
4.26763
1.28074
2.33162
1.70526
1.96354
2.27348
1.99334
2.93419
2.09181
3.7033
2.26389
4.6533
2.58297
5.98438
3.18489
8.06866
4.00533
10.6631
4.61749
12.9078
4.38307
14.6164
3.05843
15.5096
0.71973
15.552
2.09835
14.8666
5.07772
13.3863
8.06836
10.686
10.4806
6.85996
11.4564
2.6577
9.51737
3.6144
0.922069
5.70174
1.09665
2.76102
1.37702
2.12963
1.8073
2.12788
2.38518
2.28816
3.2007
2.63434
4.48054
3.3241
6.53106
4.58207
9.08523
5.9029
11.6407
6.69532
14.0439
6.1235
15.6013
4.00228
16.1942
0.963602
16.1083
2.15825
15.6501
5.24847
14.7473
8.60288
13.0216
12.1683
9.76924
14.9704
4.71875
14.9091
7.69118
0.819343
6.97911
0.929545
3.1917
1.1311
2.31308
1.49488
2.29238
2.04758
2.54083
2.93552
3.0881
4.41674
4.26248
6.454
5.9393
8.8713
7.49275
11.371
8.58877
12.5482
6.97154
12.4219
3.85745
11.4522
0.584906
10.6236
2.08897
10.6462
4.45902
11.2887
7.1309
11.6689
11.0524
10.4876
16.043
6.20448
19.4457
12.7535
0.688591
8.02952
0.765611
3.61931
0.913836
2.5048
1.21258
2.45492
1.69643
2.7657
2.53156
3.45847
3.81868
5.0162
5.45896
6.80355
7.54504
8.77705
8.93472
9.62476
8.70427
6.8453
7.85928
3.31143
6.63658
0.160603
5.76225
2.20622
5.54016
4.08379
6.01127
5.86924
7.36708
8.84827
8.5026
14.7677
6.17175
21.7056
17.8682
0.538
8.81207
0.597306
4.03667
0.700809
2.68528
0.921242
2.57225
1.28308
2.88881
1.9067
3.64529
2.82482
5.32642
3.96432
7.14293
5.27619
9.28388
5.7932
9.86304
5.37315
6.72484
4.85626
3.0986
4.21902
0.0717761
3.57579
2.55356
3.09266
4.24798
3.02455
5.35112
3.76982
7.39627
5.33659
12.4024
4.98974
21.6658
22.0369
0.3727
9.31286
0.421488
4.44351
0.482862
2.84684
0.614593
2.65367
0.830109
2.9323
1.18266
3.6538
1.62521
5.18768
2.07799
6.88547
2.55769
8.866
2.71034
9.64257
2.55971
6.84374
2.44946
3.25707
2.28677
0.0986728
1.92133
2.85856
1.50899
4.46608
1.3594
5.06363
1.64653
6.42692
2.67129
10.3794
3.31481
20.2715
24.7493
0.199307
9.53538
0.241627
4.79969
0.272432
2.97721
0.330003
2.68907
0.407347
2.88842
0.493716
3.47284
0.508545
4.67329
0.366456
6.1762
0.0970593
7.79198
0.191081
8.84892
0.299307
6.77738
0.24363
3.43521
0.097676
0.0345115
0.0227157
2.91332
0.084178
4.38278
0.207021
4.5698
0.456809
5.52837
1.12643
8.98874
1.9534
18.5276
26.205
0.0232693
9.50067
0.0596707
5.10506
0.0675782
3.07369
0.0616166
2.65795
0.0270779
2.73896
0.07802
3.14365
0.348761
3.9683
0.903623
5.11906
1.79069
6.17545
2.76567
7.13634
3.159
6.1027
3.05138
3.40831
2.61949
0.299903
1.90669
2.46648
1.12247
3.80243
0.63442
3.88284
0.300209
4.72388
0.260488
7.97437
1.09796
17.1142
26.8088
0.139004
9.25804
0.112475
5.39107
0.116796
3.15403
0.163867
2.595
0.2667
2.54492
0.469862
2.77264
0.86839
3.25206
1.55632
3.983
2.60378
4.64055
3.97164
4.98201
4.93604
4.58397
4.99193
2.89998
4.3769
0.507672
3.2056
1.61718
1.94838
2.76141
1.20475
3.098
0.801079
4.01964
0.255546
7.1138
0.643252
16.1088
26.893
0.277206
8.85634
0.267931
5.58361
0.276135
3.20816
0.343781
2.50972
0.478674
2.32987
0.711811
2.40508
1.11158
2.63452
1.76676
3.00922
2.63377
3.3862
3.67112
3.39141
4.73668
3.03454
5.0323
2.08187
4.49318
0.583686
3.39539
0.829698
2.22223
1.79569
1.51282
2.36185
1.12034
3.3308
0.573173
6.39204
0.430435
15.2547
26.6745
0.370735
8.37027
0.39324
5.63606
0.405362
3.20945
0.479533
2.40045
0.620839
2.10827
0.847421
2.0661
1.19417
2.13343
1.71725
2.26896
2.3904
2.42149
3.08202
2.39738
3.71475
2.07845
3.98268
1.47695
3.70803
0.589365
3.04976
0.332118
2.2607
1.12441
1.67585
1.76462
1.33423
2.73514
0.798306
5.89312
0.382228
14.3457
26.2963
0.393817
7.87872
0.464757
5.50082
0.493061
3.13469
0.571229
2.27923
0.707746
1.92713
0.913268
1.80615
1.19701
1.77071
1.5886
1.77506
2.09472
1.78805
2.61725
1.74193
3.03394
1.53315
3.23442
1.14307
3.14362
0.596395
2.79339
0.034085
2.27061
0.668969
1.83584
1.31694
1.59887
2.33143
1.08883
5.60216
0.37324
13.0904
25.7713
0.2999
7.55224
0.457026
5.20411
0.529796
3.08209
0.634476
2.25539
0.784799
1.89075
0.983781
1.72339
1.23065
1.6306
1.53378
1.57198
1.90192
1.5146
2.30871
1.43567
2.66624
1.28741
2.90217
1.02026
2.9467
0.654099
2.78523
0.193132
2.50447
0.335891
2.26339
0.98018
2.15696
2.02391
1.7325
5.4882
0.0776976
11.568
24.8155
0.00481099
7.53975
0.272787
5.28522
0.495555
3.51176
0.709902
2.72077
0.944155
2.31663
1.21085
2.07957
1.50937
1.91794
1.83798
1.79745
2.19567
1.68456
2.58481
1.56145
2.95662
1.40983
3.25372
1.18314
3.45403
0.887851
3.47807
0.510369
3.33743
0.0264491
3.20938
0.652728
3.23258
1.75869
2.86847
5.53942
0.629038
9.65071
23.0175
0.596218
7.77826
0.00759395
6.31819
0.606741
4.86978
1.16673
4.11819
1.75606
3.53331
2.35203
3.09585
2.94445
2.76495
3.53727
2.51096
4.13428
2.29282
4.75565
2.08595
5.3979
1.87736
5.99803
1.64487
6.51515
1.36745
6.87448
1.03739
6.94534
0.626881
6.89255
0.0752514
6.66082
1.10291
4.812
4.12113
1.58632
6.80998
20.1131
1.90973
6.40181
1.05672
4.05032
1.22765
2.54174
3.48439
2.03307
5.46188
1.75519
7.19617
1.55082
8.73228
1.40144
10.1007
1.28902
11.3244
1.19285
12.4106
1.09817
13.342
0.997012
14.0845
0.885592
14.5507
0.759992
14.7286
0.610813
14.4474
0.439817
13.6401
0.179513
12.0274
0.130789
8.87325
1.30206
3.52098
1.81066
15.561
4.47147
6.59296
7.8488
8.97287
10.031
11.0278
11.9774
12.8955
13.7788
14.611
15.3831
16.0778
16.6743
17.1446
17.4648
17.5415
17.3753
16.1126
14.6757
)
;

boundaryField
{
    movingWall
    {
        type            calculated;
        value           uniform 0;
    }
    fixedWalls
    {
        type            calculated;
        value           uniform 0;
    }
    frontAndBack
    {
        type            empty;
        value           nonuniform List<scalar> 0();
    }
}


// ************************************************************************* //
