/*--------------------------------*- C++ -*----------------------------------*\
| =========                 |                                                 |
| \\      /  F ield         | OpenFOAM: The Open Source CFD Toolbox           |
|  \\    /   O peration     | Version:  2312                                  |
|   \\  /    A nd           | Website:  www.openfoam.com                      |
|    \\/     M anipulation  |                                                 |
\*---------------------------------------------------------------------------*/
FoamFile
{
    version     2.0;
    format      ascii;
    arch        "LSB;label=32;scalar=64";
    class       surfaceScalarField;
    location    "2";
    object      phi;
}
// * * * * * * * * * * * * * * * * * * * * * * * * * * * * * * * * * * * * * //

dimensions      [0 3 -1 0 0 0 0];

oriented        oriented;

internalField   nonuniform List<scalar> 
760
(
-6.14128e-08
6.14117e-08
-2.1907e-07
1.57657e-07
-4.32753e-07
2.13683e-07
-6.75123e-07
2.42371e-07
-9.45367e-07
2.70244e-07
-1.24708e-06
3.01713e-07
-1.57664e-06
3.29557e-07
-1.92596e-06
3.49322e-07
-2.28255e-06
3.56588e-07
-2.61898e-06
3.3643e-07
-2.88343e-06
2.64454e-07
-3.00849e-06
1.25055e-07
-2.92832e-06
-8.01633e-08
-2.59563e-06
-3.32692e-07
-2.02555e-06
-5.70081e-07
-1.30721e-06
-7.18339e-07
-6.10312e-07
-6.96898e-07
-1.28825e-07
-4.81487e-07
4.93793e-08
-1.78204e-07
4.93793e-08
-1.70136e-07
2.31547e-07
-4.43111e-07
4.30633e-07
-7.74111e-07
5.44683e-07
-1.13941e-06
6.07669e-07
-1.52398e-06
6.54817e-07
-1.91366e-06
6.91393e-07
-2.30424e-06
7.20135e-07
-2.70769e-06
7.52767e-07
-3.13408e-06
7.82988e-07
-3.56581e-06
7.68152e-07
-3.9442e-06
6.42844e-07
-4.17767e-06
3.58528e-07
-4.18469e-06
-7.31473e-08
-3.87382e-06
-6.43552e-07
-3.24524e-06
-1.19867e-06
-2.35263e-06
-1.61095e-06
-1.33462e-06
-1.71491e-06
-4.66386e-07
-1.34972e-06
-2.60546e-08
-6.18536e-07
2.33248e-08
-2.56821e-07
4.88368e-07
-5.82463e-07
7.56275e-07
-9.5078e-07
9.13e-07
-1.35342e-06
1.01031e-06
-1.77306e-06
1.07445e-06
-2.1997e-06
1.11803e-06
-2.65453e-06
1.17496e-06
-3.18036e-06
1.2786e-06
-3.80043e-06
1.40305e-06
-4.48227e-06
1.45e-06
-5.1306e-06
1.29117e-06
-5.61642e-06
8.44347e-07
-5.80475e-06
1.15189e-07
-5.63516e-06
-8.13151e-07
-5.05054e-06
-1.78328e-06
-4.05149e-06
-2.61001e-06
-2.70324e-06
-3.06316e-06
-1.23493e-06
-2.81802e-06
-1.97946e-07
-1.65552e-06
-1.74621e-07
-3.07239e-07
7.95608e-07
-6.59616e-07
1.10865e-06
-1.0373e-06
1.29068e-06
-1.44274e-06
1.41575e-06
-1.87402e-06
1.50573e-06
-2.34582e-06
1.58983e-06
-2.9081e-06
1.73725e-06
-3.6192e-06
1.9897e-06
-4.48634e-06
2.2702e-06
-5.41259e-06
2.37624e-06
-6.22424e-06
2.10282e-06
-6.76796e-06
1.38807e-06
-6.96926e-06
3.1649e-07
-6.87764e-06
-9.04769e-07
-6.47992e-06
-2.181e-06
-5.67894e-06
-3.41099e-06
-4.37583e-06
-4.36626e-06
-2.58447e-06
-4.60938e-06
-7.59991e-07
-3.48e-06
-9.34612e-07
-3.22837e-07
1.11844e-06
-6.77496e-07
1.46331e-06
-1.04553e-06
1.65872e-06
-1.43764e-06
1.80786e-06
-1.86853e-06
1.93662e-06
-2.37298e-06
2.09429e-06
-3.01251e-06
2.37678e-06
-3.83211e-06
2.8093e-06
-4.77331e-06
3.2114e-06
-5.66646e-06
3.26939e-06
-6.33945e-06
2.77581e-06
-6.71709e-06
1.76571e-06
-6.82692e-06
4.26321e-07
-6.74084e-06
-9.90851e-07
-6.51688e-06
-2.40496e-06
-6.12206e-06
-3.80581e-06
-5.33178e-06
-5.15654e-06
-3.82215e-06
-6.11902e-06
-1.59621e-06
-5.70594e-06
-2.53082e-06
-3.08094e-07
1.42654e-06
-6.42392e-07
1.79761e-06
-9.83167e-07
1.9995e-06
-1.34615e-06
2.17084e-06
-1.75675e-06
2.34722e-06
-2.25627e-06
2.59381e-06
-2.89634e-06
3.01685e-06
-3.68131e-06
3.59427e-06
-4.49735e-06
4.02743e-06
-5.17193e-06
3.94397e-06
-5.55982e-06
3.1637e-06
-5.62775e-06
1.83364e-06
-5.49658e-06
2.95145e-07
-5.29959e-06
-1.18784e-06
-5.15482e-06
-2.54972e-06
-5.09151e-06
-3.86912e-06
-4.93658e-06
-5.31147e-06
-4.19729e-06
-6.8583e-06
-2.31738e-06
-7.58585e-06
-4.84821e-06
-2.69645e-07
1.69618e-06
-5.6392e-07
2.09188e-06
-8.61017e-07
2.2966e-06
-1.17654e-06
2.48636e-06
-1.53658e-06
2.70726e-06
-1.97232e-06
3.02955e-06
-2.50952e-06
3.55405e-06
-3.12409e-06
4.20884e-06
-3.69524e-06
4.59859e-06
-4.09361e-06
4.34234e-06
-4.23094e-06
3.30103e-06
-4.14106e-06
1.74376e-06
-3.93727e-06
9.13534e-08
-3.69698e-06
-1.42813e-06
-3.49142e-06
-2.75528e-06
-3.43925e-06
-3.9213e-06
-3.57314e-06
-5.17758e-06
-3.54884e-06
-6.8826e-06
-2.44864e-06
-8.68605e-06
-7.29685e-06
-2.13926e-07
1.91011e-06
-4.52934e-07
2.33089e-06
-6.92037e-07
2.5357e-06
-9.40956e-07
2.73528e-06
-1.21775e-06
2.98405e-06
-1.53567e-06
3.34747e-06
-1.89254e-06
3.91092e-06
-2.26074e-06
4.57703e-06
-2.56074e-06
4.89859e-06
-2.75309e-06
4.53469e-06
-2.80878e-06
3.35672e-06
-2.76079e-06
1.69576e-06
-2.62788e-06
-4.15588e-08
-2.43304e-06
-1.62297e-06
-2.20381e-06
-2.9845e-06
-2.06011e-06
-4.065e-06
-2.13445e-06
-5.10324e-06
-2.39533e-06
-6.62172e-06
-2.05476e-06
-9.02662e-06
-9.35161e-06
-1.47797e-07
2.05791e-06
-3.21777e-07
2.50487e-06
-4.92612e-07
2.70653e-06
-6.60657e-07
2.90333e-06
-8.31927e-07
3.15532e-06
-1.00189e-06
3.51743e-06
-1.14587e-06
4.0549e-06
-1.24296e-06
4.67412e-06
-1.28415e-06
4.93978e-06
-1.31097e-06
4.56152e-06
-1.34046e-06
3.38621e-06
-1.36624e-06
1.72155e-06
-1.35311e-06
-5.46936e-08
-1.2637e-06
-1.71238e-06
-1.13118e-06
-3.11702e-06
-1.0447e-06
-4.15148e-06
-1.0829e-06
-5.06504e-06
-1.34015e-06
-6.36447e-06
-1.4227e-06
-8.94407e-06
-1.07743e-05
-7.73576e-08
2.13527e-06
-1.81461e-07
2.60898e-06
-2.79134e-07
2.80421e-06
-3.61416e-07
2.98561e-06
-4.22234e-07
3.21614e-06
-4.42949e-07
3.53814e-06
-3.84165e-07
3.99612e-06
-2.33743e-07
4.5237e-06
-5.12618e-08
4.7573e-06
9.25137e-08
4.41774e-06
1.49555e-07
3.32917e-06
1.27925e-07
1.74318e-06
5.48564e-08
1.83748e-08
1.45209e-08
-1.67204e-06
-6.46626e-08
-3.03783e-06
-1.73786e-07
-4.04236e-06
-3.3968e-07
-4.89915e-06
-6.22587e-07
-6.08156e-06
-8.73865e-07
-8.69279e-06
-1.16482e-05
-8.82769e-09
2.14409e-06
-4.3826e-08
2.64397e-06
-6.94409e-08
2.82982e-06
-6.95372e-08
2.9857e-06
-2.96697e-08
3.17627e-06
7.62044e-08
3.43227e-06
2.90211e-07
3.78211e-06
6.37174e-07
4.17673e-06
1.04152e-06
4.35296e-06
1.40026e-06
4.059e-06
1.57631e-06
3.15312e-06
1.57083e-06
1.74866e-06
1.42694e-06
1.62265e-07
1.19705e-06
-1.44215e-06
9.08691e-07
-2.74948e-06
5.90839e-07
-3.72451e-06
2.45921e-07
-4.55423e-06
-1.54481e-07
-5.68116e-06
-5.12007e-07
-8.33527e-06
-1.21602e-05
5.06284e-08
2.09346e-06
7.91943e-08
2.61541e-06
1.18712e-07
2.7903e-06
1.89173e-07
2.91524e-06
3.0824e-07
3.05721e-06
5.01888e-07
3.23862e-06
8.13578e-07
3.47042e-06
1.26944e-06
3.72088e-06
1.8019e-06
3.8205e-06
2.3002e-06
3.5607e-06
2.61977e-06
2.83354e-06
2.69227e-06
1.67616e-06
2.54307e-06
3.11472e-07
2.17971e-06
-1.0788e-06
1.70047e-06
-2.27023e-06
1.19512e-06
-3.21916e-06
6.86804e-07
-4.04591e-06
1.54968e-07
-5.14932e-06
-3.05095e-07
-7.87521e-06
-1.24653e-05
9.62013e-08
1.99726e-06
1.78364e-07
2.53325e-06
2.73838e-07
2.69483e-06
4.0232e-07
2.78676e-06
5.80923e-07
2.8786e-06
8.3072e-07
2.98883e-06
1.18323e-06
3.11792e-06
1.66395e-06
3.24015e-06
2.22808e-06
3.25637e-06
2.76691e-06
3.02187e-06
3.15173e-06
2.44872e-06
3.28205e-06
1.54584e-06
3.14342e-06
4.50105e-07
2.74769e-06
-6.8307e-07
2.19662e-06
-1.71916e-06
1.59396e-06
-2.61651e-06
9.78099e-07
-3.43005e-06
3.4752e-07
-4.51874e-06
-2.05786e-07
-7.3219e-06
-1.26711e-05
1.23148e-07
1.87412e-06
2.46946e-07
2.40945e-06
3.8862e-07
2.55316e-06
5.63753e-07
2.61163e-06
7.85127e-07
2.65723e-06
1.06703e-06
2.70693e-06
1.42795e-06
2.75699e-06
1.88312e-06
2.78498e-06
2.40649e-06
2.733e-06
2.91032e-06
2.51803e-06
3.28415e-06
2.07489e-06
3.43096e-06
1.39903e-06
3.31802e-06
5.63047e-07
2.96258e-06
-3.27631e-07
2.43416e-06
-1.19074e-06
1.81658e-06
-1.99894e-06
1.15236e-06
-2.76583e-06
4.63497e-07
-3.82988e-06
-1.82289e-07
-6.67611e-06
-1.28533e-05
1.25721e-07
1.7484e-06
2.76549e-07
2.25862e-06
4.55978e-07
2.37373e-06
6.69896e-07
2.39771e-06
9.24258e-07
2.40287e-06
1.22679e-06
2.4044e-06
1.58477e-06
2.39901e-06
2.0008e-06
2.36895e-06
2.45552e-06
2.27828e-06
2.89029e-06
2.08326e-06
3.22036e-06
1.74482e-06
3.36742e-06
1.25197e-06
3.29142e-06
6.39043e-07
3.00028e-06
-3.64935e-08
2.53184e-06
-7.22289e-07
1.94604e-06
-1.41314e-06
1.27496e-06
-2.09475e-06
5.82158e-07
-3.13707e-06
-1.78129e-07
-5.91583e-06
-1.30315e-05
9.39509e-08
1.65444e-06
2.61785e-07
2.09078e-06
4.68571e-07
2.16694e-06
7.14495e-07
2.15179e-06
9.98403e-07
2.11896e-06
1.32099e-06
2.08181e-06
1.68041e-06
2.03959e-06
2.06949e-06
1.97988e-06
2.46847e-06
1.8793e-06
2.83899e-06
1.71273e-06
3.12454e-06
1.45927e-06
3.26687e-06
1.10965e-06
3.22709e-06
6.78819e-07
2.99774e-06
1.92858e-07
2.59889e-06
-3.23441e-07
2.06308e-06
-8.77324e-07
1.42584e-06
-1.45752e-06
8.26806e-07
-2.53804e-06
-3.73204e-08
-5.0517e-06
-1.30688e-05
-1.47961e-09
1.65592e-06
1.45131e-07
1.94417e-06
3.82916e-07
1.92916e-06
6.73442e-07
1.86126e-06
9.97496e-07
1.7949e-06
1.35133e-06
1.72797e-06
1.72797e-06
1.66295e-06
2.11552e-06
1.59232e-06
2.49405e-06
1.50078e-06
2.83501e-06
1.37178e-06
3.10216e-06
1.19212e-06
3.2529e-06
9.58907e-07
3.25099e-06
6.80729e-07
3.07884e-06
3.65007e-07
2.73769e-06
1.77109e-08
2.25848e-06
-3.98113e-07
1.68598e-06
-8.85014e-07
1.21025e-06
-2.06231e-06
3.03829e-07
-4.14528e-06
-1.2765e-05
-1.66898e-07
1.82282e-06
2.9249e-09
1.77435e-06
2.79546e-07
1.65254e-06
5.95315e-07
1.54549e-06
9.64468e-07
1.42575e-06
1.36878e-06
1.32366e-06
1.79052e-06
1.24121e-06
2.21354e-06
1.1693e-06
2.61922e-06
1.0951e-06
2.98328e-06
1.00772e-06
3.2756e-06
8.99805e-07
3.46353e-06
7.70975e-07
3.52261e-06
6.21652e-07
3.4344e-06
4.53218e-07
3.18961e-06
2.62497e-07
2.82204e-06
-3.05462e-08
2.3577e-06
-4.20667e-07
1.82814e-06
-1.53276e-06
7.94912e-07
-3.11205e-06
-1.19701e-05
-4.49269e-07
2.27209e-06
-2.48344e-07
1.57342e-06
3.11693e-07
1.0925e-06
9.35767e-07
9.21418e-07
1.53945e-06
8.22063e-07
2.11938e-06
7.43741e-07
2.67632e-06
6.84266e-07
3.20718e-06
6.38442e-07
3.70514e-06
5.97134e-07
4.1585e-06
5.5436e-07
4.55201e-06
5.06286e-07
4.8715e-06
4.51486e-07
5.10453e-06
3.88626e-07
5.24385e-06
3.13895e-07
5.27924e-06
2.27114e-07
5.15464e-06
9.40507e-08
4.80346e-06
-6.9486e-08
3.98406e-06
-7.13362e-07
1.94013e-06
-1.06812e-06
-1.00299e-05
2.27209e-06
3.84552e-06
4.93801e-06
5.85943e-06
6.68149e-06
7.42523e-06
8.1095e-06
8.74794e-06
9.34508e-06
9.89944e-06
1.04057e-05
1.08572e-05
1.12458e-05
1.15597e-05
1.17868e-05
1.18809e-05
1.18114e-05
1.1098e-05
1.00299e-05
)
;

boundaryField
{
    movingWall
    {
        type            calculated;
        value           uniform 0;
    }
    fixedWalls
    {
        type            calculated;
        value           uniform 0;
    }
    frontAndBack
    {
        type            empty;
        value           nonuniform List<scalar> 0();
    }
}


// ************************************************************************* //
