/*--------------------------------*- C++ -*----------------------------------*\
| =========                 |                                                 |
| \\      /  F ield         | OpenFOAM: The Open Source CFD Toolbox           |
|  \\    /   O peration     | Version:  2312                                  |
|   \\  /    A nd           | Website:  www.openfoam.com                      |
|    \\/     M anipulation  |                                                 |
\*---------------------------------------------------------------------------*/
FoamFile
{
    version     2.0;
    format      ascii;
    arch        "LSB;label=32;scalar=64";
    class       volScalarField;
    location    "2";
    object      pNear;
}
// * * * * * * * * * * * * * * * * * * * * * * * * * * * * * * * * * * * * * //

dimensions      [0 2 -2 0 0 0 0];

internalField   nonuniform List<scalar> 
400
(
1.0909e-08
0
0
0
0
0
0
0
0
0
0
0
0.000525781
0.00132378
0.00223478
0.0029992
0.00344165
0.0035761
0.00352526
0.00346167
2.0772e-05
0
0
0
0
0
0
0
0
0
0
0
0.000174721
0.00097398
0.00192585
0.0027831
0.0033222
0.00351166
0.00349754
0.00341303
1.36193e-05
0
0
0
0
0
0
0
0
0
0
0
0
0
0.000990845
0.00210358
0.00297521
0.00337657
0.00346266
0.00334295
0
0
0
0
0
0
0
0
0
0
0
0
0
0
0
0
0.0015667
0.00285336
0.00336133
0.0032071
0
0
0
0
0
0
0
0
0
0
0
0
0
0
0
0
0
0.00112034
0.00293921
0.00315886
0
0
0
0
0
0
0
0
0
0
0
0
0
0
0
0
0
0
0.00155495
0.00271978
0
0
0
0
0
0
0
0
0
0
0
0
0
0
0
0
0
0
0
0.00127414
0
0
0
0
0
0
0
0
0
0
0
0
0
0
0
0
0
0
0
0
0
0
0
0
0
0
0
0
0
0
0
0
0
0
0
0
0
0
0
0
0
0
0
0
0
0
0
0
0
0
0
0
0
0
0
0
0
0
0
0
0
0
0
0
0
0
0
0
0
0
0
0
0
0
0
0
0
0
0
0
0
0
0
0
0
0
0
0
0
0
0
0
0
0
0
0
0
0
0
0
0
0
0
0
0
0
0
0
0
0
0
0
0
0
0
0
0
0
0
0
0
0
0
0
0
0
0
0
0
0
0
0
0
0
0
0
0
0
0
0
0
0
0
0
0
0
0
0
0
0
0
0
0
0
0
0
0
0
0
0
0
0
0
0
0
0
0
0
0
0
0
0
0
0
0
0
0
0
0
0
0
0
0
0
0
0
0
0
0
0
0
0
0
0
0
0
0
0
0
0
0
0
0
0
0
0
0
0
0
0
0
0
0
0
0
0
0
0
0
0
0
0
0
0
0
0
0
0
0
0
0
0
0
0
0
0
0
0.000800988
0.00232544
0.015157
0
0.001275
0.000609318
0
0
0
0
0
0
0
0
0
0
0
0
0
0
0.0034221
0.00511945
0.0579342
)
;

boundaryField
{
    movingWall
    {
        type            zeroGradient;
    }
    fixedWalls
    {
        type            calculated;
        value           nonuniform List<scalar> 
60
(
3.12507e-06
1.65849e-05
1.26493e-05
2.0429e-06
0
0
0
0
0
0
0
0
0
0
0
0
0
0
0
0
0.00345437
0.00340981
0.00333309
0.00322024
0.00310023
0.00256879
0.00129987
0.000191122
0
0
0
0
0
0
0
0
0
0.00227355
0.0193
0.0515177
9.27264e-09
1.63635e-09
0
0
0
0
0
0
0
0
0
7.88671e-05
0.000566613
0.00134073
0.00221279
0.00295091
0.00339545
0.00354831
0.00352334
0.0034712
)
;
    }
    frontAndBack
    {
        type            empty;
    }
}


// ************************************************************************* //
