/*--------------------------------*- C++ -*----------------------------------*\
| =========                 |                                                 |
| \\      /  F ield         | OpenFOAM: The Open Source CFD Toolbox           |
|  \\    /   O peration     | Version:  2312                                  |
|   \\  /    A nd           | Website:  www.openfoam.com                      |
|    \\/     M anipulation  |                                                 |
\*---------------------------------------------------------------------------*/
FoamFile
{
    version     2.0;
    format      ascii;
    arch        "LSB;label=32;scalar=64";
    class       volScalarField;
    location    "2";
    object      powk;
}
// * * * * * * * * * * * * * * * * * * * * * * * * * * * * * * * * * * * * * //

dimensions      [0 0.5 -0.5 0 0 0 0];

internalField   nonuniform List<scalar> 
400
(
2.54492
2.55051
2.55596
2.56048
2.56451
2.56823
2.57158
2.57439
2.57656
2.57806
2.57881
2.57904
2.57858
2.57744
2.57543
2.57204
2.56668
2.55881
2.54999
2.54492
2.54955
2.55584
2.56007
2.5632
2.56601
2.56867
2.5712
2.57366
2.57622
2.57876
2.58115
2.58361
2.58604
2.58774
2.58844
2.58747
2.58323
2.57442
2.5599
2.54864
2.55547
2.56247
2.56652
2.56882
2.57053
2.57227
2.57461
2.57766
2.58135
2.5854
2.58869
2.59074
2.59206
2.59327
2.59457
2.59514
2.59491
2.59034
2.57398
2.55542
2.56013
2.56708
2.57139
2.57399
2.576
2.57817
2.58111
2.58492
2.58863
2.59023
2.59079
2.59104
2.59167
2.59268
2.59426
2.59605
2.5979
2.59886
2.59287
2.57217
2.56387
2.5704
2.57491
2.57777
2.58018
2.58289
2.58632
2.58919
2.59001
2.58984
2.58889
2.58778
2.58747
2.58834
2.5905
2.59341
2.59749
2.60104
2.60265
2.59256
2.56689
2.57272
2.57737
2.58047
2.58322
2.58623
2.5892
2.59019
2.58976
2.58763
2.58496
2.58421
2.58428
2.58599
2.58816
2.59119
2.59523
2.60101
2.60619
2.6074
2.56933
2.57424
2.57898
2.58231
2.58529
2.58835
2.59031
2.59054
2.5887
2.58442
2.58251
2.5821
2.58256
2.58438
2.5868
2.59016
2.59426
2.5995
2.60737
2.61512
2.57126
2.57513
2.5799
2.5834
2.58653
2.58948
2.59076
2.59039
2.58707
2.58248
2.58066
2.58016
2.58013
2.58143
2.58462
2.58916
2.59389
2.59931
2.60739
2.61893
2.57275
2.57555
2.58025
2.5839
2.58715
2.58998
2.59106
2.5904
2.58661
2.5813
2.57898
2.57809
2.5777
2.57874
2.58285
2.58875
2.59387
2.59967
2.60761
2.62131
2.57382
2.57552
2.58015
2.58382
2.58709
2.58994
2.59125
2.59065
2.58707
2.5816
2.57847
2.57684
2.57624
2.57766
2.5822
2.58894
2.59477
2.60051
2.6084
2.62304
2.57453
2.57536
2.57984
2.58353
2.58682
2.58969
2.59138
2.59121
2.58844
2.58306
2.57924
2.57723
2.57675
2.5782
2.58305
2.59076
2.59619
2.60119
2.60949
2.62465
2.57487
2.57502
2.57929
2.58297
2.58626
2.58918
2.59131
2.59191
2.59054
2.5866
2.58201
2.57933
2.5793
2.58113
2.58618
2.59315
2.59746
2.60148
2.61035
2.6263
2.5748
2.57451
2.57859
2.58229
2.58557
2.58852
2.591
2.5923
2.592
2.59053
2.58745
2.58454
2.58451
2.58607
2.5902
2.59506
2.59799
2.60148
2.61103
2.62815
2.57453
2.57391
2.57785
2.58159
2.58487
2.58781
2.59039
2.59225
2.59294
2.5926
2.59151
2.58981
2.58954
2.59042
2.59267
2.59571
2.59791
2.60012
2.61132
2.63029
2.57387
2.57315
2.57709
2.58095
2.58426
2.58719
2.58978
2.59189
2.59306
2.59337
2.59309
2.59235
2.59191
2.59221
2.59327
2.59516
2.59619
2.59723
2.61139
2.63285
2.57337
2.57258
2.5766
2.58051
2.58378
2.58663
2.58913
2.59121
2.59266
2.59323
2.59312
2.59271
2.5921
2.592
2.59232
2.59306
2.59314
2.594
2.6113
2.63594
2.5722
2.57175
2.57595
2.5798
2.58297
2.58567
2.58799
2.58992
2.5914
2.59222
2.59227
2.592
2.59139
2.59081
2.59075
2.59108
2.5911
2.59274
2.61258
2.6397
2.57378
2.57269
2.57717
2.58056
2.5834
2.58587
2.58801
2.58976
2.5911
2.59201
2.59236
2.59226
2.59196
2.59154
2.5912
2.59129
2.5917
2.59693
2.61738
2.6448
2.58079
2.58444
2.59116
2.595
2.59765
2.59974
2.60145
2.60288
2.60404
2.60501
2.60582
2.60652
2.60717
2.60805
2.60892
2.61066
2.61278
2.62033
2.62986
2.65209
2.62719
2.64202
2.65123
2.65575
2.65811
2.65945
2.66015
2.6605
2.66051
2.66046
2.66032
2.66015
2.66
2.6599
2.65994
2.66008
2.6606
2.66077
2.66308
2.65928
)
;

boundaryField
{
    movingWall
    {
        type            calculated;
        value           nonuniform List<scalar> 
20
(
2.62719
2.64202
2.65123
2.65575
2.65811
2.65945
2.66015
2.6605
2.66051
2.66046
2.66032
2.66015
2.66
2.6599
2.65994
2.66008
2.6606
2.66077
2.66308
2.65928
)
;
    }
    fixedWalls
    {
        type            calculated;
        value           nonuniform List<scalar> 
60
(
2.54492
2.54955
2.55547
2.56013
2.56387
2.56689
2.56933
2.57126
2.57275
2.57382
2.57453
2.57487
2.5748
2.57453
2.57387
2.57337
2.5722
2.57378
2.58079
2.62719
2.54492
2.54864
2.55542
2.57217
2.59256
2.6074
2.61512
2.61893
2.62131
2.62304
2.62465
2.6263
2.62815
2.63029
2.63285
2.63594
2.6397
2.6448
2.65209
2.65928
2.54492
2.55051
2.55596
2.56048
2.56451
2.56823
2.57158
2.57439
2.57656
2.57806
2.57881
2.57904
2.57858
2.57744
2.57543
2.57204
2.56668
2.55881
2.54999
2.54492
)
;
    }
    frontAndBack
    {
        type            empty;
    }
}


// ************************************************************************* //
