/*--------------------------------*- C++ -*----------------------------------*\
| =========                 |                                                 |
| \\      /  F ield         | OpenFOAM: The Open Source CFD Toolbox           |
|  \\    /   O peration     | Version:  2312                                  |
|   \\  /    A nd           | Website:  www.openfoam.com                      |
|    \\/     M anipulation  |                                                 |
\*---------------------------------------------------------------------------*/
FoamFile
{
    version     2.0;
    format      ascii;
    arch        "LSB;label=32;scalar=64";
    class       volScalarField;
    location    "2";
    object      QField;
}
// * * * * * * * * * * * * * * * * * * * * * * * * * * * * * * * * * * * * * //

dimensions      [0 0 -2 0 0 0 0];

internalField   nonuniform List<scalar> 
400
(
-0.0494982
-0.29156
-0.622719
-0.811104
-0.878116
-0.940167
-1.13744
-1.51638
-2.05016
-2.79747
-3.91203
-5.4799
-7.28452
-8.72443
-9.34679
-8.46325
-5.81589
-2.55028
-0.456743
-0.0404899
-0.301795
-0.847707
-1.49048
-1.91079
-2.10709
-2.16779
-2.22394
-2.45683
-3.02344
-3.94402
-4.99985
-5.96051
-7.25818
-9.84887
-13.1104
-14.608
-12.4065
-6.51903
-1.32647
-0.0121314
-0.754018
-1.33153
-1.93938
-2.44406
-2.7066
-2.82567
-3.19259
-4.20385
-5.97485
-8.23398
-10.5036
-12.5599
-14.6573
-17.7838
-22.7309
-27.0777
-26.615
-19.4039
-5.56241
-0.481506
-1.26217
-1.70514
-2.12283
-2.55122
-2.90733
-3.44538
-4.76665
-7.34475
-10.9524
-13.9166
-13.9726
-11.2979
-9.0463
-9.50368
-14.0393
-23.5376
-33.849
-35.9499
-20.7421
-2.49837
-1.68755
-1.91903
-2.167
-2.5315
-3.04697
-4.15878
-6.61762
-10.5958
-13.9977
-12.6805
-5.04181
5.54022
14.1053
17.8394
16.7976
8.4474
-10.4477
-35.2152
-44.1604
-12.2447
-1.93247
-1.89817
-2.03361
-2.3891
-3.09665
-4.73762
-8.05338
-12.1061
-12.3439
-4.11691
10.8682
24.7267
32.2082
34.3924
34.9046
34.8482
26.3935
-4.03841
-48.6727
-47.5409
-1.98936
-1.67876
-1.75114
-2.12065
-2.96513
-4.8856
-8.35515
-11.1539
-7.21758
6.83247
24.6717
35.0191
34.9985
31.1826
29.1499
32.1276
38.7904
30.7149
-22.7592
-89.5913
-1.90431
-1.34901
-1.38333
-1.75191
-2.62368
-4.52565
-7.65472
-8.88556
-1.84367
14.9882
32.2019
38.2746
34.5419
28.1405
22.379
20.5214
27.5704
38.0252
10.036
-99.9168
-1.73547
-1.00933
-1.00644
-1.34234
-2.15211
-3.86
-6.51859
-6.78195
0.864258
17.6948
34.7869
40.93
37.9482
30.8048
21.958
15.6866
16.7668
27.7978
24.0769
-80.513
-1.54316
-0.733263
-0.691983
-0.980755
-1.68776
-3.13907
-5.39988
-5.82675
0.413542
15.3918
32.2223
40.4645
39.9816
32.9176
21.7211
13.5311
11.6741
17.9243
22.4497
-48.9269
-1.30108
-0.555405
-0.483663
-0.719796
-1.30925
-2.5035
-4.43995
-5.51416
-1.85814
8.67845
22.9777
32.8885
34.6297
28.1714
17.1785
9.66138
7.36637
11.0047
15.9691
-21.6077
-1.0219
-0.470461
-0.389586
-0.580314
-1.06311
-2.00623
-3.58815
-5.05754
-3.95148
1.61159
10.7264
18.5307
20.7173
16.3385
9.01941
4.16475
2.51157
5.11356
8.69312
-5.08727
-0.712607
-0.440492
-0.389716
-0.554413
-0.95654
-1.67767
-2.86003
-4.2698
-4.62466
-2.52271
1.84649
6.07032
7.35704
4.98498
1.43733
-0.88369
-1.80117
0.0316497
2.28724
3.54957
-0.33929
-0.411645
-0.451649
-0.620558
-0.966471
-1.52196
-2.34821
-3.38244
-4.07612
-3.56909
-1.8023
0.0672446
0.632115
-0.526394
-2.29914
-3.59862
-4.4753
-3.33206
-0.753215
5.47866
0.401728
-0.301552
-0.531383
-0.752263
-1.06969
-1.50851
-2.06818
-2.68797
-3.13703
-3.0276
-2.23056
-1.27784
-0.946045
-1.61442
-2.87437
-4.04377
-5.39986
-2.83547
4.4693
-0.856772
1.33834
-0.238309
-0.773218
-1.04258
-1.32286
-1.66024
-2.02057
-2.31961
-2.41995
-2.18156
-1.56555
-0.815906
-0.429222
-0.794635
-1.8043
-3.11693
-4.42236
4.10477
16.5702
-16.5637
2.60623
0.788388
-0.194798
-0.853879
-1.32946
-1.70682
-1.98256
-2.10204
-1.96759
-1.51196
-0.766477
0.0912375
0.682631
0.677931
0.00937411
-1.17352
0.125778
17.6244
12.9912
-60.1385
6.23699
-1.80307
-3.49046
-2.95381
-2.86365
-2.93815
-2.92588
-2.6624
-2.05189
-1.05017
0.268865
1.72395
2.99415
3.8975
4.8869
6.62247
18.1009
40.9042
0.74434
-284.406
-18.6992
3.77494
-4.70837
-7.18935
-4.43931
-3.16242
-2.82109
-2.43406
-1.56586
-0.218749
1.43526
3.18591
5.02412
6.89772
10.75
15.8942
41.42
53.5362
183.564
-1172.75
-3308.4
928.468
752.172
400.487
210.276
123.935
81.1142
57.0778
42.337
33.2399
27.9636
25.0891
24.3801
26.6449
34.8755
44.6629
110.597
-48.4339
1803.61
-3104.12
)
;

boundaryField
{
    movingWall
    {
        type            calculated;
        value           nonuniform List<scalar> 
20
(
-6622.13
1731.43
1403.8
747.298
392.792
232.1
152.579
108.034
80.6705
63.63
53.5272
47.7519
45.934
49.5834
64.3365
82.2698
201.638
-54.3665
3309.2
-4336.81
)
;
    }
    fixedWalls
    {
        type            calculated;
        value           nonuniform List<scalar> 
60
(
-0.0143327
-0.147367
-0.514189
-1.07491
-1.68496
-2.20692
-2.57391
-2.76713
-2.78625
-2.66722
-2.33096
-1.81454
-1.18353
-0.429022
0.871005
2.67257
4.26088
12.3564
-38.8521
-7494.83
-0.00912006
0.0346061
0.430275
3.16582
1.07139
-41.315
-116.87
-166.03
-158.281
-106.61
-51.0337
-13.933
7.07251
12.6566
-3.84592
-50.3928
-182.334
-859.638
-3860.4
-10999.7
-0.00872806
-0.125344
-0.343922
-0.470937
-0.438878
-0.418322
-0.659213
-1.22566
-2.10187
-3.55041
-5.93856
-9.10783
-12.017
-13.1716
-12.0519
-8.91823
-4.87913
-1.84848
-0.475091
-0.0775114
)
;
    }
    frontAndBack
    {
        type            empty;
    }
}


// ************************************************************************* //
