/*--------------------------------*- C++ -*----------------------------------*\
| =========                 |                                                 |
| \\      /  F ield         | OpenFOAM: The Open Source CFD Toolbox           |
|  \\    /   O peration     | Version:  2312                                  |
|   \\  /    A nd           | Website:  www.openfoam.com                      |
|    \\/     M anipulation  |                                                 |
\*---------------------------------------------------------------------------*/
FoamFile
{
    version     2.0;
    format      ascii;
    arch        "LSB;label=32;scalar=64";
    class       pointScalarField;
    location    "2";
    object      streamFunc;
}
// * * * * * * * * * * * * * * * * * * * * * * * * * * * * * * * * * * * * * //

dimensions      [0 3 -1 0 0 0 0];

internalField   nonuniform List<scalar> 
882
(
0
0
0
0
0
0
0
0
0
0
0
0
0
0
0
0
0
0
0
0
0
0
-6.14122e-06
-2.1907e-05
-4.32753e-05
-6.75123e-05
-9.45367e-05
-0.000124708
-0.000157664
-0.000192596
-0.000228255
-0.000261898
-0.000288343
-0.000300849
-0.000292832
-0.000259563
-0.000202555
-0.000130721
-6.10312e-05
-1.28825e-05
4.93793e-06
0
0
-2.31548e-05
-6.62181e-05
-0.000120686
-0.000181453
-0.000246935
-0.000316074
-0.000388088
-0.000463364
-0.000541663
-0.000618478
-0.000682763
-0.000718616
-0.000711301
-0.000646946
-0.000527079
-0.000365984
-0.000194493
-5.95211e-05
2.33247e-06
0
0
-4.88369e-05
-0.000124464
-0.000215764
-0.000316796
-0.000424241
-0.000536044
-0.00065354
-0.000781401
-0.000921706
-0.00106671
-0.00119582
-0.00128026
-0.00129178
-0.00121046
-0.00103213
-0.000771132
-0.000464817
-0.000183015
-1.74621e-05
0
0
-7.95608e-05
-0.000190426
-0.000319494
-0.00046107
-0.000611642
-0.000770626
-0.00094435
-0.00114332
-0.00137034
-0.00160796
-0.00181825
-0.00195705
-0.0019887
-0.00189823
-0.00168013
-0.00133903
-0.0009024
-0.000441462
-9.34612e-05
0
0
-0.000111844
-0.000258176
-0.000424048
-0.000604834
-0.000798496
-0.00100792
-0.0012456
-0.00152653
-0.00184767
-0.00217461
-0.00245219
-0.00262876
-0.00267139
-0.00257231
-0.00233181
-0.00195123
-0.00143558
-0.000823676
-0.000253082
0
0
-0.000142654
-0.000322415
-0.000522365
-0.000739449
-0.000974171
-0.00123355
-0.00153524
-0.00189466
-0.00229741
-0.0026918
-0.00300817
-0.00319154
-0.00322105
-0.00310227
-0.0028473
-0.00246038
-0.00192924
-0.00124341
-0.000484821
0
0
-0.000169618
-0.000378807
-0.000608466
-0.000857103
-0.00112783
-0.00143078
-0.00178619
-0.00220707
-0.00266693
-0.00310116
-0.00343127
-0.00360564
-0.00361478
-0.00347197
-0.00319644
-0.00280431
-0.00228655
-0.00159829
-0.000729685
0
0
-0.000191011
-0.0004241
-0.00067767
-0.000951198
-0.0012496
-0.00158435
-0.00197544
-0.00243315
-0.002923
-0.00337647
-0.00371215
-0.00388172
-0.00387757
-0.00371527
-0.00341682
-0.00301032
-0.0025
-0.00183782
-0.000935161
0
0
-0.000205791
-0.000456278
-0.000726931
-0.00101726
-0.0013328
-0.00168454
-0.00209003
-0.00255744
-0.00305142
-0.00350757
-0.00384619
-0.00401835
-0.00401288
-0.00384164
-0.00352994
-0.00311479
-0.00260829
-0.00197184
-0.00107743
0
0
-0.000213526
-0.000474424
-0.000754845
-0.00105341
-0.00137502
-0.00172883
-0.00212845
-0.00258082
-0.00305655
-0.00349832
-0.00383124
-0.00400555
-0.00400739
-0.00384019
-0.0035364
-0.00313217
-0.00264225
-0.0020341
-0.00116482
0
0
-0.000214409
-0.000478807
-0.000761789
-0.00106036
-0.00137799
-0.00172121
-0.00209942
-0.0025171
-0.00295239
-0.00335829
-0.00367361
-0.00384847
-0.0038647
-0.00372048
-0.00344553
-0.00307308
-0.00261766
-0.00204954
-0.00121602
0
0
-0.000209346
-0.000470887
-0.000749918
-0.00104144
-0.00134716
-0.00167102
-0.00201807
-0.00239015
-0.0027722
-0.00312827
-0.00341163
-0.00357924
-0.00361039
-0.00350251
-0.00327549
-0.00295357
-0.00254898
-0.00203405
-0.00124653
0
0
-0.000199726
-0.000453051
-0.000722534
-0.00100121
-0.00128907
-0.00158795
-0.00189974
-0.00222376
-0.0025494
-0.00285158
-0.00309645
-0.00325104
-0.00329605
-0.00322774
-0.00305583
-0.00279418
-0.00245117
-0.0019993
-0.00126711
0
0
-0.000187412
-0.000428356
-0.000683672
-0.000944835
-0.00121056
-0.00148125
-0.00175695
-0.00203545
-0.00230875
-0.00256055
-0.00276804
-0.00290794
-0.00296425
-0.00293148
-0.00281241
-0.00261252
-0.00233593
-0.00195295
-0.00128533
0
0
-0.000174839
-0.000400701
-0.000638074
-0.000877845
-0.00111813
-0.00135857
-0.00159847
-0.00183537
-0.0020632
-0.00227152
-0.002446
-0.0025712
-0.00263511
-0.00263146
-0.00255923
-0.00241791
-0.00220844
-0.00189473
-0.00130315
0
0
-0.000165444
-0.000374523
-0.000591217
-0.000806395
-0.00101829
-0.00122647
-0.00143043
-0.00162842
-0.00181635
-0.00198762
-0.00213355
-0.00224451
-0.0023124
-0.00233168
-0.00229934
-0.00221161
-0.00206585
-0.00181205
-0.00130688
0
0
-0.000165592
-0.00036001
-0.000552925
-0.000739051
-0.000918542
-0.00109134
-0.00125763
-0.00141687
-0.00156694
-0.00170412
-0.00182333
-0.00191922
-0.0019873
-0.0020238
-0.00202557
-0.00198576
-0.00189726
-0.00169102
-0.0012765
0
0
-0.000182282
-0.000359717
-0.000524971
-0.00067952
-0.000822095
-0.000954461
-0.00107858
-0.00119551
-0.00130502
-0.00140579
-0.00149577
-0.00157287
-0.00163504
-0.00168036
-0.00170661
-0.00170355
-0.00166149
-0.00150821
-0.00119701
0
0
-0.000227209
-0.000384552
-0.000493801
-0.000585943
-0.000668149
-0.000742523
-0.00081095
-0.000874794
-0.000934508
-0.000989944
-0.00104057
-0.00108572
-0.00112458
-0.00115597
-0.00117868
-0.00118809
-0.00118114
-0.0011098
-0.00100299
0
0
0
0
0
0
0
0
0
0
0
0
0
0
0
0
0
0
0
0
0
0
0
0
0
0
0
0
0
0
0
0
0
0
0
0
0
0
0
0
0
0
0
0
-6.14122e-06
-2.1907e-05
-4.32753e-05
-6.75123e-05
-9.45367e-05
-0.000124708
-0.000157664
-0.000192596
-0.000228255
-0.000261898
-0.000288343
-0.000300849
-0.000292832
-0.000259563
-0.000202555
-0.000130721
-6.10312e-05
-1.28825e-05
4.93793e-06
0
0
-2.31548e-05
-6.62181e-05
-0.000120686
-0.000181453
-0.000246935
-0.000316074
-0.000388088
-0.000463364
-0.000541663
-0.000618478
-0.000682763
-0.000718616
-0.000711301
-0.000646946
-0.000527079
-0.000365984
-0.000194493
-5.95211e-05
2.33247e-06
0
0
-4.88369e-05
-0.000124464
-0.000215764
-0.000316796
-0.000424241
-0.000536044
-0.00065354
-0.000781401
-0.000921706
-0.00106671
-0.00119582
-0.00128026
-0.00129178
-0.00121046
-0.00103213
-0.000771132
-0.000464817
-0.000183015
-1.74621e-05
0
0
-7.95608e-05
-0.000190426
-0.000319494
-0.00046107
-0.000611642
-0.000770626
-0.00094435
-0.00114332
-0.00137034
-0.00160796
-0.00181825
-0.00195705
-0.0019887
-0.00189823
-0.00168013
-0.00133903
-0.0009024
-0.000441462
-9.34612e-05
0
0
-0.000111844
-0.000258176
-0.000424048
-0.000604834
-0.000798496
-0.00100792
-0.0012456
-0.00152653
-0.00184767
-0.00217461
-0.00245219
-0.00262876
-0.00267139
-0.00257231
-0.00233181
-0.00195123
-0.00143558
-0.000823676
-0.000253082
0
0
-0.000142654
-0.000322415
-0.000522365
-0.000739449
-0.000974171
-0.00123355
-0.00153524
-0.00189466
-0.00229741
-0.0026918
-0.00300817
-0.00319154
-0.00322105
-0.00310227
-0.0028473
-0.00246038
-0.00192924
-0.00124341
-0.000484821
0
0
-0.000169618
-0.000378807
-0.000608466
-0.000857103
-0.00112783
-0.00143078
-0.00178619
-0.00220707
-0.00266693
-0.00310116
-0.00343127
-0.00360564
-0.00361478
-0.00347197
-0.00319644
-0.00280431
-0.00228655
-0.00159829
-0.000729685
0
0
-0.000191011
-0.0004241
-0.00067767
-0.000951198
-0.0012496
-0.00158435
-0.00197544
-0.00243315
-0.002923
-0.00337647
-0.00371215
-0.00388172
-0.00387757
-0.00371527
-0.00341682
-0.00301032
-0.0025
-0.00183782
-0.000935161
0
0
-0.000205791
-0.000456278
-0.000726931
-0.00101726
-0.0013328
-0.00168454
-0.00209003
-0.00255744
-0.00305142
-0.00350757
-0.00384619
-0.00401835
-0.00401288
-0.00384164
-0.00352994
-0.00311479
-0.00260829
-0.00197184
-0.00107743
0
0
-0.000213526
-0.000474424
-0.000754845
-0.00105341
-0.00137502
-0.00172883
-0.00212845
-0.00258082
-0.00305655
-0.00349832
-0.00383124
-0.00400555
-0.00400739
-0.00384019
-0.0035364
-0.00313217
-0.00264225
-0.0020341
-0.00116482
0
0
-0.000214409
-0.000478807
-0.000761789
-0.00106036
-0.00137799
-0.00172121
-0.00209942
-0.0025171
-0.00295239
-0.00335829
-0.00367361
-0.00384847
-0.0038647
-0.00372048
-0.00344553
-0.00307308
-0.00261766
-0.00204954
-0.00121602
0
0
-0.000209346
-0.000470887
-0.000749918
-0.00104144
-0.00134716
-0.00167102
-0.00201807
-0.00239015
-0.0027722
-0.00312827
-0.00341163
-0.00357924
-0.00361039
-0.00350251
-0.00327549
-0.00295357
-0.00254898
-0.00203405
-0.00124653
0
0
-0.000199726
-0.000453051
-0.000722534
-0.00100121
-0.00128907
-0.00158795
-0.00189974
-0.00222376
-0.0025494
-0.00285158
-0.00309645
-0.00325104
-0.00329605
-0.00322774
-0.00305583
-0.00279418
-0.00245117
-0.0019993
-0.00126711
0
0
-0.000187412
-0.000428356
-0.000683672
-0.000944835
-0.00121056
-0.00148125
-0.00175695
-0.00203545
-0.00230875
-0.00256055
-0.00276804
-0.00290794
-0.00296425
-0.00293148
-0.00281241
-0.00261252
-0.00233593
-0.00195295
-0.00128533
0
0
-0.000174839
-0.000400701
-0.000638074
-0.000877845
-0.00111813
-0.00135857
-0.00159847
-0.00183537
-0.0020632
-0.00227152
-0.002446
-0.0025712
-0.00263511
-0.00263146
-0.00255923
-0.00241791
-0.00220844
-0.00189473
-0.00130315
0
0
-0.000165444
-0.000374523
-0.000591217
-0.000806395
-0.00101829
-0.00122647
-0.00143043
-0.00162842
-0.00181635
-0.00198762
-0.00213355
-0.00224451
-0.0023124
-0.00233168
-0.00229934
-0.00221161
-0.00206585
-0.00181205
-0.00130688
0
0
-0.000165592
-0.00036001
-0.000552925
-0.000739051
-0.000918542
-0.00109134
-0.00125763
-0.00141687
-0.00156694
-0.00170412
-0.00182333
-0.00191922
-0.0019873
-0.0020238
-0.00202557
-0.00198576
-0.00189726
-0.00169102
-0.0012765
0
0
-0.000182282
-0.000359717
-0.000524971
-0.00067952
-0.000822095
-0.000954461
-0.00107858
-0.00119551
-0.00130502
-0.00140579
-0.00149577
-0.00157287
-0.00163504
-0.00168036
-0.00170661
-0.00170355
-0.00166149
-0.00150821
-0.00119701
0
0
-0.000227209
-0.000384552
-0.000493801
-0.000585943
-0.000668149
-0.000742523
-0.00081095
-0.000874794
-0.000934508
-0.000989944
-0.00104057
-0.00108572
-0.00112458
-0.00115597
-0.00117868
-0.00118809
-0.00118114
-0.0011098
-0.00100299
0
0
0
0
0
0
0
0
0
0
0
0
0
0
0
0
0
0
0
0
0
0
)
;

boundaryField
{
    movingWall
    {
        type            calculated;
    }
    fixedWalls
    {
        type            calculated;
    }
    frontAndBack
    {
        type            empty;
    }
}


// ************************************************************************* //
