/*--------------------------------*- C++ -*----------------------------------*\
| =========                 |                                                 |
| \\      /  F ield         | OpenFOAM: The Open Source CFD Toolbox           |
|  \\    /   O peration     | Version:  2312                                  |
|   \\  /    A nd           | Website:  www.openfoam.com                      |
|    \\/     M anipulation  |                                                 |
\*---------------------------------------------------------------------------*/
FoamFile
{
    version     2.0;
    format      ascii;
    arch        "LSB;label=32;scalar=64";
    class       surfaceScalarField;
    location    "2";
    object      surfaceK;
}
// * * * * * * * * * * * * * * * * * * * * * * * * * * * * * * * * * * * * * //

dimensions      [0 2 -2 0 0 0 0];

internalField   nonuniform List<scalar> 
760
(
8.46585e-05
8.07811e-05
0.000130518
0.000129895
0.000185501
0.000182608
0.000245651
0.000234729
0.000311944
0.000290433
0.000383335
0.000351278
0.000454955
0.000415594
0.000519851
0.000480442
0.000571954
0.000544851
0.00060572
0.000604894
0.000620933
0.000655578
0.000617372
0.000703259
0.000592848
0.000743454
0.000546819
0.000761991
0.000474532
0.000748426
0.000373627
0.000683702
0.000253813
0.000542003
0.000145633
0.000341064
8.25214e-05
0.000152958
7.73259e-05
0.000126018
0.000123969
0.000181986
0.000199623
0.000231836
0.000260864
0.000279512
0.000307137
0.000329767
0.00034983
0.000383538
0.000396199
0.000441082
0.000453485
0.000505442
0.000526459
0.00057779
0.000620416
0.000654752
0.000733343
0.000737905
0.000841916
0.000829342
0.000933241
0.000912598
0.00101291
0.000963598
0.00107973
0.000957596
0.00112924
0.000852078
0.0011238
0.000629253
0.00103294
0.000348388
0.000778303
0.000147762
0.00034263
0.000120238
0.000197573
0.000180366
0.000278501
0.000283811
0.000336165
0.000364492
0.000377455
0.000419239
0.000416261
0.000464872
0.000466146
0.000516994
0.000538862
0.000594132
0.000641433
0.000707059
0.000775968
0.000844046
0.000920507
0.000955903
0.00103725
0.0010384
0.00111681
0.0010918
0.00118004
0.00113942
0.00124538
0.00119572
0.00129545
0.00127132
0.00130467
0.00133659
0.00118199
0.00138404
0.000772546
0.00129709
0.000315106
0.000834791
0.000292529
0.000266603
0.000237732
0.000369802
0.000358556
0.000447566
0.000459683
0.000506656
0.000532348
0.000565605
0.000597576
0.000644979
0.000676377
0.000762328
0.00079034
0.000909672
0.00092227
0.00102398
0.00101864
0.0010738
0.00105153
0.00109295
0.00104299
0.00111441
0.00102443
0.0011551
0.00103329
0.00122166
0.00107739
0.00131245
0.00116801
0.00141596
0.00128999
0.00149914
0.00145772
0.00135934
0.00159794
0.000812214
0.00148327
0.000804284
0.000329685
0.000293276
0.000448438
0.000420311
0.000544465
0.000538549
0.000623267
0.000628061
0.000708348
0.000714316
0.000821737
0.000819926
0.000950282
0.000950533
0.00103124
0.00103544
0.00104619
0.00104424
0.00102072
0.000993002
0.000974472
0.000916325
0.000943306
0.000877279
0.000955574
0.000871959
0.00102374
0.000924638
0.00114554
0.00101977
0.00133174
0.00116216
0.00155652
0.00138065
0.00172188
0.00166674
0.00147534
0.00190548
0.00165156
0.000383902
0.00034495
0.000510422
0.000466817
0.000622145
0.000597976
0.00071911
0.000702584
0.000825895
0.000807011
0.000948722
0.000929746
0.00103569
0.00103873
0.00104844
0.00106679
0.000991045
0.00101449
0.000888607
0.000878167
0.000819132
0.000787485
0.000805932
0.000765833
0.000841022
0.000775259
0.000920664
0.000843061
0.00103639
0.000937318
0.00121107
0.00108177
0.00149087
0.00128937
0.00185034
0.00161699
0.00208169
0.00208071
0.00246941
0.000427865
0.000391077
0.00055437
0.000497941
0.000678415
0.000637292
0.000790485
0.0007541
0.000910862
0.000871886
0.00101975
0.00100038
0.00106983
0.00107514
0.00103285
0.00107163
0.000901613
0.000954995
0.000777045
0.000776525
0.000734186
0.00070938
0.00073516
0.000693717
0.000777298
0.000701574
0.000859715
0.000757437
0.000982698
0.000864358
0.00116006
0.00103418
0.00141549
0.00125314
0.00184736
0.00156231
0.00246843
0.00212742
0.00300575
0.000461153
0.000430419
0.000580864
0.000515461
0.000712977
0.000657848
0.000835501
0.000783356
0.000961403
0.000909945
0.00105577
0.00103732
0.00107694
0.00109286
0.000993773
0.00106835
0.000829907
0.000909779
0.00070886
0.000719706
0.000668911
0.000649913
0.000660132
0.000627661
0.000681714
0.000621526
0.00076208
0.000659326
0.000915841
0.000787208
0.00112726
0.00100189
0.00139996
0.00124282
0.00184236
0.00156793
0.00266474
0.00213699
0.00333316
0.000484727
0.000461769
0.000592446
0.000520773
0.000728227
0.000662031
0.0008578
0.000791313
0.000985857
0.000921624
0.00107441
0.00104787
0.00108427
0.00110475
0.000984354
0.00107442
0.000799578
0.000909808
0.00066076
0.000704136
0.000608663
0.000614513
0.000589056
0.000576371
0.000599138
0.00056188
0.000684454
0.000598443
0.000873255
0.000742136
0.00111745
0.000996979
0.00141079
0.00126651
0.00186256
0.00160613
0.00280541
0.00217766
0.00356605
0.000497815
0.000484459
0.000590359
0.000518204
0.000725118
0.000655286
0.000855136
0.000784465
0.000983637
0.000914716
0.00107821
0.00104123
0.0010949
0.00111248
0.000999871
0.00109392
0.000814367
0.000949251
0.00065789
0.000735351
0.000582221
0.000618718
0.000549195
0.000563544
0.000561184
0.000547824
0.000656125
0.000590118
0.00086586
0.000745819
0.00114604
0.00104352
0.00146185
0.00133029
0.00192124
0.00165537
0.0029383
0.00225445
0.00376502
0.000504848
0.000498196
0.000583132
0.000511371
0.000714633
0.000641279
0.000844045
0.000768695
0.00097231
0.000897495
0.0010755
0.0010239
0.0011115
0.00111378
0.0010433
0.00112454
0.000870235
0.00102719
0.00069618
0.000830688
0.000600041
0.000677252
0.000562173
0.000601448
0.000576758
0.000593901
0.000679812
0.000645765
0.000923474
0.000821848
0.00122776
0.00114516
0.0015238
0.00140666
0.00198858
0.00168738
0.00308116
0.002336
0.00396688
0.000504719
0.000501839
0.000569518
0.000499869
0.00069534
0.000621384
0.000822145
0.000746099
0.000949082
0.000871858
0.00106218
0.00099738
0.00112682
0.0011046
0.00110843
0.00115146
0.000987644
0.00111071
0.00081176
0.00098732
0.000678658
0.000829675
0.000633176
0.000725486
0.000662908
0.000724369
0.000787801
0.000785691
0.00104353
0.000970729
0.00132405
0.00125545
0.00157024
0.00145943
0.0020348
0.00169703
0.00322171
0.00240213
0.00419297
0.000496989
0.000497256
0.000551735
0.000485201
0.000672143
0.000598993
0.000795813
0.000721493
0.000920156
0.000843858
0.0010398
0.000966985
0.00112925
0.00108264
0.00115374
0.00116005
0.00111039
0.00116987
0.00100523
0.00112555
0.000876502
0.00102876
0.000816679
0.000929087
0.000847153
0.000922231
0.000968619
0.000973934
0.00118265
0.00111963
0.00139082
0.00132434
0.00158623
0.00147281
0.00206436
0.00165234
0.00337339
0.00244421
0.004463
0.000485468
0.000485013
0.00053246
0.000467774
0.000648343
0.000576288
0.000769538
0.000698058
0.000890686
0.000818144
0.00100983
0.000938001
0.00111345
0.0010538
0.00117618
0.00114974
0.00118503
0.00119678
0.00114907
0.00119619
0.00108135
0.00116166
0.00103464
0.00110242
0.00104901
0.00108499
0.00112494
0.00111325
0.00126133
0.0011956
0.00140633
0.00132721
0.00153893
0.00142006
0.00203219
0.00151887
0.00353382
0.00245983
0.00479708
0.000467319
0.000470108
0.000511602
0.000451133
0.000626003
0.000557933
0.000746665
0.000679666
0.000865459
0.000797384
0.000981977
0.000912916
0.00109009
0.00102466
0.00117034
0.00112403
0.00120794
0.00118956
0.00120878
0.00121235
0.00118274
0.00120219
0.00115277
0.00117286
0.00114922
0.00114631
0.0011839
0.00115154
0.00126148
0.0011866
0.00134094
0.00125588
0.00140001
0.0012871
0.00194651
0.00133962
0.00372309
0.00245902
0.00522324
0.000453921
0.000449308
0.000497463
0.000434006
0.000611596
0.00054165
0.000730385
0.000660559
0.000844841
0.000773267
0.000955599
0.000881532
0.00105859
0.000984543
0.00114324
0.00107667
0.00119397
0.00114787
0.00120576
0.00118308
0.00119231
0.00118128
0.0011664
0.00116398
0.00114862
0.00113355
0.00115423
0.00111721
0.00118101
0.00112381
0.00120205
0.00115039
0.00122671
0.00115323
0.00185213
0.00121623
0.00395917
0.00251262
0.0057789
0.000429393
0.000454427
0.000478193
0.000435354
0.000590613
0.00054995
0.000703441
0.000661363
0.000809959
0.000766054
0.000910476
0.0008658
0.00100262
0.000959618
0.0010813
0.00104232
0.00113698
0.00110933
0.00115859
0.00115205
0.00115295
0.00116193
0.00113113
0.00115277
0.00110214
0.00113013
0.00108678
0.00110588
0.00109319
0.00109621
0.00110157
0.00110609
0.00114275
0.00111679
0.00187673
0.00129799
0.00433236
0.00280369
0.00656438
0.000460388
0.000577896
0.000507111
0.000630017
0.000620701
0.000836172
0.000723977
0.000988636
0.000821896
0.00111428
0.000914943
0.00122664
0.000999318
0.00132746
0.00107035
0.00141553
0.0011244
0.00148853
0.00115538
0.00154612
0.00116175
0.00158518
0.00115177
0.00160948
0.00113387
0.00162725
0.00111531
0.00165239
0.00110911
0.0016794
0.00112132
0.0017552
0.00127203
0.0018599
0.00222495
0.00238345
0.00503572
0.00379343
0.00779723
0.000747526
0.00243457
0.000959078
0.00366103
0.00120411
0.00473708
0.00137894
0.00535882
0.00151902
0.00572737
0.00163915
0.00596282
0.00174367
0.00610971
0.00183371
0.00620463
0.00191024
0.00624795
0.00197591
0.0062757
0.00203291
0.00628814
0.00208497
0.00629205
0.00214578
0.00629758
0.00221648
0.00632098
0.00232549
0.00636049
0.00249378
0.00645313
0.00297131
0.00661662
0.00395193
0.00702133
0.00655494
0.00793307
0.00942915
0.00534808
0.00743903
0.00889179
0.00970725
0.0101712
0.0104334
0.0105707
0.0106189
0.0106134
0.0105879
0.0105473
0.0105047
0.0104728
0.010465
0.0104881
0.010576
0.0106666
0.0110025
0.0108073
)
;

boundaryField
{
    movingWall
    {
        type            calculated;
        value           nonuniform List<scalar> 
20
(
0.00418735
0.00650881
0.00836926
0.00941432
0.0100002
0.0103422
0.0105246
0.0106167
0.010621
0.0106058
0.0105701
0.0105245
0.0104848
0.0104608
0.0104692
0.010507
0.0106449
0.0106884
0.0113166
0.010298
)
;
    }
    fixedWalls
    {
        type            calculated;
        value           nonuniform List<scalar> 
60
(
6.51395e-05
9.64228e-05
0.000151514
0.000209217
0.000266248
0.000320305
0.000369596
0.000412558
0.00044828
0.000475258
0.00049366
0.000502733
0.000500946
0.000493566
0.000476461
0.000463755
0.000434861
0.000473994
0.000681799
0.00418735
6.5128e-05
8.95239e-05
0.000150952
0.000434106
0.00117446
0.00212865
0.00281017
0.00320133
0.003465
0.00366711
0.00386292
0.00407083
0.00431511
0.00461088
0.00498328
0.0054632
0.00609461
0.00703416
0.0085603
0.010298
6.51395e-05
0.000104178
0.000156858
0.000214144
0.000277157
0.000346731
0.000419939
0.000489971
0.000549732
0.000594176
0.000617264
0.000624602
0.000610142
0.000575553
0.000518085
0.000430979
0.000316274
0.000191352
9.99148e-05
6.5128e-05
)
;
    }
    frontAndBack
    {
        type            empty;
        value           nonuniform List<scalar> 0();
    }
}


// ************************************************************************* //
