/*--------------------------------*- C++ -*----------------------------------*\
| =========                 |                                                 |
| \\      /  F ield         | OpenFOAM: The Open Source CFD Toolbox           |
|  \\    /   O peration     | Version:  2312                                  |
|   \\  /    A nd           | Website:  www.openfoam.com                      |
|    \\/     M anipulation  |                                                 |
\*---------------------------------------------------------------------------*/
FoamFile
{
    version     2.0;
    format      ascii;
    arch        "LSB;label=32;scalar=64";
    class       surfaceScalarField;
    location    "2";
    object      surfaceDivU;
}
// * * * * * * * * * * * * * * * * * * * * * * * * * * * * * * * * * * * * * //

dimensions      [0 0 -1 0 0 0 0];

internalField   nonuniform List<scalar> 
760
(
0.0355751
-0.00653472
0.0521372
0.0433131
0.0412889
0.00718125
0.0410116
0.003164
0.0383986
0.00364884
0.032196
0.00288703
0.0259293
-0.000675083
0.0259195
-0.00315249
0.0360023
-0.000619242
0.0528388
0.0188344
0.0716914
0.0573454
0.0975373
0.0958478
0.119845
0.13114
0.0930639
0.150675
0.00528742
0.10462
-0.0498793
0.0351815
-0.0189411
0.044294
0.0131068
0.0929291
0.0114495
0.0703285
0.0333346
0.00120325
-0.0281001
-0.00164282
0.0350336
-0.0309437
-0.0149588
-0.0341987
-0.0273084
-0.0318627
-0.0219305
-0.0299841
-0.0119339
-0.0297569
-0.00506981
-0.0296912
-0.0051013
-0.0177871
-0.00603801
0.0233409
0.0013549
0.0815018
0.0150316
0.129451
0.0241487
0.161971
0.00395895
0.162231
-0.0092257
0.134514
-0.0225705
0.129355
-0.0668416
0.156164
-0.048954
0.150151
0.141553
0.0922136
0.0818667
0.0350371
0.00573029
-0.0543222
0.0217176
0.0408292
-0.0113236
-0.00478011
-0.0150402
-0.0240599
-0.00200172
-0.0161551
0.0129804
-0.00209896
0.0195858
0.00175758
0.0185519
-0.0115707
0.013104
-0.0379554
-0.00695446
-0.0796605
-0.0423216
-0.112635
-0.101343
-0.0968721
-0.167237
-0.115312
-0.194027
-0.206856
-0.223926
-0.26838
-0.245151
-0.302495
-0.0635657
-0.293813
0.0732685
-0.122833
0.0246902
-0.0608676
0.276171
-0.0192234
-0.07608
0.0143314
0.037662
-0.0175164
0.00133931
-0.0251747
-0.0233412
-0.0162523
-0.0158241
-0.0133217
-0.00289351
-0.0293989
-0.0141975
-0.068078
-0.0556576
-0.13072
-0.11102
-0.185341
-0.146616
-0.167185
-0.127149
-0.110841
-0.0850357
-0.154931
-0.0500303
-0.281209
-0.0594155
-0.346949
-0.0979545
-0.351157
-0.119413
-0.35308
-0.147294
-0.256969
-0.306915
0.190614
-0.374468
0.479767
-0.0191946
-0.0724557
0.0246699
0.0400431
-0.00448554
0.0137806
-0.0139906
-0.0118172
-0.0024653
-0.00116054
-0.00376929
0.0147386
-0.0404563
-0.0122919
-0.0985993
-0.0669332
-0.126915
-0.124038
-0.0884243
-0.0954988
-0.0449999
0.00358901
-0.0242248
0.0860247
0.0454854
0.16572
0.123839
0.214166
0.129581
0.183579
0.0844492
0.166676
-0.10113
0.222631
-0.424415
0.00190638
-0.0853146
-0.840425
0.228649
-0.0132179
-0.0568796
0.0291538
0.0374512
0.00644888
0.0205938
0.00101286
-0.00199739
0.0160434
0.0135678
0.00621604
0.0320463
-0.0387688
-0.00500383
-0.0923716
-0.0627939
-0.0926211
-0.116661
-0.00348544
-0.0337935
0.134614
0.11712
0.275969
0.219414
0.3344
0.219213
0.273905
0.152904
0.220674
0.0783619
0.304858
0.0860944
0.325667
0.287704
-0.414104
0.464636
-0.526461
-0.709562
-0.192455
-0.00621042
-0.0384285
0.0288912
0.0319159
0.0121475
0.023828
0.0105576
0.00522301
0.0295707
0.0229055
0.0208264
0.0447336
-0.029029
-0.00032276
-0.0870835
-0.0616002
-0.0578336
-0.130432
0.0868116
-0.00689142
0.201921
0.150563
0.162658
0.167214
0.0377168
0.0495727
-0.0426392
-0.0808973
-0.0562173
-0.132729
0.06894
-0.11913
0.426672
0.0152503
0.169178
0.615258
-0.375556
0.1435
-0.572862
-0.000302111
-0.0215115
0.0268528
0.0243344
0.0169036
0.0244656
0.017571
0.010534
0.0380685
0.0255064
0.0235845
0.0519069
-0.032894
-0.00169191
-0.104949
-0.0598604
-0.0794899
-0.138012
0.0568598
-0.0098713
0.115856
0.132404
0.0541289
0.135477
-0.0690414
0.0534784
-0.170987
-0.053987
-0.195641
-0.121281
-0.17282
-0.133138
0.203836
-0.177758
0.58958
0.36182
-0.0538056
0.719996
-0.614003
0.00312503
-0.00740055
0.0219473
0.0162073
0.0180961
0.021709
0.0184695
0.0123825
0.0393449
0.0208309
0.0266305
0.0511126
-0.0286582
0.00664415
-0.0929239
-0.058143
-0.0683938
-0.0848159
0.0656727
0.00125128
0.152025
0.155307
0.134827
0.193878
0.0685328
0.133361
-0.00428136
0.103309
-0.0587774
0.0298604
-0.138076
-0.0258382
-0.0197738
-0.140959
0.492235
0.065926
0.159799
0.686537
-0.38379
0.00568177
0.00335437
0.0159691
0.00815633
0.0159954
0.0174249
0.0147439
0.0120666
0.0325986
0.0132406
0.0311262
0.0386997
-0.0228406
0.0190697
-0.050035
-0.0567602
-0.0151708
-0.0386842
0.0908852
-0.0259957
0.19716
0.135209
0.192412
0.230287
0.168136
0.207638
0.13745
0.164908
0.0627997
0.0498433
-0.0287217
0.0037974
-0.0552594
-0.0610425
0.260228
0.00379858
0.142949
0.370585
-0.20311
0.00582893
0.0102859
0.00961209
0.000947433
0.0134961
0.0123633
0.0105633
0.00959762
0.0193416
0.00750952
0.0266432
0.0208493
-0.0148499
0.020746
-0.0454094
-0.0565281
-0.0495091
-0.0596947
0.0183281
-0.0887705
0.168336
0.0250021
0.245513
0.156951
0.204409
0.190752
0.0773007
0.0849839
-0.00915899
-0.0629513
-0.0285234
-0.0454051
-0.00198453
-0.046427
0.114156
0.0561815
0.0245265
0.0677354
-0.108488
0.00540445
0.0180739
0.00369867
-0.00307891
0.00846489
0.00724603
0.00654388
0.00497061
0.00901719
0.00389432
0.0149521
0.0067617
-0.0209321
0.00855503
-0.0708134
-0.0516285
-0.0989561
-0.0839638
-0.0820964
-0.111699
0.0136165
-0.0727787
0.10219
0.0129523
0.0713269
0.0525747
-0.055268
-0.0298724
-0.0991974
-0.123483
-0.0633086
-0.0678679
0.011739
-0.0486615
0.00976113
0.0812724
-0.0652795
-0.122481
-0.0235701
0.00959053
0.0143599
0.000468454
-0.0103659
0.00375175
-0.000178481
0.00232105
-0.00211162
0.00163882
-0.00132872
0.000364574
-0.00302093
-0.0221414
-0.00580077
-0.0647789
-0.0361949
-0.0967065
-0.0696501
-0.102381
-0.0810137
-0.073443
-0.0788361
-0.0366625
-0.0465384
-0.0486246
-0.0180843
-0.0980872
-0.04516
-0.0921533
-0.0900129
-0.0532207
-0.0449628
0.0208719
-0.0416199
-0.0509694
0.0722211
-0.0807713
-0.167691
0.125493
-0.00559645
0.0481334
-0.0110128
0.00351096
-0.00604186
0.00568337
-0.0057614
-0.00304017
-0.00598848
-0.00405487
-0.00918627
-0.00698406
-0.0198543
-0.0110663
-0.0410661
-0.0234474
-0.0539573
-0.0394759
-0.0574687
-0.0383207
-0.0519315
-0.0365582
-0.0279602
-0.0154067
-0.0146197
0.00569586
-0.0370857
-0.0058413
-0.0428224
-0.036493
-0.033362
-0.0175924
0.00972932
-0.0565242
-0.0445007
-0.00421864
0.0385726
-0.0664582
0.196931
0.0572408
-0.0963666
0.0202071
-0.113928
0.00868506
-0.0712842
-0.00133364
-0.0458724
-0.00505046
-0.0222558
-0.00886406
-0.0116511
-0.0146594
-0.0079516
-0.0218572
-0.0105684
-0.0238393
-0.0136799
-0.0174103
-0.0101248
-3.3432e-05
-0.000734481
0.0182494
0.0153103
0.0144743
0.0256153
-0.00524867
0.0042662
-0.0112631
-0.00647304
-0.0407547
-0.0364823
-0.0704722
-0.0767224
-0.0261761
-0.134077
0.0919006
-0.089786
-0.314072
-0.267536
0.340005
-0.205419
0.310145
-0.125842
0.258124
-0.0667945
0.162758
-0.0288565
0.116118
-0.0107387
0.0911351
-0.00386058
0.0757257
-0.00239103
0.0617197
3.46161e-05
0.0502269
0.00655098
0.0438269
0.0146093
0.044528
0.0226763
0.0532742
0.0154072
0.0526659
0.00304183
0.0266085
-0.0316922
0.0490405
-0.07245
-0.0742084
-0.140327
0.0952043
-0.197687
-0.16126
-0.495758
-0.358933
-1.33171
0.917686
-0.529072
0.773688
-0.681694
0.546724
-0.512952
0.345671
-0.36616
0.236109
-0.262091
0.177599
-0.192023
0.141306
-0.143121
0.114338
-0.108952
0.0940192
-0.0836101
0.0818039
-0.0636563
0.0831929
-0.0476808
0.0832639
-0.0310371
0.0638672
-0.0245322
0.0726072
-0.0463015
0.00652425
0.0155823
0.0934459
-0.23757
0.0742718
0.655528
-0.322506
-0.0867282
-1.19489
0.0394514
-0.326147
-2.12845
0.603412
-1.96833
0.389752
-1.42584
0.317362
-0.973921
0.143205
-0.690223
0.0971696
-0.512744
0.0807384
-0.393379
0.0522025
-0.3069
0.0284883
-0.241286
0.0156474
-0.193141
0.0135952
-0.161911
0.0172187
-0.138833
0.0170963
-0.134701
0.0346494
-0.103326
0.0124307
-0.228512
0.112904
0.324512
-0.342788
0.494528
1.28767
0.27523
-1.58241
0.90819
2.54203
4.0322
3.12162
1.28455
2.67545
-0.144076
1.8864
0.810318
1.2143
0.505393
0.868131
0.252979
0.645685
0.173618
0.47407
0.139914
0.351035
0.106912
0.270528
0.0778372
0.223955
0.0611929
0.196226
0.0569093
0.190579
0.0506065
0.181781
0.0617419
0.228662
0.0182357
-0.00137194
0.142309
0.620372
-0.485023
-0.789264
1.54267
0.684393
-5.62493
5.66604
10.4926
-5.57203
-1.98114
-2.00921
-0.570692
-0.455924
-0.441534
-0.332152
-0.227244
-0.166286
-0.131498
-0.105853
-0.0887099
-0.0782304
-0.101803
-0.0681167
-0.341342
0.437272
-3.293
4.18325
-0.745494
)
;

boundaryField
{
    movingWall
    {
        type            calculated;
        value           nonuniform List<scalar> 
20
(
-0.659463
-3.30282
-0.715591
-0.425792
-0.486056
-0.397011
-0.267294
-0.187195
-0.145378
-0.117618
-0.0940872
-0.0833326
-0.0731283
-0.130479
-0.00575474
-0.676929
1.55147
-8.13747
16.504
-17.995
)
;
    }
    fixedWalls
    {
        type            calculated;
        value           nonuniform List<scalar> 
60
(
0.00787911
-0.0209485
-0.0352517
-0.0733928
-0.0787672
-0.0661442
-0.047615
-0.029242
-0.0137811
-0.00101998
0.00772872
0.0128432
0.0233046
0.00541525
0.0908516
-0.283585
0.963596
-2.02174
3.22856
-0.659463
0.0093096
0.0573595
0.0127147
0.539628
0.419907
0.0373911
-0.422302
-0.723422
-0.504584
-0.262996
-0.143224
-0.0737531
0.0266128
0.224372
0.16949
-0.797634
-1.86579
1.21349
6.85091
-17.995
0.00787911
0.0632712
0.0410032
0.0415747
0.0404485
0.0363487
0.0280434
0.0238152
0.0280237
0.0439808
0.0616969
0.0816859
0.113389
0.126301
0.0598271
-0.0492522
-0.0505065
0.0126243
0.0135893
0.0093096
)
;
    }
    frontAndBack
    {
        type            empty;
        value           nonuniform List<scalar> 0();
    }
}


// ************************************************************************* //
