/*--------------------------------*- C++ -*----------------------------------*\
| =========                 |                                                 |
| \\      /  F ield         | OpenFOAM: The Open Source CFD Toolbox           |
|  \\    /   O peration     | Version:  2312                                  |
|   \\  /    A nd           | Website:  www.openfoam.com                      |
|    \\/     M anipulation  |                                                 |
\*---------------------------------------------------------------------------*/
FoamFile
{
    version     2.0;
    format      ascii;
    arch        "LSB;label=32;scalar=64";
    class       surfaceVectorField;
    location    "2";
    object      surfaceU;
}
// * * * * * * * * * * * * * * * * * * * * * * * * * * * * * * * * * * * * * //

dimensions      [0 1 -1 0 0 0 0];

internalField   nonuniform List<vector> 
760
(
(-0.00130232 0.000635085 0)
(-0.000802887 0.00134172 0)
(-0.00432648 0.00133375 0)
(-0.00402654 0.00334051 0)
(-0.00862093 0.00174668 0)
(-0.00909295 0.00449947 0)
(-0.0134986 0.00204954 0)
(-0.0149501 0.00508552 0)
(-0.0189336 0.00245689 0)
(-0.0213218 0.00563724 0)
(-0.0249976 0.00296812 0)
(-0.0281097 0.00624577 0)
(-0.0316324 0.00343736 0)
(-0.0351958 0.00677505 0)
(-0.0386732 0.00373104 0)
(-0.0425687 0.00715986 0)
(-0.0458629 0.00375974 0)
(-0.050337 0.0073298 0)
(-0.0526091 0.00336658 0)
(-0.0583505 0.00696614 0)
(-0.0578408 0.00232032 0)
(-0.0657739 0.00554015 0)
(-0.0601398 0.000481753 0)
(-0.0711277 0.00270747 0)
(-0.0581352 -0.00198546 0)
(-0.0726451 -0.00143764 0)
(-0.0511904 -0.0045167 0)
(-0.0688461 -0.00631332 0)
(-0.0399345 -0.00637709 0)
(-0.059311 -0.0109568 0)
(-0.0262096 -0.00681723 0)
(-0.0450481 -0.0139712 0)
(-0.0126536 -0.00533216 0)
(-0.0281398 -0.0138085 0)
(-0.00287998 -0.00266142 0)
(-0.0116636 -0.00971053 0)
(0.000863209 -0.000196491 0)
(-0.000948728 -0.00367524 0)
(0.00115495 0.000909757 0)
(-0.0035271 0.00404715 0)
(-0.00192124 0.00476408 0)
(-0.00879301 0.00650623 0)
(-0.00693498 0.0087232 0)
(-0.0154222 0.00783831 0)
(-0.0134476 0.0109954 0)
(-0.0227734 0.00867321 0)
(-0.0209085 0.0122605 0)
(-0.0304979 0.00942611 0)
(-0.0289067 0.013196 0)
(-0.0383079 0.0100527 0)
(-0.0370585 0.0139029 0)
(-0.0461321 0.0104976 0)
(-0.0452436 0.0144523 0)
(-0.0542325 0.0107586 0)
(-0.0539714 0.0151097 0)
(-0.0628247 0.0105362 0)
(-0.0639087 0.0157756 0)
(-0.0715153 0.00913971 0)
(-0.0750698 0.0156252 0)
(-0.0790608 0.00592731 0)
(-0.0863383 0.0133507 0)
(-0.083633 0.000788076 0)
(-0.0955659 0.00782964 0)
(-0.0833559 -0.0057655 0)
(-0.100353 -0.000970277 0)
(-0.0769666 -0.0127534 0)
(-0.0990399 -0.0118273 0)
(-0.0644246 -0.0185509 0)
(-0.0903289 -0.0227518 0)
(-0.0469784 -0.0209624 0)
(-0.0745985 -0.0308193 0)
(-0.0271498 -0.0181869 0)
(-0.0530785 -0.0329416 0)
(-0.00973231 -0.0107244 0)
(-0.0284549 -0.0262618 0)
(-0.000656986 -0.00256899 0)
(-0.00627455 -0.0121152 0)
(0.00117834 0.000539569 0)
(-0.00532912 0.00944013 0)
(-0.00283327 0.00991694 0)
(-0.0115896 0.0132124 0)
(-0.00888795 0.0152172 0)
(-0.0189339 0.0154176 0)
(-0.0158667 0.0183234 0)
(-0.0270418 0.0167833 0)
(-0.0237286 0.0202715 0)
(-0.0354673 0.0176728 0)
(-0.0321363 0.0215679 0)
(-0.0439942 0.0183025 0)
(-0.0407936 0.0224633 0)
(-0.0530829 0.0190645 0)
(-0.0500532 0.0236373 0)
(-0.0636476 0.0201267 0)
(-0.0610967 0.025774 0)
(-0.0761539 0.0208646 0)
(-0.0748991 0.0283678 0)
(-0.0898928 0.0198362 0)
(-0.0910863 0.0294092 0)
(-0.102843 0.015253 0)
(-0.107362 0.0261866 0)
(-0.112286 0.00607129 0)
(-0.120371 0.0169634 0)
(-0.116037 -0.0070321 0)
(-0.127445 0.00207594 0)
(-0.112402 -0.0218257 0)
(-0.127963 -0.0164293 0)
(-0.100503 -0.0350202 0)
(-0.121789 -0.0356239 0)
(-0.0806986 -0.0427985 0)
(-0.10798 -0.0518901 0)
(-0.0543836 -0.0410166 0)
(-0.0857904 -0.0604417 0)
(-0.0249971 -0.0276527 0)
(-0.0555669 -0.0550989 0)
(-0.00443923 -0.00900667 0)
(-0.0212803 -0.0324898 0)
(0.000358179 -0.00383609 0)
(-0.0063921 0.015694 0)
(-0.00327669 0.0159421 0)
(-0.0131651 0.0203282 0)
(-0.00984356 0.0221649 0)
(-0.0206614 0.0231773 0)
(-0.0168804 0.0257883 0)
(-0.0288231 0.0250562 0)
(-0.0246117 0.0282895 0)
(-0.0374626 0.0263585 0)
(-0.0329231 0.0300994 0)
(-0.0468526 0.0277981 0)
(-0.0418536 0.0317988 0)
(-0.058067 0.0303468 0)
(-0.0522951 0.034773 0)
(-0.0723482 0.0340151 0)
(-0.0658016 0.0398399 0)
(-0.0898315 0.0369124 0)
(-0.0830862 0.0453857 0)
(-0.108556 0.0357596 0)
(-0.102426 0.0472919 0)
(-0.12489 0.0278969 0)
(-0.119958 0.041509 0)
(-0.135531 0.012968 0)
(-0.132177 0.0269439 0)
(-0.139371 -0.00732127 0)
(-0.13795 0.00546822 0)
(-0.137349 -0.0302275 0)
(-0.138059 -0.0195522 0)
(-0.129266 -0.0524938 0)
(-0.133997 -0.045418 0)
(-0.113072 -0.0695333 0)
(-0.125452 -0.069843 0)
(-0.0869738 -0.074524 0)
(-0.109706 -0.088293 0)
(-0.0518501 -0.059936 0)
(-0.0828058 -0.0920002 0)
(-0.0164829 -0.0273192 0)
(-0.0445903 -0.068649 0)
(-0.00567252 -0.0176209 0)
(-0.00672814 0.022413 0)
(-0.00329585 0.0222764 0)
(-0.0135589 0.027625 0)
(-0.00985554 0.0291976 0)
(-0.0208307 0.0309004 0)
(-0.0165843 0.0331049 0)
(-0.0287117 0.0333327 0)
(-0.023837 0.0360808 0)
(-0.0373141 0.0355398 0)
(-0.0317432 0.0386517 0)
(-0.0472961 0.0387737 0)
(-0.0405935 0.0418063 0)
(-0.0600297 0.044266 0)
(-0.0515482 0.0474433 0)
(-0.0765396 0.0512105 0)
(-0.0660966 0.0560085 0)
(-0.0956801 0.0557652 0)
(-0.0839816 0.0638815 0)
(-0.113828 0.0530413 0)
(-0.102062 0.064815 0)
(-0.127245 0.040556 0)
(-0.115914 0.0546663 0)
(-0.134596 0.0194441 0)
(-0.123123 0.0341049 0)
(-0.136638 -0.00676271 0)
(-0.124339 0.00745823 0)
(-0.134706 -0.0347427 0)
(-0.122022 -0.0209768 0)
(-0.130182 -0.0627672 0)
(-0.118399 -0.0492112 0)
(-0.122085 -0.0886027 0)
(-0.114917 -0.0773751 0)
(-0.105538 -0.105769 0)
(-0.10924 -0.10456 0)
(-0.075546 -0.100713 0)
(-0.09425 -0.123283 0)
(-0.03378 -0.0589507 0)
(-0.0628775 -0.113368 0)
(-0.0186333 -0.0493013 0)
(-0.00642325 0.029061 0)
(-0.00298003 0.0283689 0)
(-0.012881 0.0346775 0)
(-0.00905965 0.0358538 0)
(-0.0195906 0.0382853 0)
(-0.0151438 0.0399075 0)
(-0.0268685 0.0413997 0)
(-0.0216001 0.0433302 0)
(-0.0350226 0.0449182 0)
(-0.0287271 0.0468444 0)
(-0.0448456 0.0504759 0)
(-0.0368596 0.0517512 0)
(-0.0576151 0.0591857 0)
(-0.0470662 0.0601531 0)
(-0.0735386 0.0686796 0)
(-0.0603752 0.071604 0)
(-0.0903635 0.0729314 0)
(-0.0756225 0.0801108 0)
(-0.104149 0.0664401 0)
(-0.0893446 0.0782697 0)
(-0.111792 0.0482152 0)
(-0.0976762 0.0626056 0)
(-0.112866 0.022119 0)
(-0.0993474 0.036229 0)
(-0.109723 -0.00675586 0)
(-0.096297 0.0060242 0)
(-0.105715 -0.0354453 0)
(-0.0917204 -0.0233503 0)
(-0.103135 -0.0638191 0)
(-0.087511 -0.0506869 0)
(-0.102072 -0.0933327 0)
(-0.0853996 -0.0773355 0)
(-0.0979524 -0.122075 0)
(-0.0859714 -0.106734 0)
(-0.0815814 -0.135938 0)
(-0.0837478 -0.138344 0)
(-0.0477308 -0.103718 0)
(-0.0664028 -0.15267 0)
(-0.0290536 -0.0968451 0)
(-0.00561643 0.0351618 0)
(-0.00242469 0.0337473 0)
(-0.0113225 0.0410839 0)
(-0.00764019 0.0417358 0)
(-0.0171533 0.0449524 0)
(-0.0127858 0.0458513 0)
(-0.0234587 0.0487748 0)
(-0.0181456 0.0496441 0)
(-0.0305641 0.0536773 0)
(-0.0240456 0.0540469 0)
(-0.0390802 0.0614283 0)
(-0.0306765 0.0604659 0)
(-0.0498263 0.0725713 0)
(-0.0386936 0.0709088 0)
(-0.0624591 0.0830352 0)
(-0.048616 0.0839369 0)
(-0.0746036 0.0854491 0)
(-0.0590995 0.0916843 0)
(-0.0828721 0.0744353 0)
(-0.0676339 0.0865308 0)
(-0.0852312 0.0506195 0)
(-0.0714572 0.0658402 0)
(-0.0827783 0.0201343 0)
(-0.0705239 0.0349199 0)
(-0.0782946 -0.0105702 0)
(-0.0672166 0.00202337 0)
(-0.0735168 -0.0385918 0)
(-0.0630676 -0.0282338 0)
(-0.069776 -0.0642033 0)
(-0.0584638 -0.0547484 0)
(-0.0692992 -0.0907363 0)
(-0.0551154 -0.0780537 0)
(-0.0717669 -0.123003 0)
(-0.0556569 -0.103335 0)
(-0.0685692 -0.155076 0)
(-0.0598202 -0.138206 0)
(-0.0477256 -0.145797 0)
(-0.0555984 -0.175158 0)
(-0.0300052 -0.146682 0)
(-0.00444845 0.0403213 0)
(-0.00171863 0.0380495 0)
(-0.00910354 0.0465032 0)
(-0.00579788 0.0465341 0)
(-0.0137781 0.0505429 0)
(-0.00977927 0.0506512 0)
(-0.0187326 0.0549162 0)
(-0.013793 0.0546422 0)
(-0.024158 0.0608354 0)
(-0.0180584 0.0596044 0)
(-0.0302899 0.0699464 0)
(-0.0225526 0.0668465 0)
(-0.0374832 0.0822744 0)
(-0.0273603 0.0780893 0)
(-0.0452564 0.092586 0)
(-0.0326946 0.0913939 0)
(-0.0521298 0.092766 0)
(-0.0374988 0.0978244 0)
(-0.0562191 0.0779358 0)
(-0.0412571 0.0905585 0)
(-0.05675 0.0501406 0)
(-0.0424714 0.0670013 0)
(-0.0549622 0.016809 0)
(-0.041749 0.0336605 0)
(-0.0519896 -0.0156402 0)
(-0.0403331 -0.000936382 0)
(-0.0480146 -0.0443903 0)
(-0.0379509 -0.032912 0)
(-0.0438032 -0.0685988 0)
(-0.0344453 -0.0599664 0)
(-0.0414731 -0.0906525 0)
(-0.0315059 -0.0813336 0)
(-0.0437102 -0.118538 0)
(-0.0308223 -0.101876 0)
(-0.0468493 -0.158287 0)
(-0.0354343 -0.13225 0)
(-0.0378779 -0.176043 0)
(-0.0384904 -0.18105 0)
(-0.0247441 -0.188177 0)
(-0.00306806 0.0442623 0)
(-0.000946303 0.0410487 0)
(-0.00647361 0.0506821 0)
(-0.00372702 0.0500398 0)
(-0.00979415 0.0547505 0)
(-0.0064023 0.054091 0)
(-0.0131188 0.0593304 0)
(-0.00892388 0.0580286 0)
(-0.016453 0.0656154 0)
(-0.0113319 0.0630616 0)
(-0.019623 0.0749894 0)
(-0.0134217 0.0702869 0)
(-0.0225717 0.0872088 0)
(-0.0147343 0.0810339 0)
(-0.0249371 0.0966323 0)
(-0.0152254 0.0934768 0)
(-0.0266261 0.0956169 0)
(-0.0144866 0.0988667 0)
(-0.0275095 0.079624 0)
(-0.0135499 0.0914047 0)
(-0.0274704 0.0505212 0)
(-0.0125896 0.0676562 0)
(-0.0271199 0.0159151 0)
(-0.0121852 0.0341363 0)
(-0.0262945 -0.0182082 0)
(-0.0125236 -0.00123991 0)
(-0.0243816 -0.0484881 0)
(-0.012407 -0.0346615 0)
(-0.022148 -0.0727012 0)
(-0.0115487 -0.0624062 0)
(-0.0208551 -0.0925575 0)
(-0.0116467 -0.0830081 0)
(-0.0225464 -0.115588 0)
(-0.0125711 -0.101184 0)
(-0.0270754 -0.155012 0)
(-0.0171946 -0.126919 0)
(-0.0253566 -0.193184 0)
(-0.0228297 -0.178648 0)
(-0.0179842 -0.216057 0)
(-0.00160526 0.0468262 0)
(-0.000177284 0.0426488 0)
(-0.00365571 0.0534488 0)
(-0.001613 0.0521522 0)
(-0.00553203 0.0573691 0)
(-0.00293434 0.0560651 0)
(-0.00713693 0.0617597 0)
(-0.00394887 0.0596956 0)
(-0.00830055 0.0677331 0)
(-0.00451145 0.0643104 0)
(-0.00853297 0.0763314 0)
(-0.00430746 0.07076 0)
(-0.00738806 0.0873019 0)
(-0.00254101 0.0799595 0)
(-0.0047749 0.0957112 0)
(0.00119203 0.0905647 0)
(-0.00141038 0.0946545 0)
(0.00665059 0.0953008 0)
(0.00136994 0.0794368 0)
(0.0122352 0.0886741 0)
(0.00269556 0.0512713 0)
(0.0160333 0.0671897 0)
(0.00241113 0.0169813 0)
(0.017328 0.0355332 0)
(0.00136395 -0.0176932 0)
(0.016359 0.000618937 0)
(0.000426025 -0.0485796 0)
(0.0142921 -0.0328538 0)
(-0.00104731 -0.0727132 0)
(0.011073 -0.0604281 0)
(-0.0033627 -0.0916348 0)
(0.00652945 -0.0805695 0)
(-0.00721928 -0.112515 0)
(0.00204259 -0.097738 0)
(-0.0129489 -0.150555 0)
(-0.00457293 -0.121332 0)
(-0.0154574 -0.201521 0)
(-0.011559 -0.173395 0)
(-0.013201 -0.232829 0)
(-0.000185026 0.0479748 0)
(0.000499857 0.0428725 0)
(-0.000891632 0.0547686 0)
(0.000355281 0.0528784 0)
(-0.00135118 0.0583917 0)
(0.000335013 0.0566012 0)
(-0.00132339 0.0622464 0)
(0.000719665 0.0597263 0)
(-0.000518368 0.0673374 0)
(0.00179788 0.0635526 0)
(0.00168449 0.0743881 0)
(0.00392674 0.0687034 0)
(0.00603908 0.0832223 0)
(0.00793642 0.0757251 0)
(0.0126175 0.0901543 0)
(0.0145808 0.0837176 0)
(0.0202961 0.0893204 0)
(0.0233564 0.0874367 0)
(0.0268985 0.076427 0)
(0.0326019 0.081762 0)
(0.0306657 0.0514516 0)
(0.0395275 0.0639154 0)
(0.0312759 0.0191708 0)
(0.0427877 0.0361135 0)
(0.0292871 -0.0145417 0)
(0.042231 0.00387243 0)
(0.0249391 -0.0447023 0)
(0.0383824 -0.0277264 0)
(0.0186498 -0.0682845 0)
(0.03096 -0.0541452 0)
(0.0119347 -0.0866727 0)
(0.0220858 -0.0739397 0)
(0.00468894 -0.106555 0)
(0.0138729 -0.0906922 0)
(-0.00318309 -0.144172 0)
(0.00442568 -0.11328 0)
(-0.00930268 -0.204703 0)
(-0.00424781 -0.166314 0)
(-0.0110174 -0.242848 0)
(0.00104016 0.0477761 0)
(0.00101335 0.0418965 0)
(0.00158193 0.054711 0)
(0.00200814 0.0523265 0)
(0.00240586 0.0579358 0)
(0.0031568 0.0558244 0)
(0.00384094 0.0610325 0)
(0.00475692 0.0583287 0)
(0.006243 0.0649186 0)
(0.00716962 0.0611785 0)
(0.0101787 0.0700404 0)
(0.010743 0.06483 0)
(0.0164781 0.0762204 0)
(0.0161194 0.0695129 0)
(0.0253196 0.081 0)
(0.0241303 0.0745795 0)
(0.0356621 0.0798784 0)
(0.0344441 0.0766827 0)
(0.0452309 0.0692505 0)
(0.0455284 0.0716152 0)
(0.0516495 0.0485773 0)
(0.0545672 0.0572539 0)
(0.0537429 0.0208151 0)
(0.059604 0.0343992 0)
(0.0513263 -0.00931227 0)
(0.0596679 0.00693183 0)
(0.0444033 -0.0371693 0)
(0.0547832 -0.020733 0)
(0.0343961 -0.0598004 0)
(0.0450731 -0.044761 0)
(0.024024 -0.0779592 0)
(0.0335333 -0.0639365 0)
(0.0136097 -0.0974174 0)
(0.0225323 -0.0805422 0)
(0.00336096 -0.135422 0)
(0.0106562 -0.10265 0)
(-0.00596254 -0.204458 0)
(0.000120993 -0.157274 0)
(-0.01058 -0.249179 0)
(0.00198132 0.0464469 0)
(0.00131736 0.0400317 0)
(0.00358301 0.0534398 0)
(0.00321134 0.0507042 0)
(0.00550785 0.0562173 0)
(0.00534822 0.0539248 0)
(0.0080856 0.0584747 0)
(0.00796733 0.0557632 0)
(0.0116696 0.0610898 0)
(0.0114171 0.0576055 0)
(0.0166837 0.0643025 0)
(0.0159808 0.0598213 0)
(0.0237716 0.067872 0)
(0.0220727 0.0624233 0)
(0.0332548 0.0702622 0)
(0.0302934 0.0648766 0)
(0.0443104 0.0684195 0)
(0.0406004 0.065199 0)
(0.0548647 0.0596186 0)
(0.0516656 0.060522 0)
(0.0625216 0.0430758 0)
(0.0611261 0.049112 0)
(0.065529 0.0205159 0)
(0.0667651 0.0311423 0)
(0.0631248 -0.00448892 0)
(0.0672434 0.00921896 0)
(0.055453 -0.0283248 0)
(0.0623621 -0.0134304 0)
(0.0442103 -0.0488971 0)
(0.0526295 -0.03413 0)
(0.0320416 -0.0665194 0)
(0.0404685 -0.0520776 0)
(0.0195788 -0.0857743 0)
(0.0281164 -0.0683018 0)
(0.00741623 -0.124502 0)
(0.0146317 -0.0900558 0)
(-0.00449647 -0.201995 0)
(0.00254555 -0.146303 0)
(-0.0111164 -0.253543 0)
(0.00254737 0.044289 0)
(0.00136392 0.0375114 0)
(0.00497655 0.0511892 0)
(0.00381836 0.048192 0)
(0.0078077 0.0534708 0)
(0.00675037 0.0510666 0)
(0.0112988 0.054894 0)
(0.0102225 0.0522388 0)
(0.0157283 0.0563369 0)
(0.0144901 0.0531517 0)
(0.0213698 0.057942 0)
(0.0197319 0.0541441 0)
(0.0285945 0.0594279 0)
(0.02618 0.0551423 0)
(0.037639 0.0598134 0)
(0.0341091 0.0556898 0)
(0.0479556 0.0573014 0)
(0.0435057 0.054614 0)
(0.057927 0.0500155 0)
(0.053437 0.0502794 0)
(0.0653695 0.0371786 0)
(0.062107 0.041366 0)
(0.0684795 0.0198453 0)
(0.0674588 0.0278165 0)
(0.0664807 0.000277512 0)
(0.0682487 0.011154 0)
(0.0595387 -0.0192357 0)
(0.0641281 -0.00657073 0)
(0.0488877 -0.0373106 0)
(0.0555558 -0.0237676 0)
(0.0365433 -0.05386 0)
(0.044136 -0.039873 0)
(0.0231692 -0.0725833 0)
(0.0315554 -0.0551215 0)
(0.00976103 -0.111856 0)
(0.0171877 -0.0763565 0)
(-0.00407443 -0.19785 0)
(0.00443411 -0.133203 0)
(-0.0118695 -0.256495 0)
(0.0026349 0.0414144 0)
(0.000982674 0.0353308 0)
(0.00559218 0.0480694 0)
(0.00368953 0.0453528 0)
(0.00916521 0.0498346 0)
(0.0072137 0.0475775 0)
(0.0134138 0.0504965 0)
(0.0113838 0.0479931 0)
(0.0184937 0.0509589 0)
(0.0163362 0.0480555 0)
(0.0245421 0.0513444 0)
(0.0221264 0.0480616 0)
(0.0316945 0.0514043 0)
(0.0288267 0.0479355 0)
(0.0399757 0.0504904 0)
(0.0364536 0.0473164 0)
(0.048987 0.0475919 0)
(0.044857 0.0454763 0)
(0.057617 0.04163 0)
(0.0533955 0.0415374 0)
(0.0641963 0.032004 0)
(0.0608533 0.0347247 0)
(0.0672279 0.0191252 0)
(0.0656774 0.0248466 0)
(0.065896 0.00430572 0)
(0.0667833 0.0126066 0)
(0.0601452 -0.0111026 0)
(0.063664 -0.000795903 0)
(0.050804 -0.02633 0)
(0.0565201 -0.0145029 0)
(0.0391481 -0.0411346 0)
(0.0464559 -0.0282532 0)
(0.0255739 -0.0588947 0)
(0.0340453 -0.0419188 0)
(0.0118608 -0.0977036 0)
(0.0200889 -0.0629767 0)
(-0.00336099 -0.191849 0)
(0.00809362 -0.11791 0)
(-0.0118019 -0.259009 0)
(0.00203731 0.0392692 0)
(-4.86145e-05 0.0318756 0)
(0.00531104 0.044861 0)
(0.00210216 0.0408217 0)
(0.0094323 0.045736 0)
(0.00614177 0.0426595 0)
(0.0143062 0.0455522 0)
(0.0110612 0.0426576 0)
(0.0199689 0.0451581 0)
(0.0167495 0.0421865 0)
(0.0264111 0.0446526 0)
(0.0231666 0.0415371 0)
(0.0335859 0.0438476 0)
(0.0302472 0.0407356 0)
(0.041335 0.0423023 0)
(0.0378531 0.0395538 0)
(0.0492655 0.0394218 0)
(0.0457169 0.0375353 0)
(0.0566318 0.0346321 0)
(0.0533213 0.0341819 0)
(0.0623344 0.0275673 0)
(0.0598722 0.0290768 0)
(0.0652327 0.0183281 0)
(0.0643502 0.0220397 0)
(0.0645513 0.00750499 0)
(0.0658432 0.0134235 0)
(0.0600389 -0.00419614 0)
(0.0637136 0.00373509 0)
(0.0521719 -0.0164261 0)
(0.0578999 -0.00662412 0)
(0.041353 -0.0290374 0)
(0.0492763 -0.017763 0)
(0.0285603 -0.0460007 0)
(0.0368768 -0.0295218 0)
(0.0163217 -0.083183 0)
(0.0265455 -0.0517456 0)
(-0.0003473 -0.18507 0)
(0.014728 -0.10221 0)
(-0.00957256 -0.263344 0)
(1.6243e-05 0.033428 0)
(-0.00199542 0.0366773 0)
(0.00293289 0.0386202 0)
(-0.000883728 0.0422639 0)
(0.00777067 0.039581 0)
(0.0038603 0.0411997 0)
(0.0135044 0.0392919 0)
(0.00950439 0.039013 0)
(0.0199472 0.0385655 0)
(0.016009 0.0371112 0)
(0.0270027 0.0376201 0)
(0.0232721 0.0354752 0)
(0.0345144 0.0364418 0)
(0.0310827 0.0340063 0)
(0.0422351 0.0347869 0)
(0.0391751 0.0324639 0)
(0.0497728 0.0322954 0)
(0.0472271 0.0305103 0)
(0.0565617 0.0286265 0)
(0.0547901 0.0278204 0)
(0.061888 0.0235492 0)
(0.0612759 0.0241411 0)
(0.0649607 0.0171351 0)
(0.0659664 0.0194084 0)
(0.0650055 0.00965358 0)
(0.0681222 0.0137699 0)
(0.0615745 0.00130711 0)
(0.0672563 0.00741356 0)
(0.0550042 -0.00796101 0)
(0.0629222 0.000424827 0)
(0.0448 -0.0182474 0)
(0.0561366 -0.00797224 0)
(0.034862 -0.0352667 0)
(0.0436517 -0.018236 0)
(0.0249517 -0.0707728 0)
(0.0415521 -0.0424404 0)
(0.0055027 -0.180484 0)
(0.0206716 -0.0853812 0)
(-0.00112574 -0.26717 0)
(-0.00289539 0.0455132 0)
(-0.00496246 0.029464 0)
(4.36824e-05 0.0448434 0)
(-0.00624701 0.028149 0)
(0.00559403 0.0406317 0)
(0.00166751 0.0271418 0)
(0.0120089 0.0368324 0)
(0.0106091 0.0268473 0)
(0.019334 0.0340209 0)
(0.020021 0.0257979 0)
(0.0273521 0.0318614 0)
(0.029848 0.0245432 0)
(0.0357434 0.0300284 0)
(0.0397252 0.0234014 0)
(0.0441672 0.0281873 0)
(0.0494359 0.0223199 0)
(0.0522445 0.0260353 0)
(0.0587698 0.0210842 0)
(0.0595043 0.0233349 0)
(0.0674461 0.0194965 0)
(0.0653543 0.0200003 0)
(0.0750757 0.0174238 0)
(0.0691279 0.0160432 0)
(0.0811734 0.014883 0)
(0.070373 0.0115299 0)
(0.0852265 0.0118882 0)
(0.068604 0.00653127 0)
(0.0871238 0.00847205 0)
(0.0640547 0.000413588 0)
(0.0860357 0.00465138 0)
(0.0549882 -0.00796081 0)
(0.0835978 -0.00086813 0)
(0.0503417 -0.0254097 0)
(0.0722098 -0.00838202 0)
(0.037272 -0.0570488 0)
(0.0791638 -0.0296328 0)
(0.0140432 -0.172067 0)
(0.0261334 -0.0591379 0)
(0.0385549 -0.24706 0)
(-0.00831408 0.0120998 0)
(0.016868 0.0539209 0)
(-0.00462318 0.0104474 0)
(0.0254416 0.0395315 0)
(0.00668259 0.0133574 0)
(0.0435762 0.0275172 0)
(0.0186211 0.0158128 0)
(0.0606866 0.0220916 0)
(0.030535 0.0163201 0)
(0.0754774 0.018844 0)
(0.0422211 0.0160832 0)
(0.0890142 0.0165783 0)
(0.0534177 0.015693 0)
(0.101757 0.0149404 0)
(0.0640385 0.0152168 0)
(0.113815 0.0137042 0)
(0.0739714 0.0145454 0)
(0.125146 0.0126566 0)
(0.0830174 0.0135853 0)
(0.135677 0.0116504 0)
(0.0908948 0.0123065 0)
(0.145254 0.010586 0)
(0.0972721 0.0107281 0)
(0.15367 0.00942845 0)
(0.101977 0.0088304 0)
(0.160643 0.00816602 0)
(0.104555 0.00659216 0)
(0.166176 0.00672872 0)
(0.105579 0.00336966 0)
(0.169298 0.00507987 0)
(0.100819 -0.00128935 0)
(0.17225 0.00242575 0)
(0.101032 -0.0126051 0)
(0.163579 -0.000925254 0)
(0.0680252 -0.031722 0)
(0.179295 -0.0121881 0)
(0.0506452 -0.13413 0)
(0.0776972 -0.019352 0)
(0.225083 -0.16216 0)
(0.0506236 0.0813525 0)
(0.0736409 0.0566012 0)
(0.0975802 0.0362514 0)
(0.117543 0.0251229 0)
(0.133957 0.0191022 0)
(0.14855 0.0154356 0)
(0.162154 0.0129517 0)
(0.174922 0.011144 0)
(0.186852 0.00976162 0)
(0.197914 0.00865106 0)
(0.20803 0.00770789 0)
(0.217041 0.00686638 0)
(0.224842 0.00606434 0)
(0.230918 0.00521643 0)
(0.235969 0.00413596 0)
(0.23501 0.00278984 0)
(0.241842 -0.00050825 0)
(0.188967 0.000181884 0)
(0.252135 -0.0473816 0)
)
;

boundaryField
{
    movingWall
    {
        type            calculated;
        value           uniform (1 0 0);
    }
    fixedWalls
    {
        type            calculated;
        value           uniform (0 0 0);
    }
    frontAndBack
    {
        type            empty;
        value           nonuniform List<vector> 0();
    }
}


// ************************************************************************* //
