/*--------------------------------*- C++ -*----------------------------------*\
| =========                 |                                                 |
| \\      /  F ield         | OpenFOAM: The Open Source CFD Toolbox           |
|  \\    /   O peration     | Version:  2312                                  |
|   \\  /    A nd           | Website:  www.openfoam.com                      |
|    \\/     M anipulation  |                                                 |
\*---------------------------------------------------------------------------*/
FoamFile
{
    version     2.0;
    format      ascii;
    arch        "LSB;label=32;scalar=64";
    class       volScalarField;
    location    "2";
    object      totalCoeffP;
}
// * * * * * * * * * * * * * * * * * * * * * * * * * * * * * * * * * * * * * //

dimensions      [0 0 0 0 0 0 0];

internalField   nonuniform List<scalar> 
400
(
1.33275e-07
6.62394e-06
4.23707e-05
0.000123113
0.000262917
0.000482716
0.000805202
0.00124342
0.00180158
0.00245928
0.00311896
0.00359257
0.00469568
0.00578429
0.00666186
0.00716339
0.00728853
0.00720834
0.00705233
0.0069255
4.94735e-05
6.41753e-05
0.000195725
0.000428357
0.000788635
0.00128026
0.00188728
0.00262043
0.00352817
0.00462704
0.00580772
0.00679422
0.00756703
0.00872312
0.00931989
0.0092176
0.00847484
0.00754912
0.00703826
0.00682823
8.32413e-05
0.000206459
0.000438653
0.000785762
0.00127584
0.00190077
0.00267718
0.00373178
0.00524767
0.00731266
0.00973652
0.0119763
0.0134047
0.0137307
0.0146141
0.0144231
0.0127092
0.00972509
0.00735629
0.00668748
0.000173353
0.000438722
0.000765525
0.00119632
0.00175753
0.00247862
0.00350809
0.00516089
0.00775882
0.0112858
0.0150209
0.017898
0.0193672
0.0198388
0.0200038
0.0192165
0.0194577
0.0161168
0.00997021
0.00647503
0.000376454
0.000763032
0.00116249
0.00164745
0.00225919
0.00309492
0.00445436
0.0068003
0.0103575
0.014369
0.0173355
0.0185428
0.0187609
0.0190537
0.0200582
0.0221165
0.023737
0.0234595
0.0172781
0.00718873
0.000657873
0.0011605
0.00160545
0.00212283
0.00278249
0.00375175
0.00545142
0.008353
0.0120833
0.01502
0.0156473
0.0142848
0.012581
0.0120238
0.0132443
0.0165838
0.02214
0.0272474
0.0264483
0.0112005
0.000986651
0.00159553
0.00206118
0.00259322
0.00329538
0.00438099
0.00631218
0.00933795
0.0123763
0.0134256
0.0115775
0.00850029
0.00653071
0.00640141
0.00774855
0.0105428
0.0159309
0.02529
0.0326463
0.0185684
0.00131515
0.00202099
0.002489
0.00301888
0.00373938
0.00487067
0.00683344
0.00963596
0.0116602
0.011027
0.00770608
0.00429902
0.00288695
0.00349319
0.005421
0.00807499
0.0120483
0.020451
0.0351057
0.0299821
0.00159339
0.00238787
0.00284734
0.00335328
0.00404991
0.0051354
0.00695004
0.00937001
0.0105674
0.00916684
0.00532053
0.00187035
0.000728477
0.00186269
0.00441145
0.00736008
0.0108214
0.0172951
0.0335743
0.0426927
0.00178136
0.00265414
0.00309612
0.00355644
0.00418721
0.00515107
0.0066995
0.00872374
0.00966154
0.00829287
0.00460408
0.00121504
4.1633e-06
0.00119891
0.00391175
0.00687392
0.010099
0.0156324
0.0313989
0.0515562
0.00185723
0.00279393
0.00321438
0.00361432
0.00414766
0.0049397
0.00617175
0.00781341
0.00879897
0.0080299
0.00530831
0.0023264
0.000954455
0.00173655
0.00389016
0.00635416
0.00911758
0.0139294
0.0290596
0.0572947
0.00181965
0.00280029
0.00319804
0.00353121
0.00395555
0.00456541
0.0054821
0.00673103
0.00772753
0.00764839
0.00619776
0.00418851
0.00290942
0.00299633
0.00408085
0.00568859
0.00780962
0.0118475
0.0263449
0.0609272
0.00169426
0.00268563
0.00305882
0.00332732
0.00364924
0.00409993
0.00474979
0.0056347
0.006508
0.00685879
0.00639794
0.005354
0.00438289
0.00395854
0.00409974
0.0048418
0.00627043
0.00953507
0.0231812
0.0634904
0.00151677
0.00247947
0.00281875
0.00302729
0.00326326
0.00359266
0.00405664
0.00467585
0.00536262
0.00587078
0.00593719
0.00551102
0.00483756
0.00421388
0.00383865
0.00394555
0.00473382
0.00720757
0.0197127
0.0653313
0.00130514
0.00219895
0.00249392
0.00264888
0.00282162
0.00307142
0.00342736
0.00389646
0.0044385
0.00494192
0.00522617
0.00514379
0.00472901
0.00411758
0.00351388
0.00320607
0.00342766
0.005144
0.0159175
0.0665329
0.00119474
0.00194594
0.00214413
0.0022274
0.00234589
0.00254856
0.00285774
0.00327232
0.00375776
0.0042425
0.00461133
0.00472418
0.00451132
0.00400367
0.00333328
0.0027714
0.00249224
0.00368356
0.0121651
0.0679207
0.000852734
0.00141917
0.0015922
0.00167626
0.001795
0.00199873
0.00231751
0.00275146
0.00326837
0.00380362
0.00426273
0.00453327
0.00451981
0.00415103
0.00348695
0.00277021
0.00204565
0.00317057
0.00930922
0.0709874
0.00196087
0.00220269
0.00184073
0.00155089
0.00147978
0.00161557
0.00194719
0.002449
0.0030783
0.00376959
0.00442813
0.0049333
0.0051512
0.0050307
0.00448736
0.00375934
0.00254046
0.00414066
0.00630444
0.071864
0.000262611
0.000188016
0.000131844
0.000392989
0.000872262
0.00159611
0.00255226
0.00370698
0.00501131
0.00640131
0.00778869
0.00906499
0.0101057
0.0108586
0.0110957
0.0112293
0.00916988
0.0133727
0.00730839
0.0865658
0.0102964
0.0110989
0.0105906
0.0126552
0.0164247
0.0203187
0.0243945
0.0286178
0.0329035
0.0371813
0.0413653
0.0453529
0.0489911
0.0522164
0.0544971
0.0569141
0.0535872
0.0704612
0.0260586
0.268809
)
;

boundaryField
{
    movingWall
    {
        type            calculated;
        value           nonuniform List<scalar> 
20
(
1
1.00255
1.00122
1
1
1
1
1
1
1
1
1
1
1
1
1
1
1.00684
1.01024
1.11587
)
;
    }
    fixedWalls
    {
        type            calculated;
        value           nonuniform List<scalar> 
60
(
2.1818e-08
4.15439e-05
2.72387e-05
0
0
0
0
0
0
0
0
0
0
0
0
0
0
0
0
0
0.00692333
0.00682606
0.0066859
0.00641421
0.00631771
0.00543955
0.00254829
0
0
0
0
0
0
0
0
0
0
0
0.030314
0.115868
2.1818e-08
0
0
0
0
0
0
0
0
0
0
0
0.00105156
0.00264756
0.00446956
0.00599841
0.0068833
0.0071522
0.00705051
0.00692333
)
;
    }
    frontAndBack
    {
        type            empty;
    }
}


// ************************************************************************* //
