/*--------------------------------*- C++ -*----------------------------------*\
| =========                 |                                                 |
| \\      /  F ield         | OpenFOAM: The Open Source CFD Toolbox           |
|  \\    /   O peration     | Version:  2312                                  |
|   \\  /    A nd           | Website:  www.openfoam.com                      |
|    \\/     M anipulation  |                                                 |
\*---------------------------------------------------------------------------*/
FoamFile
{
    version     2.0;
    format      ascii;
    arch        "LSB;label=32;scalar=64";
    class       volScalarField;
    location    "2";
    object      totalP;
}
// * * * * * * * * * * * * * * * * * * * * * * * * * * * * * * * * * * * * * //

dimensions      [1 -1 -2 0 0 0 0];

internalField   nonuniform List<scalar> 
400
(
1
1
1.00002
1.00006
1.00013
1.00024
1.0004
1.00062
1.0009
1.00123
1.00156
1.0018
1.00235
1.00289
1.00333
1.00358
1.00364
1.0036
1.00353
1.00346
1.00002
1.00003
1.0001
1.00021
1.00039
1.00064
1.00094
1.00131
1.00176
1.00231
1.0029
1.0034
1.00378
1.00436
1.00466
1.00461
1.00424
1.00377
1.00352
1.00341
1.00004
1.0001
1.00022
1.00039
1.00064
1.00095
1.00134
1.00187
1.00262
1.00366
1.00487
1.00599
1.0067
1.00687
1.00731
1.00721
1.00635
1.00486
1.00368
1.00334
1.00009
1.00022
1.00038
1.0006
1.00088
1.00124
1.00175
1.00258
1.00388
1.00564
1.00751
1.00895
1.00968
1.00992
1.01
1.00961
1.00973
1.00806
1.00499
1.00324
1.00019
1.00038
1.00058
1.00082
1.00113
1.00155
1.00223
1.0034
1.00518
1.00718
1.00867
1.00927
1.00938
1.00953
1.01003
1.01106
1.01187
1.01173
1.00864
1.00359
1.00033
1.00058
1.0008
1.00106
1.00139
1.00188
1.00273
1.00418
1.00604
1.00751
1.00782
1.00714
1.00629
1.00601
1.00662
1.00829
1.01107
1.01362
1.01322
1.0056
1.00049
1.0008
1.00103
1.0013
1.00165
1.00219
1.00316
1.00467
1.00619
1.00671
1.00579
1.00425
1.00327
1.0032
1.00387
1.00527
1.00797
1.01265
1.01632
1.00928
1.00066
1.00101
1.00124
1.00151
1.00187
1.00244
1.00342
1.00482
1.00583
1.00551
1.00385
1.00215
1.00144
1.00175
1.00271
1.00404
1.00602
1.01023
1.01755
1.01499
1.0008
1.00119
1.00142
1.00168
1.00202
1.00257
1.00348
1.00469
1.00528
1.00458
1.00266
1.00094
1.00036
1.00093
1.00221
1.00368
1.00541
1.00865
1.01679
1.02135
1.00089
1.00133
1.00155
1.00178
1.00209
1.00258
1.00335
1.00436
1.00483
1.00415
1.0023
1.00061
1
1.0006
1.00196
1.00344
1.00505
1.00782
1.0157
1.02578
1.00093
1.0014
1.00161
1.00181
1.00207
1.00247
1.00309
1.00391
1.0044
1.00401
1.00265
1.00116
1.00048
1.00087
1.00195
1.00318
1.00456
1.00696
1.01453
1.02865
1.00091
1.0014
1.0016
1.00177
1.00198
1.00228
1.00274
1.00337
1.00386
1.00382
1.0031
1.00209
1.00145
1.0015
1.00204
1.00284
1.0039
1.00592
1.01317
1.03046
1.00085
1.00134
1.00153
1.00166
1.00182
1.00205
1.00237
1.00282
1.00325
1.00343
1.0032
1.00268
1.00219
1.00198
1.00205
1.00242
1.00314
1.00477
1.01159
1.03175
1.00076
1.00124
1.00141
1.00151
1.00163
1.0018
1.00203
1.00234
1.00268
1.00294
1.00297
1.00276
1.00242
1.00211
1.00192
1.00197
1.00237
1.0036
1.00986
1.03267
1.00065
1.0011
1.00125
1.00132
1.00141
1.00154
1.00171
1.00195
1.00222
1.00247
1.00261
1.00257
1.00236
1.00206
1.00176
1.0016
1.00171
1.00257
1.00796
1.03327
1.0006
1.00097
1.00107
1.00111
1.00117
1.00127
1.00143
1.00164
1.00188
1.00212
1.00231
1.00236
1.00226
1.002
1.00167
1.00139
1.00125
1.00184
1.00608
1.03396
1.00043
1.00071
1.0008
1.00084
1.0009
1.001
1.00116
1.00138
1.00163
1.0019
1.00213
1.00227
1.00226
1.00208
1.00174
1.00139
1.00102
1.00159
1.00465
1.03549
1.00098
1.0011
1.00092
1.00078
1.00074
1.00081
1.00097
1.00122
1.00154
1.00188
1.00221
1.00247
1.00258
1.00252
1.00224
1.00188
1.00127
1.00207
1.00315
1.03593
1.00013
1.00009
1.00007
1.0002
1.00044
1.0008
1.00128
1.00185
1.00251
1.0032
1.00389
1.00453
1.00505
1.00543
1.00555
1.00561
1.00458
1.00669
1.00365
1.04328
1.00515
1.00555
1.0053
1.00633
1.00821
1.01016
1.0122
1.01431
1.01645
1.01859
1.02068
1.02268
1.0245
1.02611
1.02725
1.02846
1.02679
1.03523
1.01303
1.1344
)
;

boundaryField
{
    movingWall
    {
        type            calculated;
        value           nonuniform List<scalar> 
20
(
1.5
1.50128
1.50061
1.5
1.5
1.5
1.5
1.5
1.5
1.5
1.5
1.5
1.5
1.5
1.5
1.5
1.5
1.50342
1.50512
1.55793
)
;
    }
    fixedWalls
    {
        type            calculated;
        value           nonuniform List<scalar> 
60
(
1
1.00002
1.00001
1
1
1
1
1
1
1
1
1
1
1
1
1
1
1
1
1
1.00346
1.00341
1.00334
1.00321
1.00316
1.00272
1.00127
1
1
1
1
1
1
1
1
1
1
1
1.01516
1.05793
1
1
1
1
1
1
1
1
1
1
1
1
1.00053
1.00132
1.00223
1.003
1.00344
1.00358
1.00353
1.00346
)
;
    }
    frontAndBack
    {
        type            empty;
    }
}


// ************************************************************************* //
