/*--------------------------------*- C++ -*----------------------------------*\
| =========                 |                                                 |
| \\      /  F ield         | OpenFOAM: The Open Source CFD Toolbox           |
|  \\    /   O peration     | Version:  2312                                  |
|   \\  /    A nd           | Website:  www.openfoam.com                      |
|    \\/     M anipulation  |                                                 |
\*---------------------------------------------------------------------------*/
FoamFile
{
    version     2.0;
    format      ascii;
    arch        "LSB;label=32;scalar=64";
    class       volScalarField;
    location    "2";
    object      turbulenceProperties:nut;
}
// * * * * * * * * * * * * * * * * * * * * * * * * * * * * * * * * * * * * * //

dimensions      [0 2 -1 0 0 0 0];

internalField   nonuniform List<scalar> 
400
(
4.51479e-06
5.71558e-06
7.02529e-06
8.22239e-06
9.36862e-06
1.04923e-05
1.15579e-05
1.24943e-05
1.32477e-05
1.37953e-05
1.40763e-05
1.41673e-05
1.40183e-05
1.36277e-05
1.29398e-05
1.18158e-05
1.0118e-05
7.83374e-06
5.61553e-06
4.52034e-06
5.49441e-06
1.31767e-05
1.5788e-05
1.70756e-05
1.8268e-05
1.96662e-05
2.14382e-05
2.36682e-05
2.641e-05
2.92837e-05
3.18306e-05
3.44848e-05
3.6517e-05
3.57756e-05
3.54093e-05
3.26167e-05
2.73949e-05
1.94974e-05
1.06166e-05
5.31003e-06
6.8984e-06
2.54047e-05
3.22814e-05
3.27468e-05
3.25042e-05
3.26659e-05
3.35686e-05
3.51702e-05
3.82647e-05
4.19102e-05
4.22478e-05
3.99392e-05
3.77625e-05
3.65657e-05
3.57909e-05
3.40411e-05
3.18787e-05
2.79221e-05
1.43138e-05
6.99583e-06
8.11779e-06
3.42407e-05
4.87644e-05
5.28947e-05
5.40244e-05
5.37123e-05
5.29758e-05
5.20151e-05
4.89398e-05
4.22644e-05
3.92553e-05
3.71859e-05
3.54216e-05
3.44485e-05
3.39984e-05
3.31759e-05
3.16713e-05
3.02272e-05
2.51223e-05
1.20692e-05
9.16793e-06
4.08565e-05
6.27006e-05
6.91537e-05
6.99395e-05
6.67392e-05
6.15398e-05
5.29313e-05
4.44192e-05
4.06593e-05
3.66965e-05
3.35842e-05
3.25252e-05
3.17878e-05
3.19061e-05
3.13764e-05
3.16497e-05
3.02414e-05
2.80072e-05
1.96468e-05
1.00638e-05
4.51414e-05
7.3075e-05
8.07673e-05
7.93337e-05
7.22594e-05
6.1463e-05
4.96901e-05
4.43883e-05
3.70026e-05
3.39644e-05
3.46507e-05
3.59597e-05
4.0032e-05
3.9738e-05
3.71012e-05
3.3104e-05
3.15068e-05
2.85361e-05
2.61642e-05
1.08165e-05
4.75014e-05
7.9811e-05
8.86292e-05
8.54261e-05
7.57278e-05
6.00905e-05
5.13435e-05
4.31138e-05
3.48377e-05
3.67961e-05
4.04191e-05
4.4961e-05
5.36926e-05
5.46246e-05
5.14159e-05
4.30108e-05
3.3992e-05
2.94847e-05
2.98653e-05
1.14322e-05
4.80944e-05
8.35646e-05
9.39322e-05
9.03478e-05
7.94683e-05
6.16123e-05
5.23812e-05
4.16728e-05
3.53951e-05
3.96505e-05
4.48983e-05
4.88018e-05
5.57712e-05
6.03128e-05
6.22061e-05
5.40196e-05
3.92194e-05
3.05505e-05
3.18089e-05
1.192e-05
4.73914e-05
8.52945e-05
9.8744e-05
9.62463e-05
8.41916e-05
6.52376e-05
5.57744e-05
4.38563e-05
3.65582e-05
4.01801e-05
4.45553e-05
4.69994e-05
5.13429e-05
6.0201e-05
6.97249e-05
6.39754e-05
4.75619e-05
3.27756e-05
3.30636e-05
1.2275e-05
4.53515e-05
8.48483e-05
0.000100072
9.89652e-05
8.83438e-05
7.10907e-05
5.99934e-05
4.75759e-05
3.80539e-05
3.87779e-05
4.11564e-05
4.38592e-05
4.84642e-05
5.93851e-05
7.42478e-05
7.36441e-05
5.50748e-05
3.54671e-05
3.40042e-05
1.25111e-05
4.33628e-05
8.35302e-05
0.000101983
0.000103727
9.54168e-05
7.9929e-05
6.64947e-05
5.45318e-05
4.17942e-05
3.94656e-05
4.03325e-05
4.2626e-05
4.63218e-05
5.92408e-05
8.26685e-05
8.35926e-05
6.02403e-05
3.83689e-05
3.48961e-05
1.26245e-05
4.02198e-05
8.06017e-05
0.000102679
0.000108206
0.000102945
9.06872e-05
7.66889e-05
6.64445e-05
5.19616e-05
4.38696e-05
4.22791e-05
4.55858e-05
5.06182e-05
6.53761e-05
8.91758e-05
8.92247e-05
6.22452e-05
3.90385e-05
3.58216e-05
1.26003e-05
3.68076e-05
7.63342e-05
0.000102002
0.000112054
0.000110668
0.000102742
9.01492e-05
7.82125e-05
7.09805e-05
5.97586e-05
5.33191e-05
5.71203e-05
6.27992e-05
7.90493e-05
9.86459e-05
9.20824e-05
6.25249e-05
3.87369e-05
3.6881e-05
1.25032e-05
3.3931e-05
7.16645e-05
0.000100075
0.000115051
0.000117874
0.000113955
0.000105199
9.41196e-05
8.72268e-05
8.16312e-05
7.51858e-05
7.71082e-05
8.18559e-05
9.24267e-05
0.000102918
9.38772e-05
5.88617e-05
3.72584e-05
3.81239e-05
1.22771e-05
3.15701e-05
6.7438e-05
9.752e-05
0.000117025
0.000124158
0.000124501
0.000120286
0.000111609
0.000102839
9.80259e-05
9.42629e-05
9.39607e-05
9.54422e-05
9.93707e-05
0.000103639
8.83667e-05
5.11162e-05
3.58163e-05
3.96339e-05
1.21057e-05
3.05492e-05
6.40109e-05
9.28764e-05
0.000112347
0.000122088
0.000126465
0.000126629
0.000123225
0.000116351
0.000109587
0.000104791
0.000100341
9.86898e-05
9.65703e-05
9.09702e-05
7.13297e-05
4.08789e-05
3.45678e-05
4.14979e-05
1.17076e-05
2.9802e-05
5.66043e-05
7.7936e-05
9.17923e-05
9.95067e-05
0.000103698
0.000105268
0.000104933
0.000102246
9.71127e-05
9.27326e-05
8.72172e-05
8.10265e-05
7.60169e-05
6.80427e-05
5.26998e-05
3.16118e-05
3.27714e-05
4.38297e-05
1.22175e-05
2.37681e-05
3.32642e-05
3.88827e-05
4.31655e-05
4.66791e-05
4.97119e-05
5.19081e-05
5.32473e-05
5.346e-05
5.20025e-05
4.93631e-05
4.61258e-05
4.201e-05
3.79072e-05
3.39416e-05
2.79452e-05
2.28478e-05
3.31347e-05
4.70858e-05
1.46521e-05
1.23983e-05
1.46048e-05
1.61742e-05
1.75378e-05
1.8833e-05
2.00699e-05
2.12273e-05
2.22768e-05
2.31597e-05
2.38558e-05
2.43798e-05
2.47956e-05
2.53665e-05
2.58397e-05
2.72426e-05
2.8338e-05
3.15374e-05
3.8262e-05
5.19418e-05
3.63306e-05
4.52956e-05
5.13597e-05
5.44688e-05
5.61344e-05
5.70829e-05
5.75816e-05
5.78314e-05
5.78425e-05
5.78015e-05
5.77048e-05
5.75827e-05
5.74755e-05
5.74129e-05
5.7437e-05
5.75416e-05
5.79188e-05
5.80373e-05
5.97187e-05
5.69689e-05
)
;

boundaryField
{
    movingWall
    {
        type            nutkWallFunction;
        blending        stepwise;
        value           nonuniform List<scalar> 
20
(
0
0
6.77246e-07
1.18744e-06
1.45925e-06
1.61368e-06
1.69486e-06
1.73557e-06
1.73744e-06
1.73075e-06
1.71497e-06
1.69483e-06
1.67723e-06
1.66655e-06
1.67031e-06
1.6871e-06
1.74796e-06
1.76707e-06
2.03823e-06
1.5939e-06
)
;
    }
    fixedWalls
    {
        type            nutkWallFunction;
        blending        stepwise;
        value           nonuniform List<scalar> 
60
(
0
0
0
0
0
0
0
0
0
0
0
0
0
0
0
0
0
0
0
0
0
0
0
0
0
0
0
0
0
0
0
0
0
0
0
0
0
0
7.73149e-07
1.5939e-06
0
0
0
0
0
0
0
0
0
0
0
0
0
0
0
0
0
0
0
0
)
;
    }
    frontAndBack
    {
        type            empty;
    }
}


// ************************************************************************* //
