/*--------------------------------*- C++ -*----------------------------------*\
| =========                 |                                                 |
| \\      /  F ield         | OpenFOAM: The Open Source CFD Toolbox           |
|  \\    /   O peration     | Version:  2312                                  |
|   \\  /    A nd           | Website:  www.openfoam.com                      |
|    \\/     M anipulation  |                                                 |
\*---------------------------------------------------------------------------*/
FoamFile
{
    version     2.0;
    format      ascii;
    arch        "LSB;label=32;scalar=64";
    class       volScalarField;
    location    "2";
    object      turbulenceProperties:epsilon;
}
// * * * * * * * * * * * * * * * * * * * * * * * * * * * * * * * * * * * * * //

dimensions      [0 2 -3 0 0 0 0];

internalField   nonuniform List<scalar> 
400
(
8.45851e-05
0.000170896
0.000315206
0.000501946
0.000737938
0.00103124
0.00137321
0.0017293
0.00205307
0.00230325
0.00243611
0.00247834
0.00239007
0.00218772
0.00186688
0.00141479
0.000889763
0.000420668
0.000159997
8.44513e-05
0.000152293
0.000165396
0.000247479
0.000343572
0.00045443
0.000579424
0.000710011
0.000843256
0.000993604
0.00116474
0.00136139
0.00159564
0.00189459
0.0022629
0.00243491
0.00241963
0.00193638
0.00111181
0.000359746
0.000135839
0.000299504
0.00021028
0.000273783
0.000354131
0.000434094
0.000525122
0.000658842
0.000866802
0.00115534
0.00155546
0.00208764
0.00265067
0.00314671
0.00360978
0.00411811
0.0045453
0.00475768
0.00366161
0.00144421
0.000293146
0.000485285
0.000275908
0.000318801
0.000391236
0.00047468
0.000598027
0.000814815
0.00119806
0.00179233
0.00239595
0.00270831
0.00292334
0.0032432
0.00364032
0.00422213
0.00503233
0.00613997
0.00695491
0.00507587
0.00140525
0.000695893
0.000340437
0.000364256
0.000445659
0.000562849
0.000769386
0.00115357
0.00174284
0.00223408
0.00240487
0.00244819
0.0024177
0.00242826
0.00268801
0.00324831
0.00425518
0.00594175
0.00827544
0.0101383
0.00631871
0.000917509
0.000399256
0.000404862
0.000501625
0.000667863
0.000974444
0.00150241
0.00202918
0.00218634
0.00216598
0.00184107
0.001682
0.00163051
0.00172091
0.0021153
0.00296919
0.00470697
0.00792787
0.0130576
0.0155863
0.0011366
0.000447763
0.000437125
0.000547423
0.000755367
0.00112974
0.00169727
0.00202618
0.0020483
0.00170613
0.00134456
0.00117667
0.00110618
0.00110307
0.00135903
0.00195635
0.00333754
0.00650999
0.0138055
0.023798
0.00133993
0.000486251
0.000457812
0.000573962
0.000801557
0.00119167
0.00172201
0.00196024
0.00182567
0.00139386
0.00104134
0.000874478
0.000802772
0.000799017
0.0010046
0.00147934
0.00257558
0.00556009
0.0133422
0.0289971
0.00151728
0.000515832
0.000464823
0.000572782
0.000796406
0.00117598
0.00166919
0.00184254
0.00166274
0.00120293
0.000867974
0.000714706
0.000651491
0.000662986
0.000849731
0.00127174
0.0021711
0.00471955
0.012644
0.0326812
0.00165608
0.000537376
0.000462532
0.000561127
0.000770365
0.00111653
0.00155851
0.00175063
0.00159935
0.00118971
0.000853811
0.000680672
0.000599427
0.000628789
0.000808421
0.00121546
0.00203596
0.00435765
0.012388
0.0355925
0.00175308
0.000552695
0.000455543
0.000535594
0.000717013
0.00101153
0.00140093
0.00166035
0.00158188
0.00124857
0.000907726
0.000722903
0.00065076
0.000695604
0.000880457
0.00128321
0.00202034
0.00420544
0.012402
0.0384856
0.00180179
0.000574533
0.000446465
0.000504079
0.000652829
0.000895758
0.00122747
0.00152921
0.00156637
0.00140272
0.00107417
0.000854893
0.00079016
0.000854345
0.00107194
0.00146457
0.0021017
0.00416392
0.0129776
0.0416355
0.00179243
0.000594368
0.000439344
0.000475167
0.000590969
0.000785085
0.0010543
0.00134667
0.00151141
0.00146451
0.00131876
0.00112738
0.00104941
0.00110528
0.00127694
0.00155674
0.00212754
0.00414558
0.013738
0.0454385
0.00175352
0.000604444
0.000433538
0.000452249
0.000538821
0.000691166
0.000901217
0.00114856
0.00136252
0.00142786
0.00138738
0.00129701
0.00123432
0.00125803
0.00135635
0.00157593
0.00207229
0.00395166
0.0145795
0.0501895
0.00166419
0.000598461
0.000426064
0.000435548
0.000500046
0.000619649
0.000780948
0.000973749
0.00116096
0.00129405
0.00132553
0.00129346
0.00124835
0.00126194
0.00132816
0.00149477
0.0019113
0.00360105
0.0152425
0.0563906
0.00159894
0.000581002
0.000426617
0.000438057
0.000497959
0.000598787
0.00072587
0.000871374
0.00101565
0.00113009
0.00118818
0.00119951
0.00118827
0.00119819
0.00125887
0.00142414
0.00182999
0.00343514
0.0156937
0.0647306
0.0014537
0.000542721
0.000450782
0.00048605
0.000563517
0.000671746
0.000798445
0.000935594
0.00106918
0.00117922
0.00124649
0.00127496
0.00128544
0.00131525
0.00139477
0.00160337
0.00207447
0.00398682
0.0181404
0.0762721
0.00165502
0.000755856
0.000871178
0.00105137
0.00124905
0.00145867
0.00166879
0.00187009
0.00205319
0.00221346
0.00234539
0.0024507
0.00255428
0.00270458
0.00290963
0.00327407
0.00412286
0.00786054
0.0250569
0.094575
0.00285532
0.00480101
0.00752308
0.00945187
0.0108575
0.0119824
0.012881
0.013623
0.0142018
0.01471
0.0151848
0.0156594
0.0161651
0.01688
0.0176604
0.0190165
0.0212776
0.032108
0.0486876
0.126971
0.0434358
0.0841762
0.122742
0.146444
0.160335
0.168639
0.173128
0.175413
0.17552
0.175142
0.174255
0.173123
0.17214
0.171537
0.171743
0.172672
0.176078
0.177158
0.193002
0.167537
)
;

boundaryField
{
    movingWall
    {
        type            epsilonWallFunction;
        blending        stepwise;
        value           nonuniform List<scalar> 
20
(
0.0434358
0.0841762
0.122742
0.146444
0.160335
0.168639
0.173128
0.175413
0.17552
0.175142
0.174255
0.173123
0.17214
0.171537
0.171743
0.172672
0.176078
0.177158
0.193002
0.167537
)
;
    }
    fixedWalls
    {
        type            epsilonWallFunction;
        blending        stepwise;
        value           nonuniform List<scalar> 
60
(
8.45851e-05
0.000152293
0.000299504
0.000485285
0.000695893
0.000917509
0.0011366
0.00133993
0.00151728
0.00165608
0.00175308
0.00180179
0.00179243
0.00175352
0.00166419
0.00159894
0.0014537
0.00165502
0.00285532
0.0434358
8.44513e-05
0.000135839
0.000293146
0.00140525
0.00631871
0.0155863
0.023798
0.0289971
0.0326812
0.0355925
0.0384856
0.0416355
0.0454385
0.0501895
0.0563906
0.0647306
0.0762721
0.094575
0.126971
0.167537
8.45851e-05
0.000170896
0.000315206
0.000501946
0.000737938
0.00103124
0.00137321
0.0017293
0.00205307
0.00230325
0.00243611
0.00247834
0.00239007
0.00218772
0.00186688
0.00141479
0.000889763
0.000420668
0.000159997
8.44513e-05
)
;
    }
    frontAndBack
    {
        type            empty;
    }
}


// ************************************************************************* //
