/*--------------------------------*- C++ -*----------------------------------*\
| =========                 |                                                 |
| \\      /  F ield         | OpenFOAM: The Open Source CFD Toolbox           |
|  \\    /   O peration     | Version:  2312                                  |
|   \\  /    A nd           | Website:  www.openfoam.com                      |
|    \\/     M anipulation  |                                                 |
\*---------------------------------------------------------------------------*/
FoamFile
{
    version     2.0;
    format      ascii;
    arch        "LSB;label=32;scalar=64";
    class       volScalarField;
    location    "2";
    object      turbulenceProperties:nuEff;
}
// * * * * * * * * * * * * * * * * * * * * * * * * * * * * * * * * * * * * * //

dimensions      [0 2 -1 0 0 0 0];

internalField   nonuniform List<scalar> 
400
(
1.45148e-05
1.57156e-05
1.70253e-05
1.82224e-05
1.93686e-05
2.04923e-05
2.15579e-05
2.24943e-05
2.32477e-05
2.37953e-05
2.40763e-05
2.41673e-05
2.40183e-05
2.36277e-05
2.29398e-05
2.18158e-05
2.0118e-05
1.78337e-05
1.56155e-05
1.45203e-05
1.54944e-05
2.31767e-05
2.5788e-05
2.70756e-05
2.8268e-05
2.96662e-05
3.14382e-05
3.36682e-05
3.641e-05
3.92837e-05
4.18306e-05
4.44848e-05
4.6517e-05
4.57756e-05
4.54093e-05
4.26167e-05
3.73949e-05
2.94974e-05
2.06166e-05
1.531e-05
1.68984e-05
3.54047e-05
4.22814e-05
4.27468e-05
4.25042e-05
4.26659e-05
4.35686e-05
4.51702e-05
4.82647e-05
5.19102e-05
5.22478e-05
4.99392e-05
4.77625e-05
4.65657e-05
4.57909e-05
4.40411e-05
4.18787e-05
3.79221e-05
2.43138e-05
1.69958e-05
1.81178e-05
4.42407e-05
5.87644e-05
6.28947e-05
6.40244e-05
6.37123e-05
6.29758e-05
6.20151e-05
5.89398e-05
5.22644e-05
4.92553e-05
4.71859e-05
4.54216e-05
4.44485e-05
4.39984e-05
4.31759e-05
4.16713e-05
4.02272e-05
3.51223e-05
2.20692e-05
1.91679e-05
5.08565e-05
7.27006e-05
7.91537e-05
7.99395e-05
7.67392e-05
7.15398e-05
6.29313e-05
5.44192e-05
5.06593e-05
4.66965e-05
4.35842e-05
4.25252e-05
4.17878e-05
4.19061e-05
4.13764e-05
4.16497e-05
4.02414e-05
3.80072e-05
2.96468e-05
2.00638e-05
5.51414e-05
8.3075e-05
9.07673e-05
8.93337e-05
8.22594e-05
7.1463e-05
5.96901e-05
5.43883e-05
4.70026e-05
4.39644e-05
4.46507e-05
4.59597e-05
5.0032e-05
4.9738e-05
4.71012e-05
4.3104e-05
4.15068e-05
3.85361e-05
3.61642e-05
2.08165e-05
5.75014e-05
8.9811e-05
9.86292e-05
9.54261e-05
8.57278e-05
7.00905e-05
6.13435e-05
5.31138e-05
4.48377e-05
4.67961e-05
5.04191e-05
5.4961e-05
6.36926e-05
6.46246e-05
6.14159e-05
5.30108e-05
4.3992e-05
3.94847e-05
3.98653e-05
2.14322e-05
5.80944e-05
9.35646e-05
0.000103932
0.000100348
8.94683e-05
7.16123e-05
6.23812e-05
5.16728e-05
4.53951e-05
4.96505e-05
5.48983e-05
5.88018e-05
6.57712e-05
7.03128e-05
7.22061e-05
6.40196e-05
4.92194e-05
4.05505e-05
4.18089e-05
2.192e-05
5.73914e-05
9.52945e-05
0.000108744
0.000106246
9.41916e-05
7.52376e-05
6.57744e-05
5.38563e-05
4.65582e-05
5.01801e-05
5.45553e-05
5.69994e-05
6.13429e-05
7.0201e-05
7.97249e-05
7.39754e-05
5.75619e-05
4.27756e-05
4.30636e-05
2.2275e-05
5.53515e-05
9.48483e-05
0.000110072
0.000108965
9.83438e-05
8.10907e-05
6.99934e-05
5.75759e-05
4.80539e-05
4.87779e-05
5.11564e-05
5.38592e-05
5.84642e-05
6.93851e-05
8.42478e-05
8.36441e-05
6.50748e-05
4.54671e-05
4.40042e-05
2.25111e-05
5.33628e-05
9.35302e-05
0.000111983
0.000113727
0.000105417
8.9929e-05
7.64947e-05
6.45318e-05
5.17942e-05
4.94656e-05
5.03325e-05
5.2626e-05
5.63218e-05
6.92408e-05
9.26685e-05
9.35926e-05
7.02403e-05
4.83689e-05
4.48961e-05
2.26245e-05
5.02198e-05
9.06017e-05
0.000112679
0.000118206
0.000112945
0.000100687
8.66889e-05
7.64445e-05
6.19616e-05
5.38696e-05
5.22791e-05
5.55858e-05
6.06182e-05
7.53761e-05
9.91758e-05
9.92247e-05
7.22452e-05
4.90385e-05
4.58216e-05
2.26003e-05
4.68076e-05
8.63342e-05
0.000112002
0.000122054
0.000120668
0.000112742
0.000100149
8.82125e-05
8.09805e-05
6.97586e-05
6.33191e-05
6.71203e-05
7.27992e-05
8.90493e-05
0.000108646
0.000102082
7.25249e-05
4.87369e-05
4.6881e-05
2.25032e-05
4.3931e-05
8.16645e-05
0.000110075
0.000125051
0.000127874
0.000123955
0.000115199
0.00010412
9.72268e-05
9.16312e-05
8.51858e-05
8.71082e-05
9.18559e-05
0.000102427
0.000112918
0.000103877
6.88617e-05
4.72584e-05
4.81239e-05
2.22771e-05
4.15701e-05
7.7438e-05
0.00010752
0.000127025
0.000134158
0.000134501
0.000130286
0.000121609
0.000112839
0.000108026
0.000104263
0.000103961
0.000105442
0.000109371
0.000113639
9.83667e-05
6.11162e-05
4.58163e-05
4.96339e-05
2.21057e-05
4.05492e-05
7.40109e-05
0.000102876
0.000122347
0.000132088
0.000136465
0.000136629
0.000133225
0.000126351
0.000119587
0.000114791
0.000110341
0.00010869
0.00010657
0.00010097
8.13297e-05
5.08789e-05
4.45678e-05
5.14979e-05
2.17076e-05
3.9802e-05
6.66043e-05
8.7936e-05
0.000101792
0.000109507
0.000113698
0.000115268
0.000114933
0.000112246
0.000107113
0.000102733
9.72172e-05
9.10265e-05
8.60169e-05
7.80427e-05
6.26998e-05
4.16118e-05
4.27714e-05
5.38297e-05
2.22175e-05
3.37681e-05
4.32642e-05
4.88827e-05
5.31655e-05
5.66791e-05
5.97119e-05
6.19081e-05
6.32473e-05
6.346e-05
6.20025e-05
5.93631e-05
5.61258e-05
5.201e-05
4.79072e-05
4.39416e-05
3.79452e-05
3.28478e-05
4.31347e-05
5.70858e-05
2.46521e-05
2.23983e-05
2.46048e-05
2.61742e-05
2.75378e-05
2.8833e-05
3.00699e-05
3.12273e-05
3.22768e-05
3.31597e-05
3.38558e-05
3.43798e-05
3.47956e-05
3.53665e-05
3.58397e-05
3.72426e-05
3.8338e-05
4.15374e-05
4.8262e-05
6.19418e-05
4.63306e-05
5.52956e-05
6.13597e-05
6.44688e-05
6.61344e-05
6.70829e-05
6.75816e-05
6.78314e-05
6.78425e-05
6.78015e-05
6.77048e-05
6.75827e-05
6.74755e-05
6.74129e-05
6.7437e-05
6.75416e-05
6.79188e-05
6.80373e-05
6.97187e-05
6.69689e-05
)
;

boundaryField
{
    movingWall
    {
        type            calculated;
        value           nonuniform List<scalar> 
20
(
1e-05
1e-05
1.06772e-05
1.11874e-05
1.14592e-05
1.16137e-05
1.16949e-05
1.17356e-05
1.17374e-05
1.17307e-05
1.1715e-05
1.16948e-05
1.16772e-05
1.16666e-05
1.16703e-05
1.16871e-05
1.1748e-05
1.17671e-05
1.20382e-05
1.15939e-05
)
;
    }
    fixedWalls
    {
        type            calculated;
        value           nonuniform List<scalar> 
60
(
1e-05
1e-05
1e-05
1e-05
1e-05
1e-05
1e-05
1e-05
1e-05
1e-05
1e-05
1e-05
1e-05
1e-05
1e-05
1e-05
1e-05
1e-05
1e-05
1e-05
1e-05
1e-05
1e-05
1e-05
1e-05
1e-05
1e-05
1e-05
1e-05
1e-05
1e-05
1e-05
1e-05
1e-05
1e-05
1e-05
1e-05
1e-05
1.07731e-05
1.15939e-05
1e-05
1e-05
1e-05
1e-05
1e-05
1e-05
1e-05
1e-05
1e-05
1e-05
1e-05
1e-05
1e-05
1e-05
1e-05
1e-05
1e-05
1e-05
1e-05
1e-05
)
;
    }
    frontAndBack
    {
        type            empty;
    }
}


// ************************************************************************* //
