/*--------------------------------*- C++ -*----------------------------------*\
| =========                 |                                                 |
| \\      /  F ield         | OpenFOAM: The Open Source CFD Toolbox           |
|  \\    /   O peration     | Version:  2312                                  |
|   \\  /    A nd           | Website:  www.openfoam.com                      |
|    \\/     M anipulation  |                                                 |
\*---------------------------------------------------------------------------*/
FoamFile
{
    version     2.0;
    format      ascii;
    arch        "LSB;label=32;scalar=64";
    class       volScalarField;
    location    "2";
    object      turbulenceProperties:I;
}
// * * * * * * * * * * * * * * * * * * * * * * * * * * * * * * * * * * * * * //

dimensions      [0 0 0 0 0 0 0];

internalField   nonuniform List<scalar> 
400
(
1
1
1
1
0.838317
0.691998
0.589651
0.512544
0.451027
0.401335
0.363233
0.34045
0.334098
0.349751
0.396921
0.496618
0.721329
1
1
1
1
1
0.842435
0.63036
0.506693
0.430451
0.381144
0.346129
0.319422
0.297822
0.282226
0.27699
0.284577
0.30549
0.34544
0.413486
0.528788
0.78884
1
1
1
0.886961
0.690117
0.551863
0.454859
0.391307
0.351345
0.322448
0.298392
0.278548
0.26035
0.245709
0.239053
0.242485
0.259878
0.292514
0.357835
0.488965
0.861028
1
0.896989
0.701658
0.601616
0.516932
0.449976
0.400855
0.362779
0.327856
0.29125
0.250317
0.219632
0.202328
0.197206
0.199165
0.205156
0.217373
0.24501
0.312851
0.49432
1
0.68666
0.586066
0.537489
0.486622
0.44177
0.403367
0.364587
0.315045
0.259976
0.219909
0.196016
0.184795
0.182451
0.184641
0.188856
0.191609
0.201489
0.228893
0.322296
0.948113
0.569725
0.507023
0.487937
0.459028
0.428759
0.396451
0.351957
0.29065
0.239358
0.204659
0.188451
0.193794
0.20681
0.220249
0.220559
0.210891
0.199049
0.201893
0.241086
0.496318
0.499731
0.450691
0.448748
0.434459
0.413883
0.385182
0.335308
0.277051
0.230994
0.200883
0.206625
0.238774
0.275473
0.29066
0.279536
0.258554
0.229893
0.20331
0.208396
0.34197
0.457309
0.410062
0.417887
0.413424
0.399905
0.374703
0.325462
0.271842
0.229277
0.211571
0.242068
0.32004
0.390329
0.366458
0.317654
0.288933
0.262293
0.225259
0.201033
0.266802
0.433081
0.381452
0.394209
0.396994
0.389763
0.368998
0.324826
0.275732
0.2383
0.225471
0.279284
0.460457
0.73061
0.469158
0.337539
0.299847
0.276647
0.24673
0.206419
0.23261
0.421738
0.361534
0.377078
0.384795
0.382804
0.368092
0.332279
0.287321
0.251885
0.238782
0.296353
0.553276
1
0.568829
0.352807
0.311636
0.291899
0.263896
0.216592
0.217759
0.420955
0.350903
0.36723
0.379071
0.382249
0.373847
0.347112
0.307412
0.272354
0.251432
0.281488
0.403864
0.622716
0.479278
0.361195
0.3375
0.316484
0.283369
0.229677
0.212009
0.429169
0.347321
0.363065
0.378379
0.386414
0.384461
0.367756
0.336243
0.304587
0.280074
0.278988
0.317595
0.380739
0.392721
0.379679
0.375734
0.351029
0.309016
0.245029
0.211052
0.443975
0.34984
0.364752
0.383452
0.395859
0.399706
0.392405
0.370693
0.342637
0.323205
0.312259
0.319002
0.352328
0.384577
0.414985
0.424096
0.396058
0.344462
0.264447
0.212861
0.465765
0.358263
0.372776
0.395178
0.411767
0.42018
0.418988
0.406448
0.385222
0.365494
0.354908
0.354852
0.376455
0.411375
0.452738
0.476263
0.45503
0.385614
0.288246
0.216913
0.493333
0.372704
0.38864
0.41581
0.436483
0.447976
0.449638
0.441799
0.424526
0.405017
0.391503
0.388397
0.401171
0.43278
0.479323
0.522314
0.516178
0.430517
0.321174
0.223457
0.5087
0.390053
0.413849
0.448595
0.473346
0.485549
0.485389
0.474953
0.457393
0.435817
0.417005
0.408378
0.412421
0.436882
0.482129
0.537226
0.567582
0.475468
0.366804
0.231567
0.583073
0.446253
0.47217
0.507959
0.530627
0.536144
0.525275
0.503451
0.477221
0.450408
0.425884
0.410554
0.405739
0.418047
0.455538
0.514743
0.599317
0.49882
0.429015
0.239242
0.401436
0.367727
0.453336
0.538246
0.590505
0.599103
0.57333
0.531709
0.488562
0.45032
0.418643
0.39582
0.384807
0.385872
0.405544
0.443909
0.544896
0.476907
0.566726
0.255449
1
1
1
1
1
0.813259
0.665358
0.567774
0.499422
0.450138
0.414393
0.38919
0.37312
0.365944
0.367823
0.377409
0.433795
0.435865
1
0.318516
0.520691
0.712443
0.771583
0.704229
0.637103
0.582522
0.536304
0.497315
0.463891
0.436078
0.412739
0.393326
0.377725
0.365454
0.357869
0.35082
0.36391
0.334675
0.690578
0.21187
)
;

boundaryField
{
    movingWall
    {
        type            calculated;
        value           nonuniform List<scalar> 
20
(
0.0528353
0.0658726
0.0746961
0.0792226
0.0816504
0.0830348
0.0837639
0.0841298
0.0841467
0.0840865
0.0839447
0.0837636
0.0836055
0.0835095
0.0835433
0.0836941
0.0842412
0.0844132
0.0868584
0.0828573
)
;
    }
    fixedWalls
    {
        type            calculated;
        value           uniform 1;
    }
    frontAndBack
    {
        type            empty;
    }
}


// ************************************************************************* //
