/*--------------------------------*- C++ -*----------------------------------*\
| =========                 |                                                 |
| \\      /  F ield         | OpenFOAM: The Open Source CFD Toolbox           |
|  \\    /   O peration     | Version:  2312                                  |
|   \\  /    A nd           | Website:  www.openfoam.com                      |
|    \\/     M anipulation  |                                                 |
\*---------------------------------------------------------------------------*/
FoamFile
{
    version     2.0;
    format      ascii;
    arch        "LSB;label=32;scalar=64";
    class       volScalarField;
    location    "2";
    object      turbulenceProperties:omega;
}
// * * * * * * * * * * * * * * * * * * * * * * * * * * * * * * * * * * * * * //

dimensions      [0 0 -1 0 0 0 0];

internalField   nonuniform List<scalar> 
400
(
14.428
18.227
22.3277
26.044
29.5836
33.0464
36.3335
39.2155
41.4964
43.0708
43.8513
44.0875
43.5248
42.2342
40.0381
36.4747
31.2585
24.4266
17.7926
14.4078
17.5493
11.8097
13.1973
14.952
16.6252
18.0932
19.183
19.8965
20.4457
21.0223
21.7995
22.6742
24.0098
26.5105
27.6415
28.71
28.0246
25.1714
19.4037
16.8594
21.9637
9.59004
9.70747
10.9617
12.1815
13.3648
14.7673
16.5482
18.3162
20.3071
23.4318
27.1555
30.4282
33.1194
35.7554
38.5175
40.7217
38.1717
33.4824
21.5775
25.7726
9.46214
8.52289
9.06551
9.88061
11.1225
13.0728
15.9975
20.1724
25.0975
27.6872
29.5549
31.8956
34.266
37.1463
41.0537
46.4118
50.5622
47.381
35.968
29.0412
9.62202
8.03426
8.46199
9.45612
11.3178
14.4319
19.1272
23.6397
25.6357
27.2263
28.2821
28.8015
30.6524
33.6334
38.8183
45.6721
55.1409
63.42
59.7788
31.8276
9.91326
7.846
8.30712
9.67149
12.2408
16.4803
21.3012
23.3939
25.5029
24.5416
23.2239
22.4457
21.8552
24.3199
29.8197
39.7475
52.8755
71.3039
81.3573
34.1695
10.2341
7.801
8.28423
9.91202
12.8748
17.7154
20.9399
22.9756
23.3271
20.1497
17.9851
16.5338
15.1085
16.6265
20.5614
29.3632
46.1297
72.1285
94.0949
36.0874
10.5989
7.80209
8.23974
9.92858
12.908
17.6223
20.3913
22.0629
20.9178
17.0825
14.7109
13.5194
12.6169
13.6041
16.2553
23.0165
39.6889
69.6599
100.643
37.6075
10.9972
7.78148
8.0282
9.58857
12.4579
16.861
19.1589
20.5246
19.1208
15.4927
13.3504
12.4104
11.9782
12.5233
14.2359
19.4184
33.2047
65.4704
104.798
38.7176
11.4742
7.78266
7.89319
9.30006
11.8502
15.6073
18.0063
19.3267
18.6381
15.6411
13.5559
12.323
12.0066
12.2987
13.4867
17.5265
29.6503
62.2969
107.843
39.4576
11.9004
7.78434
7.63895
8.76388
10.8531
13.9552
16.6566
17.9532
18.2191
15.9863
14.1121
13.0242
12.9172
12.8506
13.1328
16.3873
27.851
59.9288
110.698
39.8222
12.5984
7.84513
7.38562
8.18753
9.83267
12.2634
14.8849
16.1844
17.319
16.4943
14.989
13.8778
13.6944
13.4976
13.5086
16.1779
27.2632
60.7756
113.642
39.7566
13.3948
7.99689
7.19444
7.65505
8.87822
10.6779
12.8833
14.6532
15.141
15.6589
15.3275
14.2875
13.9842
13.3972
13.2418
16.0225
27.1422
62.7738
117.001
39.4751
14.0688
8.19861
7.08606
7.21367
8.07162
9.37403
11.0141
12.6827
13.4864
13.7419
13.8447
13.3365
13.0677
12.7692
13.0437
15.6612
27.3119
65.9384
120.945
38.809
14.5131
8.37845
7.04449
6.89038
7.44671
8.3484
9.48406
10.7507
11.8243
12.2575
12.3477
12.1499
12.1207
12.1864
12.6592
15.5024
27.9778
68.7648
125.733
38.3089
14.5368
8.60539
7.23922
7.01769
7.38208
7.98588
8.74409
9.56976
10.3884
10.9759
11.2776
11.4709
11.6146
12.035
13.1888
16.8837
30.5564
71.024
131.65
37.1434
14.2247
9.40671
8.32435
8.25903
8.66074
9.24945
9.93745
10.6401
11.3202
11.9422
12.3598
12.7969
13.4298
14.2783
16.181
20.9135
37.4341
78.4249
139.052
38.7962
18.7975
17.0586
17.3332
17.9308
18.6336
19.313
20.0075
20.6987
21.4487
22.3859
23.4867
24.8051
26.7456
29.2036
32.7383
40.4879
61.8276
91.6645
149.39
46.5324
65.594
75.6535
80.5799
82.9384
84.0797
84.4465
84.4437
84.1636
84.0078
84.0982
84.4795
85.11
85.9874
87.1436
88.0682
91.3388
106.359
118.906
164.806
115.257
143.696
162.954
172.839
178.147
181.178
182.777
183.581
183.619
183.487
183.175
182.772
182.422
182.202
182.273
182.599
183.79
184.164
189.498
180.765
)
;

boundaryField
{
    movingWall
    {
        type            calculated;
        value           nonuniform List<scalar> 
20
(
115.257
143.696
162.954
172.839
178.147
181.178
182.777
183.581
183.619
183.487
183.175
182.772
182.422
182.202
182.273
182.599
183.79
184.164
189.498
180.765
)
;
    }
    fixedWalls
    {
        type            calculated;
        value           nonuniform List<scalar> 
60
(
14.428
17.5493
21.9637
25.7726
29.0412
31.8276
34.1695
36.0874
37.6075
38.7176
39.4576
39.8222
39.7566
39.4751
38.809
38.3089
37.1434
38.7962
46.5324
115.257
14.4078
16.8594
21.5775
35.968
59.7788
81.3573
94.0949
100.643
104.798
107.843
110.698
113.642
117.001
120.945
125.733
131.65
139.052
149.39
164.806
180.765
14.428
18.227
22.3277
26.044
29.5836
33.0464
36.3335
39.2155
41.4964
43.0708
43.8513
44.0875
43.5248
42.2342
40.0381
36.4747
31.2585
24.4266
17.7926
14.4078
)
;
    }
    frontAndBack
    {
        type            empty;
    }
}


// ************************************************************************* //
