/*--------------------------------*- C++ -*----------------------------------*\
| =========                 |                                                 |
| \\      /  F ield         | OpenFOAM: The Open Source CFD Toolbox           |
|  \\    /   O peration     | Version:  2312                                  |
|   \\  /    A nd           | Website:  www.openfoam.com                      |
|    \\/     M anipulation  |                                                 |
\*---------------------------------------------------------------------------*/
FoamFile
{
    version     2.0;
    format      ascii;
    arch        "LSB;label=32;scalar=64";
    class       volSymmTensorField;
    location    "2";
    object      turbulenceProperties:devReff;
}
// * * * * * * * * * * * * * * * * * * * * * * * * * * * * * * * * * * * * * //

dimensions      [0 2 -2 0 0 0 0];

internalField   nonuniform List<symmTensor> 
400
(
(7.63743e-06 4.87122e-07 -0 -7.71367e-06 -0 7.62424e-08)
(1.96734e-05 1.04599e-05 -0 -2.03363e-05 -0 6.62896e-07)
(2.97111e-05 2.9556e-05 -0 -3.01765e-05 -0 4.65394e-07)
(3.6058e-05 5.33817e-05 -0 -3.65631e-05 -0 5.0506e-07)
(4.26296e-05 8.10167e-05 -0 -4.31519e-05 -0 5.22287e-07)
(5.02028e-05 0.000113111 -0 -5.06994e-05 -0 4.96578e-07)
(5.76163e-05 0.000149726 -0 -5.80193e-05 -0 4.03037e-07)
(6.37082e-05 0.00019019 -0 -6.40653e-05 -0 3.57138e-07)
(6.72917e-05 0.000233911 -0 -6.7726e-05 -0 4.34325e-07)
(6.49093e-05 0.000279565 -0 -6.5607e-05 -0 6.97691e-07)
(5.13739e-05 0.000321756 -0 -5.23642e-05 -0 9.90287e-07)
(2.35408e-05 0.00035268 -0 -2.48569e-05 -0 1.31609e-06)
(-1.74431e-05 0.000360813 -0 1.56275e-05 -0 1.8156e-06)
(-6.36465e-05 0.000337296 -0 6.16571e-05 -0 1.98946e-06)
(-0.000102368 0.000280652 -0 0.000101453 -0 9.14948e-07)
(-0.000120485 0.000198473 -0 0.000121201 -0 -7.16319e-07)
(-0.000109765 0.000107248 -0 0.000110442 -0 -6.77394e-07)
(-6.95702e-05 3.20751e-05 -0 6.94201e-05 -0 1.50092e-07)
(-2.32393e-05 -4.73525e-06 -0 2.30978e-05 -0 1.4147e-07)
(5.10375e-06 -3.92468e-06 -0 -5.19387e-06 -0 9.0119e-08)
(2.16437e-05 -9.07599e-06 -0 -2.14274e-05 -0 -2.1639e-07)
(4.91795e-05 2.08294e-06 -0 -4.95404e-05 -0 3.60862e-07)
(6.7923e-05 1.55892e-05 -0 -6.7465e-05 -0 -4.58006e-07)
(7.89788e-05 2.7744e-05 -0 -7.83425e-05 -0 -6.36216e-07)
(8.67178e-05 3.86254e-05 -0 -8.60931e-05 -0 -6.24737e-07)
(9.20726e-05 4.9378e-05 -0 -9.14679e-05 -0 -6.0469e-07)
(9.77756e-05 6.03797e-05 -0 -9.71596e-05 -0 -6.16053e-07)
(0.000108415 7.50239e-05 -0 -0.000107739 -0 -6.76063e-07)
(0.000124425 0.000100449 -0 -0.000123715 -0 -7.10291e-07)
(0.000136394 0.000142331 -0 -0.000136229 -0 -1.65307e-07)
(0.000127732 0.00019892 -0 -0.00012921 -0 1.47785e-06)
(8.46185e-05 0.000263149 -0 -8.7881e-05 -0 3.26251e-06)
(-5.3846e-07 0.000318746 -0 -4.07889e-06 -0 4.61735e-06)
(-0.000111647 0.000340403 -0 0.000106305 -0 5.34199e-06)
(-0.000223287 0.000334353 -0 0.000218764 -0 4.52314e-06)
(-0.000294001 0.000272423 -0 0.000290603 -0 3.3984e-06)
(-0.000293128 0.000165757 -0 0.00028966 -0 3.46762e-06)
(-0.000202101 5.50351e-05 -0 0.000198694 -0 3.40663e-06)
(-7.30945e-05 -1.16671e-05 -0 7.1348e-05 -0 1.74647e-06)
(-3.43794e-06 -7.93788e-06 -0 2.85249e-06 -0 5.85451e-07)
(3.56243e-05 -2.88222e-05 -0 -3.52272e-05 -0 -3.97131e-07)
(8.97624e-05 -1.28823e-05 -0 -9.08649e-05 -0 1.10256e-06)
(0.000124119 1.80904e-06 -0 -0.000124027 -0 -9.23706e-08)
(0.000138083 1.24345e-05 -0 -0.000137531 -0 -5.5201e-07)
(0.000142944 1.98928e-05 -0 -0.000142641 -0 -3.03488e-07)
(0.000145714 2.64987e-05 -0 -0.000145905 -0 1.90769e-07)
(0.000158952 3.52703e-05 -0 -0.000159512 -0 5.59244e-07)
(0.000191484 5.47734e-05 -0 -0.000192083 -0 5.99789e-07)
(0.000241997 9.89666e-05 -0 -0.00024255 -0 5.52991e-07)
(0.000285588 0.000176961 -0 -0.0002859 -0 3.12217e-07)
(0.000269856 0.000267585 -0 -0.000269058 -0 -7.98721e-07)
(0.000186562 0.000339454 -0 -0.000184507 -0 -2.05458e-06)
(6.71756e-05 0.000383974 -0 -6.26867e-05 -0 -4.48885e-06)
(-7.37037e-05 0.000407135 -0 7.97107e-05 -0 -6.00699e-06)
(-0.000223892 0.000408956 -0 0.000229831 -0 -5.93919e-06)
(-0.000356318 0.000362546 -0 0.000363755 -0 -7.43703e-06)
(-0.000447433 0.000259062 -0 0.00045405 -0 -6.61691e-06)
(-0.00044298 0.000104272 -0 0.000440203 -0 2.7777e-06)
(-0.000199342 -1.77016e-05 -0 0.000198747 -0 5.94321e-07)
(-3.00353e-05 -2.78273e-05 -0 2.98912e-05 -0 1.44065e-07)
(4.54378e-05 -5.52614e-05 -0 -4.45513e-05 -0 -8.86477e-07)
(0.000120888 -3.25486e-05 -0 -0.000121918 -0 1.03069e-06)
(0.00017596 -2.15713e-05 -0 -0.000175714 -0 -2.46153e-07)
(0.000204125 -1.25264e-05 -0 -0.00020292 -0 -1.20547e-06)
(0.000220333 -6.6006e-06 -0 -0.000219412 -0 -9.21948e-07)
(0.000238841 -4.83698e-06 -0 -0.000238378 -0 -4.63178e-07)
(0.000281833 -3.86505e-06 -0 -0.000281172 -0 -6.60773e-07)
(0.00035248 1.28575e-05 -0 -0.0003507 -0 -1.78021e-06)
(0.000408528 6.23551e-05 -0 -0.00040487 -0 -3.65808e-06)
(0.000385583 0.000130577 -0 -0.000379717 -0 -5.86556e-06)
(0.000315173 0.000201537 -0 -0.000308528 -0 -6.64416e-06)
(0.000196683 0.0002523 -0 -0.00019253 -0 -4.15336e-06)
(6.70626e-05 0.000279741 -0 -6.43479e-05 -0 -2.71472e-06)
(-4.24723e-05 0.000293386 -0 4.89977e-05 -0 -6.52539e-06)
(-0.000152295 0.000303358 -0 0.000162332 -0 -1.00377e-05)
(-0.000289807 0.000298008 -0 0.00029993 -0 -1.01231e-05)
(-0.000444759 0.000240911 -0 0.000454499 -0 -9.7406e-06)
(-0.000574704 0.000101782 -0 0.000584239 -0 -9.53482e-06)
(-0.000500581 -6.53752e-05 -0 0.00050429 -0 -3.70894e-06)
(-0.000137567 -9.39642e-05 -0 0.000129627 -0 7.93945e-06)
(5.05793e-05 -8.58487e-05 -0 -4.95727e-05 -0 -1.00654e-06)
(0.000140324 -5.28909e-05 -0 -0.000141693 -0 1.36899e-06)
(0.0002119 -5.19303e-05 -0 -0.000212335 -0 4.34354e-07)
(0.000248577 -5.07685e-05 -0 -0.000247631 -0 -9.46304e-07)
(0.000274535 -5.41508e-05 -0 -0.000274 -0 -5.35507e-07)
(0.000306664 -6.89731e-05 -0 -0.000306926 -0 2.61821e-07)
(0.00036378 -8.92709e-05 -0 -0.000363176 -0 -6.03621e-07)
(0.000412732 -8.36921e-05 -0 -0.000409869 -0 -2.86364e-06)
(0.000411968 -3.98267e-05 -0 -0.00040729 -0 -4.67796e-06)
(0.00036352 2.39154e-05 -0 -0.000359302 -0 -4.21784e-06)
(0.000248995 7.88378e-05 -0 -0.000247377 -0 -1.61757e-06)
(0.000127052 0.000105107 -0 -0.000125947 -0 -1.10529e-06)
(3.44406e-05 0.00010713 -0 -3.41455e-05 -0 -2.95122e-07)
(-2.9461e-05 9.98078e-05 -0 2.66367e-05 -0 2.82432e-06)
(-7.17583e-05 0.000104157 -0 6.76711e-05 -0 4.08718e-06)
(-0.000130887 0.000126618 -0 0.000127774 -0 3.11328e-06)
(-0.000274124 0.000139118 -0 0.000272568 -0 1.55586e-06)
(-0.000489694 5.14138e-05 -0 0.000496623 -0 -6.92939e-06)
(-0.000649928 -0.000178447 -0 0.000664891 -0 -1.49631e-05)
(-0.000392288 -0.000272691 -0 0.000383988 -0 8.29926e-06)
(5.0665e-05 -0.000117882 -0 -4.97803e-05 -0 -8.84734e-07)
(0.000143895 -7.07178e-05 -0 -0.000145354 -0 1.45972e-06)
(0.000223991 -8.38779e-05 -0 -0.000225021 -0 1.03009e-06)
(0.000263894 -9.71463e-05 -0 -0.000263549 -0 -3.4501e-07)
(0.000291834 -0.000116752 -0 -0.000292294 -0 4.60204e-07)
(0.000324551 -0.000152865 -0 -0.000325887 -0 1.33587e-06)
(0.000364449 -0.000188546 -0 -0.000363881 -0 -5.68248e-07)
(0.000377579 -0.000181639 -0 -0.000374968 -0 -2.61085e-06)
(0.000361712 -0.000137178 -0 -0.000357393 -0 -4.31963e-06)
(0.000257105 -5.85285e-05 -0 -0.000255033 -0 -2.07153e-06)
(0.000136152 -1.1697e-07 -0 -0.000137886 -0 1.73332e-06)
(2.54305e-05 2.07251e-05 -0 -3.16842e-05 -0 6.25375e-06)
(-4.73114e-05 7.65351e-06 -0 3.68372e-05 -0 1.04742e-05)
(-6.93105e-05 -1.61275e-05 -0 5.84051e-05 -0 1.09053e-05)
(-4.40056e-05 -2.50152e-05 -0 3.66822e-05 -0 7.32341e-06)
(-1.31e-05 -3.40865e-08 -0 6.17655e-06 -0 6.92349e-06)
(-5.98401e-05 4.71822e-05 -0 4.86552e-05 -0 1.11849e-05)
(-0.000264551 2.79032e-05 -0 0.000257298 -0 7.2528e-06)
(-0.000549799 -0.000221153 -0 0.00057781 -0 -2.8011e-05)
(-0.000689558 -0.000674811 -0 0.000688656 -0 9.01481e-07)
(4.61051e-05 -0.000148701 -0 -4.54443e-05 -0 -6.60786e-07)
(0.000132591 -8.44301e-05 -0 -0.00013394 -0 1.34914e-06)
(0.00021082 -0.000111842 -0 -0.000212173 -0 1.35245e-06)
(0.000248871 -0.000143542 -0 -0.000248983 -0 1.12225e-07)
(0.000272454 -0.000182912 -0 -0.000273688 -0 1.23471e-06)
(0.000294295 -0.000238908 -0 -0.000296566 -0 2.27082e-06)
(0.000301371 -0.000273571 -0 -0.000301461 -0 8.97071e-08)
(0.000307523 -0.000272649 -0 -0.000305071 -0 -2.45283e-06)
(0.000253973 -0.000201162 -0 -0.000249929 -0 -4.04335e-06)
(0.000148251 -9.59248e-05 -0 -0.000148207 -0 -4.41785e-08)
(4.96213e-05 -2.24915e-05 -0 -5.5084e-05 -0 5.4627e-06)
(-4.17797e-05 1.67574e-05 -0 3.40911e-05 -0 7.68858e-06)
(-9.50332e-05 1.78514e-05 -0 9.14946e-05 -0 3.53861e-06)
(-0.000122622 -8.03943e-06 -0 0.00012352 -0 -8.97743e-07)
(-9.94622e-05 -4.44074e-05 -0 0.000102225 -0 -2.76317e-06)
(-1.36901e-05 -4.60758e-05 -0 1.56676e-05 -0 -1.97754e-06)
(5.89036e-05 2.06962e-05 -0 -6.54833e-05 -0 6.57965e-06)
(-3.67015e-05 7.16657e-05 -0 1.71349e-05 -0 1.95666e-05)
(-0.000337857 -0.000158599 -0 0.000346512 -0 -8.65532e-06)
(-0.000772261 -0.00115486 -0 0.000783485 -0 -1.12235e-05)
(3.77182e-05 -0.000175861 -0 -3.73004e-05 -0 -4.17813e-07)
(0.000109283 -9.32321e-05 -0 -0.000110392 -0 1.10913e-06)
(0.000176514 -0.000131856 -0 -0.000178078 -0 1.56364e-06)
(0.000206575 -0.000181379 -0 -0.000207181 -0 6.05527e-07)
(0.000219539 -0.000238958 -0 -0.000221306 -0 1.7663e-06)
(0.000222411 -0.000308394 -0 -0.000225377 -0 2.96643e-06)
(0.000205929 -0.000338888 -0 -0.000205806 -0 -1.22473e-07)
(0.00019133 -0.000327289 -0 -0.000188701 -0 -2.62927e-06)
(0.000137016 -0.000225094 -0 -0.000131963 -0 -5.05273e-06)
(7.38802e-05 -0.000104832 -0 -7.35079e-05 -0 -3.72388e-07)
(1.47158e-05 -1.18233e-05 -0 -1.88873e-05 -0 4.17145e-06)
(-3.53915e-05 5.00306e-05 -0 3.15234e-05 -0 3.86808e-06)
(-6.98169e-05 6.54553e-05 -0 6.97162e-05 -0 1.0072e-07)
(-0.000110743 4.77942e-05 -0 0.00011691 -0 -6.16723e-06)
(-0.000127883 2.67314e-06 -0 0.00013732 -0 -9.43698e-06)
(-7.64435e-05 -2.24692e-05 -0 8.55878e-05 -0 -9.14426e-06)
(5.06441e-05 3.90631e-05 -0 -4.39998e-05 -0 -6.6443e-06)
(8.02869e-05 0.000151238 -0 -9.8772e-05 -0 1.84851e-05)
(-0.000128871 5.25324e-06 -0 0.000112223 -0 1.66476e-05)
(-0.000653616 -0.00151603 -0 0.00067378 -0 -2.01636e-05)
(2.66993e-05 -0.000197432 -0 -2.6498e-05 -0 -2.01388e-07)
(7.8946e-05 -9.74581e-05 -0 -7.97124e-05 -0 7.66411e-07)
(0.000128088 -0.000141901 -0 -0.000129604 -0 1.51603e-06)
(0.000145509 -0.000205505 -0 -0.000146403 -0 8.93789e-07)
(0.00014344 -0.000276484 -0 -0.000145183 -0 1.74316e-06)
(0.000122832 -0.000348602 -0 -0.000126228 -0 3.3959e-06)
(8.86991e-05 -0.000373862 -0 -8.8658e-05 -0 -4.10538e-08)
(5.97552e-05 -0.00035377 -0 -5.72778e-05 -0 -2.47741e-06)
(3.17415e-05 -0.000236934 -0 -2.70973e-05 -0 -4.6442e-06)
(1.62204e-05 -0.000109079 -0 -1.59895e-05 -0 -2.30857e-07)
(3.85893e-06 -7.8176e-06 -0 -8.5017e-06 -0 4.64277e-06)
(-1.63733e-06 5.50171e-05 -0 -4.37343e-06 -0 6.01076e-06)
(-1.48538e-05 7.19758e-05 -0 1.08871e-05 -0 3.96668e-06)
(-4.55987e-05 5.81033e-05 -0 4.42623e-05 -0 1.33638e-06)
(-6.46513e-05 1.84827e-05 -0 6.65814e-05 -0 -1.93009e-06)
(-4.5287e-05 -4.6581e-08 -0 4.93431e-05 -0 -4.05609e-06)
(4.0191e-05 7.07156e-05 -0 -3.03356e-05 -0 -9.85536e-06)
(0.00011043 0.000243882 -0 -0.000116581 -0 6.15105e-06)
(-5.90626e-06 0.000192584 -0 -1.7597e-05 -0 2.35032e-05)
(-0.000451264 -0.00172206 -0 0.00046575 -0 -1.44861e-05)
(1.42877e-05 -0.000212037 -0 -1.42726e-05 -0 -1.51467e-08)
(4.58551e-05 -9.67168e-05 -0 -4.63121e-05 -0 4.56964e-07)
(7.24226e-05 -0.000140153 -0 -7.36591e-05 -0 1.23649e-06)
(7.15749e-05 -0.000206179 -0 -7.24875e-05 -0 9.1258e-07)
(5.19562e-05 -0.000278816 -0 -5.31949e-05 -0 1.23869e-06)
(1.22993e-05 -0.000348383 -0 -1.54559e-05 -0 3.15655e-06)
(-3.63738e-05 -0.000375674 -0 3.56112e-05 -0 7.62619e-07)
(-7.59514e-05 -0.000347541 -0 7.87412e-05 -0 -2.78984e-06)
(-7.90324e-05 -0.00023123 -0 8.05785e-05 -0 -1.54618e-06)
(-5.31236e-05 -0.000101561 -0 5.28052e-05 -0 3.18446e-07)
(-2.02767e-05 -4.46223e-06 -0 1.4689e-05 -0 5.58768e-06)
(1.34079e-05 4.88724e-05 -0 -2.09958e-05 -0 7.58785e-06)
(2.83889e-05 6.23898e-05 -0 -3.42177e-05 -0 5.82877e-06)
(2.87134e-05 4.89624e-05 -0 -3.54929e-05 -0 6.77947e-06)
(4.55612e-05 2.09807e-05 -0 -5.02314e-05 -0 4.67016e-06)
(7.94103e-05 1.25627e-05 -0 -8.07941e-05 -0 1.38379e-06)
(0.000124455 0.000104836 -0 -0.000119878 -0 -4.57707e-06)
(0.000147907 0.000330814 -0 -0.000146674 -0 -1.23371e-06)
(6.22592e-05 0.000360963 -0 -7.88969e-05 -0 1.66377e-05)
(-0.000279791 -0.00181565 -0 0.000287506 -0 -7.71527e-06)
(1.78205e-06 -0.000219042 -0 -1.89804e-06 -0 1.15988e-07)
(1.52224e-05 -9.3513e-05 -0 -1.53621e-05 -0 1.3978e-07)
(1.81464e-05 -0.000128931 -0 -1.91001e-05 -0 9.53699e-07)
(-3.71683e-07 -0.000190891 -0 -5.01562e-07 -0 8.73245e-07)
(-3.59061e-05 -0.000259306 -0 3.51912e-05 -0 7.14921e-07)
(-9.08315e-05 -0.000322258 -0 8.87756e-05 -0 2.0559e-06)
(-0.000155201 -0.000347335 -0 0.00015376 -0 1.44082e-06)
(-0.000204027 -0.000310886 -0 0.000206767 -0 -2.74016e-06)
(-0.000199801 -0.000204848 -0 0.000201397 -0 -1.5955e-06)
(-0.000138924 -7.74148e-05 -0 0.000141063 -0 -2.13847e-06)
(-7.12887e-05 1.46531e-05 -0 6.80376e-05 -0 3.25114e-06)
(-4.29458e-06 6.86637e-05 -0 -3.69433e-06 -0 7.98892e-06)
(5.07389e-05 8.2523e-05 -0 -5.96131e-05 -0 8.8742e-06)
(0.000103808 6.83779e-05 -0 -0.000109661 -0 5.85282e-06)
(0.000174131 5.11706e-05 -0 -0.000174072 -0 -5.88533e-08)
(0.000247856 5.24857e-05 -0 -0.000246803 -0 -1.0529e-06)
(0.000268765 0.000150715 -0 -0.000266269 -0 -2.49604e-06)
(0.000222861 0.000402037 -0 -0.000224548 -0 1.68739e-06)
(0.000124599 0.00051484 -0 -0.0001308 -0 6.20015e-06)
(-0.000171348 -0.00185768 -0 0.000175635 -0 -4.2868e-06)
(-9.21954e-06 -0.000218505 -0 9.02583e-06 -0 1.93713e-07)
(-1.0951e-05 -8.62556e-05 -0 1.10191e-05 -0 -6.81072e-08)
(-2.92903e-05 -0.000109566 -0 2.87206e-05 -0 5.6968e-07)
(-6.41182e-05 -0.00016077 -0 6.35549e-05 -0 5.63259e-07)
(-0.000113135 -0.000218866 -0 0.000112694 -0 4.40482e-07)
(-0.000176869 -0.000269667 -0 0.000175932 -0 9.37052e-07)
(-0.000252537 -0.000289233 -0 0.000251365 -0 1.17196e-06)
(-0.000310013 -0.000248436 -0 0.000313441 -0 -3.42847e-06)
(-0.000320445 -0.000152371 -0 0.00032464 -0 -4.19441e-06)
(-0.000241935 -2.84854e-05 -0 0.00024671 -0 -4.77556e-06)
(-0.000140052 6.0695e-05 -0 0.000141796 -0 -1.74479e-06)
(-4.11337e-05 0.000114449 -0 3.84913e-05 -0 2.64243e-06)
(5.84953e-05 0.000141082 -0 -6.32595e-05 -0 4.76416e-06)
(0.000168433 0.00013889 -0 -0.000169002 -0 5.69471e-07)
(0.000295462 0.000128412 -0 -0.000289199 -0 -6.26263e-06)
(0.000406585 0.000133121 -0 -0.000401708 -0 -4.87728e-06)
(0.000409847 0.000214301 -0 -0.000406351 -0 -3.49603e-06)
(0.000299845 0.000459102 -0 -0.000303521 -0 3.67623e-06)
(0.000181027 0.000634243 -0 -0.00017917 -0 -1.85712e-06)
(-0.000111538 -0.00187773 -0 0.000113791 -0 -2.25299e-06)
(-1.75603e-05 -0.000211317 -0 1.72092e-05 -0 3.51128e-07)
(-3.01172e-05 -7.67279e-05 -0 3.02459e-05 -0 -1.28676e-07)
(-6.61806e-05 -8.5797e-05 -0 6.58893e-05 -0 2.9126e-07)
(-0.000115303 -0.000122481 -0 0.00011512 -0 1.82418e-07)
(-0.000174797 -0.000167522 -0 0.000174618 -0 1.78935e-07)
(-0.00024193 -0.000203942 -0 0.000241844 -0 8.6768e-08)
(-0.000319667 -0.000214724 -0 0.000319693 -0 -2.62648e-08)
(-0.000382827 -0.000171319 -0 0.000385761 -0 -2.93326e-06)
(-0.000395134 -7.61042e-05 -0 0.000400169 -0 -5.03544e-06)
(-0.000347695 4.31424e-05 -0 0.000353514 -0 -5.81917e-06)
(-0.000218165 0.000139293 -0 0.000222675 -0 -4.50984e-06)
(-7.82761e-05 0.000195007 -0 8.03831e-05 -0 -2.10693e-06)
(6.35006e-05 0.000233973 -0 -6.2453e-05 -0 -1.04765e-06)
(0.000219818 0.000236699 -0 -0.000216234 -0 -3.58349e-06)
(0.000393197 0.000231812 -0 -0.000385934 -0 -7.26274e-06)
(0.000524345 0.000232222 -0 -0.000519856 -0 -4.48843e-06)
(0.000505865 0.00027911 -0 -0.000502838 -0 -3.0266e-06)
(0.000357005 0.000504083 -0 -0.000361174 -0 4.16856e-06)
(0.000226122 0.000731722 -0 -0.000220009 -0 -6.11341e-06)
(-8.34879e-05 -0.00188892 -0 8.26562e-05 -0 8.31757e-07)
(-2.28484e-05 -0.000199539 -0 2.27672e-05 -0 8.12404e-08)
(-4.31728e-05 -6.596e-05 -0 4.36592e-05 -0 -4.86409e-07)
(-9.27769e-05 -6.01658e-05 -0 9.30718e-05 -0 -2.9494e-07)
(-0.000154203 -8.09812e-05 -0 0.000154692 -0 -4.89195e-07)
(-0.000221968 -0.000112943 -0 0.000222373 -0 -4.04873e-07)
(-0.000289169 -0.000136986 -0 0.000289776 -0 -6.07014e-07)
(-0.000359145 -0.000138658 -0 0.000360075 -0 -9.29836e-07)
(-0.000418953 -9.67953e-05 -0 0.000421139 -0 -2.18544e-06)
(-0.00043339 -8.18954e-06 -0 0.000437115 -0 -3.7258e-06)
(-0.000391311 0.000107234 -0 0.000394827 -0 -3.51566e-06)
(-0.000276494 0.000217275 -0 0.000280202 -0 -3.70791e-06)
(-0.000108421 0.000283491 -0 0.000110872 -0 -2.45134e-06)
(6.89033e-05 0.00032339 -0 -6.81626e-05 -0 -7.4076e-07)
(0.000254058 0.000326037 -0 -0.000253048 -0 -1.00941e-06)
(0.000432437 0.000310326 -0 -0.000428498 -0 -3.93918e-06)
(0.000555462 0.000290922 -0 -0.000553357 -0 -2.10457e-06)
(0.000553019 0.000317537 -0 -0.000550335 -0 -2.68468e-06)
(0.000371997 0.000505677 -0 -0.00037467 -0 2.67301e-06)
(0.000256898 0.000794935 -0 -0.00025226 -0 -4.63848e-06)
(-7.12325e-05 -0.00189701 -0 6.4034e-05 -0 7.19845e-06)
(-2.21298e-05 -0.00018282 -0 2.07806e-05 -0 1.34927e-06)
(-4.85189e-05 -5.42583e-05 -0 4.78641e-05 -0 6.54869e-07)
(-0.000109809 -3.4515e-05 -0 0.000108942 -0 8.66487e-07)
(-0.000182681 -3.92045e-05 -0 0.000182639 -0 4.20019e-08)
(-0.000258388 -5.86504e-05 -0 0.000258663 -0 -2.75496e-07)
(-0.000325186 -7.45915e-05 -0 0.000325798 -0 -6.12446e-07)
(-0.000385779 -7.2809e-05 -0 0.000386755 -0 -9.75623e-07)
(-0.000433173 -3.72799e-05 -0 0.000434774 -0 -1.60151e-06)
(-0.000440392 3.76282e-05 -0 0.000442442 -0 -2.0492e-06)
(-0.000391203 0.000135485 -0 0.000392889 -0 -1.68525e-06)
(-0.000285188 0.000235059 -0 0.000286082 -0 -8.94312e-07)
(-0.000125578 0.000305703 -0 0.000124719 -0 8.58512e-07)
(5.70602e-05 0.000338597 -0 -5.87338e-05 -0 1.6736e-06)
(0.000242889 0.000334724 -0 -0.000243227 -0 3.37483e-07)
(0.000407545 0.000311991 -0 -0.00040643 -0 -1.11546e-06)
(0.000529278 0.00028375 -0 -0.000528731 -0 -5.47585e-07)
(0.000529228 0.000300418 -0 -0.000524357 -0 -4.87121e-06)
(0.000332521 0.000438908 -0 -0.000329805 -0 -2.71613e-06)
(0.000279399 0.000829141 -0 -0.000279837 -0 4.37112e-07)
(-6.11193e-05 -0.00190511 -0 5.55109e-05 -0 5.60831e-06)
(-2.21936e-05 -0.000169055 -0 2.63729e-05 -0 -4.17922e-06)
(-5.98974e-05 -3.24749e-05 -0 6.66958e-05 -0 -6.79839e-06)
(-0.00012987 2.91419e-06 -0 0.000137732 -0 -7.86255e-06)
(-0.000206897 1.04208e-05 -0 0.000213229 -0 -6.33244e-06)
(-0.000280491 -4.70316e-07 -0 0.000283856 -0 -3.36523e-06)
(-0.000341823 -1.41255e-05 -0 0.000343272 -0 -1.44897e-06)
(-0.0003921 -1.67985e-05 -0 0.000392557 -0 -4.56954e-07)
(-0.000423745 3.98677e-06 -0 0.000423991 -0 -2.45787e-07)
(-0.000422802 5.38395e-05 -0 0.000422987 -0 -1.85063e-07)
(-0.000372117 0.000122911 -0 0.000371936 -0 1.81347e-07)
(-0.000271909 0.000192436 -0 0.000271037 -0 8.72907e-07)
(-0.000131681 0.000242588 -0 0.000130283 -0 1.39812e-06)
(3.2069e-05 0.000259591 -0 -3.40613e-05 -0 1.99225e-06)
(0.000196448 0.000253282 -0 -0.000196719 -0 2.70379e-07)
(0.000335522 0.000231262 -0 -0.000335689 -0 1.67118e-07)
(0.000432529 0.000197718 -0 -0.000428104 -0 -4.42496e-06)
(0.00041188 0.000229867 -0 -0.000407588 -0 -4.29223e-06)
(0.000242239 0.000312658 -0 -0.000235405 -0 -6.83443e-06)
(0.0002914 0.000849041 -0 -0.000285639 -0 -5.76062e-06)
(-3.45384e-05 -0.00192911 -0 6.19228e-05 -0 -2.73843e-05)
(1.38039e-05 -0.000136677 -0 -2.77488e-05 -0 1.39449e-05)
(-2.33031e-05 -1.75628e-05 -0 1.70849e-07 -0 2.31323e-05)
(-9.8888e-05 1.7592e-05 -0 6.88894e-05 -0 2.99985e-05)
(-0.000177186 3.24645e-05 -0 0.00015269 -0 2.44959e-05)
(-0.000243769 2.98634e-05 -0 0.000225209 -0 1.85597e-05)
(-0.000294544 1.83949e-05 -0 0.000280037 -0 1.45078e-05)
(-0.000329765 7.79437e-06 -0 0.000317905 -0 1.18605e-05)
(-0.000346283 7.6743e-06 -0 0.00033659 -0 9.69308e-06)
(-0.000338677 2.25562e-05 -0 0.00033082 -0 7.85666e-06)
(-0.000298417 4.93894e-05 -0 0.000292018 -0 6.39809e-06)
(-0.000222627 7.86997e-05 -0 0.000217049 -0 5.57749e-06)
(-0.000120221 9.85802e-05 -0 0.000114175 -0 6.04608e-06)
(3.32858e-06 0.000101155 -0 -8.40001e-06 -0 5.07142e-06)
(0.000127929 8.74535e-05 -0 -0.000130932 -0 3.003e-06)
(0.000231552 7.30411e-05 -0 -0.000237042 -0 5.48953e-06)
(0.000314242 5.34758e-05 -0 -0.00030994 -0 -4.30173e-06)
(0.000260512 0.000128464 -0 -0.00027178 -0 1.12681e-05)
(0.000161597 0.000170605 -0 -0.000158239 -0 -3.35748e-06)
(0.000317805 0.00088766 -0 -0.000302864 -0 -1.4941e-05)
(5.1527e-05 -0.00203402 -0 1.54295e-05 -0 -6.69565e-05)
(-4.214e-06 -0.000189054 -0 3.41594e-05 -0 -2.99454e-05)
(-9.00169e-05 4.07449e-05 -0 0.000140335 -0 -5.03181e-05)
(-0.000145129 5.54172e-05 -0 0.000194205 -0 -4.90761e-05)
(-0.000162914 2.63441e-05 -0 0.000200396 -0 -3.74822e-05)
(-0.000184048 -1.27654e-05 -0 0.00021232 -0 -2.82726e-05)
(-0.000203805 -5.00631e-05 -0 0.000225826 -0 -2.20206e-05)
(-0.000218048 -8.13217e-05 -0 0.000235672 -0 -1.76236e-05)
(-0.000222799 -0.00010425 -0 0.000236998 -0 -1.41993e-05)
(-0.000215722 -0.000118786 -0 0.000227096 -0 -1.13743e-05)
(-0.000193287 -0.000126356 -0 0.000202291 -0 -9.00343e-06)
(-0.000152255 -0.000129772 -0 0.000159425 -0 -7.17032e-06)
(-9.55547e-05 -0.000133566 -0 0.000101505 -0 -5.95028e-06)
(-3.27168e-05 -0.000141337 -0 3.74805e-05 -0 -4.76371e-06)
(3.18743e-05 -0.000154666 -0 -2.69476e-05 -0 -4.92669e-06)
(8.5117e-05 -0.000162844 -0 -8.30549e-05 -0 -2.06206e-06)
(0.00014786 -0.000167741 -0 -0.000136363 -0 -1.14969e-05)
(9.68714e-05 -8.43082e-05 -0 -0.000123218 -0 2.63462e-05)
(0.000170577 -3.92378e-05 -0 -0.000169429 -0 -1.14809e-06)
(0.000418124 0.000945139 -0 -0.000435461 -0 1.73369e-05)
(0.000366849 -0.00241756 -0 -0.000413031 -0 4.61822e-05)
(0.000135044 -0.00016729 -0 -0.000188105 -0 5.30606e-05)
(1.19477e-05 -0.000134552 -0 -5.69633e-05 -0 4.50156e-05)
(-7.29489e-05 -0.000220551 -0 3.46273e-05 -0 3.83216e-05)
(-9.99251e-05 -0.000275 -0 7.48576e-05 -0 2.50675e-05)
(-0.000113021 -0.000308224 -0 9.48093e-05 -0 1.82119e-05)
(-0.000120472 -0.000339822 -0 0.000106166 -0 1.43059e-05)
(-0.000123704 -0.00037071 -0 0.000112736 -0 1.09679e-05)
(-0.000124315 -0.000399102 -0 0.000115966 -0 8.34848e-06)
(-0.000121763 -0.000424147 -0 0.000115285 -0 6.47801e-06)
(-0.00011468 -0.000446138 -0 0.000109375 -0 5.30563e-06)
(-0.000101985 -0.000466532 -0 9.72922e-05 -0 4.69255e-06)
(-8.34703e-05 -0.000487632 -0 7.92406e-05 -0 4.22976e-06)
(-6.09283e-05 -0.000511628 -0 5.63674e-05 -0 4.56082e-06)
(-3.25348e-05 -0.000543328 -0 2.85985e-05 -0 3.93629e-06)
(-7.73305e-06 -0.000573719 -0 7.9512e-07 -0 6.93793e-06)
(6.36244e-05 -0.000625629 -0 -5.63468e-05 -0 -7.27763e-06)
(3.59441e-05 -0.00061382 -0 -7.51475e-05 -0 3.92034e-05)
(0.000462217 -0.000673025 -0 -0.00037603 -0 -8.6187e-05)
(0.000479699 0.000490774 -0 -0.000623879 -0 0.00014418)
(0.00153773 -0.00397243 -0 -0.00182063 -0 0.000282905)
(-0.000958538 -0.00986365 -0 0.000978907 -0 -2.03689e-05)
(-0.000630857 -0.010504 -0 0.000752612 -0 -0.000121754)
(-0.000616834 -0.0114874 -0 0.000646106 -0 -2.92723e-05)
(-0.000533087 -0.0119678 -0 0.000551388 -0 -1.83002e-05)
(-0.000455636 -0.0121489 -0 0.000477066 -0 -2.143e-05)
(-0.000409339 -0.0121731 -0 0.000427094 -0 -1.77551e-05)
(-0.000379794 -0.0121074 -0 0.000391836 -0 -1.20428e-05)
(-0.000354901 -0.0119977 -0 0.000363366 -0 -8.46512e-06)
(-0.000330312 -0.0118517 -0 0.000336887 -0 -6.57521e-06)
(-0.000305333 -0.0117054 -0 0.00031065 -0 -5.31645e-06)
(-0.000278195 -0.0115613 -0 0.000282442 -0 -4.24677e-06)
(-0.000247371 -0.0114281 -0 0.000251125 -0 -3.75456e-06)
(-0.000213823 -0.0113164 -0 0.000217113 -0 -3.28958e-06)
(-0.000169713 -0.0112307 -0 0.000175577 -0 -5.86397e-06)
(-0.000136511 -0.0111894 -0 0.00013677 -0 -2.58721e-07)
(-4.57454e-06 -0.0111633 -0 3.50551e-05 -0 -3.04806e-05)
(-0.000115362 -0.0113169 -0 4.51126e-05 -0 7.02495e-05)
(0.0010699 -0.0111771 -0 -0.0007008 -0 -0.000369101)
(-0.000994503 -0.0121971 -0 0.000227412 -0 0.000767091)
(0.00595068 -0.0110137 -0 -0.00514728 -0 -0.000803402)
)
;

boundaryField
{
    movingWall
    {
        type            calculated;
        value           nonuniform List<symmTensor> 
20
(
(-0.0003832 -0.00400105 -0 0.000563905 -0 -0.000180705)
(-0.000247056 -0.00370716 -0 0.000402043 -0 -0.000154987)
(-0.000192227 -0.00385823 -0 0.000282212 -0 -8.99851e-05)
(-0.00014586 -0.00396359 -0 0.000202387 -0 -5.65273e-05)
(-0.000115296 -0.00399064 -0 0.000155357 -0 -4.00607e-05)
(-9.74965e-05 -0.00397944 -0 0.0001272 -0 -2.97039e-05)
(-8.60343e-05 -0.00394443 -0 0.00010843 -0 -2.23957e-05)
(-7.7262e-05 -0.00389784 -0 9.4587e-05 -0 -1.73249e-05)
(-6.97913e-05 -0.00384149 -0 8.35728e-05 -0 -1.37815e-05)
(-6.32449e-05 -0.00378592 -0 7.4582e-05 -0 -1.13371e-05)
(-5.70515e-05 -0.00373149 -0 6.67016e-05 -0 -9.6501e-06)
(-5.07736e-05 -0.00368032 -0 5.93906e-05 -0 -8.61703e-06)
(-4.44176e-05 -0.00363561 -0 5.24004e-05 -0 -7.98285e-06)
(-3.65279e-05 -0.00359861 -0 4.46999e-05 -0 -8.17197e-06)
(-3.05577e-05 -0.00357607 -0 3.75363e-05 -0 -6.97858e-06)
(-7.93185e-06 -0.00355655 -0 2.03464e-05 -0 -1.24145e-05)
(-2.79064e-05 -0.00360367 -0 2.37074e-05 -0 4.19896e-06)
(0.00017562 -0.00352137 -0 -0.000102365 -0 -7.32555e-05)
(-0.000213876 -0.00409536 -0 0.000123579 -0 9.02962e-05)
(0.00108319 -0.00299192 -0 -0.000997093 -0 -8.60989e-05)
)
;
    }
    fixedWalls
    {
        type            calculated;
        value           nonuniform List<symmTensor> 
60
(
(3.17209e-06 7.6481e-07 -0 -4.26949e-06 -0 1.09739e-06)
(1.17441e-05 -7.6561e-06 -0 -1.27168e-05 -0 9.72646e-07)
(2.01827e-05 -2.63958e-05 -0 -2.03971e-05 -0 2.14376e-07)
(2.49429e-05 -5.02288e-05 -0 -2.45217e-05 -0 -4.21161e-07)
(2.64877e-05 -7.63826e-05 -0 -2.59125e-05 -0 -5.75237e-07)
(2.52371e-05 -0.000102422 -0 -2.48036e-05 -0 -4.33501e-07)
(2.18444e-05 -0.000126272 -0 -2.16789e-05 -0 -1.65491e-07)
(1.69264e-05 -0.000146229 -0 -1.70677e-05 -0 1.41262e-07)
(1.11408e-05 -0.000161124 -0 -1.15687e-05 -0 4.27898e-07)
(5.08549e-06 -0.000170348 -0 -5.74306e-06 -0 6.57574e-07)
(-7.62688e-07 -0.000173735 -0 -6.59951e-08 -0 8.28683e-07)
(-5.57215e-06 -0.000171627 -0 4.73797e-06 -0 8.34182e-07)
(-9.02452e-06 -0.000165181 -0 8.24186e-06 -0 7.82663e-07)
(-1.08741e-05 -0.000155774 -0 1.04776e-05 -0 3.96442e-07)
(-9.94229e-06 -0.000143648 -0 9.33243e-06 -0 6.09864e-07)
(-8.05406e-06 -0.000136173 -0 1.09375e-05 -0 -2.88343e-06)
(1.0368e-05 -0.000112875 -0 -1.47874e-05 -0 4.41949e-06)
(7.70109e-06 -0.000170716 -0 1.05761e-05 -0 -1.82772e-05)
(6.82232e-05 -0.000102723 -0 -8.30254e-05 -0 1.48022e-05)
(-0.000287433 -0.00233857 -0 0.000251559 -0 3.58749e-05)
(7.62741e-06 1.08475e-06 -0 -5.63322e-06 -0 -1.99419e-06)
(5.4115e-06 3.83663e-06 -0 -1.96537e-06 -0 -3.44612e-06)
(8.29637e-07 2.07346e-06 -0 8.33649e-06 -0 -9.16613e-06)
(-2.1223e-05 -1.90604e-05 -0 3.8181e-05 -0 -1.69581e-05)
(-9.99042e-05 -8.39235e-05 -0 0.000113313 -0 -1.34087e-05)
(-0.000204483 -0.000263724 -0 0.000197329 -0 7.15395e-06)
(-0.000235264 -0.000488293 -0 0.000217306 -0 1.79575e-05)
(-0.000206568 -0.000693784 -0 0.000186274 -0 2.02938e-05)
(-0.000149869 -0.000835675 -0 0.000130693 -0 1.91752e-05)
(-0.000101499 -0.000915865 -0 8.42942e-05 -0 1.72048e-05)
(-7.50333e-05 -0.000960702 -0 5.75542e-05 -0 1.7479e-05)
(-6.42859e-05 -0.000987324 -0 4.48055e-05 -0 1.94803e-05)
(-6.28271e-05 -0.00100591 -0 4.01404e-05 -0 2.26867e-05)
(-6.5503e-05 -0.00101985 -0 3.86566e-05 -0 2.68464e-05)
(-6.83934e-05 -0.00103074 -0 3.92238e-05 -0 2.91696e-05)
(-6.66256e-05 -0.00104592 -0 4.19838e-05 -0 2.46419e-05)
(-4.63639e-05 -0.00108218 -0 3.08344e-05 -0 1.55295e-05)
(5.60685e-05 -0.00115144 -0 -6.82556e-05 -0 1.2187e-05)
(0.000533484 -0.00137623 -0 -0.00044967 -0 -8.38146e-05)
(0.00259135 -0.00225236 -0 -0.00167169 -0 -0.000919662)
(4.03351e-06 -2.3282e-07 -0 -2.85772e-06 -0 -1.17579e-06)
(1.08909e-05 7.98392e-06 -0 -9.68516e-06 -0 -1.20573e-06)
(1.57387e-05 2.44047e-05 -0 -1.42997e-05 -0 -1.43907e-06)
(1.80358e-05 4.31311e-05 -0 -1.65611e-05 -0 -1.47475e-06)
(2.03954e-05 6.34371e-05 -0 -1.90509e-05 -0 -1.34455e-06)
(2.3372e-05 8.61944e-05 -0 -2.2488e-05 -0 -8.84053e-07)
(2.63215e-05 0.000111825 -0 -2.61037e-05 -0 -2.17812e-07)
(2.84794e-05 0.000139708 -0 -2.87956e-05 -0 3.16237e-07)
(2.93674e-05 0.000169033 -0 -2.99761e-05 -0 6.08698e-07)
(2.7847e-05 0.000198599 -0 -2.87091e-05 -0 8.62056e-07)
(2.20491e-05 0.000225153 -0 -2.31716e-05 -0 1.12248e-06)
(1.04078e-05 0.000243343 -0 -1.16194e-05 -0 1.2116e-06)
(-7.05321e-06 0.000246387 -0 6.08807e-06 -0 9.65143e-07)
(-2.7401e-05 0.000228692 -0 2.70228e-05 -0 3.78274e-07)
(-4.52233e-05 0.000189615 -0 4.54231e-05 -0 -1.99711e-07)
(-5.54034e-05 0.000134463 -0 5.5907e-05 -0 -5.03629e-07)
(-5.37042e-05 7.31242e-05 -0 5.31846e-05 -0 5.19584e-07)
(-3.69462e-05 1.97932e-05 -0 3.47979e-05 -0 2.14837e-06)
(-1.32929e-05 -7.02472e-06 -0 1.1613e-05 -0 1.67987e-06)
(4.56499e-06 -5.20378e-06 -0 -5.67714e-06 -0 1.11215e-06)
)
;
    }
    frontAndBack
    {
        type            empty;
    }
}


// ************************************************************************* //
