/*--------------------------------*- C++ -*----------------------------------*\
| =========                 |                                                 |
| \\      /  F ield         | OpenFOAM: The Open Source CFD Toolbox           |
|  \\    /   O peration     | Version:  2312                                  |
|   \\  /    A nd           | Website:  www.openfoam.com                      |
|    \\/     M anipulation  |                                                 |
\*---------------------------------------------------------------------------*/
FoamFile
{
    version     2.0;
    format      ascii;
    arch        "LSB;label=32;scalar=64";
    class       volScalarField;
    location    "2";
    object      turbulenceProperties:L;
}
// * * * * * * * * * * * * * * * * * * * * * * * * * * * * * * * * * * * * * //

dimensions      [0 1 0 0 0 0 0];

internalField   nonuniform List<scalar> 
400
(
0.0010213
0.00102238
0.00102412
0.00102585
0.00102743
0.00102875
0.00102973
0.00103054
0.00103158
0.00103327
0.00103441
0.00103496
0.00103614
0.00103709
0.00103793
0.00103914
0.00103873
0.00103393
0.00102569
0.00102265
0.00102157
0.00192852
0.00199692
0.00195109
0.00191382
0.00190345
0.00193008
0.00199129
0.00207502
0.00215483
0.00220617
0.00225158
0.00225161
0.00212092
0.00206641
0.001946
0.00180511
0.00160684
0.00135049
0.00102463
0.0010232
0.00297157
0.00332937
0.00315563
0.00298235
0.00285434
0.00275268
0.00266165
0.00263889
0.00262286
0.00245154
0.00221417
0.00203391
0.00191838
0.00182665
0.00171638
0.00161539
0.0015615
0.00119374
0.00103958
0.00102466
0.00347309
0.00436714
0.00441011
0.00426916
0.00401213
0.0036753
0.00329214
0.00284375
0.00236925
0.00217395
0.00204792
0.00192401
0.0018306
0.00174667
0.00164125
0.0015082
0.00141164
0.00132944
0.0010576
0.00102581
0.00376216
0.00510037
0.00521928
0.00496528
0.00443353
0.00377013
0.00303718
0.00250267
0.00229931
0.00211961
0.00198953
0.00194018
0.00185925
0.00177824
0.00164143
0.00151984
0.00135208
0.00121328
0.00104667
0.00102664
0.003896
0.00557185
0.00569288
0.00522903
0.0044359
0.00352585
0.00278851
0.00251491
0.00219918
0.00214783
0.00223012
0.0023109
0.00247096
0.00233379
0.00203649
0.00166619
0.00140934
0.00115499
0.00103537
0.00102722
0.0039334
0.00583977
0.00597175
0.00535986
0.00442789
0.00336253
0.00285887
0.002501
0.00223118
0.00246721
0.00273701
0.00301072
0.0034418
0.00330928
0.0028871
0.00220967
0.00156725
0.00116731
0.00102858
0.0010276
0.00388916
0.0059751
0.00616439
0.0055075
0.00453009
0.00341383
0.00292621
0.00250919
0.00237494
0.00278156
0.00318959
0.0034688
0.00383856
0.00384422
0.00357156
0.00279702
0.00181491
0.00120909
0.00102641
0.00102787
0.00379007
0.00604462
0.00640303
0.00578435
0.00474626
0.00359126
0.0031151
0.00266881
0.00252452
0.00294023
0.00333536
0.00355297
0.00377993
0.00400297
0.00404056
0.0033139
0.00218509
0.00129179
0.0010255
0.00102801
0.00362973
0.00602833
0.00650085
0.00595577
0.004985
0.00389656
0.00333257
0.00286454
0.00260879
0.00287474
0.00318122
0.00344438
0.00366808
0.00401189
0.00428378
0.00374249
0.00248829
0.00137759
0.0010252
0.00102807
0.00348511
0.00598068
0.00667092
0.00628112
0.00541345
0.00436942
0.00364788
0.00318196
0.00276525
0.00286864
0.00308653
0.00330294
0.00345739
0.00392002
0.00458069
0.00412354
0.00268511
0.00146087
0.00102508
0.00102798
0.00326213
0.00585209
0.0068075
0.00663725
0.00590753
0.00496486
0.00414412
0.00369931
0.00316242
0.00297752
0.00306632
0.00330898
0.00351012
0.0040181
0.00469091
0.00428767
0.0027587
0.00146326
0.00102505
0.00102784
0.00302649
0.00564077
0.00687457
0.0069852
0.00644596
0.00566331
0.00482954
0.00421805
0.00395304
0.00356664
0.00340522
0.00365053
0.00386899
0.00443487
0.00498316
0.00437687
0.00277104
0.00143421
0.00102505
0.00102752
0.00283536
0.00539786
0.0068612
0.00729131
0.00697699
0.00636565
0.0056425
0.00497364
0.00464319
0.00444983
0.00425467
0.00439004
0.00456946
0.00491197
0.00512845
0.00447
0.00268028
0.0013724
0.00102505
0.00102688
0.00269276
0.00517976
0.006793
0.00752416
0.00745494
0.00705058
0.00650205
0.00588261
0.00538432
0.00516307
0.00504449
0.00507722
0.00512325
0.00521352
0.00522394
0.00435897
0.00246781
0.00131764
0.00102506
0.00102632
0.00264671
0.00497945
0.00653953
0.00730505
0.00742483
0.00726547
0.00694782
0.00655146
0.00611013
0.00576895
0.00556536
0.00539984
0.00532198
0.00517175
0.00479497
0.00375267
0.00211173
0.00127372
0.00102504
0.00102502
0.00264265
0.00447863
0.00558642
0.00608665
0.00618854
0.00611317
0.00594223
0.00573354
0.00548701
0.00520637
0.00500092
0.00476638
0.00448454
0.00421266
0.00374393
0.00289821
0.00167776
0.00118021
0.00102503
0.00102456
0.00205299
0.00254951
0.0027345
0.00283275
0.0028897
0.00292917
0.00294077
0.0029283
0.0028824
0.00278269
0.00264685
0.00248967
0.00228818
0.00208009
0.00185899
0.00151681
0.00110987
0.00109769
0.001025
0.0010245
0.000793758
0.000802182
0.000817969
0.000839555
0.000864079
0.000890064
0.000915384
0.000939299
0.000958618
0.000972397
0.000980796
0.000985454
0.000991635
0.000994181
0.00101544
0.00101694
0.000994182
0.00103567
0.00102497
0.00102504
0.00102505
0.00102499
0.00102493
0.00102486
0.0010248
0.00102476
0.00102473
0.00102472
0.00102472
0.00102474
0.00102478
0.00102481
0.00102487
0.00102488
0.0010249
0.00102492
0.00102492
0.00102493
0.00102495
)
;

boundaryField
{
    movingWall
    {
        type            calculated;
        value           nonuniform List<scalar> 
20
(
0.00102504
0.00102505
0.00102499
0.00102493
0.00102486
0.0010248
0.00102476
0.00102473
0.00102472
0.00102472
0.00102474
0.00102478
0.00102481
0.00102487
0.00102488
0.0010249
0.00102492
0.00102492
0.00102493
0.00102495
)
;
    }
    fixedWalls
    {
        type            calculated;
        value           nonuniform List<scalar> 
60
(
0.0010213
0.00102157
0.0010232
0.00102466
0.00102581
0.00102664
0.00102722
0.0010276
0.00102787
0.00102801
0.00102807
0.00102798
0.00102784
0.00102752
0.00102688
0.00102632
0.00102502
0.00102456
0.0010245
0.00102504
0.00102265
0.00102463
0.00103958
0.0010576
0.00104667
0.00103537
0.00102858
0.00102641
0.0010255
0.0010252
0.00102508
0.00102505
0.00102505
0.00102505
0.00102506
0.00102504
0.00102503
0.001025
0.00102497
0.00102495
0.0010213
0.00102238
0.00102412
0.00102585
0.00102743
0.00102875
0.00102973
0.00103054
0.00103158
0.00103327
0.00103441
0.00103496
0.00103614
0.00103709
0.00103793
0.00103914
0.00103873
0.00103393
0.00102569
0.00102265
)
;
    }
    frontAndBack
    {
        type            empty;
    }
}


// ************************************************************************* //
