/*--------------------------------*- C++ -*----------------------------------*\
| =========                 |                                                 |
| \\      /  F ield         | OpenFOAM: The Open Source CFD Toolbox           |
|  \\    /   O peration     | Version:  2312                                  |
|   \\  /    A nd           | Website:  www.openfoam.com                      |
|    \\/     M anipulation  |                                                 |
\*---------------------------------------------------------------------------*/
FoamFile
{
    version     2.0;
    format      ascii;
    arch        "LSB;label=32;scalar=64";
    class       volSymmTensorField;
    location    "2";
    object      turbulenceProperties:R;
}
// * * * * * * * * * * * * * * * * * * * * * * * * * * * * * * * * * * * * * //

dimensions      [0 2 -2 0 0 0 0];

internalField   nonuniform List<symmTensor> 
400
(
(4.58019e-05 1.51518e-07 -0 4.1027e-05 -0 4.345e-05)
(7.66067e-05 3.80414e-06 -0 6.20556e-05 -0 6.96928e-05)
(0.000116832 1.21959e-05 -0 9.21203e-05 -0 0.000104764)
(0.000159033 2.40871e-05 -0 0.000126265 -0 0.000142991)
(0.000205392 3.91879e-05 -0 0.000163899 -0 0.000185024)
(0.000256858 5.79139e-05 -0 0.000205195 -0 0.000231408)
(0.000310849 8.02732e-05 -0 0.000248853 -0 0.000280175)
(0.000362034 0.00010564 -0 0.000291063 -0 0.000326846)
(0.000404834 0.000133294 -0 0.000327894 -0 0.000366736)
(0.000433749 0.000162078 -0 0.000358082 -0 0.000396522)
(0.000441545 0.000188116 -0 0.000380894 -0 0.000412088)
(0.000430201 0.000206747 -0 0.00040183 -0 0.000417173)
(0.000396581 0.000210589 -0 0.000415883 -0 0.000407821)
(0.000346993 0.000194541 -0 0.000419264 -0 0.00038485)
(0.000287647 0.000158309 -0 0.000402618 -0 0.000345906)
(0.000222063 0.000107496 -0 0.000352964 -0 0.000286931)
(0.000155645 5.39388e-05 -0 0.000266395 -0 0.000210509)
(9.70082e-05 1.40895e-05 -0 0.000158062 -0 0.000127634)
(5.82527e-05 -1.70285e-06 -0 7.49161e-05 -0 6.66607e-05)
(4.50075e-05 -1.2218e-06 -0 4.18017e-05 -0 4.34467e-05)
(7.19568e-05 -3.2184e-06 -0 5.66836e-05 -0 6.42051e-05)
(0.000131702 1.18422e-06 -0 7.55766e-05 -0 0.000103947)
(0.000180489 9.54404e-06 -0 9.76019e-05 -0 0.000138625)
(0.000220019 1.74971e-05 -0 0.000120802 -0 0.000169808)
(0.000258513 2.49614e-05 -0 0.000146836 -0 0.000202069)
(0.000298254 3.27335e-05 -0 0.000176582 -0 0.000236817)
(0.000340841 4.11739e-05 -0 0.000207912 -0 0.000273746)
(0.000390156 5.27406e-05 -0 0.000238204 -0 0.000313467)
(0.000450232 7.28604e-05 -0 0.000270243 -0 0.000359465)
(0.000512081 0.000106099 -0 0.000308857 -0 0.000410284)
(0.000559792 0.000151366 -0 0.000364274 -0 0.000463719)
(0.000586874 0.000203995 -0 0.000453152 -0 0.000523807)
(0.000584088 0.000250224 -0 0.000581309 -0 0.000588136)
(0.000545029 0.00026604 -0 0.000715368 -0 0.000636461)
(0.000478396 0.000260722 -0 0.000823099 -0 0.000656038)
(0.000399269 0.000208499 -0 0.000846696 -0 0.000626884)
(0.00029708 0.000121431 -0 0.000724021 -0 0.000514361)
(0.000193598 3.63775e-05 -0 0.000458518 -0 0.000329435)
(9.96937e-05 -6.00802e-06 -0 0.000174075 -0 0.000138233)
(5.84902e-05 -2.75312e-06 -0 6.06719e-05 -0 5.98856e-05)
(0.000115552 -1.1766e-05 -0 8.66289e-05 -0 0.000100847)
(0.000226831 -9.24373e-06 -0 9.72212e-05 -0 0.000163213)
(0.000303678 1.38118e-06 -0 0.00011422 -0 0.000208843)
(0.000345087 9.52562e-06 -0 0.000133949 -0 0.000238884)
(0.000373281 1.52126e-05 -0 0.000154885 -0 0.000263735)
(0.00040261 2.0288e-05 -0 0.000179341 -0 0.000291194)
(0.000452949 2.7175e-05 -0 0.00020758 -0 0.000330911)
(0.000537095 4.26474e-05 -0 0.000238444 -0 0.00038847)
(0.000659099 7.84616e-05 -0 0.000274946 -0 0.00046768)
(0.000797955 0.000142871 -0 0.000336558 -0 0.000567635)
(0.000878167 0.00021637 -0 0.000442398 -0 0.000659314)
(0.000872248 0.000271481 -0 0.000575483 -0 0.000721401)
(0.000819141 0.000303581 -0 0.000716468 -0 0.000762481)
(0.000749479 0.000319703 -0 0.000869948 -0 0.000802638)
(0.000678148 0.000319647 -0 0.00103279 -0 0.000848503)
(0.000598707 0.000280226 -0 0.00115528 -0 0.000868371)
(0.000524845 0.000197202 -0 0.00121107 -0 0.0008604)
(0.000384387 7.67755e-05 -0 0.00103468 -0 0.0007126)
(0.000202152 -1.04211e-05 -0 0.000436511 -0 0.000319857)
(8.82718e-05 -1.14543e-05 -0 0.000112939 -0 0.000100694)
(0.000159836 -2.47602e-05 -0 0.000119516 -0 0.000139081)
(0.000309556 -2.51915e-05 -0 0.000121633 -0 0.000216791)
(0.000423093 -1.79005e-05 -0 0.000131264 -0 0.000276872)
(0.000491348 -1.05347e-05 -0 0.000149022 -0 0.000318665)
(0.000541783 -5.56965e-06 -0 0.000170722 -0 0.000355085)
(0.00059963 -4.07779e-06 -0 0.000197313 -0 0.000397886)
(0.000698776 -3.25132e-06 -0 0.000225171 -0 0.00046114)
(0.000850384 1.07842e-05 -0 0.000260593 -0 0.000553249)
(0.000997369 5.17756e-05 -0 0.000321976 -0 0.000655116)
(0.00101896 0.000105593 -0 0.000400091 -0 0.000702411)
(0.000975764 0.00016062 -0 0.000478689 -0 0.000719284)
(0.000887684 0.000198831 -0 0.000580955 -0 0.00072941)
(0.000805494 0.000218153 -0 0.000703015 -0 0.000751079)
(0.000754024 0.00022738 -0 0.000824915 -0 0.000781884)
(0.000724261 0.000234411 -0 0.000967379 -0 0.000834186)
(0.00068531 0.000228986 -0 0.00113846 -0 0.000900216)
(0.000641921 0.000183099 -0 0.00132538 -0 0.000972546)
(0.000587061 7.64801e-05 -0 0.0014579 -0 0.00101174)
(0.000435492 -4.67617e-05 -0 0.00115426 -0 0.000790894)
(0.000214172 -5.13872e-05 -0 0.000360295 -0 0.000293746)
(0.00020169 -4.1061e-05 -0 0.000153788 -0 0.000177017)
(0.000374814 -4.24909e-05 -0 0.00014825 -0 0.000263181)
(0.000518589 -4.47873e-05 -0 0.000152707 -0 0.00033621)
(0.000607292 -4.43546e-05 -0 0.000173772 -0 0.000389292)
(0.000681097 -4.73768e-05 -0 0.000201181 -0 0.000440436)
(0.000770261 -5.99851e-05 -0 0.000236629 -0 0.000503787)
(0.000905021 -7.67924e-05 -0 0.00027968 -0 0.000591572)
(0.0010221 -7.03931e-05 -0 0.000330213 -0 0.000672543)
(0.0010363 -3.25082e-05 -0 0.000367593 -0 0.000696221)
(0.000986648 1.91946e-05 -0 0.00040651 -0 0.000691501)
(0.000861746 6.19547e-05 -0 0.000471672 -0 0.000664802)
(0.000731123 8.09913e-05 -0 0.000536173 -0 0.000632371)
(0.00065086 8.19381e-05 -0 0.000598402 -0 0.000624293)
(0.00062717 7.59233e-05 -0 0.000669843 -0 0.000651729)
(0.000660773 7.9302e-05 -0 0.000766931 -0 0.00071852)
(0.000712731 9.60168e-05 -0 0.000908878 -0 0.000814346)
(0.000755365 0.000105716 -0 0.0011708 -0 0.000964854)
(0.000743686 3.86375e-05 -0 0.0014849 -0 0.00110648)
(0.000705217 -0.000131496 -0 0.0016741 -0 0.00117312)
(0.000523007 -0.000180711 -0 0.00103744 -0 0.000788474)
(0.00023895 -5.91282e-05 -0 0.000188568 -0 0.000213093)
(0.000416132 -5.7893e-05 -0 0.000179339 -0 0.000299528)
(0.000579259 -7.37813e-05 -0 0.000184296 -0 0.000383137)
(0.000682116 -8.64435e-05 -0 0.000212783 -0 0.000446989)
(0.000770683 -0.000103683 -0 0.000251942 -0 0.000511926)
(0.000874772 -0.000134281 -0 0.000303406 -0 0.000590849)
(0.000988737 -0.000162162 -0 0.000362325 -0 0.000674798)
(0.00101996 -0.000151208 -0 0.00039349 -0 0.000703466)
(0.000987485 -0.000111956 -0 0.000400596 -0 0.000688752)
(0.000831521 -4.60763e-05 -0 0.000428342 -0 0.000627485)
(0.000660877 -9.03646e-08 -0 0.000449171 -0 0.000557032)
(0.000556218 1.60835e-05 -0 0.000511895 -0 0.000541336)
(0.000501076 5.98825e-06 -0 0.000566915 -0 0.000546288)
(0.000527813 -1.29041e-05 -0 0.000630001 -0 0.000591996)
(0.000609124 -1.99858e-05 -0 0.000673589 -0 0.000650133)
(0.000727246 -2.68496e-08 -0 0.00074243 -0 0.000743019)
(0.000831242 3.6236e-05 -0 0.000914567 -0 0.00088579)
(0.000909812 2.11806e-05 -0 0.00130594 -0 0.00111613)
(0.000949363 -0.000163765 -0 0.00178436 -0 0.00133575)
(0.000920217 -0.000488215 -0 0.00191733 -0 0.00141975)
(0.000270354 -7.7267e-05 -0 0.000222784 -0 0.000246054)
(0.000433622 -6.97469e-05 -0 0.000213443 -0 0.000325204)
(0.000602417 -9.93888e-05 -0 0.000226522 -0 0.000416272)
(0.00071312 -0.000128988 -0 0.000265744 -0 0.000489583)
(0.0008084 -0.000163744 -0 0.000319489 -0 0.000565603)
(0.000909952 -0.00021104 -0 0.000388014 -0 0.000651991)
(0.00096806 -0.00023454 -0 0.000451235 -0 0.000709763)
(0.000974145 -0.000228203 -0 0.000461414 -0 0.0007147)
(0.000866533 -0.000163288 -0 0.000457503 -0 0.000657095)
(0.000656961 -7.4531e-05 -0 0.00042662 -0 0.000541739)
(0.000533304 -1.76853e-05 -0 0.000450974 -0 0.000498582)
(0.000451135 1.34338e-05 -0 0.000511957 -0 0.000490791)
(0.000417843 1.46034e-05 -0 0.000570433 -0 0.00049848)
(0.000437441 -6.77721e-06 -0 0.000644938 -0 0.000540054)
(0.000521404 -3.75358e-05 -0 0.000691883 -0 0.00060314)
(0.000693328 -3.85735e-05 -0 0.000717905 -0 0.000703133)
(0.000889748 1.67921e-05 -0 0.000788826 -0 0.000847295)
(0.001017 5.53751e-05 -0 0.0010586 -0 0.00106048)
(0.0011655 -0.000118432 -0 0.00167654 -0 0.00141133)
(0.0012949 -0.000865168 -0 0.0024604 -0 0.00186504)
(0.000295158 -9.38066e-05 -0 0.000255142 -0 0.000274816)
(0.000430304 -7.71837e-05 -0 0.000248443 -0 0.000340751)
(0.000592301 -0.000117764 -0 0.000275607 -0 0.000436049)
(0.000702684 -0.000163927 -0 0.000328737 -0 0.000516531)
(0.000795679 -0.000215145 -0 0.000398765 -0 0.000599607)
(0.000881405 -0.000273925 -0 0.000483667 -0 0.000686488)
(0.000901007 -0.000291566 -0 0.000546768 -0 0.00072373)
(0.00087274 -0.000274823 -0 0.00055363 -0 0.000709874)
(0.00072345 -0.000181532 -0 0.000506524 -0 0.000608875)
(0.000551198 -8.17386e-05 -0 0.000436278 -0 0.000493303)
(0.000463305 -9.44198e-06 -0 0.00043647 -0 0.000454884)
(0.000411384 4.09172e-05 -0 0.00046611 -0 0.000443492)
(0.000381903 5.43238e-05 -0 0.000497707 -0 0.00043993)
(0.0003752 4.05274e-05 -0 0.00056824 -0 0.000463876)
(0.000437306 2.29297e-06 -0 0.000664791 -0 0.000538907)
(0.000608264 -1.93574e-05 -0 0.000747855 -0 0.000666243)
(0.000871631 3.29613e-05 -0 0.00079177 -0 0.000823291)
(0.00110169 0.000120511 -0 0.000959012 -0 0.00105245)
(0.00132167 3.95776e-06 -0 0.00150331 -0 0.00143131)
(0.00163694 -0.00115342 -0 0.00264684 -0 0.00211888)
(0.000313372 -0.000107362 -0 0.000284444 -0 0.000298744)
(0.000412639 -8.04768e-05 -0 0.000281626 -0 0.000348082)
(0.000557125 -0.00012701 -0 0.000326475 -0 0.000443835)
(0.000660619 -0.000186607 -0 0.000395551 -0 0.000529302)
(0.000745182 -0.000250461 -0 0.000483724 -0 0.000616822)
(0.000809025 -0.000311592 -0 0.000586406 -0 0.000702269)
(0.000810223 -0.000324171 -0 0.000656439 -0 0.000733278)
(0.000763054 -0.000299985 -0 0.000663814 -0 0.000710283)
(0.000625937 -0.00019294 -0 0.000578023 -0 0.000596307)
(0.000478751 -8.56505e-05 -0 0.00045346 -0 0.000465834)
(0.000418088 -6.25969e-06 -0 0.000408191 -0 0.000418716)
(0.000395215 4.49324e-05 -0 0.000392981 -0 0.000401462)
(0.000376607 5.93484e-05 -0 0.000397832 -0 0.000392126)
(0.000371831 4.86314e-05 -0 0.000447043 -0 0.000411115)
(0.000447167 1.58499e-05 -0 0.000559706 -0 0.000500954)
(0.000622124 -4.07383e-08 -0 0.000704885 -0 0.000658183)
(0.000862956 6.11563e-05 -0 0.000801963 -0 0.000819675)
(0.0011441 0.000201513 -0 0.000956524 -0 0.00105793)
(0.00142603 0.000147562 -0 0.00141707 -0 0.00144856)
(0.00196352 -0.00132217 -0 0.00266759 -0 0.00229887)
(0.000324712 -0.000116846 -0 0.000308974 -0 0.00031683)
(0.000384485 -7.92436e-05 -0 0.000308969 -0 0.000347289)
(0.000505017 -0.000125377 -0 0.000374337 -0 0.000441336)
(0.000591665 -0.000187448 -0 0.000460691 -0 0.000527423)
(0.000660776 -0.000253228 -0 0.000565275 -0 0.000614713)
(0.000708976 -0.000312958 -0 0.000684043 -0 0.000700763)
(0.0007078 -0.000329346 -0 0.000770908 -0 0.000740357)
(0.000655072 -0.000297888 -0 0.000787664 -0 0.000717781)
(0.000547683 -0.000191069 -0 0.000679572 -0 0.000611711)
(0.000430765 -8.04263e-05 -0 0.00051465 -0 0.000473086)
(0.000388233 -3.54742e-06 -0 0.00041603 -0 0.000408795)
(0.000382729 3.93188e-05 -0 0.00035505 -0 0.000378046)
(0.000383436 5.08059e-05 -0 0.000332453 -0 0.000365064)
(0.000411729 4.05877e-05 -0 0.000358505 -0 0.000393547)
(0.000525901 1.79569e-05 -0 0.000443914 -0 0.000490903)
(0.000737559 1.10715e-05 -0 0.00059637 -0 0.000668794)
(0.000970056 9.23023e-05 -0 0.000754934 -0 0.00085645)
(0.00121383 0.000279978 -0 0.00096452 -0 0.00108761)
(0.00152156 0.000281573 -0 0.00141145 -0 0.00148597)
(0.00222853 -0.00140304 -0 0.00266691 -0 0.00243878)
(0.000330097 -0.000121738 -0 0.000328052 -0 0.000329171)
(0.000356394 -7.5989e-05 -0 0.000331541 -0 0.000344138)
(0.000449691 -0.000115146 -0 0.000416427 -0 0.000434336)
(0.000519021 -0.000173844 -0 0.000518903 -0 0.000520155)
(0.000573285 -0.000236505 -0 0.00063813 -0 0.000606686)
(0.000608165 -0.000291688 -0 0.000770734 -0 0.000692241)
(0.000605673 -0.000308712 -0 0.000880277 -0 0.000744896)
(0.000561027 -0.000270244 -0 0.000918118 -0 0.000736)
(0.000483839 -0.000173104 -0 0.000822867 -0 0.000651331)
(0.000395533 -6.24682e-05 -0 0.000621462 -0 0.000505909)
(0.000363728 1.16909e-05 -0 0.000474888 -0 0.000423199)
(0.000376009 5.50217e-05 -0 0.00037649 -0 0.000385852)
(0.000411211 6.6842e-05 -0 0.000321828 -0 0.000377302)
(0.000484274 5.62373e-05 -0 0.000308707 -0 0.000403711)
(0.000656501 4.37804e-05 -0 0.000358587 -0 0.000507469)
(0.000944889 4.68219e-05 -0 0.000503609 -0 0.00072284)
(0.00115329 0.000134612 -0 0.000675418 -0 0.000911007)
(0.00130963 0.0003448 -0 0.000925922 -0 0.00111995)
(0.00163177 0.0004084 -0 0.00142918 -0 0.00153785)
(0.0024421 -0.00144391 -0 0.0027118 -0 0.00257195)
(0.000330011 -0.000121926 -0 0.000340192 -0 0.000335263)
(0.000329034 -6.90799e-05 -0 0.000346629 -0 0.000337749)
(0.000395497 -9.74727e-05 -0 0.000447105 -0 0.000422061)
(0.000447139 -0.000146502 -0 0.000563481 -0 0.00050608)
(0.000487063 -0.00020035 -0 0.000693787 -0 0.00059103)
(0.000513607 -0.000245791 -0 0.000835171 -0 0.00067567)
(0.000513967 -0.000260507 -0 0.000967823 -0 0.000742478)
(0.000486753 -0.000219778 -0 0.00103829 -0 0.000757971)
(0.000438383 -0.000132438 -0 0.000999082 -0 0.000713264)
(0.000397061 -2.38882e-05 -0 0.000806843 -0 0.000595945)
(0.000368344 4.94279e-05 -0 0.000597872 -0 0.000480977)
(0.000389215 9.25572e-05 -0 0.000453609 -0 0.000424617)
(0.000469726 0.000115701 -0 0.000369875 -0 0.000425662)
(0.00060277 0.000115978 -0 0.000321001 -0 0.000462598)
(0.000844542 0.000111376 -0 0.000337447 -0 0.000582847)
(0.00116868 0.000119698 -0 0.000441892 -0 0.000798709)
(0.00133085 0.000192703 -0 0.000596912 -0 0.000959167)
(0.00138968 0.000395555 -0 0.000869828 -0 0.0011345)
(0.00172584 0.000504907 -0 0.00143909 -0 0.00158025)
(0.00262669 -0.00146794 -0 0.00280285 -0 0.00271213)
(0.000324173 -0.000117815 -0 0.000343558 -0 0.00033416)
(0.000305005 -6.03357e-05 -0 0.000352472 -0 0.000328587)
(0.000348443 -7.58592e-05 -0 0.000465215 -0 0.000407215)
(0.000384224 -0.000111545 -0 0.000594074 -0 0.000489399)
(0.000411375 -0.000153797 -0 0.000732163 -0 0.000572016)
(0.000433143 -0.000187041 -0 0.000876826 -0 0.000655104)
(0.000440067 -0.000195679 -0 0.00102272 -0 0.000731356)
(0.000429679 -0.000154213 -0 0.00112152 -0 0.000771641)
(0.0004137 -6.74768e-05 -0 0.00111885 -0 0.000759576)
(0.000411718 3.78149e-05 -0 0.00102634 -0 0.000711377)
(0.000436945 0.000119325 -0 0.00081459 -0 0.000619972)
(0.00047892 0.000164209 -0 0.000612522 -0 0.00054306)
(0.000598111 0.000199114 -0 0.000490923 -0 0.00054318)
(0.000775088 0.000204185 -0 0.000398934 -0 0.000582374)
(0.00105507 0.00020578 -0 0.000363432 -0 0.00069958)
(0.00134692 0.000210847 -0 0.000398826 -0 0.000866758)
(0.0014399 0.000251768 -0 0.000530012 -0 0.000980861)
(0.00143916 0.000434578 -0 0.000820002 -0 0.00113497)
(0.00180084 0.000581585 -0 0.00144624 -0 0.00161625)
(0.00281106 -0.001486 -0 0.00294177 -0 0.0028774)
(0.000316349 -0.000110868 -0 0.000341694 -0 0.000329089)
(0.000284901 -5.09456e-05 -0 0.000351968 -0 0.000317871)
(0.000310283 -5.27983e-05 -0 0.000473375 -0 0.000391441)
(0.000332564 -7.36243e-05 -0 0.000613397 -0 0.000472314)
(0.000349074 -0.000103911 -0 0.000757883 -0 0.00055292)
(0.000367734 -0.000126273 -0 0.000901405 -0 0.00063373)
(0.000381975 -0.000127472 -0 0.00104317 -0 0.000711291)
(0.000389864 -8.83928e-05 -0 0.00115703 -0 0.000770454)
(0.000404026 -7.40299e-06 -0 0.00119093 -0 0.000792424)
(0.000433187 9.62047e-05 -0 0.00113847 -0 0.000781097)
(0.000501528 0.000193563 -0 0.000997471 -0 0.000744545)
(0.000598256 0.000250212 -0 0.000791806 -0 0.000691786)
(0.000746563 0.000286265 -0 0.000625233 -0 0.000684914)
(0.000939512 0.000290542 -0 0.000487613 -0 0.000712213)
(0.00117703 0.000280028 -0 0.00040015 -0 0.000783259)
(0.00140123 0.000265158 -0 0.000390604 -0 0.000893038)
(0.00147993 0.000286969 -0 0.000482795 -0 0.000977724)
(0.00138973 0.000432243 -0 0.000751489 -0 0.00107403)
(0.00184038 0.000626725 -0 0.00143896 -0 0.00163418)
(0.00301749 -0.00150282 -0 0.00312465 -0 0.00307962)
(0.000305444 -0.000100753 -0 0.000329093 -0 0.000318384)
(0.000268605 -4.12061e-05 -0 0.000341802 -0 0.000305949)
(0.000281056 -3.00579e-05 -0 0.000471558 -0 0.000377439)
(0.000292296 -3.55582e-05 -0 0.000623639 -0 0.000458024)
(0.00029952 -5.40332e-05 -0 0.000775867 -0 0.000537313)
(0.000315432 -6.90316e-05 -0 0.000917892 -0 0.000615812)
(0.000335827 -6.73958e-05 -0 0.00105092 -0 0.00069202)
(0.000360609 -3.44185e-05 -0 0.00116194 -0 0.000759056)
(0.00039574 3.4534e-05 -0 0.00120598 -0 0.000798038)
(0.000454132 0.000123478 -0 0.00116874 -0 0.00080913)
(0.000542249 0.000213299 -0 0.00106064 -0 0.000800226)
(0.000662417 0.000276382 -0 0.000888708 -0 0.000776727)
(0.000812649 0.000306027 -0 0.000707993 -0 0.00076259)
(0.000991072 0.00030298 -0 0.000551059 -0 0.000771524)
(0.0011776 0.000283465 -0 0.000438045 -0 0.000806301)
(0.00135736 0.00025878 -0 0.000392451 -0 0.000874155)
(0.00138869 0.000269877 -0 0.000442214 -0 0.000908889)
(0.00123153 0.000367093 -0 0.000677572 -0 0.000951142)
(0.00186035 0.00064817 -0 0.00142317 -0 0.00164227)
(0.00327338 -0.00152128 -0 0.00336651 -0 0.00332667)
(0.000297016 -9.25792e-05 -0 0.000323613 -0 0.000306882)
(0.000250932 -2.44661e-05 -0 0.000346306 -0 0.000290936)
(0.000254904 2.52044e-06 -0 0.000486349 -0 0.000360426)
(0.000261449 9.40782e-06 -0 0.000640737 -0 0.000442518)
(0.000268047 -4.31875e-07 -0 0.000786267 -0 0.000522522)
(0.000284897 -1.30561e-05 -0 0.000918126 -0 0.000599503)
(0.000309923 -1.55675e-05 -0 0.00103708 -0 0.000672867)
(0.000345439 3.69497e-06 -0 0.00113113 -0 0.000737942)
(0.000395089 4.97983e-05 -0 0.00117739 -0 0.000785984)
(0.000463139 0.000113183 -0 0.0011483 -0 0.000805972)
(0.000552705 0.000176344 -0 0.00105025 -0 0.000802677)
(0.000667655 0.000221455 -0 0.000906798 -0 0.000789141)
(0.000796497 0.000236065 -0 0.00073636 -0 0.000769146)
(0.000942536 0.000229979 -0 0.000585543 -0 0.000764408)
(0.00107886 0.000209561 -0 0.000470627 -0 0.000774968)
(0.00118955 0.000178136 -0 0.000414153 -0 0.000795872)
(0.00116411 0.000201603 -0 0.000445401 -0 0.000799109)
(0.00102737 0.000251207 -0 0.000643603 -0 0.000827249)
(0.00186278 0.000658535 -0 0.00141521 -0 0.00163229)
(0.0036143 -0.00155451 -0 0.00369203 -0 0.00362006)
(0.000297352 -7.37142e-05 -0 0.000274941 -0 0.000297428)
(0.000265169 -1.31503e-05 -0 0.000282745 -0 0.000299938)
(0.000270932 1.49507e-05 -0 0.00041352 -0 0.000380468)
(0.000275474 2.87727e-05 -0 0.000567837 -0 0.000454221)
(0.000285589 2.69296e-05 -0 0.000708495 -0 0.000522147)
(0.000306887 1.67151e-05 -0 0.000828998 -0 0.000587717)
(0.000338672 7.10884e-06 -0 0.000929378 -0 0.000650251)
(0.000381153 7.00852e-06 -0 0.00100478 -0 0.000706247)
(0.000435128 2.05937e-05 -0 0.00104637 -0 0.000751511)
(0.000499799 4.49893e-05 -0 0.00103763 -0 0.000777458)
(0.000571318 7.13523e-05 -0 0.000969946 -0 0.000778218)
(0.000655584 8.89844e-05 -0 0.000867164 -0 0.00076956)
(0.000747057 9.07501e-05 -0 0.000736535 -0 0.000748621)
(0.000839321 7.7846e-05 -0 0.000608898 -0 0.000728119)
(0.000928227 6.45496e-05 -0 0.000514109 -0 0.000728445)
(0.00100797 4.66236e-05 -0 0.000463771 -0 0.000730247)
(0.000953723 0.000107976 -0 0.000506326 -0 0.000744231)
(0.000911668 0.000129606 -0 0.000668694 -0 0.000786355)
(0.0019569 0.000680125 -0 0.00148135 -0 0.00170195)
(0.00410503 -0.00165616 -0 0.00407564 -0 0.00400856)
(0.000313679 -0.000103962 -0 0.00033478 -0 0.000299529)
(0.000234495 2.86788e-05 -0 0.000396631 -0 0.000262437)
(0.00026671 4.26082e-05 -0 0.000527611 -0 0.000340561)
(0.000319721 2.09548e-05 -0 0.000608708 -0 0.000419493)
(0.000366565 -1.03644e-05 -0 0.00068838 -0 0.00049304)
(0.000412019 -4.12304e-05 -0 0.000765849 -0 0.000561731)
(0.000458526 -6.77027e-05 -0 0.000836261 -0 0.000625385)
(0.000505556 -8.74107e-05 -0 0.000891082 -0 0.000680461)
(0.000553154 -0.000100005 -0 0.000925958 -0 0.000725193)
(0.000601601 -0.000106445 -0 0.000934844 -0 0.000756846)
(0.000648383 -0.000108842 -0 0.000909794 -0 0.000770068)
(0.000693461 -0.000111066 -0 0.000857325 -0 0.000767971)
(0.000735882 -0.000116154 -0 0.000793572 -0 0.000758855)
(0.000774802 -0.000124928 -0 0.00072729 -0 0.000745077)
(0.000805369 -0.000128852 -0 0.0006723 -0 0.000736387)
(0.000855006 -0.000129567 -0 0.000635465 -0 0.000731915)
(0.000825635 -6.20898e-05 -0 0.000663548 -0 0.000773696)
(0.0010604 -2.72925e-05 -0 0.000823902 -0 0.000940953)
(0.00234604 0.000726026 -0 0.00169034 -0 0.00203817)
(0.00499202 -0.00199407 -0 0.00434876 -0 0.00472753)
(0.000534797 -9.943e-05 -0 0.000342731 -0 0.000486069)
(0.000548782 -7.44794e-05 -0 0.000510637 -0 0.000567086)
(0.000693302 -0.000130914 -0 0.000757157 -0 0.000759349)
(0.000807127 -0.000169935 -0 0.000915132 -0 0.000884365)
(0.000897728 -0.000196297 -0 0.00103009 -0 0.000981305)
(0.00097696 -0.000221963 -0 0.00112499 -0 0.00106499)
(0.00104732 -0.000247427 -0 0.00120513 -0 0.00113721)
(0.0011105 -0.000271297 -0 0.00127384 -0 0.00120068)
(0.00116589 -0.000292738 -0 0.0013295 -0 0.0012544)
(0.00121697 -0.000311595 -0 0.00137345 -0 0.00130077)
(0.00126563 -0.000328732 -0 0.00140604 -0 0.0013408)
(0.00131387 -0.000345795 -0 0.00142925 -0 0.00137606)
(0.00136348 -0.00036459 -0 0.00144707 -0 0.00141015)
(0.0014308 -0.0003897 -0 0.00147465 -0 0.00145696)
(0.0014956 -0.00041364 -0 0.00150175 -0 0.00150618)
(0.00164601 -0.000457641 -0 0.00155826 -0 0.00159415)
(0.00175214 -0.000453712 -0 0.00167003 -0 0.00175455)
(0.00258712 -0.000510996 -0 0.00195068 -0 0.00217074)
(0.00341336 0.000389084 -0 0.00253845 -0 0.00314736)
(0.00699634 -0.00333112 -0 0.00418016 -0 0.0059441)
(0.00203992 -0.00773468 -0 0.00355919 -0 0.00277559)
(0.00382243 -0.00860441 -0 0.00495571 -0 0.00423947)
(0.0050632 -0.00961529 -0 0.00612031 -0 0.005555)
(0.00582582 -0.0101114 -0 0.00674207 -0 0.00626075)
(0.00628005 -0.0103119 -0 0.00707172 -0 0.0066486)
(0.00654646 -0.0103585 -0 0.0072582 -0 0.00687967)
(0.00669279 -0.0103158 -0 0.00735024 -0 0.00700613)
(0.00677525 -0.010229 -0 0.00738762 -0 0.00707061)
(0.00679904 -0.0101048 -0 0.0073679 -0 0.00707506)
(0.00681024 -0.00997898 -0 0.00733537 -0 0.007066)
(0.0068096 -0.00985371 -0 0.00728743 -0 0.00704308)
(0.00680558 -0.0097371 -0 0.00723031 -0 0.00701314)
(0.00680774 -0.00963927 -0 0.00717481 -0 0.00698707)
(0.0068293 -0.00956472 -0 0.00712337 -0 0.00696884)
(0.00686321 -0.00953019 -0 0.00709597 -0 0.00697926)
(0.0070008 -0.00951052 -0 0.00703456 -0 0.00697873)
(0.00699821 -0.00965069 -0 0.00713506 -0 0.00715649)
(0.00803824 -0.00953431 -0 0.0065278 -0 0.00681074)
(0.00669252 -0.0104477 -0 0.00773917 -0 0.00820144)
(0.0119274 -0.0093691 -0 0.00248666 -0 0.00618189)
)
;

boundaryField
{
    movingWall
    {
        type            kqRWallFunction;
        value           nonuniform List<symmTensor> 
20
(
(0.00279157 -0 -0 0.00279157 -0 0.00279157)
(0.0043392 -0 -0 0.0043392 -0 0.0043392)
(0.00556731 -0.000244723 -0 0.00559741 -0 0.0055738)
(0.00626073 -0.000420697 -0 0.00629769 -0 0.00627021)
(0.00665211 -0.000508178 -0 0.00668657 -0 0.00666169)
(0.00688123 -0.00055293 -0 0.00691245 -0 0.00689065)
(0.00700392 -0.000571642 -0 0.0070321 -0 0.00701314)
(0.0070664 -0.00057645 -0 0.00709181 -0 0.00707526)
(0.00707034 -0.000568639 -0 0.00709304 -0 0.00707863)
(0.00706121 -0.000558573 -0 0.00708154 -0 0.00706886)
(0.00703835 -0.000546258 -0 0.00705647 -0 0.00704529)
(0.00700899 -0.000533358 -0 0.00702495 -0 0.0070151)
(0.00698349 -0.000522193 -0 0.0069974 -0 0.00698873)
(0.00696862 -0.000514056 -0 0.00698022 -0 0.00697267)
(0.0069751 -0.000511825 -0 0.00698485 -0 0.00697848)
(0.00700355 -0.000513407 -0 0.00700763 -0 0.00700291)
(0.00709244 -0.000536183 -0 0.00710012 -0 0.00709721)
(0.00715197 -0.000528807 -0 0.00711022 -0 0.00711459)
(0.00750816 -0.000693397 -0 0.0075653 -0 0.00755966)
(0.00701424 -0.000411323 -0 0.00672825 -0 0.00685349)
)
;
    }
    fixedWalls
    {
        type            kqRWallFunction;
        value           nonuniform List<symmTensor> 
60
(
(4.34263e-05 0 -0 4.34263e-05 -0 4.34263e-05)
(6.42819e-05 -0 -0 6.42819e-05 -0 6.42819e-05)
(0.00010101 -0 -0 0.00010101 -0 0.00010101)
(0.000139478 -0 -0 0.000139478 -0 0.000139478)
(0.000177498 -0 -0 0.000177498 -0 0.000177498)
(0.000213537 -0 -0 0.000213537 -0 0.000213537)
(0.000246397 -0 -0 0.000246397 -0 0.000246397)
(0.000275039 -0 -0 0.000275039 -0 0.000275039)
(0.000298853 -0 -0 0.000298853 -0 0.000298853)
(0.000316839 -0 -0 0.000316839 -0 0.000316839)
(0.000329107 -0 -0 0.000329107 -0 0.000329107)
(0.000335155 -0 -0 0.000335155 -0 0.000335155)
(0.000333964 -0 -0 0.000333964 -0 0.000333964)
(0.000329044 -0 -0 0.000329044 -0 0.000329044)
(0.00031764 -0 -0 0.00031764 -0 0.00031764)
(0.00030917 -0 -0 0.00030917 -0 0.00030917)
(0.000289907 -0 -0 0.000289907 -0 0.000289907)
(0.000315996 -0 -0 0.000315996 -0 0.000315996)
(0.000454533 -0 -0 0.000454533 -0 0.000454533)
(0.00279157 -0 -0 0.00279157 -0 0.00279157)
(4.34186e-05 0 -0 4.34186e-05 -0 4.34186e-05)
(5.96826e-05 0 -0 5.96826e-05 -0 5.96826e-05)
(0.000100635 0 -0 0.000100635 -0 0.000100635)
(0.000289404 -0 -0 0.000289404 -0 0.000289404)
(0.000782974 -0 -0 0.000782974 -0 0.000782974)
(0.0014191 -0 -0 0.0014191 -0 0.0014191)
(0.00187345 -0 -0 0.00187345 -0 0.00187345)
(0.00213422 -0 -0 0.00213422 -0 0.00213422)
(0.00231 -0 -0 0.00231 -0 0.00231)
(0.00244474 -0 -0 0.00244474 -0 0.00244474)
(0.00257528 -0 -0 0.00257528 -0 0.00257528)
(0.00271389 -0 -0 0.00271389 -0 0.00271389)
(0.00287674 -0 -0 0.00287674 -0 0.00287674)
(0.00307392 -0 -0 0.00307392 -0 0.00307392)
(0.00332219 -0 -0 0.00332219 -0 0.00332219)
(0.00364213 -0 -0 0.00364213 -0 0.00364213)
(0.00406307 -0 -0 0.00406307 -0 0.00406307)
(0.00468944 -0 -0 0.00468944 -0 0.00468944)
(0.00574515 -9.87666e-05 -0 0.0056746 -0 0.00570085)
(0.00722158 -0.000309649 -0 0.00663551 -0 0.00673889)
(4.34263e-05 -0 -0 4.34263e-05 -0 4.34263e-05)
(6.94517e-05 0 -0 6.94517e-05 -0 6.94517e-05)
(0.000104572 0 -0 0.000104572 -0 0.000104572)
(0.000142763 0 -0 0.000142763 -0 0.000142763)
(0.000184772 0 -0 0.000184772 -0 0.000184772)
(0.000231154 0 -0 0.000231154 -0 0.000231154)
(0.000279959 0 -0 0.000279959 -0 0.000279959)
(0.000326647 0 -0 0.000326647 -0 0.000326647)
(0.000366488 0 -0 0.000366488 -0 0.000366488)
(0.000396117 0 -0 0.000396117 -0 0.000396117)
(0.000411509 0 -0 0.000411509 -0 0.000411509)
(0.000416401 0 -0 0.000416401 -0 0.000416401)
(0.000406762 0 -0 0.000406762 -0 0.000406762)
(0.000383702 0 -0 0.000383702 -0 0.000383702)
(0.00034539 0 -0 0.00034539 -0 0.00034539)
(0.000287319 0 -0 0.000287319 -0 0.000287319)
(0.00021085 0 -0 0.00021085 -0 0.00021085)
(0.000127568 0 -0 0.000127568 -0 0.000127568)
(6.66099e-05 -0 -0 6.66099e-05 -0 6.66099e-05)
(4.34186e-05 -0 -0 4.34186e-05 -0 4.34186e-05)
)
;
    }
    frontAndBack
    {
        type            empty;
    }
}


// ************************************************************************* //
