/*--------------------------------*- C++ -*----------------------------------*\
| =========                 |                                                 |
| \\      /  F ield         | OpenFOAM: The Open Source CFD Toolbox           |
|  \\    /   O peration     | Version:  2312                                  |
|   \\  /    A nd           | Website:  www.openfoam.com                      |
|    \\/     M anipulation  |                                                 |
\*---------------------------------------------------------------------------*/
FoamFile
{
    version     2.0;
    format      ascii;
    arch        "LSB;label=32;scalar=64";
    class       volTensorField;
    location    "2";
    object      U2;
}
// * * * * * * * * * * * * * * * * * * * * * * * * * * * * * * * * * * * * * //

dimensions      [0 2 -2 0 0 0 0];

internalField   nonuniform List<tensor> 
400
(
(6.79494e-08 -5.5419e-08 -0 -5.50856e-08 4.49274e-08 0 -0 0 0)
(5.51071e-06 -2.49539e-06 -0 -2.49048e-06 1.12775e-06 0 -0 0 0)
(3.9809e-05 -1.01695e-05 -0 -1.01458e-05 2.59182e-06 0 -0 0 0)
(0.000119582 -2.06514e-05 -0 -2.06239e-05 3.56169e-06 0 -0 0 0)
(0.000257973 -3.55145e-05 -0 -3.55457e-05 4.89349e-06 0 -0 0 0)
(0.000475087 -5.86759e-05 -0 -5.88405e-05 7.26713e-06 0 -0 0 0)
(0.000793667 -9.07654e-05 -0 -9.10964e-05 1.0418e-05 0 -0 0 0)
(0.00122748 -0.000126781 -0 -0.000127354 1.31538e-05 0 -0 0 0)
(0.00178086 -0.000160009 -0 -0.00016106 1.44711e-05 0 -0 0 0)
(0.00243376 -0.000180198 -0 -0.000181912 1.34689e-05 0 -0 0 0)
(0.00309053 -0.000166197 -0 -0.000168299 9.05048e-06 0 -0 0 0)
(0.00356398 -9.35901e-05 -0 -9.54019e-05 2.50526e-06 0 -0 0 0)
(0.00361436 3.95925e-05 -0 3.83432e-05 4.2002e-07 -0 -0 -0 0)
(0.00309847 0.000185623 -0 0.000184585 1.10581e-05 -0 -0 -0 0)
(0.00213995 0.000263572 -0 0.000262598 3.23434e-05 -0 -0 -0 0)
(0.00110438 0.000233814 -0 0.000233184 4.93689e-05 -0 -0 -0 0)
(0.000358214 0.000124172 -0 0.00012396 4.29697e-05 -0 -0 -0 0)
(3.91416e-05 2.5446e-05 -0 2.54221e-05 1.65269e-05 -0 -0 -0 0)
(2.64448e-07 -6.47524e-07 0 -6.26961e-07 1.53517e-06 -0 0 -0 0)
(1.42713e-06 1.00767e-06 0 1.00703e-06 7.1104e-07 0 0 0 0)
(1.81235e-06 -3.33416e-06 -0 -3.32901e-06 6.12434e-06 0 -0 0 0)
(3.25173e-05 -3.20526e-05 -0 -3.20235e-05 3.15659e-05 0 -0 0 0)
(0.00014073 -8.77034e-05 -0 -8.75705e-05 5.45743e-05 0 -0 0 0)
(0.000358711 -0.000156959 -0 -0.000156701 6.85667e-05 0 -0 0 0)
(0.000704583 -0.000240433 -0 -0.000240188 8.19622e-05 0 -0 0 0)
(0.00118127 -0.000336097 -0 -0.00033607 9.5619e-05 0 -0 0 0)
(0.0017759 -0.000433364 -0 -0.000434053 0.00010592 0 -0 0 0)
(0.00249727 -0.000530509 -0 -0.000532776 0.000113181 0 -0 0 0)
(0.00339356 -0.0006253 -0 -0.000629681 0.000116025 0 -0 0 0)
(0.00449256 -0.000677895 -0 -0.00068382 0.000103184 0 -0 0 0)
(0.00569844 -0.00059834 -0 -0.000604829 6.35074e-05 0 -0 0 0)
(0.00672236 -0.000304234 -0 -0.000311146 1.40816e-05 0 -0 0 0)
(0.00714916 0.000195412 -0 0.000188136 5.14244e-06 -0 -0 -0 0)
(0.00662761 0.000760165 -0 0.000753328 8.64044e-05 -0 -0 -0 0)
(0.00515441 0.0011636 -0 0.00115812 0.000261444 -0 -0 -0 0)
(0.00318016 0.00117567 -0 0.00117171 0.000433169 -0 -0 -0 0)
(0.00137063 0.000776627 -0 0.000773825 0.000438464 -0 -0 -0 0)
(0.000286031 0.00025857 -0 0.000257441 0.000232725 -0 -0 -0 0)
(5.76967e-06 1.46394e-05 -0 1.45574e-05 3.69364e-05 -0 -0 -0 0)
(1.20214e-06 1.04289e-06 0 1.05409e-06 9.14462e-07 0 0 0 0)
(6.21481e-06 -1.75873e-05 -0 -1.75659e-05 4.97099e-05 0 -0 0 0)
(6.64227e-05 -9.62914e-05 -0 -9.62326e-05 0.000139506 0 -0 0 0)
(0.000224728 -0.000218691 -0 -0.000218481 0.000212612 0 -0 0 0)
(0.000520212 -0.000370127 -0 -0.000369613 0.000262977 0 -0 0 0)
(0.000971853 -0.000540044 -0 -0.000539274 0.000299666 0 -0 0 0)
(0.00157048 -0.000713052 -0 -0.000712603 0.000323547 0 -0 0 0)
(0.00232171 -0.000892429 -0 -0.000893854 0.000343583 0 -0 0 0)
(0.00333097 -0.00111915 -0 -0.00112446 0.000377799 0 -0 0 0)
(0.00478334 -0.00141709 -0 -0.00142742 0.00042288 0 -0 0 0)
(0.00681406 -0.00171296 -0 -0.00172748 0.000434266 0 -0 0 0)
(0.00930884 -0.00177759 -0 -0.00179251 0.000342293 0 -0 0 0)
(0.0117402 -0.00126881 -0 -0.00127858 0.000138181 0 -0 0 0)
(0.0133037 -3.08451e-05 -0 -3.38252e-05 7.84248e-08 0 -0 0 0)
(0.0134278 0.00165676 -0 0.00165789 0.000204554 -0 -0 -0 0)
(0.0116868 0.0031535 -0 0.00315492 0.000851307 -0 -0 -0 0)
(0.00848519 0.00373702 -0 0.00373799 0.00164627 -0 -0 -0 0)
(0.00469961 0.00305916 -0 0.0030591 0.00199129 -0 -0 -0 0)
(0.0015677 0.00146446 -0 0.00146221 0.00136592 -0 -0 -0 0)
(9.99031e-05 0.000180734 -0 0.000178754 0.000323383 -0 -0 -0 0)
(1.56029e-06 1.48479e-07 0 1.35224e-07 1.28681e-08 0 0 0 0)
(1.0016e-05 -4.04263e-05 -0 -4.03703e-05 0.000162941 0 -0 0 0)
(9.20812e-05 -0.000178374 -0 -0.000178241 0.000345277 0 -0 0 0)
(0.000278333 -0.000367401 -0 -0.000367091 0.000484563 0 -0 0 0)
(0.00060293 -0.000596308 -0 -0.000595605 0.000589064 0 -0 0 0)
(0.00108696 -0.000849987 -0 -0.000848947 0.000663864 0 -0 0 0)
(0.00174637 -0.0011222 -0 -0.00112207 0.000721031 0 -0 0 0)
(0.00267026 -0.00147439 -0 -0.00147809 0.000816131 0 -0 0 0)
(0.00410762 -0.00203431 -0 -0.00204438 0.00101248 0 -0 0 0)
(0.00641259 -0.00285742 -0 -0.0028736 0.00128046 0 -0 0 0)
(0.00978795 -0.00370974 -0 -0.00372704 0.00141259 0 -0 0 0)
(0.0138077 -0.00393806 -0 -0.00395083 0.00112681 0 -0 0 0)
(0.0173435 -0.00289699 -0 -0.00290202 0.000484743 0 -0 0 0)
(0.0193027 -0.000538305 -0 -0.000535251 1.49268e-05 0 -0 0 0)
(0.0194569 0.00256793 -0 0.0025779 0.000340233 -0 -0 -0 0)
(0.0182058 0.00564139 -0 0.00565505 0.00175232 -0 -0 -0 0)
(0.0151982 0.00774179 -0 0.00775919 0.00395245 -0 -0 -0 0)
(0.0104945 0.00775731 -0 0.00777109 0.00574424 -0 -0 -0 0)
(0.00504043 0.00515807 -0 0.00516395 0.00528447 -0 -0 -0 0)
(0.00103613 0.00149978 -0 0.00149698 0.00216685 -0 -0 -0 0)
(2.29031e-07 4.0427e-06 -0 3.34256e-06 5.90007e-05 -0 -0 -0 0)
(1.13949e-05 -6.44506e-05 -0 -6.43546e-05 0.000363994 0 -0 0 0)
(0.000101055 -0.000258245 -0 -0.000258028 0.000659386 0 -0 0 0)
(0.000289298 -0.00050157 -0 -0.000501207 0.000868966 0 -0 0 0)
(0.000603384 -0.000791707 -0 -0.000791002 0.00103788 0 -0 0 0)
(0.00107145 -0.0011241 -0 -0.00112329 0.0011785 0 -0 0 0)
(0.00174054 -0.00152578 -0 -0.00152678 0.0013384 0 -0 0 0)
(0.00276856 -0.00213743 -0 -0.00214378 0.00165508 0 -0 0 0)
(0.00449819 -0.00317349 -0 -0.00318671 0.00224824 0 -0 0 0)
(0.00731536 -0.00465157 -0 -0.00466861 0.00296859 0 -0 0 0)
(0.0110977 -0.0059548 -0 -0.00596881 0.00320273 0 -0 0 0)
(0.0148748 -0.00600362 -0 -0.00600701 0.0024245 0 -0 0 0)
(0.0175306 -0.00422252 -0 -0.00421163 0.00101443 0 -0 0 0)
(0.0187366 -0.000991145 -0 -0.000969643 5.12931e-05 0 -0 0 0)
(0.018674 0.00279219 -0 0.00281904 0.00042151 -0 -0 -0 0)
(0.017717 0.00648339 -0 0.00651519 0.00238418 -0 -0 -0 0)
(0.0162743 0.00975605 -0 0.00978882 0.00586817 -0 -0 -0 0)
(0.0136324 0.0117104 -0 0.0117429 0.0100872 -0 -0 -0 0)
(0.00888303 0.0104236 -0 0.01045 0.0122623 -0 -0 -0 0)
(0.0032019 0.00509015 -0 0.00510292 0.00811224 -0 -0 -0 0)
(0.000113489 0.000290892 -0 0.000288251 0.000738836 -0 -0 -0 0)
(1.02512e-05 -8.14e-05 -0 -8.12972e-05 0.000645541 0 -0 0 0)
(9.24933e-05 -0.000313813 -0 -0.000313578 0.00106391 0 -0 0 0)
(0.000258928 -0.000589309 -0 -0.000589028 0.0013406 0 -0 0 0)
(0.000529413 -0.00091635 -0 -0.000915918 0.00158535 0 -0 0 0)
(0.000937202 -0.00131093 -0 -0.00131078 0.00183349 0 -0 0 0)
(0.00154246 -0.00183629 -0 -0.00183876 0.00218903 0 -0 0 0)
(0.00251934 -0.00269607 -0 -0.0027045 0.00289422 0 -0 0 0)
(0.00419091 -0.00413935 -0 -0.00415491 0.0041038 0 -0 0 0)
(0.00672716 -0.00596096 -0 -0.00597722 0.00529644 0 -0 0 0)
(0.00969867 -0.0071602 -0 -0.00716918 0.00529276 0 -0 0 0)
(0.0120562 -0.00659908 -0 -0.00659477 0.00360971 0 -0 0 0)
(0.0130024 -0.00417471 -0 -0.00415748 0.00133485 0 -0 0 0)
(0.0125827 -0.000908577 -0 -0.00088137 6.36423e-05 0 -0 0 0)
(0.0116359 0.00227609 -0 0.00230969 0.000451796 -0 -0 -0 0)
(0.0108583 0.00514087 -0 0.00517869 0.00245186 -0 -0 -0 0)
(0.0105502 0.00800339 -0 0.0080467 0.00610422 -0 -0 -0 0)
(0.0104056 0.0110539 -0 0.0111031 0.0117947 -0 -0 -0 0)
(0.00889045 0.0127498 -0 0.0128019 0.0183592 -0 -0 -0 0)
(0.00476102 0.00936011 -0 0.00940349 0.0184871 -0 -0 -0 0)
(0.00069551 0.00185941 -0 0.00187035 0.00500028 -0 -0 -0 0)
(7.53836e-06 -8.57992e-05 -0 -8.5735e-05 0.000975808 0 -0 0 0)
(7.16525e-05 -0.000329892 -0 -0.000329752 0.0015182 0 -0 0 0)
(0.000199849 -0.000608692 -0 -0.000608644 0.00185378 0 -0 0 0)
(0.000404231 -0.000938524 -0 -0.000938579 0.00217915 0 -0 0 0)
(0.000714082 -0.00135359 -0 -0.00135431 0.0025672 0 -0 0 0)
(0.00117562 -0.00193216 -0 -0.00193605 0.00318194 0 -0 0 0)
(0.00191119 -0.00288164 -0 -0.00289175 0.00436008 0 -0 0 0)
(0.00310841 -0.00437386 -0 -0.00438941 0.00617637 0 -0 0 0)
(0.0047634 -0.00599963 -0 -0.0060142 0.00757504 0 -0 0 0)
(0.00642729 -0.00670698 -0 -0.00671232 0.00700441 0 -0 0 0)
(0.00735335 -0.00560874 -0 -0.00559875 0.00427042 0 -0 0 0)
(0.0072371 -0.00309928 -0 -0.00307533 0.001317 0 -0 0 0)
(0.00655011 -0.000372912 -0 -0.000341768 1.94576e-05 0 -0 0 0)
(0.00579363 0.00190217 -0 0.00193548 0.000635456 -0 -0 -0 0)
(0.00509663 0.00367718 -0 0.003713 0.0026789 -0 -0 -0 0)
(0.00471611 0.00523833 -0 0.00527935 0.00586393 -0 -0 -0 0)
(0.00496762 0.00737352 -0 0.00742366 0.0110191 -0 -0 -0 0)
(0.00541475 0.0103581 -0 0.0104181 0.0199292 -0 -0 -0 0)
(0.00408731 0.0107671 -0 0.01083 0.0285292 -0 -0 -0 0)
(0.00100266 0.00385262 -0 0.00388199 0.0149161 -0 -0 -0 0)
(4.38795e-06 -7.57028e-05 -0 -7.57155e-05 0.00130628 0 -0 0 0)
(4.60677e-05 -0.000301059 -0 -0.00030111 0.0019678 0 -0 0 0)
(0.000129748 -0.000552072 -0 -0.000552368 0.0023503 0 -0 0 0)
(0.000259965 -0.000844831 -0 -0.000845482 0.00274764 0 -0 0 0)
(0.000453072 -0.00121649 -0 -0.00121815 0.00327072 0 -0 0 0)
(0.000727035 -0.00172805 -0 -0.00173301 0.0041191 0 -0 0 0)
(0.00112528 -0.00252013 -0 -0.00253119 0.00566872 0 -0 0 0)
(0.00171082 -0.00366392 -0 -0.00367966 0.00788042 0 -0 0 0)
(0.00241565 -0.00471306 -0 -0.00472828 0.00922514 0 -0 0 0)
(0.00304908 -0.00493602 -0 -0.00494272 0.00800154 0 -0 0 0)
(0.00330092 -0.00383712 -0 -0.00383048 0.0044527 0 -0 0 0)
(0.00317654 -0.00192759 -0 -0.00190963 0.0011588 0 -0 0 0)
(0.00290329 -1.34528e-05 -0 8.86914e-06 -4.10964e-08 -0 -0 0 0)
(0.00253948 0.00154868 -0 0.00157255 0.000959003 -0 -0 -0 0)
(0.00210951 0.00263135 -0 0.00265713 0.00331444 -0 -0 -0 0)
(0.00176274 0.00332342 -0 0.00335189 0.00631954 -0 -0 -0 0)
(0.00170617 0.00418689 -0 0.00422277 0.0103625 -0 -0 -0 0)
(0.00216302 0.00627231 -0 0.00632101 0.0183296 -0 -0 -0 0)
(0.00226259 0.00859289 -0 0.00865311 0.0328629 -0 -0 -0 0)
(0.000808108 0.00482595 -0 0.00486773 0.0290697 -0 -0 -0 0)
(1.79078e-06 -5.3244e-05 -0 -5.33508e-05 0.00158624 0 -0 0 0)
(2.29603e-05 -0.000232472 -0 -0.000232761 0.00235669 0 -0 0 0)
(6.62981e-05 -0.00042828 -0 -0.000428969 0.0027711 0 -0 0 0)
(0.00013061 -0.000646919 -0 -0.00064821 0.00321062 0 -0 0 0)
(0.000218739 -0.000912267 -0 -0.000914803 0.00381525 0 -0 0 0)
(0.000327745 -0.00124929 -0 -0.00125506 0.00478401 0 -0 0 0)
(0.000447465 -0.00169519 -0 -0.00170696 0.00646672 0 -0 0 0)
(0.000578085 -0.00224139 -0 -0.00225841 0.00875646 0 -0 0 0)
(0.00067303 -0.00256993 -0 -0.00258826 0.00988314 0 -0 0 0)
(0.000755386 -0.00251802 -0 -0.00253097 0.00843682 0 -0 0 0)
(0.000770616 -0.00187933 -0 -0.00188222 0.00459025 0 -0 0 0)
(0.000751894 -0.000929818 -0 -0.000923599 0.00114215 0 -0 0 0)
(0.000731363 3.52701e-05 -0 4.63921e-05 2.23727e-06 -0 -0 -0 0)
(0.000663403 0.000883012 -0 0.000897574 0.0011947 -0 -0 -0 0)
(0.000538954 0.00143524 -0 0.00145214 0.00386706 -0 -0 -0 0)
(0.000453099 0.00175993 -0 0.00177801 0.00690615 -0 -0 -0 0)
(0.000425419 0.00209338 -0 0.00211377 0.0104014 -0 -0 -0 0)
(0.000609564 0.00317671 -0 0.0032055 0.0167053 -0 -0 -0 0)
(0.000882877 0.00535147 -0 0.00539673 0.0327117 -0 -0 -0 0)
(0.000449497 0.00433597 -0 0.00437232 0.0421765 -0 -0 -0 0)
(3.07935e-07 -2.32829e-05 -0 -2.34795e-05 0.00177528 0 -0 0 0)
(7.06407e-06 -0.000136248 -0 -0.000136786 0.00263826 0 -0 0 0)
(2.16805e-05 -0.000257206 -0 -0.00025828 0.00306409 0 -0 0 0)
(4.11405e-05 -0.000378717 -0 -0.000380557 0.0035032 0 -0 0 0)
(6.20046e-05 -0.000503219 -0 -0.000506407 0.00410992 0 -0 0 0)
(7.67661e-05 -0.000619728 -0 -0.000625921 0.00505302 0 -0 0 0)
(7.02628e-05 -0.000674982 -0 -0.000686897 0.0065987 0 -0 0 0)
(4.26036e-05 -0.000598526 -0 -0.000615739 0.00865036 0 -0 0 0)
(1.03469e-05 -0.000304459 -0 -0.000327623 0.00964036 0 -0 0 0)
(1.54807e-08 2.57418e-05 0 4.99979e-06 0.00831383 0 0 0 0)
(5.58083e-06 0.000167818 0 0.000153964 0.00462977 0 0 0 0)
(8.10305e-06 0.000103338 0 9.59532e-05 0.00122368 0 0 0 0)
(3.27086e-06 -6.70042e-07 0 -1.33531e-06 2.73541e-07 -0 0 -0 0)
(5.72484e-07 -2.87913e-05 0 -2.3624e-05 0.0011881 -0 0 -0 0)
(-1.63654e-09 -8.24597e-07 0 7.74461e-06 0.00390224 -0 -0 -0 0)
(4.7045e-06 0.00017461 -0 0.000184986 0.00686585 -0 -0 -0 0)
(2.18553e-05 0.000463652 -0 0.000475143 0.01008 -0 -0 -0 0)
(9.76538e-05 0.00122468 -0 0.00123937 0.0155431 -0 -0 -0 0)
(0.000260951 0.00283813 -0 0.00286432 0.0311528 -0 -0 -0 0)
(0.00022141 0.00335943 -0 0.0033809 0.0512982 -0 -0 -0 0)
(3.80038e-08 8.54668e-06 0 8.23329e-06 0.00185158 0 0 0 0)
(3.30916e-07 -2.99777e-05 -0 -3.07403e-05 0.00278477 0 -0 0 0)
(1.49987e-06 -6.86102e-05 -0 -7.00134e-05 0.00320269 0 -0 0 0)
(2.26265e-06 -8.91476e-05 -0 -9.13845e-05 0.00360052 0 -0 0 0)
(1.40154e-06 -7.43606e-05 -0 -7.78867e-05 0.0041324 0 -0 0 0)
(4.21226e-09 8.54079e-06 0 2.42727e-06 0.00492153 0 0 0 0)
(1.00369e-05 0.000253857 0 0.000242633 0.00613674 0 0 0 0)
(7.60756e-05 0.000774164 0 0.000757653 0.00771007 0 0 0 0)
(0.00026443 0.0015135 0 0.00148879 0.00852132 0 0 0 0)
(0.000579218 0.00209156 0 0.00206616 0.00746089 0 0 0 0)
(0.000871164 0.00198338 0 0.00195868 0.00445934 0 0 0 0)
(0.00100237 0.00116719 0 0.00114803 0.0013368 0 0 0 0)
(0.000947522 7.4778e-05 0 6.17487e-05 4.87318e-06 0 0 0 0)
(0.000767364 -0.000854539 0 -0.00085994 0.000957633 -0 0 -0 0)
(0.000488579 -0.00128732 0 -0.00128723 0.00339163 -0 0 -0 0)
(0.000229226 -0.00118632 0 -0.00118275 0.00612113 -0 0 -0 0)
(7.52773e-05 -0.00082778 0 -0.000822503 0.00904457 -0 0 -0 0)
(4.19896e-07 -7.97231e-05 0 -7.34009e-05 0.0139362 -0 0 -0 0)
(5.0108e-05 0.00119963 -0 0.00121207 0.0290181 -0 -0 -0 0)
(0.00013418 0.00276388 -0 0.00277415 0.0571425 -0 -0 -0 0)
(6.33642e-07 3.40587e-05 0 3.37476e-05 0.00181395 0 0 0 0)
(1.60958e-06 6.74896e-05 0 6.65479e-05 0.00279035 0 0 0 0)
(3.48545e-06 0.000106184 0 0.000104546 0.00318497 0 0 0 0)
(8.42288e-06 0.000173235 0 0.00017077 0.00351226 0 0 0 0)
(2.22587e-05 0.000297281 0 0.000293601 0.00392125 0 0 0 0)
(5.89329e-05 0.000517357 0 0.000511647 0.00449162 0 0 0 0)
(0.000157227 0.000918155 0 0.000908517 0.00530545 0 0 0 0)
(0.000408404 0.00161146 0 0.0015967 0.00630018 0 0 0 0)
(0.000909725 0.00249863 0 0.00247673 0.00680254 0 0 0 0)
(0.00167127 0.00317337 0 0.00314735 0.00597612 0 0 0 0)
(0.00243486 0.00304488 0 0.0030166 0.00377237 0 0 0 0)
(0.0028938 0.00195423 0 0.00192881 0.00130255 0 0 0 0)
(0.00287358 0.000327218 0 0.000307315 3.49942e-05 0 0 0 0)
(0.00240257 -0.00118079 0 -0.00119396 0.000586795 -0 0 -0 0)
(0.00158357 -0.00198284 0 -0.00198918 0.00249071 -0 0 -0 0)
(0.000841485 -0.00201826 0 -0.00201988 0.00484458 -0 0 -0 0)
(0.000362561 -0.00164382 0 -0.00164298 0.00744913 -0 0 -0 0)
(6.67604e-05 -0.000887871 0 -0.000886241 0.0117865 -0 0 -0 0)
(2.15487e-06 0.000236092 -0 0.000240491 0.0263487 -0 -0 -0 0)
(0.000109798 0.00258184 -0 0.00258601 0.0608087 -0 -0 -0 0)
(1.48817e-06 5.03153e-05 0 4.99455e-05 0.00168866 0 0 0 0)
(7.412e-06 0.000141242 0 0.000140158 0.00267082 0 0 0 0)
(1.94194e-05 0.000243506 0 0.000241703 0.00303079 0 0 0 0)
(4.29677e-05 0.00037642 0 0.000373843 0.00327506 0 0 0 0)
(9.10401e-05 0.000570167 0 0.000566521 0.00354801 0 0 0 0)
(0.000187544 0.000857908 0 0.00085269 0.00390057 0 0 0 0)
(0.000381334 0.00129249 0 0.00128458 0.00435393 0 0 0 0)
(0.000773544 0.00194177 0 0.00192969 0.00484395 0 0 0 0)
(0.00147762 0.00273099 0 0.00271358 0.00501534 0 0 0 0)
(0.00249062 0.00330649 0 0.00328438 0.00436027 0 0 0 0)
(0.00354979 0.00319196 0 0.00316676 0.00284755 0 0 0 0)
(0.0042632 0.00217045 0 0.00214637 0.00109274 0 0 0 0)
(0.00431377 0.000553542 0 0.000533643 6.84771e-05 0 0 0 0)
(0.0036667 -0.001022 0 -0.00103592 0.000288735 -0 0 -0 0)
(0.0025382 -0.00198477 0 -0.00199309 0.00155852 -0 0 -0 0)
(0.00145013 -0.00221536 0 -0.00221932 0.00339043 -0 0 -0 0)
(0.000677698 -0.00194648 0 -0.00194778 0.0055944 -0 0 -0 0)
(0.000172702 -0.00127161 0 -0.00127211 0.00936661 -0 0 -0 0)
(2.87081e-06 -0.00025829 0 -0.00025766 0.023182 -0 0 -0 0)
(0.000114318 0.00269074 -0 0.00269236 0.0633706 -0 -0 -0 0)
(1.96689e-06 5.47208e-05 0 5.43377e-05 0.00151173 0 0 0 0)
(1.34665e-05 0.000182583 0 0.000181424 0.0024598 0 0 0 0)
(3.89512e-05 0.000329568 0 0.000327666 0.00277239 0 0 0 0)
(8.6722e-05 0.000505618 0 0.000502997 0.00293264 0 0 0 0)
(0.000174301 0.000734512 0 0.000731009 0.0030805 0 0 0 0)
(0.000329276 0.00103747 0 0.00103277 0.00325402 0 0 0 0)
(0.000597922 0.00143905 0 0.00143257 0.00344783 0 0 0 0)
(0.00105965 0.00195875 0 0.00194944 0.0036035 0 0 0 0)
(0.00180603 0.00253641 0 0.00252329 0.00354375 0 0 0 0)
(0.00282653 0.00293695 0 0.00292012 0.0030342 0 0 0 0)
(0.00390152 0.00282391 0 0.00280475 0.00203007 0 0 0 0)
(0.004639 0.00201799 0 0.00199922 0.000869673 0 0 0 0)
(0.00472748 0.000724432 0 0.000708601 0.000108585 0 0 0 0)
(0.00411909 -0.000614529 0 -0.000626108 9.34094e-05 -0 0 -0 0)
(0.00301611 -0.00157012 0 -0.00157762 0.000821277 -0 0 -0 0)
(0.00184009 -0.001966 0 -0.0019701 0.00210492 -0 0 -0 0)
(0.000913625 -0.00186759 0 -0.00186937 0.00382128 -0 0 -0 0)
(0.000260399 -0.00134473 0 -0.00134584 0.00695005 -0 0 -0 0)
(1.15445e-05 -0.00047654 0 -0.000477315 0.0197029 -0 0 -0 0)
(0.00013328 0.00294733 -0 0.00294807 0.0651932 -0 -0 -0 0)
(1.72454e-06 4.75472e-05 0 4.72021e-05 0.00130141 0 0 0 0)
(1.54744e-05 0.000184209 0 0.000183017 0.00217866 0 0 0 0)
(5.19134e-05 0.000356609 0 0.000354619 0.00243599 0 0 0 0)
(0.000122275 0.000556444 0 0.000553773 0.00252009 0 0 0 0)
(0.000245894 0.000796457 0 0.00079308 0.0025688 0 0 0 0)
(0.000449234 0.00108592 0 0.00108166 0.00261467 0 0 0 0)
(0.000770176 0.00143102 0 0.00142556 0.00264874 0 0 0 0)
(0.00125814 0.00182223 0 0.001815 0.00262876 0 0 0 0)
(0.00196119 0.00220447 0 0.00219488 0.00246715 0 0 0 0)
(0.00285982 0.00244049 0 0.0024286 0.0020725 0 0 0 0)
(0.00378943 0.00233418 0 0.00232072 0.00142949 0 0 0 0)
(0.00444617 0.00176223 0 0.00174885 0.000693152 0 0 0 0)
(0.00458069 0.000823426 0 0.000811638 0.0001459 0 0 0 0)
(0.00410535 -0.000207988 0 -0.000216959 1.09917e-05 -0 0 -0 0)
(0.00316095 -0.00105238 0 -0.00105824 0.000352321 -0 0 -0 0)
(0.00206231 -0.00153403 0 -0.00153736 0.00114355 -0 0 -0 0)
(0.00108332 -0.00159311 0 -0.00159464 0.00234505 -0 0 -0 0)
(0.000333376 -0.00126608 0 -0.00126716 0.00481237 -0 0 -0 0)
(3.00019e-05 -0.000689915 0 -0.000690905 0.0158879 -0 0 -0 0)
(0.000148777 0.00314189 -0 0.0031432 0.0663787 -0 -0 -0 0)
(4.11751e-07 2.23128e-05 0 2.20162e-05 0.00119306 0 0 0 0)
(1.16353e-05 0.000150512 0 0.000149262 0.00193083 0 0 0 0)
(5.13091e-05 0.000328406 0 0.000326254 0.0020882 0 0 0 0)
(0.000135223 0.000532636 0 0.000529842 0.00208702 0 0 0 0)
(0.000285237 0.000767293 0 0.000763951 0.00205504 0 0 0 0)
(0.000525941 0.00103179 0 0.00102785 0.00201643 0 0 0 0)
(0.000885248 0.00132144 0 0.00131674 0.00196554 0 0 0 0)
(0.00138855 0.00161683 0 0.0016111 0.00187597 0 0 0 0)
(0.0020462 0.00187036 0 0.00186332 0.00170319 0 0 0 0)
(0.00282145 0.0020006 0 0.00199228 0.00141266 0 0 0 0)
(0.0035973 0.00190761 0 0.00189841 0.00100671 0 0 0 0)
(0.00416702 0.001521 0 0.00151177 0.000551807 0 0 0 0)
(0.00433197 0.000877595 0 0.000869332 0.000176114 0 0 0 0)
(0.00399864 0.000119914 0 0.000113458 3.40243e-06 0 0 0 0)
(0.00322963 -0.000574695 0 -0.000578932 0.000103018 -0 0 -0 0)
(0.0022586 -0.00107494 0 -0.00107738 0.00051276 -0 0 -0 0)
(0.00123925 -0.00124581 0 -0.00124694 0.00125355 -0 0 -0 0)
(0.000481254 -0.0012412 0 -0.00124193 0.00320307 -0 0 -0 0)
(0.000114843 -0.00117606 0 -0.00117668 0.0120499 -0 0 -0 0)
(0.000130231 0.00297008 -0 0.00297216 0.0677839 -0 -0 -0 0)
(5.53905e-07 -2.17002e-05 -0 -2.17464e-05 0.000851953 0 -0 0 0)
(5.78542e-07 2.91928e-05 0 2.80785e-05 0.00141682 0 0 0 0)
(2.55835e-05 0.000201111 0 0.00019893 0.00156379 0 0 0 0)
(0.000108322 0.000413027 0 0.000410273 0.00156435 0 0 0 0)
(0.000272348 0.000644655 0 0.000641475 0.00151839 0 0 0 0)
(0.000541647 0.000888632 0 0.000885052 0.00145203 0 0 0 0)
(0.000936148 0.00113673 0 0.0011327 0.00137539 0 0 0 0)
(0.00146553 0.00137141 0 0.0013668 0.00127902 0 0 0 0)
(0.00211864 0.00155822 0 0.00155292 0.00114215 0 0 0 0)
(0.00284696 0.00164657 0 0.00164061 0.000948865 0 0 0 0)
(0.00355419 0.001582 0 0.00157558 0.000701307 0 0 0 0)
(0.00410003 0.00132685 0 0.00132035 0.00042729 0 0 0 0)
(0.00432897 0.000902089 0 0.000896371 0.000186789 0 0 0 0)
(0.00411631 0.000368519 0 0.000364024 3.25898e-05 0 0 0 0)
(0.003477 -0.000177419 0 -0.0001805 9.21024e-06 -0 0 -0 0)
(0.00260522 -0.000654747 0 -0.000656477 0.000164987 -0 0 -0 0)
(0.00148778 -0.00091106 0 -0.000911823 0.000558366 -0 0 -0 0)
(0.000971252 -0.00146132 0 -0.00146177 0.00219934 -0 0 -0 0)
(0.000351297 -0.00177366 0 -0.00177403 0.00895687 -0 0 -0 0)
(5.99238e-05 0.00206027 -0 0.00206278 0.0709215 -0 -0 -0 0)
(1.05475e-05 -0.000143439 -0 -0.000143444 0.00195074 0 -0 0 0)
(6.52885e-06 -0.00011913 -0 -0.000120294 0.00219496 0 -0 0 0)
(6.7888e-06 0.000112556 0 0.000110502 0.00183209 0 0 0 0)
(7.2593e-05 0.000328552 0 0.000326101 0.00147591 0 0 0 0)
(0.000237516 0.000543906 0 0.000541135 0.00123919 0 0 0 0)
(0.00053581 0.000760686 0 0.000757693 0.00107569 0 0 0 0)
(0.000987793 0.000972429 0 0.000969234 0.000954158 0 0 0 0)
(0.00159333 0.00116495 0 0.0011615 0.000849215 0 0 0 0)
(0.00232994 0.00131576 0 0.00131201 0.000740915 0 0 0 0)
(0.00314407 0.00139552 0 0.00139145 0.000617607 0 0 0 0)
(0.00394372 0.00137328 0 0.001369 0.000476713 0 0 0 0)
(0.00459572 0.00123546 0 0.00123137 0.000331027 0 0 0 0)
(0.00495241 0.000981942 0 0.000978239 0.000193961 0 0 0 0)
(0.00494369 0.000646061 0 0.000643247 8.4062e-05 0 0 0 0)
(0.00447073 0.000263366 0 0.000261463 1.54025e-05 0 0 0 0)
(0.00374958 -0.000187758 0 -0.000188827 9.45541e-06 -0 0 -0 0)
(0.00237597 -0.000625327 0 -0.000625807 0.000164705 -0 0 -0 0)
(0.00269779 -0.00197236 0 -0.00197268 0.00144223 -0 0 -0 0)
(0.000510813 -0.00171999 0 -0.00172031 0.00579254 -0 0 -0 0)
(3.00288e-05 -0.00147003 0 -0.00146728 0.0718291 -0 0 -0 0)
(4.45467e-05 -9.87272e-05 -0 -9.85013e-05 0.000218305 0 -0 0 0)
(9.89718e-05 -9.386e-05 -0 -9.38358e-05 8.89893e-05 0 -0 0 0)
(4.8291e-07 8.05971e-06 0 7.85979e-06 0.000131179 0 0 0 0)
(0.000159733 0.00019291 0 0.000192447 0.000232419 0 0 0 0)
(0.000602606 0.000401934 0 0.000401344 0.000267693 0 0 0 0)
(0.00132831 0.000592876 0 0.000592234 0.000264338 0 0 0 0)
(0.00229466 0.00076145 0 0.00076073 0.000252438 0 0 0 0)
(0.00346047 0.000911118 0 0.000910241 0.00023966 0 0 0 0)
(0.00477983 0.00103351 0 0.00103239 0.000223226 0 0 0 0)
(0.00619216 0.00111372 0 0.0011123 0.000200059 0 0 0 0)
(0.00760977 0.00113728 0 0.00113555 0.000169707 0 0 0 0)
(0.0089221 0.00109594 0 0.00109403 0.000134384 0 0 0 0)
(0.010001 0.00098845 0 0.000986514 9.75021e-05 0 0 0 0)
(0.0107922 0.000811031 0 0.000809316 6.08201e-05 0 0 0 0)
(0.0110625 0.0005683 0 0.000566992 2.91275e-05 0 0 0 0)
(0.0112245 0.000143669 0 0.000142748 1.82711e-06 0 0 0 0)
(0.00915242 -0.000375083 0 -0.000375575 1.53917e-05 -0 0 -0 0)
(0.0113156 -0.00226374 0 -0.00226386 0.000452897 -0 0 -0 0)
(0.000879952 -0.00125044 0 -0.00125056 0.00177709 -0 0 -0 0)
(0.00512933 -0.0161936 0 -0.016192 0.0511189 -0 0 -0 0)
(0.00163338 0.00376145 0 0.00376182 0.00866298 0 0 0 0)
(0.00370138 0.00423612 0 0.00423652 0.00484856 0 0 0 0)
(0.00747391 0.00376745 0 0.00376717 0.00189896 0 0 0 0)
(0.0118185 0.00314563 0 0.00314499 0.000837076 0 0 0 0)
(0.0159695 0.00269445 0 0.00269372 0.000454498 0 0 0 0)
(0.0200311 0.00239071 0 0.00239003 0.000285248 0 0 0 0)
(0.0241948 0.0021754 0 0.00217486 0.000195546 0 0 0 0)
(0.0284696 0.00201145 0 0.00201106 0.000142087 0 0 0 0)
(0.032788 0.00187738 0 0.00187714 0.000107482 0 0 0 0)
(0.0370881 0.00176308 0 0.00176294 8.38057e-05 0 0 0 0)
(0.0412888 0.00165527 0 0.0016552 6.63569e-05 0 0 0 0)
(0.04529 0.0015468 0 0.00154677 5.28274e-05 0 0 0 0)
(0.0489399 0.00142983 0 0.0014298 4.17732e-05 0 0 0 0)
(0.0521761 0.00129392 0 0.00129388 3.2087e-05 0 0 0 0)
(0.0544675 0.00111282 0 0.00111269 2.27332e-05 0 0 0 0)
(0.056896 0.000835938 0 0.000835752 1.22792e-05 0 0 0 0)
(0.053578 0.000480723 0 0.000480446 4.31075e-06 0 0 0 0)
(0.0636036 -0.000779587 0 -0.000779829 9.55833e-06 -0 0 -0 0)
(0.0158057 0.000434942 0 0.000434463 1.19556e-05 0 0 0 0)
(0.14329 -0.0371791 0 -0.0371792 0.00964677 -0 0 -0 0)
)
;

boundaryField
{
    movingWall
    {
        type            calculated;
        value           uniform (1 0 0 0 0 0 0 0 0);
    }
    fixedWalls
    {
        type            calculated;
        value           uniform (0 0 0 0 0 0 0 0 0);
    }
    frontAndBack
    {
        type            empty;
    }
}


// ************************************************************************* //
