/*--------------------------------*- C++ -*----------------------------------*\
| =========                 |                                                 |
| \\      /  F ield         | OpenFOAM: The Open Source CFD Toolbox           |
|  \\    /   O peration     | Version:  2312                                  |
|   \\  /    A nd           | Website:  www.openfoam.com                      |
|    \\/     M anipulation  |                                                 |
\*---------------------------------------------------------------------------*/
FoamFile
{
    version     2.0;
    format      ascii;
    arch        "LSB;label=32;scalar=64";
    class       vectorField;
    location    "2";
    object      U_all;
}
// * * * * * * * * * * * * * * * * * * * * * * * * * * * * * * * * * * * * * //


400
(
(-0.000259338 0.000210241 0)
(-0.00234531 0.00105993 0)
(-0.00630765 0.00160757 0)
(-0.0109342 0.00188579 0)
(-0.0160629 0.00221329 0)
(-0.0218042 0.00270049 0)
(-0.028191 0.00323574 0)
(-0.0350739 0.00363898 0)
(-0.0422726 0.0038231 0)
(-0.0494532 0.00369639 0)
(-0.055765 0.00303676 0)
(-0.0599166 0.00160387 0)
(-0.0603631 -0.000640366 0)
(-0.0559074 -0.00333056 0)
(-0.0464735 -0.00570285 0)
(-0.0333956 -0.00705133 0)
(-0.0190236 -0.00658313 0)
(-0.00628368 -0.00408119 0)
(0.000523718 -0.00124164 0)
(0.0012027 0.000848662 0)
(-0.00134644 0.0024732 0)
(-0.00570777 0.00562109 0)
(-0.0118783 0.00739136 0)
(-0.0189661 0.00828525 0)
(-0.0265806 0.00906118 0)
(-0.0344151 0.00979104 0)
(-0.0422006 0.0103144 0)
(-0.0500635 0.0106807 0)
(-0.0584015 0.0108365 0)
(-0.0672478 0.0102359 0)
(-0.0757828 0.00804354 0)
(-0.0823389 0.00381108 0)
(-0.084927 -0.00223492 0)
(-0.0817848 -0.00929608 0)
(-0.0721485 -0.0162107 0)
(-0.0567006 -0.0208911 0)
(-0.0372561 -0.0210338 0)
(-0.0170435 -0.0153399 0)
(-0.00242117 -0.00610884 0)
(0.0011072 0.000970851 0)
(-0.00249604 0.00705496 0)
(-0.00816219 0.0118253 0)
(-0.0150169 0.0145995 0)
(-0.0228509 0.0162357 0)
(-0.0312327 0.0173308 0)
(-0.0397019 0.0180147 0)
(-0.0482865 0.0185902 0)
(-0.0578793 0.0195387 0)
(-0.0694159 0.0207147 0)
(-0.0828918 0.0210145 0)
(-0.0968938 0.0186579 0)
(-0.108793 0.0118482 0)
(-0.115778 0.000294371 0)
(-0.116295 -0.0143586 0)
(-0.108509 -0.0292928 0)
(-0.0924964 -0.0407476 0)
(-0.0689009 -0.0448494 0)
(-0.0398663 -0.0371837 0)
(-0.0101279 -0.0181216 0)
(0.00124947 0.000108287 0)
(-0.0031705 0.0127789 0)
(-0.0096137 0.0186091 0)
(-0.0167165 0.0220473 0)
(-0.0246063 0.0243073 0)
(-0.0330399 0.0258051 0)
(-0.0418853 0.0269119 0)
(-0.0518199 0.0286843 0)
(-0.064314 0.0320093 0)
(-0.0803823 0.0360209 0)
(-0.0992808 0.037804 0)
(-0.117831 0.0337153 0)
(-0.131949 0.0220786 0)
(-0.139113 0.0038575 0)
(-0.13963 -0.0185 0)
(-0.135069 -0.0419549 0)
(-0.123464 -0.0630326 0)
(-0.10268 -0.076034 0)
(-0.0712675 -0.0730141 0)
(-0.0324327 -0.046858 0)
(-0.000533114 -0.00778046 0)
(-0.00338287 0.0191052 0)
(-0.0100734 0.0257208 0)
(-0.0170444 0.0295292 0)
(-0.024617 0.0322716 0)
(-0.0328063 0.0343938 0)
(-0.041822 0.0366857 0)
(-0.0527702 0.0408616 0)
(-0.0672891 0.0476705 0)
(-0.08579 0.0547505 0)
(-0.10557 0.0567799 0)
(-0.122085 0.0493027 0)
(-0.132404 0.0318093 0)
(-0.136787 0.00707893 0)
(-0.136489 -0.0206044 0)
(-0.132924 -0.0488811 0)
(-0.127439 -0.0766534 0)
(-0.116732 -0.100552 0)
(-0.0943441 -0.110986 0)
(-0.056748 -0.0904401 0)
(-0.0108119 -0.0274613 0)
(-0.00320883 0.0254475 0)
(-0.00963767 0.0326744 0)
(-0.0161242 0.0366805 0)
(-0.0230569 0.03989 0)
(-0.0306801 0.0429095 0)
(-0.0393651 0.0469269 0)
(-0.0503262 0.0540249 0)
(-0.064904 0.0643466 0)
(-0.0821732 0.0730126 0)
(-0.0985538 0.0728502 0)
(-0.109744 0.0600299 0)
(-0.113841 0.0364004 0)
(-0.111891 0.00783753 0)
(-0.107555 -0.0213492 0)
(-0.103875 -0.0495414 0)
(-0.102395 -0.0780968 0)
(-0.101749 -0.108569 0)
(-0.0941558 -0.135581 0)
(-0.0690069 -0.136295 0)
(-0.0264546 -0.0711413 0)
(-0.00275124 0.0312903 0)
(-0.00848163 0.0390333 0)
(-0.0141633 0.0431345 0)
(-0.0201432 0.0467704 0)
(-0.0267741 0.0507792 0)
(-0.0343542 0.0565754 0)
(-0.0438061 0.0662812 0)
(-0.0558465 0.0788614 0)
(-0.0690718 0.087209 0)
(-0.0801355 0.0836892 0)
(-0.0856087 0.0651814 0)
(-0.0848536 0.0360576 0)
(-0.080703 0.00421088 0)
(-0.0758862 -0.0253513 0)
(-0.0711474 -0.0518324 0)
(-0.0684046 -0.0765741 0)
(-0.0701939 -0.104898 0)
(-0.0733398 -0.141107 0)
(-0.0637986 -0.169044 0)
(-0.0316526 -0.122549 0)
(-0.00209815 0.0362042 0)
(-0.00679876 0.0444384 0)
(-0.0114083 0.048568 0)
(-0.0161479 0.0525178 0)
(-0.0213172 0.0573145 0)
(-0.0269989 0.0643563 0)
(-0.033581 0.0755365 0)
(-0.0413854 0.0890124 0)
(-0.0491273 0.0961596 0)
(-0.0551324 0.0893724 0)
(-0.0573058 0.0664991 0)
(-0.0561942 0.0337821 0)
(-0.0537301 -0.000164138 0)
(-0.050249 -0.0311163 0)
(-0.0457801 -0.0576643 0)
(-0.0418263 -0.0795333 0)
(-0.0411199 -0.101772 0)
(-0.0463005 -0.135304 0)
(-0.0473981 -0.181271 0)
(-0.0283577 -0.170816 0)
(-0.00133912 0.0398948 0)
(-0.00479701 0.0486298 0)
(-0.00815021 0.0527344 0)
(-0.0114381 0.0567666 0)
(-0.0147996 0.0618942 0)
(-0.0181064 0.0693366 0)
(-0.0211396 0.0806421 0)
(-0.0240037 0.0937754 0)
(-0.0258704 0.0994892 0)
(-0.0273818 0.0917446 0)
(-0.0276371 0.0675035 0)
(-0.0273037 0.0335389 0)
(-0.0269362 -0.00170863 0)
(-0.0256527 -0.0347078 0)
(-0.0231105 -0.0622684 0)
(-0.0211855 -0.083134 0)
(-0.0205247 -0.101981 0)
(-0.0245681 -0.129196 0)
(-0.0295827 -0.180829 0)
(-0.0211305 -0.205539 0)
(-0.00055349 0.0422026 0)
(-0.00265703 0.0514498 0)
(-0.00465439 0.0554477 0)
(-0.00640966 0.0592905 0)
(-0.0078642 0.064229 0)
(-0.0087369 0.0712372 0)
(-0.00832904 0.0814256 0)
(-0.00644709 0.0931782 0)
(-0.00310272 0.0982442 0)
(0.00028196 0.0910647 0)
(0.00245791 0.0678089 0)
(0.0029332 0.0347338 0)
(0.00188906 -0.0007712 0)
(0.000838834 -0.0346151 0)
(1.32164e-05 -0.062544 0)
(-0.00210784 -0.0828823 0)
(-0.00461756 -0.100387 0)
(-0.00982101 -0.124643 0)
(-0.0160768 -0.176467 0)
(-0.014838 -0.226575 0)
(0.000198921 0.0430951 0)
(-0.000568973 0.0528546 0)
(-0.00121429 0.0566825 0)
(-0.00148807 0.0601008 0)
(-0.0011587 0.0643919 0)
(0.000121968 0.0702829 0)
(0.00324702 0.0784934 0)
(0.00883114 0.0879512 0)
(0.0164039 0.0923574 0)
(0.0241883 0.0862834 0)
(0.0296086 0.0665705 0)
(0.0317229 0.0363326 0)
(0.0308289 0.00200907 0)
(0.0277453 -0.0310926 0)
(0.0221328 -0.0583121 0)
(0.0151667 -0.0782568 0)
(0.00870273 -0.0950886 0)
(0.000675148 -0.118021 0)
(-0.00704132 -0.170323 0)
(-0.011564 -0.239084 0)
(0.000800792 0.0426499 0)
(0.00127954 0.0529023 0)
(0.00188432 0.0565198 0)
(0.0029274 0.0593519 0)
(0.00475447 0.0627132 0)
(0.00773152 0.067124 0)
(0.0126258 0.0729568 0)
(0.0203304 0.079484 0)
(0.0303088 0.0825161 0)
(0.0410154 0.0772407 0)
(0.0494464 0.0612602 0)
(0.0538526 0.0358944 0)
(0.0536332 0.00573578 0)
(0.0490194 -0.0243603 0)
(0.0397872 -0.0499782 0)
(0.0290049 -0.0696226 0)
(0.0190432 -0.0862958 0)
(0.00817622 -0.108539 0)
(-0.0014543 -0.162305 0)
(-0.0104708 -0.246612 0)
(0.0012259 0.0411432 0)
(0.00273675 0.0517507 0)
(0.00442928 0.055129 0)
(0.00658643 0.0573056 0)
(0.00958477 0.0596437 0)
(0.0137544 0.062536 0)
(0.019613 0.0660691 0)
(0.0279302 0.069675 0)
(0.0385794 0.0708493 0)
(0.0500415 0.0659897 0)
(0.0596879 0.0532475 0)
(0.0653554 0.032904 0)
(0.0657026 0.00812787 0)
(0.060547 -0.0171057 0)
(0.050359 -0.0395438 0)
(0.0380617 -0.0582504 0)
(0.0260215 -0.0747885 0)
(0.0131362 -0.0967601 0)
(0.00169628 -0.152244 0)
(-0.0106892 -0.251746 0)
(0.00140882 0.0389203 0)
(0.00368593 0.0496577 0)
(0.00626716 0.0527207 0)
(0.00934824 0.0542208 0)
(0.0132494 0.0555672 0)
(0.0182072 0.0571066 0)
(0.0245325 0.0587775 0)
(0.0326566 0.0600783 0)
(0.0426215 0.0595486 0)
(0.0532898 0.0550543 0)
(0.0625643 0.0449766 0)
(0.0681748 0.0293806 0)
(0.0687842 0.0103101 0)
(0.0641772 -0.00975503 0)
(0.0549001 -0.0287163 0)
(0.0428754 -0.0459049 0)
(0.0302112 -0.0618151 0)
(0.0161272 -0.0833515 0)
(0.00339481 -0.140361 0)
(-0.0115437 -0.255339 0)
(0.00131902 0.0361026 0)
(0.00395078 0.0467263 0)
(0.00723359 0.0494125 0)
(0.0110968 0.0502567 0)
(0.0157307 0.0507362 0)
(0.0212567 0.0511817 0)
(0.0278274 0.0515072 0)
(0.0355615 0.0513014 0)
(0.0443899 0.0496794 0)
(0.0535842 0.0455045 0)
(0.0616498 0.0377555 0)
(0.0667428 0.0262525 0)
(0.0677131 0.0119979 0)
(0.0640789 -0.00338644 0)
(0.0562115 -0.0188188 0)
(0.0453966 -0.0338411 0)
(0.0328996 -0.048428 0)
(0.0182482 -0.0693614 0)
(0.00547341 -0.126046 0)
(-0.0121954 -0.257651 0)
(0.000646329 0.034559 0)
(0.00342828 0.0439794 0)
(0.0071938 0.0457425 0)
(0.0116708 0.0457295 0)
(0.0169416 0.0453748 0)
(0.0229962 0.0449414 0)
(0.029826 0.0443639 0)
(0.0373457 0.0433314 0)
(0.0453242 0.0412732 0)
(0.0532068 0.0375704 0)
(0.0600569 0.0316938 0)
(0.064612 0.0234408 0)
(0.0658534 0.0132154 0)
(0.0632491 0.00179463 0)
(0.0568287 -0.0101869 0)
(0.0475151 -0.0226653 0)
(0.035191 -0.0354095 0)
(0.0219296 -0.056592 0)
(0.0107138 -0.109774 0)
(-0.0114084 -0.260366 0)
(-0.000743557 0.0291921 0)
(0.000776044 0.0376639 0)
(0.00508974 0.0395765 0)
(0.0104516 0.0395856 0)
(0.0165573 0.0389982 0)
(0.0233371 0.0381328 0)
(0.0306684 0.0371074 0)
(0.0383604 0.0357763 0)
(0.0461097 0.0337975 0)
(0.0534358 0.0307933 0)
(0.0596876 0.0264597 0)
(0.0640884 0.0206386 0)
(0.0658331 0.0136316 0)
(0.064178 0.00567555 0)
(0.058971 -0.00306133 0)
(0.0510374 -0.0128607 0)
(0.0385627 -0.0236341 0)
(0.0311614 -0.0468992 0)
(0.0187421 -0.0946465 0)
(-0.00773668 -0.266322 0)
(-0.00324728 0.0441625 0)
(-0.0025435 0.0468639 0)
(0.00263086 0.0428229 0)
(0.00855719 0.0384404 0)
(0.0154607 0.0352243 0)
(0.0232072 0.0328175 0)
(0.031497 0.0309052 0)
(0.0399898 0.0291515 0)
(0.0483446 0.0272231 0)
(0.0561444 0.0248474 0)
(0.0628642 0.0218224 0)
(0.0678443 0.0181781 0)
(0.0704114 0.0139082 0)
(0.0703346 0.00915156 0)
(0.0668735 0.00391098 0)
(0.0612358 -0.0030838 0)
(0.0487407 -0.0128378 0)
(0.0519428 -0.0379816 0)
(0.0226012 -0.0761159 0)
(0.00548519 -0.268019 0)
(-0.00667763 0.0147655 0)
(-0.00995052 0.00943415 0)
(0.000704154 0.0114607 0)
(0.012661 0.0152541 0)
(0.0245813 0.0163714 0)
(0.0364888 0.0162688 0)
(0.0479534 0.0158976 0)
(0.058882 0.0154883 0)
(0.069195 0.0149453 0)
(0.0787478 0.0141455 0)
(0.0872871 0.0130252 0)
(0.0945024 0.0115879 0)
(0.100042 0.00986825 0)
(0.103913 0.00779254 0)
(0.105198 0.00539178 0)
(0.10596 0.00134754 0)
(0.0956789 -0.00392624 0)
(0.106385 -0.021284 0)
(0.0296657 -0.04216 0)
(0.0716247 -0.226101 0)
(0.0404135 0.0930763 0)
(0.0608336 0.0696288 0)
(0.0864483 0.0435737 0)
(0.108712 0.0289291 0)
(0.126374 0.0213166 0)
(0.14154 0.0168879 0)
(0.15556 0.0139832 0)
(0.168748 0.0119202 0)
(0.181097 0.0103679 0)
(0.192607 0.00915533 0)
(0.203221 0.0081468 0)
(0.212838 0.00726898 0)
(0.221245 0.00646378 0)
(0.228439 0.00566489 0)
(0.233398 0.00476796 0)
(0.238541 0.00350396 0)
(0.23148 0.00207573 0)
(0.252205 -0.00309223 0)
(0.125729 0.003456 0)
(0.378541 -0.0982191 0)
)


// ************************************************************************* //
