/*--------------------------------*- C++ -*----------------------------------*\
| =========                 |                                                 |
| \\      /  F ield         | OpenFOAM: The Open Source CFD Toolbox           |
|  \\    /   O peration     | Version:  2312                                  |
|   \\  /    A nd           | Website:  www.openfoam.com                      |
|    \\/     M anipulation  |                                                 |
\*---------------------------------------------------------------------------*/
FoamFile
{
    version     2.0;
    format      ascii;
    arch        "LSB;label=32;scalar=64";
    class       volVectorField;
    location    "2";
    object      UMean;
}
// * * * * * * * * * * * * * * * * * * * * * * * * * * * * * * * * * * * * * //

dimensions      [0 1 -1 0 0 0 0];

internalField   nonuniform List<vector> 
400
(
(-0.000217652 0.000211993 0)
(-0.00131428 0.000678329 0)
(-0.00325081 0.000973918 0)
(-0.00544897 0.00108249 0)
(-0.00776843 0.00112081 0)
(-0.0101496 0.00115157 0)
(-0.0125622 0.00118136 0)
(-0.0149414 0.00118159 0)
(-0.0171748 0.00110806 0)
(-0.0191031 0.000918502 0)
(-0.0204718 0.000593537 0)
(-0.02103 0.000136994 0)
(-0.0205375 -0.000528059 0)
(-0.0187407 -0.00123497 0)
(-0.0157426 -0.00186344 0)
(-0.0118516 -0.00221998 0)
(-0.00764865 -0.00216582 0)
(-0.00380383 -0.00165728 0)
(-0.00105758 -0.00084265 0)
(1.47908e-05 -5.65363e-05 0)
(-0.000714032 0.00133861 0)
(-0.00259937 0.00262647 0)
(-0.00506882 0.00334064 0)
(-0.00780404 0.00365346 0)
(-0.0106814 0.00379098 0)
(-0.0136154 0.0038439 0)
(-0.0165101 0.00379627 0)
(-0.0192534 0.00359586 0)
(-0.0217388 0.0031858 0)
(-0.0238508 0.00250291 0)
(-0.0254179 0.00147974 0)
(-0.0261896 7.47211e-05 0)
(-0.0258557 -0.00168851 0)
(-0.0241129 -0.00361712 0)
(-0.0208821 -0.00533368 0)
(-0.0163978 -0.00638093 0)
(-0.0112429 -0.00636999 0)
(-0.00628184 -0.00515723 0)
(-0.00244113 -0.00311396 0)
(-0.000435573 -0.000956802 0)
(-0.00112415 0.00334333 0)
(-0.00342378 0.00508132 0)
(-0.00603856 0.00602054 0)
(-0.00888494 0.00651819 0)
(-0.0118783 0.00676609 0)
(-0.0149364 0.0068279 0)
(-0.0179719 0.00668059 0)
(-0.0209204 0.00628617 0)
(-0.0237593 0.00560081 0)
(-0.0264546 0.00454275 0)
(-0.0288672 0.00297226 0)
(-0.0306811 0.000724516 0)
(-0.0314001 -0.00224992 0)
(-0.0304741 -0.00571182 0)
(-0.0275029 -0.00904877 0)
(-0.0225205 -0.011387 0)
(-0.0160212 -0.0118638 0)
(-0.00910918 -0.0100417 0)
(-0.00327285 -0.00644454 0)
(-0.000522846 -0.00258229 0)
(-0.00132119 0.00569649 0)
(-0.00384912 0.00772773 0)
(-0.00654511 0.00878469 0)
(-0.00941727 0.00941885 0)
(-0.0124268 0.00977636 0)
(-0.0155352 0.00988893 0)
(-0.0187245 0.00974823 0)
(-0.0220362 0.00936715 0)
(-0.0255746 0.00872591 0)
(-0.0294043 0.00766597 0)
(-0.0333517 0.00582367 0)
(-0.0368733 0.00276768 0)
(-0.0391792 -0.00169554 0)
(-0.0395105 -0.00727553 0)
(-0.0372566 -0.0130969 0)
(-0.0321004 -0.017775 0)
(-0.0242377 -0.0197435 0)
(-0.0146667 -0.0177027 0)
(-0.00532806 -0.0117177 0)
(-0.000359873 -0.00453234 0)
(-0.00137235 0.00821769 0)
(-0.00398369 0.0104924 0)
(-0.00670104 0.0116083 0)
(-0.00955931 0.0123462 0)
(-0.0125616 0.0128314 0)
(-0.0157195 0.0130882 0)
(-0.0191059 0.0131551 0)
(-0.0228848 0.0131128 0)
(-0.0272776 0.0129306 0)
(-0.0323679 0.0122502 0)
(-0.037839 0.0103556 0)
(-0.042943 0.00649406 0)
(-0.0467347 0.000314537 0)
(-0.0483709 -0.00777471 0)
(-0.0472336 -0.0166896 0)
(-0.0427829 -0.0247443 0)
(-0.0346704 -0.0296697 0)
(-0.0231929 -0.0289266 0)
(-0.0101827 -0.0208663 0)
(-0.000775076 -0.0077459 0)
(-0.00133515 0.0107512 0)
(-0.00391279 0.0132603 0)
(-0.00658398 0.0144171 0)
(-0.00937661 0.0152537 0)
(-0.0123268 0.0159069 0)
(-0.0154928 0.0164233 0)
(-0.0190168 0.0169101 0)
(-0.0231506 0.017509 0)
(-0.0281529 0.0181005 0)
(-0.0340603 0.0180112 0)
(-0.0404572 0.0161352 0)
(-0.046509 0.0114479 0)
(-0.051245 0.0036014 0)
(-0.0538867 -0.00694175 0)
(-0.0539084 -0.0189485 0)
(-0.0508662 -0.0307312 0)
(-0.0439939 -0.0398165 0)
(-0.0324933 -0.0425845 0)
(-0.0170121 -0.0345661 0)
(-0.00296325 -0.0144551 0)
(-0.00124118 0.0131851 0)
(-0.00369337 0.0159414 0)
(-0.00624641 0.0171396 0)
(-0.00890461 0.0180741 0)
(-0.0117221 0.0189259 0)
(-0.014782 0.0197833 0)
(-0.0182506 0.02082 0)
(-0.0223894 0.0222127 0)
(-0.0274482 0.0236926 0)
(-0.0334467 0.0242763 0)
(-0.0399901 0.022494 0)
(-0.0462961 0.0170955 0)
(-0.0514857 0.00773914 0)
(-0.0548013 -0.00494232 0)
(-0.0558059 -0.0196896 0)
(-0.0541767 -0.0347913 0)
(-0.0492911 -0.0481878 0)
(-0.0396239 -0.0562398 0)
(-0.0238581 -0.0518649 0)
(-0.00627197 -0.0265012 0)
(-0.00110834 0.0154343 0)
(-0.00336271 0.0184573 0)
(-0.0057279 0.0197002 0)
(-0.00817361 0.0207225 0)
(-0.0107519 0.0217687 0)
(-0.0135407 0.0229698 0)
(-0.0166832 0.0245452 0)
(-0.0203859 0.0266914 0)
(-0.0248566 0.0290198 0)
(-0.0301953 0.0302756 0)
(-0.0361806 0.0287147 0)
(-0.0422565 0.0228695 0)
(-0.0476655 0.0123117 0)
(-0.0516729 -0.00223653 0)
(-0.0535779 -0.0194207 0)
(-0.0530806 -0.0372841 0)
(-0.049971 -0.0542163 0)
(-0.0428957 -0.0677202 0)
(-0.0288511 -0.0701237 0)
(-0.00944473 -0.0438509 0)
(-0.000951856 0.0174371 0)
(-0.00295553 0.0207424 0)
(-0.00507368 0.0220254 0)
(-0.00723385 0.0231036 0)
(-0.00946467 0.0242908 0)
(-0.0118165 0.0257513 0)
(-0.014376 0.0277209 0)
(-0.0172616 0.030409 0)
(-0.0206055 0.0333663 0)
(-0.0245844 0.0353383 0)
(-0.029372 0.0343322 0)
(-0.0347642 0.0285153 0)
(-0.0402535 0.0172655 0)
(-0.0449303 0.00115951 0)
(-0.0477862 -0.0181887 0)
(-0.0485259 -0.0385971 0)
(-0.0470241 -0.058373 0)
(-0.0424513 -0.0763787 0)
(-0.0312555 -0.0868774 0)
(-0.0117904 -0.0650763 0)
(-0.000788852 0.0191559 0)
(-0.00251229 0.0227488 0)
(-0.00434328 0.0240538 0)
(-0.00616357 0.0251309 0)
(-0.0079641 0.0263621 0)
(-0.00975605 0.0279335 0)
(-0.0115632 0.0300688 0)
(-0.0133898 0.0329724 0)
(-0.0153085 0.0362811 0)
(-0.0174888 0.0388249 0)
(-0.020316 0.0386504 0)
(-0.0242493 0.0336747 0)
(-0.0292094 0.0226689 0)
(-0.0342571 0.00574213 0)
(-0.0383378 -0.0154255 0)
(-0.0408339 -0.0382759 0)
(-0.0412956 -0.0606439 0)
(-0.0392156 -0.0823503 0)
(-0.0313177 -0.100959 0)
(-0.0132745 -0.0879893 0)
(-0.0006402 0.0205874 0)
(-0.00208471 0.0244553 0)
(-0.0036155 0.025749 0)
(-0.00506932 0.026748 0)
(-0.00639617 0.0279 0)
(-0.00756968 0.0294026 0)
(-0.00856653 0.0314503 0)
(-0.00930234 0.0342165 0)
(-0.00975334 0.0374801 0)
(-0.0100036 0.0402795 0)
(-0.0105649 0.0409662 0)
(-0.012129 0.0374259 0)
(-0.0154006 0.0277639 0)
(-0.020304 0.0111908 0)
(-0.0256417 -0.010864 0)
(-0.0302432 -0.0355217 0)
(-0.0331751 -0.0604004 0)
(-0.033906 -0.0855496 0)
(-0.0295887 -0.111854 0)
(-0.0142517 -0.111095 0)
(-0.000529205 0.0217566 0)
(-0.00173936 0.0258761 0)
(-0.00298785 0.0271056 0)
(-0.00407885 0.0279366 0)
(-0.00492844 0.02888 0)
(-0.00548527 0.0301428 0)
(-0.00570318 0.0318824 0)
(-0.0054663 0.0342221 0)
(-0.00466849 0.0370303 0)
(-0.00332313 0.0396121 0)
(-0.00178829 0.0407137 0)
(-0.0008121 0.0385597 0)
(-0.00152255 0.0312344 0)
(-0.00489435 0.0169397 0)
(-0.0107748 -0.00436403 0)
(-0.0175181 -0.0298537 0)
(-0.0232025 -0.057064 0)
(-0.0270187 -0.085446 0)
(-0.0266301 -0.119317 0)
(-0.0150247 -0.133542 0)
(-0.000501451 0.0227512 0)
(-0.0015592 0.0270597 0)
(-0.00257018 0.028148 0)
(-0.00332245 0.0287087 0)
(-0.00371437 0.0293202 0)
(-0.00369189 0.0302045 0)
(-0.00321219 0.0314855 0)
(-0.00218049 0.0332262 0)
(-0.00046637 0.0353231 0)
(0.00196637 0.0373062 0)
(0.00488736 0.0382924 0)
(0.00770942 0.0370055 0)
(0.00935906 0.0317904 0)
(0.00828951 0.0208989 0)
(0.00346351 0.0027181 0)
(-0.00423416 -0.022065 0)
(-0.01233 -0.0505232 0)
(-0.0191203 -0.0817251 0)
(-0.0229645 -0.122963 0)
(-0.0158115 -0.154863 0)
(-0.000592375 0.0237668 0)
(-0.00163079 0.0281127 0)
(-0.00247416 0.0289304 0)
(-0.00291717 0.029095 0)
(-0.00287248 0.0292553 0)
(-0.00231065 0.0296535 0)
(-0.00121526 0.0303925 0)
(0.000462103 0.0314877 0)
(0.00281046 0.0328308 0)
(0.00587575 0.034096 0)
(0.00952063 0.0346869 0)
(0.0132974 0.0337486 0)
(0.016374 0.0301505 0)
(0.0174382 0.022327 0)
(0.0146367 0.00841699 0)
(0.00772726 -0.0133493 0)
(-0.00160944 -0.0412481 0)
(-0.0108255 -0.0744388 0)
(-0.0188709 -0.12214 0)
(-0.0166938 -0.174215 0)
(-0.00088223 0.0247826 0)
(-0.00211017 0.0290806 0)
(-0.00282838 0.0294608 0)
(-0.00296095 0.0290857 0)
(-0.00247204 0.0286908 0)
(-0.00138551 0.0285315 0)
(0.000273635 0.028697 0)
(0.00250511 0.0291735 0)
(0.00533963 0.0298452 0)
(0.0087859 0.0304648 0)
(0.0127478 0.0306355 0)
(0.0169131 0.0297996 0)
(0.0206972 0.0272302 0)
(0.0231614 0.021814 0)
(0.0226602 0.0117586 0)
(0.0177113 -0.0052624 0)
(0.00860681 -0.0303861 0)
(-0.00227314 -0.064162 0)
(-0.013749 -0.11603 0)
(-0.0173899 -0.190647 0)
(-0.00145575 0.0271448 0)
(-0.0030227 0.0304187 0)
(-0.0036619 0.0298642 0)
(-0.0034483 0.0287075 0)
(-0.00246661 0.0276419 0)
(-0.000837156 0.0268781 0)
(0.00137125 0.0264728 0)
(0.00412027 0.0263857 0)
(0.00739598 0.0264973 0)
(0.0111658 0.0266098 0)
(0.0153368 0.0264449 0)
(0.0196859 0.0256336 0)
(0.0238117 0.023705 0)
(0.027078 0.0199461 0)
(0.0283072 0.0129585 0)
(0.0258437 0.000542227 0)
(0.0178654 -0.0198731 0)
(0.00747649 -0.0523214 0)
(-0.00593447 -0.10491 0)
(-0.0172341 -0.205337 0)
(-0.00276892 0.026487 0)
(-0.00523147 0.0297128 0)
(-0.00524311 0.0288145 0)
(-0.00425706 0.0272749 0)
(-0.00255237 0.0257873 0)
(-0.000272931 0.0245685 0)
(0.00254797 0.0237043 0)
(0.00585418 0.0231619 0)
(0.00961118 0.022837 0)
(0.0137731 0.0225735 0)
(0.0182495 0.0221686 0)
(0.0228627 0.0213691 0)
(0.0273217 0.0198624 0)
(0.0311611 0.017218 0)
(0.0335018 0.0125571 0)
(0.0333058 0.00386407 0)
(0.0269025 -0.0109888 0)
(0.020497 -0.0409973 0)
(0.00436914 -0.0911175 0)
(-0.015419 -0.222046 0)
(-0.00441686 0.0438186 0)
(-0.00671268 0.04063 0)
(-0.00544856 0.0345078 0)
(-0.00331715 0.0294229 0)
(-0.000675077 0.0258971 0)
(0.00256997 0.023351 0)
(0.0063771 0.0215295 0)
(0.0106117 0.0202505 0)
(0.0151979 0.0193234 0)
(0.0200865 0.0185825 0)
(0.0251963 0.0178693 0)
(0.0303785 0.0170185 0)
(0.0353444 0.0158503 0)
(0.0397887 0.0140624 0)
(0.0429264 0.0112236 0)
(0.044695 0.00562512 0)
(0.0393481 -0.00454985 0)
(0.0424485 -0.0301379 0)
(0.0118635 -0.0720106 0)
(-0.00610671 -0.236121 0)
(-0.0066152 0.0170151 0)
(-0.00911876 0.010193 0)
(-0.00197818 0.00994805 0)
(0.00589853 0.0124006 0)
(0.0141963 0.0129201 0)
(0.0222341 0.0123526 0)
(0.0298219 0.0117439 0)
(0.0370227 0.0113096 0)
(0.0439533 0.0109651 0)
(0.050713 0.0106369 0)
(0.0573327 0.0102864 0)
(0.0637794 0.00986262 0)
(0.069897 0.00930232 0)
(0.0756339 0.00841567 0)
(0.0800801 0.00707474 0)
(0.084755 0.00406227 0)
(0.079255 -0.000230978 0)
(0.09246 -0.0156376 0)
(0.0218249 -0.0367437 0)
(0.0541327 -0.208331 0)
(0.0399921 0.0916368 0)
(0.0608858 0.0667163 0)
(0.084918 0.040714 0)
(0.104986 0.0264884 0)
(0.120002 0.0191369 0)
(0.132338 0.0148692 0)
(0.143413 0.0120821 0)
(0.153603 0.0101226 0)
(0.16303 0.00866493 0)
(0.171824 0.00754363 0)
(0.180084 0.00664792 0)
(0.187859 0.00590354 0)
(0.19508 0.00525868 0)
(0.201807 0.00465286 0)
(0.207101 0.00400613 0)
(0.213099 0.00310297 0)
(0.208175 0.00200559 0)
(0.230838 -0.0019843 0)
(0.113015 0.00625446 0)
(0.358294 -0.0952202 0)
)
;

boundaryField
{
    movingWall
    {
        type            calculated;
        value           uniform (1 0 0);
    }
    fixedWalls
    {
        type            calculated;
        value           uniform (0 0 0);
    }
    frontAndBack
    {
        type            empty;
    }
}


// ************************************************************************* //
