/*--------------------------------*- C++ -*----------------------------------*\
| =========                 |                                                 |
| \\      /  F ield         | OpenFOAM: The Open Source CFD Toolbox           |
|  \\    /   O peration     | Version:  2312                                  |
|   \\  /    A nd           | Website:  www.openfoam.com                      |
|    \\/     M anipulation  |                                                 |
\*---------------------------------------------------------------------------*/
FoamFile
{
    version     2.0;
    format      ascii;
    arch        "LSB;label=32;scalar=64";
    class       volSymmTensorField;
    location    "2";
    object      UPrime2Mean;
}
// * * * * * * * * * * * * * * * * * * * * * * * * * * * * * * * * * * * * * //

dimensions      [0 2 -2 0 0 0 0];

internalField   nonuniform List<symmTensor> 
400
(
(6.64385e-09 -6.06923e-09 0 5.6251e-09 0 0)
(5.17173e-07 -2.44262e-07 0 1.17403e-07 0 0)
(3.76379e-06 -1.02932e-06 0 2.87078e-07 0 0)
(1.15059e-05 -2.11745e-06 0 3.96596e-07 0 0)
(2.49801e-05 -3.49909e-06 0 4.93593e-07 0 0)
(4.56566e-05 -5.40731e-06 0 6.41897e-07 0 0)
(7.52232e-05 -7.97088e-06 0 8.5308e-07 0 0)
(0.000114323 -1.08252e-05 0 1.04482e-06 0 0)
(0.000161258 -1.30111e-05 0 1.07765e-06 0 0)
(0.000210947 -1.3237e-05 0 8.64544e-07 0 0)
(0.000253146 -1.03195e-05 0 4.57291e-07 0 0)
(0.000275389 -3.63648e-06 0 8.31487e-08 0 0)
(0.000264009 6.70493e-06 0 2.21545e-07 0 0)
(0.000214124 1.61309e-05 0 1.28397e-06 0 0)
(0.000140386 1.99407e-05 0 2.93973e-06 0 0)
(6.8653e-05 1.59793e-05 0 3.87116e-06 0 0)
(2.16025e-05 7.83836e-06 0 3.04984e-06 0 0)
(3.25787e-06 1.67703e-06 0 1.1731e-06 0 0)
(6.61731e-07 1.28911e-07 0 1.42942e-07 0 0)
(2.10667e-07 1.66168e-07 0 1.31732e-07 0 0)
(1.52607e-07 -2.91643e-07 0 5.59783e-07 0 0)
(2.79879e-06 -2.82947e-06 0 2.86147e-06 0 0)
(1.20286e-05 -7.82538e-06 0 5.10016e-06 0 0)
(3.07125e-05 -1.41761e-05 0 6.56327e-06 0 0)
(6.09125e-05 -2.17799e-05 0 7.80222e-06 0 0)
(0.00010389 -3.06041e-05 0 9.02037e-06 0 0)
(0.000159079 -3.95228e-05 0 9.82429e-06 0 0)
(0.000223825 -4.6558e-05 0 9.70177e-06 0 0)
(0.000294776 -4.96123e-05 0 8.41547e-06 0 0)
(0.000367823 -4.62735e-05 0 6.00352e-06 0 0)
(0.000435019 -3.31644e-05 0 2.85821e-06 0 0)
(0.000481129 -7.40193e-06 0 5.75489e-07 0 0)
(0.000484446 2.91993e-05 0 2.39017e-06 0 0)
(0.000426626 6.5839e-05 0 1.10143e-05 0 0)
(0.000313228 8.53533e-05 0 2.4257e-05 0 0)
(0.000179136 7.63604e-05 0 3.35326e-05 0 0)
(7.00499e-05 4.49058e-05 0 2.96831e-05 0 0)
(1.40599e-05 1.36642e-05 0 1.42153e-05 0 0)
(1.49413e-06 1.49128e-06 0 2.62736e-06 0 0)
(2.96741e-07 4.65981e-07 0 7.57081e-07 0 0)
(5.06933e-07 -1.47095e-06 0 4.27518e-06 0 0)
(5.54176e-06 -8.17002e-06 0 1.20482e-05 0 0)
(1.85811e-05 -1.86036e-05 0 1.86351e-05 0 0)
(4.28009e-05 -3.17597e-05 0 2.35884e-05 0 0)
(8.05991e-05 -4.71375e-05 0 2.7597e-05 0 0)
(0.000132873 -6.36376e-05 0 3.05116e-05 0 0)
(0.000198886 -7.91094e-05 0 3.14974e-05 0 0)
(0.000278638 -9.17506e-05 0 3.02598e-05 0 0)
(0.000375922 -0.000100566 0 2.71503e-05 0 0)
(0.000496772 -0.000102988 0 2.22047e-05 0 0)
(0.00064066 -9.0774e-05 0 1.47229e-05 0 0)
(0.0007864 -4.90059e-05 0 5.94404e-06 0 0)
(0.00088574 3.20065e-05 0 4.77347e-06 0 0)
(0.000883531 0.000137238 0 2.55516e-05 0 0)
(0.000746327 0.00022321 0 7.13182e-05 0 0)
(0.000507616 0.000239884 0 0.000118075 0 0)
(0.000248941 0.000172536 0 0.000124223 0 0)
(6.67058e-05 6.80529e-05 0 7.35035e-05 0 0)
(3.50169e-06 6.41933e-06 0 1.5666e-05 0 0)
(6.05994e-07 1.19786e-06 0 2.92041e-06 0 0)
(7.86659e-07 -3.27441e-06 0 1.36568e-05 0 0)
(7.42082e-06 -1.46977e-05 0 2.91314e-05 0 0)
(2.23533e-05 -3.03645e-05 0 4.12643e-05 0 0)
(4.83595e-05 -4.97888e-05 0 5.12888e-05 0 0)
(8.79526e-05 -7.23986e-05 0 5.96437e-05 0 0)
(0.000143023 -9.6834e-05 0 6.56331e-05 0 0)
(0.000216382 -0.00012202 0 6.88781e-05 0 0)
(0.000316615 -0.000149928 0 7.1212e-05 0 0)
(0.000463157 -0.000184701 0 7.47814e-05 0 0)
(0.000683008 -0.000223847 0 7.64527e-05 0 0)
(0.000985318 -0.000241165 0 6.42116e-05 0 0)
(0.00132286 -0.000186038 0 3.2618e-05 0 0)
(0.001593 -2.21121e-05 0 7.18127e-06 0 0)
(0.00169998 0.000227891 0 3.76985e-05 0 0)
(0.00158839 0.000480121 0 0.000153059 0 0)
(0.00125244 0.000616882 0 0.000313303 0 0)
(0.000773268 0.000552268 0 0.000405751 0 0)
(0.00030916 0.000305008 0 0.000313621 0 0)
(4.20498e-05 5.91552e-05 0 9.57963e-05 0 0)
(9.07647e-07 1.56193e-06 0 6.34418e-06 0 0)
(8.59455e-07 -5.06276e-06 0 2.98824e-05 0 0)
(7.86589e-06 -2.07365e-05 0 5.47149e-05 0 0)
(2.26332e-05 -4.05897e-05 0 7.28219e-05 0 0)
(4.74329e-05 -6.4955e-05 0 8.89988e-05 0 0)
(8.51038e-05 -9.39329e-05 0 0.000103767 0 0)
(0.000139188 -0.000127407 0 0.000116748 0 0)
(0.00021745 -0.000168164 0 0.000130249 0 0)
(0.0003389 -0.0002258 0 0.000151447 0 0)
(0.000539875 -0.000312749 0 0.000184812 0 0)
(0.000861167 -0.000420444 0 0.000212604 0 0)
(0.00130182 -0.000487694 0 0.000192259 0 0)
(0.00178461 -0.000418652 0 0.000107351 0 0)
(0.00218214 -0.000153897 0 1.82836e-05 0 0)
(0.00238904 0.000268765 0 3.7129e-05 0 0)
(0.00236056 0.000734428 0 0.000237548 0 0)
(0.00207128 0.00109308 0 0.000590408 0 0)
(0.00152803 0.00117519 0 0.000923255 0 0)
(0.000823844 0.000868183 0 0.00093987 0 0)
(0.000226722 0.000317632 0 0.000470887 0 0)
(4.50015e-06 8.78889e-06 0 2.67039e-05 0 0)
(7.44403e-07 -6.21794e-06 0 5.20099e-05 0 0)
(6.95214e-06 -2.45884e-05 0 8.7025e-05 0 0)
(1.97217e-05 -4.67838e-05 0 0.000111067 0 0)
(4.07815e-05 -7.3984e-05 0 0.000134413 0 0)
(7.31302e-05 -0.000107574 0 0.000158575 0 0)
(0.000121558 -0.00014983 0 0.000185193 0 0)
(0.000196736 -0.000208577 0 0.000222295 0 0)
(0.000323195 -0.000301941 0 0.000285883 0 0)
(0.000541066 -0.00044642 0 0.000377592 0 0)
(0.000885762 -0.000617741 0 0.000445091 0 0)
(0.00134292 -0.00072129 0 0.000402161 0 0)
(0.00183224 -0.000637875 0 0.000232608 0 0)
(0.00224523 -0.000314372 0 5.08177e-05 0 0)
(0.00249684 0.000207675 0 2.65325e-05 0 0)
(0.00254972 0.000810766 0 0.000276904 0 0)
(0.00239978 0.00136414 0 0.000807237 0 0)
(0.00200773 0.00169445 0 0.00147514 0 0)
(0.00133906 0.00156828 0 0.00189508 0 0)
(0.000541662 0.00085914 0 0.0014237 0 0)
(4.75061e-05 9.93342e-05 0 0.00022618 0 0)
(5.19997e-07 -6.32596e-06 0 7.72193e-05 0 0)
(5.14876e-06 -2.50926e-05 0 0.000122525 0 0)
(1.4657e-05 -4.71267e-05 0 0.000152096 0 0)
(3.0191e-05 -7.41239e-05 0 0.000183086 0 0)
(5.43529e-05 -0.000108744 0 0.000219313 0 0)
(9.16618e-05 -0.000155339 0 0.000266015 0 0)
(0.000151644 -0.000224816 0 0.000338916 0 0)
(0.000254483 -0.000338341 0 0.000463031 0 0)
(0.00043079 -0.000509506 0 0.000626997 0 0)
(0.000704941 -0.000704045 0 0.000734624 0 0)
(0.00106756 -0.000821436 0 0.00065969 0 0)
(0.00147045 -0.000751817 0 0.000399953 0 0)
(0.00185053 -0.000451663 0 0.000121183 0 0)
(0.00213333 5.25652e-05 0 3.12189e-05 0 0)
(0.00226694 0.000680301 0 0.000275178 0 0)
(0.00223238 0.00131472 0 0.00088964 0 0)
(0.00200181 0.00182282 0 0.00181003 0 0)
(0.00152476 0.00198996 0 0.00277994 0 0)
(0.0007924 0.00146811 0 0.00292559 0 0)
(0.000130576 0.000346577 0 0.000996006 0 0)
(2.76288e-07 -5.23128e-06 0 0.00010145 0 0)
(3.06335e-06 -2.17575e-05 0 0.000156518 0 0)
(8.8836e-06 -4.07901e-05 0 0.000190799 0 0)
(1.83114e-05 -6.39314e-05 0 0.000228884 0 0)
(3.30142e-05 -9.42809e-05 0 0.000277691 0 0)
(5.58592e-05 -0.000136443 0 0.00034622 0 0)
(9.23687e-05 -0.000200012 0 0.000456607 0 0)
(0.000153175 -0.00030139 0 0.000639875 0 0)
(0.000254432 -0.000448798 0 0.000869415 0 0)
(0.000414733 -0.000616471 0 0.0010092 0 0)
(0.000644292 -0.000733839 0 0.000911614 0 0)
(0.000941375 -0.000722921 0 0.000592412 0 0)
(0.00128542 -0.000535428 0 0.000245964 0 0)
(0.00162215 -0.000154153 0 9.34122e-05 0 0)
(0.00185734 0.000402046 0 0.000290226 0 0)
(0.00192759 0.00103572 0 0.000897578 0 0)
(0.00179608 0.001623 0 0.00191289 0 0)
(0.0014367 0.00198283 0 0.0032719 0 0)
(0.000851194 0.00179099 0 0.0044134 0 0)
(0.000195452 0.000656754 0 0.00259484 0 0)
(9.62942e-08 -3.08147e-06 0 0.000120431 0 0)
(1.31294e-06 -1.48921e-05 0 0.000183992 0 0)
(3.9792e-06 -2.82615e-05 0 0.00022168 0 0)
(8.25754e-06 -4.40529e-05 0 0.000264864 0 0)
(1.48213e-05 -6.45655e-05 0 0.000323323 0 0)
(2.47999e-05 -9.26801e-05 0 0.000408359 0 0)
(4.01249e-05 -0.000132829 0 0.000544191 0 0)
(6.43064e-05 -0.000191476 0 0.000763244 0 0)
(0.000103572 -0.000271064 0 0.0010279 0 0)
(0.000170054 -0.000369853 0 0.00120094 0 0)
(0.000288128 -0.000476871 0 0.00111908 0 0)
(0.000489315 -0.000555342 0 0.000791139 0 0)
(0.000793851 -0.000549899 0 0.000423718 0 0)
(0.00116766 -0.000379995 0 0.000231836 0 0)
(0.00149917 1.06076e-05 0 0.000362425 0 0)
(0.00167694 0.000595364 0 0.00089281 0 0)
(0.00163893 0.00123573 0 0.00187958 0 0)
(0.00132154 0.001707 0 0.00339314 0 0)
(0.000797754 0.00174352 0 0.00538202 0 0)
(0.000215266 0.000860053 0 0.00479971 0 0)
(3.71589e-08 -2.86623e-07 0 0.000130699 0 0)
(3.86659e-07 -5.54704e-06 0 0.000200653 0 0)
(1.26983e-06 -1.13232e-05 0 0.000240014 0 0)
(2.73321e-06 -1.73675e-05 0 0.000285031 0 0)
(4.97682e-06 -2.43287e-05 0 0.000347365 0 0)
(8.41925e-06 -3.23853e-05 0 0.000438416 0 0)
(1.41416e-05 -4.00654e-05 0 0.000579397 0 0)
(2.48595e-05 -4.26164e-05 0 0.00079816 0 0)
(4.60443e-05 -3.98205e-05 0 0.00106411 0 0)
(8.68956e-05 -4.77907e-05 0 0.00125528 0 0)
(0.000159704 -0.000111327 0 0.00122286 0 0)
(0.000293932 -0.000265014 0 0.000960478 0 0)
(0.000534984 -0.000460466 0 0.000627667 0 0)
(0.000894183 -0.000568664 0 0.000426413 0 0)
(0.00129454 -0.000431884 0 0.000482686 0 0)
(0.00155741 5.25219e-05 0 0.000874486 0 0)
(0.00158565 0.000734896 0 0.00174343 0 0)
(0.00129124 0.00132148 0 0.00326277 0 0)
(0.000752594 0.00148018 0 0.005768 0 0)
(0.000206069 0.000882063 0 0.00700409 0 0)
(1.19118e-07 2.59495e-06 0 0.000130562 0 0)
(5.47772e-07 4.67317e-06 0 0.000203962 0 0)
(1.52063e-06 7.24714e-06 0 0.00024307 0 0)
(3.2606e-06 1.15921e-05 0 0.000286344 0 0)
(6.18534e-06 1.87942e-05 0 0.000346031 0 0)
(1.12269e-05 3.10038e-05 0 0.000431654 0 0)
(2.09609e-05 5.34057e-05 0 0.000558312 0 0)
(4.24655e-05 9.71703e-05 0 0.000744824 0 0)
(8.73164e-05 0.000167084 0 0.000973865 0 0)
(0.000170275 0.000239858 0 0.00115475 0 0)
(0.000288586 0.000239837 0 0.00117875 0 0)
(0.00043682 8.06452e-05 0 0.0010257 0 0)
(0.000645211 -0.000257787 0 0.000794981 0 0)
(0.000954982 -0.000641544 0 0.00062327 0 0)
(0.00133144 -0.000795177 0 0.000602628 0 0)
(0.00159949 -0.000492804 0 0.000820463 0 0)
(0.00162799 0.000190483 0 0.00149973 0 0)
(0.00133416 0.000900135 0 0.00294019 0 0)
(0.000758195 0.00115769 0 0.00568416 0 0)
(0.000189467 0.000779445 0 0.00873956 0 0)
(3.29381e-07 5.02028e-06 0 0.000119935 0 0)
(1.77876e-06 1.39552e-05 0 0.000193649 0 0)
(4.75722e-06 2.4332e-05 0 0.000230748 0 0)
(9.78196e-06 3.78925e-05 0 0.000269451 0 0)
(1.78895e-05 5.6926e-05 0 0.000321505 0 0)
(3.11328e-05 8.47471e-05 0 0.000393736 0 0)
(5.41272e-05 0.000127298 0 0.000494595 0 0)
(9.81086e-05 0.00019554 0 0.000633349 0 0)
(0.000181821 0.000295765 0 0.000799656 0 0)
(0.000326468 0.000405336 0 0.000938839 0 0)
(0.000532519 0.000452316 0 0.000987243 0 0)
(0.000769254 0.000335209 0 0.000936421 0 0)
(0.00100391 -1.28128e-05 0 0.000853015 0 0)
(0.00126528 -0.000539116 0 0.000776362 0 0)
(0.00154138 -0.000960438 0 0.00071595 0 0)
(0.00174292 -0.000907988 0 0.000748849 0 0)
(0.00172494 -0.000303176 0 0.00117507 0 0)
(0.00140173 0.000490698 0 0.00245115 0 0)
(0.0007991 0.000860746 0 0.0052633 0 0)
(0.000175038 0.000634296 0 0.00982458 0 0)
(6.04086e-07 6.39396e-06 0 0.000101721 0 0)
(3.83347e-06 2.07676e-05 0 0.000171699 0 0)
(1.03645e-05 3.72812e-05 0 0.000205465 0 0)
(2.09321e-05 5.76339e-05 0 0.000238064 0 0)
(3.71449e-05 8.45676e-05 0 0.000280072 0 0)
(6.19516e-05 0.000121377 0 0.000335984 0 0)
(0.000101142 0.00017271 0 0.000409159 0 0)
(0.000166671 0.000245322 0 0.000501608 0 0)
(0.000279059 0.000342484 0 0.000605521 0 0)
(0.000460534 0.00044561 0 0.000692726 0 0)
(0.00071531 0.000499334 0 0.000734327 0 0)
(0.00101318 0.000421947 0 0.000741563 0 0)
(0.00129017 0.000147311 0 0.000766806 0 0)
(0.00151242 -0.000327096 0 0.000824267 0 0)
(0.0017165 -0.000848061 0 0.00079291 0 0)
(0.00185913 -0.00105284 0 0.000685934 0 0)
(0.00180297 -0.000651555 0 0.00083864 0 0)
(0.00144277 0.000130691 0 0.00185685 0 0)
(0.000840775 0.000616565 0 0.00459561 0 0)
(0.000166021 0.000497115 0 0.0102751 0 0)
(9.17725e-07 6.65561e-06 0 7.93786e-05 0 0)
(6.36593e-06 2.41753e-05 0 0.000142052 0 0)
(1.73497e-05 4.43813e-05 0 0.000171581 0 0)
(3.46118e-05 6.85195e-05 0 0.000197704 0 0)
(5.99881e-05 9.91291e-05 0 0.000229461 0 0)
(9.67137e-05 0.000138822 0 0.000269761 0 0)
(0.000150582 0.000190369 0 0.000319259 0 0)
(0.000231577 0.000256208 0 0.000376571 0 0)
(0.000355681 0.000335163 0 0.000435489 0 0)
(0.000540182 0.000412704 0 0.000482817 0 0)
(0.000788984 0.000451709 0 0.000508624 0 0)
(0.00107613 0.000398489 0 0.00053006 0 0)
(0.00134491 0.00020864 0 0.000595442 0 0)
(0.00154289 -0.000128692 0 0.000718354 0 0)
(0.00169059 -0.000581813 0 0.000795869 0 0)
(0.00182902 -0.000933639 0 0.000656198 0 0)
(0.00179659 -0.000802724 0 0.000572179 0 0)
(0.00142927 -0.000148903 0 0.00124782 0 0)
(0.000852012 0.000408864 0 0.00373754 0 0)
(0.000160634 0.000371988 0 0.0101862 0 0)
(1.25279e-06 5.77506e-06 0 5.66444e-05 0 0)
(8.95873e-06 2.36181e-05 0 0.000109156 0 0)
(2.43402e-05 4.46958e-05 0 0.000134001 0 0)
(4.80756e-05 6.95825e-05 0 0.000154068 0 0)
(8.18162e-05 0.000100167 0 0.000176763 0 0)
(0.00012865 0.000138229 0 0.000204032 0 0)
(0.000193643 0.000184998 0 0.00023561 0 0)
(0.000284046 0.00024025 0 0.000269492 0 0)
(0.000409468 0.000300206 0 0.000301327 0 0)
(0.000578811 0.000353257 0 0.000325086 0 0)
(0.000792055 0.000376725 0 0.000338835 0 0)
(0.00102943 0.000339779 0 0.000355709 0 0)
(0.00125176 0.000217098 0 0.000410431 0 0)
(0.00141399 2.92865e-07 0 0.000531737 0 0)
(0.00150742 -0.000308298 0 0.000664745 0 0)
(0.00160285 -0.000651987 0 0.000633673 0 0)
(0.00163975 -0.000749425 0 0.000424948 0 0)
(0.00135418 -0.000333082 0 0.000729791 0 0)
(0.000824941 0.000199389 0 0.00275706 0 0)
(0.000155001 0.000214105 0 0.00966978 0 0)
(1.32923e-06 3.60084e-06 0 4.13087e-05 0 0)
(1.0771e-05 1.97297e-05 0 8.16207e-05 0 0)
(2.94235e-05 3.91175e-05 0 0.000100272 0 0)
(5.74374e-05 6.18238e-05 0 0.000114201 0 0)
(9.65418e-05 8.922e-05 0 0.000128831 0 0)
(0.000149776 0.00012243 0 0.000145535 0 0)
(0.000221402 0.000161809 0 0.00016404 0 0)
(0.000316271 0.000206098 0 0.000182885 0 0)
(0.000438959 0.000251166 0 0.000199489 0 0)
(0.000591299 0.000288203 0 0.000211042 0 0)
(0.000768349 0.000303325 0 0.00021753 0 0)
(0.000953981 0.000279685 0 0.000226379 0 0)
(0.00112148 0.000203809 0 0.00025685 0 0)
(0.00124077 7.11448e-05 0 0.000334987 0 0)
(0.00129382 -0.000115704 0 0.000450002 0 0)
(0.00132887 -0.000360366 0 0.000504705 0 0)
(0.00138794 -0.000559222 0 0.000353426 0 0)
(0.00123682 -0.000427451 0 0.000392353 0 0)
(0.00079452 -2.52331e-05 0 0.00180087 0 0)
(0.00015887 -5.04135e-05 0 0.00890523 0 0)
(1.89033e-06 9.0938e-07 0 2.44246e-05 0 0)
(1.08493e-05 1.04631e-05 0 4.94016e-05 0 0)
(2.81605e-05 2.55549e-05 0 6.52826e-05 0 0)
(5.56193e-05 4.45603e-05 0 7.65215e-05 0 0)
(9.48669e-05 6.73998e-05 0 8.65556e-05 0 0)
(0.000149072 9.45489e-05 0 9.65185e-05 0 0)
(0.000221717 0.000125887 0 0.000106537 0 0)
(0.000316084 0.000160225 0 0.000116182 0 0)
(0.000433987 0.000194411 0 0.00012431 0 0)
(0.000573524 0.000222464 0 0.000129607 0 0)
(0.000726911 0.000235819 0 0.000132026 0 0)
(0.000879016 0.000224635 0 0.000134603 0 0)
(0.00100948 0.000181008 0 0.000145349 0 0)
(0.00109341 0.000102988 0 0.000177395 0 0)
(0.00111299 -8.47117e-06 0 0.000239692 0 0)
(0.00109494 -0.000152446 0 0.000297846 0 0)
(0.00108198 -0.000344097 0 0.000279284 0 0)
(0.00111792 -0.000444144 0 0.00025222 0 0)
(0.000780508 -0.00021726 0 0.00102791 0 0)
(0.000228436 -0.000499494 0 0.00787419 0 0)
(9.67617e-07 -2.13932e-06 0 4.39369e-05 0 0)
(6.2476e-06 6.56799e-06 0 7.06828e-05 0 0)
(1.9915e-05 2.05328e-05 0 7.46661e-05 0 0)
(4.06306e-05 3.40624e-05 0 7.16796e-05 0 0)
(7.17404e-05 4.92117e-05 0 7.0284e-05 0 0)
(0.000117625 6.78056e-05 0 7.00258e-05 0 0)
(0.000181508 8.98109e-05 0 7.08395e-05 0 0)
(0.000266266 0.000114216 0 7.23031e-05 0 0)
(0.000373082 0.000139097 0 7.3675e-05 0 0)
(0.000499932 0.000161256 0 7.4219e-05 0 0)
(0.000639823 0.00017607 0 7.35652e-05 0 0)
(0.000779652 0.00017829 0 7.22086e-05 0 0)
(0.000899089 0.000163167 0 7.17637e-05 0 0)
(0.000978695 0.000126432 0 7.48666e-05 0 0)
(0.000997768 6.43481e-05 0 8.56655e-05 0 0)
(0.000970171 -2.99447e-05 0 0.000104923 0 0)
(0.000862497 -0.000174832 0 0.000137883 0 0)
(0.00102433 -0.000406917 0 0.000222877 0 0)
(0.000657664 -0.000266857 0 0.000457919 0 0)
(0.000550594 -0.00117047 0 0.00559495 0 0)
(1.65013e-06 1.64309e-06 0 1.33018e-05 0 0)
(4.00745e-06 2.60984e-06 0 6.07444e-06 0 0)
(1.07918e-05 6.42551e-06 0 6.8665e-06 0 0)
(2.57578e-05 1.58389e-05 0 1.27557e-05 0 0)
(5.29933e-05 2.74113e-05 0 1.64422e-05 0 0)
(9.82139e-05 3.99283e-05 0 1.78087e-05 0 0)
(0.000162836 5.30829e-05 0 1.85301e-05 0 0)
(0.000247935 6.72361e-05 0 1.9353e-05 0 0)
(0.000354473 8.21859e-05 0 2.02193e-05 0 0)
(0.000482425 9.69238e-05 0 2.08456e-05 0 0)
(0.000629323 0.000110003 0 2.10519e-05 0 0)
(0.000789741 0.000119531 0 2.07416e-05 0 0)
(0.000953368 0.000123051 0 1.9876e-05 0 0)
(0.00111123 0.000115697 0 1.79383e-05 0 0)
(0.00123183 8.92768e-05 0 1.46535e-05 0 0)
(0.00132204 2.03945e-05 0 1.05254e-05 0 0)
(0.00124359 -0.000115931 0 2.55068e-05 0 0)
(0.00134859 -0.000369013 0 0.000131162 0 0)
(0.000484831 -0.000240018 0 0.000197162 0 0)
(0.00167492 -0.00168004 0 0.00238493 0 0)
(1.41544e-05 2.84172e-05 0 5.88754e-05 0 0)
(5.83274e-05 9.19376e-05 0 0.000154939 0 0)
(0.000162997 0.000123214 0 0.000109744 0 0)
(0.000321499 0.000131451 0 6.76784e-05 0 0)
(0.000497509 0.00012957 0 4.39135e-05 0 0)
(0.000681197 0.000124884 0 3.03291e-05 0 0)
(0.000878012 0.000120229 0 2.19756e-05 0 0)
(0.00109039 0.000116323 0 1.65386e-05 0 0)
(0.00131791 0.000113096 0 1.28321e-05 0 0)
(0.00156056 0.000110554 0 1.0236e-05 0 0)
(0.00181809 0.000108406 0 8.33889e-06 0 0)
(0.00208893 0.000106245 0 6.88215e-06 0 0)
(0.0023666 0.000103373 0 5.68738e-06 0 0)
(0.00264551 9.82027e-05 0 4.57142e-06 0 0)
(0.00288023 8.69701e-05 0 3.34861e-06 0 0)
(0.00309547 5.95927e-05 0 1.6732e-06 0 0)
(0.00294997 1.16496e-05 0 6.50359e-07 0 0)
(0.00297767 -0.000142633 0 1.26063e-05 0 0)
(0.000978337 -0.000220238 0 0.000104766 0 0)
(0.00447443 -0.000498162 0 9.17544e-05 0 0)
)
;

boundaryField
{
    movingWall
    {
        type            calculated;
        value           uniform (0 0 0 0 0 0);
    }
    fixedWalls
    {
        type            calculated;
        value           uniform (0 0 0 0 0 0);
    }
    frontAndBack
    {
        type            empty;
    }
}


// ************************************************************************* //
