/*--------------------------------*- C++ -*----------------------------------*\
| =========                 |                                                 |
| \\      /  F ield         | OpenFOAM: The Open Source CFD Toolbox           |
|  \\    /   O peration     | Version:  2312                                  |
|   \\  /    A nd           | Website:  www.openfoam.com                      |
|    \\/     M anipulation  |                                                 |
\*---------------------------------------------------------------------------*/
FoamFile
{
    version     2.0;
    format      ascii;
    arch        "LSB;label=32;scalar=64";
    class       volVectorField;
    location    "2";
    object      URandom;
}
// * * * * * * * * * * * * * * * * * * * * * * * * * * * * * * * * * * * * * //

dimensions      [0 1 -1 0 0 0 0];

internalField   nonuniform List<vector> 
400
(
(0.0906893 -0.001722 -0.0415285)
(0.0683149 -0.0363463 -0.0600658)
(0.00744335 0.0501198 -0.0863566)
(-0.0859173 0.0313874 -0.0592215)
(-0.0841251 -0.0403691 0.0596178)
(-0.110286 0.0215407 0.0426155)
(0.0118801 0.022443 0.0895845)
(0.0448224 0.0629901 0.00969639)
(-0.121391 0.0143885 0.060238)
(-0.135285 0.0372477 -0.0388219)
(-0.037838 -0.0953422 0.000458146)
(-0.0330964 -0.0665299 -0.0681063)
(-0.1164 -0.0690588 -0.0466777)
(-0.13982 0.0387094 0.0345147)
(0.000341217 -0.0932916 0.0116875)
(-0.101666 -0.073781 -0.029771)
(0.0324072 0.0223858 -0.0807197)
(-0.0404228 -0.0709005 0.0661037)
(-0.0741497 -0.0624866 0.0259411)
(-0.0605681 -0.0510875 0.0590508)
(0.0380162 -0.0606239 0.0668531)
(0.0475609 -0.0224136 0.079853)
(0.0272687 -0.0763363 0.0381731)
(0.0523363 0.0629888 -0.0438576)
(-0.0859253 0.0692453 -0.0534423)
(-0.0649929 -0.0214212 0.0899488)
(-0.102463 0.0899877 0.00453629)
(-0.00913344 0.0896164 -0.045759)
(-0.113565 -0.0676127 -0.028332)
(-0.12551 0.0914861 -0.0019737)
(-0.144909 -0.0108019 0.0697597)
(-0.0604922 0.0273976 -0.0946911)
(-0.0546587 0.0910735 -0.0194262)
(-0.112917 0.012854 -0.0924131)
(-0.144041 -0.0798099 -0.0280459)
(-0.0579977 0.0785753 0.0102352)
(0.0606855 -0.000985372 -0.00234655)
(-0.025458 -0.0890378 0.0670657)
(0.00580373 -0.0720507 0.0747263)
(9.39813e-05 0.0963695 -0.0299677)
(0.022398 -0.0361304 -0.0866909)
(0.0482998 0.0823843 0.042819)
(-0.0594188 -0.0643701 -0.0423353)
(0.00729687 0.1056 0.0332439)
(-0.060132 -0.0148954 0.090146)
(0.052598 -0.017842 0.0139653)
(-0.109668 0.0189083 -0.0789441)
(-0.115314 -0.00366539 0.0785039)
(-0.147019 -0.0320489 0.0345514)
(-0.0353368 -0.0652925 -0.0170183)
(-0.153336 0.0920759 -0.0377373)
(-0.0856104 -0.0754714 0.0428702)
(-0.0814374 0.0815334 -0.0471265)
(-0.18221 -0.012073 0.0751667)
(-0.175541 -0.0532746 0.070226)
(-0.0529874 -0.00309764 -0.0837945)
(-0.0329825 -0.108105 -0.0686192)
(0.00132299 -0.0743358 0.0832056)
(0.0571445 -0.0914955 0.00952383)
(-0.0247137 -0.0772539 0.0578014)
(-0.0775686 0.0345338 0.0631794)
(-0.070615 0.00990979 0.0787601)
(-0.0590294 0.106739 -0.0322011)
(-0.069219 0.0417727 -0.0877762)
(0.0591501 0.0565754 0.0235414)
(0.0319393 -0.0156138 0.0523594)
(-0.0662143 -0.0512378 -0.0583546)
(-0.0452889 0.00455475 0.0942565)
(0.00526522 0.0257438 0.0505854)
(-0.0283793 -0.0291162 0.0222414)
(-0.119718 0.06459 0.0950957)
(-0.0689263 -0.0117765 -0.0698711)
(-0.119494 -0.049191 0.082468)
(-0.100589 -0.085357 -0.0632927)
(-0.202889 -0.0629881 -0.0704129)
(-0.14855 0.0333872 0.00859801)
(-0.195322 -0.108487 -0.0190843)
(-0.0146059 -0.0136361 -0.0571289)
(-0.053357 -0.141749 0.0236179)
(-0.00150696 -0.105905 0.0192512)
(-0.054033 0.0591541 0.0763587)
(-0.106634 -0.000251242 -0.00122472)
(0.0279913 0.0942734 0.0614815)
(-0.120873 0.0123728 -0.0184048)
(-0.112965 0.0360663 -0.0597651)
(-0.0262079 -0.0571213 0.0309262)
(0.0336195 0.00292698 -0.0331328)
(-0.116319 0.114383 -0.0560849)
(-0.151238 0.129426 0.0118332)
(-0.087895 0.11615 0.078503)
(-0.0973618 0.0870847 0.089226)
(-0.0442781 0.0724955 -0.0240495)
(-0.118691 0.063007 0.0808986)
(-0.0838367 0.0101577 -0.0792558)
(-0.0922117 0.0197911 -0.0602214)
(-0.203696 -0.0574679 0.0617809)
(-0.0191991 -0.0887996 -0.0186896)
(-0.0739627 -0.0470274 0.0741205)
(0.00235401 -0.144958 -0.0594537)
(0.0495153 0.000908144 -0.0745373)
(-0.0490768 -0.0232121 -0.074353)
(0.018957 0.109858 0.056789)
(-0.103943 0.0389077 0.0477793)
(0.0470316 0.0774475 -0.0606385)
(-0.0444077 0.085818 -0.0892772)
(-0.0207362 0.010391 -0.0912036)
(-0.102287 0.139206 -0.00665653)
(-0.029309 0.0518511 0.0926114)
(-0.00691957 0.122268 0.0437129)
(-0.0559965 0.0838498 0.0898214)
(-0.186737 0.0455397 -0.0621458)
(-0.0803467 0.0741355 0.0863376)
(-0.0374409 -0.0511767 0.031217)
(-0.115449 0.0777994 -0.0103555)
(-0.164886 0.00294579 -0.0593523)
(-0.0773866 -0.109203 0.0916898)
(-0.0378206 -0.174582 0.0394386)
(-0.0797851 -0.208931 0.0664321)
(-0.0716304 -0.199654 -0.0773226)
(0.0444121 -0.0226601 -0.0512589)
(0.0293651 0.108941 -0.0542116)
(0.0846001 0.00844895 0.0200098)
(-0.0762858 0.089499 -0.0631754)
(0.0601172 -0.0128409 0.00218348)
(0.0143429 0.0151662 0.0839113)
(-0.083207 0.139053 -0.028475)
(0.045019 0.0274822 0.0245913)
(-0.0102818 0.166579 -0.0151481)
(-0.0630822 0.0605744 0.0962014)
(-0.0450247 0.14852 0.0675587)
(0.00658567 0.0608187 0.0384858)
(-0.130319 -0.04978 -0.0237666)
(0.00505889 -0.0295945 -0.0387568)
(-0.131245 -0.00669951 0.0811638)
(-0.0580657 -0.0677962 0.0978469)
(-0.0147751 -0.160974 -0.000748011)
(-0.0311233 -0.196371 0.0103098)
(-0.0395966 -0.0870302 0.0770523)
(0.0033793 -0.192201 -0.0703625)
(0.0449725 -0.0814488 -0.04939)
(0.0562572 0.0828917 0.066445)
(0.0585865 -0.0161962 0.0452572)
(-0.00655709 0.104831 -0.0825285)
(0.0238739 -0.00834813 0.0685098)
(-0.0784662 -0.00785236 -0.0498725)
(-0.00205647 0.11392 -0.0831947)
(-0.0401736 -0.0146951 -0.0426004)
(-0.0277505 -0.00317577 -0.0362688)
(-0.07278 0.0959124 0.0971622)
(0.0171003 0.0259129 0.0274835)
(-0.0142386 0.0972361 0.0848555)
(-0.0431799 -0.0282222 -0.0773699)
(-0.128133 0.0205765 0.0635143)
(-0.0719492 0.0145226 -0.0862913)
(-0.0963667 -0.138822 -0.0292302)
(0.0368764 -0.141204 -0.00160806)
(-0.110984 -0.129422 0.0659887)
(-0.071539 -0.0387254 0.00596221)
(-0.130174 -0.214065 0.0455266)
(-0.0939574 -0.104302 -0.0356733)
(-0.0723072 0.107115 0.0210946)
(0.0576717 0.10713 0.0517247)
(-0.0741321 0.0714975 0.0727622)
(0.0574223 0.0553082 -0.0724991)
(-0.0675147 0.0981655 -0.0768473)
(0.0152594 -0.000218623 0.0636301)
(0.0520344 0.0726399 -0.0676869)
(-0.0411964 -0.0020663 -0.0227766)
(-0.060537 0.0891917 -0.0932319)
(0.0434765 0.160533 -0.0157232)
(-0.0231919 0.133422 0.0750669)
(-0.0787512 0.119288 0.00047712)
(-0.0955823 -0.0099668 -0.0722462)
(-0.00986059 0.0503734 -0.0501178)
(0.0528547 -0.107811 -0.046424)
(-0.079349 -0.0152056 0.044752)
(0.00164734 -0.17605 0.0634209)
(0.0746086 -0.135302 0.0112557)
(-0.0737491 -0.134335 -0.0767306)
(0.00944779 -0.151857 0.0786334)
(-0.0204301 0.085114 0.0881109)
(-0.0607844 0.132603 0.00594933)
(0.0831307 0.0131513 -0.0224676)
(-0.0500018 -0.00851606 -0.0591777)
(-0.0338327 0.159937 0.0128667)
(0.012908 0.155719 0.0489324)
(0.0658541 0.0407274 -0.0532965)
(-0.0914472 0.0598957 0.0408321)
(0.0376931 0.167821 -0.0591164)
(-0.0664907 0.149021 -0.0467164)
(-0.064129 0.0436441 -0.070585)
(0.0672538 -0.00480161 0.065573)
(0.0590002 -0.0785113 -0.0263591)
(-0.0557721 -0.0618415 0.077807)
(0.00958494 -0.0197456 0.0898704)
(-0.0140504 -0.0389261 -0.0890238)
(0.0710997 -0.163756 0.0158541)
(-0.10612 -0.139325 0.0226038)
(0.0654368 -0.230419 -0.0210883)
(-0.000171155 -0.319525 -0.0338405)
(0.0382144 -0.0492975 0.00429423)
(-0.0607479 0.0801139 -0.0750695)
(0.0708596 0.0118034 0.052832)
(-0.0513709 0.112376 -0.0691305)
(-0.00563385 0.0319238 -0.0944764)
(0.0733039 0.0380141 0.060026)
(0.0672152 0.00558539 -0.0243413)
(0.0362652 0.0349903 0.0802653)
(0.0658174 0.17377 0.030501)
(-0.0181247 0.024551 0.0663228)
(-0.0391096 0.136002 -0.0213801)
(0.0478873 -0.0428108 0.0589494)
(0.116821 0.0508259 0.014906)
(-0.0274645 -7.78655e-05 -0.0773949)
(-0.0330271 -0.0455488 -0.0824286)
(-0.014506 -0.0113698 -0.0681591)
(-0.0217561 -0.079387 -0.0939453)
(0.0889441 -0.105325 -0.0452482)
(-0.0602663 -0.111779 -0.0611532)
(0.0463823 -0.247393 0.0810751)
(0.0782427 0.0213882 -0.0595877)
(0.047054 -0.0359335 0.00359207)
(-0.0587265 -0.0226046 0.008103)
(-0.000247829 0.142466 -0.0555153)
(0.0348807 0.0973446 -0.088843)
(-0.0607801 0.100817 -0.064583)
(-0.0273644 0.13277 0.0694494)
(-0.0494199 0.023366 0.0445608)
(-0.00906126 0.0881329 0.0917521)
(-0.0287107 0.0912347 -0.0703025)
(0.041826 0.00760718 0.0840433)
(0.139372 -0.00650665 0.0298106)
(0.105088 0.0715374 -0.0549779)
(0.0284909 0.0349008 0.077889)
(0.0373949 -0.114523 -0.076343)
(0.088228 -0.0400909 0.07497)
(0.0437766 -0.000852833 0.0456919)
(0.0169679 -0.0104015 0.0170807)
(0.0810506 -0.189197 -0.0496963)
(0.0137314 -0.299525 -0.0813293)
(-0.0756348 -0.0165725 0.0275923)
(0.0731279 0.0859986 0.0622268)
(0.00800143 0.14536 -0.0429611)
(-0.0594249 -0.0157434 -0.0175027)
(0.0781635 0.0975448 -0.0621327)
(0.0243481 0.157328 0.0300375)
(0.105679 0.0557155 -0.0498543)
(-0.0303977 -0.0108371 0.0107543)
(0.00558247 0.0247417 -0.0823729)
(0.016683 0.0550388 -0.0936338)
(0.124855 0.025717 0.0706773)
(0.0889846 -0.0618743 0.0214179)
(0.110556 0.0329696 0.085855)
(0.0315195 0.0661633 0.0471559)
(0.118959 -0.108745 -0.0224779)
(0.0839049 -0.000278731 0.0673623)
(0.0528333 -0.0651218 0.0958524)
(-0.0701998 -0.0439111 0.0161895)
(0.0873903 -0.10369 -0.0172915)
(0.0347022 -0.333955 -0.0343705)
(-0.0489283 0.0943296 -0.0663022)
(-0.0436943 0.0798572 -0.082723)
(0.079226 0.120663 -0.00780053)
(0.0772419 0.125249 -0.0185856)
(-0.00137394 -0.0127885 -0.0715098)
(-0.0584356 0.0605157 -0.0641425)
(0.0908973 0.0613402 0.0747606)
(-0.0581848 0.06847 0.0409564)
(0.118432 0.113234 0.0370226)
(0.145279 0.085712 0.0244564)
(0.0951321 0.138892 0.0109224)
(0.0785423 0.0399076 0.0989025)
(-0.0178129 0.0570481 0.0177907)
(0.139665 -0.0127805 0.0655163)
(0.0632116 0.0656339 -0.0320773)
(0.112802 -0.0942899 0.0526232)
(0.0421472 0.0250068 -0.0481611)
(0.0926393 -0.036944 0.0446345)
(0.0718896 -0.169611 0.06673)
(-0.0761013 -0.23873 -0.0745416)
(0.068445 -0.037175 -0.0111575)
(-0.0484208 -0.00376951 0.0686104)
(0.0890386 0.0782044 0.0497892)
(-0.0258284 0.117902 0.0637236)
(0.0816874 0.116582 -0.0362495)
(0.0642608 -0.0101601 0.0662407)
(-0.00793646 -0.0279483 -0.049069)
(0.00765919 0.0806296 0.0914402)
(0.00628663 0.102291 0.0760271)
(0.026995 0.130151 0.0461292)
(0.121267 -0.0174068 0.0583342)
(0.0149515 -0.0161899 -0.0742719)
(0.132384 0.0579207 -0.0608991)
(0.101044 0.0596223 -0.0682897)
(-0.0259117 0.037793 -0.00713378)
(0.121364 -0.0545813 0.0616343)
(0.060506 -0.066496 -0.0944004)
(-0.0681191 -0.0857338 -0.0476723)
(-0.0680662 -0.072455 0.0414724)
(-0.00382616 -0.356939 -0.00847581)
(0.032106 0.123613 0.0328597)
(0.0457798 0.115389 -0.055741)
(-0.0134037 0.0147773 0.0928273)
(-0.0459559 0.0956721 0.0646909)
(0.110989 0.0723054 0.0207332)
(-0.0652539 0.0659881 0.0420591)
(0.018695 -0.0548412 0.00587075)
(0.101981 0.0635737 -0.07357)
(0.0273571 -0.0550185 -0.0201272)
(0.125075 -0.00452026 -0.0553473)
(0.00828385 -0.0478625 0.0314698)
(-0.000362678 -0.0482208 0.0253558)
(0.0126618 0.0233356 0.0840728)
(0.0789357 0.0828315 0.0564531)
(0.0167212 0.0812386 0.00572339)
(0.0796553 0.00504399 -0.0905495)
(0.026846 0.0351806 -0.0703378)
(0.0668624 -0.0734712 -0.0877276)
(-0.00229756 -0.0876455 0.096649)
(0.0236339 -0.279595 -0.0916641)
(0.0580096 -0.0135 -0.0687419)
(0.090206 0.0753256 -0.0241639)
(-0.0470075 -0.0450629 -0.0110481)
(-0.0616002 0.0339964 -0.069118)
(-0.031923 -0.0441676 -0.027076)
(-0.0237163 0.0074495 0.0827316)
(0.0544675 0.132614 0.0176644)
(0.0938841 -0.00608128 -0.0718684)
(0.123673 0.0793935 0.0436451)
(0.130773 0.00498094 0.057903)
(0.104049 -0.0471691 0.0510965)
(0.106019 -0.0575576 -0.0461214)
(0.0505599 0.11241 -0.00310715)
(-0.0111751 0.0714157 0.000373853)
(-0.0140594 0.0636846 0.0145446)
(0.107975 0.0300097 0.0701443)
(0.0286907 -0.112377 -0.0450248)
(0.0141703 -0.0873391 0.0898661)
(-0.0244912 -0.0348167 -0.0674632)
(-0.0288157 -0.361592 0.0218948)
(0.0186178 0.134763 -0.0362429)
(0.0811843 0.024285 0.0497981)
(0.0488709 -0.0243932 -0.057826)
(0.0676601 -0.0415743 -0.0102219)
(0.100453 0.0684995 -0.0408544)
(-0.0202706 -0.0278919 -0.0665135)
(-0.00181019 0.0722671 0.0847338)
(0.120449 -0.0258691 0.0223397)
(-0.0037562 0.108374 0.0264579)
(0.105611 0.0612116 -0.0789346)
(0.132469 -0.00850603 -0.0650797)
(0.116182 0.0936645 -0.0443317)
(0.124574 -0.069178 0.0127719)
(-0.00025957 -0.0531266 -0.0337328)
(0.045835 -0.016242 0.0956621)
(-0.00555329 -0.0608788 -0.046893)
(-0.0346744 -0.0588565 -0.0304008)
(0.060943 0.0172662 -0.0828654)
(0.0790167 -0.153816 0.0279268)
(-0.069111 -0.327911 -0.0291251)
(-0.0493962 -0.0519976 0.0609739)
(-0.0322738 -0.0396418 0.0842212)
(0.0339165 -0.0250722 -0.0869614)
(0.0853765 0.0251388 -0.067932)
(0.04 -0.0374735 -0.0828431)
(0.0505784 -0.028681 -0.08821)
(-0.0425133 -0.0262363 -0.00636465)
(0.0597061 0.0482931 -0.0944625)
(0.0422877 0.0887848 -0.0618363)
(0.143595 0.0859529 0.0252689)
(0.0632951 -0.053115 0.0710624)
(0.10025 0.0795283 0.073151)
(0.0871742 0.053423 0.0890921)
(0.123683 -0.00998203 0.0964014)
(0.189736 -0.0271636 -0.0423493)
(0.171587 -0.0428795 0.0611307)
(0.0642886 0.0683319 0.0615907)
(0.175856 -0.0751562 0.0476604)
(-0.0584257 -0.0357626 0.0468934)
(0.102664 -0.166237 -0.0738433)
(0.0818895 0.145177 0.0746004)
(-0.00282153 0.0121319 -0.0514017)
(0.0210485 0.0221083 -0.0725404)
(0.173262 0.00142591 -0.0712521)
(0.111431 -0.0420163 0.0759319)
(0.217615 0.0814847 0.00630887)
(0.10457 -0.050225 -0.0572481)
(0.144517 0.0740453 -0.0745208)
(0.101193 0.0357027 0.0545303)
(0.104868 -0.0283944 0.0298635)
(0.172548 -0.0720203 -0.0513068)
(0.250691 0.0838455 0.0519923)
(0.186256 -0.0552807 -0.0704514)
(0.172971 -0.0191243 0.0794284)
(0.273201 0.00865184 -0.0916547)
(0.265136 0.0799434 -0.0587342)
(0.181692 0.0523579 -0.0706607)
(0.349315 0.0207733 -0.000365736)
(0.191967 -0.0277707 0.0680984)
(0.315679 -0.175383 -0.0096982)
)
;

boundaryField
{
    movingWall
    {
        type            fixedValue;
        value           uniform (1 0 0);
    }
    fixedWalls
    {
        type            noSlip;
    }
    frontAndBack
    {
        type            empty;
    }
}


// ************************************************************************* //
