/*--------------------------------*- C++ -*----------------------------------*\
| =========                 |                                                 |
| \\      /  F ield         | OpenFOAM: The Open Source CFD Toolbox           |
|  \\    /   O peration     | Version:  2312                                  |
|   \\  /    A nd           | Website:  www.openfoam.com                      |
|    \\/     M anipulation  |                                                 |
\*---------------------------------------------------------------------------*/
FoamFile
{
    version     2.0;
    format      ascii;
    arch        "LSB;label=32;scalar=64";
    class       volScalarField;
    location    "2";
    object      Ux;
}
// * * * * * * * * * * * * * * * * * * * * * * * * * * * * * * * * * * * * * //

dimensions      [0 1 -1 0 0 0 0];

internalField   nonuniform List<scalar> 
400
(
-0.000259338
-0.00234531
-0.00630765
-0.0109342
-0.0160629
-0.0218042
-0.028191
-0.0350739
-0.0422726
-0.0494532
-0.055765
-0.0599166
-0.0603631
-0.0559074
-0.0464735
-0.0333956
-0.0190236
-0.00628368
0.000523718
0.0012027
-0.00134644
-0.00570777
-0.0118783
-0.0189661
-0.0265806
-0.0344151
-0.0422006
-0.0500635
-0.0584015
-0.0672478
-0.0757828
-0.0823389
-0.084927
-0.0817848
-0.0721485
-0.0567006
-0.0372561
-0.0170435
-0.00242117
0.0011072
-0.00249604
-0.00816219
-0.0150169
-0.0228509
-0.0312327
-0.0397019
-0.0482865
-0.0578793
-0.0694159
-0.0828918
-0.0968938
-0.108793
-0.115778
-0.116295
-0.108509
-0.0924964
-0.0689009
-0.0398663
-0.0101279
0.00124947
-0.0031705
-0.0096137
-0.0167165
-0.0246063
-0.0330399
-0.0418853
-0.0518199
-0.064314
-0.0803823
-0.0992808
-0.117831
-0.131949
-0.139113
-0.13963
-0.135069
-0.123464
-0.10268
-0.0712675
-0.0324327
-0.000533114
-0.00338287
-0.0100734
-0.0170444
-0.024617
-0.0328063
-0.041822
-0.0527702
-0.0672891
-0.08579
-0.10557
-0.122085
-0.132404
-0.136787
-0.136489
-0.132924
-0.127439
-0.116732
-0.0943441
-0.056748
-0.0108119
-0.00320883
-0.00963767
-0.0161242
-0.0230569
-0.0306801
-0.0393651
-0.0503262
-0.064904
-0.0821732
-0.0985538
-0.109744
-0.113841
-0.111891
-0.107555
-0.103875
-0.102395
-0.101749
-0.0941558
-0.0690069
-0.0264546
-0.00275124
-0.00848163
-0.0141633
-0.0201432
-0.0267741
-0.0343542
-0.0438061
-0.0558465
-0.0690718
-0.0801355
-0.0856087
-0.0848536
-0.080703
-0.0758862
-0.0711474
-0.0684046
-0.0701939
-0.0733398
-0.0637986
-0.0316526
-0.00209815
-0.00679876
-0.0114083
-0.0161479
-0.0213172
-0.0269989
-0.033581
-0.0413854
-0.0491273
-0.0551324
-0.0573058
-0.0561942
-0.0537301
-0.050249
-0.0457801
-0.0418263
-0.0411199
-0.0463005
-0.0473981
-0.0283577
-0.00133912
-0.00479701
-0.00815021
-0.0114381
-0.0147996
-0.0181064
-0.0211396
-0.0240037
-0.0258704
-0.0273818
-0.0276371
-0.0273037
-0.0269362
-0.0256527
-0.0231105
-0.0211855
-0.0205247
-0.0245681
-0.0295827
-0.0211305
-0.00055349
-0.00265703
-0.00465439
-0.00640966
-0.0078642
-0.0087369
-0.00832904
-0.00644709
-0.00310272
0.00028196
0.00245791
0.0029332
0.00188906
0.000838834
1.32164e-05
-0.00210784
-0.00461756
-0.00982101
-0.0160768
-0.014838
0.000198921
-0.000568973
-0.00121429
-0.00148807
-0.0011587
0.000121968
0.00324702
0.00883114
0.0164039
0.0241883
0.0296086
0.0317229
0.0308289
0.0277453
0.0221328
0.0151667
0.00870273
0.000675148
-0.00704132
-0.011564
0.000800792
0.00127954
0.00188432
0.0029274
0.00475447
0.00773152
0.0126258
0.0203304
0.0303088
0.0410154
0.0494464
0.0538526
0.0536332
0.0490194
0.0397872
0.0290049
0.0190432
0.00817622
-0.0014543
-0.0104708
0.0012259
0.00273675
0.00442928
0.00658643
0.00958477
0.0137544
0.019613
0.0279302
0.0385794
0.0500415
0.0596879
0.0653554
0.0657026
0.060547
0.050359
0.0380617
0.0260215
0.0131362
0.00169628
-0.0106892
0.00140882
0.00368593
0.00626716
0.00934824
0.0132494
0.0182072
0.0245325
0.0326566
0.0426215
0.0532898
0.0625643
0.0681748
0.0687842
0.0641772
0.0549001
0.0428754
0.0302112
0.0161272
0.00339481
-0.0115437
0.00131902
0.00395078
0.00723359
0.0110968
0.0157307
0.0212567
0.0278274
0.0355615
0.0443899
0.0535842
0.0616498
0.0667428
0.0677131
0.0640789
0.0562115
0.0453966
0.0328996
0.0182482
0.00547341
-0.0121954
0.000646329
0.00342828
0.0071938
0.0116708
0.0169416
0.0229962
0.029826
0.0373457
0.0453242
0.0532068
0.0600569
0.064612
0.0658534
0.0632491
0.0568287
0.0475151
0.035191
0.0219296
0.0107138
-0.0114084
-0.000743557
0.000776044
0.00508974
0.0104516
0.0165573
0.0233371
0.0306684
0.0383604
0.0461097
0.0534358
0.0596876
0.0640884
0.0658331
0.064178
0.058971
0.0510374
0.0385627
0.0311614
0.0187421
-0.00773668
-0.00324728
-0.0025435
0.00263086
0.00855719
0.0154607
0.0232072
0.031497
0.0399898
0.0483446
0.0561444
0.0628642
0.0678443
0.0704114
0.0703346
0.0668735
0.0612358
0.0487407
0.0519428
0.0226012
0.00548519
-0.00667763
-0.00995052
0.000704154
0.012661
0.0245813
0.0364888
0.0479534
0.058882
0.069195
0.0787478
0.0872871
0.0945024
0.100042
0.103913
0.105198
0.10596
0.0956789
0.106385
0.0296657
0.0716247
0.0404135
0.0608336
0.0864483
0.108712
0.126374
0.14154
0.15556
0.168748
0.181097
0.192607
0.203221
0.212838
0.221245
0.228439
0.233398
0.238541
0.23148
0.252205
0.125729
0.378541
)
;

boundaryField
{
    movingWall
    {
        type            calculated;
        value           uniform 1;
    }
    fixedWalls
    {
        type            calculated;
        value           uniform 0;
    }
    frontAndBack
    {
        type            empty;
    }
}


// ************************************************************************* //
