/*--------------------------------*- C++ -*----------------------------------*\
| =========                 |                                                 |
| \\      /  F ield         | OpenFOAM: The Open Source CFD Toolbox           |
|  \\    /   O peration     | Version:  2312                                  |
|   \\  /    A nd           | Website:  www.openfoam.com                      |
|    \\/     M anipulation  |                                                 |
\*---------------------------------------------------------------------------*/
FoamFile
{
    version     2.0;
    format      ascii;
    arch        "LSB;label=32;scalar=64";
    class       volScalarField;
    location    "2";
    object      Uy;
}
// * * * * * * * * * * * * * * * * * * * * * * * * * * * * * * * * * * * * * //

dimensions      [0 1 -1 0 0 0 0];

internalField   nonuniform List<scalar> 
400
(
0.000210241
0.00105993
0.00160757
0.00188579
0.00221329
0.00270049
0.00323574
0.00363898
0.0038231
0.00369639
0.00303676
0.00160387
-0.000640366
-0.00333056
-0.00570285
-0.00705133
-0.00658313
-0.00408119
-0.00124164
0.000848662
0.0024732
0.00562109
0.00739136
0.00828525
0.00906118
0.00979104
0.0103144
0.0106807
0.0108365
0.0102359
0.00804354
0.00381108
-0.00223492
-0.00929608
-0.0162107
-0.0208911
-0.0210338
-0.0153399
-0.00610884
0.000970851
0.00705496
0.0118253
0.0145995
0.0162357
0.0173308
0.0180147
0.0185902
0.0195387
0.0207147
0.0210145
0.0186579
0.0118482
0.000294371
-0.0143586
-0.0292928
-0.0407476
-0.0448494
-0.0371837
-0.0181216
0.000108287
0.0127789
0.0186091
0.0220473
0.0243073
0.0258051
0.0269119
0.0286843
0.0320093
0.0360209
0.037804
0.0337153
0.0220786
0.0038575
-0.0185
-0.0419549
-0.0630326
-0.076034
-0.0730141
-0.046858
-0.00778046
0.0191052
0.0257208
0.0295292
0.0322716
0.0343938
0.0366857
0.0408616
0.0476705
0.0547505
0.0567799
0.0493027
0.0318093
0.00707893
-0.0206044
-0.0488811
-0.0766534
-0.100552
-0.110986
-0.0904401
-0.0274613
0.0254475
0.0326744
0.0366805
0.03989
0.0429095
0.0469269
0.0540249
0.0643466
0.0730126
0.0728502
0.0600299
0.0364004
0.00783753
-0.0213492
-0.0495414
-0.0780968
-0.108569
-0.135581
-0.136295
-0.0711413
0.0312903
0.0390333
0.0431345
0.0467704
0.0507792
0.0565754
0.0662812
0.0788614
0.087209
0.0836892
0.0651814
0.0360576
0.00421088
-0.0253513
-0.0518324
-0.0765741
-0.104898
-0.141107
-0.169044
-0.122549
0.0362042
0.0444384
0.048568
0.0525178
0.0573145
0.0643563
0.0755365
0.0890124
0.0961596
0.0893724
0.0664991
0.0337821
-0.000164138
-0.0311163
-0.0576643
-0.0795333
-0.101772
-0.135304
-0.181271
-0.170816
0.0398948
0.0486298
0.0527344
0.0567666
0.0618942
0.0693366
0.0806421
0.0937754
0.0994892
0.0917446
0.0675035
0.0335389
-0.00170863
-0.0347078
-0.0622684
-0.083134
-0.101981
-0.129196
-0.180829
-0.205539
0.0422026
0.0514498
0.0554477
0.0592905
0.064229
0.0712372
0.0814256
0.0931782
0.0982442
0.0910647
0.0678089
0.0347338
-0.0007712
-0.0346151
-0.062544
-0.0828823
-0.100387
-0.124643
-0.176467
-0.226575
0.0430951
0.0528546
0.0566825
0.0601008
0.0643919
0.0702829
0.0784934
0.0879512
0.0923574
0.0862834
0.0665705
0.0363326
0.00200907
-0.0310926
-0.0583121
-0.0782568
-0.0950886
-0.118021
-0.170323
-0.239084
0.0426499
0.0529023
0.0565198
0.0593519
0.0627132
0.067124
0.0729568
0.079484
0.0825161
0.0772407
0.0612602
0.0358944
0.00573578
-0.0243603
-0.0499782
-0.0696226
-0.0862958
-0.108539
-0.162305
-0.246612
0.0411432
0.0517507
0.055129
0.0573056
0.0596437
0.062536
0.0660691
0.069675
0.0708493
0.0659897
0.0532475
0.032904
0.00812787
-0.0171057
-0.0395438
-0.0582504
-0.0747885
-0.0967601
-0.152244
-0.251746
0.0389203
0.0496577
0.0527207
0.0542208
0.0555672
0.0571066
0.0587775
0.0600783
0.0595486
0.0550543
0.0449766
0.0293806
0.0103101
-0.00975503
-0.0287163
-0.0459049
-0.0618151
-0.0833515
-0.140361
-0.255339
0.0361026
0.0467263
0.0494125
0.0502567
0.0507362
0.0511817
0.0515072
0.0513014
0.0496794
0.0455045
0.0377555
0.0262525
0.0119979
-0.00338644
-0.0188188
-0.0338411
-0.048428
-0.0693614
-0.126046
-0.257651
0.034559
0.0439794
0.0457425
0.0457295
0.0453748
0.0449414
0.0443639
0.0433314
0.0412732
0.0375704
0.0316938
0.0234408
0.0132154
0.00179463
-0.0101869
-0.0226653
-0.0354095
-0.056592
-0.109774
-0.260366
0.0291921
0.0376639
0.0395765
0.0395856
0.0389982
0.0381328
0.0371074
0.0357763
0.0337975
0.0307933
0.0264597
0.0206386
0.0136316
0.00567555
-0.00306133
-0.0128607
-0.0236341
-0.0468992
-0.0946465
-0.266322
0.0441625
0.0468639
0.0428229
0.0384404
0.0352243
0.0328175
0.0309052
0.0291515
0.0272231
0.0248474
0.0218224
0.0181781
0.0139082
0.00915156
0.00391098
-0.0030838
-0.0128378
-0.0379816
-0.0761159
-0.268019
0.0147655
0.00943415
0.0114607
0.0152541
0.0163714
0.0162688
0.0158976
0.0154883
0.0149453
0.0141455
0.0130252
0.0115879
0.00986825
0.00779254
0.00539178
0.00134754
-0.00392624
-0.021284
-0.04216
-0.226101
0.0930763
0.0696288
0.0435737
0.0289291
0.0213166
0.0168879
0.0139832
0.0119202
0.0103679
0.00915533
0.0081468
0.00726898
0.00646378
0.00566489
0.00476796
0.00350396
0.00207573
-0.00309223
0.003456
-0.0982191
)
;

boundaryField
{
    movingWall
    {
        type            calculated;
        value           uniform 0;
    }
    fixedWalls
    {
        type            calculated;
        value           uniform 0;
    }
    frontAndBack
    {
        type            empty;
    }
}


// ************************************************************************* //
