/*--------------------------------*- C++ -*----------------------------------*\
| =========                 |                                                 |
| \\      /  F ield         | OpenFOAM: The Open Source CFD Toolbox           |
|  \\    /   O peration     | Version:  2312                                  |
|   \\  /    A nd           | Website:  www.openfoam.com                      |
|    \\/     M anipulation  |                                                 |
\*---------------------------------------------------------------------------*/
FoamFile
{
    version     2.0;
    format      ascii;
    arch        "LSB;label=32;scalar=64";
    class       volVectorField;
    location    "2";
    object      vorticityField;
}
// * * * * * * * * * * * * * * * * * * * * * * * * * * * * * * * * * * * * * //

dimensions      [0 0 -1 0 0 0 0];

internalField   nonuniform List<vector> 
400
(
(0 -0 0.287594)
(0 -0 0.945041)
(0 -0 1.90118)
(0 -0 3.0506)
(0 -0 4.34583)
(0 -0 5.72418)
(0 -0 7.13301)
(0 -0 8.57248)
(0 -0 10.0732)
(0 -0 11.5915)
(0 -0 12.9455)
(0 -0 13.8578)
(0 -0 14.0356)
(0 -0 13.263)
(0 -0 11.4901)
(0 -0 8.92159)
(0 -0 5.92498)
(0 -0 2.86686)
(0 -0 0.682731)
(0 -0 -0.191692)
(0 -0 1.0331)
(0 -0 1.0735)
(0 -0 1.13735)
(0 -0 1.35865)
(0 -0 1.66756)
(0 -0 1.91509)
(0 -0 2.09852)
(0 -0 2.33276)
(0 -0 2.66985)
(0 -0 3.06456)
(0 -0 3.47039)
(0 -0 3.85979)
(0 -0 4.23081)
(0 -0 4.64119)
(0 -0 5.0441)
(0 -0 5.42777)
(0 -0 5.54285)
(0 -0 4.85076)
(0 -0 2.69624)
(0 -0 0.509122)
(0 -0 2.07043)
(0 -0 1.14505)
(0 -0 0.924865)
(0 -0 0.837154)
(0 -0 0.823826)
(0 -0 0.872956)
(0 -0 1.11433)
(0 -0 1.6375)
(0 -0 2.34566)
(0 -0 2.99762)
(0 -0 3.28821)
(0 -0 3.12466)
(0 -0 2.79788)
(0 -0 2.82581)
(0 -0 3.65313)
(0 -0 5.12067)
(0 -0 6.89878)
(0 -0 8.09519)
(0 -0 6.73036)
(0 -0 1.96537)
(0 -0 3.22749)
(0 -0 1.11796)
(0 -0 0.772566)
(0 -0 0.552389)
(0 -0 0.417813)
(0 -0 0.499932)
(0 -0 0.95811)
(0 -0 1.67464)
(0 -0 2.21688)
(0 -0 2.03729)
(0 -0 0.946601)
(0 -0 -0.624634)
(0 -0 -1.95696)
(0 -0 -2.56189)
(0 -0 -2.01176)
(0 -0 0.0863671)
(0 -0 3.78492)
(0 -0 8.36538)
(0 -0 11.1854)
(0 -0 6.66998)
(0 -0 4.48643)
(0 -0 1.0448)
(0 -0 0.595851)
(0 -0 0.331522)
(0 -0 0.205442)
(0 -0 0.394763)
(0 -0 0.9491)
(0 -0 1.44788)
(0 -0 1.09002)
(0 -0 -0.617469)
(0 -0 -3.3058)
(0 -0 -6.03317)
(0 -0 -7.96352)
(0 -0 -8.80355)
(0 -0 -8.72434)
(0 -0 -7.27402)
(0 -0 -3.52639)
(0 -0 3.30002)
(0 -0 12.0099)
(0 -0 14.3823)
(0 -0 5.74903)
(0 -0 0.964123)
(0 -0 0.433451)
(0 -0 0.175517)
(0 -0 0.100471)
(0 -0 0.364762)
(0 -0 0.845558)
(0 -0 0.754496)
(0 -0 -0.821458)
(0 -0 -3.84174)
(0 -0 -7.29263)
(0 -0 -9.97432)
(0 -0 -11.3834)
(0 -0 -11.7981)
(0 -0 -11.8525)
(0 -0 -11.8062)
(0 -0 -10.4021)
(0 -0 -4.87311)
(0 -0 7.14899)
(0 -0 22.8277)
(0 -0 6.92129)
(0 -0 0.90053)
(0 -0 0.302118)
(0 -0 0.0735742)
(0 -0 0.0442157)
(0 -0 0.313575)
(0 -0 0.554078)
(0 -0 -0.25907)
(0 -0 -2.82181)
(0 -0 -6.54491)
(0 -0 -10.0069)
(0 -0 -11.8617)
(0 -0 -11.957)
(0 -0 -11.3349)
(0 -0 -10.9317)
(0 -0 -11.3634)
(0 -0 -12.5162)
(0 -0 -11.2001)
(0 -0 -0.305041)
(0 -0 29.3496)
(0 -0 7.92305)
(0 -0 0.867915)
(0 -0 0.206635)
(0 -0 0.0041393)
(0 -0 -0.0136048)
(0 -0 0.197418)
(0 -0 0.198957)
(0 -0 -1.12196)
(0 -0 -4.28414)
(0 -0 -8.24142)
(0 -0 -11.3562)
(0 -0 -12.4213)
(0 -0 -11.8665)
(0 -0 -10.7734)
(0 -0 -9.64539)
(0 -0 -9.13264)
(0 -0 -10.544)
(0 -0 -12.8271)
(0 -0 -6.97272)
(0 -0 34.1564)
(0 -0 8.69799)
(0 -0 0.869786)
(0 -0 0.138286)
(0 -0 -0.0578464)
(0 -0 -0.0883036)
(0 -0 0.0485992)
(0 -0 -0.0813112)
(0 -0 -1.60912)
(0 -0 -4.80554)
(0 -0 -8.74001)
(0 -0 -11.7969)
(0 -0 -12.834)
(0 -0 -12.3866)
(0 -0 -11.1648)
(0 -0 -9.42195)
(0 -0 -7.9431)
(0 -0 -8.2564)
(0 -0 -11.5328)
(0 -0 -10.7665)
(0 -0 37.2848)
(0 -0 9.21143)
(0 -0 0.901715)
(0 -0 0.0904761)
(0 -0 -0.116879)
(0 -0 -0.169413)
(0 -0 -0.103176)
(0 -0 -0.244563)
(0 -0 -1.60163)
(0 -0 -4.43877)
(0 -0 -8.20054)
(0 -0 -11.3577)
(0 -0 -12.7607)
(0 -0 -12.7114)
(0 -0 -11.5171)
(0 -0 -9.35105)
(0 -0 -7.41956)
(0 -0 -7.09885)
(0 -0 -10.1322)
(0 -0 -12.4473)
(0 -0 39.3475)
(0 -0 9.45954)
(0 -0 0.965088)
(0 -0 0.070753)
(0 -0 -0.162768)
(0 -0 -0.243661)
(0 -0 -0.236696)
(0 -0 -0.32865)
(0 -0 -1.29135)
(0 -0 -3.50794)
(0 -0 -6.65203)
(0 -0 -9.69393)
(0 -0 -11.5481)
(0 -0 -11.9169)
(0 -0 -10.8502)
(0 -0 -8.69383)
(0 -0 -6.78892)
(0 -0 -6.34248)
(0 -0 -9.32318)
(0 -0 -13.5685)
(0 -0 40.504)
(0 -0 9.45252)
(0 -0 1.05642)
(0 -0 0.0805986)
(0 -0 -0.188107)
(0 -0 -0.297132)
(0 -0 -0.338892)
(0 -0 -0.400598)
(0 -0 -0.953971)
(0 -0 -2.44188)
(0 -0 -4.7109)
(0 -0 -7.14256)
(0 -0 -8.9157)
(0 -0 -9.51285)
(0 -0 -8.85157)
(0 -0 -7.34885)
(0 -0 -5.92126)
(0 -0 -5.6235)
(0 -0 -8.84698)
(0 -0 -14.6811)
(0 -0 40.8042)
(0 -0 9.22859)
(0 -0 1.15794)
(0 -0 0.117208)
(0 -0 -0.190612)
(0 -0 -0.326456)
(0 -0 -0.405028)
(0 -0 -0.476765)
(0 -0 -0.754591)
(0 -0 -1.59979)
(0 -0 -2.98762)
(0 -0 -4.62036)
(0 -0 -5.94418)
(0 -0 -6.51607)
(0 -0 -6.28294)
(0 -0 -5.62576)
(0 -0 -4.91152)
(0 -0 -4.96777)
(0 -0 -8.54069)
(0 -0 -15.9835)
(0 -0 40.5063)
(0 -0 8.84849)
(0 -0 1.25864)
(0 -0 0.175882)
(0 -0 -0.166392)
(0 -0 -0.32602)
(0 -0 -0.429199)
(0 -0 -0.52428)
(0 -0 -0.686028)
(0 -0 -1.08344)
(0 -0 -1.81147)
(0 -0 -2.76356)
(0 -0 -3.6054)
(0 -0 -4.11461)
(0 -0 -4.25583)
(0 -0 -4.20023)
(0 -0 -4.04337)
(0 -0 -4.43248)
(0 -0 -8.36578)
(0 -0 -17.5765)
(0 -0 39.7206)
(0 -0 8.35914)
(0 -0 1.35676)
(0 -0 0.260382)
(0 -0 -0.0998867)
(0 -0 -0.276729)
(0 -0 -0.401801)
(0 -0 -0.517385)
(0 -0 -0.651695)
(0 -0 -0.849964)
(0 -0 -1.18409)
(0 -0 -1.67446)
(0 -0 -2.21948)
(0 -0 -2.67081)
(0 -0 -2.98886)
(0 -0 -3.23833)
(0 -0 -3.42489)
(0 -0 -4.05001)
(0 -0 -8.342)
(0 -0 -19.5609)
(0 -0 38.3562)
(0 -0 8.0601)
(0 -0 1.43582)
(0 -0 0.389393)
(0 -0 0.0277565)
(0 -0 -0.161462)
(0 -0 -0.30913)
(0 -0 -0.445093)
(0 -0 -0.588958)
(0 -0 -0.748083)
(0 -0 -0.943098)
(0 -0 -1.21675)
(0 -0 -1.58241)
(0 -0 -1.97661)
(0 -0 -2.35013)
(0 -0 -2.72195)
(0 -0 -3.08634)
(0 -0 -3.95897)
(0 -0 -8.72778)
(0 -0 -21.7043)
(0 -0 36.5682)
(0 -0 7.07497)
(0 -0 1.63561)
(0 -0 0.64846)
(0 -0 0.253538)
(0 -0 0.00281155)
(0 -0 -0.210188)
(0 -0 -0.402751)
(0 -0 -0.595395)
(0 -0 -0.800328)
(0 -0 -1.02755)
(0 -0 -1.29621)
(0 -0 -1.60605)
(0 -0 -1.9521)
(0 -0 -2.37784)
(0 -0 -2.8581)
(0 -0 -3.42935)
(0 -0 -4.75882)
(0 -0 -10.1025)
(0 -0 -23.131)
(0 -0 34.4075)
(0 -0 9.69604)
(0 -0 0.938702)
(0 -0 -0.403783)
(0 -0 -0.980811)
(0 -0 -1.36469)
(0 -0 -1.74708)
(0 -0 -2.0951)
(0 -0 -2.42037)
(0 -0 -2.73894)
(0 -0 -3.07127)
(0 -0 -3.42688)
(0 -0 -3.83282)
(0 -0 -4.32352)
(0 -0 -4.97322)
(0 -0 -5.84623)
(0 -0 -7.16711)
(0 -0 -9.20141)
(0 -0 -13.8501)
(0 -0 -24.0961)
(0 -0 26.4773)
(0 -0 -1.94612)
(0 -0 -6.66819)
(0 -0 -7.79975)
(0 -0 -9.52442)
(0 -0 -10.9898)
(0 -0 -11.8806)
(0 -0 -12.4844)
(0 -0 -12.971)
(0 -0 -13.4095)
(0 -0 -13.8383)
(0 -0 -14.2915)
(0 -0 -14.8151)
(0 -0 -15.4629)
(0 -0 -16.2581)
(0 -0 -17.2969)
(0 -0 -18.6623)
(0 -0 -20.5371)
(0 -0 -23.8496)
(0 -0 -30.7945)
(0 -0 -10.4795)
(0 -0 -180.356)
(0 -0 -199.862)
(0 -0 -195.355)
(0 -0 -190.088)
(0 -0 -186.109)
(0 -0 -182.93)
(0 -0 -180.145)
(0 -0 -177.599)
(0 -0 -175.247)
(0 -0 -173.087)
(0 -0 -171.138)
(0 -0 -169.434)
(0 -0 -168.032)
(0 -0 -166.934)
(0 -0 -166.357)
(0 -0 -165.819)
(0 -0 -167.944)
(0 -0 -164.003)
(0 -0 -193.973)
(0 -0 -145.507)
)
;

boundaryField
{
    movingWall
    {
        type            calculated;
        value           nonuniform List<vector> 
20
(
(0 -0 -367.564)
(0 -0 -380.617)
(0 -0 -369.491)
(0 -0 -358.741)
(0 -0 -350.655)
(0 -0 -344.117)
(0 -0 -338.273)
(0 -0 -332.863)
(0 -0 -327.838)
(0 -0 -323.179)
(0 -0 -318.9)
(0 -0 -315.033)
(0 -0 -311.662)
(0 -0 -308.794)
(0 -0 -306.857)
(0 -0 -304.853)
(0 -0 -308.068)
(0 -0 -298.98)
(0 -0 -359.221)
(0 -0 -239.107)
)
;
    }
    fixedWalls
    {
        type            calculated;
        value           nonuniform List<vector> 
60
(
(0 -0 0.244674)
(0 -0 1.21295)
(0 -0 3.00439)
(0 -0 5.20025)
(0 -0 7.64592)
(0 -0 10.1158)
(0 -0 12.405)
(0 -0 14.3405)
(0 -0 15.8034)
(0 -0 16.7272)
(0 -0 17.1026)
(0 -0 16.9573)
(0 -0 16.3965)
(0 -0 15.5588)
(0 -0 14.5173)
(0 -0 14.0299)
(0 -0 12.0662)
(0 -0 18.2584)
(0 -0 1.54013)
(0 -0 -159.396)
(0 -0 -0.570455)
(0 -0 -0.393018)
(0 -0 0.120717)
(0 -0 4.31832)
(0 -0 13.5767)
(0 -0 30.5406)
(0 -0 49.2099)
(0 -0 67.274)
(0 -0 80.8636)
(0 -0 89.6732)
(0 -0 95.1967)
(0 -0 98.5574)
(0 -0 100.806)
(0 -0 102.286)
(0 -0 103.047)
(0 -0 103.701)
(0 -0 104.84)
(0 -0 99.2713)
(0 -0 53.1348)
(0 -0 -115.696)
(0 -0 0.230752)
(0 -0 1.07786)
(0 -0 2.60564)
(0 -0 4.43426)
(0 -0 6.50665)
(0 -0 8.82393)
(0 -0 11.3702)
(0 -0 14.0883)
(0 -0 16.9148)
(0 -0 19.7027)
(0 -0 22.0968)
(0 -0 23.5989)
(0 -0 23.6518)
(0 -0 21.8567)
(0 -0 18.2173)
(0 -0 13.2702)
(0 -0 7.90645)
(0 -0 3.04762)
(0 -0 0.283498)
(0 -0 -0.441782)
)
;
    }
    frontAndBack
    {
        type            empty;
    }
}


// ************************************************************************* //
