/*--------------------------------*- C++ -*----------------------------------*\
| =========                 |                                                 |
| \\      /  F ield         | OpenFOAM: The Open Source CFD Toolbox           |
|  \\    /   O peration     | Version:  2312                                  |
|   \\  /    A nd           | Website:  www.openfoam.com                      |
|    \\/     M anipulation  |                                                 |
\*---------------------------------------------------------------------------*/
FoamFile
{
    version     2.0;
    format      ascii;
    arch        "LSB;label=32;scalar=64";
    class       volVectorField;
    location    "2";
    object      wallShearStress;
}
// * * * * * * * * * * * * * * * * * * * * * * * * * * * * * * * * * * * * * //

dimensions      [0 2 -2 0 0 0 0];

internalField   uniform (0 0 0);

boundaryField
{
    movingWall
    {
        type            calculated;
        value           uniform (0 0 0);
    }
    fixedWalls
    {
        type            calculated;
        value           nonuniform List<vector> 
60
(
(3.17209e-06 7.6481e-07 0)
(1.17441e-05 -7.6561e-06 0)
(2.01827e-05 -2.63958e-05 0)
(2.49429e-05 -5.02288e-05 0)
(2.64877e-05 -7.63826e-05 0)
(2.52371e-05 -0.000102422 0)
(2.18444e-05 -0.000126272 0)
(1.69264e-05 -0.000146229 0)
(1.11408e-05 -0.000161124 0)
(5.08549e-06 -0.000170348 0)
(-7.62688e-07 -0.000173735 0)
(-5.57215e-06 -0.000171627 0)
(-9.02452e-06 -0.000165181 0)
(-1.08741e-05 -0.000155774 0)
(-9.94229e-06 -0.000143648 0)
(-8.05406e-06 -0.000136173 0)
(1.0368e-05 -0.000112875 0)
(7.70109e-06 -0.000170716 0)
(6.82232e-05 -0.000102723 0)
(-0.000287433 -0.00233857 0)
(-7.62741e-06 -1.08475e-06 0)
(-5.4115e-06 -3.83663e-06 0)
(-8.29637e-07 -2.07346e-06 0)
(2.1223e-05 1.90604e-05 0)
(9.99042e-05 8.39235e-05 0)
(0.000204483 0.000263724 0)
(0.000235264 0.000488293 0)
(0.000206568 0.000693784 0)
(0.000149869 0.000835675 0)
(0.000101499 0.000915865 0)
(7.50333e-05 0.000960702 0)
(6.42859e-05 0.000987324 0)
(6.28271e-05 0.00100591 0)
(6.5503e-05 0.00101985 0)
(6.83934e-05 0.00103074 0)
(6.66256e-05 0.00104592 0)
(4.63639e-05 0.00108218 0)
(-5.60685e-05 0.00115144 0)
(-0.000533484 0.00137623 0)
(-0.00259135 0.00225236 0)
(-2.3282e-07 -2.85772e-06 0)
(7.98392e-06 -9.68516e-06 0)
(2.44047e-05 -1.42997e-05 0)
(4.31311e-05 -1.65611e-05 0)
(6.34371e-05 -1.90509e-05 0)
(8.61944e-05 -2.2488e-05 0)
(0.000111825 -2.61037e-05 0)
(0.000139708 -2.87956e-05 0)
(0.000169033 -2.99761e-05 0)
(0.000198599 -2.87091e-05 0)
(0.000225153 -2.31716e-05 0)
(0.000243343 -1.16194e-05 0)
(0.000246387 6.08807e-06 0)
(0.000228692 2.70228e-05 0)
(0.000189615 4.54231e-05 0)
(0.000134463 5.5907e-05 0)
(7.31242e-05 5.31846e-05 0)
(1.97932e-05 3.47979e-05 0)
(-7.02472e-06 1.1613e-05 0)
(-5.20378e-06 -5.67714e-06 0)
)
;
    }
    frontAndBack
    {
        type            empty;
    }
}


// ************************************************************************* //
