/*--------------------------------*- C++ -*----------------------------------*\
| =========                 |                                                 |
| \\      /  F ield         | OpenFOAM: The Open Source CFD Toolbox           |
|  \\    /   O peration     | Version:  2312                                  |
|   \\  /    A nd           | Website:  www.openfoam.com                      |
|    \\/     M anipulation  |                                                 |
\*---------------------------------------------------------------------------*/
FoamFile
{
    version     2.0;
    format      ascii;
    arch        "LSB;label=32;scalar=64";
    class       volScalarField;
    location    "2";
    object      yPlus;
}
// * * * * * * * * * * * * * * * * * * * * * * * * * * * * * * * * * * * * * //

dimensions      [0 0 0 0 0 0 0];

internalField   uniform 0;

boundaryField
{
    movingWall
    {
        type            calculated;
        value           nonuniform List<scalar> 
20
(
15.5249
15.3439
12.5269
13.286
13.6932
13.9254
14.0476
14.109
14.1118
14.1017
14.0779
14.0476
14.0211
14.005
14.0106
14.0359
14.1277
14.1565
14.5666
13.8956
)
;
    }
    fixedWalls
    {
        type            calculated;
        value           nonuniform List<scalar> 
60
(
0.2889
0.839041
1.3678
1.81427
2.20241
2.53224
2.80228
3.01102
3.159
3.24831
3.28236
3.26563
3.20786
3.12033
3.00527
2.9396
2.70193
3.32723
2.01279
5.03665
0.606625
0.606747
0.559945
1.39631
2.71629
4.35605
5.62518
6.57939
7.18718
7.53425
7.73568
7.85548
7.93683
7.99374
8.03025
8.0718
8.16141
8.18649
12.6691
13.8956
0.2889
0.802138
1.27566
1.66551
2.01337
2.34365
2.66346
2.9691
3.25749
3.52105
3.73656
3.87098
3.88479
3.74187
3.42133
2.92112
2.24335
1.36864
0.580426
0.606625
)
;
    }
    frontAndBack
    {
        type            empty;
    }
}


// ************************************************************************* //
