# Region        : all region0
# Cells         : 400
# Volume        : 1.00000000e-04
# Time          	none(p)	none(U)
0.5             
1               
1.5             
2               
2.5             
3               
3.5             
4               
4.5             
5               
5.5             
6               
6.5             
7               
7.5             
8               
8.5             
9               
9.5             
10              
