/*--------------------------------*- C++ -*----------------------------------*\
| =========                 |                                                 |
| \\      /  F ield         | OpenFOAM: The Open Source CFD Toolbox           |
|  \\    /   O peration     | Version:  2312                                  |
|   \\  /    A nd           | Website:  www.openfoam.com                      |
|    \\/     M anipulation  |                                                 |
\*---------------------------------------------------------------------------*/
FoamFile
{
    version     2.0;
    format      ascii;
    arch        "LSB;label=32;scalar=64";
    class       volVectorField;
    location    "0.625";
    object      diffU;
}
// * * * * * * * * * * * * * * * * * * * * * * * * * * * * * * * * * * * * * //

dimensions      [0 1 -1 0 0 0 0];

internalField   nonuniform List<vector> 
400
(
(0 0 0)
(-0.000577729 0.000290227 0)
(-0.00158589 0.000449348 0)
(-0.00266589 0.000480296 0)
(-0.00373365 0.000448889 0)
(-0.00472977 0.000392663 0)
(-0.00562206 0.000325247 0)
(-0.00638936 0.000249588 0)
(-0.00701244 0.000163681 0)
(-0.00747477 6.26082e-05 0)
(-0.00773166 -4.35608e-05 0)
(-0.007786 -0.000176235 0)
(-0.007582 -0.000324091 0)
(-0.00710458 -0.000486354 0)
(-0.00633626 -0.000655008 0)
(-0.00528328 -0.000813474 0)
(-0.00398865 -0.000930709 0)
(-0.00255221 -0.000948535 0)
(-0.0011245 -0.000780578 0)
(-0.00016903 -0.000431219 0)
(-0.000286668 0.000575411 0)
(-0.00117375 0.00118087 0)
(-0.00227062 0.00146544 0)
(-0.00341317 0.00152994 0)
(-0.00454158 0.00146871 0)
(-0.0056114 0.00133752 0)
(-0.00658608 0.0011631 0)
(-0.00743376 0.000955036 0)
(-0.00812594 0.000713327 0)
(-0.00863545 0.00043304 0)
(-0.00893081 0.000112881 0)
(-0.00898472 -0.000251893 0)
(-0.00876727 -0.000660545 0)
(-0.0082576 -0.0010997 0)
(-0.00744781 -0.00154428 0)
(-0.00635124 -0.00195117 0)
(-0.00500806 -0.00225331 0)
(-0.00349595 -0.00235049 0)
(-0.00193003 -0.00210912 0)
(-0.000542196 -0.00140013 0)
(-0.000464029 0.00157898 0)
(-0.00149949 0.00227875 0)
(-0.00262628 0.00257116 0)
(-0.00377403 0.00263267 0)
(-0.0049007 0.00253996 0)
(-0.00597637 0.00234202 0)
(-0.00696955 0.00206616 0)
(-0.00784731 0.00172453 0)
(-0.00857799 0.00131915 0)
(-0.00913071 0.000846479 0)
(-0.00947313 0.000302997 0)
(-0.00957361 -0.000313981 0)
(-0.00940178 -0.000998011 0)
(-0.00893303 -0.0017265 0)
(-0.00815543 -0.0024583 0)
(-0.00707448 -0.00312907 0)
(-0.0057168 -0.00364898 0)
(-0.00414213 -0.00390265 0)
(-0.00244952 -0.00375761 0)
(-0.000788792 -0.00295996 0)
(-0.000534612 0.002702 0)
(-0.00166394 0.00346567 0)
(-0.00284942 0.00373698 0)
(-0.00403836 0.00377662 0)
(-0.00519591 0.0036473 0)
(-0.00630194 0.0033865 0)
(-0.00733269 0.00301704 0)
(-0.00825905 0.00255025 0)
(-0.00905027 0.00198809 0)
(-0.00967445 0.00132646 0)
(-0.0100973 0.000560066 0)
(-0.0102832 -0.000312829 0)
(-0.0101941 -0.00128411 0)
(-0.0097942 -0.00232304 0)
(-0.00905644 -0.00337566 0)
(-0.0079665 -0.0043585 0)
(-0.00653084 -0.00515823 0)
(-0.00479972 -0.00563779 0)
(-0.00287981 -0.00564563 0)
(-0.000945567 -0.00477208 0)
(-0.000560564 0.00389572 0)
(-0.00176046 0.00472889 0)
(-0.00302208 0.00497012 0)
(-0.0042816 0.00497584 0)
(-0.00550365 0.00480429 0)
(-0.00667226 0.00448267 0)
(-0.00777039 0.00402748 0)
(-0.00877456 0.00344671 0)
(-0.00965753 0.00274005 0)
(-0.0103884 0.00190054 0)
(-0.0109312 0.000918709 0)
(-0.0112459 -0.000210982 0)
(-0.0112823 -0.0014788 0)
(-0.010985 -0.00285621 0)
(-0.0103019 -0.00428044 0)
(-0.00918643 -0.00565011 0)
(-0.00761638 -0.0068215 0)
(-0.00563707 -0.00761605 0)
(-0.00338144 -0.00783045 0)
(-0.00110436 -0.00685846 0)
(-0.000577888 0.00513587 0)
(-0.00184281 0.00606744 0)
(-0.00319229 0.00628514 0)
(-0.0045424 0.00625343 0)
(-0.00585435 0.00603651 0)
(-0.00711279 0.00565607 0)
(-0.0083062 0.00512327 0)
(-0.00941759 0.00444193 0)
(-0.0104253 0.00360761 0)
(-0.0113023 0.00260765 0)
(-0.0120132 0.00142482 0)
(-0.0125093 4.43047e-05 0)
(-0.0127294 -0.00153309 0)
(-0.012595 -0.00328797 0)
(-0.0120115 -0.00515789 0)
(-0.0108828 -0.00702651 0)
(-0.00913873 -0.00870785 0)
(-0.00681168 -0.00994532 0)
(-0.00407436 -0.0104318 0)
(-0.00132086 -0.00929903 0)
(-0.000601336 0.00642352 0)
(-0.0019378 0.00748964 0)
(-0.00338661 0.0076975 0)
(-0.00484257 0.00763094 0)
(-0.00626278 0.00736881 0)
(-0.00763142 0.00693311 0)
(-0.00894218 0.00633241 0)
(-0.0101859 0.00556717 0)
(-0.0113494 0.00462783 0)
(-0.0124128 0.00349363 0)
(-0.0133447 0.00213509 0)
(-0.0140942 0.000520873 0)
(-0.0145872 -0.00137312 0)
(-0.014714 -0.00354809 0)
(-0.0143253 -0.00595929 0)
(-0.0132439 -0.00848661 0)
(-0.0113076 -0.0108885 0)
(-0.00850674 -0.012772 0)
(-0.00506392 -0.0136337 0)
(-0.00162391 -0.0122375 0)
(-0.000636619 0.00777276 0)
(-0.00205851 0.00900797 0)
(-0.00361959 0.00922019 0)
(-0.00519395 0.00912329 0)
(-0.00673473 0.00881781 0)
(-0.00822586 0.00833183 0)
(-0.00966747 0.00767552 0)
(-0.0110606 0.00684808 0)
(-0.0124045 0.00583533 0)
(-0.0136926 0.00460691 0)
(-0.0149047 0.00311641 0)
(-0.0159958 0.00130552 0)
(-0.0168855 -0.000887289 0)
(-0.0174324 -0.00350993 0)
(-0.0174152 -0.00657027 0)
(-0.0165263 -0.0099771 0)
(-0.0144218 -0.013431 0)
(-0.0109721 -0.0163067 0)
(-0.00644907 -0.017726 0)
(-0.00200794 -0.0158642 0)
(-0.000686241 0.00920412 0)
(-0.00221263 0.0106389 0)
(-0.0039008 0.0108659 0)
(-0.00560375 0.0107406 0)
(-0.00727081 0.010392 0)
(-0.0088869 0.0098603 0)
(-0.0104608 0.00916244 0)
(-0.0120072 0.00830016 0)
(-0.0135437 0.0072573 0)
(-0.0150852 0.00599456 0)
(-0.0166352 0.00444582 0)
(-0.0181706 0.00251724 0)
(-0.0196202 8.99145e-05 0)
(-0.0208266 -0.00296291 0)
(-0.0214877 -0.00676828 0)
(-0.0210891 -0.0113515 0)
(-0.0189266 -0.0164031 0)
(-0.0145496 -0.0208989 0)
(-0.00826596 -0.0231786 0)
(-0.00237007 -0.0203793 0)
(-0.000752829 0.0107429 0)
(-0.00240811 0.0124028 0)
(-0.00424046 0.0126473 0)
(-0.00607933 0.0124883 0)
(-0.00787023 0.0120906 0)
(-0.00960096 0.011514 0)
(-0.0112919 0.010788 0)
(-0.012976 0.00992274 0)
(-0.0146954 0.00890543 0)
(-0.0164975 0.00769288 0)
(-0.0184273 0.00620249 0)
(-0.02051 0.00430172 0)
(-0.022717 0.00179513 0)
(-0.0249213 -0.00157984 0)
(-0.0267716 -0.00615457 0)
(-0.027455 -0.0122962 0)
(-0.0255451 -0.0198977 0)
(-0.0197638 -0.0272561 0)
(-0.010364 -0.030824 0)
(-0.00222481 -0.0258321 0)
(-0.000841831 0.0124209 0)
(-0.00265884 0.0143247 0)
(-0.00465479 0.014577 0)
(-0.0066324 0.0143655 0)
(-0.00853354 0.0139011 0)
(-0.0103518 0.0132714 0)
(-0.0121228 0.0125258 0)
(-0.0139014 0.01169 0)
(-0.01576 0.0107631 0)
(-0.0177889 0.0097095 0)
(-0.0200957 0.00844499 0)
(-0.022795 0.00681051 0)
(-0.0259717 0.00452663 0)
(-0.0296127 0.00114448 0)
(-0.0334787 -0.00402031 0)
(-0.0365043 -0.0120585 0)
(-0.035976 -0.0237071 0)
(-0.0286532 -0.0362779 0)
(-0.0139563 -0.0422096 0)
(-0.000582696 -0.0317898 0)
(-0.000965162 0.0142857 0)
(-0.00298968 0.0164379 0)
(-0.00517014 0.0166663 0)
(-0.00728064 0.0163618 0)
(-0.00926217 0.015795 0)
(-0.0111191 0.0150899 0)
(-0.0129059 0.0143222 0)
(-0.014701 0.0135407 0)
(-0.0166081 0.0127683 0)
(-0.0187651 0.0119965 0)
(-0.0213597 0.0111715 0)
(-0.0246441 0.0101517 0)
(-0.0289112 0.00861309 0)
(-0.0344615 0.00593148 0)
(-0.0416126 0.000970381 0)
(-0.049654 -0.00860722 0)
(-0.0543346 -0.0255465 0)
(-0.0485461 -0.047426 0)
(-0.0274515 -0.0598561 0)
(-0.000482903 -0.0383639 0)
(-0.00114624 0.0163925 0)
(-0.00344502 0.0187816 0)
(-0.00582356 0.01892 0)
(-0.00804293 0.0184509 0)
(-0.0100506 0.017722 0)
(-0.0118706 0.0169002 0)
(-0.013579 0.0160902 0)
(-0.0152742 0.0153688 0)
(-0.0170831 0.0147945 0)
(-0.0191807 0.0144122 0)
(-0.0218297 0.0142516 0)
(-0.0254461 0.0142837 0)
(-0.0306181 0.0142947 0)
(-0.0381685 0.0137453 0)
(-0.0498812 0.0113849 0)
(-0.0667219 0.00278384 0)
(-0.0821629 -0.0209737 0)
(-0.0812571 -0.0617763 0)
(-0.0555395 -0.0889268 0)
(-0.0140209 -0.0553215 0)
(-0.00142175 0.0189224 0)
(-0.00407118 0.0214206 0)
(-0.00664745 0.0213329 0)
(-0.00891919 0.0205816 0)
(-0.0108644 0.0196035 0)
(-0.0125405 0.0186034 0)
(-0.0140471 0.0177089 0)
(-0.0154935 0.0170217 0)
(-0.0170094 0.0166403 0)
(-0.0187692 0.0166827 0)
(-0.021053 0.0173178 0)
(-0.0243637 0.0187622 0)
(-0.0294605 0.0212225 0)
(-0.0374369 0.0248185 0)
(-0.0518468 0.0284322 0)
(-0.0755598 0.0230599 0)
(-0.0971866 -0.0119525 0)
(-0.100839 -0.0795452 0)
(-0.0820257 -0.135841 0)
(-0.0368382 -0.103003 0)
(-0.00187887 0.0217023 0)
(-0.0049724 0.0243103 0)
(-0.0076564 0.0238176 0)
(-0.0098553 0.0226343 0)
(-0.0115947 0.0213067 0)
(-0.012981 0.0200588 0)
(-0.0141409 0.0190231 0)
(-0.0151784 0.0183103 0)
(-0.0161939 0.0180421 0)
(-0.0173011 0.0184005 0)
(-0.0186747 0.0196963 0)
(-0.020665 0.022426 0)
(-0.0237731 0.0273234 0)
(-0.0284594 0.0352733 0)
(-0.0367328 0.0449686 0)
(-0.0532042 0.0420667 0)
(-0.0712395 0.00122387 0)
(-0.078274 -0.0838096 0)
(-0.0793533 -0.174652 0)
(-0.0465289 -0.176035 0)
(-0.00239698 0.0261576 0)
(-0.00598721 0.0277262 0)
(-0.00869302 0.0262991 0)
(-0.0106179 0.0244369 0)
(-0.0119427 0.0226525 0)
(-0.0128318 0.0211106 0)
(-0.0134796 0.0198861 0)
(-0.0139695 0.0190644 0)
(-0.014321 0.0187715 0)
(-0.0145608 0.0191713 0)
(-0.0146284 0.0206498 0)
(-0.0145241 0.0238342 0)
(-0.0141885 0.0296336 0)
(-0.0131175 0.0389411 0)
(-0.0109808 0.049694 0)
(-0.00969391 0.0505784 0)
(-0.0130417 0.0185395 0)
(-0.0134389 -0.0568575 0)
(-0.0409154 -0.165651 0)
(-0.036371 -0.239466 0)
(-0.00386303 0.0273735 0)
(-0.00787738 0.0294136 0)
(-0.00968861 0.0275258 0)
(-0.0106408 0.0252999 0)
(-0.0111223 0.0232321 0)
(-0.0113229 0.021444 0)
(-0.0112495 0.0200563 0)
(-0.0109642 0.0190967 0)
(-0.0104671 0.0186419 0)
(-0.00966572 0.0188051 0)
(-0.00836508 0.0198942 0)
(-0.00621819 0.022427 0)
(-0.00263741 0.0271025 0)
(0.00347215 0.0343922 0)
(0.0131857 0.0427816 0)
(0.0270831 0.0420213 0)
(0.033473 0.0177217 0)
(0.0436205 -0.0374743 0)
(0.00748126 -0.116316 0)
(-0.0164934 -0.274864 0)
(-0.00500947 0.0464029 0)
(-0.00815631 0.0415342 0)
(-0.00816606 0.0345882 0)
(-0.00742705 0.0292529 0)
(-0.00655805 0.0256613 0)
(-0.00535517 0.0228618 0)
(-0.0037821 0.0207579 0)
(-0.00196292 0.0192595 0)
(7.4718e-05 0.0182832 0)
(0.00246105 0.0178211 0)
(0.00544044 0.017974 0)
(0.00941784 0.0189816 0)
(0.0149646 0.0212442 0)
(0.0230679 0.0249638 0)
(0.0341028 0.0287497 0)
(0.0490538 0.0255396 0)
(0.0559782 0.00610794 0)
(0.0706289 -0.0369467 0)
(0.028757 -0.0879598 0)
(0.00688702 -0.276287 0)
(-0.00599501 0.0195617 0)
(-0.00740281 0.011844 0)
(-0.000826081 0.0108084 0)
(0.00596707 0.0131505 0)
(0.013744 0.0137251 0)
(0.0211461 0.0130779 0)
(0.0280637 0.0123792 0)
(0.0345355 0.0119043 0)
(0.0407019 0.0115782 0)
(0.046747 0.0113794 0)
(0.0528879 0.011333 0)
(0.0594047 0.0115218 0)
(0.0666611 0.012038 0)
(0.0753133 0.0127896 0)
(0.0850689 0.0131979 0)
(0.0977299 0.010381 0)
(0.0996193 0.00203762 0)
(0.117982 -0.0217169 0)
(0.0330544 -0.0497151 0)
(0.0752644 -0.232979 0)
(0.0409511 0.0922808 0)
(0.0635407 0.0693593 0)
(0.0890049 0.0434281 0)
(0.11073 0.0289331 0)
(0.127174 0.0212635 0)
(0.140712 0.0167185 0)
(0.152846 0.0137061 0)
(0.163995 0.0115873 0)
(0.174326 0.0100206 0)
(0.184027 0.00883808 0)
(0.193306 0.00796102 0)
(0.202375 0.00731388 0)
(0.211389 0.00683209 0)
(0.220701 0.00646237 0)
(0.22948 0.00603813 0)
(0.239707 0.00515232 0)
(0.238352 0.00352812 0)
(0.260328 -0.00194615 0)
(0.136891 0.00322735 0)
(0.383073 -0.0997639 0)
)
;

boundaryField
{
    movingWall
    {
        type            calculated;
        value           uniform (1.00013 -0.000135632 0);
    }
    fixedWalls
    {
        type            calculated;
        value           uniform (0.000133949 -0.000135632 0);
    }
    frontAndBack
    {
        type            empty;
    }
}


// ************************************************************************* //
