/*--------------------------------*- C++ -*----------------------------------*\
| =========                 |                                                 |
| \\      /  F ield         | OpenFOAM: The Open Source CFD Toolbox           |
|  \\    /   O peration     | Version:  2312                                  |
|   \\  /    A nd           | Website:  www.openfoam.com                      |
|    \\/     M anipulation  |                                                 |
\*---------------------------------------------------------------------------*/
FoamFile
{
    version     2.0;
    format      ascii;
    arch        "LSB;label=32;scalar=64";
    class       volScalarField;
    location    "0.625";
    object      diffP;
}
// * * * * * * * * * * * * * * * * * * * * * * * * * * * * * * * * * * * * * //

dimensions      [0 2 -2 0 0 0 0];

internalField   nonuniform List<scalar> 
400
(
-3
-3
-3
-3.00003
-3.00008
-3.00015
-3.00024
-3.00036
-3.0005
-3.00067
-3.00085
-3.00104
-3.00124
-3.00145
-3.00164
-3.00181
-3.00195
-3.00204
-3.00209
-3.00209
-3.00001
-3
-3.00001
-3.00004
-3.00009
-3.00016
-3.00025
-3.00037
-3.00051
-3.00066
-3.00084
-3.00103
-3.00122
-3.00142
-3.00162
-3.00179
-3.00193
-3.00203
-3.00209
-3.00209
-3
-3
-3
-3.00002
-3.00007
-3.00014
-3.00024
-3.00035
-3.00048
-3.00064
-3.00081
-3.001
-3.00121
-3.00141
-3.00161
-3.0018
-3.00196
-3.00207
-3.00213
-3.00213
-3
-3
-3
-3
-3.00002
-3.00009
-3.00018
-3.0003
-3.00043
-3.00059
-3.00077
-3.00097
-3.00119
-3.00141
-3.00164
-3.00185
-3.00203
-3.00216
-3.00223
-3.00222
-3
-3
-3
-3
-3
-3
-3.0001
-3.00021
-3.00035
-3.00051
-3.0007
-3.00092
-3.00116
-3.00141
-3.00167
-3.00193
-3.00214
-3.0023
-3.00237
-3.00236
-3
-3
-3
-3
-3
-3
-3
-3.00009
-3.00023
-3.0004
-3.0006
-3.00084
-3.00111
-3.00141
-3.00172
-3.00202
-3.0023
-3.00249
-3.00258
-3.00256
-3
-3
-3
-3
-3
-3
-3
-3
-3.00007
-3.00025
-3.00046
-3.00072
-3.00103
-3.00137
-3.00175
-3.00214
-3.00249
-3.00275
-3.00286
-3.00283
-3
-3
-3
-3
-3
-3
-3
-3
-3
-3.00005
-3.00027
-3.00055
-3.00089
-3.00129
-3.00176
-3.00226
-3.00273
-3.00307
-3.00322
-3.00316
-3
-3
-3
-3
-3
-3
-3
-3
-3
-3
-3.00001
-3.00029
-3.00067
-3.00113
-3.0017
-3.00234
-3.00299
-3.00349
-3.00368
-3.00355
-3
-3
-3
-3
-3
-3
-3
-3
-3
-3
-3
-3
-3.00032
-3.00083
-3.00151
-3.00235
-3.00327
-3.004
-3.00426
-3.00397
-3
-3
-3
-3
-3
-3
-3
-3
-3
-3
-3
-3
-3
-3.00032
-3.00107
-3.00214
-3.00351
-3.00471
-3.00498
-3.00434
-3
-3
-3
-3
-3
-3
-3
-3
-3
-3
-3
-3
-3
-3
-3.00022
-3.00142
-3.00343
-3.00543
-3.00572
-3.00452
-3
-3
-3
-3
-3
-3
-3
-3
-3
-3
-3
-3
-3
-3
-3
-3
-3.00109
-3.00376
-3.00551
-3.00415
-3
-3
-3
-3
-3
-3
-3
-3
-3
-3
-3
-3
-3
-3
-3
-3
-3
-3
-3
-3.00182
-3
-3
-3
-3
-3
-3
-3
-3
-3
-3
-3
-3
-3
-3
-3
-3
-3
-3
-3
-3
-3
-3
-3
-3
-3
-3
-3
-3
-3
-3
-3
-3
-3
-3
-3
-3
-3
-3
-3
-3
-3
-3
-3
-3
-3
-3
-3
-3
-3
-3
-3
-3
-3
-3
-3
-3
-3
-3
-3
-3
-3
-3
-3
-3
-3
-3
-3
-3
-3
-3
-3
-3
-3
-3
-3
-3
-3
-3
-3
-3
-3
-3
-3
-3
-3
-3
-3
-3
-3
-3
-3
-3
-3
-3
-3
-3
-3
-3
-3
-3.01882
-3.00094
-3.004
-3.00216
-3
-3
-3
-3
-3
-3
-3
-3
-3
-3
-3
-3
-3
-3
-3
-3
-3.10989
)
;

boundaryField
{
    movingWall
    {
        type            calculated;
        value           nonuniform List<scalar> 
20
(
-3.00094
-3.004
-3.00216
-3
-3
-3
-3
-3
-3
-3
-3
-3
-3
-3
-3
-3
-3
-3
-3
-3.10989
)
;
    }
    fixedWalls
    {
        type            calculated;
        value           nonuniform List<scalar> 
60
(
-3
-3.00001
-3
-3
-3
-3
-3
-3
-3
-3
-3
-3
-3
-3
-3
-3
-3
-3
-3
-3.00094
-3.00209
-3.00209
-3.00213
-3.00222
-3.00236
-3.00256
-3.00283
-3.00316
-3.00355
-3.00397
-3.00434
-3.00452
-3.00415
-3.00182
-3
-3
-3
-3
-3.01882
-3.10989
-3
-3
-3
-3.00003
-3.00008
-3.00015
-3.00024
-3.00036
-3.0005
-3.00067
-3.00085
-3.00104
-3.00124
-3.00145
-3.00164
-3.00181
-3.00195
-3.00204
-3.00209
-3.00209
)
;
    }
    frontAndBack
    {
        type            empty;
    }
}


// ************************************************************************* //
