/*--------------------------------*- C++ -*----------------------------------*\
| =========                 |                                                 |
| \\      /  F ield         | OpenFOAM: The Open Source CFD Toolbox           |
|  \\    /   O peration     | Version:  2312                                  |
|   \\  /    A nd           | Website:  www.openfoam.com                      |
|    \\/     M anipulation  |                                                 |
\*---------------------------------------------------------------------------*/
FoamFile
{
    version     2.0;
    format      ascii;
    arch        "LSB;label=32;scalar=64";
    class       volScalarField;
    location    "0.625";
    object      divU;
}
// * * * * * * * * * * * * * * * * * * * * * * * * * * * * * * * * * * * * * //

dimensions      [0 0 -1 0 0 0 0];

internalField   nonuniform List<scalar> 
400
(
0.000104825
0.015647
0.00978877
0.013374
0.0124985
0.0113039
0.0100018
0.00855042
0.00628636
0.00476906
0.00293473
-0.000720094
-0.00319511
-0.00690466
-0.0106723
-0.0145769
-0.0181698
-0.0163615
-0.0235247
0.00013372
-0.014933
0.000457426
-0.011762
-0.0118592
-0.0107158
-0.00951427
-0.00814364
-0.00649177
-0.0046225
-0.00209934
-0.00027106
0.0025795
0.00531976
0.00793121
0.0103067
0.0124156
0.013702
0.0123907
-0.0023279
0.0211387
-0.010483
0.0122545
-0.000299536
-0.00277352
-0.00237511
-0.00198817
-0.00170041
-0.00132245
-0.000863276
-0.000171829
0.000428652
0.00104148
0.00170148
0.00230074
0.0027169
0.0031295
0.00274287
-0.00200205
-0.0183175
0.0134269
-0.0149712
0.0135326
0.00245462
-0.000331346
7.50691e-05
0.000386746
0.00042083
0.000460358
0.000551409
0.000704317
0.000699484
0.000620646
0.000816605
0.000792504
0.000555725
0.000455984
-0.000574199
-0.00623633
-0.0218683
0.0194766
-0.0155048
0.0140257
0.00270162
-0.000475401
-0.000144327
0.000283004
0.00039296
0.000455141
0.000567875
0.000755604
0.000726443
0.000600626
0.00118915
0.00154701
0.0016363
0.00175092
-2.59736e-05
-0.00725951
-0.0253429
0.0226755
-0.0160796
0.0146354
0.00277936
-0.000696216
-0.000586491
-0.000141555
1.21753e-05
0.000133912
0.000309936
0.000525466
0.000935037
0.00156211
0.0019974
0.00259763
0.00333061
0.00363085
0.000421112
-0.00915571
-0.0312442
0.0284075
-0.0170137
0.0155255
0.00302789
-0.000632248
-0.000755027
-0.000364099
-0.000225578
-0.00010959
8.43177e-05
0.000398307
0.00101618
0.00187081
0.00260379
0.00399466
0.00577261
0.00671054
0.00140109
-0.0117737
-0.0411349
0.039051
-0.0182432
0.016629
0.00329836
-0.000544409
-0.000875959
-0.000554293
-0.000473861
-0.000405248
-0.000251506
7.81208e-05
0.000754244
0.00155572
0.00264474
0.00554257
0.00971463
0.0128478
0.0039574
-0.0154136
-0.0580786
0.0583079
-0.0196587
0.0180231
0.00360257
-0.000497086
-0.0010358
-0.000782645
-0.000784848
-0.000827623
-0.000787988
-0.000550249
7.34854e-05
0.00111584
0.00263715
0.00625782
0.0153216
0.0242079
0.0072821
-0.0288757
-0.0918583
0.0936101
-0.0212057
0.0198212
0.00398952
-0.00049229
-0.00124495
-0.00105442
-0.00116608
-0.00136389
-0.00156965
-0.0016924
-0.00133242
0.000355661
0.00254557
0.00527778
0.0214286
0.0519451
0.0387181
-0.0197876
-0.149201
0.144616
-0.0225787
0.0222202
0.00453861
-0.000528618
-0.00149686
-0.00133243
-0.00154128
-0.00193272
-0.0024743
-0.00320289
-0.00370883
-0.00260293
2.71651e-05
0.000435286
0.0233411
0.119167
0.22023
0.184973
-0.0961646
0.227506
-0.0251104
0.0251865
0.00520353
-0.000664582
-0.00176501
-0.00150751
-0.00175481
-0.00233864
-0.00327335
-0.00487908
-0.00723452
-0.00782539
-0.00493503
-0.0100608
0.0212753
0.212027
0.384126
0.138476
0.134604
0.467073
-0.0222472
0.030538
0.00686657
-0.000728647
-0.00192646
-0.00148776
-0.00167701
-0.00230313
-0.00344974
-0.0060407
-0.0119146
-0.0177852
-0.0113032
-0.0376138
-0.10916
-0.0614588
-0.0941164
-0.549577
-0.874874
0.518888
-0.0451019
0.0303064
0.00495431
-0.00335065
-0.00365378
-0.00240018
-0.00201718
-0.00208124
-0.00280598
-0.00553379
-0.0149807
-0.0265268
-0.00445693
-0.0858249
-0.453911
-0.605683
-0.308145
-0.687247
-2.17242
-0.158147
0.0116022
0.0528088
0.00833395
-0.00829662
-0.00767195
-0.00389327
-0.00201631
-0.00103834
0.00085158
0.000780627
-0.00318701
-0.00264126
0.0616717
0.11629
-0.348307
-0.698822
0.54222
1.45739
0.193566
-1.03128
-0.298089
-0.119281
-0.0922471
-0.0584134
-0.0288504
-0.0151703
-0.0104399
-0.00549789
0.000850489
0.00972474
0.023461
0.0440869
0.118567
0.232656
0.123668
-0.210636
1.27528
1.84615
3.5403
-2.12746
0.823699
0.798242
0.552569
0.338224
0.23267
0.162402
0.123052
0.0977535
0.0810237
0.0751813
0.0771706
0.0875109
0.1301
0.184576
0.266675
-0.475146
0.410578
-0.608092
1.7577
-2.75407
-2.12456
-2.07262
-1.59882
-1.05413
-0.743513
-0.559019
-0.428487
-0.333562
-0.26398
-0.206001
-0.16044
-0.138101
-0.141453
-0.246439
-0.359781
-0.976491
0.589096
-1.14638
0.285956
0.650823
3.22122
3.2994
2.22098
1.42502
1.07812
0.817641
0.633766
0.496599
0.394893
0.3203
0.26447
0.210547
0.149643
-0.00936289
-0.0294972
-0.583696
1.76721
-3.15643
4.84697
6.84721
-0.788988
-3.34208
-0.731851
-0.418577
-0.527808
-0.439532
-0.307372
-0.228363
-0.183726
-0.150787
-0.121735
-0.102458
-0.0815968
-0.143188
-0.0500452
-0.69332
1.47839
-7.80683
16.8961
-18.7225
)
;

boundaryField
{
    movingWall
    {
        type            extrapolatedCalculated;
        value           nonuniform List<scalar> 
20
(
-0.788988
-3.34208
-0.731851
-0.418577
-0.527808
-0.439532
-0.307372
-0.228363
-0.183726
-0.150787
-0.121735
-0.102458
-0.0815968
-0.143188
-0.0500452
-0.69332
1.47839
-7.80683
16.8961
-18.7225
)
;
    }
    fixedWalls
    {
        type            extrapolatedCalculated;
        value           nonuniform List<scalar> 
60
(
0.000104825
-0.014933
-0.010483
-0.0149712
-0.0155048
-0.0160796
-0.0170137
-0.0182432
-0.0196587
-0.0212057
-0.0225787
-0.0251104
-0.0222472
-0.0451019
0.0116022
-0.298089
0.823699
-2.12456
3.22122
-0.788988
0.00013372
0.0211387
0.0134269
0.0194766
0.0226755
0.0284075
0.039051
0.0583079
0.0936101
0.144616
0.227506
0.467073
0.518888
-0.158147
-1.03128
-2.12746
-2.75407
0.650823
6.84721
-18.7225
0.000104825
0.015647
0.00978877
0.013374
0.0124985
0.0113039
0.0100018
0.00855042
0.00628636
0.00476906
0.00293473
-0.000720094
-0.00319511
-0.00690466
-0.0106723
-0.0145769
-0.0181698
-0.0163615
-0.0235247
0.00013372
)
;
    }
    frontAndBack
    {
        type            empty;
    }
}


// ************************************************************************* //
