/*--------------------------------*- C++ -*----------------------------------*\
| =========                 |                                                 |
| \\      /  F ield         | OpenFOAM: The Open Source CFD Toolbox           |
|  \\    /   O peration     | Version:  2312                                  |
|   \\  /    A nd           | Website:  www.openfoam.com                      |
|    \\/     M anipulation  |                                                 |
\*---------------------------------------------------------------------------*/
FoamFile
{
    version     2.0;
    format      ascii;
    arch        "LSB;label=32;scalar=64";
    class       volScalarField;
    location    "0.625";
    object      enstrophyField;
}
// * * * * * * * * * * * * * * * * * * * * * * * * * * * * * * * * * * * * * //

dimensions      [0 0 -2 0 0 0 0];

internalField   nonuniform List<scalar> 
400
(
0.00622791
0.0304729
0.0930736
0.201391
0.357477
0.549721
0.76051
0.970148
1.15814
1.30749
1.39303
1.40417
1.3296
1.17032
0.941857
0.675903
0.416743
0.209058
0.0737182
0.0184254
0.0310397
0.0164129
0.00965283
0.0061761
0.00474957
0.00442739
0.00465621
0.00508216
0.00544503
0.00557035
0.00558132
0.0051428
0.0047237
0.00446234
0.00468222
0.0058555
0.00882879
0.0150358
0.0258868
0.0744112
0.0957881
0.0109871
0.00434979
0.00176412
0.000661348
0.000234892
8.33459e-05
3.06381e-05
1.07068e-05
2.61041e-06
1.81323e-07
3.27515e-08
1.02265e-06
2.91242e-05
0.000212286
0.000901316
0.00280656
0.00714188
0.0179073
0.23459
0.213561
0.00839743
0.0024975
0.00087319
0.000226483
2.15284e-05
6.26734e-06
5.17115e-05
0.000104042
0.000145072
0.000164268
0.000147748
8.41057e-05
7.82161e-06
6.16088e-05
0.000542442
0.00192387
0.00507566
0.0161573
0.547269
0.399542
0.00785333
0.00173947
0.000571966
0.000136572
5.79141e-06
1.94927e-05
8.30691e-05
0.000146404
0.000187263
0.000191405
0.000146866
6.04103e-05
3.5491e-09
0.000129915
0.000704213
0.00206054
0.00503017
0.0190541
1.09416
0.663016
0.00879962
0.00151538
0.000487768
0.000130849
1.05415e-05
8.9671e-06
5.43928e-05
0.000101371
0.000125412
0.000112229
6.00319e-05
3.7432e-06
5.4264e-05
0.000405731
0.00128769
0.00298303
0.00656384
0.0271158
1.99582
1.01434
0.0110957
0.00161653
0.00052118
0.000166618
2.9391e-05
1.0882e-07
1.89373e-05
4.45142e-05
5.24171e-05
3.30213e-05
2.35174e-06
3.794e-05
0.000315525
0.00108179
0.00255072
0.00497736
0.0100128
0.042317
3.45504
1.46837
0.0148308
0.00198145
0.000643667
0.000234514
6.40767e-05
6.06608e-06
1.78441e-06
1.09941e-05
1.08153e-05
5.9471e-07
2.63897e-05
0.000236678
0.000922974
0.00241688
0.00484648
0.00831177
0.0152746
0.066413
5.80215
2.04636
0.0202288
0.00261075
0.000846384
0.000325538
0.000105969
2.06776e-05
5.26159e-07
1.08081e-06
2.14233e-07
1.02603e-05
0.000125346
0.000617293
0.00198902
0.00468311
0.00837135
0.0124177
0.0203249
0.0983213
9.46279
2.77833
0.0276269
0.00352423
0.00111344
0.000415757
0.000131694
2.50382e-05
6.67235e-07
9.18688e-07
2.82772e-09
2.40624e-05
0.000235663
0.00110421
0.00349782
0.00812342
0.0139779
0.0218304
0.0504765
0.253074
14.9044
3.70716
0.0374753
0.00470868
0.00138031
0.000443702
0.000102034
5.30745e-06
7.11443e-06
2.29645e-05
1.2774e-05
5.58504e-06
0.000232643
0.00139484
0.00493322
0.0134145
0.0315547
0.104429
0.528386
2.32754
25.9101
4.89824
0.0501415
0.00596933
0.00145407
0.000300471
1.05668e-05
4.31609e-05
0.00016399
0.00024421
0.000210023
6.14018e-05
4.29271e-05
0.000907861
0.00416873
0.0173691
0.0684787
0.271447
1.67341
12.8247
62.0353
6.44476
0.0651244
0.00657356
0.000970091
1.32718e-05
0.000221302
0.000761355
0.00126651
0.00154186
0.00145158
0.00094685
0.00028158
5.90154e-07
2.14934e-05
0.00264364
0.208195
2.35623
1.22624
18.6227
162.599
8.54784
0.0775325
0.00493804
3.44416e-05
0.000942157
0.00307496
0.00520043
0.00677903
0.00754268
0.00722483
0.00578426
0.00384161
0.0031105
0.0312363
1.11109
14.5273
64.4436
80.4822
0.000632764
367.425
11.1672
0.0812562
0.000682895
0.00329786
0.0112092
0.019847
0.0268177
0.0313755
0.0337546
0.0326183
0.0287792
0.0244778
0.0293973
0.222724
5.80469
60.0724
220.545
346.57
88.8918
612.318
15.7581
0.0464054
0.00790182
0.0409293
0.072148
0.0978807
0.121901
0.141977
0.157914
0.165716
0.159423
0.149225
0.181729
0.704613
7.32723
62.0964
225.035
468.439
362.998
702.413
17.8031
0.0269441
0.10768
0.280093
0.426929
0.567369
0.72539
0.900608
1.07858
1.2434
1.35251
1.40006
1.47713
2.10255
7.01423
35.1186
110.284
237.851
471.435
604.306
40.8069
0.755126
2.23532
3.26013
4.88511
6.98349
9.20871
11.5077
13.8377
16.0869
18.0555
19.4393
20.0448
20.6954
25.4237
43.5138
82.7317
141.842
350.895
370.512
1.02011
32.3612
45.95
66.4016
89.5185
108.653
124.507
139.042
152.733
165.277
176.201
184.805
190.43
193.008
195.596
203.644
229.99
291.496
510.071
43.9575
16261.3
19859.9
19061.6
18159.1
17513.8
17038
16643.8
16297.8
15984.5
15692
15410.6
15131.3
14844.8
14535.9
14230.3
13866.8
13934.4
13158.6
18588.6
10449.7
)
;

boundaryField
{
    movingWall
    {
        type            calculated;
        value           nonuniform List<scalar> 
20
(
67521.5
72018.7
67894
64074.1
61392
59348.6
57605.7
56053.7
54647.6
53349.7
52126.9
50949.5
49796.4
48626.1
47553
46336.3
46641.5
43793.9
63040.5
28131.4
)
;
    }
    fixedWalls
    {
        type            calculated;
        value           nonuniform List<scalar> 
60
(
0.00601806
0.0547209
0.252505
0.655175
1.30713
2.2317
3.45723
5.03031
7.02195
9.5353
12.7202
16.8141
22.1573
29.6179
39.0084
57.4132
63.4492
177.258
5.38859
12730.4
0.0233598
0.161186
0.684528
1.77875
3.71734
6.90921
12.0514
20.2634
32.9604
51.0033
77.9688
138.364
330.498
985.585
2471.95
4299.31
5572.03
5129.3
1541.17
6537.01
0.00602018
0.05432
0.249885
0.627077
1.18315
1.86848
2.61769
3.36226
4.0324
4.56855
4.87457
4.92957
4.66763
4.09644
3.26496
2.28835
1.33749
0.593482
0.154074
0.0231651
)
;
    }
    frontAndBack
    {
        type            empty;
    }
}


// ************************************************************************* //
