/*--------------------------------*- C++ -*----------------------------------*\
| =========                 |                                                 |
| \\      /  F ield         | OpenFOAM: The Open Source CFD Toolbox           |
|  \\    /   O peration     | Version:  2312                                  |
|   \\  /    A nd           | Website:  www.openfoam.com                      |
|    \\/     M anipulation  |                                                 |
\*---------------------------------------------------------------------------*/
FoamFile
{
    version     2.0;
    format      ascii;
    arch        "LSB;label=32;scalar=64";
    class       volScalarField;
    location    "0.625";
    object      epsilonzeroGrad;
}
// * * * * * * * * * * * * * * * * * * * * * * * * * * * * * * * * * * * * * //

dimensions      [0 2 -3 0 0 0 0];

internalField   nonuniform List<scalar> 
400
(
0.000707192
0.00105796
0.00135918
0.00155242
0.00166899
0.00174123
0.0017901
0.00182677
0.00185605
0.00187938
0.00189661
0.00190837
0.00191203
0.00190145
0.00186575
0.00178917
0.0016485
0.00141529
0.00106894
0.000712754
0.00106157
0.0010554
0.0011933
0.00128531
0.00133641
0.00136333
0.00137798
0.00138691
0.00139316
0.0013979
0.0014016
0.00140451
0.00140562
0.0014022
0.00138909
0.00135844
0.00129851
0.00119467
0.00105674
0.00106861
0.00140024
0.00119659
0.00127489
0.00133986
0.00137779
0.0013976
0.00140765
0.00141307
0.00141652
0.00141924
0.00142165
0.00142339
0.00142374
0.00142073
0.00141063
0.00138781
0.00134455
0.00127358
0.0011964
0.00137572
0.0016345
0.00130198
0.00134757
0.00139899
0.00143109
0.00144831
0.00145695
0.00146134
0.0014639
0.00146585
0.00146764
0.00146878
0.00146874
0.00146556
0.00145608
0.00143559
0.00139819
0.00134014
0.00129005
0.00157488
0.00178891
0.00136702
0.00139423
0.00143885
0.00146825
0.00148443
0.00149261
0.00149668
0.00149895
0.00150062
0.0015021
0.00150294
0.00150261
0.00149915
0.00148957
0.00146954
0.00143386
0.00138052
0.00134354
0.0016999
0.00189425
0.00140659
0.00142258
0.00146371
0.00149185
0.00150763
0.00151569
0.00151973
0.00152198
0.00152366
0.00152518
0.00152613
0.00152587
0.0015225
0.00151299
0.00149301
0.00145751
0.00140545
0.00137584
0.00178796
0.00197433
0.0014324
0.00144029
0.00147935
0.00150687
0.0015225
0.00153058
0.00153473
0.00153718
0.00153916
0.00154117
0.00154286
0.00154339
0.00154108
0.00153272
0.00151371
0.00147861
0.00142722
0.00140317
0.00186841
0.00204499
0.00145207
0.00145275
0.00149016
0.00151721
0.00153271
0.00154084
0.00154518
0.00154801
0.00155063
0.00155364
0.00155701
0.00155964
0.00156036
0.00155586
0.00154114
0.00150926
0.00145974
0.00143864
0.00195928
0.00211601
0.00147001
0.00146337
0.00149896
0.0015254
0.00154065
0.00154874
0.00155327
0.00155664
0.00156027
0.00156499
0.00157116
0.00157857
0.00158643
0.00159219
0.00159182
0.00157464
0.00153239
0.00150759
0.00208177
0.00219349
0.00148898
0.00147412
0.00150743
0.00153294
0.00154765
0.00155549
0.00156014
0.00156412
0.00156913
0.0015765
0.00158754
0.00160384
0.00162767
0.00166186
0.0017069
0.00174555
0.0017498
0.00171103
0.00228755
0.00228193
0.00151066
0.00148622
0.00151653
0.00154058
0.00155429
0.00156154
0.00156607
0.00157062
0.00157735
0.00158858
0.00160786
0.00164153
0.00170134
0.00180786
0.00198796
0.00225836
0.00250267
0.00251902
0.00281137
0.00238591
0.00153642
0.0015005
0.00152679
0.00154861
0.00156071
0.00156691
0.001571
0.00157596
0.00158467
0.00160135
0.00163431
0.00170128
0.00183992
0.00212386
0.00267506
0.00366149
0.00508263
0.00565193
0.00485283
0.00251058
0.0015676
0.00151763
0.00153852
0.0015573
0.0015673
0.00157219
0.00157567
0.00158095
0.00159187
0.00161579
0.00166988
0.00179545
0.00208835
0.00274597
0.00412559
0.00687608
0.0117754
0.0145207
0.0129488
0.00266548
0.00160554
0.00153823
0.00155264
0.00156836
0.00157702
0.00158137
0.00158493
0.00159106
0.00160461
0.00163677
0.00171731
0.00192305
0.00244019
0.00362893
0.00593398
0.00997431
0.0165658
0.0267575
0.032543
0.00284522
0.00165083
0.00156464
0.00157523
0.00159119
0.00160111
0.00160759
0.00161389
0.00162326
0.00164127
0.00168208
0.00178317
0.00204095
0.00265858
0.00389347
0.00593174
0.00953631
0.0160566
0.0306498
0.0545047
0.00310043
0.00170955
0.00161564
0.00163331
0.00165946
0.0016806
0.00169877
0.00171683
0.00173773
0.00176701
0.00181919
0.00193178
0.00218561
0.00270866
0.00358512
0.00479104
0.00630374
0.0101665
0.0298985
0.0692419
0.00327574
0.0018427
0.00178609
0.00185526
0.0019291
0.00199568
0.00205819
0.00211937
0.00218195
0.00225098
0.00233857
0.00247445
0.00271678
0.0031316
0.00369469
0.0040904
0.00425402
0.00662569
0.025856
0.0822746
0.0037771
0.00237068
0.00269705
0.00306336
0.00337431
0.0036584
0.00392772
0.00418439
0.00443329
0.00467961
0.00493128
0.00520162
0.00551364
0.00588139
0.00612868
0.00604231
0.00606257
0.00917962
0.0274129
0.0990084
0.00517315
0.00754351
0.0114206
0.014312
0.0163523
0.0180148
0.019455
0.0207022
0.0218055
0.0227786
0.02367
0.0244567
0.0250758
0.0254918
0.0254794
0.0251013
0.0252467
0.033493
0.0532056
0.131655
0.0456138
0.0865534
0.12722
0.153043
0.168818
0.178829
0.185084
0.188598
0.190352
0.190398
0.189945
0.188785
0.18697
0.184283
0.1819
0.178651
0.179421
0.180161
0.195154
0.1709
)
;

boundaryField
{
    movingWall
    {
        type            zeroGradient;
    }
    fixedWalls
    {
        type            zeroGradient;
    }
    frontAndBack
    {
        type            empty;
    }
}


// ************************************************************************* //
