/*--------------------------------*- C++ -*----------------------------------*\
| =========                 |                                                 |
| \\      /  F ield         | OpenFOAM: The Open Source CFD Toolbox           |
|  \\    /   O peration     | Version:  2312                                  |
|   \\  /    A nd           | Website:  www.openfoam.com                      |
|    \\/     M anipulation  |                                                 |
\*---------------------------------------------------------------------------*/
FoamFile
{
    version     2.0;
    format      ascii;
    arch        "LSB;label=32;scalar=64";
    class       volScalarField;
    location    "0.625";
    object      flowTypeField;
}
// * * * * * * * * * * * * * * * * * * * * * * * * * * * * * * * * * * * * * //

dimensions      [0 0 0 0 0 0 0];

internalField   nonuniform List<scalar> 
400
(
0.205193
0.197429
0.147724
0.0989998
0.064551
0.042508
0.0291864
0.0213835
0.0172174
0.0146545
0.0144681
0.0165427
0.0203545
0.0275252
0.0397201
0.0598045
0.091358
0.13762
0.198308
0.238445
0.19011
0.373559
0.521433
0.608121
0.644001
0.639944
0.608267
0.559406
0.502186
0.446685
0.409879
0.435469
0.512252
0.595832
0.650639
0.664764
0.63575
0.563103
0.446247
0.208267
0.142913
0.502505
0.659863
0.769886
0.849884
0.903585
0.936958
0.957072
0.970856
0.983366
0.995177
0.998035
0.990839
0.961452
0.917062
0.859048
0.786611
0.697439
0.569146
0.144129
0.0973573
0.57685
0.742106
0.837566
0.912206
0.971118
0.983464
0.949888
0.924038
0.904847
0.896774
0.906931
0.937337
0.983392
0.960788
0.901738
0.839133
0.766621
0.630419
0.0954879
0.0648733
0.608175
0.791585
0.873365
0.934957
0.985937
0.973577
0.944325
0.92443
0.913716
0.914484
0.92931
0.958642
0.999716
0.953508
0.906413
0.858706
0.800677
0.65402
0.0645233
0.0437306
0.609295
0.815894
0.890231
0.940882
0.982652
0.983815
0.960313
0.946332
0.941696
0.947297
0.964037
0.991792
0.972556
0.934928
0.898697
0.862766
0.814471
0.659402
0.0464519
0.0305017
0.592679
0.822742
0.895039
0.938865
0.973775
0.99839
0.979225
0.969148
0.968059
0.97626
0.994179
0.979282
0.948137
0.916951
0.888879
0.861937
0.820739
0.66194
0.0377257
0.0221653
0.567697
0.818742
0.89276
0.933703
0.964869
0.989193
0.994276
0.986464
0.98743
0.997293
0.983995
0.958496
0.930014
0.903656
0.882898
0.864965
0.832594
0.674117
0.0370346
0.0167428
0.540364
0.808854
0.887005
0.928265
0.95858
0.981792
0.997173
0.996177
0.998433
0.990338
0.970832
0.945353
0.91847
0.896639
0.884625
0.878766
0.859259
0.703932
0.0477844
0.0129892
0.514008
0.796527
0.880498
0.924774
0.956919
0.981263
0.997032
0.996745
0.999837
0.986925
0.965748
0.939626
0.914024
0.896325
0.891776
0.888378
0.85111
0.676342
0.071827
0.0100975
0.490436
0.784644
0.876397
0.92669
0.963698
0.99165
0.990672
0.984494
0.989718
0.994232
0.970125
0.943207
0.918924
0.900701
0.888023
0.845905
0.720947
0.461011
0.0546017
0.00740964
0.471225
0.777376
0.880548
0.941608
0.988376
0.976315
0.9554
0.949825
0.959498
0.982028
0.988414
0.96113
0.941008
0.917856
0.889219
0.840648
0.694539
0.328575
-0.0578809
0.00489466
0.460595
0.783375
0.90579
0.987605
0.946642
0.898479
0.870851
0.868589
0.892105
0.932263
0.973094
0.999143
0.996609
0.976013
0.861179
0.672937
0.790637
0.42526
-0.0227476
0.000546471
0.465432
0.820925
0.981957
0.897318
0.798959
0.719973
0.6742
0.684048
0.750385
0.838186
0.910416
0.947251
0.899151
0.659868
0.245562
-0.0472161
-0.000741156
0.995521
0.0768478
0.00283937
0.500077
0.932182
0.832035
0.654706
0.480086
0.323532
0.245084
0.323305
0.501119
0.676023
0.802663
0.860987
0.764298
0.321307
-0.246763
-0.501649
-0.470459
-0.249809
0.112194
-0.0177278
0.589324
0.775359
0.443126
0.140063
-0.171513
-0.358437
-0.206939
0.0288796
0.247342
0.452362
0.621958
0.715136
0.629465
0.235176
-0.387291
-0.796133
-0.512582
-0.347405
0.112436
0.0335684
0.803367
0.469867
-0.0199837
-0.333048
-0.364068
-0.23442
-0.11496
-0.0154653
0.0826875
0.196306
0.325846
0.446659
0.489582
0.296802
-0.193151
-0.653914
-0.523984
-0.170112
0.114408
-0.00838682
0.384989
0.0613997
-0.147834
-0.151411
-0.105274
-0.0655972
-0.037052
-0.0144524
0.00750784
0.034087
0.0709178
0.119994
0.162102
0.12341
-0.125041
-0.544843
-0.55177
-0.028189
0.258767
0.756442
-0.0377919
0.0263466
0.0318209
0.00635058
-0.00348449
-0.00279936
-0.000851699
0.000563652
0.00211132
0.00441568
0.00795975
0.0122804
0.0143411
0.000984265
-0.0490133
-0.167206
-0.161835
-0.289909
0.769761
0.0849424
-0.0238867
-0.020402
-0.0112987
-0.00625554
-0.00387776
-0.00263255
-0.00188692
-0.00140157
-0.00103911
-0.000751856
-0.000534766
-0.000375964
-0.000343826
-0.000646453
-0.00144991
-0.00418647
0.00186738
-0.0506014
0.124295
)
;

boundaryField
{
    movingWall
    {
        type            calculated;
        value           nonuniform List<scalar> 
20
(
0.0467622
-0.0101467
-0.00984109
-0.00563184
-0.00315858
-0.00197733
-0.00135655
-0.000982814
-0.000738119
-0.00055347
-0.000405714
-0.000294094
-0.000213983
-0.000201972
-0.000373843
-0.00079672
-0.00229494
0.000488546
-0.0276528
0.0695582
)
;
    }
    fixedWalls
    {
        type            calculated;
        value           nonuniform List<scalar> 
60
(
0.127261
0.0994563
0.059877
0.036577
0.0223839
0.0139182
0.00889441
0.00582597
0.00385169
0.00244959
0.0012657
-2.56401e-06
-0.00143156
-0.00380892
-0.00343333
-0.012623
0.00354243
-0.00440296
0.630419
0.191538
0.128902
0.0945929
0.052107
0.0293181
0.016172
0.00878509
0.00534088
0.00558803
0.0121792
0.0272119
0.0187217
-0.0739827
-0.0758818
0.0234416
0.0494529
0.0468078
0.0415661
0.0839286
0.431324
0.440793
0.128577
0.105307
0.0633729
0.039342
0.0249841
0.0166168
0.0118809
0.00929677
0.00811329
0.00741889
0.00770703
0.00887905
0.0105786
0.0134725
0.0181339
0.025729
0.038096
0.058112
0.0947606
0.127778
)
;
    }
    frontAndBack
    {
        type            empty;
    }
}


// ************************************************************************* //
