/*--------------------------------*- C++ -*----------------------------------*\
| =========                 |                                                 |
| \\      /  F ield         | OpenFOAM: The Open Source CFD Toolbox           |
|  \\    /   O peration     | Version:  2312                                  |
|   \\  /    A nd           | Website:  www.openfoam.com                      |
|    \\/     M anipulation  |                                                 |
\*---------------------------------------------------------------------------*/
FoamFile
{
    version     2.0;
    format      ascii;
    arch        "LSB;label=32;scalar=64";
    class       surfaceScalarField;
    location    "0.625";
    object      fluxField;
}
// * * * * * * * * * * * * * * * * * * * * * * * * * * * * * * * * * * * * * //

dimensions      [0 3 -1 0 0 0 0];

oriented        oriented;

internalField   nonuniform List<scalar> 
760
(
-2.11407e-08
2.11669e-08
-6.0788e-08
4.35591e-08
-1.12992e-07
5.46513e-08
-1.66686e-07
5.70374e-08
-2.18283e-07
5.47215e-08
-2.65493e-07
5.00362e-08
-3.06983e-07
4.39902e-08
-3.41742e-07
3.68972e-08
-3.68878e-07
2.87068e-08
-3.86858e-07
1.91728e-08
-3.94639e-07
8.51458e-09
-3.90897e-07
-3.92163e-09
-3.73862e-07
-1.78343e-08
-3.42718e-07
-3.28697e-08
-2.97186e-07
-4.82007e-08
-2.38496e-07
-6.23344e-08
-1.70219e-07
-7.2819e-08
-9.86153e-08
-7.56941e-08
-3.90357e-08
-6.54608e-08
-3.90023e-08
-4.32078e-08
6.06414e-08
-9.28066e-08
9.32722e-08
-1.48792e-07
1.07696e-07
-2.05566e-07
1.10847e-07
-2.60522e-07
1.06998e-07
-3.11635e-07
9.87702e-08
-3.57193e-07
8.75132e-08
-3.9569e-07
7.37707e-08
-4.25732e-07
5.75934e-08
-4.45854e-07
3.87696e-08
-4.54585e-07
1.71785e-08
-4.50497e-07
-7.36527e-09
-4.32319e-07
-3.46823e-08
-3.99333e-07
-6.38732e-08
-3.51674e-07
-9.32829e-08
-2.9068e-07
-1.20224e-07
-2.19298e-07
-1.40776e-07
-1.42347e-07
-1.49547e-07
-6.85031e-08
-1.39887e-07
-1.02221e-07
-5.57854e-08
1.13806e-07
-1.09842e-07
1.50392e-07
-1.66705e-07
1.64485e-07
-2.23566e-07
1.67014e-07
-2.78624e-07
1.61463e-07
-3.30346e-07
1.49995e-07
-3.77119e-07
1.33862e-07
-4.1733e-07
1.13651e-07
-4.49415e-07
8.94625e-08
-4.71793e-07
6.11051e-08
-4.82866e-07
2.83582e-08
-4.81082e-07
-8.88868e-09
-4.65068e-07
-5.02715e-08
-4.33909e-07
-9.44568e-08
-3.87445e-07
-1.39067e-07
-3.26479e-07
-1.80408e-07
-2.53171e-07
-2.13399e-07
-1.71489e-07
-2.31729e-07
-8.76553e-08
-2.28299e-07
-1.86519e-07
-6.16613e-08
1.71725e-07
-1.19531e-07
2.11645e-07
-1.78892e-07
2.24459e-07
-2.37554e-07
2.25593e-07
-2.94144e-07
2.18071e-07
-3.47563e-07
2.03511e-07
-3.96491e-07
1.82895e-07
-4.3943e-07
1.56706e-07
-4.74815e-07
1.24985e-07
-5.00991e-07
8.74567e-08
-5.16209e-07
4.3751e-08
-5.18629e-07
-6.31369e-09
-5.06405e-07
-6.22913e-08
-4.77964e-07
-1.227e-07
-4.32271e-07
-1.84621e-07
-3.69131e-07
-2.43434e-07
-2.89962e-07
-2.92712e-07
-1.98686e-07
-3.24564e-07
-1.02332e-07
-3.3012e-07
-2.83982e-07
-6.47229e-08
2.32571e-07
-1.26261e-07
2.7669e-07
-1.8929e-07
2.88163e-07
-2.51329e-07
2.87513e-07
-3.11095e-07
2.77802e-07
-3.67764e-07
2.6025e-07
-4.20321e-07
2.3555e-07
-4.675e-07
2.03998e-07
-5.07846e-07
1.65473e-07
-5.39686e-07
1.19486e-07
-5.61124e-07
6.53699e-08
-5.69902e-07
2.61466e-09
-5.6338e-07
-6.85158e-08
-5.3887e-07
-1.46823e-07
-4.93906e-07
-2.29177e-07
-4.26768e-07
-3.10134e-07
-3.38034e-07
-3.81452e-07
-2.3216e-07
-4.32253e-07
-1.18843e-07
-4.49774e-07
-3.97156e-07
-6.72149e-08
2.95766e-07
-1.32575e-07
3.45709e-07
-2.00065e-07
3.56348e-07
-2.66616e-07
3.53891e-07
-3.30876e-07
3.41915e-07
-3.92172e-07
3.21511e-07
-4.49792e-07
2.93174e-07
-5.0277e-07
2.57009e-07
-5.49887e-07
2.12667e-07
-5.89583e-07
1.59314e-07
-6.19759e-07
9.57793e-08
-6.37665e-07
2.0911e-08
-6.39807e-07
-6.58736e-08
-6.21861e-07
-1.6412e-07
-5.79057e-07
-2.71148e-07
-5.07237e-07
-3.81046e-07
-4.05458e-07
-4.83126e-07
-2.78848e-07
-5.61151e-07
-1.41578e-07
-5.94855e-07
-5.31632e-07
-7.01759e-08
3.61689e-07
-1.39808e-07
4.19222e-07
-2.12427e-07
4.29724e-07
-2.84331e-07
4.25637e-07
-3.54052e-07
4.11447e-07
-4.21037e-07
3.88405e-07
-4.849e-07
3.5698e-07
-5.45081e-07
3.17163e-07
-6.00753e-07
2.6836e-07
-6.50635e-07
2.09295e-07
-6.9267e-07
1.38069e-07
-7.23733e-07
5.24414e-08
-7.39227e-07
-4.97285e-08
-7.3268e-07
-1.69669e-07
-6.95927e-07
-3.06458e-07
-6.20484e-07
-4.54811e-07
-5.02056e-07
-6.01204e-07
-3.45964e-07
-7.20186e-07
-1.73893e-07
-7.7721e-07
-6.95762e-07
-7.40757e-08
4.31204e-07
-1.4865e-07
4.97953e-07
-2.27036e-07
5.08934e-07
-3.04914e-07
5.0338e-07
-3.80712e-07
4.87026e-07
-4.54031e-07
4.61585e-07
-5.249e-07
4.27731e-07
-5.93326e-07
3.85487e-07
-6.59126e-07
3.34097e-07
-7.21629e-07
2.71818e-07
-7.79209e-07
1.95837e-07
-8.28729e-07
1.02351e-07
-8.64644e-07
-1.31528e-08
-8.77887e-07
-1.55039e-07
-8.55234e-07
-3.26682e-07
-7.804e-07
-5.26434e-07
-6.41545e-07
-7.3907e-07
-4.42226e-07
-9.23359e-07
-2.18123e-07
-1.01583e-06
-8.99308e-07
-7.91691e-08
5.05458e-07
-1.59533e-07
5.82823e-07
-2.44311e-07
5.94613e-07
-3.28562e-07
5.87506e-07
-4.1064e-07
5.68846e-07
-4.90389e-07
5.41138e-07
-5.68397e-07
5.05543e-07
-6.45471e-07
4.62354e-07
-7.2242e-07
4.1085e-07
-7.99707e-07
3.48967e-07
-8.76841e-07
2.72989e-07
-9.51467e-07
1.77256e-07
-1.01787e-06
5.39077e-08
-1.06456e-06
-1.06787e-07
-1.07112e-06
-3.1629e-07
-1.00709e-06
-5.84411e-07
-8.436e-07
-9.00738e-07
-5.77085e-07
-1.19709e-06
-2.72598e-07
-1.34328e-06
-1.1485e-06
-8.5721e-08
5.85878e-07
-1.72912e-07
6.74969e-07
-2.64692e-07
6.87391e-07
-3.55437e-07
6.78127e-07
-4.43477e-07
6.56575e-07
-5.2902e-07
6.26417e-07
-6.13396e-07
5.89628e-07
-6.98483e-07
5.471e-07
-7.86521e-07
4.98495e-07
-8.79818e-07
4.41841e-07
-9.8013e-07
3.72969e-07
-1.08737e-06
2.84587e-07
-1.19765e-06
1.64826e-07
-1.29902e-06
-4.10245e-09
-1.36236e-06
-2.4759e-07
-1.3317e-06
-6.02086e-07
-1.13942e-06
-1.08334e-06
-7.5989e-07
-1.58157e-06
-3.21417e-07
-1.81906e-06
-1.43377e-06
-9.42142e-08
6.74447e-07
-1.89538e-07
7.75848e-07
-2.88877e-07
7.87865e-07
-3.85846e-07
7.74964e-07
-4.78831e-07
7.49186e-07
-5.68561e-07
7.15814e-07
-6.573e-07
6.77982e-07
-7.48231e-07
6.37548e-07
-8.4542e-07
5.95066e-07
-9.53813e-07
5.49432e-07
-1.07897e-06
4.97195e-07
-1.22587e-06
4.30837e-07
-1.39631e-06
3.35275e-07
-1.58398e-06
1.83681e-07
-1.75627e-06
-6.94666e-08
-1.8187e-06
-5.09862e-07
-1.62243e-06
-1.22456e-06
-1.07194e-06
-2.08582e-06
-3.70173e-07
-2.54486e-06
-1.74706e-06
-1.05569e-07
7.73738e-07
-2.10693e-07
8.87269e-07
-3.17967e-07
8.9644e-07
-4.20268e-07
8.77098e-07
-5.1623e-07
8.44707e-07
-6.07324e-07
8.06532e-07
-6.96872e-07
7.67091e-07
-7.89427e-07
7.29518e-07
-8.91029e-07
6.9585e-07
-1.00982e-06
6.67001e-07
-1.15679e-06
6.4236e-07
-1.34558e-06
6.17668e-07
-1.59102e-06
5.79477e-07
-1.90855e-06
4.987e-07
-2.28836e-06
3.15663e-07
-2.60641e-06
-1.38803e-07
-2.57872e-06
-1.15622e-06
-1.90664e-06
-2.72328e-06
-7.05058e-07
-3.71279e-06
-2.33535e-06
-1.21479e-07
8.89655e-07
-2.38412e-07
1.01184e-06
-3.5336e-07
1.0131e-06
-4.59036e-07
9.82593e-07
-5.54729e-07
9.39918e-07
-6.42939e-07
8.9437e-07
-7.28027e-07
8.51759e-07
-8.15629e-07
8.16545e-07
-9.13293e-07
7.92651e-07
-1.03196e-06
7.84156e-07
-1.18859e-06
7.96018e-07
-1.4083e-06
8.32931e-07
-1.72636e-06
8.94711e-07
-2.20794e-06
9.70875e-07
-2.92178e-06
1.00221e-06
-3.72882e-06
6.52875e-07
-4.0922e-06
-8.16373e-07
-3.42661e-06
-3.52626e-06
-1.74571e-06
-5.61242e-06
-3.95134e-06
-1.44021e-07
1.0224e-06
-2.74663e-07
1.15006e-06
-3.95863e-07
1.13554e-06
-5.01287e-07
1.08718e-06
-5.9182e-07
1.02954e-06
-6.71386e-07
9.73337e-07
-7.45212e-07
9.25081e-07
-8.1927e-07
8.90083e-07
-9.01162e-07
8.73841e-07
-1.00225e-06
8.83862e-07
-1.14212e-06
9.32136e-07
-1.3523e-06
1.03649e-06
-1.67913e-06
1.22043e-06
-2.23879e-06
1.50908e-06
-3.19186e-06
1.8418e-06
-4.32536e-06
1.63495e-06
-4.95733e-06
-2.61434e-07
-4.57831e-06
-4.07709e-06
-2.9783e-06
-7.75554e-06
-6.96917e-06
-1.77979e-07
1.20328e-06
-3.22417e-07
1.3077e-06
-4.4449e-07
1.2597e-06
-5.42947e-07
1.18356e-06
-6.21091e-07
1.10576e-06
-6.84745e-07
1.03602e-06
-7.39678e-07
9.7951e-07
-7.91004e-07
9.41149e-07
-8.44071e-07
9.27121e-07
-9.06091e-07
9.46077e-07
-9.90188e-07
1.01544e-06
-1.11765e-06
1.16329e-06
-1.31251e-06
1.43071e-06
-1.6365e-06
1.86214e-06
-2.25512e-06
2.37335e-06
-3.11779e-06
2.32291e-06
-3.74454e-06
5.00866e-07
-3.94738e-06
-3.5099e-06
-3.15375e-06
-8.50077e-06
-1.03807e-05
-2.16302e-07
1.34506e-06
-3.73703e-07
1.43528e-06
-4.89471e-07
1.3524e-06
-5.70712e-07
1.2502e-06
-6.26059e-07
1.1539e-06
-6.64483e-07
1.07065e-06
-6.92924e-07
1.00534e-06
-7.13958e-07
9.60809e-07
-7.28742e-07
9.42117e-07
-7.36427e-07
9.56192e-07
-7.35508e-07
1.02038e-06
-7.24512e-07
1.16331e-06
-6.89349e-07
1.42518e-06
-6.09157e-07
1.84011e-06
-5.23566e-07
2.31867e-06
-5.75087e-07
2.32177e-06
-6.68712e-07
9.13311e-07
-1.36556e-06
-2.35151e-06
-1.93886e-06
-7.0424e-06
-1.28515e-05
-3.00208e-07
1.85119e-06
-4.45847e-07
1.78048e-06
-5.14933e-07
1.55963e-06
-5.50776e-07
1.3706e-06
-5.67829e-07
1.22912e-06
-5.71009e-07
1.11443e-06
-5.62041e-07
1.02714e-06
-5.4248e-07
9.65686e-07
-5.10018e-07
9.29911e-07
-4.57468e-07
9.22438e-07
-3.71279e-07
9.53487e-07
-2.28088e-07
1.042e-06
1.41711e-08
1.21545e-06
4.09748e-07
1.49068e-06
1.00002e-06
1.79507e-06
1.50721e-06
1.6958e-06
1.92064e-06
6.02522e-07
1.27085e-06
-1.85374e-06
-2.32e-07
-5.10012e-06
-1.3772e-05
-3.35842e-07
1.6559e-06
-4.14757e-07
1.34124e-06
-3.96525e-07
1.1417e-06
-3.56325e-07
1.06687e-06
-3.04528e-07
9.91442e-07
-2.35129e-07
9.05274e-07
-1.50323e-07
8.35208e-07
-5.39024e-08
7.85875e-07
5.66967e-08
7.53317e-07
1.9084e-07
7.36794e-07
3.6476e-07
7.39458e-07
6.02865e-07
7.69368e-07
9.44116e-07
8.38836e-07
1.42257e-06
9.50615e-07
2.07222e-06
1.05547e-06
2.6191e-06
9.04797e-07
3.15848e-06
2.10421e-07
2.47795e-06
-1.45981e-06
8.84404e-07
-3.43509e-06
-1.27249e-05
-3.41643e-07
2.80284e-06
-2.1242e-07
2.03686e-06
1.21827e-07
1.36269e-06
4.86078e-07
1.05887e-06
8.65553e-07
8.81496e-07
1.22355e-06
7.51692e-07
1.55828e-06
6.58915e-07
1.87424e-06
5.94071e-07
2.17952e-06
5.46751e-07
2.48418e-06
5.12219e-07
2.80062e-06
4.89133e-07
3.14495e-06
4.77674e-07
3.54266e-06
4.78533e-07
4.00286e-06
4.8808e-07
4.56327e-06
4.87682e-07
4.92703e-06
3.95115e-07
5.43333e-06
1.45925e-07
3.76921e-06
-5.84796e-07
2.70127e-06
-1.15541e-06
-8.3118e-06
2.6056e-06
3.80694e-06
4.98667e-06
5.9409e-06
6.69045e-06
7.33225e-06
7.91433e-06
8.45131e-06
8.95213e-06
9.42665e-06
9.88535e-06
1.03374e-05
1.07955e-05
1.12478e-05
1.1723e-05
1.19448e-05
1.24603e-05
9.9238e-06
1.29924e-05
)
;

boundaryField
{
    movingWall
    {
        type            calculated;
        value           uniform 0;
    }
    fixedWalls
    {
        type            calculated;
        value           uniform 0;
    }
    frontAndBack
    {
        type            empty;
        value           nonuniform List<scalar> 0();
    }
}


// ************************************************************************* //
