/*--------------------------------*- C++ -*----------------------------------*\
| =========                 |                                                 |
| \\      /  F ield         | OpenFOAM: The Open Source CFD Toolbox           |
|  \\    /   O peration     | Version:  2312                                  |
|   \\  /    A nd           | Website:  www.openfoam.com                      |
|    \\/     M anipulation  |                                                 |
\*---------------------------------------------------------------------------*/
FoamFile
{
    version     2.0;
    format      ascii;
    arch        "LSB;label=32;scalar=64";
    class       volTensorField;
    location    "0.625";
    object      gradU;
}
// * * * * * * * * * * * * * * * * * * * * * * * * * * * * * * * * * * * * * //

dimensions      [0 0 -1 0 0 0 0];

internalField   nonuniform List<tensor> 
400
(
(-0.0845626 0.056149 0 -0.0554566 0.0846674 0 0 0 0)
(-0.158589 0.0449348 0 -0.201937 0.174236 0 0 0 0)
(-0.208816 0.0190069 0 -0.412441 0.218605 0 0 0 0)
(-0.214775 -4.58964e-05 0 -0.634696 0.22815 0 0 0 0)
(-0.206388 -0.00876333 0 -0.854313 0.218886 0 0 0 0)
(-0.188841 -0.0123642 0 -1.06091 0.200145 0 0 0 0)
(-0.165959 -0.0143075 0 -1.2476 0.175961 0 0 0 0)
(-0.139038 -0.0161566 0 -1.4091 0.147589 0 0 0 0)
(-0.108541 -0.018698 0 -1.54063 0.114827 0 0 0 0)
(-0.0719221 -0.0207242 0 -1.63781 0.0766912 0 0 0 0)
(-0.0311236 -0.0238844 0 -1.69304 0.0340583 0 0 0 0)
(0.0149664 -0.028053 0 -1.70386 -0.0156865 0 0 0 0)
(0.0681422 -0.0310119 0 -1.66172 -0.0713373 0 0 0 0)
(0.124574 -0.0330917 0 -1.56301 -0.131479 0 0 0 0)
(0.182131 -0.0327119 0 -1.4052 -0.192803 0 0 0 0)
(0.234761 -0.02757 0 -1.19024 -0.249338 0 0 0 0)
(0.273106 -0.0135061 0 -0.92646 -0.291276 0 0 0 0)
(0.286415 0.0150131 0 -0.631606 -0.302776 0 0 0 0)
(0.238319 0.0517316 0 -0.332243 -0.261843 0 0 0 0)
(0.156143 0.0940534 0 -0.0979123 -0.156009 0 0 0 0)
(-0.172831 0.202755 0 -0.0464029 0.157898 0 0 0 0)
(-0.198395 0.0890028 0 -0.0921762 0.198852 0 0 0 0)
(-0.223943 0.0349063 0 -0.104039 0.212181 0 0 0 0)
(-0.227096 0.000326835 0 -0.110814 0.215237 0 0 0 0)
(-0.219823 -0.0192413 0 -0.116705 0.209107 0 0 0 0)
(-0.20445 -0.0305608 0 -0.124661 0.194936 0 0 0 0)
(-0.182235 -0.0382486 0 -0.13475 0.174092 0 0 0 0)
(-0.153986 -0.0449772 0 -0.145795 0.147494 0 0 0 0)
(-0.120169 -0.0521996 0 -0.156555 0.115547 0 0 0 0)
(-0.0804864 -0.0600447 0 -0.165594 0.0783871 0 0 0 0)
(-0.0349268 -0.0684933 0 -0.174147 0.0346558 0 0 0 0)
(0.0163541 -0.0773426 0 -0.178761 -0.0137746 0 0 0 0)
(0.0727117 -0.0847803 0 -0.181978 -0.067392 0 0 0 0)
(0.131945 -0.0883739 0 -0.182844 -0.124014 0 0 0 0)
(0.190636 -0.085147 0 -0.181917 -0.180329 0 0 0 0)
(0.243976 -0.0709031 0 -0.17912 -0.23156 0 0 0 0)
(0.285529 -0.0399327 0 -0.172815 -0.271827 0 0 0 0)
(0.307803 0.0144197 0 -0.158992 -0.295412 0 0 0 0)
(0.295375 0.0950359 0 -0.132502 -0.297703 0 0 0 0)
(0.274012 0.323799 0 -0.0619763 -0.252874 0 0 0 0)
(-0.223142 0.4129 0 -0.0247943 0.212659 0 0 0 0)
(-0.216225 0.0992172 0 -0.0490196 0.228479 0 0 0 0)
(-0.227454 0.0353914 0 -0.0578801 0.227154 0 0 0 0)
(-0.227442 -0.00311951 0 -0.0625185 0.224668 0 0 0 0)
(-0.220235 -0.0290641 0 -0.065433 0.217859 0 0 0 0)
(-0.206886 -0.0473795 0 -0.069054 0.204897 0 0 0 0)
(-0.187094 -0.0617495 0 -0.0746604 0.185394 0 0 0 0)
(-0.160844 -0.0747018 0 -0.0825297 0.159521 0 0 0 0)
(-0.12834 -0.0878051 0 -0.0924326 0.127476 0 0 0 0)
(-0.0895139 -0.101615 0 -0.1039 0.0893421 0 0 0 0)
(-0.0442899 -0.116046 0 -0.116648 0.0447186 0 0 0 0)
(0.00713511 -0.130101 0 -0.129845 -0.00609363 0 0 0 0)
(0.0640583 -0.141251 0 -0.142682 -0.0623568 0 0 0 0)
(0.124635 -0.146029 0 -0.153661 -0.122334 0 0 0 0)
(0.185854 -0.140258 0 -0.160863 -0.183138 0 0 0 0)
(0.243863 -0.119068 0 -0.161526 -0.240734 0 0 0 0)
(0.293235 -0.0773579 0 -0.152279 -0.290492 0 0 0 0)
(0.326727 -0.0108628 0 -0.130377 -0.328729 0 0 0 0)
(0.335334 0.0942697 0 -0.0949779 -0.353652 0 0 0 0)
(0.350621 0.64463 0 -0.0403371 -0.337194 0 0 0 0)
(-0.246645 0.643893 0 -0.00965353 0.231674 0 0 0 0)
(-0.231481 0.103498 0 -0.0260966 0.245013 0 0 0 0)
(-0.237442 0.0310951 0 -0.0395801 0.239896 0 0 0 0)
(-0.234649 -0.0089679 0 -0.0507576 0.234318 0 0 0 0)
(-0.226358 -0.0390123 0 -0.0602952 0.226433 0 0 0 0)
(-0.213678 -0.0630266 0 -0.0695884 0.214065 0 0 0 0)
(-0.195711 -0.0836246 0 -0.0800842 0.196132 0 0 0 0)
(-0.171758 -0.102895 0 -0.0927248 0.172218 0 0 0 0)
(-0.141539 -0.122379 0 -0.107954 0.142091 0 0 0 0)
(-0.104702 -0.142802 0 -0.125769 0.105406 0 0 0 0)
(-0.0608718 -0.163929 0 -0.145803 0.0615712 0 0 0 0)
(-0.0096793 -0.184418 0 -0.167228 0.0102999 0 0 0 0)
(0.0488959 -0.201021 0 -0.188051 -0.0480793 0 0 0 0)
(0.113764 -0.209155 0 -0.205199 -0.112971 0 0 0 0)
(0.18277 -0.203546 0 -0.214647 -0.182215 0 0 0 0)
(0.25256 -0.178257 0 -0.211195 -0.252104 0 0 0 0)
(0.316678 -0.127928 0 -0.189959 -0.317252 0 0 0 0)
(0.365103 -0.04874 0 -0.149494 -0.37134 0 0 0 0)
(0.385416 0.0865707 0 -0.093192 -0.407284 0 0 0 0)
(0.409327 1.01464 0 -0.0315572 -0.389851 0 0 0 0)
(-0.258892 0.889587 0 -0.00432764 0.243387 0 0 0 0)
(-0.246152 0.107439 0 -0.0178867 0.260177 0 0 0 0)
(-0.252115 0.0246955 0 -0.034287 0.254816 0 0 0 0)
(-0.248157 -0.0165823 0 -0.0504043 0.247682 0 0 0 0)
(-0.239065 -0.0493172 0 -0.0658442 0.238921 0 0 0 0)
(-0.226675 -0.077681 0 -0.0810844 0.226958 0 0 0 0)
(-0.21023 -0.103596 0 -0.0973517 0.210623 0 0 0 0)
(-0.188713 -0.128743 0 -0.115854 0.189168 0 0 0 0)
(-0.161384 -0.154617 0 -0.137506 0.161951 0 0 0 0)
(-0.127364 -0.182134 0 -0.162782 0.128119 0 0 0 0)
(-0.0857491 -0.211152 0 -0.191587 0.0864756 0 0 0 0)
(-0.0351128 -0.239751 0 -0.222613 0.0357134 0 0 0 0)
(0.0260869 -0.264523 0 -0.253531 -0.0248977 0 0 0 0)
(0.0980397 -0.280164 0 -0.28008 -0.0964927 0 0 0 0)
(0.179859 -0.27939 0 -0.29551 -0.178223 0 0 0 0)
(0.268551 -0.254106 0 -0.291635 -0.2668 0 0 0 0)
(0.354936 -0.196593 0 -0.260789 -0.354962 0 0 0 0)
(0.423494 -0.100895 0 -0.201196 -0.430753 0 0 0 0)
(0.453271 0.0757585 0 -0.119455 -0.478613 0 0 0 0)
(0.47537 1.44176 0 -0.0375293 -0.452695 0 0 0 0)
(-0.26886 1.14746 0 -0.00407724 0.25278 0 0 0 0)
(-0.26144 0.114928 0 -0.0177344 0.276076 0 0 0 0)
(-0.269959 0.0185994 0 -0.0364528 0.272739 0 0 0 0)
(-0.266206 -0.0248632 0 -0.0560968 0.26551 0 0 0 0)
(-0.257038 -0.0597363 0 -0.0759134 0.256452 0 0 0 0)
(-0.245185 -0.0913243 0 -0.0959159 0.245044 0 0 0 0)
(-0.23048 -0.121414 0 -0.117179 0.230493 0 0 0 0)
(-0.211912 -0.151567 0 -0.141136 0.212046 0 0 0 0)
(-0.188467 -0.183428 0 -0.169189 0.188777 0 0 0 0)
(-0.158784 -0.218278 0 -0.202441 0.159309 0 0 0 0)
(-0.120703 -0.256335 0 -0.241353 0.121638 0 0 0 0)
(-0.0716234 -0.295791 0 -0.284834 0.0731855 0 0 0 0)
(-0.00857133 -0.333227 0 -0.330491 0.0105687 0 0 0 0)
(0.0717853 -0.36248 0 -0.372897 -0.0691876 0 0 0 0)
(0.171216 -0.373854 0 -0.40234 -0.167885 0 0 0 0)
(0.287281 -0.354997 0 -0.405745 -0.28365 0 0 0 0)
(0.407117 -0.291881 0 -0.369122 -0.406696 0 0 0 0)
(0.506438 -0.172391 0 -0.286967 -0.515593 0 0 0 0)
(0.549082 0.0646291 0 -0.168248 -0.580326 0 0 0 0)
(0.566312 1.94595 0 -0.0519541 -0.537904 0 0 0 0)
(-0.280703 1.41844 0 -0.00587306 0.26369 0 0 0 0)
(-0.278527 0.127398 0 -0.02157 0.294053 0 0 0 0)
(-0.290477 0.01413 0 -0.0427301 0.293505 0 0 0 0)
(-0.287618 -0.0328689 0 -0.0651545 0.286985 0 0 0 0)
(-0.278885 -0.0697834 0 -0.0880382 0.278129 0 0 0 0)
(-0.26794 -0.10364 0 -0.111307 0.267576 0 0 0 0)
(-0.255451 -0.136593 0 -0.136127 0.255225 0 0 0 0)
(-0.240724 -0.170458 0 -0.164304 0.240614 0 0 0 0)
(-0.222688 -0.207354 0 -0.197919 0.222772 0 0 0 0)
(-0.199527 -0.249274 0 -0.239035 0.199925 0 0 0 0)
(-0.168142 -0.297276 0 -0.289149 0.169158 0 0 0 0)
(-0.124251 -0.35082 0 -0.348652 0.126122 0 0 0 0)
(-0.0619764 -0.406896 0 -0.415607 0.0645802 0 0 0 0)
(0.0261906 -0.458618 0 -0.483739 -0.0221959 0 0 0 0)
(0.147011 -0.493853 0 -0.540367 -0.141239 0 0 0 0)
(0.30177 -0.492916 0 -0.564341 -0.295059 0 0 0 0)
(0.473713 -0.428537 0 -0.52831 -0.472312 0 0 0 0)
(0.624368 -0.274525 0 -0.416037 -0.636142 0 0 0 0)
(0.688284 0.0534477 0 -0.237471 -0.729419 0 0 0 0)
(0.695572 2.56 0 -0.068708 -0.656521 0 0 0 0)
(-0.296303 1.7052 0 -0.00849052 0.278059 0 0 0 0)
(-0.298297 0.144743 0 -0.0274826 0.314926 0 0 0 0)
(-0.313544 0.0115321 0 -0.0514195 0.316842 0 0 0 0)
(-0.311514 -0.0402387 0 -0.0761181 0.31097 0 0 0 0)
(-0.303191 -0.0791458 0 -0.100803 0.302315 0 0 0 0)
(-0.293274 -0.114228 0 -0.125549 0.29272 0 0 0 0)
(-0.283477 -0.148375 0 -0.151858 0.283003 0 0 0 0)
(-0.273704 -0.18402 0 -0.182131 0.273298 0 0 0 0)
(-0.263199 -0.224117 0 -0.219428 0.262947 0 0 0 0)
(-0.250014 -0.271892 0 -0.267241 0.250092 0 0 0 0)
(-0.230319 -0.330139 0 -0.329048 0.231073 0 0 0 0)
(-0.198081 -0.400369 0 -0.407634 0.199637 0 0 0 0)
(-0.143658 -0.481545 0 -0.503301 0.146303 0 0 0 0)
(-0.0529748 -0.568298 0 -0.611263 0.0585174 0 0 0 0)
(0.0906135 -0.646717 0 -0.716242 -0.0808988 0 0 0 0)
(0.299337 -0.68607 0 -0.784523 -0.28649 0 0 0 0)
(0.55542 -0.632964 0 -0.761896 -0.551463 0 0 0 0)
(0.797277 -0.429498 0 -0.604281 -0.81269 0 0 0 0)
(0.896411 0.0442493 0 -0.320204 -0.95449 0 0 0 0)
(0.872491 3.33189 0 -0.0746164 -0.814183 0 0 0 0)
(-0.316677 2.01143 0 -0.011621 0.297018 0 0 0 0)
(-0.321456 0.166181 0 -0.0349602 0.339479 0 0 0 0)
(-0.339113 0.0101735 0 -0.0620865 0.342715 0 0 0 0)
(-0.337001 -0.0473956 0 -0.0885388 0.336504 0 0 0 0)
(-0.328315 -0.0880337 0 -0.11355 0.327279 0 0 0 0)
(-0.318996 -0.122952 0 -0.137511 0.318213 0 0 0 0)
(-0.312033 -0.156014 0 -0.162445 0.311248 0 0 0 0)
(-0.308293 -0.190514 0 -0.19154 0.307466 0 0 0 0)
(-0.307799 -0.23056 0 -0.22909 0.307011 0 0 0 0)
(-0.309147 -0.281148 0 -0.280493 0.308597 0 0 0 0)
(-0.308535 -0.347732 0 -0.352262 0.308609 0 0 0 0)
(-0.298504 -0.43559 0 -0.451424 0.29962 0 0 0 0)
(-0.265605 -0.548015 0 -0.583152 0.268242 0 0 0 0)
(-0.18675 -0.68582 0 -0.748891 0.193008 0 0 0 0)
(-0.026249 -0.83886 0 -0.935639 0.0415706 0 0 0 0)
(0.256116 -0.96348 0 -1.09287 -0.231908 0 0 0 0)
(0.653956 -0.954737 0 -1.11233 -0.646674 0 0 0 0)
(1.06606 -0.677553 0 -0.879171 -1.09494 0 0 0 0)
(1.21795 0.0519548 0 -0.391489 -1.30981 0 0 0 0)
(1.09039 4.32867 0 -0.0216871 -0.996782 0 0 0 0)
(-0.342884 2.3417 0 -0.0155589 0.321678 0 0 0 0)
(-0.348763 0.19044 0 -0.0446212 0.368584 0 0 0 0)
(-0.367122 0.00855664 0 -0.0753985 0.371112 0 0 0 0)
(-0.362978 -0.0556744 0 -0.102864 0.362485 0 0 0 0)
(-0.352163 -0.0974367 0 -0.126273 0.350918 0 0 0 0)
(-0.342169 -0.13026 0 -0.146489 0.341115 0 0 0 0)
(-0.337507 -0.159122 0 -0.166199 0.336341 0 0 0 0)
(-0.340348 -0.188257 0 -0.189412 0.338985 0 0 0 0)
(-0.352152 -0.222986 0 -0.22163 0.350582 0 0 0 0)
(-0.373186 -0.270294 0 -0.270369 0.371494 0 0 0 0)
(-0.401249 -0.339115 0 -0.346053 0.399917 0 0 0 0)
(-0.428971 -0.440736 0 -0.462446 0.429327 0 0 0 0)
(-0.441126 -0.588157 0 -0.63515 0.443672 0 0 0 0)
(-0.405462 -0.79497 0 -0.87861 0.410739 0 0 0 0)
(-0.253369 -1.07163 0 -1.1991 0.274797 0 0 0 0)
(0.122646 -1.37431 0 -1.54151 -0.0707011 0 0 0 0)
(0.769123 -1.49599 0 -1.70494 -0.730405 0 0 0 0)
(1.51812 -1.09263 0 -1.41036 -1.5379 0 0 0 0)
(1.75389 0.142403 0 -0.569038 -1.9031 0 0 0 0)
(1.28567 5.63848 0 0.178737 -1.14105 0 0 0 0)
(-0.376857 2.70169 0 -0.0212333 0.354278 0 0 0 0)
(-0.381296 0.215614 0 -0.0581568 0.403516 0 0 0 0)
(-0.397356 0.004075 0 -0.0929681 0.401894 0 0 0 0)
(-0.387875 -0.0675893 0 -0.120131 0.387346 0 0 0 0)
(-0.37194 -0.109404 0 -0.139194 0.370443 0 0 0 0)
(-0.358922 -0.13753 0 -0.151815 0.357589 0 0 0 0)
(-0.354956 -0.158145 0 -0.161403 0.353415 0 0 0 0)
(-0.363725 -0.176273 0 -0.172501 0.361792 0 0 0 0)
(-0.388756 -0.198051 0 -0.191274 0.386282 0 0 0 0)
(-0.433569 -0.231813 0 -0.226758 0.430366 0 0 0 0)
(-0.500612 -0.289899 0 -0.293241 0.496903 0 0 0 0)
(-0.587602 -0.391836 0 -0.413406 0.584999 0 0 0 0)
(-0.681769 -0.566602 0 -0.61942 0.681796 0 0 0 0)
(-0.750697 -0.854694 0 -0.954024 0.751132 0 0 0 0)
(-0.689154 -1.3203 0 -1.4841 0.712495 0 0 0 0)
(-0.24973 -1.96868 0 -2.2199 0.368896 0 0 0 0)
(0.785109 -2.42194 0 -2.87895 -0.564879 0 0 0 0)
(2.20196 -1.85024 0 -2.87824 -2.01699 0 0 0 0)
(2.80705 0.448808 0 -1.70876 -2.90321 0 0 0 0)
(1.48069 7.37282 0 0.174191 -1.25319 0 0 0 0)
(-0.422274 3.09949 0 -0.0304408 0.397164 0 0 0 0)
(-0.420498 0.238057 0 -0.0786182 0.445684 0 0 0 0)
(-0.429096 -0.00761288 0 -0.116877 0.4343 0 0 0 0)
(-0.409203 -0.0871258 0 -0.141053 0.408539 0 0 0 0)
(-0.383847 -0.127194 0 -0.151708 0.382082 0 0 0 0)
(-0.364378 -0.147288 0 -0.151885 0.36287 0 0 0 0)
(-0.358192 -0.154919 0 -0.145628 0.356438 0 0 0 0)
(-0.37022 -0.15539 0 -0.13728 0.367881 0 0 0 0)
(-0.406409 -0.154412 0 -0.132312 0.403136 0 0 0 0)
(-0.475154 -0.159672 0 -0.139177 0.470275 0 0 0 0)
(-0.587897 -0.184483 0 -0.173401 0.580663 0 0 0 0)
(-0.75515 -0.255844 0 -0.26511 0.747324 0 0 0 0)
(-0.981743 -0.422023 0 -0.464634 0.976808 0 0 0 0)
(-1.27014 -0.764271 0 -0.855581 1.26008 0 0 0 0)
(-1.51924 -1.45387 0 -1.64025 1.54052 0 0 0 0)
(-1.27221 -2.65169 0 -3.02177 1.48424 0 0 0 0)
(0.110784 -3.88188 0 -4.61869 0.273342 0 0 0 0)
(2.68831 -3.43096 0 -5.26039 -2.54984 0 0 0 0)
(4.80632 0.906207 0 -4.15831 -4.67172 0 0 0 0)
(2.82023 9.79488 0 -1.34382 -2.35316 0 0 0 0)
(-0.485916 3.54454 0 -0.0456588 0.463669 0 0 0 0)
(-0.467732 0.25275 0 -0.10815 0.49827 0 0 0 0)
(-0.459791 -0.0330703 0 -0.147731 0.466657 0 0 0 0)
(-0.422706 -0.119807 0 -0.163854 0.421977 0 0 0 0)
(-0.382772 -0.155073 0 -0.160225 0.380845 0 0 0 0)
(-0.352842 -0.163175 0 -0.142136 0.351354 0 0 0 0)
(-0.340351 -0.153134 0 -0.114112 0.338674 0 0 0 0)
(-0.350409 -0.129575 0 -0.0792458 0.348106 0 0 0 0)
(-0.390653 -0.0956572 0 -0.0401259 0.387203 0 0 0 0)
(-0.474659 -0.0542856 0 -0.000404667 0.468618 0 0 0 0)
(-0.626545 -0.0128493 0 0.0306674 0.61463 0 0 0 0)
(-0.878835 0.00430955 0 0.0280406 0.86105 0 0 0 0)
(-1.27224 -0.0538498 0 -0.0549362 1.26094 0 0 0 0)
(-1.92631 -0.290983 0 -0.29754 1.8887 0 0 0 0)
(-2.85534 -1.09614 0 -1.02343 2.74618 0 0 0 0)
(-3.22817 -3.23586 0 -2.59058 3.16671 0 0 0 0)
(-1.45352 -6.45601 0 -4.28519 1.3594 0 0 0 0)
(2.66234 -6.7953 0 -5.22927 -3.21192 0 0 0 0)
(6.72363 0.645483 0 -5.45742 -7.5985 0 0 0 0)
(6.98282 14.3977 0 -3.63553 -6.46394 0 0 0 0)
(-0.576083 4.06143 0 -0.0732632 0.530981 0 0 0 0)
(-0.52257 0.241045 0 -0.152738 0.552876 0 0 0 0)
(-0.484801 -0.0839055 0 -0.183284 0.489755 0 0 0 0)
(-0.421697 -0.172938 0 -0.181237 0.418346 0 0 0 0)
(-0.362129 -0.197817 0 -0.154408 0.358476 0 0 0 0)
(-0.318266 -0.189459 0 -0.111038 0.315865 0 0 0 0)
(-0.295302 -0.158168 0 -0.0561831 0.293285 0 0 0 0)
(-0.296233 -0.106861 0 0.00957823 0.294152 0 0 0 0)
(-0.327568 -0.0338991 0 0.0889233 0.324762 0 0 0 0)
(-0.40436 0.0677544 0 0.187961 0.398827 0 0 0 0)
(-0.559452 0.207949 0 0.315506 0.544472 0 0 0 0)
(-0.840753 0.390463 0 0.478117 0.814227 0 0 0 0)
(-1.30732 0.605627 0 0.6845 1.30287 0 0 0 0)
(-2.23863 0.720972 0 0.970918 2.1528 0 0 0 0)
(-3.81228 -0.175858 0 1.31484 3.35837 0 0 0 0)
(-4.53397 -4.03847 0 1.35177 3.92829 0 0 0 0)
(-2.5279 -10.2605 0 1.09234 2.21976 0 0 0 0)
(1.51608 -12.3889 0 0.298309 -2.20333 0 0 0 0)
(6.40006 -2.34581 0 -2.38138 -8.57248 0 0 0 0)
(11.9132 23.8573 0 -3.25081 -12.0713 0 0 0 0)
(-0.711917 4.62839 0 -0.0975231 0.723519 0 0 0 0)
(-0.577753 0.211525 0 -0.191603 0.630562 0 0 0 0)
(-0.48829 -0.167601 0 -0.204557 0.496624 0 0 0 0)
(-0.39383 -0.251086 0 -0.169872 0.385534 0 0 0 0)
(-0.312572 -0.257553 0 -0.107826 0.3049 0 0 0 0)
(-0.254617 -0.228366 0 -0.0291319 0.250723 0 0 0 0)
(-0.219735 -0.174847 0 0.056746 0.217719 0 0 0 0)
(-0.205302 -0.0980975 0 0.152404 0.204264 0 0 0 0)
(-0.21227 0.00901721 0 0.268842 0.213122 0 0 0 0)
(-0.248076 0.165424 0 0.420838 0.248857 0 0 0 0)
(-0.336389 0.402551 0 0.642464 0.333202 0 0 0 0)
(-0.509841 0.762705 0 0.983964 0.507199 0 0 0 0)
(-0.779439 1.28473 0 1.5272 0.841111 0 0 0 0)
(-1.29597 1.76452 0 2.43194 1.41226 0 0 0 0)
(-2.47449 0.679346 0 4.0866 2.12618 0 0 0 0)
(-3.45067 -4.37447 0 6.58658 2.75185 0 0 0 0)
(-2.50698 -12.5876 0 8.41449 3.0492 0 0 0 0)
(-0.81138 -17.5875 0 8.73999 2.26877 0 0 0 0)
(3.17451 -9.22252 0 4.11103 -2.98095 0 0 0 0)
(12.615 35.0415 0 0.0467195 -13.6463 0 0 0 0)
(-0.865209 5.41551 0 -0.198416 0.56712 0 0 0 0)
(-0.629604 0.0141504 0 -0.290498 0.510323 0 0 0 0)
(-0.46307 -0.328934 0 -0.203221 0.370823 0 0 0 0)
(-0.324965 -0.364661 0 -0.0785519 0.266552 0 0 0 0)
(-0.221389 -0.332627 0 0.0472357 0.192539 0 0 0 0)
(-0.153694 -0.276641 0 0.165808 0.138523 0 0 0 0)
(-0.113766 -0.204627 0 0.289136 0.103326 0 0 0 0)
(-0.0841369 -0.111458 0 0.421416 0.078639 0 0 0 0)
(-0.0591336 0.0106938 0 0.57268 0.0599841 0 0 0 0)
(-0.0307388 0.187834 0 0.763535 0.0404636 0 0 0 0)
(0.00367313 0.466291 0 1.03096 0.0197878 0 0 0 0)
(0.0439864 0.898372 0 1.44468 0.000100503 0 0 0 0)
(0.140652 1.51069 0 2.11356 -0.0220849 0 0 0 0)
(0.320767 2.00604 0 3.19315 -0.0881119 0 0 0 0)
(0.342363 1.16373 0 4.99185 -0.218695 0 0 0 0)
(-0.206086 -3.11545 0 8.02874 -0.0045493 0 0 0 0)
(-0.374498 -10.7436 0 10.4713 1.64978 0 0 0 0)
(-2.78737 -18.419 0 12.1895 4.63353 0 0 0 0)
(-2.29321 -18.2609 0 8.68346 5.83351 0 0 0 0)
(7.75543 40.4846 0 3.00355 -9.88289 0 0 0 0)
(-1.20083 5.70584 0 -0.261249 2.02453 0 0 0 0)
(-0.582558 0.015228 0 -0.21691 1.3808 0 0 0 0)
(-0.276344 -0.411372 0 0.0526963 0.828913 0 0 0 0)
(-0.143373 -0.42937 0 0.319086 0.481597 0 0 0 0)
(-0.068212 -0.385582 0 0.538463 0.300882 0 0 0 0)
(-0.0127167 -0.317578 0 0.747663 0.175119 0 0 0 0)
(0.0358722 -0.234732 0 0.969751 0.0871793 0 0 0 0)
(0.0782418 -0.141439 0 1.20065 0.0195117 0 0 0 0)
(0.12985 -0.0291582 0 1.43957 -0.0488259 0 0 0 0)
(0.210201 0.125228 0 1.70218 -0.13502 0 0 0 0)
(0.344753 0.362188 0 2.00688 -0.267582 0 0 0 0)
(0.572767 0.720832 0 2.39419 -0.485256 0 0 0 0)
(0.969035 1.19652 0 2.91531 -0.838934 0 0 0 0)
(1.58231 1.56791 0 3.61854 -1.39773 0 0 0 0)
(2.3611 0.762909 0 4.50837 -2.09442 0 0 0 0)
(2.02873 -2.50599 0 5.87477 -2.50388 0 0 0 0)
(1.65373 -7.94956 0 6.90199 -1.24316 0 0 0 0)
(-2.59917 -13.4038 0 8.40677 1.99108 0 0 0 0)
(-6.01139 -23.7389 0 6.96725 7.76908 0 0 0 0)
(0.928 39.0909 0 4.3258 -3.68207 0 0 0 0)
(-1.34337 8.82084 0 -0.213198 -0.781187 0 0 0 0)
(-0.315659 -1.18147 0 0.0474566 -1.75696 0 0 0 0)
(0.0729265 -1.22814 0 0.886253 -1.67174 0 0 0 0)
(0.160801 -0.892692 0 1.66079 -1.21493 0 0 0 0)
(0.207188 -0.639106 0 2.48663 -0.950701 0 0 0 0)
(0.277595 -0.490344 0 3.2469 -0.836614 0 0 0 0)
(0.339226 -0.360234 0 3.93132 -0.767713 0 0 0 0)
(0.385682 -0.247463 0 4.54997 -0.719244 0 0 0 0)
(0.442397 -0.143838 0 5.1169 -0.706376 0 0 0 0)
(0.536572 -0.0309218 0 5.64128 -0.742573 0 0 0 0)
(0.695679 0.116055 0 6.1253 -0.856119 0 0 0 0)
(0.95242 0.32702 0 6.56229 -1.09052 0 0 0 0)
(1.36501 0.598213 0 6.92985 -1.50646 0 0 0 0)
(1.91382 0.750552 0 7.18412 -2.16026 0 0 0 0)
(2.59859 0.0575862 0 7.18832 -2.95837 0 0 0 0)
(2.18753 -2.26418 0 7.06468 -3.16403 0 0 0 0)
(2.1575 -6.24863 0 6.61462 -1.56841 0 0 0 0)
(-2.72211 -9.40677 0 7.43614 1.57574 0 0 0 0)
(-6.37418 -23.934 0 2.55731 6.66014 0 0 0 0)
(-3.53762 36.3975 0 9.17578 4.18844 0 0 0 0)
(-1.36657 3.16769 0 4.59606 4.58779 0 0 0 0)
(0.516893 -0.875329 0 7.1697 2.78251 0 0 0 0)
(1.33699 0.130653 0 9.7171 0.88399 0 0 0 0)
(1.457 0.291674 0 11.8157 -0.0319812 0 0 0 0)
(1.5179 -0.00726403 0 13.3732 -0.439782 0 0 0 0)
(1.43197 -0.13459 0 14.6067 -0.61433 0 0 0 0)
(1.33894 -0.117361 0 15.6628 -0.705173 0 0 0 0)
(1.26382 -0.0801032 0 16.5958 -0.76722 0 0 0 0)
(1.22116 -0.0524876 0 17.4251 -0.826265 0 0 0 0)
(1.2186 -0.0245148 0 18.1566 -0.898302 0 0 0 0)
(1.26577 0.0142409 0 18.7866 -1.0013 0 0 0 0)
(1.37732 0.0704929 0 19.2957 -1.16678 0 0 0 0)
(1.59086 0.126776 0 19.6424 -1.44121 0 0 0 0)
(1.84078 0.115994 0 19.7633 -1.85014 0 0 0 0)
(2.24166 -0.240858 0 19.5377 -2.27116 0 0 0 0)
(1.45504 -1.11603 0 19.0654 -2.03873 0 0 0 0)
(2.02519 -3.20979 0 18.2373 -0.257982 0 0 0 0)
(-6.65649 -5.17527 0 18.9699 3.50006 0 0 0 0)
(-4.27174 -21.1262 0 10.8134 9.11871 0 0 0 0)
(-10.8051 28.2423 0 37.6186 17.6523 0 0 0 0)
(10.4224 16.1911 0 196.531 -11.2114 0 0 0 0)
(4.80538 -4.88527 0 194.413 -8.14746 0 0 0 0)
(4.71893 -4.04263 0 191.209 -5.45078 0 0 0 0)
(3.81691 -2.21646 0 188.357 -4.23549 0 0 0 0)
(2.99818 -1.22145 0 185.935 -3.52599 0 0 0 0)
(2.56724 -0.755735 0 183.841 -3.00677 0 0 0 0)
(2.32829 -0.513124 0 181.936 -2.63566 0 0 0 0)
(2.14792 -0.368555 0 180.174 -2.37628 0 0 0 0)
(2.00328 -0.27492 0 178.524 -2.187 0 0 0 0)
(1.89809 -0.205957 0 176.949 -2.04887 0 0 0 0)
(1.8348 -0.15242 0 175.407 -1.95653 0 0 0 0)
(1.80824 -0.112894 0 173.849 -1.9107 0 0 0 0)
(1.83253 -0.0851513 0 172.222 -1.91413 0 0 0 0)
(1.80913 -0.0793958 0 170.425 -1.95232 0 0 0 0)
(1.90068 -0.131005 0 168.572 -1.95073 0 0 0 0)
(0.887138 -0.251001 0 166.283 -1.58046 0 0 0 0)
(2.06209 -0.709847 0 166.23 -0.583701 0 0 0 0)
(-10.146 -0.0300772 0 162.196 2.33918 0 0 0 0)
(12.2745 -9.78178 0 183.032 4.62165 0 0 0 0)
(-51.9697 9.62653 0 154.193 33.2472 0 0 0 0)
)
;

boundaryField
{
    movingWall
    {
        type            extrapolatedCalculated;
        value           nonuniform List<tensor> 
20
(
(10.4224 16.1911 0 383.673 -36.9666 0 0 0 0)
(4.80538 -4.88527 0 374.637 -27.798 0 0 0 0)
(4.71893 -4.04263 0 364.452 -17.4255 0 0 0 0)
(3.81691 -2.21646 0 355.762 -11.6275 0 0 0 0)
(2.99818 -1.22145 0 349.184 -8.55965 0 0 0 0)
(2.56724 -0.755735 0 343.769 -6.74166 0 0 0 0)
(2.32829 -0.513124 0 338.915 -5.53671 0 0 0 0)
(2.14792 -0.368555 0 334.456 -4.68916 0 0 0 0)
(2.00328 -0.27492 0 330.323 -4.06249 0 0 0 0)
(1.89809 -0.205957 0 326.443 -3.58948 0 0 0 0)
(1.8348 -0.15242 0 322.731 -3.23866 0 0 0 0)
(1.80824 -0.112894 0 319.103 -2.9798 0 0 0 0)
(1.83253 -0.0851513 0 315.498 -2.78709 0 0 0 0)
(1.80913 -0.0793958 0 311.773 -2.6392 0 0 0 0)
(1.90068 -0.131005 0 308.262 -2.4695 0 0 0 0)
(0.887138 -0.251001 0 304.171 -2.11518 0 0 0 0)
(2.06209 -0.709847 0 304.713 -1.4655 0 0 0 0)
(-10.146 -0.0300772 0 295.922 0.724208 0 0 0 0)
(12.2745 -9.78178 0 345.297 -1.34519 0 0 0 0)
(-51.9697 9.62653 0 246.824 39.8513 0 0 0 0)
)
;
    }
    fixedWalls
    {
        type            extrapolatedCalculated;
        value           nonuniform List<tensor> 
60
(
(-0.0535795 0.0542526 0 -0.0554566 0.0846674 0 0 0 0)
(-0.168247 0.284417 0 -0.0464029 0.157898 0 0 0 0)
(-0.239191 0.685846 0 -0.0247943 0.212659 0 0 0 0)
(-0.267424 1.13505 0 -0.00965353 0.231674 0 0 0 0)
(-0.277805 1.61254 0 -0.00432764 0.243387 0 0 0 0)
(-0.284735 2.1086 0 -0.00407724 0.25278 0 0 0 0)
(-0.294114 2.62366 0 -0.00587306 0.26369 0 0 0 0)
(-0.308227 3.16336 0 -0.00849052 0.278059 0 0 0 0)
(-0.328076 3.7359 0 -0.011621 0.297018 0 0 0 0)
(-0.354711 4.35143 0 -0.0155589 0.321678 0 0 0 0)
(-0.390312 5.02261 0 -0.0212333 0.354278 0 0 0 0)
(-0.439644 5.76854 0 -0.0304408 0.397164 0 0 0 0)
(-0.512075 6.61127 0 -0.0456588 0.463669 0 0 0 0)
(-0.622279 7.62322 0 -0.0732632 0.530981 0 0 0 0)
(-0.805128 8.73519 0 -0.0975231 0.723519 0 0 0 0)
(-1.01237 10.5173 0 -0.198416 0.56712 0 0 0 0)
(-1.59879 11.0037 0 -0.261249 2.02453 0 0 0 0)
(-2.05737 18.6154 0 -0.213198 -0.781187 0 0 0 0)
(-2.45158 7.87892 0 4.59606 4.58779 0 0 0 0)
(16.3269 36.9666 0 196.531 -11.2114 0 0 0 0)
(0.121191 0.118235 0 -0.0979123 -0.156009 0 0 0 0)
(0.270458 0.505801 0 -0.0619763 -0.252874 0 0 0 0)
(0.369096 1.12973 0 -0.0403371 -0.337194 0 0 0 0)
(0.431806 1.85458 0 -0.0315572 -0.389851 0 0 0 0)
(0.495325 2.68913 0 -0.0375293 -0.452695 0 0 0 0)
(0.581924 3.66536 0 -0.0519541 -0.537904 0 0 0 0)
(0.703142 4.84075 0 -0.068708 -0.656521 0 0 0 0)
(0.856755 6.29144 0 -0.0746164 -0.814183 0 0 0 0)
(1.00161 8.09748 0 -0.0216871 -0.996782 0 0 0 0)
(0.943504 10.2786 0 0.178737 -1.14105 0 0 0 0)
(0.286658 12.6617 0 0.174191 -1.25319 0 0 0 0)
(0.246741 15.2913 0 -1.34382 -2.35316 0 0 0 0)
(5.66192 22.0743 0 -3.63553 -6.46394 0 0 0 0)
(14.7888 41.1471 0 -3.25081 -12.0713 0 0 0 0)
(18.6651 70.3596 0 0.0467195 -13.6463 0 0 0 0)
(14.602 95.7322 0 3.00355 -9.88289 0 0 0 0)
(6.65093 109.891 0 4.3258 -3.68207 0 0 0 0)
(-2.70123 110.461 0 9.17578 4.18844 0 0 0 0)
(-30.0522 93.1374 0 37.6186 17.6523 0 0 0 0)
(-153.176 39.8513 0 154.193 33.2472 0 0 0 0)
(-0.0845626 0.056149 0 -0.0535795 0.0542526 0 0 0 0)
(-0.158589 0.0449348 0 -0.284671 0.170344 0 0 0 0)
(-0.208816 0.0190069 0 -0.687937 0.233992 0 0 0 0)
(-0.214775 -4.58964e-05 0 -1.11994 0.246371 0 0 0 0)
(-0.206388 -0.00876333 0 -1.54704 0.233808 0 0 0 0)
(-0.188841 -0.0123642 0 -1.94549 0.211318 0 0 0 0)
(-0.165959 -0.0143075 0 -2.3024 0.184351 0 0 0 0)
(-0.139038 -0.0161566 0 -2.60932 0.154088 0 0 0 0)
(-0.108541 -0.018698 0 -2.85856 0.119725 0 0 0 0)
(-0.0719221 -0.0207242 0 -3.04349 0.0792959 0 0 0 0)
(-0.0311236 -0.0238844 0 -3.14624 0.0368283 0 0 0 0)
(0.0149664 -0.028053 0 -3.16798 -0.0162415 0 0 0 0)
(0.0681422 -0.0310119 0 -3.08638 -0.0753838 0 0 0 0)
(0.124574 -0.0330917 0 -2.89541 -0.140289 0 0 0 0)
(0.182131 -0.0327119 0 -2.58808 -0.207751 0 0 0 0)
(0.234761 -0.02757 0 -2.16689 -0.271137 0 0 0 0)
(0.273106 -0.0135061 0 -1.64904 -0.318031 0 0 0 0)
(0.286415 0.0150131 0 -1.07447 -0.325161 0 0 0 0)
(0.238319 0.0517316 0 -0.50338 -0.257979 0 0 0 0)
(0.156143 0.0940534 0 -0.121191 -0.118235 0 0 0 0)
)
;
    }
    frontAndBack
    {
        type            empty;
    }
}


// ************************************************************************* //
