/*--------------------------------*- C++ -*----------------------------------*\
| =========                 |                                                 |
| \\      /  F ield         | OpenFOAM: The Open Source CFD Toolbox           |
|  \\    /   O peration     | Version:  2312                                  |
|   \\  /    A nd           | Website:  www.openfoam.com                      |
|    \\/     M anipulation  |                                                 |
\*---------------------------------------------------------------------------*/
FoamFile
{
    version     2.0;
    format      ascii;
    arch        "LSB;label=32;scalar=64";
    class       volScalarField;
    location    "0.625";
    object      Lambda2Field;
}
// * * * * * * * * * * * * * * * * * * * * * * * * * * * * * * * * * * * * * //

dimensions      [0 0 -2 0 0 0 0];

internalField   nonuniform List<scalar> 
400
(
0.004037
0.0158014
0.035692
0.0439437
0.0499245
0.0445245
0.0452888
0.037108
0.0405463
0.0354988
0.0413967
0.0474098
0.0561653
0.0625445
0.0790143
0.0819044
0.0867668
0.0703944
0.0393854
0.0151298
0.020335
0.0311566
0.0459332
0.0462101
0.0481286
0.0416714
0.0373163
0.0281325
0.0224808
0.0159647
0.0131478
0.0137218
0.0204479
0.0310743
0.0495273
0.0659371
0.084644
0.0848697
0.0746541
0.0432276
0.0394593
0.0418723
0.0496867
0.0506709
0.0496952
0.0452547
0.0390227
0.0316122
0.0243716
0.0185398
0.0154982
0.01693
0.0238859
0.0372419
0.0560492
0.0770674
0.0973376
0.108167
0.103495
0.0861685
0.0543923
0.0508401
0.0551478
0.0553599
0.0535904
0.0500441
0.0449999
0.0390417
0.0332446
0.0289226
0.0276068
0.0309335
0.0401559
0.055681
0.0769236
0.101204
0.124586
0.140505
0.140477
0.115409
0.0629301
0.0586137
0.0627151
0.062182
0.0603988
0.0576801
0.054282
0.0505281
0.0473054
0.0458696
0.047807
0.0546046
0.0674217
0.0874709
0.114114
0.145088
0.177249
0.199458
0.196395
0.142263
0.0673457
0.066249
0.0721999
0.0718903
0.0703678
0.0688059
0.0673483
0.0662982
0.0665541
0.0694007
0.0763054
0.089027
0.109559
0.139165
0.177895
0.223805
0.273484
0.305499
0.290564
0.172784
0.070174
0.0747541
0.0837732
0.0845021
0.0835829
0.0831328
0.0837341
0.0859022
0.0906291
0.0993963
0.114061
0.137292
0.172039
0.220556
0.284875
0.363162
0.450499
0.503007
0.460863
0.226182
0.0729864
0.084911
0.0977166
0.0997651
0.0994899
0.100026
0.102626
0.108208
0.118324
0.135168
0.161549
0.202049
0.262067
0.347212
0.464564
0.613909
0.787869
0.892849
0.78893
0.356514
0.0765272
0.0974081
0.114366
0.117431
0.117271
0.118167
0.122229
0.131026
0.147015
0.174092
0.217687
0.285477
0.38926
0.545025
0.77355
1.08707
1.48031
1.72492
1.4622
0.773377
0.0806928
0.112992
0.134134
0.137123
0.135655
0.135441
0.139539
0.150502
0.172228
0.210938
0.277127
0.387833
0.567467
0.860108
1.33136
2.05265
3.05226
3.83684
2.99361
2.02951
0.0841568
0.132673
0.157506
0.158157
0.152641
0.148712
0.150376
0.161224
0.186992
0.237598
0.331633
0.503886
0.815773
1.37876
2.41589
4.21722
6.87007
9.1978
7.11047
2.25266
0.0833531
0.157919
0.184999
0.179193
0.165385
0.154001
0.149576
0.156603
0.182987
0.243268
0.368995
0.625977
1.1502
2.2393
4.68027
9.25483
16.4049
24.2099
19.3231
-4.1029
0.0738017
0.191274
0.216253
0.197696
0.169836
0.146596
0.132494
0.131411
0.154507
0.219625
0.377849
0.741525
1.59291
3.65292
8.64345
18.3415
29.5534
40.5593
41.4835
-2.6036
0.0324038
0.236208
0.250351
0.206236
0.159343
0.120727
0.0960572
0.0855019
0.104286
0.171688
0.363904
0.846812
2.11281
5.32107
11.5784
9.84634
0
0
45.7558
63.7645
0.0553265
0.293265
0.272439
0.190847
0.124439
0.0693945
0.0383616
0.0267733
0.0474828
0.131053
0.37156
1.0064
2.52294
5.83782
8.49505
-16.772
0
-143.985
0
151.718
0
0.25435
0.200819
0.0953833
0.0326182
-0.0220936
0
-0.0393761
0.00962013
0.14007
0.477058
1.24717
3.03069
5.85425
5.88651
-24.474
0
-200.954
0
150.587
0
0.331947
0.0402263
0
0
-0.183919
0
-0.114718
0
0.174459
0.832707
1.86363
4.31166
7.3502
8.81786
-8.1879
0
-105.26
0
116.186
0
0
0
0
0
-0.372562
0
-0.0520563
0
0
1.1679
2.69798
5.98165
8.45771
7.05203
-5.08745
0
-62.2935
0
333.963
10.3566
0
0
0
1.02255
0
0
0
0.421225
0
1.79913
0.933138
4.99794
5.60352
0.318411
-12.8039
0
-42.8597
0
1030.98
3289.83
-587.577
0
-362.239
0
-90.8649
0
-40.7369
0
-19.215
0
-7.26382
0
0
0
0
0
0
0
1658.82
)
;

boundaryField
{
    movingWall
    {
        type            calculated;
        value           nonuniform List<scalar> 
20
(
5534.13
0
0
0
0
0
0
0
0
0
0
0
0
0
0
0
0
0
0
2870.07
)
;
    }
    fixedWalls
    {
        type            calculated;
        value           nonuniform List<scalar> 
60
(
0
0.0113325
0.0395381
0.0296309
0.0689944
0.0291843
0.0701681
0.0108998
0.0632613
0
0.0444149
0
0
0
0
0
0
0
35.0835
6859.85
0.00310481
0.0311656
0.0897204
0.0687471
0.142671
0.0402955
0.159735
0.0919873
0.827584
1.88003
1.35833
-2.80691
0
0
323.352
202.954
509.208
936.872
3680.75
2293.4
0.002945
0.0119
0.0300097
0.0343306
0.0554002
0.0417545
0.0601391
0.0438163
0.0651021
0.057493
0.0760812
0.0870776
0.100303
0.0903093
0.117147
0.0830953
0.0948591
0.0540515
0.0305286
0.00255568
)
;
    }
    frontAndBack
    {
        type            empty;
    }
}


// ************************************************************************* //
