/*--------------------------------*- C++ -*----------------------------------*\
| =========                 |                                                 |
| \\      /  F ield         | OpenFOAM: The Open Source CFD Toolbox           |
|  \\    /   O peration     | Version:  2312                                  |
|   \\  /    A nd           | Website:  www.openfoam.com                      |
|    \\/     M anipulation  |                                                 |
\*---------------------------------------------------------------------------*/
FoamFile
{
    version     2.0;
    format      ascii;
    arch        "LSB;label=32;scalar=64";
    class       volVectorField;
    location    "0.625";
    object      LambVectorField;
}
// * * * * * * * * * * * * * * * * * * * * * * * * * * * * * * * * * * * * * //

dimensions      [0 1 -2 0 0 0 0];

internalField   nonuniform List<vector> 
400
(
(-1.51373e-05 -1.49494e-05 -2.00246e-09)
(-0.000105133 -0.000175693 0)
(-0.000252388 -0.000742022 -1.27616e-06)
(-0.000390899 -0.00177692 0)
(-0.000494241 -0.00327024 -1.2648e-05)
(-0.000553939 -0.00509981 0)
(-0.0005684 -0.00709886 -4.08611e-05)
(-0.000536589 -0.00908661 0)
(-0.000455533 -0.0108763 -7.77263e-05)
(-0.000320571 -0.012304 0)
(-0.00015368 -0.0131289 -0.000103267)
(6.80442e-05 -0.0132723 -0)
(0.000307322 -0.0125824 -9.70853e-05)
(0.000536576 -0.0110743 -0)
(0.000712836 -0.00888026 -5.74571e-05)
(0.000788108 -0.00629845 -0)
(0.000725869 -0.00376374 -1.55164e-05)
(0.000525639 -0.00173692 -0)
(0.000247643 -0.000483212 -6.08098e-07)
(5.67426e-05 -5.81614e-05 -0)
(-0.000177162 -0.0001048 -4.40806e-08)
(-0.000238523 -0.000236927 0)
(-0.00022246 -0.000334102 -8.03371e-07)
(-0.000185112 -0.000394229 0)
(-0.000156365 -0.000455694 -2.13061e-06)
(-0.000138624 -0.000540636 0)
(-0.000125329 -0.000648489 -4.35787e-06)
(-0.000109959 -0.000762963 0)
(-8.85935e-05 -0.000861964 -7.11973e-06)
(-6.00231e-05 -0.000925606 0)
(-2.62562e-05 -0.000957722 -8.68152e-06)
(1.1791e-05 -0.000924796 -0)
(5.10204e-05 -0.000865178 -7.70114e-06)
(9.10756e-05 -0.000792754 -0)
(0.000136315 -0.000733687 -5.56264e-06)
(0.000196472 -0.00070181 -0)
(0.000281402 -0.000683279 -3.51342e-06)
(0.000384083 -0.000629466 -0)
(0.000449043 -0.000469634 -9.69315e-07)
(0.000487814 -0.00026084 -0)
(-0.000750477 -0.000261731 -1.56509e-07)
(-0.0003579 -0.000242136 0)
(-0.000252466 -0.000257451 -7.10622e-07)
(-0.000164434 -0.00023213 0)
(-9.73083e-05 -0.000183105 -9.21866e-07)
(-5.3702e-05 -0.000132438 0)
(-2.84272e-05 -9.17127e-05 -6.51481e-07)
(-1.45612e-05 -6.24767e-05 0)
(-6.73198e-06 -4.03144e-05 -3.51217e-07)
(-2.24404e-06 -2.11689e-05 0)
(-2.64143e-07 -5.78539e-06 -5.55807e-08)
(-4.5646e-08 2.48451e-06 -0)
(1.23332e-06 -1.36374e-05 -1.30043e-07)
(1.21416e-05 -6.91998e-05 -0)
(4.78589e-05 -0.000170804 -1.41586e-06)
(0.000127094 -0.000306051 -0)
(0.000263223 -0.000438342 -2.56463e-06)
(0.000450214 -0.000511054 -0)
(0.000685451 -0.000488916 -1.2631e-06)
(0.00193457 -0.000632047 -0)
(-0.00185452 -0.000436935 -2.92118e-07)
(-0.00046671 -0.000232998 0)
(-0.000273698 -0.00021085 -6.29044e-07)
(-0.000163492 -0.000174359 0)
(-8.05121e-05 -0.000113435 -6.04594e-07)
(-2.31114e-05 -4.22308e-05 0)
(1.11618e-05 2.64351e-05 1.97382e-07)
(2.73146e-05 8.53544e-05 0)
(3.0635e-05 0.000132484 1.21676e-06)
(2.49047e-05 0.000167072 0)
(1.26099e-05 0.000185447 1.89735e-06)
(-3.04602e-06 0.00017907 -0)
(-1.48954e-05 0.000133951 1.38345e-06)
(-8.65153e-06 3.92674e-05 -0)
(3.59654e-05 -0.000102016 -9.37571e-07)
(0.000139091 -0.000266809 -0)
(0.000311553 -0.000413418 -2.75535e-06)
(0.000554363 -0.000497086 -0)
(0.000990493 -0.000541761 -1.63274e-06)
(0.00485066 -0.00112939 -0)
(-0.00360369 -0.000620835 -4.31178e-07)
(-0.000609652 -0.000237419 0)
(-0.00030115 -0.000186151 -5.87497e-07)
(-0.000172881 -0.000149343 0)
(-8.16425e-05 -9.3173e-05 -5.25272e-07)
(-1.57177e-05 -2.31639e-05 0)
(2.59938e-05 4.93534e-05 3.90106e-07)
(4.61745e-05 0.000114826 0)
(4.92076e-05 0.000167548 1.64054e-06)
(3.94054e-05 0.000203636 0)
(2.06287e-05 0.000216495 2.39554e-06)
(-1.2914e-06 0.000195035 -0)
(-1.47639e-05 0.000125486 1.43257e-06)
(-2.29211e-07 9.36783e-07 -0)
(6.68113e-05 -0.000168218 -1.7555e-06)
(0.000206953 -0.000349785 -0)
(0.000429204 -0.000497537 -3.85608e-06)
(0.000750295 -0.000578841 -0)
(0.00150213 -0.000686251 -2.41244e-06)
(0.00994505 -0.00183183 -0)
(-0.00607031 -0.000819705 -5.83496e-07)
(-0.000822913 -0.000262241 0)
(-0.000353478 -0.000183117 -6.09091e-07)
(-0.000199553 -0.000146059 0)
(-9.98474e-05 -9.68733e-05 -5.80106e-07)
(-2.65933e-05 -3.32743e-05 0)
(2.22708e-05 3.5743e-05 3.01677e-07)
(4.77442e-05 9.96228e-05 0)
(5.3299e-05 0.000150351 1.58759e-06)
(4.34466e-05 0.00018112 0)
(2.33786e-05 0.000181987 2.21062e-06)
(1.97163e-06 0.000138537 0)
(-3.82363e-06 3.51958e-05 4.52735e-07)
(3.284e-05 -0.000132606 -0)
(0.000143065 -0.000345978 -4.20208e-06)
(0.000349699 -0.000559082 -0)
(0.000662121 -0.000716225 -6.64132e-06)
(0.00112396 -0.000795803 -0)
(0.00239773 -0.000980017 -4.12421e-06)
(0.0183076 -0.00290657 -0)
(-0.0093423 -0.00104728 -7.70048e-07)
(-0.00113592 -0.000308625 0)
(-0.000445393 -0.000200179 -7.04742e-07)
(-0.000250749 -0.00016067 0)
(-0.000136992 -0.000116771 -7.4695e-07)
(-5.41956e-05 -5.95367e-05 0)
(3.01746e-06 4.23419e-06 3.843e-08)
(3.50964e-05 6.35109e-05 0)
(4.49456e-05 0.000108351 1.24424e-06)
(3.71595e-05 0.000128464 0)
(1.84534e-05 0.000109536 1.4764e-06)
(1.42379e-06 3.08574e-05 0)
(1.07796e-05 -0.000128235 -1.88776e-06)
(8.57233e-05 -0.000372991 -0)
(0.000270884 -0.000672562 -9.72474e-06)
(0.000596463 -0.000955503 -0)
(0.00107285 -0.00114156 -1.30612e-05)
(0.00178819 -0.00122276 -0)
(0.00392685 -0.00151216 -7.86001e-06)
(0.0318122 -0.00462088 -0)
(-0.0135525 -0.00132051 -1.01754e-06)
(-0.00157476 -0.000377597 0)
(-0.000588964 -0.000236291 -8.86929e-07)
(-0.000332205 -0.000191162 0)
(-0.000193905 -0.000148755 -1.02175e-06)
(-9.58558e-05 -9.46371e-05 0)
(-2.72072e-05 -3.41396e-05 -3.34616e-07)
(1.31932e-05 2.11481e-05 0)
(2.79988e-05 5.87948e-05 7.37196e-07)
(2.2057e-05 6.43056e-05 0)
(3.54669e-06 1.64012e-05 2.46651e-07)
(-1.04699e-05 -0.000117182 0)
(1.63536e-05 -0.000370287 -6.30207e-06)
(0.000144975 -0.000754729 -0)
(0.00044737 -0.00122011 -2.14119e-05)
(0.000968921 -0.00164024 -0)
(0.0017142 -0.00187671 -2.7317e-05)
(0.00282643 -0.00194114 -0)
(0.00641085 -0.0023992 -1.5794e-05)
(0.0535797 -0.00729636 -0)
(-0.0188948 -0.00165929 -1.36093e-06)
(-0.0021672 -0.000471992 0)
(-0.000794972 -0.000291551 -1.17634e-06)
(-0.000447485 -0.000236068 0)
(-0.000268624 -0.000188941 -1.39907e-06)
(-0.000145522 -0.000131326 0)
(-5.97941e-05 -6.81325e-05 -7.21845e-07)
(-8.65365e-06 -1.24547e-05 0)
(1.08694e-05 2.01095e-05 2.75051e-07)
(4.01266e-06 9.96206e-06 0)
(-2.07538e-05 -7.59635e-05 -1.27384e-06)
(-4.20036e-05 -0.00028982 0)
(-7.92494e-06 -0.000694096 -1.37113e-05)
(0.000178321 -0.00132202 -0)
(0.000641903 -0.00209253 -4.5244e-05)
(0.00145126 -0.00274613 -0)
(0.00256363 -0.00300379 -5.72538e-05)
(0.00418624 -0.00296046 -0)
(0.0102183 -0.00372489 -3.12887e-05)
(0.0880673 -0.0108934 -0)
(-0.0256436 -0.00209036 -1.85369e-06)
(-0.00294729 -0.000597541 0)
(-0.0010732 -0.000367254 -1.60652e-06)
(-0.000595723 -0.000293204 0)
(-0.000352556 -0.000230808 -1.84743e-06)
(-0.000189064 -0.00015799 0)
(-7.73008e-05 -8.08549e-05 -9.23837e-07)
(-1.16193e-05 -1.51445e-05 0)
(1.22551e-05 2.01012e-05 2.98087e-07)
(-5.88725e-07 -1.25073e-06 0)
(-4.39688e-05 -0.000128763 -2.39e-06)
(-9.63352e-05 -0.000448182 0)
(-9.07339e-05 -0.00107385 -2.45385e-05)
(0.000120794 -0.00209562 -0)
(0.000767192 -0.00342946 -9.22716e-05)
(0.00203324 -0.00461286 -0)
(0.00412932 -0.00536569 -0.000137786)
(0.00861701 -0.00632212 -0)
(0.021833 -0.00746865 -7.84052e-05)
(0.140296 -0.0128782 -0)
(-0.0341905 -0.00265697 -2.59262e-06)
(-0.00395883 -0.000764584 0)
(-0.00142776 -0.000464714 -2.22539e-06)
(-0.000761912 -0.000355514 0)
(-0.000418146 -0.000258199 -2.23793e-06)
(-0.000191524 -0.000149792 0)
(-4.12517e-05 -3.9933e-05 -4.89446e-07)
(4.46077e-05 5.29428e-05 0)
(7.38619e-05 0.000107715 1.71202e-06)
(4.97622e-05 9.05911e-05 0)
(-2.86779e-05 -6.76109e-05 -1.36774e-06)
(-0.000149831 -0.000494589 0)
(-0.000246249 -0.00137884 -3.59954e-05)
(-0.000127154 -0.00295473 0)
(0.000636294 -0.00550561 -0.000185058)
(0.00299522 -0.0092041 -0)
(0.0107724 -0.0165026 -0.000595908)
(0.0371541 -0.029593 -0)
(0.0907773 -0.0304007 -0.000428355)
(0.227867 -0.00515886 -0)
(-0.0451379 -0.00344014 -3.78109e-06)
(-0.00524843 -0.000989175 0)
(-0.00183585 -0.000579547 -3.07396e-06)
(-0.000889661 -0.000399849 0)
(-0.000390526 -0.000230337 -2.16428e-06)
(-6.99935e-05 -5.17318e-05 0)
(0.000134327 0.000121153 1.57982e-06)
(0.00024768 0.000268665 0)
(0.000285179 0.000370004 6.19464e-06)
(0.000248649 0.000387337 0)
(0.000125302 0.000238185 5.11947e-06)
(-9.53201e-05 -0.000229587 0)
(-0.000372794 -0.00123765 -3.59477e-05)
(-0.000553986 -0.00315891 0)
(-0.000206141 -0.00778079 -0.000324821)
(0.00313514 -0.0184254 -0)
(0.0187231 -0.0401332 -0.002186)
(0.0865145 -0.0890569 -0)
(0.302456 -0.139707 -0.00385389)
(0.425814 -0.00687093 -0)
(-0.0593394 -0.00459613 -5.8839e-06)
(-0.00682723 -0.00129165 0)
(-0.00218494 -0.000683093 -4.06953e-06)
(-0.000818689 -0.000360171 0)
(-9.20031e-05 -5.24713e-05 -5.34397e-07)
(0.000358401 0.000252554 0)
(0.000633164 0.000535107 7.33791e-06)
(0.000780324 0.000775475 0)
(0.000829089 0.000956087 1.6461e-05)
(0.000783853 0.00104069 0)
(0.000626085 0.000955785 2.09925e-05)
(0.000342186 0.000607041 0)
(-1.56774e-05 -3.34096e-05 -1.02741e-06)
(-9.10091e-05 -0.000251128 0)
(0.000837699 0.00363679 0.000181894)
(0.00188388 0.0431409 0)
(-0.0452357 0.178652 0.0147025)
(-0.0965317 0.127462 -0)
(0.541884 -0.33977 -0.0189161)
(0.995178 -0.255257 -0)
(-0.0787991 -0.00643233 -1.00068e-05)
(-0.00848848 -0.00165591 0)
(-0.00213351 -0.000673925 -4.57015e-06)
(-0.000171944 -7.51373e-05 0)
(0.000856849 0.000477425 5.25089e-06)
(0.00146954 0.000993946 0)
(0.00181987 0.00144625 2.05092e-05)
(0.00199779 0.00181965 0)
(0.00206046 0.00210559 3.60969e-05)
(0.00202168 0.00227228 0)
(0.00187724 0.00227881 4.8281e-05)
(0.00165647 0.00214732 0)
(0.00168458 0.00233421 6.90799e-05)
(0.00623717 0.00939067 0)
(0.042586 0.0774878 0.00402787)
(0.125029 0.408007 0)
(-0.134155 1.10487 0.107526)
(-1.00748 1.28106 -0)
(0.00482762 -0.00292277 -0.000240134)
(2.78855 -1.00224 -0)
(-0.103204 -0.00951242 -1.91468e-05)
(-0.00985486 -0.00205851 0)
(-0.000885229 -0.000287905 -2.24288e-06)
(0.00184924 0.000811267 0)
(0.00321051 0.0017561 2.05967e-05)
(0.00402341 0.00261294 0)
(0.00443703 0.00330595 4.71919e-05)
(0.00462074 0.00383576 0)
(0.00472303 0.00424238 6.9269e-05)
(0.0047344 0.00445316 0)
(0.00475795 0.00451243 8.48725e-05)
(0.00499197 0.00460195 0)
(0.00665816 0.00579688 0.000138586)
(0.0236326 0.0190837 0)
(0.153682 0.125614 0.00463099)
(0.462583 0.584643 0)
(0.0285525 1.49899 0.106988)
(-2.20293 2.06429 -0)
(-2.32692 1.05985 0.0842443)
(6.15555 -1.63296 -0)
(-0.147608 -0.0142084 -3.59606e-05)
(-0.00848808 -0.0018648 0)
(0.00332318 0.00110966 9.79494e-06)
(0.00703043 0.00307621 0)
(0.00865636 0.00458746 5.54011e-05)
(0.00940039 0.00573669 0)
(0.00988597 0.00672187 9.15085e-05)
(0.0102312 0.00751533 0)
(0.0106255 0.00812347 0.000117424)
(0.011115 0.00845977 0)
(0.0117368 0.00833577 0.000123055)
(0.0130948 0.00800774 0)
(0.0179471 0.00863465 0.000123669)
(0.0463883 0.0157309 0)
(0.190754 0.0425487 0.000472919)
(0.565167 0.109523 0)
(0.39619 0.279519 0.00368285)
(-1.73617 0.415444 -0)
(-4.45969 1.10605 0.0454026)
(8.97035 -1.36824 -0)
(-0.16415 -0.0238503 -9.53292e-05)
(-0.0068595 -0.00185974 0)
(0.0128368 0.00455833 4.47745e-05)
(0.0190374 0.00806444 0)
(0.0215928 0.0104013 0.00011708)
(0.0229875 0.0122043 0)
(0.0243209 0.0137112 0.000156081)
(0.0258116 0.0148948 0)
(0.0275791 0.01557 0.000165059)
(0.0298688 0.0154537 0)
(0.0329429 0.0139783 0.000118802)
(0.0377554 0.0106294 0)
(0.0468169 0.00476341 1.32011e-05)
(0.0708039 -0.00684543 0)
(0.160745 -0.0488847 0.00063803)
(0.353307 -0.225855 0)
(0.265209 -0.495136 0.0165074)
(-0.814379 -0.948467 0)
(-3.56747 -0.225608 0.00165761)
(9.55094 -0.57805 -0)
(-0.420431 -0.0464658 -0.000238993)
(0.0512091 0.0101881 0)
(0.0734198 0.0175494 0.000145661)
(0.075043 0.0193069 0)
(0.0806344 0.0209174 0.000139979)
(0.085947 0.0205142 0)
(0.0896656 0.0168059 6.58128e-05)
(0.0930466 0.0100596 0)
(0.0968968 0.000311597 1.84561e-08)
(0.101854 -0.0131998 0)
(0.108825 -0.031888 0.000169213)
(0.119201 -0.0578876 0)
(0.13537 -0.0939026 0.00139264)
(0.161479 -0.147547 0)
(0.205974 -0.242223 0.00822805)
(0.239521 -0.456367 0)
(0.0803127 -0.718339 0.0401151)
(-0.620005 -1.18734 0)
(-2.32658 -0.758264 0.0217039)
(7.51733 0.183831 0)
(0.0281349 0.00875439 5.36553e-05)
(0.0963765 0.0606335 0)
(0.104914 0.00920327 8.83541e-06)
(0.15311 -0.0672211 0)
(0.185463 -0.182108 0.0024785)
(0.194784 -0.309745 0)
(0.197487 -0.440737 0.0123097)
(0.200776 -0.573674 0)
(0.204729 -0.709029 0.0287638)
(0.209357 -0.847479 0)
(0.215294 -0.990316 0.0522431)
(0.224117 -1.1395 0)
(0.237575 -1.29832 0.0863736)
(0.253945 -1.47707 0)
(0.263718 -1.67989 0.142682)
(0.21224 -1.96962 0)
(0.04661 -2.13367 0.212269)
(-0.521085 -2.84546 0)
(-1.58355 -1.05147 0.0346147)
(-2.18321 -0.704446 0)
(16.6664 -7.36097 0.300454)
(13.8502 -12.6369 0)
(8.50589 -17.3522 1.54211)
(5.53972 -21.0767 0)
(4.00498 -23.7764 3.02055)
(3.11122 -25.9502 0)
(2.52542 -27.8622 4.25491)
(2.11648 -29.5838 0)
(1.81592 -31.1453 5.42525)
(1.58974 -32.5777 0)
(1.42145 -33.9133 6.55112)
(1.29593 -35.1822 0)
(1.20059 -36.4007 7.68982)
(1.12499 -37.6077 0)
(1.04153 -38.6914 8.87372)
(0.880624 -39.8971 0)
(0.611625 -39.7679 9.47342)
(-0.293713 -42.2103 0)
(0.64843 -26.3688 3.60613)
(-14.4029 -55.3602 0)
)
;

boundaryField
{
    movingWall
    {
        type            calculated;
        value           nonuniform List<vector> 
20
(
(0 -367.482 0)
(0 -379.523 0)
(0 -368.494 0)
(0 -357.978 0)
(0 -350.405 0)
(0 -344.525 0)
(0 -339.428 0)
(0 -334.824 0)
(0 -330.598 0)
(0 -326.649 0)
(0 -322.883 0)
(0 -319.216 0)
(0 -315.583 0)
(0 -311.853 0)
(0 -308.393 0)
(0 -304.422 0)
(0 -305.423 0)
(0 -295.952 0)
(0 -355.079 0)
(0 -237.198 0)
)
;
    }
    fixedWalls
    {
        type            calculated;
        value           uniform (-0 0 0);
    }
    frontAndBack
    {
        type            empty;
    }
}


// ************************************************************************* //
