/*--------------------------------*- C++ -*----------------------------------*\
| =========                 |                                                 |
| \\      /  F ield         | OpenFOAM: The Open Source CFD Toolbox           |
|  \\    /   O peration     | Version:  2312                                  |
|   \\  /    A nd           | Website:  www.openfoam.com                      |
|    \\/     M anipulation  |                                                 |
\*---------------------------------------------------------------------------*/
FoamFile
{
    version     2.0;
    format      ascii;
    arch        "LSB;label=32;scalar=64";
    class       volScalarField;
    location    "0.625";
    object      magSqrU;
}
// * * * * * * * * * * * * * * * * * * * * * * * * * * * * * * * * * * * * * //

dimensions      [0 2 -2 0 0 0 0];

internalField   nonuniform List<scalar> 
400
(
3.63382e-08
6.8784e-07
3.30006e-06
8.21847e-06
1.53e-05
2.39348e-05
3.3344e-05
4.27019e-05
5.11605e-05
5.79319e-05
6.18763e-05
6.27273e-05
5.95714e-05
5.25193e-05
4.21333e-05
2.98058e-05
1.7628e-05
7.87629e-06
1.99965e-06
1.79168e-07
6.82501e-07
3.44325e-06
8.34537e-06
1.53562e-05
2.44345e-05
3.51792e-05
4.68455e-05
5.84597e-05
6.89465e-05
7.72257e-05
8.22316e-05
8.31635e-05
7.95072e-05
7.13475e-05
5.94674e-05
4.53539e-05
3.09248e-05
1.80818e-05
8.15466e-06
2.05614e-06
3.29748e-06
8.49737e-06
1.49455e-05
2.29357e-05
3.25064e-05
4.34748e-05
5.53076e-05
6.71608e-05
7.80143e-05
8.67984e-05
9.24883e-05
9.42685e-05
9.16738e-05
8.47409e-05
7.41085e-05
6.09222e-05
4.65748e-05
3.24753e-05
1.97931e-05
8.82826e-06
8.49911e-06
1.62018e-05
2.38976e-05
3.27139e-05
4.2718e-05
5.38261e-05
6.569e-05
7.76564e-05
8.886e-05
9.83423e-05
0.000105162
0.000108548
0.000107987
0.000103353
9.49611e-05
8.34499e-05
6.9646e-05
5.46148e-05
3.94429e-05
2.2662e-05
1.67342e-05
2.72523e-05
3.60292e-05
4.56243e-05
5.61854e-05
6.76531e-05
7.98102e-05
9.21948e-05
0.000104143
0.000114866
0.000123548
0.000129506
0.000132135
0.000131033
0.000126086
0.000117279
0.000104768
8.92613e-05
7.15682e-05
4.67299e-05
2.82954e-05
4.23857e-05
5.22902e-05
6.26884e-05
7.39551e-05
8.6059e-05
9.88922e-05
0.000112186
0.00012551
0.000138313
0.000149987
0.000159884
0.000167418
0.000171963
0.000172736
0.000168854
0.000159466
0.000144472
0.00012372
8.60843e-05
4.35631e-05
6.24369e-05
7.37523e-05
8.50854e-05
9.72349e-05
0.000110268
0.000124212
0.000139022
0.000154558
0.000170593
0.00018683
0.000202872
0.000218244
0.000232106
0.000242985
0.000248705
0.000246532
0.000234339
0.000209216
0.000149545
6.31365e-05
8.84123e-05
0.000101621
0.000114114
0.000127343
0.000141584
0.000157082
0.000174091
0.000192865
0.000213666
0.000236735
0.000262246
0.000290225
0.000319962
0.000349378
0.000374417
0.000388637
0.000384848
0.000352756
0.000251977
8.79036e-05
0.000121597
0.000137313
0.000151214
0.000165661
0.000181294
0.000198702
0.000218571
0.000241734
0.000269202
0.000302193
0.000342093
0.000390278
0.000447339
0.000511489
0.000576214
0.000627933
0.000646718
0.000601537
0.000416078
0.00011913
0.000163673
0.00018254
0.000197969
0.000213548
0.000230482
0.000249876
0.000273042
0.000301651
0.000337892
0.000384691
0.000445864
0.000525893
0.000629851
0.000760136
0.000909029
0.00104996
0.00113144
0.00105198
0.00066587
0.000158619
0.000216902
0.000239395
0.000256066
0.000272156
0.000289701
0.00031054
0.000336835
0.000371401
0.000418155
0.000482866
0.000573987
0.000703243
0.000886503
0.0011449
0.00148451
0.00185954
0.00213496
0.00196875
0.0010025
0.000209184
0.00028444
0.000310438
0.000327141
0.000342073
0.000358447
0.000379066
0.000407118
0.000446808
0.000504365
0.000589828
0.000719781
0.00092016
0.00123366
0.00174399
0.00255061
0.00361254
0.00460613
0.0043275
0.00146178
0.000274819
0.00037067
0.00039861
0.00041232
0.000422619
0.000434328
0.000451324
0.000477797
0.000519336
0.000584696
0.000689395
0.000862259
0.00115392
0.00165976
0.00263424
0.00447823
0.007207
0.0104241
0.0109834
0.00324583
0.000365629
0.000482355
0.000506884
0.000511161
0.000510597
0.000511792
0.000519528
0.000538592
0.000575326
0.000640185
0.00075351
0.000957263
0.001332
0.00203428
0.00351812
0.00626757
0.00961092
0.0165014
0.0251662
0.0119487
0.000480948
0.000623681
0.000634446
0.000618257
0.000597336
0.000579818
0.000570826
0.000574721
0.000597028
0.000647568
0.00074707
0.000941622
0.00132554
0.00207137
0.00339355
0.004626
0.00509602
0.0131491
0.036774
0.0331179
0.00069774
0.000813752
0.00077671
0.000719412
0.000665143
0.000619514
0.000586198
0.000567546
0.000566425
0.000588693
0.000649962
0.00078941
0.00109134
0.00170259
0.00260653
0.0026685
0.000522358
0.0034016
0.0290803
0.0586118
0.00077273
0.000937337
0.000861638
0.00076306
0.000672756
0.000596943
0.000537298
0.000493053
0.000464979
0.000454786
0.000473428
0.000549423
0.000749598
0.00120331
0.00201224
0.00250346
0.00143038
0.00328526
0.013552
0.0757519
0.00219229
0.00180511
0.00127464
0.000920853
0.000710265
0.000559013
0.000451874
0.000380567
0.000339258
0.000327859
0.000356118
0.000451661
0.000677047
0.00115595
0.00198825
0.00305237
0.00315756
0.00632459
0.00853236
0.0763052
0.000425548
0.000200314
0.000120693
0.000210548
0.000377353
0.000616106
0.000936691
0.00132842
0.00178297
0.00230538
0.00291451
0.00364892
0.00457406
0.005819
0.00739173
0.00963558
0.00990205
0.0143539
0.00354188
0.0598607
0.0102068
0.00884996
0.00979585
0.0130765
0.0165971
0.0200462
0.0235127
0.0269877
0.0304459
0.0338973
0.0373812
0.0409571
0.0446772
0.0486932
0.0526378
0.0574234
0.056761
0.0677044
0.0187139
0.156568
)
;

boundaryField
{
    movingWall
    {
        type            calculated;
        value           uniform 1;
    }
    fixedWalls
    {
        type            calculated;
        value           uniform 0;
    }
    frontAndBack
    {
        type            empty;
    }
}


// ************************************************************************* //
