/*--------------------------------*- C++ -*----------------------------------*\
| =========                 |                                                 |
| \\      /  F ield         | OpenFOAM: The Open Source CFD Toolbox           |
|  \\    /   O peration     | Version:  2312                                  |
|   \\  /    A nd           | Website:  www.openfoam.com                      |
|    \\/     M anipulation  |                                                 |
\*---------------------------------------------------------------------------*/
FoamFile
{
    version     2.0;
    format      ascii;
    arch        "LSB;label=32;scalar=64";
    class       volScalarField;
    location    "0.625";
    object      magU;
}
// * * * * * * * * * * * * * * * * * * * * * * * * * * * * * * * * * * * * * //

dimensions      [0 1 -1 0 0 0 0];

internalField   nonuniform List<scalar> 
400
(
0.000190626
0.000829361
0.00181661
0.00286679
0.00391152
0.00489232
0.00577443
0.00653467
0.00715265
0.0076113
0.00786615
0.00792006
0.00771825
0.00724702
0.00649102
0.00545947
0.00419857
0.00280647
0.00141409
0.000423282
0.000826136
0.0018556
0.00288884
0.0039187
0.00494312
0.00593121
0.00684438
0.0076459
0.00830341
0.00878781
0.00906816
0.00911941
0.00891668
0.00844674
0.00771151
0.00673453
0.00556101
0.00425227
0.00285564
0.00143392
0.0018159
0.00291502
0.00386595
0.00478913
0.00570144
0.00659354
0.00743691
0.00819517
0.00883257
0.00931657
0.00961709
0.0097092
0.00957464
0.00920548
0.00860863
0.00780526
0.00682458
0.00569871
0.00444894
0.00297124
0.00291532
0.00402514
0.00488852
0.0057196
0.0065359
0.00733663
0.00810493
0.00881229
0.00942656
0.00991677
0.0102549
0.0104186
0.0103917
0.0101663
0.0097448
0.00913509
0.00834542
0.00739018
0.00628035
0.00476046
0.00409074
0.00522037
0.00600243
0.00675457
0.00749569
0.00822515
0.00893365
0.00960181
0.010205
0.0107175
0.0111152
0.0113801
0.011495
0.011447
0.0112288
0.0108295
0.0102356
0.00944782
0.0084598
0.00683593
0.00531934
0.00651043
0.0072312
0.0079176
0.00859972
0.0092768
0.00994446
0.0105918
0.0112031
0.0117606
0.0122469
0.0126445
0.012939
0.0131135
0.0131429
0.0129944
0.012628
0.0120196
0.011123
0.00927816
0.00660024
0.0079017
0.00858792
0.00922417
0.00986077
0.0105009
0.011145
0.0117908
0.0124321
0.0130611
0.0136686
0.0142433
0.0147731
0.015235
0.015588
0.0157704
0.0157013
0.0153081
0.0144643
0.0122289
0.00794585
0.00940278
0.0100807
0.0106824
0.0112846
0.0118989
0.0125332
0.0131943
0.0138876
0.0146173
0.0153862
0.016194
0.017036
0.0178875
0.0186916
0.0193499
0.0197139
0.0196175
0.0187818
0.0158738
0.00937569
0.0110271
0.0117181
0.0122969
0.0128709
0.0134646
0.0140962
0.0147841
0.0155478
0.0164074
0.0173837
0.0184958
0.0197555
0.0211504
0.0226161
0.0240045
0.0250586
0.0254306
0.0245263
0.020398
0.0109147
0.0127935
0.0135107
0.0140702
0.0146133
0.0151816
0.0158075
0.016524
0.0173681
0.0183818
0.0196135
0.0211155
0.0229324
0.0250968
0.0275706
0.0301501
0.032403
0.0336369
0.0324343
0.0258045
0.0125944
0.0147276
0.0154724
0.0160021
0.0164972
0.0170206
0.0176221
0.0183531
0.0192718
0.0204489
0.0219742
0.023958
0.0265187
0.0297742
0.0338364
0.0385294
0.0431224
0.0462057
0.0443706
0.0316623
0.0144632
0.0168653
0.0176192
0.018087
0.0184952
0.0189327
0.0194696
0.0201772
0.0211378
0.0224581
0.0242864
0.0268287
0.0303341
0.0351235
0.0417612
0.0505035
0.0601044
0.0678685
0.0657837
0.0382333
0.0165777
0.0192528
0.0199652
0.0203057
0.0205577
0.0208405
0.0212444
0.0218586
0.0227889
0.0241805
0.0262563
0.0293642
0.0339694
0.0407401
0.0513248
0.0669196
0.0848941
0.102098
0.104802
0.0569722
0.0191214
0.0219626
0.0225141
0.0226089
0.0225964
0.0226228
0.0227932
0.0232076
0.023986
0.0253019
0.0274501
0.0309397
0.0364966
0.045103
0.0593138
0.079168
0.0980353
0.128458
0.158639
0.10931
0.0219305
0.0249736
0.0251882
0.0248648
0.0244405
0.0240794
0.023892
0.0239733
0.0244342
0.0254474
0.0273326
0.0306859
0.036408
0.0455123
0.0582541
0.0680147
0.0713864
0.11467
0.191766
0.181983
0.0264148
0.0285263
0.0278695
0.0268218
0.0257904
0.02489
0.0242115
0.0238232
0.0237997
0.024263
0.0254944
0.0280964
0.0330354
0.0412625
0.0510542
0.0516575
0.0228552
0.0583232
0.170529
0.242099
0.027798
0.030616
0.0293537
0.0276235
0.0259375
0.0244324
0.0231797
0.0222048
0.0215634
0.0213257
0.0217584
0.0234398
0.0273788
0.0346888
0.044858
0.0500346
0.0378203
0.0573172
0.116413
0.275231
0.0468219
0.0424865
0.0357021
0.0303456
0.0266508
0.0236435
0.0212573
0.0195081
0.018419
0.0181069
0.0188711
0.0212523
0.0260201
0.0339992
0.0445898
0.0552483
0.0561922
0.0795273
0.0923708
0.276234
0.0206288
0.0141532
0.010986
0.0145103
0.0194256
0.0248215
0.0306054
0.0364475
0.0422252
0.0480143
0.0539862
0.0604063
0.0676318
0.0762823
0.0859752
0.098161
0.099509
0.119808
0.0595137
0.244665
0.101029
0.0940742
0.098974
0.114352
0.12883
0.141584
0.153338
0.164279
0.174487
0.184112
0.193342
0.202379
0.21137
0.220665
0.229429
0.239632
0.238246
0.260201
0.136799
0.395687
)
;

boundaryField
{
    movingWall
    {
        type            calculated;
        value           uniform 1;
    }
    fixedWalls
    {
        type            calculated;
        value           uniform 0;
    }
    frontAndBack
    {
        type            empty;
    }
}


// ************************************************************************* //
