/*--------------------------------*- C++ -*----------------------------------*\
| =========                 |                                                 |
| \\      /  F ield         | OpenFOAM: The Open Source CFD Toolbox           |
|  \\    /   O peration     | Version:  2312                                  |
|   \\  /    A nd           | Website:  www.openfoam.com                      |
|    \\/     M anipulation  |                                                 |
\*---------------------------------------------------------------------------*/
FoamFile
{
    version     2.0;
    format      ascii;
    arch        "LSB;label=32;scalar=64";
    class       volScalarField;
    location    "0.625";
    object      QField;
}
// * * * * * * * * * * * * * * * * * * * * * * * * * * * * * * * * * * * * * //

dimensions      [0 0 -2 0 0 0 0];

internalField   nonuniform List<scalar> 
400
(
-0.00404587
-0.018558
-0.0378091
-0.04903
-0.052662
-0.0509128
-0.0470524
-0.0432867
-0.04127
-0.0394581
-0.0414971
-0.0480333
-0.056394
-0.0681014
-0.081082
-0.0913497
-0.0920622
-0.0772374
-0.0452146
-0.0151507
-0.0178814
-0.0312474
-0.0438847
-0.0488432
-0.0482121
-0.0436645
-0.0368797
-0.0292695
-0.0220572
-0.0162521
-0.0131383
-0.0140511
-0.0203283
-0.0325218
-0.0498668
-0.0691952
-0.0845156
-0.0886359
-0.0753417
-0.0492227
-0.0372154
-0.0445394
-0.0496186
-0.051294
-0.0498819
-0.0456621
-0.0392963
-0.0318231
-0.0244763
-0.0185551
-0.0155171
-0.0169364
-0.0241485
-0.037686
-0.0565992
-0.0779387
-0.0969623
-0.108821
-0.109638
-0.092225
-0.0509254
-0.0540149
-0.0557306
-0.0554376
-0.0536074
-0.0501268
-0.0450822
-0.0391208
-0.0333227
-0.0289964
-0.0276494
-0.0309396
-0.0401531
-0.0557705
-0.076994
-0.101318
-0.124768
-0.142864
-0.148906
-0.127557
-0.0591611
-0.0621213
-0.0633962
-0.0622997
-0.060365
-0.0577442
-0.0543647
-0.050614
-0.047397
-0.0459659
-0.0478693
-0.0546257
-0.0677143
-0.0879284
-0.114618
-0.145756
-0.177258
-0.202721
-0.207892
-0.161089
-0.0632838
-0.0701391
-0.0729503
-0.0720751
-0.0704528
-0.0688405
-0.0673511
-0.0663266
-0.0666125
-0.0694841
-0.0765492
-0.0894932
-0.110219
-0.140134
-0.179161
-0.225525
-0.273312
-0.310587
-0.307773
-0.203521
-0.065688
-0.0791537
-0.0846527
-0.0846836
-0.0837096
-0.0832302
-0.0837916
-0.0859286
-0.0906479
-0.0994758
-0.1144
-0.137985
-0.173111
-0.222432
-0.287625
-0.367213
-0.450141
-0.511399
-0.489355
-0.280766
-0.0679117
-0.0899637
-0.0987508
-0.0999344
-0.0996375
-0.100188
-0.102757
-0.108318
-0.118385
-0.135188
-0.161852
-0.202749
-0.26338
-0.35048
-0.470537
-0.623995
-0.788546
-0.907476
-0.841447
-0.461753
-0.0706838
-0.103318
-0.115587
-0.117598
-0.117447
-0.118416
-0.122463
-0.131281
-0.147316
-0.174262
-0.217709
-0.286074
-0.390823
-0.549649
-0.785961
-1.11236
-1.48488
-1.76295
-1.57494
-0.993008
-0.073864
-0.120051
-0.135598
-0.137301
-0.135884
-0.135801
-0.139963
-0.151031
-0.172878
-0.211716
-0.277818
-0.387985
-0.569283
-0.865008
-1.35462
-2.1272
-3.11235
-3.87572
-3.2568
-2.47482
-0.0761462
-0.141319
-0.159316
-0.158362
-0.153011
-0.149226
-0.150972
-0.162
-0.188051
-0.239159
-0.333766
-0.505734
-0.815792
-1.37927
-2.45047
-4.4624
-7.41614
-9.76679
-7.38255
-3.13986
-0.0733608
-0.168693
-0.187246
-0.179465
-0.165958
-0.154593
-0.150234
-0.157529
-0.184269
-0.245675
-0.37336
-0.632168
-1.15506
-2.25437
-4.72514
-9.90104
-17.8989
-24.903
-18.6855
6.52605
-0.0634645
-0.205722
-0.21945
-0.198003
-0.170623
-0.147165
-0.132742
-0.132247
-0.1551
-0.222456
-0.384699
-0.756842
-1.60717
-3.72481
-8.9631
-18.6054
-29.6412
-44.0857
-47.5668
7.20669
-0.00833543
-0.2521
-0.252812
-0.207758
-0.160359
-0.121566
-0.0954938
-0.0861141
-0.103367
-0.174005
-0.370215
-0.871251
-2.11782
-5.51933
-12.5718
-12.3517
5.59664
0.355277
-60.4507
-66.2524
-0.0637097
-0.32378
-0.276781
-0.194487
-0.123074
-0.070491
-0.0379185
-0.0269854
-0.0476636
-0.131352
-0.37071
-1.00906
-2.61764
-6.12146
-8.03743
19.3171
98.2742
151.874
28.451
-173.785
0.583846
-0.317191
-0.238563
-0.115265
-0.0269141
0.0245792
0.04741
0.0403536
-0.0096712
-0.144662
-0.480654
-1.29785
-3.19605
-6.43386
-5.88404
25.0141
111.881
211.602
145.19
-198.244
-0.940473
-0.801093
-0.207387
0.0679578
0.187098
0.235214
0.230759
0.171346
0.0356352
-0.241542
-0.819117
-2.00375
-4.30117
-7.8852
-8.38462
9.64245
52.8119
107.508
118.692
-172.516
2.93001
0.610667
0.966525
1.28721
1.39225
1.35986
1.15577
0.848549
0.423503
-0.224006
-1.30645
-3.18463
-6.20185
-9.5264
-8.10156
9.07429
37.9485
65.6607
18.7538
-348.793
-20.8285
7.71411
-0.087688
-3.49292
-0.570401
1.08622
0.894027
0.359746
-0.0944002
-0.649566
-1.53495
-2.96724
-4.78296
-5.69813
-0.385361
18.311
58.0156
74.8766
189.494
-1253.17
-3298.91
910.608
747.264
401.32
216.54
131.216
87.219
61.2999
44.6986
32.555
23.1457
16.1714
11.1572
9.99905
18.376
40.3351
116.794
-18.855
1847.11
-3212.19
)
;

boundaryField
{
    movingWall
    {
        type            calculated;
        value           nonuniform List<scalar> 
20
(
-6597.39
1696.62
1391.11
744.152
400.849
242.491
161.014
113.193
82.6741
60.42
43.2484
30.6365
21.7576
19.9788
35.6899
74.4706
213.278
1.5527
3361.11
-4447.12
)
;
    }
    fixedWalls
    {
        type            calculated;
        value           nonuniform List<scalar> 
60
(
-0.00152777
-0.0133681
-0.0338609
-0.050998
-0.0606356
-0.063378
-0.0621459
-0.0588469
-0.0540296
-0.0463992
-0.0316323
0.000988521
0.0644293
0.228083
0.269358
1.51266
-0.362104
5.57596
-47.4593
-7448.13
-0.00733028
-0.037044
-0.0788872
-0.109815
-0.12331
-0.122588
-0.129029
-0.228111
-0.822774
-2.91375
-2.56478
19.9681
43.6535
-44.7599
-257.997
-431.847
-499.856
-1024.88
-4034.19
-11237.5
-0.00157931
-0.014223
-0.0357858
-0.0529659
-0.0618123
-0.0639599
-0.0635364
-0.0635818
-0.0664442
-0.068777
-0.0762923
-0.0891145
-0.100851
-0.11329
-0.122499
-0.123394
-0.109128
-0.077
-0.0354404
-0.00706308
)
;
    }
    frontAndBack
    {
        type            empty;
    }
}


// ************************************************************************* //
