/*--------------------------------*- C++ -*----------------------------------*\
| =========                 |                                                 |
| \\      /  F ield         | OpenFOAM: The Open Source CFD Toolbox           |
|  \\    /   O peration     | Version:  2312                                  |
|   \\  /    A nd           | Website:  www.openfoam.com                      |
|    \\/     M anipulation  |                                                 |
\*---------------------------------------------------------------------------*/
FoamFile
{
    version     2.0;
    format      ascii;
    arch        "LSB;label=32;scalar=64";
    class       volScalarField;
    location    "0.625";
    object      staticP;
}
// * * * * * * * * * * * * * * * * * * * * * * * * * * * * * * * * * * * * * //

dimensions      [1 -1 -2 0 0 0 0];

internalField   nonuniform List<scalar> 
400
(
1
1
1
1.00001
1.00004
1.00007
1.00012
1.00018
1.00025
1.00033
1.00042
1.00052
1.00062
1.00072
1.00082
1.0009
1.00097
1.00102
1.00104
1.00105
1
1
1
1.00002
1.00004
1.00008
1.00013
1.00018
1.00025
1.00033
1.00042
1.00051
1.00061
1.00071
1.00081
1.00089
1.00097
1.00102
1.00104
1.00105
1
1
1
1.00001
1.00004
1.00007
1.00012
1.00017
1.00024
1.00032
1.00041
1.0005
1.0006
1.00071
1.00081
1.0009
1.00098
1.00104
1.00107
1.00107
1
1
1
1
1.00001
1.00005
1.00009
1.00015
1.00022
1.00029
1.00039
1.00049
1.00059
1.00071
1.00082
1.00092
1.00102
1.00108
1.00111
1.00111
1
1
1
1
1
1
1.00005
1.0001
1.00017
1.00026
1.00035
1.00046
1.00058
1.00071
1.00084
1.00096
1.00107
1.00115
1.00119
1.00118
1
1
1
1
1
1
1
1.00005
1.00012
1.0002
1.0003
1.00042
1.00055
1.0007
1.00086
1.00101
1.00115
1.00125
1.00129
1.00128
1
1
1
1
1
1
1
1
1.00004
1.00013
1.00023
1.00036
1.00051
1.00069
1.00088
1.00107
1.00125
1.00137
1.00143
1.00141
1
1
1
1
1
1
1
1
1
1.00002
1.00014
1.00027
1.00044
1.00065
1.00088
1.00113
1.00136
1.00154
1.00161
1.00158
1
1
1
1
1
1
1
1
1
1
1
1.00015
1.00033
1.00057
1.00085
1.00117
1.0015
1.00174
1.00184
1.00178
1
1
1
1
1
1
1
1
1
1
1
1
1.00016
1.00042
1.00075
1.00117
1.00163
1.002
1.00213
1.00199
1
1
1
1
1
1
1
1
1
1
1
1
1
1.00016
1.00054
1.00107
1.00176
1.00235
1.00249
1.00217
1
1
1
1
1
1
1
1
1
1
1
1
1
1
1.00011
1.00071
1.00171
1.00272
1.00286
1.00226
1
1
1
1
1
1
1
1
1
1
1
1
1
1
1
1
1.00055
1.00188
1.00275
1.00207
1
1
1
1
1
1
1
1
1
1
1
1
1
1
1
1
1
1
1
1.00091
1
1
1
1
1
1
1
1
1
1
1
1
1
1
1
1
1
1
1
1
1
1
1
1
1
1
1
1
1
1
1
1
1
1
1
1
1
1
1
1
1
1
1
1
1
1
1
1
1
1
1
1
1
1
1
1
1
1
1
1
1
1
1
1
1
1
1
1
1
1
1
1
1
1
1
1
1
1
1
1
1
1
1
1
1
1
1
1
1
1
1
1
1
1
1
1
1
1
1
1.00941
1.00047
1.002
1.00108
1
1
1
1
1
1
1
1
1
1
1
1
1
1
1
1
1.05494
)
;

boundaryField
{
    movingWall
    {
        type            calculated;
        value           nonuniform List<scalar> 
20
(
1.00047
1.002
1.00108
1
1
1
1
1
1
1
1
1
1
1
1
1
1
1
1
1.05494
)
;
    }
    fixedWalls
    {
        type            calculated;
        value           nonuniform List<scalar> 
60
(
1
1
1
1
1
1
1
1
1
1
1
1
1
1
1
1
1
1
1
1.00047
1.00105
1.00105
1.00107
1.00111
1.00118
1.00128
1.00141
1.00158
1.00178
1.00199
1.00217
1.00226
1.00207
1.00091
1
1
1
1
1.00941
1.05494
1
1
1
1.00001
1.00004
1.00007
1.00012
1.00018
1.00025
1.00033
1.00042
1.00052
1.00062
1.00072
1.00082
1.0009
1.00097
1.00102
1.00104
1.00105
)
;
    }
    frontAndBack
    {
        type            empty;
    }
}


// ************************************************************************* //
