/*--------------------------------*- C++ -*----------------------------------*\
| =========                 |                                                 |
| \\      /  F ield         | OpenFOAM: The Open Source CFD Toolbox           |
|  \\    /   O peration     | Version:  2312                                  |
|   \\  /    A nd           | Website:  www.openfoam.com                      |
|    \\/     M anipulation  |                                                 |
\*---------------------------------------------------------------------------*/
FoamFile
{
    version     2.0;
    format      ascii;
    arch        "LSB;label=32;scalar=64";
    class       volVectorField;
    location    "0.625";
    object      URandom;
}
// * * * * * * * * * * * * * * * * * * * * * * * * * * * * * * * * * * * * * //

dimensions      [0 1 -1 0 0 0 0];

internalField   nonuniform List<vector> 
400
(
(0.0908147 -0.00179661 -0.0415285)
(0.0699486 -0.0369803 -0.0600658)
(0.0120312 0.0490973 -0.0863566)
(-0.0777829 0.0301175 -0.0592215)
(-0.0719297 -0.0419979 0.0596178)
(-0.0933451 0.0193685 0.0426155)
(0.0343151 0.0196682 0.0895845)
(0.073373 0.0597364 0.00969639)
(-0.086265 0.0108647 0.060238)
(-0.0934409 0.0337496 -0.0388219)
(0.0100614 -0.0982869 0.000458146)
(0.0189002 -0.0681744 -0.0681063)
(-0.0637526 -0.0686069 -0.0466777)
(-0.0911515 0.0416892 0.0345147)
(0.0403445 -0.0881081 0.0116875)
(-0.0736876 -0.0674075 -0.029771)
(0.0473082 0.0281738 -0.0807197)
(-0.0368253 -0.0676322 0.0661037)
(-0.0759318 -0.0618899 0.0259411)
(-0.0620738 -0.0522318 0.0590508)
(0.038942 -0.0623861 0.0668531)
(0.051961 -0.0267181 0.079853)
(0.0367424 -0.0821266 0.0381731)
(0.0677553 0.0563692 -0.0438576)
(-0.0640202 0.0617885 -0.0534423)
(-0.0363232 -0.0297391 0.0899488)
(-0.0669826 0.0809721 0.00453629)
(0.0333624 0.0800263 -0.045759)
(-0.0634235 -0.0776002 -0.028332)
(-0.0670318 0.0818189 -0.0019737)
(-0.078191 -0.0185969 0.0697597)
(0.0127281 0.0234702 -0.0946911)
(0.021367 0.0927835 -0.0194262)
(-0.0395233 0.021186 -0.0924131)
(-0.0794746 -0.0650078 -0.0280459)
(-0.00778229 0.0976508 0.0102352)
(0.0927996 0.0179308 -0.00234655)
(-0.0120445 -0.0759128 0.0670657)
(0.00616092 -0.0679154 0.0747263)
(-0.00168937 0.0941342 -0.0299677)
(0.024296 -0.0414708 -0.0866909)
(0.0548285 0.0729734 0.042819)
(-0.0471621 -0.0762628 -0.0423353)
(0.0262398 0.0921325 0.0332439)
(-0.0339339 -0.0295507 0.090146)
(0.0861896 -0.0333791 0.0139653)
(-0.0684853 0.00251988 -0.0789441)
(-0.0654157 -0.0213439 0.0785039)
(-0.0863148 -0.0513088 0.0345514)
(0.0382903 -0.0853249 -0.0170183)
(-0.066049 0.0738567 -0.0377373)
(0.013475 -0.0874979 0.0428702)
(0.0248053 0.0803767 -0.0471265)
(-0.0749816 0.000694724 0.0751667)
(-0.0753206 -0.0263045 0.070226)
(0.0323006 0.0346565 -0.0837945)
(0.0300676 -0.066769 -0.0686192)
(0.0369132 -0.0409191 0.0832056)
(0.0646889 -0.0769958 0.00952383)
(-0.0268859 -0.0801865 0.0578014)
(-0.0750667 0.0245925 0.0631794)
(-0.0627992 -0.00509803 0.0787601)
(-0.0452962 0.0885645 -0.0322011)
(-0.048785 0.0213776 -0.0877762)
(0.0868601 0.0345533 0.0235414)
(0.0673886 -0.0390036 0.0523594)
(-0.021861 -0.0767695 -0.0583546)
(0.0106322 -0.0247687 0.0942565)
(0.0764633 -0.00815334 0.0505854)
(0.061093 -0.0654581 0.0222414)
(-0.0121177 0.0315703 0.0950957)
(0.0526056 -0.0340322 -0.0698711)
(0.00929043 -0.054197 0.082468)
(0.0291125 -0.0690444 -0.0632927)
(-0.0770109 -0.0242732 -0.0704129)
(-0.0331862 0.0921969 0.00859801)
(-0.099307 -0.0374758 -0.0190843)
(0.051728 0.0538758 -0.0571289)
(-0.0239381 -0.100401 0.0236179)
(-0.00205336 -0.102761 0.0192512)
(-0.0513446 0.0440802 0.0763587)
(-0.098455 -0.0211075 -0.00122472)
(0.0418796 0.0698499 0.0614815)
(-0.100672 -0.0147872 -0.0184048)
(-0.0857958 0.00661241 -0.0597651)
(0.00880786 -0.0891888 0.0309262)
(0.0784854 -0.0337715 -0.0331328)
(-0.057938 0.0702951 -0.0560849)
(-0.0752398 0.0775516 0.0118332)
(0.00715293 0.0614067 0.078503)
(0.0136583 0.0388363 0.089226)
(0.0767465 0.0406109 -0.0240495)
(0.00668018 0.0545849 0.0808986)
(0.0415329 0.0280415 -0.0792558)
(0.0302768 0.0645273 -0.0602214)
(-0.0855768 0.013671 0.0617809)
(0.0897821 0.00506646 -0.0186896)
(0.0146104 0.0564786 0.0741205)
(0.0555866 -0.0622128 -0.0594537)
(0.0590889 0.0216466 -0.0745373)
(-0.0465798 -0.0433881 -0.074353)
(0.0266179 0.083387 0.056789)
(-0.0911452 0.00864796 0.0477793)
(0.0654122 0.0439466 -0.0606385)
(-0.0197159 0.0490806 -0.0892772)
(0.0113821 -0.0307442 -0.0912036)
(-0.060401 0.0904396 -0.00665653)
(0.0260434 -0.00791785 0.0926114)
(0.0646943 0.0529985 0.0437129)
(0.0311212 0.0137429 0.0898214)
(-0.0891402 -0.0129298 -0.0621458)
(0.0208512 0.037915 0.0863376)
(0.0615868 -0.0604117 0.031217)
(-0.0206233 0.0959963 -0.0103555)
(-0.073157 0.0474649 -0.0593523)
(0.0139912 -0.0379969 0.0916898)
(0.0546557 -0.0745856 0.0394386)
(0.00742505 -0.08316 0.0664321)
(-0.0068318 -0.0736549 -0.0773226)
(0.069412 0.0393178 -0.0512589)
(0.031381 0.0842099 -0.0542116)
(0.09101 -0.0229591 0.0200098)
(-0.065643 0.0541977 -0.0631754)
(0.0752839 -0.0518447 0.00218348)
(0.0347202 -0.0281086 0.0839113)
(-0.0566182 0.0895465 -0.028475)
(0.079749 -0.032331 0.0245913)
(0.0352448 0.0934205 -0.0151481)
(-0.00549378 -0.0218712 0.0962014)
(0.022564 0.0684602 0.0675587)
(0.0787158 -0.00209196 0.0384858)
(-0.0596931 -0.0851811 -0.0237666)
(0.0710408 -0.0350429 -0.0387568)
(-0.0702063 0.0152393 0.0811638)
(-0.00137749 -0.0217875 0.0978469)
(0.0402516 -0.0927507 -0.000748011)
(0.027629 -0.102225 0.0103098)
(0.0251025 0.0414408 0.0770523)
(0.06198 -0.0366551 -0.0703625)
(0.0748673 0.0289983 -0.04939)
(0.0575847 0.0545958 0.066445)
(0.0631928 -0.051491 0.0452572)
(0.0010977 0.0656188 -0.0825285)
(0.0346939 -0.0516071 0.0685098)
(-0.0640177 -0.0562135 -0.0498725)
(0.0165826 0.0580308 -0.0831947)
(-0.0163941 -0.0824204 -0.0426004)
(0.00244033 -0.0852045 -0.0362688)
(-0.0361912 0.00572372 0.0971622)
(0.0584061 -0.0587169 0.0274835)
(0.0280285 0.033989 0.0848555)
(-0.00311543 -0.0605631 -0.0773699)
(-0.0914221 0.0199889 0.0635143)
(-0.0392664 0.0422646 -0.0862913)
(-0.0681357 -0.0875925 -0.0292302)
(0.0620425 -0.0715124 -0.00160806)
(-0.0844196 -0.0409457 0.0659887)
(-0.0363445 0.0804077 0.00596221)
(-0.0893592 -0.0503841 0.0455266)
(-0.0677416 0.0507853 -0.0356733)
(-0.0717883 0.0765599 0.0210946)
(0.0601221 0.0692743 0.0517247)
(-0.0700166 0.0297647 0.0727622)
(0.0631227 0.00941783 -0.0724991)
(-0.06012 0.0467989 -0.0768473)
(0.024345 -0.0595593 0.0636301)
(0.0625793 0.00129587 -0.0676869)
(-0.0293339 -0.0874059 -0.0227766)
(-0.0483442 -0.00290459 -0.0932319)
(0.0556391 0.0749189 -0.0157232)
(-0.0123239 0.0704995 0.0750669)
(-0.0697521 0.088402 0.00047712)
(-0.0884003 -0.00803263 -0.0722462)
(-0.00516841 0.082254 -0.0501178)
(0.0543436 -0.0521749 -0.046424)
(-0.0793865 0.0567125 0.044752)
(0.00311156 -0.0903363 0.0634209)
(0.0844932 -0.0268692 0.0112557)
(-0.0525663 0.0234516 -0.0767306)
(0.0280742 0.0334382 0.0786334)
(-0.0207634 0.05379 0.0881109)
(-0.0606695 0.0936914 0.00594933)
(0.0834107 -0.0295135 -0.0224676)
(-0.0498054 -0.0551826 -0.0591777)
(-0.0339726 0.107935 0.0128667)
(0.01191 0.096131 0.0489324)
(0.0627573 -0.0297745 -0.0532965)
(-0.0981101 -0.0232241 0.0408321)
(0.0259665 0.078618 -0.0591164)
(-0.0834042 0.0657853 -0.0467164)
(-0.0851481 -0.0178266 -0.070585)
(0.0436766 -0.0350981 0.065573)
(0.0342602 -0.0758093 -0.0263591)
(-0.0816661 -0.0286705 0.077807)
(-0.0173338 0.0367794 0.0898704)
(-0.0395315 0.0317956 -0.0890238)
(0.0500381 -0.0831305 0.0158541)
(-0.116197 -0.0418025 0.0226038)
(0.0710156 -0.0846404 -0.0210883)
(0.0123081 -0.118646 -0.0338405)
(0.0370397 -0.079836 0.00429423)
(-0.0629717 0.0417197 -0.0750695)
(0.0672851 -0.0301664 0.052832)
(-0.0566492 0.0667761 -0.0691305)
(-0.0131426 -0.0184313 -0.0944764)
(0.0626962 -0.0188617 0.060026)
(0.0517115 -0.0602465 -0.0243413)
(0.0133988 -0.0411353 0.0802653)
(0.0335195 0.0923113 0.030501)
(-0.0602359 -0.0518873 0.0663228)
(-0.0889478 0.0780119 -0.0213801)
(-0.00676451 -0.0721972 0.0589494)
(0.059887 0.0534791 0.014906)
(-0.0849564 0.0322948 -0.0773949)
(-0.0887726 0.00887866 -0.0824286)
(-0.0663109 0.0549641 -0.0681591)
(-0.0665688 -0.00786985 -0.0939453)
(0.0594818 -0.0234461 -0.0452482)
(-0.0673152 0.01647 -0.0611532)
(0.0572297 -0.039964 0.0810751)
(0.0763428 -0.00684032 -0.0595877)
(0.0426508 -0.0722623 0.00359207)
(-0.0659149 -0.0623225 0.008103)
(-0.0105898 0.0996116 -0.0555153)
(0.0207301 0.050562 -0.088843)
(-0.0797646 0.0489182 -0.064583)
(-0.0530301 0.0742706 0.0694494)
(-0.0845853 -0.0424417 0.0445608)
(-0.0561122 0.0185207 0.0917521)
(-0.0886252 0.0261262 -0.0703025)
(-0.029114 -0.0423459 0.0840433)
(0.0607408 -0.0321137 0.0298106)
(0.0224095 0.0745503 -0.0549779)
(-0.055124 0.0653282 0.077889)
(-0.0441389 -0.0634388 -0.076343)
(0.00943524 0.0210601 0.07497)
(-0.0297352 0.0600321 0.0456919)
(-0.0398884 0.0508471 0.0170807)
(0.0549194 -0.0866132 -0.0496963)
(0.0235853 -0.0911414 -0.0813293)
(-0.0781408 -0.0411875 0.0275923)
(0.0668122 0.0531651 0.0622268)
(-0.00238536 0.109286 -0.0429611)
(-0.0741882 -0.0544625 -0.0175027)
(0.0583942 0.0557587 -0.0621327)
(-0.00141095 0.111828 0.0300375)
(0.072353 0.00587223 -0.0498543)
(-0.073736 -0.0650077 0.0107543)
(-0.050214 -0.0311775 -0.0823729)
(-0.0526731 0.003597 -0.0936338)
(0.0432038 -0.0131432 0.0706773)
(-0.00195081 -0.0803589 0.0214179)
(0.0141012 0.0392721 0.085855)
(-0.06733 0.0971499 0.0471559)
(0.0185844 -0.0576809 -0.0224779)
(-0.0210126 0.0608911 0.0673623)
(-0.0554851 -0.0111714 0.0958524)
(-0.164727 -0.00879171 0.0161895)
(0.0300206 -0.0402366 -0.0172915)
(0.0312367 -0.137395 -0.0343705)
(-0.0518928 0.0744674 -0.0663022)
(-0.0515854 0.0517558 -0.082723)
(0.0661774 0.0894108 -0.00780053)
(0.0588405 0.0917456 -0.0185856)
(-0.0256217 -0.0486166 -0.0715098)
(-0.0893172 0.0221482 -0.0641425)
(0.0521838 0.0204072 0.0747606)
(-0.106469 0.0255491 0.0409564)
(0.0586672 0.070461 0.0370226)
(0.0730859 0.0474761 0.0244564)
(0.0113808 0.111369 0.0109224)
(-0.0141301 0.0294248 0.0989025)
(-0.116192 0.0680961 0.0177907)
(0.0379173 0.0219286 0.0655163)
(-0.0436693 0.122918 -0.0320773)
(-0.00576741 -0.0251895 0.0526232)
(-0.0853846 0.075005 -0.0481611)
(-0.0244607 -0.0330021 0.0446345)
(-0.0136649 -0.164956 0.06673)
(-0.10153 -0.0862585 -0.0745416)
(0.0651132 -0.0514397 -0.0111575)
(-0.0574779 -0.0260498 0.0686104)
(0.0740147 0.0527451 0.0497892)
(-0.0469145 0.0904149 0.0637236)
(0.054228 0.0872883 -0.0362495)
(0.0298891 -0.0411474 0.0662407)
(-0.0500387 -0.0602968 -0.049069)
(-0.0432147 0.0477742 0.0914402)
(-0.0544311 0.0707897 0.0760271)
(-0.0440243 0.103183 0.0461292)
(0.0408089 -0.0353303 0.0583342)
(-0.0725901 -0.0198807 -0.0742719)
(0.0407644 0.0733819 -0.0608991)
(0.00837163 0.0984177 -0.0682897)
(-0.11899 0.101716 -0.00713378)
(0.0226293 0.0214622 0.0616343)
(-0.0437671 -0.0167085 -0.0944004)
(-0.164775 -0.100046 -0.0476723)
(-0.153027 -0.120925 0.0414724)
(-0.0382936 -0.275187 -0.00847581)
(0.0289288 0.115347 0.0328597)
(0.0362304 0.0992712 -0.055741)
(-0.0294245 -0.00453041 0.0928273)
(-0.0683785 0.0745151 0.0646909)
(0.0819706 0.0497188 0.0207332)
(-0.101216 0.042293 0.0420591)
(-0.0247446 -0.0791833 0.00587075)
(0.0505318 0.0394422 -0.07357)
(-0.032422 -0.0773845 -0.0201272)
(0.0571736 -0.0227837 -0.0553473)
(-0.0665353 -0.0587708 0.0314698)
(-0.0796327 -0.0476917 0.0253558)
(-0.0675141 0.0398895 0.0840728)
(0.00243509 0.120114 0.0564531)
(-0.0512223 0.141255 0.00572339)
(0.0223123 0.0784234 -0.0905495)
(-0.0215206 0.0892652 -0.0703378)
(0.0313599 -0.0736012 -0.0877276)
(-0.0540608 -0.143386 0.096649)
(-0.00146262 -0.258559 -0.0916641)
(0.0547562 -0.015183 -0.0687419)
(0.0814186 0.0672108 -0.0241639)
(-0.0619198 -0.0569779 -0.0110481)
(-0.0828266 0.0198463 -0.069118)
(-0.0597365 -0.0597981 -0.027076)
(-0.0585103 -0.00910361 0.0827316)
(0.0124156 0.115699 0.0176644)
(0.0444255 -0.0226252 -0.0718684)
(0.0669625 0.0643736 0.0436451)
(0.067537 -0.00687163 0.057903)
(0.0358623 -0.053599 0.0510965)
(0.0355785 -0.0556335 -0.0461214)
(-0.0180445 0.126016 -0.00310715)
(-0.0720149 0.100268 0.000373853)
(-0.0599786 0.109663 0.0145446)
(0.083887 0.0850273 0.0701443)
(0.0234671 -0.0708856 -0.0450248)
(0.0264954 -0.0777786 0.0898661)
(-0.0358859 -0.0563511 -0.0674632)
(-0.0377063 -0.369998 0.0218948)
(0.0167217 0.137139 -0.0362429)
(0.0754375 0.019091 0.0497981)
(0.03794 -0.0324923 -0.057826)
(0.0515419 -0.0506262 -0.0102219)
(0.0783002 0.0590721 -0.0408544)
(-0.0489669 -0.037712 -0.0665135)
(-0.0372232 0.0622554 0.0847338)
(0.0783622 -0.0356256 0.0223397)
(-0.05216 0.0995699 0.0264579)
(0.051794 0.0543209 -0.0789346)
(0.0749112 -0.0122188 -0.0650797)
(0.0576214 0.0946036 -0.0443317)
(0.068993 -0.0617064 0.0127719)
(-0.0476602 -0.0371787 -0.0337328)
(0.0129304 0.00873235 0.0956621)
(-0.0178692 -0.0321197 -0.046893)
(-0.0275708 -0.0397751 -0.0304008)
(0.0794952 0.0184368 -0.0828654)
(0.0850386 -0.165525 0.0279268)
(-0.0678432 -0.336044 -0.0291251)
(-0.0488475 -0.0470658 0.0609739)
(-0.0298601 -0.0370963 0.0842212)
(0.0322523 -0.0255889 -0.0869614)
(0.0785486 0.0231709 -0.067932)
(0.0290287 -0.0399842 -0.0828431)
(0.0351017 -0.0317363 -0.08821)
(-0.062537 -0.0296191 -0.00636465)
(0.0352256 0.0448447 -0.0944625)
(0.0136606 0.0855533 -0.0618363)
(0.11146 0.0833224 0.0252689)
(0.0287619 -0.0546715 0.0710624)
(0.0650185 0.0795979 0.073151)
(0.0536597 0.0557284 0.0890921)
(0.0949491 -0.00484936 0.0964014)
(0.169473 -0.0192218 -0.0423493)
(0.163224 -0.0337104 0.0611307)
(0.068095 0.0744314 0.0615907)
(0.187319 -0.0754535 0.0476604)
(-0.0551709 -0.043182 0.0468934)
(0.10617 -0.17298 -0.0738433)
(0.0822931 0.144518 0.0746004)
(-0.000248433 0.0119981 -0.0514017)
(0.0234712 0.0220984 -0.0725404)
(0.175146 0.00156548 -0.0712521)
(0.112097 -0.0419338 0.0759319)
(0.216653 0.081451 0.00630887)
(0.101723 -0.0503665 -0.0572481)
(0.13963 0.073848 -0.0745208)
(0.0942879 0.035491 0.0545303)
(0.0961541 -0.0285761 0.0298635)
(0.162499 -0.0720705 -0.0513068)
(0.240094 0.084026 0.0519923)
(0.176266 -0.0547768 -0.0704514)
(0.165099 -0.0181912 0.0794284)
(0.26915 0.0100576 -0.0916547)
(0.266169 0.0817274 -0.0587342)
(0.18843 0.0539459 -0.0706607)
(0.357304 0.022055 -0.000365736)
(0.202996 -0.0278638 0.0680984)
(0.320077 -0.176792 -0.0096982)
)
;

boundaryField
{
    movingWall
    {
        type            fixedValue;
        value           uniform (1 0 0);
    }
    fixedWalls
    {
        type            noSlip;
    }
    frontAndBack
    {
        type            empty;
    }
}


// ************************************************************************* //
