/*--------------------------------*- C++ -*----------------------------------*\
| =========                 |                                                 |
| \\      /  F ield         | OpenFOAM: The Open Source CFD Toolbox           |
|  \\    /   O peration     | Version:  2312                                  |
|   \\  /    A nd           | Website:  www.openfoam.com                      |
|    \\/     M anipulation  |                                                 |
\*---------------------------------------------------------------------------*/
FoamFile
{
    version     2.0;
    format      ascii;
    arch        "LSB;label=32;scalar=64";
    class       volScalarField;
    location    "0.625";
    object      Ux;
}
// * * * * * * * * * * * * * * * * * * * * * * * * * * * * * * * * * * * * * //

dimensions      [0 1 -1 0 0 0 0];

internalField   nonuniform List<scalar> 
400
(
-0.000133949
-0.000711677
-0.00171984
-0.00279984
-0.0038676
-0.00486372
-0.00575601
-0.00652331
-0.00714639
-0.00760872
-0.00786561
-0.00791995
-0.00771595
-0.00723853
-0.00647021
-0.00541723
-0.0041226
-0.00268616
-0.00125845
-0.000302978
-0.000420617
-0.0013077
-0.00240457
-0.00354712
-0.00467553
-0.00574535
-0.00672003
-0.00756771
-0.00825989
-0.0087694
-0.00906476
-0.00911866
-0.00890122
-0.00839155
-0.00758176
-0.00648519
-0.005142
-0.0036299
-0.00206398
-0.000676145
-0.000597977
-0.00163344
-0.00276023
-0.00390798
-0.00503465
-0.00611032
-0.0071035
-0.00798126
-0.00871194
-0.00926466
-0.00960708
-0.00970756
-0.00953573
-0.00906697
-0.00828938
-0.00720843
-0.00585074
-0.00427608
-0.00258347
-0.000922741
-0.00066856
-0.00179789
-0.00298337
-0.00417231
-0.00532986
-0.00643589
-0.00746664
-0.008393
-0.00918422
-0.00980839
-0.0102312
-0.0104171
-0.010328
-0.00992815
-0.00919039
-0.00810045
-0.00666479
-0.00493367
-0.00301376
-0.00107952
-0.000694513
-0.00189441
-0.00315603
-0.00441555
-0.0056376
-0.00680621
-0.00790434
-0.00890851
-0.00979148
-0.0105223
-0.0110651
-0.0113798
-0.0114162
-0.011119
-0.0104358
-0.00932038
-0.00775033
-0.00577102
-0.00351539
-0.00123831
-0.000711837
-0.00197676
-0.00332624
-0.00467635
-0.0059883
-0.00724673
-0.00844015
-0.00955154
-0.0105593
-0.0114362
-0.0121471
-0.0126432
-0.0128633
-0.012729
-0.0121455
-0.0110168
-0.00927268
-0.00694563
-0.00420831
-0.00145481
-0.000735285
-0.00207175
-0.00352056
-0.00497652
-0.00639673
-0.00776537
-0.00907613
-0.0103199
-0.0114834
-0.0125468
-0.0134786
-0.0142282
-0.0147212
-0.0148479
-0.0144592
-0.0133778
-0.0114415
-0.00864069
-0.00519787
-0.00175785
-0.000770567
-0.00219246
-0.00375354
-0.0053279
-0.00686868
-0.00835981
-0.00980142
-0.0111946
-0.0125385
-0.0138266
-0.0150386
-0.0161298
-0.0170194
-0.0175663
-0.0175492
-0.0166602
-0.0145558
-0.011106
-0.00658302
-0.00214189
-0.00082019
-0.00234658
-0.00403475
-0.0057377
-0.00740476
-0.00902085
-0.0105947
-0.0121412
-0.0136776
-0.0152192
-0.0167691
-0.0183045
-0.0197542
-0.0209606
-0.0216217
-0.0212231
-0.0190605
-0.0146835
-0.00839991
-0.00250402
-0.000886777
-0.00254206
-0.0043744
-0.00621328
-0.00800418
-0.00973491
-0.0114259
-0.01311
-0.0148294
-0.0166315
-0.0185612
-0.020644
-0.0228509
-0.0250553
-0.0269055
-0.0275889
-0.0256791
-0.0198977
-0.0104979
-0.00235876
-0.000975779
-0.00279279
-0.00478874
-0.00676634
-0.00866749
-0.0104857
-0.0122567
-0.0140353
-0.015894
-0.0179229
-0.0202296
-0.022929
-0.0261057
-0.0297467
-0.0336126
-0.0366382
-0.0361099
-0.0287871
-0.0140903
-0.000716645
-0.00109911
-0.00312363
-0.00530409
-0.00741459
-0.00939612
-0.0112531
-0.0130399
-0.014835
-0.0167421
-0.0188991
-0.0214936
-0.0247781
-0.0290451
-0.0345955
-0.0417465
-0.0497879
-0.0544686
-0.0486801
-0.0275855
-0.000616852
-0.00128019
-0.00357897
-0.00595751
-0.00817688
-0.0101846
-0.0120046
-0.013713
-0.0154081
-0.0172171
-0.0193146
-0.0219637
-0.0255801
-0.030752
-0.0383025
-0.0500152
-0.0668559
-0.0822969
-0.0813911
-0.0556734
-0.0141548
-0.0015557
-0.00420513
-0.0067814
-0.00905314
-0.0109984
-0.0126744
-0.014181
-0.0156274
-0.0171434
-0.0189031
-0.021187
-0.0244976
-0.0295945
-0.0375709
-0.0519808
-0.0756937
-0.0973205
-0.100973
-0.0821597
-0.0369721
-0.00201282
-0.00510635
-0.00779035
-0.00998925
-0.0117286
-0.013115
-0.0142748
-0.0153123
-0.0163278
-0.017435
-0.0188086
-0.0207989
-0.023907
-0.0285933
-0.0368667
-0.0533382
-0.0713735
-0.078408
-0.0794873
-0.0466629
-0.00253093
-0.00612116
-0.00882697
-0.0107519
-0.0120766
-0.0129657
-0.0136136
-0.0141034
-0.0144549
-0.0146947
-0.0147623
-0.014658
-0.0143225
-0.0132515
-0.0111148
-0.00982786
-0.0131756
-0.0135728
-0.0410494
-0.0365049
-0.00399698
-0.00801133
-0.00982256
-0.0107748
-0.0112563
-0.0114569
-0.0113835
-0.0110982
-0.010601
-0.00979967
-0.00849903
-0.00635214
-0.00277136
0.0033382
0.0130517
0.0269492
0.0333391
0.0434865
0.00734731
-0.0166273
-0.00514342
-0.00829026
-0.00830001
-0.007561
-0.006692
-0.00548912
-0.00391605
-0.00209687
-5.92308e-05
0.0023271
0.00530649
0.00928389
0.0148307
0.0229339
0.0339689
0.0489199
0.0558442
0.0704949
0.0286231
0.00675307
-0.00612896
-0.00753676
-0.00096003
0.00583312
0.01361
0.0210121
0.0279297
0.0344015
0.0405679
0.0466131
0.0527539
0.0592708
0.0665272
0.0751794
0.0849349
0.097596
0.0994853
0.117848
0.0329204
0.0751305
0.0408172
0.0634067
0.088871
0.110596
0.12704
0.140578
0.152712
0.163861
0.174192
0.183893
0.193172
0.202241
0.211255
0.220567
0.229346
0.239574
0.238218
0.260194
0.136757
0.382939
)
;

boundaryField
{
    movingWall
    {
        type            calculated;
        value           uniform 1;
    }
    fixedWalls
    {
        type            calculated;
        value           uniform 0;
    }
    frontAndBack
    {
        type            empty;
    }
}


// ************************************************************************* //
