/*--------------------------------*- C++ -*----------------------------------*\
| =========                 |                                                 |
| \\      /  F ield         | OpenFOAM: The Open Source CFD Toolbox           |
|  \\    /   O peration     | Version:  2312                                  |
|   \\  /    A nd           | Website:  www.openfoam.com                      |
|    \\/     M anipulation  |                                                 |
\*---------------------------------------------------------------------------*/
FoamFile
{
    version     2.0;
    format      ascii;
    arch        "LSB;label=32;scalar=64";
    class       volScalarField;
    location    "0.625";
    object      Uy;
}
// * * * * * * * * * * * * * * * * * * * * * * * * * * * * * * * * * * * * * //

dimensions      [0 1 -1 0 0 0 0];

internalField   nonuniform List<scalar> 
400
(
0.000135632
0.000425859
0.00058498
0.000615928
0.000584521
0.000528295
0.000460879
0.00038522
0.000299313
0.00019824
9.20708e-05
-4.06038e-05
-0.000188459
-0.000350723
-0.000519377
-0.000677842
-0.000795077
-0.000812903
-0.000644946
-0.000295587
0.000711043
0.0013165
0.00160107
0.00166557
0.00160434
0.00147315
0.00129873
0.00109067
0.000848959
0.000568672
0.000248512
-0.000116261
-0.000524913
-0.000964064
-0.00140865
-0.00181553
-0.00211768
-0.00221486
-0.00197349
-0.0012645
0.00171461
0.00241438
0.00270679
0.0027683
0.00267559
0.00247766
0.0022018
0.00186016
0.00145478
0.000982111
0.000438629
-0.00017835
-0.000862379
-0.00159086
-0.00232267
-0.00299344
-0.00351335
-0.00376702
-0.00362198
-0.00282432
0.00283763
0.0036013
0.00387261
0.00391225
0.00378293
0.00352213
0.00315267
0.00268588
0.00212372
0.00146209
0.000695698
-0.000177198
-0.00114848
-0.00218741
-0.00324003
-0.00422287
-0.0050226
-0.00550215
-0.00551
-0.00463645
0.00403135
0.00486452
0.00510575
0.00511147
0.00493993
0.0046183
0.00416312
0.00358235
0.00287569
0.00203617
0.00105434
-7.53501e-05
-0.00134317
-0.00272058
-0.00414481
-0.00551448
-0.00668587
-0.00748042
-0.00769482
-0.00672283
0.0052715
0.00620307
0.00642078
0.00638907
0.00617214
0.0057917
0.0052589
0.00457757
0.00374324
0.00274328
0.00156045
0.000179936
-0.00139746
-0.00315233
-0.00502225
-0.00689087
-0.00857222
-0.00980969
-0.0102961
-0.0091634
0.00655915
0.00762527
0.00783313
0.00776657
0.00750445
0.00706874
0.00646804
0.0057028
0.00476346
0.00362926
0.00227072
0.000656504
-0.00123748
-0.00341246
-0.00582366
-0.00835098
-0.0107528
-0.0126364
-0.0134981
-0.0121019
0.0079084
0.0091436
0.00935583
0.00925892
0.00895344
0.00846746
0.00781116
0.00698371
0.00597096
0.00474254
0.00325204
0.00144115
-0.000751657
-0.00337429
-0.00643464
-0.00984147
-0.0132953
-0.0161711
-0.0175903
-0.0157286
0.00933975
0.0107745
0.0110016
0.0108763
0.0105276
0.00999593
0.00929807
0.00843579
0.00739293
0.00613019
0.00458145
0.00265287
0.000225546
-0.00282728
-0.00663265
-0.0112159
-0.0162675
-0.0207633
-0.023043
-0.0202437
0.0108786
0.0125384
0.012783
0.012624
0.0122262
0.0116496
0.0109236
0.0100584
0.00904107
0.00782851
0.00633813
0.00443735
0.00193076
-0.00144421
-0.00601894
-0.0121605
-0.0197621
-0.0271205
-0.0306884
-0.0256964
0.0125565
0.0144604
0.0147127
0.0145011
0.0140368
0.0134071
0.0126615
0.0118256
0.0108987
0.00984513
0.00858062
0.00694614
0.00466226
0.00128011
-0.00388468
-0.0119229
-0.0235715
-0.0361423
-0.0420739
-0.0316542
0.0144214
0.0165735
0.0168019
0.0164974
0.0159307
0.0152255
0.0144578
0.0136763
0.0129039
0.0121322
0.0113072
0.0102873
0.00874872
0.00606711
0.00110601
-0.00847158
-0.0254109
-0.0472904
-0.0597205
-0.0382283
0.0165282
0.0189172
0.0190557
0.0185865
0.0178576
0.0170358
0.0162259
0.0155044
0.0149301
0.0145479
0.0143873
0.0144194
0.0144303
0.0138809
0.0115205
0.00291947
-0.0208381
-0.0616407
-0.0887911
-0.0551858
0.019058
0.0215562
0.0214685
0.0207172
0.0197391
0.018739
0.0178445
0.0171573
0.0167759
0.0168184
0.0174535
0.0188978
0.0213581
0.0249541
0.0285678
0.0231955
-0.0118168
-0.0794096
-0.135706
-0.102868
0.021838
0.024446
0.0239532
0.02277
0.0214424
0.0201944
0.0191587
0.018446
0.0181777
0.0185361
0.019832
0.0225616
0.027459
0.0354089
0.0451042
0.0422024
0.00135951
-0.0836739
-0.174516
-0.175899
0.0262932
0.0278619
0.0264347
0.0245725
0.0227881
0.0212463
0.0200217
0.0192
0.0189071
0.0193069
0.0207855
0.0239698
0.0297692
0.0390767
0.0498296
0.050714
0.0186751
-0.0567219
-0.165515
-0.239331
0.0275092
0.0295492
0.0276614
0.0254355
0.0233677
0.0215797
0.020192
0.0192324
0.0187776
0.0189408
0.0200298
0.0225627
0.0272382
0.0345278
0.0429173
0.0421569
0.0178573
-0.0373387
-0.116181
-0.274728
0.0465385
0.0416699
0.0347239
0.0293885
0.0257969
0.0229974
0.0208935
0.0193951
0.0184189
0.0179567
0.0181097
0.0191173
0.0213799
0.0250994
0.0288854
0.0256753
0.00624357
-0.0368111
-0.0878241
-0.276151
0.0196973
0.0119796
0.010944
0.0132862
0.0138607
0.0132135
0.0125148
0.0120399
0.0117138
0.011515
0.0114687
0.0116574
0.0121736
0.0129252
0.0133335
0.0105166
0.00217325
-0.0215813
-0.0495795
-0.232844
0.0924165
0.0694949
0.0435638
0.0290687
0.0213991
0.0168541
0.0138418
0.0117229
0.0101562
0.00897371
0.00809665
0.00744951
0.00696772
0.006598
0.00617376
0.00528795
0.00366375
-0.00181052
0.00336298
-0.0996283
)
;

boundaryField
{
    movingWall
    {
        type            calculated;
        value           uniform 0;
    }
    fixedWalls
    {
        type            calculated;
        value           uniform 0;
    }
    frontAndBack
    {
        type            empty;
    }
}


// ************************************************************************* //
