/*--------------------------------*- C++ -*----------------------------------*\
| =========                 |                                                 |
| \\      /  F ield         | OpenFOAM: The Open Source CFD Toolbox           |
|  \\    /   O peration     | Version:  2312                                  |
|   \\  /    A nd           | Website:  www.openfoam.com                      |
|    \\/     M anipulation  |                                                 |
\*---------------------------------------------------------------------------*/
FoamFile
{
    version     2.0;
    format      ascii;
    arch        "LSB;label=32;scalar=64";
    class       volVectorField;
    location    "0.625";
    object      UzeroGrad;
}
// * * * * * * * * * * * * * * * * * * * * * * * * * * * * * * * * * * * * * //

dimensions      [0 1 -1 0 0 0 0];

internalField   nonuniform List<vector> 
400
(
(-0.000133949 0.000135632 0)
(-0.000711677 0.000425859 0)
(-0.00171984 0.00058498 0)
(-0.00279984 0.000615928 0)
(-0.0038676 0.000584521 0)
(-0.00486372 0.000528295 0)
(-0.00575601 0.000460879 0)
(-0.00652331 0.00038522 0)
(-0.00714639 0.000299313 0)
(-0.00760872 0.00019824 0)
(-0.00786561 9.20708e-05 0)
(-0.00791995 -4.06038e-05 0)
(-0.00771595 -0.000188459 0)
(-0.00723853 -0.000350723 0)
(-0.00647021 -0.000519377 0)
(-0.00541723 -0.000677842 0)
(-0.0041226 -0.000795077 0)
(-0.00268616 -0.000812903 0)
(-0.00125845 -0.000644946 0)
(-0.000302978 -0.000295587 0)
(-0.000420617 0.000711043 0)
(-0.0013077 0.0013165 0)
(-0.00240457 0.00160107 0)
(-0.00354712 0.00166557 0)
(-0.00467553 0.00160434 0)
(-0.00574535 0.00147315 0)
(-0.00672003 0.00129873 0)
(-0.00756771 0.00109067 0)
(-0.00825989 0.000848959 0)
(-0.0087694 0.000568672 0)
(-0.00906476 0.000248512 0)
(-0.00911866 -0.000116261 0)
(-0.00890122 -0.000524913 0)
(-0.00839155 -0.000964064 0)
(-0.00758176 -0.00140865 0)
(-0.00648519 -0.00181553 0)
(-0.005142 -0.00211768 0)
(-0.0036299 -0.00221486 0)
(-0.00206398 -0.00197349 0)
(-0.000676145 -0.0012645 0)
(-0.000597977 0.00171461 0)
(-0.00163344 0.00241438 0)
(-0.00276023 0.00270679 0)
(-0.00390798 0.0027683 0)
(-0.00503465 0.00267559 0)
(-0.00611032 0.00247766 0)
(-0.0071035 0.0022018 0)
(-0.00798126 0.00186016 0)
(-0.00871194 0.00145478 0)
(-0.00926466 0.000982111 0)
(-0.00960708 0.000438629 0)
(-0.00970756 -0.00017835 0)
(-0.00953573 -0.000862379 0)
(-0.00906697 -0.00159086 0)
(-0.00828938 -0.00232267 0)
(-0.00720843 -0.00299344 0)
(-0.00585074 -0.00351335 0)
(-0.00427608 -0.00376702 0)
(-0.00258347 -0.00362198 0)
(-0.000922741 -0.00282432 0)
(-0.00066856 0.00283763 0)
(-0.00179789 0.0036013 0)
(-0.00298337 0.00387261 0)
(-0.00417231 0.00391225 0)
(-0.00532986 0.00378293 0)
(-0.00643589 0.00352213 0)
(-0.00746664 0.00315267 0)
(-0.008393 0.00268588 0)
(-0.00918422 0.00212372 0)
(-0.00980839 0.00146209 0)
(-0.0102312 0.000695698 0)
(-0.0104171 -0.000177198 0)
(-0.010328 -0.00114848 0)
(-0.00992815 -0.00218741 0)
(-0.00919039 -0.00324003 0)
(-0.00810045 -0.00422287 0)
(-0.00666479 -0.0050226 0)
(-0.00493367 -0.00550215 0)
(-0.00301376 -0.00551 0)
(-0.00107952 -0.00463645 0)
(-0.000694513 0.00403135 0)
(-0.00189441 0.00486452 0)
(-0.00315603 0.00510575 0)
(-0.00441555 0.00511147 0)
(-0.0056376 0.00493993 0)
(-0.00680621 0.0046183 0)
(-0.00790434 0.00416312 0)
(-0.00890851 0.00358235 0)
(-0.00979148 0.00287569 0)
(-0.0105223 0.00203617 0)
(-0.0110651 0.00105434 0)
(-0.0113798 -7.53501e-05 0)
(-0.0114162 -0.00134317 0)
(-0.011119 -0.00272058 0)
(-0.0104358 -0.00414481 0)
(-0.00932038 -0.00551448 0)
(-0.00775033 -0.00668587 0)
(-0.00577102 -0.00748042 0)
(-0.00351539 -0.00769482 0)
(-0.00123831 -0.00672283 0)
(-0.000711837 0.0052715 0)
(-0.00197676 0.00620307 0)
(-0.00332624 0.00642078 0)
(-0.00467635 0.00638907 0)
(-0.0059883 0.00617214 0)
(-0.00724673 0.0057917 0)
(-0.00844015 0.0052589 0)
(-0.00955154 0.00457757 0)
(-0.0105593 0.00374324 0)
(-0.0114362 0.00274328 0)
(-0.0121471 0.00156045 0)
(-0.0126432 0.000179936 0)
(-0.0128633 -0.00139746 0)
(-0.012729 -0.00315233 0)
(-0.0121455 -0.00502225 0)
(-0.0110168 -0.00689087 0)
(-0.00927268 -0.00857222 0)
(-0.00694563 -0.00980969 0)
(-0.00420831 -0.0102961 0)
(-0.00145481 -0.0091634 0)
(-0.000735285 0.00655915 0)
(-0.00207175 0.00762527 0)
(-0.00352056 0.00783313 0)
(-0.00497652 0.00776657 0)
(-0.00639673 0.00750445 0)
(-0.00776537 0.00706874 0)
(-0.00907613 0.00646804 0)
(-0.0103199 0.0057028 0)
(-0.0114834 0.00476346 0)
(-0.0125468 0.00362926 0)
(-0.0134786 0.00227072 0)
(-0.0142282 0.000656504 0)
(-0.0147212 -0.00123748 0)
(-0.0148479 -0.00341246 0)
(-0.0144592 -0.00582366 0)
(-0.0133778 -0.00835098 0)
(-0.0114415 -0.0107528 0)
(-0.00864069 -0.0126364 0)
(-0.00519787 -0.0134981 0)
(-0.00175785 -0.0121019 0)
(-0.000770567 0.0079084 0)
(-0.00219246 0.0091436 0)
(-0.00375354 0.00935583 0)
(-0.0053279 0.00925892 0)
(-0.00686868 0.00895344 0)
(-0.00835981 0.00846746 0)
(-0.00980142 0.00781116 0)
(-0.0111946 0.00698371 0)
(-0.0125385 0.00597096 0)
(-0.0138266 0.00474254 0)
(-0.0150386 0.00325204 0)
(-0.0161298 0.00144115 0)
(-0.0170194 -0.000751657 0)
(-0.0175663 -0.00337429 0)
(-0.0175492 -0.00643464 0)
(-0.0166602 -0.00984147 0)
(-0.0145558 -0.0132953 0)
(-0.011106 -0.0161711 0)
(-0.00658302 -0.0175903 0)
(-0.00214189 -0.0157286 0)
(-0.00082019 0.00933975 0)
(-0.00234658 0.0107745 0)
(-0.00403475 0.0110016 0)
(-0.0057377 0.0108763 0)
(-0.00740476 0.0105276 0)
(-0.00902085 0.00999593 0)
(-0.0105947 0.00929807 0)
(-0.0121412 0.00843579 0)
(-0.0136776 0.00739293 0)
(-0.0152192 0.00613019 0)
(-0.0167691 0.00458145 0)
(-0.0183045 0.00265287 0)
(-0.0197542 0.000225546 0)
(-0.0209606 -0.00282728 0)
(-0.0216217 -0.00663265 0)
(-0.0212231 -0.0112159 0)
(-0.0190605 -0.0162675 0)
(-0.0146835 -0.0207633 0)
(-0.00839991 -0.023043 0)
(-0.00250402 -0.0202437 0)
(-0.000886777 0.0108786 0)
(-0.00254206 0.0125384 0)
(-0.0043744 0.012783 0)
(-0.00621328 0.012624 0)
(-0.00800418 0.0122262 0)
(-0.00973491 0.0116496 0)
(-0.0114259 0.0109236 0)
(-0.01311 0.0100584 0)
(-0.0148294 0.00904107 0)
(-0.0166315 0.00782851 0)
(-0.0185612 0.00633813 0)
(-0.020644 0.00443735 0)
(-0.0228509 0.00193076 0)
(-0.0250553 -0.00144421 0)
(-0.0269055 -0.00601894 0)
(-0.0275889 -0.0121605 0)
(-0.0256791 -0.0197621 0)
(-0.0198977 -0.0271205 0)
(-0.0104979 -0.0306884 0)
(-0.00235876 -0.0256964 0)
(-0.000975779 0.0125565 0)
(-0.00279279 0.0144604 0)
(-0.00478874 0.0147127 0)
(-0.00676634 0.0145011 0)
(-0.00866749 0.0140368 0)
(-0.0104857 0.0134071 0)
(-0.0122567 0.0126615 0)
(-0.0140353 0.0118256 0)
(-0.015894 0.0108987 0)
(-0.0179229 0.00984513 0)
(-0.0202296 0.00858062 0)
(-0.022929 0.00694614 0)
(-0.0261057 0.00466226 0)
(-0.0297467 0.00128011 0)
(-0.0336126 -0.00388468 0)
(-0.0366382 -0.0119229 0)
(-0.0361099 -0.0235715 0)
(-0.0287871 -0.0361423 0)
(-0.0140903 -0.0420739 0)
(-0.000716645 -0.0316542 0)
(-0.00109911 0.0144214 0)
(-0.00312363 0.0165735 0)
(-0.00530409 0.0168019 0)
(-0.00741459 0.0164974 0)
(-0.00939612 0.0159307 0)
(-0.0112531 0.0152255 0)
(-0.0130399 0.0144578 0)
(-0.014835 0.0136763 0)
(-0.0167421 0.0129039 0)
(-0.0188991 0.0121322 0)
(-0.0214936 0.0113072 0)
(-0.0247781 0.0102873 0)
(-0.0290451 0.00874872 0)
(-0.0345955 0.00606711 0)
(-0.0417465 0.00110601 0)
(-0.0497879 -0.00847158 0)
(-0.0544686 -0.0254109 0)
(-0.0486801 -0.0472904 0)
(-0.0275855 -0.0597205 0)
(-0.000616852 -0.0382283 0)
(-0.00128019 0.0165282 0)
(-0.00357897 0.0189172 0)
(-0.00595751 0.0190557 0)
(-0.00817688 0.0185865 0)
(-0.0101846 0.0178576 0)
(-0.0120046 0.0170358 0)
(-0.013713 0.0162259 0)
(-0.0154081 0.0155044 0)
(-0.0172171 0.0149301 0)
(-0.0193146 0.0145479 0)
(-0.0219637 0.0143873 0)
(-0.0255801 0.0144194 0)
(-0.030752 0.0144303 0)
(-0.0383025 0.0138809 0)
(-0.0500152 0.0115205 0)
(-0.0668559 0.00291947 0)
(-0.0822969 -0.0208381 0)
(-0.0813911 -0.0616407 0)
(-0.0556734 -0.0887911 0)
(-0.0141548 -0.0551858 0)
(-0.0015557 0.019058 0)
(-0.00420513 0.0215562 0)
(-0.0067814 0.0214685 0)
(-0.00905314 0.0207172 0)
(-0.0109984 0.0197391 0)
(-0.0126744 0.018739 0)
(-0.014181 0.0178445 0)
(-0.0156274 0.0171573 0)
(-0.0171434 0.0167759 0)
(-0.0189031 0.0168184 0)
(-0.021187 0.0174535 0)
(-0.0244976 0.0188978 0)
(-0.0295945 0.0213581 0)
(-0.0375709 0.0249541 0)
(-0.0519808 0.0285678 0)
(-0.0756937 0.0231955 0)
(-0.0973205 -0.0118168 0)
(-0.100973 -0.0794096 0)
(-0.0821597 -0.135706 0)
(-0.0369721 -0.102868 0)
(-0.00201282 0.021838 0)
(-0.00510635 0.024446 0)
(-0.00779035 0.0239532 0)
(-0.00998925 0.02277 0)
(-0.0117286 0.0214424 0)
(-0.013115 0.0201944 0)
(-0.0142748 0.0191587 0)
(-0.0153123 0.018446 0)
(-0.0163278 0.0181777 0)
(-0.017435 0.0185361 0)
(-0.0188086 0.019832 0)
(-0.0207989 0.0225616 0)
(-0.023907 0.027459 0)
(-0.0285933 0.0354089 0)
(-0.0368667 0.0451042 0)
(-0.0533382 0.0422024 0)
(-0.0713735 0.00135951 0)
(-0.078408 -0.0836739 0)
(-0.0794873 -0.174516 0)
(-0.0466629 -0.175899 0)
(-0.00253093 0.0262932 0)
(-0.00612116 0.0278619 0)
(-0.00882697 0.0264347 0)
(-0.0107519 0.0245725 0)
(-0.0120766 0.0227881 0)
(-0.0129657 0.0212463 0)
(-0.0136136 0.0200217 0)
(-0.0141034 0.0192 0)
(-0.0144549 0.0189071 0)
(-0.0146947 0.0193069 0)
(-0.0147623 0.0207855 0)
(-0.014658 0.0239698 0)
(-0.0143225 0.0297692 0)
(-0.0132515 0.0390767 0)
(-0.0111148 0.0498296 0)
(-0.00982786 0.050714 0)
(-0.0131756 0.0186751 0)
(-0.0135728 -0.0567219 0)
(-0.0410494 -0.165515 0)
(-0.0365049 -0.239331 0)
(-0.00399698 0.0275092 0)
(-0.00801133 0.0295492 0)
(-0.00982256 0.0276614 0)
(-0.0107748 0.0254355 0)
(-0.0112563 0.0233677 0)
(-0.0114569 0.0215797 0)
(-0.0113835 0.020192 0)
(-0.0110982 0.0192324 0)
(-0.010601 0.0187776 0)
(-0.00979967 0.0189408 0)
(-0.00849903 0.0200298 0)
(-0.00635214 0.0225627 0)
(-0.00277136 0.0272382 0)
(0.0033382 0.0345278 0)
(0.0130517 0.0429173 0)
(0.0269492 0.0421569 0)
(0.0333391 0.0178573 0)
(0.0434865 -0.0373387 0)
(0.00734731 -0.116181 0)
(-0.0166273 -0.274728 0)
(-0.00514342 0.0465385 0)
(-0.00829026 0.0416699 0)
(-0.00830001 0.0347239 0)
(-0.007561 0.0293885 0)
(-0.006692 0.0257969 0)
(-0.00548912 0.0229974 0)
(-0.00391605 0.0208935 0)
(-0.00209687 0.0193951 0)
(-5.92308e-05 0.0184189 0)
(0.0023271 0.0179567 0)
(0.00530649 0.0181097 0)
(0.00928389 0.0191173 0)
(0.0148307 0.0213799 0)
(0.0229339 0.0250994 0)
(0.0339689 0.0288854 0)
(0.0489199 0.0256753 0)
(0.0558442 0.00624357 0)
(0.0704949 -0.0368111 0)
(0.0286231 -0.0878241 0)
(0.00675307 -0.276151 0)
(-0.00612896 0.0196973 0)
(-0.00753676 0.0119796 0)
(-0.00096003 0.010944 0)
(0.00583312 0.0132862 0)
(0.01361 0.0138607 0)
(0.0210121 0.0132135 0)
(0.0279297 0.0125148 0)
(0.0344015 0.0120399 0)
(0.0405679 0.0117138 0)
(0.0466131 0.011515 0)
(0.0527539 0.0114687 0)
(0.0592708 0.0116574 0)
(0.0665272 0.0121736 0)
(0.0751794 0.0129252 0)
(0.0849349 0.0133335 0)
(0.097596 0.0105166 0)
(0.0994853 0.00217325 0)
(0.117848 -0.0215813 0)
(0.0329204 -0.0495795 0)
(0.0751305 -0.232844 0)
(0.0408172 0.0924165 0)
(0.0634067 0.0694949 0)
(0.088871 0.0435638 0)
(0.110596 0.0290687 0)
(0.12704 0.0213991 0)
(0.140578 0.0168541 0)
(0.152712 0.0138418 0)
(0.163861 0.0117229 0)
(0.174192 0.0101562 0)
(0.183893 0.00897371 0)
(0.193172 0.00809665 0)
(0.202241 0.00744951 0)
(0.211255 0.00696772 0)
(0.220567 0.006598 0)
(0.229346 0.00617376 0)
(0.239574 0.00528795 0)
(0.238218 0.00366375 0)
(0.260194 -0.00181052 0)
(0.136757 0.00336298 0)
(0.382939 -0.0996283 0)
)
;

boundaryField
{
    movingWall
    {
        type            zeroGradient;
    }
    fixedWalls
    {
        type            zeroGradient;
    }
    frontAndBack
    {
        type            empty;
    }
}


// ************************************************************************* //
