/*--------------------------------*- C++ -*----------------------------------*\
| =========                 |                                                 |
| \\      /  F ield         | OpenFOAM: The Open Source CFD Toolbox           |
|  \\    /   O peration     | Version:  2312                                  |
|   \\  /    A nd           | Website:  www.openfoam.com                      |
|    \\/     M anipulation  |                                                 |
\*---------------------------------------------------------------------------*/
FoamFile
{
    version     2.0;
    format      ascii;
    arch        "LSB;label=32;scalar=64";
    class       volVectorField;
    location    "0.625";
    object      vorticityField;
}
// * * * * * * * * * * * * * * * * * * * * * * * * * * * * * * * * * * * * * //

dimensions      [0 0 -1 0 0 0 0];

internalField   nonuniform List<vector> 
400
(
(0 -0 0.111606)
(0 -0 0.246872)
(0 -0 0.431448)
(0 -0 0.63465)
(0 -0 0.845549)
(0 -0 1.04854)
(0 -0 1.2333)
(0 -0 1.39294)
(0 -0 1.52193)
(0 -0 1.61709)
(0 -0 1.66915)
(0 -0 1.67581)
(0 -0 1.6307)
(0 -0 1.52992)
(0 -0 1.37248)
(0 -0 1.16267)
(0 -0 0.912954)
(0 -0 0.646619)
(0 -0 0.383974)
(0 -0 0.191966)
(0 -0 0.249158)
(0 -0 0.181179)
(0 -0 0.138945)
(0 -0 0.11114)
(0 -0 0.0974636)
(0 -0 0.0940998)
(0 -0 0.0965009)
(0 -0 0.100818)
(0 -0 0.104355)
(0 -0 0.10555)
(0 -0 0.105653)
(0 -0 0.101418)
(0 -0 0.0971978)
(0 -0 0.0944705)
(0 -0 0.09677)
(0 -0 0.108217)
(0 -0 0.132882)
(0 -0 0.173412)
(0 -0 0.227538)
(0 -0 0.385775)
(0 -0 0.437694)
(0 -0 0.148237)
(0 -0 0.0932715)
(0 -0 0.059399)
(0 -0 0.0363689)
(0 -0 0.0216745)
(0 -0 0.0129109)
(0 -0 0.00782792)
(0 -0 0.00462749)
(0 -0 0.00228491)
(0 -0 0.000602201)
(0 -0 -0.000255935)
(0 -0 0.00143014)
(0 -0 0.00763207)
(0 -0 0.0206052)
(0 -0 0.0424574)
(0 -0 0.0749207)
(0 -0 0.119515)
(0 -0 0.189248)
(0 -0 0.684967)
(0 -0 0.653546)
(0 -0 0.129595)
(0 -0 0.0706753)
(0 -0 0.0417897)
(0 -0 0.021283)
(0 -0 0.00656176)
(0 -0 -0.00354043)
(0 -0 -0.0101697)
(0 -0 -0.0144251)
(0 -0 -0.0170336)
(0 -0 -0.0181256)
(0 -0 -0.01719)
(0 -0 -0.0129696)
(0 -0 -0.00395515)
(0 -0 0.0111003)
(0 -0 0.0329376)
(0 -0 0.0620302)
(0 -0 0.100754)
(0 -0 0.179763)
(0 -0 1.0462)
(0 -0 0.893915)
(0 -0 0.125326)
(0 -0 0.0589826)
(0 -0 0.0338221)
(0 -0 0.0165271)
(0 -0 0.00340335)
(0 -0 -0.00624383)
(0 -0 -0.0128895)
(0 -0 -0.0171116)
(0 -0 -0.0193527)
(0 -0 -0.0195655)
(0 -0 -0.0171386)
(0 -0 -0.0109918)
(0 -0 -8.42508e-05)
(0 -0 0.0161193)
(0 -0 0.037529)
(0 -0 0.0641956)
(0 -0 0.100301)
(0 -0 0.195213)
(0 -0 1.47929)
(0 -0 1.15153)
(0 -0 0.132662)
(0 -0 0.0550523)
(0 -0 0.0312336)
(0 -0 0.0161771)
(0 -0 0.00459163)
(0 -0 -0.00423488)
(0 -0 -0.01043)
(0 -0 -0.0142387)
(0 -0 -0.0158374)
(0 -0 -0.0149819)
(0 -0 -0.0109574)
(0 -0 -0.00273613)
(0 -0 0.0104177)
(0 -0 0.0284862)
(0 -0 0.0507481)
(0 -0 0.0772403)
(0 -0 0.114576)
(0 -0 0.232877)
(0 -0 1.99791)
(0 -0 1.42432)
(0 -0 0.148968)
(0 -0 0.0568601)
(0 -0 0.0322856)
(0 -0 0.0182547)
(0 -0 0.00766695)
(0 -0 -0.000466519)
(0 -0 -0.00615423)
(0 -0 -0.00943549)
(0 -0 -0.0102389)
(0 -0 -0.00812667)
(0 -0 -0.00216875)
(0 -0 0.00871091)
(0 -0 0.0251207)
(0 -0 0.0465143)
(0 -0 0.0714243)
(0 -0 0.0997734)
(0 -0 0.141512)
(0 -0 0.290919)
(0 -0 2.6287)
(0 -0 1.71369)
(0 -0 0.172225)
(0 -0 0.0629516)
(0 -0 0.0358794)
(0 -0 0.021657)
(0 -0 0.0113205)
(0 -0 0.00348313)
(0 -0 -0.00188913)
(0 -0 -0.00468916)
(0 -0 -0.00465088)
(0 -0 -0.00109061)
(0 -0 0.00726495)
(0 -0 0.0217568)
(0 -0 0.0429645)
(0 -0 0.0695252)
(0 -0 0.0984529)
(0 -0 0.128932)
(0 -0 0.174783)
(0 -0 0.364453)
(0 -0 3.40651)
(0 -0 2.02305)
(0 -0 0.201141)
(0 -0 0.07226)
(0 -0 0.0411433)
(0 -0 0.0255162)
(0 -0 0.0145581)
(0 -0 0.0064308)
(0 -0 0.00102583)
(0 -0 -0.00147025)
(0 -0 -0.000654573)
(0 -0 0.00452996)
(0 -0 0.0158333)
(0 -0 0.0351367)
(0 -0 0.0630716)
(0 -0 0.0967792)
(0 -0 0.129394)
(0 -0 0.157592)
(0 -0 0.201618)
(0 -0 0.443444)
(0 -0 4.35036)
(0 -0 2.35726)
(0 -0 0.235061)
(0 -0 0.0839551)
(0 -0 0.0471899)
(0 -0 0.028836)
(0 -0 0.0162292)
(0 -0 0.00707647)
(0 -0 0.00115519)
(0 -0 -0.0013555)
(0 -0 7.52027e-05)
(0 -0 0.0069372)
(0 -0 0.02171)
(0 -0 0.0469938)
(0 -0 0.0836399)
(0 -0 0.127463)
(0 -0 0.1672)
(0 -0 0.208952)
(0 -0 0.317731)
(0 -0 0.711441)
(0 -0 5.45975)
(0 -0 2.72292)
(0 -0 0.273771)
(0 -0 0.0970431)
(0 -0 0.0525416)
(0 -0 0.0297893)
(0 -0 0.0142853)
(0 -0 0.00325805)
(0 -0 -0.00377212)
(0 -0 -0.0067771)
(0 -0 -0.0050545)
(0 -0 0.00334217)
(0 -0 0.0215705)
(0 -0 0.0528175)
(0 -0 0.0993299)
(0 -0 0.163796)
(0 -0 0.251216)
(0 -0 0.45701)
(0 -0 1.02799)
(0 -0 2.15757)
(0 -0 7.19863)
(0 -0 3.12993)
(0 -0 0.316675)
(0 -0 0.109264)
(0 -0 0.0539272)
(0 -0 0.0245141)
(0 -0 0.00459713)
(0 -0 -0.00929096)
(0 -0 -0.0181102)
(0 -0 -0.0221002)
(0 -0 -0.020495)
(0 -0 -0.0110817)
(0 -0 0.00926576)
(0 -0 0.0426113)
(0 -0 0.0913097)
(0 -0 0.186382)
(0 -0 0.370078)
(0 -0 0.736813)
(0 -0 1.82943)
(0 -0 5.06452)
(0 -0 11.1387)
(0 -0 3.5902)
(0 -0 0.3609)
(0 -0 0.114661)
(0 -0 0.0440475)
(0 -0 0.00515204)
(0 -0 -0.0210381)
(0 -0 -0.0390219)
(0 -0 -0.0503291)
(0 -0 -0.0555313)
(0 -0 -0.0538809)
(0 -0 -0.0435167)
(0 -0 -0.023731)
(0 -0 0.00108642)
(0 -0 0.00655644)
(0 -0 -0.0727137)
(0 -0 -0.645283)
(0 -0 -2.17082)
(0 -0 -1.56604)
(0 -0 6.1029)
(0 -0 18.0332)
(0 -0 4.13469)
(0 -0 0.393783)
(0 -0 0.0993785)
(0 -0 0.00829959)
(0 -0 -0.0434087)
(0 -0 -0.0784214)
(0 -0 -0.101985)
(0 -0 -0.116439)
(0 -0 -0.122822)
(0 -0 -0.120207)
(0 -0 -0.107557)
(0 -0 -0.087654)
(0 -0 -0.0788733)
(0 -0 -0.249945)
(0 -0 -1.4907)
(0 -0 -5.39023)
(0 -0 -11.3529)
(0 -0 -12.6872)
(0 -0 0.0355743)
(0 -0 27.1081)
(0 -0 4.72592)
(0 -0 0.403128)
(0 -0 0.0369566)
(0 -0 -0.0812141)
(0 -0 -0.149727)
(0 -0 -0.199234)
(0 -0 -0.231593)
(0 -0 -0.250502)
(0 -0 -0.259825)
(0 -0 -0.255414)
(0 -0 -0.239913)
(0 -0 -0.221259)
(0 -0 -0.242476)
(0 -0 -0.66742)
(0 -0 -3.40725)
(0 -0 -10.9611)
(0 -0 -21.0021)
(0 -0 -26.3275)
(0 -0 -13.3335)
(0 -0 34.9948)
(0 -0 5.61393)
(0 -0 0.304649)
(0 -0 -0.125713)
(0 -0 -0.286109)
(0 -0 -0.379863)
(0 -0 -0.442449)
(0 -0 -0.493763)
(0 -0 -0.532873)
(0 -0 -0.561986)
(0 -0 -0.575701)
(0 -0 -0.564665)
(0 -0 -0.546305)
(0 -0 -0.602875)
(0 -0 -1.18711)
(0 -0 -3.82812)
(0 -0 -11.1442)
(0 -0 -21.2148)
(0 -0 -30.6085)
(0 -0 -26.9443)
(0 -0 37.481)
(0 -0 5.96709)
(0 -0 0.232138)
(0 -0 -0.464068)
(0 -0 -0.748456)
(0 -0 -0.924045)
(0 -0 -1.06524)
(0 -0 -1.20448)
(0 -0 -1.34209)
(0 -0 -1.46873)
(0 -0 -1.57696)
(0 -0 -1.64469)
(0 -0 -1.67336)
(0 -0 -1.7188)
(0 -0 -2.05063)
(0 -0 -3.74546)
(0 -0 -8.38077)
(0 -0 -14.8515)
(0 -0 -21.8106)
(0 -0 -30.7062)
(0 -0 34.7651)
(0 -0 9.03404)
(0 -0 -1.22892)
(0 -0 -2.11439)
(0 -0 -2.55348)
(0 -0 -3.12574)
(0 -0 -3.73724)
(0 -0 -4.29155)
(0 -0 -4.79743)
(0 -0 -5.26073)
(0 -0 -5.6722)
(0 -0 -6.00924)
(0 -0 -6.23527)
(0 -0 -6.33164)
(0 -0 -6.43356)
(0 -0 -7.13074)
(0 -0 -9.32886)
(0 -0 -12.8633)
(0 -0 -16.8429)
(0 -0 -26.4913)
(0 -0 27.2218)
(0 -0 -1.42836)
(0 -0 -8.04503)
(0 -0 -9.58644)
(0 -0 -11.524)
(0 -0 -13.3805)
(0 -0 -14.7413)
(0 -0 -15.7802)
(0 -0 -16.6759)
(0 -0 -17.4776)
(0 -0 -18.1811)
(0 -0 -18.7724)
(0 -0 -19.2253)
(0 -0 -19.5156)
(0 -0 -19.6473)
(0 -0 -19.7786)
(0 -0 -20.1814)
(0 -0 -21.4471)
(0 -0 -24.1452)
(0 -0 -31.9397)
(0 -0 -9.3763)
(0 -0 -180.34)
(0 -0 -199.298)
(0 -0 -195.252)
(0 -0 -190.574)
(0 -0 -187.156)
(0 -0 -184.597)
(0 -0 -182.449)
(0 -0 -180.542)
(0 -0 -178.799)
(0 -0 -177.155)
(0 -0 -175.56)
(0 -0 -173.962)
(0 -0 -172.307)
(0 -0 -170.505)
(0 -0 -168.703)
(0 -0 -166.534)
(0 -0 -166.94)
(0 -0 -162.226)
(0 -0 -192.814)
(0 -0 -144.567)
)
;

boundaryField
{
    movingWall
    {
        type            calculated;
        value           nonuniform List<vector> 
20
(
(0 -0 -367.482)
(0 -0 -379.523)
(0 -0 -368.494)
(0 -0 -357.978)
(0 -0 -350.405)
(0 -0 -344.525)
(0 -0 -339.428)
(0 -0 -334.824)
(0 -0 -330.598)
(0 -0 -326.649)
(0 -0 -322.883)
(0 -0 -319.216)
(0 -0 -315.583)
(0 -0 -311.853)
(0 -0 -308.393)
(0 -0 -304.422)
(0 -0 -305.423)
(0 -0 -295.952)
(0 -0 -355.079)
(0 -0 -237.198)
)
;
    }
    fixedWalls
    {
        type            calculated;
        value           nonuniform List<vector> 
60
(
(0 -0 0.109709)
(0 -0 0.33082)
(0 -0 0.71064)
(0 -0 1.14471)
(0 -0 1.61687)
(0 -0 2.11268)
(0 -0 2.62953)
(0 -0 3.17185)
(0 -0 3.74752)
(0 -0 4.36699)
(0 -0 5.04384)
(0 -0 5.79898)
(0 -0 6.65692)
(0 -0 7.69648)
(0 -0 8.83271)
(0 -0 10.7157)
(0 -0 11.2649)
(0 -0 18.8286)
(0 -0 3.28286)
(0 -0 -159.565)
(0 -0 0.216147)
(0 -0 0.567777)
(0 -0 1.17007)
(0 -0 1.88614)
(0 -0 2.72666)
(0 -0 3.71731)
(0 -0 4.90946)
(0 -0 6.36606)
(0 -0 8.11917)
(0 -0 10.0998)
(0 -0 12.4875)
(0 -0 16.6351)
(0 -0 25.7099)
(0 -0 44.3979)
(0 -0 70.3129)
(0 -0 92.7287)
(0 -0 105.565)
(0 -0 101.285)
(0 -0 55.5188)
(0 -0 -114.342)
(0 -0 0.109729)
(0 -0 0.329606)
(0 -0 0.706944)
(0 -0 1.11989)
(0 -0 1.53828)
(0 -0 1.93312)
(0 -0 2.28809)
(0 -0 2.59317)
(0 -0 2.83986)
(0 -0 3.02276)
(0 -0 3.12236)
(0 -0 3.13993)
(0 -0 3.05537)
(0 -0 2.86232)
(0 -0 2.55537)
(0 -0 2.13932)
(0 -0 1.63553)
(0 -0 1.08948)
(0 -0 0.555111)
(0 -0 0.215245)
)
;
    }
    frontAndBack
    {
        type            empty;
    }
}


// ************************************************************************* //
