/*--------------------------------*- C++ -*----------------------------------*\
| =========                 |                                                 |
| \\      /  F ield         | OpenFOAM: The Open Source CFD Toolbox           |
|  \\    /   O peration     | Version:  2312                                  |
|   \\  /    A nd           | Website:  www.openfoam.com                      |
|    \\/     M anipulation  |                                                 |
\*---------------------------------------------------------------------------*/
FoamFile
{
    version     2.0;
    format      ascii;
    arch        "LSB;label=32;scalar=64";
    class       volScalarField;
    location    "0.625";
    object      zeroGradient(p);
}
// * * * * * * * * * * * * * * * * * * * * * * * * * * * * * * * * * * * * * //

dimensions      [0 2 -2 0 0 0 0];

internalField   nonuniform List<scalar> 
400
(
2.88644e-08
0
0
1.28201e-05
3.75536e-05
7.3896e-05
0.000121962
0.00018158
0.000252304
0.000333235
0.000423286
0.000520499
0.000621643
0.000722824
0.000818963
0.00090421
0.000972649
0.00101966
0.00104384
0.00104557
4.67986e-06
0
4.25679e-06
1.95288e-05
4.48646e-05
8.06969e-05
0.000127373
0.000184966
0.000253242
0.000331592
0.00041903
0.000513575
0.000612526
0.000712149
0.000807745
0.000893929
0.000965207
0.00101648
0.00104378
0.00104603
0
0
0
1.04274e-05
3.62222e-05
7.19253e-05
0.000117938
0.000174569
0.000241882
0.000319594
0.000406958
0.000502372
0.000603431
0.000706635
0.000807407
0.00090025
0.00097905
0.00103687
0.00106665
0.00106712
0
0
0
0
9.91325e-06
4.53253e-05
9.11276e-05
0.000147772
0.000215642
0.00029488
0.000385175
0.000485418
0.000593572
0.000706289
0.000818733
0.000924479
0.00101551
0.00108183
0.00111361
0.00111069
0
0
0
0
0
2.45562e-06
4.78499e-05
0.000104765
0.000173945
0.000256069
0.000351432
0.000459584
0.000579109
0.000706804
0.000837354
0.000962791
0.0010721
0.001151
0.00118679
0.00118059
0
0
0
0
0
0
0
4.5097e-05
0.000115398
0.000200695
0.000302189
0.00042049
0.000554791
0.000702729
0.000858545
0.00101228
0.00114862
0.00124689
0.00129008
0.00128027
0
0
0
0
0
0
0
0
3.74691e-05
0.000125028
0.000232341
0.000361469
0.000513261
0.000686621
0.000875997
0.00106949
0.00124577
0.00137382
0.00142886
0.00141291
0
0
0
0
0
0
0
0
0
2.42573e-05
0.000135253
0.000274073
0.000444015
0.000647015
0.000879136
0.00112764
0.00136338
0.0015375
0.00161006
0.00158003
0
0
0
0
0
0
0
0
0
0
2.58133e-06
0.000146787
0.000332801
0.000565932
0.000849332
0.00117227
0.00149707
0.00174403
0.00184187
0.00177726
0
0
0
0
0
0
0
0
0
0
0
0
0.000157745
0.000415241
0.000753699
0.00117301
0.00163458
0.00200227
0.00213251
0.00198697
0
0
0
0
0
0
0
0
0
0
0
0
0
0.000161872
0.000537203
0.00107023
0.0017573
0.00235286
0.00248899
0.00216765
0
0
0
0
0
0
0
0
0
0
0
0
0
0
0.000108157
0.000711069
0.00171276
0.0027162
0.00286243
0.00226105
0
0
0
0
0
0
0
0
0
0
0
0
0
0
0
0
0.000547231
0.00187765
0.00275305
0.0020737
0
0
0
0
0
0
0
0
0
0
0
0
0
0
0
0
0
0
0
0.0009081
0
0
0
0
0
0
0
0
0
0
0
0
0
0
0
0
0
0
0
0
0
0
0
0
0
0
0
0
0
0
0
0
0
0
0
0
0
0
0
0
0
0
0
0
0
0
0
0
0
0
0
0
0
0
0
0
0
0
0
0
0
0
0
0
0
0
0
0
0
0
0
0
0
0
0
0
0
0
0
0
0
0
0
0
0
0
0
0
0
0
0
0
0
0
0
0
0
0
0
0.00940988
0.000468425
0.00200124
0.00108109
0
0
0
0
0
0
0
0
0
0
0
0
0
0
0
0
0.0549428
)
;

boundaryField
{
    movingWall
    {
        type            zeroGradient;
    }
    fixedWalls
    {
        type            zeroGradient;
    }
    frontAndBack
    {
        type            empty;
    }
}


// ************************************************************************* //
