/*--------------------------------*- C++ -*----------------------------------*\
| =========                 |                                                 |
| \\      /  F ield         | OpenFOAM: The Open Source CFD Toolbox           |
|  \\    /   O peration     | Version:  2312                                  |
|   \\  /    A nd           | Website:  www.openfoam.com                      |
|    \\/     M anipulation  |                                                 |
\*---------------------------------------------------------------------------*/
FoamFile
{
    version     2.0;
    format      ascii;
    arch        "LSB;label=32;scalar=64";
    class       volScalarField;
    location    "0.5";
    object      blendingFactorField;
}
// * * * * * * * * * * * * * * * * * * * * * * * * * * * * * * * * * * * * * //

dimensions      [0 0 0 0 0 0 0];

internalField   nonuniform List<scalar> 
400
(
0
0
0
0
0
0
0
0
0
0
0
0
0
0
0
0
0
0
0
0
0
0
0
0
0
0
0
0
0
0
0
0
0
0
0
0
0
0
0
0
0
0
0
0
0
0
0
0
0
0
0
0
0
0
0
0
0
0
0
0
0
0
0
0
0
0
0
0
0
0
0
0
0
0
0
0
0
0
0
0
0
0
0
0
0
0
0
0
0
0
0
0
0
0
0
0
0
0
0
0
0
0
0
0
0
0
0
0
0
0
0
0
0
0
0
0
0
0
0
0
0
0
0
0
0
0
0
0
0
0.0101564
0.0201775
0.0247391
0.0247391
0.0226188
0.0124431
0
0
0.00530595
0.0222782
0
0
0
0
0
0
0
0
0.00136957
0.0232048
0.0415013
0.0555467
0.0644114
0.0664093
0.0664093
0.059598
0.0414083
0.0204532
0.0698742
0.0972868
0.0704412
0
0.00448394
0.0060278
0
0
0
0.000748112
0.0291515
0.0548829
0.0776776
0.0969759
0.11168
0.120129
0.120129
0.119488
0.1058
0.0758184
0.150215
0.194742
0.161174
0.0135703
0.0480598
0.0494255
0.0404587
0.0248514
0.00407687
0.0278509
0.0598782
0.0898309
0.117796
0.143547
0.166246
0.184286
0.194215
0.194215
0.190379
0.163769
0.252761
0.326927
0.279151
0.0571584
0.0970336
0.0977699
0.0864338
0.0678295
0.0440651
0.0572445
0.092667
0.126807
0.160303
0.193573
0.226494
0.258202
0.285225
0.300525
0.300525
0.289337
0.388417
0.51578
0.431358
0.107215
0.152593
0.151636
0.136659
0.11399
0.0865597
0.0880691
0.126129
0.16383
0.202562
0.243783
0.288881
0.338495
0.391741
0.4419
0.467905
0.467905
0.573089
0.806245
0.625559
0.166107
0.216179
0.211338
0.190614
0.162306
0.130275
0.118777
0.158003
0.197765
0.240303
0.288446
0.345948
0.417466
0.507597
0.618723
0.732359
0.765547
0.783016
1
0.945635
0.237354
0.289278
0.276525
0.246821
0.210825
0.173104
0.146428
0.184518
0.223767
0.2671
0.318679
0.385209
0.477917
0.614312
0.818865
1
1
1
1
1
0.326941
0.372356
0.344779
0.30199
0.256211
0.211884
0.171124
0.199129
0.234252
0.273605
0.321723
0.386906
0.485892
0.652405
0.9435
1
1
1
1
1
0.437663
0.465318
0.412013
0.350488
0.293384
0.241959
0.197563
0.188713
0.215352
0.244707
0.279453
0.324729
0.392227
0.507669
0.714152
1
1
1
1
1
0.593851
0.55449
0.456049
0.376525
0.313123
0.257243
0.210413
0.172582
0.142519
0.149566
0.160168
0.167431
0.167841
0.252805
0.459152
0.657162
0.375337
0.60985
1
1
0.77266
0.602399
0.456049
0.376525
0.313123
0.257243
0.210413
0.172582
0.142519
0.119843
0.106913
0.110445
0.145622
0.233526
0.406195
0.560175
0.858734
0.858734
1
1
0.931401
0.602399
0.452826
0.368671
0.300797
0.32436
0.473117
0.608734
0.733797
0.851261
0.964814
1
1
1
1
1
1
1
1
1
0.931401
1
1
1
1
1
1
1
1
1
1
1
1
1
1
1
1
1
1
1
)
;

boundaryField
{
    movingWall
    {
        type            zeroGradient;
    }
    fixedWalls
    {
        type            zeroGradient;
    }
    frontAndBack
    {
        type            empty;
    }
}


// ************************************************************************* //
