/*--------------------------------*- C++ -*----------------------------------*\
| =========                 |                                                 |
| \\      /  F ield         | OpenFOAM: The Open Source CFD Toolbox           |
|  \\    /   O peration     | Version:  2312                                  |
|   \\  /    A nd           | Website:  www.openfoam.com                      |
|    \\/     M anipulation  |                                                 |
\*---------------------------------------------------------------------------*/
FoamFile
{
    version     2.0;
    format      ascii;
    arch        "LSB;label=32;scalar=64";
    class       volScalarField;
    location    "0.5";
    object      CourantNumberField;
}
// * * * * * * * * * * * * * * * * * * * * * * * * * * * * * * * * * * * * * //

dimensions      [0 0 0 0 0 0 0];

internalField   nonuniform List<scalar> 
400
(
0.000382512
0.00110803
0.00198756
0.00288097
0.00371631
0.00445961
0.00509278
0.00560264
0.00597589
0.00619758
0.00625706
0.00625706
0.00613549
0.00582028
0.00530213
0.0045805
0.00367155
0.00262116
0.00152842
0.000575445
0.00110728
0.00233306
0.0034129
0.00434996
0.00517056
0.00587709
0.00645757
0.00689481
0.00716996
0.00726492
0.00716486
0.00722695
0.0072859
0.00714555
0.00679334
0.00622058
0.00542188
0.00438791
0.00309723
0.00156736
0.0020194
0.00348013
0.00462114
0.00555548
0.00633334
0.00697018
0.00746125
0.00779213
0.00794427
0.00789855
0.00763756
0.00777219
0.00805942
0.00814731
0.00801151
0.00762635
0.00696363
0.00598626
0.0046391
0.00281271
0.00301768
0.00459892
0.00577718
0.00672712
0.00749202
0.00808744
0.00851249
0.0087565
0.00880313
0.00863346
0.00822899
0.00839307
0.0089305
0.0092643
0.00935319
0.00915033
0.00860515
0.00766433
0.00627007
0.00423343
0.00406714
0.0057586
0.00697795
0.00795859
0.00873467
0.00931627
0.00970273
0.00988587
0.00985141
0.00958062
0.00905309
0.00916678
0.00998169
0.0105886
0.0109265
0.0109239
0.0105046
0.00959657
0.00813433
0.00584421
0.00516916
0.00700487
0.00828395
0.00931076
0.0101166
0.0107064
0.0110786
0.0112265
0.0111374
0.0107919
0.0101662
0.0101097
0.0112418
0.0121687
0.0128077
0.0130567
0.0128035
0.0119406
0.0103734
0.00772081
0.0063413
0.00836977
0.00973525
0.0108259
0.0116773
0.012293
0.0126715
0.0128084
0.0126924
0.0123033
0.0116119
0.0112134
0.012717
0.0140347
0.0150613
0.0156566
0.0156523
0.0148728
0.0131575
0.00998713
0.007608
0.00988133
0.0113628
0.0125354
0.0134459
0.0141006
0.0145021
0.01465
0.0145365
0.0141408
0.0134275
0.0125765
0.0143887
0.0161933
0.0177379
0.018835
0.0192317
0.0186258
0.016722
0.0128176
0.0089975
0.0115689
0.0131953
0.0144657
0.0154436
0.0161446
0.0165797
0.0167576
0.016677
0.0163197
0.0156465
0.0145979
0.0161995
0.0186146
0.0208611
0.0227055
0.0237739
0.0235361
0.021419
0.016447
0.0105428
0.0134677
0.0152654
0.0166426
0.0176872
0.0184315
0.0189023
0.0191228
0.0191042
0.0188363
0.0182812
0.0173687
0.0180442
0.0212065
0.0243977
0.0273649
0.0295835
0.0301169
0.0277962
0.0211661
0.0122863
0.0156249
0.0176133
0.0190936
0.0201884
0.020957
0.0214508
0.0217155
0.0217813
0.0216551
0.0213123
0.0206866
0.0203281
0.023766
0.0281916
0.0328352
0.0370487
0.0391791
0.0367195
0.0272543
0.0142886
0.018106
0.0202901
0.0218457
0.0229479
0.0236971
0.0241797
0.0244708
0.0246279
0.0246853
0.0246515
0.024499
0.0241354
0.0258967
0.0318402
0.0389377
0.0466962
0.0523102
0.0500178
0.0350224
0.0166443
0.0210028
0.0233526
0.0249117
0.0259376
0.026589
0.0269963
0.0272682
0.0274933
0.0277442
0.0280869
0.0285855
0.0292787
0.0303039
0.0347489
0.0449704
0.059217
0.0735455
0.0744746
0.0478254
0.0194941
0.024421
0.0268348
0.0282541
0.0290626
0.0294945
0.0297268
0.0298979
0.0301239
0.0305176
0.0312219
0.0324561
0.0345575
0.0379506
0.0430355
0.0544519
0.073047
0.106034
0.121161
0.0774178
0.0230776
0.0284777
0.0306978
0.0317164
0.0320919
0.0321343
0.0320552
0.0320059
0.0321132
0.0325111
0.0334068
0.0351852
0.0385848
0.0449302
0.056203
0.0719805
0.0839794
0.130524
0.177433
0.132273
0.0275065
0.0330416
0.0346279
0.0348563
0.034512
0.033942
0.0333691
0.0329426
0.0327621
0.0329294
0.0336408
0.0353054
0.0387976
0.0458013
0.0586729
0.0748526
0.0756255
0.110598
0.198783
0.198788
0.0337541
0.0384271
0.0380564
0.0366368
0.0351422
0.0336966
0.0324347
0.0314355
0.0307178
0.0302979
0.0302592
0.0308245
0.0325221
0.0360547
0.0421903
0.0462312
0.0340025
0.043383
0.150824
0.242753
0.0409064
0.0412483
0.0371818
0.0336866
0.0306575
0.0276619
0.0249072
0.0225098
0.0204346
0.0185959
0.0169144
0.0153244
0.0158249
0.0213919
0.0334116
0.0490203
0.0551655
0.0651349
0.108906
0.242753
0.047256
0.0387565
0.0281131
0.0267232
0.0313963
0.0359752
0.0405094
0.0449438
0.0491774
0.0532139
0.0571627
0.0612792
0.0660864
0.0726142
0.0818462
0.0921056
0.0961944
0.105524
0.108131
0.240705
0.047256
0.0796629
0.101139
0.118498
0.133448
0.146449
0.158034
0.168628
0.178454
0.187617
0.196187
0.204248
0.211948
0.219514
0.227167
0.233895
0.237408
0.237408
0.224565
0.201173
)
;

boundaryField
{
    movingWall
    {
        type            zeroGradient;
    }
    fixedWalls
    {
        type            zeroGradient;
    }
    frontAndBack
    {
        type            empty;
    }
}


// ************************************************************************* //
