/*--------------------------------*- C++ -*----------------------------------*\
| =========                 |                                                 |
| \\      /  F ield         | OpenFOAM: The Open Source CFD Toolbox           |
|  \\    /   O peration     | Version:  2312                                  |
|   \\  /    A nd           | Website:  www.openfoam.com                      |
|    \\/     M anipulation  |                                                 |
\*---------------------------------------------------------------------------*/
FoamFile
{
    version     2.0;
    format      ascii;
    arch        "LSB;label=32;scalar=64";
    class       volVectorField;
    location    "0.5";
    object      ddtU;
}
// * * * * * * * * * * * * * * * * * * * * * * * * * * * * * * * * * * * * * //

dimensions      [0 1 -2 0 0 0 0];

internalField   nonuniform List<vector> 
400
(
(0.000252529 -0.000236568 0)
(-5.15892e-07 0.000236697 0)
(-0.00102992 0.000572322 0)
(-0.00230275 0.000724693 0)
(-0.0037012 0.00076969 0)
(-0.00512977 0.000762787 0)
(-0.00652563 0.000730097 0)
(-0.00784651 0.000680045 0)
(-0.00903625 0.000611191 0)
(-0.0101034 0.000490122 0)
(-0.0108433 0.000365926 0)
(-0.0113427 0.000159654 0)
(-0.0113841 -9.82456e-05 0)
(-0.0109253 -0.000407198 0)
(-0.00989709 -0.000741771 0)
(-0.00829899 -0.00105279 0)
(-0.00622473 -0.00126317 0)
(-0.00389162 -0.00125602 0)
(-0.00160701 -0.000884326 0)
(-0.000240344 -0.000224031 0)
(-0.000181415 -1.84395e-05 0)
(-0.00099538 0.00111613 0)
(-0.00228552 0.00177103 0)
(-0.00372423 0.00208913 0)
(-0.00525526 0.00221126 0)
(-0.00682529 0.00221374 0)
(-0.00838174 0.00213348 0)
(-0.00986789 0.00198294 0)
(-0.0112221 0.00175729 0)
(-0.0123832 0.00142865 0)
(-0.0132606 0.000989024 0)
(-0.0137798 0.000413666 0)
(-0.0138418 -0.000307961 0)
(-0.0133712 -0.00114232 0)
(-0.0123189 -0.00202297 0)
(-0.0106831 -0.00283963 0)
(-0.0085217 -0.00343725 0)
(-0.00598302 -0.00360349 0)
(-0.00328516 -0.00307025 0)
(-0.000954027 -0.00162082 0)
(-0.000498096 0.000879754 0)
(-0.00156409 0.00234856 0)
(-0.00289029 0.00313316 0)
(-0.00432007 0.00354533 0)
(-0.00582646 0.00372881 0)
(-0.00738372 0.00375323 0)
(-0.00895644 0.00364543 0)
(-0.0104937 0.00340945 0)
(-0.0119328 0.00303086 0)
(-0.0132036 0.00248052 0)
(-0.0142201 0.00173196 0)
(-0.0148903 0.000758041 0)
(-0.0151178 -0.000440523 0)
(-0.0148115 -0.00181658 0)
(-0.0139022 -0.00327256 0)
(-0.0123537 -0.00465532 0)
(-0.0101781 -0.00575408 0)
(-0.00748084 -0.00629641 0)
(-0.00445417 -0.00596432 0)
(-0.00148795 -0.00420639 0)
(-0.000621243 0.0019677 0)
(-0.00180279 0.00365713 0)
(-0.00315304 0.00451561 0)
(-0.00458326 0.005002 0)
(-0.00608211 0.00525212 0)
(-0.0076445 0.00532026 0)
(-0.00925372 0.00521975 0)
(-0.0108716 0.00493865 0)
(-0.0124438 0.00445009 0)
(-0.0138994 0.00371248 0)
(-0.0151504 0.0026831 0)
(-0.0160934 0.00132713 0)
(-0.0166104 -0.000357033 0)
(-0.0165761 -0.00231614 0)
(-0.0158707 -0.00443243 0)
(-0.0143945 -0.00651249 0)
(-0.0120994 -0.00827915 0)
(-0.00906466 -0.00937541 0)
(-0.00550941 -0.00939161 0)
(-0.00188108 -0.00739803 0)
(-0.000631728 0.00313731 0)
(-0.00184793 0.005008 0)
(-0.00320983 0.00591682 0)
(-0.0046479 0.00646704 0)
(-0.00616175 0.00679144 0)
(-0.00775905 0.00692974 0)
(-0.00944296 0.00687716 0)
(-0.0111925 0.00660557 0)
(-0.0129644 0.00606698 0)
(-0.0146953 0.00520221 0)
(-0.0162954 0.00394524 0)
(-0.0176481 0.00224172 0)
(-0.0186032 7.0575e-05 0)
(-0.0189803 -0.00252696 0)
(-0.0185794 -0.00542915 0)
(-0.0172017 -0.00840595 0)
(-0.0147073 -0.0110933 0)
(-0.0111478 -0.0129946 0)
(-0.0068036 -0.0135282 0)
(-0.00230619 -0.011296 0)
(-0.00058061 0.00428548 0)
(-0.00177394 0.00635547 0)
(-0.00312746 0.00732125 0)
(-0.00456748 0.00794205 0)
(-0.00610239 0.00835922 0)
(-0.00775426 0.00860338 0)
(-0.0095437 0.00865398 0)
(-0.0114707 0.00846181 0)
(-0.0135123 0.00795844 0)
(-0.0156161 0.00705488 0)
(-0.0176985 0.00565406 0)
(-0.0196312 0.00366127 0)
(-0.0212277 0.00101548 0)
(-0.0222342 -0.00228871 0)
(-0.0223345 -0.00615358 0)
(-0.0211721 -0.0103251 0)
(-0.0184496 -0.0143214 0)
(-0.0141494 -0.0174102 0)
(-0.00863762 -0.0186987 0)
(-0.00288918 -0.0161288 0)
(-0.000494566 0.00534528 0)
(-0.00161885 0.00766347 0)
(-0.00293679 0.0087125 0)
(-0.00435927 0.00942488 0)
(-0.0059075 0.00996554 0)
(-0.00761446 0.0103627 0)
(-0.00952539 0.0105855 0)
(-0.0116644 0.0105656 0)
(-0.0140354 0.0102086 0)
(-0.0166142 0.00939523 0)
(-0.0193313 0.00797713 0)
(-0.0220573 0.00578741 0)
(-0.0245774 0.00272948 0)
(-0.0265545 -0.00133722 0)
(-0.0275082 -0.00638444 0)
(-0.026834 -0.0121765 0)
(-0.0239367 -0.0180864 0)
(-0.0186211 -0.0229903 0)
(-0.0113419 -0.0254086 0)
(-0.00373316 -0.0223129 0)
(-0.000387725 0.00627159 0)
(-0.00140382 0.00889387 0)
(-0.00265011 0.0100619 0)
(-0.00402256 0.0108962 0)
(-0.00555619 0.0115994 0)
(-0.0073002 0.0122091 0)
(-0.00932268 0.0126878 0)
(-0.0116838 0.0129555 0)
(-0.0144257 0.0128952 0)
(-0.0175661 0.012348 0)
(-0.0210945 0.0111131 0)
(-0.0248606 0.00895245 0)
(-0.0286767 0.00558752 0)
(-0.0321572 0.000763197 0)
(-0.0345698 -0.00569866 0)
(-0.0349249 -0.0136927 0)
(-0.0320778 -0.0224724 0)
(-0.0253731 -0.0302672 0)
(-0.0153159 -0.0344795 0)
(-0.00488386 -0.0304185 0)
(-0.000265734 0.00703182 0)
(-0.00113756 0.0100056 0)
(-0.00226745 0.0113281 0)
(-0.00354092 0.0123171 0)
(-0.00501027 0.0132264 0)
(-0.0067413 0.0141134 0)
(-0.00883379 0.0149469 0)
(-0.0113858 0.0156406 0)
(-0.0144955 0.0160644 0)
(-0.0182522 0.0160319 0)
(-0.0227016 0.0152817 0)
(-0.0278326 0.0134803 0)
(-0.0334781 0.0101162 0)
(-0.0391889 0.00470972 0)
(-0.0440681 -0.00332175 0)
(-0.0465109 -0.0142834 0)
(-0.0442848 -0.027458 0)
(-0.0356786 -0.0400898 0)
(-0.0209698 -0.0472889 0)
(-0.00621628 -0.0412162 0)
(-0.000128535 0.00759866 0)
(-0.000821181 0.0109553 0)
(-0.00177807 0.0124578 0)
(-0.00288405 0.0136285 0)
(-0.00421005 0.0147829 0)
(-0.00584177 0.0160114 0)
(-0.00791121 0.0173008 0)
(-0.0105648 0.0185761 0)
(-0.0139692 0.0197121 0)
(-0.0183147 0.020515 0)
(-0.0237856 0.020681 0)
(-0.0305407 0.0197366 0)
(-0.0385799 0.0169866 0)
(-0.0475865 0.0115665 0)
(-0.0565587 0.00210567 0)
(-0.0630532 -0.0127091 0)
(-0.0627966 -0.0328123 0)
(-0.0513889 -0.053907 0)
(-0.0283237 -0.0660045 0)
(-0.00693287 -0.0549506 0)
(2.54772e-05 0.00794193 0)
(-0.000447688 0.0116875 0)
(-0.00116047 0.0133774 0)
(-0.00200527 0.0147408 0)
(-0.00307507 0.0161667 0)
(-0.00447704 0.0177904 0)
(-0.00637177 0.0196277 0)
(-0.00895625 0.0216387 0)
(-0.0124791 0.0237388 0)
(-0.0172539 0.0257646 0)
(-0.0236772 0.0274246 0)
(-0.0322174 0.0281929 0)
(-0.043167 0.0271886 0)
(-0.0567675 0.0228946 0)
(-0.0724027 0.0129301 0)
(-0.0866583 -0.00665896 0)
(-0.0913439 -0.0383237 0)
(-0.0754683 -0.0762216 0)
(-0.0363819 -0.097364 0)
(-0.00311328 -0.0714937 0)
(0.000197525 0.00803446 0)
(-6.62845e-06 0.0121405 0)
(-0.000380174 0.013996 0)
(-0.000840292 0.0155384 0)
(-0.00150386 0.0172376 0)
(-0.00249636 0.0192808 0)
(-0.00400125 0.0217295 0)
(-0.00625127 0.0246036 0)
(-0.00956743 0.0278999 0)
(-0.0144063 0.0315687 0)
(-0.0214131 0.0354377 0)
(-0.031463 0.0390795 0)
(-0.0456725 0.0415036 0)
(-0.0652692 0.0405424 0)
(-0.091449 0.0329921 0)
(-0.121114 0.00868542 0)
(-0.139926 -0.0408457 0)
(-0.123372 -0.110189 0)
(-0.0599738 -0.150056 0)
(0.0117661 -0.0895367 0)
(0.000389436 0.00779789 0)
(0.000526142 0.0122174 0)
(0.000624183 0.0141866 0)
(0.000704993 0.0158667 0)
(0.000629376 0.0178139 0)
(0.000259207 0.0202659 0)
(-0.000582425 0.0233279 0)
(-0.00213211 0.0271107 0)
(-0.00475176 0.031754 0)
(-0.00900866 0.0374115 0)
(-0.0158031 0.0442327 0)
(-0.0266103 0.0522065 0)
(-0.0436334 0.0606406 0)
(-0.0693709 0.0669936 0)
(-0.111292 0.0654978 0)
(-0.171802 0.0460895 0)
(-0.232972 -0.0165567 0)
(-0.253696 -0.126112 0)
(-0.177089 -0.21179 0)
(-0.00765816 -0.0962661 0)
(0.000633089 0.0073081 0)
(0.00124609 0.0118123 0)
(0.00196023 0.0137974 0)
(0.00274721 0.0155479 0)
(0.00344276 0.0176886 0)
(0.00392102 0.0204836 0)
(0.00404732 0.0240727 0)
(0.00362943 0.02868 0)
(0.00233381 0.0346251 0)
(-0.000401972 0.0423752 0)
(-0.00558755 0.0526353 0)
(-0.0151665 0.0663806 0)
(-0.0328601 0.0845296 0)
(-0.0646145 0.106658 0)
(-0.120066 0.130262 0)
(-0.222324 0.142848 0)
(-0.356859 0.0734803 0)
(-0.406616 -0.156529 0)
(-0.301308 -0.389244 0)
(-0.139332 -0.229021 0)
(0.000925803 0.00594732 0)
(0.00219703 0.0106439 0)
(0.00369813 0.0126273 0)
(0.00533408 0.0143981 0)
(0.00696258 0.0166457 0)
(0.00851019 0.0196549 0)
(0.00989651 0.0235984 0)
(0.0110255 0.0287793 0)
(0.0117004 0.0356808 0)
(0.0115806 0.0450987 0)
(0.00999035 0.0584157 0)
(0.00537725 0.0779467 0)
(-0.0054271 0.107718 0)
(-0.0255276 0.15362 0)
(-0.0667331 0.220483 0)
(-0.163107 0.26277 0)
(-0.237925 0.115527 0)
(-0.212998 -0.303009 0)
(-0.202259 -0.644652 0)
(-0.169536 -0.575259 0)
(0.00153964 0.0046227 0)
(0.00358733 0.0089742 0)
(0.00585243 0.0107502 0)
(0.00834166 0.0124141 0)
(0.0109643 0.0146263 0)
(0.0139579 0.0178022 0)
(0.0168198 0.0216619 0)
(0.0197056 0.0268732 0)
(0.0227567 0.0339937 0)
(0.0260423 0.0439804 0)
(0.0296712 0.0583847 0)
(0.0338284 0.0801763 0)
(0.0392525 0.114851 0)
(0.0506616 0.170079 0)
(0.0781859 0.239925 0)
(0.116914 0.248065 0)
(0.192141 0.0612285 0)
(0.281115 -0.2161 0)
(0.11294 -0.467198 0)
(-0.00639245 -0.732007 0)
(0.00245031 0.00131353 0)
(0.00534706 0.00522439 0)
(0.00789156 0.00751198 0)
(0.0111763 0.00915264 0)
(0.0145825 0.0110955 0)
(0.0182316 0.0137001 0)
(0.0227432 0.0175701 0)
(0.0280316 0.0225645 0)
(0.0341896 0.029203 0)
(0.041104 0.0381378 0)
(0.0506974 0.0518084 0)
(0.0628501 0.0704976 0)
(0.0832166 0.0978111 0)
(0.117773 0.137368 0)
(0.18183 0.171551 0)
(0.280838 0.150956 0)
(0.416789 0.0493188 0)
(0.606351 0.0350599 0)
(0.359399 0.0745747 0)
(0.1677 -0.515434 0)
(0.00210099 -0.00188388 0)
(0.00418891 0.00472841 0)
(0.00762185 0.00631834 0)
(0.0115477 0.00678844 0)
(0.0158323 0.00820913 0)
(0.0210823 0.00997938 0)
(0.0275836 0.0124801 0)
(0.0355976 0.016269 0)
(0.0451497 0.0218056 0)
(0.0562891 0.0294867 0)
(0.0696591 0.0399839 0)
(0.085912 0.0533434 0)
(0.110929 0.0696693 0)
(0.147589 0.0867695 0)
(0.192437 0.0941681 0)
(0.24754 0.0465524 0)
(0.258509 -0.097012 0)
(0.27082 -0.22681 0)
(0.223524 0.0294079 0)
(0.193759 -0.173143 0)
(0.000348074 -0.00247998 0)
(-0.00285118 -0.00335711 0)
(0.00172398 -0.00140594 0)
(0.00423526 0.000281807 0)
(0.00840495 0.00149821 0)
(0.0139532 0.00290401 0)
(0.0209432 0.00477946 0)
(0.0297769 0.00758542 0)
(0.040685 0.011618 0)
(0.0537461 0.0169055 0)
(0.069195 0.0232845 0)
(0.0875812 0.0301977 0)
(0.110139 0.0373357 0)
(0.136244 0.040959 0)
(0.166147 0.0385842 0)
(0.186139 0.0169347 0)
(0.1805 -0.0306418 0)
(0.102166 -0.0663403 0)
(-0.0550141 -0.14723 0)
(0.0998923 -0.136261 0)
(-0.00018325 -0.00147927 0)
(-0.00140643 0.000666821 0)
(-0.00220479 0.000400919 0)
(-0.00217957 -0.000626245 0)
(-0.00192517 -0.00221396 0)
(-0.00186263 -0.00425172 0)
(-0.00197897 -0.00636634 0)
(-0.0018536 -0.00798002 0)
(-0.000445833 -0.00813108 0)
(0.00372717 -0.005676 0)
(0.012751 0.000188505 0)
(0.0287178 0.00922718 0)
(0.0528217 0.0196625 0)
(0.0838544 0.0282837 0)
(0.118607 0.0328985 0)
(0.150036 0.0311492 0)
(0.17039 0.025999 0)
(0.146499 0.0319099 0)
(0.170136 0.0370547 0)
(0.0872664 -0.00558871 0)
)
;

boundaryField
{
    movingWall
    {
        type            calculated;
        value           uniform (0 0 0);
    }
    fixedWalls
    {
        type            calculated;
        value           uniform (0 0 0);
    }
    frontAndBack
    {
        type            empty;
    }
}


// ************************************************************************* //
