/*--------------------------------*- C++ -*----------------------------------*\
| =========                 |                                                 |
| \\      /  F ield         | OpenFOAM: The Open Source CFD Toolbox           |
|  \\    /   O peration     | Version:  2312                                  |
|   \\  /    A nd           | Website:  www.openfoam.com                      |
|    \\/     M anipulation  |                                                 |
\*---------------------------------------------------------------------------*/
FoamFile
{
    version     2.0;
    format      ascii;
    arch        "LSB;label=32;scalar=64";
    class       volScalarField;
    location    "0.5";
    object      diffP;
}
// * * * * * * * * * * * * * * * * * * * * * * * * * * * * * * * * * * * * * //

dimensions      [0 2 -2 0 0 0 0];

internalField   nonuniform List<scalar> 
400
(
-3
-3
-3
-3.00001
-3.00005
-3.0001
-3.00018
-3.00027
-3.00038
-3.0005
-3.00064
-3.00078
-3.00093
-3.00108
-3.00122
-3.00134
-3.00143
-3.0015
-3.00153
-3.00152
-3.00001
-3
-3
-3.00002
-3.00006
-3.00012
-3.00019
-3.00028
-3.00038
-3.0005
-3.00063
-3.00077
-3.00092
-3.00106
-3.0012
-3.00132
-3.00142
-3.00149
-3.00152
-3.00152
-3.00001
-3
-3
-3.00001
-3.00005
-3.00011
-3.00018
-3.00026
-3.00037
-3.00048
-3.00062
-3.00076
-3.0009
-3.00105
-3.00119
-3.00133
-3.00143
-3.00151
-3.00155
-3.00155
-3
-3
-3
-3
-3.00001
-3.00007
-3.00014
-3.00023
-3.00033
-3.00045
-3.00059
-3.00074
-3.00089
-3.00105
-3.00121
-3.00136
-3.00149
-3.00158
-3.00162
-3.00161
-3
-3
-3
-3
-3
-3
-3.00008
-3.00017
-3.00027
-3.0004
-3.00054
-3.0007
-3.00088
-3.00106
-3.00125
-3.00142
-3.00157
-3.00168
-3.00173
-3.00171
-3
-3
-3
-3
-3
-3
-3
-3.00008
-3.00019
-3.00033
-3.00048
-3.00066
-3.00086
-3.00107
-3.00129
-3.0015
-3.00168
-3.00182
-3.00188
-3.00186
-3
-3
-3
-3
-3
-3
-3
-3
-3.00008
-3.00022
-3.00039
-3.00059
-3.00081
-3.00106
-3.00133
-3.00159
-3.00183
-3.00201
-3.00209
-3.00207
-3
-3
-3
-3
-3
-3
-3
-3
-3
-3.00009
-3.00027
-3.00049
-3.00074
-3.00104
-3.00136
-3.00169
-3.002
-3.00224
-3.00236
-3.00235
-3
-3
-3
-3
-3
-3
-3
-3
-3
-3
-3.0001
-3.00034
-3.00062
-3.00097
-3.00136
-3.00179
-3.00221
-3.00255
-3.00272
-3.0027
-3
-3
-3
-3
-3
-3
-3
-3
-3
-3
-3
-3.00012
-3.00043
-3.00083
-3.0013
-3.00186
-3.00244
-3.00293
-3.00319
-3.00316
-3
-3
-3
-3
-3
-3
-3
-3
-3
-3
-3
-3
-3.00014
-3.00057
-3.00114
-3.00185
-3.00266
-3.0034
-3.0038
-3.00372
-3
-3
-3
-3
-3
-3
-3
-3
-3
-3
-3
-3
-3
-3.00016
-3.00079
-3.00167
-3.00281
-3.00398
-3.0046
-3.00435
-3
-3
-3
-3
-3
-3
-3
-3
-3
-3
-3
-3
-3
-3
-3.00012
-3.00114
-3.00274
-3.00476
-3.00582
-3.00503
-3
-3
-3
-3
-3
-3
-3
-3
-3
-3
-3
-3
-3
-3
-3
-3
-3.00168
-3.0046
-3.00687
-3.00558
-3
-3
-3
-3
-3
-3
-3
-3
-3
-3
-3
-3
-3
-3
-3
-3
-3
-3
-3.00308
-3.00478
-3
-3
-3
-3
-3
-3
-3
-3
-3
-3
-3
-3
-3
-3
-3
-3
-3
-3
-3
-3
-3
-3
-3
-3
-3
-3
-3
-3
-3
-3
-3
-3
-3
-3
-3
-3
-3
-3
-3
-3
-3
-3
-3
-3
-3
-3
-3
-3
-3
-3
-3
-3
-3
-3
-3
-3
-3
-3
-3
-3
-3
-3
-3
-3
-3
-3
-3
-3
-3
-3
-3
-3
-3
-3
-3
-3
-3
-3
-3
-3.01495
-3.00123
-3.00423
-3.00233
-3
-3
-3
-3
-3
-3
-3
-3
-3
-3
-3
-3
-3
-3
-3
-3
-3.10004
)
;

boundaryField
{
    movingWall
    {
        type            calculated;
        value           nonuniform List<scalar> 
20
(
-3.00123
-3.00423
-3.00233
-3
-3
-3
-3
-3
-3
-3
-3
-3
-3
-3
-3
-3
-3
-3
-3
-3.10004
)
;
    }
    fixedWalls
    {
        type            calculated;
        value           nonuniform List<scalar> 
60
(
-3
-3.00001
-3.00001
-3
-3
-3
-3
-3
-3
-3
-3
-3
-3
-3
-3
-3
-3
-3
-3
-3.00123
-3.00152
-3.00152
-3.00155
-3.00161
-3.00171
-3.00186
-3.00207
-3.00235
-3.0027
-3.00316
-3.00372
-3.00435
-3.00503
-3.00558
-3.00478
-3
-3
-3
-3.01495
-3.10004
-3
-3
-3
-3.00001
-3.00005
-3.0001
-3.00018
-3.00027
-3.00038
-3.0005
-3.00064
-3.00078
-3.00093
-3.00108
-3.00122
-3.00134
-3.00143
-3.0015
-3.00153
-3.00152
)
;
    }
    frontAndBack
    {
        type            empty;
    }
}


// ************************************************************************* //
