/*--------------------------------*- C++ -*----------------------------------*\
| =========                 |                                                 |
| \\      /  F ield         | OpenFOAM: The Open Source CFD Toolbox           |
|  \\    /   O peration     | Version:  2312                                  |
|   \\  /    A nd           | Website:  www.openfoam.com                      |
|    \\/     M anipulation  |                                                 |
\*---------------------------------------------------------------------------*/
FoamFile
{
    version     2.0;
    format      ascii;
    arch        "LSB;label=32;scalar=64";
    class       volScalarField;
    location    "0.5";
    object      divPhi;
}
// * * * * * * * * * * * * * * * * * * * * * * * * * * * * * * * * * * * * * //

dimensions      [0 0 -1 0 0 0 0];

internalField   nonuniform List<scalar> 
400
(
-9.62934e-06
-3.51721e-07
-4.42825e-07
-4.27118e-07
-3.81193e-07
-3.41609e-07
-3.12268e-07
-2.93608e-07
-2.80431e-07
-2.71947e-07
-2.65882e-07
-2.63646e-07
-2.62576e-07
-2.61867e-07
-2.58879e-07
-2.52507e-07
-2.27257e-07
-2.14564e-07
-3.24409e-07
-1.12242e-07
-2.1625e-07
-3.04833e-07
-3.6822e-07
-3.66842e-07
-3.45428e-07
-3.17809e-07
-2.98686e-07
-2.8264e-07
-2.7331e-07
-2.64811e-07
-2.6075e-07
-2.57196e-07
-2.57181e-07
-2.57378e-07
-2.53237e-07
-2.39157e-07
-2.36264e-07
-2.48837e-07
-1.98429e-07
-1.84049e-07
7.82518e-08
-1.43946e-07
-2.44137e-07
-2.78562e-07
-2.79126e-07
-2.71235e-07
-2.60825e-07
-2.52939e-07
-2.45803e-07
-2.40989e-07
-2.37133e-07
-2.35581e-07
-2.35163e-07
-2.35233e-07
-2.33124e-07
-2.26208e-07
-1.99752e-07
-1.85173e-07
-3.38599e-07
-7.52521e-08
-1.07776e-07
-1.29326e-07
-1.81707e-07
-2.10534e-07
-2.22064e-07
-2.22882e-07
-2.20918e-07
-2.17226e-07
-2.14001e-07
-2.10826e-07
-2.08895e-07
-2.07676e-07
-2.08184e-07
-2.09484e-07
-2.06384e-07
-1.91293e-07
-1.91746e-07
-2.3464e-07
-1.17133e-07
-1.7448e-07
7.92711e-08
-5.62113e-08
-1.19458e-07
-1.52583e-07
-1.67919e-07
-1.75288e-07
-1.77644e-07
-1.78283e-07
-1.775e-07
-1.76731e-07
-1.75915e-07
-1.76199e-07
-1.76988e-07
-1.77375e-07
-1.76413e-07
-1.72908e-07
-1.45837e-07
-1.12882e-07
-3.17292e-07
-2.96128e-08
-1.19027e-07
-7.76715e-08
-9.13398e-08
-1.08815e-07
-1.22263e-07
-1.30304e-07
-1.35342e-07
-1.37791e-07
-1.39147e-07
-1.39529e-07
-1.4015e-07
-1.40807e-07
-1.42015e-07
-1.44035e-07
-1.41773e-07
-1.26785e-07
-1.3189e-07
-1.92779e-07
-2.2512e-08
-1.43791e-07
7.49763e-08
-1.51833e-08
-4.85366e-08
-6.6921e-08
-7.84602e-08
-8.67204e-08
-9.20038e-08
-9.57496e-08
-9.78784e-08
-9.94981e-08
-1.00747e-07
-1.02164e-07
-1.03605e-07
-1.04018e-07
-1.03286e-07
-1.03425e-07
-7.82592e-08
-2.76594e-08
-2.5819e-07
2.08455e-08
-9.19207e-08
-2.91029e-08
-2.33204e-08
-2.91646e-08
-3.69281e-08
-4.33897e-08
-4.87503e-08
-5.24631e-08
-5.5323e-08
-5.73285e-08
-5.91192e-08
-6.04936e-08
-6.18275e-08
-6.35372e-08
-6.16339e-08
-4.80308e-08
-5.67661e-08
-1.27101e-07
7.76438e-08
-9.3598e-08
1.13289e-07
4.27669e-08
2.2158e-08
1.23641e-08
5.65674e-09
-6.70202e-11
-4.49606e-09
-8.20913e-09
-1.09118e-08
-1.32444e-08
-1.49778e-08
-1.66274e-08
-1.77788e-08
-1.73025e-08
-1.67938e-08
-2.01681e-08
9.81103e-10
6.43438e-08
-1.63335e-07
7.20437e-08
-1.75547e-08
4.34724e-08
5.31774e-08
5.16897e-08
4.75589e-08
4.34477e-08
3.95445e-08
3.64272e-08
3.36672e-08
3.16447e-08
2.9765e-08
2.86811e-08
2.80913e-08
2.70249e-08
2.84736e-08
3.97896e-08
2.84395e-08
-4.18804e-08
1.74733e-07
-3.03731e-08
1.73475e-07
1.16257e-07
1.00541e-07
9.40951e-08
8.9965e-08
8.63584e-08
8.33473e-08
8.05408e-08
7.83883e-08
7.63166e-08
7.4949e-08
7.37078e-08
7.32802e-08
7.42624e-08
7.48942e-08
6.77961e-08
8.3044e-08
1.53829e-07
-4.57579e-08
1.1912e-07
7.71972e-08
1.25952e-07
1.33163e-07
1.32161e-07
1.29672e-07
1.27131e-07
1.24726e-07
1.22605e-07
1.20602e-07
1.19062e-07
1.17674e-07
1.1712e-07
1.17181e-07
1.1688e-07
1.17072e-07
1.25635e-07
1.14112e-07
5.06264e-08
2.57382e-07
3.54003e-08
2.29538e-07
1.86506e-07
1.73704e-07
1.68771e-07
1.6591e-07
1.63924e-07
1.62071e-07
1.60513e-07
1.59108e-07
1.57883e-07
1.57007e-07
1.56652e-07
1.56777e-07
1.58398e-07
1.59569e-07
1.49056e-07
1.54683e-07
2.23474e-07
6.92799e-08
1.46113e-07
1.65909e-07
1.97134e-07
1.99435e-07
1.97845e-07
1.95992e-07
1.94748e-07
1.93485e-07
1.92582e-07
1.91413e-07
1.90763e-07
1.90254e-07
1.90448e-07
1.91574e-07
1.92212e-07
1.89918e-07
1.91888e-07
1.78719e-07
1.21873e-07
2.85691e-07
8.39648e-08
2.61038e-07
2.33652e-07
2.24567e-07
2.20289e-07
2.19137e-07
2.17745e-07
2.17547e-07
2.16557e-07
2.16665e-07
2.16262e-07
2.16783e-07
2.17688e-07
2.19105e-07
2.20811e-07
2.21129e-07
2.08163e-07
1.98565e-07
2.47026e-07
1.49401e-07
1.38287e-07
2.28612e-07
2.3924e-07
2.3684e-07
2.34909e-07
2.33812e-07
2.3316e-07
2.3281e-07
2.33051e-07
2.33282e-07
2.33643e-07
2.34815e-07
2.37031e-07
2.39674e-07
2.41867e-07
2.38906e-07
2.33042e-07
2.19315e-07
1.75016e-07
2.64472e-07
1.04714e-07
2.62223e-07
2.54362e-07
2.49284e-07
2.48187e-07
2.46919e-07
2.47494e-07
2.46721e-07
2.4748e-07
2.47112e-07
2.47655e-07
2.493e-07
2.5219e-07
2.54433e-07
2.56443e-07
2.54487e-07
2.41932e-07
2.25909e-07
2.53965e-07
2.06101e-07
1.22001e-07
2.55127e-07
2.59112e-07
2.59065e-07
2.58068e-07
2.58595e-07
2.57873e-07
2.57604e-07
2.56551e-07
2.56095e-07
2.55787e-07
2.56407e-07
2.5742e-07
2.5911e-07
2.5953e-07
2.54034e-07
2.39523e-07
2.21627e-07
2.04347e-07
2.481e-07
1.14003e-07
2.52348e-07
2.52444e-07
2.52436e-07
2.50783e-07
2.49573e-07
2.4696e-07
2.44615e-07
2.41589e-07
2.39089e-07
2.36913e-07
2.35595e-07
2.34923e-07
2.34602e-07
2.33745e-07
2.28396e-07
2.11733e-07
1.90651e-07
2.08903e-07
2.29118e-07
1.09581e-07
1.21626e-07
1.18578e-07
1.15642e-07
1.13694e-07
1.1139e-07
1.09751e-07
1.07888e-07
1.06485e-07
1.0523e-07
1.04467e-07
1.03983e-07
1.03739e-07
1.03695e-07
1.0289e-07
9.76074e-08
8.69945e-08
8.36914e-08
1.02462e-07
1.10397e-07
0
)
;

boundaryField
{
    movingWall
    {
        type            extrapolatedCalculated;
        value           nonuniform List<scalar> 
20
(
1.21626e-07
1.18578e-07
1.15642e-07
1.13694e-07
1.1139e-07
1.09751e-07
1.07888e-07
1.06485e-07
1.0523e-07
1.04467e-07
1.03983e-07
1.03739e-07
1.03695e-07
1.0289e-07
9.76074e-08
8.69945e-08
8.36914e-08
1.02462e-07
1.10397e-07
0
)
;
    }
    fixedWalls
    {
        type            extrapolatedCalculated;
        value           nonuniform List<scalar> 
60
(
-9.62934e-06
-2.1625e-07
7.82518e-08
-1.07776e-07
7.92711e-08
-1.19027e-07
7.49763e-08
-9.19207e-08
1.13289e-07
-1.75547e-08
1.73475e-07
7.71972e-08
2.29538e-07
1.65909e-07
2.61038e-07
2.28612e-07
2.62223e-07
2.55127e-07
2.52348e-07
1.21626e-07
-1.12242e-07
-1.84049e-07
-7.52521e-08
-1.7448e-07
-2.96128e-08
-1.43791e-07
2.08455e-08
-9.3598e-08
7.20437e-08
-3.03731e-08
1.1912e-07
3.54003e-08
1.46113e-07
8.39648e-08
1.38287e-07
1.04714e-07
1.22001e-07
1.14003e-07
1.09581e-07
0
-9.62934e-06
-3.51721e-07
-4.42825e-07
-4.27118e-07
-3.81193e-07
-3.41609e-07
-3.12268e-07
-2.93608e-07
-2.80431e-07
-2.71947e-07
-2.65882e-07
-2.63646e-07
-2.62576e-07
-2.61867e-07
-2.58879e-07
-2.52507e-07
-2.27257e-07
-2.14564e-07
-3.24409e-07
-1.12242e-07
)
;
    }
    frontAndBack
    {
        type            empty;
    }
}


// ************************************************************************* //
