/*--------------------------------*- C++ -*----------------------------------*\
| =========                 |                                                 |
| \\      /  F ield         | OpenFOAM: The Open Source CFD Toolbox           |
|  \\    /   O peration     | Version:  2312                                  |
|   \\  /    A nd           | Website:  www.openfoam.com                      |
|    \\/     M anipulation  |                                                 |
\*---------------------------------------------------------------------------*/
FoamFile
{
    version     2.0;
    format      ascii;
    arch        "LSB;label=32;scalar=64";
    class       volScalarField;
    location    "0.5";
    object      divU;
}
// * * * * * * * * * * * * * * * * * * * * * * * * * * * * * * * * * * * * * //

dimensions      [0 0 -1 0 0 0 0];

internalField   nonuniform List<scalar> 
400
(
4.48816e-05
0.0147606
0.00904838
0.0115207
0.0104788
0.00923403
0.00792818
0.00638681
0.00453858
0.00294124
0.00122376
-0.00152767
-0.0035768
-0.00624691
-0.00889458
-0.0115709
-0.0140111
-0.0126487
-0.0192048
4.93404e-06
-0.0141841
0.000423507
-0.00986742
-0.0100963
-0.00897825
-0.00781014
-0.00651281
-0.00502168
-0.00333148
-0.00128941
0.000199562
0.00250161
0.00455186
0.00649849
0.00826995
0.00988101
0.0110782
0.0100864
-0.00159756
0.0173114
-0.00948145
0.010657
-9.22498e-05
-0.00237437
-0.00196904
-0.00158488
-0.00130524
-0.000980413
-0.000591825
-9.0275e-05
0.000367204
0.000798016
0.00125753
0.00165124
0.001962
0.00235107
0.00239355
-0.00115169
-0.0139684
0.0107531
-0.0129898
0.0120748
0.00236723
-0.000213518
0.000103091
0.000351936
0.00037374
0.000383321
0.000419149
0.000472217
0.000477176
0.000480047
0.000429976
0.000297927
0.00012444
0.00014699
-0.000203428
-0.00439385
-0.0166488
0.0148366
-0.0135322
0.0126353
0.00252621
-0.000351959
-9.8814e-05
0.00024608
0.000344356
0.000389031
0.000437112
0.000496697
0.000541705
0.000612876
0.00065657
0.000672405
0.000691287
0.000867064
0.000224053
-0.00491826
-0.0187813
0.0163205
-0.0142833
0.0134261
0.00263812
-0.000494824
-0.000413291
-4.84523e-05
0.000102164
0.000215011
0.000334402
0.000469106
0.000612335
0.000828864
0.0010441
0.00130007
0.00155144
0.00181106
0.000582042
-0.00593797
-0.0222841
0.018664
-0.0154661
0.0145376
0.00291564
-0.000426363
-0.000526125
-0.000195525
-3.6802e-05
9.32081e-05
0.000256633
0.000448335
0.000599981
0.000787397
0.00139019
0.00201436
0.00261687
0.00307106
0.00105415
-0.00750151
-0.0276973
0.0225417
-0.0170125
0.0159145
0.00322151
-0.000365745
-0.000620775
-0.000327176
-0.000184806
-5.02804e-05
0.000129057
0.000397299
0.000551561
0.000740755
0.00180425
0.00297884
0.00425829
0.00536955
0.00251539
-0.00934679
-0.0364573
0.0287023
-0.018851
0.0176625
0.00358704
-0.000350361
-0.000767201
-0.000500777
-0.0003836
-0.000276785
-0.000126479
7.89707e-05
0.000523876
0.00128854
0.00225837
0.00394355
0.0067141
0.00982874
0.00637448
-0.0105783
-0.050068
0.0400468
-0.0209161
0.0199021
0.00405655
-0.000374545
-0.00096537
-0.000723588
-0.000635056
-0.000579687
-0.000498565
-0.000325723
0.000142791
0.000883736
0.00180379
0.00465529
0.0101044
0.0178037
0.0142871
-0.0129969
-0.0756651
0.0696645
-0.0230053
0.0228116
0.00467303
-0.000475496
-0.0012535
-0.00099283
-0.000927919
-0.000940878
-0.000989572
-0.000987613
-0.000725033
-0.000357938
0.000528562
0.00388994
0.0131301
0.0311924
0.0319208
-0.0246916
-0.163635
0.0987187
-0.0260156
0.0264768
0.00543974
-0.000705428
-0.00163683
-0.00127911
-0.00118323
-0.00128821
-0.00153242
-0.0019311
-0.00233108
-0.00202447
-0.000721376
-8.74311e-05
0.00829399
0.056919
0.124251
0.0897333
-0.182178
0.12078
-0.0247051
0.0324108
0.00705024
-0.000952174
-0.00201167
-0.00149182
-0.00138155
-0.00158237
-0.00203493
-0.00287592
-0.00423172
-0.00544211
-0.00442257
-0.0073011
-0.00818175
0.106914
0.369664
0.400977
0.0776539
0.472678
-0.0464837
0.0341978
0.00543437
-0.0036941
-0.00401916
-0.00299399
-0.00271977
-0.00281832
-0.00320393
-0.00429791
-0.00697556
-0.0123624
-0.0158059
-0.0179149
-0.0550995
-0.020719
0.168578
-0.0035697
-0.715112
0.971803
0.00590941
0.0539914
0.00754069
-0.0100409
-0.00939985
-0.00645893
-0.00406187
-0.00285918
-0.00239975
-0.00298101
-0.00664052
-0.0181136
-0.0270315
-0.0249988
-0.203481
-0.471603
-0.400299
-0.745588
-2.37188
-0.0683718
-0.302563
-0.104403
-0.0868444
-0.0565656
-0.0294312
-0.0149614
-0.0090609
-0.00683752
-0.00482742
-0.00313659
-0.00149278
-0.00598743
0.00472053
0.0795191
-0.0495389
-0.823165
-0.162682
1.0476
-0.271705
-2.31581
0.806191
0.783944
0.533245
0.323356
0.223868
0.1543
0.112023
0.0870557
0.0696126
0.0590986
0.0535862
0.0514459
0.0768069
0.202535
0.308892
-0.330645
0.675824
1.7346
4.02436
-2.96862
-2.15074
-2.03695
-1.57546
-1.03979
-0.733243
-0.555019
-0.431049
-0.342664
-0.280182
-0.232388
-0.19001
-0.155557
-0.103096
-0.0286256
0.118615
-0.516379
0.70079
-0.908807
2.53131
0.760163
3.23955
3.33281
2.2023
1.42134
1.0771
0.819937
0.645876
0.520692
0.435277
0.378405
0.336726
0.294115
0.251946
0.117852
0.0374701
-0.896869
0.91254
-3.59298
3.85192
6.29076
-0.814238
-3.34966
-0.731905
-0.416474
-0.531876
-0.44575
-0.3162
-0.240915
-0.201162
-0.171752
-0.144378
-0.123048
-0.0913622
-0.14009
-0.036305
-0.74787
1.50437
-7.70472
16.8648
-18.1273
)
;

boundaryField
{
    movingWall
    {
        type            extrapolatedCalculated;
        value           nonuniform List<scalar> 
20
(
-0.814238
-3.34966
-0.731905
-0.416474
-0.531876
-0.44575
-0.3162
-0.240915
-0.201162
-0.171752
-0.144378
-0.123048
-0.0913622
-0.14009
-0.036305
-0.74787
1.50437
-7.70472
16.8648
-18.1273
)
;
    }
    fixedWalls
    {
        type            extrapolatedCalculated;
        value           nonuniform List<scalar> 
60
(
4.48816e-05
-0.0141841
-0.00948145
-0.0129898
-0.0135322
-0.0142833
-0.0154661
-0.0170125
-0.018851
-0.0209161
-0.0230053
-0.0260156
-0.0247051
-0.0464837
0.00590941
-0.302563
0.806191
-2.15074
3.23955
-0.814238
4.93404e-06
0.0173114
0.0107531
0.0148366
0.0163205
0.018664
0.0225417
0.0287023
0.0400468
0.0696645
0.0987187
0.12078
0.472678
0.971803
-0.0683718
-2.31581
-2.96862
0.760163
6.29076
-18.1273
4.48816e-05
0.0147606
0.00904838
0.0115207
0.0104788
0.00923403
0.00792818
0.00638681
0.00453858
0.00294124
0.00122376
-0.00152767
-0.0035768
-0.00624691
-0.00889458
-0.0115709
-0.0140111
-0.0126487
-0.0192048
4.93404e-06
)
;
    }
    frontAndBack
    {
        type            empty;
    }
}


// ************************************************************************* //
