/*--------------------------------*- C++ -*----------------------------------*\
| =========                 |                                                 |
| \\      /  F ield         | OpenFOAM: The Open Source CFD Toolbox           |
|  \\    /   O peration     | Version:  2312                                  |
|   \\  /    A nd           | Website:  www.openfoam.com                      |
|    \\/     M anipulation  |                                                 |
\*---------------------------------------------------------------------------*/
FoamFile
{
    version     2.0;
    format      ascii;
    arch        "LSB;label=32;scalar=64";
    class       volScalarField;
    location    "0.5";
    object      epsilonzeroGrad;
}
// * * * * * * * * * * * * * * * * * * * * * * * * * * * * * * * * * * * * * //

dimensions      [0 2 -3 0 0 0 0];

internalField   nonuniform List<scalar> 
400
(
0.00109005
0.00155261
0.00192122
0.00213586
0.00225172
0.00231642
0.00235719
0.00238664
0.00240956
0.0024271
0.00243966
0.00244934
0.00245221
0.00244452
0.00241731
0.00235319
0.00222055
0.00197223
0.00156215
0.00109334
0.00155804
0.00152423
0.00167793
0.00177176
0.00181847
0.00184046
0.00185127
0.00185738
0.00186149
0.0018645
0.00186687
0.00186927
0.0018703
0.00186835
0.00185938
0.00183553
0.00178258
0.00167925
0.00152419
0.00155852
0.00196598
0.00168132
0.00175591
0.00181461
0.00184556
0.00186007
0.00186663
0.00186976
0.00187157
0.00187294
0.00187421
0.00187536
0.00187573
0.00187418
0.0018679
0.0018518
0.00181746
0.00175454
0.00167878
0.00192961
0.00222057
0.00178664
0.00181995
0.00186085
0.00188411
0.00189534
0.00190034
0.00190255
0.00190369
0.00190456
0.00190544
0.00190615
0.00190626
0.00190478
0.00189951
0.00188662
0.00186017
0.00181446
0.00177356
0.00214678
0.00237056
0.00184429
0.00185675
0.00188893
0.00190841
0.00191807
0.00192242
0.00192427
0.00192515
0.00192576
0.0019264
0.00192692
0.00192691
0.00192544
0.00192059
0.00190905
0.0018858
0.00184722
0.00182193
0.00226732
0.00246449
0.0018757
0.00187688
0.00190478
0.00192242
0.00193132
0.00193537
0.00193711
0.00193792
0.00193848
0.0019391
0.00193967
0.00193972
0.00193837
0.00193378
0.00192277
0.0019005
0.0018647
0.00184706
0.00234182
0.00253456
0.00189507
0.00188871
0.00191423
0.00193096
0.0019395
0.00194344
0.00194518
0.00194604
0.00194671
0.0019475
0.00194837
0.00194876
0.0019478
0.00194365
0.00193307
0.00191103
0.00187662
0.00186451
0.00240273
0.00259892
0.00191028
0.00189717
0.00192094
0.00193709
0.00194541
0.00194929
0.00195108
0.00195208
0.001953
0.00195419
0.00195564
0.00195681
0.00195678
0.00195371
0.00194417
0.00192269
0.00188958
0.00188281
0.00246616
0.00266702
0.00192529
0.001905
0.00192699
0.00194257
0.00195063
0.00195443
0.00195625
0.00195743
0.00195874
0.00196056
0.00196295
0.00196563
0.00196748
0.00196693
0.00196021
0.00194109
0.00191023
0.00190925
0.00254362
0.00274426
0.0019422
0.0019137
0.00193359
0.0019484
0.00195605
0.00195962
0.00196139
0.00196276
0.00196457
0.0019673
0.00197119
0.00197626
0.00198211
0.00198688
0.00198772
0.00197683
0.00195201
0.00195655
0.00264745
0.00283488
0.00196239
0.00192427
0.0019415
0.00195518
0.00196208
0.00196518
0.00196674
0.00196823
0.00197061
0.00197456
0.00198073
0.00198984
0.00200276
0.00202032
0.0020421
0.00205837
0.00205862
0.00207077
0.00280469
0.00294376
0.00198729
0.00193761
0.00195135
0.00196329
0.00196899
0.00197129
0.00197242
0.00197391
0.00197687
0.00198236
0.00199183
0.00200775
0.00203482
0.00208158
0.00216011
0.00227426
0.00239562
0.00248233
0.00316265
0.0030774
0.00201866
0.00195472
0.00196383
0.00197338
0.00197751
0.00197882
0.00197944
0.00198094
0.00198459
0.00199199
0.0020061
0.00203339
0.00208862
0.00220387
0.00243833
0.00286556
0.00353079
0.00428047
0.00459322
0.00324697
0.00205879
0.00197705
0.00198069
0.00198802
0.00199126
0.00199235
0.00199324
0.00199544
0.00200039
0.0020104
0.00203083
0.00207588
0.0021833
0.00244488
0.00304854
0.0043323
0.0070462
0.0108757
0.0112201
0.00345412
0.00211013
0.00200877
0.0020098
0.00201829
0.00202375
0.00202771
0.00203198
0.00203783
0.00204668
0.00206151
0.00209074
0.00215961
0.0023429
0.0028467
0.00410463
0.00702526
0.0139407
0.0263169
0.0317696
0.00374683
0.00218107
0.00207229
0.00208286
0.00210449
0.00212376
0.0021418
0.00215998
0.00217923
0.00220079
0.00222795
0.00227124
0.00236376
0.00260135
0.00323071
0.0047755
0.00823991
0.0163828
0.0350417
0.0609375
0.00397223
0.00234084
0.002276
0.00234771
0.00242547
0.00249802
0.00256806
0.00263653
0.00270423
0.00277228
0.00284369
0.00292851
0.00305655
0.00330329
0.00378137
0.00466495
0.00632299
0.0121256
0.0359672
0.0833345
0.00453591
0.00293186
0.00329726
0.00370441
0.00404704
0.00436249
0.00466682
0.00496152
0.00524968
0.00553456
0.00581775
0.00610174
0.006398
0.0067381
0.0070762
0.00726879
0.00750351
0.0103972
0.0320283
0.104312
0.00595746
0.00836558
0.0125035
0.0155759
0.0177211
0.0194771
0.0210349
0.0224432
0.0237553
0.02502
0.0262539
0.0274203
0.0284573
0.0292467
0.029464
0.0291063
0.0283595
0.036209
0.0537843
0.136036
0.0466442
0.08792
0.12937
0.155489
0.171327
0.181338
0.187644
0.191449
0.193702
0.195108
0.196187
0.196985
0.197829
0.197867
0.197421
0.196014
0.19669
0.197188
0.212266
0.183252
)
;

boundaryField
{
    movingWall
    {
        type            zeroGradient;
    }
    fixedWalls
    {
        type            zeroGradient;
    }
    frontAndBack
    {
        type            empty;
    }
}


// ************************************************************************* //
