/*--------------------------------*- C++ -*----------------------------------*\
| =========                 |                                                 |
| \\      /  F ield         | OpenFOAM: The Open Source CFD Toolbox           |
|  \\    /   O peration     | Version:  2312                                  |
|   \\  /    A nd           | Website:  www.openfoam.com                      |
|    \\/     M anipulation  |                                                 |
\*---------------------------------------------------------------------------*/
FoamFile
{
    version     2.0;
    format      ascii;
    arch        "LSB;label=32;scalar=64";
    class       surfaceScalarField;
    location    "0.5";
    object      fluxField;
}
// * * * * * * * * * * * * * * * * * * * * * * * * * * * * * * * * * * * * * //

dimensions      [0 3 -1 0 0 0 0];

oriented        oriented;

internalField   nonuniform List<scalar> 
760
(
-2.07743e-08
2.07855e-08
-5.54989e-08
3.84147e-08
-9.96177e-08
4.63809e-08
-1.43926e-07
4.71886e-08
-1.85512e-07
4.42055e-08
-2.22588e-07
3.93844e-08
-2.5417e-07
3.35646e-08
-2.79592e-07
2.70183e-08
-2.98207e-07
1.97493e-08
-3.09162e-07
1.1691e-08
-3.11925e-07
3.06843e-09
-3.05768e-07
-6.53906e-09
-2.89856e-07
-1.68053e-08
-2.6388e-07
-2.75379e-08
-2.27844e-07
-3.82601e-08
-1.82659e-07
-4.80776e-08
-1.30754e-07
-5.54074e-08
-7.64166e-08
-5.74999e-08
-3.09372e-08
-5.02806e-08
-3.0936e-08
-3.83811e-08
5.56206e-08
-8.02461e-08
8.03856e-08
-1.26563e-07
9.02312e-08
-1.72808e-07
9.09093e-08
-2.16719e-07
8.5872e-08
-2.56599e-07
7.7312e-08
-2.91084e-07
6.6421e-08
-3.19066e-07
5.37452e-08
-3.39606e-07
3.94566e-08
-3.51817e-07
2.35797e-08
-3.54873e-07
6.174e-09
-3.48049e-07
-1.27381e-08
-3.30807e-07
-3.29093e-08
-3.02981e-07
-5.37386e-08
-2.64988e-07
-7.41863e-08
-2.18015e-07
-9.25804e-08
-1.64214e-07
-1.06438e-07
-1.06954e-07
-1.12239e-07
-5.22348e-08
-1.05399e-07
-7.88429e-08
-4.81657e-08
1.01416e-07
-9.34733e-08
1.28357e-07
-1.4049e-07
1.37225e-07
-1.86871e-07
1.36697e-07
-2.30961e-07
1.29469e-07
-2.71395e-07
1.1735e-07
-3.06824e-07
1.01523e-07
-3.36001e-07
8.26778e-08
-3.57833e-07
6.11399e-08
-3.71319e-07
3.70431e-08
-3.75542e-07
1.04895e-08
-3.69719e-07
-1.83616e-08
-3.53285e-07
-4.90296e-08
-3.26053e-07
-8.05568e-08
-2.88392e-07
-1.11358e-07
-2.41276e-07
-1.39109e-07
-1.86376e-07
-1.60739e-07
-1.26422e-07
-1.72481e-07
-6.54015e-08
-1.69912e-07
-1.41556e-07
-5.28848e-08
1.51053e-07
-1.01569e-07
1.8006e-07
-1.51016e-07
1.87264e-07
-1.99232e-07
1.84859e-07
-2.44855e-07
1.75118e-07
-2.86826e-07
1.59409e-07
-3.23963e-07
1.38754e-07
-3.55052e-07
1.13863e-07
-3.78949e-07
8.51419e-08
-3.94573e-07
5.27848e-08
-4.00891e-07
1.69273e-08
-3.96957e-07
-2.21754e-08
-3.8199e-07
-6.38891e-08
-3.55519e-07
-1.06954e-07
-3.1752e-07
-1.49325e-07
-2.68491e-07
-1.88101e-07
-2.09671e-07
-2.1961e-07
-1.43667e-07
-2.39583e-07
-7.47813e-08
-2.4296e-07
-2.12628e-07
-5.57858e-08
2.03456e-07
-1.08067e-07
2.355e-07
-1.61202e-07
2.4103e-07
-2.12787e-07
2.36356e-07
-2.61463e-07
2.2377e-07
-3.0632e-07
2.04328e-07
-3.46349e-07
1.78869e-07
-3.80439e-07
1.4805e-07
-4.07465e-07
1.12278e-07
-4.26293e-07
7.17367e-08
-4.35753e-07
2.65231e-08
-4.34647e-07
-2.31282e-08
-4.21806e-07
-7.65663e-08
-3.96227e-07
-1.32365e-07
-3.57231e-07
-1.88148e-07
-3.04644e-07
-2.40471e-07
-2.39333e-07
-2.84865e-07
-1.64201e-07
-3.15945e-07
-8.49474e-08
-3.26909e-07
-2.93496e-07
-5.87346e-08
2.5862e-07
-1.15071e-07
2.95192e-07
-1.7284e-07
2.99459e-07
-2.28992e-07
2.92385e-07
-2.8201e-07
2.76685e-07
-3.31017e-07
2.53322e-07
-3.75141e-07
2.23018e-07
-4.134e-07
1.86362e-07
-4.44744e-07
1.43706e-07
-4.6802e-07
9.51304e-08
-4.8192e-07
4.05762e-08
-4.84929e-07
-1.99124e-08
-4.75336e-07
-8.58981e-08
-4.51364e-07
-1.56012e-07
-4.11363e-07
-2.27761e-07
-3.54163e-07
-2.97218e-07
-2.80088e-07
-3.58795e-07
-1.92469e-07
-4.05048e-07
-9.90495e-08
-4.259e-07
-3.87879e-07
-6.25898e-08
3.17343e-07
-1.23724e-07
3.59961e-07
-1.87016e-07
3.6348e-07
-2.48744e-07
3.54006e-07
-3.07176e-07
3.34985e-07
-3.61415e-07
3.07512e-07
-4.10718e-07
2.72312e-07
-4.54277e-07
2.29945e-07
-4.91179e-07
1.80672e-07
-5.2032e-07
1.24383e-07
-5.40298e-07
6.07042e-08
-5.49264e-07
-1.07486e-08
-5.44839e-07
-8.99761e-08
-5.24203e-07
-1.76145e-07
-4.84278e-07
-2.67032e-07
-4.22253e-07
-3.58474e-07
-3.37276e-07
-4.43509e-07
-2.32901e-07
-5.11299e-07
-1.19635e-07
-5.4609e-07
-5.01879e-07
-6.77297e-08
3.8082e-07
-1.34644e-07
4.30853e-07
-2.04397e-07
4.34039e-07
-2.72608e-07
4.22125e-07
-3.37326e-07
3.99549e-07
-3.97651e-07
3.67755e-07
-4.53017e-07
3.27631e-07
-5.02865e-07
2.79781e-07
-5.46535e-07
2.24373e-07
-5.83087e-07
1.61035e-07
-6.1116e-07
8.89149e-08
-6.28654e-07
6.93074e-09
-6.32451e-07
-8.57278e-08
-6.18421e-07
-1.8943e-07
-5.81407e-07
-3.02981e-07
-5.15776e-07
-4.22763e-07
-4.18032e-07
-5.40624e-07
-2.91063e-07
-6.40604e-07
-1.49447e-07
-6.9682e-07
-6.4415e-07
-7.43648e-08
4.50472e-07
-1.48246e-07
5.0915e-07
-2.25479e-07
5.12168e-07
-3.00998e-07
4.97558e-07
-3.72663e-07
4.71021e-07
-4.39637e-07
4.34604e-07
-5.01639e-07
3.89537e-07
-5.58501e-07
3.36574e-07
-6.09991e-07
2.75831e-07
-6.55578e-07
2.06642e-07
-6.94095e-07
1.27563e-07
-7.23418e-07
3.65758e-08
-7.39991e-07
-6.85899e-08
-7.38184e-07
-1.90252e-07
-7.09838e-07
-3.29649e-07
-6.44482e-07
-4.85662e-07
-5.32948e-07
-6.50565e-07
-3.74999e-07
-8.01197e-07
-1.91951e-07
-8.92385e-07
-8.26089e-07
-8.2754e-08
5.27997e-07
-1.65022e-07
5.96394e-07
-2.5084e-07
5.99e-07
-3.34382e-07
5.81006e-07
-4.13362e-07
5.4976e-07
-4.87144e-07
5.08206e-07
-5.55895e-07
4.58129e-07
-6.20036e-07
4.00569e-07
-6.80007e-07
3.35678e-07
-7.35977e-07
2.6253e-07
-7.87455e-07
1.79076e-07
-8.32841e-07
8.21831e-08
-8.68588e-07
-3.23918e-08
-8.87842e-07
-1.69835e-07
-8.7874e-07
-3.36224e-07
-8.22758e-07
-5.37193e-07
-6.98641e-07
-7.71111e-07
-4.96704e-07
-1.00638e-06
-2.51017e-07
-1.15699e-06
-1.05969e-06
-9.3393e-08
6.15638e-07
-1.8579e-07
6.94493e-07
-2.8136e-07
6.9574e-07
-3.7342e-07
6.72946e-07
-4.59643e-07
6.3567e-07
-5.39797e-07
5.88112e-07
-6.1473e-07
5.32829e-07
-6.85696e-07
4.713e-07
-7.54091e-07
4.03826e-07
-8.21189e-07
3.29381e-07
-8.87799e-07
2.45506e-07
-9.53805e-07
1.48099e-07
-1.01695e-06
3.08812e-08
-1.07053e-06
-1.15279e-07
-1.09926e-06
-3.04206e-07
-1.07191e-06
-5.56745e-07
-9.41579e-07
-8.93464e-07
-6.73629e-07
-1.28051e-06
-3.27629e-07
-1.5439e-06
-1.36264e-06
-1.07231e-07
7.16366e-07
-2.11939e-07
8.05821e-07
-3.18365e-07
8.03525e-07
-4.18964e-07
7.73369e-07
-5.11622e-07
7.27918e-07
-5.96831e-07
6.73001e-07
-6.76412e-07
6.12115e-07
-7.52686e-07
5.47252e-07
-8.28253e-07
4.79009e-07
-9.05918e-07
4.06564e-07
-9.8861e-07
3.27615e-07
-1.079e-06
2.3798e-07
-1.17858e-06
1.30282e-07
-1.28503e-06
-8.84502e-09
-1.38388e-06
-2.03289e-07
-1.42703e-06
-4.99368e-07
-1.31544e-06
-9.73987e-07
-9.52408e-07
-1.62111e-06
-4.2653e-07
-2.11532e-06
-1.75897e-06
-1.26024e-07
8.36214e-07
-2.45668e-07
9.33567e-07
-3.63502e-07
9.23121e-07
-4.71656e-07
8.81286e-07
-5.68727e-07
8.24486e-07
-6.56424e-07
7.60325e-07
-7.37834e-07
6.93179e-07
-8.1646e-07
6.25483e-07
-8.96181e-07
5.58221e-07
-9.81534e-07
4.91198e-07
-1.07826e-06
4.23281e-07
-1.19383e-06
3.52195e-07
-1.33741e-06
2.72756e-07
-1.51968e-06
1.71595e-07
-1.74403e-06
1.90165e-08
-1.95751e-06
-2.5916e-07
-1.98258e-06
-8.56495e-07
-1.57179e-06
-1.93166e-06
-7.14477e-07
-2.95322e-06
-2.35528e-06
-1.52139e-07
9.76732e-07
-2.89288e-07
1.07927e-06
-4.17779e-07
1.05297e-06
-5.30648e-07
9.93231e-07
-6.2828e-07
9.21113e-07
-7.14247e-07
8.45544e-07
-7.93108e-07
7.7136e-07
-8.69446e-07
7.01117e-07
-9.48123e-07
6.36097e-07
-1.03506e-06
5.77063e-07
-1.1388e-06
5.25278e-07
-1.27307e-06
4.83372e-07
-1.45941e-06
4.55142e-07
-1.73356e-06
4.41273e-07
-2.15684e-06
4.28514e-07
-2.73032e-06
3.09147e-07
-3.16881e-06
-3.75869e-07
-2.87822e-06
-2.22314e-06
-1.61425e-06
-4.39597e-06
-3.72658e-06
-1.9031e-07
1.16852e-06
-3.45749e-07
1.2482e-06
-4.79828e-07
1.18893e-06
-5.91104e-07
1.102e-06
-6.82681e-07
1.01034e-06
-7.60575e-07
9.21823e-07
-8.30781e-07
8.40551e-07
-8.98551e-07
7.68172e-07
-9.68861e-07
7.05807e-07
-1.04763e-06
6.55085e-07
-1.14423e-06
6.20218e-07
-1.27635e-06
6.10968e-07
-1.47471e-06
6.46746e-07
-1.79899e-06
7.593e-07
-2.40076e-06
9.79413e-07
-3.35828e-06
1.14876e-06
-4.19962e-06
3.65396e-07
-4.12936e-06
-2.47979e-06
-2.81978e-06
-6.29852e-06
-6.56345e-06
-2.34302e-07
1.32718e-06
-4.06729e-07
1.39453e-06
-5.38717e-07
1.29921e-06
-6.37628e-07
1.18677e-06
-7.1294e-07
1.07829e-06
-7.73367e-07
9.7851e-07
-8.26348e-07
8.91267e-07
-8.77583e-07
8.17697e-07
-9.30668e-07
7.57685e-07
-9.88942e-07
7.12575e-07
-1.05776e-06
6.88658e-07
-1.1488e-06
7.00513e-07
-1.28127e-06
7.80394e-07
-1.48475e-06
9.82664e-07
-1.88642e-06
1.3687e-06
-2.66914e-06
1.7257e-06
-3.46094e-06
1.11652e-06
-3.70684e-06
-1.97198e-06
-3.06061e-06
-7.01268e-06
-1.0203e-05
-3.24582e-07
1.85331e-06
-4.87169e-07
1.7531e-06
-5.74229e-07
1.51958e-06
-6.30636e-07
1.32401e-06
-6.70384e-07
1.17401e-06
-7.01155e-07
1.04786e-06
-7.26974e-07
9.45091e-07
-7.50964e-07
8.63451e-07
-7.74832e-07
7.98956e-07
-7.97561e-07
7.5008e-07
-8.1649e-07
7.20984e-07
-8.27667e-07
7.24551e-07
-8.19102e-07
7.9103e-07
-7.55936e-07
9.70133e-07
-6.24791e-07
1.31477e-06
-6.06163e-07
1.62441e-06
-5.88415e-07
1.26773e-06
-1.07244e-06
-1.0543e-06
-1.78791e-06
-5.29112e-06
-1.27331e-05
-3.54616e-07
1.67024e-06
-4.48793e-07
1.33804e-06
-4.50221e-07
1.12715e-06
-4.31979e-07
1.04582e-06
-4.05777e-07
9.64497e-07
-3.68506e-07
8.7183e-07
-3.24952e-07
7.93775e-07
-2.80479e-07
7.33312e-07
-2.35903e-07
6.84334e-07
-1.87409e-07
6.43488e-07
-1.26103e-07
6.12175e-07
-3.80427e-08
5.97602e-07
1.11128e-07
6.16086e-07
3.79453e-07
6.94651e-07
8.70169e-07
8.53711e-07
1.40812e-06
9.57359e-07
2.20323e-06
6.4782e-07
1.79033e-06
-8.686e-07
1.92745e-07
-3.06071e-06
-1.23503e-05
-3.33841e-07
2.81397e-06
-2.05665e-07
2.04307e-06
1.09729e-07
1.36233e-06
4.55942e-07
1.05494e-06
8.13027e-07
8.76689e-07
1.14278e-06
7.47064e-07
1.44285e-06
6.55168e-07
1.71574e-06
5.90598e-07
1.9672e-06
5.41698e-07
2.20407e-06
5.01212e-07
2.43474e-06
4.65687e-07
2.67114e-06
4.34734e-07
2.9392e-06
4.11013e-07
3.26266e-06
4.00656e-07
3.72238e-06
4.03354e-07
4.09615e-06
3.5937e-07
4.79313e-06
1.78975e-07
3.60922e-06
-5.82934e-07
2.63615e-06
-1.12465e-06
-8.14146e-06
2.61041e-06
3.81606e-06
4.99542e-06
5.94624e-06
6.68996e-06
7.32558e-06
7.9017e-06
8.43207e-06
8.92348e-06
9.38175e-06
9.81135e-06
1.02153e-05
1.06035e-05
1.09691e-05
1.13634e-05
1.15358e-05
1.20909e-05
9.58176e-06
1.26733e-05
)
;

boundaryField
{
    movingWall
    {
        type            calculated;
        value           uniform 0;
    }
    fixedWalls
    {
        type            calculated;
        value           uniform 0;
    }
    frontAndBack
    {
        type            empty;
        value           nonuniform List<scalar> 0();
    }
}


// ************************************************************************* //
