/*--------------------------------*- C++ -*----------------------------------*\
| =========                 |                                                 |
| \\      /  F ield         | OpenFOAM: The Open Source CFD Toolbox           |
|  \\    /   O peration     | Version:  2312                                  |
|   \\  /    A nd           | Website:  www.openfoam.com                      |
|    \\/     M anipulation  |                                                 |
\*---------------------------------------------------------------------------*/
FoamFile
{
    version     2.0;
    format      ascii;
    arch        "LSB;label=32;scalar=64";
    class       volTensorField;
    location    "0.5";
    object      gradU;
}
// * * * * * * * * * * * * * * * * * * * * * * * * * * * * * * * * * * * * * //

dimensions      [0 0 -1 0 0 0 0];

internalField   nonuniform List<tensor> 
400
(
(-0.0830971 0.0542885 0 -0.0539838 0.083142 0 0 0 0)
(-0.138898 0.0352719 0 -0.182638 0.153659 0 0 0 0)
(-0.176475 0.0127927 0 -0.360342 0.185524 0 0 0 0)
(-0.177234 -0.00283829 0 -0.544381 0.188754 0 0 0 0)
(-0.166343 -0.00964493 0 -0.722555 0.176822 0 0 0 0)
(-0.148304 -0.0122449 0 -0.886369 0.157538 0 0 0 0)
(-0.12633 -0.0135632 0 -1.03038 0.134258 0 0 0 0)
(-0.101686 -0.0148114 0 -1.15064 0.108073 0 0 0 0)
(-0.0744586 -0.0163867 0 -1.24399 0.0789972 0 0 0 0)
(-0.0438226 -0.0173388 0 -1.30726 0.0467638 0 0 0 0)
(-0.01105 -0.0190731 0 -1.33666 0.0122737 0 0 0 0)
(0.0246286 -0.0213258 0 -1.33053 -0.0261562 0 0 0 0)
(0.0636443 -0.0225734 0 -1.28474 -0.0672211 0 0 0 0)
(0.103905 -0.0234839 0 -1.19792 -0.110151 0 0 0 0)
(0.144146 -0.0230544 0 -1.06953 -0.15304 0 0 0 0)
(0.18074 -0.0196965 0 -0.901797 -0.19231 0 0 0 0)
(0.207619 -0.0101722 0 -0.700898 -0.22163 0 0 0 0)
(0.217351 0.0101707 0 -0.478977 -0.229999 0 0 0 0)
(0.181918 0.0380686 0 -0.254506 -0.201122 0 0 0 0)
(0.123749 0.0756151 0 -0.0781824 -0.123744 0 0 0 0)
(-0.153524 0.182513 0 -0.0373034 0.13934 0 0 0 0)
(-0.16746 0.0671097 0 -0.0722623 0.167884 0 0 0 0)
(-0.185269 0.0223027 0 -0.0796352 0.175401 0 0 0 0)
(-0.184979 -0.0058633 0 -0.0838535 0.174883 0 0 0 0)
(-0.175644 -0.0215719 0 -0.0879271 0.166666 0 0 0 0)
(-0.15952 -0.0303188 0 -0.0938674 0.15171 0 0 0 0)
(-0.137939 -0.0359012 0 -0.101361 0.131426 0 0 0 0)
(-0.111929 -0.0404497 0 -0.109252 0.106908 0 0 0 0)
(-0.0821607 -0.0449226 0 -0.116386 0.0788292 0 0 0 0)
(-0.0488443 -0.0493847 0 -0.122119 0.0475549 0 0 0 0)
(-0.0122227 -0.053847 0 -0.126507 0.0124223 0 0 0 0)
(0.0272978 -0.0581691 0 -0.127963 -0.0247962 0 0 0 0)
(0.0689681 -0.0614218 0 -0.127843 -0.0644162 0 0 0 0)
(0.111301 -0.0623355 0 -0.125869 -0.104803 0 0 0 0)
(0.151975 -0.0591045 0 -0.122824 -0.143705 0 0 0 0)
(0.187892 -0.0488928 0 -0.119368 -0.178011 0 0 0 0)
(0.215201 -0.0275168 0 -0.115098 -0.204122 0 0 0 0)
(0.229041 0.0103367 0 -0.10739 -0.218955 0 0 0 0)
(0.218877 0.068187 0 -0.0926313 -0.220475 0 0 0 0)
(0.208939 0.249251 0 -0.045226 -0.191628 0 0 0 0)
(-0.192663 0.361512 0 -0.019308 0.183181 0 0 0 0)
(-0.18123 0.0713328 0 -0.0387069 0.191887 0 0 0 0)
(-0.188066 0.0197918 0 -0.0465837 0.187974 0 0 0 0)
(-0.185526 -0.0115734 0 -0.051227 0.183151 0 0 0 0)
(-0.176357 -0.0328174 0 -0.0544673 0.174388 0 0 0 0)
(-0.161738 -0.0474852 0 -0.0580772 0.160153 0 0 0 0)
(-0.141715 -0.0583659 0 -0.0628293 0.14041 0 0 0 0)
(-0.116711 -0.067408 0 -0.0686858 0.115731 0 0 0 0)
(-0.0873251 -0.0757394 0 -0.0752565 0.0867332 0 0 0 0)
(-0.0539437 -0.0837457 0 -0.0821141 0.0538535 0 0 0 0)
(-0.0168947 -0.0914242 0 -0.0889069 0.0172619 0 0 0 0)
(0.023292 -0.0981642 0 -0.0951655 -0.022494 0 0 0 0)
(0.0657388 -0.10258 0 -0.100469 -0.0644812 0 0 0 0)
(0.108924 -0.102772 0 -0.104266 -0.107273 0 0 0 0)
(0.150647 -0.0962628 0 -0.105884 -0.148685 0 0 0 0)
(0.188465 -0.0801143 0 -0.104247 -0.186114 0 0 0 0)
(0.219597 -0.0511159 0 -0.0976605 -0.217203 0 0 0 0)
(0.239818 -0.00618181 0 -0.0841656 -0.240969 0 0 0 0)
(0.244081 0.0653957 0 -0.062687 -0.25805 0 0 0 0)
(0.261606 0.487718 0 -0.0274989 -0.250853 0 0 0 0)
(-0.211539 0.557581 0 -0.0079049 0.198549 0 0 0 0)
(-0.194736 0.0719024 0 -0.0225755 0.206811 0 0 0 0)
(-0.197789 0.0135669 0 -0.0357983 0.200156 0 0 0 0)
(-0.192863 -0.0194494 0 -0.0470496 0.192649 0 0 0 0)
(-0.182495 -0.0445705 0 -0.0566128 0.182598 0 0 0 0)
(-0.167882 -0.0642973 0 -0.0653965 0.168234 0 0 0 0)
(-0.148547 -0.0803234 0 -0.0743044 0.148921 0 0 0 0)
(-0.124357 -0.094126 0 -0.0837979 0.12474 0 0 0 0)
(-0.0955889 -0.1068 0 -0.0939514 0.0960081 0 0 0 0)
(-0.0624946 -0.118856 0 -0.104579 0.0629668 0 0 0 0)
(-0.0252742 -0.130194 0 -0.115319 0.0257513 0 0 0 0)
(0.0157352 -0.139912 0 -0.125526 -0.0152552 0 0 0 0)
(0.0598678 -0.146201 0 -0.134187 -0.0594379 0 0 0 0)
(0.105887 -0.146539 0 -0.1399 -0.105589 0 0 0 0)
(0.151994 -0.137945 0 -0.140794 -0.151869 0 0 0 0)
(0.196115 -0.117411 0 -0.134564 -0.195968 0 0 0 0)
(0.235282 -0.0823724 0 -0.118911 -0.235485 0 0 0 0)
(0.264015 -0.0305099 0 -0.0929165 -0.268409 0 0 0 0)
(0.275544 0.0583034 0 -0.0582001 -0.292193 0 0 0 0)
(0.299125 0.758154 0 -0.0199831 -0.284289 0 0 0 0)
(-0.223143 0.766872 0 -0.0048218 0.209611 0 0 0 0)
(-0.209124 0.0729393 0 -0.0185774 0.221759 0 0 0 0)
(-0.212541 0.00563025 0 -0.0354299 0.215067 0 0 0 0)
(-0.20634 -0.0291315 0 -0.051865 0.205988 0 0 0 0)
(-0.194704 -0.0572322 0 -0.0671756 0.194605 0 0 0 0)
(-0.179429 -0.0811619 0 -0.0814445 0.179675 0 0 0 0)
(-0.160116 -0.10186 0 -0.0953201 0.160461 0 0 0 0)
(-0.136358 -0.120321 0 -0.109392 0.136747 0 0 0 0)
(-0.108107 -0.137512 0 -0.124 0.108544 0 0 0 0)
(-0.0753111 -0.154002 0 -0.139179 0.0758078 0 0 0 0)
(-0.0378415 -0.169646 0 -0.154611 0.0383832 0 0 0 0)
(0.00442418 -0.183353 0 -0.169505 -0.00381131 0 0 0 0)
(0.0513652 -0.192914 0 -0.182381 -0.0507086 0 0 0 0)
(0.102317 -0.195204 0 -0.191001 -0.101644 0 0 0 0)
(0.155983 -0.186642 0 -0.192381 -0.155292 0 0 0 0)
(0.210348 -0.16373 0 -0.18299 -0.209481 0 0 0 0)
(0.261244 -0.123556 0 -0.159698 -0.26102 0 0 0 0)
(0.300528 -0.0628895 0 -0.12197 -0.305447 0 0 0 0)
(0.317015 0.0495159 0 -0.0732377 -0.335796 0 0 0 0)
(0.339789 1.0642 0 -0.0238352 -0.323469 0 0 0 0)
(-0.234938 0.988951 0 -0.00592693 0.220655 0 0 0 0)
(-0.225344 0.077358 0 -0.021289 0.23877 0 0 0 0)
(-0.231076 -0.0022038 0 -0.0413395 0.233714 0 0 0 0)
(-0.224608 -0.039911 0 -0.0619181 0.224114 0 0 0 0)
(-0.212074 -0.0708834 0 -0.0819106 0.211661 0 0 0 0)
(-0.196027 -0.0984418 0 -0.100942 0.195978 0 0 0 0)
(-0.176494 -0.123252 0 -0.119435 0.176597 0 0 0 0)
(-0.153036 -0.146043 0 -0.13804 0.153251 0 0 0 0)
(-0.125376 -0.167739 0 -0.157313 0.125711 0 0 0 0)
(-0.0931055 -0.189017 0 -0.17754 0.0935746 0 0 0 0)
(-0.0556001 -0.209814 0 -0.198565 0.0562125 0 0 0 0)
(-0.0120346 -0.229004 0 -0.219611 0.0128634 0 0 0 0)
(0.0383716 -0.244034 0 -0.238857 -0.0373275 0 0 0 0)
(0.0958866 -0.251123 0 -0.253274 -0.0945866 0 0 0 0)
(0.160005 -0.245782 0 -0.258629 -0.158454 0 0 0 0)
(0.228799 -0.223139 0 -0.249557 -0.226988 0 0 0 0)
(0.296301 -0.178338 0 -0.220881 -0.295719 0 0 0 0)
(0.350475 -0.105286 0 -0.170892 -0.356413 0 0 0 0)
(0.373679 0.040281 0 -0.103907 -0.395963 0 0 0 0)
(0.396198 1.41742 0 -0.034844 -0.377534 0 0 0 0)
(-0.250359 1.2263 0 -0.00862716 0.234893 0 0 0 0)
(-0.244536 0.0859985 0 -0.0273532 0.259074 0 0 0 0)
(-0.25317 -0.00902624 0 -0.0509388 0.256085 0 0 0 0)
(-0.246911 -0.051185 0 -0.0752901 0.246485 0 0 0 0)
(-0.233728 -0.0853673 0 -0.099174 0.233202 0 0 0 0)
(-0.216954 -0.116226 0 -0.12209 0.216759 0 0 0 0)
(-0.197214 -0.144587 0 -0.144448 0.197177 0 0 0 0)
(-0.174236 -0.171207 0 -0.167057 0.174329 0 0 0 0)
(-0.147608 -0.197189 0 -0.190806 0.147864 0 0 0 0)
(-0.116563 -0.223501 0 -0.216357 0.117012 0 0 0 0)
(-0.0799118 -0.250357 0 -0.24391 0.0805118 0 0 0 0)
(-0.0358677 -0.276893 0 -0.273049 0.0366551 0 0 0 0)
(0.0177019 -0.300364 0 -0.301852 -0.0163117 0 0 0 0)
(0.0825453 -0.31633 0 -0.326609 -0.0805309 0 0 0 0)
(0.1597 -0.319043 0 -0.341617 -0.157084 0 0 0 0)
(0.248096 -0.300995 0 -0.33856 -0.245025 0 0 0 0)
(0.339909 -0.252981 0 -0.307892 -0.338855 0 0 0 0)
(0.417502 -0.163134 0 -0.243884 -0.425004 0 0 0 0)
(0.453063 0.0283945 0 -0.150492 -0.48076 0 0 0 0)
(0.47854 1.8377 0 -0.0510977 -0.455999 0 0 0 0)
(-0.270919 1.48292 0 -0.0119131 0.253906 0 0 0 0)
(-0.267656 0.0985502 0 -0.0351868 0.28357 0 0 0 0)
(-0.279013 -0.0147928 0 -0.0629024 0.282235 0 0 0 0)
(-0.272844 -0.0627943 0 -0.0909475 0.272478 0 0 0 0)
(-0.258874 -0.10061 0 -0.11807 0.258253 0 0 0 0)
(-0.241301 -0.134467 0 -0.143876 0.240973 0 0 0 0)
(-0.221462 -0.165681 0 -0.169014 0.221277 0 0 0 0)
(-0.199394 -0.195355 0 -0.194669 0.199344 0 0 0 0)
(-0.174676 -0.225056 0 -0.222226 0.174805 0 0 0 0)
(-0.14621 -0.256369 0 -0.253022 0.146607 0 0 0 0)
(-0.112291 -0.29017 0 -0.28801 0.112843 0 0 0 0)
(-0.0699766 -0.325828 0 -0.32718 0.0707173 0 0 0 0)
(-0.0151888 -0.36122 0 -0.369434 0.0169931 0 0 0 0)
(0.0561221 -0.391895 0 -0.411175 -0.0531432 0 0 0 0)
(0.148054 -0.410277 0 -0.44475 -0.143796 0 0 0 0)
(0.262524 -0.40491 0 -0.457491 -0.257154 0 0 0 0)
(0.390977 -0.358316 0 -0.431422 -0.388462 0 0 0 0)
(0.507875 -0.247191 0 -0.351263 -0.517222 0 0 0 0)
(0.566465 0.00928615 0 -0.21713 -0.602922 0 0 0 0)
(0.597787 2.35418 0 -0.0721343 -0.569085 0 0 0 0)
(-0.297459 1.76377 0 -0.0156147 0.278608 0 0 0 0)
(-0.295525 0.114327 0 -0.0444824 0.313188 0 0 0 0)
(-0.30893 -0.0201185 0 -0.0770313 0.312517 0 0 0 0)
(-0.302079 -0.0751663 0 -0.108742 0.301729 0 0 0 0)
(-0.286657 -0.116872 0 -0.138354 0.285889 0 0 0 0)
(-0.267898 -0.153202 0 -0.165788 0.267397 0 0 0 0)
(-0.248006 -0.186217 0 -0.192184 0.247623 0 0 0 0)
(-0.227448 -0.217679 0 -0.219327 0.227172 0 0 0 0)
(-0.20596 -0.249926 0 -0.249353 0.205834 0 0 0 0)
(-0.182347 -0.285463 0 -0.284537 0.182426 0 0 0 0)
(-0.15407 -0.326247 0 -0.327024 0.154594 0 0 0 0)
(-0.117292 -0.372743 0 -0.378155 0.11858 0 0 0 0)
(-0.0662931 -0.424225 0 -0.438593 0.0685514 0 0 0 0)
(0.00722941 -0.477119 0 -0.505955 -0.00328586 0 0 0 0)
(0.113384 -0.523054 0 -0.571729 -0.10667 0 0 0 0)
(0.261424 -0.545662 0 -0.617604 -0.251596 0 0 0 0)
(0.446137 -0.513048 0 -0.610326 -0.439762 0 0 0 0)
(0.631794 -0.377594 0 -0.51211 -0.642372 0 0 0 0)
(0.732192 -0.0234688 0 -0.310452 -0.78226 0 0 0 0)
(0.767805 3.0097 0 -0.0958275 -0.727758 0 0 0 0)
(-0.331016 2.07471 0 -0.0201123 0.3101 0 0 0 0)
(-0.329072 0.132459 0 -0.0560005 0.348974 0 0 0 0)
(-0.343272 -0.0262519 0 -0.094173 0.347329 0 0 0 0)
(-0.334166 -0.0894221 0 -0.129354 0.333792 0 0 0 0)
(-0.31592 -0.134942 0 -0.160331 0.314955 0 0 0 0)
(-0.295131 -0.172734 0 -0.187591 0.294407 0 0 0 0)
(-0.275001 -0.205906 0 -0.213048 0.274366 0 0 0 0)
(-0.256563 -0.237144 0 -0.239315 0.255983 0 0 0 0)
(-0.239886 -0.269802 0 -0.269465 0.239388 0 0 0 0)
(-0.223881 -0.307609 0 -0.306936 0.223555 0 0 0 0)
(-0.205909 -0.354016 0 -0.355509 0.206052 0 0 0 0)
(-0.181546 -0.41187 0 -0.419308 0.182429 0 0 0 0)
(-0.142989 -0.483086 0 -0.502238 0.144793 0 0 0 0)
(-0.0770135 -0.567116 0 -0.605579 0.0816688 0 0 0 0)
(0.0364054 -0.658586 0 -0.723801 -0.026301 0 0 0 0)
(0.223927 -0.738003 0 -0.833904 -0.206123 0 0 0 0)
(0.496471 -0.749093 0 -0.875822 -0.482183 0 0 0 0)
(0.807748 -0.589688 0 -0.758705 -0.820745 0 0 0 0)
(0.982748 -0.0760995 0 -0.435815 -1.05841 0 0 0 0)
(1.00407 3.8642 0 -0.106898 -0.934402 0 0 0 0)
(-0.373572 2.42285 0 -0.0263525 0.350567 0 0 0 0)
(-0.369586 0.151556 0 -0.0715565 0.392398 0 0 0 0)
(-0.382283 -0.0353011 0 -0.116113 0.386956 0 0 0 0)
(-0.368237 -0.107541 0 -0.153985 0.367762 0 0 0 0)
(-0.344894 -0.156256 0 -0.184345 0.34364 0 0 0 0)
(-0.320615 -0.193791 0 -0.208695 0.319622 0 0 0 0)
(-0.299731 -0.22464 0 -0.23005 0.298803 0 0 0 0)
(-0.283864 -0.252657 0 -0.252019 0.282924 0 0 0 0)
(-0.273581 -0.282354 0 -0.278584 0.272592 0 0 0 0)
(-0.268392 -0.318799 0 -0.314398 0.267404 0 0 0 0)
(-0.266442 -0.367373 0 -0.365364 0.265717 0 0 0 0)
(-0.26402 -0.434003 0 -0.439257 0.263662 0 0 0 0)
(-0.252564 -0.524985 0 -0.54537 0.253092 0 0 0 0)
(-0.214334 -0.648213 0 -0.694591 0.218224 0 0 0 0)
(-0.114942 -0.810846 0 -0.894179 0.128072 0 0 0 0)
(0.109403 -1.00154 0 -1.12637 -0.0782106 0 0 0 0)
(0.521336 -1.12767 0 -1.2907 -0.489415 0 0 0 0)
(1.0718 -0.953824 0 -1.1765 -1.09649 0 0 0 0)
(1.384 -0.137126 0 -0.646317 -1.54763 0 0 0 0)
(1.31052 5.00252 0 -0.0557353 -1.2118 0 0 0 0)
(-0.428925 2.81768 0 -0.0361634 0.402909 0 0 0 0)
(-0.418832 0.168849 0 -0.0943625 0.445309 0 0 0 0)
(-0.425701 -0.050888 0 -0.145153 0.431141 0 0 0 0)
(-0.402399 -0.132738 0 -0.183412 0.401693 0 0 0 0)
(-0.37063 -0.183081 0 -0.209533 0.368993 0 0 0 0)
(-0.340836 -0.217571 0 -0.226802 0.339557 0 0 0 0)
(-0.318325 -0.242605 0 -0.239707 0.317142 0 0 0 0)
(-0.305097 -0.263356 0 -0.25271 0.303808 0 0 0 0)
(-0.302265 -0.285321 0 -0.270347 0.300733 0 0 0 0)
(-0.310662 -0.314483 0 -0.298011 0.30873 0 0 0 0)
(-0.330768 -0.357758 0 -0.343369 0.328437 0 0 0 0)
(-0.361551 -0.424495 0 -0.418465 0.359527 0 0 0 0)
(-0.398323 -0.528524 0 -0.541649 0.397602 0 0 0 0)
(-0.425822 -0.692136 0 -0.740221 0.425735 0 0 0 0)
(-0.395375 -0.955021 0 -1.05638 0.403669 0 0 0 0)
(-0.172591 -1.35549 0 -1.52268 0.22951 0 0 0 0)
(0.446342 -1.76738 0 -2.0197 -0.32209 0 0 0 0)
(1.45213 -1.64791 0 -2.14432 -1.3624 0 0 0 0)
(2.10351 -0.191404 0 -1.44832 -2.28569 0 0 0 0)
(1.70612 6.62363 0 -0.0990727 -1.58534 0 0 0 0)
(-0.504098 3.27107 0 -0.0523707 0.479393 0 0 0 0)
(-0.478575 0.179788 0 -0.127262 0.510986 0 0 0 0)
(-0.471333 -0.0789167 0 -0.182133 0.478383 0 0 0 0)
(-0.432618 -0.169689 0 -0.215523 0.431665 0 0 0 0)
(-0.388283 -0.218393 0 -0.231211 0.386272 0 0 0 0)
(-0.350789 -0.245641 0 -0.235422 0.349297 0 0 0 0)
(-0.325639 -0.260388 0 -0.234245 0.324258 0 0 0 0)
(-0.314505 -0.269067 0 -0.232539 0.312922 0 0 0 0)
(-0.318882 -0.277432 0 -0.234501 0.316847 0 0 0 0)
(-0.341413 -0.291095 0 -0.244981 0.338537 0 0 0 0)
(-0.386896 -0.316577 0 -0.271596 0.382664 0 0 0 0)
(-0.4623 -0.364838 0 -0.329179 0.456858 0 0 0 0)
(-0.57432 -0.458778 0 -0.447116 0.569897 0 0 0 0)
(-0.729062 -0.642146 0 -0.676204 0.721761 0 0 0 0)
(-0.897403 -1.00707 0 -1.11792 0.889221 0 0 0 0)
(-0.853917 -1.7273 0 -1.97392 0.960832 0 0 0 0)
(-0.100306 -2.71958 0 -3.23928 0.46997 0 0 0 0)
(1.64318 -2.91742 0 -4.17418 -1.2422 0 0 0 0)
(3.42925 -0.360069 0 -3.52906 -3.3516 0 0 0 0)
(2.85791 8.87355 0 -1.2218 -2.38523 0 0 0 0)
(-0.608558 3.80806 0 -0.0807791 0.562074 0 0 0 0)
(-0.548595 0.16784 0 -0.176362 0.582793 0 0 0 0)
(-0.513962 -0.130209 0 -0.223962 0.519396 0 0 0 0)
(-0.451477 -0.22485 0 -0.241345 0.447782 0 0 0 0)
(-0.390529 -0.265449 0 -0.236446 0.38651 0 0 0 0)
(-0.34387 -0.279585 0 -0.219371 0.340876 0 0 0 0)
(-0.315442 -0.27898 0 -0.197231 0.312722 0 0 0 0)
(-0.305353 -0.270766 0 -0.174558 0.302535 0 0 0 0)
(-0.314708 -0.259706 0 -0.153806 0.311504 0 0 0 0)
(-0.347756 -0.248666 0 -0.136915 0.343458 0 0 0 0)
(-0.414965 -0.239437 0 -0.127461 0.40799 0 0 0 0)
(-0.537071 -0.237262 0 -0.136418 0.524709 0 0 0 0)
(-0.745349 -0.263621 0 -0.193656 0.729543 0 0 0 0)
(-1.09663 -0.372812 0 -0.355546 1.07871 0 0 0 0)
(-1.69309 -0.71595 0 -0.761701 1.63799 0 0 0 0)
(-2.29395 -1.77474 0 -1.86522 2.27323 0 0 0 0)
(-1.75392 -3.97041 0 -3.73785 1.9225 0 0 0 0)
(1.16234 -5.46947 0 -5.13027 -1.16591 0 0 0 0)
(5.05589 -1.33443 0 -5.10001 -5.77101 0 0 0 0)
(6.45698 12.3605 0 -3.32121 -5.48518 0 0 0 0)
(-0.761239 4.41593 0 -0.108727 0.767148 0 0 0 0)
(-0.621758 0.13711 0 -0.219925 0.675749 0 0 0 0)
(-0.536316 -0.213927 0 -0.249838 0.543857 0 0 0 0)
(-0.445102 -0.302575 0 -0.233914 0.435061 0 0 0 0)
(-0.36631 -0.3253 0 -0.194008 0.35691 0 0 0 0)
(-0.311574 -0.319429 0 -0.144632 0.305116 0 0 0 0)
(-0.280826 -0.29873 0 -0.0918478 0.276764 0 0 0 0)
(-0.27108 -0.270285 0 -0.0411129 0.268221 0 0 0 0)
(-0.281239 -0.236509 0 0.00856531 0.27884 0 0 0 0)
(-0.315068 -0.194609 0 0.0612568 0.312087 0 0 0 0)
(-0.386399 -0.135326 0 0.123224 0.379758 0 0 0 0)
(-0.528495 -0.0432844 0 0.200967 0.510381 0 0 0 0)
(-0.793448 0.0952235 0 0.296127 0.766416 0 0 0 0)
(-1.29711 0.266301 0 0.416443 1.27211 0 0 0 0)
(-2.40708 0.187449 0 0.578812 2.2036 0 0 0 0)
(-3.83006 -1.44279 0 0.502865 3.35846 0 0 0 0)
(-3.36536 -6.15872 0 -0.258145 2.96506 0 0 0 0)
(0.281018 -10.6109 0 -0.910377 -1.02661 0 0 0 0)
(5.23831 -4.67933 0 -2.40413 -7.61019 0 0 0 0)
(11.2791 20.1297 0 -3.38134 -11.3475 0 0 0 0)
(-0.937209 5.25095 0 -0.215332 0.634646 0 0 0 0)
(-0.689706 -0.0554515 0 -0.321756 0.585303 0 0 0 0)
(-0.527951 -0.370897 0 -0.243924 0.441107 0 0 0 0)
(-0.395646 -0.411797 0 -0.133679 0.339081 0 0 0 0)
(-0.301246 -0.395395 0 -0.0244499 0.271815 0 0 0 0)
(-0.24171 -0.35973 0 0.0736379 0.226748 0 0 0 0)
(-0.211924 -0.315875 0 0.164039 0.202863 0 0 0 0)
(-0.20494 -0.268691 0 0.25119 0.198102 0 0 0 0)
(-0.212338 -0.21584 0 0.339159 0.207511 0 0 0 0)
(-0.233098 -0.147748 0 0.436959 0.229961 0 0 0 0)
(-0.275255 -0.0411428 0 0.563308 0.273763 0 0 0 0)
(-0.364169 0.149396 0 0.747642 0.358181 0 0 0 0)
(-0.529872 0.498105 0 1.0471 0.534592 0 0 0 0)
(-0.813939 1.06437 0 1.57535 0.893458 0 0 0 0)
(-1.60667 1.3704 0 2.59686 1.55713 0 0 0 0)
(-3.13091 -1.01328 0 4.50701 2.30774 0 0 0 0)
(-3.16717 -8.35548 0 6.50144 3.00449 0 0 0 0)
(-0.983636 -16.0447 0 7.94336 2.03124 0 0 0 0)
(2.58493 -11.6553 0 4.2843 -2.85664 0 0 0 0)
(12.2424 31.3181 0 -0.156827 -14.5583 0 0 0 0)
(-1.29833 5.63588 0 -0.265526 2.10452 0 0 0 0)
(-0.65035 -0.0564295 0 -0.21573 1.43429 0 0 0 0)
(-0.34824 -0.460149 0 0.0474738 0.881485 0 0 0 0)
(-0.225628 -0.471867 0 0.306507 0.548984 0 0 0 0)
(-0.158993 -0.437632 0 0.51609 0.382861 0 0 0 0)
(-0.123085 -0.388381 0 0.712561 0.277385 0 0 0 0)
(-0.103274 -0.327375 0 0.906885 0.215297 0 0 0 0)
(-0.0959601 -0.265637 0 1.0987 0.183016 0 0 0 0)
(-0.0954706 -0.20465 0 1.28972 0.165083 0 0 0 0)
(-0.0909195 -0.128357 0 1.48934 0.150018 0 0 0 0)
(-0.0757154 -0.00710573 0 1.71679 0.129302 0 0 0 0)
(-0.0447066 0.217545 0 2.00982 0.0961525 0 0 0 0)
(0.0342615 0.630501 0 2.4332 0.0425454 0 0 0 0)
(0.252661 1.28884 0 3.13637 -0.0501256 0 0 0 0)
(0.524581 1.60173 0 4.32044 -0.215689 0 0 0 0)
(0.0745113 0.00456774 0 6.7059 -0.405157 0 0 0 0)
(0.0709929 -6.43522 0 9.60317 0.604832 0 0 0 0)
(-1.93612 -16.4721 0 13.0535 3.67072 0 0 0 0)
(-2.86188 -21.2688 0 8.93521 6.88624 0 0 0 0)
(7.15165 37.5446 0 4.07822 -10.1203 0 0 0 0)
(-1.41846 8.78977 0 -0.185444 -0.732272 0 0 0 0)
(-0.376706 -1.27848 0 0.148405 -1.66025 0 0 0 0)
(-0.00571439 -1.25621 0 0.977612 -1.56974 0 0 0 0)
(0.0729696 -0.910421 0 1.75822 -1.11276 0 0 0 0)
(0.104807 -0.666994 0 2.58809 -0.83805 0 0 0 0)
(0.149086 -0.527295 0 3.34555 -0.704104 0 0 0 0)
(0.174215 -0.410244 0 4.03018 -0.605264 0 0 0 0)
(0.177892 -0.318905 0 4.64913 -0.520555 0 0 0 0)
(0.178305 -0.248837 0 5.21769 -0.458486 0 0 0 0)
(0.193977 -0.183529 0 5.75042 -0.426365 0 0 0 0)
(0.245224 -0.0950084 0 6.25612 -0.435235 0 0 0 0)
(0.35224 0.0626397 0 6.74881 -0.507798 0 0 0 0)
(0.596682 0.351827 0 7.24641 -0.699778 0 0 0 0)
(1.0733 0.806134 0 7.78679 -1.10193 0 0 0 0)
(1.96286 1.01537 0 8.28759 -1.84425 0 0 0 0)
(2.15182 -0.192757 0 9.1011 -2.6682 0 0 0 0)
(3.18041 -4.2796 0 9.70816 -2.47962 0 0 0 0)
(-1.65159 -9.76332 0 11.818 0.742787 0 0 0 0)
(-6.39033 -25.4463 0 6.90864 8.92164 0 0 0 0)
(-0.770979 34.5522 0 10.7876 1.53114 0 0 0 0)
(-1.33536 3.24336 0 4.62355 4.57491 0 0 0 0)
(0.512706 -0.8939 0 7.23656 2.82011 0 0 0 0)
(1.26157 0.0873352 0 9.82287 0.940729 0 0 0 0)
(1.38485 0.259826 0 11.9597 0.0364818 0 0 0 0)
(1.42834 -0.0289725 0 13.5532 -0.351236 0 0 0 0)
(1.319 -0.155595 0 14.8298 -0.499066 0 0 0 0)
(1.2003 -0.143827 0 15.9466 -0.554427 0 0 0 0)
(1.09155 -0.11886 0 16.96 -0.570858 0 0 0 0)
(1.00582 -0.11046 0 17.8902 -0.570544 0 0 0 0)
(0.947509 -0.105106 0 18.7473 -0.569105 0 0 0 0)
(0.922678 -0.0885381 0 19.5293 -0.585952 0 0 0 0)
(0.945587 -0.0469979 0 20.2205 -0.651472 0 0 0 0)
(1.07223 0.0363696 0 20.793 -0.820289 0 0 0 0)
(1.29383 0.144368 0 21.1765 -1.17598 0 0 0 0)
(1.8389 0.035461 0 21.1822 -1.80143 0 0 0 0)
(1.49509 -0.630806 0 20.7907 -2.39196 0 0 0 0)
(2.78792 -3.02424 0 19.72 -1.87538 0 0 0 0)
(-4.73564 -5.07079 0 19.8306 1.14266 0 0 0 0)
(-3.8923 -20.4805 0 11.3351 7.74422 0 0 0 0)
(-10.5446 27.0918 0 38.5871 16.8354 0 0 0 0)
(10.4416 16.1848 0 196.533 -11.2559 0 0 0 0)
(4.82261 -4.91267 0 194.361 -8.17227 0 0 0 0)
(4.71741 -4.03983 0 191.197 -5.44931 0 0 0 0)
(3.8033 -2.20239 0 188.382 -4.21977 0 0 0 0)
(2.97488 -1.20254 0 186.009 -3.50675 0 0 0 0)
(2.5425 -0.730486 0 183.979 -2.98825 0 0 0 0)
(2.30447 -0.482036 0 182.148 -2.62067 0 0 0 0)
(2.12148 -0.335021 0 180.474 -2.36239 0 0 0 0)
(1.96563 -0.247084 0 178.935 -2.16679 0 0 0 0)
(1.8331 -0.198938 0 177.503 -2.00485 0 0 0 0)
(1.71837 -0.177376 0 176.154 -1.86275 0 0 0 0)
(1.61589 -0.171697 0 174.862 -1.73893 0 0 0 0)
(1.55269 -0.172681 0 173.593 -1.64405 0 0 0 0)
(1.46253 -0.175005 0 172.237 -1.60262 0 0 0 0)
(1.57711 -0.200602 0 170.836 -1.61342 0 0 0 0)
(0.689611 -0.26671 0 168.821 -1.43748 0 0 0 0)
(2.22027 -0.744983 0 168.652 -0.7159 0 0 0 0)
(-10.0365 -0.143714 0 163.812 2.33174 0 0 0 0)
(12.3661 -9.75363 0 183.424 4.49861 0 0 0 0)
(-50.6932 9.97261 0 155.339 32.5658 0 0 0 0)
)
;

boundaryField
{
    movingWall
    {
        type            extrapolatedCalculated;
        value           nonuniform List<tensor> 
20
(
(10.4416 16.1848 0 383.666 -37.0024 0 0 0 0)
(4.82261 -4.91267 0 374.567 -27.7367 0 0 0 0)
(4.71741 -4.03983 0 364.376 -17.3517 0 0 0 0)
(3.8033 -2.20239 0 355.698 -11.5774 0 0 0 0)
(2.97488 -1.20254 0 349.162 -8.54219 0 0 0 0)
(2.5425 -0.730486 0 343.798 -6.76724 0 0 0 0)
(2.30447 -0.482036 0 338.992 -5.62025 0 0 0 0)
(2.12148 -0.335021 0 334.58 -4.8391 0 0 0 0)
(1.96563 -0.247084 0 330.507 -4.28016 0 0 0 0)
(1.8331 -0.198938 0 326.718 -3.85076 0 0 0 0)
(1.71837 -0.177376 0 323.174 -3.48441 0 0 0 0)
(1.61589 -0.171697 0 319.844 -3.14126 0 0 0 0)
(1.55269 -0.172681 0 316.711 -2.79763 0 0 0 0)
(1.46253 -0.175005 0 313.634 -2.45053 0 0 0 0)
(1.57711 -0.200602 0 310.86 -2.0976 0 0 0 0)
(0.689611 -0.26671 0 307.325 -1.64812 0 0 0 0)
(2.22027 -0.744983 0 308.102 -1.03076 0 0 0 0)
(-10.0365 -0.143714 0 298.444 1.33181 0 0 0 0)
(12.3661 -9.75363 0 348.248 -0.455906 0 0 0 0)
(-50.6932 9.97261 0 248.979 40.3463 0 0 0 0)
)
;
    }
    fixedWalls
    {
        type            extrapolatedCalculated;
        value           nonuniform List<tensor> 
60
(
(-0.0610272 0.0614868 0 -0.0539838 0.083142 0 0 0 0)
(-0.154908 0.271081 0 -0.0373034 0.13934 0 0 0 0)
(-0.210241 0.618848 0 -0.019308 0.183181 0 0 0 0)
(-0.23214 1.00381 0 -0.0079049 0.198549 0 0 0 0)
(-0.241861 1.41305 0 -0.0048218 0.209611 0 0 0 0)
(-0.251427 1.84225 0 -0.00592693 0.220655 0 0 0 0)
(-0.265568 2.29567 0 -0.00862716 0.234893 0 0 0 0)
(-0.285936 2.78182 0 -0.0119131 0.253906 0 0 0 0)
(-0.313221 3.31129 0 -0.0156147 0.278608 0 0 0 0)
(-0.348395 3.89626 0 -0.0201123 0.3101 0 0 0 0)
(-0.39367 4.55169 0 -0.0263525 0.350567 0 0 0 0)
(-0.453804 5.29852 0 -0.0361634 0.402909 0 0 0 0)
(-0.538324 6.16333 0 -0.0523707 0.479393 0 0 0 0)
(-0.663287 7.21609 0 -0.0807791 0.562074 0 0 0 0)
(-0.86144 8.41162 0 -0.108727 0.767148 0 0 0 0)
(-1.09819 10.2847 0 -0.215332 0.634646 0 0 0 0)
(-1.72277 10.9502 0 -0.265526 2.10452 0 0 0 0)
(-2.1603 18.7028 0 -0.185444 -0.732272 0 0 0 0)
(-2.46454 8.02112 0 4.62355 4.57491 0 0 0 0)
(16.3339 37.0024 0 196.533 -11.2559 0 0 0 0)
(0.100683 0.0987597 0 -0.0781824 -0.123744 0 0 0 0)
(0.212047 0.396216 0 -0.045226 -0.191628 0 0 0 0)
(0.281587 0.865271 0 -0.0274989 -0.250853 0 0 0 0)
(0.322042 1.39963 0 -0.0199831 -0.284289 0 0 0 0)
(0.36152 2.00242 0 -0.0238352 -0.323469 0 0 0 0)
(0.417383 2.6935 0 -0.034844 -0.377534 0 0 0 0)
(0.500896 3.51256 0 -0.0510977 -0.455999 0 0 0 0)
(0.621774 4.5175 0 -0.0721343 -0.569085 0 0 0 0)
(0.789433 5.7889 0 -0.0958275 -0.727758 0 0 0 0)
(1.00508 7.42853 0 -0.106898 -0.934402 0 0 0 0)
(1.21702 9.52651 0 -0.0557353 -1.2118 0 0 0 0)
(1.22803 12.2757 0 -0.0990727 -1.58534 0 0 0 0)
(1.61331 15.8679 0 -1.2218 -2.38523 0 0 0 0)
(6.11524 21.8166 0 -3.32121 -5.48518 0 0 0 0)
(14.8982 37.8086 0 -3.38134 -11.3475 0 0 0 0)
(19.6406 67.2067 0 -0.156827 -14.5583 0 0 0 0)
(15.5255 96.0416 0 4.07822 -10.1203 0 0 0 0)
(3.32773 107.688 0 10.7876 1.53114 0 0 0 0)
(-27.625 89.9171 0 38.5871 16.8354 0 0 0 0)
(-151.021 40.3463 0 155.339 32.5658 0 0 0 0)
(-0.0830971 0.0542885 0 -0.0610272 0.0614868 0 0 0 0)
(-0.138898 0.0352719 0 -0.271361 0.155667 0 0 0 0)
(-0.176475 0.0127927 0 -0.616621 0.202574 0 0 0 0)
(-0.177234 -0.00283829 0 -0.977262 0.206838 0 0 0 0)
(-0.166343 -0.00964493 0 -1.32556 0.191221 0 0 0 0)
(-0.148304 -0.0122449 0 -1.64263 0.168258 0 0 0 0)
(-0.12633 -0.0135632 0 -1.91877 0.142242 0 0 0 0)
(-0.101686 -0.0148114 0 -2.14795 0.114005 0 0 0 0)
(-0.0744586 -0.0163867 0 -2.32552 0.082996 0 0 0 0)
(-0.0438226 -0.0173388 0 -2.44579 0.0484583 0 0 0 0)
(-0.01105 -0.0190731 0 -2.50081 0.013641 0 0 0 0)
(0.0246286 -0.0213258 0 -2.48999 -0.027834 0 0 0 0)
(0.0636443 -0.0225734 0 -2.40229 -0.0716622 0 0 0 0)
(0.103905 -0.0234839 0 -2.23541 -0.118128 0 0 0 0)
(0.144146 -0.0230544 0 -1.98667 -0.165598 0 0 0 0)
(0.18074 -0.0196965 0 -1.65883 -0.210345 0 0 0 0)
(0.207619 -0.0101722 0 -1.26372 -0.244383 0 0 0 0)
(0.217351 0.0101707 0 -0.828353 -0.251034 0 0 0 0)
(0.181918 0.0380686 0 -0.394312 -0.203701 0 0 0 0)
(0.123749 0.0756151 0 -0.100683 -0.0987597 0 0 0 0)
)
;
    }
    frontAndBack
    {
        type            empty;
    }
}


// ************************************************************************* //
