/*--------------------------------*- C++ -*----------------------------------*\
| =========                 |                                                 |
| \\      /  F ield         | OpenFOAM: The Open Source CFD Toolbox           |
|  \\    /   O peration     | Version:  2312                                  |
|   \\  /    A nd           | Website:  www.openfoam.com                      |
|    \\/     M anipulation  |                                                 |
\*---------------------------------------------------------------------------*/
FoamFile
{
    version     2.0;
    format      ascii;
    arch        "LSB;label=32;scalar=64";
    class       volVectorField;
    location    "0.5";
    object      gradPhi;
}
// * * * * * * * * * * * * * * * * * * * * * * * * * * * * * * * * * * * * * //

dimensions      [0 2 -1 0 0 0 0];

internalField   nonuniform List<vector> 
400
(
(-3.82536e-06 3.82488e-06 0)
(-7.25498e-06 7.25496e-06 0)
(-8.79529e-06 8.79526e-06 0)
(-8.93408e-06 8.93406e-06 0)
(-8.35337e-06 8.35335e-06 0)
(-7.43306e-06 7.43304e-06 0)
(-6.33165e-06 6.33163e-06 0)
(-5.09862e-06 5.09861e-06 0)
(-3.73251e-06 3.7325e-06 0)
(-2.21684e-06 2.21682e-06 0)
(-5.94869e-07 5.94856e-07 0)
(1.21578e-06 -1.21579e-06 0)
(3.15201e-06 -3.15202e-06 0)
(5.18157e-06 -5.18158e-06 0)
(7.21625e-06 -7.21626e-06 0)
(9.08951e-06 -9.08952e-06 0)
(1.05039e-05 -1.05039e-05 0)
(1.09274e-05 -1.09274e-05 0)
(9.52976e-06 -9.52977e-06 0)
(5.75445e-06 -5.75445e-06 0)
(-7.24794e-06 7.24792e-06 0)
(-8.82775e-06 8.82773e-06 0)
(-9.25802e-06 9.258e-06 0)
(-9.23189e-06 9.23188e-06 0)
(-8.78666e-06 8.78664e-06 0)
(-7.98563e-06 7.98561e-06 0)
(-6.90618e-06 6.90616e-06 0)
(-5.60541e-06 5.60539e-06 0)
(-4.11762e-06 4.11761e-06 0)
(-2.46525e-06 2.46523e-06 0)
(-6.21375e-07 6.21362e-07 0)
(1.34673e-06 -1.34674e-06 0)
(3.43309e-06 -3.4331e-06 0)
(5.55678e-06 -5.55679e-06 0)
(7.60085e-06 -7.60086e-06 0)
(9.40142e-06 -9.40144e-06 0)
(1.07632e-05 -1.07632e-05 0)
(1.15091e-05 -1.15091e-05 0)
(1.15234e-05 -1.15234e-05 0)
(9.91913e-06 -9.91914e-06 0)
(-9.12118e-06 9.12118e-06 0)
(-9.59742e-06 9.59741e-06 0)
(-9.43953e-06 9.43951e-06 0)
(-9.23075e-06 9.23074e-06 0)
(-8.80451e-06 8.8045e-06 0)
(-8.08973e-06 8.08972e-06 0)
(-7.0916e-06 7.09159e-06 0)
(-5.84259e-06 5.84257e-06 0)
(-4.3753e-06 4.37529e-06 0)
(-2.71084e-06 2.71083e-06 0)
(-8.55951e-07 8.55939e-07 0)
(1.15038e-06 -1.1504e-06 0)
(3.27427e-06 -3.27428e-06 0)
(5.43681e-06 -5.43682e-06 0)
(7.52538e-06 -7.52539e-06 0)
(9.40338e-06 -9.40339e-06 0)
(1.09431e-05 -1.09431e-05 0)
(1.20883e-05 -1.20883e-05 0)
(1.28843e-05 -1.28843e-05 0)
(1.24535e-05 -1.24535e-05 0)
(-9.9828e-06 9.9828e-06 0)
(-1.03262e-05 1.03262e-05 0)
(-9.96996e-06 9.96995e-06 0)
(-9.59556e-06 9.59555e-06 0)
(-9.10113e-06 9.10112e-06 0)
(-8.39036e-06 8.39035e-06 0)
(-7.4295e-06 7.42949e-06 0)
(-6.2229e-06 6.22289e-06 0)
(-4.78742e-06 4.78741e-06 0)
(-3.13588e-06 3.13587e-06 0)
(-1.27598e-06 1.27597e-06 0)
(7.72106e-07 -7.72116e-07 0)
(2.97785e-06 -2.97786e-06 0)
(5.27841e-06 -5.27842e-06 0)
(7.58042e-06 -7.58043e-06 0)
(9.76775e-06 -9.76776e-06 0)
(1.17228e-05 -1.17228e-05 0)
(1.33552e-05 -1.33552e-05 0)
(1.4556e-05 -1.4556e-05 0)
(1.42072e-05 -1.42072e-05 0)
(-1.04946e-05 1.04946e-05 0)
(-1.1085e-05 1.1085e-05 0)
(-1.07372e-05 1.07372e-05 0)
(-1.0277e-05 1.02769e-05 0)
(-9.70738e-06 9.70737e-06 0)
(-8.9629e-06 8.96289e-06 0)
(-8.00447e-06 8.00446e-06 0)
(-6.82081e-06 6.8208e-06 0)
(-5.41207e-06 5.41206e-06 0)
(-3.77611e-06 3.7761e-06 0)
(-1.90534e-06 1.90533e-06 0)
(2.03211e-07 -2.0322e-07 0)
(2.54701e-06 -2.54701e-06 0)
(5.09017e-06 -5.09018e-06 0)
(7.76563e-06 -7.76564e-06 0)
(1.04641e-05 -1.04641e-05 0)
(1.30271e-05 -1.30271e-05 0)
(1.52358e-05 -1.52358e-05 0)
(1.6742e-05 -1.6742e-05 0)
(1.61078e-05 -1.61078e-05 0)
(-1.10203e-05 1.10202e-05 0)
(-1.19371e-05 1.19371e-05 0)
(-1.16823e-05 1.16823e-05 0)
(-1.11988e-05 1.11988e-05 0)
(-1.05742e-05 1.05742e-05 0)
(-9.78944e-06 9.78943e-06 0)
(-8.82016e-06 8.82015e-06 0)
(-7.65232e-06 7.65231e-06 0)
(-6.27414e-06 6.27413e-06 0)
(-4.6654e-06 4.6654e-06 0)
(-2.79416e-06 2.79416e-06 0)
(-6.24938e-07 6.24931e-07 0)
(1.88967e-06 -1.88968e-06 0)
(4.75545e-06 -4.75546e-06 0)
(7.94765e-06 -7.94766e-06 0)
(1.1366e-05 -1.1366e-05 0)
(1.47842e-05 -1.47842e-05 0)
(1.77914e-05 -1.77914e-05 0)
(1.9733e-05 -1.9733e-05 0)
(1.8766e-05 -1.8766e-05 0)
(-1.17213e-05 1.17213e-05 0)
(-1.2948e-05 1.2948e-05 0)
(-1.2801e-05 1.2801e-05 0)
(-1.23204e-05 1.23204e-05 0)
(-1.16555e-05 1.16555e-05 0)
(-1.08328e-05 1.08328e-05 0)
(-9.85294e-06 9.85294e-06 0)
(-8.70935e-06 8.70935e-06 0)
(-7.38373e-06 7.38372e-06 0)
(-5.83748e-06 5.83747e-06 0)
(-4.00844e-06 4.00843e-06 0)
(-1.82465e-06 1.82464e-06 0)
(8.48121e-07 -8.48126e-07 0)
(4.07028e-06 -4.07028e-06 0)
(7.9036e-06 -7.90361e-06 0)
(1.22947e-05 -1.22947e-05 0)
(1.69579e-05 -1.69579e-05 0)
(2.1215e-05 -2.1215e-05 0)
(2.39428e-05 -2.39428e-05 0)
(2.26632e-05 -2.26632e-05 0)
(-1.26671e-05 1.2667e-05 0)
(-1.41699e-05 1.41699e-05 0)
(-1.41075e-05 1.41075e-05 0)
(-1.36211e-05 1.36211e-05 0)
(-1.29104e-05 1.29104e-05 0)
(-1.20467e-05 1.20467e-05 0)
(-1.10616e-05 1.10616e-05 0)
(-9.96367e-06 9.96367e-06 0)
(-8.73408e-06 8.73408e-06 0)
(-7.31863e-06 7.31862e-06 0)
(-5.61812e-06 5.61812e-06 0)
(-3.54592e-06 3.54591e-06 0)
(-7.99138e-07 7.99135e-07 0)
(2.72452e-06 -2.72452e-06 0)
(7.27588e-06 -7.27589e-06 0)
(1.29482e-05 -1.29483e-05 0)
(1.94791e-05 -1.94791e-05 0)
(2.58273e-05 -2.58273e-05 0)
(3.00034e-05 -3.00034e-05 0)
(2.83052e-05 -2.83052e-05 0)
(-1.3895e-05 1.3895e-05 0)
(-1.56473e-05 1.56473e-05 0)
(-1.56204e-05 1.56204e-05 0)
(-1.50848e-05 1.50848e-05 0)
(-1.42953e-05 1.42953e-05 0)
(-1.33722e-05 1.33722e-05 0)
(-1.23842e-05 1.23842e-05 0)
(-1.13614e-05 1.13614e-05 0)
(-1.02925e-05 1.02925e-05 0)
(-9.11789e-06 9.11789e-06 0)
(-7.71931e-06 7.71931e-06 0)
(-5.88146e-06 5.88146e-06 0)
(-3.37964e-06 3.37964e-06 0)
(2.5633e-07 -2.56331e-07 0)
(5.4752e-06 -5.4752e-06 0)
(1.27625e-05 -1.27625e-05 0)
(2.21461e-05 -2.21461e-05 0)
(3.21362e-05 -3.21362e-05 0)
(3.89819e-05 -3.89819e-05 0)
(3.62932e-05 -3.62932e-05 0)
(-1.54531e-05 1.54531e-05 0)
(-1.74304e-05 1.74304e-05 0)
(-1.73591e-05 1.73591e-05 0)
(-1.66892e-05 1.66892e-05 0)
(-1.57521e-05 1.57521e-05 0)
(-1.47281e-05 1.47281e-05 0)
(-1.37285e-05 1.37285e-05 0)
(-1.28109e-05 1.28109e-05 0)
(-1.19811e-05 1.19811e-05 0)
(-1.1186e-05 1.1186e-05 0)
(-1.03004e-05 1.03004e-05 0)
(-9.0798e-06 9.07981e-06 0)
(-7.21595e-06 7.21595e-06 0)
(-3.97135e-06 3.97135e-06 0)
(1.53438e-06 -1.53438e-06 0)
(1.06438e-05 -1.06438e-05 0)
(2.44242e-05 -2.44242e-05 0)
(4.10185e-05 -4.10185e-05 0)
(5.2874e-05 -5.2874e-05 0)
(4.71909e-05 -4.71909e-05 0)
(-1.74352e-05 1.74352e-05 0)
(-1.95895e-05 1.95895e-05 0)
(-1.93378e-05 1.93378e-05 0)
(-1.839e-05 1.83901e-05 0)
(-1.71912e-05 1.71912e-05 0)
(-1.59953e-05 1.59953e-05 0)
(-1.49587e-05 1.49588e-05 0)
(-1.4169e-05 1.4169e-05 0)
(-1.36562e-05 1.36562e-05 0)
(-1.33982e-05 1.33982e-05 0)
(-1.33079e-05 1.33079e-05 0)
(-1.31685e-05 1.31685e-05 0)
(-1.26832e-05 1.26832e-05 0)
(-1.08094e-05 1.08094e-05 0)
(-6.11994e-06 6.11994e-06 0)
(4.47519e-06 -4.47518e-06 0)
(2.50487e-05 -2.50487e-05 0)
(5.42623e-05 -5.42623e-05 0)
(7.55412e-05 -7.55412e-05 0)
(6.08827e-05 -6.08827e-05 0)
(-2.00226e-05 2.00226e-05 0)
(-2.22237e-05 2.22237e-05 0)
(-2.15465e-05 2.15465e-05 0)
(-2.00903e-05 2.00903e-05 0)
(-1.84641e-05 1.84641e-05 0)
(-1.69978e-05 1.69978e-05 0)
(-1.58826e-05 1.58826e-05 0)
(-1.52239e-05 1.52239e-05 0)
(-1.50805e-05 1.50805e-05 0)
(-1.54927e-05 1.54927e-05 0)
(-1.64884e-05 1.64884e-05 0)
(-1.80393e-05 1.80393e-05 0)
(-1.98453e-05 1.98453e-05 0)
(-2.12986e-05 2.12986e-05 0)
(-2.00636e-05 2.00636e-05 0)
(-1.0402e-05 1.0402e-05 0)
(1.94266e-05 -1.94266e-05 0)
(7.3869e-05 -7.3869e-05 0)
(0.000116186 -0.000116186 0)
(7.76803e-05 -7.76803e-05 0)
(-2.35568e-05 2.35568e-05 0)
(-2.54345e-05 2.54345e-05 0)
(-2.38806e-05 2.38806e-05 0)
(-2.15817e-05 2.15817e-05 0)
(-1.93263e-05 1.93263e-05 0)
(-1.74863e-05 1.74863e-05 0)
(-1.62444e-05 1.62444e-05 0)
(-1.56908e-05 1.56908e-05 0)
(-1.59047e-05 1.59047e-05 0)
(-1.7015e-05 1.7015e-05 0)
(-1.92572e-05 1.92572e-05 0)
(-2.30009e-05 2.30009e-05 0)
(-2.86071e-05 2.86071e-05 0)
(-3.60524e-05 3.60524e-05 0)
(-4.44507e-05 4.44507e-05 0)
(-4.54542e-05 4.54542e-05 0)
(-1.32753e-05 1.32753e-05 0)
(8.39706e-05 -8.39705e-05 0)
(0.000194218 -0.000194218 0)
(0.00012803 -0.00012803 0)
(-2.84986e-05 2.84986e-05 0)
(-2.92396e-05 2.92396e-05 0)
(-2.60748e-05 2.60748e-05 0)
(-2.24828e-05 2.24829e-05 0)
(-1.94076e-05 1.94076e-05 0)
(-1.71312e-05 1.71312e-05 0)
(-1.57365e-05 1.57365e-05 0)
(-1.5236e-05 1.5236e-05 0)
(-1.56997e-05 1.56997e-05 0)
(-1.73331e-05 1.73331e-05 0)
(-2.06317e-05 2.06317e-05 0)
(-2.66118e-05 2.66118e-05 0)
(-3.70833e-05 3.70833e-05 0)
(-5.45581e-05 5.45581e-05 0)
(-8.1821e-05 8.1821e-05 0)
(-0.000116973 0.000116973 0)
(-0.000102616 0.000102616 0)
(5.22443e-05 -5.22443e-05 0)
(0.000298967 -0.000298967 0)
(0.000295924 -0.000295924 0)
(-3.58348e-05 3.58348e-05 0)
(-3.32311e-05 3.32311e-05 0)
(-2.73017e-05 2.73017e-05 0)
(-2.20675e-05 2.20676e-05 0)
(-1.81544e-05 1.81544e-05 0)
(-1.55124e-05 1.55124e-05 0)
(-1.40168e-05 1.40168e-05 0)
(-1.3533e-05 1.3533e-05 0)
(-1.4049e-05 1.4049e-05 0)
(-1.57414e-05 1.57414e-05 0)
(-1.92472e-05 1.92472e-05 0)
(-2.60733e-05 2.60733e-05 0)
(-3.9594e-05 3.95941e-05 0)
(-6.66054e-05 6.66054e-05 0)
(-0.000116438 0.000116438 0)
(-0.000182192 0.000182192 0)
(-0.000180202 0.000180202 0)
(-1.88569e-05 1.8857e-05 0)
(0.000310104 -0.000310104 0)
(0.000548547 -0.000548547 0)
(-4.42888e-05 4.42888e-05 0)
(-3.7185e-05 3.71851e-05 0)
(-2.68937e-05 2.68937e-05 0)
(-1.93994e-05 1.93994e-05 0)
(-1.48692e-05 1.48692e-05 0)
(-1.20297e-05 1.20297e-05 0)
(-1.05753e-05 1.05753e-05 0)
(-1.02441e-05 1.02441e-05 0)
(-1.06555e-05 1.06555e-05 0)
(-1.17422e-05 1.17423e-05 0)
(-1.38984e-05 1.38984e-05 0)
(-1.81104e-05 1.81104e-05 0)
(-2.6999e-05 2.6999e-05 0)
(-4.6177e-05 4.61771e-05 0)
(-8.2593e-05 8.2593e-05 0)
(-0.00012046 0.00012046 0)
(-0.000153268 0.000153268 0)
(-0.000102654 0.000102654 0)
(9.6888e-05 -9.6888e-05 0)
(0.000665154 -0.000665154 0)
(-6.24754e-05 6.24754e-05 0)
(-3.56686e-05 3.56686e-05 0)
(-1.76144e-05 1.76144e-05 0)
(-1.04145e-05 1.04146e-05 0)
(-7.8956e-06 7.89562e-06 0)
(-6.11372e-06 6.11374e-06 0)
(-5.1402e-06 5.14021e-06 0)
(-4.8482e-06 4.84821e-06 0)
(-4.87147e-06 4.87148e-06 0)
(-4.7845e-06 4.78451e-06 0)
(-4.24052e-06 4.24053e-06 0)
(-2.90512e-06 2.90514e-06 0)
(-1.64198e-07 1.64211e-07 0)
(7.71154e-06 -7.71153e-06 0)
(2.11828e-05 -2.11828e-05 0)
(3.87949e-05 -3.87948e-05 0)
(9.55739e-06 -9.55738e-06 0)
(-9.56744e-05 9.56744e-05 0)
(-0.000254083 0.000254083 0)
(0.000439647 -0.000439647 0)
(-7.15234e-05 7.15234e-05 0)
(-1.91637e-05 1.91637e-05 0)
(1.28916e-06 -1.28915e-06 0)
(3.1416e-06 -3.14158e-06 0)
(4.93028e-06 -4.93027e-06 0)
(7.60427e-06 -7.60425e-06 0)
(8.81503e-06 -8.81502e-06 0)
(8.84135e-06 -8.84134e-06 0)
(8.72695e-06 -8.72694e-06 0)
(9.31726e-06 -9.31725e-06 0)
(1.16427e-05 -1.16427e-05 0)
(1.73121e-05 -1.73121e-05 0)
(2.95744e-05 -2.95744e-05 0)
(5.11296e-05 -5.11295e-05 0)
(9.44949e-05 -9.44949e-05 0)
(0.000144945 -0.000144945 0)
(0.000132416 -0.000132416 0)
(-4.04102e-05 4.04102e-05 0)
(-0.00038261 0.00038261 0)
(-2.04736e-05 2.04736e-05 0)
(-6.34964e-05 6.34964e-05 0)
(1.68915e-05 -1.68915e-05 0)
(6.63691e-05 -6.63691e-05 0)
(7.38803e-05 -7.38803e-05 0)
(7.08147e-05 -7.08147e-05 0)
(6.52849e-05 -6.52849e-05 0)
(5.95027e-05 -5.95027e-05 0)
(5.42469e-05 -5.42469e-05 0)
(5.00253e-05 -5.00253e-05 0)
(4.69856e-05 -4.69856e-05 0)
(4.54211e-05 -4.54211e-05 0)
(4.6264e-05 -4.6264e-05 0)
(5.16712e-05 -5.16712e-05 0)
(6.66181e-05 -6.66181e-05 0)
(9.14517e-05 -9.14517e-05 0)
(0.000111853 -0.000111853 0)
(7.30246e-05 -7.30246e-05 0)
(-7.94199e-05 7.942e-05 0)
(-0.00045206 0.00045206 0)
(-0.000395328 0.000395328 0)
(0.00047256 -0.00047256 0)
(0.000324068 -0.000324068 0)
(0.000214761 -0.000214761 0)
(0.000173588 -0.000173588 0)
(0.000149504 -0.000149504 0)
(0.000130008 -0.000130008 0)
(0.000115848 -0.000115848 0)
(0.000105945 -0.000105945 0)
(9.82554e-05 -9.82554e-05 0)
(9.16345e-05 -9.16345e-05 0)
(8.57015e-05 -8.57015e-05 0)
(8.06018e-05 -8.06018e-05 0)
(7.70032e-05 -7.70032e-05 0)
(7.56628e-05 -7.56628e-05 0)
(7.65314e-05 -7.65314e-05 0)
(6.72728e-05 -6.72727e-05 0)
(3.51364e-05 -3.51364e-05 0)
(-0.000128435 0.000128435 0)
(-0.000233922 0.000233922 0)
(-0.00201173 0.00201173 0)
)
;

boundaryField
{
    movingWall
    {
        type            extrapolatedCalculated;
        value           nonuniform List<vector> 
20
(
(0.00047256 -0.00047256 0)
(0.000324068 -0.000324068 0)
(0.000214761 -0.000214761 0)
(0.000173588 -0.000173588 0)
(0.000149504 -0.000149504 0)
(0.000130008 -0.000130008 0)
(0.000115848 -0.000115848 0)
(0.000105945 -0.000105945 0)
(9.82554e-05 -9.82554e-05 0)
(9.16345e-05 -9.16345e-05 0)
(8.57015e-05 -8.57015e-05 0)
(8.06018e-05 -8.06018e-05 0)
(7.70032e-05 -7.70032e-05 0)
(7.56628e-05 -7.56628e-05 0)
(7.65314e-05 -7.65314e-05 0)
(6.72728e-05 -6.72727e-05 0)
(3.51364e-05 -3.51364e-05 0)
(-0.000128435 0.000128435 0)
(-0.000233922 0.000233922 0)
(-0.00201173 0.00201173 0)
)
;
    }
    fixedWalls
    {
        type            extrapolatedCalculated;
        value           nonuniform List<vector> 
60
(
(-3.82536e-06 3.82488e-06 0)
(-7.24794e-06 7.24792e-06 0)
(-9.12118e-06 9.12118e-06 0)
(-9.9828e-06 9.9828e-06 0)
(-1.04946e-05 1.04946e-05 0)
(-1.10203e-05 1.10202e-05 0)
(-1.17213e-05 1.17213e-05 0)
(-1.26671e-05 1.2667e-05 0)
(-1.3895e-05 1.3895e-05 0)
(-1.54531e-05 1.54531e-05 0)
(-1.74352e-05 1.74352e-05 0)
(-2.00226e-05 2.00226e-05 0)
(-2.35568e-05 2.35568e-05 0)
(-2.84986e-05 2.84986e-05 0)
(-3.58348e-05 3.58348e-05 0)
(-4.42888e-05 4.42888e-05 0)
(-6.24754e-05 6.24754e-05 0)
(-7.15234e-05 7.15234e-05 0)
(-6.34964e-05 6.34964e-05 0)
(0.00047256 -0.00047256 0)
(5.75445e-06 -5.75445e-06 0)
(9.91913e-06 -9.91914e-06 0)
(1.24535e-05 -1.24535e-05 0)
(1.42072e-05 -1.42072e-05 0)
(1.61078e-05 -1.61078e-05 0)
(1.8766e-05 -1.8766e-05 0)
(2.26632e-05 -2.26632e-05 0)
(2.83052e-05 -2.83052e-05 0)
(3.62932e-05 -3.62932e-05 0)
(4.71909e-05 -4.71909e-05 0)
(6.08827e-05 -6.08827e-05 0)
(7.76803e-05 -7.76803e-05 0)
(0.00012803 -0.00012803 0)
(0.000295924 -0.000295924 0)
(0.000548547 -0.000548547 0)
(0.000665154 -0.000665154 0)
(0.000439647 -0.000439647 0)
(-2.04736e-05 2.04736e-05 0)
(-0.000395328 0.000395328 0)
(-0.00201173 0.00201173 0)
(-3.82536e-06 3.82488e-06 0)
(-7.25498e-06 7.25496e-06 0)
(-8.79529e-06 8.79526e-06 0)
(-8.93408e-06 8.93406e-06 0)
(-8.35337e-06 8.35335e-06 0)
(-7.43306e-06 7.43304e-06 0)
(-6.33165e-06 6.33163e-06 0)
(-5.09862e-06 5.09861e-06 0)
(-3.73251e-06 3.7325e-06 0)
(-2.21684e-06 2.21682e-06 0)
(-5.94869e-07 5.94856e-07 0)
(1.21578e-06 -1.21579e-06 0)
(3.15201e-06 -3.15202e-06 0)
(5.18157e-06 -5.18158e-06 0)
(7.21625e-06 -7.21626e-06 0)
(9.08951e-06 -9.08952e-06 0)
(1.05039e-05 -1.05039e-05 0)
(1.09274e-05 -1.09274e-05 0)
(9.52976e-06 -9.52977e-06 0)
(5.75445e-06 -5.75445e-06 0)
)
;
    }
    frontAndBack
    {
        type            empty;
    }
}


// ************************************************************************* //
