/*--------------------------------*- C++ -*----------------------------------*\
| =========                 |                                                 |
| \\      /  F ield         | OpenFOAM: The Open Source CFD Toolbox           |
|  \\    /   O peration     | Version:  2312                                  |
|   \\  /    A nd           | Website:  www.openfoam.com                      |
|    \\/     M anipulation  |                                                 |
\*---------------------------------------------------------------------------*/
FoamFile
{
    version     2.0;
    format      ascii;
    arch        "LSB;label=32;scalar=64";
    class       volScalarField;
    location    "0.5";
    object      initialResidual:k;
}
// * * * * * * * * * * * * * * * * * * * * * * * * * * * * * * * * * * * * * //

dimensions      [0 0 0 0 0 0 0];

internalField   nonuniform List<scalar> 
400
(
-2.28897e-10
-2.55878e-10
-2.6559e-10
-2.63067e-10
-2.56883e-10
-2.51005e-10
-2.46403e-10
-2.42816e-10
-2.39875e-10
-2.37374e-10
-2.35449e-10
-2.34359e-10
-2.33935e-10
-2.35086e-10
-2.39044e-10
-2.46312e-10
-2.5543e-10
-2.61418e-10
-2.55093e-10
-2.27741e-10
-2.56544e-10
-4.28101e-10
-4.85243e-10
-4.97721e-10
-4.9384e-10
-4.86511e-10
-4.80137e-10
-4.75367e-10
-4.71566e-10
-4.681e-10
-4.6483e-10
-4.61899e-10
-4.6126e-10
-4.63195e-10
-4.69637e-10
-4.79942e-10
-4.88731e-10
-4.81615e-10
-4.30396e-10
-2.53877e-10
-2.64735e-10
-4.80549e-10
-5.5345e-10
-5.72517e-10
-5.70184e-10
-5.62115e-10
-5.54594e-10
-5.48886e-10
-5.44608e-10
-5.41094e-10
-5.38103e-10
-5.36409e-10
-5.36811e-10
-5.41088e-10
-5.50346e-10
-5.62769e-10
-5.70834e-10
-5.57696e-10
-4.90197e-10
-2.62653e-10
-2.59891e-10
-4.87448e-10
-5.66381e-10
-5.88454e-10
-5.86651e-10
-5.7805e-10
-5.69473e-10
-5.63097e-10
-5.58521e-10
-5.55116e-10
-5.52689e-10
-5.51968e-10
-5.54028e-10
-5.60778e-10
-5.72833e-10
-5.87529e-10
-5.95913e-10
-5.80306e-10
-5.07016e-10
-2.59327e-10
-2.50951e-10
-4.77107e-10
-5.56867e-10
-5.79264e-10
-5.77059e-10
-5.67505e-10
-5.58091e-10
-5.51113e-10
-5.46394e-10
-5.4319e-10
-5.4156e-10
-5.41816e-10
-5.45718e-10
-5.55032e-10
-5.70042e-10
-5.87349e-10
-5.9795e-10
-5.83421e-10
-5.09506e-10
-2.52175e-10
-2.42825e-10
-4.63649e-10
-5.4145e-10
-5.6249e-10
-5.59029e-10
-5.48307e-10
-5.38132e-10
-5.3071e-10
-5.25958e-10
-5.23132e-10
-5.22086e-10
-5.23421e-10
-5.29037e-10
-5.40776e-10
-5.58917e-10
-5.79846e-10
-5.93798e-10
-5.82431e-10
-5.11031e-10
-2.44651e-10
-2.36715e-10
-4.52913e-10
-5.2767e-10
-5.46634e-10
-5.41562e-10
-5.29713e-10
-5.18911e-10
-5.11257e-10
-5.06528e-10
-5.04041e-10
-5.03427e-10
-5.05635e-10
-5.12662e-10
-5.26523e-10
-5.47543e-10
-5.72138e-10
-5.90036e-10
-5.82849e-10
-5.14625e-10
-2.36643e-10
-2.32456e-10
-4.45639e-10
-5.17627e-10
-5.34601e-10
-5.28035e-10
-5.15346e-10
-5.04157e-10
-4.96401e-10
-4.91724e-10
-4.89385e-10
-4.88935e-10
-4.91607e-10
-4.99503e-10
-5.1481e-10
-5.38e-10
-5.65438e-10
-5.87738e-10
-5.85867e-10
-5.23357e-10
-2.27132e-10
-2.29315e-10
-4.40876e-10
-5.10772e-10
-5.26245e-10
-5.18544e-10
-5.05447e-10
-4.94152e-10
-4.8641e-10
-4.81729e-10
-4.79305e-10
-4.78703e-10
-4.81214e-10
-4.89116e-10
-5.04689e-10
-5.28646e-10
-5.57867e-10
-5.83656e-10
-5.90076e-10
-5.36002e-10
-2.13772e-10
-2.26775e-10
-4.37479e-10
-5.05895e-10
-5.20427e-10
-5.12e-10
-4.98982e-10
-4.87876e-10
-4.80292e-10
-4.75585e-10
-4.72892e-10
-4.71847e-10
-4.73489e-10
-4.80177e-10
-4.94082e-10
-5.15636e-10
-5.42596e-10
-5.69618e-10
-5.84718e-10
-5.54266e-10
-1.9247e-10
-2.24609e-10
-4.34763e-10
-5.02152e-10
-5.16084e-10
-5.07682e-10
-4.95113e-10
-4.84555e-10
-4.7737e-10
-4.72754e-10
-4.69747e-10
-4.68047e-10
-4.68075e-10
-4.71779e-10
-4.80115e-10
-4.91996e-10
-5.05607e-10
-5.23248e-10
-5.49778e-10
-5.3216e-10
-1.44988e-10
-2.22827e-10
-4.32606e-10
-4.99422e-10
-5.13165e-10
-5.05448e-10
-4.93888e-10
-4.84328e-10
-4.77951e-10
-4.73817e-10
-4.70732e-10
-4.68245e-10
-4.65724e-10
-4.63089e-10
-4.58199e-10
-4.44926e-10
-4.20147e-10
-4.0904e-10
-4.51494e-10
-4.39496e-10
4.0615e-11
-2.21761e-10
-4.31526e-10
-4.98448e-10
-5.12357e-10
-5.06146e-10
-4.96273e-10
-4.88074e-10
-4.82414e-10
-4.78923e-10
-4.76418e-10
-4.72672e-10
-4.67081e-10
-4.53501e-10
-4.2144e-10
-3.58539e-10
-2.69779e-10
-2.53403e-10
-2.68827e-10
2.38989e-10
8.47507e-10
-2.2186e-10
-4.32843e-10
-5.00569e-10
-5.14843e-10
-5.10624e-10
-5.0142e-10
-4.94494e-10
-4.90897e-10
-4.88625e-10
-4.86151e-10
-4.81549e-10
-4.69721e-10
-4.3917e-10
-3.67638e-10
-2.43843e-10
-1.53174e-10
-3.22601e-10
1.01059e-09
2.87509e-09
3.08659e-09
-2.26001e-10
-4.38445e-10
-5.05486e-10
-5.20987e-10
-5.16435e-10
-5.09091e-10
-5.03892e-10
-5.01365e-10
-4.99948e-10
-4.97987e-10
-4.89647e-10
-4.69782e-10
-4.16934e-10
-3.03774e-10
-1.84042e-10
-1.88261e-10
2.2997e-10
2.7326e-09
4.01103e-09
4.75013e-09
-2.3148e-10
-4.48905e-10
-5.13411e-10
-5.25495e-10
-5.22223e-10
-5.1509e-10
-5.10305e-10
-5.06244e-10
-5.03448e-10
-4.9819e-10
-4.84785e-10
-4.53529e-10
-3.81403e-10
-2.5778e-10
-2.51662e-10
-4.3176e-10
-3.07131e-10
3.6373e-10
-1.64182e-10
2.83631e-09
-2.43491e-10
-4.61657e-10
-5.17346e-10
-5.25846e-10
-5.16225e-10
-5.04415e-10
-4.95658e-10
-4.87599e-10
-4.775e-10
-4.64905e-10
-4.39563e-10
-3.89948e-10
-2.9891e-10
-1.84967e-10
-1.62371e-10
-3.64566e-10
-7.0203e-10
-1.10378e-09
-1.13245e-09
6.83362e-10
-2.54965e-10
-4.58718e-10
-5.12114e-10
-5.17406e-10
-5.04892e-10
-4.88524e-10
-4.7331e-10
-4.58821e-10
-4.4262e-10
-4.21528e-10
-3.9069e-10
-3.41621e-10
-2.64433e-10
-1.59345e-10
-1.5751e-10
-4.06982e-10
-4.7096e-10
-3.6325e-10
-1.77892e-09
-1.29869e-10
-2.41427e-10
-4.71913e-10
-5.38083e-10
-5.53883e-10
-5.49418e-10
-5.49819e-10
-5.6207e-10
-5.84107e-10
-6.1061e-10
-6.34328e-10
-6.43917e-10
-6.29611e-10
-5.80037e-10
-5.21828e-10
-4.66639e-10
-5.36495e-10
-5.51831e-10
-3.12068e-10
3.22648e-10
-2.82699e-10
-1.68311e-10
-1.7609e-10
-2.45379e-10
-2.55569e-10
-2.52907e-10
-2.63111e-10
-3.09076e-10
-4.13934e-10
-5.93621e-10
-8.5983e-10
-1.18236e-09
-1.53824e-09
-1.85948e-09
-2.12116e-09
-2.18037e-09
-2.22517e-09
-2.12168e-09
-1.98541e-09
-1.80836e-09
-1.12126e-09
)
;

boundaryField
{
    movingWall
    {
        type            zeroGradient;
    }
    fixedWalls
    {
        type            zeroGradient;
    }
    frontAndBack
    {
        type            empty;
    }
}


// ************************************************************************* //
