/*--------------------------------*- C++ -*----------------------------------*\
| =========                 |                                                 |
| \\      /  F ield         | OpenFOAM: The Open Source CFD Toolbox           |
|  \\    /   O peration     | Version:  2312                                  |
|   \\  /    A nd           | Website:  www.openfoam.com                      |
|    \\/     M anipulation  |                                                 |
\*---------------------------------------------------------------------------*/
FoamFile
{
    version     2.0;
    format      ascii;
    arch        "LSB;label=32;scalar=64";
    class       volScalarField;
    location    "0.5";
    object      initialResidual:Uy;
}
// * * * * * * * * * * * * * * * * * * * * * * * * * * * * * * * * * * * * * //

dimensions      [0 0 0 0 0 0 0];

internalField   nonuniform List<scalar> 
400
(
-6.01801e-11
5.81543e-11
1.4169e-10
1.79551e-10
1.90701e-10
1.88953e-10
1.80783e-10
1.68282e-10
1.51114e-10
1.20877e-10
9.00889e-11
3.8827e-11
-2.51035e-11
-1.0161e-10
-1.84332e-10
-2.61032e-10
-3.12596e-10
-3.10139e-10
-2.17227e-10
-5.29453e-11
-7.59074e-12
2.76984e-10
4.40812e-10
5.20026e-10
5.50248e-10
5.50548e-10
5.30146e-10
4.92189e-10
4.35557e-10
3.53339e-10
2.43674e-10
1.0043e-10
-7.90485e-11
-2.86209e-10
-5.04379e-10
-7.06044e-10
-8.52751e-10
-8.92029e-10
-7.57311e-10
-3.95991e-10
2.16056e-10
5.84797e-10
7.8096e-10
8.83325e-10
9.28339e-10
9.33535e-10
9.05639e-10
8.45775e-10
7.50473e-10
6.12665e-10
4.25926e-10
1.8351e-10
-1.14271e-10
-4.55345e-10
-8.1523e-10
-1.15598e-09
-1.42573e-09
-1.5575e-09
-1.47282e-09
-1.03512e-09
4.86723e-10
9.11014e-10
1.12555e-09
1.24625e-09
1.3075e-09
1.32304e-09
1.29635e-09
1.22457e-09
1.10128e-09
9.16384e-10
6.59532e-10
3.22138e-10
-9.624e-11
-5.81504e-10
-1.10398e-09
-1.61596e-09
-2.04958e-09
-2.31751e-09
-2.31919e-09
-1.8238e-09
7.77749e-10
1.24766e-09
1.47467e-09
1.61113e-09
1.69055e-09
1.72306e-09
1.70762e-09
1.63745e-09
1.50085e-09
1.28364e-09
9.6988e-10
5.46214e-10
6.28721e-12
-6.3712e-10
-1.35299e-09
-2.08483e-09
-2.74403e-09
-3.20967e-09
-3.33958e-09
-2.78666e-09
1.06338e-09
1.58348e-09
1.8246e-09
1.97845e-09
2.08061e-09
2.13895e-09
2.14845e-09
2.097e-09
1.968e-09
1.73995e-09
1.39005e-09
8.96157e-10
2.35256e-10
-5.83746e-10
-1.53631e-09
-2.56058e-09
-3.54002e-09
-4.29694e-09
-4.61383e-09
-3.98027e-09
1.32704e-09
1.90972e-09
2.17154e-09
2.34798e-09
2.48051e-09
2.57633e-09
2.62781e-09
2.61788e-09
2.52335e-09
2.31539e-09
1.95989e-09
1.42552e-09
6.50247e-10
-3.58763e-10
-1.60151e-09
-3.02172e-09
-4.46822e-09
-5.66954e-09
-6.26604e-09
-5.50858e-09
1.55764e-09
2.21712e-09
2.50865e-09
2.71527e-09
2.88789e-09
3.03605e-09
3.1502e-09
3.21022e-09
3.18673e-09
3.0397e-09
2.71732e-09
2.15287e-09
1.33148e-09
1.41625e-10
-1.4476e-09
-3.4048e-09
-5.5496e-09
-7.45612e-09
-8.496e-09
-7.51452e-09
1.74727e-09
2.49565e-09
2.82589e-09
3.07096e-09
3.29468e-09
3.51138e-09
3.71297e-09
3.87741e-09
3.9719e-09
3.94931e-09
3.74232e-09
3.26134e-09
2.43297e-09
1.09188e-09
-8.87364e-10
-3.5684e-09
-6.78053e-09
-9.86316e-09
-1.16432e-08
-1.01989e-08
1.88925e-09
2.73464e-09
3.1101e-09
3.40061e-09
3.68535e-09
3.98685e-09
4.30125e-09
4.60916e-09
4.87875e-09
5.06185e-09
5.08494e-09
4.84101e-09
4.11943e-09
2.74871e-09
4.03044e-10
-3.21517e-09
-8.10192e-09
-1.32288e-08
-1.62205e-08
-1.36463e-08
1.97622e-09
2.92048e-09
3.34327e-09
3.68214e-09
4.03478e-09
4.43487e-09
4.88544e-09
5.37529e-09
5.88216e-09
6.36424e-09
6.74864e-09
6.90413e-09
6.60352e-09
5.48244e-09
2.9717e-09
-1.78539e-09
-9.45229e-09
-1.86133e-08
-2.38123e-08
-1.78394e-08
2.00152e-09
3.03793e-09
3.50282e-09
3.88701e-09
4.3085e-09
4.81379e-09
5.41712e-09
6.12136e-09
6.92331e-09
7.80801e-09
8.72964e-09
9.57893e-09
1.01103e-08
9.77962e-09
7.71863e-09
1.87935e-09
-1.02208e-08
-2.71705e-08
-3.67731e-08
-2.25542e-08
1.94564e-09
3.06286e-09
3.55715e-09
3.97669e-09
4.46132e-09
5.07052e-09
5.82853e-09
6.75982e-09
7.89567e-09
9.26918e-09
1.09116e-08
1.28161e-08
1.48192e-08
1.63419e-08
1.60333e-08
1.08577e-08
-5.0818e-09
-3.23608e-08
-5.16376e-08
-2.33492e-08
1.82854e-09
2.96911e-09
3.46839e-09
3.90672e-09
4.44198e-09
5.14039e-09
6.0338e-09
7.174e-09
8.6353e-09
1.05252e-08
1.30058e-08
1.63033e-08
2.0631e-08
2.58929e-08
3.15862e-08
3.44351e-08
1.69266e-08
-4.21341e-08
-1.00312e-07
-5.36811e-08
1.49263e-09
2.68479e-09
3.18496e-09
3.63031e-09
4.19584e-09
4.95244e-09
5.94137e-09
7.23271e-09
8.94052e-09
1.12498e-08
1.44839e-08
1.91862e-08
2.62905e-08
3.71645e-08
5.34262e-08
6.56715e-08
3.04308e-08
-8.17346e-08
-1.81031e-07
-1.4448e-07
1.17406e-09
2.28092e-09
2.72723e-09
3.14691e-09
3.70726e-09
4.52122e-09
5.49315e-09
6.8035e-09
8.58284e-09
1.10546e-08
1.45855e-08
1.98932e-08
2.83076e-08
4.17614e-08
5.95043e-08
6.40115e-08
1.8833e-08
-5.04633e-08
-1.30456e-07
-1.98244e-07
3.59488e-10
1.33711e-09
1.91602e-09
2.33297e-09
2.82946e-09
3.49153e-09
4.49107e-09
5.77461e-09
7.46775e-09
9.69289e-09
1.31559e-08
1.77496e-08
2.45327e-08
3.43741e-08
4.31861e-08
3.93926e-08
1.86724e-08
2.1958e-08
4.24787e-08
-1.49752e-07
-4.56044e-10
1.28164e-09
1.66359e-09
1.77103e-09
2.14251e-09
2.6095e-09
3.27099e-09
4.27377e-09
5.73024e-09
7.7317e-09
1.0414e-08
1.37703e-08
1.78293e-08
2.21051e-08
2.41221e-08
1.25613e-08
-2.1977e-08
-5.39858e-08
2.12413e-08
-3.98803e-08
-6.87691e-10
-9.90401e-10
-4.42208e-10
3.56505e-11
3.72674e-10
7.6117e-10
1.27769e-09
2.04124e-09
3.12333e-09
4.52148e-09
6.17623e-09
7.93745e-09
9.67444e-09
1.05834e-08
1.00651e-08
4.63694e-09
-7.74398e-09
-1.76527e-08
-3.92647e-08
-3.01743e-08
-4.52762e-10
1.64194e-10
7.71219e-11
-2.0707e-10
-6.37504e-10
-1.18379e-09
-1.73819e-09
-2.14363e-09
-2.13454e-09
-1.4019e-09
2.54332e-10
2.73401e-09
5.50645e-09
7.69523e-09
8.76514e-09
8.0516e-09
6.5274e-09
8.18855e-09
1.07816e-08
4.0189e-09
)
;

boundaryField
{
    movingWall
    {
        type            zeroGradient;
    }
    fixedWalls
    {
        type            zeroGradient;
    }
    frontAndBack
    {
        type            empty;
    }
}


// ************************************************************************* //
