/*--------------------------------*- C++ -*----------------------------------*\
| =========                 |                                                 |
| \\      /  F ield         | OpenFOAM: The Open Source CFD Toolbox           |
|  \\    /   O peration     | Version:  2312                                  |
|   \\  /    A nd           | Website:  www.openfoam.com                      |
|    \\/     M anipulation  |                                                 |
\*---------------------------------------------------------------------------*/
FoamFile
{
    version     2.0;
    format      ascii;
    arch        "LSB;label=32;scalar=64";
    class       volScalarField;
    location    "0.5";
    object      initialResidual:Ux;
}
// * * * * * * * * * * * * * * * * * * * * * * * * * * * * * * * * * * * * * //

dimensions      [0 0 0 0 0 0 0];

internalField   nonuniform List<scalar> 
400
(
6.46226e-11
3.55754e-12
-2.53194e-10
-5.70574e-10
-9.18959e-10
-1.2743e-09
-1.62085e-09
-1.94811e-09
-2.24213e-09
-2.50558e-09
-2.68738e-09
-2.80907e-09
-2.81731e-09
-2.70176e-09
-2.44548e-09
-2.04858e-09
-1.53448e-09
-9.57123e-10
-3.92317e-10
-5.68721e-11
-4.40148e-11
-2.45566e-10
-5.67767e-10
-9.26743e-10
-1.30829e-09
-1.69898e-09
-2.08567e-09
-2.45421e-09
-2.78933e-09
-3.07588e-09
-3.29153e-09
-3.41787e-09
-3.43069e-09
-3.31155e-09
-3.04859e-09
-2.64183e-09
-2.10579e-09
-1.47733e-09
-8.09813e-10
-2.33914e-10
-1.2315e-10
-3.88377e-10
-7.19249e-10
-1.07581e-09
-1.45105e-09
-1.83845e-09
-2.22917e-09
-2.61047e-09
-2.96671e-09
-3.28045e-09
-3.53047e-09
-3.69407e-09
-3.7475e-09
-3.66849e-09
-3.44043e-09
-3.05497e-09
-2.51551e-09
-1.84832e-09
-1.09998e-09
-3.6595e-10
-1.53906e-10
-4.48447e-10
-7.85377e-10
-1.14214e-09
-1.51557e-09
-1.90429e-09
-2.30412e-09
-2.70545e-09
-3.09466e-09
-3.45407e-09
-3.76195e-09
-3.99277e-09
-4.11726e-09
-4.10463e-09
-3.92602e-09
-3.55782e-09
-2.98874e-09
-2.23865e-09
-1.36049e-09
-4.62788e-10
-1.56597e-10
-4.60172e-10
-8.00274e-10
-1.15924e-09
-1.53668e-09
-1.93426e-09
-2.35276e-09
-2.78682e-09
-3.22541e-09
-3.65275e-09
-4.0466e-09
-4.37848e-09
-4.61057e-09
-4.69804e-09
-4.59296e-09
-4.24785e-09
-3.62937e-09
-2.75077e-09
-1.67922e-09
-5.67291e-10
-1.43934e-10
-4.42121e-10
-7.80615e-10
-1.14048e-09
-1.52355e-09
-1.93507e-09
-2.38004e-09
-2.85826e-09
-3.36359e-09
-3.8826e-09
-4.39493e-09
-4.87041e-09
-5.26047e-09
-5.50053e-09
-5.51607e-09
-5.22203e-09
-4.54722e-09
-3.48784e-09
-2.13076e-09
-7.10743e-10
-1.22553e-10
-4.03785e-10
-7.34102e-10
-1.09017e-09
-1.47717e-09
-1.9029e-09
-2.3786e-09
-2.90979e-09
-3.4967e-09
-4.13227e-09
-4.79843e-09
-5.4727e-09
-6.09243e-09
-6.56562e-09
-6.78616e-09
-6.60913e-09
-5.89125e-09
-4.58526e-09
-2.79711e-09
-9.19337e-10
-9.59576e-11
-3.50463e-10
-6.63788e-10
-1.00817e-09
-1.39231e-09
-1.82814e-09
-2.33243e-09
-2.91976e-09
-3.59936e-09
-4.37259e-09
-5.2278e-09
-6.17021e-09
-7.11904e-09
-7.94604e-09
-8.51724e-09
-8.58767e-09
-7.88211e-09
-6.24069e-09
-3.77834e-09
-1.20608e-09
-6.55158e-11
-2.84303e-10
-5.69649e-10
-8.90314e-10
-1.25948e-09
-1.6932e-09
-2.2164e-09
-2.85299e-09
-3.62704e-09
-4.56121e-09
-5.67291e-09
-6.91279e-09
-8.27078e-09
-9.66792e-09
-1.08413e-08
-1.14164e-08
-1.08611e-08
-8.76649e-09
-5.18237e-09
-1.54755e-09
-3.1156e-11
-2.05524e-10
-4.48916e-10
-7.28966e-10
-1.06362e-09
-1.47403e-09
-1.9932e-09
-2.65726e-09
-3.50669e-09
-4.58732e-09
-5.94175e-09
-7.59581e-09
-9.55463e-09
-1.17418e-08
-1.38986e-08
-1.54474e-08
-1.53715e-08
-1.26134e-08
-7.02877e-09
-1.77078e-09
7.58638e-12
-1.12222e-10
-2.96015e-10
-5.12141e-10
-7.84283e-10
-1.1392e-09
-1.61709e-09
-2.26679e-09
-3.14889e-09
-4.33874e-09
-5.92985e-09
-8.03176e-09
-1.07155e-08
-1.40216e-08
-1.77733e-08
-2.11793e-08
-2.22887e-08
-1.84177e-08
-8.96893e-09
-9.51784e-10
5.11082e-11
-1.64333e-12
-1.02115e-10
-2.23436e-10
-3.95584e-10
-6.5027e-10
-1.03405e-09
-1.60458e-09
-2.44046e-09
-3.65245e-09
-5.39625e-09
-7.88271e-09
-1.13807e-08
-1.61658e-08
-2.24139e-08
-2.94648e-08
-3.39012e-08
-2.95375e-08
-1.40359e-08
2.84092e-09
9.99683e-11
1.32344e-10
1.48584e-10
1.61491e-10
1.3512e-10
3.36289e-11
-1.88374e-10
-5.90029e-10
-1.2602e-09
-2.3372e-09
-4.03875e-09
-6.71998e-09
-1.09283e-08
-1.73286e-08
-2.72426e-08
-4.15605e-08
-5.64754e-08
-6.18081e-08
-4.33219e-08
-8.24876e-10
1.62187e-10
3.14667e-10
4.84123e-10
6.73328e-10
8.39053e-10
9.47665e-10
9.633e-10
8.36774e-10
4.85234e-10
-2.28778e-10
-1.54882e-09
-3.93637e-09
-8.2516e-09
-1.58441e-08
-2.94689e-08
-5.48267e-08
-8.97857e-08
-1.05657e-07
-7.84836e-08
-3.46054e-08
2.37106e-10
5.55892e-10
9.23022e-10
1.32541e-09
1.7252e-09
2.09978e-09
2.4268e-09
2.67875e-09
2.80396e-09
2.71515e-09
2.24582e-09
1.01815e-09
-1.74412e-09
-6.79764e-09
-1.73885e-08
-4.39405e-08
-6.53637e-08
-6.01214e-08
-5.67522e-08
-4.47603e-08
3.94993e-10
9.11779e-10
1.4711e-09
2.08859e-09
2.73815e-09
3.4837e-09
4.17418e-09
4.85436e-09
5.55456e-09
6.28366e-09
7.05625e-09
7.90026e-09
8.92891e-09
1.11609e-08
1.66725e-08
2.35174e-08
4.08251e-08
6.90177e-08
2.92708e-08
-3.80128e-09
6.2362e-10
1.37061e-09
1.99352e-09
2.81663e-09
3.66365e-09
4.55952e-09
5.67425e-09
6.96432e-09
8.43886e-09
1.00371e-08
1.23199e-08
1.50921e-08
1.97861e-08
2.78246e-08
4.33161e-08
6.81871e-08
1.0321e-07
1.56141e-07
9.83723e-08
4.10865e-08
5.38294e-10
1.06512e-09
1.92032e-09
2.91686e-09
3.99577e-09
5.31765e-09
6.94511e-09
8.93589e-09
1.12765e-08
1.39622e-08
1.71292e-08
2.09925e-08
2.68953e-08
3.56664e-08
4.67514e-08
6.12547e-08
6.56932e-08
7.23959e-08
5.8504e-08
5.0629e-08
1.03839e-10
-7.89956e-10
3.99713e-10
1.04508e-09
2.12422e-09
3.55833e-09
5.35449e-09
7.60153e-09
1.03342e-08
1.35423e-08
1.72569e-08
2.16305e-08
2.69774e-08
3.32135e-08
4.07843e-08
4.62844e-08
4.65325e-08
2.6974e-08
-1.90666e-08
2.65607e-08
-1.46213e-11
-2.75991e-10
-5.28976e-10
-5.28273e-10
-4.71844e-10
-4.68801e-10
-5.19427e-10
-5.21077e-10
-2.01259e-10
8.20127e-10
3.09618e-09
7.1848e-09
1.33917e-08
2.13771e-08
3.04064e-08
3.88556e-08
4.51949e-08
3.93296e-08
5.34071e-08
2.33279e-08
)
;

boundaryField
{
    movingWall
    {
        type            zeroGradient;
    }
    fixedWalls
    {
        type            zeroGradient;
    }
    frontAndBack
    {
        type            empty;
    }
}


// ************************************************************************* //
