/*--------------------------------*- C++ -*----------------------------------*\
| =========                 |                                                 |
| \\      /  F ield         | OpenFOAM: The Open Source CFD Toolbox           |
|  \\    /   O peration     | Version:  2312                                  |
|   \\  /    A nd           | Website:  www.openfoam.com                      |
|    \\/     M anipulation  |                                                 |
\*---------------------------------------------------------------------------*/
FoamFile
{
    version     2.0;
    format      ascii;
    arch        "LSB;label=32;scalar=64";
    class       volScalarField;
    location    "0.5";
    object      initialResidual:p;
}
// * * * * * * * * * * * * * * * * * * * * * * * * * * * * * * * * * * * * * //

dimensions      [0 0 0 0 0 0 0];

internalField   nonuniform List<scalar> 
400
(
6.14552e-13
1.21928e-12
1.59766e-12
2.68523e-12
3.73106e-12
4.56714e-12
5.08012e-12
5.334e-12
4.73606e-12
4.25982e-12
3.41909e-12
1.38195e-12
-7.72843e-13
-3.42712e-12
-6.11668e-12
-8.27762e-12
-9.10743e-12
-8.02134e-12
-6.21253e-12
-5.19474e-13
-7.61339e-13
7.06563e-14
-1.20441e-12
-1.42076e-12
-1.37962e-12
-1.2307e-12
-1.04216e-12
-8.43892e-13
-6.61718e-13
-2.92325e-13
-1.02725e-13
1.27762e-13
2.99642e-13
4.73467e-13
6.29788e-13
7.24221e-13
5.08213e-13
8.43894e-16
-6.76502e-13
4.1908e-12
-2.13049e-12
3.76689e-13
-8.13443e-13
-1.39438e-12
-1.70707e-12
-1.83875e-12
-1.85203e-12
-1.73523e-12
-1.51759e-12
-1.10941e-12
-6.75583e-13
-7.81769e-14
5.62074e-13
1.21004e-12
1.74162e-12
1.87792e-12
1.04312e-12
-6.11974e-13
-1.58348e-12
5.51797e-12
-3.77164e-12
-2.83009e-14
-6.56614e-13
-1.16899e-12
-1.45529e-12
-1.59611e-12
-1.67111e-12
-1.61902e-12
-1.40524e-12
-1.02348e-12
-5.30947e-13
8.21586e-14
6.4783e-13
1.19581e-12
1.51433e-12
1.2956e-12
-1.6039e-13
-2.24033e-12
-2.34868e-12
8.19154e-12
-4.64302e-12
-4.75537e-13
-6.87674e-13
-1.10848e-12
-1.34363e-12
-1.45493e-12
-1.55803e-12
-1.58189e-12
-1.43592e-12
-1.09866e-12
-6.34007e-13
4.78114e-14
6.13152e-13
1.16234e-12
1.34423e-12
6.76062e-13
-1.70001e-12
-4.3817e-12
-3.89048e-12
1.09146e-11
-4.99407e-12
-9.54184e-13
-9.27796e-13
-1.27595e-12
-1.49398e-12
-1.57869e-12
-1.73163e-12
-1.80588e-12
-1.72184e-12
-1.44046e-12
-1.14453e-12
-7.43972e-13
1.78394e-13
8.85288e-13
8.13956e-13
-7.11697e-13
-4.67291e-12
-8.29824e-12
-7.10401e-12
1.3635e-11
-4.68469e-12
-1.32073e-12
-1.17101e-12
-1.38152e-12
-1.57099e-12
-1.66142e-12
-1.85095e-12
-2.04682e-12
-2.078e-12
-2.12531e-12
-2.42811e-12
-2.03028e-12
-1.05983e-12
-1.44695e-13
-8.56091e-13
-3.96702e-12
-1.0096e-11
-1.5372e-11
-1.43275e-11
1.66977e-11
-3.90101e-12
-1.58259e-12
-1.3363e-12
-1.35856e-12
-1.47002e-12
-1.57278e-12
-1.86556e-12
-2.15413e-12
-2.36676e-12
-2.99612e-12
-2.87224e-12
-1.5621e-10
-1.90349e-12
-2.52369e-12
-3.93978e-12
-9.25102e-12
-2.04332e-11
-2.88125e-11
-2.91603e-11
1.96927e-11
-2.51247e-12
-1.75854e-12
-1.43747e-12
-1.16735e-12
-1.19047e-12
-1.28787e-12
-1.73796e-12
-2.34914e-12
-2.9181e-12
-2.56943e-12
-2.53796e-12
1.48583e-10
-3.43389e-12
-5.45718e-12
-9.48065e-12
-1.9472e-11
-4.03223e-11
-5.79012e-11
-6.82895e-11
2.51572e-11
-6.33268e-13
-1.8619e-12
-1.46743e-12
-8.77616e-13
-7.35094e-13
-8.07827e-13
-1.31257e-12
-2.18244e-12
-3.0875e-12
-3.88351e-12
-4.21733e-12
-4.09718e-12
-3.87021e-12
-1.23724e-11
-1.98607e-11
-3.88299e-11
-7.92181e-11
-1.20133e-10
-1.69577e-10
2.52951e-11
2.01626e-12
-1.82709e-12
-1.28043e-12
-3.2652e-13
2.21329e-14
-1.37116e-15
-6.1092e-13
-1.60042e-12
-3.07192e-12
-4.95511e-12
-6.99147e-12
-9.91829e-12
-4.3629e-11
-2.41777e-11
-4.1841e-11
-6.67239e-11
-1.22315e-10
-1.69556e-10
-2.58083e-10
1.08783e-10
5.49795e-12
-1.59839e-12
-8.07538e-13
6.85093e-13
1.32783e-12
1.43497e-12
7.68529e-13
-4.99745e-13
-2.25387e-12
-5.1123e-12
-9.57249e-12
-1.65674e-11
-8.64263e-12
2.27016e-11
-7.70669e-11
-1.07563e-10
-3.53831e-10
-8.76652e-10
-1.02834e-09
3.9347e-10
1.06267e-11
-7.99397e-13
3.48868e-13
2.35859e-12
3.38288e-12
3.69264e-12
3.16495e-12
1.8956e-12
-6.23683e-13
-4.93207e-12
-1.23358e-11
-2.39077e-11
-4.77834e-11
-1.88778e-10
1.78837e-09
-2.86133e-10
-1.89205e-09
-4.84798e-09
-4.50881e-09
-1.3527e-10
1.72793e-11
4.73595e-13
2.01884e-12
4.76952e-12
6.43235e-12
7.38366e-12
6.68287e-12
5.11617e-12
2.41018e-12
-3.34275e-12
-1.69434e-11
-3.66904e-11
-6.24503e-11
-2.16607e-10
-2.73661e-09
-2.13003e-09
-4.61436e-09
-7.74775e-09
-8.56588e-09
-3.20515e-09
2.64989e-11
3.91989e-12
4.96864e-12
8.20569e-12
1.10956e-11
1.27368e-11
8.4084e-12
6.13819e-12
3.49471e-12
-3.08423e-12
-1.53331e-11
-2.98208e-11
-5.09749e-11
-5.22252e-10
-1.75612e-09
-1.45508e-09
2.04369e-09
8.34466e-09
6.43985e-09
-5.94713e-09
4.12213e-11
2.21106e-13
2.84121e-12
6.82553e-12
1.19839e-11
7.64335e-12
5.45793e-12
6.96911e-12
4.53405e-12
-8.38507e-12
-1.00899e-12
-1.48896e-11
2.49174e-11
-1.09652e-10
-7.35146e-10
2.06818e-09
1.47241e-08
2.77903e-08
2.99811e-08
-5.64904e-09
5.76209e-11
2.52259e-11
1.41187e-11
1.06569e-11
6.54771e-12
1.12885e-11
1.66611e-11
1.20569e-11
-1.17801e-12
2.18806e-11
-1.5177e-13
-7.37477e-11
-1.50633e-10
-1.05895e-10
4.35159e-10
-2.98353e-10
5.96603e-09
5.49002e-10
1.21589e-10
2.81514e-09
1.66423e-11
-4.07405e-11
-2.58487e-11
5.42398e-12
1.65377e-11
2.04611e-11
2.56642e-11
2.25645e-11
8.21554e-12
-1.96768e-11
-7.00392e-11
2.2293e-11
-6.20376e-10
-3.85949e-10
-1.25729e-10
3.72125e-10
-2.01624e-09
-1.02041e-08
-2.03735e-08
8.28641e-09
-1.7385e-10
-2.61606e-10
-9.31779e-11
-1.10876e-10
-1.22234e-10
-1.49527e-10
-2.04083e-10
-2.91139e-10
-4.16819e-10
-5.69268e-10
-7.16295e-10
-7.9164e-10
-6.95869e-10
-5.05216e-10
-1.12403e-10
3.74843e-10
1.52797e-09
-5.66474e-10
-3.57961e-09
5.77849e-09
2.33664e-10
1.55262e-10
5.38014e-11
3.08965e-11
3.65846e-11
3.44869e-11
1.61519e-11
-2.70377e-11
-9.80506e-11
-1.98677e-10
-3.18331e-10
-4.2214e-10
-5.09621e-10
-5.29978e-10
-3.48764e-10
3.58472e-10
1.59522e-09
3.81104e-09
3.6659e-09
-2.25099e-08
)
;

boundaryField
{
    movingWall
    {
        type            zeroGradient;
    }
    fixedWalls
    {
        type            zeroGradient;
    }
    frontAndBack
    {
        type            empty;
    }
}


// ************************************************************************* //
