/*--------------------------------*- C++ -*----------------------------------*\
| =========                 |                                                 |
| \\      /  F ield         | OpenFOAM: The Open Source CFD Toolbox           |
|  \\    /   O peration     | Version:  2312                                  |
|   \\  /    A nd           | Website:  www.openfoam.com                      |
|    \\/     M anipulation  |                                                 |
\*---------------------------------------------------------------------------*/
FoamFile
{
    version     2.0;
    format      ascii;
    arch        "LSB;label=32;scalar=64";
    class       volScalarField;
    location    "0.5";
    object      initialResidual:epsilon;
}
// * * * * * * * * * * * * * * * * * * * * * * * * * * * * * * * * * * * * * //

dimensions      [0 0 0 0 0 0 0];

internalField   nonuniform List<scalar> 
400
(
0
0
0
0
0
0
0
0
0
0
0
0
0
0
0
0
0
0
0
0
0
-1.26464e-09
-1.2754e-09
-1.26601e-09
-1.24918e-09
-1.23511e-09
-1.22561e-09
-1.21912e-09
-1.21423e-09
-1.21021e-09
-1.20695e-09
-1.20495e-09
-1.20388e-09
-1.2062e-09
-1.21514e-09
-1.23279e-09
-1.25657e-09
-1.27309e-09
-1.26292e-09
0
0
-1.27293e-09
-1.22323e-09
-1.1903e-09
-1.16574e-09
-1.15065e-09
-1.14178e-09
-1.13647e-09
-1.13291e-09
-1.13011e-09
-1.12779e-09
-1.1262e-09
-1.12565e-09
-1.12839e-09
-1.13719e-09
-1.15549e-09
-1.18541e-09
-1.22417e-09
-1.27257e-09
0
0
-1.25634e-09
-1.18295e-09
-1.1382e-09
-1.1082e-09
-1.09105e-09
-1.08218e-09
-1.07756e-09
-1.07478e-09
-1.07264e-09
-1.07086e-09
-1.06967e-09
-1.06956e-09
-1.07309e-09
-1.08326e-09
-1.10437e-09
-1.14022e-09
-1.19132e-09
-1.26324e-09
0
0
-1.23062e-09
-1.15076e-09
-1.10065e-09
-1.06768e-09
-1.04933e-09
-1.03996e-09
-1.03521e-09
-1.03261e-09
-1.03075e-09
-1.02932e-09
-1.02867e-09
-1.02915e-09
-1.03363e-09
-1.04531e-09
-1.06904e-09
-1.10889e-09
-1.16685e-09
-1.24683e-09
0
0
-1.20857e-09
-1.12894e-09
-1.07651e-09
-1.04204e-09
-1.02287e-09
-1.0132e-09
-1.00845e-09
-1.00594e-09
-1.00421e-09
-1.00288e-09
-1.00251e-09
-1.00328e-09
-1.00829e-09
-1.02098e-09
-1.04657e-09
-1.08859e-09
-1.15055e-09
-1.23206e-09
0
0
-1.19391e-09
-1.11489e-09
-1.06192e-09
-1.02693e-09
-1.00741e-09
-9.97599e-10
-9.9279e-10
-9.90188e-10
-9.88291e-10
-9.86757e-10
-9.85929e-10
-9.866e-10
-9.91186e-10
-1.00384e-09
-1.03007e-09
-1.07394e-09
-1.13575e-09
-1.21751e-09
0
0
-1.18416e-09
-1.10582e-09
-1.05294e-09
-1.01791e-09
-9.98367e-10
-9.88501e-10
-9.83572e-10
-9.80676e-10
-9.78338e-10
-9.76067e-10
-9.74021e-10
-9.74031e-10
-9.7653e-10
-9.87197e-10
-1.01181e-09
-1.05583e-09
-1.11486e-09
-1.1979e-09
0
0
-1.17708e-09
-1.09927e-09
-1.04681e-09
-1.01208e-09
-9.92729e-10
-9.82894e-10
-9.77794e-10
-9.74447e-10
-9.71352e-10
-9.67826e-10
-9.63938e-10
-9.60375e-10
-9.59664e-10
-9.64243e-10
-9.81525e-10
-1.02108e-09
-1.07135e-09
-1.16065e-09
0
0
-1.17117e-09
-1.09374e-09
-1.04202e-09
-1.00789e-09
-9.88954e-10
-9.79257e-10
-9.74004e-10
-9.70099e-10
-9.6595e-10
-9.60624e-10
-9.53468e-10
-9.4436e-10
-9.33805e-10
-9.24692e-10
-9.18432e-10
-9.31169e-10
-9.63254e-10
-1.06451e-09
0
0
-1.16576e-09
-1.08857e-09
-1.03801e-09
-1.00479e-09
-9.86563e-10
-9.77166e-10
-9.71843e-10
-9.67349e-10
-9.61918e-10
-9.54063e-10
-9.41953e-10
-9.22998e-10
-8.92556e-10
-8.43204e-10
-7.64723e-10
-6.77053e-10
-6.11578e-10
-7.09032e-10
0
0
-1.16092e-09
-1.08379e-09
-1.03495e-09
-1.00311e-09
-9.85858e-10
-9.76943e-10
-9.71652e-10
-9.66647e-10
-9.59863e-10
-9.48816e-10
-9.29098e-10
-8.91737e-10
-8.17771e-10
-6.68339e-10
-3.8181e-10
8.73374e-11
6.77785e-10
9.72591e-10
0
0
-1.15767e-09
-1.08017e-09
-1.03392e-09
-1.00388e-09
-9.8785e-10
-9.79461e-10
-9.74286e-10
-9.68945e-10
-9.60985e-10
-9.462e-10
-9.15146e-10
-8.44245e-10
-6.75943e-10
-2.84809e-10
5.63862e-10
2.20238e-09
5.11447e-09
8.55314e-09
0
0
-1.1585e-09
-1.0797e-09
-1.03781e-09
-1.00998e-09
-9.94779e-10
-9.86691e-10
-9.81449e-10
-9.75861e-10
-9.67058e-10
-9.48662e-10
-9.02793e-10
-7.788e-10
-4.3742e-10
4.44066e-10
2.48489e-09
6.8882e-09
1.87823e-08
3.00782e-08
0
0
-1.16828e-09
-1.08931e-09
-1.05243e-09
-1.02624e-09
-1.0129e-09
-1.00592e-09
-1.00136e-09
-9.96421e-10
-9.87704e-10
-9.66305e-10
-9.04841e-10
-7.20215e-10
-1.69699e-10
1.34931e-09
4.743e-09
1.1947e-08
2.47317e-08
5.03645e-08
0
0
-1.19404e-09
-1.12038e-09
-1.08966e-09
-1.07199e-09
-1.06492e-09
-1.063e-09
-1.06223e-09
-1.06003e-09
-1.05284e-09
-1.03037e-09
-9.61031e-10
-7.53872e-10
-2.20404e-10
8.73155e-10
2.07867e-09
2.27935e-09
1.82532e-09
1.28466e-09
0
0
-1.25959e-09
-1.20739e-09
-1.20208e-09
-1.20769e-09
-1.22231e-09
-1.2402e-09
-1.25576e-09
-1.26483e-09
-1.26267e-09
-1.23981e-09
-1.16895e-09
-9.86434e-10
-5.8771e-10
-1.23156e-10
-3.6143e-10
-4.349e-09
-1.63991e-08
-1.77654e-08
0
0
-1.4209e-09
-1.48845e-09
-1.57982e-09
-1.66234e-09
-1.75635e-09
-1.86078e-09
-1.9659e-09
-2.05892e-09
-2.123e-09
-2.14143e-09
-2.09373e-09
-1.95607e-09
-1.738e-09
-1.7432e-09
-2.77439e-09
-3.07826e-09
-3.60628e-09
-2.7506e-08
0
0
-2.13883e-09
-2.794e-09
-3.23961e-09
-3.53678e-09
-3.89946e-09
-4.42474e-09
-5.14442e-09
-6.04441e-09
-7.05577e-09
-7.99915e-09
-8.7229e-09
-8.99965e-09
-9.10075e-09
-9.09255e-09
-9.20402e-09
-7.82422e-09
-5.27461e-09
5.13548e-09
0
0
0
0
0
0
0
0
0
0
0
0
0
0
0
0
0
0
0
0
0
)
;

boundaryField
{
    movingWall
    {
        type            zeroGradient;
    }
    fixedWalls
    {
        type            zeroGradient;
    }
    frontAndBack
    {
        type            empty;
    }
}


// ************************************************************************* //
