/*--------------------------------*- C++ -*----------------------------------*\
| =========                 |                                                 |
| \\      /  F ield         | OpenFOAM: The Open Source CFD Toolbox           |
|  \\    /   O peration     | Version:  2312                                  |
|   \\  /    A nd           | Website:  www.openfoam.com                      |
|    \\/     M anipulation  |                                                 |
\*---------------------------------------------------------------------------*/
FoamFile
{
    version     2.0;
    format      ascii;
    arch        "LSB;label=32;scalar=64";
    class       volScalarField;
    location    "0.5";
    object      L_P;
}
// * * * * * * * * * * * * * * * * * * * * * * * * * * * * * * * * * * * * * //

dimensions      [0 0 0 0 0 0 0];

internalField   nonuniform List<scalar> 
400
(
-124.936
-120.824
-118.345
-117.11
-116.492
-116.16
-115.956
-115.81
-115.697
-115.612
-115.551
-115.505
-115.491
-115.528
-115.66
-115.975
-116.654
-118.038
-120.752
-124.9
-120.784
-114.594
-112.003
-110.789
-110.215
-109.942
-109.802
-109.716
-109.649
-109.589
-109.535
-109.49
-109.464
-109.473
-109.567
-109.844
-110.482
-111.829
-114.629
-120.779
-118.076
-111.795
-109.355
-108.188
-107.622
-107.352
-107.223
-107.154
-107.109
-107.072
-107.039
-107.012
-107.002
-107.033
-107.154
-107.457
-108.105
-109.406
-112.068
-118.293
-116.656
-110.427
-108.048
-106.89
-106.314
-106.035
-105.904
-105.84
-105.803
-105.776
-105.754
-105.74
-105.745
-105.796
-105.943
-106.276
-106.951
-108.262
-110.899
-117.049
-115.891
-109.741
-107.373
-106.206
-105.617
-105.329
-105.193
-105.13
-105.098
-105.078
-105.065
-105.06
-105.078
-105.146
-105.316
-105.678
-106.386
-107.729
-110.392
-116.41
-115.436
-109.391
-107.023
-105.845
-105.245
-104.949
-104.812
-104.75
-104.721
-104.706
-104.698
-104.7
-104.727
-104.808
-104.997
-105.385
-106.126
-107.506
-110.209
-116.031
-115.108
-109.199
-106.836
-105.652
-105.046
-104.748
-104.61
-104.549
-104.522
-104.51
-104.505
-104.511
-104.543
-104.634
-104.837
-105.246
-106.016
-107.431
-110.17
-115.729
-114.815
-109.07
-106.723
-105.542
-104.936
-104.638
-104.501
-104.442
-104.416
-104.405
-104.4
-104.407
-104.442
-104.537
-104.749
-105.174
-105.969
-107.419
-110.207
-115.423
-114.513
-108.957
-106.637
-105.464
-104.864
-104.57
-104.436
-104.379
-104.354
-104.342
-104.336
-104.341
-104.373
-104.467
-104.682
-105.116
-105.933
-107.425
-110.278
-115.059
-114.18
-108.838
-106.553
-105.395
-104.805
-104.519
-104.39
-104.335
-104.311
-104.297
-104.288
-104.288
-104.313
-104.398
-104.605
-105.032
-105.856
-107.394
-110.353
-114.586
-113.801
-108.697
-106.456
-105.32
-104.746
-104.472
-104.351
-104.3
-104.277
-104.262
-104.249
-104.24
-104.252
-104.315
-104.487
-104.864
-105.64
-107.185
-110.302
-113.899
-113.362
-108.525
-106.34
-105.235
-104.684
-104.427
-104.318
-104.275
-104.255
-104.24
-104.222
-104.202
-104.19
-104.206
-104.286
-104.5
-105.046
-106.417
-109.536
-112.446
-112.846
-108.311
-106.201
-105.14
-104.623
-104.392
-104.3
-104.267
-104.253
-104.24
-104.219
-104.185
-104.135
-104.057
-103.928
-103.739
-103.693
-104.349
-106.173
-107.935
-112.222
-108.049
-106.04
-105.045
-104.575
-104.374
-104.301
-104.281
-104.276
-104.268
-104.247
-104.198
-104.092
-103.853
-103.342
-102.484
-101.588
-100.082
-97.3923
-97.4103
-111.505
-107.742
-105.874
-104.964
-104.544
-104.375
-104.322
-104.312
-104.315
-104.311
-104.288
-104.221
-104.043
-103.59
-102.62
-101.118
-98.94
-93.4734
-86.9828
-85.4651
-110.561
-107.422
-105.702
-104.865
-104.485
-104.338
-104.285
-104.268
-104.256
-104.237
-104.193
-104.092
-103.843
-103.25
-102.173
-100.757
-98.4204
-92.0027
-83.5412
-78.1041
-109.885
-106.909
-105.308
-104.491
-104.09
-103.886
-103.756
-103.653
-103.553
-103.442
-103.307
-103.105
-102.748
-102.109
-101.33
-100.82
-100.402
-94.8046
-83.2382
-74.5624
-108.345
-105.732
-103.545
-102.357
-101.668
-101.184
-100.773
-100.394
-100.027
-99.6609
-99.2849
-98.8763
-98.3861
-97.7442
-97.144
-97.2147
-98.0285
-95.7927
-84.3119
-71.9817
-105.176
-98.7033
-94.5743
-92.3644
-91.078
-90.1158
-89.2865
-88.5469
-87.8703
-87.2358
-86.637
-86.0858
-85.6019
-85.2103
-85.0086
-85.1318
-85.5563
-83.3832
-79.3239
-68.9098
-81.3043
-73.9608
-69.4878
-67.3576
-66.2338
-65.5761
-65.1807
-64.9498
-64.8172
-64.7378
-64.6792
-64.6381
-64.5941
-64.5968
-64.6242
-64.7082
-64.6672
-64.6353
-63.7774
-65.4721
)
;

boundaryField
{
    movingWall
    {
        type            calculated;
        value           nonuniform List<scalar> 
20
(
-81.3043
-73.9608
-69.4878
-67.3576
-66.2338
-65.5761
-65.1807
-64.9498
-64.8172
-64.7378
-64.6792
-64.6381
-64.5941
-64.5968
-64.6242
-64.7082
-64.6672
-64.6353
-63.7774
-65.4721
)
;
    }
    fixedWalls
    {
        type            calculated;
        value           nonuniform List<scalar> 
60
(
-124.936
-120.784
-118.076
-116.656
-115.891
-115.436
-115.108
-114.815
-114.513
-114.18
-113.801
-113.362
-112.846
-112.222
-111.505
-110.561
-109.885
-108.345
-105.176
-81.3043
-124.9
-120.779
-118.293
-117.049
-116.41
-116.031
-115.729
-115.423
-115.059
-114.586
-113.899
-112.446
-107.935
-97.4103
-85.4651
-78.1041
-74.5624
-71.9817
-68.9098
-65.4721
-124.936
-120.824
-118.345
-117.11
-116.492
-116.16
-115.956
-115.81
-115.697
-115.612
-115.551
-115.505
-115.491
-115.528
-115.66
-115.975
-116.654
-118.038
-120.752
-124.9
)
;
    }
    frontAndBack
    {
        type            empty;
    }
}


// ************************************************************************* //
