/*--------------------------------*- C++ -*----------------------------------*\
| =========                 |                                                 |
| \\      /  F ield         | OpenFOAM: The Open Source CFD Toolbox           |
|  \\    /   O peration     | Version:  2312                                  |
|   \\  /    A nd           | Website:  www.openfoam.com                      |
|    \\/     M anipulation  |                                                 |
\*---------------------------------------------------------------------------*/
FoamFile
{
    version     2.0;
    format      ascii;
    arch        "LSB;label=32;scalar=64";
    class       volVectorField;
    location    "0.5";
    object      LambVectorField;
}
// * * * * * * * * * * * * * * * * * * * * * * * * * * * * * * * * * * * * * //

dimensions      [0 1 -2 0 0 0 0];

internalField   nonuniform List<vector> 
400
(
(-1.66433e-05 -1.65189e-05 -2.52026e-09)
(-8.48033e-05 -0.00014783 0)
(-0.000188969 -0.000575207 -8.86712e-07)
(-0.000280029 -0.00132307 0)
(-0.000340809 -0.00236251 -7.82908e-06)
(-0.000367696 -0.00358967 0)
(-0.000361584 -0.00487759 -2.33974e-05)
(-0.000323725 -0.00609926 0)
(-0.000254717 -0.00713705 -4.14933e-05)
(-0.000156268 -0.00788717 0)
(-4.49329e-05 -0.00823758 -5.15015e-05)
(9.11008e-05 -0.00814976 -0)
(0.000226123 -0.0075802 -4.55246e-05)
(0.000346832 -0.00656336 -0)
(0.000433234 -0.00519751 -2.58144e-05)
(0.000463864 -0.00365813 -0)
(0.000422005 -0.0021822 -6.8942e-06)
(0.000306982 -0.00101297 -0)
(0.000148994 -0.000288414 -2.84313e-07)
(3.79725e-05 -3.87119e-05 -0)
(-0.00014897 -8.51282e-05 -3.29676e-08)
(-0.000159919 -0.000159995 0)
(-0.000137494 -0.000210183 -4.3337e-07)
(-0.000106882 -0.000234022 0)
(-8.56093e-05 -0.000259559 -1.01531e-06)
(-7.33815e-05 -0.000302307 0)
(-6.46075e-05 -0.000360479 -1.98511e-06)
(-5.47474e-05 -0.000422206 0)
(-4.1626e-05 -0.000473526 -3.13766e-06)
(-2.52018e-05 -0.000506089 0)
(-6.4402e-06 -0.000516946 -3.67786e-06)
(1.33989e-05 -0.000494166 -0)
(3.27496e-05 -0.000454432 -3.10905e-06)
(5.12203e-05 -0.000406019 -0)
(7.11368e-05 -0.000365022 -2.09107e-06)
(9.84706e-05 -0.000343277 -0)
(0.000140598 -0.000337161 -1.29797e-06)
(0.000196887 -0.000320085 -0)
(0.000241545 -0.00025076 -3.91004e-07)
(0.000291691 -0.000156107 -0)
(-0.000589174 -0.00020016 -1.05205e-07)
(-0.000227563 -0.000154169 0)
(-0.000150038 -0.00015518 -3.62795e-07)
(-8.9852e-05 -0.000130131 0)
(-4.6433e-05 -9.07819e-05 -3.80663e-07)
(-2.05247e-05 -5.34397e-05 0)
(-7.45329e-06 -2.59348e-05 -1.50695e-07)
(-1.73032e-06 -8.25799e-06 0)
(4.80856e-07 3.36945e-06 2.35109e-08)
(9.73626e-07 1.19696e-05 0)
(3.98554e-07 1.89229e-05 1.42245e-07)
(-9.52241e-07 2.25044e-05 -0)
(-1.73772e-06 1.53742e-05 1.11988e-07)
(2.00632e-06 -1.02265e-05 -0)
(1.78084e-05 -5.95998e-05 -3.69216e-07)
(5.56487e-05 -0.000128885 -0)
(0.000123445 -0.00020062 -8.64727e-07)
(0.000219691 -0.000245242 -0)
(0.000347617 -0.000244906 -4.68284e-07)
(0.0011145 -0.000362696 -0)
(-0.0014191 -0.00032818 -1.90459e-07)
(-0.000289697 -0.000145028 0)
(-0.000159378 -0.000124781 -3.1541e-07)
(-8.83749e-05 -9.69576e-05 0)
(-3.65369e-05 -5.36645e-05 -2.39147e-07)
(-3.0298e-06 -5.86763e-06 0)
(1.43919e-05 3.69277e-05 2.26557e-07)
(2.0171e-05 7.04722e-05 0)
(1.86277e-05 9.48041e-05 6.99533e-07)
(1.26351e-05 0.000111061 0)
(3.88635e-06 0.000119061 9.52921e-07)
(-5.99777e-06 0.000115548 -0)
(-1.36707e-05 9.42683e-05 7.39659e-07)
(-1.24749e-05 4.93523e-05 -0)
(7.41638e-06 -1.93366e-05 -1.31246e-07)
(5.58894e-05 -0.000101429 -0)
(0.000138019 -0.000176345 -8.51092e-07)
(0.00025475 -0.000222202 -0)
(0.000475622 -0.000254693 -5.56797e-07)
(0.00272276 -0.000626483 -0)
(-0.0027261 -0.000466606 -2.82134e-07)
(-0.000378523 -0.000148878 0)
(-0.000174999 -0.000110693 -2.98417e-07)
(-9.53081e-05 -8.53003e-05 0)
(-3.94823e-05 -4.73237e-05 -2.25227e-07)
(-1.02296e-06 -1.61048e-06 0)
(2.06607e-05 4.28612e-05 2.80895e-07)
(2.84319e-05 7.97866e-05 0)
(2.64285e-05 0.00010698 8.4698e-07)
(1.81789e-05 0.000124242 0)
(6.25227e-06 0.00013036 1.13026e-06)
(-6.51012e-06 0.00012131 -0)
(-1.49334e-05 9.08631e-05 7.83788e-07)
(-1.00824e-05 3.46532e-05 -0)
(1.93415e-05 -4.36386e-05 -3.31778e-07)
(8.21542e-05 -0.000128776 -0)
(0.00018096 -0.000198754 -1.09302e-06)
(0.000325016 -0.000240692 -0)
(0.00069183 -0.000306159 -7.6359e-07)
(0.00544677 -0.000983364 -0)
(-0.00458204 -0.000625349 -3.93074e-07)
(-0.000521239 -0.000169753 0)
(-0.000210519 -0.000112789 -3.2506e-07)
(-0.000115798 -8.87232e-05 0)
(-5.49163e-05 -5.65483e-05 -2.89985e-07)
(-1.1384e-05 -1.53828e-05 0)
(1.52481e-05 2.70502e-05 1.91742e-07)
(2.65749e-05 6.33641e-05 0)
(2.64312e-05 8.98543e-05 7.7443e-07)
(1.88564e-05 0.000105247 0)
(7.256e-06 0.000107417 1.02581e-06)
(-4.27425e-06 9.13691e-05 -0)
(-8.51504e-06 5.0057e-05 4.84057e-07)
(6.22927e-06 -2.01018e-05 -0)
(5.33926e-05 -0.00011191 -9.74874e-07)
(0.000141419 -0.00020456 -0)
(0.000271747 -0.000273265 -1.75526e-06)
(0.000468202 -0.000313613 -0)
(0.00107282 -0.000420815 -1.22816e-06)
(0.00977919 -0.00151538 -0)
(-0.00708744 -0.000819892 -5.44343e-07)
(-0.000739485 -0.00020853 0)
(-0.000276587 -0.000130318 -4.05196e-07)
(-0.000155081 -0.000105372 0)
(-8.40458e-05 -7.70195e-05 -4.29645e-07)
(-3.27194e-05 -3.93383e-05 0)
(6.87552e-07 1.08164e-06 8.38046e-09)
(1.71547e-05 3.60223e-05 0)
(2.05101e-05 6.05816e-05 5.74937e-07)
(1.54445e-05 7.25529e-05 0)
(6.30518e-06 6.87015e-05 7.32078e-07)
(-1.31285e-06 4.21231e-05 -0)
(2.66485e-06 -1.6389e-05 -1.80519e-07)
(3.43853e-05 -0.0001108 -0)
(0.000111837 -0.000230009 -2.3436e-06)
(0.000245504 -0.000344916 -0)
(0.00043732 -0.000423261 -3.26257e-06)
(0.000732026 -0.000466966 -0)
(0.00171651 -0.000632034 -2.23308e-06)
(0.0165863 -0.00236522 -0)
(-0.0103959 -0.00106856 -7.63852e-07)
(-0.00105313 -0.000266718 0)
(-0.000381993 -0.000163158 -5.53335e-07)
(-0.000217531 -0.000134698 0)
(-0.000127674 -0.000106856 -6.53942e-07)
(-6.3236e-05 -6.93768e-05 0)
(-1.98879e-05 -2.84377e-05 -2.42654e-07)
(3.47626e-06 6.582e-06 0)
(1.13583e-05 2.97882e-05 3.13574e-07)
(9.41591e-06 3.79371e-05 0)
(3.13181e-06 2.58907e-05 3.10401e-07)
(1.19656e-07 -1.68472e-05 -0)
(1.48522e-05 -0.000104229 -1.32253e-06)
(7.13503e-05 -0.000243113 -0)
(0.000197431 -0.000418076 -5.07019e-06)
(0.000410315 -0.00058517 -0)
(0.000714692 -0.000694666 -6.60084e-06)
(0.00118503 -0.000751306 -0)
(0.00277315 -0.00100154 -4.43025e-06)
(0.0274021 -0.00377154 -0)
(-0.0147302 -0.00139335 -1.09107e-06)
(-0.00148638 -0.000348037 0)
(-0.000536204 -0.000212758 -7.95353e-07)
(-0.000307495 -0.000177307 0)
(-0.000186248 -0.000145201 -9.81429e-07)
(-0.000100553 -0.000102539 0)
(-4.25966e-05 -5.6324e-05 -5.3159e-07)
(-1.01015e-05 -1.75202e-05 0)
(2.8417e-06 6.70902e-06 7.85798e-08)
(3.35846e-06 1.17439e-05 0)
(-1.63595e-06 -1.05129e-05 -1.42302e-07)
(-1.979e-06 -7.69922e-05 0)
(2.32917e-05 -0.000211343 -3.10863e-06)
(0.000111783 -0.000429384 -0)
(0.00031114 -0.000712436 -1.04277e-05)
(0.000655182 -0.000989697 -0)
(0.00115262 -0.00116951 -1.40603e-05)
(0.00191519 -0.0012504 -0)
(0.00448405 -0.00163709 -9.33871e-06)
(0.044944 -0.00612902 -0)
(-0.0204049 -0.00182457 -1.58917e-06)
(-0.00207428 -0.000459686 0)
(-0.000751563 -0.000282668 -1.17638e-06)
(-0.000429022 -0.000234473 0)
(-0.000258235 -0.000190506 -1.42943e-06)
(-0.000139575 -0.000134175 0)
(-6.0306e-05 -7.46689e-05 -7.80639e-07)
(-1.59236e-05 -2.5574e-05 0)
(2.04705e-06 4.38936e-06 5.71508e-08)
(3.12222e-06 9.54678e-06 0)
(-4.47291e-06 -2.27802e-05 -3.47606e-07)
(-8.16234e-06 -0.000120793 0)
(2.14988e-05 -0.000327006 -5.5835e-06)
(0.000143603 -0.000679601 -0)
(0.000443049 -0.00116374 -2.07665e-05)
(0.000989647 -0.00165957 -0)
(0.00179623 -0.00197766 -3.08623e-05)
(0.00301024 -0.00208569 -0)
(0.00721971 -0.00270792 -2.03851e-05)
(0.0737485 -0.0099782 -0)
(-0.02787 -0.00241044 -2.3723e-06)
(-0.00286683 -0.000613904 0)
(-0.00104205 -0.000378201 -1.76999e-06)
(-0.000580386 -0.000305346 0)
(-0.00033199 -0.000234889 -1.96423e-06)
(-0.000162957 -0.000149389 0)
(-5.34575e-05 -6.25845e-05 -7.24012e-07)
(5.5476e-06 8.31483e-06 0)
(2.77329e-05 5.43248e-05 7.82669e-07)
(2.58034e-05 6.93363e-05 0)
(8.3704e-06 3.43323e-05 5.86777e-07)
(-1.15072e-05 -9.67912e-05 0)
(3.52888e-06 -0.000402216 -7.93626e-06)
(0.000141912 -0.000971475 -0)
(0.000554599 -0.00182288 -3.98748e-05)
(0.00139411 -0.00275818 -0)
(0.00271777 -0.0033878 -7.04006e-05)
(0.00499798 -0.00375935 -0)
(0.0133453 -0.00512379 -5.15587e-05)
(0.120469 -0.01539 -0)
(-0.0378029 -0.00323772 -3.67322e-06)
(-0.00392987 -0.000830363 0)
(-0.00140782 -0.000501755 -2.67076e-06)
(-0.000730807 -0.000375587 0)
(-0.000359938 -0.000247239 -2.3109e-06)
(-0.000116221 -0.000102627 0)
(3.31242e-05 3.69591e-05 4.71419e-07)
(0.000108206 0.00015224 0)
(0.000131742 0.000236678 3.74096e-06)
(0.000120434 0.000285356 0)
(8.1346e-05 0.000272137 5.14687e-06)
(2.25169e-05 0.000124415 0)
(-1.84837e-05 -0.000295666 -6.66085e-06)
(7.45943e-05 -0.00118361 -0)
(0.000558776 -0.00271498 -7.27247e-05)
(0.00185609 -0.00477647 -0)
(0.00481123 -0.00719428 -0.000205126)
(0.0142846 -0.0119662 -0)
(0.0446794 -0.0175856 -0.000246043)
(0.206315 -0.0206391 -0)
(-0.0512086 -0.00447271 -6.01942e-06)
(-0.00531268 -0.0011346 0)
(-0.00177596 -0.000632878 -3.88053e-06)
(-0.000756864 -0.000385395 0)
(-0.000198792 -0.000134043 -1.40179e-06)
(0.000146437 0.000125611 0)
(0.000341247 0.000365109 5.09898e-06)
(0.0004283 0.000567922 0)
(0.00044486 0.000734577 1.25691e-05)
(0.000412764 0.000864009 0)
(0.000335163 0.000923218 1.89489e-05)
(0.000206296 0.000806087 0)
(4.43479e-05 0.000293263 7.37493e-06)
(-4.07848e-05 -0.000965509 0)
(0.00029026 -0.00359572 -0.00011664)
(0.00218828 -0.00920438 -0)
(0.0103377 -0.0212961 -0.000872662)
(0.0453301 -0.0481663 -0)
(0.155489 -0.0777854 -0.0019093)
(0.400479 -0.0407174 -0)
(-0.0701555 -0.00644854 -1.06931e-05)
(-0.00689791 -0.0015239 0)
(-0.00184868 -0.000669787 -4.78507e-06)
(-0.000309086 -0.000157807 0)
(0.000506692 0.000338148 3.94244e-06)
(0.000968465 0.000811217 0)
(0.0011996 0.00123421 1.86337e-05)
(0.00127899 0.00159962 0)
(0.00126726 0.0019222 3.48902e-05)
(0.00119538 0.00220973 0)
(0.00106153 0.0024219 5.23826e-05)
(0.000837259 0.00241253 0)
(0.000497264 0.00188901 5.10022e-05)
(9.78362e-05 0.000541763 0)
(-0.000154602 -0.00173696 -6.59448e-05)
(0.000135103 -0.00437085 -0)
(-0.00334152 0.0141643 0.000862681)
(-0.0139741 0.0223353 -0)
(0.260062 -0.185574 -0.00914543)
(0.855303 -0.239743 -0)
(-0.0951493 -0.00974431 -2.09853e-05)
(-0.00825831 -0.00194898 0)
(-0.000804425 -0.000300622 -2.51656e-06)
(0.00144127 0.00074305 0)
(0.00254369 0.00168344 2.15855e-05)
(0.00310055 0.00253195 0)
(0.00334737 0.00329727 5.25517e-05)
(0.00338045 0.00396315 0)
(0.00330293 0.00457032 8.52308e-05)
(0.00316906 0.00514437 0)
(0.00298138 0.00563623 0.000122867)
(0.00269467 0.00585462 0)
(0.00222969 0.00544133 0.000147375)
(0.00179939 0.00479016 0)
(0.00538569 0.0156762 0.000627919)
(0.026965 0.108908 0)
(-0.00393303 0.462346 0.0362276)
(-0.462989 0.869447 -0)
(-0.242937 0.171883 0.012985)
(2.2223 -0.87568 -0)
(-0.140548 -0.0150076 -4.12032e-05)
(-0.00713638 -0.00176469 0)
(0.00319429 0.00122435 1.18058e-05)
(0.00642143 0.00331131 0)
(0.0078044 0.00504449 6.86001e-05)
(0.00829246 0.00646524 0)
(0.00837063 0.00768636 0.000123106)
(0.0083057 0.00885764 0)
(0.00818902 0.0100263 0.000181131)
(0.00807934 0.0112037 0)
(0.00802561 0.0123287 0.000251461)
(0.00802029 0.0131098 0)
(0.00810942 0.0131967 0.000317225)
(0.00939563 0.0139051 0)
(0.0311707 0.0394645 0.00126987)
(0.177154 0.238913 0)
(0.227049 0.943216 0.0598816)
(-1.23451 1.79793 -0)
(-2.31387 1.16874 0.0856956)
(5.28832 -1.54547 -0)
(-0.161554 -0.0254169 -0.000109469)
(-0.00461704 -0.00138214 0)
(0.01361 0.00548762 5.93234e-05)
(0.0189782 0.00946405 0)
(0.0210702 0.012462 0.000162837)
(0.0220249 0.0151365 0)
(0.0224743 0.0176469 0.000252307)
(0.0228277 0.0201668 0)
(0.0232409 0.0227998 0.00034786)
(0.0237563 0.0254563 0)
(0.0245979 0.0278691 0.000450542)
(0.0261926 0.0295605 0)
(0.0296441 0.029949 0.000497555)
(0.038649 0.0298389 0)
(0.079747 0.038298 0.000539496)
(0.247524 0.073077 0)
(0.471181 0.213979 0.00285485)
(-0.809464 0.30101 -0)
(-4.08788 0.987759 0.0323025)
(8.03542 -1.29895 -0)
(-0.419653 -0.0484728 -0.00026179)
(0.0587034 0.0125337 0)
(0.0758874 0.0204792 0.00018775)
(0.0762663 0.0235936 0)
(0.080947 0.0274668 0.000231768)
(0.0848492 0.030181 0)
(0.0870097 0.0308488 0.000214314)
(0.0884624 0.0300607 0)
(0.0896831 0.0282529 0.000146021)
(0.0908959 0.0253248 0)
(0.0925395 0.0205051 6.6202e-05)
(0.096066 0.012139 0)
(0.104777 -0.00202585 5.95261e-07)
(0.124857 -0.0289786 0)
(0.169139 -0.0801897 0.000884241)
(0.260599 -0.221007 0)
(0.298369 -0.455233 0.0148156)
(-0.318458 -1.19958 0)
(-2.46876 -0.518621 0.00831304)
(6.39788 -0.197705 -0)
(0.0276767 0.00850383 5.23952e-05)
(0.100662 0.0584766 0)
(0.108199 0.0100695 1.04149e-05)
(0.155072 -0.0634536 0)
(0.186239 -0.174045 0.00223026)
(0.194277 -0.295314 0)
(0.195597 -0.41842 0.0108807)
(0.196854 -0.541569 0)
(0.197422 -0.66458 0.0245362)
(0.196472 -0.78743 0)
(0.19454 -0.910168 0.0422271)
(0.193275 -1.03354 0)
(0.196077 -1.15927 0.0647461)
(0.208216 -1.29804 0)
(0.230291 -1.45466 0.100065)
(0.219667 -1.716 0)
(0.104216 -1.9046 0.159491)
(-0.497725 -2.68899 0)
(-1.46752 -1.15756 0.0421162)
(-2.58404 -0.793888 0)
(16.6833 -7.36446 0.300726)
(13.818 -12.6702 0)
(8.46926 -17.388 1.54859)
(5.51619 -21.1083 0)
(3.998 -23.7935 3.024)
(3.12493 -25.9525 0)
(2.56606 -27.8545 4.24833)
(2.18738 -29.5712 0)
(1.91732 -31.1299 5.40831)
(1.71072 -32.5559 0)
(1.53603 -33.867 6.50466)
(1.37456 -35.0748 0)
(1.21533 -36.182 7.53394)
(1.05625 -37.2265 0)
(0.896919 -38.1153 8.49396)
(0.696691 -39.1754 0)
(0.436519 -38.918 8.94121)
(-0.545897 -41.6268 0)
(0.220177 -24.9933 3.23365)
(-14.6625 -54.8831 0)
)
;

boundaryField
{
    movingWall
    {
        type            calculated;
        value           nonuniform List<vector> 
20
(
(0 -367.481 0)
(0 -379.48 0)
(0 -368.415 0)
(0 -357.9 0)
(0 -350.365 0)
(0 -344.529 0)
(0 -339.474 0)
(0 -334.915 0)
(0 -330.754 0)
(0 -326.917 0)
(0 -323.352 0)
(0 -320.016 0)
(0 -316.883 0)
(0 -313.809 0)
(0 -311.061 0)
(0 -307.592 0)
(0 -308.847 0)
(0 -298.588 0)
(0 -358.002 0)
(0 -239.007 0)
)
;
    }
    fixedWalls
    {
        type            calculated;
        value           uniform (-0 0 0);
    }
    frontAndBack
    {
        type            empty;
    }
}


// ************************************************************************* //
