/*--------------------------------*- C++ -*----------------------------------*\
| =========                 |                                                 |
| \\      /  F ield         | OpenFOAM: The Open Source CFD Toolbox           |
|  \\    /   O peration     | Version:  2312                                  |
|   \\  /    A nd           | Website:  www.openfoam.com                      |
|    \\/     M anipulation  |                                                 |
\*---------------------------------------------------------------------------*/
FoamFile
{
    version     2.0;
    format      ascii;
    arch        "LSB;label=32;scalar=64";
    class       volScalarField;
    location    "0.5";
    object      Lambda2Field;
}
// * * * * * * * * * * * * * * * * * * * * * * * * * * * * * * * * * * * * * //

dimensions      [0 0 -2 0 0 0 0];

internalField   nonuniform List<scalar> 
400
(
0.00397443
0.0125923
0.0264689
0.0312729
0.0345265
0.0298769
0.0298688
0.024271
0.0259074
0.0227673
0.0256148
0.0279866
0.0330377
0.0357233
0.0453501
0.0468357
0.0500375
0.0411008
0.0232559
0.00940077
0.0166298
0.0231934
0.0315103
0.03102
0.0306594
0.0257688
0.021762
0.0157322
0.0118915
0.00829225
0.00696141
0.00788176
0.0123599
0.0186008
0.0286027
0.0373422
0.0465385
0.0467788
0.041591
0.0250247
0.0300586
0.0300757
0.034447
0.0341373
0.0323158
0.0284067
0.0233869
0.0180235
0.0132226
0.0097769
0.00841367
0.00984783
0.0144651
0.0222231
0.0322603
0.0429396
0.0526543
0.0580328
0.0554762
0.0485675
0.0401708
0.0362806
0.0386347
0.0380288
0.0358275
0.0323893
0.0280347
0.0233521
0.0191712
0.0163355
0.0156526
0.0177954
0.0231871
0.0316499
0.0424882
0.0542028
0.0651524
0.0725077
0.0725313
0.0630178
0.0459096
0.0423561
0.044974
0.043942
0.0417405
0.038805
0.0353465
0.0317556
0.0287386
0.0271057
0.0276611
0.0310939
0.0377829
0.0476157
0.0600302
0.0738433
0.08798
0.0979201
0.0968688
0.074611
0.0491302
0.0491104
0.0534873
0.0526981
0.0506368
0.0483445
0.0458709
0.0435798
0.0421067
0.0422267
0.0447531
0.0502607
0.0594708
0.0723228
0.0884896
0.107027
0.127186
0.140671
0.135428
0.0855787
0.0518632
0.0574209
0.0645546
0.0646085
0.062897
0.0611743
0.059764
0.0589595
0.0594128
0.061943
0.0674506
0.076702
0.0905363
0.109298
0.133211
0.16146
0.193152
0.213744
0.200908
0.101841
0.0554461
0.068143
0.0787788
0.0799551
0.07865
0.0774147
0.0769687
0.0777677
0.0805252
0.0862443
0.0961814
0.111306
0.133055
0.162917
0.202037
0.250063
0.306096
0.344009
0.318609
0.134004
0.0605936
0.0822145
0.0969777
0.099214
0.0980179
0.0969001
0.0971138
0.0993498
0.104688
0.114475
0.130428
0.154357
0.189645
0.239494
0.307757
0.396576
0.506585
0.591053
0.542671
0.205584
0.0674184
0.100828
0.120293
0.122984
0.120993
0.119079
0.119158
0.12228
0.130008
0.144393
0.168254
0.205419
0.262435
0.346979
0.471238
0.647232
0.88494
1.0967
0.996972
0.380289
0.0751957
0.125701
0.150216
0.151808
0.147028
0.142544
0.140897
0.14363
0.152851
0.17159
0.204696
0.260156
0.349947
0.494279
0.729255
1.10384
1.67379
2.26017
1.99664
1.04006
0.0814301
0.159445
0.188567
0.185703
0.174601
0.16456
0.158639
0.15873
0.167458
0.188791
0.230404
0.306503
0.444202
0.693584
1.16026
2.02251
3.49039
5.30416
4.68359
1.61453
0.0822292
0.206132
0.236439
0.222868
0.199617
0.179727
0.166173
0.16035
0.165661
0.185653
0.232439
0.328183
0.529243
0.9533
1.91495
4.01538
7.84854
12.7645
13.019
-1.72103
0.0607182
0.271356
0.293202
0.254566
0.212049
0.177286
0.153861
0.138586
0.138611
0.151794
0.199586
0.307292
0.583932
1.2951
3.22023
8.46467
17.5109
29.3957
31.9168
0
0.0993228
0.356358
0.340735
0.259299
0.193309
0.138794
0.106227
0.0829352
0.0770644
0.0854562
0.132629
0.251683
0.624833
1.72804
4.99592
10.5393
12.6588
5.90375
36.6051
58.9645
0
0.35757
0.280996
0.164924
0.0984585
0.0243231
0
-0.0254921
0
-0.010095
0.0525878
0.238703
0.802163
2.28214
6.10254
0.336741
0
-120.374
0
128.407
0
0.428194
0.0829904
0
0
-0.190949
0
-0.232263
0
-0.134941
0
0.385441
1.51863
3.62627
6.78348
0
0
-200.711
0
163.009
0
0
0
-0.22111
0
-0.687949
0
-0.579823
0
-0.29482
0
0.0797176
2.89276
7.33344
12.244
1.50537
0
-112.31
0
356.95
10.5082
0
0
0
0.478256
0
0
0
0
0
0
0
1.84175
3.32091
4.13127
0
0
-60.1495
0
1018.89
3288.95
-591.77
0
-359.949
0
-85.8369
0
-33.7161
0
-16.3924
0
-16.4561
0
-15.7346
0
0
0
0
0
1686.67
)
;

boundaryField
{
    movingWall
    {
        type            calculated;
        value           nonuniform List<scalar> 
20
(
5531.11
0
0
0
0
0
0
0
0
0
0
0
0
0
0
0
0
0
0
3161.74
)
;
    }
    fixedWalls
    {
        type            calculated;
        value           nonuniform List<scalar> 
60
(
0.000405027
0.00866856
0.0315364
0.0204968
0.0506289
0.0158608
0.0497843
0
0.0452187
0
0.0332018
0
0
0
0
0
0
0
36.0086
6871.86
0.00241143
0.0174619
0.0545955
0.035849
0.0815538
0.00922803
0.0694861
0
0.0648708
0
0.950156
0
0
-31.8382
83.1852
97.04
596.331
880.541
3623.26
2309.23
0.00359205
0.00902599
0.0226882
0.024289
0.0398315
0.0284558
0.0417248
0.0300954
0.0435768
0.0388281
0.0478132
0.0497658
0.0582118
0.0487296
0.0661012
0.0456164
0.0546254
0.030827
0.0178114
0.00212275
)
;
    }
    frontAndBack
    {
        type            empty;
    }
}


// ************************************************************************* //
