/*--------------------------------*- C++ -*----------------------------------*\
| =========                 |                                                 |
| \\      /  F ield         | OpenFOAM: The Open Source CFD Toolbox           |
|  \\    /   O peration     | Version:  2312                                  |
|   \\  /    A nd           | Website:  www.openfoam.com                      |
|    \\/     M anipulation  |                                                 |
\*---------------------------------------------------------------------------*/
FoamFile
{
    version     2.0;
    format      ascii;
    arch        "LSB;label=32;scalar=64";
    class       volScalarField;
    location    "0.5";
    object      logk;
}
// * * * * * * * * * * * * * * * * * * * * * * * * * * * * * * * * * * * * * //

dimensions      [0 2 -2 0 0 0 0];

internalField   nonuniform List<scalar> 
400
(
-6.90776
-6.90776
-6.90776
-6.90776
-6.90776
-6.90776
-6.90776
-6.90776
-6.90776
-6.90776
-6.90776
-6.90776
-6.90776
-6.90776
-6.90776
-6.90776
-6.90776
-6.90776
-6.90776
-6.90776
-6.90776
-6.90776
-6.90776
-6.83635
-6.79393
-6.77358
-6.76305
-6.75643
-6.75114
-6.74629
-6.74178
-6.73814
-6.73597
-6.73634
-6.74314
-6.76345
-6.81057
-6.90776
-6.90776
-6.90776
-6.90776
-6.90776
-6.70073
-6.6064
-6.56099
-6.53927
-6.52876
-6.52314
-6.51938
-6.51625
-6.51343
-6.51122
-6.51042
-6.51289
-6.52269
-6.54713
-6.59933
-6.70509
-6.90776
-6.90776
-6.90776
-6.80638
-6.5946
-6.49684
-6.44877
-6.42551
-6.41445
-6.409
-6.40586
-6.40357
-6.40171
-6.4006
-6.40108
-6.40544
-6.41789
-6.44586
-6.50236
-6.6131
-6.84692
-6.90776
-6.90776
-6.75591
-6.54047
-6.43987
-6.38969
-6.36517
-6.35363
-6.34821
-6.34545
-6.34373
-6.34261
-6.34231
-6.34392
-6.34986
-6.36454
-6.3955
-6.45582
-6.5712
-6.81095
-6.90776
-6.90776
-6.73043
-6.51255
-6.40995
-6.35835
-6.33301
-6.32117
-6.31582
-6.31333
-6.31202
-6.31143
-6.31174
-6.31424
-6.32145
-6.33794
-6.37137
-6.43491
-6.55441
-6.79963
-6.90776
-6.90776
-6.71681
-6.49785
-6.3942
-6.34186
-6.31616
-6.30422
-6.29897
-6.29669
-6.29567
-6.29537
-6.29611
-6.29921
-6.30735
-6.32524
-6.3607
-6.42699
-6.55008
-6.7998
-6.90776
-6.90776
-6.70814
-6.48926
-6.38539
-6.33294
-6.30725
-6.29541
-6.2903
-6.28816
-6.28729
-6.28713
-6.28806
-6.2915
-6.30024
-6.31917
-6.35631
-6.42511
-6.55173
-6.80705
-6.90776
-6.90776
-6.70091
-6.48297
-6.37954
-6.32744
-6.30208
-6.29051
-6.28558
-6.28353
-6.2827
-6.28253
-6.28347
-6.28699
-6.29604
-6.31571
-6.35426
-6.42557
-6.55659
-6.81921
-6.90776
-6.90776
-6.69337
-6.47701
-6.37451
-6.3232
-6.29845
-6.2873
-6.28261
-6.28065
-6.27979
-6.27952
-6.28026
-6.28361
-6.29263
-6.31259
-6.3521
-6.42579
-6.56242
-6.83584
-6.90776
-6.90776
-6.68455
-6.47034
-6.36928
-6.31918
-6.29535
-6.28483
-6.2805
-6.27869
-6.27779
-6.27738
-6.2778
-6.28069
-6.28912
-6.3084
-6.34741
-6.42206
-6.56447
-6.85391
-6.90776
-6.90776
-6.67375
-6.46243
-6.36346
-6.31513
-6.29266
-6.28307
-6.27932
-6.27781
-6.277
-6.27649
-6.27652
-6.27858
-6.28543
-6.30185
-6.3364
-6.40728
-6.55432
-6.85585
-6.90776
-6.90776
-6.66035
-6.45307
-6.35724
-6.31157
-6.29109
-6.28288
-6.27998
-6.279
-6.27853
-6.27809
-6.27782
-6.27861
-6.28217
-6.29172
-6.3148
-6.37512
-6.51908
-6.76404
-6.90776
-6.90776
-6.64408
-6.44282
-6.35191
-6.31012
-6.29228
-6.28575
-6.28409
-6.28406
-6.28435
-6.28436
-6.28392
-6.28293
-6.2811
-6.27929
-6.28856
-6.34652
-6.40246
-6.32831
-6.34243
-6.90776
-6.62564
-6.4339
-6.3503
-6.31326
-6.29876
-6.2947
-6.29464
-6.29603
-6.29745
-6.29816
-6.29761
-6.29421
-6.28505
-6.27361
-6.28166
-6.29604
-6.06667
-5.72303
-5.65856
-6.90776
-6.60936
-6.4305
-6.35544
-6.32461
-6.31466
-6.3132
-6.31498
-6.31749
-6.31962
-6.32045
-6.31889
-6.31189
-6.29566
-6.28306
-6.30895
-6.31198
-5.99578
-5.52057
-5.24112
-6.90776
-6.59038
-6.43169
-6.36885
-6.345
-6.33797
-6.33704
-6.33811
-6.33899
-6.33879
-6.33648
-6.32967
-6.31386
-6.28606
-6.26842
-6.30539
-6.3886
-6.13348
-5.50309
-5.04012
-6.90776
-6.57202
-6.41765
-6.35481
-6.32671
-6.31217
-6.3013
-6.29087
-6.27963
-6.26704
-6.25237
-6.2338
-6.20761
-6.16921
-6.13351
-6.15077
-6.23844
-6.16297
-5.55559
-4.89224
-6.80442
-6.34409
-6.12455
-6.00889
-5.94202
-5.8912
-5.84559
-5.8034
-5.7638
-5.72611
-5.69021
-5.65683
-5.62712
-5.60199
-5.58638
-5.59284
-5.62154
-5.51913
-5.30352
-4.71552
-5.42895
-5.00614
-4.74866
-4.62602
-4.56131
-4.52345
-4.50072
-4.48748
-4.47994
-4.47552
-4.47233
-4.47017
-4.46783
-4.46815
-4.46977
-4.47465
-4.47225
-4.47032
-4.42078
-4.51807
)
;

boundaryField
{
    movingWall
    {
        type            calculated;
        value           nonuniform List<scalar> 
20
(
-5.42895
-5.00614
-4.74866
-4.62602
-4.56131
-4.52345
-4.50072
-4.48748
-4.47994
-4.47552
-4.47233
-4.47017
-4.46783
-4.46815
-4.46977
-4.47465
-4.47225
-4.47032
-4.42078
-4.51807
)
;
    }
    fixedWalls
    {
        type            calculated;
        value           nonuniform List<scalar> 
60
(
-6.90776
-6.90776
-6.90776
-6.90776
-6.90776
-6.90776
-6.90776
-6.90776
-6.90776
-6.90776
-6.90776
-6.90776
-6.90776
-6.90776
-6.90776
-6.90776
-6.90776
-6.90776
-6.80442
-5.42895
-6.90776
-6.90776
-6.90776
-6.90776
-6.90776
-6.90776
-6.90776
-6.90776
-6.90776
-6.90776
-6.90776
-6.90776
-6.90776
-6.34243
-5.65856
-5.24112
-5.04012
-4.89224
-4.71552
-4.51807
-6.90776
-6.90776
-6.90776
-6.90776
-6.90776
-6.90776
-6.90776
-6.90776
-6.90776
-6.90776
-6.90776
-6.90776
-6.90776
-6.90776
-6.90776
-6.90776
-6.90776
-6.90776
-6.90776
-6.90776
)
;
    }
    frontAndBack
    {
        type            empty;
    }
}


// ************************************************************************* //
