/*--------------------------------*- C++ -*----------------------------------*\
| =========                 |                                                 |
| \\      /  F ield         | OpenFOAM: The Open Source CFD Toolbox           |
|  \\    /   O peration     | Version:  2312                                  |
|   \\  /    A nd           | Website:  www.openfoam.com                      |
|    \\/     M anipulation  |                                                 |
\*---------------------------------------------------------------------------*/
FoamFile
{
    version     2.0;
    format      ascii;
    arch        "LSB;label=32;scalar=64";
    class       volScalarField;
    location    "0.5";
    object      magSqrU;
}
// * * * * * * * * * * * * * * * * * * * * * * * * * * * * * * * * * * * * * //

dimensions      [0 2 -2 0 0 0 0];

internalField   nonuniform List<scalar> 
400
(
4.69059e-08
6.11682e-07
2.63286e-06
6.23639e-06
1.12104e-05
1.7041e-05
2.31369e-05
2.89169e-05
3.38432e-05
3.74015e-05
3.90888e-05
3.87551e-05
3.61009e-05
3.13189e-05
2.48393e-05
1.74747e-05
1.03544e-05
4.68242e-06
1.2311e-06
1.24316e-07
6.09259e-07
2.63442e-06
6.07057e-06
1.08821e-05
1.69656e-05
2.39634e-05
3.12997e-05
3.82897e-05
4.42453e-05
4.85352e-05
5.06254e-05
5.01678e-05
4.70509e-05
4.14903e-05
3.40633e-05
2.56779e-05
1.73972e-05
1.01893e-05
4.68726e-06
1.26219e-06
2.66984e-06
6.23951e-06
1.05754e-05
1.59039e-05
2.21824e-05
2.92095e-05
3.65508e-05
4.35963e-05
4.96791e-05
5.41679e-05
5.65316e-05
5.642e-05
5.37369e-05
4.8689e-05
4.18034e-05
3.38411e-05
2.56125e-05
1.78259e-05
1.10219e-05
5.1749e-06
6.63448e-06
1.17585e-05
1.68128e-05
2.25932e-05
2.90644e-05
3.60899e-05
4.33574e-05
5.03724e-05
5.65475e-05
6.12998e-05
6.4127e-05
6.46865e-05
6.28594e-05
5.87843e-05
5.28464e-05
4.55849e-05
3.75616e-05
2.93411e-05
2.14458e-05
1.28917e-05
1.2845e-05
1.97538e-05
2.54325e-05
3.16552e-05
3.84172e-05
4.55862e-05
5.29291e-05
6.00634e-05
6.65068e-05
7.17527e-05
7.53465e-05
7.69563e-05
7.64182e-05
7.37565e-05
6.91586e-05
6.29036e-05
5.53136e-05
4.68605e-05
3.79842e-05
2.58775e-05
2.16069e-05
3.08806e-05
3.72418e-05
4.39406e-05
5.10987e-05
5.85809e-05
6.62103e-05
7.37088e-05
8.07099e-05
8.68075e-05
9.16144e-05
9.48221e-05
9.62172e-05
9.56806e-05
9.31598e-05
8.86147e-05
8.20594e-05
7.37814e-05
6.38778e-05
4.64323e-05
3.33788e-05
4.59445e-05
5.32164e-05
6.04994e-05
6.81737e-05
7.61409e-05
8.42865e-05
9.2446e-05
0.000100389
0.000107836
0.000114505
0.00012015
0.000124529
0.000127376
0.000128364
0.000127021
0.000122845
0.000115622
0.000104558
7.86811e-05
4.88769e-05
6.59871e-05
7.45461e-05
8.2593e-05
9.09194e-05
9.95308e-05
0.00010842
0.000117569
0.000126924
0.000136387
0.000145836
0.000155198
0.000164271
0.000172692
0.000179873
0.000184745
0.000185864
0.00018177
0.000169581
0.000129965
6.91422e-05
9.24033e-05
0.00010274
0.000111762
0.000120851
0.000130214
0.000140026
0.000150489
0.000161796
0.000174126
0.000187661
0.000202563
0.000218981
0.000236761
0.000255092
0.00027219
0.000284933
0.000289114
0.000276675
0.000213341
9.56387e-05
0.000127093
0.000139759
0.000149912
0.00015975
0.000169819
0.000180596
0.000192604
0.000206401
0.000222578
0.000241818
0.000264911
0.000292801
0.000326131
0.000364588
0.000405949
0.000444425
0.000469488
0.0004595
0.000351208
0.000130455
0.000172674
0.000188178
0.000199379
0.000209628
0.000220012
0.000231475
0.000245005
0.000261662
0.000282649
0.00030947
0.000344124
0.000389355
0.000448118
0.000522793
0.00061296
0.000709746
0.000788799
0.000788163
0.000576472
0.000176752
0.000232872
0.000251381
0.000262917
0.000272525
0.000282139
0.000293378
0.000307849
0.000327242
0.000353578
0.000389653
0.000439607
0.000509507
0.000608298
0.00074791
0.000939409
0.00117654
0.00140908
0.00145934
0.000951259
0.000239227
0.000313025
0.000333649
0.000343388
0.000349903
0.000356404
0.000365417
0.000379216
0.000400151
0.000431179
0.000476789
0.000544478
0.000646874
0.000805083
0.00105911
0.00147172
0.00207484
0.00276984
0.00300995
0.00158995
0.0003282
0.000421217
0.000439863
0.000442649
0.000441136
0.000440189
0.000443273
0.000453176
0.000472665
0.000505425
0.000557671
0.000641262
0.000779484
0.00101662
0.00145281
0.00233587
0.00391589
0.00603305
0.00719838
0.00320851
0.000446859
0.000564808
0.000571844
0.000557737
0.000539776
0.000524453
0.000515814
0.000516642
0.000529412
0.000557643
0.000608183
0.000696259
0.000856736
0.00116151
0.00179381
0.00332527
0.00614012
0.0103112
0.0171083
0.0103215
0.00066863
0.000762036
0.000725863
0.000674851
0.000627582
0.000588709
0.000560736
0.000545525
0.000544073
0.000558082
0.00059231
0.000659942
0.000796031
0.00107861
0.00168133
0.00290294
0.0042641
0.0082661
0.0264491
0.0306405
0.000767969
0.000915311
0.000835707
0.000742308
0.00065882
0.000589245
0.000535978
0.000498441
0.000474657
0.000463281
0.000464949
0.000485602
0.000546419
0.000698456
0.00105884
0.00148322
0.00104109
0.000855558
0.019387
0.0591565
0.00221538
0.00176972
0.00123815
0.000894907
0.000689611
0.000540724
0.000432224
0.000353678
0.000295864
0.000252853
0.000222725
0.000209732
0.000231034
0.000337147
0.00066254
0.00135172
0.00151418
0.00330733
0.00607899
0.0725483
0.000440077
0.000205014
0.000124586
0.000205087
0.000352225
0.000556436
0.000823993
0.00113837
0.00148336
0.00185318
0.00225082
0.00269141
0.00320854
0.00390702
0.00485053
0.00652216
0.00703337
0.0120604
0.00345135
0.0553013
0.0102248
0.00885092
0.0098136
0.0131046
0.0166089
0.0200278
0.0234594
0.0268947
0.0302979
0.033657
0.0369647
0.0402175
0.0434059
0.0466573
0.0496891
0.053696
0.0527894
0.0644712
0.0167406
0.152719
)
;

boundaryField
{
    movingWall
    {
        type            calculated;
        value           uniform 1;
    }
    fixedWalls
    {
        type            calculated;
        value           uniform 0;
    }
    frontAndBack
    {
        type            empty;
    }
}


// ************************************************************************* //
