/*--------------------------------*- C++ -*----------------------------------*\
| =========                 |                                                 |
| \\      /  F ield         | OpenFOAM: The Open Source CFD Toolbox           |
|  \\    /   O peration     | Version:  2312                                  |
|   \\  /    A nd           | Website:  www.openfoam.com                      |
|    \\/     M anipulation  |                                                 |
\*---------------------------------------------------------------------------*/
FoamFile
{
    version     2.0;
    format      ascii;
    arch        "LSB;label=32;scalar=64";
    class       volScalarField;
    location    "0.5";
    object      magSqrP;
}
// * * * * * * * * * * * * * * * * * * * * * * * * * * * * * * * * * * * * * //

dimensions      [0 4 -4 0 0 0 0];

internalField   nonuniform List<scalar> 
400
(
5.96071e-16
0
0
2.82162e-11
5.7784e-10
2.72295e-09
8.02272e-09
1.84342e-08
3.61597e-08
6.33763e-08
1.02064e-07
1.53442e-07
2.1703e-07
2.9062e-07
3.69412e-07
4.46146e-07
5.12009e-07
5.58851e-07
5.82384e-07
5.81079e-07
3.18575e-11
0
2.59126e-12
1.56355e-10
9.97466e-10
3.48659e-09
9.02163e-09
1.93798e-08
3.65968e-08
6.27721e-08
9.98418e-08
1.48884e-07
2.09836e-07
2.80786e-07
3.57559e-07
4.33767e-07
5.01533e-07
5.5258e-07
5.79436e-07
5.7856e-07
8.56662e-12
0
0
4.38256e-11
6.84443e-10
2.86852e-09
7.91368e-09
1.75306e-08
3.37487e-08
5.87623e-08
9.46688e-08
1.42956e-07
2.04034e-07
2.76553e-07
3.56888e-07
4.38975e-07
5.14587e-07
5.73316e-07
6.03239e-07
5.99958e-07
0
0
0
0
4.12732e-11
1.15338e-09
4.84315e-09
1.28707e-08
2.74146e-08
5.09781e-08
8.61558e-08
1.35183e-07
1.99335e-07
2.78099e-07
3.68325e-07
4.63527e-07
5.53466e-07
6.23477e-07
6.56627e-07
6.48928e-07
0
0
0
0
0
2.88065e-12
1.42584e-09
6.82883e-09
1.86574e-08
3.99082e-08
7.39744e-08
1.24238e-07
1.93382e-07
2.82253e-07
3.88444e-07
5.04692e-07
6.17426e-07
7.05624e-07
7.45905e-07
7.34295e-07
0
0
0
0
0
0
0
1.57553e-09
9.18344e-09
2.6483e-08
5.79472e-08
1.08602e-07
1.83328e-07
2.85338e-07
4.13931e-07
5.61399e-07
7.0967e-07
8.28155e-07
8.83095e-07
8.6868e-07
0
0
0
0
0
0
0
0
1.72305e-09
1.2579e-08
3.85929e-08
8.69741e-08
1.65914e-07
2.82699e-07
4.40487e-07
6.32773e-07
8.36223e-07
1.00537e-06
1.08785e-06
1.07188e-06
0
0
0
0
0
0
0
0
0
1.99624e-09
1.8168e-08
5.91546e-08
1.37735e-07
2.679e-07
4.60749e-07
7.15464e-07
1.00452e-06
1.25923e-06
1.39203e-06
1.37534e-06
0
0
0
0
0
0
0
0
0
0
2.52439e-09
2.81095e-08
9.68031e-08
2.32845e-07
4.62165e-07
7.99779e-07
1.22128e-06
1.62314e-06
1.84811e-06
1.82705e-06
0
0
0
0
0
0
0
0
0
0
0
3.4425e-09
4.64763e-08
1.70244e-07
4.2519e-07
8.62504e-07
1.48509e-06
2.14574e-06
2.5444e-06
2.49653e-06
0
0
0
0
0
0
0
0
0
0
0
0
4.79728e-09
8.25202e-08
3.25767e-07
8.5481e-07
1.7646e-06
2.88581e-06
3.61152e-06
3.46049e-06
0
0
0
0
0
0
0
0
0
0
0
0
0
6.03068e-09
1.55821e-07
6.96109e-07
1.96837e-06
3.9642e-06
5.29234e-06
4.7296e-06
0
0
0
0
0
0
0
0
0
0
0
0
0
0
3.62648e-09
3.25596e-07
1.87286e-06
5.65279e-06
8.46891e-06
6.32841e-06
0
0
0
0
0
0
0
0
0
0
0
0
0
0
0
0
7.02833e-07
5.29054e-06
1.18037e-05
7.78157e-06
0
0
0
0
0
0
0
0
0
0
0
0
0
0
0
0
0
0
2.3671e-06
5.7079e-06
0
0
0
0
0
0
0
0
0
0
0
0
0
0
0
0
0
0
0
0
0
0
0
0
0
0
0
0
0
0
0
0
0
0
0
0
0
0
0
0
0
0
0
0
0
0
0
0
0
0
0
0
0
0
0
0
0
0
0
0
0
0
0
0
0
0
0
0
0
0
0
0
0
0
0
0
0
0
0
5.58656e-05
3.75698e-07
4.47973e-06
1.35327e-06
0
0
0
0
0
0
0
0
0
0
0
0
0
0
0
0
0.00250208
)
;

boundaryField
{
    movingWall
    {
        type            calculated;
        value           nonuniform List<scalar> 
20
(
3.75698e-07
4.47973e-06
1.35327e-06
0
0
0
0
0
0
0
0
0
0
0
0
0
0
0
0
0.00250208
)
;
    }
    fixedWalls
    {
        type            calculated;
        value           nonuniform List<scalar> 
60
(
5.96071e-16
3.18575e-11
8.56662e-12
0
0
0
0
0
0
0
0
0
0
0
0
0
0
0
0
3.75698e-07
5.81079e-07
5.7856e-07
5.99958e-07
6.48928e-07
7.34295e-07
8.6868e-07
1.07188e-06
1.37534e-06
1.82705e-06
2.49653e-06
3.46049e-06
4.7296e-06
6.32841e-06
7.78157e-06
5.7079e-06
0
0
0
5.58656e-05
0.00250208
5.96071e-16
0
0
2.82162e-11
5.7784e-10
2.72295e-09
8.02272e-09
1.84342e-08
3.61597e-08
6.33763e-08
1.02064e-07
1.53442e-07
2.1703e-07
2.9062e-07
3.69412e-07
4.46146e-07
5.12009e-07
5.58851e-07
5.82384e-07
5.81079e-07
)
;
    }
    frontAndBack
    {
        type            empty;
    }
}


// ************************************************************************* //
