/*--------------------------------*- C++ -*----------------------------------*\
| =========                 |                                                 |
| \\      /  F ield         | OpenFOAM: The Open Source CFD Toolbox           |
|  \\    /   O peration     | Version:  2312                                  |
|   \\  /    A nd           | Website:  www.openfoam.com                      |
|    \\/     M anipulation  |                                                 |
\*---------------------------------------------------------------------------*/
FoamFile
{
    version     2.0;
    format      ascii;
    arch        "LSB;label=32;scalar=64";
    class       volScalarField;
    location    "0.5";
    object      magU;
}
// * * * * * * * * * * * * * * * * * * * * * * * * * * * * * * * * * * * * * //

dimensions      [0 1 -1 0 0 0 0];

internalField   nonuniform List<scalar> 
400
(
0.000216578
0.000782101
0.00162261
0.00249728
0.00334819
0.00412807
0.00481009
0.00537745
0.00581749
0.00611567
0.00625211
0.00622536
0.0060084
0.00559633
0.00498391
0.00418028
0.00321782
0.00216389
0.00110955
0.000352584
0.000780551
0.00162309
0.00246385
0.0032988
0.00411893
0.00489525
0.00559461
0.00618786
0.00665171
0.00696672
0.00711515
0.00708293
0.00685937
0.00644129
0.00583638
0.00506734
0.004171
0.00319207
0.00216501
0.00112347
0.00163396
0.0024979
0.00325199
0.00398797
0.00470982
0.00540458
0.00604572
0.00660275
0.00704834
0.00735989
0.00751875
0.00751132
0.00733054
0.00697775
0.00646555
0.00581731
0.00506088
0.00422207
0.00331993
0.00227484
0.00257575
0.00342907
0.00410034
0.00475323
0.00539114
0.00600748
0.00658463
0.00709735
0.00751981
0.00782942
0.00800793
0.00804279
0.00792839
0.00766709
0.00726955
0.00675166
0.00612875
0.00541674
0.00463096
0.0035905
0.00358399
0.00444453
0.00504307
0.0056263
0.00619816
0.00675176
0.00727524
0.00775006
0.00815517
0.0084707
0.00868024
0.00877247
0.00874175
0.00858816
0.00831616
0.00793118
0.00743731
0.00684547
0.00616313
0.00508699
0.00464832
0.00555703
0.00610261
0.00662877
0.00714833
0.00765382
0.00813697
0.00858538
0.00898387
0.00931706
0.00957154
0.00973767
0.00980904
0.00978165
0.00965193
0.00941354
0.00905867
0.00858961
0.00799236
0.00681413
0.00577744
0.00677824
0.00729496
0.00777813
0.00825674
0.00872588
0.00918077
0.00961488
0.0100194
0.0103844
0.0107007
0.0109613
0.0111593
0.0112861
0.0113298
0.0112704
0.0110835
0.0107528
0.0102254
0.00887024
0.0069912
0.00812324
0.00863401
0.00908807
0.00953517
0.00997651
0.0104125
0.0108429
0.0112661
0.0116785
0.0120763
0.0124578
0.0128168
0.0131412
0.0134117
0.0135921
0.0136332
0.0134822
0.0130223
0.0114002
0.00831518
0.00961266
0.0101361
0.0105718
0.0109932
0.0114111
0.0118332
0.0122674
0.0127199
0.0131957
0.0136989
0.0142325
0.014798
0.015387
0.0159716
0.0164982
0.01688
0.0170034
0.0166335
0.0146062
0.0097795
0.0112735
0.011822
0.0122439
0.0126392
0.0130314
0.0134386
0.0138782
0.0143666
0.014919
0.0155505
0.0162761
0.0171114
0.0180591
0.0190942
0.0201482
0.0210814
0.0216677
0.021436
0.0187405
0.0114217
0.0131406
0.0137178
0.0141201
0.0144785
0.0148328
0.0152143
0.0156526
0.016176
0.0168122
0.0175917
0.0185506
0.0197321
0.0211688
0.0228647
0.024758
0.0266411
0.0280856
0.0280742
0.0240098
0.0132948
0.0152601
0.015855
0.0162147
0.0165083
0.016797
0.0171283
0.0175456
0.0180898
0.0188037
0.0197396
0.0209668
0.0225723
0.0246637
0.0273479
0.0306498
0.0343008
0.0375377
0.0382013
0.0308425
0.015467
0.0176925
0.0182661
0.0185307
0.0187057
0.0188787
0.0191159
0.0194735
0.0200038
0.0207649
0.0218355
0.0233341
0.0254337
0.028374
0.0325439
0.038363
0.0455504
0.0526292
0.054863
0.0398742
0.0181163
0.0205236
0.0209729
0.0210392
0.0210032
0.0209807
0.021054
0.0212879
0.0217409
0.0224817
0.0236151
0.0253231
0.0279192
0.0318844
0.0381158
0.0483309
0.062577
0.0776727
0.0848433
0.0566437
0.021139
0.0237657
0.0239133
0.0236165
0.0232331
0.0229009
0.0227115
0.0227298
0.023009
0.0236145
0.0246614
0.0263867
0.0292701
0.0340809
0.0423534
0.0576651
0.0783589
0.101544
0.130799
0.101595
0.0258579
0.027605
0.0269419
0.0259779
0.0250516
0.0242633
0.0236799
0.0233565
0.0233254
0.0236238
0.0243374
0.0256893
0.028214
0.0328423
0.041004
0.053879
0.0653001
0.0909181
0.162632
0.175044
0.0277123
0.0302541
0.0289086
0.0272453
0.0256675
0.0242744
0.0231512
0.0223258
0.0217866
0.021524
0.0215627
0.0220364
0.0233756
0.0264283
0.0325398
0.0385126
0.0322659
0.0292499
0.139237
0.243221
0.0470678
0.042068
0.0351873
0.029915
0.0262605
0.0232535
0.02079
0.0188063
0.0172007
0.0159014
0.014924
0.0144821
0.0151998
0.0183616
0.0257399
0.0367657
0.0389125
0.0575094
0.0779679
0.269348
0.020978
0.0143183
0.0111618
0.0143209
0.0187677
0.0235889
0.0287053
0.0337397
0.0385144
0.0430486
0.0474428
0.0518788
0.056644
0.0625062
0.0696458
0.0807599
0.0838652
0.10982
0.0587482
0.235162
0.101118
0.0940794
0.0990636
0.114475
0.128875
0.141519
0.153165
0.163996
0.174063
0.183458
0.192262
0.200543
0.208341
0.216003
0.22291
0.231724
0.229759
0.253912
0.129385
0.390793
)
;

boundaryField
{
    movingWall
    {
        type            calculated;
        value           uniform 1;
    }
    fixedWalls
    {
        type            calculated;
        value           uniform 0;
    }
    frontAndBack
    {
        type            empty;
    }
}


// ************************************************************************* //
