/*--------------------------------*- C++ -*----------------------------------*\
| =========                 |                                                 |
| \\      /  F ield         | OpenFOAM: The Open Source CFD Toolbox           |
|  \\    /   O peration     | Version:  2312                                  |
|   \\  /    A nd           | Website:  www.openfoam.com                      |
|    \\/     M anipulation  |                                                 |
\*---------------------------------------------------------------------------*/
FoamFile
{
    version     2.0;
    format      ascii;
    arch        "LSB;label=32;scalar=64";
    class       volVectorField;
    location    "0.5";
    object      momentum1:momentum;
}
// * * * * * * * * * * * * * * * * * * * * * * * * * * * * * * * * * * * * * //

dimensions      [1 1 -1 0 0 0 0];

internalField   nonuniform List<vector> 
400
(
(-3.8142e-11 3.84293e-11 0)
(-1.69601e-10 9.72919e-11 0)
(-3.85388e-10 1.26609e-10 0)
(-6.10789e-10 1.29274e-10 0)
(-8.28472e-10 1.19513e-10 0)
(-1.02665e-09 1.05161e-10 0)
(-1.19923e-09 8.8901e-11 0)
(-1.34247e-09 7.12533e-11 0)
(-1.45345e-09 5.18725e-11 0)
(-1.52862e-09 3.02865e-11 0)
(-1.563e-09 8.5256e-12 0)
(-1.55624e-09 -1.73962e-11 0)
(-1.50143e-09 -4.47888e-11 0)
(-1.39713e-09 -7.38297e-11 0)
(-1.24167e-09 -1.03498e-10 0)
(-1.03677e-09 -1.31466e-10 0)
(-7.89822e-10 -1.5274e-10 0)
(-5.17721e-10 -1.56896e-10 0)
(-2.46445e-10 -1.27313e-10 0)
(-6.29268e-11 -6.17248e-11 0)
(-9.68176e-11 1.69426e-10 0)
(-2.86993e-10 2.86856e-10 0)
(-5.15468e-10 3.372e-10 0)
(-7.50165e-10 3.42612e-10 0)
(-9.77915e-10 3.22542e-10 0)
(-1.18928e-09 2.88683e-10 0)
(-1.37672e-09 2.46745e-10 0)
(-1.53412e-09 1.9893e-10 0)
(-1.65654e-09 1.4562e-10 0)
(-1.73952e-09 8.66232e-11 0)
(-1.77865e-09 2.21587e-11 0)
(-1.77008e-09 -4.79944e-11 0)
(-1.71041e-09 -1.23264e-10 0)
(-1.59766e-09 -2.01549e-10 0)
(-1.43215e-09 -2.79103e-10 0)
(-1.21772e-09 -3.4931e-10 0)
(-9.62422e-10 -4.01335e-10 0)
(-6.79723e-10 -4.18102e-10 0)
(-3.89819e-10 -3.75493e-10 0)
(-1.32529e-10 -2.47635e-10 0)
(-1.31401e-10 3.8678e-10 0)
(-3.50257e-10 5.17001e-10 0)
(-5.84476e-10 5.65112e-10 0)
(-8.20422e-10 5.6648e-10 0)
(-1.04829e-09 5.36179e-10 0)
(-1.26132e-09 4.84437e-10 0)
(-1.45263e-09 4.17466e-10 0)
(-1.6156e-09 3.38522e-10 0)
(-1.74441e-09 2.48946e-10 0)
(-1.83391e-09 1.49174e-10 0)
(-1.87927e-09 3.95812e-11 0)
(-1.87615e-09 -7.93867e-11 0)
(-1.82104e-09 -2.05829e-10 0)
(-1.7118e-09 -3.35837e-10 0)
(-1.54873e-09 -4.6276e-10 0)
(-1.33519e-09 -5.76494e-10 0)
(-1.07757e-09 -6.63046e-10 0)
(-7.86195e-10 -7.04284e-10 0)
(-4.78024e-10 -6.785e-10 0)
(-1.75992e-10 -5.40794e-10 0)
(-1.45088e-10 6.27379e-10 0)
(-3.83761e-10 7.66573e-10 0)
(-6.31927e-10 8.07135e-10 0)
(-8.78232e-10 8.00491e-10 0)
(-1.11408e-09 7.58512e-10 0)
(-1.33447e-09 6.89064e-10 0)
(-1.53379e-09 5.97768e-10 0)
(-1.70584e-09 4.88256e-10 0)
(-1.84468e-09 3.62454e-10 0)
(-1.94481e-09 2.21257e-10 0)
(-2.00092e-09 6.53135e-11 0)
(-2.00799e-09 -1.04229e-10 0)
(-1.96158e-09 -2.84467e-10 0)
(-1.85832e-09 -4.69732e-10 0)
(-1.69686e-09 -6.50815e-10 0)
(-1.47834e-09 -8.14595e-10 0)
(-1.20657e-09 -9.44343e-10 0)
(-8.90137e-10 -1.02053e-09 0)
(-5.46536e-10 -1.02062e-09 0)
(-2.01277e-10 -8.74767e-10 0)
(-1.51163e-10 8.83153e-10 0)
(-4.06695e-10 1.03403e-09 0)
(-6.73972e-10 1.0655e-09 0)
(-9.38047e-10 1.0481e-09 0)
(-1.18982e-09 9.92673e-10 0)
(-1.42481e-09 9.05023e-10 0)
(-1.63839e-09 7.89768e-10 0)
(-1.8251e-09 6.50372e-10 0)
(-1.97929e-09 4.88966e-10 0)
(-2.09536e-09 3.06591e-10 0)
(-2.16757e-09 1.0396e-10 0)
(-2.18997e-09 -1.17525e-10 0)
(-2.15651e-09 -3.54424e-10 0)
(-2.06155e-09 -5.9981e-10 0)
(-1.90072e-09 -8.42433e-10 0)
(-1.6716e-09 -1.06641e-09 0)
(-1.37484e-09 -1.25176e-09 0)
(-1.01849e-09 -1.37531e-09 0)
(-6.23524e-10 -1.40898e-09 0)
(-2.2595e-10 -1.25152e-09 0)
(-1.57142e-10 1.15141e-09 0)
(-4.30204e-10 1.32097e-09 0)
(-7.20502e-10 1.3448e-09 0)
(-1.00789e-09 1.31546e-09 0)
(-1.28202e-09 1.24502e-09 0)
(-1.53808e-09 1.13825e-09 0)
(-1.77209e-09 9.9892e-10 0)
(-1.97932e-09 8.30123e-10 0)
(-2.15468e-09 6.33813e-10 0)
(-2.29276e-09 4.10776e-10 0)
(-2.38744e-09 1.61272e-10 0)
(-2.43176e-09 -1.13758e-10 0)
(-2.41753e-09 -4.11239e-10 0)
(-2.33583e-09 -7.23842e-10 0)
(-2.17781e-09 -1.03905e-09 0)
(-1.93581e-09 -1.3383e-09 0)
(-1.60582e-09 -1.59689e-09 0)
(-1.19506e-09 -1.78414e-09 0)
(-7.2963e-10 -1.86011e-09 0)
(-2.60864e-10 -1.68344e-09 0)
(-1.6598e-10 1.43479e-09 0)
(-4.59918e-10 1.63095e-09 0)
(-7.77321e-10 1.64979e-09 0)
(-1.09284e-09 1.60839e-09 0)
(-1.3946e-09 1.52182e-09 0)
(-1.67716e-09 1.39497e-09 0)
(-1.93698e-09 1.23126e-09 0)
(-2.1702e-09 1.0335e-09 0)
(-2.37257e-09 8.03242e-10 0)
(-2.53921e-09 5.40527e-10 0)
(-2.66398e-09 2.44491e-10 0)
(-2.73899e-09 -8.53662e-11 0)
(-2.75365e-09 -4.47743e-10 0)
(-2.69474e-09 -8.36277e-10 0)
(-2.54729e-09 -1.23857e-09 0)
(-2.29549e-09 -1.63388e-09 0)
(-1.92705e-09 -1.99106e-09 0)
(-1.44572e-09 -2.26634e-09 0)
(-8.83291e-10 -2.39889e-09 0)
(-3.1306e-10 -2.19535e-09 0)
(-1.7871e-10 1.73864e-09 0)
(-4.98587e-10 1.96866e-09 0)
(-8.47849e-10 1.98501e-09 0)
(-1.19612e-09 1.93167e-09 0)
(-1.52996e-09 1.82803e-09 0)
(-1.8433e-09 1.68015e-09 0)
(-2.13321e-09 1.49186e-09 0)
(-2.39696e-09 1.26595e-09 0)
(-2.63169e-09 1.00347e-09 0)
(-2.83365e-09 7.03305e-10 0)
(-2.99722e-09 3.62551e-10 0)
(-3.11438e-09 -2.21197e-11 0)
(-3.17216e-09 -4.52018e-10 0)
(-3.15235e-09 -9.2517e-10 0)
(-3.03186e-09 -1.43175e-09 0)
(-2.78222e-09 -1.95086e-09 0)
(-2.37555e-09 -2.44403e-09 0)
(-1.80477e-09 -2.84665e-09 0)
(-1.10586e-09 -3.06201e-09 0)
(-3.88609e-10 -2.82344e-09 0)
(-1.95763e-10 2.06956e-09 0)
(-5.47885e-10 2.33988e-09 0)
(-9.34577e-10 2.35537e-09 0)
(-1.32021e-09 2.28958e-09 0)
(-1.68977e-09 2.16746e-09 0)
(-2.03685e-09 1.9974e-09 0)
(-2.35952e-09 1.78445e-09 0)
(-2.65687e-09 1.53186e-09 0)
(-2.92814e-09 1.24026e-09 0)
(-3.17177e-09 9.07046e-10 0)
(-3.38401e-09 5.26598e-10 0)
(-3.55694e-09 9.14272e-11 0)
(-3.67724e-09 -4.0526e-10 0)
(-3.72268e-09 -9.69135e-10 0)
(-3.65916e-09 -1.59806e-09 0)
(-3.43922e-09 -2.27677e-09 0)
(-3.0056e-09 -2.96221e-09 0)
(-2.32387e-09 -3.55939e-09 0)
(-1.42612e-09 -3.9062e-09 0)
(-4.93395e-10 -3.61806e-09 0)
(-2.17747e-10 2.43516e-09 0)
(-6.09793e-10 2.75162e-09 0)
(-1.04043e-09 2.76631e-09 0)
(-1.46797e-09 2.686e-09 0)
(-1.87584e-09 2.54275e-09 0)
(-2.25777e-09 2.34864e-09 0)
(-2.61367e-09 2.11092e-09 0)
(-2.94528e-09 1.83387e-09 0)
(-3.25508e-09 1.51806e-09 0)
(-3.54499e-09 1.15937e-09 0)
(-3.81478e-09 7.49036e-10 0)
(-4.05977e-09 2.74331e-10 0)
(-4.26864e-09 -2.80639e-10 0)
(-4.41724e-09 -9.33384e-10 0)
(-4.46118e-09 -1.69843e-09 0)
(-4.32622e-09 -2.57985e-09 0)
(-3.90136e-09 -3.54344e-09 0)
(-3.08505e-09 -4.45258e-09 0)
(-1.88199e-09 -5.01766e-09 0)
(-6.28177e-10 -4.64283e-09 0)
(-2.46044e-10 2.84481e-09 0)
(-6.87886e-10 3.21231e-09 0)
(-1.17001e-09 3.2237e-09 0)
(-1.64359e-09 3.12406e-09 0)
(-2.0906e-09 2.95484e-09 0)
(-2.50583e-09 2.73342e-09 0)
(-2.89214e-09 2.47037e-09 0)
(-3.25516e-09 2.17182e-09 0)
(-3.6018e-09 1.83872e-09 0)
(-3.93911e-09 1.46593e-09 0)
(-4.27278e-09 1.04173e-09 0)
(-4.60521e-09 5.47501e-10 0)
(-4.93283e-09 -4.32787e-11 0)
(-5.23662e-09 -7.64963e-10 0)
(-5.46867e-09 -1.66381e-09 0)
(-5.52398e-09 -2.79208e-09 0)
(-5.19516e-09 -4.16767e-09 0)
(-4.22064e-09 -5.61125e-09 0)
(-2.51565e-09 -6.55223e-09 0)
(-7.6064e-10 -5.95407e-09 0)
(-2.83628e-10 3.31158e-09 0)
(-7.88684e-10 3.73262e-09 0)
(-1.33071e-09 3.7337e-09 0)
(-1.85294e-09 3.6054e-09 0)
(-2.33671e-09 3.40185e-09 0)
(-2.77951e-09 3.1477e-09 0)
(-3.1888e-09 2.85793e-09 0)
(-3.57532e-09 2.54118e-09 0)
(-3.95154e-09 2.19954e-09 0)
(-4.33099e-09 1.82788e-09 0)
(-4.72819e-09 1.41333e-09 0)
(-5.15791e-09 9.33486e-10 0)
(-5.63207e-09 3.52091e-10 0)
(-6.15372e-09 -3.87825e-10 0)
(-6.69663e-09 -1.37825e-09 0)
(-7.14215e-09 -2.77538e-09 0)
(-7.1281e-09 -4.76697e-09 0)
(-6.0263e-09 -7.19382e-09 0)
(-3.49778e-09 -8.88674e-09 0)
(-7.67516e-10 -7.67233e-09 0)
(-3.36452e-10 3.85208e-09 0)
(-9.23792e-10 4.32559e-09 0)
(-1.53289e-09 4.30155e-09 0)
(-2.10213e-09 4.12829e-09 0)
(-2.61443e-09 3.87733e-09 0)
(-3.07283e-09 3.58231e-09 0)
(-3.49141e-09 3.26322e-09 0)
(-3.88693e-09 2.93134e-09 0)
(-4.27767e-09 2.59056e-09 0)
(-4.68414e-09 2.23776e-09 0)
(-5.1312e-09 1.86282e-09 0)
(-5.65138e-09 1.44632e-09 0)
(-6.28695e-09 9.50726e-10 0)
(-7.08718e-09 2.99375e-10 0)
(-8.10961e-09 -6.54639e-10 0)
(-9.33068e-09 -2.2183e-09 0)
(-1.02444e-08 -4.9729e-09 0)
(-9.58145e-09 -9.01724e-09 0)
(-6.13645e-09 -1.22665e-08 0)
(-1.00832e-09 -9.91742e-09 0)
(-4.14554e-10 4.51006e-09 0)
(-1.10684e-09 5.01008e-09 0)
(-1.78604e-09 4.92966e-09 0)
(-2.39174e-09 4.68456e-09 0)
(-2.91473e-09 4.36753e-09 0)
(-3.36807e-09 4.02094e-09 0)
(-3.77441e-09 3.66857e-09 0)
(-4.15667e-09 3.32349e-09 0)
(-4.53779e-09 2.99165e-09 0)
(-4.94344e-09 2.67422e-09 0)
(-5.40718e-09 2.36999e-09 0)
(-5.98085e-09 2.07563e-09 0)
(-6.74986e-09 1.77683e-09 0)
(-7.84423e-09 1.41658e-09 0)
(-9.49142e-09 8.44804e-10 0)
(-1.20769e-08 -3.73297e-10 0)
(-1.52263e-08 -3.59205e-09 0)
(-1.64618e-08 -1.02993e-08 0)
(-1.23204e-08 -1.72657e-08 0)
(-3.82202e-09 -1.36354e-08 0)
(-5.384e-10 5.25726e-09 0)
(-1.3647e-09 5.78257e-09 0)
(-2.09279e-09 5.60004e-09 0)
(-2.70549e-09 5.24775e-09 0)
(-3.20555e-09 4.8436e-09 0)
(-3.62126e-09 4.4345e-09 0)
(-3.98449e-09 4.04503e-09 0)
(-4.32333e-09 3.68768e-09 0)
(-4.66219e-09 3.36932e-09 0)
(-5.02643e-09 3.09641e-09 0)
(-5.44986e-09 2.88279e-09 0)
(-5.99242e-09 2.75809e-09 0)
(-6.77109e-09 2.77458e-09 0)
(-7.97604e-09 2.99615e-09 0)
(-1.00139e-08 3.44034e-09 0)
(-1.39937e-08 3.46477e-09 0)
(-1.9589e-08 -1.66638e-10 0)
(-2.24071e-08 -1.1932e-08 0)
(-1.88865e-08 -2.6694e-08 0)
(-9.31135e-09 -2.36304e-08 0)
(-6.86371e-10 6.42793e-09 0)
(-1.65665e-09 6.69946e-09 0)
(-2.41064e-09 6.2893e-09 0)
(-2.97653e-09 5.77222e-09 0)
(-3.39975e-09 5.25981e-09 0)
(-3.72965e-09 4.78373e-09 0)
(-4.00403e-09 4.36048e-09 0)
(-4.25945e-09 3.99404e-09 0)
(-4.51638e-09 3.68875e-09 0)
(-4.7903e-09 3.45444e-09 0)
(-5.09912e-09 3.31938e-09 0)
(-5.47844e-09 3.35158e-09 0)
(-6.00954e-09 3.69287e-09 0)
(-6.80312e-09 4.59685e-09 0)
(-8.04439e-09 6.3538e-09 0)
(-1.08198e-08 8.02286e-09 0)
(-1.58717e-08 3.8206e-09 0)
(-1.87377e-08 -1.28658e-08 0)
(-1.83307e-08 -3.62912e-08 0)
(-1.22754e-08 -4.20042e-08 0)
(-1.07673e-09 6.84388e-09 0)
(-2.16909e-09 7.24583e-09 0)
(-2.7026e-09 6.70281e-09 0)
(-3.03968e-09 6.09545e-09 0)
(-3.26667e-09 5.52314e-09 0)
(-3.43717e-09 5.00137e-09 0)
(-3.57439e-09 4.55219e-09 0)
(-3.69535e-09 4.18293e-09 0)
(-3.81429e-09 3.88809e-09 0)
(-3.93403e-09 3.67131e-09 0)
(-4.04159e-09 3.5672e-09 0)
(-4.12332e-09 3.65354e-09 0)
(-4.15335e-09 4.11106e-09 0)
(-4.03766e-09 5.2298e-09 0)
(-3.5217e-09 7.33316e-09 0)
(-2.72621e-09 9.23412e-09 0)
(-3.33542e-09 7.34458e-09 0)
(-2.54873e-09 -6.85393e-09 0)
(-8.17572e-09 -3.38356e-08 0)
(-9.70342e-09 -6.0026e-08 0)
(-1.35019e-09 1.16892e-08 0)
(-2.19598e-09 1.02852e-08 0)
(-2.29195e-09 8.49301e-09 0)
(-2.21026e-09 7.14468e-09 0)
(-2.10953e-09 6.21696e-09 0)
(-1.94824e-09 5.47719e-09 0)
(-1.73681e-09 4.89872e-09 0)
(-1.51271e-09 4.45158e-09 0)
(-1.29208e-09 4.10146e-09 0)
(-1.06695e-09 3.82949e-09 0)
(-8.07142e-10 3.64264e-09 0)
(-4.53885e-10 3.59197e-09 0)
(7.34581e-11 3.79924e-09 0)
(1.03782e-09 4.47153e-09 0)
(2.75672e-09 5.81457e-09 0)
(5.94498e-09 7.00996e-09 0)
(8.13626e-09 5.33268e-09 0)
(1.3896e-08 -3.68904e-09 0)
(4.00728e-09 -1.90756e-08 0)
(-2.07983e-09 -6.73048e-08 0)
(-1.54034e-09 5.0132e-09 0)
(-1.79807e-09 3.0952e-09 0)
(-2.58575e-10 2.77845e-09 0)
(1.35586e-09 3.31354e-09 0)
(3.20356e-09 3.42801e-09 0)
(4.92671e-09 3.24111e-09 0)
(6.50107e-09 3.03903e-09 0)
(7.92747e-09 2.88154e-09 0)
(9.22994e-09 2.74188e-09 0)
(1.0442e-08 2.6054e-09 0)
(1.15987e-08 2.47911e-09 0)
(1.27487e-08 2.38405e-09 0)
(1.39627e-08 2.36162e-09 0)
(1.54293e-08 2.47497e-09 0)
(1.71973e-08 2.72254e-09 0)
(2.00265e-08 2.56363e-09 0)
(2.0935e-08 1.14552e-09 0)
(2.69963e-08 -4.99696e-09 0)
(9.09587e-09 -1.15315e-08 0)
(1.72656e-08 -5.61982e-08 0)
(1.02087e-08 2.31265e-08 0)
(1.58954e-08 1.73355e-08 0)
(2.22652e-08 1.08448e-08 0)
(2.76889e-08 7.23588e-09 0)
(3.17734e-08 5.33887e-09 0)
(3.51261e-08 4.22953e-09 0)
(3.81297e-08 3.51266e-09 0)
(4.08873e-08 3.02444e-09 0)
(4.34334e-08 2.6751e-09 0)
(4.58014e-08 2.40672e-09 0)
(4.80161e-08 2.17776e-09 0)
(5.00973e-08 1.96328e-09 0)
(5.20559e-08 1.74852e-09 0)
(5.39791e-08 1.53158e-09 0)
(5.57122e-08 1.311e-09 0)
(5.79218e-08 1.03008e-09 0)
(5.74362e-08 6.44227e-10 0)
(6.34725e-08 -8.32383e-10 0)
(3.23451e-08 2.84942e-10 0)
(9.43879e-08 -2.52165e-08 0)
)
;

boundaryField
{
    movingWall
    {
        type            calculated;
        value           uniform (0 0 0);
    }
    fixedWalls
    {
        type            calculated;
        value           uniform (0 0 0);
    }
    frontAndBack
    {
        type            empty;
    }
}


// ************************************************************************* //
