/*--------------------------------*- C++ -*----------------------------------*\
| =========                 |                                                 |
| \\      /  F ield         | OpenFOAM: The Open Source CFD Toolbox           |
|  \\    /   O peration     | Version:  2312                                  |
|   \\  /    A nd           | Website:  www.openfoam.com                      |
|    \\/     M anipulation  |                                                 |
\*---------------------------------------------------------------------------*/
FoamFile
{
    version     2.0;
    format      ascii;
    arch        "LSB;label=32;scalar=64";
    class       volVectorField;
    location    "0.5";
    object      norm_U_Lp;
}
// * * * * * * * * * * * * * * * * * * * * * * * * * * * * * * * * * * * * * //

dimensions      [0 0 0 0 0 0 0];

internalField   nonuniform List<vector> 
400
(
(-0.704449 0.709754 0)
(-0.867411 0.497592 0)
(-0.950045 0.312112 0)
(-0.978328 0.207063 0)
(-0.989755 0.142779 0)
(-0.994795 0.101899 0)
(-0.997264 0.0739288 0)
(-0.998594 0.0530016 0)
(-0.999364 0.0356666 0)
(-0.999804 0.0198091 0)
(-0.999985 0.00545454 0)
(-0.999938 -0.0111777 0)
(-0.999555 -0.0298175 0)
(-0.998607 -0.0527701 0)
(-0.996544 -0.0830661 0)
(-0.992056 -0.125796 0)
(-0.98181 -0.189867 0)
(-0.957019 -0.290027 0)
(-0.888451 -0.458971 0)
(-0.713892 -0.700256 0)
(-0.49615 0.868237 0)
(-0.707276 0.706937 0)
(-0.836848 0.547435 0)
(-0.909621 0.415439 0)
(-0.949678 0.313228 0)
(-0.97178 0.235888 0)
(-0.984316 0.176416 0)
(-0.991697 0.128593 0)
(-0.996158 0.0875687 0)
(-0.998762 0.0497354 0)
(-0.999922 0.0124572 0)
(-0.999633 -0.0271043 0)
(-0.997413 -0.0718807 0)
(-0.992137 -0.125161 0)
(-0.981535 -0.191285 0)
(-0.961234 -0.275735 0)
(-0.922966 -0.384882 0)
(-0.851764 -0.523926 0)
(-0.720217 -0.693749 0)
(-0.471856 -0.881676 0)
(-0.321673 0.946851 0)
(-0.560881 0.827896 0)
(-0.718916 0.695097 0)
(-0.822898 0.568189 0)
(-0.890302 0.455371 0)
(-0.933515 0.358538 0)
(-0.961099 0.276206 0)
(-0.978745 0.20508 0)
(-0.98997 0.141279 0)
(-0.996708 0.0810739 0)
(-0.999778 0.0210574 0)
(-0.999106 -0.0422758 0)
(-0.993673 -0.112313 0)
(-0.981293 -0.192519 0)
(-0.958142 -0.286293 0)
(-0.918078 -0.396399 0)
(-0.851684 -0.524056 0)
(-0.744843 -0.66724 0)
(-0.575945 -0.817488 0)
(-0.309458 -0.950913 0)
(-0.225313 0.974286 0)
(-0.447656 0.894206 0)
(-0.616463 0.787384 0)
(-0.739061 0.673639 0)
(-0.826604 0.562784 0)
(-0.888537 0.458804 0)
(-0.931739 0.363129 0)
(-0.961394 0.275177 0)
(-0.981238 0.192799 0)
(-0.993591 0.113039 0)
(-0.999468 0.0326244 0)
(-0.998656 -0.0518374 0)
(-0.989648 -0.143518 0)
(-0.969507 -0.245064 0)
(-0.933681 -0.358105 0)
(-0.875839 -0.482604 0)
(-0.787483 -0.616336 0)
(-0.657323 -0.753609 0)
(-0.472072 -0.88156 0)
(-0.224232 -0.974536 0)
(-0.168709 0.985666 0)
(-0.366019 0.930607 0)
(-0.534573 0.845122 0)
(-0.666902 0.745146 0)
(-0.767855 0.640624 0)
(-0.84411 0.53617 0)
(-0.900806 0.434222 0)
(-0.941978 0.335673 0)
(-0.970815 0.239831 0)
(-0.989464 0.144777 0)
(-0.998852 0.0479063 0)
(-0.998563 -0.0535879 0)
(-0.986762 -0.162175 0)
(-0.960185 -0.279366 0)
(-0.914227 -0.405203 0)
(-0.843051 -0.537834 0)
(-0.739431 -0.673232 0)
(-0.59513 -0.803629 0)
(-0.40468 -0.914458 0)
(-0.177669 -0.98409 0)
(-0.135225 0.990815 0)
(-0.309665 0.950846 0)
(-0.472258 0.88146 0)
(-0.608194 0.793789 0)
(-0.717383 0.696679 0)
(-0.803824 0.594868 0)
(-0.87113 0.491052 0)
(-0.92218 0.386761 0)
(-0.959355 0.2822 0)
(-0.984327 0.176355 0)
(-0.997726 0.0673963 0)
(-0.998908 -0.0467289 0)
(-0.985838 -0.167698 0)
(-0.955188 -0.296 0)
(-0.90254 -0.430606 0)
(-0.822566 -0.568669 0)
(-0.709074 -0.705134 0)
(-0.556515 -0.830837 0)
(-0.365164 -0.930943 0)
(-0.153132 -0.988206 0)
(-0.114916 0.993375 0)
(-0.271409 0.962464 0)
(-0.426223 0.904618 0)
(-0.562007 0.827132 0)
(-0.675617 0.737253 0)
(-0.768822 0.639463 0)
(-0.843931 0.536452 0)
(-0.902849 0.429959 0)
(-0.94719 0.320674 0)
(-0.978085 0.208207 0)
(-0.995815 0.0913924 0)
(-0.999515 -0.0311519 0)
(-0.987037 -0.160492 0)
(-0.955066 -0.296392 0)
(-0.899326 -0.437279 0)
(-0.814698 -0.579886 0)
(-0.695462 -0.718563 0)
(-0.537802 -0.843071 0)
(-0.345529 -0.938408 0)
(-0.141173 -0.989985 0)
(-0.102249 0.994759 0)
(-0.245511 0.969394 0)
(-0.392795 0.919626 0)
(-0.526457 0.850202 0)
(-0.641817 0.766858 0)
(-0.739058 0.673642 0)
(-0.819482 0.573105 0)
(-0.88425 0.467014 0)
(-0.934379 0.356281 0)
(-0.970553 0.240889 0)
(-0.992763 0.120087 0)
(-0.999975 -0.00710228 0)
(-0.99 -0.14107 0)
(-0.95953 -0.281608 0)
(-0.904244 -0.427017 0)
(-0.818774 -0.574116 0)
(-0.696989 -0.717082 0)
(-0.535453 -0.844565 0)
(-0.339681 -0.940541 0)
(-0.136351 -0.990661 0)
(-0.0941714 0.995556 0)
(-0.227985 0.973665 0)
(-0.368813 0.929504 0)
(-0.499523 0.866301 0)
(-0.614841 0.788651 0)
(-0.713987 0.700159 0)
(-0.79759 0.6032 0)
(-0.866319 0.499491 0)
(-0.920806 0.390021 0)
(-0.961458 0.274953 0)
(-0.988108 0.153763 0)
(-0.99967 0.0256954 0)
(-0.993982 -0.109545 0)
(-0.967744 -0.251936 0)
(-0.916417 -0.400225 0)
(-0.833841 -0.552005 0)
(-0.712229 -0.701947 0)
(-0.546686 -0.837338 0)
(-0.34295 -0.939354 0)
(-0.135119 -0.990829 0)
(-0.0890624 0.996026 0)
(-0.216363 0.976313 0)
(-0.352031 0.935988 0)
(-0.479579 0.877499 0)
(-0.593658 0.804718 0)
(-0.693024 0.720915 0)
(-0.777959 0.628315 0)
(-0.848894 0.528563 0)
(-0.906287 0.422662 0)
(-0.950461 0.310843 0)
(-0.981263 0.192672 0)
(-0.997725 0.0674193 0)
(-0.997846 -0.0656027 0)
(-0.978396 -0.20674 0)
(-0.934562 -0.3558 0)
(-0.858881 -0.512175 0)
(-0.740248 -0.672334 0)
(-0.569521 -0.821977 0)
(-0.351184 -0.936307 0)
(-0.134079 -0.990971 0)
(-0.0861671 0.996281 0)
(-0.209393 0.977832 0)
(-0.341165 0.940003 0)
(-0.465603 0.884994 0)
(-0.577573 0.816339 0)
(-0.675753 0.737128 0)
(-0.760374 0.649486 0)
(-0.831848 0.555004 0)
(-0.890655 0.45468 0)
(-0.937205 0.348779 0)
(-0.971542 0.236867 0)
(-0.993007 0.118056 0)
(-0.999962 -0.00877326 0)
(-0.989498 -0.144545 0)
(-0.956701 -0.291071 0)
(-0.892474 -0.451098 0)
(-0.780023 -0.625751 0)
(-0.601111 -0.799165 0)
(-0.358429 -0.933557 0)
(-0.126721 -0.991938 0)
(-0.0853349 0.996352 0)
(-0.206731 0.978398 0)
(-0.33572 0.941962 0)
(-0.457101 0.889415 0)
(-0.566188 0.824276 0)
(-0.661907 0.749586 0)
(-0.744685 0.667416 0)
(-0.815092 0.579332 0)
(-0.873759 0.486359 0)
(-0.921307 0.388835 0)
(-0.958112 0.286394 0)
(-0.984014 0.178088 0)
(-0.998052 0.0623936 0)
(-0.99802 -0.0628981 0)
(-0.979471 -0.201587 0)
(-0.932098 -0.362205 0)
(-0.831247 -0.555903 0)
(-0.64216 -0.76657 0)
(-0.366247 -0.930517 0)
(-0.0995401 -0.995034 0)
(-0.0870117 0.996207 0)
(-0.208855 0.977947 0)
(-0.33568 0.941976 0)
(-0.45376 0.891124 0)
(-0.559067 0.829122 0)
(-0.65107 0.759018 0)
(-0.730577 0.68283 0)
(-0.798406 0.60212 0)
(-0.855372 0.518014 0)
(-0.90232 0.431067 0)
(-0.939974 0.341246 0)
(-0.968777 0.247933 0)
(-0.988758 0.149522 0)
(-0.999109 0.0422041 0)
(-0.996758 -0.0804621 0)
(-0.972883 -0.231296 0)
(-0.89961 -0.436694 0)
(-0.728222 -0.685341 0)
(-0.447401 -0.894333 0)
(-0.10115 -0.994871 0)
(-0.0915319 0.995802 0)
(-0.215721 0.976455 0)
(-0.340638 0.940195 0)
(-0.454721 0.890634 0)
(-0.555101 0.831783 0)
(-0.642127 0.766598 0)
(-0.717089 0.696981 0)
(-0.781038 0.624483 0)
(-0.834887 0.550421 0)
(-0.879551 0.475805 0)
(-0.915887 0.401437 0)
(-0.944725 0.327863 0)
(-0.967055 0.254568 0)
(-0.984082 0.177714 0)
(-0.996062 0.0886566 0)
(-0.999523 -0.0308951 0)
(-0.973283 -0.229608 0)
(-0.84775 -0.530396 0)
(-0.580856 -0.814006 0)
(-0.269899 -0.962889 0)
(-0.101878 0.994797 0)
(-0.229692 0.973263 0)
(-0.350064 0.936726 0)
(-0.458238 0.88883 0)
(-0.551894 0.833914 0)
(-0.632509 0.774553 0)
(-0.701755 0.712418 0)
(-0.760822 0.64896 0)
(-0.810499 0.58574 0)
(-0.851415 0.524493 0)
(-0.88395 0.467581 0)
(-0.9084 0.418103 0)
(-0.925327 0.37917 0)
(-0.936131 0.351652 0)
(-0.945743 0.324917 0)
(-0.970689 0.240337 0)
(-0.999964 -0.00850638 0)
(-0.882654 -0.470023 0)
(-0.577574 -0.816338 0)
(-0.366607 -0.930376 0)
(-0.106176 0.994347 0)
(-0.240051 0.97076 0)
(-0.357902 0.933759 0)
(-0.458317 0.888789 0)
(-0.54284 0.839836 0)
(-0.614861 0.788635 0)
(-0.67636 0.736572 0)
(-0.729469 0.684014 0)
(-0.7745 0.632574 0)
(-0.811099 0.58491 0)
(-0.838071 0.545561 0)
(-0.853029 0.521864 0)
(-0.851994 0.523552 0)
(-0.828581 0.55987 0)
(-0.784742 0.619822 0)
(-0.803266 0.595621 0)
(-0.972229 0.234033 0)
(-0.824377 -0.566041 0)
(-0.450853 -0.892598 0)
(-0.280509 -0.959851 0)
(-0.155416 0.987849 0)
(-0.286782 0.957996 0)
(-0.373952 0.927448 0)
(-0.446269 0.894899 0)
(-0.509076 0.860722 0)
(-0.566386 0.82414 0)
(-0.617573 0.786514 0)
(-0.662078 0.749435 0)
(-0.700299 0.71385 0)
(-0.731097 0.682273 0)
(-0.749737 0.661736 0)
(-0.748456 0.663184 0)
(-0.710716 0.703479 0)
(-0.611112 0.791544 0)
(-0.43291 0.901437 0)
(-0.28315 0.959076 0)
(-0.413493 0.910507 0)
(-0.348545 -0.937292 0)
(-0.234872 -0.972026 0)
(-0.159582 -0.987185 0)
(-0.114744 0.993395 0)
(-0.208802 0.977958 0)
(-0.260543 0.965462 0)
(-0.295539 0.955331 0)
(-0.321324 0.946969 0)
(-0.335132 0.942171 0)
(-0.334163 0.942515 0)
(-0.321744 0.946827 0)
(-0.300473 0.95379 0)
(-0.268391 0.96331 0)
(-0.216335 0.976319 0)
(-0.125364 0.992111 0)
(0.0193313 0.999813 0)
(0.226085 0.974108 0)
(0.428397 0.903591 0)
(0.646796 0.762663 0)
(0.836366 0.548172 0)
(0.966521 -0.256587 0)
(0.205586 -0.978639 0)
(-0.0308869 -0.999523 0)
(-0.293705 0.955896 0)
(-0.502315 0.864685 0)
(-0.0926641 0.995697 0)
(0.37871 0.925515 0)
(0.682783 0.730621 0)
(0.835428 0.549599 0)
(0.905906 0.42348 0)
(0.939838 0.34162 0)
(0.958598 0.284764 0)
(0.970254 0.242089 0)
(0.977912 0.209019 0)
(0.982961 0.183817 0)
(0.985996 0.166769 0)
(0.987378 0.158383 0)
(0.987699 0.156365 0)
(0.991906 0.126975 0)
(0.998506 0.0546364 0)
(0.983297 -0.182006 0)
(0.619312 -0.785145 0)
(0.29368 -0.955904 0)
(0.403833 0.914833 0)
(0.67583 0.737057 0)
(0.899027 0.437894 0)
(0.967509 0.252837 0)
(0.986175 0.165706 0)
(0.992829 0.119546 0)
(0.995783 0.0917354 0)
(0.997275 0.0737685 0)
(0.998109 0.0614744 0)
(0.998622 0.0524746 0)
(0.998973 0.0453081 0)
(0.999233 0.0391594 0)
(0.999436 0.0335703 0)
(0.999598 0.0283622 0)
(0.999723 0.0235252 0)
(0.999842 0.0177811 0)
(0.999937 0.0112157 0)
(0.999914 -0.0131129 0)
(0.999961 0.00880908 0)
(0.966117 -0.258106 0)
)
;

boundaryField
{
    movingWall
    {
        type            calculated;
        value           uniform (1 0 0);
    }
    fixedWalls
    {
        type            calculated;
        value           uniform (0 0 0);
    }
    frontAndBack
    {
        type            empty;
    }
}


// ************************************************************************* //
