/*--------------------------------*- C++ -*----------------------------------*\
| =========                 |                                                 |
| \\      /  F ield         | OpenFOAM: The Open Source CFD Toolbox           |
|  \\    /   O peration     | Version:  2312                                  |
|   \\  /    A nd           | Website:  www.openfoam.com                      |
|    \\/     M anipulation  |                                                 |
\*---------------------------------------------------------------------------*/
FoamFile
{
    version     2.0;
    format      ascii;
    arch        "LSB;label=32;scalar=64";
    class       volScalarField;
    location    "0.5";
    object      norm_k_field;
}
// * * * * * * * * * * * * * * * * * * * * * * * * * * * * * * * * * * * * * //

dimensions      [0 0 0 0 0 0 0];

internalField   nonuniform List<scalar> 
400
(
14516
4.4931e+11
5.18445e+11
104.822
24.0062
11.2737
6.6464
4.42192
3.1779
2.41236
1.90766
1.56004
1.31279
1.13204
0.996423
0.890251
0.798983
0.705965
0.591218
0.465897
79.79
8.03457e+11
609.761
85.8926
35.4799
19.3674
12.1675
8.35689
6.11356
4.69074
3.73616
3.07071
2.59217
2.24005
1.9716
1.75405
1.55618
1.34135
1.05208
0.592271
179.906
9.99733e+11
1.23001e+12
204.18
54.0669
26.9899
16.4213
11.0953
8.02679
6.1021
4.82112
3.93198
3.29389
2.82228
2.46016
2.16469
1.89766
1.61741
1.25596
0.671374
5.71629e+11
1.10669e+12
1.36773e+12
1.5082e+12
246.32
47.6927
23.533
14.5147
9.97654
7.33283
5.65107
4.5164
3.71754
3.13367
2.68923
2.33111
2.01611
1.70042
1.31148
0.693667
5.97491e+11
1.16398e+12
1.44381e+12
1.59662e+12
1.67878e+12
1013.67
46.0914
21.1754
12.8464
8.79873
6.46993
4.99394
3.99635
3.28829
2.76217
2.34939
1.99977
1.66678
1.27556
0.67667
6.13462e+11
1.19402e+12
1.48469e+12
1.6451e+12
1.73223e+12
1.77667e+12
1.79784e+12
45.5365
18.9084
11.1491
7.54166
5.50712
4.22811
3.36473
2.74793
2.28198
1.9047
1.56459
1.18564
0.63596
6.25248e+11
1.2104e+12
1.50668e+12
1.67123e+12
1.76102e+12
1.80687e+12
1.82857e+12
1.83819e+12
44.3849
16.4438
9.39074
6.25083
4.51174
3.4284
2.69785
2.17251
1.76862
1.42618
1.06807
0.582632
6.35952e+11
1.22093e+12
1.51967e+12
1.686e+12
1.77681e+12
1.82305e+12
1.84475e+12
1.85421e+12
1.85818e+12
41.6254
13.8001
7.64072
4.99015
3.54695
2.65391
2.05209
1.61671
1.27223
0.937373
0.523597
6.47156e+11
1.22979e+12
1.52926e+12
1.69591e+12
1.7866e+12
1.83248e+12
1.85381e+12
1.86298e+12
1.86679e+12
1.86835e+12
37.1922
11.1352
5.97933
3.82061
2.65904
1.94489
1.46555
1.11515
0.803695
0.46401
6.59729e+11
1.2391e+12
1.53841e+12
1.70445e+12
1.7942e+12
1.83915e+12
1.85977e+12
1.86852e+12
1.87218e+12
1.8738e+12
1.87431e+12
31.9212
8.65858
4.48343
2.7809
1.87688
1.32874
0.964244
0.673656
0.40802
6.74315e+11
1.25008e+12
1.54869e+12
1.71338e+12
1.80142e+12
1.84485e+12
1.86437e+12
1.87246e+12
1.87586e+12
1.87755e+12
1.87832e+12
1.87752e+12
27.0293
6.46237
3.19038
1.89417
1.22352
0.829765
0.555317
0.360766
6.9162e+11
1.26365e+12
1.561e+12
1.7234e+12
1.80872e+12
1.84983e+12
1.86766e+12
1.87468e+12
1.8775e+12
1.87903e+12
1.87999e+12
1.87994e+12
1.87607e+12
23.9934
4.64331
2.12226
1.17571
0.715184
0.457843
0.336246
7.12551e+11
1.2807e+12
1.57568e+12
1.73414e+12
1.81519e+12
1.85274e+12
1.86801e+12
1.87344e+12
1.87527e+12
1.87616e+12
1.87698e+12
1.87749e+12
1.87602e+12
1.86934e+12
30.7466
3.17088
1.24471
0.620396
0.396735
0.379351
7.3865e+11
1.30171e+12
1.59191e+12
1.74342e+12
1.81781e+12
1.85054e+12
1.86266e+12
1.86575e+12
1.86581e+12
1.86527e+12
1.86525e+12
1.86607e+12
1.86792e+12
1.87134e+12
1.87473e+12
1.85743e+12
2.09081
0.720608
0.519567
0.630935
7.69847e+11
1.32593e+12
1.60618e+12
1.74622e+12
1.81212e+12
1.83857e+12
1.84606e+12
1.84617e+12
1.8436e+12
1.84098e+12
1.83968e+12
1.8407e+12
1.84697e+12
1.86396e+12
1.88541e+12
1.87029e+12
1.84358e+12
2.31888e+12
2.12526
1.45976
8.12889e+11
1.3477e+12
1.61165e+12
1.73727e+12
1.79166e+12
1.80957e+12
1.81222e+12
1.80901e+12
1.80446e+12
1.80063e+12
1.79913e+12
1.80194e+12
1.8146e+12
1.84429e+12
1.86769e+12
1.81994e+12
1.81443e+12
2.48924e+12
4.00356e+12
5.29434e+12
8.45118e+11
1.37351e+12
1.60973e+12
1.71413e+12
1.7555e+12
1.76788e+12
1.76952e+12
1.76763e+12
1.76608e+12
1.76643e+12
1.77053e+12
1.78263e+12
1.81103e+12
1.86208e+12
1.89522e+12
1.82643e+12
1.68061e+12
2.16902e+12
4.07417e+12
6.47296e+12
9.23519e+11
1.39897e+12
1.63249e+12
1.73836e+12
1.78791e+12
1.8141e+12
1.83393e+12
1.85315e+12
1.87409e+12
1.89784e+12
1.92588e+12
1.96198e+12
2.01404e+12
2.09289e+12
2.16895e+12
2.13184e+12
1.95291e+12
2.10598e+12
3.86578e+12
7.5046e+12
1.10887e+12
1.7571e+12
2.18848e+12
2.45681e+12
2.62672e+12
2.76367e+12
2.89262e+12
3.01729e+12
3.13915e+12
3.25973e+12
3.37888e+12
3.49356e+12
3.59894e+12
3.69051e+12
3.74858e+12
3.72445e+12
3.61907e+12
4.00933e+12
4.97405e+12
1.19813
7.15841
3.16399
7.44716
9.79367e+12
1.04483e+13
1.08515e+13
1.1101e+13
1.1249e+13
1.13341e+13
1.13843e+13
1.14207e+13
1.14453e+13
1.14722e+13
1.14685e+13
1.14499e+13
1.13942e+13
1.14216e+13
1.14436e+13
1.20248e+13
0.21811
)
;

boundaryField
{
    movingWall
    {
        type            calculated;
        value           nonuniform List<scalar> 
20
(
7.15841
3.16399
7.44716
9.79367e+12
1.04483e+13
1.08515e+13
1.1101e+13
1.1249e+13
1.13341e+13
1.13843e+13
1.14207e+13
1.14453e+13
1.14722e+13
1.14685e+13
1.14499e+13
1.13942e+13
1.14216e+13
1.14436e+13
1.20248e+13
0.21811
)
;
    }
    fixedWalls
    {
        type            calculated;
        value           nonuniform List<scalar> 
60
(
14516
79.79
179.906
5.71629e+11
5.97491e+11
6.13462e+11
6.25248e+11
6.35952e+11
6.47156e+11
6.59729e+11
6.74315e+11
6.9162e+11
7.12551e+11
7.3865e+11
7.69847e+11
8.12889e+11
8.45118e+11
9.23519e+11
1.10887e+12
7.15841
0.465897
0.592271
0.671374
0.693667
0.67667
0.63596
0.582632
0.523597
0.46401
0.40802
0.360766
0.336246
0.379351
0.630935
1.45976
5.29434e+12
6.47296e+12
7.5046e+12
1.19813
0.21811
14516
4.4931e+11
5.18445e+11
104.822
24.0062
11.2737
6.6464
4.42192
3.1779
2.41236
1.90766
1.56004
1.31279
1.13204
0.996423
0.890251
0.798983
0.705965
0.591218
0.465897
)
;
    }
    frontAndBack
    {
        type            empty;
    }
}


// ************************************************************************* //
