/*--------------------------------*- C++ -*----------------------------------*\
| =========                 |                                                 |
| \\      /  F ield         | OpenFOAM: The Open Source CFD Toolbox           |
|  \\    /   O peration     | Version:  2312                                  |
|   \\  /    A nd           | Website:  www.openfoam.com                      |
|    \\/     M anipulation  |                                                 |
\*---------------------------------------------------------------------------*/
FoamFile
{
    version     2.0;
    format      ascii;
    arch        "LSB;label=32;scalar=64";
    class       volVectorField;
    location    "0.5";
    object      norm_U_L1;
}
// * * * * * * * * * * * * * * * * * * * * * * * * * * * * * * * * * * * * * //

dimensions      [0 0 0 0 0 0 0];

internalField   nonuniform List<vector> 
400
(
(-1.27059e-05 1.28016e-05 0)
(-5.64974e-05 3.24099e-05 0)
(-0.00012838 4.2176e-05 0)
(-0.000203466 4.30636e-05 0)
(-0.000275981 3.98123e-05 0)
(-0.000341996 3.50313e-05 0)
(-0.000399488 2.96147e-05 0)
(-0.000447204 2.37359e-05 0)
(-0.000484172 1.72798e-05 0)
(-0.000509213 1.0089e-05 0)
(-0.000520668 2.84005e-06 0)
(-0.000518416 -5.79503e-06 0)
(-0.000500157 -1.49201e-05 0)
(-0.000465413 -2.45942e-05 0)
(-0.000413625 -3.44774e-05 0)
(-0.000345368 -4.37939e-05 0)
(-0.000263105 -5.08806e-05 0)
(-0.000172463 -5.22653e-05 0)
(-8.20958e-05 -4.24105e-05 0)
(-2.09622e-05 -2.05618e-05 0)
(-3.22519e-05 5.64391e-05 0)
(-9.56032e-05 9.55573e-05 0)
(-0.000171713 0.000112328 0)
(-0.000249895 0.000114131 0)
(-0.000325763 0.000107445 0)
(-0.000396171 9.6166e-05 0)
(-0.000458612 8.21955e-05 0)
(-0.000511047 6.62674e-05 0)
(-0.000551826 4.85091e-05 0)
(-0.00057947 2.88559e-05 0)
(-0.000592504 7.38152e-06 0)
(-0.000589649 -1.59879e-05 0)
(-0.00056977 -4.10617e-05 0)
(-0.000532213 -6.714e-05 0)
(-0.000477079 -9.29747e-05 0)
(-0.000405648 -0.000116362 0)
(-0.000320602 -0.000133693 0)
(-0.000226429 -0.000139278 0)
(-0.000129856 -0.000125084 0)
(-4.41481e-05 -8.24921e-05 0)
(-4.37722e-05 0.000128844 0)
(-0.000116677 0.000172223 0)
(-0.000194701 0.00018825 0)
(-0.000273299 0.000188706 0)
(-0.000349206 0.000178612 0)
(-0.000420169 0.000161376 0)
(-0.000483901 0.000139066 0)
(-0.000538189 0.000112769 0)
(-0.000581098 8.29288e-05 0)
(-0.000610914 4.96927e-05 0)
(-0.000626023 1.31853e-05 0)
(-0.000624984 -2.64453e-05 0)
(-0.000606625 -6.85659e-05 0)
(-0.000570236 -0.000111874 0)
(-0.000515913 -0.000154155 0)
(-0.000444778 -0.000192042 0)
(-0.000358959 -0.000220874 0)
(-0.000261897 -0.000234611 0)
(-0.000159239 -0.000226022 0)
(-5.86264e-05 -0.000180149 0)
(-4.83316e-05 0.000208993 0)
(-0.000127838 0.000255361 0)
(-0.000210508 0.000268873 0)
(-0.000292557 0.000266659 0)
(-0.000371123 0.000252675 0)
(-0.000444538 0.000229541 0)
(-0.000510936 0.000199129 0)
(-0.000568248 0.000162648 0)
(-0.0006145 0.00012074 0)
(-0.000647855 7.37051e-05 0)
(-0.000666546 2.17572e-05 0)
(-0.000668903 -3.47209e-05 0)
(-0.000653441 -9.47617e-05 0)
(-0.000619045 -0.000156477 0)
(-0.000565258 -0.0002168 0)
(-0.000492465 -0.000271358 0)
(-0.000401934 -0.000314579 0)
(-0.000296522 -0.000339958 0)
(-0.000182062 -0.000339988 0)
(-6.70492e-05 -0.000291402 0)
(-5.03554e-05 0.000294196 0)
(-0.000135478 0.000344455 0)
(-0.000224513 0.00035494 0)
(-0.000312482 0.000349144 0)
(-0.000396353 0.000330679 0)
(-0.000474631 0.000301481 0)
(-0.000545782 0.000263087 0)
(-0.000607976 0.000216652 0)
(-0.000659341 0.000162884 0)
(-0.000698007 0.000102132 0)
(-0.00072206 3.4631e-05 0)
(-0.000729522 -3.91498e-05 0)
(-0.000718376 -0.000118066 0)
(-0.000686745 -0.000199809 0)
(-0.000633166 -0.000280631 0)
(-0.000556842 -0.000355244 0)
(-0.000457988 -0.000416986 0)
(-0.000339278 -0.000458142 0)
(-0.000207708 -0.00046936 0)
(-7.52684e-05 -0.000416905 0)
(-5.23471e-05 0.000383557 0)
(-0.00014331 0.000440042 0)
(-0.000240014 0.00044798 0)
(-0.00033575 0.000438206 0)
(-0.000427067 0.000414742 0)
(-0.000512365 0.000379175 0)
(-0.000590318 0.00033276 0)
(-0.00065935 0.000276531 0)
(-0.000717767 0.000211136 0)
(-0.000763763 0.000136838 0)
(-0.000795305 5.37228e-05 0)
(-0.000810067 -3.78949e-05 0)
(-0.000805328 -0.000136992 0)
(-0.000778111 -0.000241126 0)
(-0.000725473 -0.000346127 0)
(-0.000644859 -0.000445814 0)
(-0.00053493 -0.000531957 0)
(-0.000398099 -0.000594333 0)
(-0.000243054 -0.000619639 0)
(-8.68992e-05 -0.000560787 0)
(-5.52913e-05 0.000477958 0)
(-0.000153208 0.000543303 0)
(-0.000258941 0.000549577 0)
(-0.000364047 0.000535786 0)
(-0.000464569 0.00050695 0)
(-0.000558696 0.000464692 0)
(-0.000645248 0.000410157 0)
(-0.000722935 0.00034428 0)
(-0.000790351 0.000267576 0)
(-0.000845863 0.00018006 0)
(-0.000887425 8.14448e-05 0)
(-0.000912414 -2.84372e-05 0)
(-0.000917296 -0.000149152 0)
(-0.000897671 -0.00027858 0)
(-0.000848552 -0.000412592 0)
(-0.000764673 -0.000544279 0)
(-0.000641938 -0.000663261 0)
(-0.000481597 -0.000754962 0)
(-0.000294242 -0.000799118 0)
(-0.000104286 -0.000731315 0)
(-5.95318e-05 0.000579176 0)
(-0.000166089 0.000655798 0)
(-0.000282435 0.000661248 0)
(-0.000398451 0.000643479 0)
(-0.000509659 0.000608953 0)
(-0.000614042 0.000559691 0)
(-0.000710615 0.000496969 0)
(-0.000798475 0.000421712 0)
(-0.00087667 0.000334277 0)
(-0.000943945 0.000234285 0)
(-0.000998434 0.000120773 0)
(-0.00103746 -7.36853e-06 0)
(-0.00105671 -0.000150576 0)
(-0.00105011 -0.000308192 0)
(-0.00100997 -0.000476946 0)
(-0.000926811 -0.000649871 0)
(-0.000791342 -0.000814155 0)
(-0.000601205 -0.000948277 0)
(-0.000368384 -0.00102002 0)
(-0.000129453 -0.000940543 0)
(-6.52126e-05 0.000689411 0)
(-0.000182511 0.00077946 0)
(-0.000311326 0.000784622 0)
(-0.000439788 0.000762705 0)
(-0.000562898 0.000722024 0)
(-0.000678516 0.000665374 0)
(-0.000786003 0.000594437 0)
(-0.000885056 0.000510293 0)
(-0.000975422 0.000413154 0)
(-0.00105658 0.000302155 0)
(-0.00112728 0.00017542 0)
(-0.00118489 3.04562e-05 0)
(-0.00122496 -0.000135 0)
(-0.0012401 -0.000322838 0)
(-0.00121894 -0.000532345 0)
(-0.00114567 -0.000758437 0)
(-0.00100123 -0.000986772 0)
(-0.000774129 -0.0011857 0)
(-0.000475068 -0.00130123 0)
(-0.00016436 -0.00120525 0)
(-7.25357e-05 0.0008112 0)
(-0.000203134 0.000916621 0)
(-0.000346587 0.000921512 0)
(-0.000489012 0.000894759 0)
(-0.000624881 0.000847042 0)
(-0.00075211 0.000782379 0)
(-0.000870666 0.000703189 0)
(-0.000981131 0.0006109 0)
(-0.00108433 0.000505695 0)
(-0.00118091 0.00038621 0)
(-0.00127078 0.000249519 0)
(-0.00135239 9.1385e-05 0)
(-0.00142197 -9.34865e-05 0)
(-0.00147147 -0.000310929 0)
(-0.00148611 -0.00056578 0)
(-0.00144115 -0.0008594 0)
(-0.00129962 -0.00118039 0)
(-0.00102769 -0.00148324 0)
(-0.000626928 -0.00167148 0)
(-0.000209258 -0.00154662 0)
(-8.19621e-05 0.000947662 0)
(-0.000229149 0.00107009 0)
(-0.000389753 0.00107388 0)
(-0.000547514 0.00104069 0)
(-0.000696421 0.000984318 0)
(-0.000834742 0.000910557 0)
(-0.000963429 0.000822929 0)
(-0.00108436 0.000723476 0)
(-0.00119983 0.000612516 0)
(-0.0013122 0.000488332 0)
(-0.00142335 0.00034702 0)
(-0.00153409 0.000182383 0)
(-0.00164322 -1.4417e-05 0)
(-0.00174442 -0.000254824 0)
(-0.00182172 -0.000554248 0)
(-0.00184015 -0.000930097 0)
(-0.00173061 -0.00138833 0)
(-0.00140598 -0.00186922 0)
(-0.000838014 -0.00218268 0)
(-0.000253384 -0.00198342 0)
(-9.44821e-05 0.00110315 0)
(-0.000262726 0.00124341 0)
(-0.000443286 0.00124377 0)
(-0.000617251 0.00120103 0)
(-0.000778403 0.00113323 0)
(-0.000925911 0.00104856 0)
(-0.00106225 0.000952032 0)
(-0.00119101 0.000846519 0)
(-0.00131634 0.00073271 0)
(-0.00144274 0.000608904 0)
(-0.00157505 0.000470808 0)
(-0.0017182 0.000310963 0)
(-0.00187615 0.000117289 0)
(-0.00204993 -0.000129192 0)
(-0.00223078 -0.000459122 0)
(-0.00237919 -0.000924533 0)
(-0.00237451 -0.00158797 0)
(-0.00200748 -0.0023964 0)
(-0.00116518 -0.00296035 0)
(-0.000255675 -0.00255581 0)
(-0.000112079 0.0012832 0)
(-0.000307734 0.00144094 0)
(-0.000510636 0.00143293 0)
(-0.00070026 0.00137522 0)
(-0.00087092 0.00129161 0)
(-0.00102362 0.00119334 0)
(-0.00116306 0.00108704 0)
(-0.00129481 0.000976488 0)
(-0.00142498 0.000862966 0)
(-0.00156038 0.000745442 0)
(-0.00170931 0.000620542 0)
(-0.00188259 0.000481798 0)
(-0.00209431 0.000316706 0)
(-0.00236088 9.97276e-05 0)
(-0.00270147 -0.000218073 0)
(-0.00310824 -0.000738961 0)
(-0.00341261 -0.00165657 0)
(-0.00319177 -0.00300382 0)
(-0.00204417 -0.0040862 0)
(-0.000335892 -0.00330369 0)
(-0.000138096 0.00150239 0)
(-0.00036871 0.00166896 0)
(-0.000594966 0.00164217 0)
(-0.000796738 0.00156052 0)
(-0.000970956 0.00145491 0)
(-0.00112197 0.00133946 0)
(-0.00125733 0.00122207 0)
(-0.00138467 0.00110712 0)
(-0.00151163 0.00099658 0)
(-0.00164676 0.000890837 0)
(-0.00180124 0.000789491 0)
(-0.00199234 0.000691434 0)
(-0.00224851 0.000591899 0)
(-0.00261307 0.00047189 0)
(-0.00316178 0.000281421 0)
(-0.00402307 -0.000124353 0)
(-0.00507218 -0.00119658 0)
(-0.00548374 -0.00343091 0)
(-0.00410418 -0.00575156 0)
(-0.00127319 -0.00454222 0)
(-0.000179352 0.0017513 0)
(-0.000454608 0.00192629 0)
(-0.000697152 0.00186549 0)
(-0.000901252 0.00174813 0)
(-0.00106783 0.0016135 0)
(-0.00120631 0.00147722 0)
(-0.00132731 0.00134748 0)
(-0.00144019 0.00122844 0)
(-0.00155307 0.00112239 0)
(-0.0016744 0.00103147 0)
(-0.00181546 0.000960316 0)
(-0.0019962 0.000918775 0)
(-0.00225559 0.000924269 0)
(-0.00265698 0.000998077 0)
(-0.00333582 0.00114604 0)
(-0.00466159 0.00115418 0)
(-0.00652549 -5.55103e-05 0)
(-0.00746426 -0.0039748 0)
(-0.00629146 -0.0088923 0)
(-0.0031018 -0.00787175 0)
(-0.000228644 0.00214127 0)
(-0.000551864 0.00223172 0)
(-0.000803031 0.00209509 0)
(-0.000991541 0.00192284 0)
(-0.00113253 0.00175215 0)
(-0.00124242 0.00159356 0)
(-0.00133382 0.00145256 0)
(-0.00141891 0.00133049 0)
(-0.0015045 0.0012288 0)
(-0.00159574 0.00115074 0)
(-0.00169862 0.00110575 0)
(-0.00182498 0.00111648 0)
(-0.0020019 0.00123017 0)
(-0.00226625 0.0015313 0)
(-0.00267975 0.00211658 0)
(-0.00360429 0.00267257 0)
(-0.00528717 0.00127272 0)
(-0.0062419 -0.00428587 0)
(-0.00610634 -0.0120893 0)
(-0.00408917 -0.0139924 0)
(-0.00035868 0.00227983 0)
(-0.000722566 0.00241373 0)
(-0.000900291 0.00223284 0)
(-0.00101258 0.00203052 0)
(-0.00108819 0.00183987 0)
(-0.00114499 0.00166606 0)
(-0.0011907 0.00151642 0)
(-0.001231 0.00139342 0)
(-0.00127062 0.0012952 0)
(-0.0013105 0.00122299 0)
(-0.00134633 0.00118831 0)
(-0.00137356 0.00121707 0)
(-0.00138356 0.00136948 0)
(-0.00134503 0.00174215 0)
(-0.00117315 0.00244282 0)
(-0.000908156 0.00307607 0)
(-0.0011111 0.00244662 0)
(-0.000849033 -0.00228318 0)
(-0.00272349 -0.0112713 0)
(-0.0032324 -0.0199959 0)
(-0.000449774 0.00389391 0)
(-0.000731523 0.0034262 0)
(-0.000763495 0.00282919 0)
(-0.000736282 0.00238003 0)
(-0.000702726 0.00207099 0)
(-0.000648999 0.00182456 0)
(-0.000578568 0.00163186 0)
(-0.000503913 0.00148291 0)
(-0.000430419 0.00136628 0)
(-0.000355421 0.00127568 0)
(-0.000268875 0.00121344 0)
(-0.000151198 0.00119656 0)
(2.44704e-05 0.0012656 0)
(0.000345718 0.00148956 0)
(0.000918317 0.00193695 0)
(0.00198039 0.00233516 0)
(0.00271035 0.00177642 0)
(0.00462904 -0.00122889 0)
(0.0013349 -0.00635447 0)
(-0.000692833 -0.0224206 0)
(-0.000513118 0.00167 0)
(-0.000598974 0.00103107 0)
(-8.61365e-05 0.000925557 0)
(0.000451665 0.00110381 0)
(0.00106717 0.00114194 0)
(0.00164118 0.00107968 0)
(0.00216564 0.00101236 0)
(0.0026408 0.0009599 0)
(0.00307468 0.000913374 0)
(0.00347844 0.000867909 0)
(0.00386376 0.000825842 0)
(0.00424685 0.000794175 0)
(0.00465125 0.000786702 0)
(0.00513981 0.000824463 0)
(0.00572875 0.000906932 0)
(0.00667124 0.000853995 0)
(0.00697386 0.000381596 0)
(0.00899302 -0.00166459 0)
(0.00303002 -0.00384136 0)
(0.00575152 -0.0187207 0)
(0.00340072 0.0077039 0)
(0.00529508 0.00577479 0)
(0.00741699 0.00361263 0)
(0.00922374 0.00241042 0)
(0.0105844 0.00177848 0)
(0.0117012 0.00140894 0)
(0.0127018 0.00117014 0)
(0.0136204 0.0010075 0)
(0.0144685 0.00089113 0)
(0.0152574 0.000801728 0)
(0.0159951 0.000725455 0)
(0.0166884 0.000654009 0)
(0.0173408 0.000582465 0)
(0.0179815 0.000510201 0)
(0.0185588 0.000436721 0)
(0.0192949 0.000343139 0)
(0.0191332 0.000214605 0)
(0.021144 -0.000277283 0)
(0.0107748 9.49197e-05 0)
(0.0314425 -0.00840011 0)
)
;

boundaryField
{
    movingWall
    {
        type            calculated;
        value           uniform (0.08328 0 0);
    }
    fixedWalls
    {
        type            calculated;
        value           uniform (0 0 0);
    }
    frontAndBack
    {
        type            empty;
    }
}


// ************************************************************************* //
