/*--------------------------------*- C++ -*----------------------------------*\
| =========                 |                                                 |
| \\      /  F ield         | OpenFOAM: The Open Source CFD Toolbox           |
|  \\    /   O peration     | Version:  2312                                  |
|   \\  /    A nd           | Website:  www.openfoam.com                      |
|    \\/     M anipulation  |                                                 |
\*---------------------------------------------------------------------------*/
FoamFile
{
    version     2.0;
    format      ascii;
    arch        "LSB;label=32;scalar=64";
    class       volVectorField;
    location    "0.5";
    object      norm_U_composite;
}
// * * * * * * * * * * * * * * * * * * * * * * * * * * * * * * * * * * * * * //

dimensions      [0 0 0 0 0 0 0];

internalField   nonuniform List<vector> 
400
(
(-7.6284e-05 7.68585e-05 0)
(-0.000339201 0.000194584 0)
(-0.000770776 0.000253218 0)
(-0.00122158 0.000258547 0)
(-0.00165694 0.000239027 0)
(-0.00205329 0.000210323 0)
(-0.00239846 0.000177802 0)
(-0.00268494 0.000142507 0)
(-0.00290689 0.000103745 0)
(-0.00305724 6.05729e-05 0)
(-0.00312601 1.70512e-05 0)
(-0.00311249 -3.47925e-05 0)
(-0.00300286 -8.95777e-05 0)
(-0.00279426 -0.000147659 0)
(-0.00248334 -0.000206997 0)
(-0.00207354 -0.000262932 0)
(-0.00157964 -0.000305479 0)
(-0.00103544 -0.000313793 0)
(-0.00049289 -0.000254626 0)
(-0.000125854 -0.00012345 0)
(-0.000193635 0.000338851 0)
(-0.000573986 0.000573711 0)
(-0.00103094 0.0006744 0)
(-0.00150033 0.000685225 0)
(-0.00195583 0.000645083 0)
(-0.00237855 0.000577365 0)
(-0.00275343 0.000493489 0)
(-0.00306824 0.000397859 0)
(-0.00331308 0.000291241 0)
(-0.00347905 0.000173246 0)
(-0.0035573 4.43175e-05 0)
(-0.00354016 -9.59887e-05 0)
(-0.00342081 -0.000246528 0)
(-0.00319532 -0.000403098 0)
(-0.0028643 -0.000558206 0)
(-0.00243545 -0.00069862 0)
(-0.00192484 -0.00080267 0)
(-0.00135945 -0.000836205 0)
(-0.000779637 -0.000750986 0)
(-0.000265059 -0.00049527 0)
(-0.000262801 0.00077356 0)
(-0.000700513 0.001034 0)
(-0.00116895 0.00113022 0)
(-0.00164084 0.00113296 0)
(-0.00209658 0.00107236 0)
(-0.00252263 0.000968874 0)
(-0.00290527 0.000834931 0)
(-0.0032312 0.000677045 0)
(-0.00348882 0.000497891 0)
(-0.00366783 0.000298347 0)
(-0.00375854 7.91625e-05 0)
(-0.0037523 -0.000158773 0)
(-0.00364208 -0.000411659 0)
(-0.00342361 -0.000671674 0)
(-0.00309746 -0.00092552 0)
(-0.00267037 -0.00115299 0)
(-0.00215514 -0.00132609 0)
(-0.00157239 -0.00140857 0)
(-0.000956047 -0.001357 0)
(-0.000351984 -0.00108159 0)
(-0.000290175 0.00125476 0)
(-0.000767521 0.00153315 0)
(-0.00126385 0.00161427 0)
(-0.00175646 0.00160098 0)
(-0.00222817 0.00151702 0)
(-0.00266894 0.00137813 0)
(-0.00306758 0.00119554 0)
(-0.00341167 0.000976512 0)
(-0.00368936 0.000724907 0)
(-0.00388962 0.000442514 0)
(-0.00400183 0.000130627 0)
(-0.00401599 -0.000208459 0)
(-0.00392316 -0.000568934 0)
(-0.00371665 -0.000939463 0)
(-0.00339372 -0.00130163 0)
(-0.00295668 -0.00162919 0)
(-0.00241315 -0.00188869 0)
(-0.00178027 -0.00204105 0)
(-0.00109307 -0.00204124 0)
(-0.000402553 -0.00174953 0)
(-0.000302326 0.00176631 0)
(-0.000813391 0.00206805 0)
(-0.00134794 0.002131 0)
(-0.00187609 0.00209621 0)
(-0.00237964 0.00198535 0)
(-0.00284961 0.00181005 0)
(-0.00327679 0.00157954 0)
(-0.00365019 0.00130074 0)
(-0.00395858 0.000977932 0)
(-0.00419073 0.000613182 0)
(-0.00433514 0.000207919 0)
(-0.00437993 -0.000235049 0)
(-0.00431301 -0.000708848 0)
(-0.00412311 -0.00119962 0)
(-0.00380143 -0.00168487 0)
(-0.00334319 -0.00213283 0)
(-0.00274969 -0.00250352 0)
(-0.00203697 -0.00275061 0)
(-0.00124705 -0.00281796 0)
(-0.0004519 -0.00250303 0)
(-0.000314284 0.00230281 0)
(-0.000860408 0.00264194 0)
(-0.001441 0.0026896 0)
(-0.00201579 0.00263092 0)
(-0.00256405 0.00249005 0)
(-0.00307616 0.00227651 0)
(-0.00354418 0.00199784 0)
(-0.00395863 0.00166025 0)
(-0.00430936 0.00126763 0)
(-0.00458551 0.000821553 0)
(-0.00477489 0.000322543 0)
(-0.00486351 -0.000227515 0)
(-0.00483506 -0.000822477 0)
(-0.00467166 -0.00144768 0)
(-0.00435563 -0.00207809 0)
(-0.00387163 -0.0026766 0)
(-0.00321163 -0.00319379 0)
(-0.00239012 -0.00356828 0)
(-0.00145926 -0.00372021 0)
(-0.000521729 -0.00336688 0)
(-0.00033196 0.00286958 0)
(-0.000919836 0.0032619 0)
(-0.00155464 0.00329957 0)
(-0.00218568 0.00321677 0)
(-0.0027892 0.00304365 0)
(-0.00335432 0.00278994 0)
(-0.00387397 0.00246252 0)
(-0.00434039 0.002067 0)
(-0.00474515 0.00160648 0)
(-0.00507843 0.00108105 0)
(-0.00532796 0.000488982 0)
(-0.00547799 -0.000170732 0)
(-0.0055073 -0.000895486 0)
(-0.00538948 -0.00167255 0)
(-0.00509457 -0.00247713 0)
(-0.00459098 -0.00326777 0)
(-0.00385409 -0.00398211 0)
(-0.00289143 -0.00453267 0)
(-0.00176658 -0.00479778 0)
(-0.00062612 -0.0043907 0)
(-0.00035742 0.00347728 0)
(-0.000997174 0.00393731 0)
(-0.0016957 0.00397003 0)
(-0.00239224 0.00386335 0)
(-0.00305992 0.00365606 0)
(-0.00368661 0.0033603 0)
(-0.00426642 0.00298372 0)
(-0.00479392 0.00253189 0)
(-0.00526339 0.00200695 0)
(-0.0056673 0.00140661 0)
(-0.00599444 0.000725102 0)
(-0.00622876 -4.42395e-05 0)
(-0.00634432 -0.000904036 0)
(-0.0063047 -0.00185034 0)
(-0.00606371 -0.00286351 0)
(-0.00556443 -0.00390172 0)
(-0.00475109 -0.00488806 0)
(-0.00360954 -0.0056933 0)
(-0.00221172 -0.00612401 0)
(-0.000777217 -0.00564687 0)
(-0.000391526 0.00413911 0)
(-0.00109577 0.00467976 0)
(-0.00186915 0.00471075 0)
(-0.00264042 0.00457916 0)
(-0.00337955 0.00433492 0)
(-0.0040737 0.0039948 0)
(-0.00471904 0.0035689 0)
(-0.00531374 0.00306372 0)
(-0.00585628 0.00248051 0)
(-0.00634354 0.00181409 0)
(-0.00676801 0.0010532 0)
(-0.00711389 0.000182854 0)
(-0.00735447 -0.00081052 0)
(-0.00744535 -0.00193827 0)
(-0.00731833 -0.00319611 0)
(-0.00687843 -0.00455354 0)
(-0.0060112 -0.00592442 0)
(-0.00464775 -0.00711878 0)
(-0.00285223 -0.00781239 0)
(-0.000986791 -0.00723613 0)
(-0.000435493 0.00487032 0)
(-0.00121959 0.00550325 0)
(-0.00208085 0.00553262 0)
(-0.00293595 0.00537199 0)
(-0.00375169 0.00508551 0)
(-0.00451555 0.00469728 0)
(-0.00522734 0.00422184 0)
(-0.00589056 0.00366775 0)
(-0.00651016 0.00303612 0)
(-0.00708999 0.00231874 0)
(-0.00762956 0.00149807 0)
(-0.00811953 0.000548661 0)
(-0.00853729 -0.000561278 0)
(-0.00883447 -0.00186677 0)
(-0.00892236 -0.00339686 0)
(-0.00865245 -0.0051597 0)
(-0.00780272 -0.00708687 0)
(-0.0061701 -0.00890517 0)
(-0.00376398 -0.0100353 0)
(-0.00125635 -0.00928566 0)
(-0.000492088 0.00568961 0)
(-0.00137577 0.00642463 0)
(-0.00234002 0.00644739 0)
(-0.00328719 0.00624812 0)
(-0.0041812 0.00590969 0)
(-0.00501166 0.00546684 0)
(-0.00578428 0.00494074 0)
(-0.00651031 0.00434364 0)
(-0.0072036 0.00367745 0)
(-0.00787822 0.00293187 0)
(-0.00854556 0.00208346 0)
(-0.00921043 0.001095 0)
(-0.00986566 -8.65574e-05 0)
(-0.0104732 -0.00152993 0)
(-0.0109373 -0.00332762 0)
(-0.011048 -0.00558416 0)
(-0.0103903 -0.00833534 0)
(-0.00844127 -0.0112225 0)
(-0.00503131 -0.0131045 0)
(-0.00152128 -0.0119081 0)
(-0.000567256 0.00662315 0)
(-0.00157737 0.00746524 0)
(-0.00266142 0.0074674 0)
(-0.00370588 0.0072108 0)
(-0.00467341 0.00680371 0)
(-0.00555902 0.00629539 0)
(-0.00637759 0.00571585 0)
(-0.00715065 0.00508237 0)
(-0.00790307 0.00439907 0)
(-0.00866198 0.00365576 0)
(-0.00945638 0.00282666 0)
(-0.0103158 0.00186697 0)
(-0.0112641 0.000704182 0)
(-0.0123074 -0.000775649 0)
(-0.0133933 -0.0027565 0)
(-0.0142843 -0.00555075 0)
(-0.0142562 -0.00953395 0)
(-0.0120526 -0.0143876 0)
(-0.00699556 -0.0177735 0)
(-0.00153503 -0.0153447 0)
(-0.000672905 0.00770416 0)
(-0.00184758 0.00865117 0)
(-0.00306578 0.0086031 0)
(-0.00420425 0.00825659 0)
(-0.00522887 0.00775465 0)
(-0.00614567 0.00716462 0)
(-0.00698282 0.00652645 0)
(-0.00777386 0.00586268 0)
(-0.00855534 0.00518111 0)
(-0.00936827 0.00447552 0)
(-0.0102624 0.00372564 0)
(-0.0113028 0.00289264 0)
(-0.0125739 0.00190145 0)
(-0.0141744 0.000598749 0)
(-0.0162192 -0.00130928 0)
(-0.0186614 -0.00443661 0)
(-0.0204888 -0.00994579 0)
(-0.0191629 -0.0180345 0)
(-0.0122729 -0.0245329 0)
(-0.00201664 -0.0198348 0)
(-0.000829109 0.00902012 0)
(-0.00221368 0.0100202 0)
(-0.00357208 0.00985931 0)
(-0.00478349 0.00936913 0)
(-0.00582947 0.00873507 0)
(-0.00673613 0.00804188 0)
(-0.00754882 0.00733714 0)
(-0.00831334 0.00664698 0)
(-0.00907558 0.00598331 0)
(-0.00988688 0.00534845 0)
(-0.0108144 0.00473998 0)
(-0.0119617 0.00415126 0)
(-0.0134997 0.00355367 0)
(-0.0156885 0.00283316 0)
(-0.0189828 0.00168961 0)
(-0.0241539 -0.000746595 0)
(-0.0304526 -0.0071841 0)
(-0.0329235 -0.0205987 0)
(-0.0246409 -0.0345315 0)
(-0.00764405 -0.0272708 0)
(-0.0010768 0.0105145 0)
(-0.00272939 0.0115651 0)
(-0.00418559 0.0112001 0)
(-0.00541097 0.0104955 0)
(-0.0064111 0.0096872 0)
(-0.00724252 0.008869 0)
(-0.00796897 0.00809006 0)
(-0.00864665 0.00737535 0)
(-0.00932437 0.00673863 0)
(-0.0100529 0.00619281 0)
(-0.0108997 0.00576559 0)
(-0.0119848 0.00551618 0)
(-0.0135422 0.00554916 0)
(-0.0159521 0.0059923 0)
(-0.0200277 0.00688067 0)
(-0.0279875 0.00692954 0)
(-0.039178 -0.000333275 0)
(-0.0448143 -0.0238641 0)
(-0.037773 -0.0533879 0)
(-0.0186227 -0.0472607 0)
(-0.00137274 0.0128559 0)
(-0.0033133 0.0133989 0)
(-0.00482127 0.0125786 0)
(-0.00595306 0.0115444 0)
(-0.00679951 0.0105196 0)
(-0.00745929 0.00956746 0)
(-0.00800805 0.00872096 0)
(-0.00851891 0.00798808 0)
(-0.00903275 0.00737751 0)
(-0.0095806 0.00690888 0)
(-0.0101982 0.00663877 0)
(-0.0109569 0.00670317 0)
(-0.0120191 0.00738575 0)
(-0.0136062 0.00919369 0)
(-0.0160888 0.0127076 0)
(-0.0216396 0.0160457 0)
(-0.0317433 0.0076412 0)
(-0.0374754 -0.0257317 0)
(-0.0366615 -0.0725824 0)
(-0.0245508 -0.0840083 0)
(-0.00215346 0.0136878 0)
(-0.00433817 0.0144917 0)
(-0.00540521 0.0134056 0)
(-0.00607937 0.0121909 0)
(-0.00653335 0.0110463 0)
(-0.00687433 0.0100027 0)
(-0.00714877 0.00910437 0)
(-0.0073907 0.00836587 0)
(-0.00762858 0.00777619 0)
(-0.00786806 0.00734262 0)
(-0.00808317 0.0071344 0)
(-0.00824663 0.00730709 0)
(-0.00830671 0.00822213 0)
(-0.00807533 0.0104596 0)
(-0.0070434 0.0146663 0)
(-0.00545242 0.0184682 0)
(-0.00667085 0.0146892 0)
(-0.00509746 -0.0137079 0)
(-0.0163514 -0.0676711 0)
(-0.0194068 -0.120052 0)
(-0.00270037 0.0233784 0)
(-0.00439195 0.0205704 0)
(-0.00458391 0.016986 0)
(-0.00442052 0.0142894 0)
(-0.00421906 0.0124339 0)
(-0.00389649 0.0109544 0)
(-0.00347363 0.00979745 0)
(-0.00302541 0.00890316 0)
(-0.00258417 0.00820292 0)
(-0.00213389 0.00765897 0)
(-0.00161428 0.00728528 0)
(-0.000907771 0.00718393 0)
(0.000146916 0.00759848 0)
(0.00207564 0.00894307 0)
(0.00551343 0.0116291 0)
(0.01189 0.0140199 0)
(0.0162725 0.0106654 0)
(0.027792 -0.00737808 0)
(0.00801456 -0.0381512 0)
(-0.00415966 -0.13461 0)
(-0.00308068 0.0100264 0)
(-0.00359615 0.00619041 0)
(-0.00051715 0.0055569 0)
(0.00271173 0.00662708 0)
(0.00640712 0.00685603 0)
(0.00985341 0.00648222 0)
(0.0130021 0.00607805 0)
(0.0158549 0.00576309 0)
(0.0184599 0.00548375 0)
(0.020884 0.00521079 0)
(0.0231974 0.00495823 0)
(0.0254974 0.0047681 0)
(0.0279254 0.00472324 0)
(0.0308586 0.00494995 0)
(0.0343945 0.00544507 0)
(0.0400531 0.00512725 0)
(0.04187 0.00229104 0)
(0.0539927 -0.00999392 0)
(0.0181917 -0.0230629 0)
(0.0345312 -0.112396 0)
(0.0204174 0.046253 0)
(0.0317908 0.0346709 0)
(0.0445304 0.0216897 0)
(0.0553779 0.0144718 0)
(0.0635469 0.0106777 0)
(0.0702523 0.00845905 0)
(0.0762594 0.00702531 0)
(0.0817746 0.00604887 0)
(0.0868668 0.0053502 0)
(0.0916028 0.00481345 0)
(0.0960323 0.00435552 0)
(0.100195 0.00392657 0)
(0.104112 0.00349703 0)
(0.107958 0.00306316 0)
(0.111424 0.00262201 0)
(0.115844 0.00206015 0)
(0.114872 0.00128845 0)
(0.126945 -0.00166477 0)
(0.0646902 0.000569883 0)
(0.188776 -0.0504329 0)
)
;

boundaryField
{
    movingWall
    {
        type            calculated;
        value           uniform (0.5 0 0);
    }
    fixedWalls
    {
        type            calculated;
        value           uniform (0 0 0);
    }
    frontAndBack
    {
        type            empty;
    }
}


// ************************************************************************* //
