/*--------------------------------*- C++ -*----------------------------------*\
| =========                 |                                                 |
| \\      /  F ield         | OpenFOAM: The Open Source CFD Toolbox           |
|  \\    /   O peration     | Version:  2312                                  |
|   \\  /    A nd           | Website:  www.openfoam.com                      |
|    \\/     M anipulation  |                                                 |
\*---------------------------------------------------------------------------*/
FoamFile
{
    version     2.0;
    format      ascii;
    arch        "LSB;label=32;scalar=64";
    class       volScalarField;
    location    "0.5";
    object      nut;
}
// * * * * * * * * * * * * * * * * * * * * * * * * * * * * * * * * * * * * * //

dimensions      [0 2 -1 0 0 0 0];

internalField   nonuniform List<scalar> 
400
(
1.03702e-05
1.17023e-05
1.25913e-05
1.3064e-05
1.33102e-05
1.34462e-05
1.35314e-05
1.35926e-05
1.36399e-05
1.36762e-05
1.37022e-05
1.37218e-05
1.37276e-05
1.37118e-05
1.36556e-05
1.35234e-05
1.32475e-05
1.27101e-05
1.1728e-05
1.03825e-05
1.17158e-05
3.81168e-05
5.1677e-05
5.8595e-05
6.21442e-05
6.39524e-05
6.49324e-05
6.55813e-05
6.61322e-05
6.66697e-05
6.71881e-05
6.75923e-05
6.78485e-05
6.78693e-05
6.72761e-05
6.54369e-05
6.1321e-05
5.32851e-05
3.7871e-05
1.17198e-05
1.2693e-05
5.35007e-05
7.75459e-05
9.0618e-05
9.75698e-05
0.000101106
0.000102891
0.00010388
0.000104563
0.000105142
0.000105664
0.000106068
0.000106216
0.000105781
0.000104076
9.99723e-05
9.17637e-05
7.69334e-05
5.10145e-05
1.26131e-05
1.32436e-05
6.16957e-05
9.25088e-05
0.000110014
0.00011962
0.000124575
0.000127026
0.000128269
0.000128999
0.000129532
0.000129955
0.000130195
0.000130063
0.000129034
0.000126209
0.000120159
0.000108846
8.94186e-05
5.73111e-05
1.30904e-05
1.35536e-05
6.61153e-05
0.000101043
0.000121459
0.00013291
0.000138886
0.000141809
0.000143214
0.000143942
0.000144392
0.00014467
0.000144717
0.000144253
0.000142656
0.000138879
0.000131329
0.000117839
9.55111e-05
5.99514e-05
1.33461e-05
1.37433e-05
6.84073e-05
0.0001057
0.000127875
0.000140477
0.000147096
0.000150307
0.000151787
0.000152483
0.000152836
0.000152971
0.000152828
0.000152064
0.000149991
0.000145471
0.000136839
0.000121922
9.78466e-05
6.04893e-05
1.35024e-05
1.38818e-05
6.95782e-05
0.000108173
0.000131316
0.000144543
0.000151498
0.000154844
0.000156338
0.000156985
0.000157251
0.000157279
0.000156977
0.000155976
0.000153534
0.000148455
0.000139048
0.000123187
9.80712e-05
5.99032e-05
1.36293e-05
1.40055e-05
7.02309e-05
0.000109556
0.000133182
0.000146681
0.000153754
0.000157124
0.000158593
0.000159192
0.000159394
0.000159348
0.000158932
0.000157749
0.000155019
0.000149493
0.000139472
0.000122901
9.70761e-05
5.8467e-05
1.37602e-05
1.4133e-05
7.06979e-05
0.000110486
0.000134328
0.000147883
0.000154933
0.000158254
0.000159675
0.000160232
0.000160391
0.000160296
0.000159803
0.000158465
0.000155476
0.000149521
0.000138899
0.000121623
9.50996e-05
5.62719e-05
1.39186e-05
1.42741e-05
7.1148e-05
0.000111304
0.000135222
0.000148698
0.000155632
0.000158852
0.000160205
0.00016072
0.000160851
0.000160714
0.000160157
0.00015868
0.000155384
0.000148945
0.000137569
0.000119373
9.19837e-05
5.31146e-05
1.41291e-05
1.44355e-05
7.1669e-05
0.000112178
0.000136086
0.000149378
0.000156117
0.000159186
0.000160443
0.000160904
0.000160999
0.00016081
0.000160173
0.000158522
0.000154866
0.000147711
0.000135167
0.000115501
8.68648e-05
4.8404e-05
1.44526e-05
1.46243e-05
7.23161e-05
0.000113184
0.000136987
0.000149969
0.000156409
0.000159253
0.00016036
0.000160723
0.000160743
0.000160462
0.00015969
0.000157772
0.000153555
0.000145255
0.000130629
0.000107673
7.61755e-05
4.02221e-05
1.5217e-05
1.48488e-05
7.3126e-05
0.000114312
0.000137819
0.000150271
0.000156226
0.000158707
0.000159581
0.000159771
0.000159628
0.000159176
0.000158142
0.000155774
0.000150577
0.000140003
0.000120834
9.11327e-05
5.5459e-05
2.80272e-05
1.78444e-05
1.51231e-05
7.40728e-05
0.000115362
0.000138111
0.000149595
0.000154779
0.000156727
0.000157178
0.000157014
0.000156535
0.000155753
0.000154322
0.000151272
0.000144356
0.000129378
0.000101854
6.3827e-05
3.50901e-05
2.63684e-05
2.48475e-05
1.54423e-05
7.4985e-05
0.000115584
0.00013655
0.000146431
0.000150331
0.000151262
0.000150961
0.00015011
0.000149037
0.000147755
0.000145851
0.000142163
0.000133464
0.000112386
7.66985e-05
4.35418e-05
3.47145e-05
3.65637e-05
3.44563e-05
1.58724e-05
7.49474e-05
0.000112806
0.000130411
0.00013728
0.000138768
0.000138002
0.000136357
0.000134473
0.000132591
0.000130757
0.000128665
0.000125372
0.000117681
9.71745e-05
6.24224e-05
3.59586e-05
3.40399e-05
4.11671e-05
4.13982e-05
1.61824e-05
7.2533e-05
0.000102466
0.000112638
0.000114353
0.000112604
0.000109736
0.000106658
0.000103805
0.000101297
9.92121e-05
9.76603e-05
9.65746e-05
9.44697e-05
8.54898e-05
6.43579e-05
4.02025e-05
3.49192e-05
4.1535e-05
4.52506e-05
1.69227e-05
6.00779e-05
7.27426e-05
7.34184e-05
7.10877e-05
6.78936e-05
6.48612e-05
6.22947e-05
6.02132e-05
5.85705e-05
5.73782e-05
5.67778e-05
5.70602e-05
5.85058e-05
5.9833e-05
5.62715e-05
4.57447e-05
3.83916e-05
4.19936e-05
4.85918e-05
1.85755e-05
3.32155e-05
3.44745e-05
3.48766e-05
3.50412e-05
3.52931e-05
3.58002e-05
3.65084e-05
3.7334e-05
3.82225e-05
3.91375e-05
4.00596e-05
4.09637e-05
4.19121e-05
4.29223e-05
4.28922e-05
4.15659e-05
3.99549e-05
4.14006e-05
5.30565e-05
3.71464e-05
4.59068e-05
5.22126e-05
5.55179e-05
5.73466e-05
5.84431e-05
5.91065e-05
5.94859e-05
5.96872e-05
5.97837e-05
5.98351e-05
5.98504e-05
5.98753e-05
5.98246e-05
5.97657e-05
5.96108e-05
5.9692e-05
5.97708e-05
6.13084e-05
5.84584e-05
)
;

boundaryField
{
    movingWall
    {
        type            nutkWallFunction;
        blending        stepwise;
        value           nonuniform List<scalar> 
20
(
0
0
8.24334e-07
1.36451e-06
1.66102e-06
1.83834e-06
1.9462e-06
2.00947e-06
2.04567e-06
2.06696e-06
2.08232e-06
2.09274e-06
2.10408e-06
2.10249e-06
2.09467e-06
2.07114e-06
2.08274e-06
2.09202e-06
2.33377e-06
1.86377e-06
)
;
    }
    fixedWalls
    {
        type            nutkWallFunction;
        blending        stepwise;
        value           nonuniform List<scalar> 
60
(
0
0
0
0
0
0
0
0
0
0
0
0
0
0
0
0
0
0
0
0
0
0
0
0
0
0
0
0
0
0
0
0
0
0
0
0
0
2.26579e-07
9.6754e-07
1.86377e-06
0
0
0
0
0
0
0
0
0
0
0
0
0
0
0
0
0
0
0
0
)
;
    }
    frontAndBack
    {
        type            empty;
    }
}


// ************************************************************************* //
