/*--------------------------------*- C++ -*----------------------------------*\
| =========                 |                                                 |
| \\      /  F ield         | OpenFOAM: The Open Source CFD Toolbox           |
|  \\    /   O peration     | Version:  2312                                  |
|   \\  /    A nd           | Website:  www.openfoam.com                      |
|    \\/     M anipulation  |                                                 |
\*---------------------------------------------------------------------------*/
FoamFile
{
    version     2.0;
    format      ascii;
    arch        "LSB;label=32;scalar=64";
    class       volScalarField;
    location    "0.5";
    object      P_A;
}
// * * * * * * * * * * * * * * * * * * * * * * * * * * * * * * * * * * * * * //

dimensions      [1 -1 -3 0 0 0 0];

internalField   nonuniform List<scalar> 
400
(
3.20898e-25
8.27194e-25
1.4639e-24
1.94542e-24
2.24267e-24
2.42083e-24
2.53771e-24
2.62437e-24
2.69309e-24
2.7465e-24
2.7852e-24
2.81513e-24
2.82409e-24
2.80015e-24
2.71651e-24
2.52618e-24
2.16064e-24
1.57115e-24
8.40974e-25
3.2356e-25
8.34919e-25
3.47247e-24
6.30584e-24
8.33903e-24
9.51622e-24
1.01341e-23
1.04655e-23
1.06753e-23
1.08413e-23
1.09914e-23
1.11301e-23
1.12463e-23
1.13136e-23
1.12915e-23
1.10479e-23
1.03662e-23
8.94853e-24
6.56363e-24
3.44428e-24
8.35852e-25
1.55735e-24
6.61518e-24
1.15999e-23
1.5176e-23
1.72905e-23
1.83986e-23
1.89552e-23
1.92558e-23
1.94564e-23
1.96234e-23
1.97755e-23
1.98974e-23
1.99412e-23
1.98022e-23
1.92579e-23
1.79603e-23
1.54708e-23
1.14653e-23
6.21195e-24
1.48154e-24
2.15988e-24
9.06316e-24
1.56761e-23
2.04661e-23
2.33681e-23
2.49151e-23
2.56811e-23
2.60636e-23
2.62848e-23
2.64474e-23
2.65833e-23
2.66668e-23
2.66366e-23
2.63274e-23
2.54497e-23
2.35703e-23
2.01783e-23
1.49226e-23
8.12977e-24
1.97284e-24
2.57549e-24
1.06138e-23
1.83107e-23
2.39553e-23
2.74369e-23
2.93189e-23
3.02458e-23
3.06875e-23
3.09142e-23
3.1057e-23
3.11549e-23
3.11867e-23
3.10613e-23
3.05797e-23
2.94038e-23
2.70502e-23
2.29803e-23
1.68699e-23
9.13737e-24
2.28546e-24
2.86007e-24
1.15046e-23
1.98474e-23
2.60321e-23
2.9891e-23
3.19928e-23
3.30234e-23
3.3498e-23
3.37216e-23
3.38415e-23
3.39029e-23
3.38859e-23
3.3676e-23
3.30516e-23
3.16418e-23
2.89385e-23
2.44025e-23
1.77594e-23
9.52921e-24
2.49392e-24
3.0847e-24
1.20261e-23
2.07203e-23
2.72122e-23
3.1287e-23
3.35112e-23
3.45962e-23
3.50845e-23
3.53015e-23
3.54035e-23
3.5444e-23
3.53943e-23
3.5128e-23
3.44041e-23
3.28293e-23
2.98807e-23
2.50286e-23
1.80675e-23
9.61523e-24
2.67336e-24
3.30014e-24
1.23881e-23
2.12648e-23
2.79152e-23
3.20945e-23
3.43705e-23
3.54733e-23
3.59625e-23
3.61741e-23
3.62698e-23
3.63065e-23
3.62485e-23
3.596e-23
3.51823e-23
3.35033e-23
3.03835e-23
2.52997e-23
1.81172e-23
9.53521e-24
2.86885e-24
3.53776e-24
1.27132e-23
2.16909e-23
2.84162e-23
3.26304e-23
3.49104e-23
3.60051e-23
3.64859e-23
3.66951e-23
3.67961e-23
3.68456e-23
3.68047e-23
3.65321e-23
3.57482e-23
3.40233e-23
3.07915e-23
2.55122e-23
1.80944e-23
9.37955e-24
3.1199e-24
3.81961e-24
1.3069e-23
2.21173e-23
2.88739e-23
3.30777e-23
3.53268e-23
3.63917e-23
3.68544e-23
3.7061e-23
3.71756e-23
3.72523e-23
3.72563e-23
3.70408e-23
3.63225e-23
3.46374e-23
3.13927e-23
2.5968e-23
1.82222e-23
9.22037e-24
3.47842e-24
4.16746e-24
1.34993e-23
2.26131e-23
2.93735e-23
3.35279e-23
3.5711e-23
3.67209e-23
3.715e-23
3.73471e-23
3.74762e-23
3.75901e-23
3.76678e-23
3.7569e-23
3.70246e-23
3.5591e-23
3.26318e-23
2.7292e-23
1.91195e-23
9.32776e-24
4.07427e-24
4.61054e-24
1.40446e-23
2.3225e-23
2.99557e-23
3.4009e-23
3.60791e-23
3.69979e-23
3.73676e-23
3.7537e-23
3.76697e-23
3.78228e-23
3.80008e-23
3.81079e-23
3.79658e-23
3.72756e-23
3.54813e-23
3.12896e-23
2.2821e-23
1.11273e-23
5.69382e-24
5.19282e-24
1.47523e-23
2.39846e-23
3.06195e-23
3.449e-23
3.63779e-23
3.71566e-23
3.74387e-23
3.75589e-23
3.76726e-23
3.78545e-23
3.81484e-23
3.85915e-23
3.92881e-23
4.04776e-23
4.22737e-23
4.2726e-23
3.67327e-23
2.41383e-23
1.60887e-23
5.99453e-24
1.56704e-23
2.48883e-23
3.12971e-23
3.48715e-23
3.65219e-23
3.71431e-23
3.73143e-23
3.73581e-23
3.74242e-23
3.76104e-23
3.80342e-23
3.89744e-23
4.11789e-23
4.63217e-23
5.6436e-23
6.93824e-23
9.81199e-23
1.82291e-22
1.8154e-22
7.07178e-24
1.68186e-23
2.5858e-23
3.18847e-23
3.5126e-23
3.65207e-23
3.69657e-23
3.70491e-23
3.70268e-23
3.70557e-23
3.72581e-23
3.7839e-23
3.94188e-23
4.3755e-23
5.4706e-23
7.73084e-23
1.27644e-22
4.49427e-22
2.00317e-21
2.84112e-21
8.78864e-24
1.81063e-23
2.69034e-23
3.26217e-23
3.56014e-23
3.6832e-23
3.72808e-23
3.74311e-23
3.75277e-23
3.76983e-23
3.80842e-23
3.8976e-23
4.12795e-23
4.73101e-23
6.0637e-23
8.40126e-23
1.43865e-22
6.30571e-22
4.42468e-21
1.54737e-20
1.02685e-23
2.03766e-23
2.94602e-23
3.55578e-23
3.89923e-23
4.08707e-23
4.2114e-23
4.31213e-23
4.41313e-23
4.52646e-23
4.67003e-23
4.89191e-23
5.31163e-23
6.1535e-23
7.36175e-23
8.28008e-23
9.11525e-23
3.30782e-22
4.74443e-21
3.49754e-20
1.46373e-23
2.67203e-23
4.42037e-23
5.81101e-23
6.81052e-23
7.61318e-23
8.36868e-23
9.13217e-23
9.9378e-23
1.08122e-22
1.17899e-22
1.2953e-22
1.45009e-22
1.68107e-22
1.9302e-22
1.89901e-22
1.57452e-22
2.63472e-22
3.70517e-21
6.33627e-20
3.03696e-23
1.34794e-22
3.48794e-22
5.80178e-22
7.80196e-22
9.73683e-22
1.17856e-21
1.39736e-21
1.63294e-21
1.88983e-21
2.16923e-21
2.46276e-21
2.75303e-21
3.01282e-21
3.15602e-21
3.06777e-21
2.78209e-21
4.58856e-21
1.16845e-20
1.28535e-19
7.40572e-21
4.01718e-20
1.12517e-19
1.83757e-19
2.38025e-19
2.76945e-19
3.03337e-19
3.19901e-19
3.29824e-19
3.3591e-19
3.4047e-19
3.43706e-19
3.4721e-19
3.4699e-19
3.44809e-19
3.38204e-19
3.41416e-19
3.43931e-19
4.19044e-19
2.83657e-19
)
;

boundaryField
{
    movingWall
    {
        type            calculated;
        value           nonuniform List<scalar> 
20
(
7.40572e-21
4.01718e-20
1.12517e-19
1.83757e-19
2.38025e-19
2.76945e-19
3.03337e-19
3.19901e-19
3.29824e-19
3.3591e-19
3.4047e-19
3.43706e-19
3.4721e-19
3.4699e-19
3.44809e-19
3.38204e-19
3.41416e-19
3.43931e-19
4.19044e-19
2.83657e-19
)
;
    }
    fixedWalls
    {
        type            calculated;
        value           nonuniform List<scalar> 
60
(
3.20898e-25
8.34919e-25
1.55735e-24
2.15988e-24
2.57549e-24
2.86007e-24
3.0847e-24
3.30014e-24
3.53776e-24
3.81961e-24
4.16746e-24
4.61054e-24
5.19282e-24
5.99453e-24
7.07178e-24
8.78864e-24
1.02685e-23
1.46373e-23
3.03696e-23
7.40572e-21
3.2356e-25
8.35852e-25
1.48154e-24
1.97284e-24
2.28546e-24
2.49392e-24
2.67336e-24
2.86885e-24
3.1199e-24
3.47842e-24
4.07427e-24
5.69382e-24
1.60887e-23
1.8154e-22
2.84112e-21
1.54737e-20
3.49754e-20
6.33627e-20
1.28535e-19
2.83657e-19
3.20898e-25
8.27194e-25
1.4639e-24
1.94542e-24
2.24267e-24
2.42083e-24
2.53771e-24
2.62437e-24
2.69309e-24
2.7465e-24
2.7852e-24
2.81513e-24
2.82409e-24
2.80015e-24
2.71651e-24
2.52618e-24
2.16064e-24
1.57115e-24
8.40974e-25
3.2356e-25
)
;
    }
    frontAndBack
    {
        type            empty;
    }
}


// ************************************************************************* //
