/*--------------------------------*- C++ -*----------------------------------*\
| =========                 |                                                 |
| \\      /  F ield         | OpenFOAM: The Open Source CFD Toolbox           |
|  \\    /   O peration     | Version:  2312                                  |
|   \\  /    A nd           | Website:  www.openfoam.com                      |
|    \\/     M anipulation  |                                                 |
\*---------------------------------------------------------------------------*/
FoamFile
{
    version     2.0;
    format      ascii;
    arch        "LSB;label=32;scalar=64";
    class       scalarField;
    location    "0.5";
    object      p_all;
}
// * * * * * * * * * * * * * * * * * * * * * * * * * * * * * * * * * * * * * //


400
(
2.44146e-08
0
0
5.31189e-06
2.40383e-05
5.21819e-05
8.95697e-05
0.000135772
0.000190157
0.000251746
0.000319475
0.000391717
0.000465865
0.000539091
0.000607793
0.000667941
0.000715548
0.000747564
0.000763141
0.000762285
5.64424e-06
0
1.60974e-06
1.25042e-05
3.15827e-05
5.90474e-05
9.49822e-05
0.000139211
0.000191303
0.000250544
0.000315978
0.000385855
0.000458078
0.000529892
0.000597963
0.00065861
0.00070819
0.000743357
0.000761207
0.000760632
2.92688e-06
0
0
6.62009e-06
2.61619e-05
5.35585e-05
8.89589e-05
0.000132403
0.000183708
0.000242409
0.000307683
0.000378095
0.000451701
0.000525883
0.000597401
0.000662552
0.000717347
0.000757177
0.000776685
0.000774569
0
0
0
0
6.42442e-06
3.39614e-05
6.95927e-05
0.000113449
0.000165573
0.000225783
0.000293523
0.000367673
0.000446469
0.000527351
0.000606898
0.000680828
0.000743953
0.000789606
0.000810325
0.000805561
0
0
0
0
0
1.69725e-06
3.77603e-05
8.26368e-05
0.000136592
0.00019977
0.000271982
0.000352474
0.000439752
0.000531275
0.000623253
0.000710417
0.000785764
0.000840014
0.000863658
0.00085691
0
0
0
0
0
0
0
3.9693e-05
9.58303e-05
0.000162736
0.000240722
0.000329549
0.000428168
0.00053417
0.000643374
0.000749266
0.000842419
0.00091003
0.000939731
0.00093203
0
0
0
0
0
0
0
0
4.15097e-05
0.000112156
0.000196451
0.000294914
0.000407326
0.000531695
0.000663692
0.00079547
0.000914452
0.00100268
0.001043
0.00103532
0
0
0
0
0
0
0
0
0
4.46793e-05
0.000134789
0.000243217
0.000371127
0.000517591
0.000678785
0.000845851
0.00100226
0.00112216
0.00117984
0.00117275
0
0
0
0
0
0
0
0
0
0
5.02433e-05
0.000167659
0.000311132
0.00048254
0.000679827
0.000894304
0.00110511
0.00127403
0.00135945
0.00135168
0
0
0
0
0
0
0
0
0
0
0
5.86728e-05
0.000215584
0.000412606
0.000652066
0.000928711
0.00121864
0.00146483
0.00159512
0.00158004
0
0
0
0
0
0
0
0
0
0
0
0
6.92624e-05
0.000287263
0.00057076
0.000924559
0.00132838
0.00169877
0.0019004
0.00186024
0
0
0
0
0
0
0
0
0
0
0
0
0
7.76575e-05
0.000394741
0.000834331
0.00140299
0.00199103
0.00230051
0.00217476
0
0
0
0
0
0
0
0
0
0
0
0
0
0
6.02203e-05
0.00057061
0.00136853
0.00237756
0.00291014
0.00251563
0
0
0
0
0
0
0
0
0
0
0
0
0
0
0
0
0.000838351
0.00230012
0.00343565
0.00278955
0
0
0
0
0
0
0
0
0
0
0
0
0
0
0
0
0
0
0.00153854
0.00238912
0
0
0
0
0
0
0
0
0
0
0
0
0
0
0
0
0
0
0
0
0
0
0
0
0
0
0
0
0
0
0
0
0
0
0
0
0
0
0
0
0
0
0
0
0
0
0
0
0
0
0
0
0
0
0
0
0
0
0
0
0
0
0
0
0
0
0
0
0
0
0
0
0
0
0
0
0
0
0
0.00747433
0.000612942
0.00211654
0.0011633
0
0
0
0
0
0
0
0
0
0
0
0
0
0
0
0
0.0500208
)


// ************************************************************************* //
