/*--------------------------------*- C++ -*----------------------------------*\
| =========                 |                                                 |
| \\      /  F ield         | OpenFOAM: The Open Source CFD Toolbox           |
|  \\    /   O peration     | Version:  2312                                  |
|   \\  /    A nd           | Website:  www.openfoam.com                      |
|    \\/     M anipulation  |                                                 |
\*---------------------------------------------------------------------------*/
FoamFile
{
    version     2.0;
    format      ascii;
    arch        "LSB;label=32;scalar=64";
    class       surfaceScalarField;
    location    "0.5";
    object      PecletNoField;
}
// * * * * * * * * * * * * * * * * * * * * * * * * * * * * * * * * * * * * * //

dimensions      [0 0 0 0 0 0 0];

oriented        oriented;

internalField   nonuniform List<scalar> 
760
(
0.0909232
0.0908825
0.250157
0.103911
0.435341
0.104372
0.621245
0.0974706
0.794823
0.0875113
0.949307
0.0763157
1.08072
0.0643041
1.18618
0.0514108
1.26297
0.0374102
1.3081
0.0220918
1.31939
0.00589606
1.29306
0.0120002
1.22689
0.0310311
1.11936
0.0510093
0.970878
0.0714965
0.785007
0.0918502
0.570343
0.111072
0.343944
0.12707
0.136651
0.136924
0.136678
0.10379
0.249338
0.146417
0.144088
0.194468
0.120982
0.2456
0.107355
0.296737
0.0953737
0.344816
0.083318
0.386968
0.0704801
0.420856
0.056497
0.444805
0.0411658
0.457776
0.0244097
0.459061
0.00630648
0.448447
0.0132321
0.425602
0.0339326
0.391356
0.0554523
0.347818
0.0774339
0.29787
0.0997305
0.2448
0.122871
0.192905
0.149359
0.142535
0.193352
0.353543
0.105822
0.439606
0.123926
0.189947
0.149647
0.144657
0.179592
0.124174
0.211242
0.109383
0.242339
0.0956867
0.270647
0.0813445
0.294241
0.0656222
0.311672
0.0482146
0.321931
0.0290289
0.324338
0.00810643
0.318614
0.0144888
0.304894
0.0384713
0.28408
0.0634781
0.257858
0.0892685
0.228441
0.116163
0.198339
0.146006
0.171261
0.185267
0.148916
0.264464
0.615425
0.105149
0.644842
0.116582
0.243597
0.136072
0.175427
0.159732
0.147102
0.185377
0.128593
0.211214
0.112533
0.235367
0.0961061
0.256136
0.0781158
0.272163
0.0580757
0.282453
0.0358214
0.286339
0.011364
0.283473
0.0152081
0.273982
0.0436173
0.258642
0.0735493
0.238801
0.10496
0.216226
0.138725
0.19297
0.178094
0.172514
0.233642
0.157157
0.35329
0.911659
0.105295
0.859916
0.115301
0.304754
0.133264
0.212575
0.155242
0.175504
0.179238
0.152539
0.203741
0.133542
0.227092
0.114583
0.247721
0.0939368
0.264328
0.0708694
0.275924
0.0450932
0.281792
0.016539
0.281515
0.0147641
0.275106
0.0486357
0.263128
0.0849002
0.246639
0.123833
0.227043
0.167007
0.206066
0.219278
0.187218
0.295822
0.17265
0.464506
1.24747
0.107882
1.08539
0.118271
0.373632
0.136605
0.256046
0.158967
0.209419
0.183412
0.181389
0.208574
0.158983
0.23292
0.137116
0.254956
0.113501
0.27342
0.0871071
0.28733
0.0574705
0.295914
0.0243683
0.298663
0.0123204
0.295427
0.0526582
0.286527
0.0967444
0.272702
0.145373
0.254965
0.201064
0.234769
0.270622
0.215879
0.374713
0.199656
0.605221
1.63814
0.113293
1.32421
0.124749
0.45039
0.1444
0.30574
0.168292
0.248819
0.194425
0.215224
0.221482
0.189034
0.247997
0.163981
0.272532
0.137198
0.293879
0.107332
0.311071
0.0736912
0.323318
0.0358142
0.330064
0.00666458
0.330938
0.0543025
0.326027
0.107652
0.315684
0.168392
0.300385
0.240476
0.281114
0.333357
0.261869
0.474663
0.242303
0.787101
2.10746
0.121522
1.58044
0.134328
0.535307
0.155838
0.361564
0.181968
0.293588
0.210576
0.25398
0.240338
0.223709
0.269823
0.195296
0.297668
0.1653
0.32276
0.132038
0.344217
0.0945491
0.361294
0.0520372
0.373542
0.00385913
0.380336
0.0515235
0.381617
0.115264
0.377271
0.190637
0.366944
0.283992
0.3506
0.408967
0.332161
0.603037
0.306907
1.03099
2.68833
0.132547
1.85872
0.146842
0.628954
0.170545
0.423553
0.199356
0.343617
0.230914
0.297517
0.263861
0.262891
0.296806
0.231032
0.328504
0.197944
0.35803
0.161634
0.384725
0.120865
0.408088
0.0744653
0.427684
0.0211457
0.443345
0.0413569
0.454758
0.115911
0.461449
0.208158
0.461844
0.328864
0.453744
0.499347
0.439251
0.773051
0.402406
1.37492
3.42305
0.146583
2.16442
0.162426
0.732257
0.188509
0.491906
0.220228
0.398833
0.254937
0.345642
0.29123
0.306348
0.327793
0.271007
0.363573
0.235105
0.397962
0.196387
0.430718
0.153372
0.461813
0.104514
0.491382
0.0478022
0.520003
0.0199505
0.547857
0.1041
0.574694
0.214193
0.597626
0.369416
0.609809
0.607169
0.606093
1.01135
0.540909
1.89906
4.3568
0.164321
2.50436
0.18163
0.846501
0.210101
0.566951
0.244717
0.459181
0.282473
0.398098
0.321915
0.353734
0.361859
0.314885
0.401547
0.276573
0.440835
0.236359
0.480155
0.192626
0.520347
0.143586
0.562743
0.0866144
0.609742
0.0177102
0.663686
0.0717664
0.727058
0.197163
0.797046
0.394045
0.857534
0.73939
0.87863
1.39514
0.734796
2.81987
5.48713
0.187232
2.88816
0.205578
0.973375
0.236121
0.649121
0.273274
0.52463
0.313584
0.454646
0.355551
0.404719
0.398182
0.362327
0.4411
0.322059
0.484769
0.281435
0.530546
0.238919
0.580662
0.192824
0.638745
0.140533
0.710469
0.0773541
0.805171
0.0070064
0.935366
0.136415
1.11173
0.376532
1.3134
0.91052
1.42133
2.17125
1.02971
4.78755
6.60034
0.218169
3.33073
0.236173
1.11527
0.267783
0.739106
0.306579
0.595565
0.348487
0.515598
0.391918
0.459541
0.436051
0.413484
0.480921
0.371695
0.527715
0.33176
0.578863
0.292525
0.638503
0.253031
0.713891
0.211985
0.818095
0.166363
0.975719
0.107265
1.23734
0.00970677
1.69397
0.233883
2.43841
1.06282
3.11393
3.73776
1.94364
8.28968
7.62863
0.260986
3.85523
0.275686
1.27596
0.306476
0.839264
0.345446
0.674431
0.387527
0.583275
0.430867
0.520567
0.4749
0.470849
0.520082
0.427891
0.568153
0.389551
0.622472
0.35528
0.689153
0.325739
0.780371
0.30324
0.922502
0.2919
1.177
0.296621
1.7018
0.323306
2.93255
0.303258
5.4419
0.654284
7.30298
5.18292
4.15531
11.0414
9.76218
0.324511
4.49728
0.327996
1.46495
0.354119
0.957813
0.3909
0.769429
0.431206
0.666702
0.472964
0.597717
0.515541
0.544681
0.559539
0.500918
0.606933
0.464506
0.661135
0.435671
0.729225
0.417493
0.827114
0.418185
0.995704
0.455895
1.35777
0.571448
2.28329
0.875883
4.7033
1.5234
8.54697
0.973531
9.40697
5.03179
6.02667
12.5425
13.7993
0.399647
5.28415
0.392166
1.70842
0.411704
1.12553
0.444112
0.91312
0.481801
0.800174
0.521164
0.725143
0.561361
0.668658
0.603395
0.624242
0.648429
0.58904
0.698375
0.563841
0.757927
0.554168
0.838908
0.573521
0.976577
0.653387
1.29045
0.866344
2.14737
1.39966
4.27535
2.47216
7.32667
2.60121
8.00406
3.86627
6.48518
12.8787
18.6395
0.574669
6.35608
0.503306
2.1086
0.492372
1.44676
0.51084
1.21622
0.542882
1.09642
0.578452
1.01197
0.614746
0.946391
0.651604
0.894578
0.688762
0.853217
0.724805
0.822477
0.756514
0.808455
0.779388
0.826528
0.79195
0.911388
0.797286
1.11814
0.813918
1.58767
0.798386
2.30443
0.944998
2.27073
1.92386
2.66063
4.11711
10.3217
21.3236
0.73735
7.37076
0.593422
3.00953
0.53802
2.20985
0.524335
1.9289
0.511545
1.74678
0.482615
1.58534
0.441074
1.45324
0.393419
1.34838
0.341095
1.26146
0.279673
1.18689
0.196625
1.12536
0.0677408
1.08583
0.151278
1.09024
0.517842
1.18156
1.22063
1.36844
2.54947
1.50319
4.25878
1.00793
4.01537
2.1135
0.185139
6.63463
19.787
0.884461
6.24073
0.531473
3.26938
0.221197
2.013
1.04145
1.57243
1.82056
1.33025
2.52207
1.14307
3.13348
1.00819
3.66032
0.91336
4.11818
0.839637
4.52449
0.776523
4.89859
0.720346
5.26799
0.672186
5.6754
0.637238
6.20482
0.621528
7.01161
0.623789
8.17345
0.549152
9.12924
0.289766
8.36055
1.07275
3.45394
1.90631
15.2966
4.5856
6.74427
7.91816
8.91869
9.82756
10.647
11.4028
12.1164
12.7951
13.4378
14.0449
14.6178
15.1716
15.7256
16.2988
16.7904
17.023
15.9176
14.3934
)
;

boundaryField
{
    movingWall
    {
        type            calculated;
        value           uniform 0;
    }
    fixedWalls
    {
        type            calculated;
        value           uniform 0;
    }
    frontAndBack
    {
        type            empty;
        value           nonuniform List<scalar> 0();
    }
}


// ************************************************************************* //
