/*--------------------------------*- C++ -*----------------------------------*\
| =========                 |                                                 |
| \\      /  F ield         | OpenFOAM: The Open Source CFD Toolbox           |
|  \\    /   O peration     | Version:  2312                                  |
|   \\  /    A nd           | Website:  www.openfoam.com                      |
|    \\/     M anipulation  |                                                 |
\*---------------------------------------------------------------------------*/
FoamFile
{
    version     2.0;
    format      ascii;
    arch        "LSB;label=32;scalar=64";
    class       surfaceScalarField;
    location    "0.5";
    object      phi;
}
// * * * * * * * * * * * * * * * * * * * * * * * * * * * * * * * * * * * * * //

dimensions      [0 3 -1 0 0 0 0];

oriented        oriented;

internalField   nonuniform List<scalar> 
760
(
-1.91268e-08
1.91244e-08
-5.54017e-08
3.62748e-08
-9.93782e-08
4.39763e-08
-1.44049e-07
4.46703e-08
-1.85815e-07
4.17667e-08
-2.22981e-07
3.71652e-08
-2.54639e-07
3.16582e-08
-2.80132e-07
2.54931e-08
-2.98795e-07
1.86625e-08
-3.09879e-07
1.10841e-08
-3.12853e-07
2.97428e-09
-3.06774e-07
-6.07896e-09
-2.91014e-07
-1.57601e-08
-2.65106e-07
-2.59079e-08
-2.29025e-07
-3.60813e-08
-1.83578e-07
-4.54476e-08
-1.31058e-07
-5.25196e-08
-7.6421e-08
-5.46371e-08
-2.87722e-08
-4.76489e-08
-2.87723e-08
-3.62397e-08
5.5364e-08
-8.03784e-08
8.04135e-08
-1.26669e-07
9.02663e-08
-1.72828e-07
9.08297e-08
-2.16761e-07
8.56999e-08
-2.56689e-07
7.70933e-08
-2.9122e-07
6.6189e-08
-3.19247e-07
5.352e-08
-3.39835e-07
3.92505e-08
-3.52162e-07
2.34103e-08
-3.55269e-07
6.08109e-09
-3.48535e-07
-1.28127e-08
-3.31369e-07
-3.29256e-08
-3.03586e-07
-5.36919e-08
-2.65581e-07
-7.40856e-08
-2.18574e-07
-9.24548e-08
-1.64758e-07
-1.06336e-07
-1.07213e-07
-1.12183e-07
-4.95957e-08
-1.05266e-07
-7.8368e-08
-4.56059e-08
1.0097e-07
-9.3593e-08
1.28401e-07
-1.40791e-07
1.37464e-07
-1.86944e-07
1.36983e-07
-2.30967e-07
1.29722e-07
-2.71416e-07
1.17542e-07
-3.06874e-07
1.01647e-07
-3.36087e-07
8.27329e-08
-3.57963e-07
6.1127e-08
-3.71517e-07
3.69644e-08
-3.75797e-07
1.03608e-08
-3.70045e-07
-1.85646e-08
-3.53674e-07
-4.9297e-08
-3.2649e-07
-8.0876e-08
-2.88863e-07
-1.11713e-07
-2.41846e-07
-1.39472e-07
-1.8713e-07
-1.61051e-07
-1.26689e-07
-1.72624e-07
-6.22674e-08
-1.69687e-07
-1.40635e-07
-4.9914e-08
1.50884e-07
-1.01545e-07
1.80032e-07
-1.51395e-07
1.87314e-07
-1.99373e-07
1.84961e-07
-2.44879e-07
1.75228e-07
-2.8683e-07
1.59494e-07
-3.23978e-07
1.38794e-07
-3.55092e-07
1.13847e-07
-3.79029e-07
8.5064e-08
-3.94709e-07
5.26438e-08
-4.01089e-07
1.67406e-08
-3.97228e-07
-2.24252e-08
-3.82339e-07
-6.41863e-08
-3.55947e-07
-1.07268e-07
-3.18045e-07
-1.49615e-07
-2.69206e-07
-1.8831e-07
-2.10592e-07
-2.19665e-07
-1.43816e-07
-2.39401e-07
-7.1036e-08
-2.42467e-07
-2.11671e-07
-5.24731e-08
2.03357e-07
-1.07898e-07
2.35457e-07
-1.61584e-07
2.40999e-07
-2.12969e-07
2.36346e-07
-2.61506e-07
2.23765e-07
-3.0632e-07
2.04308e-07
-3.46342e-07
1.78817e-07
-3.80446e-07
1.47951e-07
-4.07507e-07
1.12124e-07
-4.26387e-07
7.15243e-08
-4.35914e-07
2.62673e-08
-4.34898e-07
-2.34413e-08
-4.22163e-07
-7.69214e-08
-3.96712e-07
-1.32719e-07
-3.57884e-07
-1.88443e-07
-3.05563e-07
-2.40631e-07
-2.40428e-07
-2.84801e-07
-1.64249e-07
-3.1558e-07
-8.0539e-08
-3.26177e-07
-2.9221e-07
-5.51013e-08
2.58458e-07
-1.14787e-07
2.95142e-07
-1.73198e-07
2.99411e-07
-2.29192e-07
2.9234e-07
-2.82063e-07
2.76636e-07
-3.31011e-07
2.53255e-07
-3.75111e-07
2.22917e-07
-4.13373e-07
1.86213e-07
-4.44744e-07
1.43495e-07
-4.68071e-07
9.48513e-08
-4.82041e-07
4.02381e-08
-4.85166e-07
-2.03167e-08
-4.75718e-07
-8.63698e-08
-4.51941e-07
-1.56496e-07
-4.12202e-07
-2.28181e-07
-3.55372e-07
-2.97461e-07
-2.81452e-07
-3.58721e-07
-1.92495e-07
-4.04537e-07
-9.38298e-08
-4.24842e-07
-3.8604e-07
-5.86065e-08
3.17065e-07
-1.23346e-07
3.59882e-07
-1.87352e-07
3.63416e-07
-2.48954e-07
3.53942e-07
-3.07231e-07
3.34914e-07
-3.61395e-07
3.07419e-07
-4.1066e-07
2.72182e-07
-4.54207e-07
2.2976e-07
-4.91125e-07
1.80414e-07
-5.20313e-07
1.24039e-07
-5.40355e-07
6.02802e-08
-5.49478e-07
-1.11935e-08
-5.45238e-07
-9.06104e-08
-5.24886e-07
-1.76848e-07
-4.85368e-07
-2.67699e-07
-4.23895e-07
-3.58934e-07
-3.39105e-07
-4.43511e-07
-2.3303e-07
-5.10612e-07
-1.13316e-07
-5.44556e-07
-4.99356e-07
-6.33353e-08
3.804e-07
-1.34185e-07
4.30731e-07
-2.04722e-07
4.33954e-07
-2.72827e-07
4.22047e-07
-3.3738e-07
3.99466e-07
-3.97613e-07
3.67652e-07
-4.52921e-07
3.2749e-07
-5.02739e-07
2.79578e-07
-5.4641e-07
2.24084e-07
-5.83003e-07
1.60632e-07
-6.11093e-07
8.83708e-08
-6.28823e-07
6.53611e-09
-6.32819e-07
-8.66148e-08
-6.19196e-07
-1.9047e-07
-5.82817e-07
-3.04079e-07
-5.18075e-07
-4.23676e-07
-4.2068e-07
-5.40906e-07
-2.91543e-07
-6.39748e-07
-1.41526e-07
-6.94574e-07
-6.40882e-07
-6.94751e-08
4.49875e-07
-1.47712e-07
5.08968e-07
-2.25814e-07
5.12056e-07
-3.01238e-07
4.97471e-07
-3.72714e-07
4.70943e-07
-4.39575e-07
4.34513e-07
-5.01496e-07
3.89411e-07
-5.58303e-07
3.36385e-07
-6.09766e-07
2.75547e-07
-6.55355e-07
2.06221e-07
-6.93952e-07
1.26967e-07
-7.23359e-07
3.59434e-08
-7.40257e-07
-6.97166e-08
-7.38976e-07
-1.91752e-07
-7.116e-07
-3.31455e-07
-6.47787e-07
-4.87488e-07
-5.37057e-07
-6.51637e-07
-3.76376e-07
-8.0043e-07
-1.81466e-07
-8.89483e-07
-8.22349e-07
-7.72654e-08
5.27141e-07
-1.64417e-07
5.9612e-07
-2.51213e-07
5.98851e-07
-3.34658e-07
5.80917e-07
-4.13419e-07
5.49703e-07
-4.87059e-07
5.08154e-07
-5.55702e-07
4.58053e-07
-6.19756e-07
4.00439e-07
-6.79662e-07
3.35452e-07
-7.35592e-07
2.62151e-07
-7.87094e-07
1.7847e-07
-8.32493e-07
8.13425e-08
-8.68572e-07
-3.36368e-08
-8.88429e-07
-1.71895e-07
-8.80757e-07
-3.39127e-07
-8.27538e-07
-5.40707e-07
-7.05417e-07
-7.73758e-07
-5.00325e-07
-1.00552e-06
-2.35954e-07
-1.15385e-06
-1.0583e-06
-8.71762e-08
6.14317e-07
-1.85124e-07
6.94067e-07
-2.81812e-07
6.9554e-07
-3.73763e-07
6.72868e-07
-4.59719e-07
6.35659e-07
-5.39695e-07
5.8813e-07
-6.14489e-07
5.32847e-07
-6.85334e-07
4.71284e-07
-7.53615e-07
4.03733e-07
-8.20606e-07
3.29142e-07
-8.87146e-07
2.45009e-07
-9.52988e-07
1.47185e-07
-1.0164e-06
2.97791e-08
-1.07045e-06
-1.17848e-07
-1.10105e-06
-3.08527e-07
-1.07867e-06
-5.63083e-07
-9.53431e-07
-8.99001e-07
-6.82119e-07
-1.27683e-06
-3.04414e-07
-1.53156e-06
-1.36272e-06
-1.00113e-07
7.1443e-07
-2.11232e-07
8.05186e-07
-3.18964e-07
8.03272e-07
-4.19415e-07
7.73319e-07
-5.11736e-07
7.2798e-07
-5.96725e-07
6.73119e-07
-6.76138e-07
6.1226e-07
-7.52258e-07
5.47404e-07
-8.2766e-07
4.79135e-07
-9.05124e-07
4.06606e-07
-9.87566e-07
3.27451e-07
-1.07776e-06
2.37382e-07
-1.17699e-06
1.29006e-07
-1.28348e-06
-1.1355e-08
-1.3838e-06
-2.08209e-07
-1.43581e-06
-5.11073e-07
-1.33868e-06
-9.96135e-07
-9.69332e-07
-1.64618e-06
-3.88401e-07
-2.11249e-06
-1.75112e-06
-1.17784e-07
8.32214e-07
-2.44956e-07
9.32358e-07
-3.64359e-07
9.22676e-07
-4.72268e-07
8.81228e-07
-5.689e-07
8.24611e-07
-6.56331e-07
7.60551e-07
-7.37553e-07
6.93482e-07
-8.16007e-07
6.25858e-07
-8.95531e-07
5.58659e-07
-9.80605e-07
4.91681e-07
-1.07689e-06
4.23737e-07
-1.1919e-06
3.52386e-07
-1.33493e-06
2.72041e-07
-1.51519e-06
1.68907e-07
-1.73745e-06
1.40448e-08
-1.96472e-06
-2.83802e-07
-2.03109e-06
-9.29758e-07
-1.61124e-06
-2.06603e-06
-6.40152e-07
-3.08358e-06
-2.39127e-06
-1.42493e-07
9.74707e-07
-2.88691e-07
1.07856e-06
-4.19065e-07
1.05305e-06
-5.3148e-07
9.93642e-07
-6.28518e-07
9.21649e-07
-7.14174e-07
8.46207e-07
-7.92856e-07
7.72165e-07
-8.69036e-07
7.02038e-07
-9.47535e-07
6.37158e-07
-1.0342e-06
5.78346e-07
-1.13736e-06
5.26896e-07
-1.27042e-06
4.85445e-07
-1.45583e-06
4.57458e-07
-1.72862e-06
4.41697e-07
-2.13773e-06
4.2315e-07
-2.72259e-06
3.01062e-07
-3.23567e-06
-4.16677e-07
-2.97445e-06
-2.32725e-06
-1.47962e-06
-4.57841e-06
-3.87089e-06
-1.79174e-07
1.15388e-06
-3.4533e-07
1.24471e-06
-4.81838e-07
1.18956e-06
-5.92176e-07
1.10398e-06
-6.82948e-07
1.01242e-06
-7.60509e-07
9.23769e-07
-8.30593e-07
8.42249e-07
-8.98258e-07
7.69703e-07
-9.68504e-07
7.07403e-07
-1.04721e-06
6.57053e-07
-1.14345e-06
6.23132e-07
-1.27381e-06
6.15812e-07
-1.47178e-06
6.55428e-07
-1.80481e-06
7.74725e-07
-2.387e-06
1.00534e-06
-3.29796e-06
1.21202e-06
-4.19897e-06
4.84333e-07
-4.29326e-06
-2.23297e-06
-2.74274e-06
-6.12893e-06
-6.61363e-06
-2.21444e-07
1.37533e-06
-4.07369e-07
1.43064e-06
-5.41838e-07
1.32403e-06
-6.38835e-07
1.20098e-06
-7.13181e-07
1.08677e-06
-7.73329e-07
9.83918e-07
-8.26206e-07
8.95125e-07
-8.77426e-07
8.20923e-07
-9.30703e-07
7.6068e-07
-9.89415e-07
7.15764e-07
-1.05891e-06
6.92624e-07
-1.14946e-06
7.06364e-07
-1.28445e-06
7.90423e-07
-1.51534e-06
1.00561e-06
-1.9283e-06
1.4183e-06
-2.5306e-06
1.81432e-06
-3.29694e-06
1.25067e-06
-3.81021e-06
-1.7197e-06
-3.32577e-06
-6.61337e-06
-9.9394e-06
-3.12377e-07
1.6877e-06
-4.9072e-07
1.60898e-06
-5.78792e-07
1.4121e-06
-6.30864e-07
1.25305e-06
-6.70342e-07
1.12625e-06
-7.00911e-07
1.01449e-06
-7.26612e-07
9.20826e-07
-7.50853e-07
8.45164e-07
-7.7521e-07
7.85038e-07
-7.99133e-07
7.39687e-07
-8.20335e-07
7.13827e-07
-8.34861e-07
7.2089e-07
-8.35682e-07
7.91244e-07
-7.97124e-07
9.67052e-07
-6.9121e-07
1.31239e-06
-4.97236e-07
1.62035e-06
-4.49449e-07
1.20289e-06
-9.27821e-07
-1.24133e-06
-2.19824e-06
-5.34296e-06
-1.21376e-05
-3.57617e-07
2.04532e-06
-4.53435e-07
1.7048e-06
-4.4699e-07
1.40565e-06
-4.31282e-07
1.23734e-06
-4.0663e-07
1.10159e-06
-3.68609e-07
9.76465e-07
-3.24534e-07
8.76751e-07
-2.80327e-07
8.00958e-07
-2.36692e-07
7.41403e-07
-1.90106e-07
6.93101e-07
-1.31892e-07
6.55613e-07
-4.53314e-08
6.34329e-07
1.02541e-07
6.43372e-07
3.58188e-07
7.11405e-07
8.30663e-07
8.39915e-07
1.55539e-06
8.95627e-07
2.21747e-06
5.40805e-07
2.01542e-06
-1.03928e-06
1.02368e-07
-3.42991e-06
-1.20353e-05
-3.17482e-07
2.3628e-06
-2.33025e-07
1.62034e-06
9.8821e-08
1.07381e-06
4.68223e-07
8.6794e-07
8.22296e-07
7.47521e-07
1.14872e-06
6.5004e-07
1.44623e-06
5.79238e-07
1.71747e-06
5.29723e-07
1.96759e-06
4.91277e-07
2.20252e-06
4.58173e-07
2.42963e-06
4.28507e-07
2.66095e-06
4.03009e-07
2.9193e-06
3.85016e-07
3.2524e-06
3.78314e-07
3.70965e-06
3.82657e-07
4.26892e-06
3.36364e-07
4.63404e-06
1.75682e-07
4.23694e-06
-6.42177e-07
1.97664e-06
-1.16961e-06
-1.00586e-05
2.3628e-06
3.98314e-06
5.05695e-06
5.92489e-06
6.67241e-06
7.32245e-06
7.90169e-06
8.43141e-06
8.92269e-06
9.38086e-06
9.80937e-06
1.02124e-05
1.05974e-05
1.09757e-05
1.13584e-05
1.16947e-05
1.18704e-05
1.12282e-05
1.00586e-05
)
;

boundaryField
{
    movingWall
    {
        type            calculated;
        value           uniform 0;
    }
    fixedWalls
    {
        type            calculated;
        value           uniform 0;
    }
    frontAndBack
    {
        type            empty;
        value           nonuniform List<scalar> 0();
    }
}


// ************************************************************************* //
