/*--------------------------------*- C++ -*----------------------------------*\
| =========                 |                                                 |
| \\      /  F ield         | OpenFOAM: The Open Source CFD Toolbox           |
|  \\    /   O peration     | Version:  2312                                  |
|   \\  /    A nd           | Website:  www.openfoam.com                      |
|    \\/     M anipulation  |                                                 |
\*---------------------------------------------------------------------------*/
FoamFile
{
    version     2.0;
    format      ascii;
    arch        "LSB;label=32;scalar=64";
    class       volScalarField;
    location    "0.5";
    object      powk;
}
// * * * * * * * * * * * * * * * * * * * * * * * * * * * * * * * * * * * * * //

dimensions      [0 0.5 -0.5 0 0 0 0];

internalField   nonuniform List<scalar> 
400
(
2.5686
2.5728
2.57545
2.57681
2.5775
2.57787
2.5781
2.57827
2.57839
2.57849
2.57856
2.57861
2.57863
2.57859
2.57844
2.57808
2.57732
2.57578
2.57287
2.56864
2.57284
2.58418
2.5885
2.59052
2.59148
2.59195
2.59219
2.59234
2.59246
2.59258
2.59268
2.59277
2.59282
2.59281
2.59265
2.59218
2.5911
2.58885
2.58411
2.57284
2.57574
2.58891
2.59364
2.59587
2.59697
2.59749
2.59775
2.59789
2.59798
2.59806
2.59813
2.59818
2.5982
2.59814
2.5979
2.5973
2.59604
2.59354
2.58836
2.57551
2.57731
2.5912
2.59615
2.59853
2.59972
2.60031
2.60058
2.60072
2.6008
2.60086
2.60091
2.60093
2.60092
2.60081
2.6005
2.5998
2.5984
2.59571
2.59028
2.57687
2.57817
2.59235
2.59746
2.59995
2.60121
2.60183
2.60213
2.60226
2.60233
2.60238
2.60241
2.60241
2.60237
2.60222
2.60185
2.60106
2.59955
2.59672
2.59109
2.57759
2.57869
2.59294
2.59815
2.6007
2.602
2.60265
2.60296
2.6031
2.60316
2.60319
2.60321
2.6032
2.60314
2.60295
2.60253
2.60167
2.60007
2.59713
2.59135
2.57802
2.57906
2.59326
2.59851
2.60109
2.60243
2.60309
2.60339
2.60353
2.60359
2.60362
2.60362
2.6036
2.60352
2.60331
2.60285
2.60195
2.60027
2.59723
2.59135
2.57836
2.5794
2.59346
2.59872
2.60132
2.60265
2.60332
2.60362
2.60376
2.60381
2.60383
2.60384
2.60381
2.60372
2.6035
2.60301
2.60206
2.60032
2.59719
2.59118
2.57871
2.57975
2.59363
2.59888
2.60147
2.6028
2.60345
2.60375
2.60388
2.60393
2.60395
2.60396
2.60393
2.60384
2.60361
2.6031
2.60211
2.6003
2.59707
2.5909
2.57913
2.58013
2.59381
2.59902
2.60159
2.60291
2.60354
2.60383
2.60395
2.60401
2.60403
2.60404
2.60402
2.60393
2.60369
2.60318
2.60216
2.6003
2.59693
2.59053
2.57967
2.58057
2.59402
2.59919
2.60173
2.60301
2.60362
2.6039
2.60401
2.60406
2.60408
2.60409
2.60408
2.604
2.60379
2.60329
2.60228
2.60039
2.59688
2.59012
2.58048
2.58108
2.59427
2.59939
2.60187
2.60311
2.60369
2.60394
2.60404
2.60408
2.6041
2.60411
2.60411
2.60406
2.60388
2.60346
2.60257
2.60076
2.59713
2.59008
2.58222
2.58169
2.59459
2.59962
2.60203
2.6032
2.60373
2.60395
2.60402
2.60405
2.60406
2.60407
2.60408
2.60406
2.60397
2.60372
2.60312
2.60158
2.59799
2.59217
2.58788
2.58243
2.59497
2.59987
2.60217
2.60324
2.6037
2.60387
2.60392
2.60392
2.60391
2.60391
2.60392
2.60395
2.60399
2.60404
2.6038
2.60231
2.60089
2.60277
2.60241
2.58329
2.59541
2.6001
2.60221
2.60316
2.60354
2.60364
2.60364
2.60361
2.60357
2.60355
2.60357
2.60365
2.60389
2.60419
2.60398
2.60361
2.60972
2.61956
2.62151
2.58443
2.5958
2.60018
2.60208
2.60287
2.60313
2.60316
2.60312
2.60305
2.603
2.60298
2.60302
2.6032
2.60362
2.60394
2.60327
2.60319
2.61168
2.62577
2.63487
2.58525
2.59626
2.60015
2.60174
2.60235
2.60253
2.60255
2.60252
2.6025
2.6025
2.60256
2.60274
2.60315
2.60387
2.60432
2.60336
2.60124
2.6079
2.62632
2.64182
2.58716
2.5967
2.6005
2.6021
2.60281
2.60319
2.60347
2.60374
2.60403
2.60436
2.60474
2.60523
2.60592
2.60694
2.6079
2.60744
2.60511
2.60711
2.62467
2.64716
2.59124
2.60237
2.60814
2.61132
2.61319
2.61464
2.61596
2.61719
2.61835
2.61947
2.62055
2.62156
2.62247
2.62324
2.62372
2.62352
2.62264
2.62582
2.63278
2.65381
2.62869
2.64303
2.65254
2.65729
2.65986
2.66138
2.6623
2.66284
2.66314
2.66332
2.66345
2.66354
2.66364
2.66362
2.66356
2.66336
2.66346
2.66354
2.66557
2.66159
)
;

boundaryField
{
    movingWall
    {
        type            calculated;
        value           nonuniform List<scalar> 
20
(
2.62869
2.64303
2.65254
2.65729
2.65986
2.66138
2.6623
2.66284
2.66314
2.66332
2.66345
2.66354
2.66364
2.66362
2.66356
2.66336
2.66346
2.66354
2.66557
2.66159
)
;
    }
    fixedWalls
    {
        type            calculated;
        value           nonuniform List<scalar> 
60
(
2.5686
2.57284
2.57574
2.57731
2.57817
2.57869
2.57906
2.5794
2.57975
2.58013
2.58057
2.58108
2.58169
2.58243
2.58329
2.58443
2.58525
2.58716
2.59124
2.62869
2.56864
2.57284
2.57551
2.57687
2.57759
2.57802
2.57836
2.57871
2.57913
2.57967
2.58048
2.58222
2.58788
2.60241
2.62151
2.63487
2.64182
2.64716
2.65381
2.66159
2.5686
2.5728
2.57545
2.57681
2.5775
2.57787
2.5781
2.57827
2.57839
2.57849
2.57856
2.57861
2.57863
2.57859
2.57844
2.57808
2.57732
2.57578
2.57287
2.56864
)
;
    }
    frontAndBack
    {
        type            empty;
    }
}


// ************************************************************************* //
