/*--------------------------------*- C++ -*----------------------------------*\
| =========                 |                                                 |
| \\      /  F ield         | OpenFOAM: The Open Source CFD Toolbox           |
|  \\    /   O peration     | Version:  2312                                  |
|   \\  /    A nd           | Website:  www.openfoam.com                      |
|    \\/     M anipulation  |                                                 |
\*---------------------------------------------------------------------------*/
FoamFile
{
    version     2.0;
    format      ascii;
    arch        "LSB;label=32;scalar=64";
    class       volScalarField;
    location    "0.5";
    object      staticP;
}
// * * * * * * * * * * * * * * * * * * * * * * * * * * * * * * * * * * * * * //

dimensions      [1 -1 -2 0 0 0 0];

internalField   nonuniform List<scalar> 
400
(
1
1
1
1.00001
1.00002
1.00005
1.00009
1.00014
1.00019
1.00025
1.00032
1.00039
1.00047
1.00054
1.00061
1.00067
1.00072
1.00075
1.00076
1.00076
1.00001
1
1
1.00001
1.00003
1.00006
1.00009
1.00014
1.00019
1.00025
1.00032
1.00039
1.00046
1.00053
1.0006
1.00066
1.00071
1.00074
1.00076
1.00076
1
1
1
1.00001
1.00003
1.00005
1.00009
1.00013
1.00018
1.00024
1.00031
1.00038
1.00045
1.00053
1.0006
1.00066
1.00072
1.00076
1.00078
1.00077
1
1
1
1
1.00001
1.00003
1.00007
1.00011
1.00017
1.00023
1.00029
1.00037
1.00045
1.00053
1.00061
1.00068
1.00074
1.00079
1.00081
1.00081
1
1
1
1
1
1
1.00004
1.00008
1.00014
1.0002
1.00027
1.00035
1.00044
1.00053
1.00062
1.00071
1.00079
1.00084
1.00086
1.00086
1
1
1
1
1
1
1
1.00004
1.0001
1.00016
1.00024
1.00033
1.00043
1.00053
1.00064
1.00075
1.00084
1.00091
1.00094
1.00093
1
1
1
1
1
1
1
1
1.00004
1.00011
1.0002
1.00029
1.00041
1.00053
1.00066
1.0008
1.00091
1.001
1.00104
1.00104
1
1
1
1
1
1
1
1
1
1.00004
1.00013
1.00024
1.00037
1.00052
1.00068
1.00085
1.001
1.00112
1.00118
1.00117
1
1
1
1
1
1
1
1
1
1
1.00005
1.00017
1.00031
1.00048
1.00068
1.00089
1.00111
1.00127
1.00136
1.00135
1
1
1
1
1
1
1
1
1
1
1
1.00006
1.00022
1.00041
1.00065
1.00093
1.00122
1.00146
1.0016
1.00158
1
1
1
1
1
1
1
1
1
1
1
1
1.00007
1.00029
1.00057
1.00092
1.00133
1.0017
1.0019
1.00186
1
1
1
1
1
1
1
1
1
1
1
1
1
1.00008
1.00039
1.00083
1.0014
1.00199
1.0023
1.00217
1
1
1
1
1
1
1
1
1
1
1
1
1
1
1.00006
1.00057
1.00137
1.00238
1.00291
1.00252
1
1
1
1
1
1
1
1
1
1
1
1
1
1
1
1
1.00084
1.0023
1.00344
1.00279
1
1
1
1
1
1
1
1
1
1
1
1
1
1
1
1
1
1
1.00154
1.00239
1
1
1
1
1
1
1
1
1
1
1
1
1
1
1
1
1
1
1
1
1
1
1
1
1
1
1
1
1
1
1
1
1
1
1
1
1
1
1
1
1
1
1
1
1
1
1
1
1
1
1
1
1
1
1
1
1
1
1
1
1
1
1
1
1
1
1
1
1
1
1
1
1
1
1
1
1
1
1
1.00747
1.00061
1.00212
1.00116
1
1
1
1
1
1
1
1
1
1
1
1
1
1
1
1
1.05002
)
;

boundaryField
{
    movingWall
    {
        type            calculated;
        value           nonuniform List<scalar> 
20
(
1.00061
1.00212
1.00116
1
1
1
1
1
1
1
1
1
1
1
1
1
1
1
1
1.05002
)
;
    }
    fixedWalls
    {
        type            calculated;
        value           nonuniform List<scalar> 
60
(
1
1.00001
1
1
1
1
1
1
1
1
1
1
1
1
1
1
1
1
1
1.00061
1.00076
1.00076
1.00077
1.00081
1.00086
1.00093
1.00104
1.00117
1.00135
1.00158
1.00186
1.00217
1.00252
1.00279
1.00239
1
1
1
1.00747
1.05002
1
1
1
1.00001
1.00002
1.00005
1.00009
1.00014
1.00019
1.00025
1.00032
1.00039
1.00047
1.00054
1.00061
1.00067
1.00072
1.00075
1.00076
1.00076
)
;
    }
    frontAndBack
    {
        type            empty;
    }
}


// ************************************************************************* //
