/*--------------------------------*- C++ -*----------------------------------*\
| =========                 |                                                 |
| \\      /  F ield         | OpenFOAM: The Open Source CFD Toolbox           |
|  \\    /   O peration     | Version:  2312                                  |
|   \\  /    A nd           | Website:  www.openfoam.com                      |
|    \\/     M anipulation  |                                                 |
\*---------------------------------------------------------------------------*/
FoamFile
{
    version     2.0;
    format      ascii;
    arch        "LSB;label=32;scalar=64";
    class       pointScalarField;
    location    "0.5";
    object      streamFunc;
}
// * * * * * * * * * * * * * * * * * * * * * * * * * * * * * * * * * * * * * //

dimensions      [0 3 -1 0 0 0 0];

internalField   nonuniform List<scalar> 
882
(
0
0
0
0
0
0
0
0
0
0
0
0
0
0
0
0
0
0
0
0
0
0
-1.91249e-06
-5.54e-06
-9.93766e-06
-1.44047e-05
-1.85814e-05
-2.22979e-05
-2.54638e-05
-2.80131e-05
-2.98794e-05
-3.09878e-05
-3.12852e-05
-3.06774e-05
-2.91014e-05
-2.65106e-05
-2.29025e-05
-1.83577e-05
-1.31058e-05
-7.64209e-06
-2.87722e-06
0
0
-5.53645e-06
-1.35778e-05
-2.26045e-05
-3.16875e-05
-4.02575e-05
-4.79669e-05
-5.45858e-05
-5.99378e-05
-6.38629e-05
-6.6204e-05
-6.68121e-05
-6.55308e-05
-6.22383e-05
-5.68691e-05
-4.94606e-05
-4.02151e-05
-2.95816e-05
-1.83634e-05
-7.83678e-06
0
0
-1.0097e-05
-2.29371e-05
-3.66836e-05
-5.03819e-05
-6.33542e-05
-7.51084e-05
-8.52732e-05
-9.35465e-05
-9.96592e-05
-0.000103356
-0.000104392
-0.000102535
-9.76057e-05
-8.95181e-05
-7.83469e-05
-6.43997e-05
-4.82946e-05
-3.10322e-05
-1.40635e-05
0
0
-1.50884e-05
-3.30917e-05
-5.18231e-05
-7.03192e-05
-8.78421e-05
-0.000103791
-0.000117671
-0.000129056
-0.000137562
-0.000142827
-0.000144501
-0.000142258
-0.00013584
-0.000125113
-0.000110151
-9.13203e-05
-6.93538e-05
-4.54138e-05
-2.11671e-05
0
0
-2.03358e-05
-4.38815e-05
-6.79815e-05
-9.16161e-05
-0.000113993
-0.000134423
-0.000152305
-0.0001671
-0.000178313
-0.000185465
-0.000188092
-0.000185748
-0.000178056
-0.000164784
-0.00014594
-0.000121877
-9.33967e-05
-6.18387e-05
-2.9221e-05
0
0
-2.58459e-05
-5.53601e-05
-8.53013e-05
-0.000114535
-0.000142199
-0.000167525
-0.000189816
-0.000208438
-0.000222787
-0.000232272
-0.000236296
-0.000234265
-0.000225628
-0.000209978
-0.00018716
-0.000157414
-0.000121542
-8.10882e-05
-3.8604e-05
0
0
-3.17065e-05
-6.76948e-05
-0.000104036
-0.000139431
-0.000172922
-0.000203664
-0.000230882
-0.000253858
-0.0002719
-0.000284304
-0.000290332
-0.000289212
-0.000280151
-0.000262467
-0.000235697
-0.000199803
-0.000155452
-0.000104391
-4.99356e-05
0
0
-3.80401e-05
-8.11132e-05
-0.000124509
-0.000166713
-0.00020666
-0.000243425
-0.000276174
-0.000304132
-0.000326541
-0.000342604
-0.000351441
-0.000352095
-0.000343433
-0.000324386
-0.000293978
-0.000251611
-0.00019752
-0.000133546
-6.40882e-05
0
0
-4.49876e-05
-9.58844e-05
-0.00014709
-0.000196837
-0.000243932
-0.000287383
-0.000326324
-0.000359963
-0.000387517
-0.000408139
-0.000420836
-0.000424431
-0.000417459
-0.000398284
-0.000365138
-0.00031639
-0.000251226
-0.000171183
-8.22348e-05
0
0
-5.27141e-05
-0.000112326
-0.000172211
-0.000230303
-0.000285273
-0.000336089
-0.000381894
-0.000421938
-0.000455483
-0.000481699
-0.000499546
-0.00050768
-0.000504316
-0.000487127
-0.000453214
-0.000399143
-0.000321768
-0.000221216
-0.00010583
0
0
-6.14317e-05
-0.000130838
-0.000200393
-0.000267679
-0.000331245
-0.000390058
-0.000443343
-0.000490472
-0.000530845
-0.000563759
-0.00058826
-0.000602979
-0.000605957
-0.000594172
-0.000563319
-0.000507011
-0.000417111
-0.000289427
-0.000136272
0
0
-7.14431e-05
-0.000151962
-0.000232289
-0.000309621
-0.000382419
-0.000449731
-0.000510957
-0.000565697
-0.000613611
-0.000654272
-0.000687017
-0.000710755
-0.000723656
-0.00072252
-0.000701699
-0.000650592
-0.000550979
-0.000386361
-0.000175112
0
0
-8.32214e-05
-0.000176457
-0.000268725
-0.000356848
-0.000439309
-0.000515364
-0.000584712
-0.000647298
-0.000703164
-0.000752332
-0.000794706
-0.000829945
-0.000857149
-0.000874039
-0.000875444
-0.000847064
-0.000754088
-0.000547485
-0.000239127
0
0
-9.74708e-05
-0.000205326
-0.000310631
-0.000409996
-0.000502161
-0.000586781
-0.000663998
-0.000734202
-0.000797917
-0.000855752
-0.000908442
-0.000956986
-0.00100273
-0.0010469
-0.00108922
-0.00111932
-0.00107766
-0.00084493
-0.000387089
0
0
-0.000115388
-0.000239859
-0.000358815
-0.000469213
-0.000570455
-0.000662832
-0.000747057
-0.000824027
-0.000894768
-0.000960473
-0.00102279
-0.00108437
-0.00114991
-0.00122738
-0.00132792
-0.00144912
-0.00149755
-0.00127426
-0.000661363
0
0
-0.000137533
-0.000280596
-0.000412999
-0.000533097
-0.000641773
-0.000740165
-0.000829678
-0.00091177
-0.000987838
-0.00105941
-0.00112868
-0.00119931
-0.00127836
-0.00137892
-0.00152075
-0.00170218
-0.00182725
-0.00165528
-0.00099394
0
0
-0.00016877
-0.000329668
-0.000470878
-0.000596183
-0.000708808
-0.000810256
-0.000902339
-0.000986855
-0.00106536
-0.00113933
-0.00121071
-0.0012828
-0.00136192
-0.00145863
-0.00158987
-0.0017519
-0.00187219
-0.00174806
-0.00121376
0
0
-0.000204532
-0.000375012
-0.000515577
-0.000639311
-0.000749471
-0.000847117
-0.000934792
-0.00101489
-0.00108903
-0.00115834
-0.0012239
-0.00128733
-0.00135167
-0.00142281
-0.0015068
-0.00159636
-0.00165045
-0.00154652
-0.00120353
0
0
-0.00023628
-0.000398314
-0.000505695
-0.000592489
-0.000667241
-0.000732245
-0.000790169
-0.000843141
-0.000892269
-0.000938086
-0.000980937
-0.00102124
-0.00105974
-0.00109757
-0.00113584
-0.00116947
-0.00118704
-0.00112282
-0.00100586
0
0
0
0
0
0
0
0
0
0
0
0
0
0
0
0
0
0
0
0
0
0
0
0
0
0
0
0
0
0
0
0
0
0
0
0
0
0
0
0
0
0
0
0
-1.91249e-06
-5.54e-06
-9.93766e-06
-1.44047e-05
-1.85814e-05
-2.22979e-05
-2.54638e-05
-2.80131e-05
-2.98794e-05
-3.09878e-05
-3.12852e-05
-3.06774e-05
-2.91014e-05
-2.65106e-05
-2.29025e-05
-1.83577e-05
-1.31058e-05
-7.64209e-06
-2.87722e-06
0
0
-5.53645e-06
-1.35778e-05
-2.26045e-05
-3.16875e-05
-4.02575e-05
-4.79669e-05
-5.45858e-05
-5.99378e-05
-6.38629e-05
-6.6204e-05
-6.68121e-05
-6.55308e-05
-6.22383e-05
-5.68691e-05
-4.94606e-05
-4.02151e-05
-2.95816e-05
-1.83634e-05
-7.83678e-06
0
0
-1.0097e-05
-2.29371e-05
-3.66836e-05
-5.03819e-05
-6.33542e-05
-7.51084e-05
-8.52732e-05
-9.35465e-05
-9.96592e-05
-0.000103356
-0.000104392
-0.000102535
-9.76057e-05
-8.95181e-05
-7.83469e-05
-6.43997e-05
-4.82946e-05
-3.10322e-05
-1.40635e-05
0
0
-1.50884e-05
-3.30917e-05
-5.18231e-05
-7.03192e-05
-8.78421e-05
-0.000103791
-0.000117671
-0.000129056
-0.000137562
-0.000142827
-0.000144501
-0.000142258
-0.00013584
-0.000125113
-0.000110151
-9.13203e-05
-6.93538e-05
-4.54138e-05
-2.11671e-05
0
0
-2.03358e-05
-4.38815e-05
-6.79815e-05
-9.16161e-05
-0.000113993
-0.000134423
-0.000152305
-0.0001671
-0.000178313
-0.000185465
-0.000188092
-0.000185748
-0.000178056
-0.000164784
-0.00014594
-0.000121877
-9.33967e-05
-6.18387e-05
-2.9221e-05
0
0
-2.58459e-05
-5.53601e-05
-8.53013e-05
-0.000114535
-0.000142199
-0.000167525
-0.000189816
-0.000208438
-0.000222787
-0.000232272
-0.000236296
-0.000234265
-0.000225628
-0.000209978
-0.00018716
-0.000157414
-0.000121542
-8.10882e-05
-3.8604e-05
0
0
-3.17065e-05
-6.76948e-05
-0.000104036
-0.000139431
-0.000172922
-0.000203664
-0.000230882
-0.000253858
-0.0002719
-0.000284304
-0.000290332
-0.000289212
-0.000280151
-0.000262467
-0.000235697
-0.000199803
-0.000155452
-0.000104391
-4.99356e-05
0
0
-3.80401e-05
-8.11132e-05
-0.000124509
-0.000166713
-0.00020666
-0.000243425
-0.000276174
-0.000304132
-0.000326541
-0.000342604
-0.000351441
-0.000352095
-0.000343433
-0.000324386
-0.000293978
-0.000251611
-0.00019752
-0.000133546
-6.40882e-05
0
0
-4.49876e-05
-9.58844e-05
-0.00014709
-0.000196837
-0.000243932
-0.000287383
-0.000326324
-0.000359963
-0.000387517
-0.000408139
-0.000420836
-0.000424431
-0.000417459
-0.000398284
-0.000365138
-0.00031639
-0.000251226
-0.000171183
-8.22348e-05
0
0
-5.27141e-05
-0.000112326
-0.000172211
-0.000230303
-0.000285273
-0.000336089
-0.000381894
-0.000421938
-0.000455483
-0.000481699
-0.000499546
-0.00050768
-0.000504316
-0.000487127
-0.000453214
-0.000399143
-0.000321768
-0.000221216
-0.00010583
0
0
-6.14317e-05
-0.000130838
-0.000200393
-0.000267679
-0.000331245
-0.000390058
-0.000443343
-0.000490472
-0.000530845
-0.000563759
-0.00058826
-0.000602979
-0.000605957
-0.000594172
-0.000563319
-0.000507011
-0.000417111
-0.000289427
-0.000136272
0
0
-7.14431e-05
-0.000151962
-0.000232289
-0.000309621
-0.000382419
-0.000449731
-0.000510957
-0.000565697
-0.000613611
-0.000654272
-0.000687017
-0.000710755
-0.000723656
-0.00072252
-0.000701699
-0.000650592
-0.000550979
-0.000386361
-0.000175112
0
0
-8.32214e-05
-0.000176457
-0.000268725
-0.000356848
-0.000439309
-0.000515364
-0.000584712
-0.000647298
-0.000703164
-0.000752332
-0.000794706
-0.000829945
-0.000857149
-0.000874039
-0.000875444
-0.000847064
-0.000754088
-0.000547485
-0.000239127
0
0
-9.74708e-05
-0.000205326
-0.000310631
-0.000409996
-0.000502161
-0.000586781
-0.000663998
-0.000734202
-0.000797917
-0.000855752
-0.000908442
-0.000956986
-0.00100273
-0.0010469
-0.00108922
-0.00111932
-0.00107766
-0.00084493
-0.000387089
0
0
-0.000115388
-0.000239859
-0.000358815
-0.000469213
-0.000570455
-0.000662832
-0.000747057
-0.000824027
-0.000894768
-0.000960473
-0.00102279
-0.00108437
-0.00114991
-0.00122738
-0.00132792
-0.00144912
-0.00149755
-0.00127426
-0.000661363
0
0
-0.000137533
-0.000280596
-0.000412999
-0.000533097
-0.000641773
-0.000740165
-0.000829678
-0.00091177
-0.000987838
-0.00105941
-0.00112868
-0.00119931
-0.00127836
-0.00137892
-0.00152075
-0.00170218
-0.00182725
-0.00165528
-0.00099394
0
0
-0.00016877
-0.000329668
-0.000470878
-0.000596183
-0.000708808
-0.000810256
-0.000902339
-0.000986855
-0.00106536
-0.00113933
-0.00121071
-0.0012828
-0.00136192
-0.00145863
-0.00158987
-0.0017519
-0.00187219
-0.00174806
-0.00121376
0
0
-0.000204532
-0.000375012
-0.000515577
-0.000639311
-0.000749471
-0.000847117
-0.000934792
-0.00101489
-0.00108903
-0.00115834
-0.0012239
-0.00128733
-0.00135167
-0.00142281
-0.0015068
-0.00159636
-0.00165045
-0.00154652
-0.00120353
0
0
-0.00023628
-0.000398314
-0.000505695
-0.000592489
-0.000667241
-0.000732245
-0.000790169
-0.000843141
-0.000892269
-0.000938086
-0.000980937
-0.00102124
-0.00105974
-0.00109757
-0.00113584
-0.00116947
-0.00118704
-0.00112282
-0.00100586
0
0
0
0
0
0
0
0
0
0
0
0
0
0
0
0
0
0
0
0
0
0
)
;

boundaryField
{
    movingWall
    {
        type            calculated;
    }
    fixedWalls
    {
        type            calculated;
    }
    frontAndBack
    {
        type            empty;
    }
}


// ************************************************************************* //
