/*--------------------------------*- C++ -*----------------------------------*\
| =========                 |                                                 |
| \\      /  F ield         | OpenFOAM: The Open Source CFD Toolbox           |
|  \\    /   O peration     | Version:  2312                                  |
|   \\  /    A nd           | Website:  www.openfoam.com                      |
|    \\/     M anipulation  |                                                 |
\*---------------------------------------------------------------------------*/
FoamFile
{
    version     2.0;
    format      ascii;
    arch        "LSB;label=32;scalar=64";
    class       surfaceScalarField;
    location    "0.5";
    object      surfaceDivU;
}
// * * * * * * * * * * * * * * * * * * * * * * * * * * * * * * * * * * * * * //

dimensions      [0 0 -1 0 0 0 0];

internalField   nonuniform List<scalar> 
760
(
0.00740272
-0.00706961
0.0119045
0.00759204
0.0102845
-0.000409521
0.0109997
0.000712206
0.0098564
0.000750263
0.0085811
0.000711945
0.0071575
0.000707686
0.0054627
0.000682569
0.00373991
0.000603549
0.0020825
0.000825915
-0.000151953
0.000711662
-0.00255224
0.000486973
-0.00491186
0.000487526
-0.00757074
0.000125794
-0.0102328
-0.000312315
-0.012791
-0.000844964
-0.0133299
-0.00146642
-0.0159268
-0.00128115
-0.00959993
-0.0104012
0.00865818
-0.00688029
-0.0118328
-0.00472196
0.00554025
-0.00998186
-0.00497984
-0.00953727
-0.00623533
-0.00839419
-0.00547364
-0.00716147
-0.00469751
-0.00576724
-0.00390902
-0.00417658
-0.00300104
-0.00231045
-0.00196165
-0.000544925
-0.000689844
0.00135059
0.000283383
0.00352673
0.00164981
0.00552518
0.00290469
0.00738422
0.00407487
0.00907548
0.00511597
0.0104796
0.00611604
0.0105823
0.0067359
0.00424443
0.00446737
0.00785693
-0.00778299
0.0140323
0.000587773
-0.0112356
0.00528237
0.0113659
-0.00123331
0.00113749
-0.0021717
-0.00129394
-0.00177696
-0.000932972
-0.00144506
-0.000616472
-0.00114283
-0.00046575
-0.000786119
-0.000298546
-0.00034105
-8.63383e-05
0.000138464
0.000190971
0.00058261
0.00042219
0.00102777
0.000639031
0.00145439
0.000843755
0.00180662
0.000974585
0.00215653
0.00104322
0.00237231
0.00124903
0.00062093
0.00109506
-0.00756006
-0.00277277
-0.00160764
-0.0153086
0.0127949
-0.000457541
-0.013261
0.00722099
0.012355
0.00107685
0.00244672
-5.52136e-05
-0.000282738
0.000227513
2.13852e-06
0.000362838
0.000299008
0.000378531
0.000359048
0.000401235
0.000386176
0.000445683
0.00042813
0.000474697
0.000484457
0.000478612
0.00050944
0.000455012
0.000546461
0.000363952
0.000543273
0.000211183
0.000485166
0.000135715
0.000407864
-2.8219e-05
0.000507027
-0.00229864
1.03126e-05
-0.0105213
-0.00465605
-0.000906096
-0.017715
0.0155785
-0.00044847
-0.0139078
0.00758075
0.0130307
0.00108712
0.00258216
-0.000225386
-0.000423391
7.36328e-05
-0.000256052
0.000295218
9.88136e-05
0.000366694
0.00022326
0.000413071
0.000302021
0.000466905
0.000385757
0.000519201
0.000482902
0.00057729
0.00057702
0.000634723
0.00072087
0.000664488
0.000850336
0.000681846
0.000986237
0.000779176
0.00112136
0.000545559
0.00133906
-0.0023471
0.000403047
-0.0118498
-0.00542811
-0.00123039
-0.0205327
0.0174922
-0.000428599
-0.0148747
0.0080321
0.0139819
0.00107165
0.00277688
-0.000454057
-0.000460594
-0.000230872
-0.000469708
2.68557e-05
-0.000121989
0.000158587
3.26809e-05
0.000274706
0.00015411
0.000401754
0.000295518
0.000540721
0.00045872
0.0007206
0.000606158
0.000936483
0.000808131
0.00117209
0.00121714
0.00142575
0.00165721
0.00168125
0.00208415
0.00119655
0.00244106
-0.00267796
0.000818095
-0.0141111
-0.00671974
-0.00181009
-0.0249907
0.0206028
-0.000464251
-0.0162393
0.00872664
0.0152261
0.00124464
0.00306858
-0.000476244
-0.000396054
-0.000360825
-0.00057345
-0.000116164
-0.000261351
2.8203e-05
-0.000110804
0.000174921
2.14638e-05
0.000352484
0.000192845
0.000524158
0.000422817
0.000693689
0.000575771
0.00108879
0.000764076
0.00170227
0.00159722
0.00231561
0.0024966
0.00284397
0.00343758
0.00206261
0.00422031
-0.00322368
0.00178477
-0.0175994
-0.00842415
-0.00257778
-0.0320773
0.025622
-0.000549013
-0.0179318
0.00956801
0.0167885
0.00142788
0.00340427
-0.00049326
-0.000358053
-0.000473975
-0.000693988
-0.000255991
-0.000413977
-0.000117543
-0.000284203
3.93882e-05
-0.000163533
0.000263178
1.28909e-06
0.00047443
0.000238135
0.000646158
0.000537719
0.0012725
0.00101465
0.00239155
0.00203131
0.00361857
0.0034612
0.00481392
0.00548619
0.00394247
0.00759915
-0.0034157
0.00444493
-0.022902
-0.00996254
-0.0038775
-0.0432627
0.0343746
-0.000594257
-0.0198836
0.0106248
0.0187823
0.00161834
0.00382179
-0.000558781
-0.000362453
-0.000633989
-0.000866285
-0.000442189
-0.000612183
-0.000330193
-0.000509328
-0.000201632
-0.000428236
-2.3754e-05
-0.000312522
0.000301423
-0.000123376
0.000906208
0.000333334
0.00177345
0.00108614
0.00310096
0.00203108
0.00532882
0.00429942
0.00827142
0.00840926
0.00810161
0.0138162
-0.0021019
0.0103308
-0.0303231
-0.0117876
-0.0050106
-0.0628665
0.0548557
-0.000506983
-0.0219607
0.0119793
0.0213569
0.001841
0.00436479
-0.000669957
-0.00042502
-0.000844479
-0.00110944
-0.000679322
-0.000858209
-0.000607372
-0.000781487
-0.000539126
-0.000760283
-0.000412144
-0.000744069
-9.14663e-05
-0.000656668
0.000513263
-0.000291121
0.00134376
0.000262899
0.00322954
0.00116617
0.00737985
0.00427261
0.0139541
0.0116172
0.0160454
0.024498
0.000645118
0.023104
-0.044331
-0.0188442
-0.00300027
-0.11965
0.0841916
-9.68203e-05
-0.0245104
0.0137423
0.0246442
0.00209877
0.00505638
-0.000864499
-0.000590462
-0.00112317
-0.00144516
-0.000960374
-0.00113597
-0.000934398
-0.00105558
-0.000965225
-0.00111454
-0.000988592
-0.001261
-0.000856323
-0.00145936
-0.000541485
-0.00152806
8.53118e-05
-0.00119121
0.00220925
-9.64073e-05
0.00851001
0.00190125
0.0221612
0.010712
0.0315566
0.0440557
0.00361462
0.0780862
-0.0941635
0.0325208
-0.0324583
-0.172907
0.109749
0.000230599
-0.0253603
0.0159582
0.0294438
0.00236716
0.00624499
-0.00117113
-0.000828801
-0.00145797
-0.00182425
-0.00123117
-0.00138546
-0.00123572
-0.00128239
-0.00141032
-0.00143529
-0.00173176
-0.00178367
-0.00213109
-0.00240351
-0.00217778
-0.0032814
-0.00137292
-0.00373329
-0.000404404
-0.00257197
0.00410328
-0.00369427
0.0326065
5.61214e-05
0.0905852
0.0819167
0.106992
0.246957
-0.0462223
0.245355
-0.0306989
-0.0522619
0.296729
0.00385287
-0.0355944
0.0197305
0.0333043
0.00304903
0.0062423
-0.00148192
-0.00232314
-0.00175174
-0.00301541
-0.00143668
-0.0022429
-0.00148196
-0.00205066
-0.00180865
-0.00220034
-0.00245542
-0.00261943
-0.00355382
-0.00358691
-0.00483691
-0.00560364
-0.00493234
-0.00890224
-0.00586184
-0.0101142
-0.00774142
-0.012608
0.0493663
-0.0316406
0.238289
0.0430977
0.38532
0.269121
0.239316
0.198704
0.275166
-0.318729
0.72224
-0.00614297
-0.0202872
0.0198161
0.0440946
0.000870135
0.00648753
-0.00385663
-0.0068675
-0.00350657
-0.0067095
-0.00285688
-0.00472646
-0.00276904
-0.00339082
-0.00301112
-0.00283875
-0.00375092
-0.00280184
-0.00563673
-0.00363946
-0.00966897
-0.00680804
-0.0140841
-0.015238
-0.0168604
-0.0214187
-0.0365072
-0.0214568
-0.0379092
-0.12929
0.0739297
-0.246161
0.0825044
-0.11586
-0.359341
-0.374579
0.128345
-1.5435
0.451716
0.0299504
-0.148327
0.0307661
-0.0252059
-0.0012501
-0.0396518
-0.00972038
-0.0333032
-0.00792939
-0.0194155
-0.0052604
-0.0107102
-0.00346053
-0.00656138
-0.00262947
-0.00484835
-0.00269038
-0.00361358
-0.00481076
-0.0030588
-0.0123771
-0.00406665
-0.0225726
-0.0120505
-0.0260152
-0.0111555
-0.11424
0.0272602
-0.337542
-0.12651
-0.435951
-0.647384
-0.572943
-0.28149
-1.55873
0.151008
-1.22013
-1.32179
-1.19209
-0.203483
0.251814
-0.0956238
0.33977
-0.071705
0.2232
-0.0429984
0.133395
-0.0221963
0.0972186
-0.0120111
0.0696692
-0.00794921
0.051481
-0.00583247
0.0401091
-0.003982
0.0323926
-0.00231468
0.027981
-0.0037401
0.0260467
-0.000633445
0.0227292
0.0421198
0.0407637
0.0149901
0.141027
-0.436352
0.129676
-0.492923
-0.576905
0.442461
0.256571
0.387949
1.3911
-1.29376
1.87633
-2.64222
0.795068
-0.672273
0.658595
-0.626505
0.428301
-0.521106
0.273612
-0.358219
0.189084
-0.254687
0.133161
-0.200359
0.0995393
-0.159513
0.0783342
-0.127804
0.0643556
-0.105285
0.0563424
-0.0866447
0.052516
-0.0682121
0.0641264
-0.0520557
0.139671
-0.0131446
0.255713
0.0869547
-0.0108769
0.213753
0.17259
-0.423512
1.20521
0.688307
2.87948
0.412898
0.527872
3.27784
-1.10423
-2.09385
0.544406
-1.80621
0.64793
-1.30763
0.313423
-0.886519
0.190771
-0.644131
0.171929
-0.493034
0.132459
-0.386856
0.107414
-0.311423
0.0890144
-0.256285
0.0775475
-0.211199
0.0730083
-0.172784
0.0733576
-0.129327
0.0692786
-0.0658609
0.0744248
0.0449946
0.0446133
-0.198882
0.0780425
0.0922052
-0.706624
-0.104009
0.806665
0.811249
-2.25089
1.64573
3.19161
3.52546
3.28618
1.21266
2.76756
-0.00842214
1.81182
0.735199
1.24922
0.502431
0.948519
0.272613
0.732907
0.187094
0.583284
0.164838
0.477985
0.139889
0.406841
0.117058
0.357565
0.103326
0.31542
0.0961739
0.27303
0.0855334
0.184899
0.0802917
0.0776612
-0.0111187
-0.4297
0.000582585
0.00783532
-0.82237
-1.34022
1.20845
0.129472
-5.64885
5.07134
10.3583
-5.91828
-2.08195
-2.04078
-0.57419
-0.474175
-0.488813
-0.380975
-0.278557
-0.221038
-0.186457
-0.158065
-0.133713
-0.107205
-0.115726
-0.0881973
-0.392087
0.378248
-3.10018
4.58002
-0.631286
)
;

boundaryField
{
    movingWall
    {
        type            calculated;
        value           nonuniform List<scalar> 
20
(
-0.814238
-3.34966
-0.731905
-0.416474
-0.531876
-0.44575
-0.3162
-0.240915
-0.201162
-0.171752
-0.144378
-0.123048
-0.0913622
-0.14009
-0.036305
-0.74787
1.50437
-7.70472
16.8648
-18.1273
)
;
    }
    fixedWalls
    {
        type            calculated;
        value           nonuniform List<scalar> 
60
(
4.48816e-05
-0.0141841
-0.00948145
-0.0129898
-0.0135322
-0.0142833
-0.0154661
-0.0170125
-0.018851
-0.0209161
-0.0230053
-0.0260156
-0.0247051
-0.0464837
0.00590941
-0.302563
0.806191
-2.15074
3.23955
-0.814238
4.93404e-06
0.0173114
0.0107531
0.0148366
0.0163205
0.018664
0.0225417
0.0287023
0.0400468
0.0696645
0.0987187
0.12078
0.472678
0.971803
-0.0683718
-2.31581
-2.96862
0.760163
6.29076
-18.1273
4.48816e-05
0.0147606
0.00904838
0.0115207
0.0104788
0.00923403
0.00792818
0.00638681
0.00453858
0.00294124
0.00122376
-0.00152767
-0.0035768
-0.00624691
-0.00889458
-0.0115709
-0.0140111
-0.0126487
-0.0192048
4.93404e-06
)
;
    }
    frontAndBack
    {
        type            empty;
        value           nonuniform List<scalar> 0();
    }
}


// ************************************************************************* //
