/*--------------------------------*- C++ -*----------------------------------*\
| =========                 |                                                 |
| \\      /  F ield         | OpenFOAM: The Open Source CFD Toolbox           |
|  \\    /   O peration     | Version:  2312                                  |
|   \\  /    A nd           | Website:  www.openfoam.com                      |
|    \\/     M anipulation  |                                                 |
\*---------------------------------------------------------------------------*/
FoamFile
{
    version     2.0;
    format      ascii;
    arch        "LSB;label=32;scalar=64";
    class       surfaceScalarField;
    location    "0.5";
    object      surfaceP;
}
// * * * * * * * * * * * * * * * * * * * * * * * * * * * * * * * * * * * * * //

dimensions      [0 2 -2 0 0 0 0];

internalField   nonuniform List<scalar> 
760
(
1.22073e-08
2.83433e-06
0
0
2.65595e-06
8.0487e-07
1.46751e-05
8.90805e-06
3.81101e-05
2.78105e-05
7.08758e-05
5.56146e-05
0.000112671
9.22759e-05
0.000162965
0.000137492
0.000220952
0.00019073
0.000285611
0.000251145
0.000355596
0.000317726
0.000428791
0.000388786
0.000502478
0.000461972
0.000573442
0.000534492
0.000637867
0.000602878
0.000691745
0.000663276
0.000731556
0.000711869
0.000755352
0.00074546
0.000762713
0.000762174
0.000761459
2.82212e-06
4.28556e-06
8.0487e-07
0
7.05697e-06
8.0487e-07
2.20435e-05
9.56215e-06
4.5315e-05
2.88723e-05
7.70148e-05
5.63029e-05
0.000117097
9.19705e-05
0.000165257
0.000135807
0.000220923
0.000187506
0.000283261
0.000246476
0.000350916
0.00031183
0.000421967
0.000381975
0.000493985
0.00045489
0.000563928
0.000527888
0.000628286
0.000597682
0.0006834
0.000660581
0.000725774
0.000712769
0.000752282
0.000750267
0.000760919
0.000768946
0.0007676
1.46344e-06
1.46344e-06
0
0
3.31005e-06
0
1.6391e-05
3.31005e-06
3.98602e-05
1.62931e-05
7.12587e-05
4.376e-05
0.000110681
7.92758e-05
0.000158056
0.000122926
0.000213059
0.000174641
0.000275046
0.000234096
0.000342889
0.000300603
0.000414898
0.000372884
0.000488792
0.000449085
0.000561642
0.000526617
0.000629977
0.00060215
0.00068995
0.00067169
0.000737262
0.00073065
0.000766931
0.000773391
0.000775627
0.000793505
0.000790065
0
0
0
0
0
0
3.21221e-06
0
2.01929e-05
3.21221e-06
5.17771e-05
1.78293e-05
9.15208e-05
5.36765e-05
0.000139511
9.80428e-05
0.000195678
0.000151083
0.000259653
0.000212777
0.000330598
0.000282753
0.000407071
0.000360073
0.00048691
0.00044311
0.000567124
0.000529313
0.000643863
0.000615075
0.000712391
0.000695623
0.000766779
0.000764859
0.000799965
0.00081481
0.000807943
0.000836991
0.000831236
0
0
0
0
0
0
0
0
8.48624e-07
0
1.97288e-05
8.48624e-07
6.01985e-05
1.88801e-05
0.000109614
6.11649e-05
0.000168181
0.000116211
0.000235876
0.000181253
0.000312228
0.000256352
0.000396113
0.000341011
0.000485513
0.00043396
0.000577264
0.000532722
0.000666835
0.000633314
0.000748091
0.000729841
0.000812889
0.000814092
0.000851836
0.000875022
0.000860284
0.000901695
0.00089447
0
0
0
0
0
0
0
0
0
0
0
0
1.98465e-05
0
6.77616e-05
1.98465e-05
0.000129283
6.867e-05
0.000201729
0.000137446
0.000285135
0.000218586
0.000378859
0.000312231
0.000481169
0.000417747
0.000588772
0.000532932
0.00069632
0.000653533
0.000795842
0.000772368
0.000876225
0.000878436
0.000924881
0.000956356
0.000935881
0.000991366
0.000983674
0
0
0
0
0
0
0
0
0
0
0
0
0
0
2.07548e-05
0
7.6833e-05
2.07548e-05
0.000154303
7.84178e-05
0.000245682
0.00016562
0.00035112
0.000269066
0.00046951
0.000389226
0.000597693
0.000524643
0.000729581
0.000671239
0.000854961
0.000820661
0.000958567
0.000958354
0.00102284
0.00106242
0.00103916
0.00111142
0.00110403
0
0
0
0
0
0
0
0
0
0
0
0
0
0
0
0
2.23397e-05
0
8.97341e-05
2.23397e-05
0.000189003
9.2516e-05
0.000307172
0.000205438
0.000444359
0.00034113
0.000598188
0.000500066
0.000762318
0.000679306
0.000924053
0.000870077
0.00106221
0.00105369
0.001151
0.00119809
0.0011763
0.00126965
0.00126222
0
0
0
0
0
0
0
0
0
0
0
0
0
0
0
0
0
0
2.51216e-05
0
0.000108951
2.51216e-05
0.000239396
0.000113166
0.000396836
0.000263358
0.000581184
0.000447573
0.000787065
0.000665946
0.000999709
0.000911507
0.00118957
0.00116188
0.00131674
0.00136943
0.00135557
0.00147729
0.00146586
0
0
0
0
0
0
0
0
0
0
0
0
0
0
0
0
0
0
0
0
2.93364e-05
0
0.000137128
2.93364e-05
0.000314095
0.000142423
0.000532336
0.000349935
0.000790388
0.000611413
0.00107368
0.000926635
0.00134174
0.00127351
0.00152998
0.0015818
0.00158758
0.00174776
0.00172014
0
0
0
0
0
0
0
0
0
0
0
0
0
0
0
0
0
0
0
0
0
0
3.46312e-05
0
0.000178263
3.46312e-05
0.000429012
0.00018246
0.00074766
0.000482751
0.00112647
0.000879445
0.00151357
0.00136568
0.00179958
0.0018449
0.00188032
0.00210045
0.0020175
0
0
0
0
0
0
0
0
0
0
0
0
0
0
0
0
0
0
0
0
0
0
0
0
3.88287e-05
0
0.000236199
3.88287e-05
0.000614536
0.000227481
0.00111866
0.000702471
0.00169701
0.00138576
0.00214577
0.00218429
0.00223764
0.00260532
0.0023452
0
0
0
0
0
0
0
0
0
0
0
0
0
0
0
0
0
0
0
0
0
0
0
0
0
0
3.01101e-05
0
0.000315415
3.01101e-05
0.000969568
0.000285305
0.00187304
0.00110344
0.00264385
0.00233884
0.00271289
0.0031729
0.00265259
0
0
0
0
0
0
0
0
0
0
0
0
0
0
0
0
0
0
0
0
0
0
0
0
0
0
0
0
0
0
0.000419176
0
0.00156923
0.000419176
0.00286788
0.00115006
0.0031126
0.00248709
0.00258933
0
0
0
0
0
0
0
0
0
0
0
0
0
0
0
0
0
0
0
0
0
0
0
0
0
0
0
0
0
0
0
0
0
0
0.000769268
0
0.00196383
0.000769268
0.00119456
0
0
0
0
0
0
0
0
0
0
0
0
0
0
0
0
0
0
0
0
0
0
0
0
0
0
0
0
0
0
0
0
0
0
0
0
0
0
0
0
0
0
0
0
0
0
0
0
0
0
0
0
0
0
0
0
0
0
0
0
0
0
0
0
0
0
0
0
0
0
0
0
0
0
0
0
0
0
0
0
0
0
0
0
0
0
0
0
0
0
0
0
0
0
0
0
0
0
0
0
0
0
0
0
0
0
0
0
0
0
0
0
0
0
0
0
0.00373716
0
0.000306471
0
0.00105827
0
0.000581651
0
0
0
0
0
0
0
0
0
0
0
0
0
0
0
0
0
0
0
0
0
0
0
0
0
0
0
0
0
0
0.00373716
0
0.0287475
0.00136474
0.00163992
0.000581651
0
0
0
0
0
0
0
0
0
0
0
0
0
0
0
0.0250104
)
;

boundaryField
{
    movingWall
    {
        type            calculated;
        value           nonuniform List<scalar> 
20
(
0.000612942
0.00211654
0.0011633
0
0
0
0
0
0
0
0
0
0
0
0
0
0
0
0
0.0500208
)
;
    }
    fixedWalls
    {
        type            calculated;
        value           nonuniform List<scalar> 
60
(
2.44146e-08
5.64424e-06
2.92688e-06
0
0
0
0
0
0
0
0
0
0
0
0
0
0
0
0
0.000612942
0.000762285
0.000760632
0.000774569
0.000805561
0.00085691
0.00093203
0.00103532
0.00117275
0.00135168
0.00158004
0.00186024
0.00217476
0.00251563
0.00278955
0.00238912
0
0
0
0.00747433
0.0500208
2.44146e-08
0
0
5.31189e-06
2.40383e-05
5.21819e-05
8.95697e-05
0.000135772
0.000190157
0.000251746
0.000319475
0.000391717
0.000465865
0.000539091
0.000607793
0.000667941
0.000715548
0.000747564
0.000763141
0.000762285
)
;
    }
    frontAndBack
    {
        type            empty;
        value           nonuniform List<scalar> 0();
    }
}


// ************************************************************************* //
