/*--------------------------------*- C++ -*----------------------------------*\
| =========                 |                                                 |
| \\      /  F ield         | OpenFOAM: The Open Source CFD Toolbox           |
|  \\    /   O peration     | Version:  2312                                  |
|   \\  /    A nd           | Website:  www.openfoam.com                      |
|    \\/     M anipulation  |                                                 |
\*---------------------------------------------------------------------------*/
FoamFile
{
    version     2.0;
    format      ascii;
    arch        "LSB;label=32;scalar=64";
    class       surfaceVectorField;
    location    "0.5";
    object      surfaceU;
}
// * * * * * * * * * * * * * * * * * * * * * * * * * * * * * * * * * * * * * //

dimensions      [0 1 -1 0 0 0 0];

internalField   nonuniform List<vector> 
760
(
(-0.000415485 0.000271442 0)
(-0.000269919 0.00041571 0)
(-0.00110998 0.000447802 0)
(-0.000913188 0.000768295 0)
(-0.00199235 0.000511765 0)
(-0.00180171 0.000927618 0)
(-0.00287852 0.000497574 0)
(-0.00272191 0.000943772 0)
(-0.00371024 0.000449349 0)
(-0.00361278 0.00088411 0)
(-0.00445176 0.000388125 0)
(-0.00443184 0.000787688 0)
(-0.00508341 0.000320309 0)
(-0.0051519 0.000671291 0)
(-0.00559184 0.000246252 0)
(-0.00575319 0.000540366 0)
(-0.00596413 0.000164318 0)
(-0.00621997 0.000394986 0)
(-0.00618324 7.76241e-05 0)
(-0.00653628 0.000233819 0)
(-0.00623849 -1.77413e-05 0)
(-0.00668331 6.13687e-05 0)
(-0.00611535 -0.00012437 0)
(-0.00665265 -0.000130781 0)
(-0.00579713 -0.000237237 0)
(-0.00642368 -0.000336106 0)
(-0.00527761 -0.000354656 0)
(-0.00598959 -0.000550757 0)
(-0.00455688 -0.000469929 0)
(-0.00534765 -0.000765202 0)
(-0.00365318 -0.000568411 0)
(-0.00450898 -0.000961552 0)
(-0.00261509 -0.000619272 0)
(-0.00350449 -0.00110815 0)
(-0.00152833 -0.000568419 0)
(-0.00239489 -0.00115 0)
(-0.000618744 -0.000378075 0)
(-0.00127253 -0.00100561 0)
(-0.000390912 -0.000618719 0)
(-0.000767622 0.000912563 0)
(-0.000456436 0.00111241 0)
(-0.00160492 0.00124811 0)
(-0.0012745 0.00160771 0)
(-0.00253127 0.00135962 0)
(-0.00219989 0.00180462 0)
(-0.00345616 0.00133031 0)
(-0.00314117 0.00181819 0)
(-0.00433438 0.00122245 0)
(-0.00405241 0.00171744 0)
(-0.00513198 0.00107085 0)
(-0.00490118 0.00154624 0)
(-0.00582168 0.000891348 0)
(-0.0056587 0.00132842 0)
(-0.00638132 0.0006891 0)
(-0.00629945 0.0010749 0)
(-0.00679213 0.000464487 0)
(-0.0068019 0.000789132 0)
(-0.00703635 0.000217564 0)
(-0.00714688 0.000471594 0)
(-0.00709746 -5.16712e-05 0)
(-0.00731584 0.00012348 0)
(-0.00696097 -0.000342517 0)
(-0.00729246 -0.000254762 0)
(-0.00661613 -0.000649626 0)
(-0.00706289 -0.000658187 0)
(-0.00605963 -0.000961303 0)
(-0.00661893 -0.00107477 0)
(-0.00529975 -0.00125683 0)
(-0.00596176 -0.00148373 0)
(-0.00436029 -0.00150129 0)
(-0.00510582 -0.00185161 0)
(-0.00328429 -0.00163887 0)
(-0.00407998 -0.00212876 0)
(-0.00213908 -0.00158719 0)
(-0.00293184 -0.00224477 0)
(-0.0010447 -0.00124626 0)
(-0.00173568 -0.00210799 0)
(-0.000617042 -0.00157686 0)
(-0.000963314 0.00180756 0)
(-0.000552976 0.00202832 0)
(-0.00186947 0.00216423 0)
(-0.00146803 0.00256715 0)
(-0.0028098 0.00226318 0)
(-0.00243281 0.00274449 0)
(-0.00373743 0.00220532 0)
(-0.00339731 0.00273394 0)
(-0.00461921 0.00204123 0)
(-0.00432475 0.00258938 0)
(-0.0054279 0.00180381 0)
(-0.00519157 0.002347 0)
(-0.00613647 0.00151198 0)
(-0.00597285 0.00203047 0)
(-0.00672003 0.00117494 0)
(-0.00664288 0.00165356 0)
(-0.00715665 0.000796239 0)
(-0.00717818 0.0012228 0)
(-0.00742637 0.00037751 0)
(-0.00755745 0.000740861 0)
(-0.00751084 -7.9611e-05 0)
(-0.00776038 0.00020979 0)
(-0.00739438 -0.000570432 0)
(-0.00776829 -0.000367232 0)
(-0.00706569 -0.00108333 0)
(-0.00756524 -0.000980593 0)
(-0.00652107 -0.00159719 0)
(-0.00714026 -0.00161114 0)
(-0.00576783 -0.00207851 0)
(-0.00649118 -0.00222715 0)
(-0.00482551 -0.00247908 0)
(-0.00562706 -0.00278218 0)
(-0.00372753 -0.00273466 0)
(-0.00456828 -0.00321478 0)
(-0.00252844 -0.00276557 0)
(-0.00335266 -0.00344962 0)
(-0.00130803 -0.00243859 0)
(-0.00204912 -0.00339824 0)
(-0.000754537 -0.00283112 0)
(-0.0010577 0.00278791 0)
(-0.000592501 0.00302107 0)
(-0.00203138 0.00314742 0)
(-0.00158091 0.0036012 0)
(-0.00302032 0.00321525 0)
(-0.0026118 0.00374527 0)
(-0.00398463 0.003118 0)
(-0.00363256 0.00369719 0)
(-0.0048971 0.00289515 0)
(-0.00460781 0.00350237 0)
(-0.00573652 0.00257367 0)
(-0.00551855 0.00318817 0)
(-0.00647925 0.00217205 0)
(-0.00634437 0.00277507 0)
(-0.00710104 0.00170142 0)
(-0.00706187 0.00227726 0)
(-0.00757898 0.00116742 0)
(-0.00764794 0.00170284 0)
(-0.00789145 0.000573141 0)
(-0.00808035 0.0010557 0)
(-0.00801782 -7.78316e-05 0)
(-0.00833697 0.000338546 0)
(-0.00793915 -0.000777393 0)
(-0.00839592 -0.000443508 0)
(-0.00763981 -0.0015084 0)
(-0.00823617 -0.00127778 0)
(-0.00711037 -0.00224109 0)
(-0.00783976 -0.00213908 0)
(-0.0063504 -0.00293082 0)
(-0.00719515 -0.0029865 0)
(-0.00536983 -0.00351788 0)
(-0.00629987 -0.00376202 0)
(-0.00419342 -0.00392974 0)
(-0.00516284 -0.0043922 0)
(-0.00287335 -0.00408229 0)
(-0.00381725 -0.00479166 0)
(-0.00149563 -0.00379077 0)
(-0.00234012 -0.0048592 0)
(-0.000854453 -0.00425257 0)
(-0.00111572 0.00383436 0)
(-0.00061661 0.00406912 0)
(-0.00216133 0.00419906 0)
(-0.0016738 0.00471 0)
(-0.00322404 0.00422721 0)
(-0.00278895 0.00482061 0)
(-0.00425574 0.00408155 0)
(-0.00389188 0.00472713 0)
(-0.00522926 0.00379539 0)
(-0.00494369 0.00447539 0)
(-0.0061264 0.00338958 0)
(-0.00592577 0.00408655 0)
(-0.00692698 0.00288028 0)
(-0.00682097 0.00357738 0)
(-0.00760877 0.00227868 0)
(-0.00760883 0.00296099 0)
(-0.00814931 0.00159111 0)
(-0.00826794 0.00224556 0)
(-0.00852586 0.000821101 0)
(-0.00877624 0.00143473 0)
(-0.00871507 -2.71303e-05 0)
(-0.00911002 0.000530462 0)
(-0.00869295 -0.000943897 0)
(-0.00924345 -0.000462565 0)
(-0.00843612 -0.00190847 0)
(-0.00914808 -0.00153133 0)
(-0.00792454 -0.00288449 0)
(-0.00879476 -0.00264731 0)
(-0.00714462 -0.00381769 0)
(-0.00815706 -0.00376296 0)
(-0.00609288 -0.00463635 0)
(-0.00721482 -0.00480942 0)
(-0.00478666 -0.00525413 0)
(-0.00596132 -0.0056973 0)
(-0.00328402 -0.00556857 0)
(-0.0044271 -0.00631889 0)
(-0.00169895 -0.005321 0)
(-0.00270631 -0.00653818 0)
(-0.000973629 -0.00586991 0)
(-0.00117469 0.00494475 0)
(-0.000646244 0.0051724 0)
(-0.00230141 0.00533155 0)
(-0.00178024 0.00590385 0)
(-0.00345679 0.00532053 0)
(-0.00299564 0.00598918 0)
(-0.00457983 0.00512097 0)
(-0.00420147 0.0058477 0)
(-0.00564021 0.00476655 0)
(-0.00535324 0.0055337 0)
(-0.00662034 0.00427434 0)
(-0.00643048 0.00506644 0)
(-0.00750281 0.00365809 0)
(-0.00741815 0.00446036 0)
(-0.00826799 0.00292787 0)
(-0.00829902 0.00372725 0)
(-0.00889487 0.00208918 0)
(-0.00905451 0.00287411 0)
(-0.0093604 0.0011441 0)
(-0.00966394 0.00190261 0)
(-0.0096384 9.5028e-05 0)
(-0.0101029 0.000811525 0)
(-0.00969858 -0.00104999 0)
(-0.0103415 -0.000398248 0)
(-0.00950672 -0.00227016 0)
(-0.0103424 -0.00171796 0)
(-0.00902728 -0.00352577 0)
(-0.0100611 -0.00312024 0)
(-0.00822726 -0.00475469 0)
(-0.0094502 -0.00455522 0)
(-0.00708326 -0.00587038 0)
(-0.00846261 -0.00594436 0)
(-0.00560176 -0.00676207 0)
(-0.00706573 -0.0071759 0)
(-0.00384939 -0.0072885 0)
(-0.00528156 -0.00810096 0)
(-0.00198099 -0.00708709 0)
(-0.00322584 -0.008518 0)
(-0.00114785 -0.00775758 0)
(-0.0012518 0.00613149 0)
(-0.00068938 0.00634686 0)
(-0.00247448 0.00656148 0)
(-0.00191701 0.00719922 0)
(-0.00374032 0.00651635 0)
(-0.00325034 0.0072696 0)
(-0.00497488 0.00626042 0)
(-0.00457792 0.00708012 0)
(-0.00614352 0.00583359 0)
(-0.00584911 0.00669971 0)
(-0.00722829 0.00525246 0)
(-0.00704093 0.00615023 0)
(-0.00821436 0.00452952 0)
(-0.00814039 0.00544624 0)
(-0.00908554 0.00367349 0)
(-0.00913431 0.00459889 0)
(-0.00982358 0.00268754 0)
(-0.0100085 0.00361343 0)
(-0.0104064 0.00157004 0)
(-0.0107457 0.00248767 0)
(-0.010806 0.000318249 0)
(-0.0113224 0.00121408 0)
(-0.0109853 -0.00106622 0)
(-0.0117067 -0.000214972 0)
(-0.0108968 -0.00256804 0)
(-0.0118516 -0.00179952 0)
(-0.0104841 -0.00414969 0)
(-0.0116942 -0.00352289 0)
(-0.00968555 -0.0057449 0)
(-0.0111583 -0.00534064 0)
(-0.00844507 -0.00724988 0)
(-0.0101554 -0.00716949 0)
(-0.00674553 -0.00851479 0)
(-0.00860519 -0.00887017 0)
(-0.00465801 -0.00933045 0)
(-0.00650098 -0.010226 0)
(-0.0023927 -0.00918848 0)
(-0.0039783 -0.0109218 0)
(-0.00140334 -0.0100376 0)
(-0.00135459 0.00741459 0)
(-0.000748946 0.00761639 0)
(-0.00269287 0.00790734 0)
(-0.00209294 0.00861707 0)
(-0.00408794 0.00783338 0)
(-0.00356485 0.00868078 0)
(-0.00545216 0.0075194 0)
(-0.00503266 0.00844251 0)
(-0.00674653 0.00701636 0)
(-0.00643946 0.00799097 0)
(-0.00795303 0.00634402 0)
(-0.00776031 0.0073551 0)
(-0.00906034 0.00551562 0)
(-0.00898545 0.00655263 0)
(-0.0100573 0.00453884 0)
(-0.0101077 0.00559561 0)
(-0.0109307 0.00341356 0)
(-0.0111197 0.00448746 0)
(-0.0116617 0.00213171 0)
(-0.0120108 0.0032207 0)
(-0.0122232 0.000680863 0)
(-0.0127625 0.0017783 0)
(-0.0125731 -0.000948275 0)
(-0.0133426 0.000138615 0)
(-0.012649 -0.00275437 0)
(-0.0136988 -0.00171456 0)
(-0.0123684 -0.00471385 0)
(-0.0137501 -0.00378861 0)
(-0.0116281 -0.00676523 0)
(-0.013382 -0.00605962 0)
(-0.0103155 -0.00878978 0)
(-0.0124429 -0.00845526 0)
(-0.00836064 -0.0105814 0)
(-0.0107623 -0.0108125 0)
(-0.00582126 -0.0118173 0)
(-0.00825729 -0.0128121 0)
(-0.00298894 -0.0117709 0)
(-0.00506395 -0.0139364 0)
(-0.00176401 -0.012883 0)
(-0.0014873 0.00881887 0)
(-0.000827019 0.00900943 0)
(-0.00296492 0.0093905 0)
(-0.00231536 0.010183 0)
(-0.00450957 0.00928991 0)
(-0.00395001 0.0102434 0)
(-0.00601997 0.00891408 0)
(-0.00557637 0.00995115 0)
(-0.00745325 0.00832972 0)
(-0.00713124 0.00942042 0)
(-0.00879274 0.00756371 0)
(-0.00858925 0.00869209 0)
(-0.0100328 0.00663263 0)
(-0.00994638 0.00779074 0)
(-0.01117 0.00554423 0)
(-0.0112043 0.00673147 0)
(-0.0121998 0.0042946 0)
(-0.0123664 0.00551663 0)
(-0.0131116 0.00286729 0)
(-0.0134335 0.00413283 0)
(-0.0138819 0.00123605 0)
(-0.0143976 0.00255127 0)
(-0.0144684 -0.000627666 0)
(-0.0152334 0.000731516 0)
(-0.0147998 -0.00274879 0)
(-0.0158918 -0.0013718 0)
(-0.0147637 -0.00513438 0)
(-0.0162798 -0.00380504 0)
(-0.0141968 -0.00774965 0)
(-0.0162407 -0.00659297 0)
(-0.0128896 -0.010478 0)
(-0.0155309 -0.00971324 0)
(-0.010659 -0.0130432 0)
(-0.0138139 -0.0130113 0)
(-0.00749998 -0.0149312 0)
(-0.0108178 -0.0160239 0)
(-0.00383902 -0.0150485 0)
(-0.00661621 -0.0178477 0)
(-0.00224315 -0.0165218 0)
(-0.00165508 0.0103736 0)
(-0.000927581 0.0105599 0)
(-0.00330044 0.0110359 0)
(-0.00259536 0.0119279 0)
(-0.0050168 0.0109046 0)
(-0.00442087 0.01198 0)
(-0.00668763 0.0104575 0)
(-0.00622314 0.0116201 0)
(-0.00826723 0.00978279 0)
(-0.00793289 0.0109952 0)
(-0.00974289 0.00891912 0)
(-0.00952721 0.0101641 0)
(-0.0111179 0.00788959 0)
(-0.0110116 0.00916257 0)
(-0.0124007 0.00670387 0)
(-0.0124009 0.00801139 0)
(-0.0136001 0.00535486 0)
(-0.0137138 0.00671356 0)
(-0.0147195 0.00381681 0)
(-0.0149682 0.00525061 0)
(-0.0157491 0.00204673 0)
(-0.0161751 0.00358153 0)
(-0.0166568 -1.26172e-05 0)
(-0.01733 0.00164366 0)
(-0.0173718 -0.00242805 0)
(-0.0184029 -0.000647836 0)
(-0.0177568 -0.00526363 0)
(-0.0193077 -0.00339669 0)
(-0.0175748 -0.00855656 0)
(-0.0198597 -0.00672448 0)
(-0.0164552 -0.0122466 0)
(-0.0197004 -0.0107439 0)
(-0.0139728 -0.015992 0)
(-0.018193 -0.0154222 0)
(-0.00993407 -0.0189405 0)
(-0.0146114 -0.0201277 0)
(-0.00502033 -0.019321 0)
(-0.00879529 -0.0231398 0)
(-0.00277763 -0.0211938 0)
(-0.00186786 0.0121142 0)
(-0.00105934 0.0123128 0)
(-0.00371579 0.012872 0)
(-0.00295314 0.0138899 0)
(-0.00562721 0.0126955 0)
(-0.00500144 0.0139148 0)
(-0.00746839 0.0121578 0)
(-0.00699306 0.0134589 0)
(-0.00919286 0.0113765 0)
(-0.00885462 0.0127134 0)
(-0.0107959 0.0104076 0)
(-0.0105707 0.0117622 0)
(-0.0122946 0.00928437 0)
(-0.0121619 0.0106566 0)
(-0.0137139 0.00802109 0)
(-0.013661 0.00942601 0)
(-0.0150818 0.00660932 0)
(-0.0151067 0.00807652 0)
(-0.0164238 0.00501532 0)
(-0.0165402 0.00658763 0)
(-0.017756 0.00317846 0)
(-0.0180019 0.00491011 0)
(-0.0190761 0.00100844 0)
(-0.0195262 0.00296197 0)
(-0.0203389 -0.00161648 0)
(-0.0211298 0.000617625 0)
(-0.0214106 -0.00485755 0)
(-0.0227807 -0.00230557 0)
(-0.0219853 -0.00891178 0)
(-0.0243306 -0.00608412 0)
(-0.0214383 -0.0139195 0)
(-0.0253323 -0.0111349 0)
(-0.0188316 -0.0195578 0)
(-0.0246465 -0.0178693 0)
(-0.0134726 -0.024327 0)
(-0.0204939 -0.0256101 0)
(-0.00655259 -0.0250126 0)
(-0.0120269 -0.0308779 0)
(-0.00305631 -0.0272528 0)
(-0.00214462 0.0140884 0)
(-0.00124016 0.0143273 0)
(-0.00423879 0.0149326 0)
(-0.00342495 0.0161164 0)
(-0.00636729 0.0146782 0)
(-0.0057272 0.0160705 0)
(-0.00837929 0.0140145 0)
(-0.00791013 0.0154674 0)
(-0.0102324 0.0130991 0)
(-0.00990228 0.0145584 0)
(-0.0119366 0.0120112 0)
(-0.0117047 0.01346 0)
(-0.0135282 0.0107982 0)
(-0.0133604 0.0122423 0)
(-0.0150537 0.00948144 0)
(-0.0149245 0.010945 0)
(-0.0165651 0.00805484 0)
(-0.0164584 0.00958019 0)
(-0.0181184 0.00648242 0)
(-0.0180303 0.00813128 0)
(-0.0197722 0.00469363 0)
(-0.0197188 0.0065523 0)
(-0.02158 0.00257115 0)
(-0.0216186 0.00475961 0)
(-0.0235716 -7.14673e-05 0)
(-0.023838 0.00260563 0)
(-0.0257007 -0.00353215 0)
(-0.0264818 -0.0001769 0)
(-0.0276776 -0.00830725 0)
(-0.0296125 -0.00406578 0)
(-0.0285405 -0.0150847 0)
(-0.0329457 -0.00998736 0)
(-0.0263088 -0.0239216 0)
(-0.034745 -0.0194797 0)
(-0.0190482 -0.0321611 0)
(-0.0312155 -0.0324221 0)
(-0.00853059 -0.0331181 0)
(-0.0192685 -0.0423064 0)
(-0.00355167 -0.0351795 0)
(-0.00252049 0.0163553 0)
(-0.00150201 0.0167243 0)
(-0.00491337 0.0172543 0)
(-0.00406126 0.0186713 0)
(-0.00727003 0.0168597 0)
(-0.00663786 0.0184624 0)
(-0.00943312 0.0160112 0)
(-0.00898774 0.0176257 0)
(-0.0113745 0.0149193 0)
(-0.0110583 0.0164897 0)
(-0.0131285 0.0136911 0)
(-0.0128818 0.0152065 0)
(-0.0147567 0.0123891 0)
(-0.0145316 0.0138636 0)
(-0.0163292 0.0110438 0)
(-0.0160872 0.0125097 0)
(-0.0179236 0.00965663 0)
(-0.0176309 0.0111644 0)
(-0.0196307 0.00820116 0)
(-0.0192552 0.00982397 0)
(-0.0215652 0.00661828 0)
(-0.0210768 0.00846562 0)
(-0.0238767 0.00479409 0)
(-0.0232645 0.0070439 0)
(-0.0267483 0.0025002 0)
(-0.0260736 0.00545512 0)
(-0.0303936 -0.000710528 0)
(-0.0298628 0.0034319 0)
(-0.0348806 -0.00574588 0)
(-0.0352021 0.000380331 0)
(-0.0391502 -0.0143824 0)
(-0.0428153 -0.0051832 0)
(-0.0396517 -0.0279803 0)
(-0.0509414 -0.0171299 0)
(-0.0314358 -0.0425674 0)
(-0.0520864 -0.0386331 0)
(-0.0142895 -0.0443677 0)
(-0.0369138 -0.0590644 0)
(-0.00966069 -0.0471056 0)
(-0.00304279 0.0190403 0)
(-0.00190591 0.0195346 0)
(-0.00578576 0.0198795 0)
(-0.00494307 0.0215853 0)
(-0.00835557 0.0192284 0)
(-0.00775767 0.0210594 0)
(-0.010613 0.0181042 0)
(-0.0101945 0.0198646 0)
(-0.0125656 0.0167769 0)
(-0.0122406 0.0184223 0)
(-0.0142849 0.015379 0)
(-0.0139787 0.0169109 0)
(-0.0158622 0.0139841 0)
(-0.0155178 0.0154272 0)
(-0.0173889 0.0126303 0)
(-0.01696 0.0140223 0)
(-0.0189625 0.0113318 0)
(-0.0184 0.0127219 0)
(-0.0207012 0.0100884 0)
(-0.0199397 0.0115413 0)
(-0.0227761 0.00889124 0)
(-0.0217141 0.0105056 0)
(-0.0254614 0.00770493 0)
(-0.0239466 0.00966744 0)
(-0.0291882 0.00638682 0)
(-0.0270419 0.00910283 0)
(-0.0346713 0.00452276 0)
(-0.0316405 0.00882546 0)
(-0.0431367 0.000943013 0)
(-0.0390106 0.00857028 0)
(-0.0546065 -0.00793069 0)
(-0.0521414 0.00618295 0)
(-0.0633761 -0.0277828 0)
(-0.0696306 -0.00751738 0)
(-0.0575644 -0.0551301 0)
(-0.0777378 -0.0444627 0)
(-0.0322849 -0.0618023 0)
(-0.0624138 -0.0879194 0)
(-0.0262668 -0.0745315 0)
(-0.00380619 0.0220797 0)
(-0.00244954 0.0233704 0)
(-0.00691498 0.0227652 0)
(-0.0060427 0.0249641 0)
(-0.00959656 0.0216956 0)
(-0.00900686 0.0237787 0)
(-0.0118221 0.0201827 0)
(-0.011364 0.0220399 0)
(-0.0136536 0.0185562 0)
(-0.0132106 0.0202068 0)
(-0.0152115 0.0169591 0)
(-0.0147018 0.0184365 0)
(-0.0166156 0.0154654 0)
(-0.015977 0.016811 0)
(-0.017971 0.014114 0)
(-0.0171656 0.0153634 0)
(-0.0193772 0.0129314 0)
(-0.0183571 0.0141161 0)
(-0.0209526 0.0119584 0)
(-0.0196335 0.0131017 0)
(-0.0228846 0.0112818 0)
(-0.021098 0.0124044 0)
(-0.025527 0.0110653 0)
(-0.0229417 0.0122194 0)
(-0.0294943 0.0115415 0)
(-0.0255613 0.0129349 0)
(-0.0359798 0.012873 0)
(-0.0295583 0.015186 0)
(-0.0480152 0.0138102 0)
(-0.0361165 0.0195883 0)
(-0.0671655 0.00659627 0)
(-0.049627 0.0229753 0)
(-0.0839923 -0.0241973 0)
(-0.0709214 0.00730793 0)
(-0.0825872 -0.077252 0)
(-0.0822897 -0.0495957 0)
(-0.0563957 -0.100649 0)
(-0.0744344 -0.12597 0)
(-0.0431735 -0.131269 0)
(-0.00468605 0.0262548 0)
(-0.0035262 0.0265436 0)
(-0.00813458 0.0259775 0)
(-0.00765148 0.0278906 0)
(-0.0107743 0.024123 0)
(-0.0102265 0.0259842 0)
(-0.0127526 0.022064 0)
(-0.0120324 0.0237353 0)
(-0.0142588 0.0200871 0)
(-0.0133329 0.0215659 0)
(-0.0154673 0.0182884 0)
(-0.0143336 0.0195702 0)
(-0.016527 0.016709 0)
(-0.0151568 0.0178253 0)
(-0.0175517 0.0153656 0)
(-0.0159096 0.0163539 0)
(-0.0186134 0.0142864 0)
(-0.0166613 0.0151537 0)
(-0.0197788 0.0135477 0)
(-0.0174487 0.0142515 0)
(-0.0211551 0.0133419 0)
(-0.0182814 0.0137732 0)
(-0.022976 0.0140889 0)
(-0.0192035 0.0140103 0)
(-0.0256253 0.0165794 0)
(-0.0203258 0.0156079 0)
(-0.029695 0.0219013 0)
(-0.0216816 0.0196533 0)
(-0.0377284 0.0287533 0)
(-0.0231322 0.0273739 0)
(-0.0533829 0.0236869 0)
(-0.027092 0.034514 0)
(-0.0692187 -0.0180905 0)
(-0.0384142 0.0223304 0)
(-0.0741369 -0.0983141 0)
(-0.0425729 -0.0394395 0)
(-0.0612122 -0.156591 0)
(-0.0530129 -0.140254 0)
(-0.0439576 -0.20406 0)
(-0.00649163 0.0281794 0)
(-0.00485383 0.0370662 0)
(-0.00974338 0.0278973 0)
(-0.00873012 0.035062 0)
(-0.0114846 0.0255965 0)
(-0.00998911 0.0303916 0)
(-0.0126127 0.0232372 0)
(-0.0104999 0.0264803 0)
(-0.0134077 0.021049 0)
(-0.0107524 0.0234802 0)
(-0.0140231 0.0191071 0)
(-0.0107708 0.0209571 0)
(-0.0145395 0.0174702 0)
(-0.0106224 0.0189018 0)
(-0.0150193 0.0161421 0)
(-0.0104161 0.017269 0)
(-0.0154966 0.0151188 0)
(-0.0102127 0.0159791 0)
(-0.0159512 0.014477 0)
(-0.0100019 0.0150016 0)
(-0.0163298 0.0144415 0)
(-0.00969746 0.0144197 0)
(-0.0165533 0.0155292 0)
(-0.0091544 0.014491 0)
(-0.016382 0.0186817 0)
(-0.00815979 0.0158206 0)
(-0.0151187 0.0251259 0)
(-0.00599969 0.0194027 0)
(-0.0124958 0.0331346 0)
(-0.00152997 0.0262955 0)
(-0.0121233 0.0331574 0)
(0.00643753 0.0324882 0)
(-0.0117683 0.000981291 0)
(0.00960168 0.0253545 0)
(-0.0214489 -0.081379 0)
(0.0226945 -0.0210859 0)
(-0.0357583 -0.187723 0)
(-0.00833688 -0.105822 0)
(-0.0235665 -0.254662 0)
(-0.00709232 0.0439488 0)
(-0.00578105 0.0334048 0)
(-0.00897586 0.0375564 0)
(-0.0079881 0.0267608 0)
(-0.00900443 0.0312754 0)
(-0.00510106 0.0225429 0)
(-0.00863958 0.0267233 0)
(-0.0017088 0.0209164 0)
(-0.00811555 0.0233883 0)
(0.00218806 0.0192899 0)
(-0.00737012 0.0207518 0)
(0.00595693 0.0174366 0)
(-0.00649904 0.0187006 0)
(0.00952851 0.0158755 0)
(-0.00560958 0.0171061 0)
(0.0128295 0.0146662 0)
(-0.00471806 0.0158619 0)
(0.0158757 0.0136867 0)
(-0.00374818 0.0149443 0)
(0.0187501 0.0128698 0)
(-0.00252206 0.0144692 0)
(0.0215831 0.0122435 0)
(-0.000760855 0.0147824 0)
(0.0245897 0.011952 0)
(0.00222255 0.0165415 0)
(0.0280723 0.0123217 0)
(0.00758907 0.0205722 0)
(0.0329342 0.013893 0)
(0.0174034 0.0256491 0)
(0.039908 0.0170742 0)
(0.0281625 0.0246853 0)
(0.051943 0.0191472 0)
(0.0440645 0.00328728 0)
(0.0581425 0.0129564 0)
(0.0358066 -0.0455293 0)
(0.0817847 -0.017372 0)
(0.00385489 -0.172761 0)
(0.0262063 -0.0612141 0)
(0.0303716 -0.247006 0)
(-0.00667682 0.0162168 0)
(0.0173367 0.0562794 0)
(-0.0041133 0.0117473 0)
(0.0281947 0.0408613 0)
(0.00219458 0.012184 0)
(0.0440133 0.0272466 0)
(0.00911885 0.0134831 0)
(0.0580896 0.0210988 0)
(0.0162605 0.0133383 0)
(0.069954 0.0175338 0)
(0.0228556 0.0125603 0)
(0.0801057 0.0149413 0)
(0.0288571 0.0118411 0)
(0.0892616 0.0131034 0)
(0.0343148 0.0112468 0)
(0.0976296 0.011812 0)
(0.0393439 0.0106945 0)
(0.105327 0.010834 0)
(0.0440815 0.010169 0)
(0.112487 0.0100242 0)
(0.0486949 0.00972633 0)
(0.11923 0.00931374 0)
(0.0534228 0.00949134 0)
(0.125692 0.00869467 0)
(0.058784 0.00967319 0)
(0.132037 0.00822027 0)
(0.0652531 0.010395 0)
(0.138817 0.00801311 0)
(0.0744476 0.0105723 0)
(0.145819 0.00806708 0)
(0.0819231 0.0074183 0)
(0.155897 0.00718741 0)
(0.0958627 -0.00770288 0)
(0.156742 0.0035795 0)
(0.0721844 -0.0330569 0)
(0.180938 -0.0116587 0)
(0.052723 -0.135459 0)
(0.0828819 -0.022493 0)
(0.223307 -0.162829 0)
(0.0522082 0.0809239 0)
(0.0763213 0.0563606 0)
(0.0999083 0.0361614 0)
(0.118925 0.0251495 0)
(0.133799 0.0191368 0)
(0.146512 0.0154844 0)
(0.158034 0.0130742 0)
(0.168641 0.0113991 0)
(0.17847 0.0101637 0)
(0.187635 0.00916897 0)
(0.196227 0.00828209 0)
(0.204306 0.0074236 0)
(0.21207 0.0065602 0)
(0.219382 0.00568517 0)
(0.227268 0.00468216 0)
(0.230716 0.00334861 0)
(0.241817 -0.000376311 0)
(0.191635 -0.00109488 0)
(0.253466 -0.049863 0)
)
;

boundaryField
{
    movingWall
    {
        type            calculated;
        value           uniform (1 0 0);
    }
    fixedWalls
    {
        type            calculated;
        value           uniform (0 0 0);
    }
    frontAndBack
    {
        type            empty;
        value           nonuniform List<vector> 0();
    }
}


// ************************************************************************* //
