/*--------------------------------*- C++ -*----------------------------------*\
| =========                 |                                                 |
| \\      /  F ield         | OpenFOAM: The Open Source CFD Toolbox           |
|  \\    /   O peration     | Version:  2312                                  |
|   \\  /    A nd           | Website:  www.openfoam.com                      |
|    \\/     M anipulation  |                                                 |
\*---------------------------------------------------------------------------*/
FoamFile
{
    version     2.0;
    format      ascii;
    arch        "LSB;label=32;scalar=64";
    class       surfaceScalarField;
    location    "0.5";
    object      surfaceK;
}
// * * * * * * * * * * * * * * * * * * * * * * * * * * * * * * * * * * * * * //

dimensions      [0 2 -2 0 0 0 0];

internalField   nonuniform List<scalar> 
760
(
0.000401856
0.000402378
0.000483877
0.000626383
0.000537625
0.00075
0.000566937
0.000815412
0.000582677
0.00084881
0.0005918
0.000865937
0.000597845
0.000875506
0.000602338
0.000881875
0.000605801
0.000886921
0.000608376
0.000891268
0.000610272
0.000894997
0.000611339
0.000897972
0.000610927
0.000899501
0.000607945
0.000898627
0.000600127
0.000892281
0.000583173
0.000874936
0.000549732
0.00083689
0.000489468
0.000762428
0.000403164
0.000626017
0.000402823
0.000626906
0.000488459
0.000892506
0.000901595
0.00102779
0.00110578
0.00109729
0.00121286
0.00113207
0.00126752
0.00114964
0.00129457
0.00115954
0.00130826
0.00116646
0.00131621
0.00117239
0.00132206
0.00117789
0.00132722
0.0011827
0.00133196
0.00118613
0.00133576
0.0011872
0.00133764
0.00118296
0.00133559
0.00116709
0.00132432
0.00112865
0.00129473
0.00104958
0.00123167
0.000898976
0.00111088
0.000625676
0.00088817
0.000485263
0.000763148
0.000549096
0.00111487
0.00105321
0.00129085
0.00129887
0.00138309
0.00142994
0.00143002
0.00149848
0.00145318
0.00153263
0.00146494
0.00154927
0.00147182
0.00155786
0.0014769
0.00156322
0.00148129
0.00156742
0.00148502
0.00157105
0.00148726
0.00157361
0.00148602
0.00157381
0.00147695
0.00156837
0.00145196
0.0015509
0.00139775
0.00151065
0.00129297
0.00143059
0.00110008
0.00128366
0.000747757
0.00101911
0.000539408
0.000839158
0.00058456
0.00123721
0.00113533
0.00143796
0.00140577
0.00154533
0.00155241
0.00160109
0.00163062
0.00162872
0.00167008
0.0016422
0.00168907
0.00164926
0.00169827
0.00165374
0.00170328
0.00165718
0.00170668
0.00165964
0.00170921
0.00166016
0.0017104
0.00165616
0.00170858
0.00164232
0.00169976
0.00160959
0.00167681
0.00154349
0.00162807
0.00142128
0.00153562
0.00120269
0.00137139
0.000810758
0.00108219
0.000569318
0.000880734
0.000605477
0.00130389
0.001179
0.00152021
0.00146425
0.0016377
0.00162086
0.00169961
0.0017055
0.00173043
0.00174856
0.00174515
0.00176913
0.00175229
0.00177867
0.00175622
0.00178335
0.00175872
0.00178604
0.00175997
0.00178758
0.00175882
0.00178755
0.00175219
0.00178387
0.00173426
0.00177216
0.00169529
0.00174474
0.0016202
0.00168943
0.00148573
0.00158795
0.00125089
0.00141197
0.000840748
0.00110792
0.00058629
0.000903741
0.000619355
0.00133935
0.00120221
0.0015649
0.00149568
0.00168867
0.00165817
0.00175445
0.00174662
0.00178725
0.00179177
0.00180266
0.0018132
0.00180974
0.00182284
0.00181318
0.0018272
0.0018149
0.00182932
0.00181515
0.00183013
0.0018126
0.00182916
0.00180384
0.00182405
0.00178264
0.0018101
0.00173888
0.00177925
0.00165718
0.00171899
0.00151419
0.00161094
0.00126901
0.00142691
0.000853461
0.00111409
0.000597972
0.000917822
0.0006306
0.00135854
0.00121566
0.00158895
0.00151317
0.00171612
0.00167861
0.00178395
0.00176891
0.00181772
0.00181496
0.00183338
0.00183666
0.0018403
0.0018462
0.00184334
0.00185029
0.00184455
0.00185204
0.00184414
0.00185246
0.0018406
0.0018509
0.00183031
0.00184486
0.0018067
0.00182936
0.00175935
0.00179599
0.00167274
0.00173196
0.00152366
0.00161884
0.001272
0.00142882
0.000858606
0.00110998
0.000608629
0.000928441
0.000641554
0.0013703
0.00122536
0.00160284
0.00152446
0.00173141
0.00169096
0.00179993
0.0017817
0.0018339
0.00182776
0.00184948
0.00184928
0.00185619
0.00185859
0.00185899
0.00186249
0.00185995
0.00186407
0.00185923
0.00186438
0.00185517
0.00186264
0.00184392
0.00185617
0.00181865
0.00183973
0.0017686
0.00180456
0.00167806
0.00173754
0.001524
0.00161998
0.0012668
0.00142418
0.000860001
0.00109927
0.000620621
0.000938472
0.000653442
0.00137952
0.00123444
0.00161258
0.00153383
0.00174125
0.00170018
0.00180954
0.0017904
0.00184315
0.00183582
0.0018584
0.00185679
0.00186489
0.00186575
0.00186757
0.00186949
0.0018685
0.00187108
0.00186779
0.00187148
0.00186364
0.00186991
0.00185198
0.0018635
0.00182564
0.00184674
0.0017735
0.00181051
0.00167946
0.0017412
0.00152017
0.00161943
0.00125666
0.00141659
0.000859891
0.00108357
0.000635942
0.000949415
0.000667022
0.00138875
0.00124459
0.00162143
0.00154355
0.00174933
0.00170892
0.00181668
0.00179781
0.00184946
0.001842
0.00186415
0.00186207
0.00187035
0.00187049
0.00187299
0.00187402
0.00187406
0.00187567
0.00187361
0.00187631
0.00186978
0.00187522
0.00185827
0.00186938
0.00183161
0.00185315
0.0017782
0.00181714
0.00168117
0.00174717
0.00151586
0.00162228
0.00124351
0.00141102
0.000859624
0.00106494
0.000657899
0.000962197
0.000682967
0.00139939
0.00125686
0.00163104
0.00155485
0.0017574
0.00171839
0.00182314
0.00180507
0.00185461
0.00184734
0.00186842
0.00186602
0.00187416
0.00187357
0.0018767
0.00187668
0.00187793
0.00187829
0.00187792
0.00187916
0.00187482
0.00187873
0.00186426
0.00187409
0.00183867
0.00185983
0.0017861
0.00182692
0.00168828
0.00176097
0.00151744
0.0016374
0.00123245
0.00141676
0.000863217
0.0010543
0.000701182
0.000977635
0.000702085
0.00141233
0.00127217
0.0016422
0.00156834
0.00176606
0.00172877
0.00182928
0.00181195
0.00185875
0.00185129
0.00187117
0.00186784
0.00187609
0.00187406
0.00187827
0.00187639
0.00187951
0.00187759
0.00187997
0.00187849
0.00187801
0.00187872
0.00186967
0.00187604
0.00184809
0.0018663
0.00180179
0.00184224
0.00171008
0.00179
0.00153673
0.00167646
0.00123861
0.00144949
0.000892263
0.00110391
0.000842782
0.000996624
0.0007256
0.00142819
0.0012912
0.00165491
0.00158379
0.00177466
0.00173878
0.00183396
0.0018165
0.00186038
0.00185164
0.00187073
0.00186534
0.00187436
0.0018696
0.00187571
0.00187054
0.00187657
0.00187072
0.00187724
0.00187112
0.00187675
0.00187178
0.00187268
0.00187197
0.00186045
0.00187034
0.00183045
0.00186315
0.00175638
0.00183338
0.00158922
0.00172812
0.00131479
0.00156626
0.00105443
0.0014698
0.00135717
0.00102018
0.000754248
0.00144681
0.00131382
0.00166767
0.00159904
0.00178061
0.00174482
0.00183417
0.00181496
0.0018566
0.00184456
0.0018642
0.00185436
0.00186578
0.00185596
0.00186554
0.0018547
0.00186526
0.00185313
0.00186566
0.00185247
0.001867
0.00185339
0.00186963
0.00185744
0.00187303
0.00186765
0.00186608
0.00188007
0.00180513
0.00186386
0.00170516
0.00179821
0.00172127
0.00198818
0.00177254
0.00252742
0.00262378
0.00104789
0.000791368
0.00146605
0.00133681
0.0016762
0.00160891
0.00177917
0.00174174
0.00182535
0.00180189
0.00184232
0.00182407
0.00184611
0.00182914
0.00184488
0.00182759
0.00184229
0.00182403
0.00184033
0.00182081
0.00184019
0.00181941
0.00184383
0.00182132
0.00185547
0.00183078
0.00187469
0.00185413
0.00187785
0.00187655
0.00185694
0.00184512
0.00208123
0.00182901
0.00279434
0.00240406
0.00337867
0.00363668
0.00439094
0.00108029
0.000829004
0.00147967
0.0013606
0.00167446
0.00161069
0.00176446
0.0017257
0.00180062
0.00177358
0.0018109
0.00178873
0.00181061
0.00179087
0.00180674
0.00178832
0.00180255
0.00178527
0.00179988
0.00178353
0.00180054
0.00178483
0.00180827
0.00179229
0.00182945
0.00181281
0.00185599
0.00185319
0.00184382
0.00188145
0.00181719
0.00182319
0.00215184
0.00174752
0.0032464
0.00232913
0.00464895
0.00403887
0.00588365
0.00110931
0.000884319
0.00149162
0.00138624
0.00166193
0.00162111
0.00173481
0.00172625
0.00176169
0.0017717
0.0017687
0.00179099
0.00176858
0.00180173
0.00176685
0.00181039
0.00176625
0.00182008
0.00176848
0.00183214
0.00177658
0.0018482
0.00179683
0.0018723
0.00183656
0.00191254
0.00187865
0.00197749
0.00186083
0.00203209
0.00175352
0.00197913
0.00192481
0.00181676
0.00312159
0.0021375
0.00527357
0.00396997
0.00698878
0.00116124
0.00101619
0.00151573
0.00157803
0.00168543
0.00191049
0.00176314
0.00209759
0.001801
0.00220731
0.00182401
0.00228888
0.00184354
0.00236327
0.00186362
0.00243522
0.00188597
0.00250662
0.00191186
0.00257879
0.00194393
0.00265238
0.00198801
0.00272777
0.00205347
0.00280649
0.00213092
0.0028917
0.00215039
0.00295876
0.00204237
0.00292814
0.00202944
0.00278599
0.00298588
0.00305766
0.00568519
0.00441991
0.0082299
0.00143299
0.00274828
0.00197279
0.0042269
0.00232265
0.00542589
0.00254176
0.00612524
0.00269519
0.00653751
0.00282814
0.00680758
0.00295496
0.00699684
0.00307822
0.00713313
0.00319944
0.00723662
0.0033193
0.00732203
0.00343622
0.00739977
0.00354625
0.00746945
0.00364473
0.00753559
0.00371955
0.00757949
0.00373651
0.00759924
0.00367176
0.00755933
0.0038142
0.00752035
0.00449169
0.00772648
0.00696462
0.00849944
0.00993261
0.0055422
0.00768
0.00922848
0.010121
0.0106499
0.0109763
0.011175
0.0112915
0.0113592
0.0114025
0.011433
0.0114588
0.0114704
0.0114592
0.0114221
0.0114079
0.0114326
0.0117342
0.0114674
)
;

boundaryField
{
    movingWall
    {
        type            calculated;
        value           nonuniform List<scalar> 
20
(
0.00438769
0.0066967
0.00866329
0.00979367
0.0104483
0.0108515
0.011101
0.011249
0.0113341
0.0113843
0.0114207
0.0114453
0.0114722
0.0114685
0.0114499
0.0113942
0.0114216
0.0114436
0.0120248
0.01091
)
;
    }
    fixedWalls
    {
        type            calculated;
        value           nonuniform List<scalar> 
60
(
0.000354402
0.000450354
0.000526564
0.000571629
0.000597491
0.000613462
0.000625248
0.000635952
0.000647156
0.000659729
0.000674315
0.00069162
0.000712551
0.00073865
0.000769847
0.000812889
0.000845118
0.000923519
0.00110887
0.00438769
0.000355146
0.0004505
0.000520026
0.000558791
0.000579845
0.000592734
0.00060321
0.000614048
0.000627195
0.000644688
0.00067111
0.000731255
0.000954309
0.00176002
0.00348754
0.00529434
0.00647296
0.0075046
0.00895519
0.01091
0.000354402
0.00044931
0.000518445
0.000556805
0.000577069
0.000588284
0.000595315
0.000600375
0.000604301
0.000607302
0.000609451
0.000611094
0.000611584
0.000610271
0.000605619
0.000594635
0.000571711
0.000527754
0.000451182
0.000355146
)
;
    }
    frontAndBack
    {
        type            empty;
        value           nonuniform List<scalar> 0();
    }
}


// ************************************************************************* //
