/*--------------------------------*- C++ -*----------------------------------*\
| =========                 |                                                 |
| \\      /  F ield         | OpenFOAM: The Open Source CFD Toolbox           |
|  \\    /   O peration     | Version:  2312                                  |
|   \\  /    A nd           | Website:  www.openfoam.com                      |
|    \\/     M anipulation  |                                                 |
\*---------------------------------------------------------------------------*/
FoamFile
{
    version     2.0;
    format      ascii;
    arch        "LSB;label=32;scalar=64";
    class       volScalarField;
    location    "0.5";
    object      totalCoeffP;
}
// * * * * * * * * * * * * * * * * * * * * * * * * * * * * * * * * * * * * * //

dimensions      [0 0 0 0 0 0 0];

internalField   nonuniform List<scalar> 
400
(
9.57351e-08
6.11682e-07
2.63286e-06
1.68602e-05
5.9287e-05
0.000121405
0.000202276
0.000300462
0.000414157
0.000540894
0.000678038
0.00082219
0.00096783
0.0011095
0.00124043
0.00135336
0.00144145
0.00149981
0.00152751
0.0015247
1.18977e-05
2.63442e-06
9.29005e-06
3.58905e-05
8.0131e-05
0.000142058
0.000221264
0.000316713
0.000426851
0.000549622
0.000682581
0.000821879
0.000963208
0.00110127
0.00122999
0.0013429
0.00143378
0.0014969
0.0015271
0.00152253
8.52359e-06
6.23951e-06
1.05754e-05
2.91441e-05
7.45061e-05
0.000136327
0.000214468
0.000308403
0.000417095
0.000538987
0.000671897
0.00081261
0.000957139
0.00110045
0.00123661
0.00135895
0.00146031
0.00153218
0.00156439
0.00155431
6.63448e-06
1.17585e-05
1.68128e-05
2.25932e-05
4.19132e-05
0.000104013
0.000182543
0.00027727
0.000387695
0.000512867
0.000651173
0.000800032
0.000955797
0.00111349
0.00126664
0.00140724
0.00152547
0.00160855
0.0016421
0.00162401
1.2845e-05
1.97538e-05
2.54325e-05
3.16552e-05
3.84172e-05
4.89807e-05
0.00012845
0.000225337
0.000339691
0.000471294
0.000619311
0.000781905
0.000955922
0.00113631
0.00131566
0.00148374
0.00162684
0.00172689
0.0017653
0.0017397
2.16069e-05
3.08806e-05
3.72418e-05
4.39406e-05
5.10987e-05
5.85809e-05
6.62103e-05
0.000153095
0.00027237
0.00041228
0.000573059
0.000753919
0.000952554
0.00116402
0.00137991
0.00158715
0.0017669
0.00189384
0.00194334
0.00191049
3.33788e-05
4.59445e-05
5.32164e-05
6.04994e-05
6.81737e-05
7.61409e-05
8.42865e-05
9.2446e-05
0.000183408
0.000332149
0.000507406
0.000709978
0.00093918
0.00119076
0.00145575
0.00171796
0.00195175
0.00212098
0.00219056
0.00214932
4.88769e-05
6.59871e-05
7.45461e-05
8.2593e-05
9.09194e-05
9.95308e-05
0.00010842
0.000117569
0.000126924
0.000225746
0.000415414
0.000641632
0.000906525
0.00120787
0.00153744
0.00187645
0.00219038
0.00242608
0.00252927
0.00247546
6.91422e-05
9.24033e-05
0.00010274
0.000111762
0.000120851
0.000130214
0.000140026
0.000150489
0.000161796
0.000174126
0.000288148
0.000537881
0.000841245
0.00120184
0.00161475
0.0020608
0.00249516
0.00283717
0.00299558
0.00291671
9.56387e-05
0.000127093
0.000139759
0.000149912
0.00015975
0.000169819
0.000180596
0.000192604
0.000206401
0.000222578
0.000241818
0.000382257
0.000723969
0.00115134
0.00166872
0.00226337
0.00288171
0.00339916
0.00364974
0.00351129
0.000130455
0.000172674
0.000188178
0.000199379
0.000209628
0.000220012
0.000231475
0.000245005
0.000261662
0.000282649
0.00030947
0.000344124
0.00052788
0.00102264
0.00166431
0.00246208
0.00336651
0.00418633
0.00458897
0.00429695
0.000176752
0.000232872
0.000251381
0.000262917
0.000272525
0.000282139
0.000293378
0.000307849
0.000327242
0.000353578
0.000389653
0.000439607
0.000509507
0.000763613
0.00153739
0.00260807
0.00398252
0.00539113
0.00606035
0.00530079
0.000239227
0.000313025
0.000333649
0.000343388
0.000349903
0.000356404
0.000365417
0.000379216
0.000400151
0.000431179
0.000476789
0.000544478
0.000646874
0.000805083
0.00117955
0.00261294
0.00481189
0.00752496
0.00883023
0.00662121
0.0003282
0.000421217
0.000439863
0.000442649
0.000441136
0.000440189
0.000443273
0.000453176
0.000472665
0.000505425
0.000557671
0.000641262
0.000779484
0.00101662
0.00145281
0.00233587
0.00559259
0.0106333
0.0140697
0.00878761
0.000446859
0.000564808
0.000571844
0.000557737
0.000539776
0.000524453
0.000515814
0.000516642
0.000529412
0.000557643
0.000608183
0.000696259
0.000856736
0.00116151
0.00179381
0.00332527
0.00614012
0.0103112
0.0201853
0.0150998
0.00066863
0.000762036
0.000725863
0.000674851
0.000627582
0.000588709
0.000560736
0.000545525
0.000544073
0.000558082
0.00059231
0.000659942
0.000796031
0.00107861
0.00168133
0.00290294
0.0042641
0.0082661
0.0264491
0.0306405
0.000767969
0.000915311
0.000835707
0.000742308
0.00065882
0.000589245
0.000535978
0.000498441
0.000474657
0.000463281
0.000464949
0.000485602
0.000546419
0.000698456
0.00105884
0.00148322
0.00104109
0.000855558
0.019387
0.0591565
0.00221538
0.00176972
0.00123815
0.000894907
0.000689611
0.000540724
0.000432224
0.000353678
0.000295864
0.000252853
0.000222725
0.000209732
0.000231034
0.000337147
0.00066254
0.00135172
0.00151418
0.00330733
0.00607899
0.0725483
0.000440077
0.000205014
0.000124586
0.000205087
0.000352225
0.000556436
0.000823993
0.00113837
0.00148336
0.00185318
0.00225082
0.00269141
0.00320854
0.00390702
0.00485053
0.00652216
0.00703337
0.0120604
0.00345135
0.07025
0.0114507
0.013084
0.0121402
0.0131046
0.0166089
0.0200278
0.0234594
0.0268947
0.0302979
0.033657
0.0369647
0.0402175
0.0434059
0.0466573
0.0496891
0.053696
0.0527894
0.0644712
0.0167406
0.252761
)
;

boundaryField
{
    movingWall
    {
        type            calculated;
        value           nonuniform List<scalar> 
20
(
1.00123
1.00423
1.00233
1
1
1
1
1
1
1
1
1
1
1
1
1
1
1
1
1.10004
)
;
    }
    fixedWalls
    {
        type            calculated;
        value           nonuniform List<scalar> 
60
(
4.88291e-08
1.12885e-05
5.85376e-06
0
0
0
0
0
0
0
0
0
0
0
0
0
0
0
0
0.00122588
0.00152457
0.00152126
0.00154914
0.00161112
0.00171382
0.00186406
0.00207064
0.0023455
0.00270337
0.00316008
0.00372048
0.00434953
0.00503126
0.00557909
0.00477824
0
0
0
0.0149487
0.100042
4.88291e-08
0
0
1.06238e-05
4.80766e-05
0.000104364
0.000179139
0.000271545
0.000380314
0.000503493
0.000638949
0.000783435
0.000931729
0.00107818
0.00121559
0.00133588
0.0014311
0.00149513
0.00152628
0.00152457
)
;
    }
    frontAndBack
    {
        type            empty;
    }
}


// ************************************************************************* //
