/*--------------------------------*- C++ -*----------------------------------*\
| =========                 |                                                 |
| \\      /  F ield         | OpenFOAM: The Open Source CFD Toolbox           |
|  \\    /   O peration     | Version:  2312                                  |
|   \\  /    A nd           | Website:  www.openfoam.com                      |
|    \\/     M anipulation  |                                                 |
\*---------------------------------------------------------------------------*/
FoamFile
{
    version     2.0;
    format      ascii;
    arch        "LSB;label=32;scalar=64";
    class       volSymmTensorField;
    location    "0.5";
    object      turbulenceProperties:devReff;
}
// * * * * * * * * * * * * * * * * * * * * * * * * * * * * * * * * * * * * * //

dimensions      [0 2 -2 0 0 0 0];

internalField   nonuniform List<symmTensor> 
400
(
(3.38602e-06 -6.20489e-09 -0 -3.38663e-06 -0 6.09498e-10)
(6.24239e-06 3.19817e-06 -0 -6.45594e-06 -0 2.13559e-07)
(8.10988e-06 7.8516e-06 -0 -8.24616e-06 -0 1.36276e-07)
(8.35257e-06 1.26211e-05 -0 -8.52971e-06 -0 1.77142e-07)
(7.91783e-06 1.70677e-05 -0 -8.08067e-06 -0 1.62842e-07)
(7.09864e-06 2.10691e-05 -0 -7.24298e-06 -0 1.44335e-07)
(6.06982e-06 2.45654e-05 -0 -6.19419e-06 -0 1.24374e-07)
(4.89854e-06 2.74959e-05 -0 -4.99899e-06 -0 1.00454e-07)
(3.59192e-06 2.97953e-05 -0 -3.66345e-06 -0 7.15277e-08)
(2.12153e-06 3.13614e-05 -0 -2.16795e-06 -0 4.64249e-08)
(5.43154e-07 3.21339e-05 -0 -5.62491e-07 -0 1.93372e-08)
(-1.19263e-06 3.20684e-05 -0 1.21678e-06 -0 -2.41593e-08)
(-3.07684e-06 3.10193e-05 -0 3.13342e-06 -0 -5.65794e-08)
(-5.02627e-06 2.89616e-05 -0 5.12502e-06 -0 -9.87502e-08)
(-6.95998e-06 2.58457e-05 -0 7.10025e-06 -0 -1.40271e-07)
(-8.68468e-06 2.16767e-05 -0 8.86614e-06 -0 -1.81459e-07)
(-9.8704e-06 1.65306e-05 -0 1.00875e-05 -0 -2.17149e-07)
(-1.00636e-05 1.06466e-05 -0 1.02551e-05 -0 -1.91502e-07)
(-8.18361e-06 4.70275e-06 -0 8.4618e-06 -0 -2.78188e-07)
(-5.04455e-06 5.23286e-08 -0 5.04448e-06 -0 6.70453e-11)
(6.46247e-06 -3.15333e-06 -0 -6.25712e-06 -0 -2.05346e-07)
(1.61289e-05 2.4793e-07 -0 -1.61425e-05 -0 1.35852e-08)
(2.24479e-05 3.53609e-06 -0 -2.20422e-05 -0 -4.05729e-07)
(2.49156e-05 6.15413e-06 -0 -2.44539e-05 -0 -4.61704e-07)
(2.49116e-05 7.89972e-06 -0 -2.44798e-05 -0 -4.31819e-07)
(2.32088e-05 9.18387e-06 -0 -2.28237e-05 -0 -3.85052e-07)
(2.03468e-05 1.02854e-05 -0 -2.00215e-05 -0 -3.25347e-07)
(1.66665e-05 1.13147e-05 -0 -1.64135e-05 -0 -2.5303e-07)
(1.23411e-05 1.22808e-05 -0 -1.2172e-05 -0 -1.69088e-07)
(7.42385e-06 1.31491e-05 -0 -7.35794e-06 -0 -6.59059e-08)
(1.89716e-06 1.39212e-05 -0 -1.90743e-06 -0 1.02692e-08)
(-4.1068e-06 1.44424e-05 -0 3.97739e-06 -0 1.29404e-07)
(-1.05019e-05 1.4734e-05 -0 1.02657e-05 -0 2.36237e-07)
(-1.69966e-05 1.46553e-05 -0 1.66592e-05 -0 3.37356e-07)
(-2.30619e-05 1.40587e-05 -0 2.26359e-05 -0 4.26046e-07)
(-2.78511e-05 1.26931e-05 -0 2.73541e-05 -0 4.96928e-07)
(-3.01699e-05 1.01715e-05 -0 2.96432e-05 -0 5.26741e-07)
(-2.85643e-05 6.14202e-06 -0 2.81387e-05 -0 4.25547e-07)
(-2.10068e-05 1.17018e-06 -0 2.10577e-05 -0 -5.09845e-08)
(-8.82557e-06 -4.43138e-06 -0 8.5749e-06 -0 2.50667e-07)
(8.60076e-06 -7.76565e-06 -0 -8.45732e-06 -0 -1.43442e-07)
(2.34676e-05 -2.07177e-06 -0 -2.39188e-05 -0 4.51151e-07)
(3.29235e-05 2.34553e-06 -0 -3.29181e-05 -0 -5.38406e-09)
(3.71752e-05 6.31884e-06 -0 -3.70159e-05 -0 -1.59269e-07)
(3.78002e-05 9.3892e-06 -0 -3.7659e-05 -0 -1.41206e-07)
(3.58225e-05 1.17286e-05 -0 -3.57051e-05 -0 -1.17393e-07)
(3.18983e-05 1.36818e-05 -0 -3.18001e-05 -0 -9.82329e-08)
(2.65076e-05 1.54984e-05 -0 -2.64332e-05 -0 -7.44329e-08)
(1.99632e-05 1.72985e-05 -0 -1.9918e-05 -0 -4.52007e-08)
(1.24155e-05 1.90974e-05 -0 -1.24085e-05 -0 -6.92963e-09)
(3.93653e-06 2.08578e-05 -0 -3.96484e-06 -0 2.83148e-08)
(-5.34515e-06 2.24393e-05 -0 5.2834e-06 -0 6.17492e-08)
(-1.51824e-05 2.35977e-05 -0 1.5085e-05 -0 9.74306e-08)
(-2.50954e-05 2.39712e-05 -0 2.49679e-05 -0 1.27456e-07)
(-3.42211e-05 2.306e-05 -0 3.40719e-05 -0 1.49211e-07)
(-4.12795e-05 2.02746e-05 -0 4.11071e-05 -0 1.72368e-07)
(-4.45316e-05 1.514e-05 -0 4.43692e-05 -0 1.62384e-07)
(-4.17631e-05 7.85421e-06 -0 4.18298e-05 -0 -6.67468e-08)
(-3.03532e-05 -1.65271e-07 -0 3.09213e-05 -0 -5.68184e-07)
(-1.16693e-05 -1.0407e-05 -0 1.15072e-05 -0 1.62108e-07)
(9.63257e-06 -1.27764e-05 -0 -9.43129e-06 -0 -2.01287e-07)
(2.85006e-05 -3.53653e-06 -0 -2.90777e-05 -0 5.77139e-07)
(4.07119e-05 2.27892e-06 -0 -4.08737e-05 -0 1.61774e-07)
(4.62753e-05 7.98081e-06 -0 -4.62582e-05 -0 -1.70834e-08)
(4.73187e-05 1.31154e-05 -0 -4.73276e-05 -0 8.90842e-09)
(4.52172e-05 1.74536e-05 -0 -4.52487e-05 -0 3.15746e-08)
(4.07439e-05 2.11881e-05 -0 -4.07781e-05 -0 3.41415e-08)
(3.44247e-05 2.46014e-05 -0 -3.446e-05 -0 3.53343e-08)
(2.66125e-05 2.79043e-05 -0 -2.66513e-05 -0 3.8841e-08)
(1.74839e-05 3.11763e-05 -0 -1.75278e-05 -0 4.39261e-08)
(7.11902e-06 3.43608e-05 -0 -7.16354e-06 -0 4.45222e-08)
(-4.36712e-06 3.7213e-05 -0 4.32225e-06 -0 4.48666e-08)
(-1.67304e-05 3.9272e-05 -0 1.66903e-05 -0 4.01493e-08)
(-2.94163e-05 3.98248e-05 -0 2.93887e-05 -0 2.76146e-08)
(-4.13944e-05 3.79667e-05 -0 4.13831e-05 -0 1.12999e-08)
(-5.10396e-05 3.27968e-05 -0 5.10268e-05 -0 1.27547e-08)
(-5.59405e-05 2.39216e-05 -0 5.59566e-05 -0 -1.61177e-08)
(-5.27872e-05 1.22709e-05 -0 5.30784e-05 -0 -2.9122e-07)
(-3.78414e-05 -6.94963e-09 -0 3.85885e-05 -0 -7.47098e-07)
(-1.35854e-05 -1.70447e-05 -0 1.33571e-05 -0 2.28388e-07)
(1.02992e-05 -1.7949e-05 -0 -1.00867e-05 -0 -2.12489e-07)
(3.24762e-05 -4.13777e-06 -0 -3.31173e-05 -0 6.41159e-07)
(4.73894e-05 3.30904e-06 -0 -4.75764e-05 -0 1.87012e-07)
(5.42198e-05 1.06477e-05 -0 -5.4189e-05 -0 -3.08455e-08)
(5.5641e-05 1.77792e-05 -0 -5.56316e-05 -0 -9.41437e-09)
(5.34536e-05 2.42099e-05 -0 -5.3478e-05 -0 2.44253e-08)
(4.86491e-05 2.99338e-05 -0 -4.86839e-05 -0 3.4851e-08)
(4.18237e-05 3.51953e-05 -0 -4.18634e-05 -0 3.97367e-08)
(3.33292e-05 4.02578e-05 -0 -3.33741e-05 -0 4.486e-08)
(2.3306e-05 4.52649e-05 -0 -2.33571e-05 -0 5.11241e-08)
(1.17617e-05 5.01527e-05 -0 -1.18176e-05 -0 5.58568e-08)
(-1.30578e-06 5.45932e-05 -0 1.24256e-06 -0 6.32149e-08)
(-1.57789e-05 5.78904e-05 -0 1.57114e-05 -0 6.75186e-08)
(-3.11701e-05 5.89565e-05 -0 3.11017e-05 -0 6.84311e-08)
(-4.63767e-05 5.64286e-05 -0 4.63081e-05 -0 6.86122e-08)
(-5.9375e-05 4.90016e-05 -0 5.92933e-05 -0 8.16943e-08)
(-6.67753e-05 3.62109e-05 -0 6.67562e-05 -0 1.90952e-08)
(-6.37641e-05 1.95048e-05 -0 6.41101e-05 -0 -3.45954e-07)
(-4.52271e-05 1.65937e-06 -0 4.61029e-05 -0 -8.7585e-07)
(-1.56115e-05 -2.42884e-05 -0 1.53575e-05 -0 2.54013e-07)
(1.09304e-05 -2.33403e-05 -0 -1.07043e-05 -0 -2.26089e-07)
(3.6039e-05 -4.39622e-06 -0 -3.67408e-05 -0 7.01802e-07)
(5.36745e-05 5.03797e-06 -0 -5.3878e-05 -0 2.03487e-07)
(6.18901e-05 1.40396e-05 -0 -6.18446e-05 -0 -4.54825e-08)
(6.37829e-05 2.29919e-05 -0 -6.37415e-05 -0 -4.14604e-08)
(6.15851e-05 3.13225e-05 -0 -6.15801e-05 -0 -5.07445e-09)
(5.65976e-05 3.89045e-05 -0 -5.66086e-05 -0 1.09184e-08)
(4.95419e-05 4.59609e-05 -0 -4.95651e-05 -0 2.31907e-08)
(4.07792e-05 5.28154e-05 -0 -4.08154e-05 -0 3.6223e-08)
(3.03729e-05 5.96888e-05 -0 -3.04238e-05 -0 5.0925e-08)
(1.81889e-05 6.65538e-05 -0 -1.82554e-05 -0 6.65284e-08)
(4.0091e-06 7.3047e-05 -0 -4.09907e-06 -0 8.99748e-08)
(-1.23245e-05 7.82592e-05 -0 1.22117e-05 -0 1.12807e-07)
(-3.05433e-05 8.06989e-05 -0 3.04047e-05 -0 1.38666e-07)
(-4.95914e-05 7.84211e-05 -0 4.94306e-05 -0 1.60802e-07)
(-6.70161e-05 6.94103e-05 -0 6.68388e-05 -0 1.7729e-07)
(-7.81263e-05 5.26659e-05 -0 7.80751e-05 -0 5.11896e-08)
(-7.60219e-05 2.97848e-05 -0 7.64489e-05 -0 -4.26927e-07)
(-5.37279e-05 4.48494e-06 -0 5.47751e-05 -0 -1.0472e-06)
(-1.83307e-05 -3.24938e-05 -0 1.80383e-05 -0 2.92431e-07)
(1.17118e-05 -2.90801e-05 -0 -1.14656e-05 -0 -2.46239e-07)
(3.96908e-05 -4.66689e-06 -0 -4.0462e-05 -0 7.71253e-07)
(6.00654e-05 7.08625e-06 -0 -6.02951e-05 -0 2.297e-07)
(6.97449e-05 1.7873e-05 -0 -6.97047e-05 -0 -4.0168e-08)
(7.21878e-05 2.85195e-05 -0 -7.21336e-05 -0 -5.42059e-08)
(7.00544e-05 3.84877e-05 -0 -7.00333e-05 -0 -2.10514e-08)
(6.50148e-05 4.76456e-05 -0 -6.50108e-05 -0 -4.04438e-09)
(5.79743e-05 5.62661e-05 -0 -5.79847e-05 -0 1.0336e-08)
(4.93251e-05 6.47894e-05 -0 -4.93537e-05 -0 2.85693e-08)
(3.90406e-05 7.35665e-05 -0 -3.90905e-05 -0 4.99895e-08)
(2.68021e-05 8.26806e-05 -0 -2.6869e-05 -0 6.69095e-08)
(1.20658e-05 9.18277e-05 -0 -1.21535e-05 -0 8.76515e-08)
(-5.72234e-06 9.99534e-05 -0 5.56851e-06 -0 1.53825e-07)
(-2.67784e-05 0.000105143 -0 2.65588e-05 -0 2.19611e-07)
(-5.03341e-05 0.000104685 -0 5.00577e-05 -0 2.76437e-07)
(-7.36513e-05 9.53244e-05 -0 7.33462e-05 -0 3.05157e-07)
(-9.04491e-05 7.47008e-05 -0 9.03555e-05 -0 9.3599e-08)
(-9.07804e-05 4.39869e-05 -0 9.13209e-05 -0 -5.40465e-07)
(-6.46318e-05 8.53497e-06 -0 6.59225e-05 -0 -1.29075e-06)
(-2.226e-05 -4.22161e-05 -0 2.19049e-05 -0 3.55096e-07)
(1.27348e-05 -3.53122e-05 -0 -1.24626e-05 -0 -2.72263e-07)
(4.37997e-05 -5.0837e-06 -0 -4.46509e-05 -0 8.51223e-07)
(6.6972e-05 9.2889e-06 -0 -6.72288e-05 -0 2.56767e-07)
(7.80976e-05 2.20131e-05 -0 -7.80627e-05 -0 -3.4912e-08)
(8.10565e-05 3.4263e-05 -0 -8.09916e-05 -0 -6.48424e-08)
(7.89923e-05 4.55799e-05 -0 -7.89566e-05 -0 -3.57177e-08)
(7.40024e-05 5.59354e-05 -0 -7.39818e-05 -0 -2.05903e-08)
(6.72273e-05 6.57554e-05 -0 -6.72216e-05 -0 -5.65128e-09)
(5.91224e-05 7.56769e-05 -0 -5.91369e-05 -0 1.4557e-08)
(4.95789e-05 8.62875e-05 -0 -4.96238e-05 -0 4.48666e-08)
(3.8095e-05 9.79138e-05 -0 -3.81573e-05 -0 6.22706e-08)
(2.3726e-05 0.000110314 -0 -2.38094e-05 -0 8.34249e-08)
(5.29761e-06 0.000122567 -0 -5.49938e-06 -0 2.01775e-07)
(-1.81947e-05 0.000132521 -0 1.7867e-05 -0 3.27709e-07)
(-4.67744e-05 0.000136371 -0 4.63216e-05 -0 4.52778e-07)
(-7.79449e-05 0.000128905 -0 7.74098e-05 -0 5.35065e-07)
(-0.000103699 0.000104957 -0 0.000103477 -0 2.22865e-07)
(-0.00010943 6.40801e-05 -0 0.000110097 -0 -6.67212e-07)
(-7.92324e-05 1.42305e-05 -0 8.08964e-05 -0 -1.66408e-06)
(-2.79524e-05 -5.42218e-05 -0 2.74978e-05 -0 4.54648e-07)
(1.40539e-05 -4.21883e-05 -0 -1.37506e-05 -0 -3.03288e-07)
(4.86468e-05 -5.63629e-06 -0 -4.9597e-05 -0 9.50219e-07)
(7.4732e-05 1.17052e-05 -0 -7.50201e-05 -0 2.88126e-07)
(8.71634e-05 2.65431e-05 -0 -8.71297e-05 -0 -3.37114e-08)
(9.04359e-05 4.02959e-05 -0 -9.03551e-05 -0 -8.07521e-08)
(8.83155e-05 5.26122e-05 -0 -8.82604e-05 -0 -5.50633e-08)
(8.34129e-05 6.36673e-05 -0 -8.33699e-05 -0 -4.3028e-08)
(7.71531e-05 7.41488e-05 -0 -7.71218e-05 -0 -3.1309e-08)
(7.01077e-05 8.49932e-05 -0 -7.00933e-05 -0 -1.43538e-08)
(6.21497e-05 9.7123e-05 -0 -6.21587e-05 -0 8.9706e-09)
(5.25346e-05 0.00011125 -0 -5.2594e-05 -0 5.94762e-08)
(3.99788e-05 0.000127505 -0 -4.01247e-05 -0 1.45865e-07)
(2.25898e-05 0.000145355 -0 -2.28434e-05 -0 2.53638e-07)
(-1.95755e-06 0.000162676 -0 1.52251e-06 -0 4.35043e-07)
(-3.54601e-05 0.00017464 -0 3.47461e-05 -0 7.14024e-07)
(-7.68761e-05 0.000173209 -0 7.59005e-05 -0 9.75661e-07)
(-0.000116884 0.000147862 -0 0.000116325 -0 5.59351e-07)
(-0.000133544 9.35075e-05 -0 0.000134285 -0 -7.41182e-07)
(-9.92595e-05 2.21296e-05 -0 0.000101472 -0 -2.21207e-06)
(-3.60911e-05 -6.96958e-05 -0 3.54525e-05 -0 6.38576e-07)
(1.57317e-05 -4.98736e-05 -0 -1.53933e-05 -0 -3.3848e-07)
(5.44838e-05 -6.20448e-06 -0 -5.55605e-05 -0 1.07668e-06)
(8.36087e-05 1.4608e-05 -0 -8.39368e-05 -0 3.28051e-07)
(9.70203e-05 3.1771e-05 -0 -9.69841e-05 -0 -3.62614e-08)
(0.00010017 4.68593e-05 -0 -0.000100068 -0 -1.02135e-07)
(9.76863e-05 5.96813e-05 -0 -9.76064e-05 -0 -7.98996e-08)
(9.27974e-05 7.07412e-05 -0 -9.27259e-05 -0 -7.14868e-08)
(8.72707e-05 8.10956e-05 -0 -8.72049e-05 -0 -6.5777e-08)
(8.18502e-05 9.20637e-05 -0 -8.17934e-05 -0 -5.67435e-08)
(7.64634e-05 0.000104995 -0 -7.64263e-05 -0 -3.71001e-08)
(7.03195e-05 0.000121126 -0 -7.03357e-05 -0 1.6251e-08)
(6.18828e-05 0.000141431 -0 -6.19831e-05 -0 1.00249e-07)
(4.84416e-05 0.000166205 -0 -4.86445e-05 -0 2.02842e-07)
(2.59869e-05 0.000193945 -0 -2.65002e-05 -0 5.13274e-07)
(-1.05022e-05 0.000219723 -0 9.43151e-06 -0 1.0707e-06)
(-6.43378e-05 0.000231965 -0 6.25863e-05 -0 1.75151e-06)
(-0.000127228 0.00021022 -0 0.000125995 -0 1.23224e-06)
(-0.000165638 0.000137514 -0 0.000166522 -0 -8.83647e-07)
(-0.000127235 3.23092e-05 -0 0.000130419 -0 -3.18371e-06)
(-4.73338e-05 -9.06601e-05 -0 4.62132e-05 -0 1.12063e-06)
(1.78821e-05 -5.85597e-05 -0 -1.75073e-05 -0 -3.74764e-07)
(6.16094e-05 -6.53348e-06 -0 -6.28514e-05 -0 1.242e-06)
(9.37936e-05 1.84994e-05 -0 -9.41743e-05 -0 3.80627e-07)
(0.000107543 3.82054e-05 -0 -0.000107496 -0 -4.6309e-08)
(0.000109804 5.42845e-05 -0 -0.000109671 -0 -1.33187e-07)
(0.000106409 6.68598e-05 -0 -0.000106299 -0 -1.09951e-07)
(0.000101316 7.69272e-05 -0 -0.000101211 -0 -1.04661e-07)
(9.66585e-05 8.60185e-05 -0 -9.65516e-05 -0 -1.06911e-07)
(9.33994e-05 9.58665e-05 -0 -9.32867e-05 -0 -1.12748e-07)
(9.16769e-05 0.000108276 -0 -9.15643e-05 -0 -1.12587e-07)
(9.09393e-05 0.000125159 -0 -9.08567e-05 -0 -8.25617e-08)
(8.98173e-05 0.000148605 -0 -8.97767e-05 -0 -4.06075e-08)
(8.51842e-05 0.000180378 -0 -8.52436e-05 -0 5.93827e-08)
(7.11004e-05 0.000221383 -0 -7.1528e-05 -0 4.27546e-07)
(3.76356e-05 0.000268901 -0 -3.90161e-05 -0 1.38051e-06)
(-2.87447e-05 0.000308904 -0 2.5726e-05 -0 3.01874e-06)
(-0.000128186 0.000303507 -0 0.000125515 -0 2.67073e-06)
(-0.000209234 0.000206353 -0 0.000210829 -0 -1.5945e-06)
(-0.000168034 4.57562e-05 -0 0.000174405 -0 -6.37131e-06)
(-6.24817e-05 -0.000120962 -0 6.08724e-05 -0 1.60928e-06)
(2.06969e-05 -6.84929e-05 -0 -2.02698e-05 -0 -4.27077e-07)
(7.04062e-05 -6.13143e-06 -0 -7.18592e-05 -0 1.45298e-06)
(0.000105326 2.4149e-05 -0 -0.000105772 -0 4.46725e-07)
(0.000118226 4.64699e-05 -0 -0.000118156 -0 -6.91257e-08)
(0.000118404 6.28063e-05 -0 -0.00011823 -0 -1.74561e-07)
(0.000113295 7.39479e-05 -0 -0.000113153 -0 -1.41904e-07)
(0.000107621 8.16326e-05 -0 -0.000107488 -0 -1.3351e-07)
(0.000103806 8.79169e-05 -0 -0.00010366 -0 -1.46306e-07)
(0.000103033 9.48654e-05 -0 -0.000102858 -0 -1.74413e-07)
(0.000105866 0.000104579 -0 -0.000105647 -0 -2.19814e-07)
(0.000112502 0.000119515 -0 -0.000112237 -0 -2.64907e-07)
(0.000122474 0.000143042 -0 -0.000122245 -0 -2.29022e-07)
(0.000133575 0.000179545 -0 -0.000133494 -0 -8.06846e-08)
(0.000139281 0.00023427 -0 -0.000139272 -0 -9.53321e-09)
(0.000123626 0.000312279 -0 -0.000124484 -0 8.58453e-07)
(5.38791e-05 0.000404756 -0 -5.92154e-05 -0 5.33632e-06)
(-9.52973e-05 0.000445636 -0 8.555e-05 -0 9.74736e-06)
(-0.000245121 0.000326798 -0 0.000239966 -0 5.15521e-06)
(-0.000217385 8.23502e-05 -0 0.000223485 -0 -6.09957e-06)
(-8.40158e-05 -0.00016453 -0 8.19854e-05 -0 2.03047e-06)
(2.46432e-05 -7.99806e-05 -0 -2.42339e-05 -0 -4.0926e-07)
(8.13602e-05 -4.36624e-06 -0 -8.31564e-05 -0 1.79612e-06)
(0.000117769 3.24515e-05 -0 -0.000118353 -0 5.84285e-07)
(0.000127804 5.69414e-05 -0 -0.00012771 -0 -9.38327e-08)
(0.000124246 7.20584e-05 -0 -0.000124031 -0 -2.14941e-07)
(0.000116455 7.99652e-05 -0 -0.00011629 -0 -1.65319e-07)
(0.00010972 8.34482e-05 -0 -0.000109565 -0 -1.55385e-07)
(0.000106489 8.50626e-05 -0 -0.00010631 -0 -1.78893e-07)
(0.000108044 8.69117e-05 -0 -0.000107813 -0 -2.30315e-07)
(0.000115501 9.09335e-05 -0 -0.000115176 -0 -3.25224e-07)
(0.00013043 9.95047e-05 -0 -0.000129952 -0 -4.7727e-07)
(0.000154854 0.000116693 -0 -0.000154244 -0 -6.1003e-07)
(0.000189926 0.000150174 -0 -0.000189437 -0 -4.88765e-07)
(0.00023336 0.000211697 -0 -0.000232578 -0 -7.81594e-07)
(0.000268408 0.000318754 -0 -0.000267589 -0 -8.18189e-07)
(0.000232768 0.000484245 -0 -0.000242093 -0 9.32535e-06)
(4.52118e-05 0.000602635 -0 -7.01352e-05 -0 2.49234e-05)
(-0.000197624 0.00046421 -0 0.000180125 -0 1.74984e-05)
(-0.000258841 0.000147893 -0 0.000256872 -0 1.96864e-06)
(-0.000150379 -0.000213059 -0 0.000141605 -0 8.7743e-06)
(2.97992e-05 -9.36408e-05 -0 -2.90206e-05 -0 -7.78544e-07)
(9.41605e-05 7.16481e-07 -0 -9.60773e-05 -0 1.91674e-06)
(0.000129317 4.43995e-05 -0 -0.000129771 -0 4.54175e-07)
(0.000133373 6.90488e-05 -0 -0.000133008 -0 -3.64759e-07)
(0.000124225 8.01e-05 -0 -0.000123798 -0 -4.27625e-07)
(0.000112996 8.22173e-05 -0 -0.000112667 -0 -3.28897e-07)
(0.000104883 7.93972e-05 -0 -0.000104581 -0 -3.02305e-07)
(0.000101782 7.44484e-05 -0 -0.000101468 -0 -3.14107e-07)
(0.000104764 6.90624e-05 -0 -0.000104408 -0 -3.56734e-07)
(0.00011535 6.4213e-05 -0 -0.000114873 -0 -4.77169e-07)
(0.000136793 6.08145e-05 -0 -0.000136022 -0 -7.70813e-07)
(0.000175151 6.14037e-05 -0 -0.000173796 -0 -1.35427e-06)
(0.000238708 7.37459e-05 -0 -0.000237008 -0 -1.69936e-06)
(0.000336697 0.000112426 -0 -0.000334854 -0 -1.84351e-06)
(0.000466839 0.000205952 -0 -0.00046172 -0 -5.11977e-06)
(0.000511628 0.000407143 -0 -0.000510083 -0 -1.54499e-06)
(0.000267271 0.000569078 -0 -0.000275568 -0 8.2971e-06)
(-0.000104928 0.000477944 -0 0.000105035 -0 -1.07305e-07)
(-0.000385088 0.000234011 -0 0.000402427 -0 -1.73383e-05)
(-0.000427443 -0.000314995 -0 0.000404866 -0 2.25766e-05)
(3.88356e-05 -0.000109585 -0 -3.89358e-05 -0 1.00233e-07)
(0.000108739 7.03801e-06 -0 -0.000111798 -0 3.05897e-06)
(0.000135337 5.82416e-05 -0 -0.000135968 -0 6.31328e-07)
(0.000129478 7.86223e-05 -0 -0.000128497 -0 -9.80993e-07)
(0.000113624 8.12357e-05 -0 -0.000112644 -0 -9.80284e-07)
(9.92198e-05 7.44033e-05 -0 -9.85294e-05 -0 -6.90378e-07)
(9.01364e-05 6.29852e-05 -0 -8.96997e-05 -0 -4.36683e-07)
(8.69595e-05 5.01228e-05 -0 -8.66527e-05 -0 -3.0681e-07)
(8.98024e-05 3.64961e-05 -0 -8.95463e-05 -0 -2.5615e-07)
(9.98987e-05 2.12079e-05 -0 -9.95827e-05 -0 -3.1606e-07)
(0.000121214 1.90916e-06 -0 -0.000120516 -0 -6.98383e-07)
(0.000162851 -2.45749e-05 -0 -0.000160969 -0 -1.88202e-06)
(0.000238725 -5.9549e-05 -0 -0.000235983 -0 -2.74213e-06)
(0.000369785 -9.79491e-05 -0 -0.000367394 -0 -2.39095e-06)
(0.000572582 -9.37794e-05 -0 -0.00055598 -0 -1.66021e-05)
(0.000636864 8.149e-05 -0 -0.000609605 -0 -2.72582e-05)
(0.000346086 0.00034357 -0 -0.000331798 -0 -1.42885e-05)
(-4.7357e-05 0.00051517 -0 6.95827e-05 -0 -2.22257e-05)
(-0.000561459 0.000329832 -0 0.000635088 -0 -7.36289e-05)
(-0.00100488 -0.000744571 -0 0.00100691 -0 -2.02637e-06)
(4.32769e-05 -0.000130283 -0 -3.80583e-05 -0 -5.21867e-06)
(0.000111265 3.20428e-05 -0 -0.000105352 -0 -5.91252e-06)
(0.000122561 7.55038e-05 -0 -0.000115451 -0 -7.11001e-06)
(0.000105811 7.65909e-05 -0 -0.000100516 -0 -5.29495e-06)
(8.58451e-05 6.18345e-05 -0 -8.29554e-05 -0 -2.88974e-06)
(7.04336e-05 4.25615e-05 -0 -6.89497e-05 -0 -1.48385e-06)
(6.1836e-05 2.24719e-05 -0 -6.0942e-05 -0 -8.94018e-07)
(5.93214e-05 2.56137e-06 -0 -5.86543e-05 -0 -6.67143e-07)
(6.08893e-05 -1.78163e-05 -0 -6.04244e-05 -0 -4.64954e-07)
(6.61771e-05 -4.12389e-05 -0 -6.5879e-05 -0 -2.98166e-07)
(7.7348e-05 -7.34982e-05 -0 -7.72079e-05 -0 -1.40079e-07)
(0.000100442 -0.000124388 -0 -9.98881e-05 -0 -5.53499e-07)
(0.000143885 -0.000209176 -0 -0.000144311 -0 4.26018e-07)
(0.000214617 -0.000337041 -0 -0.000221386 -0 6.76869e-06)
(0.000340848 -0.00042519 -0 -0.000337308 -0 -3.53953e-06)
(0.000413752 -0.000253024 -0 -0.000374008 -0 -3.97437e-05)
(0.000286132 8.5209e-05 -0 -0.000281148 -0 -4.98441e-06)
(0.000117396 0.000356783 -0 -0.000148154 -0 3.07576e-05)
(-0.000273795 0.000377154 -0 0.000283063 -0 -9.26823e-06)
(-0.00133783 -0.00160164 -0 0.00141718 -0 -7.93524e-05)
(8.20587e-05 -0.000140609 -0 -9.61308e-05 -0 1.4072e-05)
(0.000150485 2.24621e-05 -0 -0.000193619 -0 4.31342e-05)
(0.000118311 4.64117e-05 -0 -0.000158292 -0 3.99811e-05)
(8.17783e-05 2.02794e-05 -0 -0.000108215 -0 2.64372e-05)
(5.81016e-05 -9.75644e-06 -0 -7.66608e-05 -0 1.85592e-05)
(4.27933e-05 -3.97457e-05 -0 -5.54051e-05 -0 1.26118e-05)
(3.36734e-05 -6.93883e-05 -0 -4.26156e-05 -0 8.94214e-06)
(2.91595e-05 -9.71833e-05 -0 -3.593e-05 -0 6.77049e-06)
(2.70116e-05 -0.000123486 -0 -3.22931e-05 -0 5.28152e-06)
(2.46232e-05 -0.000151474 -0 -2.90082e-05 -0 4.38502e-06)
(2.04396e-05 -0.000186718 -0 -2.43411e-05 -0 3.90151e-06)
(1.33187e-05 -0.000239799 -0 -1.70112e-05 -0 3.69246e-06)
(-1.8457e-06 -0.000326513 -0 -3.61141e-06 -0 5.45711e-06)
(-3.86849e-05 -0.0004623 -0 2.4579e-05 -0 1.41058e-05)
(-8.05202e-05 -0.000565507 -0 6.08562e-05 -0 1.9664e-05)
(-2.74717e-05 -0.000498976 -0 4.38625e-05 -0 -1.63907e-05)
(1.54907e-05 -0.000159039 -0 -3.81094e-05 -0 2.26187e-05)
(0.000225882 0.00015356 -0 -0.000277827 -0 5.19447e-05)
(0.000433237 0.000635613 -0 -0.000571501 -0 0.000138264)
(-0.000899611 -0.00229969 -0 0.00100896 -0 -0.000109345)
(3.77754e-05 -0.000231652 -0 8.27054e-07 -0 -3.86025e-05)
(-4.23661e-05 7.91935e-05 -0 0.00013753 -0 -9.51636e-05)
(-8.59593e-05 2.30516e-05 -0 0.000172864 -0 -8.69049e-05)
(-6.99994e-05 -7.0722e-05 -0 0.000127825 -0 -5.78253e-05)
(-5.66351e-05 -0.000155777 -0 9.6273e-05 -0 -3.9638e-05)
(-5.20472e-05 -0.000219524 -0 8.08688e-05 -0 -2.88216e-05)
(-4.75965e-05 -0.000270993 -0 6.9109e-05 -0 -2.15126e-05)
(-4.22365e-05 -0.000313052 -0 5.87516e-05 -0 -1.65152e-05)
(-3.81537e-05 -0.000348879 -0 5.12686e-05 -0 -1.3115e-05)
(-3.72255e-05 -0.000381725 -0 4.78489e-05 -0 -1.06233e-05)
(-4.15805e-05 -0.000415125 -0 5.01156e-05 -0 -8.53504e-06)
(-5.39688e-05 -0.000454854 -0 6.0894e-05 -0 -6.92518e-06)
(-8.46363e-05 -0.00050954 -0 8.92454e-05 -0 -4.6091e-06)
(-0.000148362 -0.000588665 -0 0.00014967 -0 -1.30735e-06)
(-0.000268623 -0.000649654 -0 0.000263101 -0 5.52216e-06)
(-0.000308023 -0.000590369 -0 0.000330837 -0 -2.28142e-05)
(-0.000328538 -0.000302613 -0 0.000302495 -0 2.60435e-05)
(0.000130528 -9.9431e-05 -0 -0.000101209 -0 -2.93191e-05)
(0.000752254 0.00096384 -0 -0.000839995 -0 8.77411e-05)
(0.000120039 -0.00265654 -0 -0.000149732 -0 2.96929e-05)
(0.000138032 -0.000224801 -0 -0.000199746 -0 6.17145e-05)
(5.17059e-05 -0.000274101 -0 -0.000147725 -0 9.60195e-05)
(-4.69182e-05 -0.000440751 -0 -1.83794e-05 -0 6.52976e-05)
(-8.17719e-05 -0.00054837 -0 3.92488e-05 -0 4.25231e-05)
(-9.63254e-05 -0.000609147 -0 6.39828e-05 -0 3.23426e-05)
(-9.47252e-05 -0.000664638 -0 6.99669e-05 -0 2.47583e-05)
(-9.02275e-05 -0.000723771 -0 7.05066e-05 -0 1.97209e-05)
(-8.53882e-05 -0.000783255 -0 6.92438e-05 -0 1.61444e-05)
(-8.14835e-05 -0.000841587 -0 6.77479e-05 -0 1.37356e-05)
(-7.92175e-05 -0.000898975 -0 6.70524e-05 -0 1.21651e-05)
(-7.96457e-05 -0.000955272 -0 6.86151e-05 -0 1.10306e-05)
(-8.48559e-05 -0.00100988 -0 7.50404e-05 -0 9.8155e-06)
(-0.00010073 -0.00106154 -0 9.217e-05 -0 8.56005e-06)
(-0.000130252 -0.00110681 -0 0.000126174 -0 4.07863e-06)
(-0.000193316 -0.00112289 -0 0.000191994 -0 1.32201e-06)
(-0.000189782 -0.0010663 -0 0.000221407 -0 -3.1625e-05)
(-0.000256153 -0.000860931 -0 0.000224782 -0 3.13706e-05)
(0.000353479 -0.000737325 -0 -0.000233821 -0 -0.000119658)
(0.000532127 0.000470077 -0 -0.000664121 -0 0.000131994)
(0.00159426 -0.00414148 -0 -0.00185871 -0 0.000264449)
(-0.00101016 -0.0100289 -0 0.00103576 -0 -2.55923e-05)
(-0.000664079 -0.0105915 -0 0.000788925 -0 -0.000124846)
(-0.00061732 -0.0116436 -0 0.000647676 -0 -3.03558e-05)
(-0.000516559 -0.0121981 -0 0.00053475 -0 -1.8191e-05)
(-0.000424576 -0.0124461 -0 0.000448456 -0 -2.388e-05)
(-0.000368373 -0.0125421 -0 0.000388712 -0 -2.0339e-05)
(-0.000333076 -0.0125543 -0 0.000347643 -0 -1.45677e-05)
(-0.000305986 -0.0125171 -0 0.000317146 -0 -1.11601e-05)
(-0.000283304 -0.0124522 -0 0.00029265 -0 -9.34559e-06)
(-0.000263831 -0.0123729 -0 0.000271821 -0 -7.99033e-06)
(-0.000246727 -0.0122893 -0 0.000253449 -0 -6.72175e-06)
(-0.00023147 -0.0122022 -0 0.0002372 -0 -5.72995e-06)
(-0.000221246 -0.0121178 -0 0.000225502 -0 -4.25598e-06)
(-0.000210763 -0.0120141 -0 0.000217284 -0 -6.52114e-06)
(-0.000221745 -0.0119045 -0 0.000223434 -0 -1.68856e-06)
(-0.000130715 -0.0117332 -0 0.000165422 -0 -3.47065e-05)
(-0.000239575 -0.0117018 -0 0.00016968 -0 6.98949e-05)
(0.00104213 -0.0114193 -0 -0.000683751 -0 -0.000358376)
(-0.000961887 -0.0123841 -0 0.000160155 -0 0.000801732)
(0.00611344 -0.0113169 -0 -0.00528613 -0 -0.000827312)
)
;

boundaryField
{
    movingWall
    {
        type            calculated;
        value           nonuniform List<symmTensor> 
20
(
(-0.000385905 -0.00399851 -0 0.000562976 -0 -0.000177072)
(-0.000249213 -0.00369655 -0 0.000401974 -0 -0.000152761)
(-0.000193298 -0.0039004 -0 0.00028447 -0 -9.11721e-05)
(-0.000145344 -0.0040173 -0 0.000204244 -0 -5.88993e-05)
(-0.000112661 -0.00405757 -0 0.000155941 -0 -4.32804e-05)
(-9.35407e-05 -0.00406135 -0 0.000126883 -0 -3.33426e-05)
(-8.14667e-05 -0.00404391 -0 0.000107874 -0 -2.64073e-05)
(-7.27138e-05 -0.00401411 -0 9.44719e-05 -0 -2.17581e-05)
(-6.59414e-05 -0.0039782 -0 8.45281e-05 -0 -1.85867e-05)
(-6.04712e-05 -0.00394009 -0 7.67025e-05 -0 -1.62314e-05)
(-5.57491e-05 -0.00390255 -0 6.99743e-05 -0 -1.42253e-05)
(-5.13783e-05 -0.00386572 -0 6.36755e-05 -0 -1.22973e-05)
(-4.76337e-05 -0.0038314 -0 5.76795e-05 -0 -1.00459e-05)
(-4.33721e-05 -0.00379363 -0 5.13436e-05 -0 -7.9715e-06)
(-4.23461e-05 -0.00375733 -0 4.65429e-05 -0 -4.1968e-06)
(-2.43623e-05 -0.00370655 -0 3.20759e-05 -0 -7.71354e-06)
(-4.40721e-05 -0.00371371 -0 3.44905e-05 -0 9.58164e-06)
(0.000172551 -0.00360705 -0 -0.00010238 -0 -7.01712e-05)
(-0.00020711 -0.00417491 -0 0.000109178 -0 9.79321e-05)
(0.00112099 -0.00307215 -0 -0.00103915 -0 -8.1835e-05)
)
;
    }
    fixedWalls
    {
        type            calculated;
        value           nonuniform List<symmTensor> 
60
(
(1.36798e-06 -7.50297e-08 -0 -1.51541e-06 -0 1.47432e-07)
(2.99438e-06 -2.33778e-06 -0 -2.89059e-06 -0 -1.03786e-07)
(4.02442e-06 -5.9954e-06 -0 -3.84403e-06 -0 -1.80397e-07)
(4.41886e-06 -9.95902e-06 -0 -4.19493e-06 -0 -2.23938e-07)
(4.62221e-06 -1.40822e-05 -0 -4.40722e-06 -0 -2.14997e-07)
(4.8234e-06 -1.83632e-05 -0 -4.61825e-06 -0 -2.05147e-07)
(5.10686e-06 -2.28704e-05 -0 -4.90236e-06 -0 -2.04502e-07)
(5.50519e-06 -2.76991e-05 -0 -5.29166e-06 -0 -2.13531e-07)
(6.03367e-06 -3.29568e-05 -0 -5.80291e-06 -0 -2.30752e-07)
(6.71259e-06 -3.87614e-05 -0 -6.45729e-06 -0 -2.55298e-07)
(7.58604e-06 -4.52534e-05 -0 -7.29869e-06 -0 -2.87355e-07)
(8.73679e-06 -5.26236e-05 -0 -8.39749e-06 -0 -3.39301e-07)
(1.03736e-05 -6.11096e-05 -0 -9.98073e-06 -0 -3.92872e-07)
(1.2591e-05 -7.13531e-05 -0 -1.19162e-05 -0 -6.74755e-07)
(1.66002e-05 -8.3029e-05 -0 -1.59716e-05 -0 -6.28613e-07)
(1.88736e-05 -0.000100694 -0 -1.57832e-05 -0 -3.09032e-06)
(3.70004e-05 -0.000106847 -0 -3.95454e-05 -0 2.545e-06)
(2.39222e-05 -0.000185173 -0 -4.63837e-06 -0 -1.92838e-05)
(6.336e-05 -0.000126447 -0 -7.74291e-05 -0 1.40691e-05)
(-0.000292825 -0.00233535 -0 0.000258971 -0 3.38535e-05)
(-2.1674e-06 -2.05773e-07 -0 2.32114e-06 -0 -1.5374e-07)
(-4.10481e-06 -3.5099e-06 -0 3.96868e-06 -0 1.36127e-07)
(-5.42685e-06 -8.37772e-06 -0 5.22195e-06 -0 2.04893e-07)
(-6.18916e-06 -1.37964e-05 -0 5.93746e-06 -0 2.51693e-07)
(-6.97672e-06 -1.97859e-05 -0 6.72305e-06 -0 2.53671e-07)
(-8.082e-06 -2.65866e-05 -0 7.81634e-06 -0 2.65661e-07)
(-9.7186e-06 -3.46146e-05 -0 9.41929e-06 -0 2.99314e-07)
(-1.20842e-05 -4.44536e-05 -0 1.1733e-05 -0 3.51259e-07)
(-1.53775e-05 -5.69307e-05 -0 1.49663e-05 -0 4.11164e-07)
(-1.96305e-05 -7.32163e-05 -0 1.91593e-05 -0 4.7121e-07)
(-2.43056e-05 -9.47077e-05 -0 2.42708e-05 -0 3.48327e-08)
(-2.69426e-05 -0.000121767 -0 2.93247e-05 -0 -2.38209e-06)
(-3.74124e-05 -0.000146461 -0 4.25585e-05 -0 -5.1461e-06)
(-0.000118104 -0.000184954 -0 0.000113904 -0 4.20039e-06)
(-0.000274292 -0.000344272 -0 0.000250621 -0 2.36711e-05)
(-0.00035893 -0.000670498 -0 0.000325047 -0 3.38823e-05)
(-0.000274475 -0.0010012 -0 0.00023844 -0 3.60346e-05)
(-3.49362e-05 -0.0012116 -0 1.80974e-06 -0 3.31264e-05)
(0.000527066 -0.00140937 -0 -0.000448175 -0 -7.88904e-05)
(0.00264647 -0.00232156 -0 -0.00170959 -0 -0.00093688)
(1.51787e-06 6.73877e-08 -0 -1.3738e-06 -0 -1.44069e-07)
(2.88976e-06 2.36089e-06 -0 -3.00155e-06 -0 1.11791e-07)
(3.7035e-06 6.03828e-06 -0 -3.87749e-06 -0 1.73995e-07)
(3.74203e-06 9.801e-06 -0 -3.93939e-06 -0 1.9736e-07)
(3.49272e-06 1.3352e-05 -0 -3.65857e-06 -0 1.65854e-07)
(3.0991e-06 1.65488e-05 -0 -3.23213e-06 -0 1.3303e-07)
(2.63268e-06 1.93233e-05 -0 -2.73876e-06 -0 1.06077e-07)
(2.11585e-06 2.16277e-05 -0 -2.19798e-06 -0 8.21257e-08)
(1.54609e-06 2.3419e-05 -0 -1.603e-06 -0 5.69163e-08)
(9.07357e-07 2.46313e-05 -0 -9.38262e-07 -0 3.09049e-08)
(2.38273e-07 2.51988e-05 -0 -2.55546e-07 -0 1.72732e-08)
(-5.13941e-07 2.51131e-05 -0 5.3531e-07 -0 -2.13693e-08)
(-1.32634e-06 2.42486e-05 -0 1.37979e-06 -0 -5.34522e-08)
(-2.17291e-06 2.2589e-05 -0 2.26773e-06 -0 -9.48202e-08)
(-3.02593e-06 2.00973e-05 -0 3.16894e-06 -0 -1.43011e-07)
(-3.81216e-06 1.67852e-05 -0 4.00954e-06 -0 -1.97373e-07)
(-4.39747e-06 1.27389e-05 -0 4.64257e-06 -0 -2.45098e-07)
(-4.57157e-06 8.18183e-06 -0 4.79613e-06 -0 -2.24556e-07)
(-3.78357e-06 3.56244e-06 -0 3.92879e-06 -0 -1.4522e-07)
(-2.30838e-06 2.50678e-07 -0 2.14179e-06 -0 1.66594e-07)
)
;
    }
    frontAndBack
    {
        type            empty;
    }
}


// ************************************************************************* //
