/*--------------------------------*- C++ -*----------------------------------*\
| =========                 |                                                 |
| \\      /  F ield         | OpenFOAM: The Open Source CFD Toolbox           |
|  \\    /   O peration     | Version:  2312                                  |
|   \\  /    A nd           | Website:  www.openfoam.com                      |
|    \\/     M anipulation  |                                                 |
\*---------------------------------------------------------------------------*/
FoamFile
{
    version     2.0;
    format      ascii;
    arch        "LSB;label=32;scalar=64";
    class       volScalarField;
    location    "0.5";
    object      turbulenceProperties:nuEff;
}
// * * * * * * * * * * * * * * * * * * * * * * * * * * * * * * * * * * * * * //

dimensions      [0 2 -1 0 0 0 0];

internalField   nonuniform List<scalar> 
400
(
2.03702e-05
2.17023e-05
2.25913e-05
2.3064e-05
2.33102e-05
2.34462e-05
2.35314e-05
2.35926e-05
2.36399e-05
2.36762e-05
2.37022e-05
2.37218e-05
2.37276e-05
2.37118e-05
2.36556e-05
2.35234e-05
2.32475e-05
2.27101e-05
2.1728e-05
2.03825e-05
2.17158e-05
4.81168e-05
6.1677e-05
6.8595e-05
7.21442e-05
7.39524e-05
7.49324e-05
7.55813e-05
7.61322e-05
7.66697e-05
7.71881e-05
7.75923e-05
7.78485e-05
7.78693e-05
7.72761e-05
7.54369e-05
7.1321e-05
6.32851e-05
4.7871e-05
2.17198e-05
2.2693e-05
6.35007e-05
8.75459e-05
0.000100618
0.00010757
0.000111106
0.000112891
0.00011388
0.000114563
0.000115142
0.000115664
0.000116068
0.000116216
0.000115781
0.000114076
0.000109972
0.000101764
8.69334e-05
6.10145e-05
2.26131e-05
2.32436e-05
7.16957e-05
0.000102509
0.000120014
0.00012962
0.000134575
0.000137026
0.000138269
0.000138999
0.000139532
0.000139955
0.000140195
0.000140063
0.000139034
0.000136209
0.000130159
0.000118846
9.94186e-05
6.73111e-05
2.30904e-05
2.35536e-05
7.61153e-05
0.000111043
0.000131459
0.00014291
0.000148886
0.000151809
0.000153214
0.000153942
0.000154392
0.00015467
0.000154717
0.000154253
0.000152656
0.000148879
0.000141329
0.000127839
0.000105511
6.99514e-05
2.33461e-05
2.37433e-05
7.84073e-05
0.0001157
0.000137875
0.000150477
0.000157096
0.000160307
0.000161787
0.000162483
0.000162836
0.000162971
0.000162828
0.000162064
0.000159991
0.000155471
0.000146839
0.000131922
0.000107847
7.04893e-05
2.35024e-05
2.38818e-05
7.95782e-05
0.000118173
0.000141316
0.000154543
0.000161498
0.000164844
0.000166338
0.000166985
0.000167251
0.000167279
0.000166977
0.000165976
0.000163534
0.000158455
0.000149048
0.000133187
0.000108071
6.99032e-05
2.36293e-05
2.40055e-05
8.02309e-05
0.000119556
0.000143182
0.000156681
0.000163754
0.000167124
0.000168593
0.000169192
0.000169394
0.000169348
0.000168932
0.000167749
0.000165019
0.000159493
0.000149472
0.000132901
0.000107076
6.8467e-05
2.37602e-05
2.4133e-05
8.06979e-05
0.000120486
0.000144328
0.000157883
0.000164933
0.000168254
0.000169675
0.000170232
0.000170391
0.000170296
0.000169803
0.000168465
0.000165476
0.000159521
0.000148899
0.000131623
0.0001051
6.62719e-05
2.39186e-05
2.42741e-05
8.1148e-05
0.000121304
0.000145222
0.000158698
0.000165632
0.000168852
0.000170205
0.00017072
0.000170851
0.000170714
0.000170157
0.00016868
0.000165384
0.000158945
0.000147569
0.000129373
0.000101984
6.31146e-05
2.41291e-05
2.44355e-05
8.1669e-05
0.000122178
0.000146086
0.000159378
0.000166117
0.000169186
0.000170443
0.000170904
0.000170999
0.00017081
0.000170173
0.000168522
0.000164866
0.000157711
0.000145167
0.000125501
9.68648e-05
5.8404e-05
2.44526e-05
2.46243e-05
8.23161e-05
0.000123184
0.000146987
0.000159969
0.000166409
0.000169253
0.00017036
0.000170723
0.000170743
0.000170462
0.00016969
0.000167772
0.000163555
0.000155255
0.000140629
0.000117673
8.61755e-05
5.02221e-05
2.5217e-05
2.48488e-05
8.3126e-05
0.000124312
0.000147819
0.000160271
0.000166226
0.000168707
0.000169581
0.000169771
0.000169628
0.000169176
0.000168142
0.000165774
0.000160577
0.000150003
0.000130834
0.000101133
6.5459e-05
3.80272e-05
2.78444e-05
2.51231e-05
8.40728e-05
0.000125362
0.000148111
0.000159595
0.000164779
0.000166727
0.000167178
0.000167014
0.000166535
0.000165753
0.000164322
0.000161272
0.000154356
0.000139378
0.000111854
7.3827e-05
4.50901e-05
3.63684e-05
3.48475e-05
2.54423e-05
8.4985e-05
0.000125584
0.00014655
0.000156431
0.000160331
0.000161262
0.000160961
0.00016011
0.000159037
0.000157755
0.000155851
0.000152163
0.000143464
0.000122386
8.66985e-05
5.35418e-05
4.47145e-05
4.65637e-05
4.44563e-05
2.58724e-05
8.49474e-05
0.000122806
0.000140411
0.00014728
0.000148768
0.000148002
0.000146357
0.000144473
0.000142591
0.000140757
0.000138665
0.000135372
0.000127681
0.000107174
7.24224e-05
4.59586e-05
4.40399e-05
5.11671e-05
5.13982e-05
2.61824e-05
8.2533e-05
0.000112466
0.000122638
0.000124353
0.000122604
0.000119736
0.000116658
0.000113805
0.000111297
0.000109212
0.00010766
0.000106575
0.00010447
9.54898e-05
7.43579e-05
5.02025e-05
4.49192e-05
5.1535e-05
5.52506e-05
2.69227e-05
7.00779e-05
8.27426e-05
8.34184e-05
8.10877e-05
7.78936e-05
7.48612e-05
7.22947e-05
7.02132e-05
6.85705e-05
6.73782e-05
6.67778e-05
6.70602e-05
6.85058e-05
6.9833e-05
6.62715e-05
5.57447e-05
4.83916e-05
5.19936e-05
5.85918e-05
2.85755e-05
4.32155e-05
4.44745e-05
4.48766e-05
4.50412e-05
4.52931e-05
4.58002e-05
4.65084e-05
4.7334e-05
4.82225e-05
4.91375e-05
5.00596e-05
5.09637e-05
5.19121e-05
5.29223e-05
5.28922e-05
5.15659e-05
4.99549e-05
5.14006e-05
6.30565e-05
4.71464e-05
5.59068e-05
6.22126e-05
6.55179e-05
6.73466e-05
6.84431e-05
6.91065e-05
6.94859e-05
6.96872e-05
6.97837e-05
6.98351e-05
6.98504e-05
6.98753e-05
6.98246e-05
6.97657e-05
6.96108e-05
6.9692e-05
6.97708e-05
7.13084e-05
6.84584e-05
)
;

boundaryField
{
    movingWall
    {
        type            calculated;
        value           nonuniform List<scalar> 
20
(
1e-05
1e-05
1.08243e-05
1.13645e-05
1.1661e-05
1.18383e-05
1.19462e-05
1.20095e-05
1.20457e-05
1.2067e-05
1.20823e-05
1.20927e-05
1.21041e-05
1.21025e-05
1.20947e-05
1.20711e-05
1.20827e-05
1.2092e-05
1.23338e-05
1.18638e-05
)
;
    }
    fixedWalls
    {
        type            calculated;
        value           nonuniform List<scalar> 
60
(
1e-05
1e-05
1e-05
1e-05
1e-05
1e-05
1e-05
1e-05
1e-05
1e-05
1e-05
1e-05
1e-05
1e-05
1e-05
1e-05
1e-05
1e-05
1e-05
1e-05
1e-05
1e-05
1e-05
1e-05
1e-05
1e-05
1e-05
1e-05
1e-05
1e-05
1e-05
1e-05
1e-05
1e-05
1e-05
1e-05
1e-05
1.02266e-05
1.09675e-05
1.18638e-05
1e-05
1e-05
1e-05
1e-05
1e-05
1e-05
1e-05
1e-05
1e-05
1e-05
1e-05
1e-05
1e-05
1e-05
1e-05
1e-05
1e-05
1e-05
1e-05
1e-05
)
;
    }
    frontAndBack
    {
        type            empty;
    }
}


// ************************************************************************* //
