/*--------------------------------*- C++ -*----------------------------------*\
| =========                 |                                                 |
| \\      /  F ield         | OpenFOAM: The Open Source CFD Toolbox           |
|  \\    /   O peration     | Version:  2312                                  |
|   \\  /    A nd           | Website:  www.openfoam.com                      |
|    \\/     M anipulation  |                                                 |
\*---------------------------------------------------------------------------*/
FoamFile
{
    version     2.0;
    format      ascii;
    arch        "LSB;label=32;scalar=64";
    class       volScalarField;
    location    "0.5";
    object      turbulenceProperties:omega;
}
// * * * * * * * * * * * * * * * * * * * * * * * * * * * * * * * * * * * * * //

dimensions      [0 0 -1 0 0 0 0];

internalField   nonuniform List<scalar> 
400
(
34.175
38.395
41.1748
42.6214
43.3554
43.7509
43.9951
44.1694
44.3039
44.4058
44.4784
44.5346
44.5512
44.5071
44.3496
43.9708
43.156
41.5225
38.4704
34.2063
38.4398
21.0788
18.9941
18.3295
18.0315
17.8819
17.7985
17.7394
17.6849
17.6277
17.5707
17.5294
17.501
17.4892
17.524
17.6542
17.9721
18.7126
21.1468
38.4392
41.4845
18.6864
15.8617
14.9164
14.4972
14.2973
14.1978
14.1418
14.1024
14.0686
14.0386
14.0162
14.0078
14.0307
14.1215
14.3462
14.8346
15.9185
19.1218
41.229
43.1627
17.9378
14.7848
13.7091
13.2291
13.0019
12.8928
12.8376
12.8051
12.7817
12.7638
12.7544
12.7612
12.807
12.9317
13.2082
13.78
15.0155
18.5431
42.6871
44.0835
17.6052
14.289
13.1453
12.6309
12.3874
12.273
12.2185
12.1904
12.1733
12.1636
12.1633
12.1828
12.2461
12.3959
12.7089
13.3347
14.6592
18.3757
43.4468
44.6371
17.4546
14.0462
12.865
12.3311
12.0783
11.9611
11.908
11.8833
11.8712
11.8679
11.8752
11.9052
11.983
12.1533
12.495
13.1604
14.5516
18.4196
43.8986
45.0409
17.3962
13.9284
12.7267
12.1834
11.9267
11.8091
11.7578
11.7361
11.7282
11.7296
11.7435
11.7823
11.8727
12.0612
12.4285
13.129
14.5813
18.5967
44.2583
45.4073
17.3845
13.8712
12.6594
12.1134
11.8569
11.7408
11.6916
11.6726
11.668
11.6732
11.6928
11.74
11.8429
12.0503
12.4452
13.1843
14.7064
18.9159
44.6249
45.7904
17.395
13.8411
12.6251
12.0811
11.8275
11.7142
11.6674
11.6506
11.6487
11.6575
11.6826
11.7399
11.8577
12.0899
12.5222
13.3166
14.9394
19.4162
45.0617
46.2187
17.4158
13.8217
12.6048
12.0661
11.8173
11.7076
11.6633
11.6487
11.6493
11.6624
11.6942
11.7636
11.9053
12.1745
12.6706
13.5647
15.3555
20.231
45.6284
46.7121
17.4424
13.8057
12.5904
12.0595
11.8171
11.7119
11.6706
11.6583
11.6618
11.6804
11.7219
11.8098
11.9871
12.3277
12.9563
14.0717
16.2272
21.8024
46.4354
47.2925
17.474
13.7918
12.5808
12.0606
11.8269
11.7277
11.6904
11.6816
11.6897
11.7161
11.7724
11.891
12.1342
12.6186
13.5549
15.3195
18.693
26.1864
48.0552
47.9872
17.5136
13.784
12.5828
12.0794
11.8594
11.7702
11.7398
11.7372
11.7533
11.7919
11.8722
12.0432
12.4145
13.2252
14.9737
18.6916
26.5967
41.1941
53.4794
48.8424
17.5734
13.7993
12.6233
12.1515
11.956
11.8847
11.8703
11.8831
11.916
11.9757
12.0921
12.3481
12.9634
14.4903
18.2363
27.4622
47.235
67.6965
70.8329
49.853
17.6826
13.8962
12.7882
12.3752
12.2302
12.2044
12.2295
12.2817
12.3526
12.4509
12.6204
12.9919
13.9661
16.7762
24.385
42.3406
66.7984
89.4276
101.216
51.2141
17.9819
14.2869
13.3215
13.0512
13.0403
13.1319
13.2668
13.4188
13.5804
13.7594
14.0049
14.4737
15.672
19.2199
29.1553
50.459
73.1271
97.2515
127.888
52.2244
18.9364
15.71
15.218
15.3516
15.7
16.1253
16.5729
17.0134
17.438
17.8459
18.2534
18.7527
19.7109
22.169
28.3793
41.8036
62.1153
98.0901
143.047
54.5728
23.2859
22.442
23.6775
25.1507
26.7197
28.2746
29.7482
31.1243
32.4027
33.5647
34.5554
35.2967
35.7724
36.25
37.8849
42.6914
54.8553
92.0565
154.442
59.6951
52.9001
63.4812
70.443
74.9608
78.3061
80.799
82.6465
84.0827
85.283
86.3334
87.209
87.8569
88.0537
87.334
86.8327
87.0682
100.346
120.144
168.786
118.119
145.876
165.923
176.405
182.196
185.676
187.814
189.103
189.891
190.425
190.869
191.233
191.602
191.701
191.58
191.144
191.343
191.459
196.137
186.629
)
;

boundaryField
{
    movingWall
    {
        type            calculated;
        value           nonuniform List<scalar> 
20
(
118.119
145.876
165.923
176.405
182.196
185.676
187.814
189.103
189.891
190.425
190.869
191.233
191.602
191.701
191.58
191.144
191.343
191.459
196.137
186.629
)
;
    }
    fixedWalls
    {
        type            calculated;
        value           nonuniform List<scalar> 
60
(
34.175
38.4398
41.4845
43.1627
44.0835
44.6371
45.0409
45.4073
45.7904
46.2187
46.7121
47.2925
47.9872
48.8424
49.853
51.2141
52.2244
54.5728
59.6951
118.119
34.2063
38.4392
41.229
42.6871
43.4468
43.8986
44.2583
44.6249
45.0617
45.6284
46.4354
48.0552
53.4794
70.8329
101.216
127.888
143.047
154.442
168.786
186.629
34.175
38.395
41.1748
42.6214
43.3554
43.7509
43.9951
44.1694
44.3039
44.4058
44.4784
44.5346
44.5512
44.5071
44.3496
43.9708
43.156
41.5225
38.4704
34.2063
)
;
    }
    frontAndBack
    {
        type            empty;
    }
}


// ************************************************************************* //
