/*--------------------------------*- C++ -*----------------------------------*\
| =========                 |                                                 |
| \\      /  F ield         | OpenFOAM: The Open Source CFD Toolbox           |
|  \\    /   O peration     | Version:  2312                                  |
|   \\  /    A nd           | Website:  www.openfoam.com                      |
|    \\/     M anipulation  |                                                 |
\*---------------------------------------------------------------------------*/
FoamFile
{
    version     2.0;
    format      ascii;
    arch        "LSB;label=32;scalar=64";
    class       volScalarField;
    location    "0.5";
    object      turbulenceProperties:I;
}
// * * * * * * * * * * * * * * * * * * * * * * * * * * * * * * * * * * * * * //

dimensions      [0 0 0 0 0 0 0];

internalField   nonuniform List<scalar> 
400
(
1
1
1
1
1
1
1
1
1
1
1
1
1
1
1
1
1
1
1
1
1
1
1
1
1
1
1
1
1
1
1
1
1
1
1
1
1
1
1
1
1
1
1
1
1
1
1
1
1
1
1
1
1
1
1
1
1
1
1
1
1
1
1
1
1
1
1
1
1
1
1
1
1
1
1
1
1
1
1
1
1
1
1
1
1
1
1
1
1
1
1
1
1
1
1
1
1
1
1
1
1
1
1
1
1
1
1
1
1
1
1
1
1
1
1
1
1
1
1
1
1
1
1
1
1
1
1
1
1
1
1
1
1
1
1
1
1
1
1
1
1
1
1
1
1
1
1
1
1
1
1
1
1
1
1
1
1
1
1
1
1
1
1
1
1
1
1
1
1
1
1
1
1
1
1
1
1
1
1
1
1
1
1
1
1
1
1
1
1
1
1
1
1
1
1
1
1
1
1
1
1
1
1
1
1
1
1
1
1
1
1
1
1
1
1
1
1
1
0.944798
0.880972
1
1
1
1
1
1
1
1
1
1
1
1
1
1
1
1
0.966778
0.820795
0.69366
0.715878
1
1
1
1
1
1
1
1
1
1
1
1
1
1
1
0.905318
0.739814
0.595837
0.505687
0.632568
1
1
1
1
1
1
1
1
1
1
1
1
1
1
0.92751
0.728092
0.546273
0.427967
0.406595
0.60473
1
1
1
1
1
1
1
1
1
1
1
1
1
1
0.837083
0.612344
0.447401
0.387202
0.356954
0.474615
0.900279
1
1
1
1
1
1
1
1
1
1
1
1
1
0.860558
0.646494
0.532612
0.448061
0.317667
0.3394
0.856528
1
1
1
1
1
1
1
1
1
1
1
1
1
1
0.906052
1
1
0.374299
0.270088
0.527174
0.725948
0.937547
1
1
1
1
1
1
1
1
1
1
1
1
1
0.92727
0.651543
0.651114
0.262606
1
1
1
1
1
1
1
1
1
1
1
0.930247
0.864745
0.793551
0.717783
0.617007
0.585694
0.470772
0.9802
0.328567
0.534865
0.710216
0.767152
0.705855
0.6476
0.601012
0.561665
0.528052
0.499392
0.474865
0.453844
0.435573
0.419763
0.404806
0.391945
0.376119
0.379792
0.343996
0.692004
0.218233
)
;

boundaryField
{
    movingWall
    {
        type            calculated;
        value           nonuniform List<scalar> 
20
(
0.0540844
0.0668167
0.0759969
0.0808029
0.0834598
0.0850549
0.0860273
0.0865986
0.0869256
0.087118
0.087257
0.0873512
0.0874538
0.0874394
0.0873686
0.0871559
0.0872607
0.0873446
0.0895352
0.085284
)
;
    }
    fixedWalls
    {
        type            calculated;
        value           uniform 1;
    }
    frontAndBack
    {
        type            empty;
    }
}


// ************************************************************************* //
