/*--------------------------------*- C++ -*----------------------------------*\
| =========                 |                                                 |
| \\      /  F ield         | OpenFOAM: The Open Source CFD Toolbox           |
|  \\    /   O peration     | Version:  2312                                  |
|   \\  /    A nd           | Website:  www.openfoam.com                      |
|    \\/     M anipulation  |                                                 |
\*---------------------------------------------------------------------------*/
FoamFile
{
    version     2.0;
    format      ascii;
    arch        "LSB;label=32;scalar=64";
    class       volSymmTensorField;
    location    "0.5";
    object      turbulenceProperties:R;
}
// * * * * * * * * * * * * * * * * * * * * * * * * * * * * * * * * * * * * * //

dimensions      [0 2 -2 0 0 0 0];

internalField   nonuniform List<symmTensor> 
400
(
(0.000237992 -3.15883e-09 -0 0.000234544 -0 0.000236268)
(0.000302906 1.72452e-06 -0 0.000296059 -0 0.000299655)
(0.00035015 4.3761e-06 -0 0.000341034 -0 0.000345706)
(0.000375935 7.14887e-06 -0 0.000366372 -0 0.000371304)
(0.000389234 9.74573e-06 -0 0.000380099 -0 0.000384806)
(0.00039626 1.20829e-05 -0 0.000388035 -0 0.000392272)
(0.000400367 1.4126e-05 -0 0.000393315 -0 0.000396948)
(0.000403072 1.58414e-05 -0 0.00039737 -0 0.000400308)
(0.00040494 1.71915e-05 -0 0.000400753 -0 0.000402908)
(0.000406094 1.81154e-05 -0 0.000403616 -0 0.000404895)
(0.000406614 1.85765e-05 -0 0.000405975 -0 0.000406312)
(0.000406706 1.85498e-05 -0 0.0004081 -0 0.000407382)
(0.000405942 1.79463e-05 -0 0.000409535 -0 0.00040769)
(0.000403941 1.67476e-05 -0 0.000409811 -0 0.00040679)
(0.000399728 1.49199e-05 -0 0.000407845 -0 0.000403665)
(0.000391431 1.24617e-05 -0 0.000401521 -0 0.000396319)
(0.000375516 9.41992e-06 -0 0.000386889 -0 0.000381017)
(0.000346204 5.95856e-06 -0 0.000357575 -0 0.000351729)
(0.000296371 2.53838e-06 -0 0.000305356 -0 0.000300638)
(0.000234195 2.66553e-08 -0 0.000239334 -0 0.000236764)
(0.000303723 -1.70124e-06 -0 0.00029686 -0 0.000300125)
(0.000548415 1.96403e-07 -0 0.00052285 -0 0.000535649)
(0.000673179 2.96277e-06 -0 0.000635902 -0 0.00065403)
(0.000737296 5.25696e-06 -0 0.000695124 -0 0.000715618)
(0.000768493 6.80473e-06 -0 0.000725947 -0 0.000746662)
(0.000782464 7.94201e-06 -0 0.000742657 -0 0.000762061)
(0.000788096 8.91278e-06 -0 0.000753115 -0 0.000770183)
(0.000790045 9.81764e-06 -0 0.000761341 -0 0.000775364)
(0.000790414 1.06677e-05 -0 0.000769121 -0 0.000779547)
(0.000789945 1.14341e-05 -0 0.000777091 -0 0.000783432)
(0.00078868 1.21176e-05 -0 0.000785368 -0 0.000787037)
(0.000786323 1.25811e-05 -0 0.000793365 -0 0.000790013)
(0.00078246 1.28414e-05 -0 0.00080056 -0 0.000791819)
(0.000776508 1.27733e-05 -0 0.000805842 -0 0.000791616)
(0.000765885 1.22394e-05 -0 0.000805669 -0 0.000786333)
(0.000745998 1.10105e-05 -0 0.000793885 -0 0.000770588)
(0.000708772 8.74531e-06 -0 0.000760199 -0 0.000735165)
(0.000640684 5.17149e-06 -0 0.000688427 -0 0.000665093)
(0.000517282 9.25732e-07 -0 0.00055056 -0 0.00053386)
(0.000295571 -2.39113e-06 -0 0.00030496 -0 0.000300469)
(0.000355853 -4.3436e-06 -0 0.000346312 -0 0.000350962)
(0.000686261 -1.74551e-06 -0 0.000646337 -0 0.000666869)
(0.00084917 2.07761e-06 -0 0.000790849 -0 0.000820002)
(0.000934609 5.69084e-06 -0 0.000867791 -0 0.000900985)
(0.00097728 8.51635e-06 -0 0.000908836 -0 0.000942866)
(0.000996293 1.0673e-05 -0 0.000931203 -0 0.000963588)
(0.00100295 1.24698e-05 -0 0.000944895 -0 0.000973788)
(0.00100355 1.41374e-05 -0 0.000955257 -0 0.000979301)
(0.00100128 1.57885e-05 -0 0.000964878 -0 0.000983016)
(0.000997474 1.74388e-05 -0 0.000974806 -0 0.000986131)
(0.000992514 1.90545e-05 -0 0.000985295 -0 0.000988943)
(0.000986224 2.0506e-05 -0 0.000995937 -0 0.000991165)
(0.000978025 2.15672e-05 -0 0.00100569 -0 0.00099199)
(0.000966531 2.19008e-05 -0 0.00101227 -0 0.000989575)
(0.000948582 2.10385e-05 -0 0.00101089 -0 0.000979939)
(0.00091862 1.8431e-05 -0 0.000993515 -0 0.000956303)
(0.000867363 1.36523e-05 -0 0.000947528 -0 0.000907665)
(0.000779484 6.95073e-06 -0 0.000853462 -0 0.000816384)
(0.000624947 -1.38184e-07 -0 0.000676179 -0 0.00064985)
(0.000340175 -5.80479e-06 -0 0.000353102 -0 0.000346774)
(0.000386574 -7.27968e-06 -0 0.000375712 -0 0.000380971)
(0.000762317 -3.04326e-06 -0 0.000712769 -0 0.000738288)
(0.000948559 2.0566e-06 -0 0.000874932 -0 0.000911964)
(0.00104788 7.31582e-06 -0 0.00096306 -0 0.00100545)
(0.00109864 1.21035e-05 -0 0.0010113 -0 0.00105498)
(0.00112167 1.61566e-05 -0 0.00103792 -0 0.00107984)
(0.00112959 1.96418e-05 -0 0.00105401 -0 0.00109185)
(0.00112972 2.28221e-05 -0 0.00106581 -0 0.00109782)
(0.00112593 2.58968e-05 -0 0.0010765 -0 0.00110127)
(0.00111999 2.8942e-05 -0 0.00108748 -0 0.0011038)
(0.00111242 3.19057e-05 -0 0.00109916 -0 0.00110585)
(0.00110298 3.45586e-05 -0 0.00111105 -0 0.00110708)
(0.00109097 3.64681e-05 -0 0.00112201 -0 0.00110655)
(0.0010744 3.69604e-05 -0 0.00112897 -0 0.00110172)
(0.0010497 3.51793e-05 -0 0.0011264 -0 0.00108807)
(0.00101094 3.0277e-05 -0 0.00110516 -0 0.00105807)
(0.000948696 2.19088e-05 -0 0.00105118 -0 0.000999914)
(0.00084763 1.10366e-05 -0 0.000942847 -0 0.000894846)
(0.000676264 -5.91716e-09 -0 0.000741339 -0 0.000707847)
(0.000364826 -9.66295e-06 -0 0.0003801 -0 0.000372657)
(0.000404254 -1.03285e-05 -0 0.000392523 -0 0.000398205)
(0.000804194 -3.59415e-06 -0 0.000747218 -0 0.000776541)
(0.00100566 3.01105e-06 -0 0.000919245 -0 0.000962707)
(0.00111451 9.83778e-06 -0 0.00101435 -0 0.00106439)
(0.00117093 1.65351e-05 -0 0.00106745 -0 0.00111918)
(0.00119683 2.25838e-05 -0 0.00109708 -0 0.00114699)
(0.00120573 2.7962e-05 -0 0.0011148 -0 0.00116031)
(0.00120567 3.28981e-05 -0 0.00112745 -0 0.00116662)
(0.00120097 3.76427e-05 -0 0.0011386 -0 0.00116985)
(0.00119361 4.23331e-05 -0 0.00114997 -0 0.00117187)
(0.00118414 4.69101e-05 -0 0.00116208 -0 0.00117319)
(0.00117227 5.10646e-05 -0 0.00117465 -0 0.00117355)
(0.00115685 5.41374e-05 -0 0.00118629 -0 0.00117167)
(0.00113553 5.50944e-05 -0 0.00119372 -0 0.00116472)
(0.00110443 5.26384e-05 -0 0.00119089 -0 0.00114775)
(0.00105752 4.55344e-05 -0 0.0011678 -0 0.00111277)
(0.000986011 3.33784e-05 -0 0.0011091 -0 0.00104758)
(0.000875693 1.76562e-05 -0 0.000991447 -0 0.0009331)
(0.000695672 1.42216e-06 -0 0.000773946 -0 0.000733683)
(0.000377639 -1.38848e-05 -0 0.000395343 -0 0.000386709)
(0.000415302 -1.351e-05 -0 0.000402779 -0 0.000408844)
(0.000827456 -3.83553e-06 -0 0.000763959 -0 0.000796626)
(0.00103883 4.60253e-06 -0 0.00094057 -0 0.000989977)
(0.00115414 1.30214e-05 -0 0.00103938 -0 0.00109669)
(0.00121436 2.1464e-05 -0 0.00109531 -0 0.00115478)
(0.00124211 2.93286e-05 -0 0.00112679 -0 0.00118444)
(0.00125163 3.64777e-05 -0 0.00114548 -0 0.00119857)
(0.00125147 4.31201e-05 -0 0.00115849 -0 0.00120501)
(0.00124627 4.95649e-05 -0 0.00116969 -0 0.00120803)
(0.00123808 5.60232e-05 -0 0.00118102 -0 0.00120962)
(0.00122737 6.247e-05 -0 0.00119316 -0 0.00121036)
(0.00121367 6.85609e-05 -0 0.00120606 -0 0.00120999)
(0.00119533 7.34303e-05 -0 0.00121835 -0 0.001207)
(0.00116959 7.56549e-05 -0 0.00122673 -0 0.00119836)
(0.00113223 7.3377e-05 -0 0.00122488 -0 0.00117878)
(0.00107742 6.46834e-05 -0 0.00120216 -0 0.00114004)
(0.000997498 4.86737e-05 -0 0.00114186 -0 0.00106975)
(0.000880243 2.70231e-05 -0 0.00101858 -0 0.000948828)
(0.000696686 3.84868e-06 -0 0.000789796 -0 0.000741893)
(0.000384625 -1.8668e-05 -0 0.000405519 -0 0.000395324)
(0.00042364 -1.69034e-05 -0 0.000410167 -0 0.000416689)
(0.000841634 -4.08043e-06 -0 0.000771554 -0 0.000807606)
(0.00105943 6.4866e-06 -0 0.00094926 -0 0.00100466)
(0.00117896 1.66082e-05 -0 0.00104938 -0 0.00111411)
(0.00124153 2.66741e-05 -0 0.00110655 -0 0.00117396)
(0.0012703 3.61045e-05 -0 0.00113889 -0 0.00120456)
(0.00128012 4.47553e-05 -0 0.00115798 -0 0.00121904)
(0.00127995 5.28835e-05 -0 0.00117096 -0 0.00122547)
(0.00127464 6.09095e-05 -0 0.00118187 -0 0.00122829)
(0.00126622 6.9168e-05 -0 0.00119276 -0 0.00122956)
(0.00125508 7.77379e-05 -0 0.00120462 -0 0.00122994)
(0.00124031 8.63282e-05 -0 0.00121754 -0 0.00122905)
(0.00121979 9.39312e-05 -0 0.0012304 -0 0.00122531)
(0.0011901 9.87132e-05 -0 0.00124018 -0 0.00121545)
(0.00114654 9.8078e-05 -0 0.00124059 -0 0.00119396)
(0.0010834 8.89289e-05 -0 0.00122053 -0 0.00115239)
(0.000994553 6.90921e-05 -0 0.00116178 -0 0.0010783)
(0.000870955 3.99167e-05 -0 0.00103621 -0 0.000952845)
(0.000687282 7.314e-06 -0 0.00079916 -0 0.000741562)
(0.0003893 -2.43501e-05 -0 0.000414774 -0 0.000402345)
(0.000431398 -2.06021e-05 -0 0.000416697 -0 0.000423809)
(0.000852294 -4.45006e-06 -0 0.000774868 -0 0.000814699)
(0.00107448 8.51195e-06 -0 0.000951509 -0 0.00101335)
(0.00119665 2.04756e-05 -0 0.00105139 -0 0.00112397)
(0.00126042 3.20762e-05 -0 0.00110872 -0 0.00118448)
(0.00128953 4.27965e-05 -0 0.00114123 -0 0.00121533)
(0.00129941 5.25885e-05 -0 0.00116028 -0 0.00122981)
(0.00129938 6.18551e-05 -0 0.0011729 -0 0.00123613)
(0.00129442 7.1204e-05 -0 0.00118315 -0 0.0012388)
(0.00128652 8.11936e-05 -0 0.00119317 -0 0.00123991)
(0.00127591 9.2132e-05 -0 0.00120416 -0 0.00124012)
(0.00126122 0.000103784 -0 0.0012165 -0 0.00123898)
(0.00123964 0.00011526 -0 0.00122948 -0 0.00123484)
(0.00120682 0.000124491 -0 0.0012407 -0 0.00122422)
(0.00115712 0.00012782 -0 0.00124437 -0 0.00120138)
(0.00108444 0.000120281 -0 0.0012294 -0 0.00115767)
(0.00098434 9.70594e-05 -0 0.00117593 -0 0.00108044)
(0.000852548 5.80956e-05 -0 0.00105157 -0 0.000951153)
(0.000669643 1.2152e-05 -0 0.000806384 -0 0.000735882)
(0.000393177 -3.14014e-05 -0 0.00042529 -0 0.000409628)
(0.000439667 -2.47067e-05 -0 0.000423384 -0 0.000431259)
(0.000862477 -4.93785e-06 -0 0.000776408 -0 0.000820691)
(0.00108803 1.07337e-05 -0 0.000950712 -0 0.00101977)
(0.00121173 2.47041e-05 -0 0.00104951 -0 0.00113057)
(0.00127577 3.77436e-05 -0 0.00110643 -0 0.00119099)
(0.00130461 4.94223e-05 -0 0.00113874 -0 0.0012216)
(0.00131433 5.98833e-05 -0 0.00115746 -0 0.00123583)
(0.00131459 6.97788e-05 -0 0.00116941 -0 0.00124196)
(0.00131052 8.00004e-05 -0 0.00117855 -0 0.00124452)
(0.00130407 9.1423e-05 -0 0.00118705 -0 0.00124557)
(0.00129522 0.000104717 -0 0.00119627 -0 0.00124583)
(0.00128224 0.000119996 -0 0.00120685 -0 0.00124475)
(0.00126149 0.000136727 -0 0.00121875 -0 0.00124048)
(0.00122723 0.000152845 -0 0.00123049 -0 0.00122947)
(0.00117189 0.000163693 -0 0.00123769 -0 0.00120579)
(0.00108783 0.000161577 -0 0.00123035 -0 0.00116046)
(0.000971732 0.000136628 -0 0.00118722 -0 0.00108025)
(0.000826315 8.46105e-05 -0 0.00106866 -0 0.000946482)
(0.000644109 1.87904e-05 -0 0.000814551 -0 0.000726512)
(0.000397128 -4.05571e-05 -0 0.000438761 -0 0.000418502)
(0.00044907 -2.93275e-05 -0 0.000430767 -0 0.00043962)
(0.000873837 -5.43989e-06 -0 0.000777354 -0 0.000827011)
(0.00110232 1.34038e-05 -0 0.000948588 -0 0.00102591)
(0.00122664 2.95833e-05 -0 0.00104599 -0 0.00113627)
(0.00128999 4.39065e-05 -0 0.00110237 -0 0.00119604)
(0.00131789 5.6078e-05 -0 0.00113439 -0 0.00122603)
(0.00132715 6.65517e-05 -0 0.00115261 -0 0.00123978)
(0.00132782 7.6331e-05 -0 0.0011636 -0 0.00124562)
(0.00132518 8.66711e-05 -0 0.00117112 -0 0.00124807)
(0.00132119 9.885e-05 -0 0.00117725 -0 0.00124917)
(0.00131574 0.000114031 -0 0.00118332 -0 0.00124955)
(0.00130685 0.000133119 -0 0.00119026 -0 0.0012487)
(0.00129 0.000156351 -0 0.00119867 -0 0.00124462)
(0.00125768 0.000182218 -0 0.00120836 -0 0.00123374)
(0.00119905 0.000205899 -0 0.00121773 -0 0.00120989)
(0.00110207 0.000216246 -0 0.0012204 -0 0.00116369)
(0.000962112 0.000193971 -0 0.00119576 -0 0.00108064)
(0.000792242 0.00012403 -0 0.00109183 -0 0.000940841)
(0.000609298 2.71901e-05 -0 0.000826129 -0 0.000713695)
(0.000402075 -5.30871e-05 -0 0.000456852 -0 0.000430448)
(0.000460107 -3.45947e-05 -0 0.0004392 -0 0.000449322)
(0.000887452 -5.73348e-06 -0 0.000778231 -0 0.000834476)
(0.00111858 1.69852e-05 -0 0.000945996 -0 0.00103281)
(0.00124244 3.55901e-05 -0 0.00104212 -0 0.00114221)
(0.00130386 5.08785e-05 -0 0.00109816 -0 0.00120082)
(0.00132991 6.2835e-05 -0 0.00113 -0 0.0012298)
(0.00133824 7.23803e-05 -0 0.00114768 -0 0.00124282)
(0.00133929 8.09718e-05 -0 0.00115742 -0 0.00124821)
(0.00133851 9.02571e-05 -0 0.00116274 -0 0.00125047)
(0.00133801 0.000101944 -0 0.00116549 -0 0.00125159)
(0.00133783 0.000117831 -0 0.00116668 -0 0.00125214)
(0.00133622 0.000139872 -0 0.00116718 -0 0.00125164)
(0.00132821 0.000169675 -0 0.00116789 -0 0.00124813)
(0.00130439 0.000207955 -0 0.00117041 -0 0.001238)
(0.00124921 0.000251851 -0 0.00117742 -0 0.00121525)
(0.00114075 0.000287624 -0 0.00119147 -0 0.00117032)
(0.00096556 0.000279324 -0 0.00119905 -0 0.00108599)
(0.000752084 0.00018505 -0 0.00112878 -0 0.000938287)
(0.000564287 3.79218e-05 -0 0.000848092 -0 0.000698269)
(0.000410477 -7.14937e-05 -0 0.000483385 -0 0.000448358)
(0.000473372 -4.06778e-05 -0 0.000449042 -0 0.000460826)
(0.000904286 -5.38657e-06 -0 0.000779304 -0 0.00084371)
(0.00113744 2.21886e-05 -0 0.000943483 -0 0.00104108)
(0.00125911 4.33084e-05 -0 0.00103881 -0 0.00114887)
(0.00131682 5.88801e-05 -0 0.00109498 -0 0.00120565)
(0.00133971 6.95042e-05 -0 0.00112687 -0 0.00123309)
(0.00134637 7.68095e-05 -0 0.00114397 -0 0.00124498)
(0.0013475 8.27562e-05 -0 0.00115221 -0 0.00124965)
(0.00134867 8.93087e-05 -0 0.00115484 -0 0.00125151)
(0.00135235 9.84539e-05 -0 0.00115323 -0 0.00125248)
(0.00135923 0.000112504 -0 0.00114768 -0 0.00125308)
(0.00136855 0.000134612 -0 0.00113825 -0 0.00125308)
(0.00137633 0.000168844 -0 0.00112518 -0 0.00125064)
(0.00137294 0.000219946 -0 0.00111142 -0 0.00124217)
(0.0013376 0.000292165 -0 0.00110547 -0 0.00122274)
(0.00123049 0.000375974 -0 0.00112544 -0 0.0011854)
(0.00101247 0.000407765 -0 0.00117795 -0 0.00110858)
(0.000732624 0.000288875 -0 0.00116142 -0 0.000953858)
(0.000528081 6.5953e-05 -0 0.000881167 -0 0.000697296)
(0.000436804 -9.9284e-05 -0 0.000536977 -0 0.000488728)
(0.00048976 -4.77936e-05 -0 0.000460552 -0 0.000474789)
(0.000925371 -3.84098e-06 -0 0.000780645 -0 0.000855378)
(0.00115875 2.9841e-05 -0 0.000941618 -0 0.00105099)
(0.00127525 5.30893e-05 -0 0.00103703 -0 0.00115601)
(0.00132662 6.75623e-05 -0 0.00109383 -0 0.00120992)
(0.00134461 7.51546e-05 -0 0.00112587 -0 0.00123501)
(0.00134856 7.85019e-05 -0 0.00114227 -0 0.0012452)
(0.00134917 8.00465e-05 -0 0.00114892 -0 0.00124879)
(0.00135186 8.17924e-05 -0 0.00114872 -0 0.00124996)
(0.00135946 8.55728e-05 -0 0.00114239 -0 0.00125047)
(0.00137404 9.36229e-05 -0 0.00112905 -0 0.00125087)
(0.0013973 0.000109753 -0 0.00110659 -0 0.00125109)
(0.00142915 0.000141115 -0 0.00107267 -0 0.00125022)
(0.00146505 0.000198513 -0 0.00102813 -0 0.00124549)
(0.00148489 0.000297504 -0 0.000984628 -0 0.00123362)
(0.0014212 0.000447233 -0 0.000982634 -0 0.00121484)
(0.00117635 0.000543047 -0 0.00107241 -0 0.00115807)
(0.000815919 0.000393293 -0 0.00113596 -0 0.000998178)
(0.000578929 0.000109001 -0 0.000959025 -0 0.000771154)
(0.000539833 -0.000136541 -0 0.000726955 -0 0.000641829)
(0.000510371 -5.63681e-05 -0 0.000474964 -0 0.000491964)
(0.000950768 6.31259e-07 -0 0.000783158 -0 0.000869496)
(0.00118028 4.08577e-05 -0 0.000941855 -0 0.00106169)
(0.00128665 6.43868e-05 -0 0.00103825 -0 0.00116194)
(0.00132831 7.5081e-05 -0 0.00109583 -0 0.00121147)
(0.00133983 7.72278e-05 -0 0.00112786 -0 0.00123338)
(0.00134036 7.46351e-05 -0 0.00114346 -0 0.00124149)
(0.00133953 6.99951e-05 -0 0.00114844 -0 0.00124354)
(0.00134236 6.49272e-05 -0 0.00114571 -0 0.00124354)
(0.00135194 6.03572e-05 -0 0.00113554 -0 0.00124307)
(0.00137204 5.71455e-05 -0 0.00111569 -0 0.00124278)
(0.00140854 5.76669e-05 -0 0.00108083 -0 0.00124278)
(0.00146919 6.91731e-05 -0 0.00102297 -0 0.00124369)
(0.00156244 0.000105143 -0 0.000934399 -0 0.00124584)
(0.00168316 0.000191176 -0 0.000821226 -0 0.00124507)
(0.00170418 0.000370744 -0 0.000773809 -0 0.00123688)
(0.00139962 0.000491995 -0 0.000930313 -0 0.00117573)
(0.00102333 0.000371947 -0 0.00118673 -0 0.0011049)
(0.000910831 0.000169666 -0 0.00148181 -0 0.00117746)
(0.000868566 -0.000224603 -0 0.00146203 -0 0.00118945)
(0.000536802 -6.65133e-05 -0 0.000489599 -0 0.000513292)
(0.000979897 6.20986e-06 -0 0.00078531 -0 0.000886652)
(0.00119535 5.36039e-05 -0 0.000945643 -0 0.00107137)
(0.00128479 7.32574e-05 -0 0.00104442 -0 0.00116324)
(0.00131444 7.60426e-05 -0 0.00110264 -0 0.00120716)
(0.00131875 6.97627e-05 -0 0.00113333 -0 0.00122507)
(0.00131525 5.90794e-05 -0 0.00114657 -0 0.0012303)
(0.00131233 4.70088e-05 -0 0.00114951 -0 0.00123049)
(0.00131326 3.42166e-05 -0 0.00114512 -0 0.00122883)
(0.00132094 1.98744e-05 -0 0.001134 -0 0.00122703)
(0.00133998 1.78814e-06 -0 0.00111358 -0 0.0012258)
(0.00137954 -2.29981e-05 -0 0.00107649 -0 0.00122537)
(0.00145435 -5.56355e-05 -0 0.00101084 -0 0.00122875)
(0.00158665 -9.11217e-05 -0 0.000900858 -0 0.00124042)
(0.00178273 -8.61168e-05 -0 0.000746387 -0 0.00124169)
(0.00181027 7.20908e-05 -0 0.000707568 -0 0.00122275)
(0.0015105 0.000279402 -0 0.000959228 -0 0.00121744)
(0.00150915 0.000399957 -0 0.00159994 -0 0.00152866)
(0.00173899 0.000258997 -0 0.00267856 -0 0.00212205)
(0.00154618 -0.000577087 -0 0.00310544 -0 0.00232345)
(0.000568476 -7.99272e-05 -0 0.000518578 -0 0.000538724)
(0.000996631 2.82707e-05 -0 0.000805513 -0 0.000893247)
(0.00118701 6.93556e-05 -0 0.000968382 -0 0.0010679)
(0.00125645 7.11361e-05 -0 0.00106482 -0 0.00115326)
(0.00127446 5.76361e-05 -0 0.00111712 -0 0.00119175)
(0.00127208 3.97005e-05 -0 0.00114207 -0 0.001205)
(0.0012658 2.09536e-05 -0 0.00115132 -0 0.00120731)
(0.00126128 2.38636e-06 -0 0.00115136 -0 0.00120539)
(0.00125965 -1.65831e-05 -0 0.00114673 -0 0.00120254)
(0.00126196 -3.83468e-05 -0 0.00113916 -0 0.00120014)
(0.00127128 -6.82765e-05 -0 0.0011277 -0 0.00119929)
(0.00129449 -0.000115418 -0 0.00110861 -0 0.00120078)
(0.00134299 -0.000193724 -0 0.00107608 -0 0.00121013)
(0.00142734 -0.000310644 -0 0.00102548 -0 0.00123577)
(0.00155417 -0.000385517 -0 0.000939288 -0 0.00124191)
(0.00156992 -0.000218087 -0 0.000890931 -0 0.00117904)
(0.0014335 6.66686e-05 -0 0.000989648 -0 0.00120572)
(0.00175023 0.00027577 -0 0.00154498 -0 0.00168327)
(0.00244876 0.000303444 -0 0.00289678 -0 0.00266158)
(0.00245201 -0.00129002 -0 0.00467102 -0 0.00346565)
(0.00061413 -8.69054e-05 -0 0.000503997 -0 0.00057211)
(0.00104793 1.97405e-05 -0 0.000745515 -0 0.000953582)
(0.00118095 4.2285e-05 -0 0.000928937 -0 0.00110958)
(0.00121786 1.86258e-05 -0 0.00104336 -0 0.00116703)
(0.00122376 -8.97187e-06 -0 0.00109984 -0 0.0011874)
(0.00121789 -3.65039e-05 -0 0.0011277 -0 0.00119017)
(0.00121054 -6.35932e-05 -0 0.00114063 -0 0.00118788)
(0.00120508 -8.88527e-05 -0 0.00114557 -0 0.00118461)
(0.00120202 -0.000112635 -0 0.00114793 -0 0.0011822)
(0.00120003 -0.000137864 -0 0.00115122 -0 0.00118161)
(0.00119892 -0.000169622 -0 0.00115824 -0 0.0011839)
(0.0012005 -0.000217525 -0 0.00117299 -0 0.00119177)
(0.00120568 -0.000295876 -0 0.00120408 -0 0.0012123)
(0.0012064 -0.000418048 -0 0.00126361 -0 0.00125414)
(0.00119139 -0.000506285 -0 0.00131797 -0 0.00128109)
(0.00119384 -0.000431872 -0 0.00125558 -0 0.00120343)
(0.00113281 -0.000127359 -0 0.00108989 -0 0.00113852)
(0.00162161 0.000119374 -0 0.00123003 -0 0.00148639)
(0.00306528 0.000512277 -0 0.00225551 -0 0.00282755)
(0.00357852 -0.00188346 -0 0.00514165 -0 0.00422575)
(0.000639424 -0.000145609 -0 0.000616199 -0 0.000591415)
(0.000896324 6.78927e-05 -0 0.00105055 -0 0.00085106)
(0.00101275 2.02657e-05 -0 0.0012403 -0 0.00101192)
(0.0010973 -6.22441e-05 -0 0.00127141 -0 0.00110802)
(0.00114229 -0.000136566 -0 0.00127634 -0 0.00115719)
(0.00116403 -0.000191341 -0 0.00127988 -0 0.00118428)
(0.00118138 -0.000234794 -0 0.0012825 -0 0.00120398)
(0.00119904 -0.00026975 -0 0.00128606 -0 0.00122121)
(0.00121668 -0.000299191 -0 0.00129336 -0 0.00123815)
(0.00123343 -0.000326056 -0 0.0013061 -0 0.00125615)
(0.00124851 -0.000353513 -0 0.0013266 -0 0.00127665)
(0.0012621 -0.000386739 -0 0.00135976 -0 0.0013021)
(0.00127068 -0.000433557 -0 0.00141863 -0 0.00133877)
(0.00126856 -0.000502736 -0 0.00152308 -0 0.00139414)
(0.00121581 -0.000556624 -0 0.00167139 -0 0.0014507)
(0.00115968 -0.000501286 -0 0.00170214 -0 0.00140185)
(0.00103233 -0.000248328 -0 0.00155017 -0 0.00132331)
(0.00150754 -7.88839e-05 -0 0.0013237 -0 0.00138073)
(0.00318476 0.000778464 -0 0.00189875 -0 0.00264805)
(0.00510262 -0.00220314 -0 0.00487889 -0 0.00502769)
(0.000828972 -0.000146132 -0 0.000609399 -0 0.000779362)
(0.00121114 -0.000210675 -0 0.00105786 -0 0.0012452)
(0.00142262 -0.000341649 -0 0.00144474 -0 0.0015096)
(0.00157432 -0.000426175 -0 0.00166838 -0 0.00167092)
(0.00167621 -0.000473905 -0 0.00180092 -0 0.00177631)
(0.00176863 -0.000517897 -0 0.00189696 -0 0.00186174)
(0.00185789 -0.000565743 -0 0.00198353 -0 0.00194383)
(0.0019445 -0.000614844 -0 0.00206588 -0 0.0020242)
(0.0020285 -0.000663789 -0 0.0021462 -0 0.0021036)
(0.00211036 -0.000712553 -0 0.0022263 -0 0.0021828)
(0.00218915 -0.000760864 -0 0.00230724 -0 0.00226137)
(0.00226113 -0.000808142 -0 0.00238909 -0 0.00233689)
(0.00231833 -0.000853246 -0 0.00247338 -0 0.00240617)
(0.00235518 -0.000893602 -0 0.00256221 -0 0.00246363)
(0.00234226 -0.000910711 -0 0.00265477 -0 0.00250012)
(0.00232906 -0.000864705 -0 0.00266251 -0 0.00245732)
(0.00220623 -0.000693974 -0 0.0025939 -0 0.002438)
(0.00295561 -0.000589727 -0 0.00248587 -0 0.00257718)
(0.00374463 0.000378623 -0 0.00278111 -0 0.00342235)
(0.00731156 -0.00348469 -0 0.00440619 -0 0.00619264)
(0.00212922 -0.00790169 -0 0.00374119 -0 0.00290496)
(0.00391917 -0.00869697 -0 0.00511228 -0 0.00436195)
(0.00525743 -0.00977198 -0 0.00631909 -0 0.00575005)
(0.00609139 -0.0103363 -0 0.00698224 -0 0.0065137)
(0.00660401 -0.010598 -0 0.00734741 -0 0.00694521)
(0.00691978 -0.0107096 -0 0.00756625 -0 0.00721697)
(0.00711582 -0.0107376 -0 0.00769804 -0 0.00738824)
(0.00723736 -0.0107157 -0 0.00777081 -0 0.00748976)
(0.00731341 -0.0106654 -0 0.00780671 -0 0.00754806)
(0.00736352 -0.0105999 -0 0.00782242 -0 0.0075827)
(0.00740238 -0.0105296 -0 0.00783093 -0 0.00760802)
(0.0074319 -0.0104553 -0 0.00783347 -0 0.00762532)
(0.00745858 -0.0103836 -0 0.00784139 -0 0.00764451)
(0.00746507 -0.0102935 -0 0.00783181 -0 0.00764006)
(0.00744331 -0.0101982 -0 0.00782468 -0 0.00763182)
(0.00748421 -0.0100476 -0 0.0077378 -0 0.00756642)
(0.00740923 -0.0100227 -0 0.00775976 -0 0.00767429)
(0.00852185 -0.00978261 -0 0.00704334 -0 0.00732208)
(0.00718956 -0.0106474 -0 0.00815425 -0 0.00870586)
(0.0124938 -0.00966383 -0 0.0027594 -0 0.00656689)
)
;

boundaryField
{
    movingWall
    {
        type            kqRWallFunction;
        value           nonuniform List<symmTensor> 
20
(
(0.00292513 -0 -0 0.00292513 -0 0.00292513)
(0.00446447 -0 -0 0.00446447 -0 0.00446447)
(0.0057608 -0.000297037 -0 0.00579719 -0 0.00576858)
(0.00651166 -0.000482347 -0 0.00655363 -0 0.00652204)
(0.00694949 -0.000577969 -0 0.00698775 -0 0.00695938)
(0.00721981 -0.000630676 -0 0.00725404 -0 0.00722916)
(0.00738743 -0.000658809 -0 0.00741827 -0 0.0073964)
(0.00748714 -0.000671657 -0 0.00751512 -0 0.00749567)
(0.00754486 -0.000675602 -0 0.00757042 -0 0.0075529)
(0.00757919 -0.0006749 -0 0.00760269 -0 0.00758677)
(0.00760417 -0.000672584 -0 0.00762584 -0 0.00761133)
(0.00762134 -0.000668993 -0 0.00764125 -0 0.0076281)
(0.00763988 -0.000666022 -0 0.00765819 -0 0.00764641)
(0.00763811 -0.000659044 -0 0.00765456 -0 0.00764426)
(0.00762593 -0.000650729 -0 0.00764133 -0 0.00763254)
(0.00759196 -0.000635962 -0 0.00760165 -0 0.00759482)
(0.00760683 -0.000640143 -0 0.00762037 -0 0.00761608)
(0.00765894 -0.00062405 -0 0.00761138 -0 0.00761695)
(0.00797737 -0.000789969 -0 0.00803722 -0 0.00803509)
(0.00744946 -0.000482627 -0 0.00711011 -0 0.0072605)
)
;
    }
    fixedWalls
    {
        type            kqRWallFunction;
        value           nonuniform List<symmTensor> 
60
(
(0.000236268 -0 -0 0.000236268 -0 0.000236268)
(0.000300236 -0 -0 0.000300236 -0 0.000300236)
(0.000351042 -0 -0 0.000351042 -0 0.000351042)
(0.000381086 -0 -0 0.000381086 -0 0.000381086)
(0.000398327 -0 -0 0.000398327 -0 0.000398327)
(0.000408975 -0 -0 0.000408975 -0 0.000408975)
(0.000416832 -0 -0 0.000416832 -0 0.000416832)
(0.000423968 -0 -0 0.000423968 -0 0.000423968)
(0.000431437 -0 -0 0.000431437 -0 0.000431437)
(0.000439819 -0 -0 0.000439819 -0 0.000439819)
(0.000449543 -0 -0 0.000449543 -0 0.000449543)
(0.00046108 -0 -0 0.00046108 -0 0.00046108)
(0.000475034 -0 -0 0.000475034 -0 0.000475034)
(0.000492433 -0 -0 0.000492433 -0 0.000492433)
(0.000513231 -0 -0 0.000513231 -0 0.000513231)
(0.000541926 -0 -0 0.000541926 -0 0.000541926)
(0.000563412 -0 -0 0.000563412 -0 0.000563412)
(0.00061568 -0 -0 0.00061568 -0 0.00061568)
(0.000739245 -0 -0 0.000739245 -0 0.000739245)
(0.00292513 -0 -0 0.00292513 -0 0.00292513)
(0.000236764 -0 -0 0.000236764 -0 0.000236764)
(0.000300333 -0 -0 0.000300333 -0 0.000300333)
(0.000346684 -0 -0 0.000346684 -0 0.000346684)
(0.000372527 -0 -0 0.000372527 -0 0.000372527)
(0.000386564 -0 -0 0.000386564 -0 0.000386564)
(0.000395156 -0 -0 0.000395156 -0 0.000395156)
(0.00040214 -0 -0 0.00040214 -0 0.00040214)
(0.000409365 -0 -0 0.000409365 -0 0.000409365)
(0.00041813 -0 -0 0.00041813 -0 0.00041813)
(0.000429792 -0 -0 0.000429792 -0 0.000429792)
(0.000447407 -0 -0 0.000447407 -0 0.000447407)
(0.000487503 -0 -0 0.000487503 -0 0.000487503)
(0.000636206 -0 -0 0.000636206 -0 0.000636206)
(0.00117335 -0 -0 0.00117335 -0 0.00117335)
(0.00232503 -0 -0 0.00232503 -0 0.00232503)
(0.00352956 -0 -0 0.00352956 -0 0.00352956)
(0.00431531 -0 -0 0.00431531 -0 0.00431531)
(0.00500229 -2.6844e-05 -0 0.00500311 -0 0.0050038)
(0.00601663 -0.000124333 -0 0.00593059 -0 0.00596317)
(0.00768911 -0.000364712 -0 0.00700479 -0 0.00712618)
(0.000236268 0 -0 0.000236268 -0 0.000236268)
(0.00029954 0 -0 0.00029954 -0 0.00029954)
(0.00034563 0 -0 0.00034563 -0 0.00034563)
(0.000371204 0 -0 0.000371204 -0 0.000371204)
(0.000384713 0 -0 0.000384713 -0 0.000384713)
(0.000392189 0 -0 0.000392189 -0 0.000392189)
(0.000396877 0 -0 0.000396877 -0 0.000396877)
(0.00040025 0 -0 0.00040025 -0 0.00040025)
(0.000402867 0 -0 0.000402867 -0 0.000402867)
(0.000404868 0 -0 0.000404868 -0 0.000404868)
(0.0004063 0 -0 0.0004063 -0 0.0004063)
(0.000407396 0 -0 0.000407396 -0 0.000407396)
(0.000407722 0 -0 0.000407722 -0 0.000407722)
(0.000406847 0 -0 0.000406847 -0 0.000406847)
(0.000403746 0 -0 0.000403746 -0 0.000403746)
(0.000396424 0 -0 0.000396424 -0 0.000396424)
(0.000381141 0 -0 0.000381141 -0 0.000381141)
(0.000351836 0 -0 0.000351836 -0 0.000351836)
(0.000300788 0 -0 0.000300788 -0 0.000300788)
(0.000236764 0 -0 0.000236764 -0 0.000236764)
)
;
    }
    frontAndBack
    {
        type            empty;
    }
}


// ************************************************************************* //
