/*--------------------------------*- C++ -*----------------------------------*\
| =========                 |                                                 |
| \\      /  F ield         | OpenFOAM: The Open Source CFD Toolbox           |
|  \\    /   O peration     | Version:  2312                                  |
|   \\  /    A nd           | Website:  www.openfoam.com                      |
|    \\/     M anipulation  |                                                 |
\*---------------------------------------------------------------------------*/
FoamFile
{
    version     2.0;
    format      ascii;
    arch        "LSB;label=32;scalar=64";
    class       volScalarField;
    location    "0.5";
    object      turbulenceProperties:k;
}
// * * * * * * * * * * * * * * * * * * * * * * * * * * * * * * * * * * * * * //

dimensions      [0 2 -2 0 0 0 0];

internalField   nonuniform List<scalar> 
400
(
0.000354402
0.00044931
0.000518445
0.000556805
0.000577069
0.000588284
0.000595315
0.000600375
0.000604301
0.000607302
0.000609451
0.000611094
0.000611584
0.000610271
0.000605619
0.000594635
0.000571711
0.000527754
0.000451182
0.000355146
0.000450354
0.000803457
0.000981556
0.00107402
0.00112055
0.00114359
0.0011557
0.00116337
0.00116954
0.00117523
0.00118054
0.00118485
0.00118742
0.00118698
0.00117894
0.00115524
0.00110207
0.000997102
0.000800851
0.0004505
0.000526564
0.000999733
0.00123001
0.00135169
0.00141449
0.00144554
0.00146082
0.00146905
0.00147459
0.00147921
0.00148338
0.00148666
0.00148785
0.00148419
0.0014697
0.00143422
0.00136128
0.00122467
0.000975488
0.000520026
0.000571629
0.00110669
0.00136773
0.0015082
0.00158246
0.00161971
0.00163772
0.00164667
0.00165185
0.00165563
0.00165872
0.00166056
0.00165977
0.00165254
0.00163209
0.00158708
0.00149989
0.00134266
0.00106273
0.000558791
0.000597491
0.00116398
0.00144381
0.00159662
0.00167878
0.00172045
0.00174042
0.00174987
0.00175471
0.00175773
0.00175971
0.00176023
0.0017574
0.00174698
0.00172153
0.00166905
0.00157134
0.00140012
0.00110165
0.000579845
0.000613462
0.00119402
0.00148469
0.0016451
0.00173223
0.00177667
0.00179784
0.00180748
0.00181199
0.00181436
0.00181544
0.00181486
0.00181034
0.00179734
0.00176795
0.00170981
0.00160455
0.00142382
0.00111419
0.000592734
0.000625248
0.0012104
0.00150668
0.00167123
0.00176102
0.00180687
0.00182857
0.00183819
0.0018424
0.00184428
0.00184482
0.00184346
0.00183775
0.00182286
0.00179054
0.00172816
0.00161732
0.00143
0.001114
0.00060321
0.000635952
0.00122093
0.00151967
0.001686
0.00177681
0.00182305
0.00184475
0.00185421
0.00185818
0.0018598
0.0018601
0.00185835
0.00185198
0.00183587
0.00180144
0.00173576
0.00162036
0.00142764
0.00110595
0.000614048
0.000647156
0.00122979
0.00152926
0.00169591
0.0017866
0.00183248
0.00185381
0.00186298
0.00186679
0.00186835
0.00186866
0.00186692
0.00186036
0.0018436
0.00180769
0.00173932
0.0016196
0.00142073
0.00109259
0.000627195
0.000659729
0.0012391
0.00153841
0.00170445
0.0017942
0.00183915
0.00185977
0.00186852
0.00187218
0.0018738
0.00187431
0.00187291
0.00186665
0.00184989
0.00181333
0.00174308
0.00161926
0.00141246
0.00107456
0.000644688
0.000674315
0.00125008
0.00154869
0.00171338
0.00180142
0.00184485
0.00186437
0.00187246
0.00187586
0.00187755
0.00187832
0.00187752
0.00187211
0.0018564
0.00182094
0.00175127
0.0016253
0.00140958
0.00105532
0.00067111
0.00069162
0.00126365
0.001561
0.0017234
0.00180872
0.00184983
0.00186766
0.00187468
0.0018775
0.00187903
0.00187999
0.00187994
0.00187607
0.00186326
0.00183291
0.00177067
0.0016495
0.00142395
0.00105327
0.000731255
0.000712551
0.0012807
0.00157568
0.00173414
0.00181519
0.00185274
0.00186801
0.00187344
0.00187527
0.00187616
0.00187698
0.00187749
0.00187602
0.00186934
0.00185157
0.00180934
0.00170342
0.00147503
0.00115455
0.000954309
0.00073865
0.00130171
0.00159191
0.00174342
0.00181781
0.00185054
0.00186266
0.00186575
0.00186581
0.00186527
0.00186525
0.00186607
0.00186792
0.00187134
0.00187473
0.00185743
0.00175283
0.00165748
0.00178505
0.00176002
0.000769847
0.00132593
0.00160618
0.00174622
0.00181212
0.00183857
0.00184606
0.00184617
0.0018436
0.00184098
0.00183968
0.0018407
0.00184697
0.00186396
0.00188541
0.00187029
0.00184358
0.00231888
0.0032698
0.00348754
0.000812889
0.0013477
0.00161165
0.00173727
0.00179166
0.00180957
0.00181222
0.00180901
0.00180446
0.00180063
0.00179913
0.00180194
0.0018146
0.00184429
0.00186769
0.00181994
0.00181443
0.00248924
0.00400356
0.00529434
0.000845118
0.00137351
0.00160973
0.00171413
0.0017555
0.00176788
0.00176952
0.00176763
0.00176608
0.00176643
0.00177053
0.00178263
0.00181103
0.00186208
0.00189522
0.00182643
0.00168061
0.00216902
0.00407417
0.00647296
0.000923519
0.00139897
0.00163249
0.00173836
0.00178791
0.0018141
0.00183393
0.00185315
0.00187409
0.00189784
0.00192588
0.00196198
0.00201404
0.00209289
0.00216895
0.00213184
0.00195291
0.00210598
0.00386578
0.0075046
0.00110887
0.0017571
0.00218848
0.00245681
0.00262672
0.00276367
0.00289262
0.00301729
0.00313915
0.00325973
0.00337888
0.00349356
0.00359894
0.00369051
0.00374858
0.00372445
0.00361907
0.00400933
0.00497405
0.00895519
0.00438769
0.0066967
0.00866329
0.00979367
0.0104483
0.0108515
0.011101
0.011249
0.0113341
0.0113843
0.0114207
0.0114453
0.0114722
0.0114685
0.0114499
0.0113942
0.0114216
0.0114436
0.0120248
0.01091
)
;

boundaryField
{
    movingWall
    {
        type            kqRWallFunction;
        value           nonuniform List<scalar> 
20
(
0.00438769
0.0066967
0.00866329
0.00979367
0.0104483
0.0108515
0.011101
0.011249
0.0113341
0.0113843
0.0114207
0.0114453
0.0114722
0.0114685
0.0114499
0.0113942
0.0114216
0.0114436
0.0120248
0.01091
)
;
    }
    fixedWalls
    {
        type            kqRWallFunction;
        value           nonuniform List<scalar> 
60
(
0.000354402
0.000450354
0.000526564
0.000571629
0.000597491
0.000613462
0.000625248
0.000635952
0.000647156
0.000659729
0.000674315
0.00069162
0.000712551
0.00073865
0.000769847
0.000812889
0.000845118
0.000923519
0.00110887
0.00438769
0.000355146
0.0004505
0.000520026
0.000558791
0.000579845
0.000592734
0.00060321
0.000614048
0.000627195
0.000644688
0.00067111
0.000731255
0.000954309
0.00176002
0.00348754
0.00529434
0.00647296
0.0075046
0.00895519
0.01091
0.000354402
0.00044931
0.000518445
0.000556805
0.000577069
0.000588284
0.000595315
0.000600375
0.000604301
0.000607302
0.000609451
0.000611094
0.000611584
0.000610271
0.000605619
0.000594635
0.000571711
0.000527754
0.000451182
0.000355146
)
;
    }
    frontAndBack
    {
        type            empty;
    }
}


// ************************************************************************* //
