/*--------------------------------*- C++ -*----------------------------------*\
| =========                 |                                                 |
| \\      /  F ield         | OpenFOAM: The Open Source CFD Toolbox           |
|  \\    /   O peration     | Version:  2312                                  |
|   \\  /    A nd           | Website:  www.openfoam.com                      |
|    \\/     M anipulation  |                                                 |
\*---------------------------------------------------------------------------*/
FoamFile
{
    version     2.0;
    format      ascii;
    arch        "LSB;label=32;scalar=64";
    class       volScalarField;
    location    "0.5";
    object      turbulenceProperties:L;
}
// * * * * * * * * * * * * * * * * * * * * * * * * * * * * * * * * * * * * * //

dimensions      [0 1 0 0 0 0 0];

internalField   nonuniform List<scalar> 
400
(
0.00100572
0.00100795
0.00100962
0.0010108
0.0010116
0.00101215
0.00101253
0.00101281
0.00101303
0.00101322
0.00101335
0.00101343
0.00101346
0.00101338
0.00101309
0.00101251
0.00101155
0.00101012
0.00100806
0.00100586
0.00100794
0.00245513
0.00301147
0.00326433
0.00338941
0.00345272
0.00348722
0.00351042
0.00353057
0.00355063
0.00357019
0.00358513
0.00359483
0.00359659
0.00357728
0.00351501
0.00337244
0.00308089
0.00244327
0.00100812
0.0010099
0.00308928
0.00403686
0.00450003
0.00473647
0.00485511
0.00491493
0.00494826
0.00497143
0.00499116
0.00500887
0.00502245
0.00502748
0.00501308
0.00495649
0.00481961
0.00454085
0.00401371
0.0029821
0.00100983
0.00101132
0.00338596
0.00456691
0.00517199
0.00549004
0.00565134
0.00573077
0.00577109
0.00579485
0.00581211
0.00582567
0.00583318
0.00582869
0.00579518
0.0057037
0.00550676
0.00513121
0.00445537
0.00320972
0.00101104
0.00101235
0.00353809
0.00485503
0.00554969
0.00592245
0.00611334
0.00620607
0.00625062
0.00627373
0.00628792
0.00629646
0.00629758
0.00628244
0.00623139
0.0061111
0.00586903
0.00542742
0.00466026
0.00329774
0.0010119
0.00101307
0.0036144
0.00500838
0.00575608
0.00616228
0.00637144
0.00647208
0.00651836
0.00654006
0.00655096
0.00655475
0.00654968
0.00652506
0.00645936
0.00631655
0.00604194
0.00555707
0.00473432
0.00330856
0.00101256
0.00101358
0.00365131
0.00508801
0.00586462
0.0062886
0.00650704
0.00661116
0.00665745
0.00667738
0.00668527
0.0066855
0.00667512
0.00664284
0.0065655
0.00640532
0.00610677
0.0055925
0.00473492
0.00327677
0.00101316
0.00101397
0.00366963
0.00513097
0.00592182
0.00635321
0.00657458
0.006679
0.00672426
0.00674245
0.00674804
0.00674557
0.00673111
0.0066925
0.00660546
0.00643058
0.00611198
0.00557427
0.00469075
0.00320982
0.00101383
0.00101431
0.0036807
0.00515832
0.00595533
0.00638771
0.00660792
0.00671059
0.00675416
0.0067708
0.00677472
0.00677014
0.00675245
0.00670773
0.00661106
0.00642065
0.00608064
0.0055176
0.00460641
0.00310816
0.00101469
0.00101462
0.00369019
0.00518101
0.00597991
0.00640929
0.00662567
0.00672514
0.00676652
0.00678167
0.00678423
0.00677756
0.00675659
0.0067055
0.00659589
0.00638595
0.00601591
0.00541611
0.00446851
0.00295827
0.00101596
0.00101494
0.00370085
0.00520431
0.00600242
0.00642568
0.00663604
0.00673097
0.00676945
0.00678275
0.00678372
0.00677433
0.00674892
0.00668901
0.00656236
0.00631982
0.00589704
0.00523068
0.00422415
0.00272037
0.00101856
0.00101527
0.00371416
0.00523024
0.00602456
0.00643807
0.00663951
0.00672786
0.00676195
0.00677216
0.00677023
0.00675668
0.00672427
0.00665036
0.00649482
0.0061944
0.00566777
0.00484028
0.00368559
0.00226273
0.00102739
0.0010156
0.00373068
0.00525771
0.00604233
0.00643952
0.00662651
0.00670419
0.00673131
0.00673607
0.00672843
0.0067079
0.00666341
0.00656623
0.0063585
0.00594027
0.00518643
0.00403138
0.0026364
0.00150595
0.00105462
0.00101592
0.00374836
0.00527888
0.00603904
0.00640593
0.00656903
0.00663004
0.0066436
0.00663658
0.0066173
0.00658425
0.00652232
0.00639024
0.00609252
0.00545546
0.00431479
0.00278339
0.00157362
0.00113946
0.00108134
0.00101613
0.0037597
0.00526552
0.00596595
0.00628027
0.006401
0.00642755
0.00641457
0.00638287
0.00634173
0.00628941
0.00620665
0.00603944
0.00564396
0.0047255
0.00323796
0.00185146
0.00131617
0.00116742
0.00106524
0.0010164
0.00372735
0.00513023
0.00571243
0.0059213
0.00595582
0.00591859
0.00585322
0.00577964
0.00570481
0.00562823
0.00553388
0.00537339
0.00500298
0.00410525
0.00267147
0.00154124
0.00124565
0.00118786
0.00103876
0.00101631
0.00357321
0.00466273
0.00496709
0.00498295
0.00488952
0.00476278
0.00463166
0.00450976
0.00440038
0.0043048
0.00422306
0.00414323
0.00399699
0.00358528
0.00274941
0.00179044
0.0013689
0.00118805
0.00102686
0.00101669
0.00293258
0.00328703
0.00321495
0.00306945
0.0029103
0.00276524
0.00264201
0.00253943
0.00245464
0.0023871
0.00234029
0.00232134
0.00233488
0.00234561
0.00222511
0.0018899
0.00152738
0.00123311
0.00102409
0.00101845
0.00144671
0.00134544
0.00128466
0.00124828
0.00122571
0.00121529
0.00121346
0.00121657
0.00122227
0.00122927
0.00123741
0.00124667
0.00125961
0.00127994
0.00128318
0.00126147
0.00115206
0.00107174
0.00102362
0.00102385
0.0010242
0.00102417
0.00102424
0.00102429
0.0010243
0.00102422
0.00102399
0.00102359
0.00102298
0.00102223
0.00102139
0.00102062
0.00101992
0.00101974
0.00101958
0.00101975
0.00102011
0.00102075
0.00102182
)
;

boundaryField
{
    movingWall
    {
        type            calculated;
        value           nonuniform List<scalar> 
20
(
0.00102385
0.0010242
0.00102417
0.00102424
0.00102429
0.0010243
0.00102422
0.00102399
0.00102359
0.00102298
0.00102223
0.00102139
0.00102062
0.00101992
0.00101974
0.00101958
0.00101975
0.00102011
0.00102075
0.00102182
)
;
    }
    fixedWalls
    {
        type            calculated;
        value           nonuniform List<scalar> 
60
(
0.00100572
0.00100794
0.0010099
0.00101132
0.00101235
0.00101307
0.00101358
0.00101397
0.00101431
0.00101462
0.00101494
0.00101527
0.0010156
0.00101592
0.00101613
0.0010164
0.00101631
0.00101669
0.00101845
0.00102385
0.00100586
0.00100812
0.00100983
0.00101104
0.0010119
0.00101256
0.00101316
0.00101383
0.00101469
0.00101596
0.00101856
0.00102739
0.00105462
0.00108134
0.00106524
0.00103876
0.00102686
0.00102409
0.00102362
0.00102182
0.00100572
0.00100795
0.00100962
0.0010108
0.0010116
0.00101215
0.00101253
0.00101281
0.00101303
0.00101322
0.00101335
0.00101343
0.00101346
0.00101338
0.00101309
0.00101251
0.00101155
0.00101012
0.00100806
0.00100586
)
;
    }
    frontAndBack
    {
        type            empty;
    }
}


// ************************************************************************* //
