/*--------------------------------*- C++ -*----------------------------------*\
| =========                 |                                                 |
| \\      /  F ield         | OpenFOAM: The Open Source CFD Toolbox           |
|  \\    /   O peration     | Version:  2312                                  |
|   \\  /    A nd           | Website:  www.openfoam.com                      |
|    \\/     M anipulation  |                                                 |
\*---------------------------------------------------------------------------*/
FoamFile
{
    version     2.0;
    format      ascii;
    arch        "LSB;label=32;scalar=64";
    class       volVectorField;
    location    "0.5";
    object      UMean;
}
// * * * * * * * * * * * * * * * * * * * * * * * * * * * * * * * * * * * * * //

dimensions      [0 1 -1 0 0 0 0];

internalField   nonuniform List<vector> 
400
(
(-0.000143584 0.00014388 0)
(-0.000502781 0.000249763 0)
(-0.0010046 0.000292092 0)
(-0.00150865 0.000283911 0)
(-0.00197896 0.00025455 0)
(-0.00239466 0.000218118 0)
(-0.00274563 0.000178559 0)
(-0.00302538 0.000136445 0)
(-0.00322947 9.13214e-05 0)
(-0.00335067 4.40696e-05 0)
(-0.00338666 -4.43473e-06 0)
(-0.00333364 -5.65483e-05 0)
(-0.00318749 -0.000109442 0)
(-0.00294766 -0.000162963 0)
(-0.00261466 -0.000216038 0)
(-0.00219275 -0.000266318 0)
(-0.0016933 -0.000307476 0)
(-0.00114238 -0.000322699 0)
(-0.000584568 -0.000280522 0)
(-0.000171073 -0.000169157 0)
(-0.000252847 0.000504068 0)
(-0.000711544 0.000701871 0)
(-0.00122474 0.000769654 0)
(-0.00174142 0.000751268 0)
(-0.00222968 0.000685375 0)
(-0.00266926 0.000595151 0)
(-0.00304586 0.000491024 0)
(-0.0033488 0.000376901 0)
(-0.00357014 0.000254082 0)
(-0.00370323 0.000123768 0)
(-0.00374291 -1.27837e-05 0)
(-0.00368505 -0.000154544 0)
(-0.00352728 -0.000299444 0)
(-0.00326952 -0.000444376 0)
(-0.00291513 -0.000584585 0)
(-0.00247262 -0.000711681 0)
(-0.00195698 -0.000809998 0)
(-0.00139253 -0.000851157 0)
(-0.000817739 -0.000792581 0)
(-0.000290521 -0.000587835 0)
(-0.000314086 0.00102428 0)
(-0.000826824 0.00122531 0)
(-0.00135349 0.0012764 0)
(-0.00187572 0.00123792 0)
(-0.00236843 0.00113742 0)
(-0.00281498 0.000996109 0)
(-0.00320109 0.000827094 0)
(-0.0035146 0.000637569 0)
(-0.00374597 0.000431474 0)
(-0.00388766 0.000211631 0)
(-0.0039337 -1.9395e-05 0)
(-0.0038796 -0.000258779 0)
(-0.00372282 -0.000502247 0)
(-0.00346346 -0.000743552 0)
(-0.00310561 -0.000973287 0)
(-0.00265835 -0.00117722 0)
(-0.00213577 -0.00133442 0)
(-0.0015581 -0.00141631 0)
(-0.000957 -0.00138971 0)
(-0.000359785 -0.00118628 0)
(-0.000340012 0.00159069 0)
(-0.000896876 0.00179597 0)
(-0.00145993 0.00182032 0)
(-0.0020108 0.00175271 0)
(-0.00252645 0.00161328 0)
(-0.00299277 0.00141911 0)
(-0.00339716 0.00118379 0)
(-0.00372784 0.000916781 0)
(-0.00397489 0.000624322 0)
(-0.00413026 0.00031099 0)
(-0.00418735 -1.91493e-05 0)
(-0.00414092 -0.000361458 0)
(-0.00398742 -0.000709438 0)
(-0.00372589 -0.00105356 0)
(-0.003359 -0.00137994 0)
(-0.00289385 -0.00166929 0)
(-0.00234169 -0.00189695 0)
(-0.00172045 -0.00203499 0)
(-0.00106149 -0.00205387 0)
(-0.000396972 -0.00184811 0)
(-0.000358269 0.00219366 0)
(-0.000959755 0.00241271 0)
(-0.00157385 0.00240796 0)
(-0.00217209 0.00230447 0)
(-0.00272908 0.0021202 0)
(-0.00323072 0.00186915 0)
(-0.00366573 0.00156461 0)
(-0.00402336 0.00121751 0)
(-0.00429413 0.000835894 0)
(-0.00446991 0.000425816 0)
(-0.00454356 -7.41017e-06 0)
(-0.00450875 -0.000457759 0)
(-0.00436019 -0.000916897 0)
(-0.00409446 -0.00137242 0)
(-0.00371113 -0.00180641 0)
(-0.00321374 -0.00219491 0)
(-0.0026105 -0.00250931 0)
(-0.00191965 -0.0027195 0)
(-0.00117801 -0.00279203 0)
(-0.000433927 -0.00257396 0)
(-0.000382844 0.00283723 0)
(-0.00103759 0.00308394 0)
(-0.00171512 0.00305201 0)
(-0.0023757 0.00290786 0)
(-0.00298943 0.00267211 0)
(-0.00354046 0.00235803 0)
(-0.00401814 0.00197923 0)
(-0.00441281 0.00154784 0)
(-0.00471589 0.00107324 0)
(-0.00491963 0.000562431 0)
(-0.00501648 2.12883e-05 0)
(-0.00499878 -0.000543632 0)
(-0.00485876 -0.00112301 0)
(-0.00458929 -0.00170241 0)
(-0.00418521 -0.00226049 0)
(-0.00364491 -0.00276845 0)
(-0.00297286 -0.00319174 0)
(-0.00218872 -0.00349311 0)
(-0.00133764 -0.00362703 0)
(-0.000487644 -0.00338335 0)
(-0.000418471 0.00353607 0)
(-0.00114116 0.00382347 0)
(-0.00189617 0.00376671 0)
(-0.00263331 0.00357776 0)
(-0.00331738 0.0032833 0)
(-0.00393006 0.00289849 0)
(-0.004461 0.00243856 0)
(-0.00490192 0.00191717 0)
(-0.00524566 0.00134472 0)
(-0.00548536 0.000728441 0)
(-0.00561345 7.38198e-05 0)
(-0.00562086 -0.000613289 0)
(-0.00549668 -0.00132408 0)
(-0.00522879 -0.00204347 0)
(-0.00480527 -0.0027476 0)
(-0.00421679 -0.00340249 0)
(-0.00346138 -0.00396485 0)
(-0.00255854 -0.00438391 0)
(-0.00156318 -0.00459303 0)
(-0.000566798 -0.00431303 0)
(-0.000466968 0.00430974 0)
(-0.00127647 0.00464863 0)
(-0.00212597 0.00456734 0)
(-0.00295486 0.00432811 0)
(-0.0037221 0.00396624 0)
(-0.00440698 0.00350135 0)
(-0.0049999 0.00295194 0)
(-0.00549467 0.00233389 0)
(-0.00588652 0.00165846 0)
(-0.00617035 0.000932328 0)
(-0.00633914 0.000159264 0)
(-0.00638286 -0.000657321 0)
(-0.0062871 -0.00151118 0)
(-0.00603331 -0.00238892 0)
(-0.00560019 -0.00326615 0)
(-0.00496624 -0.00410416 0)
(-0.00411696 -0.00484826 0)
(-0.00306645 -0.00542618 0)
(-0.00187874 -0.00573718 0)
(-0.000678848 -0.00541354 0)
(-0.000530166 0.00518111 0)
(-0.00144946 0.00558048 0)
(-0.00241398 0.00547148 0)
(-0.00335142 0.00517309 0)
(-0.00421424 0.00473207 0)
(-0.00497996 0.00417527 0)
(-0.00564098 0.00352649 0)
(-0.00619476 0.0028047 0)
(-0.00664037 0.00202184 0)
(-0.00697594 0.00118317 0)
(-0.00719636 0.000289146 0)
(-0.00729136 -0.00066154 0)
(-0.00724334 -0.00166804 0)
(-0.00702642 -0.00272257 0)
(-0.00660659 -0.00380405 0)
(-0.0059433 -0.00487216 0)
(-0.0049981 -0.00586013 0)
(-0.00376681 -0.0066642 0)
(-0.00231802 -0.00712637 0)
(-0.000833644 -0.00675223 0)
(-0.000611365 0.00617756 0)
(-0.00166911 0.00664477 0)
(-0.00277364 0.00649974 0)
(-0.00383821 0.00612754 0)
(-0.00480808 0.00559049 0)
(-0.00566028 0.00492623 0)
(-0.00639162 0.00416625 0)
(-0.00700562 0.00333352 0)
(-0.00750753 0.00244056 0)
(-0.00790085 0.00149009 0)
(-0.00818431 0.000477485 0)
(-0.00834929 -0.000605926 0)
(-0.00837665 -0.00176872 0)
(-0.0082334 -0.0030143 0)
(-0.00786991 -0.00433231 0)
(-0.00721747 -0.00568948 0)
(-0.00619328 -0.00701288 0)
(-0.00474622 -0.00815619 0)
(-0.00293167 -0.00885854 0)
(-0.00104297 -0.00842034 0)
(-0.000716783 0.0073343 0)
(-0.00195092 0.00787389 0)
(-0.00322605 0.00767629 0)
(-0.00443765 0.00720638 0)
(-0.00552329 0.00654846 0)
(-0.00646236 0.00575581 0)
(-0.00725989 0.00487033 0)
(-0.0079291 0.00391986 0)
(-0.00848452 0.00291703 0)
(-0.00893784 0.00186091 0)
(-0.00929454 0.000739996 0)
(-0.00955087 -0.000464557 0)
(-0.00968996 -0.00177535 0)
(-0.00967508 -0.00321412 0)
(-0.00944147 -0.00479399 0)
(-0.00888326 -0.00650837 0)
(-0.00783946 -0.00830219 0)
(-0.00614617 -0.0099812 0)
(-0.00379344 -0.0110818 0)
(-0.00131187 -0.0105268 0)
(-0.000857987 0.00870109 0)
(-0.00232165 0.00931017 0)
(-0.00380471 0.00902905 0)
(-0.00518237 0.00842272 0)
(-0.00638603 0.00760739 0)
(-0.00740291 0.0066582 0)
(-0.00825236 0.00563009 0)
(-0.00896222 0.00455606 0)
(-0.00955999 0.00344781 0)
(-0.0100686 0.00229951 0)
(-0.010504 0.00109154 0)
(-0.0108722 -0.000206982 0)
(-0.0111655 -0.00163637 0)
(-0.0113534 -0.00324502 0)
(-0.0113667 -0.00508734 0)
(-0.0110638 -0.00722175 0)
(-0.0101557 -0.00968358 0)
(-0.00821713 -0.0122663 0)
(-0.00503452 -0.0140893 0)
(-0.00160335 -0.0132183 0)
(-0.00105693 0.0103498 0)
(-0.00282837 0.0110102 0)
(-0.00456114 0.0105886 0)
(-0.00611682 0.00978366 0)
(-0.00742663 0.00875806 0)
(-0.00849606 0.00761535 0)
(-0.00936776 0.00642509 0)
(-0.01009 0.00522377 0)
(-0.0107067 0.00402003 0)
(-0.0112546 0.00280188 0)
(-0.0117635 0.00154154 0)
(-0.0122555 0.000197129 0)
(-0.0127434 -0.00128924 0)
(-0.0132229 -0.00299742 0)
(-0.0136553 -0.00504059 0)
(-0.0139109 -0.00760027 0)
(-0.0135421 -0.0109682 0)
(-0.0115921 -0.0151154 0)
(-0.00725348 -0.0184143 0)
(-0.00198117 -0.0168432 0)
(-0.00135403 0.0124211 0)
(-0.00354494 0.0130556 0)
(-0.00556632 0.0123843 0)
(-0.00729085 0.0112813 0)
(-0.00866758 0.00997164 0)
(-0.00973845 0.00858989 0)
(-0.0105809 0.00721745 0)
(-0.0112692 0.0058892 0)
(-0.0118653 0.00460655 0)
(-0.0124204 0.00334988 0)
(-0.0129792 0.00208549 0)
(-0.0135854 0.000766583 0)
(-0.0142869 -0.000671565 0)
(-0.0151363 -0.0023285 0)
(-0.0161998 -0.00437134 0)
(-0.0175397 -0.00713823 0)
(-0.0187041 -0.0114499 0)
(-0.0178403 -0.0181133 0)
(-0.0124395 -0.0245037 0)
(-0.0037444 -0.0219523 0)
(-0.00182626 0.0149888 0)
(-0.00460187 0.0155058 0)
(-0.00690219 0.0144029 0)
(-0.00873319 0.0128598 0)
(-0.0100879 0.0111768 0)
(-0.0110707 0.00951004 0)
(-0.0118041 0.00794213 0)
(-0.0123909 0.00649611 0)
(-0.012909 0.0051594 0)
(-0.0134197 0.00390305 0)
(-0.0139785 0.00269149 0)
(-0.0146496 0.00148596 0)
(-0.0155241 0.000243323 0)
(-0.0167382 -0.00109988 0)
(-0.0185378 -0.00266918 0)
(-0.0215226 -0.00491411 0)
(-0.0257142 -0.00971143 0)
(-0.0277001 -0.0203361 0)
(-0.0221722 -0.0333765 0)
(-0.00966534 -0.0305833 0)
(-0.00252823 0.0188824 0)
(-0.00604003 0.0185106 0)
(-0.00857102 0.0165753 0)
(-0.0103544 0.0143852 0)
(-0.0115234 0.0122393 0)
(-0.0122802 0.0102608 0)
(-0.012792 0.00850914 0)
(-0.0131868 0.00697555 0)
(-0.0135504 0.00562164 0)
(-0.013945 0.00440584 0)
(-0.0144235 0.00329665 0)
(-0.0150518 0.00227814 0)
(-0.0159407 0.00136759 0)
(-0.0172718 0.000639108 0)
(-0.019369 0.000212831 0)
(-0.0233353 -0.000323798 0)
(-0.0304994 -0.00475507 0)
(-0.0360589 -0.020892 0)
(-0.0330484 -0.0460292 0)
(-0.0201257 -0.0489552 0)
(-0.00413687 0.0210562 0)
(-0.00854997 0.0208315 0)
(-0.0105301 0.0181479 0)
(-0.0117599 0.0154437 0)
(-0.0123989 0.0129405 0)
(-0.0127064 0.0107062 0)
(-0.0128493 0.00881593 0)
(-0.0129459 0.00723628 0)
(-0.0130666 0.00590222 0)
(-0.0132513 0.004758 0)
(-0.0135312 0.00377129 0)
(-0.0139429 0.00295263 0)
(-0.0145517 0.00238712 0)
(-0.0154472 0.00229441 0)
(-0.0167547 0.00306981 0)
(-0.0191573 0.00443623 0)
(-0.025458 0.00279675 0)
(-0.0322919 -0.0165355 0)
(-0.0366371 -0.0568732 0)
(-0.0325405 -0.0848545 0)
(-0.00533233 0.0390017 0)
(-0.00947305 0.0310072 0)
(-0.0106497 0.0236823 0)
(-0.0108501 0.0182903 0)
(-0.0106206 0.0143737 0)
(-0.0101614 0.0114247 0)
(-0.00958177 0.00918326 0)
(-0.00903823 0.00745514 0)
(-0.00859775 0.0060793 0)
(-0.00827767 0.00495465 0)
(-0.00807806 0.00402994 0)
(-0.00798635 0.00331104 0)
(-0.0079767 0.00289167 0)
(-0.00793739 0.00300201 0)
(-0.00775442 0.00413963 0)
(-0.006888 0.00636453 0)
(-0.00852186 0.00790453 0)
(-0.00681888 -0.00532168 0)
(-0.0270067 -0.0506272 0)
(-0.0400713 -0.13594 0)
(-0.00782109 0.0154398 0)
(-0.0100275 0.00933024 0)
(-0.00602185 0.00747059 0)
(-0.00116912 0.00818359 0)
(0.0038492 0.0076968 0)
(0.00805723 0.0065582 0)
(0.0114676 0.00556245 0)
(0.014211 0.00477374 0)
(0.0164182 0.00408832 0)
(0.0182059 0.00347419 0)
(0.0196592 0.00294003 0)
(0.0208511 0.00250415 0)
(0.0218559 0.00222073 0)
(0.0228803 0.00220393 0)
(0.023947 0.00280141 0)
(0.0270999 0.00397127 0)
(0.0250009 0.00689973 0)
(0.0424854 0.00219946 0)
(-0.00511368 -0.0159743 0)
(0.000950078 -0.15222 0)
(0.0379162 0.0885307 0)
(0.0565801 0.0574226 0)
(0.0763325 0.0312553 0)
(0.0909023 0.0181822 0)
(0.100214 0.0118805 0)
(0.106995 0.00843168 0)
(0.112577 0.00628982 0)
(0.117262 0.00484806 0)
(0.121163 0.00381146 0)
(0.124405 0.00302589 0)
(0.127099 0.00241145 0)
(0.129345 0.00192871 0)
(0.131225 0.0015596 0)
(0.132984 0.00130363 0)
(0.134411 0.00116703 0)
(0.137793 0.00121257 0)
(0.134886 0.00136714 0)
(0.162744 0.00103153 0)
(0.069727 0.0149632 0)
(0.296159 -0.0854657 0)
)
;

boundaryField
{
    movingWall
    {
        type            calculated;
        value           uniform (1 0 0);
    }
    fixedWalls
    {
        type            calculated;
        value           uniform (0 0 0);
    }
    frontAndBack
    {
        type            empty;
    }
}


// ************************************************************************* //
