/*--------------------------------*- C++ -*----------------------------------*\
| =========                 |                                                 |
| \\      /  F ield         | OpenFOAM: The Open Source CFD Toolbox           |
|  \\    /   O peration     | Version:  2312                                  |
|   \\  /    A nd           | Website:  www.openfoam.com                      |
|    \\/     M anipulation  |                                                 |
\*---------------------------------------------------------------------------*/
FoamFile
{
    version     2.0;
    format      ascii;
    arch        "LSB;label=32;scalar=64";
    class       volVectorField;
    location    "0.5";
    object      UNear;
}
// * * * * * * * * * * * * * * * * * * * * * * * * * * * * * * * * * * * * * //

dimensions      [0 1 -1 0 0 0 0];

internalField   nonuniform List<vector> 
400
(
(-0.000152568 0.000153717 0)
(-0.000678403 0.000389168 0)
(-0.00154155 0.000506436 0)
(-0.00244315 0.000517094 0)
(-0.00331389 0.000478053 0)
(-0.00410659 0.000420645 0)
(-0.00479692 0.000355604 0)
(-0.00536989 0.000285013 0)
(-0.00581379 0.00020749 0)
(-0.00611447 0.000121146 0)
(-0.00625201 3.41024e-05 0)
(-0.00622497 -6.95849e-05 0)
(-0.00600573 -0.000179155 0)
(-0.00558853 -0.000295319 0)
(-0.00496668 -0.000413994 0)
(-0.00414707 -0.000525863 0)
(-0.00315929 -0.000610959 0)
(-0.00207088 -0.000627586 0)
(-0.000985781 -0.000509252 0)
(-0.000251707 -0.000246899 0)
(-0.00038727 0.000677703 0)
(-0.00114797 0.00114742 0)
(-0.00206187 0.0013488 0)
(-0.00300066 0.00137045 0)
(-0.00391166 0.00129017 0)
(-0.0047571 0.00115473 0)
(-0.00550687 0.000986978 0)
(-0.00613649 0.000795719 0)
(-0.00662616 0.000582482 0)
(-0.0069581 0.000346493 0)
(-0.0071146 8.86349e-05 0)
(-0.00708032 -0.000191977 0)
(-0.00684162 -0.000493056 0)
(-0.00639064 -0.000806196 0)
(-0.00572861 -0.00111641 0)
(-0.0048709 -0.00139724 0)
(-0.00384969 -0.00160534 0)
(-0.00271889 -0.00167241 0)
(-0.00155927 -0.00150197 0)
(-0.000530117 -0.000990539 0)
(-0.000525602 0.00154712 0)
(-0.00140103 0.002068 0)
(-0.0023379 0.00226045 0)
(-0.00328169 0.00226592 0)
(-0.00419316 0.00214471 0)
(-0.00504526 0.00193775 0)
(-0.00581054 0.00166986 0)
(-0.00646241 0.00135409 0)
(-0.00697765 0.000995782 0)
(-0.00733566 0.000596695 0)
(-0.00751708 0.000158325 0)
(-0.00750461 -0.000317547 0)
(-0.00728416 -0.000823318 0)
(-0.00684722 -0.00134335 0)
(-0.00619492 -0.00185104 0)
(-0.00534075 -0.00230598 0)
(-0.00431027 -0.00265218 0)
(-0.00314478 -0.00281713 0)
(-0.00191209 -0.002714 0)
(-0.000703968 -0.00216318 0)
(-0.00058035 0.00250952 0)
(-0.00153504 0.00306629 0)
(-0.00252771 0.00322854 0)
(-0.00351293 0.00320196 0)
(-0.00445633 0.00303405 0)
(-0.00533787 0.00275626 0)
(-0.00613516 0.00239107 0)
(-0.00682335 0.00195302 0)
(-0.00737872 0.00144981 0)
(-0.00777924 0.000885027 0)
(-0.00800367 0.000261254 0)
(-0.00803198 -0.000416917 0)
(-0.00784632 -0.00113787 0)
(-0.0074333 -0.00187893 0)
(-0.00678744 -0.00260326 0)
(-0.00591336 -0.00325838 0)
(-0.00482629 -0.00377737 0)
(-0.00356055 -0.0040821 0)
(-0.00218614 -0.00408247 0)
(-0.000805106 -0.00349907 0)
(-0.000604651 0.00353261 0)
(-0.00162678 0.00413611 0)
(-0.00269589 0.00426201 0)
(-0.00375219 0.00419241 0)
(-0.00475929 0.00397069 0)
(-0.00569923 0.00362009 0)
(-0.00655358 0.00315907 0)
(-0.00730039 0.00260149 0)
(-0.00791716 0.00195586 0)
(-0.00838145 0.00122636 0)
(-0.00867027 0.000415838 0)
(-0.00875987 -0.000470099 0)
(-0.00862603 -0.0014177 0)
(-0.00824622 -0.00239924 0)
(-0.00760286 -0.00336973 0)
(-0.00668639 -0.00426566 0)
(-0.00549938 -0.00500703 0)
(-0.00407395 -0.00550122 0)
(-0.0024941 -0.00563593 0)
(-0.000903799 -0.00500606 0)
(-0.000628568 0.00460563 0)
(-0.00172082 0.00528388 0)
(-0.00288201 0.00537921 0)
(-0.00403158 0.00526184 0)
(-0.00512809 0.0049801 0)
(-0.00615232 0.00455301 0)
(-0.00708836 0.00399568 0)
(-0.00791727 0.00332049 0)
(-0.00861872 0.00253525 0)
(-0.00917103 0.00164311 0)
(-0.00954978 0.000645086 0)
(-0.00972703 -0.00045503 0)
(-0.00967012 -0.00164495 0)
(-0.00934331 -0.00289537 0)
(-0.00871126 -0.00415618 0)
(-0.00774326 -0.00535319 0)
(-0.00642327 -0.00638757 0)
(-0.00478025 -0.00713657 0)
(-0.00291852 -0.00744043 0)
(-0.00104346 -0.00673376 0)
(-0.000663921 0.00573917 0)
(-0.00183967 0.00652381 0)
(-0.00310928 0.00659915 0)
(-0.00437137 0.00643355 0)
(-0.00557839 0.0060873 0)
(-0.00670865 0.00557987 0)
(-0.00774793 0.00492504 0)
(-0.00868078 0.004134 0)
(-0.00949029 0.00321297 0)
(-0.0101569 0.00216211 0)
(-0.0106559 0.000977963 0)
(-0.010956 -0.000341465 0)
(-0.0110146 -0.00179097 0)
(-0.010779 -0.00334511 0)
(-0.0101891 -0.00495427 0)
(-0.00918195 -0.00653554 0)
(-0.00770819 -0.00796422 0)
(-0.00578287 -0.00906535 0)
(-0.00353316 -0.00959556 0)
(-0.00125224 -0.0087814 0)
(-0.00071484 0.00695456 0)
(-0.00199435 0.00787462 0)
(-0.0033914 0.00794006 0)
(-0.00478448 0.00772669 0)
(-0.00611983 0.00731212 0)
(-0.00737322 0.0067206 0)
(-0.00853284 0.00596745 0)
(-0.00958784 0.00506378 0)
(-0.0105268 0.00401389 0)
(-0.0113346 0.00281322 0)
(-0.0119889 0.0014502 0)
(-0.0124575 -8.8479e-05 0)
(-0.0126886 -0.00180807 0)
(-0.0126094 -0.00370068 0)
(-0.0121274 -0.00572702 0)
(-0.0111289 -0.00780344 0)
(-0.00950219 -0.00977612 0)
(-0.00721909 -0.0113866 0)
(-0.00442344 -0.012248 0)
(-0.00155443 -0.0112937 0)
(-0.000783052 0.00827823 0)
(-0.00219154 0.00935951 0)
(-0.00373831 0.0094215 0)
(-0.00528084 0.00915833 0)
(-0.0067591 0.00866983 0)
(-0.00814741 0.00798961 0)
(-0.00943807 0.00713781 0)
(-0.0106275 0.00612744 0)
(-0.0117126 0.00496102 0)
(-0.0126871 0.00362818 0)
(-0.013536 0.00210639 0)
(-0.0142278 0.000365709 0)
(-0.0147089 -0.00162104 0)
(-0.0148907 -0.00387654 0)
(-0.0146367 -0.00639223 0)
(-0.0137569 -0.00910708 0)
(-0.0120224 -0.0118488 0)
(-0.0092955 -0.0142376 0)
(-0.00570447 -0.0156248 0)
(-0.00197358 -0.0144723 0)
(-0.000870986 0.00974064 0)
(-0.00243917 0.0110065 0)
(-0.00416171 0.0110652 0)
(-0.0058719 0.010744 0)
(-0.00750337 0.010171 0)
(-0.0090311 0.00939456 0)
(-0.0104547 0.00844368 0)
(-0.0117811 0.0073355 0)
(-0.0130203 0.00607223 0)
(-0.01418 0.00463748 0)
(-0.0152591 0.00299614 0)
(-0.0162391 0.00109732 0)
(-0.0170746 -0.00112256 0)
(-0.0176689 -0.00373354 0)
(-0.0178447 -0.00679371 0)
(-0.0173049 -0.0103194 0)
(-0.0156054 -0.0141737 0)
(-0.0123402 -0.0178103 0)
(-0.00752796 -0.0200706 0)
(-0.00251271 -0.0185713 0)
(-0.000984175 0.0113792 0)
(-0.00275154 0.0128493 0)
(-0.00468004 0.0128948 0)
(-0.00657438 0.0124962 0)
(-0.00836241 0.0118194 0)
(-0.0100233 0.0109337 0)
(-0.0115686 0.00988147 0)
(-0.0130206 0.00868728 0)
(-0.0144072 0.0073549 0)
(-0.0157564 0.00586373 0)
(-0.0170911 0.00416691 0)
(-0.0184209 0.00219 0)
(-0.0197313 -0.000173115 0)
(-0.0209465 -0.00305985 0)
(-0.0218747 -0.00665524 0)
(-0.0220959 -0.0111683 0)
(-0.0207806 -0.0166707 0)
(-0.0168825 -0.022445 0)
(-0.0100626 -0.0262089 0)
(-0.00304256 -0.0238163 0)
(-0.00113451 0.0132463 0)
(-0.00315474 0.0149305 0)
(-0.00532283 0.0149348 0)
(-0.00741175 0.0144216 0)
(-0.00934682 0.0136074 0)
(-0.011118 0.0125908 0)
(-0.0127552 0.0114317 0)
(-0.0143013 0.0101647 0)
(-0.0158061 0.00879815 0)
(-0.017324 0.00731152 0)
(-0.0189128 0.00565332 0)
(-0.0206316 0.00373394 0)
(-0.0225283 0.00140836 0)
(-0.0246149 -0.0015513 0)
(-0.0267865 -0.005513 0)
(-0.0285686 -0.0111015 0)
(-0.0285124 -0.0190679 0)
(-0.0241052 -0.0287753 0)
(-0.0139911 -0.035547 0)
(-0.00307006 -0.0306893 0)
(-0.00134581 0.0154083 0)
(-0.00369517 0.0173023 0)
(-0.00613156 0.0172062 0)
(-0.0084085 0.0165132 0)
(-0.0104577 0.0155093 0)
(-0.0122913 0.0143292 0)
(-0.0139656 0.0130529 0)
(-0.0155477 0.0117254 0)
(-0.0171107 0.0103622 0)
(-0.0187365 0.00895104 0)
(-0.0205248 0.00745128 0)
(-0.0226055 0.00578527 0)
(-0.0251478 0.0038029 0)
(-0.0283487 0.0011975 0)
(-0.0324384 -0.00261855 0)
(-0.0373227 -0.00887321 0)
(-0.0409776 -0.0198916 0)
(-0.0383258 -0.036069 0)
(-0.0245458 -0.0490658 0)
(-0.00403329 -0.0396697 0)
(-0.00165822 0.0180402 0)
(-0.00442736 0.0200403 0)
(-0.00714417 0.0197186 0)
(-0.00956698 0.0187383 0)
(-0.0116589 0.0174701 0)
(-0.0134723 0.0160838 0)
(-0.0150976 0.0146743 0)
(-0.0166267 0.013294 0)
(-0.0181512 0.0119666 0)
(-0.0197738 0.0106969 0)
(-0.0216287 0.00947996 0)
(-0.0239234 0.00830252 0)
(-0.0269994 0.00710734 0)
(-0.0313769 0.00566631 0)
(-0.0379657 0.00337922 0)
(-0.0483078 -0.00149319 0)
(-0.0609052 -0.0143682 0)
(-0.065847 -0.0411973 0)
(-0.0492817 -0.0690629 0)
(-0.0152881 -0.0545416 0)
(-0.0021536 0.0210291 0)
(-0.00545879 0.0231303 0)
(-0.00837118 0.0224002 0)
(-0.0108219 0.020991 0)
(-0.0128222 0.0193744 0)
(-0.014485 0.017738 0)
(-0.0159379 0.0161801 0)
(-0.0172933 0.0147507 0)
(-0.0186487 0.0134773 0)
(-0.0201057 0.0123856 0)
(-0.0217994 0.0115312 0)
(-0.0239697 0.0110324 0)
(-0.0270844 0.0110983 0)
(-0.0319042 0.0119846 0)
(-0.0400554 0.0137613 0)
(-0.0559749 0.0138591 0)
(-0.0783561 -0.000666551 0)
(-0.0896285 -0.0477281 0)
(-0.0755459 -0.106776 0)
(-0.0372454 -0.0945215 0)
(-0.00274549 0.0257117 0)
(-0.00662661 0.0267978 0)
(-0.00964255 0.0251572 0)
(-0.0119061 0.0230889 0)
(-0.013599 0.0210392 0)
(-0.0149186 0.0191349 0)
(-0.0160161 0.0174419 0)
(-0.0170378 0.0159762 0)
(-0.0180655 0.014755 0)
(-0.0191612 0.0138178 0)
(-0.0203965 0.0132775 0)
(-0.0219138 0.0134063 0)
(-0.0240382 0.0147715 0)
(-0.0272125 0.0183874 0)
(-0.0321776 0.0254152 0)
(-0.0432791 0.0320914 0)
(-0.0634866 0.0152824 0)
(-0.0749508 -0.0514634 0)
(-0.073323 -0.145165 0)
(-0.0491015 -0.168017 0)
(-0.00430692 0.0273755 0)
(-0.00867634 0.0289833 0)
(-0.0108104 0.0268112 0)
(-0.0121587 0.0243818 0)
(-0.0130667 0.0220926 0)
(-0.0137487 0.0200055 0)
(-0.0142975 0.0182087 0)
(-0.0147814 0.0167317 0)
(-0.0152572 0.0155524 0)
(-0.0157361 0.0146852 0)
(-0.0161663 0.0142688 0)
(-0.0164933 0.0146142 0)
(-0.0166134 0.0164443 0)
(-0.0161507 0.0209192 0)
(-0.0140868 0.0293326 0)
(-0.0109048 0.0369365 0)
(-0.0133417 0.0293783 0)
(-0.0101949 -0.0274157 0)
(-0.0327029 -0.135342 0)
(-0.0388137 -0.240104 0)
(-0.00540075 0.0467569 0)
(-0.0087839 0.0411408 0)
(-0.00916781 0.033972 0)
(-0.00884105 0.0285787 0)
(-0.00843811 0.0248678 0)
(-0.00779298 0.0219088 0)
(-0.00694726 0.0195949 0)
(-0.00605083 0.0178063 0)
(-0.00516834 0.0164058 0)
(-0.00426778 0.0153179 0)
(-0.00322857 0.0145706 0)
(-0.00181554 0.0143679 0)
(0.000293832 0.015197 0)
(0.00415128 0.0178861 0)
(0.0110269 0.0232583 0)
(0.0237799 0.0280399 0)
(0.0325451 0.0213307 0)
(0.055584 -0.0147562 0)
(0.0160291 -0.0763024 0)
(-0.00831932 -0.269219 0)
(-0.00616136 0.0200528 0)
(-0.00719229 0.0123808 0)
(-0.0010343 0.0111138 0)
(0.00542345 0.0132542 0)
(0.0128142 0.0137121 0)
(0.0197068 0.0129644 0)
(0.0260043 0.0121561 0)
(0.0317099 0.0115262 0)
(0.0369198 0.0109675 0)
(0.0417681 0.0104216 0)
(0.0463949 0.00991645 0)
(0.0509949 0.0095362 0)
(0.0558507 0.00944647 0)
(0.0617172 0.0098999 0)
(0.0687891 0.0108901 0)
(0.0801062 0.0102545 0)
(0.0837399 0.00458209 0)
(0.107985 -0.0199878 0)
(0.0363835 -0.0461259 0)
(0.0690624 -0.224793 0)
(0.0408348 0.092506 0)
(0.0635817 0.0693419 0)
(0.0890608 0.0433793 0)
(0.110756 0.0289435 0)
(0.127094 0.0213555 0)
(0.140505 0.0169181 0)
(0.152519 0.0140506 0)
(0.163549 0.0120977 0)
(0.173734 0.0107004 0)
(0.183206 0.0096269 0)
(0.192065 0.00871103 0)
(0.200389 0.00785314 0)
(0.208223 0.00699406 0)
(0.215916 0.00612633 0)
(0.222849 0.00524401 0)
(0.231687 0.0041203 0)
(0.229745 0.00257691 0)
(0.25389 -0.00332953 0)
(0.12938 0.00113977 0)
(0.377551 -0.100866 0)
)
;

boundaryField
{
    movingWall
    {
        type            fixedValue;
        value           uniform (1 0 0);
    }
    fixedWalls
    {
        type            calculated;
        value           nonuniform List<vector> 
60
(
(-6.10272e-05 6.14868e-05 0)
(-0.000154908 0.000271081 0)
(-0.000210241 0.000618848 0)
(-0.00023214 0.00100381 0)
(-0.000241861 0.00141305 0)
(-0.000251427 0.00184225 0)
(-0.000265568 0.00229567 0)
(-0.000285936 0.00278182 0)
(-0.000313221 0.00331129 0)
(-0.000348395 0.00389626 0)
(-0.00039367 0.00455169 0)
(-0.000453804 0.00529852 0)
(-0.000538324 0.00616333 0)
(-0.000663287 0.00721609 0)
(-0.00086144 0.00841162 0)
(-0.00109819 0.0102847 0)
(-0.00172277 0.0109502 0)
(-0.0021603 0.0187028 0)
(-0.00246454 0.00802112 0)
(0.166334 0.0370024 0)
(-0.000100683 -9.87597e-05 0)
(-0.000212047 -0.000396216 0)
(-0.000281587 -0.000865271 0)
(-0.000322042 -0.00139963 0)
(-0.00036152 -0.00200242 0)
(-0.000417383 -0.0026935 0)
(-0.000500896 -0.00351256 0)
(-0.000621774 -0.0045175 0)
(-0.000789433 -0.0057889 0)
(-0.00100508 -0.00742853 0)
(-0.00121702 -0.00952651 0)
(-0.00122803 -0.0122757 0)
(-0.00161331 -0.0158679 0)
(-0.00611524 -0.0218166 0)
(-0.0148982 -0.0378086 0)
(-0.0196406 -0.0672067 0)
(-0.0155255 -0.0960416 0)
(-0.00332773 -0.107688 0)
(0.027625 -0.0899171 0)
(0.301021 -0.0403463 0)
(-6.10272e-05 6.14868e-05 0)
(-0.000271361 0.000155667 0)
(-0.000616621 0.000202574 0)
(-0.000977262 0.000206838 0)
(-0.00132556 0.000191221 0)
(-0.00164263 0.000168258 0)
(-0.00191877 0.000142242 0)
(-0.00214795 0.000114005 0)
(-0.00232552 8.2996e-05 0)
(-0.00244579 4.84583e-05 0)
(-0.00250081 1.3641e-05 0)
(-0.00248999 -2.7834e-05 0)
(-0.00240229 -7.16622e-05 0)
(-0.00223541 -0.000118128 0)
(-0.00198667 -0.000165598 0)
(-0.00165883 -0.000210345 0)
(-0.00126372 -0.000244383 0)
(-0.000828353 -0.000251034 0)
(-0.000394312 -0.000203701 0)
(-0.000100683 -9.87597e-05 0)
)
;
    }
    frontAndBack
    {
        type            empty;
    }
}


// ************************************************************************* //
