/*--------------------------------*- C++ -*----------------------------------*\
| =========                 |                                                 |
| \\      /  F ield         | OpenFOAM: The Open Source CFD Toolbox           |
|  \\    /   O peration     | Version:  2312                                  |
|   \\  /    A nd           | Website:  www.openfoam.com                      |
|    \\/     M anipulation  |                                                 |
\*---------------------------------------------------------------------------*/
FoamFile
{
    version     2.0;
    format      ascii;
    arch        "LSB;label=32;scalar=64";
    class       volSymmTensorField;
    location    "0.5";
    object      UPrime2Mean;
}
// * * * * * * * * * * * * * * * * * * * * * * * * * * * * * * * * * * * * * //

dimensions      [0 2 -2 0 0 0 0];

internalField   nonuniform List<symmTensor> 
400
(
(2.63319e-09 -2.61023e-09 0 2.58761e-09 0 0)
(4.09999e-08 -2.34508e-08 0 1.37767e-08 0 0)
(2.0699e-07 -6.90679e-08 0 2.33845e-08 0 0)
(5.19687e-07 -1.11503e-07 0 2.42159e-08 0 0)
(9.55433e-07 -1.38882e-07 0 2.04092e-08 0 0)
(1.46361e-06 -1.50086e-07 0 1.5559e-08 0 0)
(1.99009e-06 -1.46692e-07 0 1.09535e-08 0 0)
(2.48366e-06 -1.299e-07 0 6.9249e-09 0 0)
(2.89917e-06 -1.00225e-07 0 3.59388e-09 0 0)
(3.1893e-06 -5.94598e-08 0 1.22061e-09 0 0)
(3.32051e-06 -1.31294e-08 0 1.75711e-10 0 0)
(3.27371e-06 4.19293e-08 0 6.25148e-10 0 0)
(3.03201e-06 9.57431e-08 0 3.07461e-09 0 0)
(2.61207e-06 1.43006e-07 0 7.84543e-09 0 0)
(2.052e-06 1.75783e-07 0 1.50628e-08 0 0)
(1.42119e-06 1.8499e-07 0 2.41134e-08 0 0)
(8.16882e-07 1.62591e-07 0 3.24523e-08 0 0)
(3.4552e-07 1.08118e-07 0 3.39524e-08 0 0)
(7.58703e-08 4.05718e-08 0 2.18046e-08 0 0)
(5.01951e-09 4.92413e-09 0 4.83094e-09 0 0)
(1.37768e-08 -2.34474e-08 0 4.07842e-08 0 0)
(1.15808e-07 -1.15567e-07 0 1.15349e-07 0 0)
(3.71575e-07 -2.43976e-07 0 1.60409e-07 0 0)
(7.86084e-07 -3.60247e-07 0 1.65526e-07 0 0)
(1.33488e-06 -4.40095e-07 0 1.4567e-07 0 0)
(1.97153e-06 -4.75697e-07 0 1.15427e-07 0 0)
(2.63569e-06 -4.66545e-07 0 8.32867e-08 0 0)
(3.26236e-06 -4.14426e-07 0 5.34124e-08 0 0)
(3.78947e-06 -3.2205e-07 0 2.82004e-08 0 0)
(4.16064e-06 -1.94529e-07 0 9.95006e-09 0 0)
(4.33026e-06 -4.04238e-08 0 1.19734e-09 0 0)
(4.26782e-06 1.29188e-07 0 4.60367e-09 0 0)
(3.96472e-06 2.98067e-07 0 2.28855e-08 0 0)
(3.44086e-06 4.44954e-07 0 5.77811e-08 0 0)
(2.74914e-06 5.45505e-07 0 1.08319e-07 0 0)
(1.97536e-06 5.7548e-07 0 1.67673e-07 0 0)
(1.22623e-06 5.18387e-07 0 2.19166e-07 0 0)
(6.07888e-07 3.77763e-07 0 2.34765e-07 0 0)
(1.98551e-07 1.91824e-07 0 1.8533e-07 0 0)
(2.34386e-08 4.21771e-08 0 7.6326e-08 0 0)
(2.51569e-08 -7.20073e-08 0 2.08304e-07 0 0)
(1.72909e-07 -2.54118e-07 0 3.7347e-07 0 0)
(4.78495e-07 -4.62599e-07 0 4.47471e-07 0 0)
(9.40474e-07 -6.49726e-07 0 4.49606e-07 0 0)
(1.53291e-06 -7.8288e-07 0 4.01097e-07 0 0)
(2.21589e-06 -8.46185e-07 0 3.24827e-07 0 0)
(2.93278e-06 -8.33126e-07 0 2.38691e-07 0 0)
(3.61694e-06 -7.43187e-07 0 1.5499e-07 0 0)
(4.20104e-06 -5.80327e-07 0 8.26429e-08 0 0)
(4.62298e-06 -3.53345e-07 0 2.95493e-08 0 0)
(4.83094e-06 -7.68729e-08 0 3.64889e-09 0 0)
(4.78941e-06 2.28039e-07 0 1.29348e-08 0 0)
(4.4864e-06 5.31463e-07 0 6.45028e-08 0 0)
(3.94031e-06 7.95522e-07 0 1.61583e-07 0 0)
(3.20515e-06 9.77771e-07 0 2.98802e-07 0 0)
(2.36798e-06 1.03906e-06 0 4.56197e-07 0 0)
(1.5351e-06 9.55859e-07 0 5.95331e-07 0 0)
(8.14712e-07 7.34785e-07 0 6.62816e-07 0 0)
(3.01229e-07 4.27196e-07 0 6.06024e-07 0 0)
(4.19218e-08 1.24976e-07 0 3.73849e-07 0 0)
(3.0459e-08 -1.28828e-07 0 5.48087e-07 0 0)
(2.07409e-07 -4.12575e-07 0 8.20692e-07 0 0)
(5.59754e-07 -7.13667e-07 0 9.10379e-07 0 0)
(1.07852e-06 -9.81613e-07 0 8.94904e-07 0 0)
(1.73248e-06 -1.17597e-06 0 8.00891e-07 0 0)
(2.48196e-06 -1.27298e-06 0 6.56652e-07 0 0)
(3.27185e-06 -1.25959e-06 0 4.89525e-07 0 0)
(4.03475e-06 -1.13169e-06 0 3.22702e-07 0 0)
(4.69957e-06 -8.93041e-07 0 1.75418e-07 0 0)
(5.19842e-06 -5.55102e-07 0 6.51368e-08 0 0)
(5.47209e-06 -1.38198e-07 0 9.11728e-09 0 0)
(5.47649e-06 3.26516e-07 0 2.44428e-08 0 0)
(5.19054e-06 7.9461e-07 0 1.25651e-07 0 0)
(4.62472e-06 1.20872e-06 0 3.18862e-07 0 0)
(3.8277e-06 1.50377e-06 0 5.9283e-07 0 0)
(2.88591e-06 1.61913e-06 0 9.09843e-07 0 0)
(1.91304e-06 1.5164e-06 0 1.20307e-06 0 0)
(1.03839e-06 1.19929e-06 0 1.38605e-06 0 0)
(3.9168e-07 7.3216e-07 0 1.36967e-06 0 0)
(5.43792e-08 2.3131e-07 0 9.86854e-07 0 0)
(3.27676e-08 -1.88468e-07 0 1.08615e-06 0 0)
(2.3216e-07 -5.88921e-07 0 1.49414e-06 0 0)
(6.36884e-07 -1.00431e-06 0 1.58526e-06 0 0)
(1.23245e-06 -1.37259e-06 0 1.53218e-06 0 0)
(1.98077e-06 -1.64417e-06 0 1.37052e-06 0 0)
(2.83731e-06 -1.78647e-06 0 1.13269e-06 0 0)
(3.74423e-06 -1.77913e-06 0 8.54999e-07 0 0)
(4.6313e-06 -1.6136e-06 0 5.73115e-07 0 0)
(5.42278e-06 -1.29218e-06 0 3.19677e-07 0 0)
(6.04355e-06 -8.27583e-07 0 1.25402e-07 0 0)
(6.4244e-06 -2.4454e-07 0 2.10607e-08 0 0)
(6.50811e-06 4.16795e-07 0 3.74786e-08 0 0)
(6.2577e-06 1.09691e-06 0 2.01612e-07 0 0)
(5.66749e-06 1.71529e-06 0 5.26873e-07 0 0)
(4.77385e-06 2.17632e-06 0 9.98449e-07 0 0)
(3.66145e-06 2.38551e-06 0 1.5594e-06 0 0)
(2.461e-06 2.27497e-06 0 2.10737e-06 0 0)
(1.34492e-06 1.83484e-06 0 2.50711e-06 0 0)
(5.03171e-07 1.14366e-06 0 2.60325e-06 0 0)
(6.72829e-08 3.68358e-07 0 2.0224e-06 0 0)
(3.53139e-08 -2.55266e-07 0 1.84538e-06 0 0)
(2.59477e-07 -7.95489e-07 0 2.44149e-06 0 0)
(7.29283e-07 -1.35633e-06 0 2.5279e-06 0 0)
(1.42818e-06 -1.85412e-06 0 2.41586e-06 0 0)
(2.31105e-06 -2.22705e-06 0 2.15868e-06 0 0)
(3.32497e-06 -2.43188e-06 0 1.79487e-06 0 0)
(4.4057e-06 -2.44012e-06 0 1.37066e-06 0 0)
(5.47741e-06 -2.23786e-06 0 9.3575e-07 0 0)
(6.45817e-06 -1.82469e-06 0 5.38475e-07 0 0)
(7.26428e-06 -1.2126e-06 0 2.25998e-07 0 0)
(7.81364e-06 -4.27933e-07 0 4.67683e-08 0 0)
(8.0308e-06 4.83008e-07 0 5.1262e-08 0 0)
(7.85427e-06 1.44665e-06 0 2.86902e-07 0 0)
(7.25007e-06 2.35592e-06 0 7.84033e-07 0 0)
(6.22987e-06 3.07377e-06 0 1.53324e-06 0 0)
(4.8691e-06 3.45166e-06 0 2.46197e-06 0 0)
(3.32121e-06 3.36508e-06 0 3.42321e-06 0 0)
(1.82781e-06 2.76732e-06 0 4.20219e-06 0 0)
(6.78582e-07 1.74864e-06 0 4.51739e-06 0 0)
(8.80511e-08 5.65837e-07 0 3.64752e-06 0 0)
(3.9617e-08 -3.36765e-07 0 2.86503e-06 0 0)
(2.97592e-07 -1.05144e-06 0 3.72775e-06 0 0)
(8.53033e-07 -1.79967e-06 0 3.81293e-06 0 0)
(1.68981e-06 -2.46647e-06 0 3.62117e-06 0 0)
(2.75554e-06 -2.97342e-06 0 3.23538e-06 0 0)
(3.98647e-06 -3.26426e-06 0 2.70532e-06 0 0)
(5.30882e-06 -3.30137e-06 0 2.09012e-06 0 0)
(6.63939e-06 -3.06514e-06 0 1.45579e-06 0 0)
(7.88937e-06 -2.55123e-06 0 8.68269e-07 0 0)
(8.96623e-06 -1.76804e-06 0 3.93346e-07 0 0)
(9.77395e-06 -7.38944e-07 0 1.00916e-07 0 0)
(1.02141e-05 4.89686e-07 0 6.78716e-08 0 0)
(1.01904e-05 1.83584e-06 0 3.73785e-07 0 0)
(9.62257e-06 3.16595e-06 0 1.08325e-06 0 0)
(8.47382e-06 4.29041e-06 0 2.2127e-06 0 0)
(6.78639e-06 4.9772e-06 0 3.68952e-06 0 0)
(4.72802e-06 4.99599e-06 0 5.31638e-06 0 0)
(2.63919e-06 4.20946e-06 0 6.74852e-06 0 0)
(9.80732e-07 2.70065e-06 0 7.46701e-06 0 0)
(1.24994e-07 8.76314e-07 0 6.16806e-06 0 0)
(4.64104e-08 -4.41168e-07 0 4.20905e-06 0 0)
(3.52185e-07 -1.37945e-06 0 5.44224e-06 0 0)
(1.0223e-06 -2.37033e-06 0 5.53696e-06 0 0)
(2.04152e-06 -3.2573e-06 0 5.24427e-06 0 0)
(3.34856e-06 -3.93993e-06 0 4.69082e-06 0 0)
(4.86611e-06 -4.34648e-06 0 3.94535e-06 0 0)
(6.50879e-06 -4.43018e-06 0 3.08532e-06 0 0)
(8.18541e-06 -4.16629e-06 0 2.19615e-06 0 0)
(9.80228e-06 -3.54617e-06 0 1.36282e-06 0 0)
(1.12612e-05 -2.57138e-06 0 6.70295e-07 0 0)
(1.24543e-05 -1.25494e-06 0 2.11792e-07 0 0)
(1.32607e-05 3.67917e-07 0 9.69836e-08 0 0)
(1.35395e-05 2.22045e-06 0 4.52197e-07 0 0)
(1.31405e-05 4.1542e-06 0 1.40315e-06 0 0)
(1.19363e-05 5.92376e-06 0 3.0322e-06 0 0)
(9.87807e-06 7.17841e-06 0 5.31084e-06 0 0)
(7.09878e-06 7.49659e-06 0 8.00966e-06 0 0)
(4.05898e-06 6.52751e-06 0 1.05846e-05 0 0)
(1.52055e-06 4.27043e-06 0 1.20673e-05 0 0)
(1.91133e-07 1.38817e-06 0 1.01346e-05 0 0)
(5.63221e-08 -5.77533e-07 0 5.97002e-06 0 0)
(4.2866e-07 -1.80636e-06 0 7.70691e-06 0 0)
(1.25247e-06 -3.11235e-06 0 7.82626e-06 0 0)
(2.5113e-06 -4.28414e-06 0 7.40703e-06 0 0)
(4.13068e-06 -5.19317e-06 0 6.63758e-06 0 0)
(6.01552e-06 -5.75047e-06 0 5.61649e-06 0 0)
(8.06687e-06 -5.90216e-06 0 4.44757e-06 0 0)
(1.01875e-05 -5.62176e-06 0 3.24006e-06 0 0)
(1.22844e-05 -4.89768e-06 0 2.0981e-06 0 0)
(1.42627e-05 -3.72212e-06 0 1.12383e-06 0 0)
(1.60145e-05 -2.08865e-06 0 4.31733e-07 0 0)
(1.74043e-05 -2.96703e-09 0 1.66619e-07 0 0)
(1.82483e-05 2.49019e-06 0 5.15646e-07 0 0)
(1.83049e-05 5.26334e-06 0 1.70116e-06 0 0)
(1.72924e-05 8.04051e-06 0 3.94083e-06 0 0)
(1.49505e-05 1.03317e-05 0 7.35491e-06 0 0)
(1.12236e-05 1.13925e-05 0 1.17819e-05 0 0)
(6.64606e-06 1.03822e-05 0 1.6423e-05 0 0)
(2.51362e-06 6.9598e-06 0 1.94329e-05 0 0)
(3.09292e-07 2.25436e-06 0 1.65337e-05 0 0)
(7.03365e-08 -7.57622e-07 0 8.2749e-06 0 0)
(5.3454e-07 -2.36732e-06 0 1.06867e-05 0 0)
(1.56462e-06 -4.08322e-06 0 1.08462e-05 0 0)
(3.137e-06 -5.61981e-06 0 1.02632e-05 0 0)
(5.15518e-06 -6.81354e-06 0 9.21299e-06 0 0)
(7.49896e-06 -7.55861e-06 0 7.84034e-06 0 0)
(1.00538e-05 -7.80031e-06 0 6.28709e-06 0 0)
(1.27208e-05 -7.51816e-06 0 4.69156e-06 0 0)
(1.54184e-05 -6.70367e-06 0 3.17623e-06 0 0)
(1.80731e-05 -5.34014e-06 0 1.85419e-06 0 0)
(2.06011e-05 -3.39339e-06 0 8.52575e-07 0 0)
(2.2882e-05 -8.16924e-07 0 3.44381e-07 0 0)
(2.47195e-05 2.42208e-06 0 5.81464e-07 0 0)
(2.57879e-05 6.29185e-06 0 1.91734e-06 0 0)
(2.55856e-05 1.05825e-05 0 4.80566e-06 0 0)
(2.34316e-05 1.47286e-05 0 9.73016e-06 0 0)
(1.86742e-05 1.75207e-05 0 1.69245e-05 0 0)
(1.15911e-05 1.70231e-05 0 2.54463e-05 0 0)
(4.39093e-06 1.17343e-05 0 3.1671e-05 0 0)
(5.1511e-07 3.72791e-06 0 2.71377e-05 0 0)
(9.02817e-08 -9.99189e-07 0 1.12988e-05 0 0)
(6.82667e-07 -3.11393e-06 0 1.46052e-05 0 0)
(1.99193e-06 -5.36343e-06 0 1.48131e-05 0 0)
(3.97476e-06 -7.36035e-06 0 1.40038e-05 0 0)
(6.49611e-06 -8.89927e-06 0 1.25791e-05 0 0)
(9.39844e-06 -9.86278e-06 0 1.07548e-05 0 0)
(1.25492e-05 -1.02088e-05 0 8.72745e-06 0 0)
(1.5855e-05 -9.93825e-06 0 6.67141e-06 0 0)
(1.92625e-05 -9.0584e-06 0 4.7248e-06 0 0)
(2.27471e-05 -7.55163e-06 0 3.00157e-06 0 0)
(2.6292e-05 -5.35502e-06 0 1.62445e-06 0 0)
(2.98561e-05 -2.35147e-06 0 7.72383e-07 0 0)
(3.33225e-05 1.62473e-06 0 7.4035e-07 0 0)
(3.638e-05 6.75796e-06 0 2.01764e-06 0 0)
(3.8341e-05 1.31403e-05 0 5.39167e-06 0 0)
(3.78522e-05 2.04655e-05 0 1.20738e-05 0 0)
(3.27084e-05 2.71534e-05 0 2.35814e-05 0 0)
(2.1555e-05 2.89254e-05 0 3.97101e-05 0 0)
(7.99242e-06 2.04808e-05 0 5.29843e-05 0 0)
(8.31495e-07 6.09221e-06 0 4.48133e-05 0 0)
(1.19855e-07 -1.33293e-06 0 1.5295e-05 0 0)
(8.96474e-07 -4.12802e-06 0 1.97704e-05 0 0)
(2.58937e-06 -7.07014e-06 0 2.00082e-05 0 0)
(5.10961e-06 -9.63261e-06 0 1.88596e-05 0 0)
(8.25509e-06 -1.15654e-05 0 1.69159e-05 0 0)
(1.18131e-05 -1.27548e-05 0 1.4502e-05 0 0)
(1.56307e-05 -1.3196e-05 0 1.18916e-05 0 0)
(1.96311e-05 -1.29367e-05 0 9.30292e-06 0 0)
(2.38102e-05 -1.20213e-05 0 6.8854e-06 0 0)
(2.82258e-05 -1.04501e-05 0 4.74149e-06 0 0)
(3.29878e-05 -8.14954e-06 0 2.96855e-06 0 0)
(3.82432e-05 -4.9408e-06 0 1.71441e-06 0 0)
(4.41412e-05 -4.98684e-07 0 1.25645e-06 0 0)
(5.0705e-05 5.70951e-06 0 2.14089e-06 0 0)
(5.74966e-05 1.44849e-05 0 5.46566e-06 0 0)
(6.26397e-05 2.67707e-05 0 1.35694e-05 0 0)
(6.05257e-05 4.20203e-05 0 3.13356e-05 0 0)
(4.31886e-05 5.16543e-05 0 6.34285e-05 0 0)
(1.53088e-05 3.78691e-05 0 9.43276e-05 0 0)
(1.13362e-06 9.12164e-06 0 7.47176e-05 0 0)
(1.66907e-07 -1.81536e-06 0 2.06193e-05 0 0)
(1.2209e-06 -5.54635e-06 0 2.66093e-05 0 0)
(3.44654e-06 -9.36966e-06 0 2.67895e-05 0 0)
(6.66242e-06 -1.25894e-05 0 2.50925e-05 0 0)
(1.05553e-05 -1.49226e-05 0 2.24028e-05 0 0)
(1.48358e-05 -1.62923e-05 0 1.92048e-05 0 0)
(1.93332e-05 -1.67719e-05 0 1.58763e-05 0 0)
(2.40019e-05 -1.64894e-05 0 1.26835e-05 0 0)
(2.89067e-05 -1.55541e-05 0 9.78153e-06 0 0)
(3.42167e-05 -1.40153e-05 0 7.25334e-06 0 0)
(4.02255e-05 -1.18349e-05 0 5.15896e-06 0 0)
(4.73992e-05 -8.84512e-06 0 3.58718e-06 0 0)
(5.64593e-05 -4.65249e-06 0 2.71969e-06 0 0)
(6.8448e-05 1.59663e-06 0 2.96251e-06 0 0)
(8.46908e-05 1.17471e-05 0 5.35527e-06 0 0)
(0.000105447 2.99222e-05 0 1.30855e-05 0 0)
(0.000120882 6.2676e-05 0 3.73717e-05 0 0)
(0.000101648 9.95194e-05 0 0.000101676 0 0)
(3.99377e-05 8.44596e-05 0 0.000182124 0 0)
(1.62085e-06 1.43932e-05 0 0.000129892 0 0)
(2.47857e-07 -2.55835e-06 0 2.80214e-05 0 0)
(1.72816e-06 -7.56028e-06 0 3.57629e-05 0 0)
(4.68768e-06 -1.24518e-05 0 3.5598e-05 0 0)
(8.76604e-06 -1.6349e-05 0 3.29642e-05 0 0)
(1.34849e-05 -1.89927e-05 0 2.91769e-05 0 0)
(1.84653e-05 -2.04039e-05 0 2.49251e-05 0 0)
(2.3532e-05 -2.07878e-05 0 2.07079e-05 0 0)
(2.869e-05 -2.03886e-05 0 1.6834e-05 0 0)
(3.40839e-05 -1.94045e-05 0 1.34551e-05 0 0)
(3.99975e-05 -1.79668e-05 0 1.06373e-05 0 0)
(4.69184e-05 -1.61423e-05 0 8.42448e-06 0 0)
(5.57073e-05 -1.39294e-05 0 6.88839e-06 0 0)
(6.79592e-05 -1.12e-05 0 6.15609e-06 0 0)
(8.6696e-05 -7.39468e-06 0 6.39536e-06 0 0)
(0.000118281 -5.66913e-07 0 7.92925e-06 0 0)
(0.0001764 1.68134e-05 0 1.23145e-05 0 0)
(0.000263685 7.32379e-05 0 3.3275e-05 0 0)
(0.000301656 0.00019516 0 0.000140881 0 0)
(0.000169839 0.000237218 0 0.000351579 0 0)
(1.38912e-05 5.407e-05 0 0.000235291 0 0)
(3.9819e-07 -3.71668e-06 0 3.73543e-05 0 0)
(2.55935e-06 -1.04307e-05 0 4.77043e-05 0 0)
(6.43962e-06 -1.63716e-05 0 4.66881e-05 0 0)
(1.14594e-05 -2.07698e-05 0 4.25315e-05 0 0)
(1.692e-05 -2.34642e-05 0 3.71902e-05 0 0)
(2.23707e-05 -2.46499e-05 0 3.15577e-05 0 0)
(2.76646e-05 -2.4713e-05 0 2.62528e-05 0 0)
(3.28839e-05 -2.40346e-05 0 2.16081e-05 0 0)
(3.82486e-05 -2.29044e-05 0 1.77567e-05 0 0)
(4.41122e-05 -2.15426e-05 0 1.47573e-05 0 0)
(5.10624e-05 -2.01636e-05 0 1.27021e-05 0 0)
(6.02095e-05 -1.90897e-05 0 1.18233e-05 0 0)
(7.39057e-05 -1.89725e-05 0 1.26405e-05 0 0)
(9.73074e-05 -2.10685e-05 0 1.61132e-05 0 0)
(0.000143779 -2.78068e-05 0 2.35899e-05 0 0)
(0.000259488 -3.94435e-05 0 3.23672e-05 0 0)
(0.000514013 1.07878e-05 0 2.78328e-05 0 0)
(0.000738861 0.000316545 0 0.000156754 0 0)
(0.000548019 0.000630028 0 0.000754176 0 0)
(0.000120573 0.000260497 0 0.000586784 0 0)
(6.07187e-07 -5.28682e-06 0 5.46146e-05 0 0)
(3.61613e-06 -1.36469e-05 0 6.42868e-05 0 0)
(8.56421e-06 -2.04866e-05 0 6.03464e-05 0 0)
(1.43326e-05 -2.48956e-05 0 5.35567e-05 0 0)
(2.00683e-05 -2.71667e-05 0 4.61095e-05 0 0)
(2.53628e-05 -2.77592e-05 0 3.87739e-05 0 0)
(3.01443e-05 -2.72327e-05 0 3.22424e-05 0 0)
(3.46099e-05 -2.60974e-05 0 2.67722e-05 0 0)
(3.90453e-05 -2.46875e-05 0 2.24131e-05 0 0)
(4.38029e-05 -2.32497e-05 0 1.92207e-05 0 0)
(4.93585e-05 -2.20758e-05 0 1.74114e-05 0 0)
(5.66089e-05 -2.17189e-05 0 1.75986e-05 0 0)
(6.75767e-05 -2.35283e-05 0 2.14503e-05 0 0)
(8.67294e-05 -3.07855e-05 0 3.34887e-05 0 0)
(0.00012516 -5.1638e-05 0 6.49669e-05 0 0)
(0.000232721 -0.000105552 0 0.000118354 0 0)
(0.000545438 -0.000118619 0 7.4485e-05 0 0)
(0.000898642 0.000331729 0 0.000155899 0 0)
(0.000853512 0.00111197 0 0.00168562 0 0)
(0.000336388 0.000804857 0 0.00222829 0 0)
(1.39065e-06 -8.0222e-06 0 5.75329e-05 0 0)
(6.00626e-06 -1.73622e-05 0 7.47696e-05 0 0)
(1.10199e-05 -2.27424e-05 0 7.08123e-05 0 0)
(1.61964e-05 -2.57846e-05 0 6.34649e-05 0 0)
(2.06538e-05 -2.68734e-05 0 5.49796e-05 0 0)
(2.42757e-05 -2.64738e-05 0 4.61506e-05 0 0)
(2.71746e-05 -2.52235e-05 0 3.8214e-05 0 0)
(2.96592e-05 -2.35903e-05 0 3.1681e-05 0 0)
(3.19935e-05 -2.18328e-05 0 2.65969e-05 0 0)
(3.4352e-05 -2.00993e-05 0 2.29568e-05 0 0)
(3.69358e-05 -1.85467e-05 0 2.0996e-05 0 0)
(4.00725e-05 -1.74883e-05 0 2.15871e-05 0 0)
(4.45022e-05 -1.76285e-05 0 2.72741e-05 0 0)
(5.16781e-05 -2.00391e-05 0 4.53434e-05 0 0)
(6.52738e-05 -2.5133e-05 0 9.51288e-05 0 0)
(0.000101666 -3.56872e-05 0 0.000182108 0 0)
(0.000227754 -7.62474e-05 0 0.000175543 0 0)
(0.000466871 9.40928e-05 0 6.83041e-05 0 0)
(0.000617341 0.000826488 0 0.00227329 0 0)
(0.000432787 0.0011668 0 0.00633268 0 0)
(1.4893e-06 -1.2976e-05 0 0.000143095 0 0)
(5.35436e-06 -1.75514e-05 0 0.000151799 0 0)
(9.87259e-06 -1.76941e-05 0 0.000124236 0 0)
(1.29937e-05 -1.63726e-05 0 9.89202e-05 0 0)
(1.43115e-05 -1.47249e-05 0 7.95305e-05 0 0)
(1.43961e-05 -1.24892e-05 0 6.28921e-05 0 0)
(1.35232e-05 -9.68429e-06 0 4.97175e-05 0 0)
(1.23529e-05 -6.98833e-06 0 3.9662e-05 0 0)
(1.12907e-05 -4.55259e-06 0 3.20553e-05 0 0)
(1.05797e-05 -2.29126e-06 0 2.64681e-05 0 0)
(1.04795e-05 1.75088e-08 0 2.27946e-05 0 0)
(1.14384e-05 2.84558e-06 0 2.15252e-05 0 0)
(1.44393e-05 7.24757e-06 0 2.42476e-05 0 0)
(2.26842e-05 1.66375e-05 0 3.53448e-05 0 0)
(4.56815e-05 3.96053e-05 0 6.68933e-05 0 0)
(0.000124207 9.6244e-05 0 0.000126717 0 0)
(0.00026534 0.000123297 0 0.000155301 0 0)
(0.000721592 1.4408e-05 0 2.06291e-05 0 0)
(0.000599026 7.00941e-05 0 0.00116547 0 0)
(0.000654369 -0.000141401 0 0.00896797 0 0)
(4.57374e-06 3.37707e-06 0 4.26483e-05 0 0)
(1.2967e-05 7.22307e-06 0 2.0883e-05 0 0)
(2.069e-05 1.21055e-05 0 1.91122e-05 0 0)
(2.42639e-05 2.02741e-05 0 2.63493e-05 0 0)
(3.72877e-05 3.06784e-05 0 2.78773e-05 0 0)
(6.02315e-05 3.78732e-05 0 2.41077e-05 0 0)
(9.17146e-05 4.26254e-05 0 2.00901e-05 0 0)
(0.000128747 4.59924e-05 0 1.70027e-05 0 0)
(0.000169343 4.81471e-05 0 1.44742e-05 0 0)
(0.000212521 4.93056e-05 0 1.23225e-05 0 0)
(0.000258169 5.01737e-05 0 1.06449e-05 0 0)
(0.000307733 5.18944e-05 0 9.6176e-06 0 0)
(0.000365003 5.62652e-05 0 9.50853e-06 0 0)
(0.000443109 6.608e-05 0 1.05958e-05 0 0)
(0.000554653 8.5354e-05 0 1.34478e-05 0 0)
(0.00079251 0.000103504 0 1.36835e-05 0 0)
(0.00101522 5.17583e-05 0 1.94709e-05 0 0)
(0.00200834 -0.000283444 0 9.97759e-05 0 0)
(0.000964091 -0.000202506 0 0.000193273 0 0)
(0.00292347 -0.00273253 0 0.00532585 0 0)
(5.08286e-05 0.000105148 0 0.000222498 0 0)
(0.00020664 0.000314571 0 0.000504503 0 0)
(0.000551877 0.000384673 0 0.000319579 0 0)
(0.00102027 0.000369795 0 0.00017865 0 0)
(0.00146768 0.000326835 0 0.000105403 0 0)
(0.0018683 0.000282027 0 6.60378e-05 0 0)
(0.00224261 0.000242733 0 4.31537e-05 0 0)
(0.00259533 0.000209623 0 2.90506e-05 0 0)
(0.00292318 0.00018135 0 1.99084e-05 0 0)
(0.00322526 0.000156558 0 1.37072e-05 0 0)
(0.00350301 0.000134681 0 9.38165e-06 0 0)
(0.00376052 0.000115896 0 6.37427e-06 0 0)
(0.00400228 0.000100395 0 4.31664e-06 0 0)
(0.00424845 8.77943e-05 0 2.93605e-06 0 0)
(0.00446897 7.43678e-05 0 1.94076e-06 0 0)
(0.00481605 4.79813e-05 0 9.02446e-07 0 0)
(0.00461795 -1.8675e-05 0 1.27107e-06 0 0)
(0.00570328 -0.000299318 0 3.7863e-05 0 0)
(0.00137059 -0.000375588 0 0.000317565 0 0)
(0.0127432 -0.00118199 0 0.000238712 0 0)
)
;

boundaryField
{
    movingWall
    {
        type            calculated;
        value           uniform (0 0 0 0 0 0);
    }
    fixedWalls
    {
        type            calculated;
        value           uniform (0 0 0 0 0 0);
    }
    frontAndBack
    {
        type            empty;
    }
}


// ************************************************************************* //
