/*--------------------------------*- C++ -*----------------------------------*\
| =========                 |                                                 |
| \\      /  F ield         | OpenFOAM: The Open Source CFD Toolbox           |
|  \\    /   O peration     | Version:  2312                                  |
|   \\  /    A nd           | Website:  www.openfoam.com                      |
|    \\/     M anipulation  |                                                 |
\*---------------------------------------------------------------------------*/
FoamFile
{
    version     2.0;
    format      ascii;
    arch        "LSB;label=32;scalar=64";
    class       volVectorField;
    location    "0.5";
    object      URandom;
}
// * * * * * * * * * * * * * * * * * * * * * * * * * * * * * * * * * * * * * //

dimensions      [0 1 -1 0 0 0 0];

internalField   nonuniform List<vector> 
400
(
(0.090796 -0.00177852 -0.0415285)
(0.0699819 -0.037017 -0.0600658)
(0.0122094 0.0490187 -0.0863566)
(-0.0774263 0.0300187 -0.0592215)
(-0.071376 -0.0421043 0.0596178)
(-0.092588 0.0192609 0.0426155)
(0.0352742 0.0195629 0.0895845)
(0.0745264 0.0596362 0.00969639)
(-0.0849324 0.0107729 0.060238)
(-0.0919467 0.0336725 -0.0388219)
(0.011675 -0.0983448 0.000458146)
(0.0205952 -0.0682034 -0.0681063)
(-0.0620424 -0.0685976 -0.0466777)
(-0.0895015 0.0417446 0.0345147)
(0.041848 -0.0880027 0.0116875)
(-0.0724174 -0.0672556 -0.029771)
(0.0482715 0.0283579 -0.0807197)
(-0.0362101 -0.0674469 0.0661037)
(-0.0756592 -0.0617542 0.0259411)
(-0.0620225 -0.0521831 0.0590508)
(0.0389754 -0.0624194 0.0668531)
(0.0521207 -0.0268872 0.079853)
(0.0370851 -0.0823789 0.0381731)
(0.0683017 0.056074 -0.0438576)
(-0.0632563 0.0614743 -0.0534423)
(-0.0353349 -0.0300575 0.0899488)
(-0.0657695 0.0806603 0.00453629)
(0.0347936 0.0797314 -0.045759)
(-0.0617898 -0.0778667 -0.028332)
(-0.0652205 0.0815967 -0.0019737)
(-0.0762409 -0.0187568 0.0697597)
(0.0147664 0.0233945 -0.0946911)
(0.0234266 0.0928153 -0.0194262)
(-0.0375224 0.0213438 -0.0924131)
(-0.0776214 -0.0647156 -0.0280459)
(-0.00616799 0.0980691 0.0102352)
(0.0940919 0.0184431 -0.00234655)
(-0.0111335 -0.0753703 0.0670657)
(0.00666562 -0.0674439 0.0747263)
(-0.00154334 0.0944081 -0.0299677)
(0.0243684 -0.0416382 -0.0866909)
(0.0550609 0.072627 0.042819)
(-0.0467398 -0.0767091 -0.0423353)
(0.0268661 0.0916301 0.0332439)
(-0.0330924 -0.0300815 0.090146)
(0.0872546 -0.033919 0.0139653)
(-0.0671923 0.00198795 -0.0789441)
(-0.0638969 -0.02185 0.0785039)
(-0.0845805 -0.0517678 0.0345514)
(0.0402193 -0.0857103 -0.0170183)
(-0.063959 0.0735764 -0.0377373)
(0.015678 -0.0876371 0.0428702)
(0.0270568 0.0804157 -0.0471265)
(-0.0727618 0.000942241 0.0751667)
(-0.0732261 -0.0258328 0.070226)
(0.0341683 0.035344 -0.0837945)
(0.0316081 -0.0659078 -0.0686192)
(0.0380445 -0.0399692 0.0832056)
(0.0653603 -0.0760878 0.00952383)
(-0.0266671 -0.0795254 0.0578014)
(-0.0749785 0.0242644 0.0631794)
(-0.0625364 -0.00563304 0.0787601)
(-0.0448406 0.0879204 -0.0322011)
(-0.0481257 0.0206673 -0.0877762)
(0.0877336 0.0338044 0.0235414)
(0.0684866 -0.0397694 0.0523594)
(-0.0205295 -0.0775311 -0.0583546)
(0.0122018 -0.0255015 0.0942565)
(0.0782688 -0.00882724 0.0505854)
(0.0631222 -0.0660351 0.0222414)
(-0.00989012 0.0311359 0.0950957)
(0.0549908 -0.034272 -0.0698711)
(0.0117721 -0.0541864 0.082468)
(0.0316074 -0.0687359 -0.0632927)
(-0.074608 -0.0236364 -0.0704129)
(-0.0309991 0.0931614 0.00859801)
(-0.0974685 -0.0362306 -0.0190843)
(0.0531011 0.0552958 -0.0571289)
(-0.0231105 -0.0989738 0.0236179)
(-0.00177895 -0.101624 0.0192512)
(-0.0512548 0.0435815 0.0763587)
(-0.0981874 -0.0218359 -0.00122472)
(0.0423398 0.0690062 0.0614815)
(-0.100009 -0.0157063 -0.0184048)
(-0.0849175 0.00564317 -0.0597651)
(0.00991484 -0.090187 0.0309262)
(0.0798361 -0.0347755 -0.0331328)
(-0.0563299 0.0693142 -0.0560849)
(-0.0733655 0.0766318 0.0118332)
(0.00929382 0.0605969 0.078503)
(0.0160531 0.0381978 0.089226)
(0.0793665 0.0402161 -0.0240495)
(0.00947039 0.0545103 0.0808986)
(0.0444056 0.0283629 -0.0792558)
(0.0331098 0.0653024 -0.0602214)
(-0.0829428 0.0149198 0.0617809)
(0.0920331 0.00674529 -0.0186896)
(0.0163075 0.0584578 0.0741205)
(0.0566079 -0.0601539 -0.0594537)
(0.0594234 0.0233633 -0.0745373)
(-0.0464966 -0.044054 -0.074353)
(0.0268739 0.0824678 0.056789)
(-0.090701 0.00760639 0.0477793)
(0.0660569 0.0428194 -0.0606385)
(-0.0188557 0.0478886 -0.0892772)
(0.0124765 -0.0319829 -0.0912036)
(-0.0590492 0.0891764 -0.00665653)
(0.0276777 -0.00917493 0.0926114)
(0.0666349 0.0517905 0.0437129)
(0.0333864 0.0126427 0.0898214)
(-0.0865428 -0.0138451 -0.0621458)
(0.0237674 0.0372801 0.0863376)
(0.06478 -0.0606592 0.031217)
(-0.0172376 0.0962532 -0.0103555)
(-0.0697228 0.048331 -0.0593523)
(0.0172648 -0.0364592 0.0916898)
(0.0575051 -0.0724009 0.0394386)
(0.00959043 -0.0804869 0.0664321)
(-0.00554202 -0.0707992 -0.0773226)
(0.0698233 0.0417474 -0.0512589)
(0.0314524 0.0833899 -0.0542116)
(0.091242 -0.0240605 0.0200098)
(-0.0652318 0.0529637 -0.0631754)
(0.075889 -0.0531777 0.00218348)
(0.0355386 -0.0295258 0.0839113)
(-0.0555614 0.0880576 -0.028475)
(0.0810772 -0.033874 0.0245913)
(0.0368839 0.0918517 -0.0151481)
(-0.0035007 -0.0234217 0.0962014)
(0.0249539 0.0669931 0.0675587)
(0.0815385 -0.00338472 0.0384858)
(-0.0564209 -0.0861791 -0.0237666)
(0.0747473 -0.0355963 -0.0387568)
(-0.0661373 0.0153067 0.0811638)
(0.00289261 -0.0209181 0.0978469)
(0.0444475 -0.0909353 -0.000748011)
(0.0313624 -0.0994366 0.0103098)
(0.0279604 0.0450118 0.0770523)
(0.0636447 -0.0327526 -0.0703625)
(0.0753729 0.0323188 -0.04939)
(0.0576405 0.053642 0.066445)
(0.0633909 -0.05276 0.0452572)
(0.00145985 0.064203 -0.0825285)
(0.0352373 -0.0531393 0.0685098)
(-0.0632688 -0.0578548 -0.0498725)
(0.0175692 0.056284 -0.0831947)
(-0.0151255 -0.0842641 -0.0426004)
(0.00404707 -0.0871244 -0.0362688)
(-0.0341795 0.00376665 0.0971622)
(0.060898 -0.0606462 0.0274835)
(0.0310783 0.0321871 0.0848555)
(0.000556812 -0.0620928 -0.0773699)
(-0.0870913 0.0189325 0.0635143)
(-0.0343095 0.0419382 -0.0862913)
(-0.062714 -0.0868849 -0.0292302)
(0.0675738 -0.0694743 -0.00160806)
(-0.079366 -0.0374265 0.0659887)
(-0.0324576 0.0851922 0.00596221)
(-0.0871996 -0.0450418 0.0455266)
(-0.0671541 0.0552201 -0.0356733)
(-0.0717512 0.0754983 0.0210946)
(0.0602771 0.0678593 0.0517247)
(-0.0697202 0.0281847 0.0727622)
(0.0635795 0.00769988 -0.0724991)
(-0.0594743 0.0449411 -0.0768473)
(0.0252184 -0.0615656 0.0636301)
(0.063736 -0.00086439 -0.0676869)
(-0.0278202 -0.0897143 -0.0227766)
(-0.0463792 -0.0053365 -0.0932319)
(0.0581712 0.0724169 -0.0157232)
(-0.00909082 0.0680245 0.0750669)
(-0.0656753 0.0861149 0.00047712)
(-0.0833551 -0.00987922 -0.0722462)
(0.000901452 0.0812047 -0.0501178)
(0.0613286 -0.0519345 -0.046424)
(-0.0719204 0.0588213 0.044752)
(0.0101497 -0.0859177 0.0634209)
(0.0898812 -0.0203435 0.0112557)
(-0.0498708 0.0308698 -0.0767306)
(0.0286047 0.0392097 0.0786334)
(-0.0207476 0.052652 0.0881109)
(-0.0605666 0.0921595 0.00594933)
(0.0836234 -0.0312312 -0.0224676)
(-0.049464 -0.0570626 -0.0591777)
(-0.0334718 0.105879 0.0128667)
(0.0126138 0.093876 0.0489324)
(0.0637285 -0.0322545 -0.0532965)
(-0.0967812 -0.025947 0.0408321)
(0.0277755 0.0756491 -0.0591164)
(-0.0809527 0.0625942 -0.0467164)
(-0.0818461 -0.0211686 -0.070585)
(0.0480815 -0.0384381 0.065573)
(0.0400365 -0.0788626 -0.0263591)
(-0.0742798 -0.0309599 0.077807)
(-0.00827299 0.0360047 0.0898704)
(-0.0292474 0.0336368 -0.0890238)
(0.0601118 -0.0775421 0.0158541)
(-0.108639 -0.0324923 0.0226038)
(0.0739856 -0.0740227 -0.0210883)
(0.0121541 -0.111521 -0.0338405)
(0.0370313 -0.0810133 0.00429423)
(-0.0629305 0.0401085 -0.0750695)
(0.0673938 -0.0319843 0.052832)
(-0.0564572 0.0647712 -0.0691305)
(-0.0128376 -0.0206487 -0.0944764)
(0.0631587 -0.0213351 0.060026)
(0.0523996 -0.0630265 -0.0243413)
(0.0144134 -0.0442736 0.0802653)
(0.0350063 0.0887674 0.030501)
(-0.0580695 -0.0558686 0.0663228)
(-0.0858093 0.0735982 -0.0213801)
(-0.00225638 -0.0769534 0.0589494)
(0.0662613 0.0486437 0.014906)
(-0.0761562 0.0279548 -0.0773949)
(-0.0770346 0.0061081 -0.0824286)
(-0.0517686 0.0557187 -0.0681591)
(-0.0512395 -0.000969024 -0.0939453)
(0.0713864 -0.00974881 -0.0452482)
(-0.0632876 0.032335 -0.0611532)
(0.0549038 -0.032126 0.0810751)
(0.0763074 -0.00801537 -0.0595877)
(0.0426197 -0.0739053 0.00359207)
(-0.0659337 -0.0641896 0.008103)
(-0.010587 0.0975358 -0.0555153)
(0.0207794 0.0482388 -0.088843)
(-0.0796296 0.0462835 -0.064583)
(-0.0527454 0.0712445 0.0694494)
(-0.0840516 -0.0459532 0.0445608)
(-0.0551762 0.0144149 0.0917521)
(-0.0870501 0.0213055 -0.0703025)
(-0.0265331 -0.0479997 0.0840433)
(0.0648873 -0.0386671 0.0298106)
(0.0289264 0.0672099 -0.0549779)
(-0.0451434 0.0577098 0.077889)
(-0.0291789 -0.0700578 -0.076343)
(0.0306546 0.0184302 0.07497)
(-0.00377897 0.0663751 0.0456919)
(-0.0153135 0.0693622 0.0170807)
(0.0685138 -0.0624396 -0.0496963)
(0.0211321 -0.0836024 -0.0813293)
(-0.0782065 -0.0423074 0.0275923)
(0.066696 0.0515502 0.0622268)
(-0.00255941 0.107437 -0.0429611)
(-0.0744198 -0.0565358 -0.0175027)
(0.058121 0.0534104 -0.0621327)
(-0.00169769 0.109121 0.0300375)
(0.0721003 0.00269927 -0.0498543)
(-0.0738756 -0.0687867 0.0107543)
(-0.0501076 -0.0357454 -0.0823729)
(-0.0520951 -0.00199984 -0.0936338)
(0.0446426 -0.0200792 0.0706773)
(0.00102376 -0.0889931 0.0214179)
(0.0197054 0.0286447 0.085855)
(-0.0573762 0.0844665 0.0471559)
(0.0361612 -0.07182 -0.0224779)
(0.00852054 0.0490985 0.0673623)
(-0.0141658 -0.0102249 0.0958524)
(-0.121662 0.01678 0.0161895)
(0.0611482 -0.000511327 -0.0172915)
(0.0413582 -0.121878 -0.0343705)
(-0.0519954 0.0734496 -0.0663022)
(-0.0518076 0.0502399 -0.082723)
(0.0658147 0.087661 -0.00780053)
(0.0583267 0.0897666 -0.0185856)
(-0.0262823 -0.0508856 -0.0715098)
(-0.0901151 0.0194929 -0.0641425)
(0.0512672 0.017237 0.0747606)
(-0.107468 0.0216857 0.0409564)
(0.0576594 0.0656517 0.0370226)
(0.0722153 0.0413546 0.0244564)
(0.010939 0.103395 0.0109224)
(-0.0135559 0.0188295 0.0989025)
(-0.113596 0.0538453 0.0177907)
(0.0441113 0.00264083 0.0655163)
(-0.0296542 0.0977294 -0.0320773)
(0.0216185 -0.0498782 0.0526232)
(-0.0489692 0.0724537 -0.0481611)
(0.010665 0.00521021 0.0446345)
(0.019213 -0.0983131 0.06673)
(-0.0798457 -0.0379324 -0.0745416)
(0.0649724 -0.0522486 -0.0111575)
(-0.0578304 -0.0273655 0.0686104)
(0.0734338 0.051192 0.0497892)
(-0.0477472 0.0886359 0.0637236)
(0.0531345 0.0852204 -0.0362495)
(0.028519 -0.0436038 0.0662407)
(-0.0517019 -0.0632754 -0.049069)
(-0.0451957 0.0440789 0.0914402)
(-0.056752 0.0660893 0.0760271)
(-0.0466949 0.0970326 0.0461292)
(0.0378181 -0.0436311 0.0583342)
(-0.0757609 -0.03141 -0.0742719)
(0.037587 0.0570212 -0.0608991)
(0.00506076 0.0749934 -0.0682897)
(-0.122179 0.0703732 -0.00713378)
(0.0199925 -0.00688108 0.0616343)
(-0.0507497 -0.0187346 -0.0944004)
(-0.175996 -0.0641005 -0.0476723)
(-0.149086 -0.0531852 0.0414724)
(-0.0288762 -0.19381 -0.00847581)
(0.0287142 0.114765 0.0328597)
(0.0357249 0.0982071 -0.055741)
(-0.03024 -0.00580795 0.0928273)
(-0.0695328 0.0730314 0.0646909)
(0.0804482 0.0479699 0.0207332)
(-0.103169 0.0401816 0.0420591)
(-0.0271472 -0.0817631 0.00587075)
(0.0475973 0.0362184 -0.07357)
(-0.0360325 -0.0815366 -0.0201272)
(0.0527071 -0.0282729 -0.0553473)
(-0.0721695 -0.0662788 0.0314698)
(-0.0868884 -0.0582552 0.0253558)
(-0.0772298 0.0248918 0.0840728)
(-0.0115259 0.0994243 0.0564531)
(-0.0722851 0.116841 0.00572339)
(-0.011139 0.0598007 -0.0905495)
(-0.0718315 0.0858725 -0.0703378)
(-0.030018 -0.0683427 -0.0877276)
(-0.0863344 -0.123036 0.096649)
(-0.0140592 -0.187245 -0.0916641)
(0.0544463 -0.0153166 -0.0687419)
(0.0807536 0.0666449 -0.0241639)
(-0.0629077 -0.0578281 -0.0110481)
(-0.0842106 0.0187926 -0.069118)
(-0.0615469 -0.0610733 -0.027076)
(-0.0608021 -0.0106778 0.0827316)
(0.00950153 0.113716 0.0176644)
(0.0407422 -0.0251258 -0.0718684)
(0.0623064 0.0611484 0.0436451)
(0.0616006 -0.0111272 0.057903)
(0.028195 -0.0593601 0.0510965)
(0.0254373 -0.063582 -0.0461214)
(-0.0318865 0.115222 -0.00310715)
(-0.0915038 0.0866593 0.000373853)
(-0.0871172 0.0960786 0.0145446)
(0.046033 0.0798069 0.0701443)
(-0.0232137 -0.0593647 -0.0450248)
(-0.0271861 -0.0678556 0.0898661)
(-0.0759361 -0.0755125 -0.0674632)
(-0.0598927 -0.335374 0.0218948)
(0.0164643 0.137357 -0.0362429)
(0.0749439 0.0185619 0.0497981)
(0.0370722 -0.0332441 -0.057826)
(0.0502619 -0.051436 -0.0102219)
(0.0765541 0.058143 -0.0408544)
(-0.0512708 -0.0388007 -0.0665135)
(-0.0402545 0.0609568 0.0847338)
(0.0744082 -0.0372144 0.0223397)
(-0.0572691 0.0975569 0.0264579)
(0.0451991 0.0516821 -0.0789346)
(0.0663761 -0.0157579 -0.0650797)
(0.0465219 0.0898542 -0.0443317)
(0.0544562 -0.0678893 0.0127719)
(-0.0664429 -0.044392 -0.0337328)
(-0.0100116 0.00310527 0.0956621)
(-0.0430092 -0.0297551 -0.046893)
(-0.05087 -0.0246879 -0.0304008)
(0.0645843 0.0404917 -0.0828654)
(0.0724446 -0.154003 0.0279268)
(-0.0829156 -0.329112 -0.0291251)
(-0.0488799 -0.0467103 0.0609739)
(-0.0295156 -0.0366952 0.0842212)
(0.032178 -0.0254191 -0.0869614)
(0.0781389 0.0231389 -0.067932)
(0.028233 -0.0401329 -0.0828431)
(0.0337964 -0.0319854 -0.08821)
(-0.0644624 -0.0299778 -0.00636465)
(0.0325339 0.044331 -0.0944625)
(0.0100125 0.084807 -0.0618363)
(0.106615 0.082229 0.0252689)
(0.0224029 -0.0562237 0.0710624)
(0.0567426 0.0774766 0.073151)
(0.0429833 0.0530013 0.0890921)
(0.0814869 -0.00787468 0.0964014)
(0.153327 -0.0216652 -0.0423493)
(0.145734 -0.0339726 0.0611307)
(0.0523496 0.0768402 0.0615907)
(0.177457 -0.07386 0.0476604)
(-0.0517078 -0.0397284 0.0468934)
(0.100102 -0.164929 -0.0738433)
(0.0823107 0.144607 0.0746004)
(-7.34707e-05 0.011845 -0.0514017)
(0.0236611 0.021914 -0.0725404)
(0.175306 0.00144031 -0.0712521)
(0.112151 -0.0419774 0.0759319)
(0.21658 0.0815149 0.00630887)
(0.101529 -0.0501576 -0.0572481)
(0.139319 0.0742228 -0.0745208)
(0.0938299 0.0360352 0.0545303)
(0.0954663 -0.0279229 0.0298635)
(0.161391 -0.0714561 -0.0513068)
(0.238242 0.0844296 0.0519923)
(0.173235 -0.0547504 -0.0704514)
(0.160449 -0.0186628 0.0794284)
(0.262652 0.00912789 -0.0916547)
(0.258283 0.0805597 -0.0587342)
(0.179958 0.0528591 -0.0706607)
(0.351 0.020536 -0.000365736)
(0.195619 -0.030087 0.0680984)
(0.314689 -0.17803 -0.0096982)
)
;

boundaryField
{
    movingWall
    {
        type            fixedValue;
        value           uniform (1 0 0);
    }
    fixedWalls
    {
        type            noSlip;
    }
    frontAndBack
    {
        type            empty;
    }
}


// ************************************************************************* //
