/*--------------------------------*- C++ -*----------------------------------*\
| =========                 |                                                 |
| \\      /  F ield         | OpenFOAM: The Open Source CFD Toolbox           |
|  \\    /   O peration     | Version:  2312                                  |
|   \\  /    A nd           | Website:  www.openfoam.com                      |
|    \\/     M anipulation  |                                                 |
\*---------------------------------------------------------------------------*/
FoamFile
{
    version     2.0;
    format      ascii;
    arch        "LSB;label=32;scalar=64";
    class       volScalarField;
    location    "0.5";
    object      Ux;
}
// * * * * * * * * * * * * * * * * * * * * * * * * * * * * * * * * * * * * * //

dimensions      [0 1 -1 0 0 0 0];

internalField   nonuniform List<scalar> 
400
(
-0.000152568
-0.000678403
-0.00154155
-0.00244315
-0.00331389
-0.00410659
-0.00479692
-0.00536989
-0.00581379
-0.00611447
-0.00625201
-0.00622497
-0.00600573
-0.00558853
-0.00496668
-0.00414707
-0.00315929
-0.00207088
-0.000985781
-0.000251707
-0.00038727
-0.00114797
-0.00206187
-0.00300066
-0.00391166
-0.0047571
-0.00550687
-0.00613649
-0.00662616
-0.0069581
-0.0071146
-0.00708032
-0.00684162
-0.00639064
-0.00572861
-0.0048709
-0.00384969
-0.00271889
-0.00155927
-0.000530117
-0.000525602
-0.00140103
-0.0023379
-0.00328169
-0.00419316
-0.00504526
-0.00581054
-0.00646241
-0.00697765
-0.00733566
-0.00751708
-0.00750461
-0.00728416
-0.00684722
-0.00619492
-0.00534075
-0.00431027
-0.00314478
-0.00191209
-0.000703968
-0.00058035
-0.00153504
-0.00252771
-0.00351293
-0.00445633
-0.00533787
-0.00613516
-0.00682335
-0.00737872
-0.00777924
-0.00800367
-0.00803198
-0.00784632
-0.0074333
-0.00678744
-0.00591336
-0.00482629
-0.00356055
-0.00218614
-0.000805106
-0.000604651
-0.00162678
-0.00269589
-0.00375219
-0.00475929
-0.00569923
-0.00655358
-0.00730039
-0.00791716
-0.00838145
-0.00867027
-0.00875987
-0.00862603
-0.00824622
-0.00760286
-0.00668639
-0.00549938
-0.00407395
-0.0024941
-0.000903799
-0.000628568
-0.00172082
-0.00288201
-0.00403158
-0.00512809
-0.00615232
-0.00708836
-0.00791727
-0.00861872
-0.00917103
-0.00954978
-0.00972703
-0.00967012
-0.00934331
-0.00871126
-0.00774326
-0.00642327
-0.00478025
-0.00291852
-0.00104346
-0.000663921
-0.00183967
-0.00310928
-0.00437137
-0.00557839
-0.00670865
-0.00774793
-0.00868078
-0.00949029
-0.0101569
-0.0106559
-0.010956
-0.0110146
-0.010779
-0.0101891
-0.00918195
-0.00770819
-0.00578287
-0.00353316
-0.00125224
-0.00071484
-0.00199435
-0.0033914
-0.00478448
-0.00611983
-0.00737322
-0.00853284
-0.00958784
-0.0105268
-0.0113346
-0.0119889
-0.0124575
-0.0126886
-0.0126094
-0.0121274
-0.0111289
-0.00950219
-0.00721909
-0.00442344
-0.00155443
-0.000783052
-0.00219154
-0.00373831
-0.00528084
-0.0067591
-0.00814741
-0.00943807
-0.0106275
-0.0117126
-0.0126871
-0.013536
-0.0142278
-0.0147089
-0.0148907
-0.0146367
-0.0137569
-0.0120224
-0.0092955
-0.00570447
-0.00197358
-0.000870986
-0.00243917
-0.00416171
-0.0058719
-0.00750337
-0.0090311
-0.0104547
-0.0117811
-0.0130203
-0.01418
-0.0152591
-0.0162391
-0.0170746
-0.0176689
-0.0178447
-0.0173049
-0.0156054
-0.0123402
-0.00752796
-0.00251271
-0.000984175
-0.00275154
-0.00468004
-0.00657438
-0.00836241
-0.0100233
-0.0115686
-0.0130206
-0.0144072
-0.0157564
-0.0170911
-0.0184209
-0.0197313
-0.0209465
-0.0218747
-0.0220959
-0.0207806
-0.0168825
-0.0100626
-0.00304256
-0.00113451
-0.00315474
-0.00532283
-0.00741175
-0.00934682
-0.011118
-0.0127552
-0.0143013
-0.0158061
-0.017324
-0.0189128
-0.0206316
-0.0225283
-0.0246149
-0.0267865
-0.0285686
-0.0285124
-0.0241052
-0.0139911
-0.00307006
-0.00134581
-0.00369517
-0.00613156
-0.0084085
-0.0104577
-0.0122913
-0.0139656
-0.0155477
-0.0171107
-0.0187365
-0.0205248
-0.0226055
-0.0251478
-0.0283487
-0.0324384
-0.0373227
-0.0409776
-0.0383258
-0.0245458
-0.00403329
-0.00165822
-0.00442736
-0.00714417
-0.00956698
-0.0116589
-0.0134723
-0.0150976
-0.0166267
-0.0181512
-0.0197738
-0.0216287
-0.0239234
-0.0269994
-0.0313769
-0.0379657
-0.0483078
-0.0609052
-0.065847
-0.0492817
-0.0152881
-0.0021536
-0.00545879
-0.00837118
-0.0108219
-0.0128222
-0.014485
-0.0159379
-0.0172933
-0.0186487
-0.0201057
-0.0217994
-0.0239697
-0.0270844
-0.0319042
-0.0400554
-0.0559749
-0.0783561
-0.0896285
-0.0755459
-0.0372454
-0.00274549
-0.00662661
-0.00964255
-0.0119061
-0.013599
-0.0149186
-0.0160161
-0.0170378
-0.0180655
-0.0191612
-0.0203965
-0.0219138
-0.0240382
-0.0272125
-0.0321776
-0.0432791
-0.0634866
-0.0749508
-0.073323
-0.0491015
-0.00430692
-0.00867634
-0.0108104
-0.0121587
-0.0130667
-0.0137487
-0.0142975
-0.0147814
-0.0152572
-0.0157361
-0.0161663
-0.0164933
-0.0166134
-0.0161507
-0.0140868
-0.0109048
-0.0133417
-0.0101949
-0.0327029
-0.0388137
-0.00540075
-0.0087839
-0.00916781
-0.00884105
-0.00843811
-0.00779298
-0.00694726
-0.00605083
-0.00516834
-0.00426778
-0.00322857
-0.00181554
0.000293832
0.00415128
0.0110269
0.0237799
0.0325451
0.055584
0.0160291
-0.00831932
-0.00616136
-0.00719229
-0.0010343
0.00542345
0.0128142
0.0197068
0.0260043
0.0317099
0.0369198
0.0417681
0.0463949
0.0509949
0.0558507
0.0617172
0.0687891
0.0801062
0.0837399
0.107985
0.0363835
0.0690624
0.0408348
0.0635817
0.0890608
0.110756
0.127094
0.140505
0.152519
0.163549
0.173734
0.183206
0.192065
0.200389
0.208223
0.215916
0.222849
0.231687
0.229745
0.25389
0.12938
0.377551
)
;

boundaryField
{
    movingWall
    {
        type            calculated;
        value           uniform 1;
    }
    fixedWalls
    {
        type            calculated;
        value           uniform 0;
    }
    frontAndBack
    {
        type            empty;
    }
}


// ************************************************************************* //
