/*--------------------------------*- C++ -*----------------------------------*\
| =========                 |                                                 |
| \\      /  F ield         | OpenFOAM: The Open Source CFD Toolbox           |
|  \\    /   O peration     | Version:  2312                                  |
|   \\  /    A nd           | Website:  www.openfoam.com                      |
|    \\/     M anipulation  |                                                 |
\*---------------------------------------------------------------------------*/
FoamFile
{
    version     2.0;
    format      ascii;
    arch        "LSB;label=32;scalar=64";
    class       volScalarField;
    location    "0.5";
    object      Uy;
}
// * * * * * * * * * * * * * * * * * * * * * * * * * * * * * * * * * * * * * //

dimensions      [0 1 -1 0 0 0 0];

internalField   nonuniform List<scalar> 
400
(
0.000153717
0.000389168
0.000506436
0.000517094
0.000478053
0.000420645
0.000355604
0.000285013
0.00020749
0.000121146
3.41024e-05
-6.95849e-05
-0.000179155
-0.000295319
-0.000413994
-0.000525863
-0.000610959
-0.000627586
-0.000509252
-0.000246899
0.000677703
0.00114742
0.0013488
0.00137045
0.00129017
0.00115473
0.000986978
0.000795719
0.000582482
0.000346493
8.86349e-05
-0.000191977
-0.000493056
-0.000806196
-0.00111641
-0.00139724
-0.00160534
-0.00167241
-0.00150197
-0.000990539
0.00154712
0.002068
0.00226045
0.00226592
0.00214471
0.00193775
0.00166986
0.00135409
0.000995782
0.000596695
0.000158325
-0.000317547
-0.000823318
-0.00134335
-0.00185104
-0.00230598
-0.00265218
-0.00281713
-0.002714
-0.00216318
0.00250952
0.00306629
0.00322854
0.00320196
0.00303405
0.00275626
0.00239107
0.00195302
0.00144981
0.000885027
0.000261254
-0.000416917
-0.00113787
-0.00187893
-0.00260326
-0.00325838
-0.00377737
-0.0040821
-0.00408247
-0.00349907
0.00353261
0.00413611
0.00426201
0.00419241
0.00397069
0.00362009
0.00315907
0.00260149
0.00195586
0.00122636
0.000415838
-0.000470099
-0.0014177
-0.00239924
-0.00336973
-0.00426566
-0.00500703
-0.00550122
-0.00563593
-0.00500606
0.00460563
0.00528388
0.00537921
0.00526184
0.0049801
0.00455301
0.00399568
0.00332049
0.00253525
0.00164311
0.000645086
-0.00045503
-0.00164495
-0.00289537
-0.00415618
-0.00535319
-0.00638757
-0.00713657
-0.00744043
-0.00673376
0.00573917
0.00652381
0.00659915
0.00643355
0.0060873
0.00557987
0.00492504
0.004134
0.00321297
0.00216211
0.000977963
-0.000341465
-0.00179097
-0.00334511
-0.00495427
-0.00653554
-0.00796422
-0.00906535
-0.00959556
-0.0087814
0.00695456
0.00787462
0.00794006
0.00772669
0.00731212
0.0067206
0.00596745
0.00506378
0.00401389
0.00281322
0.0014502
-8.8479e-05
-0.00180807
-0.00370068
-0.00572702
-0.00780344
-0.00977612
-0.0113866
-0.012248
-0.0112937
0.00827823
0.00935951
0.0094215
0.00915833
0.00866983
0.00798961
0.00713781
0.00612744
0.00496102
0.00362818
0.00210639
0.000365709
-0.00162104
-0.00387654
-0.00639223
-0.00910708
-0.0118488
-0.0142376
-0.0156248
-0.0144723
0.00974064
0.0110065
0.0110652
0.010744
0.010171
0.00939456
0.00844368
0.0073355
0.00607223
0.00463748
0.00299614
0.00109732
-0.00112256
-0.00373354
-0.00679371
-0.0103194
-0.0141737
-0.0178103
-0.0200706
-0.0185713
0.0113792
0.0128493
0.0128948
0.0124962
0.0118194
0.0109337
0.00988147
0.00868728
0.0073549
0.00586373
0.00416691
0.00219
-0.000173115
-0.00305985
-0.00665524
-0.0111683
-0.0166707
-0.022445
-0.0262089
-0.0238163
0.0132463
0.0149305
0.0149348
0.0144216
0.0136074
0.0125908
0.0114317
0.0101647
0.00879815
0.00731152
0.00565332
0.00373394
0.00140836
-0.0015513
-0.005513
-0.0111015
-0.0190679
-0.0287753
-0.035547
-0.0306893
0.0154083
0.0173023
0.0172062
0.0165132
0.0155093
0.0143292
0.0130529
0.0117254
0.0103622
0.00895104
0.00745128
0.00578527
0.0038029
0.0011975
-0.00261855
-0.00887321
-0.0198916
-0.036069
-0.0490658
-0.0396697
0.0180402
0.0200403
0.0197186
0.0187383
0.0174701
0.0160838
0.0146743
0.013294
0.0119666
0.0106969
0.00947996
0.00830252
0.00710734
0.00566631
0.00337922
-0.00149319
-0.0143682
-0.0411973
-0.0690629
-0.0545416
0.0210291
0.0231303
0.0224002
0.020991
0.0193744
0.017738
0.0161801
0.0147507
0.0134773
0.0123856
0.0115312
0.0110324
0.0110983
0.0119846
0.0137613
0.0138591
-0.000666551
-0.0477281
-0.106776
-0.0945215
0.0257117
0.0267978
0.0251572
0.0230889
0.0210392
0.0191349
0.0174419
0.0159762
0.014755
0.0138178
0.0132775
0.0134063
0.0147715
0.0183874
0.0254152
0.0320914
0.0152824
-0.0514634
-0.145165
-0.168017
0.0273755
0.0289833
0.0268112
0.0243818
0.0220926
0.0200055
0.0182087
0.0167317
0.0155524
0.0146852
0.0142688
0.0146142
0.0164443
0.0209192
0.0293326
0.0369365
0.0293783
-0.0274157
-0.135342
-0.240104
0.0467569
0.0411408
0.033972
0.0285787
0.0248678
0.0219088
0.0195949
0.0178063
0.0164058
0.0153179
0.0145706
0.0143679
0.015197
0.0178861
0.0232583
0.0280399
0.0213307
-0.0147562
-0.0763024
-0.269219
0.0200528
0.0123808
0.0111138
0.0132542
0.0137121
0.0129644
0.0121561
0.0115262
0.0109675
0.0104216
0.00991645
0.0095362
0.00944647
0.0098999
0.0108901
0.0102545
0.00458209
-0.0199878
-0.0461259
-0.224793
0.092506
0.0693419
0.0433793
0.0289435
0.0213555
0.0169181
0.0140506
0.0120977
0.0107004
0.0096269
0.00871103
0.00785314
0.00699406
0.00612633
0.00524401
0.0041203
0.00257691
-0.00332953
0.00113977
-0.100866
)
;

boundaryField
{
    movingWall
    {
        type            calculated;
        value           uniform 0;
    }
    fixedWalls
    {
        type            calculated;
        value           uniform 0;
    }
    frontAndBack
    {
        type            empty;
    }
}


// ************************************************************************* //
