/*--------------------------------*- C++ -*----------------------------------*\
| =========                 |                                                 |
| \\      /  F ield         | OpenFOAM: The Open Source CFD Toolbox           |
|  \\    /   O peration     | Version:  2312                                  |
|   \\  /    A nd           | Website:  www.openfoam.com                      |
|    \\/     M anipulation  |                                                 |
\*---------------------------------------------------------------------------*/
FoamFile
{
    version     2.0;
    format      ascii;
    arch        "LSB;label=32;scalar=64";
    class       volVectorField;
    location    "0.5";
    object      vorticityField;
}
// * * * * * * * * * * * * * * * * * * * * * * * * * * * * * * * * * * * * * //

dimensions      [0 0 -1 0 0 0 0];

internalField   nonuniform List<vector> 
400
(
(0 -0 0.108272)
(0 -0 0.217909)
(0 -0 0.373135)
(0 -0 0.541543)
(0 -0 0.71291)
(0 -0 0.874124)
(0 -0 1.01682)
(0 -0 1.13583)
(0 -0 1.22761)
(0 -0 1.28992)
(0 -0 1.31759)
(0 -0 1.3092)
(0 -0 1.26216)
(0 -0 1.17443)
(0 -0 1.04647)
(0 -0 0.8821)
(0 -0 0.690725)
(0 -0 0.489148)
(0 -0 0.292574)
(0 -0 0.153798)
(0 -0 0.219816)
(0 -0 0.139372)
(0 -0 0.101938)
(0 -0 0.0779902)
(0 -0 0.0663553)
(0 -0 0.0635486)
(0 -0 0.0654599)
(0 -0 0.0688025)
(0 -0 0.0714631)
(0 -0 0.0727339)
(0 -0 0.0726599)
(0 -0 0.0697942)
(0 -0 0.0664216)
(0 -0 0.0635334)
(0 -0 0.0637192)
(0 -0 0.070475)
(0 -0 0.0875815)
(0 -0 0.117726)
(0 -0 0.160818)
(0 -0 0.294477)
(0 -0 0.38082)
(0 -0 0.11004)
(0 -0 0.0663755)
(0 -0 0.0396536)
(0 -0 0.02165)
(0 -0 0.0105921)
(0 -0 0.00446342)
(0 -0 0.00127785)
(0 -0 -0.000482893)
(0 -0 -0.0016317)
(0 -0 -0.00251731)
(0 -0 -0.00299874)
(0 -0 -0.00211064)
(0 -0 0.00149352)
(0 -0 0.00962075)
(0 -0 0.0241324)
(0 -0 0.0465447)
(0 -0 0.0779838)
(0 -0 0.128083)
(0 -0 0.515217)
(0 -0 0.565486)
(0 -0 0.0944779)
(0 -0 0.0493652)
(0 -0 0.0276002)
(0 -0 0.0120423)
(0 -0 0.00109924)
(0 -0 -0.00601903)
(0 -0 -0.0103281)
(0 -0 -0.0128483)
(0 -0 -0.0142765)
(0 -0 -0.0148757)
(0 -0 -0.014386)
(0 -0 -0.0120143)
(0 -0 -0.00663935)
(0 -0 0.00284888)
(0 -0 0.0171525)
(0 -0 0.0365384)
(0 -0 0.0624066)
(0 -0 0.116503)
(0 -0 0.778137)
(0 -0 0.771694)
(0 -0 0.0915167)
(0 -0 0.0410601)
(0 -0 0.0227335)
(0 -0 0.00994344)
(0 -0 0.000282579)
(0 -0 -0.00654013)
(0 -0 -0.0109291)
(0 -0 -0.0135125)
(0 -0 -0.0148234)
(0 -0 -0.0150353)
(0 -0 -0.0138484)
(0 -0 -0.0105336)
(0 -0 -0.00420232)
(0 -0 0.00573976)
(0 -0 0.0192594)
(0 -0 0.0361412)
(0 -0 0.0590807)
(0 -0 0.122754)
(0 -0 1.08803)
(0 -0 0.994878)
(0 -0 0.0986471)
(0 -0 0.0391357)
(0 -0 0.0220071)
(0 -0 0.0110272)
(0 -0 0.00250033)
(0 -0 -0.00381615)
(0 -0 -0.00800329)
(0 -0 -0.0104255)
(0 -0 -0.0114761)
(0 -0 -0.0112481)
(0 -0 -0.00939332)
(0 -0 -0.00517646)
(0 -0 0.00215146)
(0 -0 0.0128466)
(0 -0 0.0264178)
(0 -0 0.042543)
(0 -0 0.065606)
(0 -0 0.144188)
(0 -0 1.45226)
(0 -0 1.23492)
(0 -0 0.113352)
(0 -0 0.0419126)
(0 -0 0.0241051)
(0 -0 0.0138067)
(0 -0 0.00586382)
(0 -0 -0.000139603)
(0 -0 -0.00414966)
(0 -0 -0.00638353)
(0 -0 -0.00714325)
(0 -0 -0.00644726)
(0 -0 -0.00384476)
(0 -0 0.00148794)
(0 -0 0.0102793)
(0 -0 0.022574)
(0 -0 0.0375645)
(0 -0 0.0549105)
(0 -0 0.0807499)
(0 -0 0.178886)
(0 -0 1.88879)
(0 -0 1.49483)
(0 -0 0.133737)
(0 -0 0.0481095)
(0 -0 0.0281532)
(0 -0 0.0174606)
(0 -0 0.00940929)
(0 -0 0.00333274)
(0 -0 -0.000686494)
(0 -0 -0.00282975)
(0 -0 -0.00334702)
(0 -0 -0.00215956)
(0 -0 0.00135237)
(0 -0 0.00821437)
(0 -0 0.0192803)
(0 -0 0.0344736)
(0 -0 0.0525813)
(0 -0 0.0731059)
(0 -0 0.104072)
(0 -0 0.226416)
(0 -0 2.42631)
(0 -0 1.77939)
(0 -0 0.158809)
(0 -0 0.0569128)
(0 -0 0.0335755)
(0 -0 0.0214823)
(0 -0 0.0125854)
(0 -0 0.00596774)
(0 -0 0.00164857)
(0 -0 -0.000572806)
(0 -0 -0.00092566)
(0 -0 0.000776657)
(0 -0 0.0054114)
(0 -0 0.0143683)
(0 -0 0.0288357)
(0 -0 0.0486748)
(0 -0 0.071942)
(0 -0 0.0972773)
(0 -0 0.134517)
(0 -0 0.286983)
(0 -0 3.10553)
(0 -0 2.09483)
(0 -0 0.18846)
(0 -0 0.0679211)
(0 -0 0.0399314)
(0 -0 0.0253893)
(0 -0 0.014857)
(0 -0 0.00714215)
(0 -0 0.00217076)
(0 -0 -0.000337116)
(0 -0 -0.000673258)
(0 -0 0.00149289)
(0 -0 0.00743842)
(0 -0 0.0191517)
(0 -0 0.038463)
(0 -0 0.0652146)
(0 -0 0.0959016)
(0 -0 0.126729)
(0 -0 0.169016)
(0 -0 0.359715)
(0 -0 3.97109)
(0 -0 2.4492)
(0 -0 0.223112)
(0 -0 0.0808115)
(0 -0 0.0464448)
(0 -0 0.0280886)
(0 -0 0.0149042)
(0 -0 0.00540988)
(0 -0 -0.000638589)
(0 -0 -0.00377067)
(0 -0 -0.00440051)
(0 -0 -0.00200878)
(0 -0 0.00525443)
(0 -0 0.0203847)
(0 -0 0.0463789)
(0 -0 0.0833328)
(0 -0 0.124827)
(0 -0 0.163027)
(0 -0 0.222677)
(0 -0 0.509191)
(0 -0 5.05825)
(0 -0 2.85384)
(0 -0 0.263211)
(0 -0 0.0942647)
(0 -0 0.0506745)
(0 -0 0.0264516)
(0 -0 0.00923065)
(0 -0 -0.00289757)
(0 -0 -0.0106452)
(0 -0 -0.0149738)
(0 -0 -0.0164717)
(0 -0 -0.0143891)
(0 -0 -0.00603032)
(0 -0 0.0131242)
(0 -0 0.048085)
(0 -0 0.101356)
(0 -0 0.167193)
(0 -0 0.252321)
(0 -0 0.496418)
(0 -0 1.25691)
(0 -0 6.7227)
(0 -0 3.32344)
(0 -0 0.30705)
(0 -0 0.103216)
(0 -0 0.0458339)
(0 -0 0.0128176)
(0 -0 -0.0102195)
(0 -0 -0.0261434)
(0 -0 -0.0365276)
(0 -0 -0.0429309)
(0 -0 -0.0461136)
(0 -0 -0.0449806)
(0 -0 -0.0356589)
(0 -0 -0.0116616)
(0 -0 0.0340583)
(0 -0 0.110848)
(0 -0 0.246616)
(0 -0 0.519701)
(0 -0 1.25676)
(0 -0 3.16899)
(0 -0 10.0954)
(0 -0 3.88884)
(0 -0 0.344201)
(0 -0 0.093753)
(0 -0 0.0164949)
(0 -0 -0.0290033)
(0 -0 -0.0602138)
(0 -0 -0.0817487)
(0 -0 -0.0962082)
(0 -0 -0.1059)
(0 -0 -0.11175)
(0 -0 -0.111976)
(0 -0 -0.100844)
(0 -0 -0.0699648)
(0 -0 -0.0172663)
(0 -0 0.0457507)
(0 -0 0.0904792)
(0 -0 -0.232564)
(0 -0 -0.3392)
(0 -0 3.76558)
(0 -0 15.6817)
(0 -0 4.52466)
(0 -0 0.357035)
(0 -0 0.0359116)
(0 -0 -0.0686614)
(0 -0 -0.131291)
(0 -0 -0.174797)
(0 -0 -0.206882)
(0 -0 -0.229172)
(0 -0 -0.245074)
(0 -0 -0.255866)
(0 -0 -0.258549)
(0 -0 -0.244251)
(0 -0 -0.200903)
(0 -0 -0.150142)
(0 -0 -0.391364)
(0 -0 -1.94565)
(0 -0 -5.90058)
(0 -0 -9.70056)
(0 -0 -2.27521)
(0 -0 23.5111)
(0 -0 5.46629)
(0 -0 0.266304)
(0 -0 -0.126973)
(0 -0 -0.278118)
(0 -0 -0.370945)
(0 -0 -0.433368)
(0 -0 -0.479915)
(0 -0 -0.519881)
(0 -0 -0.554999)
(0 -0 -0.584706)
(0 -0 -0.60445)
(0 -0 -0.598246)
(0 -0 -0.548991)
(0 -0 -0.510983)
(0 -0 -1.22646)
(0 -0 -5.52029)
(0 -0 -14.8569)
(0 -0 -23.9881)
(0 -0 -15.9396)
(0 -0 31.475)
(0 -0 5.90141)
(0 -0 0.1593)
(0 -0 -0.507623)
(0 -0 -0.778374)
(0 -0 -0.953722)
(0 -0 -1.10094)
(0 -0 -1.23426)
(0 -0 -1.36434)
(0 -0 -1.49437)
(0 -0 -1.6177)
(0 -0 -1.7239)
(0 -0 -1.79228)
(0 -0 -1.8027)
(0 -0 -1.84754)
(0 -0 -2.71871)
(0 -0 -6.70134)
(0 -0 -16.0384)
(0 -0 -29.5255)
(0 -0 -30.204)
(0 -0 33.4664)
(0 -0 8.97521)
(0 -0 -1.42689)
(0 -0 -2.23382)
(0 -0 -2.66864)
(0 -0 -3.25509)
(0 -0 -3.87284)
(0 -0 -4.44043)
(0 -0 -4.96803)
(0 -0 -5.46653)
(0 -0 -5.93395)
(0 -0 -6.35113)
(0 -0 -6.68617)
(0 -0 -6.89459)
(0 -0 -6.98065)
(0 -0 -7.27221)
(0 -0 -9.29386)
(0 -0 -13.9878)
(0 -0 -21.5813)
(0 -0 -32.355)
(0 -0 23.7646)
(0 -0 -1.38019)
(0 -0 -8.13046)
(0 -0 -9.73553)
(0 -0 -11.6999)
(0 -0 -13.5822)
(0 -0 -14.9853)
(0 -0 -16.0904)
(0 -0 -17.0789)
(0 -0 -18.0007)
(0 -0 -18.8524)
(0 -0 -19.6179)
(0 -0 -20.2675)
(0 -0 -20.7566)
(0 -0 -21.0321)
(0 -0 -21.1467)
(0 -0 -21.4215)
(0 -0 -22.7442)
(0 -0 -24.9014)
(0 -0 -31.8156)
(0 -0 -11.4952)
(0 -0 -180.348)
(0 -0 -199.274)
(0 -0 -195.237)
(0 -0 -190.584)
(0 -0 -187.212)
(0 -0 -184.709)
(0 -0 -182.63)
(0 -0 -180.809)
(0 -0 -179.182)
(0 -0 -177.702)
(0 -0 -176.331)
(0 -0 -175.033)
(0 -0 -173.765)
(0 -0 -172.412)
(0 -0 -171.037)
(0 -0 -169.087)
(0 -0 -169.397)
(0 -0 -163.956)
(0 -0 -193.177)
(0 -0 -145.366)
)
;

boundaryField
{
    movingWall
    {
        type            calculated;
        value           nonuniform List<vector> 
20
(
(0 -0 -367.481)
(0 -0 -379.48)
(0 -0 -368.415)
(0 -0 -357.9)
(0 -0 -350.365)
(0 -0 -344.529)
(0 -0 -339.474)
(0 -0 -334.915)
(0 -0 -330.754)
(0 -0 -326.917)
(0 -0 -323.352)
(0 -0 -320.016)
(0 -0 -316.883)
(0 -0 -313.809)
(0 -0 -311.061)
(0 -0 -307.592)
(0 -0 -308.847)
(0 -0 -298.588)
(0 -0 -358.002)
(0 -0 -239.007)
)
;
    }
    fixedWalls
    {
        type            calculated;
        value           nonuniform List<vector> 
60
(
(0 -0 0.115471)
(0 -0 0.308385)
(0 -0 0.638156)
(0 -0 1.01171)
(0 -0 1.41787)
(0 -0 1.84818)
(0 -0 2.30429)
(0 -0 2.79374)
(0 -0 3.32691)
(0 -0 3.91637)
(0 -0 4.57804)
(0 -0 5.33469)
(0 -0 6.2157)
(0 -0 7.29687)
(0 -0 8.52035)
(0 -0 10.5)
(0 -0 11.2157)
(0 -0 18.8882)
(0 -0 3.39757)
(0 -0 -159.53)
(0 -0 0.176942)
(0 -0 0.441442)
(0 -0 0.89277)
(0 -0 1.41961)
(0 -0 2.02626)
(0 -0 2.72835)
(0 -0 3.56366)
(0 -0 4.58963)
(0 -0 5.88473)
(0 -0 7.53543)
(0 -0 9.58224)
(0 -0 12.3748)
(0 -0 17.0897)
(0 -0 25.1379)
(0 -0 41.1899)
(0 -0 67.3635)
(0 -0 91.9634)
(0 -0 96.9001)
(0 -0 51.33)
(0 -0 -114.992)
(0 -0 0.115316)
(0 -0 0.306633)
(0 -0 0.629414)
(0 -0 0.974424)
(0 -0 1.31591)
(0 -0 1.63039)
(0 -0 1.90521)
(0 -0 2.13314)
(0 -0 2.30913)
(0 -0 2.42845)
(0 -0 2.48173)
(0 -0 2.46866)
(0 -0 2.37972)
(0 -0 2.21193)
(0 -0 1.96362)
(0 -0 1.63913)
(0 -0 1.25354)
(0 -0 0.838524)
(0 -0 0.432381)
(0 -0 0.176298)
)
;
    }
    frontAndBack
    {
        type            empty;
    }
}


// ************************************************************************* //
