/*--------------------------------*- C++ -*----------------------------------*\
| =========                 |                                                 |
| \\      /  F ield         | OpenFOAM: The Open Source CFD Toolbox           |
|  \\    /   O peration     | Version:  2312                                  |
|   \\  /    A nd           | Website:  www.openfoam.com                      |
|    \\/     M anipulation  |                                                 |
\*---------------------------------------------------------------------------*/
FoamFile
{
    version     2.0;
    format      ascii;
    arch        "LSB;label=32;scalar=64";
    class       volVectorField;
    location    "0.5";
    object      wallShearStress;
}
// * * * * * * * * * * * * * * * * * * * * * * * * * * * * * * * * * * * * * //

dimensions      [0 2 -2 0 0 0 0];

internalField   uniform (0 0 0);

boundaryField
{
    movingWall
    {
        type            calculated;
        value           uniform (0 0 0);
    }
    fixedWalls
    {
        type            calculated;
        value           nonuniform List<vector> 
60
(
(1.36798e-06 -7.50297e-08 0)
(2.99438e-06 -2.33778e-06 0)
(4.02442e-06 -5.9954e-06 0)
(4.41886e-06 -9.95902e-06 0)
(4.62221e-06 -1.40822e-05 0)
(4.8234e-06 -1.83632e-05 0)
(5.10686e-06 -2.28704e-05 0)
(5.50519e-06 -2.76991e-05 0)
(6.03367e-06 -3.29568e-05 0)
(6.71259e-06 -3.87614e-05 0)
(7.58604e-06 -4.52534e-05 0)
(8.73679e-06 -5.26236e-05 0)
(1.03736e-05 -6.11096e-05 0)
(1.2591e-05 -7.13531e-05 0)
(1.66002e-05 -8.3029e-05 0)
(1.88736e-05 -0.000100694 0)
(3.70004e-05 -0.000106847 0)
(2.39222e-05 -0.000185173 0)
(6.336e-05 -0.000126447 0)
(-0.000292825 -0.00233535 0)
(2.1674e-06 2.05773e-07 0)
(4.10481e-06 3.5099e-06 0)
(5.42685e-06 8.37772e-06 0)
(6.18916e-06 1.37964e-05 0)
(6.97672e-06 1.97859e-05 0)
(8.082e-06 2.65866e-05 0)
(9.7186e-06 3.46146e-05 0)
(1.20842e-05 4.44536e-05 0)
(1.53775e-05 5.69307e-05 0)
(1.96305e-05 7.32163e-05 0)
(2.43056e-05 9.47077e-05 0)
(2.69426e-05 0.000121767 0)
(3.74124e-05 0.000146461 0)
(0.000118104 0.000184954 0)
(0.000274292 0.000344272 0)
(0.00035893 0.000670498 0)
(0.000274475 0.0010012 0)
(3.49362e-05 0.0012116 0)
(-0.000527066 0.00140937 0)
(-0.00264647 0.00232156 0)
(6.73877e-08 -1.3738e-06 0)
(2.36089e-06 -3.00155e-06 0)
(6.03828e-06 -3.87749e-06 0)
(9.801e-06 -3.93939e-06 0)
(1.3352e-05 -3.65857e-06 0)
(1.65488e-05 -3.23213e-06 0)
(1.93233e-05 -2.73876e-06 0)
(2.16277e-05 -2.19798e-06 0)
(2.3419e-05 -1.603e-06 0)
(2.46313e-05 -9.38262e-07 0)
(2.51988e-05 -2.55546e-07 0)
(2.51131e-05 5.3531e-07 0)
(2.42486e-05 1.37979e-06 0)
(2.2589e-05 2.26773e-06 0)
(2.00973e-05 3.16894e-06 0)
(1.67852e-05 4.00954e-06 0)
(1.27389e-05 4.64257e-06 0)
(8.18183e-06 4.79613e-06 0)
(3.56244e-06 3.92879e-06 0)
(2.50678e-07 2.14179e-06 0)
)
;
    }
    frontAndBack
    {
        type            empty;
    }
}


// ************************************************************************* //
