/*--------------------------------*- C++ -*----------------------------------*\
| =========                 |                                                 |
| \\      /  F ield         | OpenFOAM: The Open Source CFD Toolbox           |
|  \\    /   O peration     | Version:  2312                                  |
|   \\  /    A nd           | Website:  www.openfoam.com                      |
|    \\/     M anipulation  |                                                 |
\*---------------------------------------------------------------------------*/
FoamFile
{
    version     2.0;
    format      ascii;
    arch        "LSB;label=32;scalar=64";
    class       volScalarField;
    location    "0.5";
    object      yPlus;
}
// * * * * * * * * * * * * * * * * * * * * * * * * * * * * * * * * * * * * * //

dimensions      [0 0 0 0 0 0 0];

internalField   uniform 0;

boundaryField
{
    movingWall
    {
        type            calculated;
        value           nonuniform List<scalar> 
20
(
15.5211
15.3214
12.7451
13.5511
13.9966
14.2641
14.4272
14.523
14.5779
14.6101
14.6334
14.6492
14.6664
14.664
14.6522
14.6165
14.6341
14.6481
15.0155
14.3026
)
;
    }
    fixedWalls
    {
        type            calculated;
        value           nonuniform List<scalar> 
60
(
0.23269
0.441744
0.639133
0.802457
0.946571
1.078
1.20182
1.32204
1.4418
1.56361
1.6898
1.8231
1.9664
2.12816
2.29886
2.54253
2.63212
3.4303
2.29009
5.02787
0.296894
0.52997
0.754129
0.947431
1.12772
1.30519
1.48915
1.68821
1.9109
2.16452
2.44999
2.7768
3.1573
3.7631
5.03972
6.61522
7.79777
11.8622
12.958
14.3026
0.23269
0.442182
0.636908
0.790139
0.914903
1.01588
1.0966
1.15947
1.20597
1.23649
1.25021
1.24753
1.2256
1.18283
1.11623
1.02229
0.896914
0.735508
0.526676
0.296894
)
;
    }
    frontAndBack
    {
        type            empty;
    }
}


// ************************************************************************* //
