/*--------------------------------*- C++ -*----------------------------------*\
| =========                 |                                                 |
| \\      /  F ield         | OpenFOAM: The Open Source CFD Toolbox           |
|  \\    /   O peration     | Version:  2312                                  |
|   \\  /    A nd           | Website:  www.openfoam.com                      |
|    \\/     M anipulation  |                                                 |
\*---------------------------------------------------------------------------*/
FoamFile
{
    version     2.0;
    format      ascii;
    arch        "LSB;label=32;scalar=64";
    class       volScalarField;
    location    "1.875";
    object      divU;
}
// * * * * * * * * * * * * * * * * * * * * * * * * * * * * * * * * * * * * * //

dimensions      [0 0 -1 0 0 0 0];

internalField   nonuniform List<scalar> 
400
(
0.00650916
0.0570351
0.0374333
0.0403635
0.0387605
0.0365629
0.0297415
0.0215786
0.0210002
0.0290094
0.0444631
0.0639455
0.068207
0.0276416
-0.0449287
-0.11298
-0.0968391
-0.00959978
0.00861226
0.00340466
-0.0233079
0.0185494
-0.0251304
-0.031465
-0.0301198
-0.0282378
-0.027739
-0.0284843
-0.029467
-0.0194164
0.0176712
0.0756684
0.15625
0.244998
0.260023
0.212743
0.184124
0.132907
0.0974693
0.0439529
-0.0361903
0.0388419
-0.00368631
-0.0174785
-0.0152573
-0.00795131
0.00176317
0.0114222
0.0257759
0.0552795
0.0866996
0.0605062
-0.00948119
-0.0334565
-0.0712022
-0.0974903
-0.0406009
0.136038
0.0438048
-0.00573693
-0.0667327
0.0319827
-0.00190028
-0.0213867
-0.0215611
-0.0111536
-0.00227501
-0.00455762
-0.029048
-0.0794718
-0.146961
-0.151536
-0.163356
-0.274712
-0.329387
-0.364772
-0.366368
-0.08169
-0.0569387
0.280919
-0.0689491
0.0367861
0.0110079
-0.0121765
-0.0148394
-0.00166901
0.0010935
-0.0237041
-0.0895521
-0.170061
-0.190897
-0.118974
-0.0714719
-0.112552
-0.152297
-0.163674
-0.211082
-0.42752
-0.282442
0.51615
-0.0587614
0.0353846
0.0168938
-0.00477712
-0.00687979
0.016181
0.0182637
-0.0331853
-0.115444
-0.152155
-0.0540458
0.0417855
0.151657
0.284711
0.262335
0.240704
0.287059
-0.0150942
-1.00188
0.304624
-0.0445136
0.031374
0.01907
-0.000253351
-0.000875159
0.0293391
0.0307121
-0.0157897
-0.0952179
-0.11238
0.0597634
0.26902
0.339976
0.253377
0.118422
0.110014
0.350941
0.526832
-0.84411
-0.218473
-0.0297631
0.026237
0.0200431
0.00524757
0.00650026
0.0391676
0.0474024
-0.00848795
-0.134814
-0.112199
0.0844668
0.216155
0.098337
-0.0895294
-0.180221
-0.174771
-0.0191878
0.676671
0.306271
-0.691709
-0.0163303
0.0194686
0.0190037
0.00938417
0.0111044
0.0393403
0.0510393
-0.0108222
-0.11832
-0.106707
0.0705676
0.196039
0.141743
-0.00682607
-0.123799
-0.154572
-0.224899
0.340527
0.887655
-0.677117
-0.00271873
0.0129206
0.0162809
0.0103465
0.0112276
0.0286245
0.056098
-0.0195902
-0.068921
-0.0814051
0.105446
0.25158
0.314132
0.226339
0.0738325
-0.0119748
-0.129595
0.000822522
0.733211
-0.345875
0.00201397
0.00743695
0.012328
0.00933959
0.0108348
0.0143986
0.0381922
-0.0134172
-0.0309475
-0.0962527
-0.0104532
0.243781
0.340199
0.245879
0.047924
-0.0208452
-0.0500174
-0.0220162
0.341728
-0.190614
0.0118725
-0.00060079
0.00772247
0.006016
0.00766861
0.00704647
0.0185058
-0.00683908
-0.0715783
-0.10444
-0.128155
0.0488956
0.146849
0.0570663
-0.116476
-0.0985518
-0.0645651
0.0617262
0.00419924
-0.110997
0.0213711
-0.000806505
0.00477884
0.00241898
0.00291067
0.00163583
0.00313037
-0.0128812
-0.0734688
-0.108409
-0.127791
-0.0739217
-0.0467004
-0.0671141
-0.115815
-0.0913559
-0.0610266
0.0737081
-0.163323
0.00544512
0.00422712
-0.0121599
-0.00470924
-0.00545354
-0.00402973
-0.00540972
-0.00882176
-0.0183495
-0.0448549
-0.0640385
-0.0706802
-0.0617539
-0.0187111
-0.00489924
-0.053026
-0.040765
-0.0487288
0.0521621
-0.145048
0.215454
0.0838959
0.0237231
0.0140724
0.00134629
-0.0023725
-0.00644038
-0.00986303
-0.0144467
-0.0234976
-0.0272519
-0.0199966
0.00501053
0.0283275
0.0133212
-0.0125513
-0.0100157
-0.0740827
-0.0628172
-0.00389351
0.170345
-0.281357
-0.244511
-0.156153
-0.0889506
-0.0386635
-0.0149608
-0.0033287
0.000639576
-0.000439048
0.00202049
0.00646302
0.0176422
0.0233987
0.0165591
0.0141696
-0.0580263
-0.0770568
-0.193023
-0.214973
-0.790401
0.971778
0.856048
0.670946
0.418518
0.274009
0.196687
0.153301
0.124343
0.099865
0.0832945
0.0718706
0.0808964
0.0844495
0.0565009
0.0982627
-0.0735433
0.268396
-0.118224
-0.538219
-1.85972
-2.02459
-2.24142
-1.69768
-1.14119
-0.800702
-0.58853
-0.449637
-0.350968
-0.277722
-0.220813
-0.175977
-0.153999
-0.127432
-0.13794
-0.0611975
-0.382097
1.03271
-0.0667365
0.584886
1.21138
3.22562
3.031
2.32879
1.44251
1.00777
0.757545
0.558042
0.409427
0.306201
0.240513
0.204346
0.181847
0.18765
0.162925
0.290384
-0.29255
1.53226
-3.09419
4.47368
6.84237
-0.666938
-3.30322
-0.717452
-0.427966
-0.489016
-0.401126
-0.271479
-0.190579
-0.148062
-0.119947
-0.0961453
-0.0836603
-0.0719212
-0.127421
-0.00207435
-0.675234
1.55733
-8.14096
16.4949
-17.9673
)
;

boundaryField
{
    movingWall
    {
        type            extrapolatedCalculated;
        value           nonuniform List<scalar> 
20
(
-0.666938
-3.30322
-0.717452
-0.427966
-0.489016
-0.401126
-0.271479
-0.190579
-0.148062
-0.119947
-0.0961453
-0.0836603
-0.0719212
-0.127421
-0.00207435
-0.675234
1.55733
-8.14096
16.4949
-17.9673
)
;
    }
    fixedWalls
    {
        type            extrapolatedCalculated;
        value           nonuniform List<scalar> 
60
(
0.00650916
-0.0233079
-0.0361903
-0.0667327
-0.0689491
-0.0587614
-0.0445136
-0.0297631
-0.0163303
-0.00271873
0.00201397
0.0118725
0.0213711
0.00422712
0.0838959
-0.281357
0.971778
-2.02459
3.22562
-0.666938
0.00340466
0.0439529
-0.00573693
0.280919
0.51615
0.304624
-0.218473
-0.691709
-0.677117
-0.345875
-0.190614
-0.110997
0.00544512
0.215454
0.170345
-0.790401
-1.85972
1.21138
6.84237
-17.9673
0.00650916
0.0570351
0.0374333
0.0403635
0.0387605
0.0365629
0.0297415
0.0215786
0.0210002
0.0290094
0.0444631
0.0639455
0.068207
0.0276416
-0.0449287
-0.11298
-0.0968391
-0.00959978
0.00861226
0.00340466
)
;
    }
    frontAndBack
    {
        type            empty;
    }
}


// ************************************************************************* //
