/*--------------------------------*- C++ -*----------------------------------*\
| =========                 |                                                 |
| \\      /  F ield         | OpenFOAM: The Open Source CFD Toolbox           |
|  \\    /   O peration     | Version:  2312                                  |
|   \\  /    A nd           | Website:  www.openfoam.com                      |
|    \\/     M anipulation  |                                                 |
\*---------------------------------------------------------------------------*/
FoamFile
{
    version     2.0;
    format      ascii;
    arch        "LSB;label=32;scalar=64";
    class       volScalarField;
    location    "1.875";
    object      enstrophyField;
}
// * * * * * * * * * * * * * * * * * * * * * * * * * * * * * * * * * * * * * //

dimensions      [0 0 -2 0 0 0 0];

internalField   nonuniform List<scalar> 
400
(
0.0460566
0.422688
1.63934
4.13226
8.30147
14.3534
22.1629
31.2364
41.0268
50.9668
59.8935
65.3477
64.5122
55.6903
40.4906
23.5134
9.85616
2.28917
0.172859
0.00441688
0.491733
0.471141
0.490927
0.640041
0.92845
1.22183
1.3769
1.43357
1.58155
1.97999
2.72681
3.86779
5.32285
7.01759
8.52075
9.36322
8.6371
5.46007
1.50987
0.096657
1.87081
0.510715
0.324511
0.253083
0.221709
0.18133
0.159335
0.250284
0.666592
1.79668
3.79156
5.96551
7.51519
8.99117
11.8
16.6579
21.922
21.7724
10.0548
0.769811
4.44165
0.472926
0.22686
0.120078
0.0522917
0.0165059
0.0285253
0.251257
1.20035
2.83282
3.39088
2.05833
0.668263
0.277392
0.946806
5.18889
18.6947
41.1981
44.1843
8.3298
8.47114
0.415598
0.140541
0.0477831
0.00631994
0.000197041
0.0338263
0.429735
1.24791
0.901484
0.0324787
3.6157
11.8125
18.0272
16.903
7.49592
0.0285999
20.4672
78.8772
58.7216
13.8041
0.365466
0.0796607
0.0143796
4.82916e-05
0.000145911
0.0528046
0.350108
0.208536
0.679474
9.61981
30.03
51.1578
63.1807
65.2408
56.9137
30.5397
0.447414
52.8177
187.85
19.9368
0.332154
0.0420511
0.00238453
0.00274047
0.000329505
0.0461041
0.0830305
0.337211
7.45106
30.4565
60.9238
79.4179
81.116
78.2327
81.0126
81.1016
41.5304
5.64238
366.513
26.142
0.318222
0.0211356
4.61447e-07
0.00641797
0.00177593
0.0143363
0.00901018
2.2617
17.3985
49.8762
80.078
85.6827
74.2521
62.0917
58.7447
74.7546
85.9704
9.95572
534.879
31.6389
0.324059
0.0105559
0.00142966
0.0118618
0.00868186
3.81231e-05
0.163518
3.98179
22.8238
59.077
88.2498
89.869
74.7359
55.4515
40.978
45.7185
79.0405
48.628
663.196
35.7512
0.350445
0.00569642
0.00487297
0.0202596
0.0242639
0.0159597
0.276775
3.87492
20.8045
55.0109
85.2271
92.1858
78.9368
54.6755
34.7905
30.7382
59.2738
76.0627
753.234
38.059
0.397417
0.00413131
0.00865082
0.0295554
0.0449189
0.0510923
0.242624
2.60643
13.5713
38.4536
66.7937
79.8184
71.8144
48.281
29.4797
24.2603
47.4728
92.0717
809.996
38.4545
0.472329
0.00495226
0.0106873
0.0365845
0.0629625
0.0861667
0.201042
1.36388
6.66502
20.1495
38.2722
49.7118
47.7271
34.603
22.3047
18.7868
41.4415
107.702
830.502
37.2454
0.554035
0.0083873
0.0100273
0.0389156
0.0727231
0.1121
0.193539
0.678479
2.75328
8.24671
16.4392
22.7865
23.2284
19.4708
14.8465
14.2267
37.6745
126.992
821.383
34.8028
0.644304
0.0162425
0.00640797
0.0346469
0.0712728
0.119217
0.193987
0.405761
1.12221
2.98296
5.936
8.78168
10.1362
10.2116
9.57068
10.9829
35.5647
153.066
789.849
31.7388
0.743061
0.032146
0.00114541
0.0208586
0.0540998
0.102627
0.175966
0.302915
0.565116
1.15688
2.21275
3.5504
4.77751
5.78026
6.55431
8.94332
34.9737
189.438
735.57
30.1561
0.835653
0.0665811
0.00197179
0.00480426
0.0272172
0.0680948
0.13404
0.236903
0.393257
0.65821
1.14113
1.89944
2.84225
3.91831
5.12231
8.29556
37.9111
233.588
667.551
23.9772
1.07721
0.157393
0.0234126
3.47531e-05
0.0158307
0.0636629
0.148053
0.282053
0.483714
0.781045
1.23551
1.87633
2.83339
4.18051
6.08017
11.4918
50.4404
266.018
590.021
46.3238
0.264601
0.159732
0.611607
1.07407
1.67281
2.33555
3.06036
3.86929
4.82005
5.96818
7.41945
9.35365
12.2879
16.8915
25.3808
41.5696
94.6683
289.238
348.765
1.825
23.357
31.8775
47.3258
63.0756
73.7222
81.3139
87.567
93.2451
98.8097
104.761
111.729
120.814
132.695
149.311
173.26
209.365
283.201
471.905
55.45
16259.4
19961
19086.7
18087.1
17351.7
16777.8
16283.1
15835.6
15425.1
15048.8
14709.2
14410.8
14163.6
13968.9
13863
13766.8
14117.9
13461
18820.6
10594.8
)
;

boundaryField
{
    movingWall
    {
        type            calculated;
        value           nonuniform List<scalar> 
20
(
67539.9
72386.3
68233.3
64339.1
61497.2
59258
57296.7
55510.5
53872.5
52368.3
50995.7
49760.7
48687.6
47777.1
47162.1
46534.9
47513.3
44740.3
64580.4
28610.9
)
;
    }
    fixedWalls
    {
        type            calculated;
        value           nonuniform List<scalar> 
60
(
0.0375182
0.718655
4.07961
11.8007
24.9561
43.08
64.2951
85.7882
104.548
118.034
124.842
124.388
118.618
109.055
97.4968
93.4001
71.7231
167.654
1.4745
12704.5
0.0750222
0.0151917
0.00294093
2.01361
37.8784
250.732
845.692
1820.83
2939.15
3823.49
4433.36
4818.24
5066.42
5222.27
5297.62
5360.82
5476.62
4910.37
1404.95
6701.64
0.0349714
0.604799
3.35536
9.52203
20.1314
36.2344
58.7417
87.482
120.581
154.422
183.307
198.15
190.247
156.502
105.994
55.1851
19.5031
3.19198
0.0657056
0.0445123
)
;
    }
    frontAndBack
    {
        type            empty;
    }
}


// ************************************************************************* //
