/*--------------------------------*- C++ -*----------------------------------*\
| =========                 |                                                 |
| \\      /  F ield         | OpenFOAM: The Open Source CFD Toolbox           |
|  \\    /   O peration     | Version:  2312                                  |
|   \\  /    A nd           | Website:  www.openfoam.com                      |
|    \\/     M anipulation  |                                                 |
\*---------------------------------------------------------------------------*/
FoamFile
{
    version     2.0;
    format      ascii;
    arch        "LSB;label=32;scalar=64";
    class       volScalarField;
    location    "1.875";
    object      epsilonzeroGrad;
}
// * * * * * * * * * * * * * * * * * * * * * * * * * * * * * * * * * * * * * //

dimensions      [0 2 -3 0 0 0 0];

internalField   nonuniform List<scalar> 
400
(
9.2897e-05
0.000182675
0.000322898
0.000492806
0.00069595
0.000939516
0.00122037
0.00151407
0.00177726
0.00194028
0.00201069
0.00202126
0.00190627
0.00170836
0.0014362
0.00107091
0.000695219
0.000369469
0.000165338
9.14597e-05
0.000166257
0.000173927
0.00024878
0.000331003
0.000419728
0.000516292
0.00061329
0.000699828
0.000774129
0.000850199
0.000949287
0.00109436
0.00129793
0.00148203
0.00156648
0.00152319
0.00117808
0.00065438
0.000255215
0.000144759
0.000314205
0.000217254
0.000270544
0.000338196
0.000400695
0.000462527
0.00053703
0.000646115
0.000815702
0.0010688
0.00145773
0.0019907
0.00257912
0.00314079
0.00356833
0.00377014
0.00335225
0.00222043
0.000800557
0.000244675
0.000491526
0.000278355
0.000309166
0.000367107
0.00042857
0.000503834
0.000620381
0.000832747
0.0012149
0.00183545
0.00255973
0.00309428
0.00347099
0.0038897
0.00447323
0.0052496
0.0058215
0.00563183
0.00301037
0.000661105
0.000685552
0.000337389
0.000348396
0.000409273
0.000487538
0.000606537
0.000832745
0.00126549
0.00194263
0.00253435
0.00277466
0.00290582
0.00309211
0.00339407
0.0039943
0.00503013
0.00663565
0.00800288
0.00819901
0.00334783
0.000885718
0.00038988
0.000384165
0.000452252
0.000560457
0.000749691
0.00111046
0.00172873
0.00232134
0.00248957
0.00248502
0.00227348
0.00219331
0.00227209
0.00275904
0.00368948
0.00554061
0.00892734
0.0122633
0.0111399
0.00108141
0.000434379
0.00041344
0.000489375
0.000628369
0.000880768
0.00133325
0.0019829
0.00228656
0.00228157
0.00187105
0.00156755
0.00144185
0.00141364
0.00167689
0.00241301
0.00400753
0.0072571
0.0141418
0.0210456
0.00126246
0.000471076
0.000433797
0.00051443
0.000674894
0.000964121
0.00145069
0.00199869
0.00217592
0.00192557
0.00143254
0.00113388
0.00100074
0.000963508
0.00113998
0.00166458
0.00291665
0.00621153
0.0142028
0.0277467
0.00141989
0.000500284
0.000444543
0.000522036
0.000685818
0.000973497
0.00144217
0.00193242
0.00201182
0.00168048
0.00118001
0.00090557
0.000785689
0.000759456
0.000915847
0.00134847
0.00232482
0.00506231
0.0132634
0.0321506
0.00154512
0.000522525
0.000446186
0.000516857
0.000674584
0.000948341
0.00137995
0.00181355
0.00190125
0.0015904
0.00113062
0.000839978
0.000711995
0.00070141
0.000851375
0.00125453
0.00211144
0.00455113
0.0128124
0.0354171
0.00163312
0.000538873
0.000443629
0.000503015
0.000645326
0.000886976
0.00125237
0.00166286
0.00181922
0.00160872
0.00118624
0.000886092
0.000751208
0.000759263
0.000898294
0.00128417
0.00207459
0.00433523
0.0126959
0.0384054
0.00168157
0.000555621
0.000438179
0.000482285
0.000602407
0.000804418
0.00110661
0.00147614
0.00172053
0.00163912
0.00136408
0.00103805
0.000883723
0.000922104
0.00110089
0.00149479
0.00217536
0.00427318
0.0130835
0.0416259
0.00168157
0.000571656
0.000433349
0.00046178
0.000558474
0.000722968
0.000964366
0.0012743
0.00155842
0.00161857
0.001526
0.00131754
0.0011536
0.00118518
0.00133452
0.0016266
0.00221559
0.00425902
0.0138032
0.0453992
0.00165891
0.000580612
0.000428866
0.000444466
0.00051974
0.000652188
0.000841188
0.00108589
0.00134447
0.00152133
0.00151284
0.00144883
0.00134437
0.00135687
0.00144209
0.00165949
0.00217632
0.00409278
0.0146312
0.0501542
0.00159802
0.000576403
0.000423899
0.000433119
0.000492401
0.000598828
0.000746444
0.0009334
0.00113978
0.00131358
0.001405
0.00139613
0.00135259
0.0013593
0.00141711
0.00158118
0.0020113
0.00372867
0.0153019
0.0563262
0.00155774
0.000561572
0.000426235
0.000438455
0.000496003
0.000592334
0.000713645
0.00085732
0.00101166
0.00114951
0.00124056
0.00127101
0.00126964
0.00127882
0.00133582
0.00149879
0.00191607
0.00355097
0.015783
0.0646721
0.00146344
0.000549743
0.000459432
0.000495705
0.000572187
0.000676734
0.000800821
0.000938758
0.00108062
0.00120858
0.00130086
0.00134628
0.00136271
0.00139133
0.00146507
0.00166572
0.00214409
0.00408085
0.0182416
0.0762229
0.00168296
0.000780665
0.000906318
0.00108993
0.00128957
0.00150061
0.00171426
0.00192261
0.002116
0.00228992
0.00244039
0.00255468
0.00265943
0.00280142
0.0029969
0.0033509
0.00419837
0.00793701
0.0251172
0.0945714
0.00289943
0.00488208
0.00765937
0.00963076
0.0110713
0.0122281
0.0131545
0.0139172
0.0145083
0.0150211
0.0154938
0.0159499
0.016431
0.0171007
0.0178485
0.019193
0.0214068
0.0322137
0.0486994
0.127039
0.0433983
0.08408
0.122762
0.146687
0.160851
0.16942
0.174124
0.176554
0.176707
0.176302
0.175345
0.174033
0.172932
0.172068
0.172214
0.173075
0.176409
0.177474
0.193323
0.167733
)
;

boundaryField
{
    movingWall
    {
        type            zeroGradient;
    }
    fixedWalls
    {
        type            zeroGradient;
    }
    frontAndBack
    {
        type            empty;
    }
}


// ************************************************************************* //
