/*--------------------------------*- C++ -*----------------------------------*\
| =========                 |                                                 |
| \\      /  F ield         | OpenFOAM: The Open Source CFD Toolbox           |
|  \\    /   O peration     | Version:  2312                                  |
|   \\  /    A nd           | Website:  www.openfoam.com                      |
|    \\/     M anipulation  |                                                 |
\*---------------------------------------------------------------------------*/
FoamFile
{
    version     2.0;
    format      ascii;
    arch        "LSB;label=32;scalar=64";
    class       volScalarField;
    location    "1.875";
    object      flowTypeField;
}
// * * * * * * * * * * * * * * * * * * * * * * * * * * * * * * * * * * * * * //

dimensions      [0 0 0 0 0 0 0];

internalField   nonuniform List<scalar> 
400
(
0.287291
0.208812
0.136229
0.0819282
0.0485921
0.0304449
0.0221322
0.01949
0.0194441
0.0203204
0.0218222
0.0259284
0.0341276
0.0471751
0.0661691
0.0938521
0.137058
0.212401
0.355638
0.496097
0.185402
0.33798
0.423266
0.422777
0.381303
0.343387
0.321699
0.3087
0.292362
0.271205
0.252463
0.242393
0.245265
0.253666
0.261441
0.257429
0.233476
0.200191
0.179733
0.0846026
0.131925
0.395469
0.529887
0.605029
0.642982
0.675366
0.690889
0.64012
0.527711
0.421171
0.355371
0.329353
0.332429
0.344924
0.337437
0.295562
0.235404
0.171494
0.104359
0.120631
0.0974128
0.448293
0.599035
0.709583
0.807999
0.8916
0.869857
0.707016
0.553033
0.48478
0.504343
0.60428
0.754003
0.841865
0.75329
0.558368
0.360649
0.211729
0.104618
0.0668553
0.0703447
0.488424
0.670067
0.804004
0.928782
0.988237
0.878917
0.70239
0.62686
0.709193
0.934844
0.401532
0.042393
-0.0834061
-0.0131827
0.307623
0.954416
0.379493
0.153848
0.0360724
0.0504972
0.50761
0.732961
0.883931
0.993536
0.990405
0.867056
0.75924
0.839337
0.72386
0.121251
-0.399565
-0.710141
-0.792458
-0.791233
-0.695004
-0.297881
0.819368
0.26517
0.0631899
0.0367454
0.504241
0.785014
0.948098
0.95111
0.985928
0.881362
0.878593
0.789988
0.213505
-0.381857
-0.845771
-0.852145
-0.791457
-0.8234
-0.9052
-0.866692
-0.500259
0.58857
0.08518
0.027407
0.477149
0.82547
0.999188
0.922
0.966898
0.931167
0.956376
0.489161
-0.113437
-0.658296
-0.937234
-0.792908
-0.742751
-0.733894
-0.845135
-0.801206
-0.643741
0.100299
0.0822534
0.0210501
0.426954
0.854149
0.950004
0.88605
0.923575
0.996102
0.812352
0.318065
-0.267382
-0.768021
-0.905785
-0.808559
-0.798763
-0.805809
-0.855023
-0.805263
-0.484219
-0.547614
0.0641289
0.0166385
0.359803
0.870293
0.895595
0.837258
0.864109
0.916243
0.743859
0.289361
-0.276107
-0.778784
-0.892844
-0.803152
-0.816588
-0.863762
-0.820904
-0.632908
-0.344641
-0.2788
0.040153
0.0136372
0.289926
0.867247
0.842255
0.784808
0.801287
0.840435
0.740424
0.365474
-0.1322
-0.609842
-0.809426
-0.735649
-0.673687
-0.583364
-0.478774
-0.366729
-0.210761
-0.14004
0.019032
0.0105568
0.231401
0.837005
0.807066
0.742714
0.747841
0.777176
0.740304
0.487764
0.0968912
-0.30191
-0.561544
-0.575113
-0.466717
-0.319518
-0.205968
-0.130117
-0.0941098
-0.0596517
0.0059375
0.00713665
0.192303
0.787942
0.806551
0.725136
0.715299
0.726571
0.718494
0.585922
0.319242
0.00432381
-0.238988
-0.302872
-0.216704
-0.0931377
0.000396332
0.0437316
-0.00685724
-0.0146662
-0.00102535
0.00339287
0.157045
0.730674
0.84908
0.741188
0.711033
0.700725
0.689318
0.629176
0.475573
0.246192
0.038324
-0.0482585
-0.00286003
0.0765459
0.134587
0.149443
0.0438493
0.00162715
-0.0031615
-0.00679261
0.0960639
0.663485
0.939169
0.803501
0.746134
0.710209
0.677973
0.63241
0.547767
0.396822
0.216326
0.107407
0.115284
0.162321
0.197535
0.19888
0.0420635
-0.0108867
0.000497269
-0.0213424
0.0653638
0.62211
0.933412
0.910795
0.822788
0.759032
0.701047
0.636981
0.554928
0.430199
0.249701
0.0996632
0.0919838
0.147952
0.191045
0.181862
-0.0518367
-0.0363374
0.0120555
-0.0416963
-0.230134
0.374616
0.777558
0.992206
0.865026
0.767546
0.681965
0.589582
0.472569
0.304882
0.0425221
-0.2777
-0.224581
-0.0381855
0.0637106
-0.000932276
-0.273499
-0.023997
0.047207
-0.0468741
0.697286
0.764178
0.537708
0.422215
0.349302
0.297832
0.248231
0.189905
0.112967
0.0108979
-0.115307
-0.230681
-0.259368
-0.233527
-0.193032
-0.420172
-0.441075
-1.20855e-05
0.237079
0.678613
0.00772837
0.0900257
0.0709425
0.0330926
0.0200997
0.0167843
0.0144548
0.0101575
0.00375612
-0.00411493
-0.0123794
-0.0204359
-0.0274557
-0.0394067
-0.0513941
-0.120679
-0.104884
-0.317114
0.738085
0.0851867
-0.0241336
-0.0205237
-0.0113689
-0.00618988
-0.00377479
-0.00255027
-0.00184534
-0.00139877
-0.00111683
-0.000953295
-0.000866462
-0.000854045
-0.000944919
-0.00125299
-0.00161326
-0.00389856
0.00304804
-0.0486773
0.119323
)
;

boundaryField
{
    movingWall
    {
        type            calculated;
        value           nonuniform List<scalar> 
20
(
0.0470001
-0.0102314
-0.00988582
-0.00566175
-0.00312408
-0.00192703
-0.00131972
-0.000969351
-0.000745786
-0.000603051
-0.000518949
-0.000472431
-0.000463964
-0.000509408
-0.000675273
-0.000869033
-0.00212659
0.00111412
-0.0264647
0.0668399
)
;
    }
    fixedWalls
    {
        type            calculated;
        value           nonuniform List<scalar> 
60
(
0.224042
0.0854857
0.0507859
0.03634
0.0263798
0.0196567
0.0152635
0.0123563
0.0103244
0.00876772
0.00753439
0.00591802
0.00385725
0.00145938
-0.00441309
-0.0131067
-0.0268068
-0.0257509
0.767664
0.192548
0.149449
0.373388
0.832114
0.122046
-0.0335529
0.0265442
0.0460605
0.0409613
0.0296798
0.0180247
0.00862795
0.00309506
0.00035178
-0.000297518
0.00124343
0.005197
0.016234
0.0748344
0.439025
0.433077
0.220632
0.0977421
0.0508996
0.0272314
0.0136956
0.00715751
0.00554038
0.0065488
0.00830009
0.0100555
0.0119464
0.0150374
0.0197432
0.0260293
0.0342648
0.0460485
0.0678079
0.138288
0.524084
0.292294
)
;
    }
    frontAndBack
    {
        type            empty;
    }
}


// ************************************************************************* //
