/*--------------------------------*- C++ -*----------------------------------*\
| =========                 |                                                 |
| \\      /  F ield         | OpenFOAM: The Open Source CFD Toolbox           |
|  \\    /   O peration     | Version:  2312                                  |
|   \\  /    A nd           | Website:  www.openfoam.com                      |
|    \\/     M anipulation  |                                                 |
\*---------------------------------------------------------------------------*/
FoamFile
{
    version     2.0;
    format      ascii;
    arch        "LSB;label=32;scalar=64";
    class       volScalarField;
    location    "1.875";
    object      Lambda2Field;
}
// * * * * * * * * * * * * * * * * * * * * * * * * * * * * * * * * * * * * * //

dimensions      [0 0 -2 0 0 0 0];

internalField   nonuniform List<scalar> 
400
(
0.0503152
0.24197
0.565433
0.734968
0.849162
0.825627
0.989262
1.17782
1.63511
2.00563
2.70088
3.18656
4.74866
5.62726
6.05682
4.90758
3.41228
1.55186
0.301351
0.0167841
0.289918
0.708463
1.27933
1.58041
1.8915
1.90113
1.96308
1.80639
1.88069
1.9883
2.44733
3.09429
4.54653
5.62135
8.53024
7.96337
7.38786
3.08803
0.921326
0.00810994
0.689007
1.06001
1.56093
1.93782
2.25995
2.31172
2.30155
2.45564
3.10965
4.38845
6.30074
8.52962
11.2177
14.3083
17.9699
19.3258
17.4679
10.2445
2.73568
0.235641
1.13295
1.35223
1.69307
1.98963
2.28558
2.48718
2.9339
4.12952
6.72133
10.0743
14.283
15.2626
16.1802
17.486
21.954
27.6379
30.8286
27.5061
11.2028
0.624831
1.45482
1.50246
1.71574
1.98286
2.29512
2.81185
4.05352
6.75292
11.5401
14.4488
13.5976
7.73245
1.16913
-2.27616
0
9.02201
25.1923
37.3068
31.5199
1.5563
1.60857
1.48403
1.61634
1.88041
2.28651
3.11083
5.13997
9.07009
13.2367
12.3467
3.17209
-12.182
0
-30.986
0
-27.3063
0
22.3993
43.3034
23.7009
1.62114
1.32411
1.40625
1.67819
2.18089
3.22788
5.70197
9.84866
11.8968
4.80893
0
-30.1305
0
-39.8233
0
-40.3717
0
-17.6736
33.8734
71.0998
1.53784
1.08129
1.12474
1.39118
1.93652
3.06478
5.52392
9.0307
8.58333
-2.92052
0
-39.9593
0
-36.2367
0
-29.0874
0
-40.0321
3.21452
91.1331
1.39905
0.823156
0.830832
1.07693
1.60587
2.6804
4.88392
7.51502
5.47199
-7.39032
0
-43.9556
0
-36.8956
0
-20.3105
0
-34.006
0
83.0985
1.2312
0.603813
0.577445
0.791465
1.27098
2.22756
4.05806
6.22649
4.39491
-6.90598
0
-42.3896
0
-38.9248
0
-17.2221
0
-22.5946
0
58.3823
1.06675
0.45102
0.399454
0.57845
0.996228
1.80346
3.31779
5.30095
4.68616
-2.60709
0
-32.881
0
-34.2567
0
-12.8804
0
-13.5806
0
28.0548
0.830635
0.369565
0.308969
0.459316
0.820876
1.47239
2.69316
4.39911
4.92089
1.35206
0
-17.5674
0
-20.6075
0
-6.10101
0
-6.28333
0
7.69149
0.544846
0.326004
0.293726
0.430626
0.748498
1.28167
2.18222
3.48504
4.47836
3.54685
0
-4.98847
0
-6.65337
0
0
1.5143
-0.194134
0
-1.57083
0.239416
0.275325
0.324817
0.473972
0.763536
1.20775
1.85406
2.73963
3.62494
3.74613
2.45472
0.377116
0
-0.0466831
1.93737
3.32287
4.66866
3.17147
0.880938
-0.708177
0
0.157188
0.381957
0.580384
0.865952
1.24537
1.72292
2.27851
2.79485
2.97761
2.4925
1.55066
0.956838
1.38137
2.69592
3.99409
5.74017
2.92055
0
0
0
0
0.458452
0.749183
1.05919
1.40824
1.77579
2.10191
2.28949
2.20022
1.75251
0.990124
0.468466
0.610447
1.57635
2.85406
4.69947
-2.7952
0
1.70119
0
-0.185036
0.0313454
0.38474
0.845806
1.26232
1.63281
1.8177
1.97034
1.52912
1.06595
0.04546
0
-0.806109
0
0.738111
0
-16.6738
0
26.298
0
0.207768
1.10466
1.08206
1.30973
1.65747
1.95648
1.97015
1.7234
0.954642
0
-1.14054
0
-3.81816
0
-5.96651
0
-40.0356
0
258.188
8.88956
0
2.90692
0
5.11885
0
3.56013
0
2.39922
0
0
-1.37321
0
-5.64614
0
-13.6542
0
-19.2206
0
955.274
3302.48
-604.187
0
-362.283
0
-89.2513
0
-41.3333
0
-23.1576
0
-17.8404
0
-15.7203
0
0
0
0
0
1605.74
)
;

boundaryField
{
    movingWall
    {
        type            calculated;
        value           nonuniform List<scalar> 
20
(
5533.9
0
0
0
0
0
0
0
0
0
0
0
0
0
0
0
0
0
0
2875.46
)
;
    }
    fixedWalls
    {
        type            calculated;
        value           nonuniform List<scalar> 
60
(
0
0.061513
0.443697
0.764775
1.47059
1.49269
2.04676
2.08648
2.17554
1.49315
1.89689
0.626253
0.943452
0
0
0
0
0
27.6065
6872.37
0.0106474
0
0.0988601
0
0
10.8458
105.714
59.843
201.117
15.4423
80.4727
0
0.870824
0
5.52376
0
182.309
749.612
3525.36
2159.5
0.0124351
0.0492566
0.476451
0.151227
0.700468
0
0.717537
0.86537
1.88871
1.97869
4.38448
4.93617
7.84969
8.51331
7.54999
4.73736
2.97417
0.957204
0.23971
0.0139363
)
;
    }
    frontAndBack
    {
        type            empty;
    }
}


// ************************************************************************* //
