/*--------------------------------*- C++ -*----------------------------------*\
| =========                 |                                                 |
| \\      /  F ield         | OpenFOAM: The Open Source CFD Toolbox           |
|  \\    /   O peration     | Version:  2312                                  |
|   \\  /    A nd           | Website:  www.openfoam.com                      |
|    \\/     M anipulation  |                                                 |
\*---------------------------------------------------------------------------*/
FoamFile
{
    version     2.0;
    format      ascii;
    arch        "LSB;label=32;scalar=64";
    class       volScalarField;
    location    "1.875";
    object      magSqrU;
}
// * * * * * * * * * * * * * * * * * * * * * * * * * * * * * * * * * * * * * //

dimensions      [0 2 -2 0 0 0 0];

internalField   nonuniform List<scalar> 
400
(
1.72883e-07
7.02596e-06
4.22337e-05
0.000120275
0.000252063
0.00045163
0.000733626
0.00109905
0.00152481
0.0019642
0.00234468
0.00255298
0.00247313
0.00205271
0.00139963
0.000729155
0.000253641
3.93857e-05
1.25635e-06
1.13006e-06
7.94745e-06
5.82585e-05
0.000171842
0.000368878
0.000672759
0.00109264
0.0016082
0.0021789
0.00278083
0.00340613
0.00400909
0.00446652
0.00459275
0.0042064
0.00329786
0.00211293
0.001005
0.000280159
2.80825e-05
4.9576e-07
5.09775e-05
0.000178077
0.00037015
0.000653237
0.00105386
0.00157035
0.00217043
0.00284779
0.00367583
0.00475895
0.00611763
0.00755088
0.00863045
0.00889505
0.00805812
0.00624282
0.00377108
0.00143727
0.000185289
1.10847e-06
0.000151576
0.000369266
0.000633222
0.000980712
0.00143391
0.00199025
0.00265852
0.00356511
0.00498889
0.00723541
0.0102771
0.0134107
0.0156771
0.01675
0.0166639
0.0150948
0.0116338
0.00634343
0.00142587
1.53391e-05
0.000321232
0.000634215
0.000954145
0.00134596
0.00183264
0.00243095
0.00324073
0.00458231
0.00692641
0.0104959
0.0144898
0.0175184
0.0190676
0.020007
0.0211313
0.0222327
0.0216199
0.0166668
0.00715389
0.00028633
0.000553061
0.000959391
0.00131661
0.00173594
0.00225003
0.0029133
0.00392152
0.00574549
0.00883874
0.0126978
0.0155526
0.0162541
0.0157536
0.0156053
0.0169277
0.0202488
0.0247306
0.0263604
0.0182003
0.00282746
0.000823054
0.00131833
0.00169563
0.00212756
0.00266521
0.00340074
0.00459557
0.00676122
0.00997045
0.0128553
0.0134073
0.0114717
0.00918464
0.00844199
0.00972613
0.0130667
0.0192814
0.0279212
0.0302613
0.0109676
0.00109554
0.00167499
0.00205873
0.00248927
0.00303983
0.00382358
0.00511474
0.00734727
0.0101521
0.0116023
0.0100521
0.0065867
0.00412504
0.00403585
0.00577422
0.00868184
0.0134919
0.0230625
0.0358781
0.0242184
0.00133226
0.00199004
0.00237056
0.0027861
0.00332736
0.00410738
0.00536923
0.00744368
0.00963788
0.0100482
0.00741894
0.00342344
0.00121273
0.00174111
0.00416505
0.00733487
0.0111687
0.0185682
0.0349316
0.0387427
0.00150096
0.00222817
0.00259933
0.00298445
0.00348699
0.00420697
0.00533566
0.00710237
0.00887164
0.00898122
0.00626552
0.0023056
0.000115215
0.000727776
0.00341187
0.00670213
0.0102678
0.0161326
0.0324029
0.0494615
0.00158426
0.00236665
0.00272345
0.00306508
0.0035042
0.00412195
0.00505195
0.00645634
0.00797619
0.0082413
0.00638913
0.00310934
0.00093838
0.0011601
0.00334983
0.0061442
0.00925301
0.0143627
0.0296616
0.0563508
0.00157333
0.00239716
0.00273571
0.00302657
0.00338873
0.00388678
0.00460332
0.00565823
0.00688969
0.00744875
0.00662765
0.00462728
0.00291042
0.00263044
0.00371406
0.00554921
0.00793754
0.0121957
0.0267749
0.0605899
0.00149378
0.00232716
0.00264263
0.00288033
0.00316429
0.00354929
0.00408374
0.00483335
0.00575108
0.00642245
0.00634556
0.00547028
0.00437919
0.00380735
0.00394903
0.00479126
0.00638674
0.0098033
0.023468
0.0633695
0.00136623
0.00217819
0.00246091
0.00264496
0.0028574
0.00314841
0.00354893
0.00408639
0.0047485
0.00536903
0.00565174
0.00540829
0.00478932
0.00416597
0.00379533
0.00394122
0.00481887
0.00739622
0.0198726
0.0652373
0.00120735
0.00196565
0.00220333
0.00233396
0.00248741
0.00271069
0.00302694
0.00344707
0.0039577
0.00448263
0.00487425
0.00493587
0.00463284
0.00408033
0.00350603
0.00321807
0.00348712
0.00526412
0.0159848
0.0663839
0.00113542
0.00177603
0.00192174
0.00197908
0.00207467
0.00224981
0.00252394
0.00289976
0.00335829
0.00384254
0.00426048
0.00447058
0.00436396
0.00394462
0.00332899
0.00279065
0.00254008
0.00374774
0.0121752
0.0677083
0.000842983
0.00133535
0.00145799
0.00150536
0.00159012
0.00175532
0.0020299
0.00241849
0.00290152
0.00342646
0.00391271
0.00424799
0.00433089
0.00406368
0.00347089
0.00278872
0.00208799
0.00319286
0.00927894
0.0707331
0.00197923
0.00214771
0.00175418
0.00143923
0.00133431
0.00142241
0.00169612
0.00213815
0.00271779
0.0033832
0.00405168
0.0046133
0.00492028
0.00489689
0.00444346
0.0037639
0.00256901
0.00412701
0.00626094
0.0716195
0.000274947
0.000186224
0.000124359
0.000354871
0.000780804
0.00143216
0.00230492
0.00337626
0.00461013
0.00595634
0.00733604
0.0086482
0.0097566
0.0105916
0.0109113
0.011105
0.00908601
0.0116752
0.00263641
0.0560714
0.0102891
0.00859812
0.00941766
0.0126784
0.016401
0.0202235
0.0242101
0.0283386
0.0325369
0.0367481
0.0408974
0.0448874
0.0485615
0.0518444
0.0541862
0.0566498
0.0533591
0.0634158
0.0157088
0.152753
)
;

boundaryField
{
    movingWall
    {
        type            calculated;
        value           uniform 1;
    }
    fixedWalls
    {
        type            calculated;
        value           uniform 0;
    }
    frontAndBack
    {
        type            empty;
    }
}


// ************************************************************************* //
