/*--------------------------------*- C++ -*----------------------------------*\
| =========                 |                                                 |
| \\      /  F ield         | OpenFOAM: The Open Source CFD Toolbox           |
|  \\    /   O peration     | Version:  2312                                  |
|   \\  /    A nd           | Website:  www.openfoam.com                      |
|    \\/     M anipulation  |                                                 |
\*---------------------------------------------------------------------------*/
FoamFile
{
    version     2.0;
    format      ascii;
    arch        "LSB;label=32;scalar=64";
    class       volScalarField;
    location    "1.875";
    object      magU;
}
// * * * * * * * * * * * * * * * * * * * * * * * * * * * * * * * * * * * * * //

dimensions      [0 1 -1 0 0 0 0];

internalField   nonuniform List<scalar> 
400
(
0.000415792
0.00265065
0.00649875
0.010967
0.0158765
0.0212516
0.0270855
0.0331519
0.0390489
0.0443193
0.0484219
0.050527
0.0497306
0.0453068
0.0374116
0.0270029
0.0159261
0.00627581
0.00112087
0.00106304
0.00281912
0.00763273
0.0131089
0.0192062
0.0259376
0.0330551
0.0401024
0.0466787
0.0527336
0.058362
0.0633174
0.066832
0.0677699
0.0648568
0.057427
0.0459666
0.0317018
0.0167379
0.00529929
0.000704102
0.00713985
0.0133446
0.0192393
0.0255585
0.0324632
0.0396276
0.0465878
0.0533647
0.0606286
0.0689852
0.0782153
0.0868958
0.0929002
0.0943136
0.089767
0.0790115
0.0614092
0.0379114
0.0136121
0.00105284
0.0123116
0.0192163
0.0251639
0.0313163
0.037867
0.0446122
0.0515608
0.0597085
0.0706321
0.0850612
0.101376
0.115804
0.125208
0.129422
0.129089
0.122861
0.10786
0.0796456
0.0377606
0.00391652
0.0179229
0.0251836
0.0308892
0.0366873
0.0428093
0.0493047
0.0569274
0.0676927
0.083225
0.102449
0.120373
0.132357
0.138085
0.141446
0.145366
0.149106
0.147037
0.1291
0.0845807
0.0169213
0.0235173
0.030974
0.0362851
0.0416646
0.0474345
0.053975
0.062622
0.075799
0.0940146
0.112685
0.12471
0.127492
0.125513
0.124921
0.130106
0.142298
0.15726
0.162359
0.134909
0.0531739
0.0286889
0.0363089
0.041178
0.0461254
0.0516257
0.0583158
0.0677906
0.0822267
0.0998522
0.113381
0.11579
0.107106
0.0958365
0.0918803
0.0986212
0.11431
0.138857
0.167096
0.173958
0.104727
0.0330989
0.0409266
0.0453733
0.0498926
0.0551347
0.0618351
0.0715174
0.0857162
0.100758
0.107714
0.10026
0.0811585
0.0642264
0.0635284
0.0759883
0.0931764
0.116154
0.151863
0.189415
0.155622
0.0365002
0.0446098
0.0486884
0.0527835
0.0576833
0.0640888
0.073275
0.0862768
0.0981727
0.100241
0.0861333
0.0585102
0.0348242
0.0417267
0.0645372
0.0856439
0.105682
0.136265
0.1869
0.196832
0.0387422
0.0472035
0.0509836
0.0546301
0.0590508
0.0648612
0.0730456
0.0842755
0.0941894
0.0947693
0.079155
0.0480167
0.0107338
0.0269773
0.0584112
0.0818665
0.10133
0.127014
0.180008
0.222399
0.0398027
0.0486482
0.0521867
0.0553631
0.0591963
0.0642024
0.071077
0.0803513
0.0893095
0.0907816
0.079932
0.0557615
0.030633
0.0340602
0.0578777
0.078385
0.0961926
0.119845
0.172226
0.237383
0.0396653
0.0489608
0.052304
0.0550142
0.0582128
0.0623441
0.0678478
0.0752212
0.0830042
0.0863061
0.0814104
0.0680241
0.0539483
0.0512878
0.0609431
0.074493
0.0890929
0.110434
0.16363
0.24615
0.0386495
0.0482406
0.0514065
0.0536687
0.056252
0.0595759
0.0639042
0.0695223
0.0758358
0.0801402
0.079659
0.0739614
0.0661755
0.0617037
0.0628413
0.0692189
0.0799171
0.0990116
0.153193
0.251733
0.0369625
0.0466711
0.0496076
0.0514292
0.0534546
0.0561107
0.0595729
0.0639249
0.0689094
0.0732737
0.075178
0.073541
0.0692049
0.0645443
0.0616063
0.0627791
0.0694181
0.0860013
0.14097
0.255416
0.034747
0.0443357
0.0469396
0.048311
0.049874
0.0520643
0.0550176
0.0587118
0.0629102
0.0669524
0.0698158
0.0702557
0.068065
0.0638775
0.0592117
0.056728
0.0590518
0.0725542
0.126431
0.257651
0.033696
0.042143
0.0438376
0.0444869
0.0455486
0.0474322
0.0502388
0.0538495
0.0579507
0.0619882
0.0652723
0.0668624
0.0660603
0.0628062
0.0576974
0.0528266
0.0503992
0.0612188
0.110341
0.260208
0.0290342
0.0365424
0.0381836
0.038799
0.0398763
0.0418965
0.0450545
0.0491781
0.0538657
0.0585359
0.0625517
0.0651766
0.0658095
0.063747
0.0589143
0.0528083
0.0456945
0.0565054
0.0963272
0.265957
0.0444886
0.0463434
0.041883
0.0379371
0.0365282
0.0377148
0.041184
0.0462401
0.0521324
0.0581653
0.0636528
0.0679213
0.0701447
0.0699778
0.0666593
0.0613506
0.0506854
0.0642418
0.0791261
0.267618
0.0165815
0.0136464
0.0111516
0.018838
0.0279429
0.0378439
0.0480096
0.0581056
0.0678979
0.0771773
0.0856507
0.0929957
0.0987755
0.102916
0.104457
0.10538
0.0953206
0.108052
0.051346
0.236794
0.101435
0.0927261
0.0970446
0.112598
0.128066
0.142209
0.155596
0.168341
0.18038
0.191698
0.202231
0.211866
0.220367
0.227694
0.232779
0.238012
0.230996
0.251825
0.125335
0.390836
)
;

boundaryField
{
    movingWall
    {
        type            calculated;
        value           uniform 1;
    }
    fixedWalls
    {
        type            calculated;
        value           uniform 0;
    }
    frontAndBack
    {
        type            empty;
    }
}


// ************************************************************************* //
