/*--------------------------------*- C++ -*----------------------------------*\
| =========                 |                                                 |
| \\      /  F ield         | OpenFOAM: The Open Source CFD Toolbox           |
|  \\    /   O peration     | Version:  2312                                  |
|   \\  /    A nd           | Website:  www.openfoam.com                      |
|    \\/     M anipulation  |                                                 |
\*---------------------------------------------------------------------------*/
FoamFile
{
    version     2.0;
    format      ascii;
    arch        "LSB;label=32;scalar=64";
    class       volScalarField;
    location    "1.875";
    object      pNear;
}
// * * * * * * * * * * * * * * * * * * * * * * * * * * * * * * * * * * * * * //

dimensions      [0 2 -2 0 0 0 0];

internalField   nonuniform List<scalar> 
400
(
2.15224e-08
0
0
0
0
0
0
0
0
0
6.28973e-05
0.000349499
0.000824041
0.00145968
0.00213738
0.00268826
0.00301156
0.00311417
0.00308314
0.00303741
1.57624e-05
0
0
0
0
0
0
0
0
0
0
0.000147864
0.000576647
0.00121018
0.00193703
0.00256592
0.00294747
0.00308355
0.00306601
0.00299945
2.78821e-06
0
0
0
0
0
0
0
0
0
0
0
4.20688e-05
0.000680476
0.00149274
0.00228898
0.00282946
0.00303606
0.0030567
0.00296884
0
0
0
0
0
0
0
0
0
0
0
0
0
0
0
0.000978107
0.00209051
0.00279993
0.00301352
0.00283486
0
0
0
0
0
0
0
0
0
0
0
0
0
0
0
0
0
0.00173255
0.00279827
0.00280539
0
0
0
0
0
0
0
0
0
0
0
0
0
0
0
0
0
0
0.00200668
0.00263384
0
0
0
0
0
0
0
0
0
0
0
0
0
0
0
0
0
0
0
0.001762
0
0
0
0
0
0
0
0
0
0
0
0
0
0
0
0
0
0
0
0
0
0
0
0
0
0
0
0
0
0
0
0
0
0
0
0
0
0
0
0
0
0
0
0
0
0
0
0
0
0
0
0
0
0
0
0
0
0
0
0
0
0
0
0
0
0
0
0
0
0
0
0
0
0
0
0
0
0
0
0
0
0
0
0
0
0
0
0
0
0
0
0
0
0
0
0
0
0
0
0
0
0
0
0
0
0
0
0
0
0
0
0
0
0
0
0
0
0
0
0
0
0
0
0
0
0
0
0
0
0
0
0
0
0
0
0
0
0
0
0
0
0
0
0
0
0
0
0
0
0
0
0
0
0
0
0
0
0
0
0
0
0
0
0
0
0
0
0
0
0
0
0
0
0
0
0
0
0
0
0
0
0
0
0
0
0
0
0
0
0
0
0
0
0
0
0
0
0
0
0
0
0
0
0
0
0
0
0
0
0
0
0
0
0
0
0
0
0
0
0
0
0
0
0
0
0
0
0
0
0
0
0
0
0
0
0
0
0.000701214
0.00221911
0.0150218
0
0.00122164
0.000541195
0
0
0
0
0
0
0
0
0
0
0
0
0
0
0.00331001
0.00496588
0.0576653
)
;

boundaryField
{
    movingWall
    {
        type            zeroGradient;
    }
    fixedWalls
    {
        type            calculated;
        value           nonuniform List<scalar> 
60
(
2.38265e-06
1.14551e-05
4.3161e-06
4.18231e-07
0
0
0
0
0
0
0
0
0
0
0
0
0
0
0
0
0.00303172
0.00300056
0.00295334
0.00285054
0.00278408
0.0025288
0.00162848
0.000264301
0
0
0
0
0
0
0
0
0
0.00225327
0.0191651
0.0512688
1.82941e-08
3.22837e-09
0
0
0
0
0
0
0
9.4346e-06
9.6453e-05
0.00037769
0.000848205
0.00146599
0.00211836
0.00265412
0.00297846
0.00309413
0.00308093
0.00304427
)
;
    }
    frontAndBack
    {
        type            empty;
    }
}


// ************************************************************************* //
