/*--------------------------------*- C++ -*----------------------------------*\
| =========                 |                                                 |
| \\      /  F ield         | OpenFOAM: The Open Source CFD Toolbox           |
|  \\    /   O peration     | Version:  2312                                  |
|   \\  /    A nd           | Website:  www.openfoam.com                      |
|    \\/     M anipulation  |                                                 |
\*---------------------------------------------------------------------------*/
FoamFile
{
    version     2.0;
    format      ascii;
    arch        "LSB;label=32;scalar=64";
    class       volVectorField;
    location    "1.875";
    object      UNear;
}
// * * * * * * * * * * * * * * * * * * * * * * * * * * * * * * * * * * * * * //

dimensions      [0 1 -1 0 0 0 0];

internalField   nonuniform List<vector> 
400
(
(-0.000308805 0.000278428 0)
(-0.00239724 0.00113102 0)
(-0.00627579 0.00168765 0)
(-0.0107953 0.00193291 0)
(-0.0157308 0.00214581 0)
(-0.0211084 0.00246263 0)
(-0.0269361 0.00284075 0)
(-0.0330059 0.00310782 0)
(-0.0389263 0.00309112 0)
(-0.0442372 0.00269665 0)
(-0.0483853 0.00188181 0)
(-0.0505231 0.000627125 0)
(-0.0497176 -0.00113776 0)
(-0.045195 -0.00318055 0)
(-0.0370761 -0.00499895 0)
(-0.0263533 -0.00588719 0)
(-0.0149989 -0.00535483 0)
(-0.00525697 -0.00342783 0)
(0.000102147 -0.0011162 0)
(0.00087352 0.000605823 0)
(-0.00131676 0.00249271 0)
(-0.00538797 0.00540632 0)
(-0.0110294 0.00708478 0)
(-0.0174946 0.00792574 0)
(-0.0244862 0.00855488 0)
(-0.0317754 0.00910834 0)
(-0.0389962 0.00935414 0)
(-0.0457835 0.00909814 0)
(-0.0520683 0.00835015 0)
(-0.0579343 0.00705239 0)
(-0.0631315 0.00484881 0)
(-0.0668185 0.00134461 0)
(-0.067679 -0.00350828 0)
(-0.0642032 -0.00918448 0)
(-0.0556201 -0.0142921 0)
(-0.0425787 -0.0173198 0)
(-0.0269403 -0.0167099 0)
(-0.0119015 -0.0117692 0)
(-0.00194826 -0.00492816 0)
(0.000576742 0.000403891 0)
(-0.00232676 0.00675008 0)
(-0.00751229 0.0110292 0)
(-0.0136652 0.013543 0)
(-0.0206393 0.015075 0)
(-0.028175 0.0161255 0)
(-0.0359414 0.0166903 0)
(-0.043541 0.0165714 0)
(-0.0509425 0.0158951 0)
(-0.0587572 0.0149473 0)
(-0.0676382 0.0135657 0)
(-0.077446 0.0109427 0)
(-0.0866932 0.00593133 0)
(-0.0928744 -0.0021906 0)
(-0.0934424 -0.0127895 0)
(-0.0864928 -0.0240231 0)
(-0.0720451 -0.0324395 0)
(-0.0510105 -0.0341909 0)
(-0.0265209 -0.0270908 0)
(-0.00510217 -0.0126197 0)
(0.00100104 -0.000326167 0)
(-0.00288077 0.0119699 0)
(-0.00870168 0.0171332 0)
(-0.0150398 0.0201749 0)
(-0.0220266 0.0222607 0)
(-0.0295299 0.0237044 0)
(-0.0373516 0.0243948 0)
(-0.0454365 0.0243729 0)
(-0.0544826 0.0244286 0)
(-0.065944 0.0253036 0)
(-0.0808952 0.0262941 0)
(-0.0983033 0.0247708 0)
(-0.114493 0.017378 0)
(-0.125169 0.00314614 0)
(-0.128441 -0.0159006 0)
(-0.12385 -0.0364014 0)
(-0.110466 -0.0537771 0)
(-0.0878065 -0.0626401 0)
(-0.0563188 -0.0563171 0)
(-0.0200274 -0.032012 0)
(0.00111448 -0.00375461 0)
(-0.00302858 0.0176652 0)
(-0.0090327 0.023508 0)
(-0.0152736 0.0268489 0)
(-0.0220105 0.0293513 0)
(-0.0292749 0.0312349 0)
(-0.0370897 0.0324854 0)
(-0.0458957 0.0336796 0)
(-0.0571006 0.036357 0)
(-0.0723859 0.0410694 0)
(-0.0919737 0.0451302 0)
(-0.112404 0.043071 0)
(-0.128607 0.0312815 0)
(-0.137714 0.0101241 0)
(-0.140438 -0.0168555 0)
(-0.13813 -0.045292 0)
(-0.130498 -0.0721307 0)
(-0.114697 -0.092002 0)
(-0.0866651 -0.0956868 0)
(-0.0465442 -0.0706224 0)
(-0.00404846 -0.0164299 0)
(-0.00286858 0.0233416 0)
(-0.00863499 0.0297461 0)
(-0.0144982 0.0332628 0)
(-0.020732 0.0361403 0)
(-0.02752 0.0386353 0)
(-0.0351054 0.0409989 0)
(-0.044166 0.0443947 0)
(-0.0563636 0.0506817 0)
(-0.072969 0.0592812 0)
(-0.092321 0.0646115 0)
(-0.109603 0.0594954 0)
(-0.120549 0.0414981 0)
(-0.1247 0.0142624 0)
(-0.123812 -0.0166097 0)
(-0.120982 -0.0478641 0)
(-0.118457 -0.0788466 0)
(-0.113754 -0.108584 0)
(-0.0989193 -0.128746 0)
(-0.0663707 -0.117453 0)
(-0.0202044 -0.0491858 0)
(-0.00248435 0.0285812 0)
(-0.00766104 0.0354915 0)
(-0.0128708 0.0391149 0)
(-0.0183338 0.0423252 0)
(-0.024318 0.0455395 0)
(-0.0311595 0.0492932 0)
(-0.0394627 0.0551205 0)
(-0.0505819 0.0648282 0)
(-0.0649141 0.0758723 0)
(-0.0801021 0.0802428 0)
(-0.0916544 0.0707583 0)
(-0.096342 0.0467965 0)
(-0.0946705 0.0149039 0)
(-0.0901541 -0.0177264 0)
(-0.0861385 -0.0480238 0)
(-0.0845287 -0.0769517 0)
(-0.0864431 -0.108669 0)
(-0.0860745 -0.143221 0)
(-0.0697636 -0.159356 0)
(-0.0312393 -0.0999588 0)
(-0.00194155 0.0330419 0)
(-0.00625179 0.0404463 0)
(-0.0105644 0.0441262 0)
(-0.014998 0.047585 0)
(-0.0198117 0.0514522 0)
(-0.0252677 0.0564369 0)
(-0.0316675 0.0641241 0)
(-0.0396868 0.0759752 0)
(-0.0493421 0.0878493 0)
(-0.0588319 0.090228 0)
(-0.0650029 0.0763329 0)
(-0.0660184 0.0472045 0)
(-0.0631932 0.0114742 0)
(-0.0593695 -0.022608 0)
(-0.0551214 -0.0523053 0)
(-0.051813 -0.0774419 0)
(-0.0526648 -0.103529 0)
(-0.0584687 -0.140157 0)
(-0.056701 -0.180729 0)
(-0.0316339 -0.152373 0)
(-0.00130392 0.0364769 0)
(-0.00455445 0.0443767 0)
(-0.00778812 0.0480615 0)
(-0.0109982 0.0516249 0)
(-0.0143331 0.0558742 0)
(-0.0178916 0.0615408 0)
(-0.0216177 0.0700136 0)
(-0.0255143 0.0824179 0)
(-0.029393 0.0936693 0)
(-0.0326295 0.0947817 0)
(-0.0348016 0.0787895 0)
(-0.0346479 0.0471483 0)
(-0.0335765 0.00923832 0)
(-0.0320714 -0.0266935 0)
(-0.0295348 -0.0573825 0)
(-0.02736 -0.081156 0)
(-0.0268839 -0.102205 0)
(-0.0321486 -0.132418 0)
(-0.037358 -0.183128 0)
(-0.025208 -0.195211 0)
(-0.00063532 0.038737 0)
(-0.00271774 0.0471252 0)
(-0.00476921 0.0507601 0)
(-0.00665059 0.0542238 0)
(-0.00835556 0.0584566 0)
(-0.00981057 0.0641149 0)
(-0.0107032 0.0722572 0)
(-0.0103124 0.0836422 0)
(-0.00875844 0.0937813 0)
(-0.00614864 0.0945696 0)
(-0.00393751 0.079057 0)
(-0.00271646 0.0479398 0)
(-0.00296859 0.0103151 0)
(-0.00373162 -0.026718 0)
(-0.00427354 -0.0582547 0)
(-0.00610619 -0.0816385 0)
(-0.00830448 -0.100989 0)
(-0.0136614 -0.126277 0)
(-0.0208748 -0.178794 0)
(-0.0174916 -0.221711 0)
(-9.29275e-07 0.0398027 0)
(-0.000903272 0.0486398 0)
(-0.00175685 0.0521572 0)
(-0.00231445 0.0553147 0)
(-0.00242902 0.0591464 0)
(-0.00188818 0.0641746 0)
(-0.000303845 0.0710764 0)
(0.0034499 0.0802772 0)
(0.00937294 0.0888163 0)
(0.0171513 0.0891467 0)
(0.0234598 0.0764118 0)
(0.0271683 0.0486952 0)
(0.0275492 0.0133948 0)
(0.0250066 -0.0231251 0)
(0.0201157 -0.0542696 0)
(0.0133205 -0.0772449 0)
(0.00688415 -0.0959459 0)
(-0.00107317 -0.11984 0)
(-0.00945212 -0.171966 0)
(-0.0128362 -0.237036 0)
(0.000561594 0.0396613 0)
(0.00072132 0.0489554 0)
(0.000996723 0.0522945 0)
(0.00165404 0.0549894 0)
(0.00293561 0.0581387 0)
(0.00511668 0.0621338 0)
(0.00859606 0.067301 0)
(0.0143935 0.0738313 0)
(0.0229427 0.0797705 0)
(0.0335453 0.0795202 0)
(0.0433077 0.0689354 0)
(0.0498466 0.0462882 0)
(0.0515585 0.0158789 0)
(0.0484493 -0.0168257 0)
(0.0398727 -0.0460894 0)
(0.0290024 -0.0686153 0)
(0.0187573 -0.087096 0)
(0.00775858 -0.110161 0)
(-0.00237141 -0.163613 0)
(-0.0109809 -0.245905 0)
(0.000917998 0.0386386 0)
(0.00201058 0.0481987 0)
(0.00328187 0.0513017 0)
(0.00499177 0.053436 0)
(0.00742033 0.0557605 0)
(0.0108227 0.0585846 0)
(0.015545 0.0619846 0)
(0.0222603 0.0658622 0)
(0.0315778 0.0689487 0)
(0.0428265 0.0677373 0)
(0.0537094 0.058829 0)
(0.0616015 0.0409334 0)
(0.0641466 0.0162605 0)
(0.0607389 -0.0108687 0)
(0.0515163 -0.0359875 0)
(0.0391042 -0.057115 0)
(0.0266356 -0.0753477 0)
(0.0134497 -0.0980939 0)
(0.00157074 -0.153184 0)
(-0.0108722 -0.251498 0)
(0.0010908 0.0369464 0)
(0.00285793 0.0465835 0)
(0.0049389 0.0493611 0)
(0.00752901 0.0508751 0)
(0.0108741 0.0523369 0)
(0.0151546 0.0540255 0)
(0.0206086 0.0558947 0)
(0.0275791 0.0576696 0)
(0.0364666 0.0584696 0)
(0.0468918 0.0563045 0)
(0.0571159 0.0488826 0)
(0.0646177 0.0351118 0)
(0.0672642 0.0162744 0)
(0.0643606 -0.00486658 0)
(0.0560296 -0.0256128 0)
(0.0441334 -0.0446482 0)
(0.03112 -0.0620517 0)
(0.0167256 -0.0843592 0)
(0.00359304 -0.140925 0)
(-0.0116088 -0.255152 0)
(0.00101797 0.0347321 0)
(0.00307357 0.044229 0)
(0.00577109 0.0465835 0)
(0.00909962 0.0474463 0)
(0.0132031 0.0480946 0)
(0.0181561 0.048796 0)
(0.0240721 0.049472 0)
(0.0310639 0.0498207 0)
(0.0392211 0.0491874 0)
(0.0482209 0.0464475 0)
(0.056942 0.0403963 0)
(0.0634491 0.0301676 0)
(0.0660769 0.0163305 0)
(0.0638767 0.000316874 0)
(0.0569267 -0.0162905 0)
(0.0464161 -0.032613 0)
(0.0337924 -0.0484272 0)
(0.0189151 -0.0700453 0)
(0.00574432 -0.126301 0)
(-0.0122496 -0.257359 0)
(0.000379084 0.0336939 0)
(0.00251866 0.0420676 0)
(0.00562064 0.0434758 0)
(0.00951874 0.0434566 0)
(0.0142663 0.0432567 0)
(0.0198213 0.043092 0)
(0.0261638 0.0428882 0)
(0.0332269 0.0423762 0)
(0.0408769 0.0410776 0)
(0.0487319 0.0383111 0)
(0.0560471 0.0334545 0)
(0.0615888 0.026027 0)
(0.0640607 0.0161301 0)
(0.0626507 0.00441685 0)
(0.0571005 -0.00827779 0)
(0.0482026 -0.0216141 0)
(0.0359804 -0.0352915 0)
(0.0224868 -0.0569393 0)
(0.0109265 -0.109799 0)
(-0.0115031 -0.259954 0)
(-0.00088148 0.0290208 0)
(-7.23942e-05 0.0365423 0)
(0.00351092 0.0380219 0)
(0.00825259 0.0379112 0)
(0.0138188 0.0374054 0)
(0.0201206 0.0367489 0)
(0.0270466 0.0360331 0)
(0.034431 0.035114 0)
(0.0420394 0.033678 0)
(0.0494664 0.0312975 0)
(0.0561314 0.027604 0)
(0.0612319 0.0223304 0)
(0.0639575 0.0155026 0)
(0.063311 0.00744273 0)
(0.0588897 -0.00170067 0)
(0.0514097 -0.0120732 0)
(0.0391993 -0.023482 0)
(0.0314837 -0.0469216 0)
(0.0188724 -0.0944604 0)
(-0.00788744 -0.26584 0)
(-0.00330686 0.0443655 0)
(-0.00315817 0.0462357 0)
(0.00137893 0.0418603 0)
(0.00673834 0.0373339 0)
(0.0130206 0.0341288 0)
(0.0202285 0.0318311 0)
(0.0280972 0.0301109 0)
(0.0363133 0.0286268 0)
(0.0445711 0.0270408 0)
(0.0524938 0.0250521 0)
(0.0595783 0.0224077 0)
(0.0652068 0.0190098 0)
(0.0685449 0.0148955 0)
(0.0692524 0.0100496 0)
(0.0665 0.00460614 0)
(0.0612929 -0.00265906 0)
(0.0490733 -0.0126815 0)
(0.0519478 -0.0377947 0)
(0.0226672 -0.0758099 0)
(0.00528003 -0.267566 0)
(-0.00653385 0.01524 0)
(-0.00985227 0.00944228 0)
(0.000261248 0.0111486 0)
(0.011581 0.0148577 0)
(0.0229724 0.0159082 0)
(0.0343938 0.0157869 0)
(0.0454551 0.0154519 0)
(0.056101 0.0151305 0)
(0.066283 0.0147203 0)
(0.0758817 0.0140822 0)
(0.0846381 0.0131312 0)
(0.092241 0.0118238 0)
(0.0982493 0.0101827 0)
(0.102596 0.00810824 0)
(0.104304 0.00564685 0)
(0.105369 0.00153253 0)
(0.0952444 -0.00380967 0)
(0.105955 -0.0211829 0)
(0.0296163 -0.0419438 0)
(0.0713805 -0.225779 0)
(0.0404803 0.0930078 0)
(0.061098 0.0697506 0)
(0.086641 0.0437149 0)
(0.108787 0.0290478 0)
(0.126267 0.0213937 0)
(0.141199 0.0169239 0)
(0.154966 0.0139841 0)
(0.16792 0.0118931 0)
(0.180084 0.0103221 0)
(0.191482 0.00910212 0)
(0.202069 0.00809184 0)
(0.211743 0.00721711 0)
(0.220273 0.00641737 0)
(0.227624 0.00562385 0)
(0.232731 0.00473643 0)
(0.237987 0.00347531 0)
(0.230987 0.00205531 0)
(0.251806 -0.0031084 0)
(0.125286 0.00350141 0)
(0.378312 -0.0981456 0)
)
;

boundaryField
{
    movingWall
    {
        type            fixedValue;
        value           uniform (1 0 0);
    }
    fixedWalls
    {
        type            calculated;
        value           nonuniform List<vector> 
60
(
(-0.000123522 0.000111371 0)
(-0.000526705 0.000997083 0)
(-0.000930705 0.00270003 0)
(-0.00115231 0.00478794 0)
(-0.00121143 0.00706608 0)
(-0.00114743 0.00933666 0)
(-0.000993741 0.0114325 0)
(-0.000776619 0.0132168 0)
(-0.000521567 0.0145907 0)
(-0.000254128 0.0154948 0)
(-3.7171e-07 0.0159211 0)
(0.000224638 0.0158645 0)
(0.000367199 0.0154554 0)
(0.00043632 0.0147786 0)
(0.000407189 0.0138928 0)
(0.000151634 0.0134775 0)
(-0.000352592 0.0116083 0)
(-0.00132274 0.0177462 0)
(-0.00261354 0.00609598 0)
(0.166192 0.0372031 0)
(0.000349408 0.000242329 0)
(0.000230697 0.000161556 0)
(0.000400416 -0.000130467 0)
(0.000445791 -0.00150184 0)
(-0.00161939 -0.00657195 0)
(-0.00808177 -0.0196743 0)
(-0.0124957 -0.0399835 0)
(-0.0126536 -0.0609494 0)
(-0.0100832 -0.0780843 0)
(-0.00699663 -0.0886842 0)
(-0.00513449 -0.0948144 0)
(-0.00439236 -0.098362 0)
(-0.00434886 -0.100599 0)
(-0.00464352 -0.102061 0)
(-0.00489985 -0.102944 0)
(-0.00460126 -0.103982 0)
(-0.00315498 -0.106336 0)
(0.00211201 -0.107026 0)
(0.0285522 -0.0903116 0)
(0.301325 -0.0392582 0)
(-0.000123522 0.000111371 0)
(-0.000958895 0.000452408 0)
(-0.00251032 0.000675059 0)
(-0.00431813 0.000773164 0)
(-0.00629232 0.000858324 0)
(-0.00844337 0.000985052 0)
(-0.0107745 0.0011363 0)
(-0.0132024 0.00124313 0)
(-0.0155705 0.00123645 0)
(-0.0176949 0.00107866 0)
(-0.0193541 0.000752723 0)
(-0.0202093 0.00025085 0)
(-0.019887 -0.000455106 0)
(-0.018078 -0.00127222 0)
(-0.0148304 -0.00199958 0)
(-0.0105413 -0.00235488 0)
(-0.00599955 -0.00214193 0)
(-0.00210279 -0.00137113 0)
(4.08589e-05 -0.000446482 0)
(0.000349408 0.000242329 0)
)
;
    }
    frontAndBack
    {
        type            empty;
    }
}


// ************************************************************************* //
