/*--------------------------------*- C++ -*----------------------------------*\
| =========                 |                                                 |
| \\      /  F ield         | OpenFOAM: The Open Source CFD Toolbox           |
|  \\    /   O peration     | Version:  2312                                  |
|   \\  /    A nd           | Website:  www.openfoam.com                      |
|    \\/     M anipulation  |                                                 |
\*---------------------------------------------------------------------------*/
FoamFile
{
    version     2.0;
    format      ascii;
    arch        "LSB;label=32;scalar=64";
    class       volVectorField;
    location    "1.875";
    object      URandom;
}
// * * * * * * * * * * * * * * * * * * * * * * * * * * * * * * * * * * * * * //

dimensions      [0 1 -1 0 0 0 0];

internalField   nonuniform List<vector> 
400
(
(0.0906398 -0.00165381 -0.0415285)
(0.068263 -0.0362752 -0.0600658)
(0.0074752 0.0501999 -0.0863566)
(-0.0857784 0.0314345 -0.0592215)
(-0.083793 -0.0404366 0.0596178)
(-0.10959 0.0213029 0.0426155)
(0.013135 0.022048 0.0895845)
(0.0468904 0.062459 0.00969639)
(-0.118045 0.0136566 0.060238)
(-0.130069 0.036248 -0.0388219)
(-0.0304583 -0.0964971 0.000458146)
(-0.023703 -0.0675067 -0.0681063)
(-0.105754 -0.0695562 -0.0466777)
(-0.129108 0.0388594 0.0345147)
(0.00973857 -0.0925877 0.0116875)
(-0.0946236 -0.0726169 -0.029771)
(0.0364319 0.0236141 -0.0807197)
(-0.0393961 -0.0702471 0.0661037)
(-0.0745712 -0.0623611 0.0259411)
(-0.0608973 -0.0513304 0.0590508)
(0.0380459 -0.0606044 0.0668531)
(0.0478807 -0.0226283 0.079853)
(0.0281176 -0.0766429 0.0381731)
(0.0538078 0.0626293 -0.0438576)
(-0.0838308 0.068739 -0.0534423)
(-0.0623533 -0.0221039 0.0899488)
(-0.0992588 0.0890275 0.00453629)
(-0.00485338 0.0880338 -0.045759)
(-0.107232 -0.070099 -0.028332)
(-0.116197 0.0883026 -0.0019737)
(-0.132258 -0.0139966 0.0697597)
(-0.0449717 0.0249311 -0.0946911)
(-0.0374107 0.0898001 -0.0194262)
(-0.095335 0.0129656 -0.0924131)
(-0.127513 -0.0778912 -0.0280459)
(-0.0438758 0.0821465 0.0102352)
(0.0710013 0.00333858 -0.00234655)
(-0.020316 -0.0854671 0.0670657)
(0.00627664 -0.0708701 0.0747263)
(-0.000436479 0.0958026 -0.0299677)
(0.0225672 -0.0364353 -0.0866909)
(0.0489497 0.0815882 0.042819)
(-0.0580671 -0.0654266 -0.0423353)
(0.00950847 0.104439 0.0332439)
(-0.0570743 -0.0161008 0.090146)
(0.0563585 -0.0191664 0.0139653)
(-0.104923 0.0168895 -0.0789441)
(-0.108377 -0.00730903 0.0785039)
(-0.13636 -0.0378163 0.0345514)
(-0.0200832 -0.0727413 -0.0170183)
(-0.133888 0.0843607 -0.0377373)
(-0.0635106 -0.0813883 0.0428702)
(-0.0585334 0.0790485 -0.0471265)
(-0.159357 -0.0105039 0.0751667)
(-0.153524 -0.0480049 0.070226)
(-0.0325361 0.00521045 -0.0837945)
(-0.0150921 -0.0974465 -0.0686192)
(0.0146684 -0.0642429 0.0832056)
(0.0621702 -0.0859936 0.00952383)
(-0.0249621 -0.0776884 0.0578014)
(-0.0772789 0.0337248 0.0631794)
(-0.069703 0.00843387 0.0787601)
(-0.0573526 0.104867 -0.0322011)
(-0.0666393 0.0397261 -0.0877762)
(0.0626601 0.0544747 0.0235414)
(0.0364729 -0.0181309 0.0523594)
(-0.0598309 -0.0555492 -0.0583546)
(-0.0354574 -0.003026 0.0942565)
(0.0197035 0.0150266 0.0505854)
(-0.00999373 -0.0406261 0.0222414)
(-0.10019 0.0556454 0.0950957)
(-0.0514704 -0.016477 -0.0698711)
(-0.10555 -0.0499024 0.082468)
(-0.0894006 -0.0827576 -0.0632927)
(-0.19167 -0.0574345 -0.0704129)
(-0.135552 0.0426427 0.00859801)
(-0.180449 -0.0950934 -0.0190843)
(0.000342851 0.00306082 -0.0571289)
(-0.0409517 -0.126903 0.0236179)
(0.00014063 -0.101879 0.0192512)
(-0.0536787 0.0577141 0.0763587)
(-0.105593 -0.00246404 -0.00122472)
(0.0297621 0.0915931 0.0614815)
(-0.118267 0.00945254 -0.0184048)
(-0.109433 0.0329074 -0.0597651)
(-0.0214757 -0.0613217 0.0309262)
(0.040494 -0.004255 -0.0331328)
(-0.10613 0.10307 -0.0560849)
(-0.137834 0.115745 0.0118332)
(-0.0742984 0.104501 0.078503)
(-0.0876805 0.080853 0.089226)
(-0.040481 0.0719678 -0.0240495)
(-0.119617 0.0660521 0.0808986)
(-0.0877864 0.0139066 -0.0792558)
(-0.0974175 0.0233801 -0.0602214)
(-0.206755 -0.0529452 0.0617809)
(-0.017165 -0.0802497 -0.0186896)
(-0.0662837 -0.0317278 0.0741205)
(0.0125578 -0.12514 -0.0594537)
(0.0562788 0.0119395 -0.0745373)
(-0.0487366 -0.025318 -0.074353)
(0.0199597 0.10693 0.056789)
(-0.102317 0.0354899 0.0477793)
(0.0493565 0.0736979 -0.0606385)
(-0.0412476 0.0815437 -0.0892772)
(-0.0164765 0.00446301 -0.0912036)
(-0.0961268 0.129575 -0.00665653)
(-0.0207687 0.0381863 0.0926114)
(0.00228457 0.108536 0.0437129)
(-0.0497636 0.0756111 0.0898214)
(-0.186596 0.0450052 -0.0621458)
(-0.0870543 0.0792332 0.0863376)
(-0.0502502 -0.0447519 0.031217)
(-0.131706 0.0825389 -0.0103555)
(-0.181994 0.00462307 -0.0593523)
(-0.0934489 -0.109953 0.0916898)
(-0.0498259 -0.174598 0.0394386)
(-0.0845486 -0.202096 0.0664321)
(-0.0689942 -0.180812 -0.0773226)
(0.0506624 -0.000704634 -0.0512589)
(0.029632 0.106232 -0.0542116)
(0.0854207 0.00490713 0.0200098)
(-0.0749933 0.0854794 -0.0631754)
(0.0619266 -0.017286 0.00218348)
(0.0167989 0.00992641 0.0839113)
(-0.0800123 0.131771 -0.028475)
(0.0493625 0.0163214 0.0245913)
(-0.00501719 0.152546 -0.0151481)
(-0.0589245 0.0492377 0.0962014)
(-0.0449913 0.145074 0.0675587)
(0.000540047 0.0663956 0.0384858)
(-0.141807 -0.0390411 -0.0237666)
(-0.00890863 -0.0189014 -0.0387568)
(-0.145512 0.000925357 0.0811638)
(-0.0730568 -0.0639876 0.0978469)
(-0.0308992 -0.161351 -0.000748011)
(-0.0473725 -0.200141 0.0103098)
(-0.0523312 -0.0891441 0.0770523)
(-0.00258567 -0.182513 -0.0703625)
(0.0453858 -0.0588586 -0.04939)
(0.0564138 0.0797294 0.066445)
(0.0591334 -0.0201884 0.0452572)
(-0.0057132 0.100389 -0.0825285)
(0.0250238 -0.013281 0.0685098)
(-0.0769607 -0.0137147 -0.0498725)
(-0.000325311 0.106 -0.0831947)
(-0.0382602 -0.0261075 -0.0426004)
(-0.0260519 -0.016213 -0.0362688)
(-0.0729948 0.0876021 0.0971622)
(0.0134008 0.0267686 0.0274835)
(-0.0219357 0.10707 0.0848555)
(-0.0530041 -0.0147998 -0.0773699)
(-0.137596 0.0322149 0.0635143)
(-0.0810696 0.0230309 -0.0862913)
(-0.105708 -0.133463 -0.0292302)
(0.0268897 -0.139113 -0.00160806)
(-0.122529 -0.131179 0.0659887)
(-0.0837072 -0.0435779 0.00596221)
(-0.139477 -0.213523 0.0455266)
(-0.0972336 -0.0858595 -0.0356733)
(-0.072272 0.103697 0.0210946)
(0.0579142 0.102876 0.0517247)
(-0.07377 0.0668247 0.0727622)
(0.0578621 0.0501665 -0.0724991)
(-0.0670483 0.0921455 -0.0768473)
(0.0154742 -0.00801442 0.0636301)
(0.0515563 0.0620114 -0.0676869)
(-0.042707 -0.0134239 -0.0227766)
(-0.0640596 0.0833717 -0.0932319)
(0.0382288 0.16357 -0.0157232)
(-0.0303564 0.144708 0.0750669)
(-0.0860955 0.132897 0.00047712)
(-0.102223 0.00098014 -0.0722462)
(-0.0162792 0.0583878 -0.0501178)
(0.0464305 -0.102925 -0.046424)
(-0.0855235 -0.0132277 0.044752)
(-0.00471184 -0.176274 0.0634209)
(0.0670281 -0.138524 0.0112557)
(-0.0815244 -0.136634 -0.0767306)
(0.00537031 -0.141529 0.0786334)
(-0.0205119 0.0816484 0.0881109)
(-0.0608452 0.128278 0.00594933)
(0.0830159 0.00846363 -0.0224676)
(-0.0502427 -0.0135827 -0.0591777)
(-0.034324 0.154165 0.0128667)
(0.0118343 0.148596 0.0489324)
(0.06348 0.031559 -0.0532965)
(-0.0953125 0.0503597 0.0408321)
(0.0320374 0.163358 -0.0591164)
(-0.0729213 0.152526 -0.0467164)
(-0.0705244 0.0548922 -0.070585)
(0.0616041 0.00840438 0.065573)
(0.0541425 -0.0674249 -0.0263591)
(-0.0603425 -0.0539443 0.077807)
(0.00529818 -0.0154563 0.0898704)
(-0.0180487 -0.0376823 -0.0890238)
(0.0674127 -0.164358 0.0158541)
(-0.10996 -0.140959 0.0226038)
(0.0606387 -0.232746 -0.0210883)
(-0.00282476 -0.314661 -0.0338405)
(0.0380145 -0.0525898 0.00429423)
(-0.0610822 0.0758991 -0.0750695)
(0.070317 0.00727806 0.052832)
(-0.0521973 0.10759 -0.0691305)
(-0.00690417 0.0266783 -0.0944764)
(0.0712938 0.0319059 0.060026)
(0.0636643 -0.0018316 -0.0243413)
(0.030884 0.0273163 0.0802653)
(0.0587864 0.170229 0.030501)
(-0.0251618 0.0274143 0.0663228)
(-0.0452583 0.145843 -0.0213801)
(0.0433328 -0.0304482 0.0589494)
(0.113542 0.0622116 0.014906)
(-0.0302032 0.00788955 -0.0773949)
(-0.0350442 -0.0415062 -0.0824286)
(-0.0163522 -0.0103579 -0.0681591)
(-0.0235747 -0.0802443 -0.0939453)
(0.0871958 -0.107144 -0.0452482)
(-0.0626771 -0.113422 -0.0611532)
(0.0451101 -0.245346 0.0810751)
(0.0780035 0.0183996 -0.0595877)
(0.0464957 -0.0398804 0.00359207)
(-0.0596141 -0.0268299 0.008103)
(-0.00152119 0.138104 -0.0555153)
(0.0330619 0.0927701 -0.088843)
(-0.0633949 0.0958265 -0.064583)
(-0.0313941 0.127114 0.0694494)
(-0.0553568 0.0177133 0.0445608)
(-0.0164274 0.0853872 0.0917521)
(-0.0361808 0.0935142 -0.0703025)
(0.0356873 0.0152823 0.0840433)
(0.135365 0.00388717 0.0298106)
(0.103013 0.0816805 -0.0549779)
(0.0279208 0.0424354 0.077889)
(0.0374803 -0.110634 -0.076343)
(0.0882256 -0.0390836 0.07497)
(0.0434907 -0.00165295 0.0456919)
(0.0165503 -0.0120238 0.0170807)
(0.0801335 -0.190506 -0.0496963)
(0.0132213 -0.298818 -0.0813293)
(-0.0759427 -0.0190772 0.0275923)
(0.0724017 0.0824465 0.0622268)
(0.00685402 0.141532 -0.0429611)
(-0.0610196 -0.019613 -0.0175027)
(0.0759991 0.0936615 -0.0621327)
(0.0214164 0.153377 0.0300375)
(0.101611 0.051631 -0.0498543)
(-0.0360676 -0.0146499 0.0107543)
(-0.00141912 0.022841 -0.0823729)
(0.00946802 0.0567864 -0.0936338)
(0.118877 0.0312986 0.0706773)
(0.0852307 -0.0538449 0.0214179)
(0.109 0.0411023 0.085855)
(0.0317115 0.0724003 0.0471559)
(0.120116 -0.105189 -0.0224779)
(0.0849475 0.000856722 0.0673623)
(0.0534474 -0.0656811 0.0958524)
(-0.0698863 -0.0452449 0.0161895)
(0.0872648 -0.10463 -0.0172915)
(0.0345193 -0.333707 -0.0343705)
(-0.0492463 0.0923558 -0.0663022)
(-0.0445223 0.076783 -0.082723)
(0.0778977 0.117303 -0.00780053)
(0.0754227 0.121903 -0.0185856)
(-0.00374926 -0.0160188 -0.0715098)
(-0.0614882 0.0574346 -0.0641425)
(0.0869734 0.0584574 0.0747606)
(-0.0632623 0.0660614 0.0409564)
(0.112277 0.112155 0.0370226)
(0.138881 0.0869622 0.0244564)
(0.0896837 0.142798 0.0109224)
(0.0749853 0.0456388 0.0989025)
(-0.0193329 0.0630124 0.0177907)
(0.139849 -0.00789206 0.0655163)
(0.0643411 0.0687374 -0.0320773)
(0.11406 -0.0930332 0.0526232)
(0.043056 0.0247702 -0.0481611)
(0.0932377 -0.0379517 0.0446345)
(0.0720878 -0.170175 0.06673)
(-0.0761664 -0.238543 -0.0745416)
(0.0681439 -0.0385455 -0.0111575)
(-0.049298 -0.00626681 0.0686104)
(0.0875761 0.0753753 0.0497892)
(-0.0278256 0.115091 0.0637236)
(0.0791598 0.113941 -0.0362495)
(0.0611601 -0.0125458 0.0662407)
(-0.0116918 -0.0299836 -0.049069)
(0.00316158 0.0791489 0.0914402)
(0.00111786 0.101799 0.0760271)
(0.0216317 0.131094 0.0461292)
(0.116559 -0.014766 0.0583342)
(0.0116578 -0.0122747 -0.0742719)
(0.130748 0.0622534 -0.0608991)
(0.100842 0.0633256 -0.0682897)
(-0.0251964 0.0403213 -0.00713378)
(0.122384 -0.0533532 0.0616343)
(0.0613988 -0.0664952 -0.0944004)
(-0.0674522 -0.0864176 -0.0476723)
(-0.0677953 -0.0727099 0.0414724)
(-0.00388039 -0.356647 -0.00847581)
(0.0318388 0.122747 0.0328597)
(0.0448702 0.113477 -0.055741)
(-0.0149769 0.0125106 0.0928273)
(-0.0481079 0.0933992 0.0646909)
(0.108313 0.0701874 0.0207332)
(-0.0684287 0.0641388 0.0420591)
(0.0150327 -0.0563168 0.00587075)
(0.0978621 0.0626184 -0.07357)
(0.0229099 -0.0552141 -0.0201272)
(0.1206 -0.00377955 -0.0553473)
(0.00427408 -0.0461018 0.0314698)
(-0.00338589 -0.0456346 0.0253558)
(0.0108691 0.0262504 0.0840728)
(0.0783373 0.0854537 0.0564531)
(0.0169929 0.0831477 0.00572339)
(0.0803427 0.00609525 -0.0905495)
(0.0276355 0.0352986 -0.0703378)
(0.0674195 -0.0738186 -0.0877276)
(-0.00208489 -0.0876701 0.096649)
(0.0235392 -0.279182 -0.0916641)
(0.0578717 -0.0136713 -0.0687419)
(0.0893575 0.074204 -0.0241639)
(-0.0485864 -0.0466174 -0.0110481)
(-0.0637992 0.032322 -0.069118)
(-0.0346615 -0.0457605 -0.027076)
(-0.0269328 0.00606559 0.0827316)
(0.0508457 0.13154 0.0176644)
(0.0899546 -0.00674352 -0.0718684)
(0.119603 0.079274 0.0436451)
(0.126803 0.00548512 0.057903)
(0.100493 -0.0460248 0.0510965)
(0.103162 -0.0558658 -0.0461214)
(0.0486844 0.114281 -0.00310715)
(-0.0120421 0.0731829 0.000373853)
(-0.0141406 0.0650453 0.0145446)
(0.108347 0.0307972 0.0701443)
(0.0293273 -0.112225 -0.0450248)
(0.0144925 -0.0873615 0.0898661)
(-0.0243609 -0.0346307 -0.0674632)
(-0.0289664 -0.36111 0.0218948)
(0.0185582 0.134966 -0.0362429)
(0.0805696 0.0236568 0.0497981)
(0.0476189 -0.0253559 -0.057826)
(0.0658412 -0.0426808 -0.0102219)
(0.0980128 0.067404 -0.0408544)
(-0.0232494 -0.0288784 -0.0665135)
(-0.00520998 0.0714728 0.0847338)
(0.116772 -0.0263939 0.0223397)
(-0.00752967 0.108192 0.0264579)
(0.101961 0.0614162 -0.0789346)
(0.129183 -0.00792075 -0.0650797)
(0.113544 0.0944961 -0.0443317)
(0.122707 -0.0681908 0.0127719)
(-0.00134169 -0.0522285 -0.0337328)
(0.0454615 -0.0155469 0.0956621)
(-0.00549616 -0.060454 -0.046893)
(-0.0343418 -0.0587002 -0.0304008)
(0.060948 0.0174532 -0.0828654)
(0.0790827 -0.15351 0.0279268)
(-0.0693162 -0.327459 -0.0291251)
(-0.0492524 -0.0515231 0.0609739)
(-0.0321756 -0.0396337 0.0842212)
(0.0334736 -0.0253843 -0.0869614)
(0.0842965 0.0247424 -0.067932)
(0.0383912 -0.0379367 -0.0828431)
(0.0484834 -0.0291629 -0.08821)
(-0.0450116 -0.0266821 -0.00636465)
(0.0569251 0.0479353 -0.0944625)
(0.0393757 0.0885598 -0.0618363)
(0.140729 0.0858896 0.0252689)
(0.0606461 -0.053009 0.0710624)
(0.0979887 0.0797642 0.073151)
(0.0853818 0.0537375 0.0890921)
(0.122365 -0.00966634 0.0964014)
(0.188842 -0.0269085 -0.0423493)
(0.170997 -0.0426945 0.0611307)
(0.0638541 0.0684484 0.0615907)
(0.175426 -0.075055 0.0476604)
(-0.0584751 -0.0355464 0.0468934)
(0.10242 -0.165915 -0.0738433)
(0.0819563 0.145109 0.0746004)
(-0.00255711 0.0122538 -0.0514017)
(0.0212412 0.0222496 -0.0725404)
(0.173337 0.00154459 -0.0712521)
(0.111324 -0.0419391 0.0759319)
(0.217274 0.0815207 0.00630887)
(0.103977 -0.0502242 -0.0572481)
(0.143689 0.0740182 -0.0745208)
(0.10018 0.0356569 0.0545303)
(0.103743 -0.0284476 0.0298635)
(0.171396 -0.0720753 -0.0513068)
(0.249596 0.0837936 0.0519923)
(0.185285 -0.0553271 -0.0704514)
(0.172157 -0.0191653 0.0794284)
(0.272535 0.00862031 -0.0916547)
(0.264582 0.0799148 -0.0587342)
(0.181199 0.0523375 -0.0706607)
(0.348915 0.0207571 -0.000365736)
(0.191524 -0.0277253 0.0680984)
(0.31545 -0.17531 -0.0096982)
)
;

boundaryField
{
    movingWall
    {
        type            fixedValue;
        value           uniform (1 0 0);
    }
    fixedWalls
    {
        type            noSlip;
    }
    frontAndBack
    {
        type            empty;
    }
}


// ************************************************************************* //
