/*--------------------------------*- C++ -*----------------------------------*\
| =========                 |                                                 |
| \\      /  F ield         | OpenFOAM: The Open Source CFD Toolbox           |
|  \\    /   O peration     | Version:  2312                                  |
|   \\  /    A nd           | Website:  www.openfoam.com                      |
|    \\/     M anipulation  |                                                 |
\*---------------------------------------------------------------------------*/
FoamFile
{
    version     2.0;
    format      ascii;
    arch        "LSB;label=32;scalar=64";
    class       volScalarField;
    location    "1.875";
    object      Ux;
}
// * * * * * * * * * * * * * * * * * * * * * * * * * * * * * * * * * * * * * //

dimensions      [0 1 -1 0 0 0 0];

internalField   nonuniform List<scalar> 
400
(
-0.000308805
-0.00239724
-0.00627579
-0.0107953
-0.0157308
-0.0211084
-0.0269361
-0.0330059
-0.0389263
-0.0442372
-0.0483853
-0.0505231
-0.0497176
-0.045195
-0.0370761
-0.0263533
-0.0149989
-0.00525697
0.000102147
0.00087352
-0.00131676
-0.00538797
-0.0110294
-0.0174946
-0.0244862
-0.0317754
-0.0389962
-0.0457835
-0.0520683
-0.0579343
-0.0631315
-0.0668185
-0.067679
-0.0642032
-0.0556201
-0.0425787
-0.0269403
-0.0119015
-0.00194826
0.000576742
-0.00232676
-0.00751229
-0.0136652
-0.0206393
-0.028175
-0.0359414
-0.043541
-0.0509425
-0.0587572
-0.0676382
-0.077446
-0.0866932
-0.0928744
-0.0934424
-0.0864928
-0.0720451
-0.0510105
-0.0265209
-0.00510217
0.00100104
-0.00288077
-0.00870168
-0.0150398
-0.0220266
-0.0295299
-0.0373516
-0.0454365
-0.0544826
-0.065944
-0.0808952
-0.0983033
-0.114493
-0.125169
-0.128441
-0.12385
-0.110466
-0.0878065
-0.0563188
-0.0200274
0.00111448
-0.00302858
-0.0090327
-0.0152736
-0.0220105
-0.0292749
-0.0370897
-0.0458957
-0.0571006
-0.0723859
-0.0919737
-0.112404
-0.128607
-0.137714
-0.140438
-0.13813
-0.130498
-0.114697
-0.0866651
-0.0465442
-0.00404846
-0.00286858
-0.00863499
-0.0144982
-0.020732
-0.02752
-0.0351054
-0.044166
-0.0563636
-0.072969
-0.092321
-0.109603
-0.120549
-0.1247
-0.123812
-0.120982
-0.118457
-0.113754
-0.0989193
-0.0663707
-0.0202044
-0.00248435
-0.00766104
-0.0128708
-0.0183338
-0.024318
-0.0311595
-0.0394627
-0.0505819
-0.0649141
-0.0801021
-0.0916544
-0.096342
-0.0946705
-0.0901541
-0.0861385
-0.0845287
-0.0864431
-0.0860745
-0.0697636
-0.0312393
-0.00194155
-0.00625179
-0.0105644
-0.014998
-0.0198117
-0.0252677
-0.0316675
-0.0396868
-0.0493421
-0.0588319
-0.0650029
-0.0660184
-0.0631932
-0.0593695
-0.0551214
-0.051813
-0.0526648
-0.0584687
-0.056701
-0.0316339
-0.00130392
-0.00455445
-0.00778812
-0.0109982
-0.0143331
-0.0178916
-0.0216177
-0.0255143
-0.029393
-0.0326295
-0.0348016
-0.0346479
-0.0335765
-0.0320714
-0.0295348
-0.02736
-0.0268839
-0.0321486
-0.037358
-0.025208
-0.00063532
-0.00271774
-0.00476921
-0.00665059
-0.00835556
-0.00981057
-0.0107032
-0.0103124
-0.00875844
-0.00614864
-0.00393751
-0.00271646
-0.00296859
-0.00373162
-0.00427354
-0.00610619
-0.00830448
-0.0136614
-0.0208748
-0.0174916
-9.29275e-07
-0.000903272
-0.00175685
-0.00231445
-0.00242902
-0.00188818
-0.000303845
0.0034499
0.00937294
0.0171513
0.0234598
0.0271683
0.0275492
0.0250066
0.0201157
0.0133205
0.00688415
-0.00107317
-0.00945212
-0.0128362
0.000561594
0.00072132
0.000996723
0.00165404
0.00293561
0.00511668
0.00859606
0.0143935
0.0229427
0.0335453
0.0433077
0.0498466
0.0515585
0.0484493
0.0398727
0.0290024
0.0187573
0.00775858
-0.00237141
-0.0109809
0.000917998
0.00201058
0.00328187
0.00499177
0.00742033
0.0108227
0.015545
0.0222603
0.0315778
0.0428265
0.0537094
0.0616015
0.0641466
0.0607389
0.0515163
0.0391042
0.0266356
0.0134497
0.00157074
-0.0108722
0.0010908
0.00285793
0.0049389
0.00752901
0.0108741
0.0151546
0.0206086
0.0275791
0.0364666
0.0468918
0.0571159
0.0646177
0.0672642
0.0643606
0.0560296
0.0441334
0.03112
0.0167256
0.00359304
-0.0116088
0.00101797
0.00307357
0.00577109
0.00909962
0.0132031
0.0181561
0.0240721
0.0310639
0.0392211
0.0482209
0.056942
0.0634491
0.0660769
0.0638767
0.0569267
0.0464161
0.0337924
0.0189151
0.00574432
-0.0122496
0.000379084
0.00251866
0.00562064
0.00951874
0.0142663
0.0198213
0.0261638
0.0332269
0.0408769
0.0487319
0.0560471
0.0615888
0.0640607
0.0626507
0.0571005
0.0482026
0.0359804
0.0224868
0.0109265
-0.0115031
-0.00088148
-7.23942e-05
0.00351092
0.00825259
0.0138188
0.0201206
0.0270466
0.034431
0.0420394
0.0494664
0.0561314
0.0612319
0.0639575
0.063311
0.0588897
0.0514097
0.0391993
0.0314837
0.0188724
-0.00788744
-0.00330686
-0.00315817
0.00137893
0.00673834
0.0130206
0.0202285
0.0280972
0.0363133
0.0445711
0.0524938
0.0595783
0.0652068
0.0685449
0.0692524
0.0665
0.0612929
0.0490733
0.0519478
0.0226672
0.00528003
-0.00653385
-0.00985227
0.000261248
0.011581
0.0229724
0.0343938
0.0454551
0.056101
0.066283
0.0758817
0.0846381
0.092241
0.0982493
0.102596
0.104304
0.105369
0.0952444
0.105955
0.0296163
0.0713805
0.0404803
0.061098
0.086641
0.108787
0.126267
0.141199
0.154966
0.16792
0.180084
0.191482
0.202069
0.211743
0.220273
0.227624
0.232731
0.237987
0.230987
0.251806
0.125286
0.378312
)
;

boundaryField
{
    movingWall
    {
        type            calculated;
        value           uniform 1;
    }
    fixedWalls
    {
        type            calculated;
        value           uniform 0;
    }
    frontAndBack
    {
        type            empty;
    }
}


// ************************************************************************* //
