/*--------------------------------*- C++ -*----------------------------------*\
| =========                 |                                                 |
| \\      /  F ield         | OpenFOAM: The Open Source CFD Toolbox           |
|  \\    /   O peration     | Version:  2312                                  |
|   \\  /    A nd           | Website:  www.openfoam.com                      |
|    \\/     M anipulation  |                                                 |
\*---------------------------------------------------------------------------*/
FoamFile
{
    version     2.0;
    format      ascii;
    arch        "LSB;label=32;scalar=64";
    class       volScalarField;
    location    "1.875";
    object      Uy;
}
// * * * * * * * * * * * * * * * * * * * * * * * * * * * * * * * * * * * * * //

dimensions      [0 1 -1 0 0 0 0];

internalField   nonuniform List<scalar> 
400
(
0.000278428
0.00113102
0.00168765
0.00193291
0.00214581
0.00246263
0.00284075
0.00310782
0.00309112
0.00269665
0.00188181
0.000627125
-0.00113776
-0.00318055
-0.00499895
-0.00588719
-0.00535483
-0.00342783
-0.0011162
0.000605823
0.00249271
0.00540632
0.00708478
0.00792574
0.00855488
0.00910834
0.00935414
0.00909814
0.00835015
0.00705239
0.00484881
0.00134461
-0.00350828
-0.00918448
-0.0142921
-0.0173198
-0.0167099
-0.0117692
-0.00492816
0.000403891
0.00675008
0.0110292
0.013543
0.015075
0.0161255
0.0166903
0.0165714
0.0158951
0.0149473
0.0135657
0.0109427
0.00593133
-0.0021906
-0.0127895
-0.0240231
-0.0324395
-0.0341909
-0.0270908
-0.0126197
-0.000326167
0.0119699
0.0171332
0.0201749
0.0222607
0.0237044
0.0243948
0.0243729
0.0244286
0.0253036
0.0262941
0.0247708
0.017378
0.00314614
-0.0159006
-0.0364014
-0.0537771
-0.0626401
-0.0563171
-0.032012
-0.00375461
0.0176652
0.023508
0.0268489
0.0293513
0.0312349
0.0324854
0.0336796
0.036357
0.0410694
0.0451302
0.043071
0.0312815
0.0101241
-0.0168555
-0.045292
-0.0721307
-0.092002
-0.0956868
-0.0706224
-0.0164299
0.0233416
0.0297461
0.0332628
0.0361403
0.0386353
0.0409989
0.0443947
0.0506817
0.0592812
0.0646115
0.0594954
0.0414981
0.0142624
-0.0166097
-0.0478641
-0.0788466
-0.108584
-0.128746
-0.117453
-0.0491858
0.0285812
0.0354915
0.0391149
0.0423252
0.0455395
0.0492932
0.0551205
0.0648282
0.0758723
0.0802428
0.0707583
0.0467965
0.0149039
-0.0177264
-0.0480238
-0.0769517
-0.108669
-0.143221
-0.159356
-0.0999588
0.0330419
0.0404463
0.0441262
0.047585
0.0514522
0.0564369
0.0641241
0.0759752
0.0878493
0.090228
0.0763329
0.0472045
0.0114742
-0.022608
-0.0523053
-0.0774419
-0.103529
-0.140157
-0.180729
-0.152373
0.0364769
0.0443767
0.0480615
0.0516249
0.0558742
0.0615408
0.0700136
0.0824179
0.0936693
0.0947817
0.0787895
0.0471483
0.00923832
-0.0266935
-0.0573825
-0.081156
-0.102205
-0.132418
-0.183128
-0.195211
0.038737
0.0471252
0.0507601
0.0542238
0.0584566
0.0641149
0.0722572
0.0836422
0.0937813
0.0945696
0.079057
0.0479398
0.0103151
-0.026718
-0.0582547
-0.0816385
-0.100989
-0.126277
-0.178794
-0.221711
0.0398027
0.0486398
0.0521572
0.0553147
0.0591464
0.0641746
0.0710764
0.0802772
0.0888163
0.0891467
0.0764118
0.0486952
0.0133948
-0.0231251
-0.0542696
-0.0772449
-0.0959459
-0.11984
-0.171966
-0.237036
0.0396613
0.0489554
0.0522945
0.0549894
0.0581387
0.0621338
0.067301
0.0738313
0.0797705
0.0795202
0.0689354
0.0462882
0.0158789
-0.0168257
-0.0460894
-0.0686153
-0.087096
-0.110161
-0.163613
-0.245905
0.0386386
0.0481987
0.0513017
0.053436
0.0557605
0.0585846
0.0619846
0.0658622
0.0689487
0.0677373
0.058829
0.0409334
0.0162605
-0.0108687
-0.0359875
-0.057115
-0.0753477
-0.0980939
-0.153184
-0.251498
0.0369464
0.0465835
0.0493611
0.0508751
0.0523369
0.0540255
0.0558947
0.0576696
0.0584696
0.0563045
0.0488826
0.0351118
0.0162744
-0.00486658
-0.0256128
-0.0446482
-0.0620517
-0.0843592
-0.140925
-0.255152
0.0347321
0.044229
0.0465835
0.0474463
0.0480946
0.048796
0.049472
0.0498207
0.0491874
0.0464475
0.0403963
0.0301676
0.0163305
0.000316874
-0.0162905
-0.032613
-0.0484272
-0.0700453
-0.126301
-0.257359
0.0336939
0.0420676
0.0434758
0.0434566
0.0432567
0.043092
0.0428882
0.0423762
0.0410776
0.0383111
0.0334545
0.026027
0.0161301
0.00441685
-0.00827779
-0.0216141
-0.0352915
-0.0569393
-0.109799
-0.259954
0.0290208
0.0365423
0.0380219
0.0379112
0.0374054
0.0367489
0.0360331
0.035114
0.033678
0.0312975
0.027604
0.0223304
0.0155026
0.00744273
-0.00170067
-0.0120732
-0.023482
-0.0469216
-0.0944604
-0.26584
0.0443655
0.0462357
0.0418603
0.0373339
0.0341288
0.0318311
0.0301109
0.0286268
0.0270408
0.0250521
0.0224077
0.0190098
0.0148955
0.0100496
0.00460614
-0.00265906
-0.0126815
-0.0377947
-0.0758099
-0.267566
0.01524
0.00944228
0.0111486
0.0148577
0.0159082
0.0157869
0.0154519
0.0151305
0.0147203
0.0140822
0.0131312
0.0118238
0.0101827
0.00810824
0.00564685
0.00153253
-0.00380967
-0.0211829
-0.0419438
-0.225779
0.0930078
0.0697506
0.0437149
0.0290478
0.0213937
0.0169239
0.0139841
0.0118931
0.0103221
0.00910212
0.00809184
0.00721711
0.00641737
0.00562385
0.00473643
0.00347531
0.00205531
-0.0031084
0.00350141
-0.0981456
)
;

boundaryField
{
    movingWall
    {
        type            calculated;
        value           uniform 0;
    }
    fixedWalls
    {
        type            calculated;
        value           uniform 0;
    }
    frontAndBack
    {
        type            empty;
    }
}


// ************************************************************************* //
