/*--------------------------------*- C++ -*----------------------------------*\
| =========                 |                                                 |
| \\      /  F ield         | OpenFOAM: The Open Source CFD Toolbox           |
|  \\    /   O peration     | Version:  2312                                  |
|   \\  /    A nd           | Website:  www.openfoam.com                      |
|    \\/     M anipulation  |                                                 |
\*---------------------------------------------------------------------------*/
FoamFile
{
    version     2.0;
    format      ascii;
    arch        "LSB;label=32;scalar=64";
    class       volVectorField;
    location    "1.875";
    object      vorticityField;
}
// * * * * * * * * * * * * * * * * * * * * * * * * * * * * * * * * * * * * * //

dimensions      [0 0 -1 0 0 0 0];

internalField   nonuniform List<vector> 
400
(
(0 -0 0.303502)
(0 -0 0.919443)
(0 -0 1.81071)
(0 -0 2.87481)
(0 -0 4.07467)
(0 -0 5.35788)
(0 -0 6.65776)
(0 -0 7.90397)
(0 -0 9.05834)
(0 -0 10.0962)
(0 -0 10.9447)
(0 -0 11.4322)
(0 -0 11.3589)
(0 -0 10.5537)
(0 -0 8.99895)
(0 -0 6.85761)
(0 -0 4.43986)
(0 -0 2.13971)
(0 -0 0.587977)
(0 -0 -0.0939881)
(0 -0 0.991698)
(0 -0 0.970713)
(0 -0 0.990885)
(0 -0 1.13141)
(0 -0 1.36268)
(0 -0 1.56322)
(0 -0 1.65946)
(0 -0 1.69326)
(0 -0 1.77851)
(0 -0 1.98997)
(0 -0 2.3353)
(0 -0 2.78129)
(0 -0 3.26277)
(0 -0 3.74635)
(0 -0 4.12813)
(0 -0 4.32741)
(0 -0 4.15622)
(0 -0 3.30456)
(0 -0 1.73774)
(0 -0 0.439675)
(0 -0 1.93433)
(0 -0 1.01066)
(0 -0 0.805619)
(0 -0 0.711454)
(0 -0 0.665896)
(0 -0 0.602213)
(0 -0 0.564509)
(0 -0 0.707509)
(0 -0 1.15464)
(0 -0 1.89562)
(0 -0 2.75375)
(0 -0 3.45413)
(0 -0 3.8769)
(0 -0 4.24056)
(0 -0 4.85798)
(0 -0 5.77198)
(0 -0 6.62148)
(0 -0 6.59885)
(0 -0 4.48438)
(0 -0 1.24081)
(0 -0 2.98049)
(0 -0 0.972549)
(0 -0 0.673587)
(0 -0 0.490057)
(0 -0 0.323393)
(0 -0 0.181691)
(0 -0 0.238853)
(0 -0 0.708882)
(0 -0 1.54942)
(0 -0 2.38026)
(0 -0 2.60418)
(0 -0 2.02896)
(0 -0 1.15608)
(0 -0 0.744838)
(0 -0 1.37609)
(0 -0 3.22146)
(0 -0 6.11469)
(0 -0 9.07723)
(0 -0 9.40046)
(0 -0 4.08162)
(0 -0 4.1161)
(0 -0 0.911699)
(0 -0 0.530172)
(0 -0 0.309138)
(0 -0 0.112427)
(0 -0 0.0198515)
(0 -0 0.260101)
(0 -0 0.927076)
(0 -0 1.57982)
(0 -0 1.34275)
(0 -0 -0.254867)
(0 -0 -2.68913)
(0 -0 -4.86056)
(0 -0 -6.00454)
(0 -0 -5.81429)
(0 -0 -3.87193)
(0 -0 0.239165)
(0 -0 6.39801)
(0 -0 12.56)
(0 -0 10.8371)
(0 -0 5.25435)
(0 -0 0.854945)
(0 -0 0.399151)
(0 -0 0.169586)
(0 -0 -0.00982767)
(0 -0 -0.0170828)
(0 -0 0.324976)
(0 -0 0.836789)
(0 -0 0.645811)
(0 -0 -1.16574)
(0 -0 -4.3863)
(0 -0 -7.74984)
(0 -0 -10.1151)
(0 -0 -11.2411)
(0 -0 -11.4229)
(0 -0 -10.669)
(0 -0 -7.81533)
(0 -0 -0.945954)
(0 -0 10.2779)
(0 -0 19.383)
(0 -0 6.31456)
(0 -0 0.815052)
(0 -0 0.290004)
(0 -0 0.0690584)
(0 -0 -0.0740333)
(0 -0 -0.0256712)
(0 -0 0.303658)
(0 -0 0.407506)
(0 -0 -0.821233)
(0 -0 -3.86033)
(0 -0 -7.80467)
(0 -0 -11.0385)
(0 -0 -12.603)
(0 -0 -12.737)
(0 -0 -12.5086)
(0 -0 -12.7289)
(0 -0 -12.7359)
(0 -0 -9.11377)
(0 -0 3.35928)
(0 -0 27.0744)
(0 -0 7.23077)
(0 -0 0.797775)
(0 -0 0.205599)
(0 -0 -0.000960673)
(0 -0 -0.113296)
(0 -0 -0.0595975)
(0 -0 0.16933)
(0 -0 -0.13424)
(0 -0 -2.12683)
(0 -0 -5.8989)
(0 -0 -9.98762)
(0 -0 -12.6553)
(0 -0 -13.0907)
(0 -0 -12.1862)
(0 -0 -11.1438)
(0 -0 -10.8393)
(0 -0 -12.2274)
(0 -0 -13.1126)
(0 -0 -4.46222)
(0 -0 32.7071)
(0 -0 7.95474)
(0 -0 0.805057)
(0 -0 0.145299)
(0 -0 -0.0534726)
(0 -0 -0.154025)
(0 -0 -0.131771)
(0 -0 -0.00873191)
(0 -0 -0.571871)
(0 -0 -2.82198)
(0 -0 -6.7563)
(0 -0 -10.8699)
(0 -0 -13.2853)
(0 -0 -13.4066)
(0 -0 -12.2259)
(0 -0 -10.531)
(0 -0 -9.05296)
(0 -0 -9.56227)
(0 -0 -12.573)
(0 -0 -9.86185)
(0 -0 36.4197)
(0 -0 8.45591)
(0 -0 0.837192)
(0 -0 0.106737)
(0 -0 -0.0987215)
(0 -0 -0.201294)
(0 -0 -0.22029)
(0 -0 -0.17866)
(0 -0 -0.744009)
(0 -0 -2.78386)
(0 -0 -6.4505)
(0 -0 -10.4891)
(0 -0 -13.0558)
(0 -0 -13.5783)
(0 -0 -12.5648)
(0 -0 -10.4571)
(0 -0 -8.34153)
(0 -0 -7.84069)
(0 -0 -10.888)
(0 -0 -12.3339)
(0 -0 38.8132)
(0 -0 8.72456)
(0 -0 0.891535)
(0 -0 0.090899)
(0 -0 -0.131536)
(0 -0 -0.243127)
(0 -0 -0.29973)
(0 -0 -0.319663)
(0 -0 -0.696597)
(0 -0 -2.28317)
(0 -0 -5.20985)
(0 -0 -8.76967)
(0 -0 -11.558)
(0 -0 -12.6347)
(0 -0 -11.9845)
(0 -0 -9.8266)
(0 -0 -7.6785)
(0 -0 -6.96567)
(0 -0 -9.744)
(0 -0 -13.5699)
(0 -0 40.2491)
(0 -0 8.76978)
(0 -0 0.971935)
(0 -0 0.0995215)
(0 -0 -0.146201)
(0 -0 -0.270498)
(0 -0 -0.354859)
(0 -0 -0.415131)
(0 -0 -0.634101)
(0 -0 -1.65159)
(0 -0 -3.65103)
(0 -0 -6.34815)
(0 -0 -8.74896)
(0 -0 -9.97114)
(0 -0 -9.77007)
(0 -0 -8.31902)
(0 -0 -6.67903)
(0 -0 -6.12974)
(0 -0 -9.10401)
(0 -0 -14.6767)
(0 -0 40.7554)
(0 -0 8.6308)
(0 -0 1.05265)
(0 -0 0.129517)
(0 -0 -0.141614)
(0 -0 -0.278983)
(0 -0 -0.381374)
(0 -0 -0.473497)
(0 -0 -0.622155)
(0 -0 -1.16489)
(0 -0 -2.3466)
(0 -0 -4.06121)
(0 -0 -5.73396)
(0 -0 -6.75077)
(0 -0 -6.81593)
(0 -0 -6.24032)
(0 -0 -5.44912)
(0 -0 -5.33417)
(0 -0 -8.68038)
(0 -0 -15.9369)
(0 -0 40.5311)
(0 -0 8.343)
(0 -0 1.13517)
(0 -0 0.180236)
(0 -0 -0.113208)
(0 -0 -0.263237)
(0 -0 -0.377552)
(0 -0 -0.488297)
(0 -0 -0.622876)
(0 -0 -0.900845)
(0 -0 -1.49814)
(0 -0 -2.44252)
(0 -0 -3.44558)
(0 -0 -4.19087)
(0 -0 -4.50249)
(0 -0 -4.5192)
(0 -0 -4.37508)
(0 -0 -4.68678)
(0 -0 -8.43382)
(0 -0 -17.4966)
(0 -0 39.7454)
(0 -0 7.96728)
(0 -0 1.21907)
(0 -0 0.253559)
(0 -0 -0.0478625)
(0 -0 -0.204248)
(0 -0 -0.328937)
(0 -0 -0.45305)
(0 -0 -0.593239)
(0 -0 -0.778351)
(0 -0 -1.06312)
(0 -0 -1.5211)
(0 -0 -2.10369)
(0 -0 -2.66473)
(0 -0 -3.09112)
(0 -0 -3.40008)
(0 -0 -3.62058)
(0 -0 -4.22926)
(0 -0 -8.36346)
(0 -0 -19.4648)
(0 -0 38.3554)
(0 -0 7.76609)
(0 -0 1.29279)
(0 -0 0.364914)
(0 -0 0.062798)
(0 -0 -0.098023)
(0 -0 -0.233312)
(0 -0 -0.369039)
(0 -0 -0.517765)
(0 -0 -0.688335)
(0 -0 -0.886856)
(0 -0 -1.14735)
(0 -0 -1.51072)
(0 -0 -1.94907)
(0 -0 -2.38422)
(0 -0 -2.7994)
(0 -0 -3.20072)
(0 -0 -4.07322)
(0 -0 -8.70759)
(0 -0 -21.6143)
(0 -0 36.539)
(0 -0 6.9249)
(0 -0 1.46779)
(0 -0 0.561057)
(0 -0 0.216391)
(0 -0 0.00833704)
(0 -0 -0.177936)
(0 -0 -0.356827)
(0 -0 -0.544156)
(0 -0 -0.75107)
(0 -0 -0.983579)
(0 -0 -1.24984)
(0 -0 -1.57195)
(0 -0 -1.93718)
(0 -0 -2.3805)
(0 -0 -2.89154)
(0 -0 -3.48717)
(0 -0 -4.79413)
(0 -0 -10.0439)
(0 -0 -23.0659)
(0 -0 34.3517)
(0 -0 9.62536)
(0 -0 0.727462)
(0 -0 -0.565212)
(0 -0 -1.10599)
(0 -0 -1.46565)
(0 -0 -1.8291)
(0 -0 -2.16127)
(0 -0 -2.47401)
(0 -0 -2.78183)
(0 -0 -3.10485)
(0 -0 -3.4549)
(0 -0 -3.85213)
(0 -0 -4.32519)
(0 -0 -4.9574)
(0 -0 -5.81232)
(0 -0 -7.12471)
(0 -0 -9.11807)
(0 -0 -13.76)
(0 -0 -24.0515)
(0 -0 26.4108)
(0 -0 -1.9105)
(0 -0 -6.83476)
(0 -0 -7.98467)
(0 -0 -9.7289)
(0 -0 -11.2317)
(0 -0 -12.1427)
(0 -0 -12.7526)
(0 -0 -13.2338)
(0 -0 -13.6561)
(0 -0 -14.0577)
(0 -0 -14.4749)
(0 -0 -14.9485)
(0 -0 -15.5444)
(0 -0 -16.2908)
(0 -0 -17.2807)
(0 -0 -18.615)
(0 -0 -20.4629)
(0 -0 -23.7992)
(0 -0 -30.7215)
(0 -0 -10.5309)
(0 -0 -180.33)
(0 -0 -199.805)
(0 -0 -195.38)
(0 -0 -190.195)
(0 -0 -186.288)
(0 -0 -183.182)
(0 -0 -180.461)
(0 -0 -177.964)
(0 -0 -175.642)
(0 -0 -173.487)
(0 -0 -171.518)
(0 -0 -169.769)
(0 -0 -168.307)
(0 -0 -167.146)
(0 -0 -166.511)
(0 -0 -165.933)
(0 -0 -168.035)
(0 -0 -164.079)
(0 -0 -194.014)
(0 -0 -145.566)
)
;

boundaryField
{
    movingWall
    {
        type            calculated;
        value           nonuniform List<vector> 
20
(
(0 -0 -367.532)
(0 -0 -380.49)
(0 -0 -369.414)
(0 -0 -358.717)
(0 -0 -350.706)
(0 -0 -344.261)
(0 -0 -338.517)
(0 -0 -333.198)
(0 -0 -328.245)
(0 -0 -323.63)
(0 -0 -319.361)
(0 -0 -315.47)
(0 -0 -312.05)
(0 -0 -309.118)
(0 -0 -307.122)
(0 -0 -305.073)
(0 -0 -308.264)
(0 -0 -299.133)
(0 -0 -359.389)
(0 -0 -239.211)
)
;
    }
    fixedWalls
    {
        type            calculated;
        value           nonuniform List<vector> 
60
(
(0 -0 0.273928)
(0 -0 1.19888)
(0 -0 2.85643)
(0 -0 4.85812)
(0 -0 7.06486)
(0 -0 9.28224)
(0 -0 11.3398)
(0 -0 13.0987)
(0 -0 14.4601)
(0 -0 15.3645)
(0 -0 15.8014)
(0 -0 15.7726)
(0 -0 15.4025)
(0 -0 14.7686)
(0 -0 13.964)
(0 -0 13.6675)
(0 -0 11.9769)
(0 -0 18.3114)
(0 -0 1.71726)
(0 -0 -159.402)
(0 -0 -0.387356)
(0 -0 -0.174308)
(0 -0 0.0766933)
(0 -0 2.00679)
(0 -0 8.70384)
(0 -0 22.3934)
(0 -0 41.1265)
(0 -0 60.3462)
(0 -0 76.6701)
(0 -0 87.447)
(0 -0 94.1633)
(0 -0 98.1656)
(0 -0 100.662)
(0 -0 102.199)
(0 -0 102.933)
(0 -0 103.545)
(0 -0 104.658)
(0 -0 99.0996)
(0 -0 53.0084)
(0 -0 -115.772)
(0 -0 0.264467)
(0 -0 1.09982)
(0 -0 2.59051)
(0 -0 4.36395)
(0 -0 6.34529)
(0 -0 8.51286)
(0 -0 10.839)
(0 -0 13.2274)
(0 -0 15.5294)
(0 -0 17.5739)
(0 -0 19.1472)
(0 -0 19.9073)
(0 -0 19.5063)
(0 -0 17.6919)
(0 -0 14.5598)
(0 -0 10.5057)
(0 -0 6.24549)
(0 -0 2.52665)
(0 -0 0.362507)
(0 -0 -0.29837)
)
;
    }
    frontAndBack
    {
        type            empty;
    }
}


// ************************************************************************* //
