/*--------------------------------*- C++ -*----------------------------------*\
| =========                 |                                                 |
| \\      /  F ield         | OpenFOAM: The Open Source CFD Toolbox           |
|  \\    /   O peration     | Version:  2312                                  |
|   \\  /    A nd           | Website:  www.openfoam.com                      |
|    \\/     M anipulation  |                                                 |
\*---------------------------------------------------------------------------*/
FoamFile
{
    version     2.0;
    format      ascii;
    arch        "LSB;label=32;scalar=64";
    class       volVectorField;
    location    "7";
    object      ddtU;
}
// * * * * * * * * * * * * * * * * * * * * * * * * * * * * * * * * * * * * * //

dimensions      [0 1 -2 0 0 0 0];

internalField   nonuniform List<vector> 
400
(
(-4.44089e-14 1.36592e-13 0)
(1.33227e-13 7.83681e-15 0)
(6.66134e-14 9.72537e-15 0)
(6.66134e-14 8.84118e-15 0)
(6.66134e-14 6.6735e-15 0)
(2.22045e-14 2.82677e-15 0)
(6.66134e-14 1.4442e-14 0)
(4.44089e-14 1.30081e-14 0)
(4.44089e-14 3.22292e-15 0)
(0 6.51903e-15 0)
(-2.22045e-14 1.06003e-14 0)
(-2.22045e-14 -2.1332e-15 0)
(-2.22045e-14 -2.33119e-15 0)
(-2.22045e-14 -2.02105e-15 0)
(-4.44089e-14 -1.2538e-14 0)
(4.44089e-14 -2.16901e-14 0)
(2.22045e-14 -1.98696e-15 0)
(4.44089e-14 -2.68752e-15 0)
(2.22045e-14 2.22931e-14 0)
(0 1.32056e-14 0)
(-8.88178e-14 1.37168e-13 0)
(4.44089e-14 6.51361e-14 0)
(4.44089e-14 3.3237e-14 0)
(4.44089e-14 1.69517e-14 0)
(4.44089e-14 7.38477e-15 0)
(4.44089e-14 -2.90069e-15 0)
(4.44089e-14 2.7026e-15 0)
(1.33227e-13 4.20861e-15 0)
(4.44089e-14 3.69109e-15 0)
(0 1.67024e-14 0)
(0 1.59092e-14 0)
(4.44089e-14 -5.31356e-15 0)
(4.44089e-14 1.20035e-14 0)
(0 1.36954e-14 0)
(4.44089e-14 -2.90262e-15 0)
(-2.22045e-14 -2.7134e-14 0)
(4.44089e-14 -1.3502e-14 0)
(2.22045e-14 -1.18737e-15 0)
(0 3.2461e-14 0)
(4.44089e-14 2.73423e-14 0)
(0 1.4451e-13 0)
(2.22045e-14 5.46937e-14 0)
(4.44089e-14 2.6931e-14 0)
(4.44089e-14 3.38896e-15 0)
(4.44089e-14 -5.56238e-15 0)
(4.44089e-14 2.67016e-15 0)
(0 3.03861e-15 0)
(4.44089e-14 -1.24025e-15 0)
(6.66134e-14 1.82501e-14 0)
(0 2.39185e-14 0)
(0 1.88385e-15 0)
(-4.44089e-14 -1.38075e-14 0)
(0 1.26235e-14 0)
(0 1.27939e-14 0)
(4.44089e-14 -2.70537e-15 0)
(4.44089e-14 -6.69099e-15 0)
(0 2.13544e-14 0)
(-2.22045e-14 2.92298e-14 0)
(-2.22045e-14 1.70323e-14 0)
(-2.22045e-14 2.02876e-14 0)
(8.88178e-14 1.86657e-13 0)
(2.22045e-14 2.52505e-14 0)
(0 3.03619e-14 0)
(0 1.33491e-14 0)
(0 1.91386e-14 0)
(0 3.22743e-14 0)
(-2.22045e-14 2.41388e-14 0)
(-2.22045e-14 1.26734e-14 0)
(-6.66134e-14 5.02694e-15 0)
(-4.44089e-14 -5.70291e-15 0)
(8.88178e-14 -6.05217e-15 0)
(-2.22045e-14 1.08435e-14 0)
(-4.44089e-14 1.02365e-14 0)
(-2.22045e-14 7.40084e-16 0)
(-2.22045e-14 -1.17666e-14 0)
(-4.44089e-14 3.84526e-15 0)
(-4.44089e-14 2.76228e-14 0)
(0 3.21684e-14 0)
(-4.44089e-14 2.22489e-14 0)
(2.22045e-14 1.24614e-14 0)
(-2.22045e-14 2.87682e-14 0)
(4.44089e-14 5.89974e-14 0)
(4.44089e-14 4.37355e-14 0)
(8.88178e-14 3.32627e-14 0)
(6.66134e-14 3.41198e-14 0)
(-2.22045e-14 3.96408e-14 0)
(4.44089e-14 3.93935e-14 0)
(8.88178e-14 2.15318e-14 0)
(2.22045e-14 -1.63796e-14 0)
(4.44089e-14 -2.3772e-14 0)
(2.22045e-14 -5.49836e-15 0)
(2.22045e-14 3.2647e-14 0)
(4.44089e-14 1.66985e-14 0)
(2.22045e-14 -2.22584e-15 0)
(2.22045e-14 2.72331e-15 0)
(0 1.93625e-14 0)
(-2.22045e-14 6.36901e-15 0)
(-2.22045e-14 1.28842e-14 0)
(0 2.30916e-14 0)
(2.22045e-14 1.2489e-14 0)
(-4.44089e-14 3.79278e-14 0)
(2.22045e-14 4.57614e-14 0)
(2.22045e-14 5.25302e-14 0)
(4.44089e-14 4.60324e-14 0)
(0 2.72789e-14 0)
(0 2.08283e-14 0)
(0 2.10338e-14 0)
(4.44089e-14 2.14641e-14 0)
(2.22045e-14 8.01585e-15 0)
(4.44089e-14 8.48676e-16 0)
(4.44089e-14 -1.07871e-15 0)
(2.22045e-14 -1.86485e-15 0)
(0 1.31147e-15 0)
(0 4.45976e-15 0)
(0 1.87515e-14 0)
(0 1.32109e-14 0)
(0 1.29951e-14 0)
(0 1.09452e-14 0)
(0 8.70637e-15 0)
(-2.22045e-14 1.41228e-14 0)
(4.44089e-14 6.92687e-14 0)
(-8.88178e-14 4.37078e-14 0)
(2.22045e-14 3.53791e-14 0)
(6.66134e-14 3.95829e-14 0)
(2.22045e-14 4.03186e-14 0)
(4.44089e-14 2.76687e-14 0)
(2.22045e-14 3.02977e-15 0)
(2.22045e-14 -3.63522e-15 0)
(0 8.74794e-15 0)
(-2.22045e-14 6.40832e-15 0)
(2.22045e-14 5.30281e-15 0)
(6.66134e-14 5.31116e-16 0)
(-2.22045e-14 4.46896e-15 0)
(2.22045e-14 1.25534e-14 0)
(2.22045e-14 1.53905e-14 0)
(2.22045e-14 -8.95031e-15 0)
(2.22045e-14 -8.45575e-15 0)
(0 7.4155e-15 0)
(0 1.06525e-14 0)
(-2.22045e-14 9.01405e-15 0)
(-4.44089e-14 -2.94901e-14 0)
(-4.44089e-14 6.81401e-14 0)
(0 2.51591e-14 0)
(-4.44089e-14 1.84211e-14 0)
(0 7.06983e-15 0)
(0 5.48696e-15 0)
(0 7.75342e-15 0)
(4.44089e-14 -5.71784e-15 0)
(0 -3.30702e-15 0)
(0 -4.44306e-15 0)
(8.88178e-14 1.43512e-14 0)
(4.44089e-14 1.40679e-14 0)
(0 5.03763e-15 0)
(0 -7.54933e-15 0)
(0 -1.21524e-14 0)
(4.44089e-14 2.33873e-16 0)
(-4.44089e-14 3.16207e-15 0)
(-4.44089e-14 3.9112e-15 0)
(0 4.00508e-15 0)
(0 -4.40197e-15 0)
(0 8.52892e-14 0)
(0 7.68946e-15 0)
(4.44089e-14 4.77072e-14 0)
(6.66134e-14 2.17232e-14 0)
(8.88178e-14 2.40173e-15 0)
(0 -1.92673e-14 0)
(0 -2.39306e-14 0)
(4.44089e-14 -8.05145e-15 0)
(2.22045e-14 8.62925e-15 0)
(0 1.42332e-14 0)
(-6.66134e-14 1.85321e-14 0)
(2.22045e-14 8.24263e-15 0)
(-2.22045e-14 -3.72713e-15 0)
(-4.44089e-14 -2.01222e-14 0)
(2.22045e-14 -1.26597e-14 0)
(-2.22045e-14 1.66225e-14 0)
(2.22045e-14 1.47221e-15 0)
(0 -2.11644e-14 0)
(0 -1.1847e-14 0)
(-2.22045e-14 -1.4562e-14 0)
(4.44089e-14 8.10924e-14 0)
(-2.22045e-14 1.54665e-14 0)
(-4.44089e-14 7.93237e-15 0)
(6.66134e-14 1.16271e-14 0)
(2.22045e-14 2.81615e-14 0)
(4.44089e-14 6.66333e-15 0)
(-2.22045e-14 -1.48332e-14 0)
(2.22045e-14 -3.72569e-15 0)
(-4.44089e-14 1.81989e-14 0)
(-4.44089e-14 2.42865e-14 0)
(-4.44089e-14 -1.59742e-14 0)
(0 -2.23891e-14 0)
(4.44089e-14 -1.6593e-14 0)
(4.44089e-14 -8.81681e-15 0)
(-4.44089e-14 -1.02878e-14 0)
(4.44089e-14 -3.99159e-15 0)
(4.44089e-14 -1.17501e-14 0)
(2.22045e-14 -1.23147e-14 0)
(-2.22045e-14 -1.0354e-14 0)
(2.22045e-14 -1.56449e-14 0)
(-1.33227e-13 1.17554e-14 0)
(4.44089e-14 1.6105e-14 0)
(4.44089e-14 -4.67019e-15 0)
(4.44089e-14 6.24593e-15 0)
(0 1.43037e-14 0)
(2.22045e-14 -1.40967e-15 0)
(4.44089e-14 1.3896e-14 0)
(2.22045e-14 2.69831e-14 0)
(2.22045e-14 1.13455e-14 0)
(6.66134e-14 -1.35283e-15 0)
(2.22045e-14 -2.58373e-14 0)
(2.22045e-14 -3.68845e-14 0)
(4.44089e-14 -1.41336e-14 0)
(2.22045e-14 1.49467e-14 0)
(2.22045e-14 -4.56895e-15 0)
(2.22045e-14 -2.28587e-14 0)
(4.44089e-14 -5.91135e-15 0)
(-4.44089e-14 1.14832e-16 0)
(0 -1.67051e-14 0)
(0 -1.39975e-14 0)
(1.9984e-13 9.13688e-14 0)
(-4.44089e-14 -7.98054e-15 0)
(0 -3.27822e-15 0)
(0 2.50642e-15 0)
(0 -4.34577e-15 0)
(4.44089e-14 1.12161e-14 0)
(-4.44089e-14 3.02356e-14 0)
(2.22045e-14 1.87402e-14 0)
(2.22045e-14 -9.37284e-15 0)
(4.44089e-14 -8.04666e-15 0)
(2.22045e-14 6.83407e-15 0)
(-2.22045e-14 -3.52677e-15 0)
(-4.44089e-14 -9.97145e-15 0)
(-4.44089e-14 -7.21697e-15 0)
(0 8.61853e-16 0)
(0 -9.67894e-15 0)
(2.22045e-14 -4.54459e-15 0)
(2.22045e-14 -1.89563e-14 0)
(2.22045e-14 -1.86366e-14 0)
(0 -5.95805e-15 0)
(-6.66134e-14 1.36573e-14 0)
(8.88178e-14 3.72899e-14 0)
(0 1.05916e-15 0)
(4.44089e-14 1.02468e-14 0)
(4.44089e-14 -5.31751e-15 0)
(0 6.16303e-15 0)
(8.88178e-14 -5.46465e-15 0)
(8.88178e-14 -4.06265e-15 0)
(2.22045e-14 -1.28598e-15 0)
(0 -1.47193e-15 0)
(0 1.82151e-14 0)
(4.44089e-14 2.32648e-14 0)
(0 -8.61414e-16 0)
(0 -2.64161e-14 0)
(-4.44089e-14 -1.2795e-14 0)
(0 -3.8775e-15 0)
(-4.44089e-14 -1.04581e-14 0)
(4.44089e-14 -4.38173e-15 0)
(0 1.83247e-15 0)
(-6.66134e-14 -1.25885e-14 0)
(-4.44089e-14 5.90388e-14 0)
(2.22045e-14 -9.16125e-15 0)
(2.22045e-14 6.41518e-15 0)
(2.22045e-14 9.70437e-15 0)
(0 9.95599e-15 0)
(0 -9.17795e-16 0)
(2.22045e-14 -1.85411e-14 0)
(-6.66134e-14 5.36848e-15 0)
(-4.44089e-14 2.40291e-14 0)
(-4.44089e-14 1.43035e-14 0)
(0 6.31751e-15 0)
(-4.44089e-14 -1.37813e-14 0)
(6.66134e-14 -1.63875e-14 0)
(6.66134e-14 -7.05853e-15 0)
(-2.22045e-14 2.07142e-15 0)
(0 1.61667e-14 0)
(-2.22045e-14 -1.06527e-15 0)
(-8.88178e-14 -4.48333e-15 0)
(0 -1.55148e-15 0)
(0 -2.80849e-14 0)
(0 5.95414e-14 0)
(2.22045e-14 -2.82187e-14 0)
(-4.44089e-14 -1.27064e-14 0)
(0 -1.45761e-14 0)
(0 8.38235e-15 0)
(0 2.14144e-14 0)
(0 2.21978e-14 0)
(0 9.93863e-15 0)
(0 9.68876e-15 0)
(4.44089e-14 -2.56042e-15 0)
(0 -3.17143e-14 0)
(4.44089e-14 -3.56228e-14 0)
(-2.22045e-14 -9.44724e-15 0)
(-4.44089e-14 1.20632e-14 0)
(-4.44089e-14 1.48364e-14 0)
(0 2.08897e-14 0)
(4.44089e-14 -3.67228e-15 0)
(4.44089e-14 -1.7589e-14 0)
(4.44089e-14 -6.37543e-15 0)
(2.22045e-14 -1.3598e-14 0)
(6.66134e-14 -6.67165e-14 0)
(0 3.75675e-14 0)
(-2.22045e-14 1.28169e-14 0)
(-4.44089e-14 1.05064e-14 0)
(-8.88178e-14 -1.49119e-14 0)
(-4.44089e-14 -4.43005e-15 0)
(-4.44089e-14 -9.14098e-15 0)
(0 -2.48967e-14 0)
(4.44089e-14 -4.37274e-15 0)
(4.44089e-14 1.253e-14 0)
(2.22045e-14 3.45276e-15 0)
(-4.44089e-14 1.6567e-14 0)
(-8.88178e-14 1.95372e-15 0)
(4.44089e-14 -3.512e-15 0)
(-4.44089e-14 -1.65913e-15 0)
(0 8.67018e-16 0)
(4.44089e-14 -1.02149e-14 0)
(-4.44089e-14 -3.52487e-15 0)
(0 4.89902e-15 0)
(0 1.53419e-15 0)
(-8.88178e-14 5.44451e-14 0)
(-2.22045e-14 2.53232e-15 0)
(-4.44089e-14 3.76937e-15 0)
(4.44089e-14 7.91208e-15 0)
(0 3.95871e-15 0)
(-4.44089e-14 -1.10645e-14 0)
(4.44089e-14 -1.45166e-14 0)
(0 -2.21992e-14 0)
(-6.66134e-14 -1.98779e-14 0)
(0 5.40795e-15 0)
(4.44089e-14 1.45923e-14 0)
(4.44089e-14 1.40751e-14 0)
(8.88178e-14 1.45731e-14 0)
(0 7.87617e-15 0)
(-4.44089e-14 1.80018e-14 0)
(-2.22045e-14 2.9938e-15 0)
(-4.44089e-14 1.15506e-15 0)
(0 -3.16506e-15 0)
(0 2.26597e-15 0)
(4.44089e-14 6.62061e-15 0)
(8.88178e-14 5.57021e-14 0)
(2.22045e-14 -2.58986e-14 0)
(0 -1.77036e-14 0)
(-2.22045e-14 -1.44075e-14 0)
(2.22045e-14 1.80062e-14 0)
(4.44089e-14 -1.61822e-15 0)
(-6.66134e-14 9.67264e-15 0)
(0 9.15827e-15 0)
(0 -9.59306e-15 0)
(-4.44089e-14 -1.82502e-14 0)
(2.22045e-14 -5.14144e-15 0)
(-2.22045e-14 1.51065e-14 0)
(-4.44089e-14 2.76292e-14 0)
(0 1.45065e-14 0)
(-4.44089e-14 4.7931e-15 0)
(4.44089e-14 -1.36272e-14 0)
(0 -1.7166e-15 0)
(0 7.53716e-15 0)
(0 -2.67064e-16 0)
(0 5.37532e-15 0)
(0 -1.75909e-14 0)
(-4.44089e-14 1.26422e-14 0)
(0 -8.34626e-15 0)
(0 -1.46703e-14 0)
(0 -5.42552e-15 0)
(0 5.97618e-15 0)
(0 7.02189e-15 0)
(0 -4.36646e-15 0)
(0 2.36077e-15 0)
(0 2.61315e-15 0)
(0 1.28641e-14 0)
(4.44089e-14 1.38001e-14 0)
(4.44089e-14 8.03479e-15 0)
(4.44089e-14 1.13586e-14 0)
(-4.44089e-14 -7.63114e-15 0)
(0 -2.31628e-14 0)
(-2.22045e-14 -7.23198e-15 0)
(2.22045e-14 1.09711e-14 0)
(0 -1.43888e-15 0)
(0 2.83464e-15 0)
(-4.44089e-14 3.49126e-14 0)
(0 -1.65301e-15 0)
(2.22045e-14 -5.14583e-15 0)
(0 -1.29597e-14 0)
(-2.22045e-14 -3.63576e-15 0)
(-2.22045e-14 8.26363e-15 0)
(0 6.09565e-15 0)
(0 -9.35628e-15 0)
(0 -7.48369e-15 0)
(-2.22045e-14 -2.23688e-15 0)
(0 3.33309e-16 0)
(0 -5.43523e-15 0)
(-2.22045e-14 1.07228e-14 0)
(2.22045e-14 2.14558e-14 0)
(4.44089e-14 1.01115e-14 0)
(4.44089e-14 -7.47352e-15 0)
(0 -8.3092e-15 0)
(0 -2.41796e-15 0)
(0 -8.24854e-16 0)
(0 2.92369e-15 0)
)
;

boundaryField
{
    movingWall
    {
        type            calculated;
        value           uniform (0 0 0);
    }
    fixedWalls
    {
        type            calculated;
        value           uniform (0 0 0);
    }
    frontAndBack
    {
        type            empty;
    }
}


// ************************************************************************* //
