/*--------------------------------*- C++ -*----------------------------------*\
| =========                 |                                                 |
| \\      /  F ield         | OpenFOAM: The Open Source CFD Toolbox           |
|  \\    /   O peration     | Version:  2312                                  |
|   \\  /    A nd           | Website:  www.openfoam.com                      |
|    \\/     M anipulation  |                                                 |
\*---------------------------------------------------------------------------*/
FoamFile
{
    version     2.0;
    format      ascii;
    arch        "LSB;label=32;scalar=64";
    class       volVectorField;
    location    "7";
    object      diffU;
}
// * * * * * * * * * * * * * * * * * * * * * * * * * * * * * * * * * * * * * //

dimensions      [0 1 -1 0 0 0 0];

internalField   nonuniform List<vector> 
400
(
(0 0 0)
(2.26485e-14 -2.15674e-13 0)
(1.69864e-14 -1.68488e-13 0)
(1.75415e-14 -1.79459e-13 0)
(1.74305e-14 -1.77061e-13 0)
(1.73195e-14 -1.77584e-13 0)
(1.74305e-14 -1.77427e-13 0)
(1.70974e-14 -1.77442e-13 0)
(1.70974e-14 -1.77435e-13 0)
(1.69864e-14 -1.77487e-13 0)
(1.69864e-14 -1.77479e-13 0)
(1.67644e-14 -1.77465e-13 0)
(1.69864e-14 -1.77405e-13 0)
(1.70974e-14 -1.77341e-13 0)
(1.64313e-14 -1.7742e-13 0)
(1.64313e-14 -1.77598e-13 0)
(1.67644e-14 -1.7758e-13 0)
(1.66533e-14 -1.77581e-13 0)
(1.67644e-14 -1.77545e-13 0)
(1.66533e-14 -1.77493e-13 0)
(4.37428e-14 -1.81543e-13 0)
(7.54952e-15 -1.76219e-13 0)
(1.59872e-14 -1.77605e-13 0)
(1.55431e-14 -1.77334e-13 0)
(1.57652e-14 -1.77449e-13 0)
(1.57652e-14 -1.77432e-13 0)
(1.59872e-14 -1.774e-13 0)
(1.59872e-14 -1.77491e-13 0)
(1.62093e-14 -1.77587e-13 0)
(1.59872e-14 -1.77598e-13 0)
(1.59872e-14 -1.77557e-13 0)
(1.59872e-14 -1.77592e-13 0)
(1.59872e-14 -1.77531e-13 0)
(1.62093e-14 -1.77373e-13 0)
(1.64313e-14 -1.77359e-13 0)
(1.66533e-14 -1.77526e-13 0)
(1.66533e-14 -1.77547e-13 0)
(1.68754e-14 -1.77572e-13 0)
(1.64313e-14 -1.77578e-13 0)
(1.66533e-14 -1.77518e-13 0)
(5.77316e-15 -3.21637e-13 0)
(2.0095e-14 -1.45716e-13 0)
(1.66533e-14 -1.84728e-13 0)
(1.64313e-14 -1.75769e-13 0)
(1.64313e-14 -1.77876e-13 0)
(1.66533e-14 -1.77498e-13 0)
(1.64313e-14 -1.77649e-13 0)
(1.68754e-14 -1.77652e-13 0)
(1.70974e-14 -1.77549e-13 0)
(1.67644e-14 -1.77361e-13 0)
(1.64313e-14 -1.77356e-13 0)
(1.62093e-14 -1.77626e-13 0)
(1.62093e-14 -1.77715e-13 0)
(1.62093e-14 -1.77655e-13 0)
(1.64313e-14 -1.77653e-13 0)
(1.64313e-14 -1.77681e-13 0)
(1.66533e-14 -1.77567e-13 0)
(1.66533e-14 -1.7745e-13 0)
(1.66533e-14 -1.77504e-13 0)
(1.67644e-14 -1.77527e-13 0)
(-2.44249e-15 -3.8965e-14 0)
(2.16493e-14 -2.07246e-13 0)
(1.62093e-14 -1.70402e-13 0)
(1.70974e-14 -1.79106e-13 0)
(1.69864e-14 -1.77243e-13 0)
(1.72085e-14 -1.77612e-13 0)
(1.70974e-14 -1.77548e-13 0)
(1.67644e-14 -1.77517e-13 0)
(1.64313e-14 -1.77446e-13 0)
(1.62093e-14 -1.77373e-13 0)
(1.68754e-14 -1.77378e-13 0)
(1.69864e-14 -1.77467e-13 0)
(1.69864e-14 -1.77505e-13 0)
(1.66533e-14 -1.77552e-13 0)
(1.66533e-14 -1.7766e-13 0)
(1.64313e-14 -1.77693e-13 0)
(1.62093e-14 -1.77676e-13 0)
(1.64313e-14 -1.776e-13 0)
(1.64313e-14 -1.77473e-13 0)
(1.67644e-14 -1.77467e-13 0)
(4.19664e-14 -2.16927e-13 0)
(9.99201e-15 -1.69112e-13 0)
(1.76525e-14 -1.79479e-13 0)
(1.72085e-14 -1.77145e-13 0)
(1.73195e-14 -1.77611e-13 0)
(1.70974e-14 -1.77448e-13 0)
(1.68754e-14 -1.77342e-13 0)
(1.73195e-14 -1.77279e-13 0)
(1.70974e-14 -1.77438e-13 0)
(1.72085e-14 -1.776e-13 0)
(1.69864e-14 -1.7762e-13 0)
(1.70974e-14 -1.77497e-13 0)
(1.68754e-14 -1.77382e-13 0)
(1.69864e-14 -1.77412e-13 0)
(1.68754e-14 -1.77493e-13 0)
(1.68754e-14 -1.77451e-13 0)
(1.68754e-14 -1.77593e-13 0)
(1.66533e-14 -1.77668e-13 0)
(1.66533e-14 -1.7756e-13 0)
(1.67644e-14 -1.77473e-13 0)
(-2.66454e-15 -2.67333e-13 0)
(2.22045e-14 -1.58016e-13 0)
(1.67644e-14 -1.82075e-13 0)
(1.69864e-14 -1.76422e-13 0)
(1.64313e-14 -1.77707e-13 0)
(1.66533e-14 -1.77465e-13 0)
(1.66533e-14 -1.7749e-13 0)
(1.64313e-14 -1.77401e-13 0)
(1.67644e-14 -1.77419e-13 0)
(1.66533e-14 -1.77461e-13 0)
(1.66533e-14 -1.77524e-13 0)
(1.67644e-14 -1.77582e-13 0)
(1.64313e-14 -1.77579e-13 0)
(1.67644e-14 -1.77557e-13 0)
(1.68754e-14 -1.77509e-13 0)
(1.67644e-14 -1.77491e-13 0)
(1.68754e-14 -1.77482e-13 0)
(1.66533e-14 -1.77464e-13 0)
(1.67644e-14 -1.77539e-13 0)
(1.66533e-14 -1.77479e-13 0)
(1.64313e-14 -2.57552e-14 0)
(1.69864e-14 -2.10511e-13 0)
(1.68754e-14 -1.69762e-13 0)
(1.70974e-14 -1.7916e-13 0)
(1.67644e-14 -1.77068e-13 0)
(1.69864e-14 -1.77471e-13 0)
(1.69864e-14 -1.77363e-13 0)
(1.68754e-14 -1.77461e-13 0)
(1.68754e-14 -1.77483e-13 0)
(1.69864e-14 -1.77374e-13 0)
(1.69864e-14 -1.77417e-13 0)
(1.70974e-14 -1.7747e-13 0)
(1.67644e-14 -1.77503e-13 0)
(1.68754e-14 -1.77498e-13 0)
(1.67644e-14 -1.77447e-13 0)
(1.67644e-14 -1.77504e-13 0)
(1.67644e-14 -1.77505e-13 0)
(1.66533e-14 -1.77443e-13 0)
(1.66533e-14 -1.77472e-13 0)
(1.66533e-14 -1.77513e-13 0)
(3.21965e-14 -2.44972e-13 0)
(1.08802e-14 -1.62985e-13 0)
(1.57652e-14 -1.80677e-13 0)
(1.53211e-14 -1.76634e-13 0)
(1.53211e-14 -1.77589e-13 0)
(1.55431e-14 -1.77454e-13 0)
(1.5099e-14 -1.77466e-13 0)
(1.59872e-14 -1.77473e-13 0)
(1.59872e-14 -1.77499e-13 0)
(1.57652e-14 -1.77562e-13 0)
(1.64313e-14 -1.77549e-13 0)
(1.64313e-14 -1.77458e-13 0)
(1.62093e-14 -1.77456e-13 0)
(1.62093e-14 -1.77548e-13 0)
(1.64313e-14 -1.77631e-13 0)
(1.66533e-14 -1.77629e-13 0)
(1.64313e-14 -1.77551e-13 0)
(1.64313e-14 -1.77497e-13 0)
(1.66533e-14 -1.77459e-13 0)
(1.66533e-14 -1.77543e-13 0)
(1.17684e-14 -2.32327e-13 0)
(1.95399e-14 -1.65331e-13 0)
(1.77636e-14 -1.80248e-13 0)
(1.72085e-14 -1.76712e-13 0)
(1.75415e-14 -1.77542e-13 0)
(1.70974e-14 -1.77502e-13 0)
(1.70974e-14 -1.77732e-13 0)
(1.70974e-14 -1.77765e-13 0)
(1.70974e-14 -1.77709e-13 0)
(1.73195e-14 -1.77731e-13 0)
(1.67644e-14 -1.77674e-13 0)
(1.70974e-14 -1.77496e-13 0)
(1.68754e-14 -1.77498e-13 0)
(1.67644e-14 -1.77635e-13 0)
(1.69864e-14 -1.7768e-13 0)
(1.68754e-14 -1.77523e-13 0)
(1.67644e-14 -1.77421e-13 0)
(1.67644e-14 -1.77504e-13 0)
(1.66533e-14 -1.77545e-13 0)
(1.67644e-14 -1.77595e-13 0)
(1.17684e-14 -7.35652e-14 0)
(1.75415e-14 -1.99902e-13 0)
(1.59872e-14 -1.72066e-13 0)
(1.72085e-14 -1.78588e-13 0)
(1.69864e-14 -1.77023e-13 0)
(1.72085e-14 -1.7739e-13 0)
(1.68754e-14 -1.77442e-13 0)
(1.69864e-14 -1.77546e-13 0)
(1.64313e-14 -1.77544e-13 0)
(1.64313e-14 -1.7744e-13 0)
(1.59872e-14 -1.77482e-13 0)
(1.62093e-14 -1.77535e-13 0)
(1.64313e-14 -1.77569e-13 0)
(1.68754e-14 -1.77595e-13 0)
(1.64313e-14 -1.77625e-13 0)
(1.64313e-14 -1.77571e-13 0)
(1.64313e-14 -1.77501e-13 0)
(1.67644e-14 -1.77514e-13 0)
(1.66533e-14 -1.77549e-13 0)
(1.67644e-14 -1.77599e-13 0)
(1.5099e-14 -2.80675e-13 0)
(1.59872e-14 -1.54606e-13 0)
(1.62093e-14 -1.82719e-13 0)
(1.62093e-14 -1.76399e-13 0)
(1.64313e-14 -1.77827e-13 0)
(1.67644e-14 -1.77479e-13 0)
(1.66533e-14 -1.77496e-13 0)
(1.68754e-14 -1.7745e-13 0)
(1.68754e-14 -1.77482e-13 0)
(1.67644e-14 -1.77513e-13 0)
(1.69864e-14 -1.77579e-13 0)
(1.70974e-14 -1.77757e-13 0)
(1.70974e-14 -1.77785e-13 0)
(1.70974e-14 -1.7756e-13 0)
(1.69864e-14 -1.77446e-13 0)
(1.69864e-14 -1.77578e-13 0)
(1.66533e-14 -1.77606e-13 0)
(1.64313e-14 -1.77573e-13 0)
(1.66533e-14 -1.77508e-13 0)
(1.66533e-14 -1.77536e-13 0)
(2.20934e-14 -7.92651e-14 0)
(1.73195e-14 -1.98753e-13 0)
(1.77636e-14 -1.72614e-13 0)
(1.70974e-14 -1.7878e-13 0)
(1.72085e-14 -1.77499e-13 0)
(1.73195e-14 -1.77658e-13 0)
(1.72085e-14 -1.77416e-13 0)
(1.70974e-14 -1.77423e-13 0)
(1.70974e-14 -1.77497e-13 0)
(1.69864e-14 -1.7759e-13 0)
(1.68754e-14 -1.77513e-13 0)
(1.68754e-14 -1.77519e-13 0)
(1.64313e-14 -1.77546e-13 0)
(1.62093e-14 -1.77488e-13 0)
(1.64313e-14 -1.77403e-13 0)
(1.64313e-14 -1.77448e-13 0)
(1.67644e-14 -1.77512e-13 0)
(1.67644e-14 -1.77557e-13 0)
(1.67644e-14 -1.77524e-13 0)
(1.66533e-14 -1.77526e-13 0)
(1.84297e-14 -2.20768e-13 0)
(1.42109e-14 -1.68159e-13 0)
(1.53211e-14 -1.79614e-13 0)
(1.64313e-14 -1.77019e-13 0)
(1.62093e-14 -1.77633e-13 0)
(1.59872e-14 -1.77496e-13 0)
(1.59872e-14 -1.77551e-13 0)
(1.64313e-14 -1.77525e-13 0)
(1.67644e-14 -1.7748e-13 0)
(1.64313e-14 -1.77531e-13 0)
(1.62093e-14 -1.77466e-13 0)
(1.64313e-14 -1.77292e-13 0)
(1.64313e-14 -1.77291e-13 0)
(1.62093e-14 -1.77513e-13 0)
(1.62093e-14 -1.77619e-13 0)
(1.64313e-14 -1.77621e-13 0)
(1.62093e-14 -1.77669e-13 0)
(1.66533e-14 -1.77598e-13 0)
(1.64313e-14 -1.77564e-13 0)
(1.64313e-14 -1.77582e-13 0)
(7.32747e-15 -2.52345e-13 0)
(2.02061e-14 -1.60714e-13 0)
(1.74305e-14 -1.81383e-13 0)
(1.68754e-14 -1.76558e-13 0)
(1.67644e-14 -1.77679e-13 0)
(1.68754e-14 -1.77472e-13 0)
(1.70974e-14 -1.77746e-13 0)
(1.64313e-14 -1.77709e-13 0)
(1.64313e-14 -1.77477e-13 0)
(1.64313e-14 -1.77389e-13 0)
(1.64313e-14 -1.77382e-13 0)
(1.62093e-14 -1.7747e-13 0)
(1.67644e-14 -1.77531e-13 0)
(1.69864e-14 -1.77586e-13 0)
(1.67644e-14 -1.77606e-13 0)
(1.69864e-14 -1.77545e-13 0)
(1.67644e-14 -1.77526e-13 0)
(1.66533e-14 -1.77553e-13 0)
(1.66533e-14 -1.77611e-13 0)
(1.66533e-14 -1.77652e-13 0)
(6.66134e-15 -1.47953e-14 0)
(1.74305e-14 -2.12901e-13 0)
(1.46549e-14 -1.69302e-13 0)
(1.62093e-14 -1.79466e-13 0)
(1.57652e-14 -1.7723e-13 0)
(1.59872e-14 -1.77691e-13 0)
(1.62093e-14 -1.77551e-13 0)
(1.59872e-14 -1.77485e-13 0)
(1.62093e-14 -1.77393e-13 0)
(1.62093e-14 -1.77354e-13 0)
(1.64313e-14 -1.77518e-13 0)
(1.66533e-14 -1.77705e-13 0)
(1.66533e-14 -1.77667e-13 0)
(1.64313e-14 -1.77577e-13 0)
(1.64313e-14 -1.77551e-13 0)
(1.64313e-14 -1.77477e-13 0)
(1.66533e-14 -1.77428e-13 0)
(1.66533e-14 -1.77483e-13 0)
(1.68754e-14 -1.77551e-13 0)
(1.67644e-14 -1.77584e-13 0)
(4.13003e-14 -2.92848e-13 0)
(1.04361e-14 -1.52821e-13 0)
(1.74305e-14 -1.83276e-13 0)
(1.64313e-14 -1.76139e-13 0)
(1.59872e-14 -1.77736e-13 0)
(1.62093e-14 -1.77509e-13 0)
(1.59872e-14 -1.77629e-13 0)
(1.55431e-14 -1.77757e-13 0)
(1.59872e-14 -1.77807e-13 0)
(1.64313e-14 -1.77602e-13 0)
(1.68754e-14 -1.77546e-13 0)
(1.64313e-14 -1.77411e-13 0)
(1.59872e-14 -1.77454e-13 0)
(1.64313e-14 -1.77535e-13 0)
(1.62093e-14 -1.77565e-13 0)
(1.62093e-14 -1.77526e-13 0)
(1.64313e-14 -1.77636e-13 0)
(1.62093e-14 -1.77685e-13 0)
(1.64313e-14 -1.77608e-13 0)
(1.66533e-14 -1.77548e-13 0)
(-1.06581e-14 -1.96896e-13 0)
(2.36478e-14 -1.73134e-13 0)
(1.53211e-14 -1.78467e-13 0)
(1.66533e-14 -1.77159e-13 0)
(1.64313e-14 -1.77491e-13 0)
(1.64313e-14 -1.77483e-13 0)
(1.68754e-14 -1.77526e-13 0)
(1.69864e-14 -1.77724e-13 0)
(1.64313e-14 -1.77851e-13 0)
(1.62093e-14 -1.77775e-13 0)
(1.62093e-14 -1.77637e-13 0)
(1.64313e-14 -1.77577e-13 0)
(1.70974e-14 -1.77531e-13 0)
(1.70974e-14 -1.77492e-13 0)
(1.67644e-14 -1.77445e-13 0)
(1.66533e-14 -1.7748e-13 0)
(1.66533e-14 -1.77574e-13 0)
(1.67644e-14 -1.77749e-13 0)
(1.66533e-14 -1.77682e-13 0)
(1.68754e-14 -1.77569e-13 0)
(1.13243e-14 -5.12745e-14 0)
(1.77636e-14 -2.04837e-13 0)
(1.62093e-14 -1.7118e-13 0)
(1.69864e-14 -1.7909e-13 0)
(1.69864e-14 -1.77343e-13 0)
(1.70974e-14 -1.77675e-13 0)
(1.68754e-14 -1.77487e-13 0)
(1.68754e-14 -1.7744e-13 0)
(1.67644e-14 -1.77498e-13 0)
(1.67644e-14 -1.77638e-13 0)
(1.69864e-14 -1.77698e-13 0)
(1.69864e-14 -1.77667e-13 0)
(1.62093e-14 -1.775e-13 0)
(1.64313e-14 -1.77363e-13 0)
(1.64313e-14 -1.77427e-13 0)
(1.64313e-14 -1.77618e-13 0)
(1.67644e-14 -1.77632e-13 0)
(1.66533e-14 -1.77592e-13 0)
(1.66533e-14 -1.77589e-13 0)
(1.66533e-14 -1.77553e-13 0)
(5.12923e-14 -2.33264e-13 0)
(7.99361e-15 -1.65843e-13 0)
(1.76525e-14 -1.8031e-13 0)
(1.59872e-14 -1.77048e-13 0)
(1.62093e-14 -1.77742e-13 0)
(1.62093e-14 -1.77546e-13 0)
(1.59872e-14 -1.77557e-13 0)
(1.62093e-14 -1.77597e-13 0)
(1.64313e-14 -1.7759e-13 0)
(1.64313e-14 -1.77565e-13 0)
(1.62093e-14 -1.77517e-13 0)
(1.64313e-14 -1.77542e-13 0)
(1.64313e-14 -1.7761e-13 0)
(1.66533e-14 -1.77551e-13 0)
(1.68754e-14 -1.77553e-13 0)
(1.68754e-14 -1.7765e-13 0)
(1.66533e-14 -1.77707e-13 0)
(1.67644e-14 -1.77556e-13 0)
(1.66533e-14 -1.7759e-13 0)
(1.66533e-14 -1.7759e-13 0)
(8.88178e-16 -2.61044e-13 0)
(2.12053e-14 -1.59492e-13 0)
(1.72085e-14 -1.81827e-13 0)
(1.75415e-14 -1.76689e-13 0)
(1.73195e-14 -1.77809e-13 0)
(1.73195e-14 -1.77527e-13 0)
(1.74305e-14 -1.77568e-13 0)
(1.74305e-14 -1.7762e-13 0)
(1.73195e-14 -1.77634e-13 0)
(1.70974e-14 -1.77634e-13 0)
(1.72085e-14 -1.77629e-13 0)
(1.72085e-14 -1.77723e-13 0)
(1.68754e-14 -1.77713e-13 0)
(1.68754e-14 -1.77634e-13 0)
(1.66533e-14 -1.77523e-13 0)
(1.68754e-14 -1.77516e-13 0)
(1.67644e-14 -1.77589e-13 0)
(1.66533e-14 -1.77573e-13 0)
(1.66533e-14 -1.77594e-13 0)
(1.67644e-14 -1.77576e-13 0)
)
;

boundaryField
{
    movingWall
    {
        type            calculated;
        value           uniform (1.66533e-14 -1.77539e-13 0);
    }
    fixedWalls
    {
        type            calculated;
        value           uniform (1.66533e-14 -1.77539e-13 0);
    }
    frontAndBack
    {
        type            empty;
    }
}


// ************************************************************************* //
