/*--------------------------------*- C++ -*----------------------------------*\
| =========                 |                                                 |
| \\      /  F ield         | OpenFOAM: The Open Source CFD Toolbox           |
|  \\    /   O peration     | Version:  2312                                  |
|   \\  /    A nd           | Website:  www.openfoam.com                      |
|    \\/     M anipulation  |                                                 |
\*---------------------------------------------------------------------------*/
FoamFile
{
    version     2.0;
    format      ascii;
    arch        "LSB;label=32;scalar=64";
    class       volScalarField;
    location    "7";
    object      divPhi;
}
// * * * * * * * * * * * * * * * * * * * * * * * * * * * * * * * * * * * * * //

dimensions      [0 0 -1 0 0 0 0];

internalField   nonuniform List<scalar> 
400
(
5.42101e-14
-5.7754e-15
-1.34632e-15
9.8602e-15
-6.11041e-15
9.38858e-15
2.03947e-15
-1.33491e-14
1.92775e-14
-2.17601e-14
2.63157e-15
1.5706e-14
-3.95458e-15
-5.88817e-15
3.8626e-16
1.62441e-14
-7.635e-15
-1.39352e-14
2.01531e-14
0
2.71051e-14
4.50303e-15
1.28087e-14
1.88631e-14
-1.60167e-14
6.4529e-15
3.30148e-14
-1.88362e-14
-3.45991e-14
6.14279e-15
3.39879e-14
-4.02153e-14
1.6255e-14
1.88587e-14
-1.13269e-14
-3.27356e-14
2.29211e-14
1.46863e-14
-1.84632e-14
0
-2.71051e-14
-3.92861e-15
1.83981e-14
-2.38524e-14
2.57677e-14
7.19361e-15
1.20763e-14
1.7426e-14
-5.36424e-15
1.31033e-14
-2.06952e-14
1.40481e-14
-3.5106e-14
1.7008e-14
-2.10442e-14
8.76315e-15
7.23815e-15
-1.58832e-14
9.97683e-15
0
0
-1.2754e-14
1.50276e-14
-7.31849e-15
-1.74996e-14
1.86148e-16
2.13046e-14
-5.6772e-15
-2.10932e-15
1.53971e-15
1.2367e-14
9.60563e-16
-3.86197e-14
-1.32115e-14
2.07104e-14
9.35078e-15
1.562e-14
-1.01146e-14
2.64021e-14
-2.71051e-14
0
4.95018e-15
-1.18546e-14
-6.33906e-15
1.88824e-14
-1.30027e-14
-3.0173e-15
-1.86373e-14
-1.38286e-15
3.33042e-14
5.59677e-15
-2.42048e-14
-1.39713e-14
-1.13739e-14
6.16365e-15
1.39425e-14
-2.37951e-14
4.99352e-15
-3.63701e-15
0
0
2.54937e-14
-3.36042e-14
8.61854e-15
-3.34079e-14
-1.10963e-14
-1.05771e-14
2.11086e-14
-6.9864e-15
2.60401e-14
1.23299e-15
4.0198e-16
-4.60478e-15
-1.04996e-14
1.02464e-14
2.94657e-15
-2.14217e-14
-1.09855e-14
6.53374e-15
2.71051e-14
0
-1.15408e-14
6.11601e-15
-7.20285e-15
-1.44296e-14
-1.5657e-14
5.35539e-15
-9.43463e-15
-3.26206e-14
1.19548e-14
2.93169e-14
-1.02257e-14
-9.04578e-15
1.67257e-14
1.03293e-14
-7.22685e-16
-2.82207e-15
-3.69729e-14
-4.70977e-15
0
0
-2.99531e-14
5.85908e-15
-2.08387e-14
6.53369e-15
1.3092e-14
8.87475e-15
6.74187e-15
-1.6521e-14
7.70287e-15
-2.42695e-15
-1.47321e-14
-1.99565e-14
8.71168e-15
-6.49989e-16
-1.3621e-14
-1.65537e-14
-2.8737e-14
2.34576e-15
0
2.71051e-14
-3.00369e-14
9.4936e-15
2.96486e-15
1.3246e-14
-5.14518e-15
2.09836e-14
-1.76016e-15
-9.96299e-15
1.66715e-14
-3.10057e-15
-2.2833e-14
1.11082e-14
1.63032e-14
-3.86866e-15
2.7802e-14
-1.73629e-15
-1.33844e-14
-2.67658e-14
0
0
-9.39266e-15
1.75467e-14
-7.74846e-16
5.61278e-15
-6.99572e-16
-1.12108e-14
2.02447e-14
-1.51524e-14
-1.10724e-14
-2.5962e-14
3.75182e-15
1.90583e-14
-5.40992e-15
4.40356e-15
-1.37574e-14
-2.02649e-14
1.05274e-15
4.8332e-15
0
0
-2.49498e-14
9.3071e-15
4.9342e-15
4.21936e-15
-1.23254e-14
-1.56589e-14
-2.00214e-14
3.46927e-14
-3.27607e-14
2.57098e-14
5.6445e-15
-3.14668e-14
-8.90557e-15
2.47544e-14
1.45616e-14
-1.10299e-14
1.41333e-14
-6.21387e-15
0
0
1.11468e-14
-8.88737e-15
1.66651e-14
-3.29756e-15
9.36041e-15
-5.91196e-15
1.352e-14
-7.59161e-15
-9.88878e-15
1.02659e-14
3.08365e-15
-3.35887e-15
-1.55266e-14
6.61743e-15
-4.49538e-15
-2.18461e-14
-1.01849e-14
4.13421e-15
0
2.71051e-14
1.29176e-14
1.1351e-15
-3.25468e-14
3.02759e-15
1.61573e-14
-1.00292e-14
3.39433e-14
-2.4647e-14
-3.19191e-15
-1.30945e-14
3.21972e-15
-9.03381e-15
5.12015e-15
1.11907e-14
-3.98864e-15
1.38578e-14
-7.01211e-15
1.3595e-14
0
0
1.71596e-14
-1.34508e-14
7.76245e-17
2.81633e-15
-2.3466e-14
-5.99319e-15
1.47331e-15
-1.74812e-15
2.8608e-15
-1.68485e-14
2.2157e-14
-9.28993e-15
-1.78789e-14
1.83516e-14
-4.97333e-16
-7.02739e-15
-1.31799e-14
-1.97409e-15
0
-2.71051e-14
-1.76371e-14
1.0945e-14
-1.2235e-14
1.4507e-14
-2.2955e-14
-8.75112e-15
7.76787e-15
-6.09535e-15
-7.48455e-15
1.44894e-14
6.02348e-15
2.33476e-15
1.71904e-15
-5.86233e-15
8.41462e-15
1.38138e-14
-1.36872e-14
-5.65406e-15
0
2.71051e-14
1.04995e-14
-9.8451e-15
-2.99791e-15
-3.7205e-14
1.80311e-14
-4.2046e-15
-1.59873e-14
1.77576e-15
-1.77943e-14
1.6555e-14
1.31428e-14
-1.30403e-15
3.32508e-14
-2.43987e-14
6.18311e-15
-4.68156e-15
1.56626e-14
8.60261e-16
0
-2.71051e-14
-4.8272e-15
-6.09715e-15
-1.07715e-14
-3.80914e-15
-2.22935e-14
-9.96079e-15
2.41564e-14
1.59891e-14
5.65094e-15
3.40706e-15
1.08841e-15
1.21228e-14
-7.93844e-15
6.38106e-15
8.41778e-15
-2.68453e-14
1.05796e-15
5.1839e-15
2.71051e-14
0
-1.92396e-14
5.92186e-15
-1.98855e-14
-9.20735e-15
-5.97637e-15
6.18812e-15
6.56887e-15
-2.31607e-15
9.57044e-15
6.57693e-15
-2.01356e-14
5.67022e-15
-1.85225e-15
-1.8188e-14
2.6479e-14
-1.38925e-14
-6.1548e-15
1.87946e-14
0
0
2.17387e-15
3.66233e-15
-2.70145e-15
-1.28377e-14
-1.3966e-15
-4.50102e-15
6.44736e-15
8.49305e-15
-1.18609e-14
8.33978e-15
9.54223e-15
-1.24564e-16
5.52215e-15
1.69066e-14
-8.08537e-15
6.62862e-15
-3.02619e-14
1.70144e-14
-2.71051e-14
2.71051e-14
-2.71051e-14
0
0
0
0
0
2.71051e-14
0
0
0
0
0
0
0
0
0
0
0
2.71051e-14
)
;

boundaryField
{
    movingWall
    {
        type            extrapolatedCalculated;
        value           nonuniform List<scalar> 
20
(
2.71051e-14
-2.71051e-14
0
0
0
0
0
2.71051e-14
0
0
0
0
0
0
0
0
0
0
0
2.71051e-14
)
;
    }
    fixedWalls
    {
        type            extrapolatedCalculated;
        value           nonuniform List<scalar> 
60
(
5.42101e-14
2.71051e-14
-2.71051e-14
0
0
0
0
0
2.71051e-14
0
0
0
2.71051e-14
0
-2.71051e-14
2.71051e-14
-2.71051e-14
0
0
2.71051e-14
0
0
0
-2.71051e-14
0
2.71051e-14
0
0
0
0
0
0
0
0
0
0
2.71051e-14
0
-2.71051e-14
2.71051e-14
5.42101e-14
-5.7754e-15
-1.34632e-15
9.8602e-15
-6.11041e-15
9.38858e-15
2.03947e-15
-1.33491e-14
1.92775e-14
-2.17601e-14
2.63157e-15
1.5706e-14
-3.95458e-15
-5.88817e-15
3.8626e-16
1.62441e-14
-7.635e-15
-1.39352e-14
2.01531e-14
0
)
;
    }
    frontAndBack
    {
        type            empty;
    }
}


// ************************************************************************* //
