/*--------------------------------*- C++ -*----------------------------------*\
| =========                 |                                                 |
| \\      /  F ield         | OpenFOAM: The Open Source CFD Toolbox           |
|  \\    /   O peration     | Version:  2312                                  |
|   \\  /    A nd           | Website:  www.openfoam.com                      |
|    \\/     M anipulation  |                                                 |
\*---------------------------------------------------------------------------*/
FoamFile
{
    version     2.0;
    format      ascii;
    arch        "LSB;label=32;scalar=64";
    class       volScalarField;
    location    "7";
    object      divU;
}
// * * * * * * * * * * * * * * * * * * * * * * * * * * * * * * * * * * * * * //

dimensions      [0 0 -1 0 0 0 0];

internalField   nonuniform List<scalar> 
400
(
1.62901e-11
-1.97393e-12
3.83476e-13
-1.1733e-13
2.48886e-15
6.18801e-15
-1.99666e-15
-1.2717e-14
5.49708e-15
-2.78344e-14
4.1459e-15
2.04072e-15
4.12599e-14
-1.7919e-14
-5.14727e-14
4.96147e-14
2.21479e-14
-3.47241e-14
-4.57262e-15
0
-3.03306e-11
4.2358e-12
-8.34004e-13
3.60008e-13
-7.89778e-14
1.47529e-14
3.00031e-14
-3.36824e-14
4.83649e-14
-4.23257e-14
1.64234e-14
-1.40467e-14
-4.38918e-14
5.91287e-14
3.36301e-14
-1.29669e-14
2.34871e-14
-2.154e-14
-5.15094e-16
0
1.34983e-11
-1.98403e-12
3.74207e-13
-2.23774e-13
7.716e-14
-8.46013e-14
4.22694e-14
4.50107e-14
8.26792e-15
-1.98509e-14
-4.69905e-14
-1.61228e-15
1.28651e-14
-1.29549e-14
3.4998e-15
2.45054e-14
-1.6537e-14
2.82694e-15
3.71332e-14
-2.71051e-14
9.02598e-12
-4.74692e-13
5.88635e-14
-6.31255e-14
2.23377e-14
2.88199e-14
-3.54979e-14
-2.61272e-14
-3.49237e-14
-1.66307e-14
8.92048e-14
1.13391e-14
4.60947e-14
-4.28333e-14
1.95785e-14
-3.38127e-14
-1.91832e-14
8.0787e-15
5.86639e-14
2.71051e-14
-2.10064e-11
2.49677e-12
-4.30838e-13
2.05283e-13
-5.11342e-14
-3.77991e-14
2.44747e-14
3.97399e-14
-5.13145e-15
-2.54317e-14
-3.37801e-14
-1.42827e-16
-1.54931e-14
1.08493e-14
7.56807e-15
1.35156e-14
2.36298e-16
-5.48508e-15
-2.14218e-15
-2.71051e-14
1.77538e-11
-2.1852e-12
4.59538e-13
-2.40248e-13
3.0258e-14
-1.29629e-14
-4.69046e-15
-5.50447e-15
1.74937e-14
-2.80695e-15
1.37144e-14
2.47606e-15
-4.57782e-16
5.64373e-14
-1.50118e-14
8.21559e-15
9.09862e-15
-1.00597e-14
6.72091e-15
0
2.22261e-12
-4.32388e-13
1.38553e-13
-1.7451e-14
1.49266e-14
-1.18827e-14
-2.22354e-15
-1.27575e-14
-1.75729e-14
-1.2869e-14
1.11498e-14
-1.21757e-14
1.18087e-14
3.16681e-15
-2.71535e-14
-5.62915e-15
-2.48973e-14
-1.33175e-14
1.46793e-14
0
-1.96783e-11
2.86589e-12
-5.84764e-13
2.00309e-13
-5.95653e-14
-1.4955e-14
1.512e-14
3.81572e-14
-6.72653e-14
5.98196e-14
1.24668e-14
-4.18669e-14
1.2324e-14
1.65358e-14
3.08501e-14
-7.44814e-15
-4.36485e-14
3.47418e-14
-1.98074e-14
0
1.69136e-11
-3.07553e-12
6.55787e-13
-2.39075e-13
5.1292e-14
-3.55743e-14
-9.66117e-15
3.83521e-15
9.56001e-15
-9.32363e-15
-7.86831e-15
4.61864e-15
1.10061e-15
-1.52383e-14
4.35918e-15
-1.63023e-15
-1.16189e-14
-2.11631e-14
-1.6806e-15
0
-5.23128e-12
1.4935e-12
-2.68945e-13
1.17441e-13
-3.13711e-14
-6.21398e-15
-1.32444e-14
-1.89376e-14
-2.19655e-14
-1.46403e-14
1.71144e-15
-2.14396e-14
5.37255e-14
1.9388e-14
-2.64296e-14
-7.18751e-15
2.41472e-14
-9.75465e-16
2.91748e-14
-2.71051e-14
-7.86047e-13
1.98983e-13
1.52052e-15
-1.02024e-14
2.93742e-14
-6.00286e-15
-1.05858e-14
4.75422e-14
-1.72483e-14
2.45533e-14
2.56695e-14
7.23001e-15
1.78676e-15
2.92162e-15
-4.26471e-15
5.11083e-15
-5.82067e-14
-5.3341e-15
4.57496e-15
0
6.61363e-12
-1.77968e-12
2.84963e-13
-1.53521e-13
7.5856e-14
-3.47987e-14
-4.31618e-14
-1.41436e-14
-1.70778e-14
-4.37915e-15
9.8155e-15
-5.16085e-16
-3.01922e-14
7.61998e-15
5.53802e-15
5.50389e-14
1.67459e-14
-7.80981e-15
-2.81818e-14
0
-1.73743e-11
3.54203e-12
-7.27485e-13
3.39755e-13
-7.76093e-14
1.09219e-14
3.22184e-14
6.56301e-14
1.20313e-14
-3.84575e-14
2.29032e-14
4.46479e-15
-2.87478e-14
-2.16485e-15
1.23149e-14
-3.5963e-14
1.53636e-14
-7.36195e-15
-9.80272e-15
2.71051e-14
2.00035e-11
-3.48008e-12
7.10298e-13
-3.11543e-13
4.3964e-14
-8.59514e-15
-2.1996e-14
-6.59396e-14
2.07795e-14
6.384e-15
-3.65427e-14
-9.74162e-15
6.92577e-14
-8.52494e-15
1.91467e-14
5.5035e-15
-1.47601e-14
-2.29678e-14
-8.50958e-15
0
-4.96022e-12
1.56479e-12
-3.19225e-13
1.6405e-13
-7.01971e-14
4.19227e-14
1.67811e-14
-1.65511e-14
1.48864e-14
-1.49414e-14
5.54608e-14
-3.90061e-15
-5.85097e-14
-3.37848e-15
-3.88367e-15
7.43192e-15
5.55508e-14
1.80384e-14
-8.18087e-15
0
-1.63715e-11
1.58413e-12
-3.14232e-13
9.65993e-14
-1.49211e-14
8.49532e-15
-1.16201e-13
-1.32513e-14
5.03493e-14
5.14066e-14
-1.06023e-14
-7.23772e-14
9.25369e-15
3.21677e-14
-2.04484e-14
3.43034e-14
-4.03357e-14
-8.57267e-15
3.29718e-14
0
2.21177e-11
-2.61466e-12
5.43003e-13
-1.71374e-13
-2.67107e-15
4.61666e-14
6.06721e-14
-3.57299e-14
-5.43357e-14
-6.45666e-15
-2.57268e-14
9.17356e-14
5.88681e-14
-4.84173e-15
-3.37053e-14
-2.01768e-15
-1.28362e-14
7.02078e-16
3.48534e-14
-2.71051e-14
-4.03865e-12
1.17736e-12
-2.37591e-13
5.665e-14
-6.93358e-16
-4.13861e-14
3.35431e-15
4.05957e-15
-1.13266e-15
4.15941e-14
1.3392e-14
-4.03076e-14
-5.74679e-14
-1.07232e-14
-1.73879e-14
3.51789e-14
1.02226e-15
-7.05446e-15
1.69542e-14
0
-1.83772e-11
1.18532e-12
-2.4519e-13
1.07027e-13
-4.7367e-14
2.76159e-14
-4.74864e-15
1.32075e-14
-1.46992e-14
-1.22018e-14
-6.88668e-15
8.35673e-15
-2.4563e-14
4.34483e-14
2.71943e-14
-8.83977e-15
-2.18462e-14
-5.09134e-15
-1.06755e-14
0
1.28207e-11
-1.35525e-12
3.25261e-13
-1.0842e-13
2.71051e-14
0
2.71051e-14
0
0
-2.71051e-14
2.71051e-14
0
0
-2.71051e-14
0
0
0
0
2.71051e-14
-2.71051e-14
)
;

boundaryField
{
    movingWall
    {
        type            extrapolatedCalculated;
        value           nonuniform List<scalar> 
20
(
1.28207e-11
-1.35525e-12
3.25261e-13
-1.0842e-13
2.71051e-14
0
2.71051e-14
0
0
-2.71051e-14
2.71051e-14
0
0
-2.71051e-14
0
0
0
0
2.71051e-14
-2.71051e-14
)
;
    }
    fixedWalls
    {
        type            extrapolatedCalculated;
        value           nonuniform List<scalar> 
60
(
1.62901e-11
-3.03306e-11
1.34983e-11
9.02598e-12
-2.10064e-11
1.77538e-11
2.22261e-12
-1.96783e-11
1.69136e-11
-5.23128e-12
-7.86047e-13
6.61363e-12
-1.73743e-11
2.00035e-11
-4.96022e-12
-1.63715e-11
2.21177e-11
-4.03865e-12
-1.83772e-11
1.28207e-11
0
0
-2.71051e-14
2.71051e-14
-2.71051e-14
0
0
0
0
-2.71051e-14
0
0
2.71051e-14
0
0
0
-2.71051e-14
0
0
-2.71051e-14
1.62901e-11
-1.97393e-12
3.83476e-13
-1.1733e-13
2.48886e-15
6.18801e-15
-1.99666e-15
-1.2717e-14
5.49708e-15
-2.78344e-14
4.1459e-15
2.04072e-15
4.12599e-14
-1.7919e-14
-5.14727e-14
4.96147e-14
2.21479e-14
-3.47241e-14
-4.57262e-15
0
)
;
    }
    frontAndBack
    {
        type            empty;
    }
}


// ************************************************************************* //
