/*--------------------------------*- C++ -*----------------------------------*\
| =========                 |                                                 |
| \\      /  F ield         | OpenFOAM: The Open Source CFD Toolbox           |
|  \\    /   O peration     | Version:  2312                                  |
|   \\  /    A nd           | Website:  www.openfoam.com                      |
|    \\/     M anipulation  |                                                 |
\*---------------------------------------------------------------------------*/
FoamFile
{
    version     2.0;
    format      ascii;
    arch        "LSB;label=32;scalar=64";
    class       volScalarField;
    location    "7";
    object      dpdt2;
}
// * * * * * * * * * * * * * * * * * * * * * * * * * * * * * * * * * * * * * //

dimensions      [0 4 -6 0 0 0 0];

internalField   nonuniform List<scalar> 
400
(
3.82365e-26
1.57853e-25
3.00218e-25
5.0891e-25
7.16437e-25
9.06694e-25
1.00265e-24
1.16788e-24
1.31333e-24
1.4534e-24
1.52599e-24
1.62376e-24
1.60428e-24
1.74727e-24
1.87327e-24
1.90574e-24
1.84864e-24
2.09116e-24
1.91903e-24
1.84662e-24
1.49312e-25
2.43116e-25
3.19495e-25
5.40227e-25
7.31574e-25
8.86474e-25
1.06049e-24
1.20062e-24
1.30899e-24
1.48059e-24
1.61821e-24
1.57259e-24
1.54566e-24
1.76989e-24
1.82035e-24
1.83245e-24
1.95338e-24
2.08521e-24
2.12702e-24
1.92389e-24
3.04429e-25
3.38103e-25
4.14481e-25
5.64669e-25
7.31103e-25
8.83832e-25
1.06662e-24
1.307e-24
1.37417e-24
1.45418e-24
1.52925e-24
1.48757e-24
1.66465e-24
1.79555e-24
1.88122e-24
1.90082e-24
1.91564e-24
2.14869e-24
2.21303e-24
2.11051e-24
4.09555e-25
4.1047e-25
4.39572e-25
6.00083e-25
7.47813e-25
9.40679e-25
1.1716e-24
1.16637e-24
1.38623e-24
1.5461e-24
1.55149e-24
1.50979e-24
1.72766e-24
1.91184e-24
1.94093e-24
1.94267e-24
2.16057e-24
2.25366e-24
2.21667e-24
2.20106e-24
4.52719e-25
5.11602e-25
5.5222e-25
6.57729e-25
8.08876e-25
1.00965e-24
1.18828e-24
1.2292e-24
1.33402e-24
1.41795e-24
1.5462e-24
1.70241e-24
1.85891e-24
1.97565e-24
1.99917e-24
2.14548e-24
2.23923e-24
2.30499e-24
2.30319e-24
2.27763e-24
5.3092e-25
5.94052e-25
6.71145e-25
7.09314e-25
9.00694e-25
1.09876e-24
1.29073e-24
1.32775e-24
1.30565e-24
1.43482e-24
1.54478e-24
1.74203e-24
1.87107e-24
2.02617e-24
2.19421e-24
2.29202e-24
2.37667e-24
2.43461e-24
2.42175e-24
2.32964e-24
6.52214e-25
6.42879e-25
7.34371e-25
8.56696e-25
9.56589e-25
1.18751e-24
1.30901e-24
1.39596e-24
1.34173e-24
1.49136e-24
1.7075e-24
1.7952e-24
1.87193e-24
2.0536e-24
2.23732e-24
2.28989e-24
2.40088e-24
2.44054e-24
2.41892e-24
2.45883e-24
6.54015e-25
7.52189e-25
6.99137e-25
9.15042e-25
1.12992e-24
1.26531e-24
1.33267e-24
1.34926e-24
1.33696e-24
1.51447e-24
1.74518e-24
1.89548e-24
1.93654e-24
2.04802e-24
2.24512e-24
2.20759e-24
2.34309e-24
2.51639e-24
2.49093e-24
2.45892e-24
7.19108e-25
8.49324e-25
8.44247e-25
9.89747e-25
1.0571e-24
1.17394e-24
1.32364e-24
1.33547e-24
1.3966e-24
1.49662e-24
1.853e-24
1.90103e-24
2.00359e-24
2.04209e-24
2.18953e-24
2.21817e-24
2.34683e-24
2.35221e-24
2.35998e-24
2.4272e-24
8.35745e-25
8.90175e-25
9.96118e-25
1.06957e-24
1.18412e-24
1.21355e-24
1.25152e-24
1.32618e-24
1.44492e-24
1.62903e-24
1.76082e-24
1.83049e-24
1.99764e-24
1.95837e-24
2.08597e-24
2.17035e-24
2.19175e-24
2.16577e-24
2.40571e-24
2.29531e-24
9.1845e-25
1.01838e-24
1.05723e-24
1.15673e-24
1.33902e-24
1.27573e-24
1.29885e-24
1.39811e-24
1.5699e-24
1.63507e-24
1.61449e-24
1.73749e-24
1.92016e-24
1.99465e-24
1.93798e-24
2.01592e-24
2.01914e-24
2.16256e-24
2.22072e-24
2.22187e-24
1.09527e-24
1.07228e-24
1.16885e-24
1.28354e-24
1.39028e-24
1.24382e-24
1.37895e-24
1.50066e-24
1.43741e-24
1.55592e-24
1.62957e-24
1.63989e-24
1.75577e-24
1.88691e-24
1.8904e-24
1.89215e-24
1.96489e-24
2.02446e-24
2.05644e-24
2.15075e-24
1.24467e-24
1.29229e-24
1.29346e-24
1.39391e-24
1.39261e-24
1.35838e-24
1.44249e-24
1.4544e-24
1.43e-24
1.56113e-24
1.66602e-24
1.63566e-24
1.68276e-24
1.76445e-24
1.80872e-24
1.82021e-24
1.88833e-24
1.79994e-24
1.92298e-24
2.1757e-24
1.43101e-24
1.47124e-24
1.43377e-24
1.55605e-24
1.46723e-24
1.40185e-24
1.42997e-24
1.52296e-24
1.51913e-24
1.55597e-24
1.67291e-24
1.66079e-24
1.70859e-24
1.68814e-24
1.73115e-24
1.77574e-24
1.77294e-24
1.73381e-24
1.85668e-24
1.9834e-24
1.59847e-24
1.4691e-24
1.54997e-24
1.63725e-24
1.58767e-24
1.51395e-24
1.52628e-24
1.50939e-24
1.50182e-24
1.55793e-24
1.624e-24
1.54946e-24
1.58619e-24
1.69782e-24
1.72866e-24
1.86857e-24
1.78659e-24
1.59695e-24
1.75016e-24
1.77659e-24
1.59269e-24
1.5233e-24
1.56913e-24
1.55592e-24
1.62774e-24
1.59355e-24
1.52893e-24
1.48445e-24
1.55391e-24
1.49469e-24
1.45283e-24
1.52563e-24
1.66063e-24
1.77989e-24
1.78292e-24
1.83675e-24
1.55325e-24
1.53199e-24
1.72239e-24
1.74744e-24
1.71094e-24
1.66345e-24
1.59449e-24
1.62611e-24
1.51069e-24
1.66917e-24
1.5538e-24
1.48894e-24
1.57653e-24
1.51681e-24
1.50711e-24
1.68831e-24
1.64436e-24
1.65675e-24
1.70126e-24
1.82176e-24
1.64121e-24
1.56284e-24
1.67701e-24
1.74357e-24
1.6527e-24
1.58417e-24
1.53132e-24
1.60467e-24
1.7125e-24
1.59547e-24
1.53489e-24
1.45405e-24
1.45589e-24
1.58438e-24
1.54836e-24
1.66094e-24
1.91573e-24
1.69018e-24
1.76111e-24
1.79925e-24
1.65948e-24
1.58087e-24
1.6892e-24
1.80751e-24
1.7181e-24
1.63164e-24
1.55616e-24
1.55216e-24
1.73617e-24
1.5676e-24
1.45467e-24
1.4522e-24
1.50107e-24
1.6237e-24
1.64625e-24
1.72135e-24
1.83547e-24
1.64522e-24
1.71939e-24
1.73844e-24
1.64621e-24
1.73637e-24
1.70767e-24
1.84604e-24
1.77871e-24
1.57418e-24
1.49575e-24
1.4918e-24
1.70123e-24
1.59993e-24
1.5334e-24
1.41478e-24
1.52266e-24
1.65705e-24
1.68763e-24
1.76077e-24
1.87619e-24
1.73838e-24
1.69792e-24
1.63686e-24
1.61579e-24
1.70423e-24
1.76233e-24
1.87792e-24
)
;

boundaryField
{
    movingWall
    {
        type            calculated;
        value           nonuniform List<scalar> 
20
(
1.77871e-24
1.57418e-24
1.49575e-24
1.4918e-24
1.70123e-24
1.59993e-24
1.5334e-24
1.41478e-24
1.52266e-24
1.65705e-24
1.68763e-24
1.76077e-24
1.87619e-24
1.73838e-24
1.69792e-24
1.63686e-24
1.61579e-24
1.70423e-24
1.76233e-24
1.87792e-24
)
;
    }
    fixedWalls
    {
        type            calculated;
        value           nonuniform List<scalar> 
60
(
3.82365e-26
1.49312e-25
3.04429e-25
4.09555e-25
4.52719e-25
5.3092e-25
6.52214e-25
6.54015e-25
7.19108e-25
8.35745e-25
9.1845e-25
1.09527e-24
1.24467e-24
1.43101e-24
1.59847e-24
1.59269e-24
1.71094e-24
1.6527e-24
1.7181e-24
1.77871e-24
1.84662e-24
1.92389e-24
2.11051e-24
2.20106e-24
2.27763e-24
2.32964e-24
2.45883e-24
2.45892e-24
2.4272e-24
2.29531e-24
2.22187e-24
2.15075e-24
2.1757e-24
1.9834e-24
1.77659e-24
1.74744e-24
1.74357e-24
1.80751e-24
1.84604e-24
1.87792e-24
3.82365e-26
1.57853e-25
3.00218e-25
5.0891e-25
7.16437e-25
9.06694e-25
1.00265e-24
1.16788e-24
1.31333e-24
1.4534e-24
1.52599e-24
1.62376e-24
1.60428e-24
1.74727e-24
1.87327e-24
1.90574e-24
1.84864e-24
2.09116e-24
1.91903e-24
1.84662e-24
)
;
    }
    frontAndBack
    {
        type            empty;
    }
}


// ************************************************************************* //
