/*--------------------------------*- C++ -*----------------------------------*\
| =========                 |                                                 |
| \\      /  F ield         | OpenFOAM: The Open Source CFD Toolbox           |
|  \\    /   O peration     | Version:  2312                                  |
|   \\  /    A nd           | Website:  www.openfoam.com                      |
|    \\/     M anipulation  |                                                 |
\*---------------------------------------------------------------------------*/
FoamFile
{
    version     2.0;
    format      ascii;
    arch        "LSB;label=32;scalar=64";
    class       volScalarField;
    location    "7";
    object      dUdt2;
}
// * * * * * * * * * * * * * * * * * * * * * * * * * * * * * * * * * * * * * //

dimensions      [0 2 -4 0 0 0 0];

internalField   nonuniform List<scalar> 
400
(
2.06294e-26
1.78108e-26
4.53193e-27
4.51551e-27
4.48188e-27
5.01029e-28
4.64591e-27
2.14136e-27
1.98254e-27
4.24978e-29
6.05404e-28
4.97589e-28
4.98473e-28
4.97123e-28
2.12935e-27
2.44261e-27
4.96986e-28
1.97938e-27
9.90021e-28
1.74389e-28
2.67037e-26
6.21487e-27
3.07685e-27
2.25951e-27
2.02669e-27
1.98057e-27
1.97946e-27
1.77671e-26
1.98578e-27
2.78971e-28
2.53103e-28
2.00039e-27
2.11624e-27
1.87563e-28
1.98058e-27
1.22929e-27
2.15446e-27
4.94448e-28
1.05371e-27
2.71976e-27
2.08831e-26
3.48444e-27
2.69743e-27
1.98364e-27
2.00309e-27
1.97928e-27
9.23313e-30
1.97369e-27
4.77041e-27
5.72094e-28
3.54888e-30
2.1628e-27
1.59352e-28
1.63685e-28
1.97947e-27
2.01692e-27
4.56011e-28
1.34742e-27
7.83138e-28
9.04627e-28
4.27294e-26
1.13063e-27
9.21842e-28
1.78198e-28
3.66287e-28
1.04163e-27
1.07572e-27
6.53652e-28
4.46261e-27
2.00468e-27
7.92524e-27
6.1062e-28
2.07694e-27
4.93586e-28
6.31491e-28
1.98694e-27
2.73517e-27
1.03481e-27
2.46717e-27
6.48323e-28
1.32065e-27
5.45285e-27
3.88495e-27
8.99502e-27
5.6015e-27
2.06443e-27
3.524e-27
8.35223e-27
7.61329e-28
2.53726e-27
5.2327e-28
1.55886e-27
2.25099e-27
4.97992e-28
5.00454e-28
3.74907e-28
5.33602e-28
6.5904e-28
5.33222e-28
6.49014e-28
3.41067e-27
2.58715e-27
3.25246e-27
4.09114e-27
7.44139e-28
4.33818e-28
4.42422e-28
2.43286e-27
5.57292e-28
1.97287e-27
1.97332e-27
4.96516e-28
1.71996e-30
1.98895e-29
3.5162e-28
1.74529e-28
1.68874e-28
1.19798e-28
7.58008e-29
6.9249e-28
6.77031e-27
9.79898e-27
1.74472e-27
6.00415e-27
2.11863e-27
2.73771e-27
5.02218e-28
5.06253e-28
7.65265e-29
5.34105e-28
5.21158e-28
4.43762e-27
5.1301e-28
6.50625e-28
7.29906e-28
5.73146e-28
5.64538e-28
5.49897e-29
1.13477e-28
5.74291e-28
2.84182e-27
6.61522e-27
6.32981e-28
2.31149e-27
4.99825e-29
3.01067e-29
6.01156e-29
2.00485e-27
1.09364e-29
1.97407e-29
8.09456e-27
2.17006e-27
2.53777e-29
5.69924e-29
1.47681e-28
1.97221e-27
1.98215e-27
1.98745e-27
1.60406e-29
1.93773e-29
7.27424e-27
5.91277e-29
4.24813e-27
4.90924e-27
7.89438e-27
3.71229e-28
5.72675e-28
2.03698e-27
5.67502e-28
2.02585e-28
4.78078e-27
5.60979e-28
5.0693e-28
2.37706e-27
6.53306e-28
7.69345e-28
4.95205e-28
4.4793e-28
1.40352e-28
7.0509e-28
8.54813e-27
7.32251e-28
2.03507e-27
4.57253e-27
1.28611e-27
2.01655e-27
7.13062e-28
5.06919e-28
2.30335e-27
2.56198e-27
2.22733e-27
5.01273e-28
2.24748e-27
2.04989e-27
2.07799e-27
1.98809e-27
2.11022e-27
6.4469e-28
6.00243e-28
7.378e-28
1.78876e-26
2.23152e-27
1.99396e-27
2.01116e-27
2.04595e-28
4.95025e-28
2.16525e-27
1.22112e-27
6.21757e-28
4.43917e-27
1.1606e-27
1.8535e-27
2.17191e-27
7.16441e-28
5.13913e-28
1.01556e-27
2.0071e-27
1.97217e-27
2.7906e-28
1.9593e-28
4.82843e-26
2.03584e-27
1.07467e-29
6.28215e-30
1.88857e-29
2.09795e-27
2.88635e-27
8.44234e-28
5.80888e-28
2.0369e-27
5.39743e-28
5.05476e-28
2.07158e-27
2.02424e-27
7.42791e-31
9.36818e-29
5.13691e-28
8.5238e-28
8.40362e-28
3.54984e-29
4.62387e-27
9.27915e-27
1.12182e-30
2.07715e-27
2.00043e-27
3.79829e-29
7.91847e-27
7.90511e-27
4.94692e-28
2.16657e-30
3.31789e-28
2.51341e-27
7.42033e-31
6.97811e-28
2.13586e-27
1.5035e-29
2.08152e-27
1.99135e-27
3.35793e-30
4.59581e-27
5.45773e-27
5.76967e-28
5.34193e-28
5.87213e-28
9.91218e-29
8.42347e-31
8.3681e-28
4.46616e-27
2.54955e-27
2.17674e-27
3.99109e-29
2.16208e-27
4.70589e-27
4.48717e-27
4.97329e-28
2.61363e-28
4.94173e-28
7.90871e-27
2.40709e-30
7.88764e-28
3.54518e-27
1.28933e-27
2.13361e-27
2.12463e-28
7.02637e-29
4.58578e-28
4.92744e-28
9.87763e-29
9.38721e-29
1.97871e-27
1.0058e-27
3.24113e-27
5.82289e-28
2.11767e-27
2.19227e-27
4.36381e-28
1.98564e-27
2.28153e-27
2.0128e-27
6.77944e-28
8.88844e-27
1.41131e-27
6.57311e-28
2.08254e-27
8.11097e-27
1.99178e-27
2.05571e-27
6.19846e-28
1.99127e-27
2.12915e-27
5.0496e-28
2.24662e-27
7.89243e-27
1.98449e-27
1.9749e-27
7.51721e-31
2.0765e-27
1.98458e-27
2.40004e-29
2.35374e-30
1.08529e-26
4.99451e-28
1.98636e-27
2.03475e-27
1.56714e-29
2.09458e-27
2.18288e-27
4.92803e-28
4.83247e-27
2.92459e-29
2.18509e-27
2.17026e-27
8.10098e-27
6.2034e-29
2.29622e-27
5.02001e-28
1.97349e-27
1.00176e-29
5.13463e-30
2.01598e-27
1.09913e-26
1.16378e-27
3.13416e-28
7.00613e-28
8.17261e-28
1.97477e-27
4.5309e-27
8.3874e-29
9.20268e-29
2.30522e-27
5.19472e-28
7.21243e-28
2.73553e-27
2.1044e-28
1.99513e-27
2.15785e-27
2.94671e-30
5.68088e-29
7.13234e-32
2.88941e-29
3.09439e-28
2.13198e-27
6.96601e-29
2.15217e-28
2.94362e-29
3.57147e-29
4.93069e-29
1.9066e-29
5.57324e-30
6.82857e-30
1.65486e-28
2.1626e-27
2.03671e-27
2.10117e-27
2.03039e-27
5.36516e-28
5.4534e-28
6.13403e-28
2.07038e-30
8.03519e-30
3.19104e-27
2.73246e-30
5.19518e-28
1.67953e-28
5.06257e-28
5.61326e-28
3.71569e-29
8.754e-29
5.60056e-29
4.98042e-28
1.11095e-31
2.95417e-29
6.08018e-28
9.53388e-28
2.07439e-27
2.02801e-27
6.90428e-29
5.84654e-30
6.80384e-31
8.54797e-30
)
;

boundaryField
{
    movingWall
    {
        type            calculated;
        value           uniform 0;
    }
    fixedWalls
    {
        type            calculated;
        value           uniform 0;
    }
    frontAndBack
    {
        type            empty;
    }
}


// ************************************************************************* //
