/*--------------------------------*- C++ -*----------------------------------*\
| =========                 |                                                 |
| \\      /  F ield         | OpenFOAM: The Open Source CFD Toolbox           |
|  \\    /   O peration     | Version:  2312                                  |
|   \\  /    A nd           | Website:  www.openfoam.com                      |
|    \\/     M anipulation  |                                                 |
\*---------------------------------------------------------------------------*/
FoamFile
{
    version     2.0;
    format      ascii;
    arch        "LSB;label=32;scalar=64";
    class       volScalarField;
    location    "7";
    object      enstrophyField;
}
// * * * * * * * * * * * * * * * * * * * * * * * * * * * * * * * * * * * * * //

dimensions      [0 0 -2 0 0 0 0];

internalField   nonuniform List<scalar> 
400
(
8.29888e-23
1.36513e-22
6.75563e-24
3.44656e-25
1.28603e-26
6.68307e-28
8.40103e-29
3.37693e-31
9.96448e-30
1.24167e-27
1.59012e-27
1.89596e-27
2.21849e-27
1.12269e-30
4.08226e-28
1.28119e-28
3.24752e-28
2.78177e-28
3.88249e-29
7.66294e-30
3.50826e-25
2.21023e-25
3.5654e-27
4.69436e-27
7.90932e-27
3.72249e-27
5.25082e-27
6.2731e-28
5.67454e-29
4.57804e-30
3.8341e-28
3.52428e-27
1.19829e-27
4.85125e-27
1.16283e-28
6.27212e-28
2.52266e-28
4.9089e-30
1.4848e-29
3.19031e-28
2.17316e-23
7.54169e-23
4.59775e-24
1.36558e-25
5.62808e-26
6.36516e-27
7.66418e-27
2.53963e-27
2.01978e-30
1.85141e-28
5.81394e-27
1.46849e-26
3.5448e-27
2.20067e-28
3.47268e-30
3.74048e-29
2.99425e-27
5.55821e-28
2.96267e-29
1.07971e-29
2.63142e-23
7.33708e-23
3.66008e-24
2.72571e-25
2.3187e-27
3.58639e-27
1.55423e-28
1.43527e-28
1.04311e-28
1.12319e-27
2.02656e-27
2.23941e-27
1.96365e-27
4.68572e-27
4.5534e-27
1.55632e-27
1.00593e-27
2.06632e-28
2.27533e-27
9.46542e-29
4.70956e-24
6.61153e-24
3.67605e-25
1.74499e-26
2.8434e-28
3.28591e-27
9.6795e-28
4.59673e-29
1.7498e-27
2.62239e-27
5.32386e-29
2.83549e-28
1.96601e-27
7.26957e-28
4.82829e-28
2.06633e-27
2.87928e-27
5.47181e-30
6.0109e-28
2.56521e-28
1.00322e-23
3.07972e-23
1.54757e-24
1.0762e-25
1.25446e-27
2.34301e-28
2.13624e-28
1.87868e-27
1.80853e-29
5.44754e-29
7.36288e-29
1.52726e-29
3.11617e-30
2.43688e-29
2.20199e-29
4.45478e-28
3.57631e-30
1.61687e-29
1.05901e-30
1.80025e-29
3.51506e-23
8.79442e-23
5.17251e-24
1.77051e-25
4.63537e-26
5.62168e-27
1.81944e-26
8.90507e-28
6.85995e-27
6.62157e-27
9.9115e-28
1.70379e-28
1.32431e-27
6.49686e-27
1.43446e-27
2.28266e-28
1.82199e-27
1.65422e-27
2.4684e-29
4.30984e-29
1.15203e-23
1.91304e-23
1.04571e-24
4.76809e-26
1.33474e-26
7.61433e-29
1.57407e-27
5.58209e-30
3.89246e-29
1.75535e-27
5.38763e-29
4.32856e-29
1.99885e-27
1.51848e-28
3.3196e-29
1.82604e-28
8.79332e-29
1.01464e-27
1.05117e-29
2.86626e-29
2.47567e-24
1.02617e-23
6.78832e-25
3.2697e-27
3.61052e-26
1.64894e-26
1.30945e-26
8.87834e-27
3.0369e-27
1.28789e-27
3.01619e-27
1.00186e-27
9.65382e-29
8.02357e-27
6.34975e-29
1.4062e-27
1.66244e-30
7.81377e-28
4.08166e-29
2.17318e-28
3.09124e-23
4.51036e-23
2.56947e-24
7.49642e-26
2.60547e-26
1.10675e-28
6.6173e-29
1.43653e-28
7.09541e-28
1.82582e-27
4.52775e-29
3.77487e-29
5.46707e-28
1.56205e-29
3.06682e-28
7.57063e-29
1.65239e-29
2.50095e-28
3.60311e-29
2.45394e-29
4.12005e-23
4.82431e-23
2.67922e-24
1.19685e-25
5.83029e-27
5.44649e-28
2.93494e-28
1.02789e-30
1.82882e-27
2.03885e-27
8.81905e-27
2.79919e-27
1.93735e-28
3.87768e-27
3.19938e-28
1.27014e-28
1.07336e-31
4.77038e-29
2.72581e-28
2.81741e-28
2.72375e-23
4.18171e-23
2.1042e-24
1.32927e-25
6.29259e-27
1.95692e-27
3.02432e-27
1.80666e-28
1.3979e-28
3.24094e-28
1.87732e-27
1.29742e-27
3.56401e-27
4.57153e-27
3.63921e-27
9.37938e-28
9.37525e-28
4.00478e-28
4.56145e-28
3.72377e-30
1.84555e-24
7.28578e-24
3.45993e-25
2.53549e-26
5.65954e-28
1.94482e-27
4.2275e-30
3.90644e-27
1.43595e-27
3.42369e-27
5.53544e-27
2.56923e-27
2.9102e-27
6.50932e-27
7.18005e-28
3.72502e-27
2.57558e-30
7.0626e-28
1.30487e-30
2.38123e-29
1.06055e-23
2.29223e-23
1.12958e-24
6.86266e-26
2.06863e-27
2.27766e-29
2.80827e-28
1.46085e-27
6.4267e-27
4.454e-29
6.192e-28
1.11211e-28
7.51106e-28
5.97662e-28
1.25569e-27
3.23786e-29
3.36928e-27
3.64637e-29
6.84464e-28
1.71905e-28
4.34582e-23
1.0476e-22
5.5893e-24
2.53152e-25
2.68526e-26
1.25031e-29
1.21821e-26
7.71879e-27
2.26942e-27
1.05922e-28
3.99215e-27
2.38196e-27
7.35566e-27
4.31359e-27
4.16301e-27
7.2814e-27
3.51453e-28
8.77608e-28
1.44878e-28
1.68608e-29
2.68233e-23
5.36737e-23
2.91163e-24
1.11717e-25
1.82866e-26
5.68576e-29
5.63324e-27
7.956e-27
7.47154e-28
3.38509e-28
1.82034e-28
2.01428e-27
4.38638e-27
4.27505e-27
3.43916e-28
5.82662e-28
1.26498e-28
3.901e-30
9.33095e-29
1.85139e-28
1.14517e-24
5.87467e-25
3.5648e-26
9.44578e-28
9.91346e-27
6.26573e-27
8.77062e-27
1.41275e-26
3.73432e-27
1.59951e-29
1.95347e-28
9.51132e-28
3.58924e-29
3.65899e-29
1.40201e-27
2.2489e-27
3.63695e-28
4.24269e-27
1.62941e-28
1.50347e-28
6.8062e-24
5.42722e-23
2.71637e-24
1.28942e-25
1.42153e-26
8.00983e-29
8.69379e-27
1.40899e-27
1.9663e-28
2.74951e-27
4.17281e-30
2.67579e-29
3.58581e-27
5.9159e-28
3.26098e-28
2.09828e-28
3.34075e-30
9.16087e-30
7.58756e-30
5.63688e-28
5.68814e-24
1.22165e-23
7.55124e-25
1.54029e-26
2.95792e-27
3.70593e-29
3.73389e-27
1.65724e-27
1.3033e-27
1.94838e-28
3.07587e-28
6.63915e-28
1.51807e-27
2.29462e-28
6.83759e-28
2.41683e-27
1.56878e-28
7.51037e-28
5.71333e-30
1.42574e-28
1.08043e-23
2.82383e-23
1.21211e-24
9.19702e-26
1.6078e-27
1.31213e-27
1.5838e-28
1.13388e-27
1.39131e-27
3.79576e-28
1.66645e-28
1.05194e-27
3.94049e-29
1.06144e-27
7.56685e-28
1.13236e-27
2.303e-28
1.15623e-31
7.39066e-32
6.63133e-28
)
;

boundaryField
{
    movingWall
    {
        type            calculated;
        value           nonuniform List<scalar> 
20
(
8.25861e-23
4.74576e-23
1.12137e-24
2.86562e-25
1.66791e-26
4.22172e-26
4.54678e-26
4.62911e-26
3.51109e-26
1.58568e-26
2.27262e-26
2.28344e-26
4.77219e-27
5.80907e-27
6.95847e-29
3.37817e-27
7.5138e-28
1.15623e-31
7.39066e-32
1.44302e-27
)
;
    }
    fixedWalls
    {
        type            calculated;
        value           nonuniform List<scalar> 
60
(
2.44709e-21
2.35657e-24
1.40474e-21
1.34149e-21
1.23687e-22
5.56779e-22
1.63688e-21
3.50737e-22
1.97655e-22
8.52484e-22
8.95143e-22
7.59884e-22
1.25263e-22
4.12699e-22
1.90234e-21
9.85189e-22
1.12069e-23
9.81184e-22
2.25992e-22
4.96272e-22
1.65365e-28
6.29704e-28
1.19285e-29
4.09744e-28
2.39974e-31
2.87441e-28
5.28211e-29
1.23763e-30
1.12547e-29
2.87231e-28
3.37204e-28
1.22496e-29
1.50176e-28
1.02293e-27
1.64296e-28
2.70929e-28
7.23774e-29
5.41027e-28
2.2697e-29
8.8882e-28
2.12214e-22
1.85221e-22
6.08422e-24
7.35229e-25
7.61144e-27
4.59085e-26
4.40213e-26
1.59235e-26
1.65802e-26
9.46741e-27
8.58616e-27
6.85999e-28
7.29948e-27
1.60445e-26
1.99594e-27
2.65068e-27
9.1546e-28
6.18786e-30
6.33574e-28
7.66294e-30
)
;
    }
    frontAndBack
    {
        type            empty;
    }
}


// ************************************************************************* //
