/*--------------------------------*- C++ -*----------------------------------*\
| =========                 |                                                 |
| \\      /  F ield         | OpenFOAM: The Open Source CFD Toolbox           |
|  \\    /   O peration     | Version:  2312                                  |
|   \\  /    A nd           | Website:  www.openfoam.com                      |
|    \\/     M anipulation  |                                                 |
\*---------------------------------------------------------------------------*/
FoamFile
{
    version     2.0;
    format      ascii;
    arch        "LSB;label=32;scalar=64";
    class       volScalarField;
    location    "7";
    object      flowTypeField;
}
// * * * * * * * * * * * * * * * * * * * * * * * * * * * * * * * * * * * * * //

dimensions      [0 0 0 0 0 0 0];

internalField   nonuniform List<scalar> 
400
(
0.381838
0.0457412
0.0239618
0.0514135
0.201286
0.0136671
0.662263
0.933004
0.303203
0.166471
-0.0366523
-0.133257
-0.0503985
0.953656
0.667661
0.651813
0.304414
0.354161
0.100122
0.403843
0.963863
0.882253
0.935522
0.687253
0.1908
-0.0544455
0.158059
0.375093
0.750633
0.910276
0.0658793
-0.0123007
-0.0516974
0.169315
0.685579
0.347855
0.371134
0.837575
0.16675
0.072671
0.591385
0.125396
0.0248197
0.258483
-0.602626
0.222094
-0.00583142
0.250277
0.913859
0.623058
-0.0495893
-0.224705
-0.0346471
0.323832
0.891168
0.793831
-0.360343
-0.216437
0.670119
0.763784
0.483493
0.0995761
0.0654824
-0.0490657
0.546233
-0.296484
0.679439
0.702334
0.682414
0.188538
0.438108
-0.189673
0.0225102
0.0484872
-0.145934
0.274359
0.24438
0.439143
0.126926
0.0635959
0.827647
0.409126
0.417477
0.393316
0.628747
0.0176767
-0.0407558
0.617393
-0.79208
-0.143748
0.609396
0.0926755
-0.142473
-0.395981
0.00631459
-0.0988645
-0.138164
0.831645
0.359194
0.160814
0.73035
0.178176
0.168452
0.0379732
0.561629
0.00526227
0.233117
-0.065693
0.712417
0.645416
0.427124
0.0828474
0.697227
0.821899
0.690649
-0.0768386
0.599913
0.776717
0.72076
0.145197
0.303706
0.0795622
-0.0248868
0.185609
-0.778273
0.216493
-0.0052884
0.224235
-0.0767047
-0.0562256
0.249533
0.490041
0.071821
-0.0509979
0.125165
0.27648
0.0151016
-0.0582475
0.287528
0.155142
0.7226
0.212809
0.176567
0.206877
-0.415695
0.0276686
0.307027
0.936532
0.796704
0.477325
0.662546
0.602192
-0.164134
0.44386
0.810404
0.288654
0.700793
0.374544
0.391736
0.273415
0.836766
0.272037
0.179893
0.738824
-0.324545
-0.053469
-0.192871
0.018031
0.0883798
0.166785
-0.213716
-0.500174
0.197776
-0.166011
0.0013933
-0.712586
0.880184
0.0193129
0.251551
0.237678
0.161508
0.0421073
-0.0559555
0.228112
-0.686663
0.635242
0.691824
0.691581
0.380108
0.063481
0.256124
0.608218
0.573145
0.337888
0.555954
0.0810623
0.853853
0.191774
0.628599
0.680385
-0.128048
-0.00266301
-0.0614599
0.000769579
0.226265
0.309935
0.10722
0.904741
0.0102341
-0.01062
-0.177948
-0.374421
0.0063437
-0.546663
0.381259
0.186907
0.970202
0.0784068
0.138202
0.146683
0.22664
0.0312333
-0.0145938
-0.0320603
0.104791
-0.0221571
-0.217963
0.310365
0.418648
0.0611218
-0.102426
0.38713
0.29475
-0.172047
0.0248584
0.39489
0.271453
-0.0386099
0.202785
0.387473
0.856976
0.292149
0.308066
0.266392
0.633077
-0.0797747
0.923211
0.233744
0.0119475
0.159063
-0.268914
-0.310186
-0.205329
-0.383386
0.141471
0.00103805
0.858699
-0.376459
0.699834
0.825717
0.733542
0.185499
0.201324
0.160822
0.340586
0.5923
0.304468
0.358033
-0.37799
0.461106
0.102912
0.64408
0.611479
-0.225312
0.0812454
0.440758
0.0748237
0.64747
-0.353385
5.55299e-05
0.296669
0.0654315
0.00241159
0.115137
-0.227964
0.889624
-0.145995
-0.143726
0.18702
0.536038
0.140734
-0.259872
0.00693713
-0.1384
-0.119503
-0.112114
0.509176
0.303462
0.362566
0.732273
0.58581
0.123654
0.0617015
0.219831
-0.355116
0.47532
0.211435
-0.131068
0.643083
0.664869
0.137654
0.323311
-0.132497
-0.0665558
0.303919
0.115888
0.478038
0.879296
0.697856
0.283552
0.916102
0.776271
0.76737
0.83286
-0.0733179
0.0817953
-0.0667304
-0.105105
0.250582
0.772334
0.186026
0.588447
0.789677
0.67021
0.289264
-0.211962
0.000104197
-0.1234
0.394082
0.406645
0.641826
0.133082
0.0970081
0.178542
-0.144807
0.625074
-0.214179
0.0451413
0.473608
-0.10984
0.666064
0.837492
-0.0218619
-0.225299
0.0742479
0.595644
0.859145
0.811741
0.512925
-0.228058
0.800127
0.328422
0.27205
0.49146
-0.0480133
0.690455
-0.0566742
0.0861217
0.0835169
0.264873
0.324111
0.0808348
0.0521597
0.701811
0.0871655
-0.102377
0.491108
-0.412654
0.00974734
0.369048
0.644167
0.122292
0.170467
-0.00842959
0.405802
-0.864447
0.489568
0.217665
0.143853
0.282235
0.481312
0.256519
0.694653
-0.0450902
-0.424154
0.130625
0.459337
0.73923
0.949228
0.093508
)
;

boundaryField
{
    movingWall
    {
        type            calculated;
        value           nonuniform List<scalar> 
20
(
0.572417
0.10846
0.355883
-0.219092
0.35465
-0.0900968
0.0340778
0.0298268
0.0202001
0.0301104
0.0581671
0.0892448
0.150415
-0.0563604
0.104309
0.0783585
0.278618
0.886967
0.95748
0.0219528
)
;
    }
    fixedWalls
    {
        type            calculated;
        value           nonuniform List<scalar> 
60
(
0.0460778
0.913447
0.107296
0.0883765
0.421975
0.182502
0.058195
0.215621
0.264554
0.0147996
-0.0254034
0.020878
0.321855
0.198351
0.0558783
0.116603
0.783499
0.125601
0.333313
0.135629
0.0569708
-0.287951
0.83955
0.410255
0.96692
0.0133742
0.134198
0.688339
0.873945
0.470011
0.0707986
0.222803
0.754216
9.53957e-06
0.564666
0.138771
0.817539
-0.203777
0.732867
0.21153
0.660331
0.150701
0.293762
-0.00565984
0.643828
-0.133849
0.0579623
0.0284409
0.00198839
-0.000115523
0.0313901
0.280055
0.163914
0.106993
0.467955
0.294092
0.198509
0.832216
0.196384
0.705085
)
;
    }
    frontAndBack
    {
        type            empty;
    }
}


// ************************************************************************* //
