/*--------------------------------*- C++ -*----------------------------------*\
| =========                 |                                                 |
| \\      /  F ield         | OpenFOAM: The Open Source CFD Toolbox           |
|  \\    /   O peration     | Version:  2312                                  |
|   \\  /    A nd           | Website:  www.openfoam.com                      |
|    \\/     M anipulation  |                                                 |
\*---------------------------------------------------------------------------*/
FoamFile
{
    version     2.0;
    format      ascii;
    arch        "LSB;label=32;scalar=64";
    class       surfaceScalarField;
    location    "7";
    object      fluxField;
}
// * * * * * * * * * * * * * * * * * * * * * * * * * * * * * * * * * * * * * //

dimensions      [0 3 -1 0 0 0 0];

oriented        oriented;

internalField   nonuniform List<scalar> 
760
(
-5e-05
4.33836e-18
-5e-05
-9.20387e-19
-5e-05
2.24618e-19
-5e-05
-4.28851e-20
-5e-05
1.41747e-20
-5e-05
1.547e-21
-5e-05
6.2771e-21
-5e-05
3.59702e-21
-5e-05
1.37427e-21
-5e-05
-1.82326e-22
-5e-05
1.03647e-21
-5e-05
5.10179e-22
-5e-05
3.53871e-21
-5e-05
9.07278e-21
-5e-05
7.46062e-21
-5e-05
-1.14886e-21
-5e-05
-1.2393e-21
-5e-05
-1.90476e-21
-5e-05
-1.14316e-21
1.66057e-21
-5e-05
-3.70257e-18
-5e-05
8.28557e-19
-5e-05
-1.81396e-19
-5e-05
4.93444e-20
-5e-05
-6.19191e-21
-5e-05
3.68822e-21
-5e-05
7.2451e-22
-5e-05
-1.64433e-21
-5e-05
-1.46129e-21
-5e-05
2.97109e-21
-5e-05
4.10586e-21
-5e-05
-3.51166e-21
-5e-05
-4.19669e-21
-5e-05
1.22964e-21
-5e-05
1.63125e-21
-5e-05
-3.24173e-21
-5e-05
-9.04497e-22
-5e-05
1.39127e-21
-5e-05
-1.28773e-22
8.29215e-22
-5e-05
-1.3812e-19
-5e-05
5.28689e-20
-5e-05
-1.31602e-21
-5e-05
5.04298e-21
-5e-05
-1.03879e-21
-5e-05
-8.21545e-22
-5e-05
-2.98519e-21
-5e-05
-2.29986e-21
-5e-05
2.06698e-21
-5e-05
8.5898e-21
-5e-05
8.58116e-21
-5e-05
-4.0307e-22
-5e-05
-3.55999e-21
-5e-05
-3.23873e-21
-5e-05
-5.90131e-21
-5e-05
-7.42617e-21
-5e-05
-4.13425e-21
-5e-05
7.06735e-22
-5e-05
2.50703e-21
2.09444e-21
-5e-05
2.47964e-18
-5e-05
-5.32025e-19
-5e-05
1.29912e-19
-5e-05
-2.93339e-20
-5e-05
5.58443e-21
-5e-05
4.28721e-22
-5e-05
4.67806e-21
-5e-05
7.02073e-21
-5e-05
4.82159e-21
-5e-05
2.61858e-21
-5e-05
1.97241e-21
-5e-05
2.83477e-21
-5e-05
4.7474e-21
-5e-05
2.84419e-21
-5e-05
-1.88164e-21
-5e-05
-1.6769e-21
-5e-05
-4.7958e-21
-5e-05
-4.75659e-21
-5e-05
1.11346e-21
3.43994e-21
-5e-05
-3.22957e-18
-5e-05
6.98731e-19
-5e-05
-1.6192e-19
-5e-05
3.77683e-20
-5e-05
-6.0073e-21
-5e-05
4.10276e-21
-5e-05
6.11867e-21
-5e-05
9.93498e-21
-5e-05
5.4934e-21
-5e-05
4.18341e-22
-5e-05
-1.66877e-21
-5e-05
-3.57069e-23
-5e-05
2.903e-21
-5e-05
2.71233e-21
-5e-05
1.89202e-21
-5e-05
3.3789e-21
-5e-05
5.90745e-23
-5e-05
-1.37127e-21
-5e-05
-5.35546e-22
3.14931e-21
-5e-05
1.54972e-18
-5e-05
-3.36237e-19
-5e-05
8.10033e-20
-5e-05
-1.2628e-20
-5e-05
7.56449e-21
-5e-05
3.53554e-21
-5e-05
5.60365e-21
-5e-05
5.40014e-21
-5e-05
4.37343e-21
-5e-05
6.07453e-21
-5e-05
3.42861e-21
-5e-05
6.19015e-22
-5e-05
-1.14445e-22
-5e-05
5.56792e-22
-5e-05
3.02331e-21
-5e-05
2.0539e-21
-5e-05
2.27465e-21
-5e-05
4.26133e-21
-5e-05
1.68023e-21
2.14093e-21
-5e-05
2.10876e-18
-5e-05
-4.60463e-19
-5e-05
1.15953e-19
-5e-05
-1.79153e-20
-5e-05
1.05079e-20
-5e-05
3.8056e-21
-5e-05
6.22038e-21
-5e-05
3.58688e-21
-5e-05
2.38304e-21
-5e-05
3.55901e-21
-5e-05
2.78744e-21
-5e-05
3.73234e-21
-5e-05
2.95217e-21
-5e-05
7.91703e-22
-5e-05
-1.21017e-23
-5e-05
-1.40729e-21
-5e-05
5.51939e-22
-5e-05
3.4469e-21
-5e-05
3.66983e-21
5.44059e-22
-5e-05
-3.05553e-18
-5e-05
6.69038e-19
-5e-05
-1.46191e-19
-5e-05
4.33011e-20
-5e-05
-1.3388e-21
-5e-05
3.03752e-21
-5e-05
-2.99625e-21
-5e-05
-4.01322e-21
-5e-05
-3.26381e-21
-5e-05
-5.37388e-21
-5e-05
-3.65956e-21
-5e-05
3.0858e-21
-5e-05
3.08099e-21
-5e-05
-2.6423e-21
-5e-05
-5.84001e-21
-5e-05
-1.86204e-21
-5e-05
2.64041e-21
-5e-05
1.90919e-21
-5e-05
1.82443e-21
-1.49587e-21
-5e-05
1.22963e-18
-5e-05
-2.53887e-19
-5e-05
6.9079e-20
-5e-05
-5.55859e-21
-5e-05
1.2823e-20
-5e-05
4.65894e-21
-5e-05
-2.41529e-21
-5e-05
-5.81746e-21
-5e-05
-4.38626e-21
-5e-05
-2.33091e-21
-5e-05
-1.96708e-21
-5e-05
1.15466e-21
-5e-05
2.75153e-22
-5e-05
-3.80958e-21
-5e-05
-5.68647e-21
-5e-05
-4.07558e-22
-5e-05
3.87154e-21
-5e-05
1.48548e-21
-5e-05
-4.20151e-22
-2.89554e-21
-5e-05
2.09221e-20
-5e-05
1.42328e-20
-5e-05
7.30268e-21
-5e-05
2.25518e-21
-5e-05
5.70976e-21
-5e-05
5.22277e-21
-5e-05
3.46517e-21
-5e-05
2.04185e-21
-5e-05
1.28489e-21
-5e-05
3.11618e-21
-5e-05
4.2786e-22
-5e-05
-5.3599e-21
-5e-05
-6.89741e-21
-5e-05
-1.92927e-21
-5e-05
1.68854e-22
-5e-05
-1.79688e-21
-5e-05
-7.39458e-22
-5e-05
-2.43866e-22
-5e-05
5.1743e-22
-1.42702e-21
-5e-05
-1.21576e-19
-5e-05
4.29696e-20
-5e-05
-6.39613e-21
-5e-05
-2.5506e-21
-5e-05
-6.20898e-21
-5e-05
-1.50072e-21
-5e-05
4.12981e-21
-5e-05
5.1093e-21
-5e-05
2.46418e-21
-5e-05
-6.37949e-22
-5e-05
-3.58898e-22
-5e-05
-4.96876e-21
-5e-05
-6.32957e-21
-5e-05
7.30405e-22
-5e-05
5.71009e-21
-5e-05
1.27771e-21
-5e-05
-9.99152e-22
-5e-05
-1.33352e-21
-5e-05
1.14374e-21
3.80336e-22
-5e-05
1.37611e-18
-5e-05
-2.95841e-19
-5e-05
7.12408e-20
-5e-05
-1.80515e-20
-5e-05
-1.36478e-21
-5e-05
-1.9234e-21
-5e-05
2.76207e-21
-5e-05
3.24037e-21
-5e-05
2.50682e-21
-5e-05
-1.09479e-21
-5e-05
2.45387e-21
-5e-05
6.64724e-21
-5e-05
6.00447e-21
-5e-05
1.905e-21
-5e-05
1.38451e-21
-5e-05
2.07206e-22
-5e-05
-2.58978e-21
-5e-05
-1.95245e-21
-5e-05
-2.69196e-22
-7.73813e-22
-5e-05
-2.95088e-18
-5e-05
6.55114e-19
-5e-05
-1.4799e-19
-5e-05
3.7505e-20
-5e-05
-5.84979e-21
-5e-05
2.73048e-21
-5e-05
-5.49792e-21
-5e-05
-3.92127e-21
-5e-05
3.00782e-21
-5e-05
3.93816e-21
-5e-05
5.7258e-21
-5e-05
7.89246e-21
-5e-05
6.36558e-21
-5e-05
-5.41213e-22
-5e-05
-3.69755e-21
-5e-05
-2.21449e-21
-5e-05
-2.93535e-21
-5e-05
-1.84049e-21
-5e-05
-2.45068e-21
-3.91011e-21
-5e-05
2.19844e-18
-5e-05
-4.63444e-19
-5e-05
1.09812e-19
-5e-05
-2.36756e-20
-5e-05
4.21474e-21
-5e-05
-2.14879e-21
-5e-05
-5.49901e-21
-5e-05
-2.93238e-21
-5e-05
5.19486e-21
-5e-05
8.37226e-21
-5e-05
4.41686e-21
-5e-05
-2.4354e-21
-5e-05
-3.01437e-21
-5e-05
-2.13124e-21
-5e-05
-1.9896e-21
-5e-05
1.37587e-21
-5e-05
3.08624e-21
-5e-05
1.03431e-21
-5e-05
-2.1274e-21
-3.95989e-21
-5e-05
1.18586e-18
-5e-05
-2.66101e-19
-5e-05
6.24953e-20
-5e-05
-1.31975e-20
-5e-05
2.7795e-21
-5e-05
-3.07185e-21
-5e-05
-2.58098e-21
-5e-05
-4.13777e-21
-5e-05
-3.05467e-21
-5e-05
3.04091e-21
-5e-05
3.12669e-22
-5e-05
-9.75151e-22
-5e-05
-1.0749e-21
-5e-05
-8.4462e-22
-5e-05
-9.70918e-22
-5e-05
1.85798e-21
-5e-05
3.35183e-22
-5e-05
-2.26666e-21
-5e-05
-2.04522e-21
-1.37215e-21
-5e-05
-3.36666e-18
-5e-05
7.2807e-19
-5e-05
-1.66649e-19
-5e-05
4.44786e-20
-5e-05
-3.73028e-21
-5e-05
2.12383e-21
-5e-05
-1.94531e-21
-5e-05
-1.00891e-20
-5e-05
-1.45177e-20
-5e-05
-7.47715e-21
-5e-05
-2.65057e-21
-5e-05
2.23449e-21
-5e-05
2.31342e-21
-5e-05
1.26567e-21
-5e-05
1.66416e-21
-5e-05
1.79957e-21
-5e-05
-3.30765e-21
-5e-05
-8.91943e-21
-5e-05
-5.30958e-21
-9.91165e-22
-5e-05
2.67267e-18
-5e-05
-5.72349e-19
-5e-05
1.35751e-19
-5e-05
-2.92911e-20
-5e-05
6.1085e-21
-5e-05
-2.01087e-21
-5e-05
1.6155e-21
-5e-05
-2.15621e-21
-5e-05
-6.80766e-21
-5e-05
-8.39043e-21
-5e-05
-6.4317e-21
-5e-05
-4.17115e-21
-5e-05
1.16449e-21
-5e-05
5.56583e-21
-5e-05
5.1262e-21
-5e-05
-5.0442e-22
-5e-05
-3.20904e-21
-5e-05
-6.60074e-21
-5e-05
-4.83917e-21
-1.11381e-21
-5e-05
1.76349e-18
-5e-05
-3.90062e-19
-5e-05
8.96799e-20
-5e-05
-2.64951e-20
-5e-05
-1.73339e-22
-5e-05
-3.57026e-21
-5e-05
8.38577e-22
-5e-05
1.01489e-21
-5e-05
-2.83165e-22
-5e-05
-3.15399e-21
-5e-05
-3.42826e-21
-5e-05
-3.30062e-21
-5e-05
-8.1444e-22
-5e-05
4.09546e-21
-5e-05
2.42928e-21
-5e-05
-4.7578e-21
-5e-05
-6.5207e-21
-5e-05
-1.76362e-21
-5e-05
-2.53771e-21
-1.63482e-21
-5e-05
-3.48075e-18
-5e-05
7.43564e-19
-5e-05
-1.76494e-19
-5e-05
3.35329e-20
-5e-05
-1.18418e-20
-5e-05
1.27714e-22
-5e-05
-1.18716e-21
-5e-05
-3.4744e-21
-5e-05
-3.6748e-21
-5e-05
-3.05046e-21
-5e-05
-1.72167e-21
-5e-05
-4.68708e-21
-5e-05
-6.14075e-21
-5e-05
-2.69046e-21
-5e-05
2.23004e-23
-5e-05
-2.20994e-21
-5e-05
-5.46154e-21
-5e-05
-1.27283e-21
-5e-05
-2.66887e-21
-2.21403e-21
-5e-05
-5e-05
-5e-05
-5e-05
-5e-05
-5e-05
-5e-05
-5e-05
-5e-05
-5e-05
-5e-05
-5e-05
-5e-05
-5e-05
-5e-05
-5e-05
-5e-05
-5e-05
-5e-05
)
;

boundaryField
{
    movingWall
    {
        type            calculated;
        value           uniform -0;
    }
    fixedWalls
    {
        type            calculated;
        value           nonuniform List<scalar> 
60
(
5e-05
5e-05
5e-05
5e-05
5e-05
5e-05
5e-05
5e-05
5e-05
5e-05
5e-05
5e-05
5e-05
5e-05
5e-05
5e-05
5e-05
5e-05
5e-05
5e-05
-5e-05
-5e-05
-5e-05
-5e-05
-5e-05
-5e-05
-5e-05
-5e-05
-5e-05
-5e-05
-5e-05
-5e-05
-5e-05
-5e-05
-5e-05
-5e-05
-5e-05
-5e-05
-5e-05
-5e-05
0
0
0
0
0
0
0
0
0
0
0
0
0
0
0
0
0
0
0
0
)
;
    }
    frontAndBack
    {
        type            empty;
        value           nonuniform List<scalar> 0();
    }
}


// ************************************************************************* //
