/*--------------------------------*- C++ -*----------------------------------*\
| =========                 |                                                 |
| \\      /  F ield         | OpenFOAM: The Open Source CFD Toolbox           |
|  \\    /   O peration     | Version:  2312                                  |
|   \\  /    A nd           | Website:  www.openfoam.com                      |
|    \\/     M anipulation  |                                                 |
\*---------------------------------------------------------------------------*/
FoamFile
{
    version     2.0;
    format      ascii;
    arch        "LSB;label=32;scalar=64";
    class       volTensorField;
    location    "7";
    object      gradU;
}
// * * * * * * * * * * * * * * * * * * * * * * * * * * * * * * * * * * * * * //

dimensions      [0 0 -1 0 0 0 0];

internalField   nonuniform List<tensor> 
400
(
(-1.0571e-12 1.39403e-11 0 1.0571e-12 1.73534e-11 0 0 0 0)
(1.70762e-12 -1.68488e-11 0 -3.25261e-13 -3.68155e-12 0 0 0 0)
(-5.14996e-13 3.62156e-12 0 -5.42101e-14 8.98472e-13 0 0 0 0)
(5.42101e-14 -8.57353e-13 0 -2.71051e-14 -1.7154e-13 0 0 0 0)
(-5.42101e-14 1.87481e-13 0 2.71051e-14 5.6699e-14 0 0 0 0)
(0 -3.65597e-14 0 0 6.18801e-15 0 0 0 0)
(-2.71051e-14 1.41428e-14 0 2.71051e-14 2.51084e-14 0 0 0 0)
(-2.71051e-14 -8.21819e-16 0 0 1.43881e-14 0 0 0 0)
(0 -4.46419e-15 0 0 5.49708e-15 0 0 0 0)
(-2.71051e-14 -4.37708e-15 0 -5.42101e-14 -7.29306e-16 0 0 0 0)
(0 2.18355e-15 0 -5.42101e-14 4.1459e-15 0 0 0 0)
(0 7.36844e-15 0 -5.42101e-14 2.04072e-15 0 0 0 0)
(2.71051e-14 1.24006e-14 0 -5.42101e-14 1.41548e-14 0 0 0 0)
(-5.42101e-14 -1.49846e-15 0 0 3.62911e-14 0 0 0 0)
(-8.13152e-14 -2.56365e-14 0 -5.42101e-14 2.98425e-14 0 0 0 0)
(5.42101e-14 -1.60074e-14 0 0 -4.59546e-15 0 0 0 0)
(2.71051e-14 1.61967e-15 0 2.71051e-14 -4.9572e-15 0 0 0 0)
(-2.71051e-14 3.51791e-15 0 2.71051e-14 -7.61903e-15 0 0 0 0)
(0 8.81191e-15 0 0 -4.57262e-15 0 0 0 0)
(0 -3.91483e-15 0 0 6.64227e-15 0 0 0 0)
(1.81604e-12 -2.68441e-13 0 5.69206e-13 -3.21637e-11 0 0 0 0)
(-2.76472e-12 3.93815e-13 0 -2.71051e-13 6.99577e-12 0 0 0 0)
(7.86047e-13 -1.11549e-13 0 -2.71051e-14 -1.62406e-12 0 0 0 0)
(0 1.55802e-14 0 -8.13152e-14 3.68918e-13 0 0 0 0)
(0 -9.75312e-15 0 -1.35525e-13 -8.14666e-14 0 0 0 0)
(0 4.96917e-15 0 -8.13152e-14 8.56486e-15 0 0 0 0)
(5.42101e-14 -5.9427e-15 0 -1.0842e-13 -2.22104e-14 0 0 0 0)
(0 -1.87895e-14 0 -5.42101e-14 -2.09654e-14 0 0 0 0)
(5.42101e-14 -1.06532e-14 0 0 -1.13422e-14 0 0 0 0)
(-5.42101e-14 3.0259e-15 0 0 1.26137e-14 0 0 0 0)
(0 5.86475e-16 0 -2.71051e-14 1.22775e-14 0 0 0 0)
(0 2.64051e-15 0 -8.13152e-14 -1.60874e-14 0 0 0 0)
(0 2.18498e-14 0 -2.71051e-14 -3.09416e-14 0 0 0 0)
(8.13152e-14 1.71861e-14 0 -8.13152e-14 -3.13726e-14 0 0 0 0)
(5.42101e-14 -1.52501e-14 0 0 -2.33175e-14 0 0 0 0)
(0 -1.87922e-14 0 -5.42101e-14 -8.37148e-15 0 0 0 0)
(2.71051e-14 -4.64325e-15 0 -2.71051e-14 1.33922e-15 0 0 0 0)
(-2.71051e-14 -3.13334e-15 0 0 1.31841e-14 0 0 0 0)
(0 5.44939e-15 0 0 4.05753e-15 0 0 0 0)
(0 1.84518e-15 0 2.71051e-14 -3.32541e-15 0 0 0 0)
(-7.58942e-13 -1.12276e-11 0 -4.63496e-12 1.42578e-11 0 0 0 0)
(1.11131e-12 1.36909e-11 0 1.40946e-12 -3.10275e-12 0 0 0 0)
(-3.52366e-13 -3.0053e-12 0 2.71051e-14 7.20319e-13 0 0 0 0)
(-5.42101e-14 6.85236e-13 0 1.6263e-13 -1.77206e-13 0 0 0 0)
(5.42101e-14 -1.72872e-13 0 1.6263e-13 2.06125e-14 0 0 0 0)
(-5.42101e-14 2.26965e-14 0 1.35525e-13 -1.8039e-14 0 0 0 0)
(5.42101e-14 -1.53875e-14 0 1.0842e-13 -1.48388e-14 0 0 0 0)
(5.42101e-14 1.00463e-14 0 8.13152e-14 -2.62211e-15 0 0 0 0)
(0 2.91149e-14 0 2.71051e-14 1.41131e-14 0 0 0 0)
(-5.42101e-14 1.92427e-14 0 0 2.24748e-14 0 0 0 0)
(-5.42101e-14 -2.65175e-14 0 8.13152e-14 1.79012e-14 0 0 0 0)
(-2.71051e-14 -3.58507e-14 0 1.35525e-13 1.24344e-14 0 0 0 0)
(0 -2.88459e-15 0 8.13152e-14 2.54681e-15 0 0 0 0)
(0 6.12568e-15 0 2.71051e-14 -1.78735e-14 0 0 0 0)
(2.71051e-14 -2.63541e-15 0 0 -3.01303e-14 0 0 0 0)
(5.42101e-14 8.64925e-15 0 0 -1.67377e-14 0 0 0 0)
(0 2.31753e-14 0 -5.42101e-14 -1.2919e-14 0 0 0 0)
(0 6.23623e-15 0 -2.71051e-14 -2.73815e-15 0 0 0 0)
(2.71051e-14 -7.69762e-15 0 0 1.05432e-14 0 0 0 0)
(-2.71051e-14 -4.64695e-15 0 0 5.0609e-15 0 0 0 0)
(-1.43657e-12 1.08866e-11 0 3.63208e-12 1.0471e-11 0 0 0 0)
(1.87025e-12 -1.31437e-11 0 -1.02999e-12 -2.33958e-12 0 0 0 0)
(-4.60786e-13 2.814e-12 0 1.0842e-13 5.24914e-13 0 0 0 0)
(8.13152e-14 -6.84127e-13 0 5.42101e-14 -1.37508e-13 0 0 0 0)
(0 1.49414e-13 0 8.13152e-14 2.64929e-14 0 0 0 0)
(2.71051e-14 -3.04821e-14 0 5.42101e-14 5.00106e-15 0 0 0 0)
(-5.42101e-14 9.47424e-15 0 2.71051e-14 3.0653e-14 0 0 0 0)
(-5.42101e-14 1.01624e-14 0 2.71051e-14 3.72824e-14 0 0 0 0)
(-5.42101e-14 1.44437e-14 0 0 1.10184e-14 0 0 0 0)
(0 6.81401e-15 0 5.42101e-14 -2.38849e-14 0 0 0 0)
(1.0842e-13 -9.45399e-15 0 5.42101e-14 -2.6435e-14 0 0 0 0)
(0 -1.27139e-14 0 5.42101e-14 1.29514e-14 0 0 0 0)
(0 -8.45804e-15 0 5.42101e-14 3.32295e-14 0 0 0 0)
(-5.42101e-14 -1.5491e-14 0 8.13152e-14 2.43317e-14 0 0 0 0)
(0 -1.41144e-14 0 8.13152e-14 1.60787e-14 0 0 0 0)
(-5.42101e-14 -1.58101e-15 0 5.42101e-14 2.29971e-14 0 0 0 0)
(-2.71051e-14 9.35635e-15 0 5.42101e-14 -2.64617e-15 0 0 0 0)
(2.71051e-14 2.03289e-14 0 0 -2.18533e-14 0 0 0 0)
(5.42101e-14 1.32484e-14 0 -5.42101e-14 -5.57428e-15 0 0 0 0)
(0 -1.37589e-14 0 0 5.38198e-15 0 0 0 0)
(1.84314e-12 -3.09616e-12 0 -2.71051e-14 -2.28368e-11 0 0 0 0)
(-2.43945e-12 3.74477e-12 0 1.0842e-13 4.92302e-12 0 0 0 0)
(7.31836e-13 -8.03233e-13 0 5.42101e-14 -1.16733e-12 0 0 0 0)
(-5.42101e-14 1.86815e-13 0 0 2.68409e-13 0 0 0 0)
(0 -3.03631e-14 0 -5.42101e-14 -4.63669e-14 0 0 0 0)
(-5.42101e-14 2.68566e-14 0 -5.42101e-14 1.46962e-14 0 0 0 0)
(2.71051e-14 1.68938e-14 0 -2.71051e-14 5.76242e-15 0 0 0 0)
(2.71051e-14 -9.58825e-15 0 0 1.1657e-14 0 0 0 0)
(0 -3.20524e-14 0 2.71051e-14 2.68724e-15 0 0 0 0)
(-2.71051e-14 -1.82107e-14 0 5.42101e-14 -8.80094e-15 0 0 0 0)
(-2.71051e-14 1.03188e-14 0 0 -1.45647e-14 0 0 0 0)
(0 2.38138e-14 0 0 -1.14819e-14 0 0 0 0)
(0 8.4957e-15 0 -5.42101e-14 -7.3776e-15 0 0 0 0)
(0 -1.10252e-14 0 2.71051e-14 -5.27426e-16 0 0 0 0)
(0 -3.97e-15 0 2.71051e-14 1.50946e-14 0 0 0 0)
(0 -1.00756e-14 0 5.42101e-14 2.02232e-14 0 0 0 0)
(-2.71051e-14 -2.16751e-14 0 5.42101e-14 1.94195e-14 0 0 0 0)
(-2.71051e-14 3.30811e-15 0 0 1.35413e-14 0 0 0 0)
(0 1.95377e-14 0 5.42101e-14 -6.59602e-15 0 0 0 0)
(0 -4.45464e-15 0 -2.71051e-14 -1.1625e-15 0 0 0 0)
(-1.38236e-12 -7.0272e-12 0 -2.54788e-12 1.91172e-11 0 0 0 0)
(1.95156e-12 8.52583e-12 0 6.77626e-13 -4.13987e-12 0 0 0 0)
(-5.14996e-13 -1.84062e-12 0 -8.13152e-14 9.71692e-13 0 0 0 0)
(-2.71051e-14 4.36834e-13 0 -2.71051e-14 -2.01586e-13 0 0 0 0)
(-2.71051e-14 -1.04299e-13 0 -5.42101e-14 5.42872e-14 0 0 0 0)
(0 2.16472e-14 0 0 -2.26888e-15 0 0 0 0)
(0 6.43507e-15 0 2.71051e-14 -2.06007e-15 0 0 0 0)
(0 7.08719e-15 0 -5.42101e-14 -1.81393e-14 0 0 0 0)
(2.71051e-14 -6.01421e-15 0 0 -4.47987e-15 0 0 0 0)
(-2.71051e-14 -1.04379e-14 0 0 2.26247e-14 0 0 0 0)
(0 -1.2135e-14 0 0 2.03895e-14 0 0 0 0)
(0 -5.52676e-15 0 0 2.61889e-15 0 0 0 0)
(0 2.49646e-15 0 0 -1.20698e-14 0 0 0 0)
(5.42101e-14 6.98123e-15 0 0 -8.62217e-15 0 0 0 0)
(-2.71051e-14 6.63625e-15 0 0 4.52516e-15 0 0 0 0)
(0 2.74384e-15 0 -2.71051e-14 -5.3e-15 0 0 0 0)
(0 2.67444e-15 0 0 8.86232e-15 0 0 0 0)
(-2.71051e-14 -5.6866e-15 0 0 2.25304e-14 0 0 0 0)
(0 -1.45534e-15 0 0 8.86309e-15 0 0 0 0)
(0 -6.00041e-15 0 0 -4.03351e-15 0 0 0 0)
(0 1.18811e-11 0 3.49655e-12 2.23616e-12 0 0 0 0)
(5.42101e-14 -1.44007e-11 0 -1.13841e-12 -4.96904e-13 0 0 0 0)
(0 3.13505e-12 0 -8.13152e-14 1.39801e-13 0 0 0 0)
(0 -7.30589e-13 0 -1.35525e-13 -2.1149e-14 0 0 0 0)
(0 1.68954e-13 0 -1.35525e-13 1.17737e-14 0 0 0 0)
(0 -2.94906e-14 0 -1.35525e-13 1.08023e-15 0 0 0 0)
(0 1.02335e-15 0 -1.89735e-13 2.46692e-15 0 0 0 0)
(0 -1.20081e-14 0 -5.42101e-14 -7.25304e-15 0 0 0 0)
(0 8.71173e-15 0 -1.0842e-13 -7.96156e-15 0 0 0 0)
(0 6.65863e-15 0 -1.0842e-13 -1.00621e-14 0 0 0 0)
(2.71051e-14 -9.68708e-15 0 -5.42101e-14 -2.56466e-15 0 0 0 0)
(-2.71051e-14 -8.64544e-15 0 -2.71051e-14 1.24533e-14 0 0 0 0)
(0 -2.74536e-15 0 -5.42101e-14 1.22665e-14 0 0 0 0)
(0 5.56977e-15 0 -1.0842e-13 9.39644e-16 0 0 0 0)
(-2.71051e-14 -6.47831e-16 0 -5.42101e-14 -1.21416e-14 0 0 0 0)
(0 -5.73845e-15 0 -2.71051e-14 -1.38447e-14 0 0 0 0)
(-2.71051e-14 6.15529e-15 0 -5.42101e-14 -6.89086e-15 0 0 0 0)
(0 3.30889e-15 0 -5.42101e-14 -3.25771e-15 0 0 0 0)
(0 -7.02624e-15 0 0 7.95842e-15 0 0 0 0)
(0 -9.28423e-15 0 0 -6.38749e-15 0 0 0 0)
(9.75782e-13 -5.28794e-12 0 -4.87891e-13 -2.06572e-11 0 0 0 0)
(-1.65341e-12 6.42948e-12 0 2.43945e-13 4.518e-12 0 0 0 0)
(4.60786e-13 -1.36486e-12 0 8.13152e-14 -1.04858e-12 0 0 0 0)
(-5.42101e-14 3.08807e-13 0 0 2.44866e-13 0 0 0 0)
(0 -8.207e-14 0 8.13152e-14 -4.73868e-14 0 0 0 0)
(0 1.23404e-14 0 0 -3.07233e-15 0 0 0 0)
(5.42101e-14 -1.89821e-15 0 5.42101e-14 -3.68665e-14 0 0 0 0)
(8.13152e-14 -3.34128e-15 0 0 -3.04004e-14 0 0 0 0)
(-5.42101e-14 -8.82322e-15 0 0 -2.25874e-14 0 0 0 0)
(1.0842e-13 -5.04105e-15 0 5.42101e-14 -3.57316e-14 0 0 0 0)
(2.71051e-14 1.03804e-14 0 0 -2.5788e-14 0 0 0 0)
(-2.71051e-14 9.30436e-15 0 0 -2.5862e-15 0 0 0 0)
(0 -9.01721e-15 0 5.42101e-14 5.15285e-16 0 0 0 0)
(2.71051e-14 -1.74269e-14 0 0 -1.3736e-14 0 0 0 0)
(5.42101e-14 -8.14813e-15 0 0 -2.33116e-14 0 0 0 0)
(0 7.99461e-15 0 2.71051e-14 -1.81899e-15 0 0 0 0)
(-5.42101e-14 1.32615e-14 0 0 8.35388e-15 0 0 0 0)
(5.42101e-14 9.16268e-15 0 5.42101e-14 -6.15085e-15 0 0 0 0)
(0 -4.58512e-15 0 0 -7.38163e-15 0 0 0 0)
(0 -7.57134e-15 0 0 -8.15972e-15 0 0 0 0)
(-2.1684e-13 -4.25804e-12 0 -2.03288e-12 1.71407e-11 0 0 0 0)
(6.23416e-13 5.20789e-12 0 6.77626e-13 -3.6917e-12 0 0 0 0)
(-2.1684e-13 -1.13808e-12 0 2.71051e-14 8.6108e-13 0 0 0 0)
(-5.42101e-14 2.70602e-13 0 1.89735e-13 -1.95439e-13 0 0 0 0)
(0 -7.89844e-14 0 1.89735e-13 5.66472e-14 0 0 0 0)
(-5.42101e-14 -1.89703e-14 0 1.6263e-13 6.48571e-15 0 0 0 0)
(0 -2.63047e-14 0 1.35525e-13 2.32384e-15 0 0 0 0)
(0 2.27108e-15 0 1.35525e-13 -7.21697e-15 0 0 0 0)
(2.71051e-14 3.38057e-15 0 8.13152e-14 -4.48982e-15 0 0 0 0)
(-2.71051e-14 3.45804e-15 0 5.42101e-14 1.21719e-14 0 0 0 0)
(-2.71051e-14 2.34583e-14 0 -5.42101e-14 6.76992e-15 0 0 0 0)
(0 1.76578e-14 0 -2.71051e-14 -7.72454e-15 0 0 0 0)
(0 -1.38952e-14 0 0 -1.12234e-14 0 0 0 0)
(0 -1.82571e-14 0 1.0842e-13 -4.66908e-15 0 0 0 0)
(0 1.12692e-14 0 0 6.14143e-16 0 0 0 0)
(0 2.5927e-14 0 -2.71051e-14 5.81791e-15 0 0 0 0)
(-2.71051e-14 1.82342e-15 0 0 4.92451e-15 0 0 0 0)
(-2.71051e-14 -1.24266e-14 0 2.71051e-14 -1.69484e-15 0 0 0 0)
(0 -9.03511e-15 0 0 -8.97831e-15 0 0 0 0)
(0 6.25712e-15 0 2.71051e-14 -5.59866e-15 0 0 0 0)
(-4.06576e-13 8.16103e-12 0 2.98156e-13 -4.83485e-12 0 0 0 0)
(4.33681e-13 -9.85011e-12 0 -3.52366e-13 1.07248e-12 0 0 0 0)
(-2.71051e-14 2.1314e-12 0 -1.35525e-13 -2.47105e-13 0 0 0 0)
(8.13152e-14 -4.95626e-13 0 -1.0842e-13 3.12551e-14 0 0 0 0)
(0 1.19855e-13 0 -1.0842e-13 -2.84529e-14 0 0 0 0)
(0 -4.19829e-14 0 -2.71051e-14 2.2553e-15 0 0 0 0)
(-2.71051e-14 -1.56009e-14 0 -2.71051e-14 2.35219e-14 0 0 0 0)
(-5.42101e-14 -1.01549e-14 0 -2.71051e-14 3.14373e-14 0 0 0 0)
(-5.42101e-14 1.05656e-14 0 -2.71051e-14 2.26846e-14 0 0 0 0)
(-2.71051e-14 6.2187e-15 0 -5.42101e-14 2.17884e-14 0 0 0 0)
(0 -9.51604e-15 0 0 9.57975e-15 0 0 0 0)
(0 -8.68892e-15 0 0 -2.60582e-14 0 0 0 0)
(8.13152e-14 -5.96175e-15 0 2.71051e-14 -2.86903e-14 0 0 0 0)
(0 -5.58936e-15 0 0 7.52122e-15 0 0 0 0)
(-5.42101e-14 2.33886e-15 0 2.71051e-14 2.34213e-14 0 0 0 0)
(0 1.2305e-14 0 0 -5.55727e-15 0 0 0 0)
(5.42101e-14 5.74871e-15 0 0 -1.8444e-14 0 0 0 0)
(0 -4.74014e-15 0 -2.71051e-14 -6.91737e-15 0 0 0 0)
(2.71051e-14 -8.48895e-15 0 0 3.75032e-15 0 0 0 0)
(-2.71051e-14 7.00563e-15 0 0 5.87409e-15 0 0 0 0)
(-2.1684e-13 -8.02041e-12 0 1.0571e-12 -5.69992e-13 0 0 0 0)
(8.13152e-14 9.79563e-12 0 -2.71051e-14 1.14947e-13 0 0 0 0)
(5.42101e-14 -2.17931e-12 0 1.35525e-13 -5.47952e-14 0 0 0 0)
(0 4.89254e-13 0 0 -1.92232e-14 0 0 0 0)
(8.13152e-14 -1.07984e-13 0 0 -4.7675e-14 0 0 0 0)
(2.71051e-14 3.30045e-14 0 0 -2.68939e-14 0 0 0 0)
(0 2.87721e-15 0 2.71051e-14 2.65854e-15 0 0 0 0)
(2.71051e-14 1.4338e-15 0 0 1.22698e-14 0 0 0 0)
(-2.71051e-14 -6.26831e-15 0 5.42101e-14 4.71718e-15 0 0 0 0)
(2.71051e-14 -9.64681e-15 0 5.42101e-14 -1.50165e-14 0 0 0 0)
(2.71051e-14 -2.43883e-14 0 1.0842e-13 -3.14703e-15 0 0 0 0)
(0 -2.06122e-14 0 5.42101e-14 1.56456e-15 0 0 0 0)
(0 1.96843e-14 0 0 2.27134e-15 0 0 0 0)
(0 3.38544e-14 0 -5.42101e-14 1.06387e-14 0 0 0 0)
(-2.71051e-14 -1.80929e-15 0 -2.71051e-14 2.21649e-14 0 0 0 0)
(0 -1.59382e-14 0 0 1.22983e-14 0 0 0 0)
(-5.42101e-14 4.63327e-16 0 0 -1.03878e-15 0 0 0 0)
(0 9.76769e-15 0 0 -4.35863e-15 0 0 0 0)
(0 3.75635e-15 0 2.71051e-14 2.50524e-15 0 0 0 0)
(0 -3.36729e-15 0 -2.71051e-14 7.22941e-15 0 0 0 0)
(6.23416e-13 7.70598e-12 0 3.25261e-13 5.99075e-12 0 0 0 0)
(-4.33681e-13 -9.33491e-12 0 -1.89735e-13 -1.35524e-12 0 0 0 0)
(-2.71051e-14 1.99723e-12 0 -5.42101e-14 3.10548e-13 0 0 0 0)
(-8.13152e-14 -4.88506e-13 0 2.71051e-14 -6.20036e-14 0 0 0 0)
(5.42101e-14 1.12184e-13 0 0 1.93768e-14 0 0 0 0)
(-2.71051e-14 8.35064e-15 0 -5.42101e-14 -1.69074e-15 0 0 0 0)
(-2.71051e-14 2.35628e-14 0 -5.42101e-14 -5.47094e-15 0 0 0 0)
(0 -8.0963e-15 0 -2.71051e-14 -7.4757e-15 0 0 0 0)
(-2.71051e-14 -1.67207e-14 0 0 1.70563e-16 0 0 0 0)
(0 -1.64552e-15 0 -2.71051e-14 -1.82735e-15 0 0 0 0)
(0 7.06506e-15 0 -5.42101e-14 1.12511e-14 0 0 0 0)
(-5.42101e-14 -3.27055e-15 0 -5.42101e-14 4.6464e-14 0 0 0 0)
(-8.13152e-14 3.11239e-15 0 -8.13152e-14 4.93362e-14 0 0 0 0)
(0 1.43042e-14 0 -8.13152e-14 4.69837e-15 0 0 0 0)
(2.71051e-14 3.9985e-15 0 -8.13152e-14 -1.73023e-14 0 0 0 0)
(5.42101e-14 -1.08987e-14 0 -5.42101e-14 -4.28201e-15 0 0 0 0)
(2.71051e-14 -1.09083e-14 0 -5.42101e-14 -6.3625e-15 0 0 0 0)
(0 -1.19612e-15 0 2.71051e-14 -2.47572e-15 0 0 0 0)
(-2.71051e-14 3.09909e-15 0 -2.71051e-14 -5.65174e-15 0 0 0 0)
(0 -2.72902e-15 0 0 -4.6166e-15 0 0 0 0)
(-8.13152e-14 -3.3849e-12 0 -1.46367e-12 -1.7308e-11 0 0 0 0)
(-2.71051e-13 4.11543e-12 0 2.98156e-13 3.80382e-12 0 0 0 0)
(1.6263e-13 -8.86068e-13 0 -5.42101e-14 -8.76923e-13 0 0 0 0)
(1.0842e-13 1.98083e-13 0 -2.71051e-14 2.22226e-13 0 0 0 0)
(-5.42101e-14 -4.76713e-14 0 -8.13152e-14 -1.794e-14 0 0 0 0)
(0 8.15679e-15 0 -5.42101e-14 1.86155e-14 0 0 0 0)
(5.42101e-14 -2.90775e-15 0 0 -3.304e-14 0 0 0 0)
(8.13152e-14 7.0753e-15 0 -8.13152e-14 -2.86466e-14 0 0 0 0)
(0 -6.19962e-16 0 -5.42101e-14 2.00398e-15 0 0 0 0)
(-5.42101e-14 1.43372e-15 0 -8.13152e-14 2.01318e-14 0 0 0 0)
(0 2.39031e-14 0 -8.13152e-14 1.30877e-14 0 0 0 0)
(0 1.74729e-14 0 -5.42101e-14 4.98087e-15 0 0 0 0)
(-2.71051e-14 -2.20814e-14 0 5.42101e-14 1.44443e-15 0 0 0 0)
(0 -3.27841e-14 0 8.13152e-14 -9.78484e-15 0 0 0 0)
(2.71051e-14 -1.07897e-14 0 2.71051e-14 -2.03282e-14 0 0 0 0)
(-2.71051e-14 -4.9984e-15 0 8.13152e-14 -9.6868e-15 0 0 0 0)
(2.71051e-14 2.26962e-15 0 0 -1.3823e-15 0 0 0 0)
(0 1.04784e-14 0 -2.71051e-14 4.47865e-16 0 0 0 0)
(0 1.61547e-15 0 0 -8.72593e-15 0 0 0 0)
(5.42101e-14 6.90105e-15 0 0 -1.25452e-14 0 0 0 0)
(-5.69206e-13 -5.79815e-12 0 -1.19262e-12 2.05973e-11 0 0 0 0)
(1.00289e-12 7.09612e-12 0 3.25261e-13 -4.47423e-12 0 0 0 0)
(-3.25261e-13 -1.58437e-12 0 -8.13152e-14 1.03121e-12 0 0 0 0)
(-5.42101e-14 3.70477e-13 0 0 -2.44722e-13 0 0 0 0)
(0 -9.14266e-14 0 -2.71051e-14 4.02581e-14 0 0 0 0)
(0 -6.74932e-15 0 0 -1.9517e-14 0 0 0 0)
(-2.71051e-14 -2.36992e-14 0 0 -4.37338e-18 0 0 0 0)
(-8.13152e-14 2.69477e-14 0 -2.71051e-14 3.95557e-15 0 0 0 0)
(0 3.20577e-14 0 -8.13152e-14 8.74818e-15 0 0 0 0)
(0 9.43822e-15 0 0 1.77364e-14 0 0 0 0)
(-2.71051e-14 -8.08586e-15 0 2.71051e-14 -5.23576e-15 0 0 0 0)
(2.71051e-14 -1.49138e-14 0 0 -4.13115e-14 0 0 0 0)
(1.0842e-13 -1.16533e-14 0 2.71051e-14 -3.75198e-14 0 0 0 0)
(0 -7.46841e-15 0 2.71051e-14 -6.36009e-15 0 0 0 0)
(0 4.09654e-15 0 5.42101e-14 6.83179e-15 0 0 0 0)
(0 8.04718e-15 0 0 1.43615e-14 0 0 0 0)
(-2.71051e-14 -7.73591e-16 0 8.13152e-14 2.40864e-14 0 0 0 0)
(-2.71051e-14 -8.53975e-15 0 0 1.14992e-14 0 0 0 0)
(0 -9.89397e-15 0 2.71051e-14 1.29314e-15 0 0 0 0)
(0 1.85421e-14 0 0 -1.99108e-16 0 0 0 0)
(-9.21572e-13 1.27381e-11 0 3.41524e-12 -4.05032e-12 0 0 0 0)
(7.86047e-13 -1.54506e-11 0 -9.75782e-13 7.89371e-13 0 0 0 0)
(-1.35525e-13 3.34344e-12 0 0 -1.89266e-13 0 0 0 0)
(1.35525e-13 -7.92866e-13 0 -8.13152e-14 4.19123e-14 0 0 0 0)
(-5.42101e-14 1.77534e-13 0 -5.42101e-14 -5.74093e-15 0 0 0 0)
(5.42101e-14 -3.21057e-14 0 -2.71051e-14 -3.69227e-15 0 0 0 0)
(0 2.05649e-14 0 -1.35525e-13 1.16721e-14 0 0 0 0)
(0 1.58279e-14 0 -1.0842e-13 -4.82156e-15 0 0 0 0)
(5.42101e-14 1.31609e-14 0 -5.42101e-14 -3.29981e-14 0 0 0 0)
(0 -1.25502e-14 0 -2.71051e-14 -2.13254e-14 0 0 0 0)
(8.13152e-14 -3.51448e-14 0 5.42101e-14 -1.64168e-14 0 0 0 0)
(0 -1.48111e-14 0 5.42101e-14 5.84101e-15 0 0 0 0)
(-5.42101e-14 1.287e-14 0 -1.0842e-13 7.75788e-15 0 0 0 0)
(0 1.15675e-14 0 -8.13152e-14 5.14647e-15 0 0 0 0)
(0 9.93191e-15 0 -8.13152e-14 4.07472e-15 0 0 0 0)
(0 1.22562e-14 0 -1.0842e-13 1.92842e-15 0 0 0 0)
(5.42101e-14 -5.92669e-16 0 -2.71051e-14 -1.10042e-14 0 0 0 0)
(2.71051e-14 -1.23148e-14 0 -5.42101e-14 -1.32039e-14 0 0 0 0)
(0 -1.00828e-14 0 -2.71051e-14 3.28715e-16 0 0 0 0)
(-2.71051e-14 5.80702e-15 0 0 1.0351e-14 0 0 0 0)
(1.84314e-12 -9.0591e-12 0 -1.73472e-12 -1.82101e-11 0 0 0 0)
(-2.38524e-12 1.09572e-11 0 5.96311e-13 3.97668e-12 0 0 0 0)
(5.96311e-13 -2.33183e-12 0 8.13152e-14 -9.16579e-13 0 0 0 0)
(-1.35525e-13 5.54002e-13 0 8.13152e-14 2.30705e-13 0 0 0 0)
(0 -1.37031e-13 0 5.42101e-14 -2.60392e-14 0 0 0 0)
(0 1.06637e-14 0 0 2.07827e-14 0 0 0 0)
(-1.0842e-13 -2.48285e-14 0 8.13152e-14 2.54271e-15 0 0 0 0)
(0 -1.77226e-14 0 1.0842e-13 -2.38053e-14 0 0 0 0)
(1.0842e-13 1.55538e-14 0 5.42101e-14 -4.58522e-14 0 0 0 0)
(8.13152e-14 2.60196e-14 0 0 -4.20722e-14 0 0 0 0)
(0 1.90806e-14 0 0 -1.1853e-14 0 0 0 0)
(-8.13152e-14 9.26082e-15 0 -5.42101e-14 1.28386e-14 0 0 0 0)
(0 -1.23479e-14 0 8.13152e-14 1.35533e-14 0 0 0 0)
(2.71051e-14 -1.11516e-14 0 8.13152e-14 8.44117e-15 0 0 0 0)
(-2.71051e-14 8.78491e-16 0 2.71051e-14 1.05403e-14 0 0 0 0)
(2.71051e-14 -7.03179e-15 0 2.71051e-14 -2.3362e-16 0 0 0 0)
(-2.71051e-14 -1.59059e-14 0 0 -1.45713e-14 0 0 0 0)
(2.71051e-14 2.79321e-15 0 0 -2.66111e-14 0 0 0 0)
(5.42101e-14 1.36609e-14 0 0 -1.30574e-14 0 0 0 0)
(0 7.86243e-15 0 2.71051e-14 1.52393e-15 0 0 0 0)
(-2.03288e-12 -1.49527e-12 0 -3.00866e-12 2.41573e-11 0 0 0 0)
(2.57498e-12 1.84289e-12 0 7.58942e-13 -5.20168e-12 0 0 0 0)
(-6.77626e-13 -4.02538e-13 0 -1.35525e-13 1.2096e-12 0 0 0 0)
(1.35525e-13 9.76745e-14 0 5.42101e-14 -2.95079e-13 0 0 0 0)
(-5.42101e-14 -3.23879e-14 0 1.0842e-13 3.93551e-14 0 0 0 0)
(5.42101e-14 -3.52381e-15 0 1.0842e-13 -1.65388e-14 0 0 0 0)
(5.42101e-14 -2.40231e-14 0 1.0842e-13 1.42432e-14 0 0 0 0)
(-5.42101e-14 -3.25671e-14 0 1.35525e-13 3.17315e-14 0 0 0 0)
(-8.13152e-14 -5.10607e-15 0 8.13152e-14 3.08403e-14 0 0 0 0)
(0 2.14491e-14 0 2.71051e-14 -3.65312e-15 0 0 0 0)
(0 1.9766e-14 0 0 -1.51245e-14 0 0 0 0)
(1.0842e-13 1.05951e-14 0 5.42101e-14 -2.56226e-14 0 0 0 0)
(5.42101e-14 8.47259e-15 0 0 -4.59573e-15 0 0 0 0)
(-2.71051e-14 8.55452e-15 0 0 1.72006e-14 0 0 0 0)
(-5.42101e-14 1.25711e-15 0 5.42101e-14 1.38482e-14 0 0 0 0)
(0 -1.28555e-14 0 5.42101e-14 -9.21598e-15 0 0 0 0)
(0 -2.69702e-14 0 0 3.94449e-16 0 0 0 0)
(0 -1.08009e-14 0 8.13152e-14 9.27475e-15 0 0 0 0)
(2.71051e-14 1.80522e-14 0 0 1.88163e-15 0 0 0 0)
(-2.71051e-14 1.73405e-14 0 0 -4.9058e-16 0 0 0 0)
(-4.06576e-13 9.89655e-12 0 6.20706e-12 -3.63674e-12 0 0 0 0)
(4.60786e-13 -1.19906e-11 0 -1.57209e-12 7.29147e-13 0 0 0 0)
(-5.42101e-14 2.57477e-12 0 2.43945e-13 -1.84284e-13 0 0 0 0)
(5.42101e-14 -6.16244e-13 0 -1.0842e-13 1.1184e-14 0 0 0 0)
(2.71051e-14 1.41509e-13 0 -2.71051e-14 -2.51273e-14 0 0 0 0)
(-2.71051e-14 -1.44482e-14 0 -2.71051e-14 -6.23755e-15 0 0 0 0)
(0 2.34418e-14 0 -1.0842e-13 -3.10768e-15 0 0 0 0)
(0 -1.12553e-15 0 -5.42101e-14 1.26844e-14 0 0 0 0)
(-2.71051e-14 -1.98308e-14 0 0 2.6098e-14 0 0 0 0)
(2.71051e-14 -1.99452e-14 0 5.42101e-14 2.09457e-14 0 0 0 0)
(0 -2.88888e-15 0 0 1.20138e-14 0 0 0 0)
(-5.42101e-14 1.97896e-14 0 2.71051e-14 3.48212e-15 0 0 0 0)
(-5.42101e-14 3.04753e-14 0 -5.42101e-14 -7.91572e-15 0 0 0 0)
(0 7.29233e-15 0 -2.71051e-14 -5.8815e-15 0 0 0 0)
(0 -2.55381e-14 0 0 -1.07877e-14 0 0 0 0)
(5.42101e-14 -2.04855e-14 0 0 -1.70135e-14 0 0 0 0)
(2.71051e-14 2.58486e-15 0 0 -1.32466e-14 0 0 0 0)
(-2.71051e-14 4.28039e-15 0 0 1.93485e-14 0 0 0 0)
(0 3.89553e-15 0 0 9.20584e-15 0 0 0 0)
(0 6.47138e-15 0 -2.71051e-14 -2.08403e-15 0 0 0 0)
(2.60209e-12 -4.40286e-12 0 -1.02999e-12 -2.09769e-11 0 0 0 0)
(-3.36103e-12 5.29534e-12 0 3.52366e-13 4.5345e-12 0 0 0 0)
(8.13152e-13 -1.1205e-12 0 1.0842e-13 -1.0647e-12 0 0 0 0)
(-1.35525e-13 2.56831e-13 0 8.13152e-14 2.40112e-13 0 0 0 0)
(0 -4.98094e-14 0 2.71051e-14 -4.66737e-14 0 0 0 0)
(0 1.84958e-14 0 2.71051e-14 1.47919e-14 0 0 0 0)
(0 -5.10116e-15 0 8.13152e-14 -8.10295e-15 0 0 0 0)
(2.71051e-14 -3.36144e-15 0 5.42101e-14 -1.79572e-14 0 0 0 0)
(0 3.15526e-15 0 5.42101e-14 -1.35665e-14 0 0 0 0)
(0 7.36486e-15 0 2.71051e-14 4.14121e-16 0 0 0 0)
(-2.71051e-14 2.30235e-15 0 2.71051e-14 6.82634e-15 0 0 0 0)
(2.71051e-14 -9.33434e-15 0 2.71051e-14 -5.54583e-15 0 0 0 0)
(0 -8.91023e-16 0 5.42101e-14 -2.13053e-14 0 0 0 0)
(8.13152e-14 5.68256e-15 0 2.71051e-14 -2.71437e-14 0 0 0 0)
(2.71051e-14 -9.87492e-15 0 2.71051e-14 -9.62793e-15 0 0 0 0)
(-2.71051e-14 -1.53144e-14 0 5.42101e-14 1.01914e-14 0 0 0 0)
(-2.71051e-14 9.39189e-15 0 2.71051e-14 4.23663e-15 0 0 0 0)
(0 1.16516e-14 0 -2.71051e-14 1.96313e-15 0 0 0 0)
(0 -3.38033e-15 0 0 -5.24638e-16 0 0 0 0)
(0 1.02187e-14 0 2.71051e-14 -2.31687e-15 0 0 0 0)
(-1.11131e-12 -6.54587e-12 0 -1.89735e-12 1.3923e-11 0 0 0 0)
(1.6263e-12 7.92167e-12 0 4.06576e-13 -2.97425e-12 0 0 0 0)
(-3.79471e-13 -1.71962e-12 0 -1.6263e-13 7.05976e-13 0 0 0 0)
(2.71051e-14 4.01778e-13 0 -2.71051e-14 -1.34132e-13 0 0 0 0)
(-2.71051e-14 -8.38113e-14 0 -2.71051e-14 4.7367e-14 0 0 0 0)
(0 2.41225e-14 0 -2.71051e-14 -5.10857e-16 0 0 0 0)
(2.71051e-14 -9.3073e-15 0 -2.71051e-14 4.74864e-15 0 0 0 0)
(-2.71051e-14 -6.58912e-15 0 -5.42101e-14 1.38976e-14 0 0 0 0)
(-2.71051e-14 -1.4595e-15 0 -5.42101e-14 1.46992e-14 0 0 0 0)
(-2.71051e-14 4.4766e-16 0 -2.71051e-14 1.22018e-14 0 0 0 0)
(2.71051e-14 -8.84883e-15 0 -2.71051e-14 6.88668e-15 0 0 0 0)
(-2.71051e-14 -8.34199e-15 0 -5.42101e-14 1.87483e-14 0 0 0 0)
(-2.71051e-14 8.87749e-15 0 0 2.4563e-14 0 0 0 0)
(-2.71051e-14 1.89697e-14 0 -2.71051e-14 1.07619e-14 0 0 0 0)
(0 1.1797e-14 0 -2.71051e-14 -8.92015e-17 0 0 0 0)
(0 -6.62093e-15 0 -5.42101e-14 8.83977e-15 0 0 0 0)
(-2.71051e-14 -5.64346e-15 0 -2.71051e-14 2.18462e-14 0 0 0 0)
(0 -4.8088e-16 0 0 5.09134e-15 0 0 0 0)
(2.71051e-14 -3.84465e-16 0 0 1.06755e-14 0 0 0 0)
(-2.71051e-14 9.31288e-15 0 -2.71051e-14 8.85614e-15 0 0 0 0)
)
;

boundaryField
{
    movingWall
    {
        type            extrapolatedCalculated;
        value           nonuniform List<tensor> 
20
(
(-1.11131e-12 -6.54587e-12 0 6.30607e-12 3.3402e-11 0 0 0 0)
(1.6263e-12 7.92167e-12 0 -1.82077e-12 -7.21855e-12 0 0 0 0)
(-3.79471e-13 -1.71962e-12 0 -2.22045e-13 1.71533e-12 0 0 0 0)
(2.71051e-14 4.01778e-13 0 -3.55271e-13 -3.40064e-13 0 0 0 0)
(-2.71051e-14 -8.38113e-14 0 -2.66454e-13 1.08222e-13 0 0 0 0)
(0 2.41225e-14 0 -2.66454e-13 -4.81918e-15 0 0 0 0)
(2.71051e-14 -9.3073e-15 0 -3.10862e-13 1.17321e-14 0 0 0 0)
(-2.71051e-14 -6.58912e-15 0 -3.10862e-13 3.241e-14 0 0 0 0)
(-2.71051e-14 -1.4595e-15 0 -2.66454e-13 3.80886e-14 0 0 0 0)
(-2.71051e-14 4.4766e-16 0 -1.77636e-13 3.8248e-14 0 0 0 0)
(2.71051e-14 -8.84883e-15 0 -2.22045e-13 3.62979e-14 0 0 0 0)
(-2.71051e-14 -8.34199e-15 0 -2.22045e-13 7.36433e-14 0 0 0 0)
(-2.71051e-14 8.87749e-15 0 -8.88178e-14 6.96659e-14 0 0 0 0)
(-2.71051e-14 1.89697e-14 0 -8.88178e-14 3.81333e-14 0 0 0 0)
(0 1.1797e-14 0 0 -6.21274e-15 0 0 0 0)
(0 -6.62093e-15 0 -8.88178e-14 -9.05469e-15 0 0 0 0)
(-2.71051e-14 -5.64346e-15 0 -4.44089e-14 2.0271e-14 0 0 0 0)
(0 -4.8088e-16 0 0 1.35192e-14 0 0 0 0)
(2.71051e-14 -3.84465e-16 0 0 2.21945e-14 0 0 0 0)
(-2.71051e-14 9.31288e-15 0 -4.44089e-14 1.5057e-14 0 0 0 0)
)
;
    }
    fixedWalls
    {
        type            extrapolatedCalculated;
        value           nonuniform List<tensor> 
60
(
(-6.66134e-12 7.10155e-11 0 1.0571e-12 1.73534e-11 0 0 0 0)
(1.08358e-11 -1.60177e-12 0 5.69206e-13 -3.21637e-11 0 0 0 0)
(-4.35207e-12 -5.76394e-11 0 -4.63496e-12 1.42578e-11 0 0 0 0)
(-7.63833e-12 5.54295e-11 0 3.63208e-12 1.0471e-11 0 0 0 0)
(1.01252e-11 -1.57553e-11 0 -2.71051e-14 -2.28368e-11 0 0 0 0)
(-7.72715e-12 -3.59179e-11 0 -2.54788e-12 1.91172e-11 0 0 0 0)
(-8.88178e-14 6.07134e-11 0 3.49655e-12 2.23616e-12 0 0 0 0)
(6.21725e-12 -2.69733e-11 0 -4.87891e-13 -2.06572e-11 0 0 0 0)
(-1.95399e-12 -2.19153e-11 0 -2.03288e-12 1.71407e-11 0 0 0 0)
(-1.95399e-12 4.15894e-11 0 2.98156e-13 -4.83485e-12 0 0 0 0)
(-6.21725e-13 -4.12547e-11 0 1.0571e-12 -5.69992e-13 0 0 0 0)
(2.17604e-12 3.93095e-11 0 3.25261e-13 5.99075e-12 0 0 0 0)
(7.10543e-13 -1.72917e-11 0 -1.46367e-12 -1.7308e-11 0 0 0 0)
(-3.73035e-12 -2.99224e-11 0 -1.19262e-12 2.05973e-11 0 0 0 0)
(-3.9968e-12 6.50974e-11 0 3.41524e-12 -4.05032e-12 0 0 0 0)
(9.85878e-12 -4.61237e-11 0 -1.73472e-12 -1.82101e-11 0 0 0 0)
(-1.09246e-11 -7.74297e-12 0 -3.00866e-12 2.41573e-11 0 0 0 0)
(-2.13163e-12 5.05057e-11 0 6.20706e-12 -3.63674e-12 0 0 0 0)
(1.38556e-11 -2.22899e-11 0 -1.02999e-12 -2.09769e-11 0 0 0 0)
(-6.30607e-12 -3.3402e-11 0 -1.89735e-12 1.3923e-11 0 0 0 0)
(0 -1.8186e-14 0 0 6.64227e-15 0 0 0 0)
(0 -8.38309e-15 0 2.71051e-14 -3.32541e-15 0 0 0 0)
(-4.44089e-14 -4.88435e-15 0 0 5.0609e-15 0 0 0 0)
(-4.44089e-14 -2.86267e-14 0 0 5.38198e-15 0 0 0 0)
(-4.44089e-14 -2.64123e-14 0 -2.71051e-14 -1.1625e-15 0 0 0 0)
(0 -2.39767e-14 0 0 -4.03351e-15 0 0 0 0)
(0 -1.02782e-14 0 0 -6.38749e-15 0 0 0 0)
(0 1.5733e-15 0 0 -8.15972e-15 0 0 0 0)
(-4.44089e-14 2.23606e-14 0 2.71051e-14 -5.59866e-15 0 0 0 0)
(-4.44089e-14 2.39679e-14 0 0 5.87409e-15 0 0 0 0)
(0 -1.13571e-15 0 -2.71051e-14 7.22941e-15 0 0 0 0)
(0 -4.94968e-15 0 0 -4.6166e-15 0 0 0 0)
(8.88178e-14 1.73307e-14 0 0 -1.25452e-14 0 0 0 0)
(0 4.52311e-14 0 0 -1.99108e-16 0 0 0 0)
(-4.44089e-14 1.81271e-14 0 0 1.0351e-14 0 0 0 0)
(0 3.82723e-15 0 2.71051e-14 1.52393e-15 0 0 0 0)
(-8.88178e-14 1.20314e-14 0 0 -4.9058e-16 0 0 0 0)
(0 5.78955e-15 0 -2.71051e-14 -2.08403e-15 0 0 0 0)
(0 2.03675e-14 0 2.71051e-14 -2.31687e-15 0 0 0 0)
(-4.44089e-14 1.5057e-14 0 -2.71051e-14 8.85614e-15 0 0 0 0)
(-1.0571e-12 1.39403e-11 0 -6.66134e-12 7.10155e-11 0 0 0 0)
(1.70762e-12 -1.68488e-11 0 2.39808e-12 -1.52542e-11 0 0 0 0)
(-5.14996e-13 3.62156e-12 0 1.33227e-13 3.6204e-12 0 0 0 0)
(5.42101e-14 -8.57353e-13 0 3.55271e-13 -7.67971e-13 0 0 0 0)
(-5.42101e-14 1.87481e-13 0 3.10862e-13 1.90986e-13 0 0 0 0)
(0 -3.65597e-14 0 2.66454e-13 -1.80454e-14 0 0 0 0)
(-2.71051e-14 1.41428e-14 0 3.10862e-13 4.4747e-14 0 0 0 0)
(-2.71051e-14 -8.21819e-16 0 1.77636e-13 3.85258e-14 0 0 0 0)
(0 -4.46419e-15 0 1.77636e-13 4.14597e-14 0 0 0 0)
(-2.71051e-14 -4.37708e-15 0 1.33227e-13 2.0669e-14 0 0 0 0)
(0 2.18355e-15 0 1.33227e-13 2.39514e-14 0 0 0 0)
(0 7.36844e-15 0 4.44089e-14 2.94032e-14 0 0 0 0)
(2.71051e-14 1.24006e-14 0 1.33227e-13 5.34252e-14 0 0 0 0)
(-5.42101e-14 -1.49846e-15 0 1.77636e-13 7.90056e-14 0 0 0 0)
(-8.13152e-14 -2.56365e-14 0 -8.88178e-14 4.74313e-14 0 0 0 0)
(5.42101e-14 -1.60074e-14 0 -8.88178e-14 -2.35403e-14 0 0 0 0)
(2.71051e-14 1.61967e-15 0 4.44089e-14 -1.65983e-14 0 0 0 0)
(-2.71051e-14 3.51791e-15 0 0 -1.70616e-14 0 0 0 0)
(0 8.81191e-15 0 4.44089e-14 -2.52669e-15 0 0 0 0)
(0 -3.91483e-15 0 0 1.8186e-14 0 0 0 0)
)
;
    }
    frontAndBack
    {
        type            empty;
    }
}


// ************************************************************************* //
