/*--------------------------------*- C++ -*----------------------------------*\
| =========                 |                                                 |
| \\      /  F ield         | OpenFOAM: The Open Source CFD Toolbox           |
|  \\    /   O peration     | Version:  2312                                  |
|   \\  /    A nd           | Website:  www.openfoam.com                      |
|    \\/     M anipulation  |                                                 |
\*---------------------------------------------------------------------------*/
FoamFile
{
    version     2.0;
    format      ascii;
    arch        "LSB;label=32;scalar=64";
    class       volVectorField;
    location    "7";
    object      gradPhi;
}
// * * * * * * * * * * * * * * * * * * * * * * * * * * * * * * * * * * * * * //

dimensions      [0 2 -1 0 0 0 0];

internalField   nonuniform List<vector> 
400
(
(-0.02 9.82475e-17 0)
(1.42275e-16 -1.4259e-16 0)
(-4.46678e-17 4.4656e-17 0)
(6.61744e-18 -6.28325e-18 0)
(-1.65436e-18 2.40499e-18 0)
(0 4.69429e-19 0)
(-1.65436e-18 1.45723e-18 0)
(-1.65436e-18 6.87798e-19 0)
(0 9.63874e-19 0)
(-1.65436e-18 2.6725e-19 0)
(0 1.31579e-19 0)
(1.65436e-18 -5.69955e-19 0)
(0 -1.97729e-19 0)
(-3.30872e-18 2.4161e-18 0)
(-1.65436e-18 2.72982e-18 0)
(1.65436e-18 -5.43048e-19 0)
(0 -3.8175e-19 0)
(0 -6.96762e-19 0)
(0 -3.47597e-19 0)
(0 8.17609e-19 0)
(-0.02 -1.85477e-16 0)
(-2.64698e-16 2.64788e-16 0)
(8.10637e-17 -8.06074e-17 0)
(-1.32349e-17 1.40027e-17 0)
(1.65436e-18 -3.20582e-18 0)
(0 -1.46784e-19 0)
(3.30872e-18 -1.16174e-18 0)
(0 -2.74358e-19 0)
(0 -1.33858e-18 0)
(0 3.98898e-20 0)
(1.65436e-18 2.12562e-19 0)
(-1.65436e-18 -8.55597e-20 0)
(1.65436e-18 -3.44773e-19 0)
(3.30872e-18 -2.82841e-18 0)
(3.30872e-18 -3.29616e-18 0)
(-1.65436e-18 2.61524e-19 0)
(1.65436e-18 1.7255e-19 0)
(-1.65436e-18 1.43108e-18 0)
(-1.65436e-18 7.79691e-19 0)
(1.65436e-18 -1.47389e-18 0)
(-0.02 6.94485e-17 0)
(9.76073e-17 -9.9355e-17 0)
(-3.47416e-17 3.5516e-17 0)
(4.96308e-18 -6.20154e-18 0)
(0 7.3397e-19 0)
(0 3.70354e-20 0)
(1.65436e-18 -1.04692e-18 0)
(3.30872e-18 -2.25265e-18 0)
(0 1.0649e-19 0)
(-1.65436e-18 1.70328e-18 0)
(-3.30872e-18 2.68686e-18 0)
(0 1.35792e-18 0)
(-1.65436e-18 1.42456e-19 0)
(1.65436e-18 -9.2535e-20 0)
(0 -4.85867e-19 0)
(1.65436e-18 -1.99082e-18 0)
(1.65436e-18 -7.84146e-19 0)
(0 -1.73222e-19 0)
(0 6.67471e-20 0)
(-1.65436e-18 1.57701e-18 0)
(-0.02 8.32762e-17 0)
(1.07533e-16 -1.07506e-16 0)
(-2.64698e-17 2.69365e-17 0)
(6.61744e-18 -5.94957e-18 0)
(-1.65436e-18 5.47138e-19 0)
(0 -3.50373e-19 0)
(-1.65436e-18 1.81666e-18 0)
(-4.96308e-18 4.26585e-18 0)
(0 1.518e-18 0)
(0 -1.93343e-18 0)
(4.96308e-18 -3.7679e-18 0)
(1.65436e-18 -6.54375e-19 0)
(-3.30872e-18 1.17957e-18 0)
(-1.65436e-18 1.19953e-18 0)
(0 7.32481e-19 0)
(-1.65436e-18 2.73989e-18 0)
(0 4.19094e-19 0)
(0 -2.42207e-18 0)
(1.65436e-18 -5.33988e-19 0)
(0 -3.35817e-19 0)
(-0.02 -1.44409e-16 0)
(-1.91906e-16 1.91976e-16 0)
(5.9557e-17 -5.962e-17 0)
(-8.27181e-18 9.53574e-18 0)
(1.65436e-18 -8.91403e-19 0)
(-1.65436e-18 6.9581e-19 0)
(0 1.39158e-19 0)
(0 -6.48004e-19 0)
(0 3.63231e-20 0)
(1.65436e-18 2.32974e-19 0)
(-1.65436e-18 1.01674e-18 0)
(-1.65436e-18 9.69846e-20 0)
(0 -1.22837e-19 0)
(0 9.18838e-20 0)
(0 6.27913e-19 0)
(0 2.29587e-19 0)
(-1.65436e-18 7.39749e-19 0)
(-1.65436e-18 2.11066e-18 0)
(0 -1.46704e-19 0)
(0 5.09917e-21 0)
(-0.02 1.17632e-16 0)
(1.63782e-16 -1.62958e-16 0)
(-5.12852e-17 5.04121e-17 0)
(6.61744e-18 -6.02838e-18 0)
(-3.30872e-18 1.45124e-18 0)
(0 9.53205e-20 0)
(0 -3.77989e-19 0)
(1.65436e-18 -7.2321e-19 0)
(0 -2.80177e-19 0)
(0 9.92044e-19 0)
(0 -2.18189e-19 0)
(0 -1.24914e-19 0)
(0 -8.86924e-19 0)
(1.65436e-18 -1.31154e-18 0)
(0 2.04139e-19 0)
(1.65436e-18 -5.49797e-19 0)
(-1.65436e-18 1.18669e-19 0)
(-1.65436e-18 5.56304e-19 0)
(0 5.08538e-19 0)
(0 9.06246e-20 0)
(-0.02 6.068e-18 0)
(1.32349e-17 -1.26937e-17 0)
(-4.96308e-18 4.69651e-18 0)
(1.65436e-18 -2.14632e-18 0)
(-1.65436e-18 9.48918e-19 0)
(0 -2.28035e-19 0)
(0 7.96623e-19 0)
(0 -1.7191e-19 0)
(0 -1.28171e-18 0)
(1.65436e-18 -7.04266e-19 0)
(0 1.4042e-18 0)
(-1.65436e-18 8.23867e-19 0)
(0 1.1332e-18 0)
(0 1.36127e-18 0)
(0 4.14114e-21 0)
(0 -1.83463e-19 0)
(0 -4.25271e-19 0)
(-1.65436e-18 5.58815e-20 0)
(-1.65436e-18 7.93077e-19 0)
(1.65436e-18 -8.20162e-19 0)
(-0.02 -1.06753e-16 0)
(-1.60473e-16 1.58999e-16 0)
(4.96308e-17 -5.01572e-17 0)
(-9.92617e-18 1.01602e-17 0)
(1.65436e-18 -1.66234e-18 0)
(0 8.21976e-20 0)
(1.65436e-18 -2.53454e-18 0)
(3.30872e-18 -1.90168e-18 0)
(-1.65436e-18 8.04982e-19 0)
(1.65436e-18 -1.56785e-18 0)
(3.30872e-18 -2.94245e-18 0)
(0 -2.25321e-19 0)
(0 -5.45537e-19 0)
(1.65436e-18 -1.75595e-18 0)
(1.65436e-18 -1.90421e-18 0)
(0 -6.44917e-19 0)
(-1.65436e-18 6.68672e-19 0)
(0 -9.43457e-19 0)
(1.65436e-18 -1.00248e-18 0)
(0 1.94706e-19 0)
(-0.02 6.62758e-17 0)
(1.05879e-16 -1.07069e-16 0)
(-4.1359e-17 4.08393e-17 0)
(6.61744e-18 -6.94134e-18 0)
(-1.65436e-18 1.69087e-18 0)
(0 4.43394e-19 0)
(0 6.05441e-19 0)
(0 -4.25102e-19 0)
(0 -2.38261e-18 0)
(0 4.48431e-19 0)
(0 1.32157e-18 0)
(-1.65436e-18 -4.05042e-19 0)
(0 1.97981e-19 0)
(0 3.79574e-19 0)
(0 -1.60933e-19 0)
(0 7.15899e-19 0)
(-1.65436e-18 7.4087e-19 0)
(-1.65436e-18 7.67628e-19 0)
(-1.65436e-18 -1.00327e-19 0)
(1.65436e-18 -1.15907e-18 0)
(-0.02 -2.72988e-18 0)
(-8.27181e-18 9.16373e-18 0)
(9.92617e-18 -1.04394e-17 0)
(0 -1.86985e-19 0)
(0 -3.8166e-19 0)
(0 2.2228e-19 0)
(-1.65436e-18 1.10079e-18 0)
(0 2.45549e-18 0)
(-3.30872e-18 2.45103e-18 0)
(-1.65436e-18 1.32331e-18 0)
(-1.65436e-18 2.1218e-19 0)
(1.65436e-18 -1.38127e-18 0)
(3.30872e-18 -2.313e-18 0)
(0 2.69598e-19 0)
(-1.65436e-18 1.76886e-18 0)
(0 -7.22716e-19 0)
(1.65436e-18 -2.28168e-18 0)
(1.65436e-18 -6.33396e-19 0)
(0 2.247e-19 0)
(-1.65436e-18 8.75646e-19 0)
(-0.02 8.40956e-18 0)
(0 -7.77859e-19 0)
(4.96308e-18 -3.12248e-18 0)
(0 -1.0698e-18 0)
(3.30872e-18 -2.78018e-18 0)
(1.65436e-18 -1.93654e-18 0)
(0 -2.22408e-19 0)
(0 -6.58052e-19 0)
(1.65436e-18 -2.18253e-19 0)
(0 -1.08441e-18 0)
(1.65436e-18 -1.26913e-19 0)
(0 9.46341e-20 0)
(-1.65436e-18 1.8425e-19 0)
(0 -1.74782e-19 0)
(0 1.01754e-18 0)
(-1.65436e-18 1.41595e-18 0)
(-3.30872e-18 1.817e-18 0)
(1.65436e-18 -7.01223e-19 0)
(0 -5.52354e-19 0)
(0 5.71507e-19 0)
(-0.02 -8.28152e-18 0)
(1.15805e-17 -1.03924e-17 0)
(-1.48893e-17 1.39981e-17 0)
(0 -7.68708e-19 0)
(0 -3.75846e-19 0)
(1.65436e-18 -2.70962e-19 0)
(-1.65436e-18 4.87349e-19 0)
(0 1.67707e-18 0)
(-1.65436e-18 5.96292e-19 0)
(0 -2.11658e-19 0)
(0 5.83058e-19 0)
(-3.30872e-18 2.58246e-18 0)
(-3.30872e-18 2.76065e-18 0)
(0 1.0242e-18 0)
(0 -9.06849e-19 0)
(1.65436e-18 -9.52851e-19 0)
(1.65436e-18 -1.89607e-18 0)
(0 1.3934e-19 0)
(0 5.17404e-19 0)
(0 -1.40894e-19 0)
(-0.02 -5.71982e-17 0)
(-9.76073e-17 9.76667e-17 0)
(4.1359e-17 -4.15117e-17 0)
(-8.27181e-18 7.02618e-18 0)
(0 1.67151e-18 0)
(-1.65436e-18 1.6951e-18 0)
(1.65436e-18 -2.91637e-18 0)
(6.61744e-18 -4.39985e-18 0)
(0 -8.52769e-19 0)
(-1.65436e-18 1.6901e-18 0)
(-1.65436e-18 1.87228e-19 0)
(0 6.80347e-21 0)
(-1.65436e-18 1.07151e-18 0)
(0 -3.22914e-19 0)
(1.65436e-18 -1.12659e-18 0)
(0 2.53367e-20 0)
(0 4.29945e-19 0)
(0 1.58641e-19 0)
(1.65436e-18 -8.82214e-19 0)
(1.65436e-18 -1.48063e-18 0)
(-0.02 9.01006e-17 0)
(1.35658e-16 -1.35313e-16 0)
(-5.12852e-17 4.94151e-17 0)
(8.27181e-18 -7.85555e-18 0)
(0 -1.05627e-20 0)
(0 -6.25915e-19 0)
(0 1.55705e-18 0)
(-3.30872e-18 2.44226e-18 0)
(-1.65436e-18 1.14494e-18 0)
(0 3.02636e-19 0)
(-1.65436e-18 1.16756e-18 0)
(3.30872e-18 -1.76364e-18 0)
(3.30872e-18 -4.07856e-18 0)
(0 -1.14995e-18 0)
(0 3.58045e-19 0)
(0 1.74566e-19 0)
(0 1.66624e-18 0)
(-1.65436e-18 1.04686e-18 0)
(0 5.76799e-19 0)
(0 9.9482e-20 0)
(-0.02 1.39477e-17 0)
(-1.65436e-18 2.32592e-18 0)
(9.92617e-18 -8.26698e-18 0)
(0 -6.15632e-19 0)
(0 5.84532e-19 0)
(0 -1.3297e-18 0)
(0 -1.49315e-18 0)
(1.65436e-18 -1.04052e-18 0)
(1.65436e-18 -1.57261e-18 0)
(0 -5.17267e-19 0)
(3.30872e-18 -2.49886e-18 0)
(0 -8.06675e-19 0)
(0 1.93649e-18 0)
(-1.65436e-18 9.79895e-19 0)
(0 1.44557e-19 0)
(0 4.45598e-19 0)
(1.65436e-18 -1.66845e-18 0)
(1.65436e-18 -1.38062e-18 0)
(0 -1.83998e-19 0)
(-1.65436e-18 1.76216e-18 0)
(-0.02 -1.30997e-16 0)
(-1.70399e-16 1.70813e-16 0)
(4.46678e-17 -4.57628e-17 0)
(-1.15805e-17 1.13039e-17 0)
(0 -1.23035e-18 0)
(-1.65436e-18 2.04931e-18 0)
(-1.65436e-18 2.93783e-18 0)
(0 -1.18776e-18 0)
(3.30872e-18 -3.6722e-18 0)
(3.30872e-18 -3.22599e-18 0)
(1.65436e-18 1.03278e-19 0)
(-3.30872e-18 3.06647e-18 0)
(-1.65436e-18 1.17331e-18 0)
(1.65436e-18 2.21335e-19 0)
(-1.65436e-18 4.28436e-19 0)
(0 -1.11575e-19 0)
(0 4.30486e-19 0)
(1.65436e-18 -1.24301e-18 0)
(1.65436e-18 -1.02954e-18 0)
(1.65436e-18 -1.43631e-18 0)
(-0.02 1.56135e-16 0)
(2.03486e-16 -2.05409e-16 0)
(-5.9557e-17 5.98185e-17 0)
(1.32349e-17 -1.2586e-17 0)
(-1.65436e-18 1.6698e-18 0)
(1.65436e-18 -2.01623e-18 0)
(1.65436e-18 -1.64306e-18 0)
(-1.65436e-18 2.00718e-18 0)
(-3.30872e-18 3.42117e-18 0)
(-1.65436e-18 1.17226e-18 0)
(1.65436e-18 -6.57395e-19 0)
(4.96308e-18 -4.66848e-18 0)
(1.65436e-18 -2.03917e-18 0)
(-1.65436e-18 6.51044e-19 0)
(0 1.53899e-18 0)
(0 1.11733e-19 0)
(-1.65436e-18 2.47064e-19 0)
(0 6.25018e-19 0)
(0 2.16182e-19 0)
(0 8.54997e-19 0)
(-0.02 -4.52677e-18 0)
(-1.15805e-17 1.01214e-17 0)
(9.92617e-18 -8.88582e-18 0)
(0 -4.557e-19 0)
(1.65436e-18 -1.62516e-18 0)
(-1.65436e-18 8.15858e-19 0)
(0 8.07445e-19 0)
(0 4.75877e-19 0)
(0 4.39993e-19 0)
(0 1.95975e-19 0)
(0 1.58493e-19 0)
(-3.30872e-18 3.00456e-18 0)
(-1.65436e-18 1.03263e-18 0)
(0 3.0431e-19 0)
(0 -1.22845e-18 0)
(1.65436e-18 -1.80745e-18 0)
(1.65436e-18 -2.06286e-18 0)
(-1.65436e-18 9.94614e-19 0)
(0 6.80537e-19 0)
(0 -1.01921e-19 0)
(-0.02 -1.64854e-16 0)
(-2.13413e-16 2.1249e-16 0)
(5.29396e-17 -5.29678e-17 0)
(-1.15805e-17 1.0346e-17 0)
(1.65436e-18 -1.53677e-18 0)
(0 2.28988e-19 0)
(0 -5.34457e-19 0)
(1.65436e-18 -1.36133e-18 0)
(1.65436e-18 -8.14796e-19 0)
(-1.65436e-18 2.83685e-19 0)
(-1.65436e-18 1.4434e-18 0)
(1.65436e-18 -1.22661e-18 0)
(1.65436e-18 -1.64499e-18 0)
(3.30872e-18 -2.34179e-18 0)
(0 -9.5578e-19 0)
(0 9.82289e-19 0)
(-1.65436e-18 1.02605e-18 0)
(-1.65436e-18 1.49898e-19 0)
(1.65436e-18 -8.90117e-20 0)
(0 -8.262e-19 0)
(-0.02 9.56852e-17 0)
(1.34003e-16 -1.34279e-16 0)
(-3.63959e-17 3.50535e-17 0)
(6.61744e-18 -5.28594e-18 0)
(-1.65436e-18 1.99714e-18 0)
(0 6.983e-20 0)
(0 2.25051e-19 0)
(0 1.03288e-18 0)
(-1.65436e-18 9.306e-19 0)
(0 5.93045e-19 0)
(0 -4.16989e-19 0)
(-1.65436e-18 8.78141e-19 0)
(-1.65436e-18 1.36148e-18 0)
(0 1.07915e-18 0)
(0 5.09925e-19 0)
(0 4.04268e-19 0)
(-1.65436e-18 1.02382e-18 0)
(0 1.57842e-19 0)
(0 5.04533e-19 0)
(0 9.26064e-19 0)
)
;

boundaryField
{
    movingWall
    {
        type            extrapolatedCalculated;
        value           nonuniform List<vector> 
20
(
(-0.02 9.56852e-17 0)
(1.34003e-16 -1.34279e-16 0)
(-3.63959e-17 3.50535e-17 0)
(6.61744e-18 -5.28594e-18 0)
(-1.65436e-18 1.99714e-18 0)
(0 6.983e-20 0)
(0 2.25051e-19 0)
(0 1.03288e-18 0)
(-1.65436e-18 9.306e-19 0)
(0 5.93045e-19 0)
(0 -4.16989e-19 0)
(-1.65436e-18 8.78141e-19 0)
(-1.65436e-18 1.36148e-18 0)
(0 1.07915e-18 0)
(0 5.09925e-19 0)
(0 4.04268e-19 0)
(-1.65436e-18 1.02382e-18 0)
(0 1.57842e-19 0)
(0 5.04533e-19 0)
(0 9.26064e-19 0)
)
;
    }
    fixedWalls
    {
        type            extrapolatedCalculated;
        value           nonuniform List<vector> 
60
(
(-0.02 9.82475e-17 0)
(-0.02 -1.85477e-16 0)
(-0.02 6.94485e-17 0)
(-0.02 8.32762e-17 0)
(-0.02 -1.44409e-16 0)
(-0.02 1.17632e-16 0)
(-0.02 6.068e-18 0)
(-0.02 -1.06753e-16 0)
(-0.02 6.62758e-17 0)
(-0.02 -2.72988e-18 0)
(-0.02 8.40956e-18 0)
(-0.02 -8.28152e-18 0)
(-0.02 -5.71982e-17 0)
(-0.02 9.01006e-17 0)
(-0.02 1.39477e-17 0)
(-0.02 -1.30997e-16 0)
(-0.02 1.56135e-16 0)
(-0.02 -4.52677e-18 0)
(-0.02 -1.64854e-16 0)
(-0.02 9.56852e-17 0)
(0 8.17609e-19 0)
(1.65436e-18 -1.47389e-18 0)
(-1.65436e-18 1.57701e-18 0)
(0 -3.35817e-19 0)
(0 5.09917e-21 0)
(0 9.06246e-20 0)
(1.65436e-18 -8.20162e-19 0)
(0 1.94706e-19 0)
(1.65436e-18 -1.15907e-18 0)
(-1.65436e-18 8.75646e-19 0)
(0 5.71507e-19 0)
(0 -1.40894e-19 0)
(1.65436e-18 -1.48063e-18 0)
(0 9.9482e-20 0)
(-1.65436e-18 1.76216e-18 0)
(1.65436e-18 -1.43631e-18 0)
(0 8.54997e-19 0)
(0 -1.01921e-19 0)
(0 -8.262e-19 0)
(0 9.26064e-19 0)
(-0.02 9.82475e-17 0)
(1.42275e-16 -1.4259e-16 0)
(-4.46678e-17 4.4656e-17 0)
(6.61744e-18 -6.28325e-18 0)
(-1.65436e-18 2.40499e-18 0)
(0 4.69429e-19 0)
(-1.65436e-18 1.45723e-18 0)
(-1.65436e-18 6.87798e-19 0)
(0 9.63874e-19 0)
(-1.65436e-18 2.6725e-19 0)
(0 1.31579e-19 0)
(1.65436e-18 -5.69955e-19 0)
(0 -1.97729e-19 0)
(-3.30872e-18 2.4161e-18 0)
(-1.65436e-18 2.72982e-18 0)
(1.65436e-18 -5.43048e-19 0)
(0 -3.8175e-19 0)
(0 -6.96762e-19 0)
(0 -3.47597e-19 0)
(0 8.17609e-19 0)
)
;
    }
    frontAndBack
    {
        type            empty;
    }
}


// ************************************************************************* //
