/*--------------------------------*- C++ -*----------------------------------*\
| =========                 |                                                 |
| \\      /  F ield         | OpenFOAM: The Open Source CFD Toolbox           |
|  \\    /   O peration     | Version:  2312                                  |
|   \\  /    A nd           | Website:  www.openfoam.com                      |
|    \\/     M anipulation  |                                                 |
\*---------------------------------------------------------------------------*/
FoamFile
{
    version     2.0;
    format      ascii;
    arch        "LSB;label=32;scalar=64";
    class       volScalarField;
    location    "7";
    object      initialResidual:p;
}
// * * * * * * * * * * * * * * * * * * * * * * * * * * * * * * * * * * * * * //

dimensions      [0 0 0 0 0 0 0];

internalField   nonuniform List<scalar> 
400
(
-1.35525e-20
2.12952e-20
3.67706e-21
2.59933e-21
4.10091e-21
9.28376e-21
5.60251e-21
-5.32045e-22
-6.23301e-21
8.32136e-22
-5.58483e-21
1.14363e-21
-5.43538e-21
2.96127e-22
6.57423e-21
-6.41678e-21
-4.77182e-21
1.61373e-20
-1.50791e-20
-6.77629e-21
-2.71051e-20
1.35583e-20
-3.81103e-21
9.51432e-21
7.63e-21
2.44472e-22
1.39238e-20
1.13666e-20
-7.11134e-21
4.13882e-21
1.70078e-20
-1.51e-20
-2.25347e-20
6.86218e-21
-1.78799e-20
-1.0947e-20
1.9405e-20
6.31863e-21
1.35284e-20
-1.35526e-20
1.31661e-25
-3.39107e-21
1.1107e-20
2.20921e-21
2.39776e-21
-3.86511e-21
-1.17026e-20
2.4297e-20
-4.41621e-21
-5.77588e-21
1.14633e-20
-1.26402e-20
2.86832e-21
-4.2316e-21
1.44209e-21
6.08847e-22
-2.21046e-20
1.2574e-20
8.46687e-21
-8.88705e-27
1.35524e-20
-4.48071e-21
-1.75776e-20
-5.20748e-21
-1.15294e-20
-1.09621e-21
2.09947e-20
-2.21056e-20
8.10226e-21
1.21473e-20
1.12394e-21
-9.94043e-21
-3.47659e-21
6.79485e-21
-1.33115e-21
-1.16545e-20
5.50333e-21
7.31073e-21
-5.34888e-21
-3.78303e-26
-2.03284e-20
6.45917e-21
2.28856e-21
-2.68158e-21
-4.52006e-21
1.69705e-21
2.93892e-21
-1.04811e-20
6.86018e-21
-1.03348e-20
4.13185e-21
7.01593e-21
5.61273e-21
1.66768e-21
-6.91241e-21
3.08336e-21
-8.90336e-21
5.143e-21
-7.6337e-21
6.77626e-21
-1.35528e-20
-2.19618e-22
1.46896e-20
-1.07978e-20
3.13641e-21
2.22326e-21
1.35843e-20
5.13231e-21
-2.56653e-20
4.42854e-21
-6.1022e-21
2.80124e-21
-1.27219e-21
6.02831e-21
1.56516e-20
-7.69538e-22
1.14362e-20
6.25203e-21
1.14352e-22
-6.7763e-21
6.77645e-21
3.35502e-21
-7.10415e-22
2.75837e-21
9.20413e-22
9.56482e-21
3.22025e-21
7.04863e-21
-1.27335e-21
4.24714e-21
1.16472e-20
-2.45504e-21
-1.4086e-20
8.91756e-21
7.88789e-21
7.63351e-21
-1.17914e-21
-1.26423e-21
-1.60021e-22
1.28942e-26
-2.71049e-20
-3.96511e-21
-1.78999e-20
-3.45425e-21
1.69815e-20
1.5985e-20
6.39899e-21
-1.76194e-23
-1.30533e-20
-1.36542e-22
8.07718e-21
8.46526e-21
-2.44171e-21
-2.15629e-21
1.32848e-20
-1.08506e-20
-2.67835e-21
1.70959e-20
7.63626e-21
-1.82673e-26
-1.35525e-20
1.05266e-20
-9.21472e-21
6.38049e-21
-1.27928e-20
-1.34289e-20
5.47769e-21
-3.6891e-21
-1.89135e-21
-1.77655e-20
2.56972e-20
1.24832e-21
4.48987e-22
7.2357e-21
9.27256e-22
-7.00381e-21
1.2991e-20
8.14843e-22
-9.76837e-21
6.77629e-21
-6.77625e-21
-7.60364e-21
-5.23857e-21
1.06724e-20
-2.10113e-21
-7.53797e-22
-2.15199e-21
-6.97867e-21
-6.40056e-21
1.15358e-20
7.50411e-21
-8.33697e-21
1.34087e-20
-1.09757e-20
5.21377e-21
2.01579e-21
2.92485e-21
-1.80125e-20
2.30324e-20
-6.77627e-21
-2.03286e-20
1.0297e-20
-7.66095e-21
-7.02036e-21
-5.47196e-22
6.75951e-21
-6.48343e-21
-1.00419e-20
2.0037e-20
2.62469e-21
-6.43229e-21
-9.39399e-23
3.55577e-21
6.68632e-21
-8.99831e-21
2.56343e-21
-1.0845e-20
9.74438e-21
-6.44778e-21
6.7763e-21
6.77625e-21
-1.28447e-20
-1.0089e-20
7.96191e-21
8.08143e-21
-2.44547e-20
-4.51372e-21
1.87547e-20
-7.83231e-21
-1.63257e-21
2.63057e-21
-8.67038e-21
-3.62621e-21
8.37274e-22
2.51123e-21
-5.05381e-21
3.0044e-21
4.42215e-21
-5.12187e-21
8.29683e-27
3.48804e-25
4.42219e-21
-1.42882e-21
1.67244e-21
-3.88919e-21
3.51206e-21
7.83688e-21
-4.21994e-21
-1.89659e-20
2.57181e-21
7.89117e-21
-5.00606e-21
-6.42822e-21
-1.74796e-22
-5.85738e-21
-3.16171e-21
3.83085e-21
-3.5817e-21
-5.32368e-22
2.03288e-20
-1.22934e-25
1.27932e-20
-7.95515e-21
1.27155e-20
-1.18752e-20
-2.55091e-21
-2.64044e-21
2.35178e-21
4.6497e-21
-3.1959e-21
9.18481e-21
-2.10229e-21
9.38604e-21
-1.54465e-21
-5.09359e-21
-9.62449e-21
3.65214e-21
-1.67542e-20
1.77194e-20
6.77629e-21
2.03291e-20
-1.04043e-20
4.94745e-21
1.30134e-20
2.88742e-21
-3.30477e-21
6.02248e-21
-2.52923e-23
-5.35616e-21
3.06636e-21
-8.37176e-22
4.36923e-21
-1.28648e-20
6.90207e-21
-7.79065e-21
1.6895e-20
3.55989e-21
-1.23135e-20
9.93194e-21
-6.77622e-21
-2.03285e-20
2.13022e-21
2.43919e-21
-6.54943e-21
4.40731e-21
1.74621e-21
-1.76537e-21
5.57387e-21
-6.09678e-21
-1.92946e-20
1.31782e-21
-6.58764e-21
-1.27032e-20
2.30612e-20
1.17484e-20
1.45328e-20
-2.95582e-20
-1.55331e-20
7.95335e-21
2.96633e-26
2.7105e-20
-1.72638e-20
-1.56364e-21
-4.1193e-21
-8.63474e-21
2.19158e-20
-2.37452e-22
-6.28412e-21
1.23699e-20
-1.8776e-20
1.03326e-20
1.77643e-20
-1.45827e-20
-1.53582e-20
-1.03698e-20
-6.60082e-21
1.018e-20
-2.9371e-21
4.77007e-21
3.9989e-26
-2.03286e-20
3.48171e-21
-1.14291e-20
-1.58587e-21
2.04057e-20
2.59877e-21
-3.75452e-21
-7.03666e-21
-9.73773e-21
2.61517e-21
-9.99623e-21
8.42981e-21
1.8214e-20
-1.02634e-20
5.92958e-21
9.22632e-21
-1.66396e-20
-3.28589e-21
4.6836e-21
6.7763e-21
2.76759e-25
-4.33548e-21
1.40364e-20
-9.2409e-21
1.95193e-20
-6.6644e-21
-2.85421e-20
5.08488e-21
3.98288e-21
5.44322e-21
8.69121e-22
6.34114e-21
2.10243e-20
-3.28753e-20
1.74426e-21
6.12546e-21
-8.59882e-21
1.36385e-20
-3.62489e-21
6.7763e-21
1.35525e-20
1.39709e-25
-6.77625e-21
-6.77622e-21
2.03288e-20
3.44706e-26
3.41001e-26
6.77629e-21
3.62352e-26
3.56048e-26
-6.77624e-21
3.13626e-26
6.7763e-21
3.12295e-26
2.91351e-26
2.21413e-26
2.48255e-26
2.6576e-26
6.7763e-21
6.77627e-21
)
;

boundaryField
{
    movingWall
    {
        type            zeroGradient;
    }
    fixedWalls
    {
        type            zeroGradient;
    }
    frontAndBack
    {
        type            empty;
    }
}


// ************************************************************************* //
