/*--------------------------------*- C++ -*----------------------------------*\
| =========                 |                                                 |
| \\      /  F ield         | OpenFOAM: The Open Source CFD Toolbox           |
|  \\    /   O peration     | Version:  2312                                  |
|   \\  /    A nd           | Website:  www.openfoam.com                      |
|    \\/     M anipulation  |                                                 |
\*---------------------------------------------------------------------------*/
FoamFile
{
    version     2.0;
    format      ascii;
    arch        "LSB;label=32;scalar=64";
    class       volScalarField;
    location    "7";
    object      initialResidual:k;
}
// * * * * * * * * * * * * * * * * * * * * * * * * * * * * * * * * * * * * * //

dimensions      [0 0 0 0 0 0 0];

internalField   nonuniform List<scalar> 
400
(
-5.3846e-13
-5.38883e-13
-5.38085e-13
-5.39154e-13
-5.37816e-13
-5.39382e-13
-5.37651e-13
-5.39471e-13
-5.37641e-13
-5.39408e-13
-5.37789e-13
-5.39199e-13
-5.38039e-13
-5.38913e-13
-5.38321e-13
-5.38678e-13
-5.38496e-13
-5.38565e-13
-5.38549e-13
-5.38552e-13
-5.75207e-13
-5.7545e-13
-5.74961e-13
-5.75472e-13
-5.75314e-13
-5.75045e-13
-5.75361e-13
-5.755e-13
-5.74911e-13
-5.76656e-13
-5.73729e-13
-5.76875e-13
-5.73459e-13
-5.76374e-13
-5.73866e-13
-5.7587e-13
-5.74303e-13
-5.7513e-13
-5.749e-13
-5.75057e-13
-6.26875e-13
-6.29075e-13
-6.25427e-13
-6.28143e-13
-6.25974e-13
-6.26579e-13
-6.27468e-13
-6.26565e-13
-6.27443e-13
-6.26734e-13
-6.2705e-13
-6.26856e-13
-6.26956e-13
-6.2684e-13
-6.26969e-13
-6.26843e-13
-6.26936e-13
-6.26878e-13
-6.26839e-13
-6.26838e-13
-6.73672e-13
-6.73511e-13
-6.73329e-13
-6.74792e-13
-6.72553e-13
-6.73692e-13
-6.73408e-13
-6.73167e-13
-6.73831e-13
-6.73158e-13
-6.73648e-13
-6.73139e-13
-6.73474e-13
-6.73256e-13
-6.73464e-13
-6.7329e-13
-6.73393e-13
-6.733e-13
-6.73305e-13
-6.73294e-13
-7.06619e-13
-7.06685e-13
-7.06293e-13
-7.07152e-13
-7.06268e-13
-7.06125e-13
-7.06888e-13
-7.05986e-13
-7.06918e-13
-7.06067e-13
-7.06404e-13
-7.06222e-13
-7.06326e-13
-7.06226e-13
-7.06355e-13
-7.06214e-13
-7.06342e-13
-7.06347e-13
-7.06177e-13
-7.06227e-13
-7.26562e-13
-7.29646e-13
-7.24785e-13
-7.28301e-13
-7.25553e-13
-7.26364e-13
-7.27327e-13
-7.26325e-13
-7.27342e-13
-7.26478e-13
-7.26958e-13
-7.26614e-13
-7.26789e-13
-7.26615e-13
-7.26806e-13
-7.26652e-13
-7.26746e-13
-7.26599e-13
-7.26662e-13
-7.26625e-13
-7.38876e-13
-7.38907e-13
-7.38393e-13
-7.39664e-13
-7.38099e-13
-7.38287e-13
-7.39246e-13
-7.38256e-13
-7.39202e-13
-7.3835e-13
-7.38794e-13
-7.38478e-13
-7.38615e-13
-7.38477e-13
-7.38643e-13
-7.38489e-13
-7.38599e-13
-7.38538e-13
-7.38475e-13
-7.38477e-13
-7.45803e-13
-7.46049e-13
-7.45383e-13
-7.48279e-13
-7.43591e-13
-7.48447e-13
-7.43074e-13
-7.4859e-13
-7.42589e-13
-7.48404e-13
-7.4272e-13
-7.47023e-13
-7.43863e-13
-7.46837e-13
-7.44156e-13
-7.46516e-13
-7.44432e-13
-7.45539e-13
-7.45193e-13
-7.4541e-13
-7.50126e-13
-7.51733e-13
-7.48729e-13
-7.51373e-13
-7.49185e-13
-7.4964e-13
-7.50563e-13
-7.4957e-13
-7.50494e-13
-7.49636e-13
-7.50162e-13
-7.49748e-13
-7.49989e-13
-7.49795e-13
-7.5001e-13
-7.49844e-13
-7.49921e-13
-7.49829e-13
-7.4986e-13
-7.49826e-13
-7.53538e-13
-7.53676e-13
-7.53115e-13
-7.55117e-13
-7.52098e-13
-7.53528e-13
-7.53265e-13
-7.52839e-13
-7.53767e-13
-7.52881e-13
-7.53468e-13
-7.52984e-13
-7.53292e-13
-7.53066e-13
-7.53281e-13
-7.53106e-13
-7.5319e-13
-7.53096e-13
-7.53112e-13
-7.53093e-13
-7.56183e-13
-7.57054e-13
-7.55501e-13
-7.5649e-13
-7.56541e-13
-7.55878e-13
-7.56496e-13
-7.55926e-13
-7.56501e-13
-7.55729e-13
-7.56449e-13
-7.55802e-13
-7.56056e-13
-7.55925e-13
-7.56059e-13
-7.5592e-13
-7.56044e-13
-7.56096e-13
-7.55852e-13
-7.55935e-13
-7.58947e-13
-7.60385e-13
-7.57954e-13
-7.58894e-13
-7.59623e-13
-7.58569e-13
-7.59401e-13
-7.58746e-13
-7.59267e-13
-7.58579e-13
-7.59121e-13
-7.58634e-13
-7.58846e-13
-7.58707e-13
-7.58885e-13
-7.58723e-13
-7.58864e-13
-7.58828e-13
-7.58705e-13
-7.58732e-13
-7.62201e-13
-7.60228e-13
-7.63144e-13
-7.63444e-13
-7.61259e-13
-7.62265e-13
-7.61653e-13
-7.62084e-13
-7.61771e-13
-7.6217e-13
-7.61592e-13
-7.62198e-13
-7.61465e-13
-7.62597e-13
-7.6101e-13
-7.62086e-13
-7.61362e-13
-7.61719e-13
-7.61654e-13
-7.61702e-13
-7.65043e-13
-7.67945e-13
-7.63219e-13
-7.66914e-13
-7.63744e-13
-7.6529e-13
-7.65174e-13
-7.64688e-13
-7.65769e-13
-7.64773e-13
-7.65453e-13
-7.64943e-13
-7.65134e-13
-7.65002e-13
-7.65139e-13
-7.64969e-13
-7.65118e-13
-7.65154e-13
-7.64906e-13
-7.64989e-13
-7.69155e-13
-7.67148e-13
-7.70235e-13
-7.69269e-13
-7.69428e-13
-7.68598e-13
-7.69304e-13
-7.68705e-13
-7.69095e-13
-7.6874e-13
-7.69005e-13
-7.69119e-13
-7.68625e-13
-7.68875e-13
-7.68597e-13
-7.68897e-13
-7.68569e-13
-7.68717e-13
-7.68667e-13
-7.68697e-13
-7.73192e-13
-7.73533e-13
-7.72744e-13
-7.7422e-13
-7.72774e-13
-7.73531e-13
-7.7275e-13
-7.74002e-13
-7.72273e-13
-7.73094e-13
-7.73038e-13
-7.7261e-13
-7.73331e-13
-7.72688e-13
-7.73078e-13
-7.72805e-13
-7.72966e-13
-7.73001e-13
-7.72778e-13
-7.72868e-13
-7.77651e-13
-7.78626e-13
-7.76866e-13
-7.78165e-13
-7.77774e-13
-7.77322e-13
-7.77976e-13
-7.77444e-13
-7.77869e-13
-7.77187e-13
-7.78033e-13
-7.7719e-13
-7.77549e-13
-7.77352e-13
-7.7752e-13
-7.77372e-13
-7.77495e-13
-7.7755e-13
-7.77304e-13
-7.77388e-13
-7.82266e-13
-7.82671e-13
-7.81779e-13
-7.82976e-13
-7.82018e-13
-7.81838e-13
-7.82488e-13
-7.81695e-13
-7.82616e-13
-7.81622e-13
-7.82286e-13
-7.81782e-13
-7.8198e-13
-7.8187e-13
-7.82001e-13
-7.81851e-13
-7.8199e-13
-7.82042e-13
-7.81783e-13
-7.81869e-13
-7.86122e-13
-7.86188e-13
-7.85458e-13
-7.87279e-13
-7.8504e-13
-7.85513e-13
-7.86356e-13
-7.85381e-13
-7.86307e-13
-7.85404e-13
-7.86009e-13
-7.85525e-13
-7.85746e-13
-7.8555e-13
-7.85812e-13
-7.85638e-13
-7.85739e-13
-7.85583e-13
-7.8565e-13
-7.85607e-13
-7.877e-13
-7.87774e-13
-7.87775e-13
-7.87776e-13
-7.87797e-13
-7.87762e-13
-7.87835e-13
-7.87728e-13
-7.87839e-13
-7.87705e-13
-7.87818e-13
-7.87721e-13
-7.87803e-13
-7.87739e-13
-7.87771e-13
-7.87766e-13
-7.87769e-13
-7.87767e-13
-7.87768e-13
-7.87768e-13
)
;

boundaryField
{
    movingWall
    {
        type            zeroGradient;
    }
    fixedWalls
    {
        type            zeroGradient;
    }
    frontAndBack
    {
        type            empty;
    }
}


// ************************************************************************* //
