/*--------------------------------*- C++ -*----------------------------------*\
| =========                 |                                                 |
| \\      /  F ield         | OpenFOAM: The Open Source CFD Toolbox           |
|  \\    /   O peration     | Version:  2312                                  |
|   \\  /    A nd           | Website:  www.openfoam.com                      |
|    \\/     M anipulation  |                                                 |
\*---------------------------------------------------------------------------*/
FoamFile
{
    version     2.0;
    format      ascii;
    arch        "LSB;label=32;scalar=64";
    class       volScalarField;
    location    "7";
    object      initialResidual:Uy;
}
// * * * * * * * * * * * * * * * * * * * * * * * * * * * * * * * * * * * * * //

dimensions      [0 0 0 0 0 0 0];

internalField   nonuniform List<scalar> 
400
(
1.52633e-20
-8.08112e-21
1.82268e-21
4.07798e-22
3.1613e-21
1.53187e-21
2.32345e-22
3.65777e-21
1.21366e-21
-1.87847e-21
4.21307e-22
2.08526e-21
1.37774e-21
1.77242e-21
1.41684e-21
-6.73919e-21
-3.44959e-21
-5.56266e-21
-1.03778e-21
3.10238e-21
-1.28002e-20
7.94796e-21
3.9402e-21
4.05107e-21
5.77727e-21
5.66719e-21
-4.08859e-22
-5.74665e-21
-4.58569e-21
1.59246e-21
6.66821e-21
5.78224e-22
-5.24268e-22
5.24899e-21
3.06629e-21
-6.91999e-21
-6.20982e-21
-7.68114e-21
-2.74601e-21
1.98579e-21
6.23915e-22
1.01948e-20
5.95727e-21
3.49949e-21
-3.6974e-22
2.08623e-22
3.76312e-22
-1.04728e-21
-1.80877e-22
8.48622e-21
5.57562e-21
-6.88619e-21
-4.59711e-21
-6.13675e-22
-5.31202e-21
-8.56402e-21
-2.21174e-21
7.36473e-21
4.83313e-22
-1.89118e-21
3.35498e-20
-4.60424e-21
5.37563e-21
-3.99913e-23
9.30065e-22
3.32608e-21
5.14279e-21
9.56388e-21
6.5557e-21
3.59057e-21
-4.52427e-21
-6.18944e-21
-3.45348e-21
-4.40261e-21
-9.2294e-21
-1.22557e-20
-5.73444e-21
7.90845e-21
4.73043e-21
-8.05154e-22
-8.70902e-21
9.24356e-21
-4.71695e-22
3.88787e-21
5.16331e-22
4.77091e-21
8.97744e-21
7.93183e-21
1.42229e-21
-3.37087e-21
-7.37242e-21
2.64764e-21
3.68358e-21
-5.35255e-21
-1.10094e-20
-5.8832e-21
-6.35957e-21
-4.10232e-21
1.64786e-21
9.22318e-22
-1.27307e-20
7.62351e-21
8.02289e-21
5.85355e-21
2.3423e-21
-1.15798e-21
5.887e-22
1.96555e-21
4.76855e-21
-1.26049e-21
-7.0371e-21
-3.41476e-21
1.69976e-22
-4.29994e-21
-3.46732e-21
-1.86977e-21
-5.36651e-22
-2.20271e-21
-1.59626e-21
-2.76461e-22
2.41745e-21
7.45629e-21
1.36571e-20
1.71898e-21
2.6824e-21
6.2494e-21
2.53927e-21
-4.77744e-21
4.56568e-21
2.27815e-22
-5.61816e-21
-7.46512e-21
-3.28963e-21
1.78883e-21
6.73491e-21
1.9185e-21
-3.97212e-21
-2.3695e-21
-5.68471e-22
-7.04788e-22
-2.28246e-20
1.86027e-20
3.54302e-21
3.41293e-21
1.74929e-22
4.24324e-21
6.31567e-21
2.87564e-21
-5.2566e-23
-4.01846e-21
-9.77286e-22
8.59842e-22
-2.26662e-21
-2.60688e-22
-2.9016e-21
4.7215e-22
1.22169e-21
4.09502e-21
2.3148e-21
-9.58545e-22
1.08973e-20
-9.05589e-21
3.38655e-22
3.99861e-21
5.18825e-21
8.25268e-22
-2.4848e-21
-2.19169e-21
-3.76675e-21
-2.78865e-21
8.01388e-21
7.18704e-21
-8.21009e-22
-3.57028e-21
-4.80507e-21
5.50825e-21
1.02423e-20
4.15086e-21
-2.53668e-21
-6.93659e-22
6.91308e-21
-1.35524e-22
-6.50534e-21
-3.78374e-21
-1.93394e-21
3.47184e-21
-1.10237e-21
-7.30753e-21
-6.64464e-21
7.53696e-21
7.60493e-21
-7.02626e-22
-3.01537e-21
-2.37992e-21
1.90192e-21
6.57121e-21
7.95171e-21
1.77657e-21
-6.23199e-22
5.50749e-22
-1.40366e-20
1.70975e-21
-8.66975e-21
-9.71172e-21
-6.2206e-22
-7.59823e-22
-5.21469e-21
7.23574e-22
5.8028e-21
8.16608e-21
-8.53103e-22
-7.62235e-21
-1.21994e-21
8.94617e-21
8.17978e-21
-6.07516e-22
1.55162e-21
6.31821e-21
4.66242e-21
-9.86583e-22
1.08946e-20
-1.50561e-20
-1.2534e-20
-1.03205e-20
-5.49546e-21
-4.94677e-21
1.09467e-21
9.71788e-21
5.07524e-21
-1.66177e-21
-4.66408e-23
2.27003e-21
4.54161e-21
4.52754e-21
6.64981e-21
1.21723e-21
2.84711e-21
5.34695e-21
1.52378e-22
-1.06026e-21
-1.81344e-20
3.41703e-22
-1.3264e-20
-4.77846e-21
-7.47578e-21
-5.5295e-21
-2.67153e-21
-1.10354e-21
-3.16528e-21
-3.98536e-21
1.58298e-21
8.97447e-21
3.92623e-21
-3.37614e-21
-4.07659e-22
1.35176e-21
2.696e-21
4.38214e-21
7.79126e-21
9.32802e-22
3.1067e-21
-1.10859e-20
-9.29641e-21
-7.88219e-21
-2.72333e-21
-3.01889e-21
-1.40104e-20
-6.28498e-21
5.14678e-21
6.87938e-21
5.73159e-21
7.94911e-22
-4.08685e-21
-2.68943e-21
-1.78648e-21
3.53238e-21
2.9249e-21
1.85609e-21
1.0724e-20
3.63385e-21
1.63805e-20
-1.26009e-20
-7.5764e-21
-8.10064e-21
-7.60292e-21
-3.65842e-21
9.37051e-22
4.89364e-21
4.68619e-21
5.94018e-21
4.2793e-22
-6.11445e-21
-4.26682e-21
-2.69963e-21
-3.87185e-21
6.38053e-21
8.52436e-21
4.36074e-22
4.58222e-21
3.96914e-21
-2.70365e-20
7.10203e-21
3.48891e-21
8.39406e-21
-3.66474e-21
-8.0207e-21
7.35675e-22
-1.12064e-20
-7.63956e-21
4.69119e-21
4.07553e-21
3.78858e-22
1.05345e-21
3.90262e-22
2.02551e-21
2.27618e-21
-1.26658e-22
-2.38638e-21
3.86988e-21
2.31767e-21
1.0479e-20
-2.4599e-21
3.31388e-21
-1.18114e-21
-1.39396e-21
-1.69703e-21
-1.07985e-21
-6.18863e-21
-7.50062e-21
-1.9187e-21
3.30342e-22
-4.65639e-21
-4.99317e-21
5.13098e-21
1.07916e-20
4.9186e-21
-5.85765e-21
-5.63661e-21
-6.51126e-22
4.98154e-22
1.80778e-20
-1.07735e-20
-4.96834e-21
-8.86119e-21
-3.07682e-21
3.88126e-21
6.01998e-21
8.06388e-21
1.58335e-21
-1.01607e-20
-1.05285e-20
-2.60161e-21
2.73252e-21
7.10386e-21
1.54424e-21
-7.38096e-22
-2.24581e-21
-3.96821e-21
-4.12833e-21
-2.08816e-21
-1.55613e-20
6.33561e-21
-1.66923e-21
-2.1061e-21
-2.86849e-21
1.51956e-21
1.69239e-21
-1.21359e-21
-2.6944e-21
-3.09653e-21
-4.10499e-22
1.66736e-22
2.40525e-21
3.75737e-21
2.67707e-21
-4.97896e-21
-2.93098e-21
2.98435e-22
-5.72857e-21
-1.82347e-21
2.97107e-21
3.18113e-21
2.29733e-21
-3.36737e-21
-1.04957e-21
1.42408e-22
-1.07329e-21
-9.85599e-22
-3.76827e-21
-1.39214e-21
1.10127e-21
-3.58487e-21
-2.88858e-21
2.5526e-21
6.52272e-21
8.94603e-22
-1.8529e-21
5.83935e-22
-4.10147e-21
7.64472e-24
)
;

boundaryField
{
    movingWall
    {
        type            zeroGradient;
    }
    fixedWalls
    {
        type            zeroGradient;
    }
    frontAndBack
    {
        type            empty;
    }
}


// ************************************************************************* //
