/*--------------------------------*- C++ -*----------------------------------*\
| =========                 |                                                 |
| \\      /  F ield         | OpenFOAM: The Open Source CFD Toolbox           |
|  \\    /   O peration     | Version:  2312                                  |
|   \\  /    A nd           | Website:  www.openfoam.com                      |
|    \\/     M anipulation  |                                                 |
\*---------------------------------------------------------------------------*/
FoamFile
{
    version     2.0;
    format      ascii;
    arch        "LSB;label=32;scalar=64";
    class       volScalarField;
    location    "7";
    object      initialResidual:epsilon;
}
// * * * * * * * * * * * * * * * * * * * * * * * * * * * * * * * * * * * * * //

dimensions      [0 0 0 0 0 0 0];

internalField   nonuniform List<scalar> 
400
(
0
0
0
0
0
0
0
0
0
0
0
0
0
0
0
0
0
0
0
0
0
-3.34341e-13
-3.34536e-13
-3.3437e-13
-3.35119e-13
-3.3513e-13
-3.35686e-13
-3.35923e-13
-3.36298e-13
-3.36682e-13
-3.36968e-13
-3.37414e-13
-3.37677e-13
-3.38138e-13
-3.38403e-13
-3.38859e-13
-3.39135e-13
-3.39549e-13
-6.79034e-13
0
0
-3.71685e-13
-3.72019e-13
-3.71773e-13
-3.72683e-13
-3.72669e-13
-3.73333e-13
-3.73605e-13
-3.74032e-13
-3.74495e-13
-3.74802e-13
-3.75346e-13
-3.75618e-13
-3.76182e-13
-3.76454e-13
-3.77007e-13
-3.77291e-13
-3.77786e-13
-7.56217e-13
0
0
-4.07546e-13
-4.07898e-13
-4.0764e-13
-4.08658e-13
-4.08644e-13
-4.09387e-13
-4.09692e-13
-4.10173e-13
-4.10687e-13
-4.11036e-13
-4.11641e-13
-4.1195e-13
-4.12578e-13
-4.12886e-13
-4.13504e-13
-4.13825e-13
-4.14379e-13
-8.29448e-13
0
0
-4.34107e-13
-4.34483e-13
-4.34214e-13
-4.35313e-13
-4.35303e-13
-4.36105e-13
-4.36435e-13
-4.36957e-13
-4.37513e-13
-4.37893e-13
-4.38547e-13
-4.38884e-13
-4.39562e-13
-4.399e-13
-4.40566e-13
-4.40917e-13
-4.41515e-13
-8.83771e-13
0
0
-4.51162e-13
-4.51614e-13
-4.5132e-13
-4.52467e-13
-4.52458e-13
-4.53301e-13
-4.53649e-13
-4.54199e-13
-4.54782e-13
-4.55184e-13
-4.55869e-13
-4.56226e-13
-4.56937e-13
-4.57293e-13
-4.57993e-13
-4.58363e-13
-4.58993e-13
-9.18762e-13
0
0
-4.61428e-13
-4.61841e-13
-4.61559e-13
-4.62743e-13
-4.62736e-13
-4.63603e-13
-4.63962e-13
-4.64529e-13
-4.65128e-13
-4.65543e-13
-4.66247e-13
-4.66617e-13
-4.67347e-13
-4.67716e-13
-4.68435e-13
-4.68818e-13
-4.69465e-13
-9.39733e-13
0
0
-4.6752e-13
-4.67963e-13
-4.67672e-13
-4.68874e-13
-4.68867e-13
-4.6975e-13
-4.70111e-13
-4.70692e-13
-4.71295e-13
-4.71726e-13
-4.72431e-13
-4.72819e-13
-4.73552e-13
-4.73937e-13
-4.74661e-13
-4.75057e-13
-4.75712e-13
-9.52243e-13
0
0
-4.71406e-13
-4.71886e-13
-4.71583e-13
-4.72794e-13
-4.72788e-13
-4.73679e-13
-4.74047e-13
-4.74631e-13
-4.75245e-13
-4.75674e-13
-4.76397e-13
-4.76779e-13
-4.77529e-13
-4.7791e-13
-4.78649e-13
-4.79044e-13
-4.79708e-13
-9.60245e-13
0
0
-4.74286e-13
-4.74739e-13
-4.74445e-13
-4.75666e-13
-4.75661e-13
-4.76559e-13
-4.76929e-13
-4.77519e-13
-4.78137e-13
-4.78571e-13
-4.79298e-13
-4.79684e-13
-4.80439e-13
-4.80824e-13
-4.81568e-13
-4.81967e-13
-4.82636e-13
-9.66108e-13
0
0
-4.76755e-13
-4.77184e-13
-4.76897e-13
-4.78129e-13
-4.78126e-13
-4.79027e-13
-4.79402e-13
-4.79994e-13
-4.80616e-13
-4.81053e-13
-4.81784e-13
-4.82174e-13
-4.82933e-13
-4.83321e-13
-4.84069e-13
-4.84472e-13
-4.85145e-13
-9.71131e-13
0
0
-4.79137e-13
-4.79578e-13
-4.79287e-13
-4.80525e-13
-4.80522e-13
-4.81428e-13
-4.81807e-13
-4.82401e-13
-4.83028e-13
-4.83468e-13
-4.84204e-13
-4.84596e-13
-4.85359e-13
-4.85751e-13
-4.86503e-13
-4.86909e-13
-4.87586e-13
-9.76017e-13
0
0
-4.81652e-13
-4.82097e-13
-4.81808e-13
-4.83052e-13
-4.83049e-13
-4.83962e-13
-4.84341e-13
-4.84942e-13
-4.85571e-13
-4.86016e-13
-4.86754e-13
-4.87151e-13
-4.87918e-13
-4.88315e-13
-4.89068e-13
-4.8948e-13
-4.90158e-13
-9.8117e-13
0
0
-4.84395e-13
-4.84899e-13
-4.84589e-13
-4.85836e-13
-4.85834e-13
-4.86755e-13
-4.87135e-13
-4.87742e-13
-4.88376e-13
-4.88824e-13
-4.89568e-13
-4.89967e-13
-4.9074e-13
-4.91138e-13
-4.91899e-13
-4.92311e-13
-4.92997e-13
-9.8685e-13
0
0
-4.8755e-13
-4.87999e-13
-4.87709e-13
-4.8897e-13
-4.88969e-13
-4.89894e-13
-4.9028e-13
-4.90889e-13
-4.91528e-13
-4.9198e-13
-4.92729e-13
-4.93134e-13
-4.9391e-13
-4.94315e-13
-4.95078e-13
-4.95498e-13
-4.96186e-13
-9.93236e-13
0
0
-4.91056e-13
-4.91489e-13
-4.91202e-13
-4.92477e-13
-4.92476e-13
-4.9341e-13
-4.93797e-13
-4.94415e-13
-4.95056e-13
-4.95515e-13
-4.96268e-13
-4.96678e-13
-4.9746e-13
-4.97868e-13
-4.9864e-13
-4.99062e-13
-4.99758e-13
-1.00038e-12
0
0
-4.94818e-13
-4.95256e-13
-4.94967e-13
-4.96253e-13
-4.96253e-13
-4.97194e-13
-4.97587e-13
-4.98209e-13
-4.98858e-13
-4.9932e-13
-5.00082e-13
-5.00494e-13
-5.01285e-13
-5.01696e-13
-5.02475e-13
-5.02901e-13
-5.03603e-13
-1.00808e-12
0
0
-4.98518e-13
-4.98973e-13
-4.98686e-13
-4.9997e-13
-4.99978e-13
-5.00923e-13
-5.01321e-13
-5.01949e-13
-5.02602e-13
-5.0307e-13
-5.03835e-13
-5.04255e-13
-5.05048e-13
-5.05469e-13
-5.06249e-13
-5.06686e-13
-5.07389e-13
-1.01566e-12
0
0
-5.02877e-13
-5.03457e-13
-5.03017e-13
-5.04384e-13
-5.04301e-13
-5.05277e-13
-5.05652e-13
-5.06254e-13
-5.06935e-13
-5.07344e-13
-5.08167e-13
-5.08511e-13
-5.09378e-13
-5.09714e-13
-5.10576e-13
-5.10927e-13
-5.117e-13
-1.02309e-12
0
0
0
0
0
0
0
0
0
0
0
0
0
0
0
0
0
0
0
0
0
)
;

boundaryField
{
    movingWall
    {
        type            zeroGradient;
    }
    fixedWalls
    {
        type            zeroGradient;
    }
    frontAndBack
    {
        type            empty;
    }
}


// ************************************************************************* //
