/*--------------------------------*- C++ -*----------------------------------*\
| =========                 |                                                 |
| \\      /  F ield         | OpenFOAM: The Open Source CFD Toolbox           |
|  \\    /   O peration     | Version:  2312                                  |
|   \\  /    A nd           | Website:  www.openfoam.com                      |
|    \\/     M anipulation  |                                                 |
\*---------------------------------------------------------------------------*/
FoamFile
{
    version     2.0;
    format      ascii;
    arch        "LSB;label=32;scalar=64";
    class       volScalarField;
    location    "7";
    object      k2;
}
// * * * * * * * * * * * * * * * * * * * * * * * * * * * * * * * * * * * * * //

dimensions      [0 4 -4 0 0 0 0];

internalField   nonuniform List<scalar> 
400
(
3.35239e-11
3.35238e-11
3.35238e-11
3.35238e-11
3.35237e-11
3.35238e-11
3.35236e-11
3.35237e-11
3.35236e-11
3.35237e-11
3.35235e-11
3.35236e-11
3.35235e-11
3.35236e-11
3.35236e-11
3.35236e-11
3.35236e-11
3.35236e-11
3.35236e-11
3.35236e-11
3.5669e-11
3.5669e-11
3.56658e-11
3.56646e-11
3.56623e-11
3.56612e-11
3.56593e-11
3.56583e-11
3.56567e-11
3.56558e-11
3.56545e-11
3.56539e-11
3.56528e-11
3.56524e-11
3.56516e-11
3.56513e-11
3.56508e-11
3.56506e-11
3.56505e-11
3.56504e-11
3.9001e-11
3.9001e-11
3.89972e-11
3.89958e-11
3.89932e-11
3.8992e-11
3.89896e-11
3.89886e-11
3.89867e-11
3.89856e-11
3.89843e-11
3.89834e-11
3.89823e-11
3.89816e-11
3.89808e-11
3.89804e-11
3.89799e-11
3.89797e-11
3.89795e-11
3.89794e-11
4.23941e-11
4.23941e-11
4.23898e-11
4.23882e-11
4.23852e-11
4.23838e-11
4.23812e-11
4.238e-11
4.23777e-11
4.23768e-11
4.23749e-11
4.23741e-11
4.23728e-11
4.23721e-11
4.23712e-11
4.23707e-11
4.23701e-11
4.23699e-11
4.23697e-11
4.23696e-11
4.51316e-11
4.51315e-11
4.51268e-11
4.51251e-11
4.51217e-11
4.51202e-11
4.51173e-11
4.51159e-11
4.51136e-11
4.51123e-11
4.51106e-11
4.51094e-11
4.51082e-11
4.51073e-11
4.51063e-11
4.51058e-11
4.51052e-11
4.51049e-11
4.51047e-11
4.51046e-11
4.70372e-11
4.70372e-11
4.70322e-11
4.70303e-11
4.70268e-11
4.70253e-11
4.7022e-11
4.70208e-11
4.70181e-11
4.70169e-11
4.70149e-11
4.70138e-11
4.70123e-11
4.70115e-11
4.70104e-11
4.70098e-11
4.70091e-11
4.70089e-11
4.70086e-11
4.70086e-11
4.82536e-11
4.82536e-11
4.82484e-11
4.82465e-11
4.82428e-11
4.82412e-11
4.82379e-11
4.82365e-11
4.82338e-11
4.82325e-11
4.82304e-11
4.82293e-11
4.82277e-11
4.82269e-11
4.82257e-11
4.82251e-11
4.82244e-11
4.82242e-11
4.82239e-11
4.82238e-11
4.90079e-11
4.90079e-11
4.90025e-11
4.90004e-11
4.89967e-11
4.89949e-11
4.89917e-11
4.89901e-11
4.89874e-11
4.89862e-11
4.89839e-11
4.8983e-11
4.89812e-11
4.89804e-11
4.89792e-11
4.89787e-11
4.89779e-11
4.89777e-11
4.89774e-11
4.89773e-11
4.94925e-11
4.94925e-11
4.94871e-11
4.94851e-11
4.94812e-11
4.94795e-11
4.9476e-11
4.94747e-11
4.94718e-11
4.94705e-11
4.94683e-11
4.94672e-11
4.94655e-11
4.94647e-11
4.94635e-11
4.94629e-11
4.94622e-11
4.94619e-11
4.94616e-11
4.94615e-11
4.98376e-11
4.98375e-11
4.98321e-11
4.983e-11
4.98261e-11
4.98244e-11
4.98209e-11
4.98195e-11
4.98166e-11
4.98153e-11
4.98131e-11
4.98119e-11
4.98103e-11
4.98094e-11
4.98082e-11
4.98076e-11
4.98068e-11
4.98066e-11
4.98063e-11
4.98062e-11
5.01208e-11
5.01209e-11
5.01153e-11
5.01133e-11
5.01093e-11
5.01075e-11
5.01041e-11
5.01025e-11
5.00997e-11
5.00983e-11
5.00961e-11
5.00949e-11
5.00933e-11
5.00923e-11
5.00912e-11
5.00905e-11
5.00899e-11
5.00895e-11
5.00893e-11
5.00892e-11
5.03867e-11
5.03867e-11
5.03811e-11
5.03791e-11
5.0375e-11
5.03732e-11
5.03698e-11
5.03682e-11
5.03653e-11
5.0364e-11
5.03617e-11
5.03606e-11
5.03589e-11
5.0358e-11
5.03568e-11
5.03562e-11
5.03554e-11
5.03551e-11
5.03549e-11
5.03548e-11
5.06606e-11
5.06606e-11
5.0655e-11
5.06528e-11
5.0649e-11
5.0647e-11
5.06437e-11
5.0642e-11
5.06392e-11
5.06378e-11
5.06355e-11
5.06344e-11
5.06326e-11
5.06317e-11
5.06305e-11
5.06299e-11
5.06291e-11
5.06288e-11
5.06286e-11
5.06285e-11
5.0958e-11
5.0958e-11
5.09523e-11
5.09501e-11
5.09462e-11
5.09444e-11
5.09409e-11
5.09393e-11
5.09364e-11
5.09349e-11
5.09328e-11
5.09314e-11
5.09299e-11
5.09288e-11
5.09277e-11
5.0927e-11
5.09263e-11
5.09259e-11
5.09257e-11
5.09256e-11
5.12872e-11
5.12872e-11
5.12816e-11
5.12793e-11
5.12754e-11
5.12733e-11
5.12701e-11
5.12681e-11
5.12656e-11
5.12638e-11
5.12617e-11
5.12604e-11
5.12587e-11
5.12578e-11
5.12565e-11
5.12559e-11
5.12552e-11
5.12549e-11
5.12546e-11
5.12545e-11
5.16483e-11
5.16483e-11
5.16425e-11
5.16403e-11
5.16362e-11
5.16342e-11
5.16308e-11
5.16291e-11
5.16262e-11
5.16248e-11
5.16223e-11
5.16212e-11
5.16194e-11
5.16184e-11
5.16172e-11
5.16165e-11
5.16158e-11
5.16155e-11
5.16152e-11
5.16151e-11
5.2027e-11
5.2027e-11
5.20212e-11
5.2019e-11
5.20148e-11
5.20129e-11
5.20093e-11
5.20077e-11
5.20046e-11
5.20033e-11
5.20008e-11
5.19996e-11
5.19979e-11
5.19969e-11
5.19957e-11
5.1995e-11
5.19943e-11
5.19939e-11
5.19936e-11
5.19935e-11
5.23897e-11
5.23897e-11
5.23838e-11
5.23815e-11
5.23773e-11
5.23754e-11
5.23717e-11
5.23701e-11
5.23671e-11
5.23655e-11
5.23633e-11
5.23619e-11
5.23603e-11
5.23592e-11
5.2358e-11
5.23573e-11
5.23566e-11
5.23562e-11
5.2356e-11
5.23559e-11
5.26821e-11
5.26822e-11
5.26765e-11
5.26743e-11
5.26702e-11
5.26685e-11
5.26647e-11
5.26633e-11
5.26601e-11
5.26588e-11
5.26564e-11
5.26552e-11
5.26534e-11
5.26525e-11
5.26512e-11
5.26505e-11
5.26498e-11
5.26494e-11
5.26492e-11
5.26491e-11
5.28156e-11
5.28155e-11
5.28154e-11
5.28154e-11
5.28153e-11
5.28153e-11
5.28152e-11
5.28152e-11
5.28152e-11
5.28151e-11
5.28151e-11
5.28151e-11
5.28151e-11
5.28151e-11
5.28151e-11
5.28151e-11
5.28151e-11
5.28151e-11
5.28151e-11
5.28151e-11
)
;

boundaryField
{
    movingWall
    {
        type            calculated;
        value           nonuniform List<scalar> 
20
(
5.28156e-11
5.28155e-11
5.28154e-11
5.28154e-11
5.28153e-11
5.28153e-11
5.28152e-11
5.28152e-11
5.28152e-11
5.28151e-11
5.28151e-11
5.28151e-11
5.28151e-11
5.28151e-11
5.28151e-11
5.28151e-11
5.28151e-11
5.28151e-11
5.28151e-11
5.28151e-11
)
;
    }
    fixedWalls
    {
        type            calculated;
        value           nonuniform List<scalar> 
60
(
3.35239e-11
3.5669e-11
3.9001e-11
4.23941e-11
4.51316e-11
4.70372e-11
4.82536e-11
4.90079e-11
4.94925e-11
4.98376e-11
5.01208e-11
5.03867e-11
5.06606e-11
5.0958e-11
5.12872e-11
5.16483e-11
5.2027e-11
5.23897e-11
5.26821e-11
5.28156e-11
3.35236e-11
3.56504e-11
3.89794e-11
4.23696e-11
4.51046e-11
4.70086e-11
4.82238e-11
4.89773e-11
4.94615e-11
4.98062e-11
5.00892e-11
5.03548e-11
5.06285e-11
5.09256e-11
5.12545e-11
5.16151e-11
5.19935e-11
5.23559e-11
5.26491e-11
5.28151e-11
3.35239e-11
3.35238e-11
3.35238e-11
3.35238e-11
3.35237e-11
3.35238e-11
3.35236e-11
3.35237e-11
3.35236e-11
3.35237e-11
3.35235e-11
3.35236e-11
3.35235e-11
3.35236e-11
3.35236e-11
3.35236e-11
3.35236e-11
3.35236e-11
3.35236e-11
3.35236e-11
)
;
    }
    frontAndBack
    {
        type            empty;
    }
}


// ************************************************************************* //
