/*--------------------------------*- C++ -*----------------------------------*\
| =========                 |                                                 |
| \\      /  F ield         | OpenFOAM: The Open Source CFD Toolbox           |
|  \\    /   O peration     | Version:  2312                                  |
|   \\  /    A nd           | Website:  www.openfoam.com                      |
|    \\/     M anipulation  |                                                 |
\*---------------------------------------------------------------------------*/
FoamFile
{
    version     2.0;
    format      ascii;
    arch        "LSB;label=32;scalar=64";
    class       volScalarField;
    location    "7";
    object      kDiff;
}
// * * * * * * * * * * * * * * * * * * * * * * * * * * * * * * * * * * * * * //

dimensions      [0 2 -2 0 0 0 0];

internalField   nonuniform List<scalar> 
400
(
-1.07516e-08
-1.07546e-08
-1.07491e-08
-1.07556e-08
-1.07473e-08
-1.07573e-08
-1.0746e-08
-1.0758e-08
-1.07458e-08
-1.07578e-08
-1.07466e-08
-1.07565e-08
-1.07482e-08
-1.07547e-08
-1.07501e-08
-1.0753e-08
-1.07514e-08
-1.07521e-08
-1.07519e-08
-1.07519e-08
-1.14833e-08
-1.14851e-08
-1.14792e-08
-1.149e-08
-1.14799e-08
-1.14841e-08
-1.14854e-08
-1.14868e-08
-1.14807e-08
-1.14955e-08
-1.14628e-08
-1.15005e-08
-1.14592e-08
-1.14965e-08
-1.1464e-08
-1.14899e-08
-1.14692e-08
-1.1483e-08
-1.14773e-08
-1.14793e-08
-1.25214e-08
-1.25296e-08
-1.24943e-08
-1.25301e-08
-1.24966e-08
-1.2513e-08
-1.25276e-08
-1.24976e-08
-1.25354e-08
-1.24934e-08
-1.25316e-08
-1.24965e-08
-1.25276e-08
-1.24996e-08
-1.25242e-08
-1.25034e-08
-1.2519e-08
-1.25083e-08
-1.25124e-08
-1.25115e-08
-1.34449e-08
-1.34417e-08
-1.34464e-08
-1.34518e-08
-1.34286e-08
-1.34443e-08
-1.34444e-08
-1.34291e-08
-1.34595e-08
-1.34194e-08
-1.34608e-08
-1.34178e-08
-1.34582e-08
-1.34225e-08
-1.34534e-08
-1.34276e-08
-1.34464e-08
-1.34335e-08
-1.34391e-08
-1.34378e-08
-1.41028e-08
-1.41017e-08
-1.41013e-08
-1.41061e-08
-1.40958e-08
-1.40935e-08
-1.41117e-08
-1.40827e-08
-1.41173e-08
-1.40775e-08
-1.41121e-08
-1.40819e-08
-1.41082e-08
-1.40852e-08
-1.41052e-08
-1.40884e-08
-1.41015e-08
-1.40932e-08
-1.40944e-08
-1.40947e-08
-1.45142e-08
-1.45259e-08
-1.44801e-08
-1.45243e-08
-1.44857e-08
-1.45001e-08
-1.45257e-08
-1.44789e-08
-1.45377e-08
-1.4472e-08
-1.45353e-08
-1.44747e-08
-1.45294e-08
-1.44804e-08
-1.45231e-08
-1.44876e-08
-1.45132e-08
-1.44953e-08
-1.45042e-08
-1.45017e-08
-1.47465e-08
-1.47427e-08
-1.47452e-08
-1.47477e-08
-1.4737e-08
-1.47323e-08
-1.47657e-08
-1.47154e-08
-1.47744e-08
-1.47087e-08
-1.47715e-08
-1.47113e-08
-1.47656e-08
-1.47168e-08
-1.47597e-08
-1.47238e-08
-1.47506e-08
-1.47327e-08
-1.47397e-08
-1.47382e-08
-1.48861e-08
-1.48896e-08
-1.48866e-08
-1.49091e-08
-1.48538e-08
-1.49177e-08
-1.48455e-08
-1.49166e-08
-1.48403e-08
-1.49138e-08
-1.48408e-08
-1.49032e-08
-1.48553e-08
-1.48963e-08
-1.48596e-08
-1.48901e-08
-1.48632e-08
-1.48817e-08
-1.48736e-08
-1.48765e-08
-1.49771e-08
-1.49818e-08
-1.49546e-08
-1.49853e-08
-1.49549e-08
-1.49635e-08
-1.49874e-08
-1.49447e-08
-1.49962e-08
-1.49381e-08
-1.49945e-08
-1.494e-08
-1.49897e-08
-1.49453e-08
-1.49844e-08
-1.49515e-08
-1.49756e-08
-1.49588e-08
-1.49669e-08
-1.49646e-08
-1.50398e-08
-1.50393e-08
-1.50394e-08
-1.50495e-08
-1.50163e-08
-1.50382e-08
-1.50374e-08
-1.50181e-08
-1.50564e-08
-1.50069e-08
-1.50573e-08
-1.50072e-08
-1.50535e-08
-1.50122e-08
-1.5048e-08
-1.5018e-08
-1.50397e-08
-1.50249e-08
-1.50314e-08
-1.50298e-08
-1.50954e-08
-1.50983e-08
-1.50841e-08
-1.50995e-08
-1.50966e-08
-1.5082e-08
-1.51051e-08
-1.50768e-08
-1.51071e-08
-1.50711e-08
-1.51083e-08
-1.50698e-08
-1.51021e-08
-1.50759e-08
-1.50976e-08
-1.50801e-08
-1.50935e-08
-1.50855e-08
-1.50857e-08
-1.50865e-08
-1.51529e-08
-1.51565e-08
-1.51347e-08
-1.51494e-08
-1.51634e-08
-1.51269e-08
-1.51733e-08
-1.51209e-08
-1.51743e-08
-1.51152e-08
-1.5174e-08
-1.51155e-08
-1.51679e-08
-1.51225e-08
-1.51617e-08
-1.51295e-08
-1.51538e-08
-1.51381e-08
-1.5143e-08
-1.51423e-08
-1.52045e-08
-1.51936e-08
-1.52368e-08
-1.52159e-08
-1.51929e-08
-1.52169e-08
-1.51977e-08
-1.52125e-08
-1.52015e-08
-1.52104e-08
-1.51998e-08
-1.52102e-08
-1.51986e-08
-1.52115e-08
-1.51906e-08
-1.52087e-08
-1.51953e-08
-1.52039e-08
-1.52006e-08
-1.52015e-08
-1.52806e-08
-1.52923e-08
-1.52459e-08
-1.52958e-08
-1.52453e-08
-1.52792e-08
-1.52703e-08
-1.52613e-08
-1.52885e-08
-1.5252e-08
-1.52879e-08
-1.52532e-08
-1.52816e-08
-1.52579e-08
-1.52776e-08
-1.52612e-08
-1.5274e-08
-1.52661e-08
-1.52663e-08
-1.52671e-08
-1.53418e-08
-1.53338e-08
-1.53695e-08
-1.53512e-08
-1.53437e-08
-1.53511e-08
-1.53414e-08
-1.53518e-08
-1.5339e-08
-1.53513e-08
-1.53411e-08
-1.53507e-08
-1.5336e-08
-1.53467e-08
-1.53381e-08
-1.53447e-08
-1.53381e-08
-1.53423e-08
-1.53404e-08
-1.5341e-08
-1.54325e-08
-1.54344e-08
-1.54288e-08
-1.54459e-08
-1.54209e-08
-1.5438e-08
-1.54241e-08
-1.54382e-08
-1.54138e-08
-1.54321e-08
-1.54252e-08
-1.54212e-08
-1.54342e-08
-1.54174e-08
-1.54317e-08
-1.54204e-08
-1.54285e-08
-1.5424e-08
-1.54232e-08
-1.54242e-08
-1.55239e-08
-1.55273e-08
-1.55109e-08
-1.55301e-08
-1.55196e-08
-1.55125e-08
-1.5532e-08
-1.55062e-08
-1.55325e-08
-1.55015e-08
-1.55362e-08
-1.54974e-08
-1.553e-08
-1.55038e-08
-1.55251e-08
-1.55082e-08
-1.5521e-08
-1.55135e-08
-1.55135e-08
-1.55143e-08
-1.56133e-08
-1.56152e-08
-1.56081e-08
-1.56203e-08
-1.56048e-08
-1.56044e-08
-1.56192e-08
-1.55948e-08
-1.5625e-08
-1.55883e-08
-1.56228e-08
-1.55902e-08
-1.56167e-08
-1.55954e-08
-1.56131e-08
-1.55986e-08
-1.561e-08
-1.56031e-08
-1.56028e-08
-1.56037e-08
-1.56885e-08
-1.56861e-08
-1.56858e-08
-1.56935e-08
-1.56735e-08
-1.56741e-08
-1.57059e-08
-1.56534e-08
-1.57164e-08
-1.56451e-08
-1.57158e-08
-1.56463e-08
-1.57091e-08
-1.56535e-08
-1.57028e-08
-1.56621e-08
-1.56914e-08
-1.56711e-08
-1.56811e-08
-1.56782e-08
-1.57208e-08
-1.57213e-08
-1.5722e-08
-1.5721e-08
-1.57223e-08
-1.57209e-08
-1.57223e-08
-1.57206e-08
-1.57222e-08
-1.57205e-08
-1.5722e-08
-1.57208e-08
-1.57215e-08
-1.57209e-08
-1.57214e-08
-1.57212e-08
-1.57214e-08
-1.57212e-08
-1.57213e-08
-1.57213e-08
)
;

boundaryField
{
    movingWall
    {
        type            calculated;
        value           nonuniform List<scalar> 
20
(
-1.57208e-08
-1.57213e-08
-1.5722e-08
-1.5721e-08
-1.57223e-08
-1.57209e-08
-1.57223e-08
-1.57206e-08
-1.57222e-08
-1.57205e-08
-1.5722e-08
-1.57208e-08
-1.57215e-08
-1.57209e-08
-1.57214e-08
-1.57212e-08
-1.57214e-08
-1.57212e-08
-1.57213e-08
-1.57213e-08
)
;
    }
    fixedWalls
    {
        type            calculated;
        value           nonuniform List<scalar> 
60
(
-1.07516e-08
-1.14833e-08
-1.25214e-08
-1.34449e-08
-1.41028e-08
-1.45142e-08
-1.47465e-08
-1.48861e-08
-1.49771e-08
-1.50398e-08
-1.50954e-08
-1.51529e-08
-1.52045e-08
-1.52806e-08
-1.53418e-08
-1.54325e-08
-1.55239e-08
-1.56133e-08
-1.56885e-08
-1.57208e-08
-1.07519e-08
-1.14793e-08
-1.25115e-08
-1.34378e-08
-1.40947e-08
-1.45017e-08
-1.47382e-08
-1.48765e-08
-1.49646e-08
-1.50298e-08
-1.50865e-08
-1.51423e-08
-1.52015e-08
-1.52671e-08
-1.5341e-08
-1.54242e-08
-1.55143e-08
-1.56037e-08
-1.56782e-08
-1.57213e-08
-1.07516e-08
-1.07546e-08
-1.07491e-08
-1.07556e-08
-1.07473e-08
-1.07573e-08
-1.0746e-08
-1.0758e-08
-1.07458e-08
-1.07578e-08
-1.07466e-08
-1.07565e-08
-1.07482e-08
-1.07547e-08
-1.07501e-08
-1.0753e-08
-1.07514e-08
-1.07521e-08
-1.07519e-08
-1.07519e-08
)
;
    }
    frontAndBack
    {
        type            empty;
    }
}


// ************************************************************************* //
