/*--------------------------------*- C++ -*----------------------------------*\
| =========                 |                                                 |
| \\      /  F ield         | OpenFOAM: The Open Source CFD Toolbox           |
|  \\    /   O peration     | Version:  2312                                  |
|   \\  /    A nd           | Website:  www.openfoam.com                      |
|    \\/     M anipulation  |                                                 |
\*---------------------------------------------------------------------------*/
FoamFile
{
    version     2.0;
    format      ascii;
    arch        "LSB;label=32;scalar=64";
    class       volScalarField;
    location    "7";
    object      kTotal;
}
// * * * * * * * * * * * * * * * * * * * * * * * * * * * * * * * * * * * * * //

dimensions      [0 2 -2 0 0 0 0];

internalField   nonuniform List<scalar> 
400
(
1.158e-05
1.158e-05
1.15799e-05
1.158e-05
1.15799e-05
1.15799e-05
1.15799e-05
1.15799e-05
1.15799e-05
1.15799e-05
1.15799e-05
1.15799e-05
1.15799e-05
1.15799e-05
1.15799e-05
1.15799e-05
1.15799e-05
1.15799e-05
1.15799e-05
1.15799e-05
1.19447e-05
1.19447e-05
1.19442e-05
1.1944e-05
1.19436e-05
1.19434e-05
1.19431e-05
1.19429e-05
1.19426e-05
1.19425e-05
1.19423e-05
1.19422e-05
1.1942e-05
1.19419e-05
1.19418e-05
1.19417e-05
1.19417e-05
1.19416e-05
1.19416e-05
1.19416e-05
1.24902e-05
1.24902e-05
1.24896e-05
1.24893e-05
1.24889e-05
1.24887e-05
1.24883e-05
1.24882e-05
1.24879e-05
1.24877e-05
1.24875e-05
1.24873e-05
1.24872e-05
1.24871e-05
1.24869e-05
1.24869e-05
1.24868e-05
1.24867e-05
1.24867e-05
1.24867e-05
1.30222e-05
1.30222e-05
1.30215e-05
1.30212e-05
1.30208e-05
1.30206e-05
1.30202e-05
1.302e-05
1.30196e-05
1.30195e-05
1.30192e-05
1.30191e-05
1.30189e-05
1.30188e-05
1.30186e-05
1.30186e-05
1.30185e-05
1.30184e-05
1.30184e-05
1.30184e-05
1.3436e-05
1.3436e-05
1.34353e-05
1.3435e-05
1.34345e-05
1.34343e-05
1.34339e-05
1.34337e-05
1.34333e-05
1.34331e-05
1.34329e-05
1.34327e-05
1.34325e-05
1.34324e-05
1.34323e-05
1.34322e-05
1.34321e-05
1.3432e-05
1.3432e-05
1.3432e-05
1.37167e-05
1.37167e-05
1.3716e-05
1.37157e-05
1.37152e-05
1.3715e-05
1.37145e-05
1.37143e-05
1.3714e-05
1.37138e-05
1.37135e-05
1.37133e-05
1.37131e-05
1.3713e-05
1.37128e-05
1.37127e-05
1.37127e-05
1.37126e-05
1.37126e-05
1.37126e-05
1.3893e-05
1.3893e-05
1.38922e-05
1.38919e-05
1.38914e-05
1.38912e-05
1.38907e-05
1.38905e-05
1.38901e-05
1.38899e-05
1.38896e-05
1.38895e-05
1.38892e-05
1.38891e-05
1.3889e-05
1.38889e-05
1.38888e-05
1.38887e-05
1.38887e-05
1.38887e-05
1.40011e-05
1.40011e-05
1.40004e-05
1.40001e-05
1.39995e-05
1.39993e-05
1.39988e-05
1.39986e-05
1.39982e-05
1.3998e-05
1.39977e-05
1.39976e-05
1.39973e-05
1.39972e-05
1.3997e-05
1.3997e-05
1.39969e-05
1.39968e-05
1.39968e-05
1.39968e-05
1.40702e-05
1.40702e-05
1.40694e-05
1.40691e-05
1.40686e-05
1.40683e-05
1.40679e-05
1.40677e-05
1.40672e-05
1.40671e-05
1.40668e-05
1.40666e-05
1.40664e-05
1.40662e-05
1.40661e-05
1.4066e-05
1.40659e-05
1.40658e-05
1.40658e-05
1.40658e-05
1.41192e-05
1.41191e-05
1.41184e-05
1.41181e-05
1.41175e-05
1.41173e-05
1.41168e-05
1.41166e-05
1.41162e-05
1.4116e-05
1.41157e-05
1.41155e-05
1.41153e-05
1.41152e-05
1.4115e-05
1.41149e-05
1.41148e-05
1.41148e-05
1.41147e-05
1.41147e-05
1.41592e-05
1.41592e-05
1.41584e-05
1.41582e-05
1.41576e-05
1.41573e-05
1.41569e-05
1.41566e-05
1.41562e-05
1.4156e-05
1.41557e-05
1.41556e-05
1.41553e-05
1.41552e-05
1.4155e-05
1.41549e-05
1.41548e-05
1.41548e-05
1.41548e-05
1.41548e-05
1.41967e-05
1.41967e-05
1.41959e-05
1.41957e-05
1.41951e-05
1.41948e-05
1.41943e-05
1.41941e-05
1.41937e-05
1.41935e-05
1.41932e-05
1.4193e-05
1.41928e-05
1.41927e-05
1.41925e-05
1.41924e-05
1.41923e-05
1.41923e-05
1.41922e-05
1.41922e-05
1.42353e-05
1.42353e-05
1.42345e-05
1.42342e-05
1.42336e-05
1.42334e-05
1.42329e-05
1.42327e-05
1.42323e-05
1.42321e-05
1.42317e-05
1.42316e-05
1.42313e-05
1.42312e-05
1.4231e-05
1.42309e-05
1.42308e-05
1.42308e-05
1.42308e-05
1.42307e-05
1.4277e-05
1.4277e-05
1.42762e-05
1.42759e-05
1.42753e-05
1.42751e-05
1.42746e-05
1.42744e-05
1.4274e-05
1.42737e-05
1.42735e-05
1.42733e-05
1.4273e-05
1.42729e-05
1.42727e-05
1.42726e-05
1.42725e-05
1.42725e-05
1.42725e-05
1.42724e-05
1.4323e-05
1.4323e-05
1.43222e-05
1.43219e-05
1.43214e-05
1.43211e-05
1.43206e-05
1.43204e-05
1.432e-05
1.43198e-05
1.43195e-05
1.43193e-05
1.4319e-05
1.43189e-05
1.43187e-05
1.43187e-05
1.43186e-05
1.43185e-05
1.43185e-05
1.43185e-05
1.43734e-05
1.43734e-05
1.43726e-05
1.43722e-05
1.43717e-05
1.43714e-05
1.43709e-05
1.43707e-05
1.43703e-05
1.43701e-05
1.43697e-05
1.43696e-05
1.43693e-05
1.43692e-05
1.4369e-05
1.43689e-05
1.43688e-05
1.43688e-05
1.43688e-05
1.43687e-05
1.4426e-05
1.4426e-05
1.44252e-05
1.44248e-05
1.44243e-05
1.4424e-05
1.44235e-05
1.44233e-05
1.44229e-05
1.44227e-05
1.44223e-05
1.44222e-05
1.44219e-05
1.44218e-05
1.44216e-05
1.44215e-05
1.44214e-05
1.44214e-05
1.44213e-05
1.44213e-05
1.44762e-05
1.44762e-05
1.44753e-05
1.4475e-05
1.44744e-05
1.44742e-05
1.44737e-05
1.44734e-05
1.4473e-05
1.44728e-05
1.44725e-05
1.44723e-05
1.44721e-05
1.44719e-05
1.44718e-05
1.44717e-05
1.44716e-05
1.44715e-05
1.44715e-05
1.44715e-05
1.45165e-05
1.45165e-05
1.45157e-05
1.45154e-05
1.45149e-05
1.45146e-05
1.45141e-05
1.45139e-05
1.45135e-05
1.45133e-05
1.4513e-05
1.45128e-05
1.45125e-05
1.45124e-05
1.45122e-05
1.45121e-05
1.4512e-05
1.4512e-05
1.4512e-05
1.45119e-05
1.45349e-05
1.45349e-05
1.45349e-05
1.45348e-05
1.45348e-05
1.45348e-05
1.45348e-05
1.45348e-05
1.45348e-05
1.45348e-05
1.45348e-05
1.45348e-05
1.45348e-05
1.45348e-05
1.45348e-05
1.45348e-05
1.45348e-05
1.45348e-05
1.45348e-05
1.45348e-05
)
;

boundaryField
{
    movingWall
    {
        type            calculated;
        value           nonuniform List<scalar> 
20
(
1.45349e-05
1.45349e-05
1.45349e-05
1.45348e-05
1.45348e-05
1.45348e-05
1.45348e-05
1.45348e-05
1.45348e-05
1.45348e-05
1.45348e-05
1.45348e-05
1.45348e-05
1.45348e-05
1.45348e-05
1.45348e-05
1.45348e-05
1.45348e-05
1.45348e-05
1.45348e-05
)
;
    }
    fixedWalls
    {
        type            calculated;
        value           nonuniform List<scalar> 
60
(
1.158e-05
1.19447e-05
1.24902e-05
1.30222e-05
1.3436e-05
1.37167e-05
1.3893e-05
1.40011e-05
1.40702e-05
1.41192e-05
1.41592e-05
1.41967e-05
1.42353e-05
1.4277e-05
1.4323e-05
1.43734e-05
1.4426e-05
1.44762e-05
1.45165e-05
1.45349e-05
1.15799e-05
1.19416e-05
1.24867e-05
1.30184e-05
1.3432e-05
1.37126e-05
1.38887e-05
1.39968e-05
1.40658e-05
1.41147e-05
1.41548e-05
1.41922e-05
1.42307e-05
1.42724e-05
1.43185e-05
1.43687e-05
1.44213e-05
1.44715e-05
1.45119e-05
1.45348e-05
1.158e-05
1.158e-05
1.15799e-05
1.158e-05
1.15799e-05
1.15799e-05
1.15799e-05
1.15799e-05
1.15799e-05
1.15799e-05
1.15799e-05
1.15799e-05
1.15799e-05
1.15799e-05
1.15799e-05
1.15799e-05
1.15799e-05
1.15799e-05
1.15799e-05
1.15799e-05
)
;
    }
    frontAndBack
    {
        type            empty;
    }
}


// ************************************************************************* //
