/*--------------------------------*- C++ -*----------------------------------*\
| =========                 |                                                 |
| \\      /  F ield         | OpenFOAM: The Open Source CFD Toolbox           |
|  \\    /   O peration     | Version:  2312                                  |
|   \\  /    A nd           | Website:  www.openfoam.com                      |
|    \\/     M anipulation  |                                                 |
\*---------------------------------------------------------------------------*/
FoamFile
{
    version     2.0;
    format      ascii;
    arch        "LSB;label=32;scalar=64";
    class       volVectorField;
    location    "7";
    object      kU;
}
// * * * * * * * * * * * * * * * * * * * * * * * * * * * * * * * * * * * * * //

dimensions      [0 3 -3 0 0 0 0];

internalField   nonuniform List<vector> 
400
(
(-5.78461e-06 1.02699e-18 0)
(-5.7846e-06 -2.20599e-19 0)
(-5.7846e-06 5.23564e-20 0)
(-5.7846e-06 -1.1106e-20 0)
(-5.78459e-06 2.76194e-21 0)
(-5.78459e-06 -2.60963e-22 0)
(-5.78459e-06 6.47108e-22 0)
(-5.78459e-06 5.5714e-22 0)
(-5.78458e-06 5.99568e-22 0)
(-5.78459e-06 2.98904e-22 0)
(-5.78458e-06 3.46372e-22 0)
(-5.78459e-06 4.25214e-22 0)
(-5.78458e-06 7.72605e-22 0)
(-5.78458e-06 1.14254e-21 0)
(-5.78458e-06 6.85926e-22 0)
(-5.78458e-06 -3.40427e-22 0)
(-5.78458e-06 -2.40036e-22 0)
(-5.78458e-06 -2.46736e-22 0)
(-5.78458e-06 -3.65396e-23 0)
(-5.78458e-06 2.62996e-22 0)
(-5.96661e-06 -2.38928e-20 0)
(-5.96661e-06 7.87602e-21 0)
(-5.96635e-06 -3.95434e-22 0)
(-5.96624e-06 1.22024e-21 0)
(-5.96606e-06 5.34109e-22 0)
(-5.96596e-06 6.38319e-22 0)
(-5.9658e-06 8.30537e-22 0)
(-5.96572e-06 2.83768e-22 0)
(-5.96558e-06 -2.90396e-22 0)
(-5.96551e-06 -3.5176e-22 0)
(-5.96541e-06 -1.0988e-22 0)
(-5.96534e-06 -3.16765e-22 0)
(-5.96527e-06 4.76356e-23 0)
(-5.96521e-06 9.86629e-22 0)
(-5.96516e-06 1.07281e-21 0)
(-5.96513e-06 7.69278e-23 0)
(-5.9651e-06 -4.81751e-23 0)
(-5.96508e-06 -2.00046e-22 0)
(-5.96507e-06 -2.3508e-22 0)
(-5.96506e-06 1.25014e-22 0)
(-6.23882e-06 -8.99005e-19 0)
(-6.23882e-06 1.98533e-19 0)
(-6.23853e-06 -4.48523e-20 0)
(-6.2384e-06 1.10373e-20 0)
(-6.23821e-06 -2.10353e-21 0)
(-6.23811e-06 2.52863e-22 0)
(-6.23791e-06 -6.87642e-22 0)
(-6.23784e-06 -7.06996e-22 0)
(-6.23767e-06 -6.09609e-23 0)
(-6.23761e-06 1.1091e-21 0)
(-6.23748e-06 1.1393e-21 0)
(-6.23742e-06 -5.44936e-22 0)
(-6.23732e-06 -1.09685e-21 0)
(-6.23728e-06 -7.24844e-22 0)
(-6.2372e-06 -7.1476e-22 0)
(-6.23718e-06 -8.89207e-22 0)
(-6.23713e-06 -1.75287e-22 0)
(-6.23712e-06 5.56271e-22 0)
(-6.2371e-06 2.13674e-22 0)
(-6.2371e-06 7.61605e-23 0)
(-6.50435e-06 9.01333e-19 0)
(-6.50435e-06 -1.93228e-19 0)
(-6.50403e-06 4.64187e-20 0)
(-6.5039e-06 -1.01951e-20 0)
(-6.50368e-06 1.92281e-21 0)
(-6.50357e-06 -4.77342e-22 0)
(-6.50336e-06 -5.96452e-23 0)
(-6.50328e-06 1.38815e-22 0)
(-6.50309e-06 6.01225e-22 0)
(-6.50304e-06 1.07809e-21 0)
(-6.50288e-06 1.04431e-21 0)
(-6.50284e-06 4.63281e-22 0)
(-6.50271e-06 2.17539e-22 0)
(-6.50268e-06 -8.67296e-23 0)
(-6.50259e-06 -7.89781e-22 0)
(-6.50257e-06 -1.00452e-21 0)
(-6.50251e-06 -8.92577e-22 0)
(-6.5025e-06 -3.96118e-22 0)
(-6.50249e-06 4.29311e-22 0)
(-6.50248e-06 4.65361e-22 0)
(-6.71096e-06 -2.64332e-19 0)
(-6.71095e-06 5.65499e-20 0)
(-6.7106e-06 -1.30214e-20 0)
(-6.71047e-06 2.64511e-21 0)
(-6.71023e-06 -4.84965e-22 0)
(-6.71011e-06 6.07573e-22 0)
(-6.70989e-06 1.31711e-21 0)
(-6.7098e-06 1.74109e-21 0)
(-6.70961e-06 6.73721e-22 0)
(-6.70953e-06 -4.09548e-22 0)
(-6.70939e-06 -5.4813e-22 0)
(-6.70932e-06 2.82785e-22 0)
(-6.70921e-06 1.0496e-21 0)
(-6.70916e-06 8.52768e-22 0)
(-6.70908e-06 3.09897e-22 0)
(-6.70904e-06 5.86405e-22 0)
(-6.70899e-06 -3.66079e-22 0)
(-6.70898e-06 -8.67778e-22 0)
(-6.70896e-06 -1.44137e-22 0)
(-6.70895e-06 4.42997e-22 0)
(-6.85111e-06 -6.15194e-19 0)
(-6.85111e-06 1.33752e-19 0)
(-6.85076e-06 -3.10775e-20 0)
(-6.85061e-06 7.64909e-21 0)
(-6.85037e-06 -1.151e-21 0)
(-6.85025e-06 5.03936e-22 0)
(-6.85e-06 3.31902e-22 0)
(-6.84994e-06 9.44711e-22 0)
(-6.84971e-06 8.1734e-22 0)
(-6.84965e-06 5.3272e-22 0)
(-6.84948e-06 1.02367e-22 0)
(-6.84943e-06 -2.98474e-22 0)
(-6.84929e-06 -2.7618e-22 0)
(-6.84926e-06 -1.27477e-22 0)
(-6.84915e-06 2.01981e-22 0)
(-6.84913e-06 3.27051e-22 0)
(-6.84907e-06 3.89906e-22 0)
(-6.84906e-06 5.10221e-22 0)
(-6.84904e-06 4.27462e-25 0)
(-6.84903e-06 4.10543e-22 0)
(-6.93911e-06 1.05324e-18 0)
(-6.93912e-06 -2.28798e-19 0)
(-6.93874e-06 5.39591e-20 0)
(-6.9386e-06 -1.12522e-20 0)
(-6.93834e-06 3.26518e-21 0)
(-6.93823e-06 4.70807e-22 0)
(-6.93797e-06 1.21895e-21 0)
(-6.9379e-06 5.41783e-22 0)
(-6.93767e-06 3.85822e-22 0)
(-6.93761e-06 1.14615e-21 0)
(-6.93743e-06 8.47747e-22 0)
(-6.93738e-06 4.7408e-22 0)
(-6.93724e-06 2.47969e-22 0)
(-6.9372e-06 2.83617e-22 0)
(-6.9371e-06 6.34344e-22 0)
(-6.93707e-06 2.38671e-22 0)
(-6.93701e-06 2.36259e-22 0)
(-6.937e-06 6.65661e-22 0)
(-6.93698e-06 4.65795e-22 0)
(-6.93697e-06 1.7825e-22 0)
(-6.99313e-06 -4.71568e-19 0)
(-6.99312e-06 1.01776e-19 0)
(-6.99274e-06 -2.19457e-20 0)
(-6.99258e-06 6.32875e-21 0)
(-6.99234e-06 -3.51592e-22 0)
(-6.99218e-06 5.89909e-22 0)
(-6.99199e-06 5.11268e-22 0)
(-6.99184e-06 4.57161e-22 0)
(-6.99169e-06 2.77634e-22 0)
(-6.99156e-06 -1.59738e-22 0)
(-6.99144e-06 -7.48178e-23 0)
(-6.99134e-06 5.65996e-22 0)
(-6.99123e-06 5.75674e-22 0)
(-6.99116e-06 -6.44259e-23 0)
(-6.99109e-06 -6.42665e-22 0)
(-6.99104e-06 -6.34063e-22 0)
(-6.991e-06 -8.37537e-23 0)
(-6.99097e-06 2.93047e-22 0)
(-6.99095e-06 5.56806e-22 0)
(-6.99094e-06 -2.74971e-23 0)
(-7.02761e-06 -3.8503e-19 0)
(-7.0276e-06 8.57917e-20 0)
(-7.02723e-06 -1.90388e-20 0)
(-7.02707e-06 5.81123e-21 0)
(-7.02681e-06 -2.29735e-23 0)
(-7.02669e-06 2.60927e-22 0)
(-7.02643e-06 -1.35591e-21 0)
(-7.02635e-06 -1.58735e-21 0)
(-7.02613e-06 -1.19628e-21 0)
(-7.02606e-06 -1.34976e-21 0)
(-7.02588e-06 -9.53278e-22 0)
(-7.02582e-06 2.98422e-22 0)
(-7.02568e-06 2.87332e-22 0)
(-7.02564e-06 -6.77812e-22 0)
(-7.02554e-06 -9.95335e-22 0)
(-7.02551e-06 1.1392e-22 0)
(-7.02545e-06 8.26169e-22 0)
(-7.02544e-06 2.42023e-22 0)
(-7.02542e-06 -4.68567e-23 0)
(-7.02541e-06 -3.92732e-22 0)
(-7.05206e-06 7.33228e-19 0)
(-7.05206e-06 -1.57707e-19 0)
(-7.05167e-06 3.85899e-20 0)
(-7.05151e-06 -7.3993e-21 0)
(-7.05126e-06 3.63978e-21 0)
(-7.05112e-06 1.0522e-21 0)
(-7.05088e-06 6.79426e-22 0)
(-7.05079e-06 -4.78376e-23 0)
(-7.05056e-06 -3.65858e-23 0)
(-7.0505e-06 6.97095e-22 0)
(-7.05031e-06 4.01853e-22 0)
(-7.05026e-06 2.61661e-23 0)
(-7.05012e-06 -2.10737e-22 0)
(-7.05007e-06 -3.94143e-22 0)
(-7.04997e-06 -6.04781e-22 0)
(-7.04994e-06 -2.29247e-22 0)
(-7.04988e-06 2.62713e-22 0)
(-7.04987e-06 1.76032e-22 0)
(-7.04985e-06 -7.14603e-23 0)
(-7.04984e-06 -4.22426e-22 0)
(-7.07206e-06 -7.29389e-19 0)
(-7.07206e-06 1.62181e-19 0)
(-7.07168e-06 -3.66337e-20 0)
(-7.07153e-06 8.05821e-21 0)
(-7.07125e-06 -2.0351e-21 0)
(-7.07113e-06 4.22052e-22 0)
(-7.07088e-06 2.9872e-22 0)
(-7.07078e-06 6.25472e-22 0)
(-7.07056e-06 4.00085e-22 0)
(-7.07048e-06 1.82247e-22 0)
(-7.07031e-06 -2.81989e-22 0)
(-7.07024e-06 -1.54207e-21 0)
(-7.07012e-06 -1.73928e-21 0)
(-7.07006e-06 -1.50342e-22 0)
(-7.06997e-06 6.54248e-22 0)
(-7.06993e-06 -2.78255e-22 0)
(-7.06988e-06 -4.72573e-22 0)
(-7.06986e-06 -2.45495e-22 0)
(-7.06984e-06 2.17989e-22 0)
(-7.06983e-06 2.00731e-23 0)
(-7.09079e-06 6.96837e-19 0)
(-7.09078e-06 -1.50423e-19 0)
(-7.0904e-06 3.49167e-20 0)
(-7.09025e-06 -8.80292e-21 0)
(-7.08995e-06 2.79624e-22 0)
(-7.08985e-06 -8.48763e-22 0)
(-7.08959e-06 8.71635e-22 0)
(-7.0895e-06 8.21766e-22 0)
(-7.08927e-06 2.97627e-22 0)
(-7.0892e-06 -3.63631e-22 0)
(-7.08902e-06 1.80965e-22 0)
(-7.08896e-06 1.37221e-22 0)
(-7.08882e-06 -5.08827e-23 0)
(-7.08878e-06 3.57848e-22 0)
(-7.08867e-06 9.63099e-22 0)
(-7.08865e-06 6.4128e-22 0)
(-7.08858e-06 1.90521e-22 0)
(-7.08857e-06 -1.31966e-22 0)
(-7.08855e-06 1.05733e-22 0)
(-7.08854e-06 8.7715e-23 0)
(-7.11003e-06 -3.0736e-19 0)
(-7.11004e-06 6.66933e-20 0)
(-7.10962e-06 -1.47515e-20 0)
(-7.10948e-06 3.69332e-21 0)
(-7.10922e-06 -6.68485e-22 0)
(-7.10907e-06 3.04121e-22 0)
(-7.10884e-06 -8.85961e-23 0)
(-7.10872e-06 9.74023e-23 0)
(-7.10853e-06 4.14357e-22 0)
(-7.10842e-06 5.33287e-23 0)
(-7.10827e-06 5.16255e-22 0)
(-7.10818e-06 1.7524e-21 0)
(-7.10806e-06 1.75823e-21 0)
(-7.10799e-06 1.8281e-22 0)
(-7.10792e-06 -5.72075e-22 0)
(-7.10787e-06 -5.84107e-22 0)
(-7.10782e-06 -9.27345e-22 0)
(-7.1078e-06 -4.22782e-22 0)
(-7.10778e-06 -1.82555e-22 0)
(-7.10777e-06 -3.07956e-22 0)
(-7.13085e-06 -5.3343e-19 0)
(-7.13084e-06 1.19972e-19 0)
(-7.13047e-06 -2.74147e-20 0)
(-7.13029e-06 6.99272e-21 0)
(-7.13004e-06 -9.97927e-22 0)
(-7.1299e-06 4.73709e-22 0)
(-7.12966e-06 -1.47908e-21 0)
(-7.12955e-06 -1.21596e-21 0)
(-7.12934e-06 4.4218e-22 0)
(-7.12925e-06 1.06956e-21 0)
(-7.12908e-06 1.11502e-21 0)
(-7.129e-06 4.93082e-22 0)
(-7.12888e-06 5.18012e-23 0)
(-7.12882e-06 -3.37674e-22 0)
(-7.12873e-06 -4.80602e-22 0)
(-7.12869e-06 -4.5639e-23 0)
(-7.12863e-06 9.30582e-23 0)
(-7.12861e-06 -1.00785e-22 0)
(-7.12859e-06 -5.15706e-22 0)
(-7.12859e-06 -8.06085e-22 0)
(-7.15384e-06 1.16424e-18 0)
(-7.15385e-06 -2.52975e-19 0)
(-7.15344e-06 5.89243e-20 0)
(-7.15329e-06 -1.37896e-20 0)
(-7.15301e-06 2.20706e-21 0)
(-7.15287e-06 -1.09003e-21 0)
(-7.15265e-06 -8.94548e-23 0)
(-7.1525e-06 3.80924e-22 0)
(-7.15233e-06 1.04261e-21 0)
(-7.15221e-06 1.3222e-21 0)
(-7.15206e-06 1.44971e-22 0)
(-7.15196e-06 -1.19139e-21 0)
(-7.15185e-06 -9.14301e-22 0)
(-7.15178e-06 -2.70923e-22 0)
(-7.1517e-06 -8.70096e-23 0)
(-7.15166e-06 4.39377e-22 0)
(-7.15161e-06 7.89506e-22 0)
(-7.15158e-06 3.96988e-22 0)
(-7.15156e-06 -9.12e-23 0)
(-7.15156e-06 -3.24093e-22 0)
(-7.17896e-06 -8.278e-19 0)
(-7.17896e-06 1.7745e-19 0)
(-7.17856e-06 -4.11862e-20 0)
(-7.1784e-06 1.00485e-20 0)
(-7.17813e-06 -1.41675e-21 0)
(-7.17798e-06 2.11873e-22 0)
(-7.17775e-06 -6.51257e-22 0)
(-7.17762e-06 -1.57023e-21 0)
(-7.17743e-06 -1.92326e-21 0)
(-7.17733e-06 -4.53822e-22 0)
(-7.17716e-06 -5.57162e-23 0)
(-7.17708e-06 9.15622e-22 0)
(-7.17695e-06 6.08929e-22 0)
(-7.17689e-06 2.94048e-23 0)
(-7.1768e-06 -1.91408e-22 0)
(-7.17676e-06 9.24514e-23 0)
(-7.17671e-06 -6.96056e-22 0)
(-7.17669e-06 -1.04906e-21 0)
(-7.17667e-06 -4.95593e-22 0)
(-7.17666e-06 -6.86668e-23 0)
(-7.20522e-06 -1.39475e-19 0)
(-7.20522e-06 3.17368e-20 0)
(-7.20482e-06 -6.6903e-21 0)
(-7.20466e-06 2.73284e-21 0)
(-7.20437e-06 3.46953e-22 0)
(-7.20424e-06 3.99376e-22 0)
(-7.20399e-06 9.30798e-23 0)
(-7.20388e-06 -1.33124e-21 0)
(-7.20366e-06 -2.25295e-21 0)
(-7.20358e-06 -1.69901e-21 0)
(-7.2034e-06 -7.07804e-22 0)
(-7.20333e-06 -2.75139e-22 0)
(-7.2032e-06 5.54051e-23 0)
(-7.20314e-06 3.3516e-22 0)
(-7.20305e-06 6.7159e-22 0)
(-7.203e-06 4.25704e-22 0)
(-7.20295e-06 -2.54392e-22 0)
(-7.20293e-06 -1.51694e-21 0)
(-7.20291e-06 -1.03237e-21 0)
(-7.2029e-06 -2.16653e-22 0)
(-7.23027e-06 9.12924e-19 0)
(-7.23027e-06 -1.97377e-19 0)
(-7.22986e-06 4.5972e-20 0)
(-7.2297e-06 -1.1213e-20 0)
(-7.22942e-06 1.41828e-21 0)
(-7.22928e-06 -9.82251e-22 0)
(-7.22903e-06 3.73736e-22 0)
(-7.22893e-06 7.12386e-22 0)
(-7.2287e-06 2.92358e-22 0)
(-7.22861e-06 -7.21135e-22 0)
(-7.22844e-06 -1.14938e-21 0)
(-7.22836e-06 -9.29928e-22 0)
(-7.22824e-06 2.81091e-22 0)
(-7.22817e-06 1.27291e-21 0)
(-7.22808e-06 8.08181e-22 0)
(-7.22804e-06 -5.73022e-22 0)
(-7.22798e-06 -6.72519e-22 0)
(-7.22796e-06 -3.86184e-22 0)
(-7.22794e-06 -3.63131e-22 0)
(-7.22794e-06 -1.04616e-22 0)
(-7.25041e-06 -4.04028e-19 0)
(-7.25041e-06 8.4802e-20 0)
(-7.25002e-06 -2.00929e-20 0)
(-7.24987e-06 3.56081e-21 0)
(-7.24959e-06 -1.4725e-21 0)
(-7.24947e-06 -5.03068e-23 0)
(-7.24919e-06 -1.31618e-22 0)
(-7.24912e-06 -4.20094e-22 0)
(-7.24888e-06 -3.75279e-22 0)
(-7.24882e-06 -1.91358e-22 0)
(-7.24862e-06 1.58585e-22 0)
(-7.24857e-06 -2.44638e-23 0)
(-7.24842e-06 -5.18011e-22 0)
(-7.24838e-06 -8.90479e-23 0)
(-7.24827e-06 -1.06113e-22 0)
(-7.24824e-06 -8.04804e-22 0)
(-7.24817e-06 -1.21613e-21 0)
(-7.24816e-06 -1.24056e-22 0)
(-7.24814e-06 -3.71601e-22 0)
(-7.24813e-06 -3.69067e-22 0)
(-7.25958e-06 -6.06212e-19 0)
(-7.25957e-06 1.31009e-19 0)
(-7.25957e-06 -3.11314e-20 0)
(-7.25956e-06 6.1718e-21 0)
(-7.25956e-06 -1.96411e-21 0)
(-7.25955e-06 8.74627e-23 0)
(-7.25955e-06 -2.12924e-22 0)
(-7.25955e-06 -5.88205e-22 0)
(-7.25955e-06 -6.91264e-22 0)
(-7.25955e-06 -6.94158e-22 0)
(-7.25954e-06 -6.58766e-22 0)
(-7.25954e-06 -1.33654e-21 0)
(-7.25954e-06 -1.26436e-21 0)
(-7.25954e-06 -6.92077e-22 0)
(-7.25954e-06 1.12754e-22 0)
(-7.25954e-06 1.64332e-22 0)
(-7.25954e-06 -3.67895e-22 0)
(-7.25954e-06 -2.45357e-22 0)
(-7.25954e-06 -4.02805e-22 0)
(-7.25954e-06 -2.73267e-22 0)
)
;

boundaryField
{
    movingWall
    {
        type            calculated;
        value           nonuniform List<vector> 
20
(
(-7.25958e-06 -0 -0)
(-7.25957e-06 -0 -0)
(-7.25957e-06 -0 -0)
(-7.25956e-06 -0 -0)
(-7.25956e-06 -0 -0)
(-7.25955e-06 -0 -0)
(-7.25955e-06 -0 -0)
(-7.25955e-06 -0 -0)
(-7.25955e-06 -0 -0)
(-7.25955e-06 -0 -0)
(-7.25954e-06 -0 -0)
(-7.25954e-06 -0 -0)
(-7.25954e-06 -0 -0)
(-7.25954e-06 -0 -0)
(-7.25954e-06 -0 -0)
(-7.25954e-06 -0 -0)
(-7.25954e-06 -0 -0)
(-7.25954e-06 -0 -0)
(-7.25954e-06 -0 -0)
(-7.25954e-06 -0 -0)
)
;
    }
    fixedWalls
    {
        type            calculated;
        value           nonuniform List<vector> 
60
(
(-5.78461e-06 -0 -0)
(-5.96661e-06 -0 -0)
(-6.23882e-06 -0 -0)
(-6.50435e-06 -0 -0)
(-6.71096e-06 -0 -0)
(-6.85111e-06 -0 -0)
(-6.93911e-06 -0 -0)
(-6.99313e-06 -0 -0)
(-7.02761e-06 -0 -0)
(-7.05206e-06 -0 -0)
(-7.07206e-06 -0 -0)
(-7.09079e-06 -0 -0)
(-7.11003e-06 -0 -0)
(-7.13085e-06 -0 -0)
(-7.15384e-06 -0 -0)
(-7.17896e-06 -0 -0)
(-7.20522e-06 -0 -0)
(-7.23027e-06 -0 -0)
(-7.25041e-06 -0 -0)
(-7.25958e-06 -0 -0)
(-5.78458e-06 -0 -0)
(-5.96506e-06 -0 -0)
(-6.2371e-06 -0 -0)
(-6.50248e-06 -0 -0)
(-6.70895e-06 -0 -0)
(-6.84903e-06 -0 -0)
(-6.93697e-06 -0 -0)
(-6.99094e-06 -0 -0)
(-7.02541e-06 -0 -0)
(-7.04984e-06 -0 -0)
(-7.06983e-06 -0 -0)
(-7.08854e-06 -0 -0)
(-7.10777e-06 -0 -0)
(-7.12859e-06 -0 -0)
(-7.15156e-06 -0 -0)
(-7.17666e-06 -0 -0)
(-7.2029e-06 -0 -0)
(-7.22794e-06 -0 -0)
(-7.24813e-06 -0 -0)
(-7.25954e-06 -0 -0)
(-5.78461e-06 -0 -0)
(-5.7846e-06 -0 -0)
(-5.7846e-06 -0 -0)
(-5.7846e-06 -0 -0)
(-5.78459e-06 -0 -0)
(-5.78459e-06 -0 -0)
(-5.78459e-06 -0 -0)
(-5.78459e-06 -0 -0)
(-5.78458e-06 -0 -0)
(-5.78459e-06 -0 -0)
(-5.78458e-06 -0 -0)
(-5.78459e-06 -0 -0)
(-5.78458e-06 -0 -0)
(-5.78458e-06 -0 -0)
(-5.78458e-06 -0 -0)
(-5.78458e-06 -0 -0)
(-5.78458e-06 -0 -0)
(-5.78458e-06 -0 -0)
(-5.78458e-06 -0 -0)
(-5.78458e-06 -0 -0)
)
;
    }
    frontAndBack
    {
        type            empty;
    }
}


// ************************************************************************* //
