/*--------------------------------*- C++ -*----------------------------------*\
| =========                 |                                                 |
| \\      /  F ield         | OpenFOAM: The Open Source CFD Toolbox           |
|  \\    /   O peration     | Version:  2312                                  |
|   \\  /    A nd           | Website:  www.openfoam.com                      |
|    \\/     M anipulation  |                                                 |
\*---------------------------------------------------------------------------*/
FoamFile
{
    version     2.0;
    format      ascii;
    arch        "LSB;label=32;scalar=64";
    class       volTensorField;
    location    "7";
    object      kU2;
}
// * * * * * * * * * * * * * * * * * * * * * * * * * * * * * * * * * * * * * //

dimensions      [0 4 -4 0 0 0 0];

internalField   nonuniform List<tensor> 
400
(
(5.78461e-06 -1.02304e-18 -0 -1.02699e-18 1.81629e-31 0 -0 0 0)
(5.7846e-06 2.20825e-19 -0 2.20599e-19 8.42128e-33 -0 -0 -0 0)
(5.7846e-06 -5.20751e-20 -0 -5.23564e-20 4.71332e-34 0 -0 0 0)
(5.7846e-06 1.13617e-20 -0 1.1106e-20 2.18137e-35 -0 -0 -0 0)
(5.78459e-06 -2.56892e-21 -0 -2.76194e-21 1.22657e-36 0 -0 0 0)
(5.78459e-06 3.42721e-22 -0 2.60963e-22 1.54613e-38 -0 -0 -0 0)
(5.78459e-06 -2.29403e-22 -0 -6.47108e-22 2.56627e-38 0 -0 0 0)
(5.78459e-06 -1.80908e-22 -0 -5.5714e-22 1.7424e-38 0 -0 0 0)
(5.78458e-06 -5.06352e-22 -0 -5.99568e-22 5.24831e-38 0 -0 0 0)
(5.78459e-06 -1.10355e-22 -0 -2.98904e-22 5.70231e-39 0 -0 0 0)
(5.78458e-06 -3.97809e-23 -0 -3.46372e-22 2.38202e-39 0 -0 0 0)
(5.78459e-06 -4.86912e-22 -0 -4.25214e-22 3.57919e-38 0 -0 0 0)
(5.78458e-06 -8.4003e-22 -0 -7.72605e-22 1.12197e-37 0 -0 0 0)
(5.78458e-06 -1.20099e-21 -0 -1.14254e-21 2.37212e-37 0 -0 0 0)
(5.78458e-06 -1.04856e-21 -0 -6.85926e-22 1.24337e-37 0 -0 0 0)
(5.78458e-06 -2.86914e-22 -0 3.40427e-22 -1.68851e-38 -0 -0 0 0)
(5.78458e-06 1.82568e-22 -0 2.40036e-22 7.5758e-39 -0 -0 -0 0)
(5.78458e-06 1.69005e-22 -0 2.46736e-22 7.20876e-39 -0 -0 -0 0)
(5.78458e-06 6.81321e-22 -0 3.65396e-23 4.30372e-39 -0 -0 -0 0)
(5.78458e-06 1.1895e-22 -0 -2.62996e-22 -5.40805e-39 0 -0 -0 0)
(5.96661e-06 2.7985e-20 -0 2.38928e-20 1.12064e-34 -0 -0 -0 0)
(5.96661e-06 -5.93281e-21 -0 -7.87602e-21 7.8314e-36 0 -0 0 0)
(5.96635e-06 1.38695e-21 -0 3.95434e-22 9.19235e-38 -0 -0 -0 0)
(5.96624e-06 -7.14555e-22 -0 -1.22024e-21 1.46144e-37 0 -0 0 0)
(5.96606e-06 -3.1382e-22 -0 -5.34109e-22 2.80946e-38 0 -0 0 0)
(5.96596e-06 -7.24846e-22 -0 -6.38319e-22 7.75538e-38 0 -0 0 0)
(5.9658e-06 -7.49921e-22 -0 -8.30537e-22 1.04401e-37 0 -0 0 0)
(5.96572e-06 -1.58231e-22 -0 -2.83768e-22 7.5265e-39 0 -0 0 0)
(5.96558e-06 4.00494e-22 -0 2.90396e-22 1.94955e-38 -0 -0 -0 0)
(5.96551e-06 8.49952e-22 -0 3.5176e-22 5.01179e-38 -0 -0 -0 0)
(5.96541e-06 5.84406e-22 -0 1.0988e-22 1.07645e-38 -0 -0 -0 0)
(5.96534e-06 1.58279e-22 -0 3.16765e-22 8.40475e-39 -0 -0 -0 0)
(5.96527e-06 3.10384e-22 -0 -4.76356e-23 -2.47857e-39 0 -0 -0 0)
(5.96521e-06 -5.7815e-22 -0 -9.86629e-22 9.56244e-38 0 -0 0 0)
(5.96516e-06 -1.15939e-21 -0 -1.07281e-21 2.08511e-37 0 -0 0 0)
(5.96513e-06 -8.86218e-22 -0 -7.69278e-23 1.14289e-38 0 -0 0 0)
(5.9651e-06 -3.54528e-22 -0 4.81751e-23 -2.86323e-39 -0 -0 0 0)
(5.96508e-06 1.64632e-22 -0 2.00046e-22 5.52115e-39 -0 -0 -0 0)
(5.96507e-06 1.20324e-21 -0 2.3508e-22 4.74191e-38 -0 -0 -0 0)
(5.96506e-06 6.90479e-22 -0 -1.25014e-22 -1.44709e-38 0 -0 -0 0)
(6.23882e-06 9.03513e-19 -0 8.99005e-19 1.30195e-31 -0 -0 -0 0)
(6.23882e-06 -1.96827e-19 -0 -1.98533e-19 6.26349e-33 0 -0 0 0)
(6.23853e-06 4.56923e-20 -0 4.48523e-20 3.28508e-34 -0 -0 -0 0)
(6.2384e-06 -1.09316e-20 -0 -1.10373e-20 1.93408e-35 0 -0 0 0)
(6.23821e-06 1.93004e-21 -0 2.10353e-21 6.5081e-37 -0 -0 -0 0)
(6.23811e-06 -1.69579e-22 -0 -2.52863e-22 6.87392e-39 0 -0 0 0)
(6.23791e-06 7.82415e-22 -0 6.87642e-22 8.62503e-38 -0 -0 -0 0)
(6.23784e-06 6.68314e-22 -0 7.06996e-22 7.57466e-38 -0 -0 -0 0)
(6.23767e-06 6.3015e-22 -0 6.09609e-23 6.15848e-39 -0 -0 -0 0)
(6.23761e-06 -3.63134e-22 -0 -1.1091e-21 6.45685e-38 0 -0 0 0)
(6.23748e-06 -1.08055e-21 -0 -1.1393e-21 1.97366e-37 0 -0 0 0)
(6.23742e-06 1.14319e-22 -0 5.44936e-22 9.98757e-39 -0 -0 -0 0)
(6.23732e-06 1.49053e-21 -0 1.09685e-21 2.62115e-37 -0 -0 -0 0)
(6.23728e-06 1.12384e-21 -0 7.24844e-22 1.30603e-37 -0 -0 -0 0)
(6.2372e-06 6.3039e-22 -0 7.1476e-22 7.22404e-38 -0 -0 -0 0)
(6.23718e-06 6.80543e-22 -0 8.89207e-22 9.70221e-38 -0 -0 -0 0)
(6.23713e-06 8.41238e-22 -0 1.75287e-22 2.36419e-38 -0 -0 -0 0)
(6.23712e-06 3.55279e-22 -0 -5.56271e-22 -3.16863e-38 0 -0 -0 0)
(6.2371e-06 3.17487e-22 -0 -2.13674e-22 -1.08767e-38 0 -0 -0 0)
(6.2371e-06 5.5652e-22 -0 -7.61605e-23 -6.7956e-39 0 -0 -0 0)
(6.50435e-06 -8.95263e-19 -0 -9.01333e-19 1.2406e-31 0 -0 0 0)
(6.50435e-06 1.94049e-19 -0 1.93228e-19 5.76473e-33 -0 -0 -0 0)
(6.50403e-06 -4.54313e-20 -0 -4.64187e-20 3.2424e-34 0 -0 0 0)
(6.5039e-06 1.06292e-20 -0 1.01951e-20 1.66616e-35 -0 -0 -0 0)
(6.50368e-06 -1.30045e-21 -0 -1.92281e-21 3.84479e-37 0 -0 0 0)
(6.50357e-06 1.52683e-21 -0 4.77342e-22 1.12065e-37 -0 -0 -0 0)
(6.50336e-06 8.44561e-22 -0 5.96452e-23 7.74585e-39 -0 -0 -0 0)
(6.50328e-06 2.73277e-22 -0 -1.38815e-22 -5.83321e-39 0 -0 -0 0)
(6.50309e-06 -4.37772e-22 -0 -6.01225e-22 4.0473e-38 0 -0 0 0)
(6.50304e-06 -1.26352e-21 -0 -1.07809e-21 2.0947e-37 0 -0 0 0)
(6.50288e-06 -1.24109e-21 -0 -1.04431e-21 1.9931e-37 0 -0 0 0)
(6.50284e-06 -1.10713e-22 -0 -4.63281e-22 7.88751e-39 0 -0 0 0)
(6.50271e-06 1.15287e-22 -0 -2.17539e-22 -3.85676e-39 0 -0 -0 0)
(6.50268e-06 1.10792e-22 -0 8.67296e-23 1.47769e-39 -0 -0 -0 0)
(6.50259e-06 4.07214e-22 -0 7.89781e-22 4.94587e-38 -0 -0 -0 0)
(6.50257e-06 1.12954e-21 -0 1.00452e-21 1.74493e-37 -0 -0 -0 0)
(6.50251e-06 1.79067e-21 -0 8.92577e-22 2.45798e-37 -0 -0 -0 0)
(6.5025e-06 1.44199e-21 -0 3.96118e-22 8.78429e-38 -0 -0 -0 0)
(6.50249e-06 2.94055e-22 -0 -4.29311e-22 -1.94143e-38 0 -0 -0 0)
(6.50248e-06 -6.02127e-23 -0 -4.65361e-22 4.30923e-39 0 -0 0 0)
(6.71096e-06 2.65297e-19 -0 2.64332e-19 1.04496e-32 -0 -0 -0 0)
(6.71095e-06 -5.45703e-20 -0 -5.65499e-20 4.59837e-34 0 -0 0 0)
(6.7106e-06 1.44889e-20 -0 1.30214e-20 2.81145e-35 -0 -0 -0 0)
(6.71047e-06 -1.52907e-21 -0 -2.64511e-21 6.02723e-37 0 -0 0 0)
(6.71023e-06 1.62972e-21 -0 4.84965e-22 1.17784e-37 -0 -0 -0 0)
(6.71011e-06 7.22398e-22 -0 -6.07573e-22 -6.54101e-38 0 -0 -0 0)
(6.70989e-06 4.51966e-24 -0 -1.31711e-21 -8.87182e-40 0 -0 -0 0)
(6.7098e-06 -1.01872e-21 -0 -1.74109e-21 2.6434e-37 0 -0 0 0)
(6.70961e-06 -1.22322e-21 -0 -6.73721e-22 1.22826e-37 0 -0 0 0)
(6.70953e-06 -3.87946e-22 -0 4.09548e-22 -2.36801e-38 -0 -0 0 0)
(6.70939e-06 3.63676e-22 -0 5.4813e-22 2.97109e-38 -0 -0 -0 0)
(6.70932e-06 8.1241e-22 -0 -2.82785e-22 -3.42416e-38 0 -0 -0 0)
(6.70921e-06 -4.89437e-22 -0 -1.0496e-21 7.65688e-38 0 -0 0 0)
(6.70916e-06 -9.27436e-22 -0 -8.52768e-22 1.17882e-37 0 -0 0 0)
(6.70908e-06 -2.18543e-22 -0 -3.09897e-22 1.00946e-38 0 -0 0 0)
(6.70904e-06 6.31152e-23 -0 -5.86405e-22 -5.5166e-39 0 -0 -0 0)
(6.70899e-06 5.79727e-22 -0 3.66079e-22 3.1633e-38 -0 -0 -0 0)
(6.70898e-06 1.29998e-21 -0 8.67778e-22 1.68147e-37 -0 -0 -0 0)
(6.70896e-06 9.1874e-22 -0 1.44137e-22 1.97384e-38 -0 -0 -0 0)
(6.70895e-06 -2.40545e-23 -0 -4.42997e-22 1.58834e-39 0 -0 0 0)
(6.85111e-06 6.16493e-19 -0 6.15194e-19 5.53578e-32 -0 -0 -0 0)
(6.85111e-06 -1.32185e-19 -0 -1.33752e-19 2.58061e-33 0 -0 0 0)
(6.85076e-06 3.28769e-20 -0 3.10775e-20 1.49142e-34 -0 -0 -0 0)
(6.85061e-06 -6.07234e-21 -0 -7.64909e-21 6.78011e-36 0 -0 0 0)
(6.85037e-06 2.08535e-21 -0 1.151e-21 3.50379e-37 -0 -0 -0 0)
(6.85025e-06 2.09459e-22 -0 -5.03936e-22 -1.54088e-38 0 -0 -0 0)
(6.85e-06 3.88507e-22 -0 -3.31902e-22 -1.88242e-38 0 -0 -0 0)
(6.84994e-06 -2.09573e-22 -0 -9.44711e-22 2.89034e-38 0 -0 0 0)
(6.84971e-06 -5.42808e-22 -0 -8.1734e-22 6.47705e-38 0 -0 0 0)
(6.84965e-06 -5.03655e-22 -0 -5.3272e-22 3.91709e-38 0 -0 0 0)
(6.84948e-06 -1.3931e-22 -0 -1.02367e-22 2.08202e-39 0 -0 0 0)
(6.84943e-06 2.34608e-22 -0 2.98474e-22 1.02234e-38 -0 -0 -0 0)
(6.84929e-06 3.21093e-22 -0 2.7618e-22 1.29472e-38 -0 -0 -0 0)
(6.84926e-06 2.80207e-22 -0 1.27477e-22 5.21515e-39 -0 -0 -0 0)
(6.84915e-06 4.40179e-22 -0 -2.01981e-22 -1.29809e-38 0 -0 -0 0)
(6.84913e-06 1.25367e-22 -0 -3.27051e-22 -5.98634e-39 0 -0 -0 0)
(6.84907e-06 5.51166e-23 -0 -3.89906e-22 -3.1377e-39 0 -0 -0 0)
(6.84906e-06 -1.35399e-22 -0 -5.10221e-22 1.00865e-38 0 -0 0 0)
(6.84904e-06 2.97724e-22 -0 -4.27462e-25 -1.85815e-41 0 -0 -0 0)
(6.84903e-06 7.30935e-23 -0 -4.10543e-22 -4.38135e-39 0 -0 -0 0)
(6.93911e-06 -1.05084e-18 -0 -1.05324e-18 1.595e-31 0 -0 0 0)
(6.93912e-06 2.30314e-19 -0 2.28798e-19 7.59397e-33 -0 -0 -0 0)
(6.93874e-06 -5.27316e-20 -0 -5.39591e-20 4.10067e-34 0 -0 0 0)
(6.9386e-06 1.26254e-20 -0 1.12522e-20 2.04744e-35 -0 -0 -0 0)
(6.93834e-06 -1.86645e-21 -0 -3.26518e-21 8.78352e-37 0 -0 0 0)
(6.93823e-06 4.8905e-22 -0 -4.70807e-22 -3.31854e-38 0 -0 -0 0)
(6.93797e-06 -1.11385e-21 -0 -1.21895e-21 1.95696e-37 0 -0 0 0)
(6.9379e-06 -6.67887e-22 -0 -5.41783e-22 5.21556e-38 0 -0 0 0)
(6.93767e-06 -8.23702e-23 -0 -3.85822e-22 4.58082e-39 0 -0 0 0)
(6.93761e-06 -9.23855e-22 -0 -1.14615e-21 1.52628e-37 0 -0 0 0)
(6.93743e-06 -6.63807e-22 -0 -8.47747e-22 8.11166e-38 0 -0 0 0)
(6.93738e-06 -4.55657e-22 -0 -4.7408e-22 3.11382e-38 0 -0 0 0)
(6.93724e-06 -9.29574e-23 -0 -2.47969e-22 3.32272e-39 0 -0 0 0)
(6.9372e-06 1.51809e-22 -0 -2.83617e-22 -6.20649e-39 0 -0 -0 0)
(6.9371e-06 -1.00517e-22 -0 -6.34344e-22 9.19149e-39 0 -0 0 0)
(6.93707e-06 -5.49116e-22 -0 -2.38671e-22 1.88924e-38 0 -0 0 0)
(6.93701e-06 -5.29547e-22 -0 -2.36259e-22 1.80352e-38 0 -0 0 0)
(6.937e-06 -4.08454e-22 -0 -6.65661e-22 3.91944e-38 0 -0 0 0)
(6.93698e-06 -9.63125e-23 -0 -4.65795e-22 6.46706e-39 0 -0 0 0)
(6.93697e-06 1.34402e-22 -0 -1.7825e-22 -3.45353e-39 0 -0 -0 0)
(6.99313e-06 4.70537e-19 -0 4.71568e-19 3.17298e-32 -0 -0 -0 0)
(6.99312e-06 -9.93932e-20 -0 -1.01776e-19 1.44654e-33 0 -0 0 0)
(6.99274e-06 2.28254e-20 -0 2.19457e-20 7.16341e-35 -0 -0 -0 0)
(6.99258e-06 -5.6847e-21 -0 -6.32875e-21 5.14503e-36 0 -0 0 0)
(6.99234e-06 5.98766e-22 -0 3.51592e-22 3.01074e-38 -0 -0 -0 0)
(6.99218e-06 -3.9808e-22 -0 -5.89909e-22 3.35848e-38 0 -0 0 0)
(6.99199e-06 -2.40209e-22 -0 -5.11268e-22 1.75645e-38 0 -0 0 0)
(6.99184e-06 -6.57052e-22 -0 -4.57161e-22 4.29613e-38 0 -0 0 0)
(6.99169e-06 -3.93242e-22 -0 -2.77634e-22 1.56153e-38 0 -0 0 0)
(6.99156e-06 4.41833e-24 -0 1.59738e-22 1.00947e-40 -0 -0 -0 0)
(6.99144e-06 5.76494e-22 -0 7.48178e-23 6.16926e-39 -0 -0 -0 0)
(6.99134e-06 -7.42296e-23 -0 -5.65996e-22 6.00939e-39 0 -0 0 0)
(6.99123e-06 -3.99578e-22 -0 -5.75674e-22 3.29022e-38 0 -0 0 0)
(6.99116e-06 -1.99467e-22 -0 6.44259e-23 -1.83815e-39 -0 -0 0 0)
(6.99109e-06 2.17873e-22 -0 6.42665e-22 2.00282e-38 -0 -0 -0 0)
(6.99104e-06 6.42238e-22 -0 6.34063e-22 5.82489e-38 -0 -0 -0 0)
(6.991e-06 1.94284e-22 -0 8.37537e-23 2.32756e-39 -0 -0 -0 0)
(6.99097e-06 -1.56332e-22 -0 -2.93047e-22 6.55312e-39 0 -0 0 0)
(6.99095e-06 -4.16809e-22 -0 -5.56806e-22 3.31974e-38 0 -0 0 0)
(6.99094e-06 -1.26373e-22 -0 2.74971e-23 -4.97054e-40 -0 -0 0 0)
(7.02761e-06 3.88027e-19 -0 3.8503e-19 2.12593e-32 -0 -0 -0 0)
(7.0276e-06 -8.55215e-20 -0 -8.57917e-20 1.04403e-33 0 -0 0 0)
(7.02723e-06 2.0715e-20 -0 1.90388e-20 5.6123e-35 -0 -0 -0 0)
(7.02707e-06 -5.04798e-21 -0 -5.81123e-21 4.17457e-36 0 -0 0 0)
(7.02681e-06 1.07356e-22 -0 2.29735e-23 3.5099e-40 -0 -0 -0 0)
(7.02669e-06 -9.37853e-22 -0 -2.60927e-22 3.48259e-38 0 -0 0 0)
(7.02643e-06 5.1517e-22 -0 1.35591e-21 9.94135e-38 -0 -0 -0 0)
(7.02635e-06 1.30449e-21 -0 1.58735e-21 2.94702e-37 -0 -0 -0 0)
(7.02613e-06 1.49943e-21 -0 1.19628e-21 2.55295e-37 -0 -0 -0 0)
(7.02606e-06 1.84978e-21 -0 1.34976e-21 3.55358e-37 -0 -0 -0 0)
(7.02588e-06 1.6043e-21 -0 9.53278e-22 2.17673e-37 -0 -0 -0 0)
(7.02582e-06 -8.86601e-24 -0 -2.98422e-22 3.76584e-40 0 -0 0 0)
(7.02568e-06 -4.1826e-22 -0 -2.87332e-22 1.71058e-38 0 -0 0 0)
(7.02564e-06 -2.90451e-23 -0 6.77812e-22 -2.80218e-39 -0 -0 0 0)
(7.02554e-06 5.5063e-22 -0 9.95335e-22 7.80099e-38 -0 -0 -0 0)
(7.02551e-06 4.69988e-22 -0 -1.1392e-22 -7.62095e-39 0 -0 -0 0)
(7.02545e-06 -7.74454e-22 -0 -8.26169e-22 9.10732e-38 0 -0 0 0)
(7.02544e-06 -9.85467e-22 -0 -2.42023e-22 3.39488e-38 0 -0 0 0)
(7.02542e-06 -3.69295e-22 -0 4.68567e-23 -2.46305e-39 -0 -0 0 0)
(7.02541e-06 -1.18789e-22 -0 3.92732e-22 -6.6405e-39 -0 -0 0 0)
(7.05206e-06 -7.30368e-19 -0 -7.33228e-19 7.5939e-32 0 -0 0 0)
(7.05206e-06 1.58253e-19 -0 1.57707e-19 3.53905e-33 -0 -0 -0 0)
(7.05167e-06 -3.83102e-20 -0 -3.85899e-20 2.09651e-34 0 -0 0 0)
(7.05151e-06 7.80924e-21 -0 7.3993e-21 8.1944e-36 -0 -0 -0 0)
(7.05126e-06 -2.64691e-21 -0 -3.63978e-21 1.36631e-36 0 -0 0 0)
(7.05112e-06 -8.17278e-22 -0 -1.0522e-21 1.21958e-37 0 -0 0 0)
(7.05088e-06 -1.20236e-21 -0 -6.79426e-22 1.1586e-37 0 -0 0 0)
(7.05079e-06 -8.35078e-23 -0 4.78376e-23 -5.66577e-40 -0 -0 0 0)
(7.05056e-06 6.7815e-22 -0 3.65858e-23 3.51896e-39 -0 -0 -0 0)
(7.0505e-06 1.59063e-22 -0 -6.97095e-22 -1.57268e-38 0 -0 -0 0)
(7.05031e-06 -9.6497e-22 -0 -4.01853e-22 5.50012e-38 0 -0 0 0)
(7.05026e-06 -8.15412e-22 -0 -2.61661e-23 3.02629e-39 0 -0 0 0)
(7.05012e-06 -3.74176e-22 -0 2.10737e-22 -1.11846e-38 -0 -0 0 0)
(7.05007e-06 8.33468e-23 -0 3.94143e-22 4.6596e-39 -0 -0 -0 0)
(7.04997e-06 2.42137e-22 -0 6.04781e-22 2.07717e-38 -0 -0 -0 0)
(7.04994e-06 8.85443e-23 -0 2.29247e-22 2.87924e-39 -0 -0 -0 0)
(7.04988e-06 -6.76897e-22 -0 -2.62713e-22 2.52245e-38 0 -0 0 0)
(7.04987e-06 -6.10117e-22 -0 -1.76032e-22 1.52344e-38 0 -0 0 0)
(7.04985e-06 -2.93509e-22 -0 7.14603e-23 -2.97514e-39 -0 -0 0 0)
(7.04984e-06 -1.29044e-22 -0 4.22426e-22 -7.73228e-39 -0 -0 0 0)
(7.07206e-06 7.29805e-19 -0 7.29389e-19 7.52696e-32 -0 -0 -0 0)
(7.07206e-06 -1.61611e-19 -0 -1.62181e-19 3.70617e-33 0 -0 0 0)
(7.07168e-06 3.64686e-20 -0 3.66337e-20 1.8892e-34 -0 -0 -0 0)
(7.07153e-06 -7.83736e-21 -0 -8.05821e-21 8.9309e-36 0 -0 0 0)
(7.07125e-06 2.54082e-21 -0 2.0351e-21 7.31245e-37 -0 -0 -0 0)
(7.07113e-06 -4.71892e-22 -0 -4.22052e-22 2.81656e-38 0 -0 0 0)
(7.07088e-06 1.92565e-22 -0 -2.9872e-22 -8.1352e-39 0 -0 -0 0)
(7.07078e-06 3.28484e-22 -0 -6.25472e-22 -2.90573e-38 0 -0 -0 0)
(7.07056e-06 1.00888e-24 -0 -4.00085e-22 -5.70873e-41 0 -0 -0 0)
(7.07048e-06 -2.30072e-22 -0 -1.82247e-22 5.93027e-39 0 -0 0 0)
(7.07031e-06 -6.314e-22 -0 2.81989e-22 -2.51824e-38 -0 -0 0 0)
(7.07024e-06 2.38161e-22 -0 1.54207e-21 5.19447e-38 -0 -0 -0 0)
(7.07012e-06 1.23965e-21 -0 1.73928e-21 3.04961e-37 -0 -0 -0 0)
(7.07006e-06 6.78712e-22 -0 1.50342e-22 1.44326e-38 -0 -0 -0 0)
(7.06997e-06 -8.1576e-22 -0 -6.54248e-22 7.54897e-38 0 -0 0 0)
(7.06993e-06 -5.29793e-22 -0 2.78255e-22 -2.08513e-38 -0 -0 0 0)
(7.06988e-06 2.63611e-22 -0 4.72573e-22 1.76206e-38 -0 -0 -0 0)
(7.06986e-06 2.49555e-22 -0 2.45495e-22 8.6656e-39 -0 -0 -0 0)
(7.06984e-06 -8.085e-22 -0 -2.17989e-22 2.4929e-38 0 -0 0 0)
(7.06983e-06 -5.14873e-22 -0 -2.00731e-23 1.46186e-39 0 -0 0 0)
(7.09079e-06 -6.93598e-19 -0 -6.96837e-19 6.81624e-32 0 -0 0 0)
(7.09078e-06 1.5014e-19 -0 1.50423e-19 3.18504e-33 -0 -0 -0 0)
(7.0904e-06 -3.50329e-20 -0 -3.49167e-20 1.72519e-34 0 -0 0 0)
(7.09025e-06 8.89178e-21 -0 8.80292e-21 1.10396e-35 -0 -0 -0 0)
(7.08995e-06 -4.3368e-22 -0 -2.79624e-22 1.71041e-38 0 -0 0 0)
(7.08985e-06 1.24637e-21 -0 8.48763e-22 1.49209e-37 -0 -0 -0 0)
(7.08959e-06 2.00156e-22 -0 -8.71635e-22 -2.46084e-38 0 -0 -0 0)
(7.0895e-06 -1.57472e-22 -0 -8.21766e-22 1.82531e-38 0 -0 0 0)
(7.08927e-06 -6.2986e-22 -0 -2.97627e-22 2.64433e-38 0 -0 0 0)
(7.0892e-06 7.84089e-23 -0 3.63631e-22 4.02188e-39 -0 -0 -0 0)
(7.08902e-06 6.12688e-23 -0 -1.80965e-22 -1.56404e-39 0 -0 -0 0)
(7.08896e-06 -2.62227e-22 -0 -1.37221e-22 5.07591e-39 0 -0 0 0)
(7.08882e-06 -3.02546e-22 -0 5.08827e-23 -2.17164e-39 -0 -0 0 0)
(7.08878e-06 -6.13645e-22 -0 -3.57848e-22 3.09773e-38 0 -0 0 0)
(7.08867e-06 -9.32552e-22 -0 -9.63099e-22 1.26701e-37 0 -0 0 0)
(7.08865e-06 -9.84333e-22 -0 -6.4128e-22 8.90485e-38 0 -0 0 0)
(7.08858e-06 -3.51594e-22 -0 -1.90521e-22 9.44986e-39 0 -0 0 0)
(7.08857e-06 -5.399e-22 -0 1.31966e-22 -1.00512e-38 -0 -0 0 0)
(7.08855e-06 -7.66266e-22 -0 -1.05733e-22 1.14296e-38 0 -0 0 0)
(7.08854e-06 -2.98884e-22 -0 -8.7715e-23 3.69845e-39 0 -0 0 0)
(7.11003e-06 3.07846e-19 -0 3.0736e-19 1.33079e-32 -0 -0 -0 0)
(7.11004e-06 -6.53677e-20 -0 -6.66933e-20 6.1316e-34 0 -0 0 0)
(7.10962e-06 1.47891e-20 -0 1.47515e-20 3.06854e-35 -0 -0 -0 0)
(7.10948e-06 -3.32907e-21 -0 -3.69332e-21 1.72943e-36 0 -0 0 0)
(7.10922e-06 4.79468e-22 -0 6.68485e-22 4.50847e-38 -0 -0 -0 0)
(7.10907e-06 -8.5054e-23 -0 -3.04121e-22 3.63855e-39 0 -0 0 0)
(7.10884e-06 -1.05641e-22 -0 8.85961e-23 -1.31658e-39 -0 -0 0 0)
(7.10872e-06 -2.41803e-22 -0 -9.74023e-23 3.31314e-39 0 -0 0 0)
(7.10853e-06 -4.60065e-22 -0 -4.14357e-22 2.68173e-38 0 -0 0 0)
(7.10842e-06 -1.05644e-22 -0 -5.33287e-23 7.92562e-40 0 -0 0 0)
(7.10827e-06 1.31134e-22 -0 -5.16255e-22 -9.52389e-39 0 -0 -0 0)
(7.10818e-06 -9.25546e-22 -0 -1.7524e-21 2.28177e-37 0 -0 0 0)
(7.10806e-06 -1.78884e-21 -0 -1.75823e-21 4.42482e-37 0 -0 0 0)
(7.10799e-06 -1.12164e-21 -0 -1.8281e-22 2.88474e-38 0 -0 0 0)
(7.10792e-06 1.17347e-22 -0 5.72075e-22 9.44459e-39 -0 -0 -0 0)
(7.10787e-06 4.46304e-22 -0 5.84107e-22 3.66761e-38 -0 -0 -0 0)
(7.10782e-06 5.55674e-22 -0 9.27345e-22 7.24978e-38 -0 -0 -0 0)
(7.1078e-06 2.6706e-22 -0 4.22782e-22 1.58851e-38 -0 -0 -0 0)
(7.10778e-06 2.47679e-22 -0 1.82555e-22 6.36133e-39 -0 -0 -0 0)
(7.10777e-06 -1.39426e-22 -0 3.07956e-22 -6.04085e-39 -0 -0 0 0)
(7.13085e-06 5.35535e-19 -0 5.3343e-19 4.00612e-32 -0 -0 -0 0)
(7.13084e-06 -1.20299e-19 -0 -1.19972e-19 2.02395e-33 0 -0 0 0)
(7.13047e-06 2.76434e-20 -0 2.74147e-20 1.06282e-34 -0 -0 -0 0)
(7.13029e-06 -6.64675e-21 -0 -6.99272e-21 6.5185e-36 0 -0 0 0)
(7.13004e-06 1.35286e-21 -0 9.97927e-22 1.89347e-37 -0 -0 -0 0)
(7.1299e-06 -5.06428e-22 -0 -4.73709e-22 3.36469e-38 0 -0 0 0)
(7.12966e-06 8.18118e-22 -0 1.47908e-21 1.69722e-37 -0 -0 -0 0)
(7.12955e-06 1.40734e-21 -0 1.21596e-21 2.40025e-37 -0 -0 -0 0)
(7.12934e-06 4.14379e-22 -0 -4.4218e-22 -2.57008e-38 0 -0 -0 0)
(7.12925e-06 -5.59696e-22 -0 -1.06956e-21 8.39679e-38 0 -0 0 0)
(7.12908e-06 -8.89832e-22 -0 -1.11502e-21 1.39174e-37 0 -0 0 0)
(7.129e-06 -9.84316e-22 -0 -4.93082e-22 6.80809e-38 0 -0 0 0)
(7.12888e-06 -6.35924e-22 -0 -5.18012e-23 4.62087e-39 0 -0 0 0)
(7.12882e-06 8.60795e-23 -0 3.37674e-22 4.07737e-39 -0 -0 -0 0)
(7.12873e-06 5.54435e-22 -0 4.80602e-22 3.73787e-38 -0 -0 -0 0)
(7.12869e-06 6.21877e-22 -0 4.5639e-23 3.98136e-39 -0 -0 -0 0)
(7.12863e-06 -1.31028e-22 -0 -9.30582e-23 1.71046e-39 0 -0 0 0)
(7.12861e-06 -5.90146e-23 -0 1.00785e-22 -8.34353e-40 -0 -0 0 0)
(7.12859e-06 4.60407e-22 -0 5.15706e-22 3.33074e-38 -0 -0 -0 0)
(7.12859e-06 -1.94945e-22 -0 8.06085e-22 -2.20439e-38 -0 -0 0 0)
(7.15384e-06 -1.16211e-18 -0 -1.16424e-18 1.89126e-31 0 -0 0 0)
(7.15385e-06 2.51966e-19 -0 2.52975e-19 8.91005e-33 -0 -0 -0 0)
(7.15344e-06 -5.93788e-20 -0 -5.89243e-20 4.89115e-34 0 -0 0 0)
(7.15329e-06 1.32683e-20 -0 1.37896e-20 2.55776e-35 -0 -0 -0 0)
(7.15301e-06 -1.90727e-21 -0 -2.20706e-21 5.88489e-37 0 -0 0 0)
(7.15287e-06 1.85591e-21 -0 1.09003e-21 2.82824e-37 -0 -0 -0 0)
(7.15265e-06 8.83322e-22 -0 8.94548e-23 1.10473e-38 -0 -0 -0 0)
(7.1525e-06 -2.54941e-23 -0 -3.80924e-22 1.35775e-39 0 -0 0 0)
(7.15233e-06 -6.96123e-22 -0 -1.04261e-21 1.01475e-37 0 -0 0 0)
(7.15221e-06 -1.41376e-21 -0 -1.3222e-21 2.61357e-37 0 -0 0 0)
(7.15206e-06 -1.27908e-21 -0 -1.44971e-22 2.59267e-38 0 -0 0 0)
(7.15196e-06 -8.2476e-23 -0 1.19139e-21 -1.3739e-38 -0 -0 0 0)
(7.15185e-06 5.76474e-22 -0 9.14301e-22 7.36971e-38 -0 -0 -0 0)
(7.15178e-06 7.02292e-22 -0 2.70923e-22 2.66042e-38 -0 -0 -0 0)
(7.1517e-06 6.17538e-22 -0 8.70096e-23 7.51315e-39 -0 -0 -0 0)
(7.15166e-06 3.07603e-22 -0 -4.39377e-22 -1.88983e-38 0 -0 -0 0)
(7.15161e-06 -9.2082e-22 -0 -7.89506e-22 1.01654e-37 0 -0 0 0)
(7.15158e-06 -1.02593e-21 -0 -3.96988e-22 5.695e-38 0 -0 0 0)
(7.15156e-06 -1.36772e-22 -0 9.12e-23 -1.74417e-39 -0 -0 0 0)
(7.15156e-06 -1.62142e-22 -0 3.24093e-22 -7.34791e-39 -0 -0 0 0)
(7.17896e-06 8.25405e-19 -0 8.278e-19 9.51767e-32 -0 -0 -0 0)
(7.17896e-06 -1.76102e-19 -0 -1.7745e-19 4.3529e-33 0 -0 0 0)
(7.17856e-06 4.16463e-20 -0 4.11862e-20 2.38941e-34 -0 -0 -0 0)
(7.1784e-06 -9.67144e-21 -0 -1.00485e-20 1.35384e-35 0 -0 0 0)
(7.17813e-06 8.81549e-22 -0 1.41675e-21 1.73991e-37 -0 -0 -0 0)
(7.17798e-06 -3.70867e-22 -0 -2.11873e-22 1.09469e-38 0 -0 0 0)
(7.17775e-06 3.23199e-22 -0 6.51257e-22 2.93248e-38 -0 -0 -0 0)
(7.17762e-06 6.7674e-22 -0 1.57023e-21 1.48049e-37 -0 -0 -0 0)
(7.17743e-06 1.76633e-21 -0 1.92326e-21 4.73304e-37 -0 -0 -0 0)
(7.17733e-06 9.03482e-22 -0 4.53822e-22 5.71271e-38 -0 -0 -0 0)
(7.17716e-06 1.79621e-22 -0 5.57162e-23 1.3944e-39 -0 -0 -0 0)
(7.17708e-06 -3.21107e-22 -0 -9.15622e-22 4.09655e-38 0 -0 0 0)
(7.17695e-06 -5.38821e-22 -0 -6.08929e-22 4.57163e-38 0 -0 0 0)
(7.17689e-06 -1.55431e-22 -0 -2.94048e-23 6.36823e-40 0 -0 0 0)
(7.1768e-06 1.31872e-22 -0 1.91408e-22 3.51708e-39 -0 -0 -0 0)
(7.17676e-06 -6.13395e-23 -0 -9.24514e-23 7.90179e-40 0 -0 0 0)
(7.17671e-06 3.29509e-22 -0 6.96056e-22 3.19585e-38 -0 -0 -0 0)
(7.17669e-06 9.22579e-22 -0 1.04906e-21 1.3486e-37 -0 -0 -0 0)
(7.17667e-06 6.71387e-22 -0 4.95593e-22 4.63634e-38 -0 -0 -0 0)
(7.17666e-06 1.23719e-22 -0 6.86668e-23 1.18375e-39 -0 -0 -0 0)
(7.20522e-06 1.41436e-19 -0 1.39475e-19 2.73784e-33 -0 -0 -0 0)
(7.20522e-06 -3.16456e-20 -0 -3.17368e-20 1.39389e-34 0 -0 0 0)
(7.20482e-06 6.82609e-21 -0 6.6903e-21 6.33862e-36 -0 -0 -0 0)
(7.20466e-06 -2.44782e-21 -0 -2.73284e-21 9.28494e-37 0 -0 0 0)
(7.20437e-06 -2.04353e-22 -0 -3.46953e-22 9.84139e-39 0 -0 0 0)
(7.20424e-06 -7.97933e-22 -0 -3.99376e-22 4.42343e-38 0 -0 0 0)
(7.20399e-06 -6.15967e-22 -0 -9.30798e-23 7.95867e-39 0 -0 0 0)
(7.20388e-06 5.31642e-22 -0 1.33124e-21 9.82449e-38 -0 -0 -0 0)
(7.20366e-06 1.53698e-21 -0 2.25295e-21 4.80691e-37 -0 -0 -0 0)
(7.20358e-06 1.89379e-21 -0 1.69901e-21 4.46662e-37 -0 -0 -0 0)
(7.2034e-06 1.23337e-21 -0 7.07804e-22 1.21191e-37 -0 -0 -0 0)
(7.20333e-06 7.82077e-22 -0 2.75139e-22 2.98724e-38 -0 -0 -0 0)
(7.2032e-06 4.69459e-22 -0 -5.54051e-23 -3.61095e-39 0 -0 -0 0)
(7.20314e-06 -5.14949e-23 -0 -3.3516e-22 2.39604e-39 0 -0 0 0)
(7.20305e-06 -2.32516e-23 -0 -6.7159e-22 2.16791e-39 0 -0 0 0)
(7.203e-06 -3.17882e-22 -0 -4.25704e-22 1.87871e-38 0 -0 0 0)
(7.20295e-06 2.95991e-22 -0 2.54392e-22 1.04537e-38 -0 -0 -0 0)
(7.20293e-06 1.40295e-21 -0 1.51694e-21 2.95463e-37 -0 -0 -0 0)
(7.20291e-06 1.11398e-21 -0 1.03237e-21 1.59663e-37 -0 -0 -0 0)
(7.2029e-06 4.55091e-22 -0 2.16653e-22 1.36885e-38 -0 -0 -0 0)
(7.23027e-06 -9.10911e-19 -0 -9.12924e-19 1.15015e-31 0 -0 0 0)
(7.23027e-06 1.9644e-19 -0 1.97377e-19 5.36256e-33 -0 -0 -0 0)
(7.22986e-06 -4.66119e-20 -0 -4.5972e-20 2.96388e-34 0 -0 0 0)
(7.2297e-06 1.06922e-20 -0 1.1213e-20 1.65831e-35 -0 -0 -0 0)
(7.22942e-06 -7.67404e-22 -0 -1.41828e-21 1.5055e-37 0 -0 0 0)
(7.22928e-06 9.23758e-22 -0 9.82251e-22 1.25512e-37 -0 -0 -0 0)
(7.22903e-06 -2.41166e-23 -0 -3.73736e-22 1.24681e-39 0 -0 0 0)
(7.22893e-06 -3.81364e-22 -0 -7.12386e-22 3.75822e-38 0 -0 0 0)
(7.2287e-06 -6.39085e-22 -0 -2.92358e-22 2.58471e-38 0 -0 0 0)
(7.22861e-06 6.15173e-23 -0 7.21135e-22 6.13704e-39 -0 -0 -0 0)
(7.22844e-06 9.63559e-22 -0 1.14938e-21 1.53214e-37 -0 -0 -0 0)
(7.22836e-06 1.4759e-21 -0 9.29928e-22 1.89875e-37 -0 -0 -0 0)
(7.22824e-06 7.17463e-22 -0 -2.81091e-22 -2.79006e-38 0 -0 -0 0)
(7.22817e-06 -7.48627e-22 -0 -1.27291e-21 1.31836e-37 0 -0 0 0)
(7.22808e-06 -6.34956e-22 -0 -8.08181e-22 7.09952e-38 0 -0 0 0)
(7.22804e-06 8.05326e-23 -0 5.73022e-22 6.38444e-39 -0 -0 -0 0)
(7.22798e-06 6.10481e-22 -0 6.72519e-22 5.68015e-38 -0 -0 -0 0)
(7.22796e-06 6.58575e-22 -0 3.86184e-22 3.51871e-38 -0 -0 -0 0)
(7.22794e-06 3.5348e-22 -0 3.63131e-22 1.77588e-38 -0 -0 -0 0)
(7.22794e-06 2.98879e-22 -0 1.04616e-22 4.32593e-39 -0 -0 -0 0)
(7.25041e-06 4.0339e-19 -0 4.04028e-19 2.24788e-32 -0 -0 -0 0)
(7.25041e-06 -8.43437e-20 -0 -8.4802e-20 9.86498e-34 0 -0 0 0)
(7.25002e-06 1.97903e-20 -0 2.00929e-20 5.48474e-35 -0 -0 -0 0)
(7.24987e-06 -4.0926e-21 -0 -3.56081e-21 2.0101e-36 0 -0 0 0)
(7.24959e-06 1.27583e-21 -0 1.4725e-21 2.59141e-37 -0 -0 -0 0)
(7.24947e-06 2.66927e-22 -0 5.03068e-23 1.85231e-39 -0 -0 -0 0)
(7.24919e-06 3.86133e-22 -0 1.31618e-22 7.01071e-39 -0 -0 -0 0)
(7.24912e-06 2.61829e-22 -0 4.20094e-22 1.51733e-38 -0 -0 -0 0)
(7.24888e-06 4.60843e-22 -0 3.75279e-22 2.38581e-38 -0 -0 -0 0)
(7.24882e-06 2.86069e-22 -0 1.91358e-22 7.55177e-39 -0 -0 -0 0)
(7.24862e-06 3.0765e-22 -0 -1.58585e-22 -6.73077e-39 0 -0 -0 0)
(7.24857e-06 5.2462e-22 -0 2.44638e-23 1.77058e-39 -0 -0 -0 0)
(7.24842e-06 8.09209e-22 -0 5.18011e-22 5.78305e-38 -0 -0 -0 0)
(7.24838e-06 5.00705e-22 -0 8.90479e-23 6.15126e-39 -0 -0 -0 0)
(7.24827e-06 -1.70449e-22 -0 1.06113e-22 -2.49535e-39 -0 -0 0 0)
(7.24824e-06 -3.46444e-23 -0 8.04804e-22 -3.84673e-39 -0 -0 0 0)
(7.24817e-06 9.54035e-22 -0 1.21613e-21 1.60072e-37 -0 -0 -0 0)
(7.24816e-06 5.21657e-22 -0 1.24056e-22 8.92842e-39 -0 -0 -0 0)
(7.24814e-06 3.19455e-22 -0 3.71601e-22 1.6378e-38 -0 -0 -0 0)
(7.24813e-06 4.71796e-22 -0 3.69067e-22 2.40233e-38 -0 -0 -0 0)
(7.25958e-06 6.07479e-19 -0 6.06212e-19 5.07276e-32 -0 -0 -0 0)
(7.25957e-06 -1.31069e-19 -0 -1.31009e-19 2.36532e-33 0 -0 0 0)
(7.25957e-06 3.09446e-20 -0 3.11314e-20 1.32701e-34 -0 -0 -0 0)
(7.25956e-06 -6.6422e-21 -0 -6.1718e-21 5.64694e-36 0 -0 0 0)
(7.25956e-06 1.83214e-21 -0 1.96411e-21 4.95697e-37 -0 -0 -0 0)
(7.25955e-06 2.12489e-22 -0 -8.74627e-23 -2.56005e-39 0 -0 -0 0)
(7.25955e-06 4.34183e-22 -0 2.12924e-22 1.27347e-38 -0 -0 -0 0)
(7.25955e-06 2.48593e-22 -0 5.88205e-22 2.01423e-38 -0 -0 -0 0)
(7.25955e-06 4.19623e-22 -0 6.91264e-22 3.99571e-38 -0 -0 -0 0)
(7.25955e-06 6.12964e-22 -0 6.94158e-22 5.86116e-38 -0 -0 -0 0)
(7.25954e-06 6.70864e-22 -0 6.58766e-22 6.08775e-38 -0 -0 -0 0)
(7.25954e-06 1.13926e-21 -0 1.33654e-21 2.09746e-37 -0 -0 -0 0)
(7.25954e-06 1.65357e-21 -0 1.26436e-21 2.87994e-37 -0 -0 -0 0)
(7.25954e-06 1.47087e-21 -0 6.92077e-22 1.40223e-37 -0 -0 -0 0)
(7.25954e-06 2.5427e-22 -0 -1.12754e-22 -3.94929e-39 0 -0 -0 0)
(7.25954e-06 -4.35604e-22 -0 -1.64332e-22 9.86065e-39 0 -0 0 0)
(7.25954e-06 6.62905e-23 -0 3.67895e-22 3.35944e-39 -0 -0 -0 0)
(7.25954e-06 1.57591e-22 -0 2.45357e-22 5.32623e-39 -0 -0 -0 0)
(7.25954e-06 3.72865e-22 -0 4.02805e-22 2.06889e-38 -0 -0 -0 0)
(7.25954e-06 3.79391e-22 -0 2.73267e-22 1.42812e-38 -0 -0 -0 0)
)
;

boundaryField
{
    movingWall
    {
        type            calculated;
        value           nonuniform List<tensor> 
20
(
(7.25958e-06 0 0 0 0 0 0 0 0)
(7.25957e-06 0 0 0 0 0 0 0 0)
(7.25957e-06 0 0 0 0 0 0 0 0)
(7.25956e-06 0 0 0 0 0 0 0 0)
(7.25956e-06 0 0 0 0 0 0 0 0)
(7.25955e-06 0 0 0 0 0 0 0 0)
(7.25955e-06 0 0 0 0 0 0 0 0)
(7.25955e-06 0 0 0 0 0 0 0 0)
(7.25955e-06 0 0 0 0 0 0 0 0)
(7.25955e-06 0 0 0 0 0 0 0 0)
(7.25954e-06 0 0 0 0 0 0 0 0)
(7.25954e-06 0 0 0 0 0 0 0 0)
(7.25954e-06 0 0 0 0 0 0 0 0)
(7.25954e-06 0 0 0 0 0 0 0 0)
(7.25954e-06 0 0 0 0 0 0 0 0)
(7.25954e-06 0 0 0 0 0 0 0 0)
(7.25954e-06 0 0 0 0 0 0 0 0)
(7.25954e-06 0 0 0 0 0 0 0 0)
(7.25954e-06 0 0 0 0 0 0 0 0)
(7.25954e-06 0 0 0 0 0 0 0 0)
)
;
    }
    fixedWalls
    {
        type            calculated;
        value           nonuniform List<tensor> 
60
(
(5.78461e-06 0 0 0 0 0 0 0 0)
(5.96661e-06 0 0 0 0 0 0 0 0)
(6.23882e-06 0 0 0 0 0 0 0 0)
(6.50435e-06 0 0 0 0 0 0 0 0)
(6.71096e-06 0 0 0 0 0 0 0 0)
(6.85111e-06 0 0 0 0 0 0 0 0)
(6.93911e-06 0 0 0 0 0 0 0 0)
(6.99313e-06 0 0 0 0 0 0 0 0)
(7.02761e-06 0 0 0 0 0 0 0 0)
(7.05206e-06 0 0 0 0 0 0 0 0)
(7.07206e-06 0 0 0 0 0 0 0 0)
(7.09079e-06 0 0 0 0 0 0 0 0)
(7.11003e-06 0 0 0 0 0 0 0 0)
(7.13085e-06 0 0 0 0 0 0 0 0)
(7.15384e-06 0 0 0 0 0 0 0 0)
(7.17896e-06 0 0 0 0 0 0 0 0)
(7.20522e-06 0 0 0 0 0 0 0 0)
(7.23027e-06 0 0 0 0 0 0 0 0)
(7.25041e-06 0 0 0 0 0 0 0 0)
(7.25958e-06 0 0 0 0 0 0 0 0)
(5.78458e-06 0 0 0 0 0 0 0 0)
(5.96506e-06 0 0 0 0 0 0 0 0)
(6.2371e-06 0 0 0 0 0 0 0 0)
(6.50248e-06 0 0 0 0 0 0 0 0)
(6.70895e-06 0 0 0 0 0 0 0 0)
(6.84903e-06 0 0 0 0 0 0 0 0)
(6.93697e-06 0 0 0 0 0 0 0 0)
(6.99094e-06 0 0 0 0 0 0 0 0)
(7.02541e-06 0 0 0 0 0 0 0 0)
(7.04984e-06 0 0 0 0 0 0 0 0)
(7.06983e-06 0 0 0 0 0 0 0 0)
(7.08854e-06 0 0 0 0 0 0 0 0)
(7.10777e-06 0 0 0 0 0 0 0 0)
(7.12859e-06 0 0 0 0 0 0 0 0)
(7.15156e-06 0 0 0 0 0 0 0 0)
(7.17666e-06 0 0 0 0 0 0 0 0)
(7.2029e-06 0 0 0 0 0 0 0 0)
(7.22794e-06 0 0 0 0 0 0 0 0)
(7.24813e-06 0 0 0 0 0 0 0 0)
(7.25954e-06 0 0 0 0 0 0 0 0)
(5.78461e-06 0 0 0 0 0 0 0 0)
(5.7846e-06 0 0 0 0 0 0 0 0)
(5.7846e-06 0 0 0 0 0 0 0 0)
(5.7846e-06 0 0 0 0 0 0 0 0)
(5.78459e-06 0 0 0 0 0 0 0 0)
(5.78459e-06 0 0 0 0 0 0 0 0)
(5.78459e-06 0 0 0 0 0 0 0 0)
(5.78459e-06 0 0 0 0 0 0 0 0)
(5.78458e-06 0 0 0 0 0 0 0 0)
(5.78459e-06 0 0 0 0 0 0 0 0)
(5.78458e-06 0 0 0 0 0 0 0 0)
(5.78459e-06 0 0 0 0 0 0 0 0)
(5.78458e-06 0 0 0 0 0 0 0 0)
(5.78458e-06 0 0 0 0 0 0 0 0)
(5.78458e-06 0 0 0 0 0 0 0 0)
(5.78458e-06 0 0 0 0 0 0 0 0)
(5.78458e-06 0 0 0 0 0 0 0 0)
(5.78458e-06 0 0 0 0 0 0 0 0)
(5.78458e-06 0 0 0 0 0 0 0 0)
(5.78458e-06 0 0 0 0 0 0 0 0)
)
;
    }
    frontAndBack
    {
        type            empty;
    }
}


// ************************************************************************* //
