/*--------------------------------*- C++ -*----------------------------------*\
| =========                 |                                                 |
| \\      /  F ield         | OpenFOAM: The Open Source CFD Toolbox           |
|  \\    /   O peration     | Version:  2312                                  |
|   \\  /    A nd           | Website:  www.openfoam.com                      |
|    \\/     M anipulation  |                                                 |
\*---------------------------------------------------------------------------*/
FoamFile
{
    version     2.0;
    format      ascii;
    arch        "LSB;label=32;scalar=64";
    class       volScalarField;
    location    "7";
    object      L_P;
}
// * * * * * * * * * * * * * * * * * * * * * * * * * * * * * * * * * * * * * //

dimensions      [0 0 0 0 0 0 0];

internalField   nonuniform List<scalar> 
400
(
-196.496
-196.496
-196.496
-196.496
-196.496
-196.496
-196.496
-196.496
-196.496
-196.496
-196.496
-196.496
-196.496
-196.496
-196.496
-196.496
-196.496
-196.496
-196.496
-196.496
-195.957
-196.021
-196.016
-196.014
-196.009
-196.007
-196.003
-196.001
-195.997
-195.995
-195.99
-195.988
-195.984
-195.981
-195.977
-195.974
-195.97
-195.967
-195.965
-195.961
-195.181
-195.247
-195.242
-195.24
-195.236
-195.234
-195.229
-195.227
-195.223
-195.22
-195.216
-195.213
-195.209
-195.206
-195.202
-195.199
-195.195
-195.192
-195.19
-195.186
-194.457
-194.524
-194.519
-194.517
-194.513
-194.51
-194.506
-194.504
-194.499
-194.497
-194.492
-194.49
-194.485
-194.483
-194.478
-194.475
-194.471
-194.468
-194.466
-194.462
-193.914
-193.982
-193.977
-193.975
-193.97
-193.968
-193.963
-193.961
-193.957
-193.954
-193.949
-193.947
-193.942
-193.94
-193.935
-193.932
-193.928
-193.925
-193.923
-193.919
-193.554
-193.624
-193.618
-193.616
-193.612
-193.609
-193.605
-193.602
-193.598
-193.595
-193.591
-193.588
-193.584
-193.581
-193.576
-193.573
-193.569
-193.566
-193.564
-193.56
-193.333
-193.403
-193.397
-193.395
-193.39
-193.388
-193.383
-193.381
-193.376
-193.374
-193.369
-193.367
-193.362
-193.359
-193.355
-193.352
-193.347
-193.344
-193.342
-193.338
-193.198
-193.268
-193.263
-193.26
-193.256
-193.254
-193.249
-193.247
-193.242
-193.24
-193.235
-193.232
-193.227
-193.225
-193.22
-193.217
-193.212
-193.21
-193.207
-193.203
-193.112
-193.183
-193.177
-193.175
-193.171
-193.168
-193.164
-193.161
-193.157
-193.154
-193.149
-193.147
-193.142
-193.139
-193.135
-193.132
-193.127
-193.124
-193.122
-193.118
-193.052
-193.123
-193.117
-193.115
-193.11
-193.108
-193.103
-193.101
-193.096
-193.094
-193.089
-193.087
-193.082
-193.079
-193.074
-193.072
-193.067
-193.064
-193.061
-193.058
-193.003
-193.074
-193.068
-193.066
-193.061
-193.059
-193.054
-193.052
-193.047
-193.045
-193.04
-193.037
-193.033
-193.03
-193.025
-193.022
-193.018
-193.015
-193.012
-193.008
-192.957
-193.028
-193.022
-193.02
-193.015
-193.013
-193.008
-193.006
-193.001
-192.999
-192.994
-192.992
-192.987
-192.984
-192.979
-192.976
-192.972
-192.969
-192.966
-192.962
-192.91
-192.981
-192.975
-192.973
-192.968
-192.966
-192.961
-192.959
-192.954
-192.952
-192.947
-192.944
-192.94
-192.937
-192.932
-192.929
-192.925
-192.922
-192.919
-192.915
-192.859
-192.93
-192.924
-192.922
-192.918
-192.915
-192.911
-192.908
-192.904
-192.901
-192.896
-192.894
-192.889
-192.886
-192.881
-192.879
-192.874
-192.871
-192.868
-192.865
-192.803
-192.874
-192.869
-192.866
-192.862
-192.859
-192.855
-192.852
-192.848
-192.845
-192.84
-192.838
-192.833
-192.83
-192.826
-192.823
-192.818
-192.815
-192.813
-192.809
-192.742
-192.813
-192.808
-192.806
-192.801
-192.799
-192.794
-192.792
-192.787
-192.784
-192.78
-192.777
-192.772
-192.77
-192.765
-192.762
-192.757
-192.754
-192.752
-192.748
-192.679
-192.75
-192.745
-192.742
-192.738
-192.735
-192.731
-192.728
-192.723
-192.721
-192.716
-192.714
-192.709
-192.706
-192.701
-192.698
-192.694
-192.691
-192.688
-192.684
-192.618
-192.69
-192.684
-192.682
-192.677
-192.675
-192.67
-192.668
-192.663
-192.661
-192.656
-192.653
-192.649
-192.646
-192.641
-192.638
-192.633
-192.63
-192.628
-192.624
-192.57
-192.64
-192.635
-192.633
-192.628
-192.626
-192.621
-192.619
-192.614
-192.612
-192.607
-192.605
-192.6
-192.597
-192.592
-192.59
-192.585
-192.582
-192.579
-192.575
-192.548
-192.548
-192.548
-192.548
-192.548
-192.548
-192.548
-192.548
-192.548
-192.548
-192.548
-192.548
-192.548
-192.548
-192.548
-192.548
-192.548
-192.548
-192.548
-192.548
)
;

boundaryField
{
    movingWall
    {
        type            calculated;
        value           nonuniform List<scalar> 
20
(
-192.548
-192.548
-192.548
-192.548
-192.548
-192.548
-192.548
-192.548
-192.548
-192.548
-192.548
-192.548
-192.548
-192.548
-192.548
-192.548
-192.548
-192.548
-192.548
-192.548
)
;
    }
    fixedWalls
    {
        type            calculated;
        value           nonuniform List<scalar> 
60
(
-196.496
-195.957
-195.181
-194.457
-193.914
-193.554
-193.333
-193.198
-193.112
-193.052
-193.003
-192.957
-192.91
-192.859
-192.803
-192.742
-192.679
-192.618
-192.57
-192.548
-196.496
-195.961
-195.186
-194.462
-193.919
-193.56
-193.338
-193.203
-193.118
-193.058
-193.008
-192.962
-192.915
-192.865
-192.809
-192.748
-192.684
-192.624
-192.575
-192.548
-196.496
-196.496
-196.496
-196.496
-196.496
-196.496
-196.496
-196.496
-196.496
-196.496
-196.496
-196.496
-196.496
-196.496
-196.496
-196.496
-196.496
-196.496
-196.496
-196.496
)
;
    }
    frontAndBack
    {
        type            empty;
    }
}


// ************************************************************************* //
