/*--------------------------------*- C++ -*----------------------------------*\
| =========                 |                                                 |
| \\      /  F ield         | OpenFOAM: The Open Source CFD Toolbox           |
|  \\    /   O peration     | Version:  2312                                  |
|   \\  /    A nd           | Website:  www.openfoam.com                      |
|    \\/     M anipulation  |                                                 |
\*---------------------------------------------------------------------------*/
FoamFile
{
    version     2.0;
    format      ascii;
    arch        "LSB;label=32;scalar=64";
    class       volScalarField;
    location    "7";
    object      Lambda2Field;
}
// * * * * * * * * * * * * * * * * * * * * * * * * * * * * * * * * * * * * * //

dimensions      [0 0 -2 0 0 0 0];

internalField   nonuniform List<scalar> 
400
(
1.58537e-23
8.3962e-24
6.8896e-26
2.61773e-26
8.02043e-27
0
1.05578e-27
2.07017e-28
0
2.37814e-28
0
-3.95279e-28
6.24465e-29
1.31704e-27
2.48444e-27
2.11182e-29
2.30851e-28
1.53403e-28
0
0
3.1452e-24
7.53691e-24
6.20893e-25
0
1.32179e-27
-3.30712e-28
3.58304e-27
1.01858e-27
1.57019e-28
1.59105e-28
0
0
0
0
6.01845e-28
1.01873e-27
2.53782e-28
1.73821e-28
0
5.00137e-29
5.26157e-23
2.05318e-23
4.27027e-26
1.14379e-25
0
3.40136e-27
1.27042e-27
8.23792e-28
7.89161e-28
5.05118e-28
7.82461e-28
-4.12399e-27
0
1.66037e-28
7.34684e-28
2.80152e-28
0
-1.61536e-28
1.25973e-28
2.56127e-29
4.16048e-23
1.70357e-23
5.17418e-25
-1.81783e-26
1.21496e-26
-9.17754e-28
1.27412e-27
1.66543e-27
1.73561e-28
3.69388e-28
1.19959e-27
-5.21482e-28
0
0
0
4.43159e-28
1.01718e-27
4.77567e-28
4.50537e-28
0
3.4811e-24
6.35695e-24
4.92041e-25
2.93874e-27
1.64599e-27
0
5.92729e-29
1.35886e-28
0
-2.52522e-28
2.3875e-28
0
0
-2.98559e-28
0
-1.37223e-28
0
1.83366e-28
1.05914e-27
1.20743e-28
1.98153e-23
9.58593e-24
4.14891e-25
0
6.38875e-27
0
1.74423e-28
-5.51615e-29
2.9112e-29
5.11879e-28
0
0
0
7.43417e-29
3.1487e-29
-4.6282e-29
0
5.07618e-28
0
0
4.1543e-23
1.63969e-23
0
9.90133e-26
0
3.99672e-27
0
6.50958e-28
0
-6.20686e-28
1.02729e-27
3.8942e-28
1.48826e-28
-6.02993e-28
7.69803e-28
1.55541e-28
4.01005e-28
-1.68762e-28
0
0
3.53209e-24
4.3022e-24
1.0134e-25
2.93874e-27
0
0
2.04327e-27
9.24185e-28
5.29653e-28
1.00347e-27
6.91959e-28
6.68842e-30
0
1.88679e-28
5.60029e-28
2.16694e-28
1.13754e-28
5.34543e-28
0
0
8.7031e-24
3.91765e-24
1.6172e-26
5.42815e-26
0
-1.46405e-28
0
3.07788e-28
1.00958e-27
3.35616e-28
0
-4.18948e-28
0
-1.95764e-27
0
-6.68906e-28
2.50821e-29
0
0
1.696e-28
2.59856e-24
3.65892e-24
0
5.47128e-26
0
1.13795e-27
1.00923e-27
1.26355e-27
5.82979e-28
1.37617e-28
0
0
9.3489e-28
0
7.65293e-28
0
3.48442e-28
1.28482e-28
3.20805e-29
3.45049e-29
0
-2.52298e-25
0
0
5.18805e-27
7.23284e-28
7.79869e-29
1.50548e-28
3.94878e-28
0
0
-1.11494e-27
0
-1.72207e-27
7.00294e-28
0
1.13272e-30
0
1.01816e-28
9.12706e-29
2.8951e-24
1.95924e-24
0
-6.62882e-27
2.93874e-27
0
0
2.19451e-28
6.99243e-29
4.46018e-29
0
2.3362e-27
3.96298e-27
-1.14108e-27
4.09545e-28
6.09157e-28
1.10058e-27
-2.62917e-29
1.76014e-28
0
4.96099e-24
1.30051e-24
7.44824e-26
6.38589e-27
4.48122e-27
-9.56438e-29
1.09375e-27
2.45297e-28
3.36082e-29
2.88706e-28
0
-9.224e-28
0
-2.5701e-27
4.4223e-28
0
3.19854e-30
-2.83818e-28
0
1.57382e-28
7.239e-24
3.31387e-24
2.34628e-25
2.93874e-27
2.47812e-27
0
1.40413e-28
0
0
0
1.17846e-28
7.34684e-28
1.46742e-27
-1.61981e-28
2.22074e-28
0
6.71779e-28
1.32231e-28
0
0
4.4353e-23
1.56943e-23
1.83671e-26
6.62286e-26
0
8.83859e-28
0
-1.69281e-27
1.51014e-27
3.40174e-28
3.60382e-28
-7.68793e-28
1.54337e-27
-9.14125e-28
0
-1.3251e-27
3.12884e-28
8.41929e-28
2.73295e-28
1.07143e-28
1.91122e-23
1.22233e-23
1.65974e-25
6.34159e-26
0
0
8.04151e-28
-1.3548e-27
3.31918e-27
1.77007e-27
0
0
0
-1.72107e-28
3.06868e-28
0
2.75573e-28
7.08151e-28
2.17152e-28
2.13112e-28
8.63137e-24
8.02916e-24
5.13732e-25
2.3662e-26
0
0
3.34143e-28
-1.47493e-27
2.40308e-27
5.81378e-28
0
1.23088e-27
3.9067e-29
2.95862e-28
9.60925e-28
-6.11962e-28
0
-7.92257e-28
8.50111e-29
2.40669e-31
6.15938e-23
1.90626e-23
6.31042e-25
6.69384e-26
0
4.30526e-28
0
6.10151e-29
7.34684e-28
-3.46549e-28
0
5.48524e-28
2.03493e-28
-1.63067e-28
0
2.8946e-28
1.77144e-28
3.74365e-28
0
-1.71064e-28
1.13058e-23
1.31624e-23
5.39731e-25
3.92513e-26
0
5.01331e-28
0
1.40236e-28
1.71047e-28
1.99625e-28
2.62798e-28
0
0
8.90806e-28
1.66917e-28
-9.55127e-29
3.50956e-28
-3.11962e-28
0
2.76979e-28
1.36548e-23
5.86562e-24
4.23661e-25
0
3.00639e-27
-6.53582e-28
3.54014e-28
5.5034e-28
8.13804e-28
1.36751e-28
3.70597e-28
8.0372e-28
6.23044e-28
0
0
3.58922e-28
7.45371e-28
0
1.14003e-28
0
)
;

boundaryField
{
    movingWall
    {
        type            calculated;
        value           nonuniform List<scalar> 
20
(
0
0
5.25831e-25
-2.70963e-26
2.30665e-26
-6.40431e-27
3.62797e-27
2.78299e-27
1.12357e-27
6.55164e-28
2.69952e-27
2.58698e-27
0
-2.30692e-28
0
5.88057e-28
9.85304e-28
0
4.92633e-28
0
)
;
    }
    fixedWalls
    {
        type            calculated;
        value           nonuniform List<scalar> 
60
(
1.19444e-22
1.16502e-22
2.86097e-22
2.59668e-22
1.02947e-22
1.51223e-22
2.12295e-22
5.18142e-23
4.83692e-23
1.62182e-23
0
1.7521e-23
2.58142e-23
4.96016e-23
2.38297e-22
1.77207e-22
1.42643e-22
3.18036e-22
2.14936e-22
1.03142e-22
0
-2.16166e-28
3.1577e-29
2.89657e-29
7.17377e-28
0
0
0
6.43059e-28
3.45049e-29
3.07834e-29
0
2.3247e-28
0
1.89291e-28
1.03737e-28
3.64294e-29
-1.52583e-28
5.52063e-28
0
0
0
7.47709e-25
0
6.12197e-26
-9.41584e-27
5.13114e-27
5.887e-28
0
0
2.90907e-28
3.27224e-28
2.38677e-27
2.67256e-27
5.52468e-27
1.97589e-27
8.05163e-28
2.91099e-28
3.91327e-28
0
)
;
    }
    frontAndBack
    {
        type            empty;
    }
}


// ************************************************************************* //
