/*--------------------------------*- C++ -*----------------------------------*\
| =========                 |                                                 |
| \\      /  F ield         | OpenFOAM: The Open Source CFD Toolbox           |
|  \\    /   O peration     | Version:  2312                                  |
|   \\  /    A nd           | Website:  www.openfoam.com                      |
|    \\/     M anipulation  |                                                 |
\*---------------------------------------------------------------------------*/
FoamFile
{
    version     2.0;
    format      ascii;
    arch        "LSB;label=32;scalar=64";
    class       volVectorField;
    location    "7";
    object      LambVectorField;
}
// * * * * * * * * * * * * * * * * * * * * * * * * * * * * * * * * * * * * * //

dimensions      [0 1 -2 0 0 0 0];

internalField   nonuniform List<vector> 
400
(
(-2.28727e-24 -1.28832e-11 -1.28832e-11)
(-6.30132e-25 1.65235e-11 -0)
(-3.32693e-26 -3.67577e-12 -3.67577e-12)
(-1.59402e-27 8.30248e-13 -0)
(-7.65741e-29 -1.60376e-13 -1.60376e-13)
(-1.64933e-30 3.65597e-14 -0)
(1.45006e-30 1.29623e-14 1.29623e-14)
(7.9153e-32 8.21819e-16 0)
(4.6271e-31 4.46419e-15 4.46419e-15)
(-2.575e-30 -4.9833e-14 0)
(-3.37677e-30 -5.63937e-14 -5.63937e-14)
(-4.52652e-30 -6.15785e-14 0)
(-8.89672e-30 -6.66107e-14 -6.66107e-14)
(2.95967e-31 1.49846e-15 0)
(-3.38821e-30 -2.85736e-14 -2.85736e-14)
(-9.4205e-31 1.60074e-14 -0)
(-1.05754e-30 2.54854e-14 2.54854e-14)
(-1.00609e-30 2.35871e-14 -0)
(5.56624e-32 -8.81191e-15 -8.81191e-15)
(1.77988e-31 3.91483e-15 0)
(-3.35429e-27 8.37647e-13 8.37647e-13)
(-8.77632e-28 -6.64865e-13 0)
(-5.59672e-30 8.4444e-14 8.4444e-14)
(-1.98175e-29 -9.68954e-14 0)
(-1.12597e-29 -1.25772e-13 -1.25772e-13)
(-9.23186e-30 -8.62843e-14 0)
(-1.42666e-29 -1.02478e-13 -1.02478e-13)
(-1.68483e-30 -3.54206e-14 0)
(-5.18583e-31 1.06532e-14 1.06532e-14)
(1.78424e-31 -3.0259e-15 -0)
(5.10066e-31 -2.76915e-14 -2.76915e-14)
(4.45812e-30 -8.39557e-14 -0)
(-3.90929e-31 -4.89549e-14 -4.89549e-14)
(-1.62918e-29 -9.85012e-14 0)
(2.74267e-30 1.52501e-14 1.52501e-14)
(-4.56758e-31 -3.54179e-14 0)
(1.81405e-31 -2.24618e-14 -2.24618e-14)
(-1.0508e-31 3.13334e-15 -0)
(2.14758e-31 -5.44939e-15 -5.44939e-15)
(5.2939e-31 2.52599e-14 0)
(-9.49994e-25 6.59267e-12 6.59267e-12)
(-3.90823e-25 -1.22814e-11 0)
(-2.18017e-26 3.03241e-12 3.03241e-12)
(-9.2462e-28 -5.22605e-13 0)
(-1.13132e-28 3.35502e-13 3.35502e-13)
(4.57353e-30 1.12829e-13 0)
(-1.36481e-29 1.23808e-13 1.23808e-13)
(-8.07761e-30 7.12689e-14 -0)
(1.96425e-32 -2.00986e-15 -2.00986e-15)
(-3.42153e-30 -1.92427e-14 0)
(1.96961e-29 1.07833e-13 1.07833e-13)
(-1.49724e-29 1.71376e-13 -0)
(-1.48068e-29 8.41998e-14 8.41998e-14)
(-2.43805e-30 2.09794e-14 -0)
(-3.02008e-31 2.63541e-15 2.63541e-15)
(1.23309e-30 -8.64925e-15 -0)
(2.17482e-30 -7.73854e-14 -7.73854e-14)
(-2.97361e-30 -3.33413e-14 0)
(2.6371e-31 7.69762e-15 7.69762e-15)
(5.67433e-32 4.64695e-15 0)
(-1.00529e-24 -7.25455e-12 -7.25455e-12)
(-3.59868e-25 1.21137e-11 -0)
(-1.93095e-26 -2.70558e-12 -2.70558e-12)
(-1.15737e-27 7.38337e-13 -0)
(-2.01333e-29 -6.80984e-14 -6.80984e-14)
(-6.21615e-30 8.46922e-14 -0)
(-1.617e-31 1.76308e-14 1.76308e-14)
(3.61649e-31 1.69427e-14 0)
(-1.33536e-30 -1.44437e-14 -1.44437e-14)
(7.85746e-30 4.73961e-14 0)
(1.0224e-29 6.36641e-14 6.36641e-14)
(4.76786e-30 6.6924e-14 0)
(2.09648e-30 6.26681e-14 6.26681e-14)
(-1.29115e-30 9.68062e-14 -0)
(-1.15905e-29 9.54295e-14 9.54295e-14)
(-8.61868e-30 5.57911e-14 -0)
(-6.15692e-30 4.48538e-14 4.48538e-14)
(1.23839e-30 -2.03289e-14 -0)
(-4.45379e-30 -6.74586e-14 -6.74586e-14)
(9.84682e-31 1.37589e-14 0)
(-1.20885e-25 3.06906e-12 3.06906e-12)
(-3.06418e-26 -3.63635e-12 0)
(-1.6638e-27 8.57444e-13 8.57444e-13)
(-7.36381e-29 -1.86815e-13 0)
(1.72348e-30 -2.3847e-14 -2.3847e-14)
(-7.34025e-30 -8.10667e-14 0)
(-8.63671e-30 -4.39989e-14 -4.39989e-14)
(2.488e-30 9.58825e-15 0)
(5.94008e-30 5.91574e-14 5.91574e-14)
(-4.42054e-30 7.24208e-14 -0)
(8.43002e-31 -1.03188e-14 -1.03188e-14)
(-1.00371e-30 -2.38138e-14 0)
(-9.80984e-30 -6.27058e-14 -6.27058e-14)
(4.84655e-30 3.81302e-14 0)
(1.43538e-30 3.10751e-14 3.10751e-14)
(5.6189e-30 6.42857e-14 0)
(-4.14071e-30 7.58852e-14 7.58852e-14)
(4.27891e-31 -3.30811e-15 -0)
(-7.44911e-31 3.46725e-14 3.46725e-14)
(-1.49562e-30 -2.26504e-14 0)
(-4.02219e-25 4.47932e-12 4.47932e-12)
(-1.53218e-25 -7.84821e-12 0)
(-7.98083e-27 1.7593e-12 1.7593e-12)
(-5.18014e-28 -4.63939e-13 0)
(-8.41594e-30 5.00891e-14 5.00891e-14)
(-1.59247e-30 -2.16472e-14 0)
(1.00152e-30 2.067e-14 2.067e-14)
(-8.45384e-30 -6.12973e-14 0)
(7.17643e-31 6.01421e-15 6.01421e-15)
(8.11794e-31 1.04379e-14 0)
(1.8136e-31 1.2135e-14 1.2135e-14)
(-2.40837e-31 5.52676e-15 -0)
(1.00663e-31 -2.49646e-15 -2.49646e-15)
(1.29933e-31 -6.98123e-15 -0)
(-1.95703e-31 -6.63625e-15 -6.63625e-15)
(-1.42531e-30 -2.98489e-14 0)
(-1.52251e-31 -2.67444e-15 -2.67444e-15)
(4.23623e-31 5.6866e-15 0)
(9.08306e-35 1.45534e-15 1.45534e-15)
(3.59675e-31 6.00041e-15 0)
(-1.27264e-24 -8.38458e-12 -8.38458e-12)
(-4.37287e-25 1.32623e-11 -0)
(-2.50121e-26 -3.21637e-12 -3.21637e-12)
(-9.65003e-28 5.95064e-13 -0)
(-1.43287e-28 -3.04479e-13 -3.04479e-13)
(-7.19519e-30 -1.06035e-13 0)
(-3.3515e-29 -1.90759e-13 -1.90759e-13)
(-3.29558e-30 -4.22021e-14 0)
(-6.51401e-30 -1.17132e-13 -1.17132e-13)
(-1.90119e-29 -1.15079e-13 0)
(-5.44067e-30 -4.4523e-14 -4.4523e-14)
(-1.26147e-30 -1.84596e-14 0)
(-1.83959e-30 -5.14648e-14 -5.14648e-14)
(-4.6603e-30 -1.1399e-13 0)
(-4.89786e-30 -5.35623e-14 -5.35623e-14)
(-7.35121e-31 -2.13666e-14 0)
(-2.05591e-30 -6.03654e-14 -6.03654e-14)
(-5.51941e-30 -5.7519e-14 0)
(4.71789e-31 7.02624e-15 7.02624e-15)
(2.38564e-31 9.28423e-15 0)
(-3.23683e-25 4.80005e-12 4.80005e-12)
(-9.00223e-26 -6.18553e-12 0)
(-4.53862e-27 1.44618e-12 1.44618e-12)
(-2.79491e-28 -3.08807e-13 0)
(-8.21541e-30 1.63385e-13 1.63385e-13)
(-1.04113e-30 -1.23404e-14 0)
(4.10275e-30 5.61083e-14 5.61083e-14)
(2.1847e-31 3.34128e-15 0)
(3.50362e-31 8.82322e-15 8.82322e-15)
(-1.35372e-30 5.92512e-14 -0)
(1.11084e-31 -1.03804e-14 -1.03804e-14)
(-7.53251e-31 -9.30436e-15 0)
(5.20628e-30 6.32273e-14 6.32273e-14)
(-1.60594e-31 1.74269e-14 -0)
(-7.49028e-31 8.14813e-15 8.14813e-15)
(-1.73325e-30 1.91104e-14 -0)
(1.58875e-31 -1.32615e-14 -1.32615e-14)
(1.8883e-30 4.50474e-14 0)
(3.65189e-31 4.58512e-15 4.58512e-15)
(-2.97799e-32 7.57134e-15 -0)
(-1.21913e-25 2.22516e-12 2.22516e-12)
(-5.53046e-26 -4.53027e-12 0)
(-3.15683e-27 1.16519e-12 1.16519e-12)
(-6.68748e-29 -8.08665e-14 0)
(-8.78552e-31 2.6872e-13 2.6872e-13)
(6.74349e-30 1.81601e-13 0)
(-3.12287e-29 1.6183e-13 1.6183e-13)
(-3.0104e-29 1.33254e-13 -0)
(-1.32692e-29 7.79346e-14 7.79346e-14)
(-9.74988e-30 5.07521e-14 -0)
(1.05381e-29 -7.76684e-14 -7.76684e-14)
(-1.90131e-30 -4.47629e-14 0)
(5.68277e-31 1.38952e-14 1.38952e-14)
(-1.22214e-29 1.26677e-13 -0)
(1.59655e-30 -1.12692e-14 -1.12692e-14)
(-8.59927e-31 -5.30321e-14 0)
(-2.14429e-31 -1.82342e-15 -1.82342e-15)
(1.36184e-30 3.95317e-14 0)
(-6.02606e-32 9.03511e-15 9.03511e-15)
(-1.16543e-30 2.08479e-14 -0)
(-8.17531e-25 -7.86287e-12 -7.86287e-12)
(-2.12401e-25 9.49774e-12 -0)
(-1.24056e-26 -2.26692e-12 -2.26692e-12)
(-4.06303e-28 3.87206e-13 -0)
(-1.17833e-28 -2.28275e-13 -2.28275e-13)
(2.22013e-30 1.48778e-14 0)
(-1.10855e-30 -1.15042e-14 -1.15042e-14)
(1.15002e-31 -1.69501e-14 -0)
(1.95476e-31 -3.76707e-14 -3.76707e-14)
(-5.9747e-30 -6.04288e-14 0)
(5.42394e-31 9.51604e-15 9.51604e-15)
(3.22477e-32 8.68892e-15 0)
(-9.8841e-31 3.30668e-14 3.30668e-14)
(-3.1248e-31 5.58936e-15 -0)
(-2.12457e-30 2.47662e-14 2.47662e-14)
(4.00128e-31 -1.2305e-14 -0)
(-2.14225e-31 -5.74871e-15 -5.74871e-15)
(-5.58443e-31 -2.23649e-14 0)
(-8.60477e-32 8.48895e-15 8.48895e-15)
(4.19777e-31 -7.00563e-15 -0)
(-9.36223e-25 9.0775e-12 9.0775e-12)
(-2.25261e-25 -9.82274e-12 0)
(-1.19916e-26 2.31483e-12 2.31483e-12)
(-5.57519e-28 -4.89254e-13 0)
(-3.10777e-29 1.07984e-13 1.07984e-13)
(-1.96993e-30 -3.30045e-14 0)
(1.02354e-30 2.42278e-14 2.42278e-14)
(-1.26832e-31 -1.4338e-15 0)
(3.42215e-30 6.04784e-14 6.04784e-14)
(1.64596e-30 6.38569e-14 0)
(-5.29687e-30 1.32809e-13 1.32809e-13)
(-1.63193e-29 7.48223e-14 -0)
(4.84243e-30 -1.96843e-14 -1.96843e-14)
(1.87266e-30 -8.80645e-14 -0)
(-2.34085e-30 -2.52958e-14 -2.52958e-14)
(-6.27289e-31 1.59382e-14 -0)
(3.09702e-32 -4.63327e-16 -4.63327e-16)
(3.39176e-31 -9.76769e-15 -0)
(7.19925e-31 2.33487e-14 2.33487e-14)
(-6.73978e-32 -2.37378e-14 0)
(-7.2533e-25 -7.38072e-12 -7.38072e-12)
(-1.94004e-25 9.14518e-12 -0)
(-1.01023e-26 -2.05144e-12 -2.05144e-12)
(-6.40158e-28 5.15611e-13 -0)
(-4.42446e-30 -1.12184e-13 -1.12184e-13)
(7.48948e-30 -6.25607e-14 -0)
(-9.56186e-30 -7.77729e-14 -7.77729e-14)
(-2.20336e-30 -1.90088e-14 0)
(7.0198e-31 1.67207e-14 1.67207e-14)
(1.30591e-30 -2.54595e-14 -0)
(-1.56421e-30 -6.12752e-14 -6.12752e-14)
(-9.86036e-31 -5.09396e-14 0)
(6.06011e-31 -8.44275e-14 -8.44275e-14)
(-4.82695e-30 -9.56194e-14 0)
(-1.15911e-29 -8.53137e-14 -8.53137e-14)
(-3.9182e-30 -4.33114e-14 0)
(-1.16383e-30 -4.33019e-14 -4.33019e-14)
(-5.26875e-31 2.83012e-14 -0)
(-4.50524e-31 -3.02041e-14 -3.02041e-14)
(3.37694e-32 2.72902e-15 0)
(-8.30529e-26 1.92122e-12 1.92122e-12)
(-3.58067e-26 -3.81727e-12 0)
(-1.72599e-27 8.31857e-13 8.31857e-13)
(-1.16984e-28 -2.25188e-13 0)
(3.16356e-30 -3.36438e-14 -3.36438e-14)
(-2.66801e-30 -6.23669e-14 0)
(-3.62387e-32 2.90775e-15 2.90775e-15)
(-1.21111e-30 -8.83905e-14 0)
(-3.12378e-30 -5.35901e-14 -5.35901e-14)
(-6.20798e-31 -8.27489e-14 0)
(-7.64172e-30 -1.05218e-13 -1.05218e-13)
(-1.76722e-29 -7.1683e-14 0)
(1.88712e-29 7.62915e-14 7.62915e-14)
(2.93452e-30 1.14099e-13 0)
(-3.04993e-30 3.78947e-14 3.78947e-14)
(-7.09304e-30 8.63136e-14 -0)
(2.96113e-31 -2.26962e-15 -2.26962e-15)
(2.23552e-30 -3.75835e-14 -0)
(4.14914e-32 -1.61547e-15 -1.61547e-15)
(2.99e-31 -6.90105e-15 -0)
(-3.44521e-25 4.60553e-12 4.60553e-12)
(-1.13916e-25 -6.77086e-12 0)
(-5.77883e-27 1.50305e-12 1.50305e-12)
(-3.63329e-28 -3.70477e-13 0)
(-9.0025e-30 6.43216e-14 6.43216e-14)
(4.48423e-31 6.74932e-15 0)
(-4.9165e-30 2.36992e-14 2.36992e-14)
(9.21883e-30 -5.40527e-14 -0)
(-7.03167e-30 -1.13373e-13 -1.13373e-13)
(-1.41596e-30 -9.43822e-15 0)
(5.50403e-30 3.51909e-14 3.51909e-14)
(1.03153e-30 1.49138e-14 0)
(2.81633e-31 3.87584e-14 3.87584e-14)
(-1.63766e-30 3.45735e-14 -0)
(-3.37854e-30 5.01136e-14 5.01136e-14)
(5.15194e-32 -8.04718e-15 -0)
(1.0716e-30 8.20888e-14 8.20888e-14)
(-1.20736e-31 8.53975e-15 -0)
(-2.67663e-30 3.6999e-14 3.6999e-14)
(2.0967e-30 -1.85421e-14 -0)
(-1.51724e-24 -9.32289e-12 -9.32289e-12)
(-5.11861e-25 1.44748e-11 -0)
(-2.75406e-26 -3.34344e-12 -3.34344e-12)
(-1.37168e-27 7.1155e-13 -0)
(-7.15047e-29 -2.31744e-13 -2.31744e-13)
(-7.62052e-31 5.00063e-15 -0)
(1.95215e-30 -1.5609e-13 -1.5609e-13)
(-6.61714e-30 -1.24248e-13 0)
(-9.8208e-30 -6.7371e-14 -6.7371e-14)
(-2.6907e-30 -1.45548e-14 0)
(1.8112e-30 8.93549e-14 8.93549e-14)
(-1.14977e-29 6.90212e-14 -0)
(1.55059e-29 -1.2129e-13 -1.2129e-13)
(3.51857e-30 -9.28826e-14 -0)
(1.11014e-30 -9.12471e-14 -9.12471e-14)
(-7.41401e-30 -1.20676e-13 0)
(-2.92685e-30 -2.65124e-14 -2.65124e-14)
(-2.32563e-30 -4.18953e-14 0)
(2.17075e-31 -1.70222e-14 -1.70222e-14)
(2.63161e-31 -5.80702e-15 -0)
(-8.44568e-25 7.32438e-12 7.32438e-12)
(-2.56101e-25 -1.03609e-11 0)
(-1.38451e-26 2.41314e-12 2.41314e-12)
(-6.61681e-28 -4.72687e-13 0)
(-3.77453e-29 1.91241e-13 1.91241e-13)
(-3.14762e-31 -1.06637e-14 0)
(-9.63072e-30 1.06144e-13 1.06144e-13)
(-2.7596e-29 1.26143e-13 -0)
(-1.03583e-29 3.86563e-14 3.86563e-14)
(1.64522e-30 -2.60196e-14 -0)
(1.48122e-31 -1.90806e-14 -1.90806e-14)
(-8.09736e-30 -6.34709e-14 0)
(7.94686e-30 9.3663e-14 9.3663e-14)
(3.7885e-31 9.24667e-14 0)
(-6.99474e-31 2.62266e-14 2.62266e-14)
(4.39753e-31 3.41368e-14 0)
(-1.54268e-30 1.59059e-14 1.59059e-14)
(4.08302e-31 -2.79321e-15 -0)
(9.43367e-31 -1.36609e-14 -1.36609e-14)
(-1.84115e-31 1.92426e-14 -0)
(2.92953e-26 -1.51339e-12 -1.51339e-12)
(-4.77444e-27 -1.08394e-12 0)
(-2.47945e-28 2.67013e-13 2.67013e-13)
(-1.64867e-29 -4.34644e-14 0)
(6.78114e-30 1.40808e-13 1.40808e-13)
(6.20575e-30 1.11944e-13 0)
(1.71125e-30 1.32443e-13 1.32443e-13)
(-3.10627e-29 1.68092e-13 -0)
(-2.70283e-29 8.64212e-14 8.64212e-14)
(-1.334e-30 5.65599e-15 -0)
(1.9422e-30 -1.9766e-14 -1.9766e-14)
(-1.66592e-30 4.3615e-14 -0)
(-6.5169e-32 -8.47259e-15 -8.47259e-15)
(-3.9804e-31 -8.55452e-15 0)
(4.93718e-30 5.2953e-14 5.2953e-14)
(3.96364e-30 6.70656e-14 0)
(-9.52525e-31 2.69702e-14 2.69702e-14)
(-1.93997e-29 9.21161e-14 -0)
(2.58737e-30 -1.80522e-14 -1.80522e-14)
(5.21578e-31 -1.73405e-14 -0)
(-4.65851e-25 -3.6895e-12 -3.6895e-12)
(-2.8441e-25 1.04185e-11 -0)
(-1.48208e-26 -2.33083e-12 -2.33083e-12)
(-7.87614e-28 5.07824e-13 -0)
(-3.30788e-29 -1.68614e-13 -1.68614e-13)
(1.7197e-30 -1.26569e-14 -0)
(-6.81717e-30 -1.31862e-13 -1.31862e-13)
(-5.23131e-30 -5.30846e-14 0)
(8.02036e-31 1.98308e-14 1.98308e-14)
(-7.39783e-30 7.41553e-14 -0)
(-4.59355e-31 2.88888e-15 2.88888e-15)
(-9.41132e-31 7.31545e-15 -0)
(-3.29324e-30 -8.46855e-14 -8.46855e-14)
(-6.0575e-30 -3.43974e-14 0)
(2.85545e-30 2.55381e-14 2.55381e-14)
(-1.62404e-30 2.04855e-14 -0)
(2.40505e-31 -2.58486e-15 -2.58486e-15)
(2.28698e-31 -4.28039e-15 -0)
(1.95711e-31 -3.89553e-15 -3.89553e-15)
(4.85981e-31 -3.35764e-14 -0)
(-1.87953e-25 3.37287e-12 3.37287e-12)
(-5.78138e-26 -4.94297e-12 0)
(-3.40586e-27 1.22892e-12 1.22892e-12)
(-8.62054e-29 -1.75516e-13 0)
(-1.56225e-29 7.69145e-14 7.69145e-14)
(-5.97425e-32 8.60921e-15 -0)
(-1.56899e-30 8.64163e-14 8.64163e-14)
(-3.33633e-30 5.75715e-14 -0)
(-2.64314e-30 5.10549e-14 5.10549e-14)
(-5.2111e-31 1.97402e-14 -0)
(5.42634e-31 2.48027e-14 2.48027e-14)
(-1.22982e-31 3.64394e-14 -0)
(-3.93783e-30 5.51011e-14 5.51011e-14)
(-2.6318e-31 2.14225e-14 -0)
(-5.41381e-31 3.698e-14 3.698e-14)
(-7.71962e-30 6.95245e-14 -0)
(-2.97199e-30 1.77132e-14 1.77132e-14)
(6.63339e-31 -3.87566e-14 -0)
(-1.73305e-31 3.38033e-15 3.38033e-15)
(-8.59832e-31 1.68863e-14 -0)
(-3.88175e-25 4.64852e-12 4.64852e-12)
(-1.3562e-25 -7.5151e-12 0)
(-6.6769e-27 1.55699e-12 1.55699e-12)
(-3.64619e-28 -4.28883e-13 0)
(-1.53422e-29 5.67062e-14 5.67062e-14)
(-6.17187e-31 -5.12276e-14 0)
(5.22012e-31 -1.77978e-14 -1.77978e-14)
(3.85849e-30 -4.7621e-14 -0)
(5.02299e-30 -5.27506e-14 -5.27506e-14)
(2.63459e-30 -2.75527e-14 -0)
(1.65666e-30 -1.82562e-14 -1.82562e-14)
(8.4447e-30 -4.58681e-14 -0)
(1.54615e-30 -8.87749e-15 -8.87749e-15)
(4.39246e-30 -4.60747e-14 -0)
(-6.04221e-31 -3.89021e-14 -3.89021e-14)
(-1.07726e-30 -4.75892e-14 0)
(1.08762e-30 -2.14616e-14 -2.14616e-14)
(-1.62527e-32 4.8088e-16 -0)
(-2.13325e-32 3.84465e-16 3.84465e-16)
(1.37086e-30 -3.64179e-14 -0)
)
;

boundaryField
{
    movingWall
    {
        type            calculated;
        value           nonuniform List<vector> 
20
(
(0 1.28519e-11 -0)
(0 -9.74244e-12 -0)
(0 1.49758e-12 -0)
(0 -7.57049e-13 -0)
(0 -1.82642e-13 -0)
(0 -2.90576e-13 -0)
(0 -3.01555e-13 -0)
(0 -3.04273e-13 -0)
(0 -2.64994e-13 -0)
(0 -1.78083e-13 -0)
(0 -2.13196e-13 -0)
(0 -2.13703e-13 -0)
(0 -9.76953e-14 -0)
(0 -1.07788e-13 -0)
(0 -1.1797e-14 -0)
(0 -8.21969e-14 -0)
(0 -3.87655e-14 -0)
(0 4.8088e-16 -0)
(0 3.84465e-16 -0)
(0 -5.37218e-14 -0)
)
;
    }
    fixedWalls
    {
        type            calculated;
        value           nonuniform List<vector> 
60
(
(0 -6.99584e-11 -0)
(0 2.17098e-12 -0)
(0 5.30045e-11 -0)
(0 -5.17974e-11 -0)
(0 1.57282e-11 -0)
(0 3.337e-11 -0)
(0 -5.72169e-11 -0)
(0 2.64854e-11 -0)
(0 1.98824e-11 -0)
(0 -4.12913e-11 -0)
(0 4.23118e-11 -0)
(0 -3.89842e-11 -0)
(0 1.5828e-11 -0)
(0 2.87297e-11 -0)
(0 -6.16821e-11 -0)
(0 4.43889e-11 -0)
(0 4.73431e-12 -0)
(0 -4.42986e-11 -0)
(0 2.12599e-11 -0)
(0 3.15047e-11 -0)
(0 1.8186e-14 -0)
(0 3.54881e-14 -0)
(0 4.88435e-15 -0)
(0 2.86267e-14 -0)
(0 -6.92783e-16 -0)
(0 2.39767e-14 -0)
(0 1.02782e-14 -0)
(0 -1.5733e-15 -0)
(0 4.74441e-15 -0)
(0 -2.39679e-14 -0)
(0 -2.59693e-14 -0)
(0 4.94968e-15 -0)
(0 -1.73307e-14 -0)
(0 -4.52311e-14 -0)
(0 -1.81271e-14 -0)
(0 2.32778e-14 -0)
(0 -1.20314e-14 -0)
(0 -3.28946e-14 -0)
(0 6.73751e-15 -0)
(0 -4.21621e-14 -0)
(0 -2.06017e-11 -0)
(0 1.92469e-11 -0)
(0 -3.48833e-12 -0)
(0 1.21262e-12 -0)
(0 1.23381e-13 -0)
(0 3.03013e-13 -0)
(0 2.9672e-13 -0)
(0 1.78458e-13 -0)
(0 1.821e-13 -0)
(0 1.37604e-13 -0)
(0 1.31043e-13 -0)
(0 3.70405e-14 -0)
(0 1.20826e-13 -0)
(0 1.79134e-13 -0)
(0 -6.31814e-14 -0)
(0 -7.28104e-14 -0)
(0 4.27892e-14 -0)
(0 -3.51791e-15 -0)
(0 3.5597e-14 -0)
(0 3.91483e-15 -0)
)
;
    }
    frontAndBack
    {
        type            empty;
    }
}


// ************************************************************************* //
