/*--------------------------------*- C++ -*----------------------------------*\
| =========                 |                                                 |
| \\      /  F ield         | OpenFOAM: The Open Source CFD Toolbox           |
|  \\    /   O peration     | Version:  2312                                  |
|   \\  /    A nd           | Website:  www.openfoam.com                      |
|    \\/     M anipulation  |                                                 |
\*---------------------------------------------------------------------------*/
FoamFile
{
    version     2.0;
    format      ascii;
    arch        "LSB;label=32;scalar=64";
    class       volVectorField;
    location    "7";
    object      momentum1:momentum;
}
// * * * * * * * * * * * * * * * * * * * * * * * * * * * * * * * * * * * * * //

dimensions      [1 1 -1 0 0 0 0];

internalField   nonuniform List<vector> 
400
(
(-2.5e-07 4.43847e-20 0)
(-2.5e-07 -9.53387e-21 0)
(-2.5e-07 2.26275e-21 0)
(-2.5e-07 -4.79982e-22 0)
(-2.5e-07 1.19366e-22 0)
(-2.5e-07 -1.12783e-23 0)
(-2.5e-07 2.79669e-23 0)
(-2.5e-07 2.40786e-23 0)
(-2.5e-07 2.59123e-23 0)
(-2.5e-07 1.29181e-23 0)
(-2.5e-07 1.49696e-23 0)
(-2.5e-07 1.8377e-23 0)
(-2.5e-07 3.33907e-23 0)
(-2.5e-07 4.93785e-23 0)
(-2.5e-07 2.96446e-23 0)
(-2.5e-07 -1.47127e-23 0)
(-2.5e-07 -1.0374e-23 0)
(-2.5e-07 -1.06635e-23 0)
(-2.5e-07 -1.57918e-24 0)
(-2.5e-07 1.13663e-23 0)
(-2.5e-07 -1.00111e-21 0)
(-2.5e-07 3.30004e-22 0)
(-2.5e-07 -1.65693e-23 0)
(-2.5e-07 5.11312e-23 0)
(-2.5e-07 2.23812e-23 0)
(-2.5e-07 2.67484e-23 0)
(-2.5e-07 3.48041e-23 0)
(-2.5e-07 1.18916e-23 0)
(-2.5e-07 -1.21696e-23 0)
(-2.5e-07 -1.47414e-23 0)
(-2.5e-07 -4.60489e-24 0)
(-2.5e-07 -1.32752e-23 0)
(-2.5e-07 1.99637e-24 0)
(-2.5e-07 4.13493e-23 0)
(-2.5e-07 4.49616e-23 0)
(-2.5e-07 3.22407e-24 0)
(-2.5e-07 -2.01904e-24 0)
(-2.5e-07 -8.38405e-24 0)
(-2.5e-07 -9.85238e-24 0)
(-2.5e-07 5.23943e-24 0)
(-2.5e-07 -3.60246e-20 0)
(-2.5e-07 7.95557e-21 0)
(-2.5e-07 -1.79739e-21 0)
(-2.5e-07 4.42313e-22 0)
(-2.5e-07 -8.43003e-23 0)
(-2.5e-07 1.01338e-23 0)
(-2.5e-07 -2.7559e-23 0)
(-2.5e-07 -2.8335e-23 0)
(-2.5e-07 -2.44326e-24 0)
(-2.5e-07 4.44523e-23 0)
(-2.5e-07 4.56635e-23 0)
(-2.5e-07 -2.18414e-23 0)
(-2.5e-07 -4.39633e-23 0)
(-2.5e-07 -2.90529e-23 0)
(-2.5e-07 -2.86491e-23 0)
(-2.5e-07 -3.56414e-23 0)
(-2.5e-07 -7.02593e-24 0)
(-2.5e-07 2.22968e-23 0)
(-2.5e-07 8.56465e-24 0)
(-2.5e-07 3.05272e-24 0)
(-2.5e-07 3.46434e-20 0)
(-2.5e-07 -7.42688e-21 0)
(-2.5e-07 1.78423e-21 0)
(-2.5e-07 -3.91883e-22 0)
(-2.5e-07 7.39124e-23 0)
(-2.5e-07 -1.83492e-23 0)
(-2.5e-07 -2.29286e-24 0)
(-2.5e-07 5.33636e-24 0)
(-2.5e-07 2.31131e-23 0)
(-2.5e-07 4.14457e-23 0)
(-2.5e-07 4.01481e-23 0)
(-2.5e-07 1.78107e-23 0)
(-2.5e-07 8.36341e-24 0)
(-2.5e-07 -3.33438e-24 0)
(-2.5e-07 -3.03641e-23 0)
(-2.5e-07 -3.86203e-23 0)
(-2.5e-07 -3.43166e-23 0)
(-2.5e-07 -1.52294e-23 0)
(-2.5e-07 1.65057e-23 0)
(-2.5e-07 1.78917e-23 0)
(-2.5e-07 -9.84704e-21 0)
(-2.5e-07 2.10663e-21 0)
(-2.5e-07 -4.85105e-22 0)
(-2.5e-07 9.85442e-23 0)
(-2.5e-07 -1.80681e-23 0)
(-2.5e-07 2.26365e-23 0)
(-2.5e-07 4.90735e-23 0)
(-2.5e-07 6.4871e-23 0)
(-2.5e-07 2.51028e-23 0)
(-2.5e-07 -1.52599e-23 0)
(-2.5e-07 -2.0424e-23 0)
(-2.5e-07 1.0537e-23 0)
(-2.5e-07 3.91106e-23 0)
(-2.5e-07 3.17763e-23 0)
(-2.5e-07 1.15477e-23 0)
(-2.5e-07 2.18513e-23 0)
(-2.5e-07 -1.36413e-23 0)
(-2.5e-07 -3.23365e-23 0)
(-2.5e-07 -5.37106e-24 0)
(-2.5e-07 1.65077e-23 0)
(-2.5e-07 -2.24487e-20 0)
(-2.5e-07 4.88068e-21 0)
(-2.5e-07 -1.13409e-21 0)
(-2.5e-07 2.79139e-22 0)
(-2.5e-07 -4.20048e-23 0)
(-2.5e-07 1.83912e-23 0)
(-2.5e-07 1.21132e-23 0)
(-2.5e-07 3.44788e-23 0)
(-2.5e-07 2.98312e-23 0)
(-2.5e-07 1.94433e-23 0)
(-2.5e-07 3.73631e-24 0)
(-2.5e-07 -1.08941e-23 0)
(-2.5e-07 -1.00806e-23 0)
(-2.5e-07 -4.65294e-24 0)
(-2.5e-07 7.37248e-24 0)
(-2.5e-07 1.19377e-23 0)
(-2.5e-07 1.42321e-23 0)
(-2.5e-07 1.86238e-23 0)
(-2.5e-07 1.5603e-26 0)
(-2.5e-07 1.49854e-23 0)
(-2.5e-07 3.79459e-20 0)
(-2.5e-07 -8.24305e-21 0)
(-2.5e-07 1.94412e-21 0)
(-2.5e-07 -4.0542e-22 0)
(-2.5e-07 1.1765e-22 0)
(-2.5e-07 1.69642e-23 0)
(-2.5e-07 4.39233e-23 0)
(-2.5e-07 1.95226e-23 0)
(-2.5e-07 1.39032e-23 0)
(-2.5e-07 4.13019e-23 0)
(-2.5e-07 3.05497e-23 0)
(-2.5e-07 1.70843e-23 0)
(-2.5e-07 8.93614e-24 0)
(-2.5e-07 1.02209e-23 0)
(-2.5e-07 2.28606e-23 0)
(-2.5e-07 8.60129e-24 0)
(-2.5e-07 8.51445e-24 0)
(-2.5e-07 2.39895e-23 0)
(-2.5e-07 1.67867e-23 0)
(-2.5e-07 6.4239e-24 0)
(-2.5e-07 -1.68583e-20 0)
(-2.5e-07 3.63842e-21 0)
(-2.5e-07 -7.84589e-22 0)
(-2.5e-07 2.26267e-22 0)
(-2.5e-07 -1.25706e-23 0)
(-2.5e-07 2.10918e-23 0)
(-2.5e-07 1.82805e-23 0)
(-2.5e-07 1.63462e-23 0)
(-2.5e-07 9.92728e-24 0)
(-2.5e-07 -5.71181e-24 0)
(-2.5e-07 -2.67534e-24 0)
(-2.5e-07 2.02392e-23 0)
(-2.5e-07 2.05856e-23 0)
(-2.5e-07 -2.30383e-24 0)
(-2.5e-07 -2.29816e-23 0)
(-2.5e-07 -2.26742e-23 0)
(-2.5e-07 -2.99506e-24 0)
(-2.5e-07 1.04795e-23 0)
(-2.5e-07 1.99117e-23 0)
(-2.5e-07 -9.83311e-25 0)
(-2.5e-07 -1.36971e-20 0)
(-2.5e-07 3.05195e-21 0)
(-2.5e-07 -6.77322e-22 0)
(-2.5e-07 2.06744e-22 0)
(-2.5e-07 -8.17349e-25 0)
(-2.5e-07 9.28341e-24 0)
(-2.5e-07 -4.8243e-23 0)
(-2.5e-07 -5.64784e-23 0)
(-2.5e-07 -4.25653e-23 0)
(-2.5e-07 -4.8027e-23 0)
(-2.5e-07 -3.39202e-23 0)
(-2.5e-07 1.06188e-23 0)
(-2.5e-07 1.02244e-23 0)
(-2.5e-07 -2.41192e-23 0)
(-2.5e-07 -3.54185e-23 0)
(-2.5e-07 4.0538e-24 0)
(-2.5e-07 2.93991e-23 0)
(-2.5e-07 8.61236e-24 0)
(-2.5e-07 -1.6674e-24 0)
(-2.5e-07 -1.39754e-23 0)
(-2.5e-07 2.59934e-20 0)
(-2.5e-07 -5.59082e-21 0)
(-2.5e-07 1.36811e-21 0)
(-2.5e-07 -2.6233e-22 0)
(-2.5e-07 1.29047e-22 0)
(-2.5e-07 3.7306e-23 0)
(-2.5e-07 2.40901e-23 0)
(-2.5e-07 -1.69618e-24 0)
(-2.5e-07 -1.29727e-24 0)
(-2.5e-07 2.47179e-23 0)
(-2.5e-07 1.42495e-23 0)
(-2.5e-07 9.2784e-25 0)
(-2.5e-07 -7.47283e-24 0)
(-2.5e-07 -1.39765e-23 0)
(-2.5e-07 -2.14462e-23 0)
(-2.5e-07 -8.12939e-24 0)
(-2.5e-07 9.31623e-24 0)
(-2.5e-07 6.2424e-24 0)
(-2.5e-07 -2.53411e-24 0)
(-2.5e-07 -1.498e-23 0)
(-2.5e-07 -2.57842e-20 0)
(-2.5e-07 5.73315e-21 0)
(-2.5e-07 -1.29509e-21 0)
(-2.5e-07 2.84882e-22 0)
(-2.5e-07 -7.19497e-23 0)
(-2.5e-07 1.49217e-23 0)
(-2.5e-07 1.05616e-23 0)
(-2.5e-07 2.21147e-23 0)
(-2.5e-07 1.41461e-23 0)
(-2.5e-07 6.44392e-24 0)
(-2.5e-07 -9.97088e-24 0)
(-2.5e-07 -5.45268e-23 0)
(-2.5e-07 -6.15013e-23 0)
(-2.5e-07 -5.31616e-24 0)
(-2.5e-07 2.31348e-23 0)
(-2.5e-07 -9.83938e-24 0)
(-2.5e-07 -1.67108e-23 0)
(-2.5e-07 -8.68106e-24 0)
(-2.5e-07 7.70841e-24 0)
(-2.5e-07 7.09816e-25 0)
(-2.5e-07 2.45684e-20 0)
(-2.5e-07 -5.30345e-21 0)
(-2.5e-07 1.23112e-21 0)
(-2.5e-07 -3.10388e-22 0)
(-2.5e-07 9.85985e-24 0)
(-2.5e-07 -2.99288e-23 0)
(-2.5e-07 3.07364e-23 0)
(-2.5e-07 2.89783e-23 0)
(-2.5e-07 1.04957e-23 0)
(-2.5e-07 -1.28234e-23 0)
(-2.5e-07 6.38189e-24 0)
(-2.5e-07 4.83924e-24 0)
(-2.5e-07 -1.79447e-24 0)
(-2.5e-07 1.26202e-23 0)
(-2.5e-07 3.39661e-23 0)
(-2.5e-07 2.26165e-23 0)
(-2.5e-07 6.71929e-24 0)
(-2.5e-07 -4.65418e-24 0)
(-2.5e-07 3.72899e-24 0)
(-2.5e-07 3.09355e-24 0)
(-2.5e-07 -1.08073e-20 0)
(-2.5e-07 2.34504e-21 0)
(-2.5e-07 -5.18716e-22 0)
(-2.5e-07 1.29873e-22 0)
(-2.5e-07 -2.35077e-23 0)
(-2.5e-07 1.06948e-23 0)
(-2.5e-07 -3.1157e-24 0)
(-2.5e-07 3.42545e-24 0)
(-2.5e-07 1.45726e-23 0)
(-2.5e-07 1.87555e-24 0)
(-2.5e-07 1.81568e-23 0)
(-2.5e-07 6.16332e-23 0)
(-2.5e-07 6.18392e-23 0)
(-2.5e-07 6.42975e-24 0)
(-2.5e-07 -2.01211e-23 0)
(-2.5e-07 -2.05444e-23 0)
(-2.5e-07 -3.26171e-23 0)
(-2.5e-07 -1.48704e-23 0)
(-2.5e-07 -6.42095e-24 0)
(-2.5e-07 -1.08317e-23 0)
(-2.5e-07 -1.87015e-20 0)
(-2.5e-07 4.2061e-21 0)
(-2.5e-07 -9.61183e-22 0)
(-2.5e-07 2.45176e-22 0)
(-2.5e-07 -3.49902e-23 0)
(-2.5e-07 1.66099e-23 0)
(-2.5e-07 -5.18635e-23 0)
(-2.5e-07 -4.26381e-23 0)
(-2.5e-07 1.55056e-23 0)
(-2.5e-07 3.75061e-23 0)
(-2.5e-07 3.91012e-23 0)
(-2.5e-07 1.72914e-23 0)
(-2.5e-07 1.8166e-24 0)
(-2.5e-07 -1.18419e-23 0)
(-2.5e-07 -1.68544e-23 0)
(-2.5e-07 -1.60054e-24 0)
(-2.5e-07 3.26354e-24 0)
(-2.5e-07 -3.53452e-24 0)
(-2.5e-07 -1.80858e-23 0)
(-2.5e-07 -2.82695e-23 0)
(-2.5e-07 4.06859e-20 0)
(-2.5e-07 -8.84053e-21 0)
(-2.5e-07 2.0593e-21 0)
(-2.5e-07 -4.81933e-22 0)
(-2.5e-07 7.71376e-23 0)
(-2.5e-07 -3.80978e-23 0)
(-2.5e-07 -3.12663e-24 0)
(-2.5e-07 1.33144e-23 0)
(-2.5e-07 3.6443e-23 0)
(-2.5e-07 4.62166e-23 0)
(-2.5e-07 5.06744e-24 0)
(-2.5e-07 -4.16455e-23 0)
(-2.5e-07 -3.19603e-23 0)
(-2.5e-07 -9.47048e-24 0)
(-2.5e-07 -3.04157e-24 0)
(-2.5e-07 1.53593e-23 0)
(-2.5e-07 2.75989e-23 0)
(-2.5e-07 1.38776e-23 0)
(-2.5e-07 -3.18811e-24 0)
(-2.5e-07 -1.13294e-23 0)
(-2.5e-07 -2.88273e-20 0)
(-2.5e-07 6.17952e-21 0)
(-2.5e-07 -1.43435e-21 0)
(-2.5e-07 3.49957e-22 0)
(-2.5e-07 -4.93425e-23 0)
(-2.5e-07 7.37926e-24 0)
(-2.5e-07 -2.26832e-23 0)
(-2.5e-07 -5.4692e-23 0)
(-2.5e-07 -6.69897e-23 0)
(-2.5e-07 -1.58075e-23 0)
(-2.5e-07 -1.94075e-24 0)
(-2.5e-07 3.1894e-23 0)
(-2.5e-07 2.12113e-23 0)
(-2.5e-07 1.02429e-24 0)
(-2.5e-07 -6.66761e-24 0)
(-2.5e-07 3.22051e-24 0)
(-2.5e-07 -2.42471e-23 0)
(-2.5e-07 -3.65442e-23 0)
(-2.5e-07 -1.72641e-23 0)
(-2.5e-07 -2.39202e-24 0)
(-2.5e-07 -4.83936e-21 0)
(-2.5e-07 1.10117e-21 0)
(-2.5e-07 -2.32147e-22 0)
(-2.5e-07 9.48288e-23 0)
(-2.5e-07 1.20397e-23 0)
(-2.5e-07 1.3859e-23 0)
(-2.5e-07 3.23015e-24 0)
(-2.5e-07 -4.61988e-23 0)
(-2.5e-07 -7.81876e-23 0)
(-2.5e-07 -5.8964e-23 0)
(-2.5e-07 -2.45649e-23 0)
(-2.5e-07 -9.54904e-24 0)
(-2.5e-07 1.92293e-24 0)
(-2.5e-07 1.16324e-23 0)
(-2.5e-07 2.33092e-23 0)
(-2.5e-07 1.47752e-23 0)
(-2.5e-07 -8.82943e-24 0)
(-2.5e-07 -5.26502e-23 0)
(-2.5e-07 -3.58317e-23 0)
(-2.5e-07 -7.51963e-24 0)
(-2.5e-07 3.15661e-20 0)
(-2.5e-07 -6.82467e-21 0)
(-2.5e-07 1.58966e-21 0)
(-2.5e-07 -3.8774e-22 0)
(-2.5e-07 4.90453e-23 0)
(-2.5e-07 -3.39678e-23 0)
(-2.5e-07 1.29248e-23 0)
(-2.5e-07 2.46367e-23 0)
(-2.5e-07 1.0111e-23 0)
(-2.5e-07 -2.49403e-23 0)
(-2.5e-07 -3.97521e-23 0)
(-2.5e-07 -3.21625e-23 0)
(-2.5e-07 9.72196e-24 0)
(-2.5e-07 4.40259e-23 0)
(-2.5e-07 2.79528e-23 0)
(-2.5e-07 -1.98194e-23 0)
(-2.5e-07 -2.3261e-23 0)
(-2.5e-07 -1.33573e-23 0)
(-2.5e-07 -1.256e-23 0)
(-2.5e-07 -3.61847e-24 0)
(-2.5e-07 -1.39312e-20 0)
(-2.5e-07 2.92404e-21 0)
(-2.5e-07 -6.92856e-22 0)
(-2.5e-07 1.22789e-22 0)
(-2.5e-07 -5.07787e-23 0)
(-2.5e-07 -1.73484e-24 0)
(-2.5e-07 -4.53905e-24 0)
(-2.5e-07 -1.44878e-23 0)
(-2.5e-07 -1.29427e-23 0)
(-2.5e-07 -6.59961e-24 0)
(-2.5e-07 5.4695e-24 0)
(-2.5e-07 -8.43744e-25 0)
(-2.5e-07 -1.78664e-23 0)
(-2.5e-07 -3.0713e-24 0)
(-2.5e-07 -3.65996e-24 0)
(-2.5e-07 -2.77586e-23 0)
(-2.5e-07 -4.1946e-23 0)
(-2.5e-07 -4.27888e-24 0)
(-2.5e-07 -1.28171e-23 0)
(-2.5e-07 -1.27297e-23 0)
(-2.5e-07 -2.08763e-20 0)
(-2.5e-07 4.51159e-21 0)
(-2.5e-07 -1.07208e-21 0)
(-2.5e-07 2.1254e-22 0)
(-2.5e-07 -6.76389e-23 0)
(-2.5e-07 3.01199e-24 0)
(-2.5e-07 -7.33255e-24 0)
(-2.5e-07 -2.02563e-23 0)
(-2.5e-07 -2.38054e-23 0)
(-2.5e-07 -2.3905e-23 0)
(-2.5e-07 -2.26862e-23 0)
(-2.5e-07 -4.60271e-23 0)
(-2.5e-07 -4.35412e-23 0)
(-2.5e-07 -2.38333e-23 0)
(-2.5e-07 3.88296e-24 0)
(-2.5e-07 5.65918e-24 0)
(-2.5e-07 -1.26694e-23 0)
(-2.5e-07 -8.44947e-24 0)
(-2.5e-07 -1.38716e-23 0)
(-2.5e-07 -9.41063e-24 0)
)
;

boundaryField
{
    movingWall
    {
        type            calculated;
        value           uniform (0 0 0);
    }
    fixedWalls
    {
        type            calculated;
        value           uniform (0 0 0);
    }
    frontAndBack
    {
        type            empty;
    }
}


// ************************************************************************* //
