/*--------------------------------*- C++ -*----------------------------------*\
| =========                 |                                                 |
| \\      /  F ield         | OpenFOAM: The Open Source CFD Toolbox           |
|  \\    /   O peration     | Version:  2312                                  |
|   \\  /    A nd           | Website:  www.openfoam.com                      |
|    \\/     M anipulation  |                                                 |
\*---------------------------------------------------------------------------*/
FoamFile
{
    version     2.0;
    format      ascii;
    arch        "LSB;label=32;scalar=64";
    class       volVectorField;
    location    "7";
    object      norm_U_composite;
}
// * * * * * * * * * * * * * * * * * * * * * * * * * * * * * * * * * * * * * //

dimensions      [0 0 0 0 0 0 0];

internalField   nonuniform List<vector> 
400
(
(-0.5 8.87694e-14 0)
(-0.5 -1.90677e-14 0)
(-0.5 4.5255e-15 0)
(-0.5 -9.59964e-16 0)
(-0.5 2.38732e-16 0)
(-0.5 -2.25567e-17 0)
(-0.5 5.59338e-17 0)
(-0.5 4.81572e-17 0)
(-0.5 5.18247e-17 0)
(-0.5 2.58363e-17 0)
(-0.5 2.99393e-17 0)
(-0.5 3.6754e-17 0)
(-0.5 6.67815e-17 0)
(-0.5 9.8757e-17 0)
(-0.5 5.92892e-17 0)
(-0.5 -2.94254e-17 0)
(-0.5 -2.07479e-17 0)
(-0.5 -2.1327e-17 0)
(-0.5 -3.15836e-18 0)
(-0.5 2.27325e-17 0)
(-0.5 -2.00221e-15 0)
(-0.5 6.60008e-16 0)
(-0.5 -3.31387e-17 0)
(-0.5 1.02262e-16 0)
(-0.5 4.47623e-17 0)
(-0.5 5.34967e-17 0)
(-0.5 6.96082e-17 0)
(-0.5 2.37832e-17 0)
(-0.5 -2.43393e-17 0)
(-0.5 -2.94828e-17 0)
(-0.5 -9.20978e-18 0)
(-0.5 -2.65504e-17 0)
(-0.5 3.99275e-18 0)
(-0.5 8.26986e-17 0)
(-0.5 8.99232e-17 0)
(-0.5 6.44813e-18 0)
(-0.5 -4.03809e-18 0)
(-0.5 -1.67681e-17 0)
(-0.5 -1.97048e-17 0)
(-0.5 1.04789e-17 0)
(-0.5 -7.20493e-14 0)
(-0.5 1.59111e-14 0)
(-0.5 -3.59478e-15 0)
(-0.5 8.84626e-16 0)
(-0.5 -1.68601e-16 0)
(-0.5 2.02676e-17 0)
(-0.5 -5.5118e-17 0)
(-0.5 -5.66699e-17 0)
(-0.5 -4.88652e-18 0)
(-0.5 8.89046e-17 0)
(-0.5 9.1327e-17 0)
(-0.5 -4.36828e-17 0)
(-0.5 -8.79266e-17 0)
(-0.5 -5.81058e-17 0)
(-0.5 -5.72981e-17 0)
(-0.5 -7.12828e-17 0)
(-0.5 -1.40519e-17 0)
(-0.5 4.45936e-17 0)
(-0.5 1.71293e-17 0)
(-0.5 6.10544e-18 0)
(-0.5 6.92869e-14 0)
(-0.5 -1.48538e-14 0)
(-0.5 3.56846e-15 0)
(-0.5 -7.83766e-16 0)
(-0.5 1.47825e-16 0)
(-0.5 -3.66985e-17 0)
(-0.5 -4.58572e-18 0)
(-0.5 1.06727e-17 0)
(-0.5 4.62261e-17 0)
(-0.5 8.28914e-17 0)
(-0.5 8.02962e-17 0)
(-0.5 3.56214e-17 0)
(-0.5 1.67268e-17 0)
(-0.5 -6.66876e-18 0)
(-0.5 -6.07282e-17 0)
(-0.5 -7.72406e-17 0)
(-0.5 -6.86332e-17 0)
(-0.5 -3.04588e-17 0)
(-0.5 3.30113e-17 0)
(-0.5 3.57834e-17 0)
(-0.5 -1.96941e-14 0)
(-0.5 4.21326e-15 0)
(-0.5 -9.70211e-16 0)
(-0.5 1.97088e-16 0)
(-0.5 -3.61362e-17 0)
(-0.5 4.52729e-17 0)
(-0.5 9.81469e-17 0)
(-0.5 1.29742e-16 0)
(-0.5 5.02057e-17 0)
(-0.5 -3.05198e-17 0)
(-0.5 -4.0848e-17 0)
(-0.5 2.10741e-17 0)
(-0.5 7.82212e-17 0)
(-0.5 6.35526e-17 0)
(-0.5 2.30954e-17 0)
(-0.5 4.37026e-17 0)
(-0.5 -2.72827e-17 0)
(-0.5 -6.46729e-17 0)
(-0.5 -1.07421e-17 0)
(-0.5 3.30153e-17 0)
(-0.5 -4.48974e-14 0)
(-0.5 9.76136e-15 0)
(-0.5 -2.26818e-15 0)
(-0.5 5.58278e-16 0)
(-0.5 -8.40097e-17 0)
(-0.5 3.67823e-17 0)
(-0.5 2.42264e-17 0)
(-0.5 6.89577e-17 0)
(-0.5 5.96624e-17 0)
(-0.5 3.88867e-17 0)
(-0.5 7.47262e-18 0)
(-0.5 -2.17882e-17 0)
(-0.5 -2.01612e-17 0)
(-0.5 -9.30589e-18 0)
(-0.5 1.4745e-17 0)
(-0.5 2.38754e-17 0)
(-0.5 2.84642e-17 0)
(-0.5 3.72475e-17 0)
(-0.5 3.1206e-20 0)
(-0.5 2.99708e-17 0)
(-0.5 7.58918e-14 0)
(-0.5 -1.64861e-14 0)
(-0.5 3.88825e-15 0)
(-0.5 -8.10839e-16 0)
(-0.5 2.353e-16 0)
(-0.5 3.39285e-17 0)
(-0.5 8.78466e-17 0)
(-0.5 3.90452e-17 0)
(-0.5 2.78063e-17 0)
(-0.5 8.26039e-17 0)
(-0.5 6.10995e-17 0)
(-0.5 3.41685e-17 0)
(-0.5 1.78723e-17 0)
(-0.5 2.04417e-17 0)
(-0.5 4.57211e-17 0)
(-0.5 1.72026e-17 0)
(-0.5 1.70289e-17 0)
(-0.5 4.7979e-17 0)
(-0.5 3.35733e-17 0)
(-0.5 1.28478e-17 0)
(-0.5 -3.37166e-14 0)
(-0.5 7.27684e-15 0)
(-0.5 -1.56918e-15 0)
(-0.5 4.52533e-16 0)
(-0.5 -2.51412e-17 0)
(-0.5 4.21835e-17 0)
(-0.5 3.6561e-17 0)
(-0.5 3.26925e-17 0)
(-0.5 1.98546e-17 0)
(-0.5 -1.14236e-17 0)
(-0.5 -5.35067e-18 0)
(-0.5 4.04784e-17 0)
(-0.5 4.11711e-17 0)
(-0.5 -4.60767e-18 0)
(-0.5 -4.59632e-17 0)
(-0.5 -4.53483e-17 0)
(-0.5 -5.99011e-18 0)
(-0.5 2.0959e-17 0)
(-0.5 3.98233e-17 0)
(-0.5 -1.96662e-18 0)
(-0.5 -2.73941e-14 0)
(-0.5 6.10391e-15 0)
(-0.5 -1.35464e-15 0)
(-0.5 4.13489e-16 0)
(-0.5 -1.6347e-18 0)
(-0.5 1.85668e-17 0)
(-0.5 -9.64861e-17 0)
(-0.5 -1.12957e-16 0)
(-0.5 -8.51307e-17 0)
(-0.5 -9.6054e-17 0)
(-0.5 -6.78405e-17 0)
(-0.5 2.12375e-17 0)
(-0.5 2.04487e-17 0)
(-0.5 -4.82384e-17 0)
(-0.5 -7.08369e-17 0)
(-0.5 8.10761e-18 0)
(-0.5 5.87983e-17 0)
(-0.5 1.72247e-17 0)
(-0.5 -3.3348e-18 0)
(-0.5 -2.79508e-17 0)
(-0.5 5.19868e-14 0)
(-0.5 -1.11816e-14 0)
(-0.5 2.73622e-15 0)
(-0.5 -5.24661e-16 0)
(-0.5 2.58095e-16 0)
(-0.5 7.46121e-17 0)
(-0.5 4.81802e-17 0)
(-0.5 -3.39236e-18 0)
(-0.5 -2.59453e-18 0)
(-0.5 4.94359e-17 0)
(-0.5 2.84989e-17 0)
(-0.5 1.85568e-18 0)
(-0.5 -1.49457e-17 0)
(-0.5 -2.79531e-17 0)
(-0.5 -4.28925e-17 0)
(-0.5 -1.62588e-17 0)
(-0.5 1.86325e-17 0)
(-0.5 1.24848e-17 0)
(-0.5 -5.06822e-18 0)
(-0.5 -2.99599e-17 0)
(-0.5 -5.15683e-14 0)
(-0.5 1.14663e-14 0)
(-0.5 -2.59017e-15 0)
(-0.5 5.69764e-16 0)
(-0.5 -1.43899e-16 0)
(-0.5 2.98433e-17 0)
(-0.5 2.11233e-17 0)
(-0.5 4.42294e-17 0)
(-0.5 2.82923e-17 0)
(-0.5 1.28878e-17 0)
(-0.5 -1.99418e-17 0)
(-0.5 -1.09054e-16 0)
(-0.5 -1.23003e-16 0)
(-0.5 -1.06323e-17 0)
(-0.5 4.62695e-17 0)
(-0.5 -1.96788e-17 0)
(-0.5 -3.34216e-17 0)
(-0.5 -1.73621e-17 0)
(-0.5 1.54168e-17 0)
(-0.5 1.41963e-18 0)
(-0.5 4.91368e-14 0)
(-0.5 -1.06069e-14 0)
(-0.5 2.46225e-15 0)
(-0.5 -6.20776e-16 0)
(-0.5 1.97197e-17 0)
(-0.5 -5.98576e-17 0)
(-0.5 6.14729e-17 0)
(-0.5 5.79566e-17 0)
(-0.5 2.09914e-17 0)
(-0.5 -2.56468e-17 0)
(-0.5 1.27638e-17 0)
(-0.5 9.67849e-18 0)
(-0.5 -3.58894e-18 0)
(-0.5 2.52404e-17 0)
(-0.5 6.79322e-17 0)
(-0.5 4.52329e-17 0)
(-0.5 1.34386e-17 0)
(-0.5 -9.30836e-18 0)
(-0.5 7.45799e-18 0)
(-0.5 6.1871e-18 0)
(-0.5 -2.16146e-14 0)
(-0.5 4.69008e-15 0)
(-0.5 -1.03743e-15 0)
(-0.5 2.59746e-16 0)
(-0.5 -4.70154e-17 0)
(-0.5 2.13897e-17 0)
(-0.5 -6.2314e-18 0)
(-0.5 6.85091e-18 0)
(-0.5 2.91451e-17 0)
(-0.5 3.75109e-18 0)
(-0.5 3.63137e-17 0)
(-0.5 1.23266e-16 0)
(-0.5 1.23678e-16 0)
(-0.5 1.28595e-17 0)
(-0.5 -4.02421e-17 0)
(-0.5 -4.10888e-17 0)
(-0.5 -6.52341e-17 0)
(-0.5 -2.97407e-17 0)
(-0.5 -1.28419e-17 0)
(-0.5 -2.16634e-17 0)
(-0.5 -3.7403e-14 0)
(-0.5 8.41219e-15 0)
(-0.5 -1.92237e-15 0)
(-0.5 4.90353e-16 0)
(-0.5 -6.99804e-17 0)
(-0.5 3.32199e-17 0)
(-0.5 -1.03727e-16 0)
(-0.5 -8.52763e-17 0)
(-0.5 3.10113e-17 0)
(-0.5 7.50121e-17 0)
(-0.5 7.82024e-17 0)
(-0.5 3.45828e-17 0)
(-0.5 3.63319e-18 0)
(-0.5 -2.36838e-17 0)
(-0.5 -3.37088e-17 0)
(-0.5 -3.20108e-18 0)
(-0.5 6.52707e-18 0)
(-0.5 -7.06904e-18 0)
(-0.5 -3.61717e-17 0)
(-0.5 -5.65389e-17 0)
(-0.5 8.13717e-14 0)
(-0.5 -1.76811e-14 0)
(-0.5 4.1186e-15 0)
(-0.5 -9.63865e-16 0)
(-0.5 1.54275e-16 0)
(-0.5 -7.61956e-17 0)
(-0.5 -6.25327e-18 0)
(-0.5 2.66287e-17 0)
(-0.5 7.2886e-17 0)
(-0.5 9.24331e-17 0)
(-0.5 1.01349e-17 0)
(-0.5 -8.32909e-17 0)
(-0.5 -6.39205e-17 0)
(-0.5 -1.8941e-17 0)
(-0.5 -6.08314e-18 0)
(-0.5 3.07186e-17 0)
(-0.5 5.51978e-17 0)
(-0.5 2.77552e-17 0)
(-0.5 -6.37622e-18 0)
(-0.5 -2.26589e-17 0)
(-0.5 -5.76546e-14 0)
(-0.5 1.2359e-14 0)
(-0.5 -2.8687e-15 0)
(-0.5 6.99915e-16 0)
(-0.5 -9.86851e-17 0)
(-0.5 1.47585e-17 0)
(-0.5 -4.53664e-17 0)
(-0.5 -1.09384e-16 0)
(-0.5 -1.33979e-16 0)
(-0.5 -3.1615e-17 0)
(-0.5 -3.88149e-18 0)
(-0.5 6.37879e-17 0)
(-0.5 4.24226e-17 0)
(-0.5 2.04857e-18 0)
(-0.5 -1.33352e-17 0)
(-0.5 6.44103e-18 0)
(-0.5 -4.84941e-17 0)
(-0.5 -7.30883e-17 0)
(-0.5 -3.45281e-17 0)
(-0.5 -4.78404e-18 0)
(-0.5 -9.67872e-15 0)
(-0.5 2.20235e-15 0)
(-0.5 -4.64293e-16 0)
(-0.5 1.89658e-16 0)
(-0.5 2.40794e-17 0)
(-0.5 2.77181e-17 0)
(-0.5 6.4603e-18 0)
(-0.5 -9.23976e-17 0)
(-0.5 -1.56375e-16 0)
(-0.5 -1.17928e-16 0)
(-0.5 -4.91299e-17 0)
(-0.5 -1.90981e-17 0)
(-0.5 3.84587e-18 0)
(-0.5 2.32649e-17 0)
(-0.5 4.66185e-17 0)
(-0.5 2.95505e-17 0)
(-0.5 -1.76589e-17 0)
(-0.5 -1.053e-16 0)
(-0.5 -7.16635e-17 0)
(-0.5 -1.50393e-17 0)
(-0.5 6.31321e-14 0)
(-0.5 -1.36493e-14 0)
(-0.5 3.17931e-15 0)
(-0.5 -7.75479e-16 0)
(-0.5 9.80905e-17 0)
(-0.5 -6.79356e-17 0)
(-0.5 2.58496e-17 0)
(-0.5 4.92733e-17 0)
(-0.5 2.0222e-17 0)
(-0.5 -4.98806e-17 0)
(-0.5 -7.95041e-17 0)
(-0.5 -6.4325e-17 0)
(-0.5 1.94439e-17 0)
(-0.5 8.80517e-17 0)
(-0.5 5.59056e-17 0)
(-0.5 -3.96389e-17 0)
(-0.5 -4.65219e-17 0)
(-0.5 -2.67146e-17 0)
(-0.5 -2.512e-17 0)
(-0.5 -7.23694e-18 0)
(-0.5 -2.78624e-14 0)
(-0.5 5.84808e-15 0)
(-0.5 -1.38571e-15 0)
(-0.5 2.45577e-16 0)
(-0.5 -1.01557e-16 0)
(-0.5 -3.46969e-18 0)
(-0.5 -9.0781e-18 0)
(-0.5 -2.89755e-17 0)
(-0.5 -2.58853e-17 0)
(-0.5 -1.31992e-17 0)
(-0.5 1.0939e-17 0)
(-0.5 -1.68749e-18 0)
(-0.5 -3.57327e-17 0)
(-0.5 -6.1426e-18 0)
(-0.5 -7.31992e-18 0)
(-0.5 -5.55172e-17 0)
(-0.5 -8.3892e-17 0)
(-0.5 -8.55775e-18 0)
(-0.5 -2.56343e-17 0)
(-0.5 -2.54594e-17 0)
(-0.5 -4.17525e-14 0)
(-0.5 9.02319e-15 0)
(-0.5 -2.14417e-15 0)
(-0.5 4.2508e-16 0)
(-0.5 -1.35278e-16 0)
(-0.5 6.02397e-18 0)
(-0.5 -1.46651e-17 0)
(-0.5 -4.05125e-17 0)
(-0.5 -4.76107e-17 0)
(-0.5 -4.781e-17 0)
(-0.5 -4.53724e-17 0)
(-0.5 -9.20542e-17 0)
(-0.5 -8.70824e-17 0)
(-0.5 -4.76667e-17 0)
(-0.5 7.76593e-18 0)
(-0.5 1.13184e-17 0)
(-0.5 -2.53387e-17 0)
(-0.5 -1.68989e-17 0)
(-0.5 -2.77431e-17 0)
(-0.5 -1.88213e-17 0)
)
;

boundaryField
{
    movingWall
    {
        type            calculated;
        value           uniform (-0.5 -0 -0);
    }
    fixedWalls
    {
        type            calculated;
        value           uniform (-0.5 -0 -0);
    }
    frontAndBack
    {
        type            empty;
    }
}


// ************************************************************************* //
