/*--------------------------------*- C++ -*----------------------------------*\
| =========                 |                                                 |
| \\      /  F ield         | OpenFOAM: The Open Source CFD Toolbox           |
|  \\    /   O peration     | Version:  2312                                  |
|   \\  /    A nd           | Website:  www.openfoam.com                      |
|    \\/     M anipulation  |                                                 |
\*---------------------------------------------------------------------------*/
FoamFile
{
    version     2.0;
    format      ascii;
    arch        "LSB;label=32;scalar=64";
    class       volScalarField;
    location    "7";
    object      norm_k_field;
}
// * * * * * * * * * * * * * * * * * * * * * * * * * * * * * * * * * * * * * //

dimensions      [0 0 0 0 0 0 0];

internalField   nonuniform List<scalar> 
400
(
5.78461e+09
2.78433e+09
5.7846e+09
5.7846e+09
5.78459e+09
5.78459e+09
5.78459e+09
5.78459e+09
5.78458e+09
5.78459e+09
5.78458e+09
5.78459e+09
5.78458e+09
5.78458e+09
5.78458e+09
5.78458e+09
5.78458e+09
5.78458e+09
5.78458e+09
5.78458e+09
3.62193e+09
5.96661e+09
5.96635e+09
5.96624e+09
5.96606e+09
5.96596e+09
5.9658e+09
5.96572e+09
5.96558e+09
5.96551e+09
5.96541e+09
5.96534e+09
5.96527e+09
5.96521e+09
5.96516e+09
5.96513e+09
5.9651e+09
5.96508e+09
5.96507e+09
5.96506e+09
6.23882e+09
6.23882e+09
6.23853e+09
6.2384e+09
6.23821e+09
6.23811e+09
6.23791e+09
6.23784e+09
6.23767e+09
6.23761e+09
6.23748e+09
6.23742e+09
6.23732e+09
6.23728e+09
6.2372e+09
6.23718e+09
6.23713e+09
6.23712e+09
6.2371e+09
6.2371e+09
6.50435e+09
6.50435e+09
6.50403e+09
6.5039e+09
6.50368e+09
6.50357e+09
6.50336e+09
6.50328e+09
6.50309e+09
6.50304e+09
6.50288e+09
6.50284e+09
6.50271e+09
6.50268e+09
6.50259e+09
6.50257e+09
6.50251e+09
6.5025e+09
6.50249e+09
6.50248e+09
6.71096e+09
6.71095e+09
6.7106e+09
6.71047e+09
6.71023e+09
6.71011e+09
6.70989e+09
6.7098e+09
6.70961e+09
6.70953e+09
6.70939e+09
6.70932e+09
6.70921e+09
6.70916e+09
6.70908e+09
6.70904e+09
6.70899e+09
6.70898e+09
6.70896e+09
6.70895e+09
6.85111e+09
6.85111e+09
6.85076e+09
6.85061e+09
6.85037e+09
6.85025e+09
6.85e+09
6.84994e+09
6.84971e+09
6.84965e+09
6.84948e+09
6.84943e+09
6.84929e+09
6.84926e+09
6.84915e+09
6.84913e+09
6.84907e+09
6.84906e+09
6.84904e+09
6.84903e+09
6.93911e+09
6.93912e+09
6.93874e+09
6.9386e+09
6.93834e+09
6.93823e+09
6.93797e+09
6.9379e+09
6.93767e+09
6.93761e+09
6.93743e+09
6.93738e+09
6.93724e+09
6.9372e+09
6.9371e+09
6.93707e+09
6.93701e+09
6.937e+09
6.93698e+09
6.93697e+09
6.99313e+09
6.99312e+09
6.99274e+09
6.99258e+09
6.99234e+09
6.99218e+09
6.99199e+09
6.99184e+09
6.99169e+09
6.99156e+09
6.99144e+09
6.99134e+09
6.99123e+09
6.99116e+09
6.99109e+09
6.99104e+09
6.991e+09
6.99097e+09
6.99095e+09
6.99094e+09
7.02761e+09
7.0276e+09
7.02723e+09
7.02707e+09
7.02681e+09
7.02669e+09
7.02643e+09
7.02635e+09
7.02613e+09
7.02606e+09
7.02588e+09
7.02582e+09
7.02568e+09
7.02564e+09
7.02554e+09
7.02551e+09
7.02545e+09
7.02544e+09
7.02542e+09
7.02541e+09
7.05206e+09
7.05206e+09
7.05167e+09
7.05151e+09
7.05126e+09
7.05112e+09
7.05088e+09
7.05079e+09
7.05056e+09
7.0505e+09
7.05031e+09
7.05026e+09
7.05012e+09
7.05007e+09
7.04997e+09
7.04994e+09
7.04988e+09
7.04987e+09
7.04985e+09
7.04984e+09
7.07206e+09
7.07206e+09
7.07168e+09
7.07153e+09
7.07125e+09
7.07113e+09
7.07088e+09
7.07078e+09
7.07056e+09
7.07048e+09
7.07031e+09
7.07024e+09
7.07012e+09
7.07006e+09
7.06997e+09
7.06993e+09
7.06988e+09
7.06986e+09
7.06984e+09
7.06983e+09
7.09079e+09
7.09078e+09
7.0904e+09
7.09025e+09
7.08995e+09
7.08985e+09
7.08959e+09
7.0895e+09
7.08927e+09
7.0892e+09
7.08902e+09
7.08896e+09
7.08882e+09
7.08878e+09
7.08867e+09
7.08865e+09
7.08858e+09
7.08857e+09
7.08855e+09
7.08854e+09
7.11003e+09
7.11004e+09
7.10962e+09
7.10948e+09
7.10922e+09
7.10907e+09
7.10884e+09
7.10872e+09
7.10853e+09
7.10842e+09
7.10827e+09
7.10818e+09
7.10806e+09
7.10799e+09
7.10792e+09
7.10787e+09
7.10782e+09
7.1078e+09
7.10778e+09
7.10777e+09
7.13085e+09
7.13084e+09
7.13047e+09
7.13029e+09
7.13004e+09
7.1299e+09
7.12966e+09
7.12955e+09
7.12934e+09
7.12925e+09
7.12908e+09
7.129e+09
7.12888e+09
7.12882e+09
7.12873e+09
7.12869e+09
7.12863e+09
7.12861e+09
7.12859e+09
7.12859e+09
7.15384e+09
7.15385e+09
7.15344e+09
7.15329e+09
7.15301e+09
7.15287e+09
7.15265e+09
7.1525e+09
7.15233e+09
7.15221e+09
7.15206e+09
7.15196e+09
7.15185e+09
7.15178e+09
7.1517e+09
7.15166e+09
7.15161e+09
7.15158e+09
7.15156e+09
7.15156e+09
7.17896e+09
7.17896e+09
7.17856e+09
7.1784e+09
7.17813e+09
7.17798e+09
7.17775e+09
7.17762e+09
7.17743e+09
7.17733e+09
7.17716e+09
7.17708e+09
7.17695e+09
7.17689e+09
7.1768e+09
7.17676e+09
7.17671e+09
7.17669e+09
7.17667e+09
7.17666e+09
7.20522e+09
7.20522e+09
7.20482e+09
7.20466e+09
7.20437e+09
7.20424e+09
7.20399e+09
7.20388e+09
7.20366e+09
7.20358e+09
7.2034e+09
7.20333e+09
7.2032e+09
7.20314e+09
7.20305e+09
7.203e+09
7.20295e+09
7.20293e+09
7.20291e+09
7.2029e+09
7.23027e+09
7.23027e+09
7.22986e+09
7.2297e+09
7.22942e+09
7.22928e+09
7.22903e+09
7.22893e+09
7.2287e+09
7.22861e+09
7.22844e+09
7.22836e+09
7.22824e+09
7.22817e+09
7.22808e+09
7.22804e+09
7.22798e+09
7.22796e+09
7.22794e+09
7.22794e+09
7.25041e+09
7.25041e+09
7.25002e+09
7.24987e+09
7.24959e+09
7.24947e+09
7.24919e+09
7.24912e+09
7.24888e+09
7.24882e+09
7.24862e+09
7.24857e+09
7.24842e+09
7.24838e+09
7.24827e+09
7.24824e+09
7.24817e+09
7.24816e+09
7.24814e+09
7.24813e+09
7.25958e+09
7.25957e+09
7.25957e+09
7.25956e+09
7.25956e+09
7.25955e+09
7.25955e+09
7.25955e+09
7.25955e+09
7.25955e+09
7.25954e+09
7.25954e+09
7.25954e+09
7.25954e+09
7.25954e+09
7.25954e+09
7.25954e+09
7.25954e+09
7.25954e+09
7.25954e+09
)
;

boundaryField
{
    movingWall
    {
        type            calculated;
        value           nonuniform List<scalar> 
20
(
7.25958e+09
7.25957e+09
7.25957e+09
7.25956e+09
7.25956e+09
7.25955e+09
7.25955e+09
7.25955e+09
7.25955e+09
7.25955e+09
7.25954e+09
7.25954e+09
7.25954e+09
7.25954e+09
7.25954e+09
7.25954e+09
7.25954e+09
7.25954e+09
7.25954e+09
7.25954e+09
)
;
    }
    fixedWalls
    {
        type            calculated;
        value           nonuniform List<scalar> 
60
(
5.78461e+09
3.62193e+09
6.23882e+09
6.50435e+09
6.71096e+09
6.85111e+09
6.93911e+09
6.99313e+09
7.02761e+09
7.05206e+09
7.07206e+09
7.09079e+09
7.11003e+09
7.13085e+09
7.15384e+09
7.17896e+09
7.20522e+09
7.23027e+09
7.25041e+09
7.25958e+09
5.78458e+09
5.96506e+09
6.2371e+09
6.50248e+09
6.70895e+09
6.84903e+09
6.93697e+09
6.99094e+09
7.02541e+09
7.04984e+09
7.06983e+09
7.08854e+09
7.10777e+09
7.12859e+09
7.15156e+09
7.17666e+09
7.2029e+09
7.22794e+09
7.24813e+09
7.25954e+09
5.78461e+09
2.78433e+09
5.7846e+09
5.7846e+09
5.78459e+09
5.78459e+09
5.78459e+09
5.78459e+09
5.78458e+09
5.78459e+09
5.78458e+09
5.78459e+09
5.78458e+09
5.78458e+09
5.78458e+09
5.78458e+09
5.78458e+09
5.78458e+09
5.78458e+09
5.78458e+09
)
;
    }
    frontAndBack
    {
        type            empty;
    }
}


// ************************************************************************* //
