/*--------------------------------*- C++ -*----------------------------------*\
| =========                 |                                                 |
| \\      /  F ield         | OpenFOAM: The Open Source CFD Toolbox           |
|  \\    /   O peration     | Version:  2312                                  |
|   \\  /    A nd           | Website:  www.openfoam.com                      |
|    \\/     M anipulation  |                                                 |
\*---------------------------------------------------------------------------*/
FoamFile
{
    version     2.0;
    format      ascii;
    arch        "LSB;label=32;scalar=64";
    class       volVectorField;
    location    "7";
    object      norm_U_L1;
}
// * * * * * * * * * * * * * * * * * * * * * * * * * * * * * * * * * * * * * //

dimensions      [0 0 0 0 0 0 0];

internalField   nonuniform List<vector> 
400
(
(-0.0025 4.43847e-16 0)
(-0.0025 -9.53387e-17 0)
(-0.0025 2.26275e-17 0)
(-0.0025 -4.79982e-18 0)
(-0.0025 1.19366e-18 0)
(-0.0025 -1.12783e-19 0)
(-0.0025 2.79669e-19 0)
(-0.0025 2.40786e-19 0)
(-0.0025 2.59123e-19 0)
(-0.0025 1.29181e-19 0)
(-0.0025 1.49696e-19 0)
(-0.0025 1.8377e-19 0)
(-0.0025 3.33907e-19 0)
(-0.0025 4.93785e-19 0)
(-0.0025 2.96446e-19 0)
(-0.0025 -1.47127e-19 0)
(-0.0025 -1.0374e-19 0)
(-0.0025 -1.06635e-19 0)
(-0.0025 -1.57918e-20 0)
(-0.0025 1.13663e-19 0)
(-0.0025 -1.00111e-17 0)
(-0.0025 3.30004e-18 0)
(-0.0025 -1.65693e-19 0)
(-0.0025 5.11312e-19 0)
(-0.0025 2.23812e-19 0)
(-0.0025 2.67484e-19 0)
(-0.0025 3.48041e-19 0)
(-0.0025 1.18916e-19 0)
(-0.0025 -1.21696e-19 0)
(-0.0025 -1.47414e-19 0)
(-0.0025 -4.60489e-20 0)
(-0.0025 -1.32752e-19 0)
(-0.0025 1.99637e-20 0)
(-0.0025 4.13493e-19 0)
(-0.0025 4.49616e-19 0)
(-0.0025 3.22407e-20 0)
(-0.0025 -2.01904e-20 0)
(-0.0025 -8.38405e-20 0)
(-0.0025 -9.85238e-20 0)
(-0.0025 5.23943e-20 0)
(-0.0025 -3.60246e-16 0)
(-0.0025 7.95557e-17 0)
(-0.0025 -1.79739e-17 0)
(-0.0025 4.42313e-18 0)
(-0.0025 -8.43003e-19 0)
(-0.0025 1.01338e-19 0)
(-0.0025 -2.7559e-19 0)
(-0.0025 -2.8335e-19 0)
(-0.0025 -2.44326e-20 0)
(-0.0025 4.44523e-19 0)
(-0.0025 4.56635e-19 0)
(-0.0025 -2.18414e-19 0)
(-0.0025 -4.39633e-19 0)
(-0.0025 -2.90529e-19 0)
(-0.0025 -2.86491e-19 0)
(-0.0025 -3.56414e-19 0)
(-0.0025 -7.02593e-20 0)
(-0.0025 2.22968e-19 0)
(-0.0025 8.56465e-20 0)
(-0.0025 3.05272e-20 0)
(-0.0025 3.46434e-16 0)
(-0.0025 -7.42688e-17 0)
(-0.0025 1.78423e-17 0)
(-0.0025 -3.91883e-18 0)
(-0.0025 7.39124e-19 0)
(-0.0025 -1.83492e-19 0)
(-0.0025 -2.29286e-20 0)
(-0.0025 5.33636e-20 0)
(-0.0025 2.31131e-19 0)
(-0.0025 4.14457e-19 0)
(-0.0025 4.01481e-19 0)
(-0.0025 1.78107e-19 0)
(-0.0025 8.36341e-20 0)
(-0.0025 -3.33438e-20 0)
(-0.0025 -3.03641e-19 0)
(-0.0025 -3.86203e-19 0)
(-0.0025 -3.43166e-19 0)
(-0.0025 -1.52294e-19 0)
(-0.0025 1.65057e-19 0)
(-0.0025 1.78917e-19 0)
(-0.0025 -9.84704e-17 0)
(-0.0025 2.10663e-17 0)
(-0.0025 -4.85105e-18 0)
(-0.0025 9.85442e-19 0)
(-0.0025 -1.80681e-19 0)
(-0.0025 2.26365e-19 0)
(-0.0025 4.90735e-19 0)
(-0.0025 6.4871e-19 0)
(-0.0025 2.51028e-19 0)
(-0.0025 -1.52599e-19 0)
(-0.0025 -2.0424e-19 0)
(-0.0025 1.0537e-19 0)
(-0.0025 3.91106e-19 0)
(-0.0025 3.17763e-19 0)
(-0.0025 1.15477e-19 0)
(-0.0025 2.18513e-19 0)
(-0.0025 -1.36413e-19 0)
(-0.0025 -3.23365e-19 0)
(-0.0025 -5.37106e-20 0)
(-0.0025 1.65077e-19 0)
(-0.0025 -2.24487e-16 0)
(-0.0025 4.88068e-17 0)
(-0.0025 -1.13409e-17 0)
(-0.0025 2.79139e-18 0)
(-0.0025 -4.20048e-19 0)
(-0.0025 1.83912e-19 0)
(-0.0025 1.21132e-19 0)
(-0.0025 3.44788e-19 0)
(-0.0025 2.98312e-19 0)
(-0.0025 1.94433e-19 0)
(-0.0025 3.73631e-20 0)
(-0.0025 -1.08941e-19 0)
(-0.0025 -1.00806e-19 0)
(-0.0025 -4.65294e-20 0)
(-0.0025 7.37248e-20 0)
(-0.0025 1.19377e-19 0)
(-0.0025 1.42321e-19 0)
(-0.0025 1.86238e-19 0)
(-0.0025 1.5603e-22 0)
(-0.0025 1.49854e-19 0)
(-0.0025 3.79459e-16 0)
(-0.0025 -8.24305e-17 0)
(-0.0025 1.94412e-17 0)
(-0.0025 -4.0542e-18 0)
(-0.0025 1.1765e-18 0)
(-0.0025 1.69642e-19 0)
(-0.0025 4.39233e-19 0)
(-0.0025 1.95226e-19 0)
(-0.0025 1.39032e-19 0)
(-0.0025 4.13019e-19 0)
(-0.0025 3.05497e-19 0)
(-0.0025 1.70843e-19 0)
(-0.0025 8.93614e-20 0)
(-0.0025 1.02209e-19 0)
(-0.0025 2.28606e-19 0)
(-0.0025 8.60129e-20 0)
(-0.0025 8.51445e-20 0)
(-0.0025 2.39895e-19 0)
(-0.0025 1.67867e-19 0)
(-0.0025 6.4239e-20 0)
(-0.0025 -1.68583e-16 0)
(-0.0025 3.63842e-17 0)
(-0.0025 -7.84589e-18 0)
(-0.0025 2.26267e-18 0)
(-0.0025 -1.25706e-19 0)
(-0.0025 2.10918e-19 0)
(-0.0025 1.82805e-19 0)
(-0.0025 1.63462e-19 0)
(-0.0025 9.92728e-20 0)
(-0.0025 -5.71181e-20 0)
(-0.0025 -2.67534e-20 0)
(-0.0025 2.02392e-19 0)
(-0.0025 2.05856e-19 0)
(-0.0025 -2.30383e-20 0)
(-0.0025 -2.29816e-19 0)
(-0.0025 -2.26742e-19 0)
(-0.0025 -2.99506e-20 0)
(-0.0025 1.04795e-19 0)
(-0.0025 1.99117e-19 0)
(-0.0025 -9.83311e-21 0)
(-0.0025 -1.36971e-16 0)
(-0.0025 3.05195e-17 0)
(-0.0025 -6.77322e-18 0)
(-0.0025 2.06744e-18 0)
(-0.0025 -8.17349e-21 0)
(-0.0025 9.28341e-20 0)
(-0.0025 -4.8243e-19 0)
(-0.0025 -5.64784e-19 0)
(-0.0025 -4.25653e-19 0)
(-0.0025 -4.8027e-19 0)
(-0.0025 -3.39202e-19 0)
(-0.0025 1.06188e-19 0)
(-0.0025 1.02244e-19 0)
(-0.0025 -2.41192e-19 0)
(-0.0025 -3.54185e-19 0)
(-0.0025 4.0538e-20 0)
(-0.0025 2.93991e-19 0)
(-0.0025 8.61236e-20 0)
(-0.0025 -1.6674e-20 0)
(-0.0025 -1.39754e-19 0)
(-0.0025 2.59934e-16 0)
(-0.0025 -5.59082e-17 0)
(-0.0025 1.36811e-17 0)
(-0.0025 -2.6233e-18 0)
(-0.0025 1.29047e-18 0)
(-0.0025 3.7306e-19 0)
(-0.0025 2.40901e-19 0)
(-0.0025 -1.69618e-20 0)
(-0.0025 -1.29727e-20 0)
(-0.0025 2.47179e-19 0)
(-0.0025 1.42495e-19 0)
(-0.0025 9.2784e-21 0)
(-0.0025 -7.47283e-20 0)
(-0.0025 -1.39765e-19 0)
(-0.0025 -2.14462e-19 0)
(-0.0025 -8.12939e-20 0)
(-0.0025 9.31623e-20 0)
(-0.0025 6.2424e-20 0)
(-0.0025 -2.53411e-20 0)
(-0.0025 -1.498e-19 0)
(-0.0025 -2.57842e-16 0)
(-0.0025 5.73315e-17 0)
(-0.0025 -1.29509e-17 0)
(-0.0025 2.84882e-18 0)
(-0.0025 -7.19497e-19 0)
(-0.0025 1.49217e-19 0)
(-0.0025 1.05616e-19 0)
(-0.0025 2.21147e-19 0)
(-0.0025 1.41461e-19 0)
(-0.0025 6.44392e-20 0)
(-0.0025 -9.97088e-20 0)
(-0.0025 -5.45268e-19 0)
(-0.0025 -6.15013e-19 0)
(-0.0025 -5.31616e-20 0)
(-0.0025 2.31348e-19 0)
(-0.0025 -9.83938e-20 0)
(-0.0025 -1.67108e-19 0)
(-0.0025 -8.68106e-20 0)
(-0.0025 7.70841e-20 0)
(-0.0025 7.09816e-21 0)
(-0.0025 2.45684e-16 0)
(-0.0025 -5.30345e-17 0)
(-0.0025 1.23112e-17 0)
(-0.0025 -3.10388e-18 0)
(-0.0025 9.85985e-20 0)
(-0.0025 -2.99288e-19 0)
(-0.0025 3.07364e-19 0)
(-0.0025 2.89783e-19 0)
(-0.0025 1.04957e-19 0)
(-0.0025 -1.28234e-19 0)
(-0.0025 6.38189e-20 0)
(-0.0025 4.83924e-20 0)
(-0.0025 -1.79447e-20 0)
(-0.0025 1.26202e-19 0)
(-0.0025 3.39661e-19 0)
(-0.0025 2.26165e-19 0)
(-0.0025 6.71929e-20 0)
(-0.0025 -4.65418e-20 0)
(-0.0025 3.72899e-20 0)
(-0.0025 3.09355e-20 0)
(-0.0025 -1.08073e-16 0)
(-0.0025 2.34504e-17 0)
(-0.0025 -5.18716e-18 0)
(-0.0025 1.29873e-18 0)
(-0.0025 -2.35077e-19 0)
(-0.0025 1.06948e-19 0)
(-0.0025 -3.1157e-20 0)
(-0.0025 3.42545e-20 0)
(-0.0025 1.45726e-19 0)
(-0.0025 1.87555e-20 0)
(-0.0025 1.81568e-19 0)
(-0.0025 6.16332e-19 0)
(-0.0025 6.18392e-19 0)
(-0.0025 6.42975e-20 0)
(-0.0025 -2.01211e-19 0)
(-0.0025 -2.05444e-19 0)
(-0.0025 -3.26171e-19 0)
(-0.0025 -1.48704e-19 0)
(-0.0025 -6.42095e-20 0)
(-0.0025 -1.08317e-19 0)
(-0.0025 -1.87015e-16 0)
(-0.0025 4.2061e-17 0)
(-0.0025 -9.61183e-18 0)
(-0.0025 2.45176e-18 0)
(-0.0025 -3.49902e-19 0)
(-0.0025 1.66099e-19 0)
(-0.0025 -5.18635e-19 0)
(-0.0025 -4.26381e-19 0)
(-0.0025 1.55056e-19 0)
(-0.0025 3.75061e-19 0)
(-0.0025 3.91012e-19 0)
(-0.0025 1.72914e-19 0)
(-0.0025 1.8166e-20 0)
(-0.0025 -1.18419e-19 0)
(-0.0025 -1.68544e-19 0)
(-0.0025 -1.60054e-20 0)
(-0.0025 3.26354e-20 0)
(-0.0025 -3.53452e-20 0)
(-0.0025 -1.80858e-19 0)
(-0.0025 -2.82695e-19 0)
(-0.0025 4.06859e-16 0)
(-0.0025 -8.84053e-17 0)
(-0.0025 2.0593e-17 0)
(-0.0025 -4.81933e-18 0)
(-0.0025 7.71376e-19 0)
(-0.0025 -3.80978e-19 0)
(-0.0025 -3.12663e-20 0)
(-0.0025 1.33144e-19 0)
(-0.0025 3.6443e-19 0)
(-0.0025 4.62166e-19 0)
(-0.0025 5.06744e-20 0)
(-0.0025 -4.16455e-19 0)
(-0.0025 -3.19603e-19 0)
(-0.0025 -9.47048e-20 0)
(-0.0025 -3.04157e-20 0)
(-0.0025 1.53593e-19 0)
(-0.0025 2.75989e-19 0)
(-0.0025 1.38776e-19 0)
(-0.0025 -3.18811e-20 0)
(-0.0025 -1.13294e-19 0)
(-0.0025 -2.88273e-16 0)
(-0.0025 6.17952e-17 0)
(-0.0025 -1.43435e-17 0)
(-0.0025 3.49957e-18 0)
(-0.0025 -4.93425e-19 0)
(-0.0025 7.37926e-20 0)
(-0.0025 -2.26832e-19 0)
(-0.0025 -5.4692e-19 0)
(-0.0025 -6.69897e-19 0)
(-0.0025 -1.58075e-19 0)
(-0.0025 -1.94075e-20 0)
(-0.0025 3.1894e-19 0)
(-0.0025 2.12113e-19 0)
(-0.0025 1.02429e-20 0)
(-0.0025 -6.66761e-20 0)
(-0.0025 3.22051e-20 0)
(-0.0025 -2.42471e-19 0)
(-0.0025 -3.65442e-19 0)
(-0.0025 -1.72641e-19 0)
(-0.0025 -2.39202e-20 0)
(-0.0025 -4.83936e-17 0)
(-0.0025 1.10117e-17 0)
(-0.0025 -2.32147e-18 0)
(-0.0025 9.48288e-19 0)
(-0.0025 1.20397e-19 0)
(-0.0025 1.3859e-19 0)
(-0.0025 3.23015e-20 0)
(-0.0025 -4.61988e-19 0)
(-0.0025 -7.81876e-19 0)
(-0.0025 -5.8964e-19 0)
(-0.0025 -2.45649e-19 0)
(-0.0025 -9.54904e-20 0)
(-0.0025 1.92293e-20 0)
(-0.0025 1.16324e-19 0)
(-0.0025 2.33092e-19 0)
(-0.0025 1.47752e-19 0)
(-0.0025 -8.82943e-20 0)
(-0.0025 -5.26502e-19 0)
(-0.0025 -3.58317e-19 0)
(-0.0025 -7.51963e-20 0)
(-0.0025 3.15661e-16 0)
(-0.0025 -6.82467e-17 0)
(-0.0025 1.58966e-17 0)
(-0.0025 -3.8774e-18 0)
(-0.0025 4.90453e-19 0)
(-0.0025 -3.39678e-19 0)
(-0.0025 1.29248e-19 0)
(-0.0025 2.46367e-19 0)
(-0.0025 1.0111e-19 0)
(-0.0025 -2.49403e-19 0)
(-0.0025 -3.97521e-19 0)
(-0.0025 -3.21625e-19 0)
(-0.0025 9.72196e-20 0)
(-0.0025 4.40259e-19 0)
(-0.0025 2.79528e-19 0)
(-0.0025 -1.98194e-19 0)
(-0.0025 -2.3261e-19 0)
(-0.0025 -1.33573e-19 0)
(-0.0025 -1.256e-19 0)
(-0.0025 -3.61847e-20 0)
(-0.0025 -1.39312e-16 0)
(-0.0025 2.92404e-17 0)
(-0.0025 -6.92856e-18 0)
(-0.0025 1.22789e-18 0)
(-0.0025 -5.07787e-19 0)
(-0.0025 -1.73484e-20 0)
(-0.0025 -4.53905e-20 0)
(-0.0025 -1.44878e-19 0)
(-0.0025 -1.29427e-19 0)
(-0.0025 -6.59961e-20 0)
(-0.0025 5.4695e-20 0)
(-0.0025 -8.43744e-21 0)
(-0.0025 -1.78664e-19 0)
(-0.0025 -3.0713e-20 0)
(-0.0025 -3.65996e-20 0)
(-0.0025 -2.77586e-19 0)
(-0.0025 -4.1946e-19 0)
(-0.0025 -4.27888e-20 0)
(-0.0025 -1.28171e-19 0)
(-0.0025 -1.27297e-19 0)
(-0.0025 -2.08763e-16 0)
(-0.0025 4.51159e-17 0)
(-0.0025 -1.07208e-17 0)
(-0.0025 2.1254e-18 0)
(-0.0025 -6.76389e-19 0)
(-0.0025 3.01199e-20 0)
(-0.0025 -7.33255e-20 0)
(-0.0025 -2.02563e-19 0)
(-0.0025 -2.38054e-19 0)
(-0.0025 -2.3905e-19 0)
(-0.0025 -2.26862e-19 0)
(-0.0025 -4.60271e-19 0)
(-0.0025 -4.35412e-19 0)
(-0.0025 -2.38333e-19 0)
(-0.0025 3.88296e-20 0)
(-0.0025 5.65918e-20 0)
(-0.0025 -1.26694e-19 0)
(-0.0025 -8.44947e-20 0)
(-0.0025 -1.38716e-19 0)
(-0.0025 -9.41063e-20 0)
)
;

boundaryField
{
    movingWall
    {
        type            calculated;
        value           uniform (-0.0025 -0 -0);
    }
    fixedWalls
    {
        type            calculated;
        value           uniform (-0.0025 -0 -0);
    }
    frontAndBack
    {
        type            empty;
    }
}


// ************************************************************************* //
