/*--------------------------------*- C++ -*----------------------------------*\
| =========                 |                                                 |
| \\      /  F ield         | OpenFOAM: The Open Source CFD Toolbox           |
|  \\    /   O peration     | Version:  2312                                  |
|   \\  /    A nd           | Website:  www.openfoam.com                      |
|    \\/     M anipulation  |                                                 |
\*---------------------------------------------------------------------------*/
FoamFile
{
    version     2.0;
    format      ascii;
    arch        "LSB;label=32;scalar=64";
    class       volScalarField;
    location    "7";
    object      P_A;
}
// * * * * * * * * * * * * * * * * * * * * * * * * * * * * * * * * * * * * * //

dimensions      [1 -1 -3 0 0 0 0];

internalField   nonuniform List<scalar> 
400
(
2.24101e-32
2.241e-32
2.241e-32
2.241e-32
2.24098e-32
2.24099e-32
2.24097e-32
2.24099e-32
2.24097e-32
2.24098e-32
2.24097e-32
2.24098e-32
2.24096e-32
2.24097e-32
2.24097e-32
2.24097e-32
2.24097e-32
2.24097e-32
2.24097e-32
2.24097e-32
2.53689e-32
2.50005e-32
2.50286e-32
2.50402e-32
2.5064e-32
2.5076e-32
2.51002e-32
2.51126e-32
2.51372e-32
2.515e-32
2.5175e-32
2.51884e-32
2.52137e-32
2.52277e-32
2.52531e-32
2.52679e-32
2.52934e-32
2.53089e-32
2.53217e-32
2.53425e-32
3.03288e-32
2.98711e-32
2.99066e-32
2.99211e-32
2.99511e-32
2.99661e-32
2.99962e-32
3.00118e-32
3.00423e-32
3.00584e-32
3.00893e-32
3.01059e-32
3.01371e-32
3.01544e-32
3.01857e-32
3.02038e-32
3.02353e-32
3.0254e-32
3.02698e-32
3.02953e-32
3.58344e-32
3.52821e-32
3.53246e-32
3.53422e-32
3.53782e-32
3.53962e-32
3.54326e-32
3.54514e-32
3.54881e-32
3.55076e-32
3.55446e-32
3.55649e-32
3.56023e-32
3.56233e-32
3.56609e-32
3.56828e-32
3.57207e-32
3.57434e-32
3.57624e-32
3.57931e-32
4.0611e-32
3.99743e-32
4.00232e-32
4.00435e-32
4.00847e-32
4.01055e-32
4.01473e-32
4.01688e-32
4.02113e-32
4.02334e-32
4.02765e-32
4.02994e-32
4.03428e-32
4.03667e-32
4.04103e-32
4.04353e-32
4.04791e-32
4.05051e-32
4.05271e-32
4.05625e-32
4.41125e-32
4.34131e-32
4.34669e-32
4.3489e-32
4.35344e-32
4.35573e-32
4.36029e-32
4.36269e-32
4.3673e-32
4.36978e-32
4.37445e-32
4.37701e-32
4.38173e-32
4.3844e-32
4.38915e-32
4.39192e-32
4.39672e-32
4.39959e-32
4.40199e-32
4.40588e-32
4.64234e-32
4.56823e-32
4.5739e-32
4.57626e-32
4.58105e-32
4.58348e-32
4.58831e-32
4.59085e-32
4.59574e-32
4.59835e-32
4.60331e-32
4.60602e-32
4.61102e-32
4.61385e-32
4.61888e-32
4.62182e-32
4.6269e-32
4.62994e-32
4.63249e-32
4.63661e-32
4.78861e-32
4.71181e-32
4.71768e-32
4.72009e-32
4.7251e-32
4.72754e-32
4.73265e-32
4.73516e-32
4.74035e-32
4.74295e-32
4.74818e-32
4.75091e-32
4.75616e-32
4.75902e-32
4.76429e-32
4.76728e-32
4.77259e-32
4.77571e-32
4.77836e-32
4.78263e-32
4.88377e-32
4.80525e-32
4.81127e-32
4.81375e-32
4.81883e-32
4.82139e-32
4.82651e-32
4.82919e-32
4.83437e-32
4.83713e-32
4.84239e-32
4.84526e-32
4.85056e-32
4.85354e-32
4.85888e-32
4.86198e-32
4.86737e-32
4.87059e-32
4.87329e-32
4.87766e-32
4.9521e-32
4.87234e-32
4.87843e-32
4.88095e-32
4.88612e-32
4.88871e-32
4.89394e-32
4.89663e-32
4.9019e-32
4.90471e-32
4.91005e-32
4.91296e-32
4.91835e-32
4.92138e-32
4.9268e-32
4.92995e-32
4.93542e-32
4.93869e-32
4.94144e-32
4.94587e-32
5.00855e-32
4.92776e-32
4.93394e-32
4.9365e-32
4.94169e-32
4.94433e-32
4.94962e-32
4.95234e-32
4.9577e-32
4.96053e-32
4.96595e-32
4.96887e-32
4.97436e-32
4.9774e-32
4.98292e-32
4.98609e-32
4.99165e-32
4.99495e-32
4.99774e-32
5.00223e-32
5.06182e-32
4.98005e-32
4.98631e-32
4.98891e-32
4.99414e-32
4.99684e-32
5.00216e-32
5.00494e-32
5.01034e-32
5.01322e-32
5.01869e-32
5.02167e-32
5.02719e-32
5.0303e-32
5.03586e-32
5.03909e-32
5.04469e-32
5.04805e-32
5.05086e-32
5.05541e-32
5.117e-32
5.03425e-32
5.04053e-32
5.04317e-32
5.04853e-32
5.05119e-32
5.05666e-32
5.0594e-32
5.06493e-32
5.06778e-32
5.07337e-32
5.07634e-32
5.08197e-32
5.08506e-32
5.09074e-32
5.09397e-32
5.09968e-32
5.10305e-32
5.10591e-32
5.11051e-32
5.17723e-32
5.09336e-32
5.09979e-32
5.10242e-32
5.10787e-32
5.11057e-32
5.11608e-32
5.1189e-32
5.12446e-32
5.12738e-32
5.13302e-32
5.13604e-32
5.14174e-32
5.14489e-32
5.15062e-32
5.15391e-32
5.15968e-32
5.1631e-32
5.166e-32
5.17066e-32
5.24435e-32
5.15928e-32
5.16574e-32
5.16845e-32
5.17394e-32
5.17668e-32
5.18231e-32
5.1851e-32
5.19082e-32
5.19371e-32
5.19949e-32
5.20251e-32
5.20832e-32
5.2115e-32
5.21733e-32
5.22066e-32
5.22652e-32
5.22999e-32
5.23293e-32
5.23766e-32
5.31844e-32
5.23199e-32
5.23859e-32
5.24131e-32
5.2469e-32
5.24968e-32
5.25537e-32
5.25824e-32
5.26403e-32
5.267e-32
5.27282e-32
5.27594e-32
5.2818e-32
5.28505e-32
5.29096e-32
5.29435e-32
5.30029e-32
5.30383e-32
5.30681e-32
5.31161e-32
5.39671e-32
5.30884e-32
5.31555e-32
5.31833e-32
5.32398e-32
5.32684e-32
5.33259e-32
5.33554e-32
5.34137e-32
5.34444e-32
5.35032e-32
5.35351e-32
5.35947e-32
5.36277e-32
5.36877e-32
5.37222e-32
5.37826e-32
5.38185e-32
5.38489e-32
5.38977e-32
5.4722e-32
5.38297e-32
5.38976e-32
5.39258e-32
5.39833e-32
5.40123e-32
5.40706e-32
5.41007e-32
5.41598e-32
5.41908e-32
5.42509e-32
5.4283e-32
5.43436e-32
5.43771e-32
5.44381e-32
5.44731e-32
5.45344e-32
5.45709e-32
5.46017e-32
5.46513e-32
5.53345e-32
5.44488e-32
5.4515e-32
5.45426e-32
5.4599e-32
5.46276e-32
5.46846e-32
5.47148e-32
5.47726e-32
5.48041e-32
5.48628e-32
5.48957e-32
5.49552e-32
5.49897e-32
5.50497e-32
5.50858e-32
5.51466e-32
5.51843e-32
5.52149e-32
5.5265e-32
5.56151e-32
5.56149e-32
5.56148e-32
5.56147e-32
5.56145e-32
5.56144e-32
5.56144e-32
5.56143e-32
5.56142e-32
5.56142e-32
5.56141e-32
5.56141e-32
5.56141e-32
5.5614e-32
5.5614e-32
5.5614e-32
5.5614e-32
5.5614e-32
5.5614e-32
5.5614e-32
)
;

boundaryField
{
    movingWall
    {
        type            calculated;
        value           nonuniform List<scalar> 
20
(
5.56151e-32
5.56149e-32
5.56148e-32
5.56147e-32
5.56145e-32
5.56144e-32
5.56144e-32
5.56143e-32
5.56142e-32
5.56142e-32
5.56141e-32
5.56141e-32
5.56141e-32
5.5614e-32
5.5614e-32
5.5614e-32
5.5614e-32
5.5614e-32
5.5614e-32
5.5614e-32
)
;
    }
    fixedWalls
    {
        type            calculated;
        value           nonuniform List<scalar> 
60
(
2.24101e-32
2.53689e-32
3.03288e-32
3.58344e-32
4.0611e-32
4.41125e-32
4.64234e-32
4.78861e-32
4.88377e-32
4.9521e-32
5.00855e-32
5.06182e-32
5.117e-32
5.17723e-32
5.24435e-32
5.31844e-32
5.39671e-32
5.4722e-32
5.53345e-32
5.56151e-32
2.24097e-32
2.53425e-32
3.02953e-32
3.57931e-32
4.05625e-32
4.40588e-32
4.63661e-32
4.78263e-32
4.87766e-32
4.94587e-32
5.00223e-32
5.05541e-32
5.11051e-32
5.17066e-32
5.23766e-32
5.31161e-32
5.38977e-32
5.46513e-32
5.5265e-32
5.5614e-32
2.24101e-32
2.241e-32
2.241e-32
2.241e-32
2.24098e-32
2.24099e-32
2.24097e-32
2.24099e-32
2.24097e-32
2.24098e-32
2.24097e-32
2.24098e-32
2.24096e-32
2.24097e-32
2.24097e-32
2.24097e-32
2.24097e-32
2.24097e-32
2.24097e-32
2.24097e-32
)
;
    }
    frontAndBack
    {
        type            empty;
    }
}


// ************************************************************************* //
