/*--------------------------------*- C++ -*----------------------------------*\
| =========                 |                                                 |
| \\      /  F ield         | OpenFOAM: The Open Source CFD Toolbox           |
|  \\    /   O peration     | Version:  2312                                  |
|   \\  /    A nd           | Website:  www.openfoam.com                      |
|    \\/     M anipulation  |                                                 |
\*---------------------------------------------------------------------------*/
FoamFile
{
    version     2.0;
    format      ascii;
    arch        "LSB;label=32;scalar=64";
    class       surfaceScalarField;
    location    "7";
    object      PecletNoField;
}
// * * * * * * * * * * * * * * * * * * * * * * * * * * * * * * * * * * * * * //

dimensions      [0 0 0 0 0 0 0];

oriented        oriented;

internalField   nonuniform List<scalar> 
760
(
440.664
4.32543e-12
440.664
6.2721e-12
440.664
1.96444e-12
440.664
2.76412e-13
440.664
1.05807e-13
440.664
2.06531e-14
440.664
6.41167e-14
440.664
3.02636e-14
440.664
4.24139e-14
440.664
1.17603e-14
440.664
5.7905e-15
440.664
2.50834e-14
440.664
8.7025e-15
440.664
1.06342e-13
440.664
1.20157e-13
440.664
2.3904e-14
440.664
1.6805e-14
440.664
3.06733e-14
440.664
1.53026e-14
3.59962e-14
439.465
3.83164e-12
439.111
5.3579e-12
439.161
1.57659e-12
439.205
3.38547e-13
439.249
3.51267e-14
439.292
1.4153e-14
439.336
1.29635e-14
439.38
1.81395e-14
439.424
1.64421e-14
439.467
1.34784e-14
439.511
1.51042e-14
439.554
2.87722e-14
439.598
2.3815e-14
439.642
1.81014e-14
439.686
2.48667e-14
439.73
1.23619e-14
439.774
9.18727e-15
439.804
3.22507e-14
439.839
1.89786e-14
2.88285e-14
438.259
7.78985e-13
437.886
9.98848e-13
437.94
1.90398e-14
437.986
6.6389e-14
438.033
2.92503e-15
438.08
1.57351e-14
438.126
3.28781e-14
438.172
8.04778e-14
438.219
1.17378e-14
438.265
8.79886e-14
438.311
1.32674e-13
438.357
3.07483e-14
438.404
1.75148e-14
438.449
2.21051e-14
438.495
4.60776e-14
438.541
9.95165e-14
438.587
4.3509e-14
438.618
2.4578e-14
438.655
2.18527e-14
4.03386e-14
437.118
2.86292e-12
436.731
3.69344e-12
436.787
1.15633e-12
436.835
1.93382e-13
436.884
2.09604e-14
436.932
4.06231e-16
436.98
4.65002e-14
437.029
1.05938e-13
437.077
5.45688e-14
437.125
3.36162e-15
437.173
3.21823e-14
437.221
2.09766e-15
437.269
3.4051e-14
437.316
3.03471e-14
437.364
1.39695e-14
437.411
2.04291e-14
437.459
2.50954e-14
437.491
8.13335e-14
437.53
1.53617e-15
2.5568e-14
436.249
3.44381e-12
435.851
4.67362e-12
435.908
1.44265e-12
435.958
2.22349e-13
436.008
1.79129e-14
436.058
3.07242e-14
436.108
5.24871e-14
436.157
7.75189e-14
436.207
5.60614e-14
436.256
1.35121e-14
436.305
1.22009e-14
436.355
6.32303e-15
436.404
2.86379e-14
436.453
3.43044e-14
436.502
1.34428e-14
436.551
3.04109e-14
436.6
7.22061e-15
436.633
1.08941e-14
436.673
7.93527e-15
2.57488e-14
435.668
1.6879e-12
435.262
2.42081e-12
435.321
7.52468e-13
435.372
4.02225e-14
435.422
4.52679e-14
435.473
3.48396e-14
435.524
3.59753e-14
435.574
4.59492e-14
435.625
4.3801e-14
435.675
5.66972e-14
435.726
2.68502e-15
435.776
8.75437e-16
435.826
1.00299e-14
435.876
2.28716e-14
435.926
2.23233e-14
435.976
6.42007e-15
436.026
1.23848e-14
436.06
3.51299e-14
436.1
1.42402e-14
2.96722e-14
435.307
1.95114e-12
434.896
2.97101e-12
434.955
9.56177e-13
435.007
1.33531e-13
435.058
8.65088e-14
435.11
2.48975e-14
435.161
7.06069e-14
435.212
3.84391e-14
435.263
1.20001e-14
435.314
2.60118e-14
435.365
6.37992e-14
435.416
3.67356e-14
435.467
3.93096e-14
435.517
3.64098e-14
435.568
2.24889e-14
435.618
1.57357e-15
435.669
6.14565e-15
435.703
3.75408e-14
435.744
4.87781e-14
6.07855e-15
435.087
2.69848e-12
434.673
3.9397e-12
434.733
1.22428e-12
434.784
3.08169e-13
434.836
1.42026e-14
434.888
2.84609e-14
434.94
3.96374e-14
434.991
4.42784e-14
435.043
2.3018e-14
435.094
4.21988e-14
435.146
6.42406e-14
435.197
2.69169e-14
435.248
1.55538e-14
435.299
4.00236e-14
435.35
6.04035e-14
435.4
2.96461e-14
435.451
2.29684e-14
435.486
3.55269e-15
435.527
5.10711e-15
2.40306e-15
434.947
1.87607e-13
434.531
7.12897e-13
434.591
5.50626e-13
434.643
6.44202e-15
434.695
8.76884e-14
434.747
4.77257e-14
434.799
1.3306e-14
434.851
6.27481e-14
434.903
8.05925e-14
434.954
2.26862e-14
435.006
6.7428e-15
435.057
9.29119e-15
435.108
2.41625e-14
435.159
2.34983e-14
435.211
6.739e-14
435.262
1.51651e-15
435.313
5.52081e-14
435.348
2.98618e-14
435.389
7.38321e-16
4.80595e-14
434.847
6.87461e-14
434.431
3.14723e-13
434.491
9.69908e-14
434.543
1.68323e-15
434.595
7.10856e-14
434.647
5.73754e-14
434.7
3.45416e-14
434.751
4.39994e-14
434.803
2.59818e-14
434.855
3.48535e-14
434.907
2.48523e-15
434.958
5.07798e-14
435.01
7.64466e-14
435.061
1.17663e-14
435.113
9.57894e-15
435.164
2.99285e-14
435.215
4.40919e-14
435.25
2.29072e-15
435.291
1.05177e-14
9.9349e-15
434.767
4.3471e-13
434.349
3.48446e-13
434.409
3.8653e-14
434.461
4.81538e-14
434.514
4.97144e-14
434.566
2.67765e-14
434.618
2.48703e-14
434.67
1.53926e-14
434.723
1.64904e-14
434.774
1.22926e-14
434.826
3.033e-15
434.878
4.6656e-14
434.93
6.84204e-14
434.981
1.93656e-14
435.033
5.38379e-14
435.084
3.16726e-14
435.135
3.49699e-14
435.17
2.82211e-14
435.212
1.35198e-14
1.49388e-14
434.691
7.42932e-14
434.272
7.99613e-13
434.332
5.69256e-13
434.385
8.15311e-14
434.438
6.60316e-14
434.49
3.85428e-14
434.543
4.60405e-14
434.595
8.82623e-14
434.647
4.24018e-14
434.699
2.14896e-14
434.751
2.23128e-14
434.803
6.56197e-14
434.855
5.16239e-14
434.906
2.51735e-14
434.958
1.43896e-14
435.009
9.77605e-15
435.06
4.75157e-14
435.096
2.21543e-14
435.137
8.99343e-15
8.80558e-15
434.614
2.41405e-12
434.194
3.44033e-12
434.254
1.23327e-12
434.307
2.23582e-13
434.36
6.57441e-15
434.412
3.50885e-14
434.465
8.06565e-14
434.517
1.02901e-13
434.569
5.34028e-15
434.621
5.19567e-14
434.674
3.04458e-14
434.725
6.59033e-14
434.778
9.81946e-14
434.829
1.113e-14
434.881
3.45995e-14
434.932
8.67248e-15
434.984
2.88077e-14
435.019
1.525e-14
435.061
2.9384e-14
5.56103e-14
434.53
1.50535e-12
434.109
2.43323e-12
434.17
9.12121e-13
434.223
1.17506e-13
434.275
6.11442e-15
434.328
7.90116e-15
434.381
1.30147e-14
434.433
3.19968e-15
434.486
5.5078e-14
434.538
6.50945e-14
434.59
8.1173e-14
434.642
1.07512e-14
434.694
7.90918e-14
434.746
3.88568e-14
434.798
1.90271e-14
434.849
1.08113e-15
434.901
4.36525e-14
434.937
3.02786e-14
434.978
4.29273e-15
5.12722e-14
434.438
2.11155e-12
434.016
2.33175e-12
434.077
5.53123e-13
434.13
1.442e-13
434.183
3.14884e-14
434.235
4.98296e-14
434.288
7.78474e-14
434.341
4.19864e-14
434.394
1.32368e-14
434.446
4.2612e-14
434.498
2.74031e-14
434.55
4.57962e-14
434.603
5.07267e-15
434.655
3.73523e-15
434.707
1.27399e-14
434.758
1.82882e-14
434.81
2.88914e-14
434.846
2.97547e-14
434.888
1.22923e-14
2.53687e-14
434.338
3.58409e-12
433.914
5.079e-12
433.975
1.43268e-12
434.028
3.46355e-13
434.082
2.19175e-14
434.135
3.91318e-14
434.188
4.97074e-14
434.24
9.35433e-14
434.293
1.72689e-13
434.346
9.74897e-14
434.398
2.2911e-14
434.45
8.74112e-14
434.503
5.6044e-14
434.555
1.33507e-14
434.607
5.88012e-15
434.659
1.34351e-14
434.711
1.0174e-14
434.747
8.37788e-14
434.789
5.70445e-14
3.70827e-14
434.233
3.20321e-12
433.808
3.83112e-12
433.869
1.1626e-12
433.923
1.99753e-13
433.976
5.05414e-14
434.029
4.83707e-14
434.082
2.16157e-14
434.135
6.39934e-15
434.188
2.41283e-14
434.241
4.65722e-14
434.294
5.14514e-14
434.346
1.15344e-13
434.399
3.25363e-14
434.451
4.16268e-14
434.503
7.27377e-14
434.555
1.82865e-14
434.608
5.64282e-16
434.643
5.65974e-14
434.686
4.76358e-14
8.93727e-17
434.134
3.00584e-12
433.707
3.3915e-12
433.769
7.76979e-13
433.822
2.19481e-13
433.876
1.99718e-14
433.929
1.29645e-14
433.983
1.3426e-14
434.035
1.42533e-14
434.089
5.02627e-15
434.141
3.80562e-14
434.194
4.45602e-14
434.247
1.51298e-14
434.3
1.23113e-14
434.352
5.48339e-14
434.405
1.93656e-14
434.457
6.02299e-14
434.509
8.90569e-14
434.545
1.3371e-14
434.587
1.80553e-14
4.33985e-15
434.063
4.15759e-12
433.644
5.8283e-12
433.703
1.52163e-12
433.755
2.29465e-13
433.806
8.67036e-14
433.859
3.03171e-15
433.91
9.77152e-15
433.962
4.48487e-14
434.014
4.04107e-14
434.066
2.57536e-14
434.118
1.81096e-14
434.17
3.81388e-14
434.222
5.91355e-14
434.274
4.68743e-14
434.326
2.21511e-14
434.378
1.75621e-14
434.43
4.44799e-14
434.466
6.85775e-15
434.508
2.19212e-14
4.02386e-14
434.49
434.49
434.49
434.49
434.49
434.49
434.49
434.49
434.49
434.49
434.49
434.49
434.49
434.49
434.49
434.49
434.49
434.49
434.49
)
;

boundaryField
{
    movingWall
    {
        type            calculated;
        value           uniform 0;
    }
    fixedWalls
    {
        type            calculated;
        value           nonuniform List<scalar> 
60
(
250
250
250
250
250
250
250
250
250
250
250
250
250
250
250
250
250
250
250
250
250
250
250
250
250
250
250
250
250
250
250
250
250
250
250
250
250
250
250
250
0
0
0
0
0
0
0
0
0
0
0
0
0
0
0
0
0
0
0
0
)
;
    }
    frontAndBack
    {
        type            empty;
        value           nonuniform List<scalar> 0();
    }
}


// ************************************************************************* //
