/*--------------------------------*- C++ -*----------------------------------*\
| =========                 |                                                 |
| \\      /  F ield         | OpenFOAM: The Open Source CFD Toolbox           |
|  \\    /   O peration     | Version:  2312                                  |
|   \\  /    A nd           | Website:  www.openfoam.com                      |
|    \\/     M anipulation  |                                                 |
\*---------------------------------------------------------------------------*/
FoamFile
{
    version     2.0;
    format      ascii;
    arch        "LSB;label=32;scalar=64";
    class       surfaceScalarField;
    location    "7";
    object      phi;
}
// * * * * * * * * * * * * * * * * * * * * * * * * * * * * * * * * * * * * * //

dimensions      [0 3 -1 0 0 0 0];

oriented        oriented;

internalField   nonuniform List<scalar> 
760
(
-5e-05
4.91237e-19
-5e-05
-7.12952e-19
-5e-05
2.2328e-19
-5e-05
-3.14163e-20
-5e-05
1.20249e-20
-5e-05
2.34714e-21
-5e-05
7.28613e-21
-5e-05
3.43899e-21
-5e-05
4.81937e-21
-5e-05
1.33625e-21
-5e-05
6.57894e-22
-5e-05
-2.84977e-21
-5e-05
-9.88646e-22
-5e-05
1.20805e-20
-5e-05
1.36491e-20
-5e-05
-2.71524e-21
-5e-05
-1.90875e-21
-5e-05
-3.48381e-21
-5e-05
-1.73799e-21
4.08804e-21
-5e-05
-4.36146e-19
-5e-05
6.10989e-19
-5e-05
-1.79757e-19
-5e-05
3.85971e-20
-5e-05
-4.00418e-21
-5e-05
1.61323e-21
-5e-05
1.47744e-21
-5e-05
2.0672e-21
-5e-05
-1.87351e-21
-5e-05
1.5357e-21
-5e-05
1.7207e-21
-5e-05
-3.27757e-21
-5e-05
-2.71251e-21
-5e-05
-2.06159e-21
-5e-05
-2.83173e-21
-5e-05
-1.40762e-21
-5e-05
-1.046e-21
-5e-05
3.67156e-21
-5e-05
2.16047e-21
-3.28142e-21
-5e-05
-8.89034e-20
-5e-05
1.14214e-19
-5e-05
-2.17674e-21
-5e-05
7.58942e-21
-5e-05
-3.34334e-22
-5e-05
1.7984e-21
-5e-05
-3.75718e-21
-5e-05
-9.19603e-21
-5e-05
-1.34106e-21
-5e-05
1.00521e-20
-5e-05
1.5155e-20
-5e-05
3.51202e-21
-5e-05
-2.00023e-21
-5e-05
-2.52426e-21
-5e-05
-5.26106e-21
-5e-05
-1.13617e-20
-5e-05
-4.96673e-21
-5e-05
2.80545e-21
-5e-05
2.49421e-21
4.60366e-21
-5e-05
3.27478e-19
-5e-05
-4.23317e-19
-5e-05
1.32506e-19
-5e-05
-2.21584e-20
-5e-05
2.40136e-21
-5e-05
4.65369e-23
-5e-05
5.32615e-21
-5e-05
1.21332e-20
-5e-05
6.24893e-21
-5e-05
3.84926e-22
-5e-05
-3.68452e-21
-5e-05
2.40141e-22
-5e-05
3.89761e-21
-5e-05
3.47338e-21
-5e-05
-1.59865e-21
-5e-05
2.3377e-21
-5e-05
-2.87125e-21
-5e-05
-9.3049e-21
-5e-05
-1.75732e-22
2.92457e-21
-5e-05
-3.94569e-19
-5e-05
5.36562e-19
-5e-05
-1.65594e-19
-5e-05
2.55203e-20
-5e-05
-2.05566e-21
-5e-05
3.52558e-21
-5e-05
6.02194e-21
-5e-05
8.89321e-21
-5e-05
6.43055e-21
-5e-05
1.5498e-21
-5e-05
1.39919e-21
-5e-05
7.25063e-22
-5e-05
3.28343e-21
-5e-05
3.9328e-21
-5e-05
1.54091e-21
-5e-05
3.48563e-21
-5e-05
8.27493e-22
-5e-05
1.24838e-21
-5e-05
-9.09253e-22
2.95006e-21
-5e-05
1.93594e-19
-5e-05
-2.7823e-19
-5e-05
8.64666e-20
-5e-05
-4.62163e-21
-5e-05
5.20054e-21
-5e-05
4.00219e-21
-5e-05
4.13199e-21
-5e-05
5.27716e-21
-5e-05
5.02966e-21
-5e-05
6.51002e-21
-5e-05
3.08248e-22
-5e-05
1.00495e-22
-5e-05
-1.1512e-21
-5e-05
-2.62491e-21
-5e-05
2.56161e-21
-5e-05
7.36643e-22
-5e-05
1.42084e-21
-5e-05
4.0299e-21
-5e-05
1.63344e-21
3.40319e-21
-5e-05
2.23934e-19
-5e-05
-3.41698e-19
-5e-05
1.09949e-19
-5e-05
-1.53532e-20
-5e-05
9.94514e-21
-5e-05
2.86201e-21
-5e-05
8.11511e-21
-5e-05
4.41761e-21
-5e-05
-1.37889e-21
-5e-05
2.98869e-21
-5e-05
7.32924e-21
-5e-05
4.21983e-21
-5e-05
4.51482e-21
-5e-05
4.18143e-21
-5e-05
2.58231e-21
-5e-05
-1.80671e-22
-5e-05
-7.05519e-22
-5e-05
4.30931e-21
-5e-05
5.59882e-21
-6.97624e-22
-5e-05
-3.09833e-19
-5e-05
4.53298e-19
-5e-05
-1.40837e-19
-5e-05
3.54479e-20
-5e-05
1.63342e-21
-5e-05
3.273e-21
-5e-05
-4.55758e-21
-5e-05
-5.0908e-21
-5e-05
2.64602e-21
-5e-05
-4.85055e-21
-5e-05
-7.383e-21
-5e-05
3.09323e-21
-5e-05
1.78713e-21
-5e-05
-4.59834e-21
-5e-05
-6.93876e-21
-5e-05
-3.40526e-21
-5e-05
2.63784e-21
-5e-05
-4.07979e-22
-5e-05
5.86441e-22
2.75908e-22
-5e-05
2.15464e-20
-5e-05
-8.20481e-20
-5e-05
6.33598e-20
-5e-05
7.41215e-22
-5e-05
1.00878e-20
-5e-05
5.48997e-21
-5e-05
-1.53037e-21
-5e-05
-7.2163e-21
-5e-05
-9.26701e-21
-5e-05
-2.60839e-21
-5e-05
-7.75143e-22
-5e-05
1.06802e-21
-5e-05
2.77704e-21
-5e-05
-2.70047e-21
-5e-05
-7.74343e-21
-5e-05
1.74239e-22
-5e-05
6.34219e-21
-5e-05
3.43016e-21
-5e-05
8.48031e-23
-5.51945e-21
-5e-05
7.89699e-21
-5e-05
-3.62295e-20
-5e-05
1.11629e-20
-5e-05
-1.93712e-22
-5e-05
8.17946e-21
-5e-05
6.60137e-21
-5e-05
3.97357e-21
-5e-05
5.06116e-21
-5e-05
2.98816e-21
-5e-05
4.00817e-21
-5e-05
2.85758e-22
-5e-05
-5.83831e-21
-5e-05
-8.78795e-21
-5e-05
-1.35248e-21
-5e-05
1.10089e-21
-5e-05
-3.43934e-21
-5e-05
-5.06621e-21
-5e-05
2.63184e-22
-5e-05
1.2083e-21
-1.14122e-21
-5e-05
4.99448e-20
-5e-05
-4.01188e-20
-5e-05
-4.44949e-21
-5e-05
-5.54271e-21
-5e-05
-5.72142e-21
-5e-05
-3.08135e-21
-5e-05
2.86153e-21
-5e-05
1.7709e-21
-5e-05
1.8969e-21
-5e-05
-1.4139e-21
-5e-05
-3.48804e-22
-5e-05
-5.36514e-21
-5e-05
-7.86669e-21
-5e-05
-2.22639e-21
-5e-05
6.1886e-21
-5e-05
3.64041e-21
-5e-05
4.0188e-21
-5e-05
-3.24293e-21
-5e-05
-1.55347e-21
1.71632e-21
-5e-05
8.53718e-21
-5e-05
-9.2081e-20
-5e-05
6.55408e-20
-5e-05
-9.38626e-21
-5e-05
-7.60065e-21
-5e-05
-4.43616e-21
-5e-05
5.29827e-21
-5e-05
1.01563e-20
-5e-05
4.87836e-21
-5e-05
-2.4722e-21
-5e-05
2.56649e-21
-5e-05
7.54718e-21
-5e-05
5.93655e-21
-5e-05
2.89461e-21
-5e-05
1.65436e-21
-5e-05
-1.12384e-21
-5e-05
-5.46153e-21
-5e-05
-2.54623e-21
-5e-05
1.03355e-21
1.01185e-21
-5e-05
-2.77454e-19
-5e-05
3.96253e-19
-5e-05
-1.42018e-19
-5e-05
2.57446e-20
-5e-05
7.56897e-22
-5e-05
4.03933e-21
-5e-05
-9.28356e-21
-5e-05
-1.1843e-20
-5e-05
6.14518e-22
-5e-05
5.97829e-21
-5e-05
3.50263e-21
-5e-05
7.58119e-21
-5e-05
1.12941e-20
-5e-05
1.28004e-21
-5e-05
-3.97859e-21
-5e-05
-9.97161e-22
-5e-05
-3.31181e-21
-5e-05
-1.75303e-21
-5e-05
-3.37752e-21
-6.39133e-21
-5e-05
1.73049e-19
-5e-05
-2.80313e-19
-5e-05
1.05058e-19
-5e-05
-1.35331e-20
-5e-05
7.04084e-22
-5e-05
9.09755e-22
-5e-05
-1.4983e-21
-5e-05
3.68328e-22
-5e-05
6.33923e-21
-5e-05
7.49146e-21
-5e-05
9.3404e-21
-5e-05
-1.23702e-21
-5e-05
-9.09875e-21
-5e-05
-4.46972e-21
-5e-05
-2.18836e-21
-5e-05
-1.24333e-22
-5e-05
5.01942e-21
-5e-05
3.4813e-21
-5e-05
-4.93523e-22
-5.89392e-21
-5e-05
2.42787e-19
-5e-05
-2.68684e-19
-5e-05
6.37226e-20
-5e-05
-1.66113e-20
-5e-05
3.62674e-21
-5e-05
-5.73875e-21
-5e-05
-8.96404e-21
-5e-05
-4.83429e-21
-5e-05
-1.52384e-21
-5e-05
4.90513e-21
-5e-05
-3.15391e-21
-5e-05
-5.27039e-21
-5e-05
5.8369e-22
-5e-05
4.29761e-22
-5e-05
-1.46558e-21
-5e-05
2.10365e-21
-5e-05
-3.32282e-21
-5e-05
-3.42181e-21
-5e-05
-1.41352e-21
2.91686e-21
-5e-05
-4.12198e-19
-5e-05
5.85384e-19
-5e-05
-1.65092e-19
-5e-05
3.99081e-20
-5e-05
-2.525e-21
-5e-05
4.50778e-21
-5e-05
5.72511e-21
-5e-05
-1.07731e-20
-5e-05
-1.98849e-20
-5e-05
-1.12248e-20
-5e-05
-2.63752e-21
-5e-05
1.0062e-20
-5e-05
6.45026e-21
-5e-05
1.53644e-21
-5e-05
6.76597e-22
-5e-05
1.54578e-21
-5e-05
-1.17039e-21
-5e-05
-9.63687e-21
-5e-05
-6.5612e-21
-4.26471e-21
-5e-05
3.68479e-19
-5e-05
-4.41664e-19
-5e-05
1.34001e-19
-5e-05
-2.30217e-20
-5e-05
5.82398e-21
-5e-05
-5.57338e-21
-5e-05
-2.4902e-21
-5e-05
-7.37165e-22
-5e-05
-2.77899e-21
-5e-05
-5.36353e-21
-5e-05
-5.9245e-21
-5e-05
-1.32804e-20
-5e-05
-3.74557e-21
-5e-05
4.79165e-21
-5e-05
8.37153e-21
-5e-05
2.10444e-21
-5e-05
6.49288e-23
-5e-05
-6.51177e-21
-5e-05
-5.48029e-21
1.02807e-23
-5e-05
3.45845e-19
-5e-05
-3.91057e-19
-5e-05
8.95719e-20
-5e-05
-2.53002e-20
-5e-05
-2.30184e-21
-5e-05
-1.49409e-21
-5e-05
1.54703e-21
-5e-05
1.64222e-21
-5e-05
-5.79018e-22
-5e-05
-4.38365e-21
-5e-05
-5.13203e-21
-5e-05
1.74237e-21
-5e-05
1.41756e-21
-5e-05
6.3132e-21
-5e-05
2.22928e-21
-5e-05
-6.93279e-21
-5e-05
-1.02494e-20
-5e-05
-1.5387e-21
-5e-05
-2.0776e-21
-4.99322e-22
-5e-05
-4.78426e-19
-5e-05
6.71394e-19
-5e-05
-1.75267e-19
-5e-05
2.64297e-20
-5e-05
-9.9857e-21
-5e-05
-3.4915e-22
-5e-05
-1.12526e-21
-5e-05
-5.16442e-21
-5e-05
-4.653e-21
-5e-05
-2.96523e-21
-5e-05
2.08495e-21
-5e-05
-4.39071e-21
-5e-05
-6.8074e-21
-5e-05
-5.39573e-21
-5e-05
-2.54962e-21
-5e-05
-2.02134e-21
-5e-05
-5.11911e-21
-5e-05
-7.89209e-22
-5e-05
-2.52266e-21
-4.63032e-21
-5e-05
-5e-05
-5e-05
-5e-05
-5e-05
-5e-05
-5e-05
-5e-05
-5e-05
-5e-05
-5e-05
-5e-05
-5e-05
-5e-05
-5e-05
-5e-05
-5e-05
-5e-05
-5e-05
)
;

boundaryField
{
    movingWall
    {
        type            calculated;
        value           uniform 0;
    }
    fixedWalls
    {
        type            calculated;
        value           nonuniform List<scalar> 
60
(
5e-05
5e-05
5e-05
5e-05
5e-05
5e-05
5e-05
5e-05
5e-05
5e-05
5e-05
5e-05
5e-05
5e-05
5e-05
5e-05
5e-05
5e-05
5e-05
5e-05
-5e-05
-5e-05
-5e-05
-5e-05
-5e-05
-5e-05
-5e-05
-5e-05
-5e-05
-5e-05
-5e-05
-5e-05
-5e-05
-5e-05
-5e-05
-5e-05
-5e-05
-5e-05
-5e-05
-5e-05
0
0
0
0
0
0
0
0
0
0
0
0
0
0
0
0
0
0
0
0
)
;
    }
    frontAndBack
    {
        type            empty;
        value           nonuniform List<scalar> 0();
    }
}


// ************************************************************************* //
