/*--------------------------------*- C++ -*----------------------------------*\
| =========                 |                                                 |
| \\      /  F ield         | OpenFOAM: The Open Source CFD Toolbox           |
|  \\    /   O peration     | Version:  2312                                  |
|   \\  /    A nd           | Website:  www.openfoam.com                      |
|    \\/     M anipulation  |                                                 |
\*---------------------------------------------------------------------------*/
FoamFile
{
    version     2.0;
    format      ascii;
    arch        "LSB;label=32;scalar=64";
    class       volScalarField;
    location    "7";
    object      QField;
}
// * * * * * * * * * * * * * * * * * * * * * * * * * * * * * * * * * * * * * //

dimensions      [0 0 -2 0 0 0 0];

internalField   nonuniform List<scalar> 
400
(
-3.30805e-23
-1.17669e-23
-2.66385e-25
-3.25378e-26
-8.15535e-27
0
-1.06391e-27
-3.8999e-28
0
-2.17514e-28
1.1837e-28
3.99444e-28
1.05591e-27
-1.96735e-27
-3.8164e-27
-2.4912e-28
-1.78267e-28
1.11161e-28
0
0
-5.82578e-23
-1.92346e-23
-1.27961e-24
1.26691e-27
-1.32179e-27
4.04069e-28
-1.84833e-27
-1.01858e-27
-6.14864e-28
-6.83789e-28
1.58964e-29
2.14713e-28
5.9224e-28
-1.15358e-27
-1.26404e-27
-1.01873e-27
-8.9556e-29
-3.57356e-28
0
-5.00137e-29
-6.28605e-23
-2.27449e-23
-1.72357e-25
-1.01834e-25
2.92316e-26
-2.09805e-27
8.63905e-28
-9.59061e-28
-7.89161e-28
-1.21836e-27
1.18585e-27
4.52164e-27
2.34561e-28
-1.66037e-28
-8.16682e-28
-9.07355e-28
1.25633e-27
1.69033e-28
2.85774e-28
-1.37176e-28
-5.45834e-23
-1.79135e-23
-5.46967e-25
2.59051e-26
-1.21496e-26
1.78799e-27
-1.9185e-27
-2.29653e-27
-5.97311e-28
-3.69388e-28
-2.35359e-27
6.89221e-28
4.58511e-28
-5.93696e-29
1.14771e-27
-1.16097e-27
-4.35484e-28
-5.92335e-28
4.16017e-28
0
-4.21755e-23
-1.24155e-23
-8.1075e-25
-1.45505e-26
-1.64599e-27
6.59221e-28
6.14098e-28
3.15963e-28
8.68781e-28
1.22576e-27
3.94777e-28
0
4.60553e-28
2.98838e-28
1.07607e-28
5.462e-28
6.48643e-28
-3.67037e-28
-1.05914e-27
-1.20743e-28
-4.43312e-23
-1.38566e-23
-6.50087e-25
1.73044e-26
-7.12553e-27
0
-1.74423e-28
3.84197e-28
-1.21427e-28
-6.13245e-28
0
0
0
-4.67409e-28
-1.22655e-28
7.4372e-29
0
-6.10687e-28
0
0
-4.1543e-23
-1.64209e-23
2.54927e-25
-9.90133e-26
2.28975e-26
-3.99672e-27
1.94165e-28
-6.50958e-28
9.44528e-28
7.21931e-28
-5.94653e-28
-5.71883e-28
-1.48826e-28
6.03876e-28
2.93981e-28
-1.55541e-28
5.20456e-28
1.79375e-28
0
0
-2.27368e-23
-9.03854e-24
-3.72186e-25
-1.32742e-26
6.67353e-27
0
-1.89564e-27
-2.47201e-27
1.22447e-27
-3.60075e-27
-6.98985e-28
7.0099e-29
4.88824e-28
-3.72316e-28
-1.26373e-27
-2.16694e-28
-4.52865e-28
-8.30149e-28
0
0
-1.23729e-23
-5.83047e-24
-1.55869e-25
-4.0748e-26
1.49861e-26
2.73355e-27
3.56496e-27
-3.07788e-28
-3.96589e-28
-5.1738e-28
1.08818e-27
4.78617e-28
0
1.97944e-27
0
7.02754e-28
-1.33479e-28
3.82763e-28
0
-1.696e-28
-4.67524e-25
-3.00573e-24
2.95556e-25
-5.11944e-26
1.29947e-26
-1.13795e-27
-1.06042e-27
-1.97947e-27
-9.43352e-28
-2.53459e-28
0
0
-2.17136e-27
0
-1.33307e-27
0
-9.9985e-28
-1.28482e-28
1.01653e-28
-1.59217e-28
8.60195e-24
2.74858e-25
2.92381e-25
0
-3.8767e-27
-7.28962e-28
-7.79869e-29
3.32573e-28
2.11946e-28
1.1593e-28
2.55888e-27
1.11739e-27
0
1.83525e-27
-6.49823e-28
0
5.63122e-29
0
-1.01816e-28
-9.12706e-29
1.22828e-24
-1.18342e-24
9.98525e-26
1.82828e-26
1.05042e-27
4.98516e-28
1.42563e-27
-2.19451e-28
-4.62312e-30
-4.46018e-29
3.82998e-28
-2.69612e-27
-3.7587e-27
1.16315e-27
-1.43842e-28
-8.22949e-28
-7.63794e-28
3.24209e-29
2.37192e-28
0
-3.54698e-24
-2.25807e-24
-1.90648e-25
2.94628e-26
-2.90387e-27
4.42181e-28
-1.7911e-27
-1.75407e-27
-3.36082e-29
-9.74764e-28
1.94368e-27
9.4721e-28
1.15788e-27
2.66584e-27
-2.58543e-28
6.69007e-28
-3.74673e-29
2.84019e-28
0
-6.80077e-28
-1.86391e-23
-6.79524e-24
-4.64244e-25
1.32664e-26
-2.47812e-27
0
1.18541e-31
4.0877e-28
2.60678e-27
0
3.61083e-28
-1.11975e-27
-3.75204e-27
2.02432e-28
-2.22074e-28
0
-5.89958e-28
-3.11686e-28
2.68177e-28
0
-3.97711e-23
-1.4456e-23
2.56504e-26
-5.87918e-26
9.93535e-27
-1.07038e-27
2.78706e-27
1.71606e-27
-1.07538e-27
-3.40174e-28
5.70271e-28
8.0291e-28
9.74812e-28
9.40611e-28
8.07615e-28
1.32882e-27
-6.12606e-28
-1.02548e-27
-2.73295e-28
-2.80564e-28
-4.92788e-23
-1.60192e-23
-3.56954e-25
-7.63151e-26
7.42848e-27
0
1.74325e-27
1.92149e-27
-5.81448e-27
-3.42111e-27
0
-5.41941e-28
1.00407e-27
1.13559e-27
-3.09508e-28
1.84265e-28
3.94957e-28
-7.21295e-28
-7.07846e-28
-2.13112e-28
-5.36077e-23
-1.47929e-23
-8.74212e-25
-4.52856e-26
1.37806e-27
-5.14518e-28
3.37672e-27
2.6935e-27
-2.09258e-27
-5.81378e-28
0
-3.35237e-27
-2.49135e-28
-4.66224e-28
-8.18859e-28
6.96896e-28
0
8.78278e-28
5.10017e-29
1.32972e-29
-5.99499e-23
-1.85143e-23
-6.18114e-25
-6.6207e-26
3.15452e-27
-2.22549e-28
2.54156e-27
-6.10151e-29
-7.07387e-28
1.64897e-27
0
-7.25164e-28
2.08118e-27
1.97659e-28
0
-9.22306e-28
-3.59051e-28
-5.24442e-28
0
1.75407e-28
-5.91187e-23
-1.71065e-23
-7.44274e-25
-5.34255e-26
1.35009e-27
-5.01331e-28
4.14802e-28
-3.04506e-28
-1.71047e-28
-1.99625e-28
-2.47434e-28
1.02688e-28
4.83025e-29
-2.36122e-27
6.69456e-30
5.53957e-28
-3.69402e-28
3.15816e-28
0
-2.76979e-28
-2.78925e-23
-8.0578e-24
-5.4756e-25
7.25456e-27
-3.5556e-27
6.53843e-28
-1.23563e-28
-7.33892e-28
-4.77542e-28
-3.18598e-28
-5.31842e-29
-9.60395e-28
-6.65782e-28
2.22473e-28
3.19759e-28
-3.58922e-28
-7.45108e-28
0
2.8936e-28
1.23801e-29
)
;

boundaryField
{
    movingWall
    {
        type            calculated;
        value           nonuniform List<scalar> 
20
(
4.15877e-24
2.68396e-24
-1.03275e-24
1.33523e-25
-2.52652e-26
6.42754e-27
-2.57529e-27
-2.92678e-27
-1.42128e-27
-9.57194e-28
-9.80978e-28
-3.8484e-27
-1.09982e-27
6.51238e-28
0
-5.88057e-28
-8.00066e-28
0
6.01584e-28
5.45389e-30
)
;
    }
    fixedWalls
    {
        type            calculated;
        value           nonuniform List<scalar> 
60
(
-1.90667e-22
-3.47607e-22
-3.29208e-22
-2.81306e-22
-2.31655e-22
-2.39236e-22
-2.12486e-22
-1.41591e-22
-7.80439e-23
-2.95287e-24
4.39646e-23
2.50282e-25
-3.76074e-23
-1.12521e-22
-2.06135e-22
-2.59541e-22
-2.87205e-22
-3.0574e-22
-3.13606e-22
-1.51175e-22
0
2.27224e-28
-2.24749e-28
-2.39008e-28
-6.6428e-28
0
0
0
-3.57456e-28
-2.60862e-28
-3.07834e-29
0
-1.11424e-27
0
-4.59676e-28
-1.03737e-28
4.35722e-29
1.56926e-28
-5.52063e-28
1.48296e-29
1.77909e-23
1.43564e-23
-2.34698e-24
2.62961e-25
-6.86343e-26
9.74147e-27
-5.60933e-27
-8.98259e-28
7.92999e-28
2.29094e-29
-2.90907e-28
-3.27224e-28
-2.03999e-28
-4.01672e-27
-6.13386e-27
-2.69787e-27
-5.21827e-28
4.62457e-28
-3.91327e-28
0
)
;
    }
    frontAndBack
    {
        type            empty;
    }
}


// ************************************************************************* //
