/*--------------------------------*- C++ -*----------------------------------*\
| =========                 |                                                 |
| \\      /  F ield         | OpenFOAM: The Open Source CFD Toolbox           |
|  \\    /   O peration     | Version:  2312                                  |
|   \\  /    A nd           | Website:  www.openfoam.com                      |
|    \\/     M anipulation  |                                                 |
\*---------------------------------------------------------------------------*/
FoamFile
{
    version     2.0;
    format      ascii;
    arch        "LSB;label=32;scalar=64";
    class       surfaceVectorField;
    location    "7";
    object      surfaceU;
}
// * * * * * * * * * * * * * * * * * * * * * * * * * * * * * * * * * * * * * //

dimensions      [0 1 -1 0 0 0 0];

internalField   nonuniform List<vector> 
760
(
(-1 6.97016e-14 0)
(-1 8.67672e-14 0)
(-1 -1.45422e-14 0)
(-1 -1.84077e-14 0)
(-1 3.56554e-15 0)
(-1 4.49236e-15 0)
(-1 -7.21231e-16 0)
(-1 -8.57702e-16 0)
(-1 2.16176e-16 0)
(-1 2.83495e-16 0)
(-1 3.33771e-17 0)
(-1 3.094e-17 0)
(-1 1.04091e-16 0)
(-1 1.25542e-16 0)
(-1 9.99819e-17 0)
(-1 7.19405e-17 0)
(-1 7.7661e-17 0)
(-1 2.74854e-17 0)
(-1 5.57756e-17 0)
(-1 -3.64653e-18 0)
(-1 6.66933e-17 0)
(-1 2.07295e-17 0)
(-1 1.03535e-16 0)
(-1 1.02036e-17 0)
(-1 1.65538e-16 0)
(-1 7.07742e-17 0)
(-1 1.58046e-16 0)
(-1 1.81456e-16 0)
(-1 2.98637e-17 0)
(-1 1.49212e-16 0)
(-1 -5.01733e-17 0)
(-1 -2.29773e-17 0)
(-1 -4.2075e-17 0)
(-1 -2.4786e-17 0)
(-1 -2.44854e-17 0)
(-1 -3.80952e-17 0)
(-1 1.95741e-17 0)
(-1 -2.28631e-17 0)
(-1 3.32114e-17 0)
(-1 -1.3422e-15 0)
(-1 -7.40515e-14 0)
(-1 6.26869e-16 0)
(-1 1.65711e-14 0)
(-1 6.91237e-17 0)
(-1 -3.62792e-15 0)
(-1 1.47025e-16 0)
(-1 9.86888e-16 0)
(-1 9.82591e-17 0)
(-1 -1.23838e-16 0)
(-1 1.23105e-16 0)
(-1 7.37643e-17 0)
(-1 9.33914e-17 0)
(-1 1.44902e-17 0)
(-1 -5.56053e-19 0)
(-1 -3.28867e-17 0)
(-1 -5.38221e-17 0)
(-1 -2.92258e-17 0)
(-1 -3.86926e-17 0)
(-1 5.94218e-17 0)
(-1 -3.57602e-17 0)
(-1 8.21172e-17 0)
(-1 -2.25577e-17 0)
(-1 -7.02333e-17 0)
(-1 8.66913e-17 0)
(-1 -8.39338e-17 0)
(-1 1.72622e-16 0)
(-1 2.45928e-17 0)
(-1 9.63713e-17 0)
(-1 3.2625e-17 0)
(-1 2.41004e-18 0)
(-1 -6.48347e-17 0)
(-1 -2.08062e-17 0)
(-1 -1.80899e-17 0)
(-1 -3.64729e-17 0)
(-1 2.78254e-17 0)
(-1 -9.2259e-18 0)
(-1 -2.57547e-18 0)
(-1 1.65843e-17 0)
(-1 -5.61381e-14 0)
(-1 -2.7624e-15 0)
(-1 1.23164e-14 0)
(-1 1.05738e-15 0)
(-1 -2.71015e-15 0)
(-1 -2.63205e-17 0)
(-1 7.16025e-16 0)
(-1 1.0086e-16 0)
(-1 -1.48333e-16 0)
(-1 -2.07758e-17 0)
(-1 -3.48504e-17 0)
(-1 -1.64309e-17 0)
(-1 -1.11788e-16 0)
(-1 -5.97037e-17 0)
(-1 -6.15565e-17 0)
(-1 -4.59972e-17 0)
(-1 8.40181e-17 0)
(-1 4.13396e-17 0)
(-1 1.80232e-16 0)
(-1 1.71796e-16 0)
(-1 4.76442e-17 0)
(-1 1.71623e-16 0)
(-1 -1.31609e-16 0)
(-1 -8.0614e-18 0)
(-1 -1.46032e-16 0)
(-1 -7.11997e-17 0)
(-1 -1.15404e-16 0)
(-1 -6.47746e-17 0)
(-1 -1.28581e-16 0)
(-1 -1.18026e-16 0)
(-1 -8.53347e-17 0)
(-1 -1.48523e-16 0)
(-1 3.05417e-17 0)
(-1 -8.26851e-17 0)
(-1 6.17228e-17 0)
(-1 1.41347e-17 0)
(-1 2.32347e-17 0)
(-1 5.01406e-17 0)
(-1 4.18888e-17 0)
(-1 5.44331e-14 0)
(-1 4.95928e-14 0)
(-1 -1.12853e-14 0)
(-1 -1.06405e-14 0)
(-1 2.78469e-15 0)
(-1 2.59825e-15 0)
(-1 -6.35942e-16 0)
(-1 -5.86678e-16 0)
(-1 1.11126e-16 0)
(-1 1.11689e-16 0)
(-1 -4.12842e-17 0)
(-1 8.57441e-18 0)
(-1 6.08699e-18 0)
(-1 9.35612e-17 0)
(-1 5.68989e-17 0)
(-1 1.40415e-16 0)
(-1 1.29118e-16 0)
(-1 9.64318e-17 0)
(-1 1.63188e-16 0)
(-1 5.23715e-17 0)
(-1 1.15918e-16 0)
(-1 3.94482e-17 0)
(-1 5.23482e-17 0)
(-1 5.66955e-17 0)
(-1 1.00581e-17 0)
(-1 9.4948e-17 0)
(-1 -6.73969e-17 0)
(-1 5.68838e-17 0)
(-1 -1.37969e-16 0)
(-1 -3.76328e-17 0)
(-1 -1.45874e-16 0)
(-1 -3.3538e-17 0)
(-1 -9.90921e-17 0)
(-1 -9.59159e-17 0)
(-1 2.55248e-18 0)
(-1 -9.51318e-17 0)
(-1 6.87947e-17 0)
(-1 2.22692e-17 0)
(-1 6.87987e-17 0)
(-1 -1.54808e-14 0)
(-1 -6.45914e-14 0)
(-1 3.24304e-15 0)
(-1 1.39746e-14 0)
(-1 -7.73123e-16 0)
(-1 -3.23839e-15 0)
(-1 1.60952e-16 0)
(-1 7.55367e-16 0)
(-1 9.13666e-18 0)
(-1 -1.20146e-16 0)
(-1 1.4342e-16 0)
(-1 8.20552e-17 0)
(-1 2.27889e-16 0)
(-1 1.22373e-16 0)
(-1 1.79948e-16 0)
(-1 1.987e-16 0)
(-1 1.96858e-17 0)
(-1 1.09868e-16 0)
(-1 -7.13678e-17 0)
(-1 8.36681e-18 0)
(-1 -1.97739e-17 0)
(-1 -3.33753e-17 0)
(-1 9.92953e-17 0)
(-1 -7.14137e-19 0)
(-1 1.41774e-16 0)
(-1 5.806e-17 0)
(-1 8.66479e-17 0)
(-1 5.42467e-17 0)
(-1 6.67979e-17 0)
(-1 3.78403e-17 0)
(-1 1.64199e-17 0)
(-1 6.75779e-17 0)
(-1 -9.19556e-17 0)
(-1 1.18149e-18 0)
(-1 -7.5415e-17 0)
(-1 -2.74254e-17 0)
(-1 2.22732e-17 0)
(-1 -1.07109e-17 0)
(-1 6.29862e-17 0)
(-1 -3.5136e-14 0)
(-1 3.09944e-14 0)
(-1 7.49318e-15 0)
(-1 -6.72474e-15 0)
(-1 -1.7099e-15 0)
(-1 1.62007e-15 0)
(-1 4.74269e-16 0)
(-1 -2.52561e-16 0)
(-1 -4.72274e-17 0)
(-1 1.5129e-16 0)
(-1 6.10087e-17 0)
(-1 7.07108e-17 0)
(-1 9.31841e-17 0)
(-1 1.12073e-16 0)
(-1 1.2862e-16 0)
(-1 1.08003e-16 0)
(-1 9.8549e-17 0)
(-1 8.74687e-17 0)
(-1 4.63593e-17 0)
(-1 1.21491e-16 0)
(-1 -1.43156e-17 0)
(-1 6.85721e-17 0)
(-1 -4.19494e-17 0)
(-1 1.23803e-17 0)
(-1 -2.94671e-17 0)
(-1 -2.28891e-18 0)
(-1 5.43908e-18 0)
(-1 1.11358e-17 0)
(-1 3.86203e-17 0)
(-1 6.04661e-17 0)
(-1 5.23395e-17 0)
(-1 4.10779e-17 0)
(-1 6.57117e-17 0)
(-1 4.54931e-17 0)
(-1 3.72787e-17 0)
(-1 8.52265e-17 0)
(-1 3.00021e-17 0)
(-1 3.36045e-17 0)
(-1 4.28186e-17 0)
(-1 5.94057e-14 0)
(-1 4.21752e-14 0)
(-1 -1.25979e-14 0)
(-1 -9.20925e-15 0)
(-1 3.07741e-15 0)
(-1 2.31907e-15 0)
(-1 -5.7554e-16 0)
(-1 -3.58306e-16 0)
(-1 2.69228e-16 0)
(-1 2.10158e-16 0)
(-1 1.21775e-16 0)
(-1 7.6112e-17 0)
(-1 1.26892e-16 0)
(-1 1.24408e-16 0)
(-1 6.68515e-17 0)
(-1 7.17377e-17 0)
(-1 1.1041e-16 0)
(-1 4.76609e-17 0)
(-1 1.43703e-16 0)
(-1 7.11803e-17 0)
(-1 9.5268e-17 0)
(-1 5.57488e-17 0)
(-1 5.20408e-17 0)
(-1 7.46469e-17 0)
(-1 3.8314e-17 0)
(-1 5.90434e-17 0)
(-1 6.61629e-17 0)
(-1 1.58341e-17 0)
(-1 6.29237e-17 0)
(-1 -2.42034e-19 0)
(-1 3.42315e-17 0)
(-1 -2.81457e-17 0)
(-1 6.50079e-17 0)
(-1 1.10388e-17 0)
(-1 8.15523e-17 0)
(-1 6.8938e-17 0)
(-1 4.64211e-17 0)
(-1 7.33966e-17 0)
(-1 1.08812e-17 0)
(-1 -2.64397e-14 0)
(-1 -6.11107e-14 0)
(-1 5.70767e-15 0)
(-1 1.33808e-14 0)
(-1 -1.11664e-15 0)
(-1 -2.92382e-15 0)
(-1 4.27392e-16 0)
(-1 8.66022e-16 0)
(-1 1.70423e-17 0)
(-1 -2.67759e-17 0)
(-1 7.87445e-17 0)
(-1 6.07503e-17 0)
(-1 6.92535e-17 0)
(-1 -5.99251e-17 0)
(-1 5.2547e-17 0)
(-1 -8.02644e-17 0)
(-1 8.43095e-18 0)
(-1 -6.52761e-17 0)
(-1 -1.67743e-17 0)
(-1 -1.07478e-16 0)
(-1 3.51277e-17 0)
(-1 -7.31912e-17 0)
(-1 8.16495e-17 0)
(-1 6.17159e-17 0)
(-1 3.65635e-17 0)
(-1 6.16199e-17 0)
(-1 -5.05708e-17 0)
(-1 -5.28461e-17 0)
(-1 -9.13115e-17 0)
(-1 -1.168e-16 0)
(-1 -5.13384e-17 0)
(-1 -3.72407e-17 0)
(-1 1.49689e-17 0)
(-1 5.28082e-17 0)
(-1 6.07823e-17 0)
(-1 3.81837e-17 0)
(-1 3.78567e-17 0)
(-1 3.64885e-17 0)
(-1 -2.99174e-17 0)
(-1 -2.12902e-14 0)
(-1 2.45927e-14 0)
(-1 4.74926e-15 0)
(-1 -5.07774e-15 0)
(-1 -9.41156e-16 0)
(-1 1.38158e-15 0)
(-1 4.11854e-16 0)
(-1 -1.11172e-16 0)
(-1 1.69321e-17 0)
(-1 2.5646e-16 0)
(-1 -7.79192e-17 0)
(-1 9.31789e-17 0)
(-1 -2.09443e-16 0)
(-1 -4.83059e-17 0)
(-1 -1.98088e-16 0)
(-1 -1.16349e-16 0)
(-1 -1.81185e-16 0)
(-1 -8.77252e-17 0)
(-1 -1.63894e-16 0)
(-1 -4.66181e-17 0)
(-1 -4.6603e-17 0)
(-1 -3.93415e-17 0)
(-1 4.16862e-17 0)
(-1 2.30932e-17 0)
(-1 -2.77897e-17 0)
(-1 5.50305e-18 0)
(-1 -1.19075e-16 0)
(-1 -7.61915e-17 0)
(-1 -6.27293e-17 0)
(-1 -1.13729e-16 0)
(-1 6.69059e-17 0)
(-1 -8.15116e-18 0)
(-1 7.6023e-17 0)
(-1 7.74308e-17 0)
(-1 1.38899e-17 0)
(-1 2.97095e-17 0)
(-1 -3.12856e-17 0)
(-1 -8.40302e-18 0)
(-1 -5.79107e-17 0)
(-1 4.08051e-14 0)
(-1 4.18443e-16 0)
(-1 -8.44542e-15 0)
(-1 2.84655e-16 0)
(-1 2.21156e-15 0)
(-1 1.46054e-16 0)
(-1 -2.66566e-16 0)
(-1 4.51037e-17 0)
(-1 3.32707e-16 0)
(-1 1.14195e-16 0)
(-1 1.22792e-16 0)
(-1 1.04455e-16 0)
(-1 4.47878e-17 0)
(-1 6.93035e-17 0)
(-1 -5.98689e-18 0)
(-1 4.0837e-17 0)
(-1 4.68413e-17 0)
(-1 2.56978e-17 0)
(-1 7.79348e-17 0)
(-1 6.23237e-17 0)
(-1 3.03546e-17 0)
(-1 8.55719e-18 0)
(-1 -1.309e-17 0)
(-1 -1.07198e-16 0)
(-1 -4.28987e-17 0)
(-1 -1.37948e-16 0)
(-1 -7.08455e-17 0)
(-1 -3.85854e-17 0)
(-1 -5.91512e-17 0)
(-1 3.37707e-18 0)
(-1 2.37369e-18 0)
(-1 -3.59375e-17 0)
(-1 3.11173e-17 0)
(-1 -1.47892e-17 0)
(-1 7.41658e-18 0)
(-1 -4.87732e-18 0)
(-1 -3.50282e-17 0)
(-1 1.03486e-17 0)
(-1 -2.85403e-17 0)
(-1 -4.0102e-14 0)
(-1 -2.43152e-15 0)
(-1 8.87613e-15 0)
(-1 8.59391e-16 0)
(-1 -2.02041e-15 0)
(-1 -1.27923e-16 0)
(-1 4.25865e-16 0)
(-1 -5.10121e-17 0)
(-1 -1.14056e-16 0)
(-1 -1.2418e-16 0)
(-1 5.09666e-17 0)
(-1 -3.00143e-17 0)
(-1 6.53527e-17 0)
(-1 8.25962e-17 0)
(-1 7.25217e-17 0)
(-1 1.02186e-16 0)
(-1 4.11801e-17 0)
(-1 4.92837e-17 0)
(-1 -7.05391e-18 0)
(-1 -1.2759e-17 0)
(-1 -1.28995e-16 0)
(-1 -7.17797e-18 0)
(-1 -2.32056e-16 0)
(-1 -9.93752e-17 0)
(-1 -1.33635e-16 0)
(-1 -1.26591e-16 0)
(-1 3.56372e-17 0)
(-1 1.46081e-17 0)
(-1 2.65908e-17 0)
(-1 1.14202e-16 0)
(-1 -5.31004e-17 0)
(-1 2.55542e-17 0)
(-1 -5.07837e-17 0)
(-1 -1.9983e-17 0)
(-1 -1.94531e-18 0)
(-1 -2.66705e-17 0)
(-1 1.68364e-17 0)
(-1 2.28748e-17 0)
(-1 7.60673e-18 0)
(-1 3.85299e-14 0)
(-1 2.75222e-14 0)
(-1 -8.14466e-15 0)
(-1 -5.91683e-15 0)
(-1 1.84147e-15 0)
(-1 1.42482e-15 0)
(-1 -6.01057e-16 0)
(-1 -3.6103e-16 0)
(-1 -4.01379e-17 0)
(-1 -2.72957e-17 0)
(-1 1.61525e-18 0)
(-1 -3.8468e-17 0)
(-1 1.19429e-16 0)
(-1 5.52415e-17 0)
(-1 7.89479e-17 0)
(-1 6.48075e-17 0)
(-1 -4.65546e-18 0)
(-1 5.01365e-17 0)
(-1 -1.2883e-17 0)
(-1 -2.18957e-17 0)
(-1 2.24423e-17 0)
(-1 4.90775e-17 0)
(-1 6.08954e-18 0)
(-1 1.32945e-16 0)
(-1 2.16515e-17 0)
(-1 1.20089e-16 0)
(-1 9.31726e-17 0)
(-1 3.80999e-17 0)
(-1 1.13165e-16 0)
(-1 2.76901e-17 0)
(-1 5.86715e-17 0)
(-1 4.14413e-18 0)
(-1 4.13022e-18 0)
(-1 -5.17955e-17 0)
(-1 -1.85038e-18 0)
(-1 -3.90491e-17 0)
(-1 1.36451e-17 0)
(-1 -5.38391e-18 0)
(-1 -1.54763e-17 0)
(-1 -1.69245e-14 0)
(-1 -5.90175e-14 0)
(-1 3.65265e-15 0)
(-1 1.31023e-14 0)
(-1 -7.77685e-16 0)
(-1 -2.9598e-15 0)
(-1 2.12731e-16 0)
(-1 7.50099e-16 0)
(-1 -2.56257e-17 0)
(-1 -1.16996e-16 0)
(-1 1.51583e-17 0)
(-1 5.46095e-17 0)
(-1 6.19508e-19 0)
(-1 -1.09958e-16 0)
(-1 3.5996e-17 0)
(-1 -7.84254e-17 0)
(-1 3.28962e-17 0)
(-1 6.01564e-17 0)
(-1 4.00648e-17 0)
(-1 7.87632e-17 0)
(-1 1.5958e-16 0)
(-1 1.14516e-16 0)
(-1 2.46945e-16 0)
(-1 1.57849e-16 0)
(-1 1.36538e-16 0)
(-1 1.27312e-16 0)
(-1 -2.73826e-17 0)
(-1 -1.08243e-17 0)
(-1 -8.13309e-17 0)
(-1 -7.39509e-17 0)
(-1 -1.06323e-16 0)
(-1 -4.42899e-17 0)
(-1 -9.49748e-17 0)
(-1 -5.8707e-17 0)
(-1 -4.25826e-17 0)
(-1 -3.68097e-17 0)
(-1 -3.45053e-17 0)
(-1 -4.90136e-17 0)
(-1 -7.82023e-17 0)
(-1 -2.89908e-14 0)
(-1 4.39688e-14 0)
(-1 6.48983e-15 0)
(-1 -9.26887e-15 0)
(-1 -1.43201e-15 0)
(-1 2.19624e-15 0)
(-1 4.20373e-16 0)
(-1 -4.73512e-16 0)
(-1 -3.67605e-17 0)
(-1 8.42947e-17 0)
(-1 -7.05071e-17 0)
(-1 -4.29757e-17 0)
(-1 -1.89003e-16 0)
(-1 -1.0998e-16 0)
(-1 -5.4265e-17 0)
(-1 -5.86475e-17 0)
(-1 1.06023e-16 0)
(-1 1.03897e-16 0)
(-1 1.53215e-16 0)
(-1 1.67445e-16 0)
(-1 1.12785e-16 0)
(-1 8.83373e-17 0)
(-1 3.8216e-17 0)
(-1 -4.87081e-17 0)
(-1 -2.00506e-17 0)
(-1 -6.02873e-17 0)
(-1 -5.73926e-17 0)
(-1 -4.26247e-17 0)
(-1 -3.69099e-17 0)
(-1 -3.9792e-17 0)
(-1 3.32599e-18 0)
(-1 2.75175e-17 0)
(-1 -5.41965e-19 0)
(-1 6.17249e-17 0)
(-1 -4.32407e-17 0)
(-1 2.06862e-17 0)
(-1 -9.27106e-17 0)
(-1 -4.25479e-17 0)
(-1 -7.91978e-17 0)
(-1 6.36906e-14 0)
(-1 2.37171e-14 0)
(-1 -1.35625e-14 0)
(-1 -5.32202e-15 0)
(-1 3.15474e-15 0)
(-1 1.24991e-15 0)
(-1 -8.0959e-16 0)
(-1 -2.6395e-16 0)
(-1 7.80796e-17 0)
(-1 5.55901e-17 0)
(-1 -8.24489e-17 0)
(-1 -6.14371e-17 0)
(-1 2.03755e-17 0)
(-1 -5.16197e-17 0)
(-1 9.95147e-17 0)
(-1 -8.27553e-17 0)
(-1 1.65319e-16 0)
(-1 -6.10934e-17 0)
(-1 1.02568e-16 0)
(-1 6.08181e-17 0)
(-1 -7.31561e-17 0)
(-1 6.25339e-18 0)
(-1 -1.47211e-16 0)
(-1 -1.9503e-17 0)
(-1 -8.28615e-17 0)
(-1 -2.1498e-17 0)
(-1 -2.50241e-17 0)
(-1 -1.68924e-17 0)
(-1 2.46354e-17 0)
(-1 -1.94184e-17 0)
(-1 8.59164e-17 0)
(-1 3.71596e-17 0)
(-1 8.2953e-17 0)
(-1 6.70367e-18 0)
(-1 2.1379e-17 0)
(-1 -4.53331e-17 0)
(-1 -2.90351e-17 0)
(-1 -4.09043e-17 0)
(-1 -2.74429e-17 0)
(-1 -4.52955e-14 0)
(-1 -6.73333e-14 0)
(-1 9.49035e-15 0)
(-1 1.45614e-14 0)
(-1 -2.16878e-15 0)
(-1 -3.33299e-15 0)
(-1 6.0123e-16 0)
(-1 8.89572e-16 0)
(-1 -8.39265e-17 0)
(-1 -7.46057e-17 0)
(-1 -3.06079e-17 0)
(-1 4.24766e-17 0)
(-1 -1.5475e-16 0)
(-1 -3.89061e-17 0)
(-1 -2.43363e-16 0)
(-1 -2.01782e-16 0)
(-1 -1.65594e-16 0)
(-1 -2.90355e-16 0)
(-1 -3.54965e-17 0)
(-1 -1.49543e-16 0)
(-1 5.99064e-17 0)
(-1 -5.30114e-17 0)
(-1 1.0621e-16 0)
(-1 4.46898e-17 0)
(-1 4.44712e-17 0)
(-1 4.62685e-17 0)
(-1 -1.12866e-17 0)
(-1 2.53135e-17 0)
(-1 -6.89418e-18 0)
(-1 3.32833e-17 0)
(-1 -4.20531e-17 0)
(-1 3.59915e-17 0)
(-1 -1.21582e-16 0)
(-1 -6.6153e-17 0)
(-1 -1.07616e-16 0)
(-1 -1.78389e-16 0)
(-1 -3.93121e-17 0)
(-1 -1.06192e-16 0)
(-1 -1.98233e-17 0)
(-1 -7.47637e-15 0)
(-1 5.34534e-14 0)
(-1 1.73806e-15 0)
(-1 -1.1447e-14 0)
(-1 -2.74636e-16 0)
(-1 2.71502e-15 0)
(-1 2.13737e-16 0)
(-1 -5.85822e-16 0)
(-1 5.17974e-17 0)
(-1 1.2217e-16 0)
(-1 3.41784e-17 0)
(-1 -4.02175e-17 0)
(-1 -8.59373e-17 0)
(-1 3.23099e-17 0)
(-1 -2.48773e-16 0)
(-1 -4.31243e-17 0)
(-1 -2.74303e-16 0)
(-1 -1.36153e-16 0)
(-1 -1.67058e-16 0)
(-1 -1.67809e-16 0)
(-1 -6.8228e-17 0)
(-1 -1.28634e-16 0)
(-1 -1.52522e-17 0)
(-1 -8.34231e-17 0)
(-1 2.71108e-17 0)
(-1 2.32898e-17 0)
(-1 6.98834e-17 0)
(-1 1.11317e-16 0)
(-1 7.6169e-17 0)
(-1 1.02524e-16 0)
(-1 1.18916e-17 0)
(-1 -1.00884e-17 0)
(-1 -1.22959e-16 0)
(-1 -6.41808e-17 0)
(-1 -1.76964e-16 0)
(-1 -1.32015e-16 0)
(-1 -8.67027e-17 0)
(-1 -9.67834e-17 0)
(-1 -2.22762e-17 0)
(-1 4.94828e-14 0)
(-1 3.52697e-14 0)
(-1 -1.047e-14 0)
(-1 -7.80125e-15 0)
(-1 2.40383e-15 0)
(-1 1.7936e-15 0)
(-1 -6.77389e-16 0)
(-1 -5.29902e-16 0)
(-1 3.0155e-17 0)
(-1 -3.46679e-18 0)
(-1 -4.20859e-17 0)
(-1 -7.14052e-17 0)
(-1 7.5123e-17 0)
(-1 1.67715e-17 0)
(-1 6.94953e-17 0)
(-1 2.02978e-17 0)
(-1 -2.96586e-17 0)
(-1 -5.6633e-18 0)
(-1 -1.29385e-16 0)
(-1 -6.30798e-17 0)
(-1 -1.43829e-16 0)
(-1 -6.85651e-17 0)
(-1 -4.48811e-17 0)
(-1 -6.60125e-17 0)
(-1 1.07496e-16 0)
(-1 -1.62888e-17 0)
(-1 1.43957e-16 0)
(-1 8.19091e-17 0)
(-1 1.62667e-17 0)
(-1 4.85857e-17 0)
(-1 -8.61608e-17 0)
(-1 -9.51561e-17 0)
(-1 -7.32365e-17 0)
(-1 -1.30414e-16 0)
(-1 -5.18345e-17 0)
(-1 -3.52723e-17 0)
(-1 -3.23569e-17 0)
(-1 -5.07542e-17 0)
(-1 -3.26964e-17 0)
(-1 -2.20143e-14 0)
(-1 -6.96149e-14 0)
(-1 4.46237e-15 0)
(-1 1.48713e-14 0)
(-1 -1.14013e-15 0)
(-1 -3.52988e-15 0)
(-1 1.4402e-16 0)
(-1 6.70658e-16 0)
(-1 -1.05027e-16 0)
(-1 -2.36835e-16 0)
(-1 -1.25478e-17 0)
(-1 2.55429e-18 0)
(-1 -3.80536e-17 0)
(-1 -2.37432e-17 0)
(-1 -5.48608e-17 0)
(-1 -6.9488e-17 0)
(-1 -3.90845e-17 0)
(-1 -7.3496e-17 0)
(-1 -2.26021e-18 0)
(-1 -6.10092e-17 0)
(-1 9.25152e-18 0)
(-1 -3.44334e-17 0)
(-1 -3.74202e-17 0)
(-1 -9.37416e-17 0)
(-1 -4.18753e-17 0)
(-1 -1.22815e-16 0)
(-1 -1.34625e-17 0)
(-1 -5.38093e-17 0)
(-1 -6.28371e-17 0)
(-1 4.46007e-19 0)
(-1 -1.39409e-16 0)
(-1 -4.41988e-17 0)
(-1 -9.24498e-17 0)
(-1 -1.09231e-16 0)
(-1 -3.4192e-17 0)
(-1 -2.54567e-17 0)
(-1 -5.10937e-17 0)
(-1 -5.33774e-17 0)
(-1 -4.42807e-17 0)
(-1 -3.27293e-14 0)
(-1 6.87902e-15 0)
(-1 -1.71909e-15 0)
(-1 2.89803e-16 0)
(-1 -1.29254e-16 0)
(-1 -8.64113e-18 0)
(-1 -5.51776e-17 0)
(-1 -8.81232e-17 0)
(-1 -9.54207e-17 0)
(-1 -9.31824e-17 0)
(-1 -1.37427e-16 0)
(-1 -1.79137e-16 0)
(-1 -1.34749e-16 0)
(-1 -3.99008e-17 0)
(-1 1.90843e-17 0)
(-1 -1.40204e-17 0)
(-1 -4.22377e-17 0)
(-1 -4.46421e-17 0)
(-1 -4.65644e-17 0)
)
;

boundaryField
{
    movingWall
    {
        type            calculated;
        value           uniform (-1 -0 -0);
    }
    fixedWalls
    {
        type            calculated;
        value           uniform (-1 -0 -0);
    }
    frontAndBack
    {
        type            empty;
        value           nonuniform List<vector> 0();
    }
}


// ************************************************************************* //
