/*--------------------------------*- C++ -*----------------------------------*\
| =========                 |                                                 |
| \\      /  F ield         | OpenFOAM: The Open Source CFD Toolbox           |
|  \\    /   O peration     | Version:  2312                                  |
|   \\  /    A nd           | Website:  www.openfoam.com                      |
|    \\/     M anipulation  |                                                 |
\*---------------------------------------------------------------------------*/
FoamFile
{
    version     2.0;
    format      ascii;
    arch        "LSB;label=32;scalar=64";
    class       surfaceScalarField;
    location    "7";
    object      surfaceDivU;
}
// * * * * * * * * * * * * * * * * * * * * * * * * * * * * * * * * * * * * * //

dimensions      [0 0 -1 0 0 0 0];

internalField   nonuniform List<scalar> 
760
(
7.1581e-12
-7.02021e-12
-7.95226e-13
1.13094e-12
1.33073e-13
-2.25264e-13
-5.74207e-14
1.21339e-13
4.33843e-15
-3.82445e-14
2.09567e-15
1.04704e-14
-7.35681e-15
1.40032e-14
-3.60994e-15
-2.31997e-14
-1.11686e-14
2.6931e-14
-1.18442e-14
-3.50801e-14
3.09331e-15
1.02847e-14
2.16503e-14
-6.00297e-15
1.16704e-14
-1.31596e-15
-3.46958e-14
2.06048e-14
-9.29024e-16
-8.92132e-15
3.58813e-14
1.83239e-14
-6.28812e-15
2.28175e-14
-1.96484e-14
-2.8132e-14
-2.28631e-15
-2.54386e-15
0
-1.30474e-11
-8.41612e-12
1.7009e-12
1.12588e-12
-2.36998e-13
-2.29899e-13
1.40515e-13
6.81172e-14
-3.21124e-14
-9.08882e-16
2.2378e-14
-3.49242e-14
-1.83965e-15
3.61362e-14
7.34128e-15
5.66413e-15
3.0196e-15
2.83164e-14
-1.29511e-14
-3.10883e-14
1.1884e-15
-1.52835e-14
-2.89692e-14
-7.82947e-15
7.61842e-15
-1.55134e-14
4.63794e-14
2.30869e-14
1.03316e-14
1.85649e-14
5.26006e-15
5.76924e-15
9.7355e-16
3.47502e-15
-1.10275e-14
-9.35651e-15
-2.57547e-16
1.8309e-14
-1.35525e-14
5.75714e-12
1.12622e-11
-8.04914e-13
-1.22936e-12
7.52165e-14
2.16535e-13
-7.33068e-14
-1.4345e-13
-3.72067e-15
4.97489e-14
-2.1166e-14
-2.78907e-14
4.364e-14
3.38575e-15
2.66393e-14
9.44174e-15
-5.79149e-15
-1.33279e-14
-3.34207e-14
-1.82408e-14
-2.43014e-14
2.11071e-14
5.62641e-15
4.86341e-15
-4.49018e-17
2.94799e-14
-4.72756e-15
-2.78941e-14
1.40026e-14
1.15391e-14
3.9842e-15
-4.65362e-15
-6.85504e-15
-1.78601e-14
1.99801e-14
5.45282e-15
5.01406e-15
4.78986e-14
-2.8399e-29
4.27565e-12
-5.99022e-12
-2.07914e-13
1.01104e-12
-2.13099e-15
-1.85987e-13
-2.03939e-14
7.1079e-14
2.55788e-14
-1.43983e-14
-3.33896e-15
-4.48956e-15
-3.08125e-14
-5.5116e-15
-3.05255e-14
6.80638e-15
-2.57772e-14
-2.00276e-14
3.6287e-14
-2.10312e-14
5.0272e-14
2.77123e-14
2.87169e-14
5.59814e-15
1.63065e-15
1.53008e-14
-1.16274e-14
-1.5992e-14
-7.11708e-15
1.35733e-14
-2.64979e-14
-1.01485e-14
-5.55224e-15
-9.47344e-15
3.33713e-14
1.29681e-15
4.28845e-14
2.82609e-14
2.52435e-29
-9.25482e-12
-1.6263e-12
1.03297e-12
1.55782e-13
-1.12777e-13
1.43502e-14
7.70746e-14
-1.74821e-14
-4.44667e-14
-1.04381e-14
-6.6622e-15
-2.5381e-14
3.21073e-14
9.8921e-15
1.73042e-14
1.71177e-14
-1.52816e-14
6.18114e-15
-2.96059e-14
-1.41193e-14
-1.69615e-14
-1.00329e-14
-7.81794e-15
1.16662e-15
-2.32186e-15
-7.97542e-15
9.2087e-15
3.36433e-14
1.05418e-14
-3.72188e-15
6.87594e-15
1.08656e-14
-2.62439e-15
4.66746e-15
-3.81363e-15
-7.77241e-15
-1.46236e-14
2.28936e-15
-1.35525e-14
7.7843e-12
9.98821e-12
-8.62833e-13
-1.3088e-12
1.09645e-13
2.99046e-13
-1.04995e-13
-1.28849e-13
8.64754e-15
2.25923e-14
-8.82667e-15
-1.24228e-14
-5.09747e-15
-3.457e-15
5.99463e-15
-9.131e-15
7.34339e-15
-3.95733e-17
5.45374e-15
-7.83797e-15
8.09524e-15
1.24321e-14
1.00914e-15
-4.84981e-15
2.79897e-14
5.67545e-15
2.07127e-14
2.9802e-14
-3.39812e-15
-2.10826e-14
8.6571e-15
1.29322e-15
-4.80565e-16
-7.89934e-15
-1.66942e-15
-1.16886e-14
3.36045e-15
1.07001e-14
0
8.95113e-13
-8.72783e-12
-1.46917e-13
1.21675e-12
6.05511e-14
-2.23106e-13
-1.26221e-15
9.14292e-14
1.52197e-15
-2.23193e-14
-7.0531e-15
-1.34188e-14
-7.49053e-15
6.44825e-15
-1.51652e-14
1.26999e-14
-1.52209e-14
-4.24191e-14
-8.59619e-16
2.34753e-14
-5.12957e-16
1.18083e-14
-1.83495e-16
-2.70213e-14
7.48775e-15
1.20663e-14
-1.19933e-14
9.85132e-15
-1.63913e-14
1.84831e-15
-1.52632e-14
-6.53865e-15
-1.91074e-14
-3.42729e-14
6.80936e-16
1.07122e-14
7.33966e-15
-2.56401e-15
0
-8.40619e-12
-1.38236e-12
1.14056e-12
-1.04823e-13
-1.92227e-13
3.55113e-14
7.03721e-14
-1.93826e-14
-3.72601e-14
-4.13666e-15
8.25256e-17
-2.52647e-14
2.66386e-14
2.72943e-15
-1.45541e-14
2.09962e-14
-3.72285e-15
-2.88527e-14
3.61432e-14
2.5248e-14
-1.47001e-14
2.29926e-15
-1.47715e-14
-1.86241e-14
1.44299e-14
6.71229e-15
2.3693e-14
6.48766e-16
1.1701e-14
1.76046e-14
-2.55483e-14
-4.53919e-15
-4.45334e-15
-2.76337e-14
7.46722e-15
6.78932e-15
-9.90368e-15
-1.0744e-14
0
6.91901e-12
5.84114e-12
-1.20987e-12
-7.91017e-13
2.08356e-13
1.93421e-13
-9.38914e-14
-6.08169e-14
7.85882e-15
9.96045e-15
-2.26178e-14
-2.08942e-14
-2.91298e-15
-1.14528e-14
6.69761e-15
-7.55122e-15
1.18192e-16
-6.20274e-15
-8.59597e-15
-1.1982e-14
-1.62483e-15
-3.07844e-15
2.85963e-15
-8.41048e-15
-7.06885e-15
2.74131e-14
-5.43956e-15
2.07483e-15
1.36447e-15
-1.10352e-14
-6.62457e-15
-4.40887e-15
-1.6391e-14
6.26416e-15
-1.14219e-14
-1.10693e-14
-8.40302e-16
1.37471e-14
-1.35525e-14
-1.86889e-12
-3.00866e-12
6.12277e-13
8.46241e-13
-7.5752e-14
-1.33712e-13
4.30349e-14
5.36193e-14
-1.87925e-14
-9.98446e-16
-9.72917e-15
-6.10842e-15
-1.6091e-14
-1.19151e-14
-2.04516e-14
1.43023e-14
-1.83029e-14
-1.96069e-14
-6.46444e-15
4.95647e-15
-9.86408e-15
1.36904e-14
1.6143e-14
-7.10479e-15
3.65567e-14
2.77561e-14
-3.52083e-15
1.11548e-14
-1.68086e-14
-1.53472e-14
8.47986e-15
-1.03834e-15
1.15859e-14
-1.70297e-14
1.40997e-14
-3.15478e-15
1.03486e-15
1.68749e-14
-1.35525e-14
-2.93532e-13
2.91379e-12
1.00252e-13
-7.90346e-13
-4.34095e-15
1.43242e-13
9.58588e-15
-8.18618e-14
1.16857e-14
5.26151e-14
-8.29434e-15
-2.04008e-14
1.84782e-14
-2.68738e-14
1.5147e-14
1.66993e-14
3.65247e-15
-1.7163e-14
2.51114e-14
1.00871e-14
1.64497e-14
1.77425e-14
4.50839e-15
3.35696e-15
2.35419e-15
-1.42027e-14
-6.71544e-16
5.2708e-15
4.23063e-16
6.36658e-16
-2.65479e-14
3.00749e-14
-3.17704e-14
-2.07304e-14
-3.79568e-16
-6.57196e-15
2.28748e-15
-1.18034e-14
0
2.41698e-12
-5.38035e-12
-7.47356e-13
8.81176e-13
6.57211e-14
-2.21261e-13
-3.88326e-14
9.3117e-14
2.05287e-14
-8.76616e-16
-3.89802e-14
-1.19384e-14
-2.86527e-14
-5.47169e-15
-1.56107e-14
2.57433e-14
-1.07285e-14
-2.52324e-15
2.71817e-15
-2.14183e-14
4.6497e-15
1.63594e-14
-1.53542e-14
1.97435e-15
-1.12861e-14
-2.947e-14
6.579e-15
2.72757e-15
3.02885e-14
8.92644e-15
3.58924e-14
9.53795e-15
4.46807e-15
1.60548e-14
-1.79958e-14
-7.58588e-15
-1.40909e-14
-1.89923e-14
1.35525e-14
-6.91616e-12
1.3146e-12
1.40727e-12
3.0975e-14
-1.93865e-13
-8.5933e-15
1.31073e-13
1.41062e-14
-3.33437e-14
-1.68226e-14
2.15702e-14
1.16338e-15
4.89243e-14
5.11119e-15
3.88307e-14
-1.54763e-16
-1.32131e-14
1.64054e-14
-7.77712e-15
-1.60367e-14
1.3684e-14
-6.81972e-15
-1.21415e-14
-2.63842e-15
-1.54563e-14
2.02549e-14
5.07501e-15
-5.3449e-15
-1.18241e-14
1.57308e-14
-1.02997e-14
-1.52298e-14
4.00085e-15
3.01785e-16
-8.58233e-15
-1.51649e-14
8.65117e-15
-9.15615e-15
1.35525e-14
8.26173e-12
7.52165e-12
-1.38489e-12
-9.57645e-13
1.99378e-13
1.95537e-13
-1.33789e-13
-7.37463e-14
1.76844e-14
-1.31166e-14
-1.52956e-14
1.66638e-14
-4.39678e-14
-2.60747e-15
-2.25801e-14
-4.12453e-14
1.35817e-14
1.78329e-14
-1.50793e-14
-4.27872e-15
-2.31421e-14
9.45907e-15
2.9758e-14
-6.82111e-15
3.03664e-14
5.374e-15
5.31086e-15
-5.95171e-15
1.23251e-14
7.63149e-15
-4.62829e-15
6.46771e-15
-1.88639e-14
2.03954e-14
-1.57387e-14
-2.46469e-15
-4.25479e-15
-8.34522e-15
0
-1.69772e-12
-1.06658e-11
6.22781e-13
1.57446e-12
-7.75872e-14
-3.16729e-13
4.69266e-14
1.30325e-13
-1.41372e-14
-4.25591e-14
2.93519e-14
2.5209e-14
1.15027e-16
-4.97102e-14
-8.32347e-16
-1.49012e-14
-2.75279e-17
3.26178e-14
2.02597e-14
1.82326e-14
2.57801e-14
2.24293e-14
-3.12052e-14
-3.81389e-14
-3.09441e-14
-2.4628e-14
-3.63107e-15
1.43946e-14
1.77412e-15
-1.2166e-14
3.14914e-14
2.08676e-14
3.67946e-14
7.60759e-15
4.92878e-15
4.73288e-15
-4.09043e-15
1.23955e-14
0
-7.39366e-12
2.87314e-12
6.3495e-13
-5.15263e-13
-1.08816e-13
1.14386e-13
4.08391e-14
-3.73876e-14
-3.21291e-15
-8.79611e-15
-5.38531e-14
2.7331e-14
-6.47264e-14
-2.77647e-14
1.8549e-14
-2.44906e-14
5.08779e-14
-1.9932e-15
2.04022e-14
2.2475e-14
-4.14897e-14
-1.81645e-14
-3.15618e-14
9.6792e-15
2.07107e-14
3.40609e-14
5.85967e-15
1.3663e-14
6.92748e-15
-2.70768e-14
-3.01615e-15
1.61428e-14
-2.44542e-14
-2.65859e-14
1.21996e-14
-3.9353e-15
1.64859e-14
3.39126e-14
-1.35525e-14
9.75153e-12
9.03954e-12
-1.03583e-12
-7.18648e-13
1.85815e-13
1.52706e-13
-8.70227e-14
-5.73622e-14
2.17478e-14
-1.68222e-15
5.34194e-14
2.39026e-15
1.24711e-14
3.20132e-14
-4.50328e-14
-1.58352e-14
-3.03962e-14
-2.77342e-14
-1.60917e-14
1.75687e-14
3.30044e-14
-6.16738e-15
7.53018e-14
2.5714e-14
2.70132e-14
7.001e-16
-1.92735e-14
-7.78248e-15
-1.78615e-14
-2.55466e-14
-7.42692e-15
1.65806e-14
-6.06704e-15
-5.90694e-15
1.77778e-14
-3.17619e-15
3.87419e-15
2.59038e-14
-1.35525e-14
-1.43065e-12
-1.12079e-11
4.69885e-13
1.18134e-12
-9.04707e-14
-2.41391e-13
2.79783e-14
8.18383e-14
-2.10397e-14
-2.40302e-14
-1.90159e-14
-6.8851e-15
3.70694e-15
-6.97167e-16
1.46345e-15
8.63351e-15
2.02307e-14
-7.91593e-15
2.74931e-14
1.46962e-14
-1.34578e-14
3.25268e-15
-4.88877e-14
-1.59754e-14
-3.40955e-14
-4.10154e-14
-1.40556e-14
1.63625e-14
8.89549e-15
4.90317e-15
1.81006e-14
1.31696e-14
-3.0161e-15
-1.04119e-14
4.94987e-15
-6.0729e-15
8.4771e-15
3.13936e-15
0
-8.59595e-12
-2.77827e-12
4.70065e-13
-8.49661e-14
-6.90815e-14
4.00355e-14
2.98298e-14
-6.9684e-16
-9.87556e-15
-1.0131e-14
1.14336e-14
1.3808e-14
4.2294e-15
1.11782e-14
-7.45875e-16
6.60373e-15
-1.34505e-14
-7.3496e-15
-9.54426e-15
-1.96534e-14
7.35023e-16
1.01092e-14
-8.10315e-15
4.17836e-15
9.44262e-15
-1.22815e-14
3.53213e-14
8.1716e-15
9.17724e-15
1.35971e-14
-1.5343e-14
-4.41988e-15
-1.34687e-14
-1.09231e-14
-7.88341e-15
-2.54567e-15
-5.33774e-15
8.21479e-15
-1.35525e-14
5.73272e-12
-5.14996e-13
1.0842e-13
-4.06576e-14
1.35525e-14
1.35525e-14
1.35525e-14
0
-1.35525e-14
-7.25752e-29
1.35525e-14
0
-1.35525e-14
-1.35525e-14
0
0
0
1.35525e-14
-1.67239e-28
)
;

boundaryField
{
    movingWall
    {
        type            calculated;
        value           nonuniform List<scalar> 
20
(
1.28207e-11
-1.35525e-12
3.25261e-13
-1.0842e-13
2.71051e-14
0
2.71051e-14
0
0
-2.71051e-14
2.71051e-14
0
0
-2.71051e-14
0
0
0
0
2.71051e-14
-2.71051e-14
)
;
    }
    fixedWalls
    {
        type            calculated;
        value           nonuniform List<scalar> 
60
(
1.62901e-11
-3.03306e-11
1.34983e-11
9.02598e-12
-2.10064e-11
1.77538e-11
2.22261e-12
-1.96783e-11
1.69136e-11
-5.23128e-12
-7.86047e-13
6.61363e-12
-1.73743e-11
2.00035e-11
-4.96022e-12
-1.63715e-11
2.21177e-11
-4.03865e-12
-1.83772e-11
1.28207e-11
0
0
-2.71051e-14
2.71051e-14
-2.71051e-14
0
0
0
0
-2.71051e-14
0
0
2.71051e-14
0
0
0
-2.71051e-14
0
0
-2.71051e-14
1.62901e-11
-1.97393e-12
3.83476e-13
-1.1733e-13
2.48886e-15
6.18801e-15
-1.99666e-15
-1.2717e-14
5.49708e-15
-2.78344e-14
4.1459e-15
2.04072e-15
4.12599e-14
-1.7919e-14
-5.14727e-14
4.96147e-14
2.21479e-14
-3.47241e-14
-4.57262e-15
0
)
;
    }
    frontAndBack
    {
        type            empty;
        value           nonuniform List<scalar> 0();
    }
}


// ************************************************************************* //
