/*--------------------------------*- C++ -*----------------------------------*\
| =========                 |                                                 |
| \\      /  F ield         | OpenFOAM: The Open Source CFD Toolbox           |
|  \\    /   O peration     | Version:  2312                                  |
|   \\  /    A nd           | Website:  www.openfoam.com                      |
|    \\/     M anipulation  |                                                 |
\*---------------------------------------------------------------------------*/
FoamFile
{
    version     2.0;
    format      ascii;
    arch        "LSB;label=32;scalar=64";
    class       surfaceScalarField;
    location    "7";
    object      surfaceK;
}
// * * * * * * * * * * * * * * * * * * * * * * * * * * * * * * * * * * * * * //

dimensions      [0 2 -2 0 0 0 0];

internalField   nonuniform List<scalar> 
760
(
5.78461e-06
5.87561e-06
5.7846e-06
5.87561e-06
5.7846e-06
5.87547e-06
5.7846e-06
5.87542e-06
5.78459e-06
5.87532e-06
5.78459e-06
5.87528e-06
5.78459e-06
5.87519e-06
5.78459e-06
5.87515e-06
5.78459e-06
5.87508e-06
5.78458e-06
5.87505e-06
5.78458e-06
5.875e-06
5.78458e-06
5.87496e-06
5.78458e-06
5.87493e-06
5.78458e-06
5.8749e-06
5.78458e-06
5.87487e-06
5.78458e-06
5.87485e-06
5.78458e-06
5.87484e-06
5.78458e-06
5.87483e-06
5.78458e-06
5.87482e-06
5.87482e-06
5.96661e-06
6.10272e-06
5.96648e-06
6.10272e-06
5.96629e-06
6.10244e-06
5.96615e-06
6.10232e-06
5.96601e-06
6.10213e-06
5.96588e-06
6.10203e-06
5.96576e-06
6.10185e-06
5.96565e-06
6.10178e-06
5.96554e-06
6.10163e-06
5.96546e-06
6.10156e-06
5.96538e-06
6.10144e-06
5.9653e-06
6.10138e-06
5.96524e-06
6.10129e-06
5.96519e-06
6.10125e-06
5.96514e-06
6.10118e-06
5.96511e-06
6.10115e-06
5.96509e-06
6.10111e-06
5.96507e-06
6.1011e-06
5.96506e-06
6.10108e-06
6.10108e-06
6.23882e-06
6.37159e-06
6.23868e-06
6.37159e-06
6.23847e-06
6.37128e-06
6.23831e-06
6.37115e-06
6.23816e-06
6.37095e-06
6.23801e-06
6.37084e-06
6.23787e-06
6.37063e-06
6.23775e-06
6.37056e-06
6.23764e-06
6.37038e-06
6.23754e-06
6.37032e-06
6.23745e-06
6.37018e-06
6.23737e-06
6.37013e-06
6.2373e-06
6.37002e-06
6.23724e-06
6.36998e-06
6.23719e-06
6.3699e-06
6.23716e-06
6.36987e-06
6.23713e-06
6.36982e-06
6.23711e-06
6.36981e-06
6.2371e-06
6.36979e-06
6.36979e-06
6.50435e-06
6.60766e-06
6.50419e-06
6.60765e-06
6.50396e-06
6.60732e-06
6.50379e-06
6.60718e-06
6.50362e-06
6.60695e-06
6.50347e-06
6.60684e-06
6.50332e-06
6.60662e-06
6.50319e-06
6.60654e-06
6.50306e-06
6.60635e-06
6.50296e-06
6.60628e-06
6.50286e-06
6.60613e-06
6.50277e-06
6.60608e-06
6.5027e-06
6.60596e-06
6.50263e-06
6.60592e-06
6.50258e-06
6.60583e-06
6.50254e-06
6.60581e-06
6.50251e-06
6.60575e-06
6.50249e-06
6.60574e-06
6.50248e-06
6.60572e-06
6.60572e-06
6.71095e-06
6.78103e-06
6.71078e-06
6.78103e-06
6.71054e-06
6.78068e-06
6.71035e-06
6.78054e-06
6.71017e-06
6.7803e-06
6.71e-06
6.78018e-06
6.70984e-06
6.77994e-06
6.70971e-06
6.77987e-06
6.70957e-06
6.77966e-06
6.70946e-06
6.77959e-06
6.70935e-06
6.77943e-06
6.70926e-06
6.77937e-06
6.70918e-06
6.77925e-06
6.70912e-06
6.77921e-06
6.70906e-06
6.77911e-06
6.70902e-06
6.77909e-06
6.70898e-06
6.77903e-06
6.70897e-06
6.77902e-06
6.70896e-06
6.779e-06
6.77899e-06
6.85111e-06
6.89511e-06
6.85094e-06
6.89511e-06
6.85069e-06
6.89475e-06
6.85049e-06
6.8946e-06
6.85031e-06
6.89435e-06
6.85013e-06
6.89424e-06
6.84997e-06
6.89399e-06
6.84982e-06
6.89392e-06
6.84968e-06
6.89369e-06
6.84956e-06
6.89363e-06
6.84945e-06
6.89345e-06
6.84936e-06
6.8934e-06
6.84927e-06
6.89326e-06
6.8492e-06
6.89323e-06
6.84914e-06
6.89312e-06
6.8491e-06
6.8931e-06
6.84906e-06
6.89304e-06
6.84905e-06
6.89303e-06
6.84903e-06
6.89301e-06
6.893e-06
6.93911e-06
6.96612e-06
6.93893e-06
6.96612e-06
6.93867e-06
6.96574e-06
6.93847e-06
6.96559e-06
6.93828e-06
6.96534e-06
6.9381e-06
6.9652e-06
6.93793e-06
6.96498e-06
6.93778e-06
6.96487e-06
6.93764e-06
6.96468e-06
6.93752e-06
6.96458e-06
6.9374e-06
6.96443e-06
6.93731e-06
6.96436e-06
6.93722e-06
6.96424e-06
6.93715e-06
6.96418e-06
6.93709e-06
6.96409e-06
6.93704e-06
6.96406e-06
6.937e-06
6.964e-06
6.93699e-06
6.96398e-06
6.93697e-06
6.96396e-06
6.96396e-06
6.99312e-06
7.01037e-06
6.99293e-06
7.01036e-06
6.99266e-06
7.00999e-06
6.99246e-06
7.00983e-06
6.99226e-06
7.00958e-06
6.99208e-06
7.00943e-06
6.99191e-06
7.00921e-06
6.99176e-06
7.0091e-06
6.99162e-06
7.00891e-06
6.9915e-06
7.00881e-06
6.99139e-06
7.00866e-06
6.99129e-06
7.00858e-06
6.9912e-06
7.00846e-06
6.99112e-06
7.0084e-06
6.99106e-06
7.00831e-06
6.99102e-06
7.00827e-06
6.99098e-06
7.00822e-06
6.99096e-06
7.0082e-06
6.99095e-06
7.00818e-06
7.00818e-06
7.02761e-06
7.03983e-06
7.02742e-06
7.03983e-06
7.02715e-06
7.03945e-06
7.02694e-06
7.03929e-06
7.02675e-06
7.03904e-06
7.02656e-06
7.03891e-06
7.02639e-06
7.03866e-06
7.02624e-06
7.03857e-06
7.02609e-06
7.03834e-06
7.02597e-06
7.03828e-06
7.02585e-06
7.0381e-06
7.02575e-06
7.03804e-06
7.02566e-06
7.0379e-06
7.02559e-06
7.03786e-06
7.02553e-06
7.03775e-06
7.02548e-06
7.03773e-06
7.02544e-06
7.03767e-06
7.02543e-06
7.03765e-06
7.02541e-06
7.03763e-06
7.03763e-06
7.05206e-06
7.06206e-06
7.05186e-06
7.06206e-06
7.05159e-06
7.06167e-06
7.05139e-06
7.06152e-06
7.05119e-06
7.06125e-06
7.051e-06
7.06112e-06
7.05083e-06
7.06088e-06
7.05067e-06
7.06078e-06
7.05053e-06
7.06056e-06
7.0504e-06
7.06049e-06
7.05029e-06
7.06031e-06
7.05019e-06
7.06025e-06
7.0501e-06
7.06012e-06
7.05002e-06
7.06007e-06
7.04996e-06
7.05997e-06
7.04991e-06
7.05994e-06
7.04987e-06
7.05988e-06
7.04986e-06
7.05986e-06
7.04984e-06
7.05984e-06
7.05984e-06
7.07206e-06
7.08142e-06
7.07187e-06
7.08142e-06
7.0716e-06
7.08104e-06
7.07139e-06
7.08089e-06
7.07119e-06
7.0806e-06
7.071e-06
7.08049e-06
7.07083e-06
7.08023e-06
7.07067e-06
7.08014e-06
7.07052e-06
7.07992e-06
7.0704e-06
7.07984e-06
7.07028e-06
7.07966e-06
7.07018e-06
7.0796e-06
7.07009e-06
7.07947e-06
7.07001e-06
7.07942e-06
7.06995e-06
7.07932e-06
7.0699e-06
7.07929e-06
7.06987e-06
7.07923e-06
7.06985e-06
7.07921e-06
7.06984e-06
7.07919e-06
7.07919e-06
7.09078e-06
7.10041e-06
7.09059e-06
7.10041e-06
7.09033e-06
7.10001e-06
7.0901e-06
7.09986e-06
7.0899e-06
7.09958e-06
7.08972e-06
7.09946e-06
7.08954e-06
7.09921e-06
7.08939e-06
7.09911e-06
7.08924e-06
7.0989e-06
7.08911e-06
7.09881e-06
7.08899e-06
7.09864e-06
7.08889e-06
7.09857e-06
7.0888e-06
7.09844e-06
7.08873e-06
7.09839e-06
7.08866e-06
7.0983e-06
7.08862e-06
7.09826e-06
7.08858e-06
7.0982e-06
7.08856e-06
7.09818e-06
7.08855e-06
7.09816e-06
7.09816e-06
7.11003e-06
7.12044e-06
7.10983e-06
7.12044e-06
7.10955e-06
7.12004e-06
7.10935e-06
7.11989e-06
7.10914e-06
7.11963e-06
7.10896e-06
7.11948e-06
7.10878e-06
7.11925e-06
7.10862e-06
7.11914e-06
7.10847e-06
7.11893e-06
7.10834e-06
7.11884e-06
7.10822e-06
7.11867e-06
7.10812e-06
7.11859e-06
7.10803e-06
7.11847e-06
7.10796e-06
7.11841e-06
7.10789e-06
7.11832e-06
7.10785e-06
7.11828e-06
7.10781e-06
7.11823e-06
7.10779e-06
7.1182e-06
7.10778e-06
7.11819e-06
7.11818e-06
7.13085e-06
7.14235e-06
7.13065e-06
7.14235e-06
7.13038e-06
7.14195e-06
7.13017e-06
7.14179e-06
7.12997e-06
7.14153e-06
7.12978e-06
7.14138e-06
7.12961e-06
7.14115e-06
7.12944e-06
7.14103e-06
7.12929e-06
7.14083e-06
7.12917e-06
7.14073e-06
7.12904e-06
7.14057e-06
7.12894e-06
7.14048e-06
7.12885e-06
7.14037e-06
7.12877e-06
7.1403e-06
7.12871e-06
7.14021e-06
7.12866e-06
7.14017e-06
7.12862e-06
7.14012e-06
7.1286e-06
7.1401e-06
7.12859e-06
7.14008e-06
7.14007e-06
7.15385e-06
7.1664e-06
7.15364e-06
7.1664e-06
7.15336e-06
7.166e-06
7.15315e-06
7.16584e-06
7.15294e-06
7.16557e-06
7.15276e-06
7.16542e-06
7.15258e-06
7.1652e-06
7.15242e-06
7.16506e-06
7.15227e-06
7.16488e-06
7.15213e-06
7.16477e-06
7.15201e-06
7.16461e-06
7.15191e-06
7.16452e-06
7.15182e-06
7.1644e-06
7.15174e-06
7.16434e-06
7.15168e-06
7.16425e-06
7.15163e-06
7.16421e-06
7.15159e-06
7.16416e-06
7.15157e-06
7.16413e-06
7.15156e-06
7.16412e-06
7.16411e-06
7.17896e-06
7.19209e-06
7.17876e-06
7.19209e-06
7.17848e-06
7.19169e-06
7.17826e-06
7.19153e-06
7.17805e-06
7.19125e-06
7.17786e-06
7.19111e-06
7.17768e-06
7.19087e-06
7.17753e-06
7.19075e-06
7.17738e-06
7.19055e-06
7.17724e-06
7.19045e-06
7.17712e-06
7.19028e-06
7.17702e-06
7.19021e-06
7.17692e-06
7.19007e-06
7.17685e-06
7.19001e-06
7.17678e-06
7.18992e-06
7.17673e-06
7.18988e-06
7.1767e-06
7.18983e-06
7.17668e-06
7.18981e-06
7.17666e-06
7.18979e-06
7.18978e-06
7.20522e-06
7.21774e-06
7.20502e-06
7.21774e-06
7.20474e-06
7.21734e-06
7.20452e-06
7.21718e-06
7.20431e-06
7.2169e-06
7.20412e-06
7.21676e-06
7.20394e-06
7.21651e-06
7.20377e-06
7.21641e-06
7.20362e-06
7.21618e-06
7.20349e-06
7.2161e-06
7.20336e-06
7.21592e-06
7.20326e-06
7.21584e-06
7.20317e-06
7.21572e-06
7.20309e-06
7.21565e-06
7.20303e-06
7.21556e-06
7.20298e-06
7.21552e-06
7.20294e-06
7.21547e-06
7.20292e-06
7.21545e-06
7.20291e-06
7.21543e-06
7.21542e-06
7.23027e-06
7.24034e-06
7.23007e-06
7.24034e-06
7.22978e-06
7.23994e-06
7.22956e-06
7.23978e-06
7.22935e-06
7.23951e-06
7.22916e-06
7.23938e-06
7.22898e-06
7.23911e-06
7.22881e-06
7.23903e-06
7.22866e-06
7.23879e-06
7.22853e-06
7.23872e-06
7.2284e-06
7.23853e-06
7.2283e-06
7.23847e-06
7.22821e-06
7.23833e-06
7.22813e-06
7.23828e-06
7.22806e-06
7.23817e-06
7.22801e-06
7.23814e-06
7.22797e-06
7.23808e-06
7.22795e-06
7.23806e-06
7.22794e-06
7.23804e-06
7.23803e-06
7.25041e-06
7.25499e-06
7.25021e-06
7.25499e-06
7.24994e-06
7.25479e-06
7.24973e-06
7.25471e-06
7.24953e-06
7.25458e-06
7.24933e-06
7.25451e-06
7.24916e-06
7.25437e-06
7.249e-06
7.25434e-06
7.24885e-06
7.25421e-06
7.24872e-06
7.25418e-06
7.2486e-06
7.25408e-06
7.24849e-06
7.25406e-06
7.2484e-06
7.25398e-06
7.24832e-06
7.25396e-06
7.24825e-06
7.2539e-06
7.24821e-06
7.25389e-06
7.24817e-06
7.25386e-06
7.24815e-06
7.25385e-06
7.24813e-06
7.25384e-06
7.25384e-06
7.25957e-06
7.25957e-06
7.25956e-06
7.25956e-06
7.25956e-06
7.25955e-06
7.25955e-06
7.25955e-06
7.25955e-06
7.25954e-06
7.25954e-06
7.25954e-06
7.25954e-06
7.25954e-06
7.25954e-06
7.25954e-06
7.25954e-06
7.25954e-06
7.25954e-06
)
;

boundaryField
{
    movingWall
    {
        type            calculated;
        value           nonuniform List<scalar> 
20
(
7.25958e-06
7.25957e-06
7.25957e-06
7.25956e-06
7.25956e-06
7.25955e-06
7.25955e-06
7.25955e-06
7.25955e-06
7.25955e-06
7.25954e-06
7.25954e-06
7.25954e-06
7.25954e-06
7.25954e-06
7.25954e-06
7.25954e-06
7.25954e-06
7.25954e-06
7.25954e-06
)
;
    }
    fixedWalls
    {
        type            calculated;
        value           nonuniform List<scalar> 
60
(
5.78461e-06
5.96661e-06
6.23882e-06
6.50435e-06
6.71096e-06
6.85111e-06
6.93911e-06
6.99313e-06
7.02761e-06
7.05206e-06
7.07206e-06
7.09079e-06
7.11003e-06
7.13085e-06
7.15384e-06
7.17896e-06
7.20522e-06
7.23027e-06
7.25041e-06
7.25958e-06
5.78458e-06
5.96506e-06
6.2371e-06
6.50248e-06
6.70895e-06
6.84903e-06
6.93697e-06
6.99094e-06
7.02541e-06
7.04984e-06
7.06983e-06
7.08854e-06
7.10777e-06
7.12859e-06
7.15156e-06
7.17666e-06
7.2029e-06
7.22794e-06
7.24813e-06
7.25954e-06
5.78461e-06
5.7846e-06
5.7846e-06
5.7846e-06
5.78459e-06
5.78459e-06
5.78459e-06
5.78459e-06
5.78458e-06
5.78459e-06
5.78458e-06
5.78459e-06
5.78458e-06
5.78458e-06
5.78458e-06
5.78458e-06
5.78458e-06
5.78458e-06
5.78458e-06
5.78458e-06
)
;
    }
    frontAndBack
    {
        type            empty;
        value           nonuniform List<scalar> 0();
    }
}


// ************************************************************************* //
