/*--------------------------------*- C++ -*----------------------------------*\
| =========                 |                                                 |
| \\      /  F ield         | OpenFOAM: The Open Source CFD Toolbox           |
|  \\    /   O peration     | Version:  2312                                  |
|   \\  /    A nd           | Website:  www.openfoam.com                      |
|    \\/     M anipulation  |                                                 |
\*---------------------------------------------------------------------------*/
FoamFile
{
    version     2.0;
    format      ascii;
    arch        "LSB;label=32;scalar=64";
    class       volScalarField;
    location    "7";
    object      turbulenceProperties:epsilon;
}
// * * * * * * * * * * * * * * * * * * * * * * * * * * * * * * * * * * * * * //

dimensions      [0 2 -3 0 0 0 0];

internalField   nonuniform List<scalar> 
400
(
2.23655e-06
2.23655e-06
2.23654e-06
2.23655e-06
2.23654e-06
2.23655e-06
2.23653e-06
2.23654e-06
2.23653e-06
2.23654e-06
2.23653e-06
2.23654e-06
2.23653e-06
2.23654e-06
2.23653e-06
2.23654e-06
2.23653e-06
2.23653e-06
2.23653e-06
2.23653e-06
2.34316e-06
2.30913e-06
2.31198e-06
2.31316e-06
2.31554e-06
2.31674e-06
2.31913e-06
2.32036e-06
2.32276e-06
2.32402e-06
2.32642e-06
2.32773e-06
2.33013e-06
2.33148e-06
2.33388e-06
2.33528e-06
2.33767e-06
2.33912e-06
2.34032e-06
2.34225e-06
2.50564e-06
2.46783e-06
2.47104e-06
2.47237e-06
2.47504e-06
2.47638e-06
2.47907e-06
2.48043e-06
2.48312e-06
2.48451e-06
2.4872e-06
2.48862e-06
2.4913e-06
2.49277e-06
2.49544e-06
2.49695e-06
2.4996e-06
2.50116e-06
2.50249e-06
2.5046e-06
2.66753e-06
2.62641e-06
2.62991e-06
2.63135e-06
2.63425e-06
2.63571e-06
2.63863e-06
2.6401e-06
2.64303e-06
2.64454e-06
2.64746e-06
2.64901e-06
2.65192e-06
2.65352e-06
2.65642e-06
2.65807e-06
2.66095e-06
2.66265e-06
2.66408e-06
2.66638e-06
2.79577e-06
2.75195e-06
2.75567e-06
2.75721e-06
2.76029e-06
2.76184e-06
2.76495e-06
2.76653e-06
2.76964e-06
2.77125e-06
2.77436e-06
2.77602e-06
2.77912e-06
2.78082e-06
2.78391e-06
2.78566e-06
2.78873e-06
2.79055e-06
2.79208e-06
2.79452e-06
2.88389e-06
2.83817e-06
2.84204e-06
2.84365e-06
2.84687e-06
2.84849e-06
2.85173e-06
2.85337e-06
2.85662e-06
2.8583e-06
2.86154e-06
2.86327e-06
2.8665e-06
2.86828e-06
2.8715e-06
2.87333e-06
2.87653e-06
2.87842e-06
2.88002e-06
2.88257e-06
2.93966e-06
2.89272e-06
2.89671e-06
2.89835e-06
2.90166e-06
2.90331e-06
2.90664e-06
2.90832e-06
2.91166e-06
2.91338e-06
2.91671e-06
2.91848e-06
2.9218e-06
2.92363e-06
2.92693e-06
2.92881e-06
2.9321e-06
2.93404e-06
2.93568e-06
2.9383e-06
2.97406e-06
2.92637e-06
2.93042e-06
2.93209e-06
2.93545e-06
2.93713e-06
2.94051e-06
2.94222e-06
2.94561e-06
2.94736e-06
2.95074e-06
2.95254e-06
2.95591e-06
2.95777e-06
2.96112e-06
2.96303e-06
2.96637e-06
2.96834e-06
2.97001e-06
2.97267e-06
2.9961e-06
2.94793e-06
2.95201e-06
2.9537e-06
2.95709e-06
2.95879e-06
2.96221e-06
2.96393e-06
2.96736e-06
2.96912e-06
2.97254e-06
2.97436e-06
2.97776e-06
2.97964e-06
2.98302e-06
2.98496e-06
2.98833e-06
2.99032e-06
2.992e-06
2.99469e-06
3.01176e-06
2.96325e-06
2.96736e-06
2.96906e-06
2.97247e-06
2.97418e-06
2.97762e-06
2.97936e-06
2.98281e-06
2.98459e-06
2.98803e-06
2.98986e-06
2.99329e-06
2.99517e-06
2.99858e-06
3.00053e-06
3.00393e-06
3.00593e-06
3.00763e-06
3.01033e-06
3.02459e-06
2.9758e-06
2.97993e-06
2.98164e-06
2.98508e-06
2.9868e-06
2.99026e-06
2.99201e-06
2.99547e-06
2.99726e-06
3.00072e-06
3.00256e-06
3.00601e-06
3.00791e-06
3.01134e-06
3.0133e-06
3.01671e-06
3.01873e-06
3.02043e-06
3.02315e-06
3.03662e-06
2.98757e-06
2.99172e-06
2.99344e-06
2.99689e-06
2.99863e-06
3.0021e-06
3.00386e-06
3.00734e-06
3.00914e-06
3.01262e-06
3.01447e-06
3.01794e-06
3.01985e-06
3.0233e-06
3.02526e-06
3.0287e-06
3.03073e-06
3.03244e-06
3.03517e-06
3.049e-06
2.99968e-06
3.00386e-06
3.00559e-06
3.00906e-06
3.0108e-06
3.01429e-06
3.01606e-06
3.01956e-06
3.02137e-06
3.02487e-06
3.02673e-06
3.03021e-06
3.03213e-06
3.0356e-06
3.03758e-06
3.04103e-06
3.04307e-06
3.04479e-06
3.04754e-06
3.06242e-06
3.01281e-06
3.01701e-06
3.01875e-06
3.02224e-06
3.02399e-06
3.02751e-06
3.02929e-06
3.03281e-06
3.03463e-06
3.03815e-06
3.04002e-06
3.04352e-06
3.04545e-06
3.04894e-06
3.05093e-06
3.0544e-06
3.05646e-06
3.05819e-06
3.06095e-06
3.07725e-06
3.02733e-06
3.03156e-06
3.0333e-06
3.03682e-06
3.03858e-06
3.04212e-06
3.04391e-06
3.04745e-06
3.04928e-06
3.05282e-06
3.05471e-06
3.05823e-06
3.06018e-06
3.06369e-06
3.06569e-06
3.06918e-06
3.07125e-06
3.07299e-06
3.07578e-06
3.09349e-06
3.04322e-06
3.04747e-06
3.04923e-06
3.05277e-06
3.05455e-06
3.05811e-06
3.05991e-06
3.06348e-06
3.06532e-06
3.06889e-06
3.07079e-06
3.07434e-06
3.07629e-06
3.07983e-06
3.08185e-06
3.08537e-06
3.08744e-06
3.0892e-06
3.092e-06
3.1105e-06
3.05986e-06
3.06415e-06
3.06592e-06
3.06948e-06
3.07127e-06
3.07486e-06
3.07667e-06
3.08027e-06
3.08213e-06
3.08572e-06
3.08763e-06
3.09121e-06
3.09318e-06
3.09674e-06
3.09877e-06
3.10231e-06
3.10441e-06
3.10618e-06
3.109e-06
3.12676e-06
3.07578e-06
3.08009e-06
3.08188e-06
3.08546e-06
3.08726e-06
3.09087e-06
3.0927e-06
3.09632e-06
3.09819e-06
3.1018e-06
3.10373e-06
3.10733e-06
3.10931e-06
3.1129e-06
3.11495e-06
3.11851e-06
3.12062e-06
3.1224e-06
3.12525e-06
3.13986e-06
3.08959e-06
3.09377e-06
3.0955e-06
3.09899e-06
3.10075e-06
3.10427e-06
3.10606e-06
3.10961e-06
3.11146e-06
3.11501e-06
3.11693e-06
3.12047e-06
3.12247e-06
3.126e-06
3.12808e-06
3.1316e-06
3.13376e-06
3.13552e-06
3.13837e-06
3.14582e-06
3.14582e-06
3.14582e-06
3.14581e-06
3.14581e-06
3.14581e-06
3.14581e-06
3.1458e-06
3.1458e-06
3.1458e-06
3.1458e-06
3.1458e-06
3.1458e-06
3.1458e-06
3.1458e-06
3.1458e-06
3.1458e-06
3.1458e-06
3.1458e-06
3.1458e-06
)
;

boundaryField
{
    movingWall
    {
        type            epsilonWallFunction;
        blending        stepwise;
        value           nonuniform List<scalar> 
20
(
3.14582e-06
3.14582e-06
3.14582e-06
3.14581e-06
3.14581e-06
3.14581e-06
3.14581e-06
3.1458e-06
3.1458e-06
3.1458e-06
3.1458e-06
3.1458e-06
3.1458e-06
3.1458e-06
3.1458e-06
3.1458e-06
3.1458e-06
3.1458e-06
3.1458e-06
3.1458e-06
)
;
    }
    fixedWalls
    {
        type            epsilonWallFunction;
        blending        stepwise;
        value           nonuniform List<scalar> 
60
(
2.23655e-06
2.34316e-06
2.50564e-06
2.66753e-06
2.79577e-06
2.88389e-06
2.93966e-06
2.97406e-06
2.9961e-06
3.01176e-06
3.02459e-06
3.03662e-06
3.049e-06
3.06242e-06
3.07725e-06
3.09349e-06
3.1105e-06
3.12676e-06
3.13986e-06
3.14582e-06
2.23653e-06
2.34225e-06
2.5046e-06
2.66638e-06
2.79452e-06
2.88257e-06
2.9383e-06
2.97267e-06
2.99469e-06
3.01033e-06
3.02315e-06
3.03517e-06
3.04754e-06
3.06095e-06
3.07578e-06
3.092e-06
3.109e-06
3.12525e-06
3.13837e-06
3.1458e-06
2.23655e-06
2.23655e-06
2.23654e-06
2.23655e-06
2.23654e-06
2.23655e-06
2.23653e-06
2.23654e-06
2.23653e-06
2.23654e-06
2.23653e-06
2.23654e-06
2.23653e-06
2.23654e-06
2.23653e-06
2.23654e-06
2.23653e-06
2.23653e-06
2.23653e-06
2.23653e-06
)
;
    }
    frontAndBack
    {
        type            empty;
    }
}


// ************************************************************************* //
