/*--------------------------------*- C++ -*----------------------------------*\
| =========                 |                                                 |
| \\      /  F ield         | OpenFOAM: The Open Source CFD Toolbox           |
|  \\    /   O peration     | Version:  2312                                  |
|   \\  /    A nd           | Website:  www.openfoam.com                      |
|    \\/     M anipulation  |                                                 |
\*---------------------------------------------------------------------------*/
FoamFile
{
    version     2.0;
    format      ascii;
    arch        "LSB;label=32;scalar=64";
    class       volScalarField;
    location    "7";
    object      turbulenceProperties:I;
}
// * * * * * * * * * * * * * * * * * * * * * * * * * * * * * * * * * * * * * //

dimensions      [0 0 0 0 0 0 0];

internalField   nonuniform List<scalar> 
400
(
0.00196377
0.00196377
0.00196377
0.00196377
0.00196377
0.00196377
0.00196377
0.00196377
0.00196377
0.00196377
0.00196377
0.00196377
0.00196377
0.00196377
0.00196377
0.00196377
0.00196377
0.00196377
0.00196377
0.00196377
0.00199443
0.00199443
0.00199438
0.00199437
0.00199433
0.00199432
0.00199429
0.00199428
0.00199426
0.00199424
0.00199423
0.00199421
0.0019942
0.00199419
0.00199419
0.00199418
0.00199417
0.00199417
0.00199417
0.00199417
0.00203942
0.00203941
0.00203937
0.00203935
0.00203932
0.0020393
0.00203927
0.00203925
0.00203923
0.00203922
0.0020392
0.00203919
0.00203917
0.00203916
0.00203915
0.00203915
0.00203914
0.00203914
0.00203913
0.00203913
0.00208236
0.00208236
0.00208231
0.00208229
0.00208226
0.00208224
0.0020822
0.00208219
0.00208216
0.00208215
0.00208213
0.00208212
0.0020821
0.0020821
0.00208208
0.00208208
0.00208207
0.00208207
0.00208206
0.00208206
0.00211518
0.00211518
0.00211512
0.0021151
0.00211506
0.00211504
0.00211501
0.00211499
0.00211496
0.00211495
0.00211493
0.00211492
0.0021149
0.00211489
0.00211488
0.00211487
0.00211487
0.00211486
0.00211486
0.00211486
0.00213715
0.00213715
0.0021371
0.00213707
0.00213703
0.00213702
0.00213698
0.00213697
0.00213693
0.00213692
0.00213689
0.00213689
0.00213687
0.00213686
0.00213684
0.00213684
0.00213683
0.00213683
0.00213683
0.00213683
0.00215083
0.00215083
0.00215077
0.00215075
0.00215071
0.00215069
0.00215065
0.00215064
0.00215061
0.0021506
0.00215057
0.00215056
0.00215054
0.00215054
0.00215052
0.00215052
0.00215051
0.0021505
0.0021505
0.0021505
0.00215919
0.00215919
0.00215913
0.0021591
0.00215907
0.00215904
0.00215901
0.00215899
0.00215896
0.00215894
0.00215893
0.00215891
0.00215889
0.00215888
0.00215887
0.00215886
0.00215886
0.00215885
0.00215885
0.00215885
0.0021645
0.0021645
0.00216444
0.00216442
0.00216438
0.00216436
0.00216432
0.00216431
0.00216427
0.00216426
0.00216424
0.00216423
0.00216421
0.0021642
0.00216418
0.00216418
0.00216417
0.00216417
0.00216417
0.00216416
0.00216826
0.00216826
0.0021682
0.00216818
0.00216814
0.00216812
0.00216808
0.00216807
0.00216803
0.00216802
0.002168
0.00216799
0.00216797
0.00216796
0.00216794
0.00216794
0.00216793
0.00216793
0.00216792
0.00216792
0.00217134
0.00217134
0.00217128
0.00217126
0.00217121
0.00217119
0.00217116
0.00217114
0.00217111
0.0021711
0.00217107
0.00217106
0.00217104
0.00217103
0.00217102
0.00217101
0.002171
0.002171
0.002171
0.002171
0.00217421
0.00217421
0.00217415
0.00217413
0.00217408
0.00217407
0.00217403
0.00217401
0.00217398
0.00217397
0.00217394
0.00217393
0.00217391
0.0021739
0.00217389
0.00217388
0.00217387
0.00217387
0.00217387
0.00217387
0.00217716
0.00217716
0.0021771
0.00217707
0.00217703
0.00217701
0.00217698
0.00217696
0.00217693
0.00217691
0.00217689
0.00217688
0.00217686
0.00217685
0.00217684
0.00217683
0.00217682
0.00217682
0.00217681
0.00217681
0.00218034
0.00218034
0.00218029
0.00218026
0.00218022
0.0021802
0.00218016
0.00218015
0.00218011
0.0021801
0.00218007
0.00218006
0.00218004
0.00218003
0.00218002
0.00218001
0.00218
0.00218
0.00218
0.00218
0.00218386
0.00218386
0.00218379
0.00218377
0.00218373
0.00218371
0.00218367
0.00218365
0.00218363
0.00218361
0.00218358
0.00218357
0.00218355
0.00218354
0.00218353
0.00218352
0.00218352
0.00218351
0.00218351
0.00218351
0.00218769
0.00218769
0.00218763
0.0021876
0.00218756
0.00218754
0.0021875
0.00218748
0.00218745
0.00218744
0.00218741
0.0021874
0.00218738
0.00218737
0.00218736
0.00218735
0.00218734
0.00218734
0.00218734
0.00218734
0.00219168
0.00219168
0.00219162
0.0021916
0.00219156
0.00219154
0.0021915
0.00219148
0.00219145
0.00219144
0.00219141
0.0021914
0.00219138
0.00219137
0.00219135
0.00219135
0.00219134
0.00219134
0.00219133
0.00219133
0.00219549
0.00219549
0.00219543
0.0021954
0.00219536
0.00219534
0.0021953
0.00219529
0.00219525
0.00219524
0.00219521
0.0021952
0.00219518
0.00219517
0.00219516
0.00219515
0.00219514
0.00219514
0.00219514
0.00219514
0.00219855
0.00219855
0.00219849
0.00219846
0.00219842
0.0021984
0.00219836
0.00219835
0.00219831
0.00219831
0.00219827
0.00219827
0.00219824
0.00219824
0.00219822
0.00219822
0.00219821
0.00219821
0.0021982
0.0021982
0.00219994
0.00219993
0.00219993
0.00219993
0.00219993
0.00219993
0.00219993
0.00219993
0.00219993
0.00219993
0.00219993
0.00219993
0.00219993
0.00219993
0.00219993
0.00219993
0.00219993
0.00219993
0.00219993
0.00219993
)
;

boundaryField
{
    movingWall
    {
        type            calculated;
        value           nonuniform List<scalar> 
20
(
0.00219994
0.00219993
0.00219993
0.00219993
0.00219993
0.00219993
0.00219993
0.00219993
0.00219993
0.00219993
0.00219993
0.00219993
0.00219993
0.00219993
0.00219993
0.00219993
0.00219993
0.00219993
0.00219993
0.00219993
)
;
    }
    fixedWalls
    {
        type            calculated;
        value           nonuniform List<scalar> 
60
(
0.00196377
0.00199443
0.00203942
0.00208236
0.00211518
0.00213715
0.00215083
0.00215919
0.0021645
0.00216826
0.00217134
0.00217421
0.00217716
0.00218034
0.00218386
0.00218769
0.00219168
0.00219549
0.00219855
0.00219994
0.00196377
0.00199417
0.00203913
0.00208206
0.00211486
0.00213683
0.0021505
0.00215885
0.00216416
0.00216792
0.002171
0.00217387
0.00217681
0.00218
0.00218351
0.00218734
0.00219133
0.00219514
0.0021982
0.00219993
0.00196377
0.00196377
0.00196377
0.00196377
0.00196377
0.00196377
0.00196377
0.00196377
0.00196377
0.00196377
0.00196377
0.00196377
0.00196377
0.00196377
0.00196377
0.00196377
0.00196377
0.00196377
0.00196377
0.00196377
)
;
    }
    frontAndBack
    {
        type            empty;
    }
}


// ************************************************************************* //
