/*--------------------------------*- C++ -*----------------------------------*\
| =========                 |                                                 |
| \\      /  F ield         | OpenFOAM: The Open Source CFD Toolbox           |
|  \\    /   O peration     | Version:  2312                                  |
|   \\  /    A nd           | Website:  www.openfoam.com                      |
|    \\/     M anipulation  |                                                 |
\*---------------------------------------------------------------------------*/
FoamFile
{
    version     2.0;
    format      ascii;
    arch        "LSB;label=32;scalar=64";
    class       volScalarField;
    location    "7";
    object      turbulenceProperties:nuTilda;
}
// * * * * * * * * * * * * * * * * * * * * * * * * * * * * * * * * * * * * * //

dimensions      [0 2 -1 0 0 0 0];

internalField   nonuniform List<scalar> 
400
(
1.34652e-06
1.34652e-06
1.34652e-06
1.34651e-06
1.34652e-06
1.34651e-06
1.34652e-06
1.34651e-06
1.34652e-06
1.34651e-06
1.34652e-06
1.34651e-06
1.34651e-06
1.34651e-06
1.34651e-06
1.34651e-06
1.34651e-06
1.34651e-06
1.34651e-06
1.34651e-06
1.3674e-06
1.38755e-06
1.38572e-06
1.38496e-06
1.38346e-06
1.3827e-06
1.3812e-06
1.38043e-06
1.37894e-06
1.37815e-06
1.37669e-06
1.37588e-06
1.37443e-06
1.37361e-06
1.37217e-06
1.37133e-06
1.36992e-06
1.36906e-06
1.36835e-06
1.36722e-06
1.39807e-06
1.41949e-06
1.41751e-06
1.41669e-06
1.41508e-06
1.41426e-06
1.41264e-06
1.41184e-06
1.41023e-06
1.40941e-06
1.40783e-06
1.407e-06
1.40544e-06
1.40459e-06
1.40306e-06
1.4022e-06
1.40069e-06
1.39981e-06
1.39906e-06
1.39788e-06
1.42739e-06
1.44973e-06
1.44766e-06
1.44681e-06
1.44512e-06
1.44427e-06
1.44258e-06
1.44174e-06
1.44006e-06
1.43921e-06
1.43755e-06
1.43669e-06
1.43506e-06
1.43418e-06
1.43258e-06
1.43168e-06
1.43011e-06
1.42919e-06
1.42841e-06
1.42718e-06
1.4498e-06
1.47289e-06
1.47075e-06
1.46987e-06
1.46812e-06
1.46725e-06
1.4655e-06
1.46463e-06
1.4629e-06
1.46201e-06
1.46031e-06
1.45941e-06
1.45773e-06
1.45682e-06
1.45517e-06
1.45424e-06
1.45261e-06
1.45166e-06
1.45086e-06
1.44959e-06
1.46483e-06
1.48842e-06
1.48624e-06
1.48534e-06
1.48355e-06
1.48266e-06
1.48087e-06
1.47999e-06
1.4782e-06
1.47731e-06
1.47556e-06
1.47465e-06
1.47293e-06
1.472e-06
1.47031e-06
1.46936e-06
1.4677e-06
1.46673e-06
1.46591e-06
1.46461e-06
1.47419e-06
1.49811e-06
1.49589e-06
1.49498e-06
1.49317e-06
1.49226e-06
1.49044e-06
1.48955e-06
1.48775e-06
1.48684e-06
1.48507e-06
1.48414e-06
1.4824e-06
1.48146e-06
1.47974e-06
1.47878e-06
1.4771e-06
1.47611e-06
1.47528e-06
1.47396e-06
1.47991e-06
1.50402e-06
1.50179e-06
1.50086e-06
1.49904e-06
1.49811e-06
1.49631e-06
1.49538e-06
1.49359e-06
1.49265e-06
1.49088e-06
1.48993e-06
1.48819e-06
1.48723e-06
1.48551e-06
1.48453e-06
1.48284e-06
1.48185e-06
1.48101e-06
1.47968e-06
1.48355e-06
1.50779e-06
1.50554e-06
1.50461e-06
1.50278e-06
1.50186e-06
1.50002e-06
1.49911e-06
1.49729e-06
1.49637e-06
1.49457e-06
1.49363e-06
1.49187e-06
1.49091e-06
1.48917e-06
1.4882e-06
1.48649e-06
1.4855e-06
1.48465e-06
1.48332e-06
1.48612e-06
1.51045e-06
1.50819e-06
1.50726e-06
1.50542e-06
1.5045e-06
1.50266e-06
1.50174e-06
1.49991e-06
1.49899e-06
1.49718e-06
1.49624e-06
1.49447e-06
1.49351e-06
1.49177e-06
1.49079e-06
1.48908e-06
1.48808e-06
1.48723e-06
1.48589e-06
1.48822e-06
1.51262e-06
1.51036e-06
1.50943e-06
1.50757e-06
1.50665e-06
1.50481e-06
1.50388e-06
1.50205e-06
1.50112e-06
1.49932e-06
1.49837e-06
1.4966e-06
1.49563e-06
1.49389e-06
1.4929e-06
1.49119e-06
1.49018e-06
1.48933e-06
1.48799e-06
1.49019e-06
1.51465e-06
1.51239e-06
1.51145e-06
1.50959e-06
1.50867e-06
1.50681e-06
1.50589e-06
1.50405e-06
1.50312e-06
1.50131e-06
1.50036e-06
1.49858e-06
1.49762e-06
1.49586e-06
1.49488e-06
1.49316e-06
1.49215e-06
1.4913e-06
1.48995e-06
1.49221e-06
1.51674e-06
1.51445e-06
1.51352e-06
1.51166e-06
1.51073e-06
1.50888e-06
1.50794e-06
1.50611e-06
1.50517e-06
1.50336e-06
1.5024e-06
1.50062e-06
1.49964e-06
1.4979e-06
1.4969e-06
1.49518e-06
1.49417e-06
1.49332e-06
1.49197e-06
1.49438e-06
1.51898e-06
1.5167e-06
1.51576e-06
1.5139e-06
1.51296e-06
1.5111e-06
1.51017e-06
1.50833e-06
1.50739e-06
1.50557e-06
1.50461e-06
1.50283e-06
1.50185e-06
1.50009e-06
1.49909e-06
1.49737e-06
1.49635e-06
1.4955e-06
1.49414e-06
1.49678e-06
1.52147e-06
1.51917e-06
1.51823e-06
1.51636e-06
1.51542e-06
1.51356e-06
1.51261e-06
1.51078e-06
1.50982e-06
1.50801e-06
1.50704e-06
1.50525e-06
1.50427e-06
1.50251e-06
1.50151e-06
1.49978e-06
1.49876e-06
1.4979e-06
1.49654e-06
1.4994e-06
1.52417e-06
1.52187e-06
1.52092e-06
1.51904e-06
1.5181e-06
1.51623e-06
1.51529e-06
1.51344e-06
1.51249e-06
1.51066e-06
1.50969e-06
1.50789e-06
1.50691e-06
1.50514e-06
1.50414e-06
1.5024e-06
1.50138e-06
1.50052e-06
1.49916e-06
1.50212e-06
1.52699e-06
1.52468e-06
1.52373e-06
1.52184e-06
1.5209e-06
1.51902e-06
1.51808e-06
1.51621e-06
1.51527e-06
1.51343e-06
1.51246e-06
1.51065e-06
1.50967e-06
1.50789e-06
1.50689e-06
1.50514e-06
1.50412e-06
1.50325e-06
1.50188e-06
1.50472e-06
1.52966e-06
1.52735e-06
1.5264e-06
1.52451e-06
1.52356e-06
1.52167e-06
1.52073e-06
1.51886e-06
1.5179e-06
1.51607e-06
1.51509e-06
1.51328e-06
1.51229e-06
1.51051e-06
1.5095e-06
1.50775e-06
1.50672e-06
1.50585e-06
1.50448e-06
1.50681e-06
1.53132e-06
1.52909e-06
1.52817e-06
1.52633e-06
1.52542e-06
1.52357e-06
1.52266e-06
1.52082e-06
1.51989e-06
1.51808e-06
1.51712e-06
1.51533e-06
1.51435e-06
1.51259e-06
1.51158e-06
1.50985e-06
1.5088e-06
1.50794e-06
1.50657e-06
1.50776e-06
1.50775e-06
1.50775e-06
1.50775e-06
1.50775e-06
1.50775e-06
1.50775e-06
1.50775e-06
1.50775e-06
1.50775e-06
1.50775e-06
1.50775e-06
1.50775e-06
1.50775e-06
1.50775e-06
1.50775e-06
1.50775e-06
1.50775e-06
1.50775e-06
1.50775e-06
)
;

boundaryField
{
    movingWall
    {
        type            calculated;
        value           nonuniform List<scalar> 
20
(
1.50776e-06
1.50775e-06
1.50775e-06
1.50775e-06
1.50775e-06
1.50775e-06
1.50775e-06
1.50775e-06
1.50775e-06
1.50775e-06
1.50775e-06
1.50775e-06
1.50775e-06
1.50775e-06
1.50775e-06
1.50775e-06
1.50775e-06
1.50775e-06
1.50775e-06
1.50775e-06
)
;
    }
    fixedWalls
    {
        type            calculated;
        value           nonuniform List<scalar> 
60
(
1.34652e-06
1.3674e-06
1.39807e-06
1.42739e-06
1.4498e-06
1.46483e-06
1.47419e-06
1.47991e-06
1.48355e-06
1.48612e-06
1.48822e-06
1.49019e-06
1.49221e-06
1.49438e-06
1.49678e-06
1.4994e-06
1.50212e-06
1.50472e-06
1.50681e-06
1.50776e-06
1.34651e-06
1.36722e-06
1.39788e-06
1.42718e-06
1.44959e-06
1.46461e-06
1.47396e-06
1.47968e-06
1.48332e-06
1.48589e-06
1.48799e-06
1.48995e-06
1.49197e-06
1.49414e-06
1.49654e-06
1.49916e-06
1.50188e-06
1.50448e-06
1.50657e-06
1.50775e-06
1.34652e-06
1.34652e-06
1.34652e-06
1.34651e-06
1.34652e-06
1.34651e-06
1.34652e-06
1.34651e-06
1.34652e-06
1.34651e-06
1.34652e-06
1.34651e-06
1.34651e-06
1.34651e-06
1.34651e-06
1.34651e-06
1.34651e-06
1.34651e-06
1.34651e-06
1.34651e-06
)
;
    }
    frontAndBack
    {
        type            empty;
    }
}


// ************************************************************************* //
