/*--------------------------------*- C++ -*----------------------------------*\
| =========                 |                                                 |
| \\      /  F ield         | OpenFOAM: The Open Source CFD Toolbox           |
|  \\    /   O peration     | Version:  2312                                  |
|   \\  /    A nd           | Website:  www.openfoam.com                      |
|    \\/     M anipulation  |                                                 |
\*---------------------------------------------------------------------------*/
FoamFile
{
    version     2.0;
    format      ascii;
    arch        "LSB;label=32;scalar=64";
    class       volScalarField;
    location    "7";
    object      turbulenceProperties:L;
}
// * * * * * * * * * * * * * * * * * * * * * * * * * * * * * * * * * * * * * //

dimensions      [0 1 0 0 0 0 0];

internalField   nonuniform List<scalar> 
400
(
0.00102215
0.00102215
0.00102215
0.00102215
0.00102215
0.00102215
0.00102215
0.00102215
0.00102215
0.00102215
0.00102215
0.00102215
0.00102215
0.00102215
0.00102215
0.00102215
0.00102215
0.00102215
0.00102215
0.00102215
0.00102205
0.00103711
0.00103576
0.00103521
0.0010341
0.00103354
0.00103243
0.00103186
0.00103076
0.00103018
0.00102909
0.00102849
0.00102742
0.00102681
0.00102574
0.00102511
0.00102406
0.00102342
0.00102289
0.00102205
0.00102192
0.00103758
0.00103616
0.00103557
0.0010344
0.00103382
0.00103265
0.00103206
0.0010309
0.00103031
0.00102917
0.00102856
0.00102743
0.00102681
0.0010257
0.00102507
0.00102397
0.00102333
0.00102279
0.00102192
0.00102183
0.00103783
0.00103637
0.00103577
0.00103458
0.00103398
0.00103279
0.00103219
0.001031
0.0010304
0.00102923
0.00102861
0.00102745
0.00102683
0.00102569
0.00102505
0.00102392
0.00102327
0.00102271
0.00102183
0.00102178
0.00103805
0.00103657
0.00103596
0.00103474
0.00103414
0.00103292
0.00103231
0.00103111
0.00103049
0.0010293
0.00102867
0.0010275
0.00102686
0.0010257
0.00102505
0.00102391
0.00102324
0.00102267
0.00102178
0.00102175
0.00103821
0.00103672
0.0010361
0.00103487
0.00103425
0.00103302
0.00103241
0.00103119
0.00103057
0.00102936
0.00102873
0.00102754
0.00102689
0.00102572
0.00102506
0.00102391
0.00102323
0.00102266
0.00102175
0.00102174
0.00103832
0.00103681
0.00103619
0.00103495
0.00103433
0.00103309
0.00103248
0.00103124
0.00103062
0.0010294
0.00102877
0.00102757
0.00102692
0.00102574
0.00102507
0.00102391
0.00102323
0.00102265
0.00102174
0.00102174
0.00103839
0.00103687
0.00103624
0.001035
0.00103437
0.00103314
0.00103251
0.00103129
0.00103065
0.00102944
0.00102879
0.00102759
0.00102693
0.00102575
0.00102508
0.00102392
0.00102323
0.00102265
0.00102174
0.00102173
0.00103843
0.00103691
0.00103628
0.00103503
0.00103441
0.00103316
0.00103254
0.0010313
0.00103067
0.00102945
0.00102881
0.0010276
0.00102695
0.00102576
0.00102509
0.00102392
0.00102323
0.00102265
0.00102173
0.00102173
0.00103846
0.00103693
0.0010363
0.00103506
0.00103443
0.00103318
0.00103256
0.00103132
0.00103069
0.00102946
0.00102882
0.00102761
0.00102695
0.00102576
0.00102509
0.00102392
0.00102323
0.00102265
0.00102173
0.00102173
0.00103848
0.00103695
0.00103633
0.00103507
0.00103445
0.0010332
0.00103257
0.00103133
0.0010307
0.00102947
0.00102882
0.00102762
0.00102696
0.00102577
0.00102509
0.00102392
0.00102323
0.00102265
0.00102173
0.00102172
0.0010385
0.00103697
0.00103634
0.00103508
0.00103446
0.00103321
0.00103258
0.00103134
0.00103071
0.00102948
0.00102883
0.00102762
0.00102696
0.00102577
0.00102509
0.00102392
0.00102323
0.00102265
0.00102172
0.00102172
0.00103852
0.00103698
0.00103636
0.0010351
0.00103447
0.00103323
0.00103259
0.00103135
0.00103071
0.00102949
0.00102884
0.00102763
0.00102696
0.00102577
0.00102509
0.00102392
0.00102323
0.00102264
0.00102172
0.00102171
0.00103853
0.00103701
0.00103637
0.00103512
0.00103449
0.00103324
0.00103261
0.00103136
0.00103072
0.00102949
0.00102884
0.00102763
0.00102697
0.00102577
0.00102509
0.00102392
0.00102323
0.00102264
0.00102172
0.00102171
0.00103856
0.00103702
0.00103639
0.00103514
0.0010345
0.00103325
0.00103261
0.00103138
0.00103073
0.0010295
0.00102885
0.00102764
0.00102697
0.00102577
0.00102509
0.00102392
0.00102322
0.00102264
0.00102171
0.0010217
0.00103858
0.00103705
0.00103641
0.00103515
0.00103452
0.00103326
0.00103263
0.00103138
0.00103074
0.00102951
0.00102886
0.00102764
0.00102697
0.00102577
0.00102509
0.00102391
0.00102322
0.00102263
0.0010217
0.0010217
0.00103861
0.00103707
0.00103643
0.00103517
0.00103454
0.00103328
0.00103264
0.00103139
0.00103075
0.00102951
0.00102886
0.00102764
0.00102697
0.00102577
0.00102509
0.00102391
0.00102321
0.00102263
0.0010217
0.00102169
0.00103862
0.00103708
0.00103645
0.00103518
0.00103455
0.00103329
0.00103265
0.0010314
0.00103076
0.00102952
0.00102886
0.00102765
0.00102698
0.00102577
0.00102509
0.00102391
0.00102321
0.00102262
0.00102169
0.00102168
0.0010383
0.00103682
0.00103621
0.00103498
0.00103437
0.00103313
0.00103252
0.00103129
0.00103067
0.00102945
0.00102881
0.0010276
0.00102694
0.00102576
0.00102507
0.0010239
0.00102319
0.00102261
0.00102168
0.00102168
0.00102168
0.00102168
0.00102168
0.00102168
0.00102168
0.00102168
0.00102168
0.00102168
0.00102168
0.00102168
0.00102168
0.00102168
0.00102168
0.00102168
0.00102168
0.00102168
0.00102168
0.00102168
0.00102168
)
;

boundaryField
{
    movingWall
    {
        type            calculated;
        value           nonuniform List<scalar> 
20
(
0.00102168
0.00102168
0.00102168
0.00102168
0.00102168
0.00102168
0.00102168
0.00102168
0.00102168
0.00102168
0.00102168
0.00102168
0.00102168
0.00102168
0.00102168
0.00102168
0.00102168
0.00102168
0.00102168
0.00102168
)
;
    }
    fixedWalls
    {
        type            calculated;
        value           nonuniform List<scalar> 
60
(
0.00102215
0.00102205
0.00102192
0.00102183
0.00102178
0.00102175
0.00102174
0.00102174
0.00102173
0.00102173
0.00102173
0.00102172
0.00102172
0.00102171
0.00102171
0.0010217
0.0010217
0.00102169
0.00102168
0.00102168
0.00102215
0.00102205
0.00102192
0.00102183
0.00102178
0.00102175
0.00102174
0.00102174
0.00102173
0.00102173
0.00102173
0.00102172
0.00102172
0.00102172
0.00102171
0.0010217
0.0010217
0.00102169
0.00102168
0.00102168
0.00102215
0.00102215
0.00102215
0.00102215
0.00102215
0.00102215
0.00102215
0.00102215
0.00102215
0.00102215
0.00102215
0.00102215
0.00102215
0.00102215
0.00102215
0.00102215
0.00102215
0.00102215
0.00102215
0.00102215
)
;
    }
    frontAndBack
    {
        type            empty;
    }
}


// ************************************************************************* //
