/*--------------------------------*- C++ -*----------------------------------*\
| =========                 |                                                 |
| \\      /  F ield         | OpenFOAM: The Open Source CFD Toolbox           |
|  \\    /   O peration     | Version:  2312                                  |
|   \\  /    A nd           | Website:  www.openfoam.com                      |
|    \\/     M anipulation  |                                                 |
\*---------------------------------------------------------------------------*/
FoamFile
{
    version     2.0;
    format      ascii;
    arch        "LSB;label=32;scalar=64";
    class       volSymmTensorField;
    location    "7";
    object      turbulenceProperties:devReff;
}
// * * * * * * * * * * * * * * * * * * * * * * * * * * * * * * * * * * * * * //

dimensions      [0 2 -2 0 0 0 0];

internalField   nonuniform List<symmTensor> 
400
(
(1.4726e-16 -1.70169e-16 -0 -2.70531e-16 -0 1.23271e-16)
(-5.36825e-17 1.94865e-16 -0 6.8614e-17 -0 -1.49315e-17)
(1.45876e-17 -4.04769e-17 -0 -1.74883e-17 -0 2.90074e-18)
(-2.11772e-18 1.00355e-17 -0 3.00524e-18 -0 -8.87526e-19)
(1.24902e-18 -2.43481e-18 -0 -1.26784e-18 -0 1.88266e-20)
(4.68082e-20 4.14826e-19 -0 -9.36164e-20 -0 4.68082e-20)
(5.99992e-19 -4.68019e-19 -0 -5.84889e-19 -0 -1.51034e-20)
(5.189e-19 9.32478e-21 -0 -4.22705e-19 -0 -9.61955e-20)
(4.15818e-20 5.0653e-20 -0 -8.31636e-20 -0 4.15818e-20)
(4.04547e-19 6.6476e-19 -0 -1.93998e-19 -0 -2.10549e-19)
(3.1361e-20 5.9032e-19 -0 -6.2722e-20 -0 3.1361e-20)
(1.54367e-20 5.3149e-19 -0 -3.08734e-20 -0 1.54367e-20)
(-3.02992e-19 4.74392e-19 -0 -9.11221e-21 -0 3.12104e-19)
(1.09465e-18 1.70023e-20 -0 -9.59101e-19 -0 -1.35545e-19)
(1.45593e-18 9.0598e-19 -0 -1.06657e-18 -0 -3.89357e-19)
(-8.54889e-19 1.81628e-19 -0 4.79587e-19 -0 3.75302e-19)
(-4.47562e-19 -3.25926e-19 -0 2.80028e-19 -0 1.67534e-19)
(3.52431e-19 -3.47464e-19 -0 -8.9766e-20 -0 -2.62665e-19)
(-3.45889e-20 -9.99845e-20 -0 6.91778e-20 -0 -3.45889e-20)
(5.02444e-20 4.44197e-20 -0 -1.00489e-19 -0 5.02444e-20)
(-2.7127e-16 -3.41892e-18 -0 5.01253e-16 -0 -2.29983e-16)
(9.50876e-17 -1.39798e-18 -0 -1.27209e-16 -0 3.21209e-17)
(-2.42603e-17 1.57868e-18 -0 3.06212e-17 -0 -6.36089e-18)
(2.80008e-18 7.4839e-19 -0 -5.60016e-18 -0 2.80008e-18)
(-6.18248e-19 1.65377e-18 -0 1.2365e-18 -0 -6.18248e-19)
(6.49941e-20 8.69023e-19 -0 -1.29988e-19 -0 6.49941e-20)
(-9.91155e-19 1.30159e-18 -0 7.48358e-19 -0 2.42797e-19)
(-1.59064e-19 8.30767e-19 -0 3.18127e-19 -0 -1.59064e-19)
(-9.08513e-19 1.21222e-19 -0 5.83319e-19 -0 3.25194e-19)
(9.18095e-19 -3.44292e-20 -0 -6.02568e-19 -0 -3.15527e-19)
(9.31185e-20 3.01694e-19 -0 -1.86237e-19 -0 9.31185e-20)
(-1.22005e-19 8.94993e-19 -0 2.44011e-19 -0 -1.22005e-19)
(-2.34629e-19 5.97755e-20 -0 4.69257e-19 -0 -2.34629e-19)
(-1.47101e-18 7.29379e-19 -0 1.09232e-18 -0 3.78685e-19)
(-9.98762e-19 1.73427e-19 -0 7.64551e-19 -0 2.34211e-19)
(-6.34633e-20 8.30134e-19 -0 1.26927e-19 -0 -6.34633e-20)
(-4.00758e-19 3.60976e-19 -0 1.85152e-19 -0 2.15606e-19)
(5.10806e-19 3.56231e-20 -0 -4.05294e-19 -0 -1.05512e-19)
(3.07516e-20 -6.19506e-20 -0 -6.15033e-20 -0 3.07516e-20)
(-2.52005e-20 -3.29084e-19 -0 5.04009e-20 -0 -2.52005e-20)
(1.19875e-16 1.80803e-16 -0 -2.22449e-16 -0 1.02574e-16)
(-4.0542e-17 -1.72438e-16 -0 5.57028e-17 -0 -1.51609e-17)
(1.0847e-17 3.40036e-17 -0 -1.36478e-17 -0 2.80074e-18)
(-5.23535e-19 -9.67982e-18 -0 2.28487e-18 -0 -1.76134e-18)
(-6.68221e-19 1.16906e-19 -0 9.88175e-20 -0 5.69404e-19)
(6.87756e-19 -1.80599e-18 -0 -1.37976e-19 -0 -5.49781e-19)
(-9.37807e-19 -1.06175e-18 -0 6.38253e-19 -0 2.99554e-19)
(-8.44798e-19 -1.0426e-18 -0 4.52322e-19 -0 3.92476e-19)
(1.07356e-19 -6.41483e-19 -0 -2.14711e-19 -0 1.07356e-19)
(9.95624e-19 -2.19548e-19 -0 -7.54237e-19 -0 -2.41387e-19)
(9.60702e-19 -6.25122e-19 -0 -6.84565e-19 -0 -2.76137e-19)
(5.06809e-19 -1.13699e-18 -0 -3.95243e-19 -0 -1.11566e-19)
(1.9365e-20 -8.94535e-19 -0 -3.873e-20 -0 1.9365e-20)
(-1.35893e-19 -3.78983e-19 -0 2.71786e-19 -0 -1.35893e-19)
(-6.41159e-19 3.00517e-20 -0 6.64157e-19 -0 -2.29978e-20)
(-9.51384e-19 -9.86205e-20 -0 6.66539e-19 -0 2.84845e-19)
(-9.81906e-20 3.53818e-19 -0 1.96381e-19 -0 -9.81906e-20)
(-2.08096e-20 2.37901e-19 -0 4.16191e-20 -0 -2.08096e-20)
(-3.31841e-19 8.77457e-20 -0 4.57377e-20 -0 2.86103e-19)
(4.50376e-19 5.29654e-20 -0 -2.82872e-19 -0 -1.67504e-19)
(1.01659e-16 -1.65911e-16 -0 -1.70486e-16 -0 6.88269e-17)
(-4.64101e-17 1.62285e-16 -0 4.99926e-17 -0 -3.58245e-18)
(1.10392e-17 -3.34549e-17 -0 -1.15287e-17 -0 4.89407e-19)
(-2.29041e-18 7.21053e-18 -0 2.71923e-18 -0 -4.28815e-19)
(2.02143e-19 -2.64072e-18 -0 -4.04285e-19 -0 2.02143e-19)
(-3.75441e-19 -2.7155e-19 -0 1.30487e-19 -0 2.44954e-19)
(1.0609e-18 -4.18562e-19 -0 -8.81201e-19 -0 -1.79703e-19)
(1.11139e-18 -4.26404e-19 -0 -9.82272e-19 -0 -1.29122e-19)
(9.10923e-19 -1.65237e-19 -0 -5.81513e-19 -0 -3.2941e-19)
(-1.8215e-19 -6.98068e-19 -0 3.64299e-19 -0 -1.8215e-19)
(-1.85498e-18 -5.119e-19 -0 1.22984e-18 -0 6.2514e-19)
(9.87473e-20 -4.7458e-19 -0 -1.97495e-19 -0 9.87473e-20)
(2.53321e-19 -5.23178e-19 -0 -5.06643e-19 -0 2.53321e-19)
(1.01194e-18 -7.52646e-19 -0 -7.84183e-19 -0 -2.27757e-19)
(1.22547e-19 -7.68278e-19 -0 -2.45095e-19 -0 1.22547e-19)
(1.00155e-18 -6.01639e-19 -0 -7.63669e-19 -0 -2.37878e-19)
(3.92921e-19 -7.26571e-19 -0 -1.66214e-19 -0 -2.26706e-19)
(-5.79562e-19 -2.32343e-19 -0 5.39547e-19 -0 4.00156e-20)
(-8.68517e-19 4.68127e-19 -0 4.97964e-19 -0 3.70553e-19)
(4.10006e-20 1.57226e-19 -0 -8.20011e-20 -0 4.10006e-20)
(-2.02456e-16 3.57608e-17 -0 3.62706e-16 -0 -1.60249e-16)
(7.4971e-17 -4.42073e-17 -0 -9.39668e-17 -0 1.89958e-17)
(-2.01197e-17 8.59186e-18 -0 2.345e-17 -0 -3.33028e-18)
(2.88145e-18 -2.14274e-18 -0 -4.51934e-18 -0 1.63789e-18)
(-3.54494e-19 9.69896e-19 -0 7.08988e-19 -0 -3.54494e-19)
(9.41204e-19 3.13669e-19 -0 -6.39126e-19 -0 -3.02077e-19)
(-3.70318e-19 1.17077e-19 -0 1.1909e-19 -0 2.51228e-19)
(-3.25237e-19 1.09926e-19 -0 2.89754e-20 -0 2.96262e-19)
(2.05357e-20 5.67104e-20 -0 -4.10715e-20 -0 2.05357e-20)
(3.46987e-19 -4.12625e-19 -0 -7.26169e-20 -0 -2.7437e-19)
(3.02899e-19 -1.18256e-19 -0 1.54667e-20 -0 -3.18366e-19)
(-8.77174e-20 -2.72892e-19 -0 1.75435e-19 -0 -8.77174e-20)
(-5.63537e-20 5.23784e-19 -0 1.12707e-19 -0 -5.63537e-20)
(-4.02842e-21 -1.84224e-19 -0 8.05683e-21 -0 -4.02842e-21)
(1.15274e-19 -2.65016e-19 -0 -2.30549e-19 -0 1.15274e-19)
(1.54427e-19 -5.05527e-19 -0 -3.08855e-19 -0 1.54427e-19)
(5.62167e-19 -3.72611e-19 -0 -5.03488e-19 -0 -5.86799e-20)
(5.17244e-19 -3.78834e-20 -0 -4.13692e-19 -0 -1.03552e-19)
(-5.03534e-20 -8.44475e-19 -0 1.00707e-19 -0 -5.03534e-20)
(-8.87347e-21 3.61346e-19 -0 1.77469e-20 -0 -8.87347e-21)
(1.67248e-16 1.09777e-16 -0 -3.02799e-16 -0 1.35551e-16)
(-6.16009e-17 -1.05733e-16 -0 7.8361e-17 -0 -1.67601e-17)
(1.53279e-17 2.20758e-17 -0 -1.8825e-17 -0 3.49714e-18)
(-1.12844e-18 -4.70588e-18 -0 2.8795e-18 -0 -1.75106e-18)
(8.30623e-19 1.82025e-18 -0 -1.03872e-18 -0 2.08098e-19)
(-1.73685e-20 -2.48568e-19 -0 3.47371e-20 -0 -1.73685e-20)
(-1.57676e-20 -3.8507e-19 -0 3.15352e-20 -0 -1.57676e-20)
(-1.38826e-19 5.4097e-19 -0 2.77653e-19 -0 -1.38826e-19)
(-4.49104e-19 6.90323e-20 -0 2.75973e-19 -0 1.73131e-19)
(5.87905e-19 1.198e-19 -0 -5.53624e-19 -0 -3.42813e-20)
(1.55987e-19 1.39256e-19 -0 -3.11974e-19 -0 1.55987e-19)
(2.00339e-20 6.34177e-20 -0 -4.00678e-20 -0 2.00339e-20)
(-9.23171e-20 -2.86418e-20 -0 1.84634e-19 -0 -9.23171e-20)
(-8.9514e-19 -8.00887e-20 -0 5.46484e-19 -0 3.48657e-19)
(4.49141e-19 -7.61198e-20 -0 -2.76475e-19 -0 -1.72666e-19)
(-4.05251e-20 2.79407e-19 -0 8.10501e-20 -0 -4.05251e-20)
(6.77536e-20 -3.06696e-20 -0 -1.35507e-19 -0 6.77536e-20)
(5.86642e-19 6.52066e-20 -0 -5.51671e-19 -0 -3.4971e-20)
(6.77489e-20 1.66868e-20 -0 -1.35498e-19 -0 6.77489e-20)
(-3.08284e-20 6.87924e-20 -0 6.16568e-20 -0 -3.08284e-20)
(1.71054e-17 -1.76446e-16 -0 -3.42108e-17 -0 1.71054e-17)
(-4.64005e-18 1.7867e-16 -0 8.03348e-18 -0 -3.39343e-18)
(1.07142e-18 -3.51054e-17 -0 -2.14285e-18 -0 1.07142e-18)
(-1.62071e-19 9.95597e-18 -0 3.24143e-19 -0 -1.62071e-19)
(9.02113e-20 -3.84196e-19 -0 -1.80423e-19 -0 9.02113e-20)
(8.27622e-21 1.89641e-18 -0 -1.65524e-20 -0 8.27622e-21)
(1.88973e-20 2.16839e-18 -0 -3.77947e-20 -0 1.88973e-20)
(-5.55561e-20 7.60817e-19 -0 1.11112e-19 -0 -5.55561e-20)
(-6.09736e-20 1.14543e-18 -0 1.21947e-19 -0 -6.09736e-20)
(-7.70541e-20 1.16892e-18 -0 1.54108e-19 -0 -7.70541e-20)
(-4.34708e-19 7.33863e-19 -0 2.46809e-19 -0 1.87899e-19)
(5.10382e-19 4.10564e-19 -0 -3.98206e-19 -0 -1.12175e-19)
(9.3899e-20 6.53985e-19 -0 -1.87798e-19 -0 9.3899e-20)
(7.19232e-21 1.18087e-18 -0 -1.43846e-20 -0 7.19232e-21)
(3.21957e-19 6.29755e-19 -0 -2.15957e-20 -0 -3.00361e-19)
(-1.05947e-19 3.77003e-19 -0 2.11894e-19 -0 -1.05947e-19)
(3.62058e-19 5.5153e-19 -0 -1.01942e-19 -0 -2.60116e-19)
(-2.49239e-20 5.84148e-19 -0 4.98478e-20 -0 -2.49239e-20)
(6.08834e-20 8.06281e-20 -0 -1.21767e-19 -0 6.08834e-20)
(-4.88599e-20 1.06527e-19 -0 9.77198e-20 -0 -4.88599e-20)
(-1.73031e-16 6.63061e-17 -0 3.23658e-16 -0 -1.50627e-16)
(6.00113e-17 -7.67712e-17 -0 -8.19808e-17 -0 2.19696e-17)
(-1.51068e-17 1.47631e-17 -0 1.96139e-17 -0 -4.50711e-18)
(2.70873e-18 -3.55155e-18 -0 -4.17053e-18 -0 1.4618e-18)
(-3.63269e-19 8.67975e-21 -0 7.26538e-19 -0 -3.63269e-19)
(-2.35507e-20 -1.41892e-19 -0 4.71014e-20 -0 -2.35507e-20)
(-1.11351e-18 -6.01394e-19 -0 9.80583e-19 -0 1.32925e-19)
(-1.47931e-18 3.84093e-20 -0 1.08912e-18 -0 3.90189e-19)
(6.57685e-19 1.0141e-19 -0 -6.92321e-20 -0 -5.88453e-19)
(-1.93515e-18 -5.65083e-19 -0 1.37822e-18 -0 5.56923e-19)
(-6.12833e-19 -1.1928e-19 -0 6.02743e-19 -0 1.00895e-20)
(3.95437e-19 -1.06907e-19 -0 -1.68003e-19 -0 -2.27434e-19)
(3.94646e-21 -5.19185e-19 -0 -7.89292e-21 -0 3.94646e-21)
(-5.20342e-19 2.00186e-19 -0 4.1796e-19 -0 1.02382e-19)
(-1.00867e-18 9.35854e-20 -0 7.72082e-19 -0 2.3659e-19)
(-1.39269e-20 -4.03103e-19 -0 2.78537e-20 -0 -1.39269e-20)
(8.93932e-19 -1.52279e-19 -0 -5.42892e-19 -0 -3.5104e-19)
(-8.76992e-19 -7.27637e-19 -0 5.09119e-19 -0 3.67873e-19)
(-5.6499e-20 5.26418e-20 -0 1.12998e-19 -0 -5.6499e-20)
(-6.24473e-20 8.69165e-20 -0 1.24895e-19 -0 -6.24473e-20)
(1.34544e-16 7.22421e-17 -0 -2.64108e-16 -0 1.29564e-16)
(-3.78877e-17 -6.77293e-17 -0 6.14271e-17 -0 -2.35394e-17)
(9.93129e-18 1.27824e-17 -0 -1.48728e-17 -0 4.94155e-18)
(-6.6741e-19 -5.296e-18 -0 2.58215e-18 -0 -1.91474e-18)
(4.344e-19 -1.27394e-18 -0 -8.688e-19 -0 4.344e-19)
(8.81088e-19 -1.65236e-18 -0 -5.15142e-19 -0 -3.65946e-19)
(1.78162e-20 -1.25604e-18 -0 -3.56323e-20 -0 1.78162e-20)
(-5.53258e-20 -1.58454e-18 -0 1.10652e-19 -0 -5.53258e-20)
(-4.49927e-19 -9.73771e-19 -0 2.76584e-19 -0 1.73343e-19)
(5.08768e-19 -6.62974e-19 -0 -3.94317e-19 -0 -1.14451e-19)
(4.67293e-19 3.53479e-19 -0 -3.11464e-19 -0 -1.55829e-19)
(-5.91887e-20 1.08583e-19 -0 1.18377e-19 -0 -5.91887e-20)
(-8.59849e-20 1.59682e-19 -0 1.7197e-19 -0 -8.59849e-20)
(-3.5768e-20 -1.03606e-18 -0 7.1536e-20 -0 -3.5768e-20)
(4.704e-21 -1.29474e-19 -0 -9.408e-21 -0 4.704e-21)
(4.45582e-20 1.35332e-20 -0 -8.91164e-20 -0 4.45582e-20)
(4.52833e-19 -2.09448e-20 -0 -2.82982e-19 -0 -1.69851e-19)
(4.02109e-19 -1.68589e-19 -0 -1.81589e-19 -0 -2.20521e-19)
(-6.87418e-20 1.03765e-19 -0 1.37484e-19 -0 -6.87418e-20)
(-4.28608e-20 -3.83108e-19 -0 8.57216e-20 -0 -4.28608e-20)
(-3.07958e-17 -9.71632e-17 -0 7.09315e-17 -0 -4.01357e-17)
(1.57399e-18 1.17435e-16 -0 -1.31317e-17 -0 1.15577e-17)
(-1.47992e-18 -2.29689e-17 -0 3.58369e-18 -0 -2.10378e-18)
(-1.00785e-18 6.95092e-18 -0 1.44263e-19 -0 8.63584e-19)
(-2.18242e-19 -1.31556e-19 -0 4.36484e-19 -0 -2.18242e-19)
(1.72974e-20 7.94822e-19 -0 -3.45948e-20 -0 1.72974e-20)
(5.96083e-19 4.91232e-19 -0 -5.68605e-19 -0 -2.74775e-20)
(1.0724e-18 4.28555e-19 -0 -8.97785e-19 -0 -1.74618e-19)
(1.00513e-18 1.90202e-19 -0 -7.63435e-19 -0 -2.41694e-19)
(5.82604e-19 5.51853e-19 -0 -5.41846e-19 -0 -4.07577e-20)
(7.34267e-20 1.09408e-19 -0 -1.46853e-19 -0 7.34267e-20)
(-1.99715e-19 9.98899e-20 -0 3.99429e-19 -0 -1.99715e-19)
(-1.46609e-18 -2.43031e-19 -0 1.06282e-18 -0 4.03264e-19)
(5.76302e-20 6.42414e-20 -0 -1.1526e-19 -0 5.76302e-20)
(1.01006e-18 -3.38363e-19 -0 -7.74183e-19 -0 -2.35879e-19)
(-4.25716e-20 -1.41394e-19 -0 8.51432e-20 -0 -4.25716e-20)
(-9.71702e-19 -6.60474e-20 -0 6.97755e-19 -0 2.73946e-19)
(-5.29782e-20 3.6584e-19 -0 1.05956e-19 -0 -5.29782e-20)
(-3.86429e-19 9.75145e-20 -0 1.50134e-19 -0 2.36295e-19)
(4.6008e-19 -8.04659e-20 -0 -2.97509e-19 -0 -1.62571e-19)
(-1.04398e-18 7.99961e-17 -0 7.07019e-18 -0 -6.02621e-18)
(-3.65972e-19 -1.12461e-16 -0 -1.14036e-18 -0 1.50633e-18)
(-1.25245e-18 2.35247e-17 -0 1.25694e-18 -0 -4.49009e-21)
(-1.47498e-19 -5.63104e-18 -0 2.94997e-19 -0 -1.47498e-19)
(-1.6134e-18 1.24264e-18 -0 1.35532e-18 -0 2.58078e-19)
(-6.22157e-19 -3.79772e-19 -0 6.20538e-19 -0 1.61949e-21)
(2.03906e-20 -3.4494e-19 -0 -4.07813e-20 -0 2.03906e-20)
(-3.21651e-19 -1.64943e-20 -0 1.96754e-20 -0 3.01976e-19)
(4.51857e-19 -5.51429e-19 -0 -2.80186e-19 -0 -1.71671e-19)
(-5.30789e-19 -5.12528e-19 -0 4.38102e-19 -0 9.26877e-20)
(-4.39712e-19 -9.6631e-19 -0 2.56045e-19 -0 1.83667e-19)
(1.19933e-20 -3.86322e-19 -0 -2.39865e-20 -0 1.19933e-20)
(1.74085e-20 -2.26302e-19 -0 -3.48169e-20 -0 1.74085e-20)
(8.15324e-20 2.34002e-19 -0 -1.63065e-19 -0 8.15324e-20)
(5.85231e-19 3.32338e-19 -0 -5.47377e-19 -0 -3.78541e-20)
(9.4229e-20 1.83176e-19 -0 -1.88458e-19 -0 9.4229e-20)
(8.22627e-19 -5.32417e-21 -0 -3.99377e-19 -0 -4.2325e-19)
(-3.33877e-20 -1.12232e-19 -0 6.67753e-20 -0 -3.33877e-20)
(1.9189e-20 -3.54577e-19 -0 -3.83781e-20 -0 1.9189e-20)
(5.53676e-20 3.50066e-19 -0 -1.10735e-19 -0 5.53676e-20)
(3.6339e-17 -9.22805e-17 -0 -8.70044e-17 -0 5.06654e-17)
(-3.74519e-18 1.09673e-16 -0 1.74778e-17 -0 -1.37326e-17)
(2.79949e-18 -2.23688e-17 -0 -4.97489e-18 -0 2.1754e-18)
(7.7224e-19 5.31139e-18 -0 3.27631e-19 -0 -1.09987e-18)
(-6.83235e-19 -1.29119e-18 -0 1.18599e-19 -0 5.64637e-19)
(4.02952e-19 5.27782e-19 -0 -1.82018e-19 -0 -2.20934e-19)
(3.73888e-19 3.52652e-19 -0 -1.23991e-19 -0 -2.49897e-19)
(-5.7343e-20 4.05023e-19 -0 1.14686e-19 -0 -5.7343e-20)
(4.17065e-19 1.92355e-19 -0 -2.10495e-19 -0 -2.06571e-19)
(-1.40135e-20 3.30721e-19 -0 2.8027e-20 -0 -1.40135e-20)
(8.62682e-20 5.4223e-19 -0 -1.72536e-19 -0 8.62682e-20)
(1.18748e-18 6.61048e-19 -0 -1.12809e-18 -0 -5.93886e-20)
(1.62488e-18 8.99221e-19 -0 -1.37973e-18 -0 -2.45142e-19)
(3.60133e-20 7.70466e-19 -0 -7.20267e-20 -0 3.60133e-20)
(-5.48065e-19 8.88822e-19 -0 4.72938e-19 -0 7.51272e-20)
(-8.63666e-19 7.48418e-19 -0 4.81054e-19 -0 3.82612e-19)
(-4.64114e-19 7.48416e-19 -0 3.05182e-19 -0 1.58932e-19)
(-1.89675e-20 -2.97749e-19 -0 3.79351e-20 -0 -1.89675e-20)
(3.71999e-19 2.7586e-19 -0 -1.21054e-19 -0 -2.50945e-19)
(-3.5363e-20 3.13563e-20 -0 7.0726e-20 -0 -3.5363e-20)
(-1.31358e-16 5.57208e-17 -0 2.64586e-16 -0 -1.33227e-16)
(3.33672e-17 -5.08301e-17 -0 -6.04912e-17 -0 2.7124e-17)
(-9.22832e-18 1.08268e-17 -0 1.47114e-17 -0 -5.48312e-18)
(4.13367e-20 -1.96856e-18 -0 -2.57927e-18 -0 2.53793e-18)
(6.94385e-19 1.48485e-18 -0 -1.40673e-19 -0 -5.53712e-19)
(1.42852e-19 5.30107e-19 -0 -2.85704e-19 -0 1.42852e-19)
(-1.08537e-18 3.34649e-20 -0 9.22936e-19 -0 1.6243e-19)
(-1.46747e-18 8.54348e-19 -0 1.0634e-18 -0 4.04072e-19)
(1.5372e-20 6.30881e-19 -0 -3.0744e-20 -0 1.5372e-20)
(9.86008e-19 9.19049e-19 -0 -7.24624e-19 -0 -2.61385e-19)
(1.00369e-19 6.60432e-19 -0 -2.00737e-19 -0 1.00369e-19)
(3.81947e-20 4.22566e-19 -0 -7.63893e-20 -0 3.81947e-20)
(4.26708e-19 -3.695e-19 -0 -2.29966e-19 -0 -1.96742e-19)
(-7.50148e-20 -5.5809e-19 -0 1.5003e-19 -0 -7.50148e-20)
(-5.71356e-19 -1.87593e-19 -0 5.1941e-19 -0 5.19463e-20)
(3.41253e-19 -8.77406e-19 -0 -5.92585e-20 -0 -2.81995e-19)
(-4.2603e-19 -2.60896e-20 -0 2.28905e-19 -0 1.97125e-19)
(3.43189e-21 1.91109e-19 -0 -6.86378e-21 -0 3.43189e-21)
(-6.686e-20 -1.85671e-20 -0 1.3372e-19 -0 -6.686e-20)
(-9.26754e-19 -7.93067e-20 -0 6.07546e-19 -0 3.19208e-19)
(1.66559e-16 8.03546e-17 -0 -3.20032e-16 -0 1.53473e-16)
(-4.9762e-17 -8.54867e-17 -0 7.64196e-17 -0 -2.66576e-17)
(1.2912e-17 1.91832e-17 -0 -1.83321e-17 -0 5.42012e-18)
(-1.04641e-18 -4.26632e-18 -0 3.34137e-18 -0 -2.29496e-18)
(3.09019e-19 1.36476e-18 -0 -6.18037e-19 -0 3.09019e-19)
(-1.49799e-19 7.77046e-20 -0 2.99599e-19 -0 -1.49799e-19)
(4.15979e-19 2.72804e-19 -0 -2.07939e-19 -0 -2.0804e-19)
(1.27829e-18 1.81174e-21 -0 -6.84673e-19 -0 -5.93615e-19)
(6.71179e-20 5.66871e-19 -0 -1.34236e-19 -0 6.71179e-20)
(1.36066e-19 -1.08609e-19 -0 -2.72133e-19 -0 1.36066e-19)
(3.75652e-19 -2.18827e-19 -0 -1.27585e-19 -0 -2.48066e-19)
(-7.32626e-19 1.71578e-19 -0 8.41585e-19 -0 -1.08959e-19)
(-1.95057e-18 -1.77739e-19 -0 1.40687e-18 -0 5.43704e-19)
(-4.87685e-20 -2.25858e-19 -0 9.75371e-20 -0 -4.87685e-20)
(5.23775e-20 -6.70532e-19 -0 -1.04755e-19 -0 5.23775e-20)
(1.10096e-19 -9.25353e-20 -0 -2.20192e-19 -0 1.10096e-19)
(6.00136e-19 -9.26016e-19 -0 -5.76998e-19 -0 -2.31378e-20)
(5.03612e-19 9.8176e-20 -0 -3.84004e-19 -0 -1.19607e-19)
(9.91016e-21 -1.9785e-19 -0 -1.98203e-20 -0 9.91016e-21)
(-1.52572e-21 -2.13126e-19 -0 3.05144e-21 -0 -1.52572e-21)
(-1.6917e-17 -1.85712e-16 -0 5.50241e-17 -0 -3.81072e-17)
(-6.01207e-18 1.89256e-16 -0 -6.08868e-18 -0 1.21007e-17)
(6.28059e-19 -3.85137e-17 -0 1.86616e-18 -0 -2.49422e-18)
(-1.75951e-18 1.0069e-17 -0 3.97e-19 -0 1.36251e-18)
(7.88328e-19 -1.42024e-18 -0 -3.28049e-19 -0 -4.60278e-19)
(-8.60681e-19 6.81836e-19 -0 4.72859e-19 -0 3.87823e-19)
(8.95917e-20 1.3236e-18 -0 -1.79183e-19 -0 8.95917e-20)
(-3.70058e-20 1.06598e-18 -0 7.40116e-20 -0 -3.70058e-20)
(-1.08522e-18 4.72509e-19 -0 9.22446e-19 -0 1.62778e-19)
(-1.63635e-19 4.56425e-19 -0 3.27269e-19 -0 -1.63635e-19)
(-1.37365e-18 -2.19404e-19 -0 8.7575e-19 -0 4.97901e-19)
(4.48085e-20 -4.53366e-19 -0 -8.9617e-20 -0 4.48085e-20)
(8.91105e-19 1.09933e-18 -0 -5.34809e-19 -0 -3.56296e-19)
(3.94709e-20 8.02396e-19 -0 -7.89418e-20 -0 3.94709e-20)
(3.12464e-20 8.21087e-19 -0 -6.24927e-20 -0 3.12464e-20)
(1.47865e-20 1.10603e-18 -0 -2.9573e-20 -0 1.47865e-20)
(-9.1557e-19 3.18518e-19 -0 5.84331e-19 -0 3.31239e-19)
(-5.16785e-19 7.64954e-19 -0 4.1022e-19 -0 1.06564e-19)
(2.51969e-21 4.27583e-19 -0 -5.03938e-21 -0 2.51969e-21)
(4.94819e-19 -6.67607e-20 -0 -3.6641e-19 -0 -1.28409e-19)
(-1.67863e-16 1.24122e-16 -0 2.93337e-16 -0 -1.25473e-16)
(6.72026e-17 -1.33144e-16 -0 -7.94293e-17 -0 1.22267e-17)
(-1.62013e-17 2.59301e-17 -0 1.86614e-17 -0 -2.46006e-18)
(3.85379e-18 -7.31944e-18 -0 -4.58482e-18 -0 7.31035e-19)
(-1.99964e-19 9.5402e-19 -0 3.99928e-19 -0 -1.99964e-19)
(1.59585e-19 -1.22826e-19 -0 -3.1917e-19 -0 1.59585e-19)
(1.68431e-18 -6.50513e-19 -0 -8.71438e-19 -0 -8.12873e-19)
(-1.8275e-19 -1.04441e-18 -0 3.65499e-19 -0 -1.8275e-19)
(-2.01633e-18 -8.03223e-19 -0 1.53608e-18 -0 4.80248e-19)
(-1.57109e-18 -2.9955e-19 -0 1.2699e-18 -0 3.01189e-19)
(-9.09569e-20 -2.1963e-19 -0 1.81914e-19 -0 -9.09569e-20)
(1.3464e-18 5.17353e-19 -0 -8.20966e-19 -0 -5.2543e-19)
(1.0398e-19 -7.93668e-19 -0 -2.0796e-19 -0 1.0398e-19)
(-3.51106e-19 -8.07366e-19 -0 7.84212e-20 -0 2.72685e-19)
(4.96642e-19 -3.21955e-19 -0 -3.69589e-19 -0 -1.27053e-19)
(-4.17552e-19 -2.30926e-19 -0 2.11464e-19 -0 2.06088e-19)
(3.03961e-19 1.82956e-19 -0 1.5625e-20 -0 -3.19586e-19)
(-6.19704e-19 -3.21257e-20 -0 6.15916e-19 -0 3.78739e-21)
(-9.31371e-19 -1.57107e-19 -0 6.15853e-19 -0 3.15518e-19)
(1.16826e-20 -4.02097e-19 -0 -2.33652e-20 -0 1.16826e-20)
(2.16417e-16 5.18048e-17 -0 -3.86069e-16 -0 1.69652e-16)
(-7.95488e-17 -2.99912e-17 -0 9.9734e-17 -0 -2.01853e-17)
(1.97061e-17 6.20101e-18 -0 -2.37933e-17 -0 4.08723e-18)
(-4.34928e-18 -1.75028e-18 -0 5.57505e-18 -0 -1.22577e-18)
(1.1351e-18 -8.76032e-19 -0 -1.02099e-18 -0 -1.14105e-19)
(-9.5976e-19 -1.2085e-18 -0 6.70422e-19 -0 2.89338e-19)
(-7.23218e-19 -9.72172e-19 -0 1.97541e-19 -0 5.25677e-19)
(1.07619e-18 -1.18588e-18 -0 -9.03579e-19 -0 -1.72607e-19)
(1.48537e-18 -8.7764e-19 -0 -1.09785e-18 -0 -3.8752e-19)
(-2.80445e-20 -5.59114e-19 -0 5.60889e-20 -0 -2.80445e-20)
(-1.1609e-19 -2.27574e-19 -0 2.3218e-19 -0 -1.1609e-19)
(-1.8609e-18 -7.46068e-19 -0 1.22543e-18 -0 6.3547e-19)
(-8.67258e-19 -9.75251e-20 -0 4.86529e-19 -0 3.80729e-19)
(5.47943e-19 -9.84597e-20 -0 -4.71945e-19 -0 -7.59977e-20)
(9.38034e-19 -6.38311e-19 -0 -6.2838e-19 -0 -3.09654e-19)
(-7.06981e-20 -4.75863e-19 -0 1.41396e-19 -0 -7.06981e-20)
(3.02546e-21 3.10295e-19 -0 -6.05092e-21 -0 3.02546e-21)
(7.11319e-20 -8.11204e-19 -0 -1.42264e-19 -0 7.11319e-20)
(-4.01298e-19 -2.07659e-19 -0 1.79004e-19 -0 2.22294e-19)
(4.11917e-19 -1.99449e-19 -0 -2.00316e-19 -0 -2.11601e-19)
(-2.16564e-17 -1.85268e-16 -0 5.26678e-17 -0 -3.10115e-17)
(-1.47907e-18 1.56373e-16 -0 -7.66728e-18 -0 9.14635e-18)
(-5.83003e-19 -3.24923e-17 -0 2.4158e-18 -0 -1.8328e-18)
(-7.47189e-19 8.35277e-18 -0 2.44684e-19 -0 5.02506e-19)
(-6.0955e-19 -1.31845e-18 -0 5.94355e-19 -0 1.51948e-20)
(3.68543e-19 4.78841e-19 -0 -1.12393e-19 -0 -2.5615e-19)
(-2.38705e-20 9.79094e-19 -0 4.77409e-20 -0 -2.38705e-20)
(9.74225e-20 6.37507e-19 -0 -1.94845e-19 -0 9.74225e-20)
(6.16705e-19 2.28428e-19 -0 -6.08972e-19 -0 -7.73355e-21)
(-2.55424e-19 -3.9466e-19 -0 -1.13539e-19 -0 3.68963e-19)
(9.22343e-20 3.32685e-20 -0 -1.84469e-19 -0 9.22343e-20)
(8.59044e-19 -5.39996e-19 -0 -4.69619e-19 -0 -3.89425e-19)
(7.71425e-19 2.73265e-19 -0 -2.94576e-19 -0 -4.76848e-19)
(-4.51397e-20 2.2809e-19 -0 9.02794e-20 -0 -4.51397e-20)
(-8.27811e-20 2.93957e-19 -0 1.65562e-19 -0 -8.27811e-20)
(-9.62453e-19 2.35778e-19 -0 6.77044e-19 -0 2.85409e-19)
(-5.17517e-19 -2.97459e-20 -0 4.11197e-19 -0 1.06319e-19)
(5.64279e-19 -4.92533e-20 -0 -5.04777e-19 -0 -5.95016e-20)
(7.0614e-20 -4.48214e-20 -0 -1.41228e-19 -0 7.0614e-20)
(-1.59838e-20 2.3738e-19 -0 3.19676e-20 -0 -1.59838e-20)
(-2.00841e-16 6.25148e-17 -0 3.41798e-16 -0 -1.40957e-16)
(8.65353e-17 -6.51255e-17 -0 -9.55565e-17 -0 9.02116e-18)
(-2.06832e-17 1.16684e-17 -0 2.26166e-17 -0 -1.93338e-18)
(3.92851e-18 -3.89821e-18 -0 -4.73231e-18 -0 8.03795e-19)
(-3.58651e-19 2.61698e-19 -0 7.17302e-19 -0 -3.58651e-19)
(1.13655e-19 -5.25569e-19 -0 -2.27311e-19 -0 1.13655e-19)
(-6.225e-20 -8.78257e-19 -0 1.245e-19 -0 -6.225e-20)
(-5.54373e-19 -5.85912e-19 -0 4.84101e-19 -0 7.0272e-20)
(-1.04198e-19 -6.60896e-19 -0 2.08397e-19 -0 -1.04198e-19)
(3.18042e-21 -3.9709e-19 -0 -6.36083e-21 -0 3.18042e-21)
(4.68682e-19 -3.38717e-19 -0 -3.12967e-19 -0 -1.55714e-19)
(-4.58811e-19 -2.04667e-19 -0 2.93278e-19 -0 1.65533e-19)
(-1.63558e-19 -6.13987e-19 -0 3.27116e-19 -0 -1.63558e-19)
(-1.45675e-18 -3.77528e-19 -0 1.04092e-18 -0 4.15833e-19)
(-4.89961e-19 -1.98363e-19 -0 3.55823e-19 -0 1.34138e-19)
(4.94242e-19 -4.47751e-19 -0 -3.64441e-19 -0 -1.29802e-19)
(4.48475e-19 -4.20074e-19 -0 -2.73001e-19 -0 -1.75475e-19)
(1.50622e-20 1.77851e-19 -0 -3.01243e-20 -0 1.50622e-20)
(-4.025e-21 3.89007e-20 -0 8.05001e-21 -0 -4.025e-21)
(-1.77728e-20 -4.29469e-19 -0 3.55456e-20 -0 -1.77728e-20)
(1.23866e-16 9.71626e-17 -0 -2.22156e-16 -0 9.82891e-17)
(-4.77715e-17 -9.58395e-17 -0 5.81127e-17 -0 -1.03413e-17)
(1.12386e-17 2.16605e-17 -0 -1.37435e-17 -0 2.50489e-18)
(-1.44493e-18 -4.31164e-18 -0 2.26602e-18 -0 -8.2109e-19)
(7.79283e-19 1.2764e-18 -0 -9.3473e-19 -0 1.55446e-19)
(-3.91921e-21 3.43221e-20 -0 7.83843e-21 -0 -3.91921e-21)
(-3.7946e-19 4.19024e-19 -0 1.35084e-19 -0 2.44376e-19)
(5.22511e-19 6.99662e-19 -0 -4.21186e-19 -0 -1.01325e-19)
(5.28661e-19 6.40632e-19 -0 -4.33485e-19 -0 -9.51756e-20)
(5.09502e-19 3.06767e-19 -0 -3.95167e-19 -0 -1.14335e-19)
(-3.63058e-19 4.13748e-19 -0 1.02279e-19 -0 2.60779e-19)
(5.59725e-19 7.19834e-19 -0 -4.95614e-19 -0 -6.41114e-20)
(6.04334e-19 -1.0216e-19 -0 -5.84832e-19 -0 -1.95021e-20)
(4.98454e-19 9.36201e-20 -0 -3.73072e-19 -0 -1.25382e-19)
(-6.84339e-22 1.76161e-19 -0 1.36868e-21 -0 -6.84339e-22)
(6.78172e-20 7.00029e-19 -0 -1.35634e-19 -0 6.78172e-20)
(5.83491e-19 3.76862e-19 -0 -5.43146e-19 -0 -4.03454e-20)
(3.90599e-20 5.53384e-21 -0 -7.81198e-20 -0 3.90599e-20)
(-3.3399e-19 4.42433e-21 -0 4.41444e-20 -0 2.89846e-19)
(4.83834e-19 2.04748e-19 -0 -3.43831e-19 -0 -1.40003e-19)
)
;

boundaryField
{
    movingWall
    {
        type            calculated;
        value           nonuniform List<symmTensor> 
20
(
(2.37498e-16 2.39803e-18 -0 -4.52769e-16 -0 2.15271e-16)
(-6.98077e-17 -6.10091e-17 -0 1.07089e-16 -0 -3.72816e-17)
(1.64952e-17 1.94167e-17 -0 -2.54009e-17 -0 8.90575e-18)
(-2.6285e-18 -4.65063e-19 -0 4.71489e-18 -0 -2.0864e-18)
(1.08288e-18 3.50265e-18 -0 -1.62366e-18 -0 5.40781e-19)
(-3.21279e-20 2.42331e-18 -0 6.42557e-20 -0 -3.21279e-20)
(-2.83187e-19 3.2017e-18 -0 2.42725e-20 -0 2.58914e-19)
(5.77467e-19 3.17452e-18 -0 -6.12834e-19 -0 3.53663e-20)
(6.15324e-19 2.67913e-18 -0 -6.88548e-19 -0 7.32234e-20)
(6.16387e-19 1.77188e-18 -0 -6.90674e-19 -0 7.42863e-20)
(-1.19415e-19 2.30893e-18 -0 -3.03272e-19 -0 4.22687e-19)
(8.52356e-19 2.30387e-18 -0 -1.16261e-18 -0 3.10255e-19)
(8.2584e-19 7.99403e-19 -0 -1.10958e-18 -0 2.83739e-19)
(6.15623e-19 6.98482e-19 -0 -6.89145e-19 -0 7.3522e-20)
(-4.14183e-20 -1.1797e-19 -0 8.28365e-20 -0 -4.14183e-20)
(-6.03646e-20 9.54388e-19 -0 1.20729e-19 -0 -6.03646e-20)
(4.96541e-19 5.00524e-19 -0 -4.5098e-19 -0 -4.55604e-20)
(9.01277e-20 4.8088e-21 -0 -1.80255e-19 -0 9.01277e-20)
(-2.13437e-19 3.84465e-21 -0 -1.15227e-19 -0 3.28664e-19)
(4.61781e-19 3.5096e-19 -0 -3.81461e-19 -0 -8.03203e-20)
)
;
    }
    fixedWalls
    {
        type            calculated;
        value           nonuniform List<symmTensor> 
60
(
(2.04507e-16 -7.20726e-16 -0 -2.75788e-16 -0 7.12806e-17)
(-3.58902e-16 1.03256e-17 -0 5.01088e-16 -0 -1.42186e-16)
(1.5308e-16 6.22744e-16 -0 -2.19118e-16 -0 6.60383e-17)
(1.71651e-16 -5.90616e-16 -0 -1.90536e-16 -0 1.88847e-17)
(-2.87249e-16 1.57824e-16 -0 3.71993e-16 -0 -8.47441e-17)
(2.30476e-16 3.84658e-16 -0 -3.0641e-16 -0 7.59334e-17)
(1.6092e-17 -6.421e-16 -0 -3.04076e-17 -0 1.43156e-17)
(-2.20611e-16 2.74611e-16 -0 3.16877e-16 -0 -9.62662e-17)
(1.40324e-16 2.39482e-16 -0 -2.41569e-16 -0 1.01245e-16)
(-6.17907e-18 -4.18876e-16 -0 5.1438e-17 -0 -4.52589e-17)
(4.48972e-18 4.01976e-16 -0 3.45506e-18 -0 -7.94478e-18)
(1.09245e-17 -3.96347e-16 -0 -6.53698e-17 -0 5.44453e-17)
(-1.2486e-16 1.87553e-16 -0 2.3551e-16 -0 -1.10649e-16)
(1.87053e-16 3.1115e-16 -0 -2.99499e-16 -0 1.12446e-16)
(2.62886e-17 -6.85126e-16 -0 2.73589e-17 -0 -5.36475e-17)
(-2.52851e-16 4.78584e-16 -0 3.08526e-16 -0 -5.56754e-17)
(3.0671e-16 1.07516e-16 -0 -3.94928e-16 -0 8.82183e-17)
(4.17679e-18 -5.67127e-16 -0 3.4279e-17 -0 -3.84558e-17)
(-3.24587e-16 2.33199e-16 -0 3.72063e-16 -0 -4.74756e-17)
(1.76901e-16 3.52994e-16 -0 -2.2768e-16 -0 5.07795e-17)
(4.42818e-20 1.8186e-19 -0 -8.85637e-20 -0 4.42818e-20)
(-2.21694e-20 -1.8722e-19 -0 4.43388e-20 -0 -2.21694e-20)
(6.25858e-19 4.88435e-20 -0 -3.63538e-19 -0 -2.6232e-19)
(6.27999e-19 2.86267e-19 -0 -3.67819e-19 -0 -2.6018e-19)
(5.84369e-19 5.35173e-19 -0 -2.80559e-19 -0 -3.0381e-19)
(-2.68901e-20 2.39767e-19 -0 5.37801e-20 -0 -2.68901e-20)
(-4.25833e-20 1.02782e-19 -0 8.51666e-20 -0 -4.25833e-20)
(-5.43981e-20 -1.5733e-20 -0 1.08796e-19 -0 -5.43981e-20)
(5.54795e-19 -4.94657e-19 -0 -2.21411e-19 -0 -3.33384e-19)
(6.3128e-19 -2.39679e-19 -0 -3.74381e-19 -0 -2.56899e-19)
(4.8196e-20 2.82408e-19 -0 -9.63921e-20 -0 4.8196e-20)
(-3.07773e-20 4.94968e-20 -0 6.15546e-20 -0 -3.07773e-20)
(-1.26787e-18 -1.73307e-19 -0 7.59388e-19 -0 5.08484e-19)
(-1.32739e-21 -4.52311e-19 -0 2.65478e-21 -0 -1.32739e-21)
(6.61125e-19 -1.81271e-19 -0 -4.34072e-19 -0 -2.27053e-19)
(1.01595e-20 -3.09323e-19 -0 -2.0319e-20 -0 1.01595e-20)
(1.18097e-18 -1.20314e-19 -0 -5.85578e-19 -0 -5.95389e-19)
(-1.38936e-20 2.13155e-19 -0 2.77871e-20 -0 -1.38936e-20)
(-1.54458e-20 -4.74726e-19 -0 3.08915e-20 -0 -1.54458e-20)
(6.5116e-19 1.2048e-19 -0 -4.14141e-19 -0 -2.37019e-19)
(4.87531e-16 -7.27899e-17 -0 -9.53921e-16 -0 4.66389e-16)
(-1.24463e-16 1.44507e-16 -0 2.14773e-16 -0 -9.03105e-17)
(3.10026e-17 -3.75478e-17 -0 -5.17053e-17 -0 2.07027e-17)
(-5.84261e-18 5.02082e-18 -0 1.0601e-17 -0 -4.75841e-18)
(1.99604e-18 -4.98344e-18 -0 -2.90788e-18 -0 9.11839e-19)
(-1.20302e-19 -2.29894e-18 -0 2.40605e-19 -0 -1.20302e-19)
(6.59714e-19 -3.25005e-18 -0 -7.77327e-19 -0 1.17613e-19)
(6.18239e-19 -1.76814e-18 -0 -6.94377e-19 -0 7.61381e-20)
(2.76398e-19 -1.73171e-18 -0 -5.52797e-19 -0 2.76398e-19)
(4.99194e-19 -1.2885e-18 -0 -4.56287e-19 -0 -4.29069e-20)
(1.59676e-19 -1.3541e-18 -0 -3.19352e-19 -0 1.59676e-19)
(1.96021e-19 -5.17774e-19 -0 -3.92043e-19 -0 1.96021e-19)
(-5.23295e-21 -1.45627e-18 -0 -5.31635e-19 -0 5.36868e-19)
(1.24951e-18 -1.76137e-18 -0 -1.41481e-18 -0 1.65303e-19)
(1.40041e-18 1.14454e-18 -0 -1.17452e-18 -0 -2.25892e-19)
(-8.79737e-19 1.04825e-18 -0 6.75272e-19 -0 2.04465e-19)
(-4.72056e-19 -4.60286e-19 -0 4.02012e-19 -0 7.00447e-20)
(2.47656e-19 -3.51791e-20 -0 4.67881e-20 -0 -2.94445e-19)
(-1.68446e-20 -5.32208e-19 -0 3.36892e-20 -0 -1.68446e-20)
(1.2124e-19 3.91483e-20 -0 -2.4248e-19 -0 1.2124e-19)
)
;
    }
    frontAndBack
    {
        type            empty;
    }
}


// ************************************************************************* //
