/*--------------------------------*- C++ -*----------------------------------*\
| =========                 |                                                 |
| \\      /  F ield         | OpenFOAM: The Open Source CFD Toolbox           |
|  \\    /   O peration     | Version:  2312                                  |
|   \\  /    A nd           | Website:  www.openfoam.com                      |
|    \\/     M anipulation  |                                                 |
\*---------------------------------------------------------------------------*/
FoamFile
{
    version     2.0;
    format      ascii;
    arch        "LSB;label=32;scalar=64";
    class       volScalarField;
    location    "7";
    object      turbulenceProperties:omega;
}
// * * * * * * * * * * * * * * * * * * * * * * * * * * * * * * * * * * * * * //

dimensions      [0 0 -1 0 0 0 0];

internalField   nonuniform List<scalar> 
400
(
4.29598
4.29598
4.29597
4.29598
4.29597
4.29598
4.29597
4.29598
4.29596
4.29598
4.29596
4.29598
4.29596
4.29597
4.29597
4.29597
4.29597
4.29597
4.29597
4.29597
4.36347
4.3001
4.3056
4.30787
4.31243
4.31473
4.3193
4.32165
4.32622
4.32863
4.33317
4.33566
4.34018
4.34274
4.34724
4.34988
4.35435
4.35706
4.3593
4.3629
4.46245
4.39511
4.40104
4.4035
4.40839
4.41085
4.41578
4.41824
4.42316
4.42568
4.43056
4.43314
4.43799
4.44063
4.44543
4.44815
4.45291
4.4557
4.45806
4.46182
4.55683
4.48659
4.49279
4.49534
4.50045
4.50301
4.50815
4.51072
4.51586
4.51847
4.52357
4.52625
4.53131
4.53407
4.53908
4.54191
4.54687
4.54978
4.55225
4.55617
4.62887
4.55631
4.56271
4.56535
4.57063
4.57327
4.57857
4.58123
4.58653
4.58924
4.5945
4.59728
4.60249
4.60535
4.61052
4.61345
4.61857
4.62158
4.62413
4.62818
4.67708
4.60293
4.60945
4.61216
4.61754
4.62024
4.62567
4.62838
4.6338
4.63656
4.64195
4.64478
4.65012
4.65303
4.65832
4.66131
4.66654
4.66961
4.67222
4.67636
4.70707
4.63191
4.63854
4.64127
4.64673
4.64946
4.65497
4.65771
4.66321
4.666
4.67146
4.67433
4.67974
4.68269
4.68805
4.69108
4.69639
4.6995
4.70214
4.70634
4.72538
4.64961
4.65629
4.65905
4.66454
4.66733
4.67283
4.67564
4.68113
4.68399
4.68945
4.69238
4.69781
4.70081
4.70618
4.70926
4.71459
4.71774
4.7204
4.72463
4.73703
4.66088
4.66758
4.67035
4.67589
4.67866
4.68423
4.68701
4.69258
4.69541
4.70094
4.70385
4.70933
4.71232
4.71775
4.72082
4.7262
4.72935
4.73203
4.73628
4.74527
4.66884
4.67558
4.67836
4.68391
4.6867
4.69228
4.69508
4.70066
4.70351
4.70905
4.71197
4.71747
4.72047
4.72592
4.72901
4.7344
4.73757
4.74026
4.74452
4.75201
4.67536
4.68211
4.6849
4.69048
4.69327
4.69886
4.70168
4.70727
4.71013
4.71568
4.71862
4.72412
4.72715
4.7326
4.7357
4.7411
4.74429
4.74698
4.75126
4.75832
4.68146
4.68822
4.69101
4.69662
4.6994
4.70503
4.70784
4.71345
4.71631
4.72189
4.72483
4.73036
4.73337
4.73885
4.74195
4.74738
4.75057
4.75327
4.75756
4.76478
4.68771
4.69451
4.69731
4.70291
4.70572
4.71133
4.71418
4.71978
4.72268
4.72825
4.73121
4.73674
4.73979
4.74526
4.74839
4.75381
4.75702
4.75972
4.76402
4.77178
4.69449
4.70129
4.70411
4.70971
4.71254
4.71818
4.72102
4.72665
4.72954
4.73514
4.73811
4.74365
4.7467
4.7522
4.75533
4.76078
4.76399
4.7667
4.77102
4.77948
4.70194
4.70878
4.71159
4.71723
4.72006
4.7257
4.72858
4.7342
4.73713
4.74272
4.74571
4.75127
4.75433
4.75984
4.76299
4.76845
4.77167
4.77439
4.77872
4.7879
4.71008
4.71694
4.71977
4.72542
4.72827
4.73393
4.7368
4.74246
4.74538
4.75101
4.754
4.75959
4.76265
4.76819
4.77134
4.77682
4.78005
4.78279
4.78713
4.79668
4.71859
4.72546
4.7283
4.73398
4.73682
4.74253
4.74539
4.75109
4.754
4.75966
4.76266
4.76826
4.77134
4.77689
4.78006
4.78556
4.78881
4.79155
4.79591
4.80505
4.7267
4.7336
4.73645
4.74214
4.745
4.75071
4.75359
4.7593
4.76223
4.7679
4.77091
4.77653
4.77962
4.78519
4.78837
4.79389
4.79715
4.7999
4.80427
4.81177
4.73474
4.7414
4.74415
4.74968
4.75245
4.75803
4.76083
4.76643
4.7693
4.77487
4.77784
4.78338
4.78646
4.79195
4.79515
4.8006
4.80391
4.80663
4.81101
4.81482
4.81482
4.81482
4.81482
4.81482
4.81482
4.81482
4.81481
4.81481
4.81481
4.81481
4.81481
4.81481
4.81481
4.81481
4.81481
4.81481
4.81481
4.81481
4.81481
)
;

boundaryField
{
    movingWall
    {
        type            calculated;
        value           nonuniform List<scalar> 
20
(
4.81482
4.81482
4.81482
4.81482
4.81482
4.81482
4.81482
4.81481
4.81481
4.81481
4.81481
4.81481
4.81481
4.81481
4.81481
4.81481
4.81481
4.81481
4.81481
4.81481
)
;
    }
    fixedWalls
    {
        type            calculated;
        value           nonuniform List<scalar> 
60
(
4.29598
4.36347
4.46245
4.55683
4.62887
4.67708
4.70707
4.72538
4.73703
4.74527
4.75201
4.75832
4.76478
4.77178
4.77948
4.7879
4.79668
4.80505
4.81177
4.81482
4.29597
4.3629
4.46182
4.55617
4.62818
4.67636
4.70634
4.72463
4.73628
4.74452
4.75126
4.75756
4.76402
4.77102
4.77872
4.78713
4.79591
4.80427
4.81101
4.81481
4.29598
4.29598
4.29597
4.29598
4.29597
4.29598
4.29597
4.29598
4.29596
4.29598
4.29596
4.29598
4.29596
4.29597
4.29597
4.29597
4.29597
4.29597
4.29597
4.29597
)
;
    }
    frontAndBack
    {
        type            empty;
    }
}


// ************************************************************************* //
