/*--------------------------------*- C++ -*----------------------------------*\
| =========                 |                                                 |
| \\      /  F ield         | OpenFOAM: The Open Source CFD Toolbox           |
|  \\    /   O peration     | Version:  2312                                  |
|   \\  /    A nd           | Website:  www.openfoam.com                      |
|    \\/     M anipulation  |                                                 |
\*---------------------------------------------------------------------------*/
FoamFile
{
    version     2.0;
    format      ascii;
    arch        "LSB;label=32;scalar=64";
    class       volSymmTensorField;
    location    "7";
    object      turbulenceProperties:R;
}
// * * * * * * * * * * * * * * * * * * * * * * * * * * * * * * * * * * * * * //

dimensions      [0 2 -2 0 0 0 0];

internalField   nonuniform List<symmTensor> 
400
(
(3.85641e-06 -2.01943e-17 -0 3.85641e-06 -0 3.85641e-06)
(3.8564e-06 2.31251e-17 -0 3.8564e-06 -0 3.8564e-06)
(3.8564e-06 -4.80349e-18 -0 3.8564e-06 -0 3.8564e-06)
(3.8564e-06 1.19094e-18 -0 3.8564e-06 -0 3.8564e-06)
(3.85639e-06 -2.88944e-19 -0 3.85639e-06 -0 3.85639e-06)
(3.8564e-06 4.92282e-20 -0 3.8564e-06 -0 3.8564e-06)
(3.85639e-06 -5.55409e-20 -0 3.85639e-06 -0 3.85639e-06)
(3.85639e-06 1.10659e-21 -0 3.85639e-06 -0 3.85639e-06)
(3.85639e-06 6.0111e-21 -0 3.85639e-06 -0 3.85639e-06)
(3.85639e-06 7.88884e-20 -0 3.85639e-06 -0 3.85639e-06)
(3.85639e-06 7.00546e-20 -0 3.85639e-06 -0 3.85639e-06)
(3.85639e-06 6.30729e-20 -0 3.85639e-06 -0 3.85639e-06)
(3.85639e-06 5.62971e-20 -0 3.85639e-06 -0 3.85639e-06)
(3.85639e-06 2.0177e-21 -0 3.85639e-06 -0 3.85639e-06)
(3.85639e-06 1.07515e-19 -0 3.85639e-06 -0 3.85639e-06)
(3.85639e-06 2.15542e-20 -0 3.85639e-06 -0 3.85639e-06)
(3.85639e-06 -3.86782e-20 -0 3.85639e-06 -0 3.85639e-06)
(3.85639e-06 -4.12342e-20 -0 3.85639e-06 -0 3.85639e-06)
(3.85639e-06 -1.18654e-20 -0 3.85639e-06 -0 3.85639e-06)
(3.85639e-06 5.27137e-21 -0 3.85639e-06 -0 3.85639e-06)
(3.97774e-06 -4.11267e-19 -0 3.97774e-06 -0 3.97774e-06)
(3.97774e-06 -1.70342e-19 -0 3.97774e-06 -0 3.97774e-06)
(3.97757e-06 1.92136e-19 -0 3.97757e-06 -0 3.97757e-06)
(3.97749e-06 9.10404e-20 -0 3.97749e-06 -0 3.97749e-06)
(3.97737e-06 2.00986e-19 -0 3.97737e-06 -0 3.97737e-06)
(3.97731e-06 1.05563e-19 -0 3.97731e-06 -0 3.97731e-06)
(3.9772e-06 1.57957e-19 -0 3.9772e-06 -0 3.9772e-06)
(3.97714e-06 1.00771e-19 -0 3.97714e-06 -0 3.97714e-06)
(3.97706e-06 1.46901e-20 -0 3.97706e-06 -0 3.97706e-06)
(3.977e-06 -4.17015e-21 -0 3.977e-06 -0 3.977e-06)
(3.97694e-06 3.65077e-20 -0 3.97694e-06 -0 3.97694e-06)
(3.97689e-06 1.08247e-19 -0 3.97689e-06 -0 3.97689e-06)
(3.97685e-06 7.22298e-21 -0 3.97685e-06 -0 3.97685e-06)
(3.97681e-06 8.80881e-20 -0 3.97681e-06 -0 3.97681e-06)
(3.97678e-06 2.09258e-20 -0 3.97678e-06 -0 3.97678e-06)
(3.97675e-06 1.0011e-19 -0 3.97675e-06 -0 3.97675e-06)
(3.97673e-06 4.34925e-20 -0 3.97673e-06 -0 3.97673e-06)
(3.97672e-06 4.28972e-21 -0 3.97672e-06 -0 3.97672e-06)
(3.97671e-06 -7.45669e-21 -0 3.97671e-06 -0 3.97671e-06)
(3.97671e-06 -3.95814e-20 -0 3.97671e-06 -0 3.97671e-06)
(4.15921e-06 2.21771e-17 -0 4.15921e-06 -0 4.15921e-06)
(4.15921e-06 -2.14348e-17 -0 4.15921e-06 -0 4.15921e-06)
(4.15902e-06 4.22163e-18 -0 4.15902e-06 -0 4.15902e-06)
(4.15894e-06 -1.20116e-18 -0 4.15894e-06 -0 4.15894e-06)
(4.15881e-06 1.44923e-20 -0 4.15881e-06 -0 4.15881e-06)
(4.15874e-06 -2.23767e-19 -0 4.15874e-06 -0 4.15874e-06)
(4.1586e-06 -1.31422e-19 -0 4.1586e-06 -0 4.1586e-06)
(4.15856e-06 -1.28987e-19 -0 4.15856e-06 -0 4.15856e-06)
(4.15845e-06 -7.9283e-20 -0 4.15845e-06 -0 4.15845e-06)
(4.1584e-06 -2.71209e-20 -0 4.1584e-06 -0 4.1584e-06)
(4.15832e-06 -7.71458e-20 -0 4.15832e-06 -0 4.15832e-06)
(4.15828e-06 -1.40242e-19 -0 4.15828e-06 -0 4.15828e-06)
(4.15821e-06 -1.10229e-19 -0 4.15821e-06 -0 4.15821e-06)
(4.15819e-06 -4.66756e-20 -0 4.15819e-06 -0 4.15819e-06)
(4.15814e-06 3.69763e-21 -0 4.15814e-06 -0 4.15814e-06)
(4.15812e-06 -1.21279e-20 -0 4.15812e-06 -0 4.15812e-06)
(4.15809e-06 4.34701e-20 -0 4.15809e-06 -0 4.15809e-06)
(4.15808e-06 2.92124e-20 -0 4.15808e-06 -0 4.15808e-06)
(4.15807e-06 1.07694e-20 -0 4.15807e-06 -0 4.15807e-06)
(4.15807e-06 6.49588e-21 -0 4.15807e-06 -0 4.15807e-06)
(4.33624e-06 -2.07238e-17 -0 4.33624e-06 -0 4.33624e-06)
(4.33624e-06 2.0548e-17 -0 4.33624e-06 -0 4.33624e-06)
(4.33602e-06 -4.23067e-18 -0 4.33602e-06 -0 4.33602e-06)
(4.33593e-06 9.11368e-19 -0 4.33593e-06 -0 4.33593e-06)
(4.33579e-06 -3.3343e-19 -0 4.33579e-06 -0 4.33579e-06)
(4.33571e-06 -3.42697e-20 -0 4.33571e-06 -0 4.33571e-06)
(4.33557e-06 -5.27686e-20 -0 4.33557e-06 -0 4.33557e-06)
(4.33552e-06 -5.37299e-20 -0 4.33552e-06 -0 4.33552e-06)
(4.33539e-06 -2.07998e-20 -0 4.33539e-06 -0 4.33539e-06)
(4.33536e-06 -8.78267e-20 -0 4.33536e-06 -0 4.33536e-06)
(4.33525e-06 -6.43393e-20 -0 4.33525e-06 -0 4.33525e-06)
(4.33522e-06 -5.96173e-20 -0 4.33522e-06 -0 4.33522e-06)
(4.33514e-06 -6.5657e-20 -0 4.33514e-06 -0 4.33514e-06)
(4.33512e-06 -9.44039e-20 -0 4.33512e-06 -0 4.33512e-06)
(4.33506e-06 -9.62705e-20 -0 4.33506e-06 -0 4.33506e-06)
(4.33505e-06 -7.53481e-20 -0 4.33505e-06 -0 4.33505e-06)
(4.33501e-06 -9.09068e-20 -0 4.33501e-06 -0 4.33501e-06)
(4.335e-06 -2.90539e-20 -0 4.335e-06 -0 4.335e-06)
(4.33499e-06 5.85101e-20 -0 4.33499e-06 -0 4.33499e-06)
(4.33499e-06 1.96365e-20 -0 4.33499e-06 -0 4.33499e-06)
(4.47397e-06 4.52813e-18 -0 4.47397e-06 -0 4.47397e-06)
(4.47397e-06 -5.67534e-18 -0 4.47397e-06 -0 4.47397e-06)
(4.47374e-06 1.10163e-18 -0 4.47374e-06 -0 4.47374e-06)
(4.47365e-06 -2.74594e-19 -0 4.47365e-06 -0 4.47365e-06)
(4.47348e-06 1.24164e-19 -0 4.47348e-06 -0 4.47348e-06)
(4.47341e-06 4.01343e-20 -0 4.47341e-06 -0 4.47341e-06)
(4.47326e-06 1.49645e-20 -0 4.47326e-06 -0 4.47326e-06)
(4.4732e-06 1.40432e-20 -0 4.4732e-06 -0 4.4732e-06)
(4.47307e-06 7.23739e-21 -0 4.47307e-06 -0 4.47307e-06)
(4.47302e-06 -5.26315e-20 -0 4.47302e-06 -0 4.47302e-06)
(4.47293e-06 -1.50686e-20 -0 4.47293e-06 -0 4.47293e-06)
(4.47288e-06 -3.47541e-20 -0 4.47288e-06 -0 4.47288e-06)
(4.47281e-06 6.66395e-20 -0 4.47281e-06 -0 4.47281e-06)
(4.47277e-06 -2.34255e-20 -0 4.47277e-06 -0 4.47277e-06)
(4.47272e-06 -3.36654e-20 -0 4.47272e-06 -0 4.47272e-06)
(4.4727e-06 -6.4182e-20 -0 4.4727e-06 -0 4.4727e-06)
(4.47266e-06 -4.72608e-20 -0 4.47266e-06 -0 4.47266e-06)
(4.47265e-06 -4.80227e-21 -0 4.47265e-06 -0 4.47265e-06)
(4.47264e-06 -1.06998e-19 -0 4.47264e-06 -0 4.47264e-06)
(4.47264e-06 4.57486e-20 -0 4.47264e-06 -0 4.47264e-06)
(4.56741e-06 1.40258e-17 -0 4.56741e-06 -0 4.56741e-06)
(4.56741e-06 -1.36986e-17 -0 4.56741e-06 -0 4.56741e-06)
(4.56718e-06 2.85646e-18 -0 4.56718e-06 -0 4.56718e-06)
(4.56707e-06 -6.08586e-19 -0 4.56707e-06 -0 4.56707e-06)
(4.56691e-06 2.35157e-19 -0 4.56691e-06 -0 4.56691e-06)
(4.56683e-06 -3.20955e-20 -0 4.56683e-06 -0 4.56683e-06)
(4.56667e-06 -4.96684e-20 -0 4.56667e-06 -0 4.56667e-06)
(4.56662e-06 6.97413e-20 -0 4.56662e-06 -0 4.56662e-06)
(4.56647e-06 8.89023e-21 -0 4.56647e-06 -0 4.56647e-06)
(4.56644e-06 1.54201e-20 -0 4.56644e-06 -0 4.56644e-06)
(4.56632e-06 1.79059e-20 -0 4.56632e-06 -0 4.56632e-06)
(4.56629e-06 8.15005e-21 -0 4.56629e-06 -0 4.56629e-06)
(4.56619e-06 -3.67711e-21 -0 4.56619e-06 -0 4.56619e-06)
(4.56617e-06 -1.02764e-20 -0 4.56617e-06 -0 4.56617e-06)
(4.5661e-06 -9.75732e-21 -0 4.5661e-06 -0 4.5661e-06)
(4.56609e-06 3.57954e-20 -0 4.56609e-06 -0 4.56609e-06)
(4.56605e-06 -3.92526e-21 -0 4.56605e-06 -0 4.56605e-06)
(4.56604e-06 8.34069e-21 -0 4.56604e-06 -0 4.56604e-06)
(4.56602e-06 2.13339e-21 -0 4.56602e-06 -0 4.56602e-06)
(4.56602e-06 8.78825e-21 -0 4.56602e-06 -0 4.56602e-06)
(4.62608e-06 -2.26696e-17 -0 4.62608e-06 -0 4.62608e-06)
(4.62608e-06 2.32793e-17 -0 4.62608e-06 -0 4.62608e-06)
(4.62583e-06 -4.56805e-18 -0 4.62583e-06 -0 4.62583e-06)
(4.62573e-06 1.29482e-18 -0 4.62573e-06 -0 4.62573e-06)
(4.62556e-06 -4.99139e-20 -0 4.62556e-06 -0 4.62556e-06)
(4.62548e-06 2.46247e-19 -0 4.62548e-06 -0 4.62548e-06)
(4.62531e-06 2.81265e-19 -0 4.62531e-06 -0 4.62531e-06)
(4.62526e-06 9.86353e-20 -0 4.62526e-06 -0 4.62526e-06)
(4.62511e-06 1.48341e-19 -0 4.62511e-06 -0 4.62511e-06)
(4.62507e-06 1.51303e-19 -0 4.62507e-06 -0 4.62507e-06)
(4.62495e-06 9.48916e-20 -0 4.62495e-06 -0 4.62495e-06)
(4.62492e-06 5.30589e-20 -0 4.62492e-06 -0 4.62492e-06)
(4.62482e-06 8.44307e-20 -0 4.62482e-06 -0 4.62482e-06)
(4.6248e-06 1.52369e-19 -0 4.6248e-06 -0 4.6248e-06)
(4.62473e-06 8.11755e-20 -0 4.62473e-06 -0 4.62473e-06)
(4.62472e-06 4.85683e-20 -0 4.62472e-06 -0 4.62472e-06)
(4.62467e-06 7.09816e-20 -0 4.62467e-06 -0 4.62467e-06)
(4.62467e-06 7.5136e-20 -0 4.62467e-06 -0 4.62467e-06)
(4.62465e-06 1.03657e-20 -0 4.62465e-06 -0 4.62465e-06)
(4.62465e-06 1.36846e-20 -0 4.62465e-06 -0 4.62465e-06)
(4.66208e-06 8.54771e-18 -0 4.66208e-06 -0 4.66208e-06)
(4.66208e-06 -1.0037e-17 -0 4.66208e-06 -0 4.66208e-06)
(4.66183e-06 1.92761e-18 -0 4.66183e-06 -0 4.66183e-06)
(4.66172e-06 -4.63476e-19 -0 4.66172e-06 -0 4.66172e-06)
(4.66156e-06 1.13151e-21 -0 4.66156e-06 -0 4.66156e-06)
(4.66145e-06 -1.84874e-20 -0 4.66145e-06 -0 4.66145e-06)
(4.66133e-06 -7.82747e-20 -0 4.66133e-06 -0 4.66133e-06)
(4.66123e-06 4.99647e-21 -0 4.66123e-06 -0 4.66123e-06)
(4.66112e-06 1.31783e-20 -0 4.66112e-06 -0 4.66112e-06)
(4.66104e-06 -7.33922e-20 -0 4.66104e-06 -0 4.66104e-06)
(4.66096e-06 -1.5476e-20 -0 4.66096e-06 -0 4.66096e-06)
(4.66089e-06 -1.38629e-20 -0 4.66089e-06 -0 4.66089e-06)
(4.66082e-06 -6.72557e-20 -0 4.66082e-06 -0 4.66082e-06)
(4.66077e-06 2.59177e-20 -0 4.66077e-06 -0 4.66077e-06)
(4.66073e-06 1.21041e-20 -0 4.66073e-06 -0 4.66073e-06)
(4.66069e-06 -5.21065e-20 -0 4.66069e-06 -0 4.66069e-06)
(4.66066e-06 -1.96646e-20 -0 4.66066e-06 -0 4.66066e-06)
(4.66065e-06 -9.39087e-20 -0 4.66065e-06 -0 4.66065e-06)
(4.66063e-06 6.7906e-21 -0 4.66063e-06 -0 4.66063e-06)
(4.66063e-06 1.12032e-20 -0 4.66063e-06 -0 4.66063e-06)
(4.68507e-06 9.33287e-18 -0 4.68507e-06 -0 4.68507e-06)
(4.68507e-06 -8.8741e-18 -0 4.68507e-06 -0 4.68507e-06)
(4.68482e-06 1.67262e-18 -0 4.68482e-06 -0 4.68482e-06)
(4.68472e-06 -6.9263e-19 -0 4.68472e-06 -0 4.68472e-06)
(4.68454e-06 -1.66434e-19 -0 4.68454e-06 -0 4.68454e-06)
(4.68446e-06 -2.15757e-19 -0 4.68446e-06 -0 4.68446e-06)
(4.68429e-06 -1.63833e-19 -0 4.68429e-06 -0 4.68429e-06)
(4.68424e-06 -2.06572e-19 -0 4.68424e-06 -0 4.68424e-06)
(4.68408e-06 -1.26814e-19 -0 4.68408e-06 -0 4.68408e-06)
(4.68404e-06 -8.62927e-20 -0 4.68404e-06 -0 4.68404e-06)
(4.68392e-06 4.59607e-20 -0 4.68392e-06 -0 4.68392e-06)
(4.68388e-06 1.41107e-20 -0 4.68388e-06 -0 4.68388e-06)
(4.68379e-06 2.07298e-20 -0 4.68379e-06 -0 4.68379e-06)
(4.68376e-06 -1.34425e-19 -0 4.68376e-06 -0 4.68376e-06)
(4.68369e-06 -1.67818e-20 -0 4.68369e-06 -0 4.68369e-06)
(4.68368e-06 1.75311e-21 -0 4.68368e-06 -0 4.68368e-06)
(4.68363e-06 -2.71051e-21 -0 4.68363e-06 -0 4.68363e-06)
(4.68363e-06 -2.18048e-20 -0 4.68363e-06 -0 4.68363e-06)
(4.68361e-06 1.3414e-20 -0 4.68361e-06 -0 4.68361e-06)
(4.68361e-06 -4.94867e-20 -0 4.68361e-06 -0 4.68361e-06)
(4.70137e-06 -1.25714e-17 -0 4.70137e-06 -0 4.70137e-06)
(4.70137e-06 1.54103e-17 -0 4.70137e-06 -0 4.70137e-06)
(4.70111e-06 -3.01016e-18 -0 4.70111e-06 -0 4.70111e-06)
(4.70101e-06 9.10456e-19 -0 4.70101e-06 -0 4.70101e-06)
(4.70084e-06 -1.72134e-20 -0 4.70084e-06 -0 4.70084e-06)
(4.70075e-06 1.03943e-19 -0 4.70075e-06 -0 4.70075e-06)
(4.70059e-06 6.41723e-20 -0 4.70059e-06 -0 4.70059e-06)
(4.70053e-06 5.59548e-20 -0 4.70053e-06 -0 4.70053e-06)
(4.70037e-06 2.48076e-20 -0 4.70037e-06 -0 4.70037e-06)
(4.70033e-06 7.19385e-20 -0 4.70033e-06 -0 4.70033e-06)
(4.70021e-06 1.42472e-20 -0 4.70021e-06 -0 4.70021e-06)
(4.70017e-06 1.30007e-20 -0 4.70017e-06 -0 4.70017e-06)
(4.70008e-06 -3.1598e-20 -0 4.70008e-06 -0 4.70008e-06)
(4.70005e-06 8.34776e-21 -0 4.70005e-06 -0 4.70005e-06)
(4.69998e-06 -4.39234e-20 -0 4.69998e-06 -0 4.69998e-06)
(4.69996e-06 -1.83441e-20 -0 4.69996e-06 -0 4.69996e-06)
(4.69992e-06 -8.56027e-21 -0 4.69992e-06 -0 4.69992e-06)
(4.69991e-06 4.73881e-20 -0 4.69991e-06 -0 4.69991e-06)
(4.6999e-06 1.2625e-20 -0 4.6999e-06 -0 4.6999e-06)
(4.69989e-06 -1.04096e-20 -0 4.69989e-06 -0 4.69989e-06)
(4.71471e-06 1.0363e-17 -0 4.71471e-06 -0 4.71471e-06)
(4.71471e-06 -1.47761e-17 -0 4.71471e-06 -0 4.71471e-06)
(4.71445e-06 3.08685e-18 -0 4.71445e-06 -0 4.71445e-06)
(4.71435e-06 -7.38496e-19 -0 4.71435e-06 -0 4.71435e-06)
(4.71416e-06 1.62794e-19 -0 4.71416e-06 -0 4.71416e-06)
(4.71408e-06 -4.97264e-20 -0 4.71408e-06 -0 4.71408e-06)
(4.71392e-06 -4.51175e-20 -0 4.71392e-06 -0 4.71392e-06)
(4.71385e-06 -2.15627e-21 -0 4.71385e-06 -0 4.71385e-06)
(4.71371e-06 -7.20111e-20 -0 4.71371e-06 -0 4.71371e-06)
(4.71366e-06 -6.6895e-20 -0 4.71366e-06 -0 4.71366e-06)
(4.71354e-06 -1.25991e-19 -0 4.71354e-06 -0 4.71354e-06)
(4.71349e-06 -5.03421e-20 -0 4.71349e-06 -0 4.71349e-06)
(4.71341e-06 -2.94595e-20 -0 4.71341e-06 -0 4.71341e-06)
(4.71337e-06 3.04446e-20 -0 4.71337e-06 -0 4.71337e-06)
(4.71331e-06 4.31948e-20 -0 4.71331e-06 -0 4.71331e-06)
(4.71329e-06 2.37942e-20 -0 4.71329e-06 -0 4.71329e-06)
(4.71325e-06 -6.90907e-22 -0 4.71325e-06 -0 4.71325e-06)
(4.71324e-06 -1.45556e-20 -0 4.71324e-06 -0 4.71324e-06)
(4.71323e-06 -4.59629e-20 -0 4.71323e-06 -0 4.71323e-06)
(4.71322e-06 4.53426e-20 -0 4.71322e-06 -0 4.71322e-06)
(4.72719e-06 -1.19681e-17 -0 4.72719e-06 -0 4.72719e-06)
(4.72719e-06 1.44265e-17 -0 4.72719e-06 -0 4.72719e-06)
(4.72693e-06 -2.93859e-18 -0 4.72693e-06 -0 4.72693e-06)
(4.72683e-06 6.97386e-19 -0 4.72683e-06 -0 4.72683e-06)
(4.72664e-06 -1.69351e-19 -0 4.72664e-06 -0 4.72664e-06)
(4.72657e-06 6.91868e-20 -0 4.72657e-06 -0 4.72657e-06)
(4.72639e-06 4.61796e-20 -0 4.72639e-06 -0 4.72639e-06)
(4.72633e-06 5.30095e-20 -0 4.72633e-06 -0 4.72633e-06)
(4.72618e-06 2.51487e-20 -0 4.72618e-06 -0 4.72618e-06)
(4.72614e-06 4.32157e-20 -0 4.72614e-06 -0 4.72614e-06)
(4.72601e-06 7.07793e-20 -0 4.72601e-06 -0 4.72601e-06)
(4.72598e-06 8.62419e-20 -0 4.72598e-06 -0 4.72598e-06)
(4.72588e-06 1.17193e-19 -0 4.72588e-06 -0 4.72588e-06)
(4.72585e-06 1.00357e-19 -0 4.72585e-06 -0 4.72585e-06)
(4.72578e-06 1.15655e-19 -0 4.72578e-06 -0 4.72578e-06)
(4.72577e-06 9.73298e-20 -0 4.72577e-06 -0 4.72577e-06)
(4.72572e-06 9.72319e-20 -0 4.72572e-06 -0 4.72572e-06)
(4.72571e-06 -3.86601e-20 -0 4.72571e-06 -0 4.72571e-06)
(4.7257e-06 3.58001e-20 -0 4.7257e-06 -0 4.7257e-06)
(4.72569e-06 4.06611e-21 -0 4.72569e-06 -0 4.72569e-06)
(4.74002e-06 7.23506e-18 -0 4.74002e-06 -0 4.74002e-06)
(4.74002e-06 -6.69426e-18 -0 4.74002e-06 -0 4.74002e-06)
(4.73975e-06 1.42401e-18 -0 4.73975e-06 -0 4.73975e-06)
(4.73965e-06 -2.58779e-19 -0 4.73965e-06 -0 4.73965e-06)
(4.73948e-06 1.94984e-19 -0 4.73948e-06 -0 4.73948e-06)
(4.73938e-06 6.9574e-20 -0 4.73938e-06 -0 4.73938e-06)
(4.73923e-06 4.38745e-21 -0 4.73923e-06 -0 4.73923e-06)
(4.73915e-06 1.1195e-19 -0 4.73915e-06 -0 4.73915e-06)
(4.73902e-06 8.25803e-20 -0 4.73902e-06 -0 4.73902e-06)
(4.73895e-06 1.20235e-19 -0 4.73895e-06 -0 4.73895e-06)
(4.73884e-06 8.63111e-20 -0 4.73884e-06 -0 4.73884e-06)
(4.73879e-06 5.5194e-20 -0 4.73879e-06 -0 4.73879e-06)
(4.73871e-06 -4.82131e-20 -0 4.73871e-06 -0 4.73871e-06)
(4.73866e-06 -7.27794e-20 -0 4.73866e-06 -0 4.73866e-06)
(4.73861e-06 -2.44388e-20 -0 4.73861e-06 -0 4.73861e-06)
(4.73858e-06 -1.14239e-19 -0 4.73858e-06 -0 4.73858e-06)
(4.73855e-06 -3.39349e-21 -0 4.73855e-06 -0 4.73855e-06)
(4.73853e-06 2.4843e-20 -0 4.73853e-06 -0 4.73853e-06)
(4.73852e-06 -2.41241e-21 -0 4.73852e-06 -0 4.73852e-06)
(4.73851e-06 -1.02961e-20 -0 4.73851e-06 -0 4.73851e-06)
(4.7539e-06 1.04469e-17 -0 4.7539e-06 -0 4.7539e-06)
(4.7539e-06 -1.12729e-17 -0 4.7539e-06 -0 4.7539e-06)
(4.75364e-06 2.52635e-18 -0 4.75364e-06 -0 4.75364e-06)
(4.75353e-06 -5.61554e-19 -0 4.75353e-06 -0 4.75353e-06)
(4.75336e-06 1.79445e-19 -0 4.75336e-06 -0 4.75336e-06)
(4.75326e-06 1.02115e-20 -0 4.75326e-06 -0 4.75326e-06)
(4.75311e-06 3.5812e-20 -0 4.75311e-06 -0 4.75311e-06)
(4.75304e-06 2.37707e-22 -0 4.75304e-06 -0 4.75304e-06)
(4.75289e-06 7.42964e-20 -0 4.75289e-06 -0 4.75289e-06)
(4.75283e-06 -1.42271e-20 -0 4.75283e-06 -0 4.75283e-06)
(4.75272e-06 -2.86347e-20 -0 4.75272e-06 -0 4.75272e-06)
(4.75267e-06 2.24395e-20 -0 4.75267e-06 -0 4.75267e-06)
(4.75259e-06 -2.32213e-20 -0 4.75259e-06 -0 4.75259e-06)
(4.75254e-06 -2.94912e-20 -0 4.75254e-06 -0 4.75254e-06)
(4.75249e-06 -8.74653e-20 -0 4.75249e-06 -0 4.75249e-06)
(4.75246e-06 -1.20635e-20 -0 4.75246e-06 -0 4.75246e-06)
(4.75242e-06 -1.206e-19 -0 4.75242e-06 -0 4.75242e-06)
(4.75241e-06 1.27785e-20 -0 4.75241e-06 -0 4.75241e-06)
(4.7524e-06 -2.57391e-20 -0 4.7524e-06 -0 4.7524e-06)
(4.75239e-06 -2.77046e-20 -0 4.75239e-06 -0 4.75239e-06)
(4.76923e-06 -2.41781e-17 -0 4.76923e-06 -0 4.76923e-06)
(4.76923e-06 2.49922e-17 -0 4.76923e-06 -0 4.76923e-06)
(4.76896e-06 -5.07925e-18 -0 4.76896e-06 -0 4.76896e-06)
(4.76886e-06 1.32721e-18 -0 4.76886e-06 -0 4.76886e-06)
(4.76868e-06 -1.87003e-19 -0 4.76868e-06 -0 4.76868e-06)
(4.76858e-06 8.9729e-20 -0 4.76858e-06 -0 4.76858e-06)
(4.76843e-06 1.74e-19 -0 4.76843e-06 -0 4.76843e-06)
(4.76834e-06 1.40056e-19 -0 4.76834e-06 -0 4.76834e-06)
(4.76822e-06 6.20164e-20 -0 4.76822e-06 -0 4.76822e-06)
(4.76814e-06 5.98723e-20 -0 4.76814e-06 -0 4.76814e-06)
(4.76804e-06 -2.87506e-20 -0 4.76804e-06 -0 4.76804e-06)
(4.76798e-06 -5.93758e-20 -0 4.76798e-06 -0 4.76798e-06)
(4.7679e-06 1.43827e-19 -0 4.7679e-06 -0 4.7679e-06)
(4.76786e-06 1.04919e-19 -0 4.76786e-06 -0 4.76786e-06)
(4.7678e-06 1.07254e-19 -0 4.7678e-06 -0 4.7678e-06)
(4.76777e-06 1.44391e-19 -0 4.76777e-06 -0 4.76777e-06)
(4.76774e-06 4.15404e-20 -0 4.76774e-06 -0 4.76774e-06)
(4.76772e-06 9.97048e-20 -0 4.76772e-06 -0 4.76772e-06)
(4.76771e-06 5.57037e-20 -0 4.76771e-06 -0 4.76771e-06)
(4.76771e-06 -8.69045e-21 -0 4.76771e-06 -0 4.76771e-06)
(4.78597e-06 1.61842e-17 -0 4.78597e-06 -0 4.78597e-06)
(4.78597e-06 -1.76095e-17 -0 4.78597e-06 -0 4.78597e-06)
(4.78571e-06 3.42499e-18 -0 4.78571e-06 -0 4.78571e-06)
(4.7856e-06 -9.66268e-19 -0 4.7856e-06 -0 4.7856e-06)
(4.78542e-06 1.25809e-19 -0 4.78542e-06 -0 4.78542e-06)
(4.78532e-06 -1.61886e-20 -0 4.78532e-06 -0 4.78532e-06)
(4.78516e-06 -8.56469e-20 -0 4.78516e-06 -0 4.78516e-06)
(4.78508e-06 -1.37433e-19 -0 4.78508e-06 -0 4.78508e-06)
(4.78495e-06 -1.05584e-19 -0 4.78495e-06 -0 4.78495e-06)
(4.78488e-06 -3.93543e-20 -0 4.78488e-06 -0 4.78488e-06)
(4.78477e-06 -2.88243e-20 -0 4.78477e-06 -0 4.78477e-06)
(4.78472e-06 6.78597e-20 -0 4.78472e-06 -0 4.78472e-06)
(4.78463e-06 -1.03995e-19 -0 4.78463e-06 -0 4.78463e-06)
(4.78459e-06 -1.0573e-19 -0 4.78459e-06 -0 4.78459e-06)
(4.78453e-06 -4.21192e-20 -0 4.78453e-06 -0 4.78453e-06)
(4.78451e-06 -3.0193e-20 -0 4.78451e-06 -0 4.78451e-06)
(4.78447e-06 2.3897e-20 -0 4.78447e-06 -0 4.78447e-06)
(4.78446e-06 -4.19367e-21 -0 4.78446e-06 -0 4.78446e-06)
(4.78444e-06 -2.04984e-20 -0 4.78444e-06 -0 4.78444e-06)
(4.78444e-06 -5.24217e-20 -0 4.78444e-06 -0 4.78444e-06)
(4.80348e-06 6.76547e-18 -0 4.80348e-06 -0 4.80348e-06)
(4.80348e-06 -3.97296e-18 -0 4.80348e-06 -0 4.80348e-06)
(4.80321e-06 8.20376e-19 -0 4.80321e-06 -0 4.80321e-06)
(4.80311e-06 -2.31431e-19 -0 4.80311e-06 -0 4.80311e-06)
(4.80292e-06 -1.15709e-19 -0 4.80292e-06 -0 4.80292e-06)
(4.80283e-06 -1.59537e-19 -0 4.80283e-06 -0 4.80283e-06)
(4.80266e-06 -1.28201e-19 -0 4.80266e-06 -0 4.80266e-06)
(4.80259e-06 -1.56299e-19 -0 4.80259e-06 -0 4.80259e-06)
(4.80244e-06 -1.15549e-19 -0 4.80244e-06 -0 4.80244e-06)
(4.80239e-06 -7.35725e-20 -0 4.80239e-06 -0 4.80239e-06)
(4.80226e-06 -2.99143e-20 -0 4.80226e-06 -0 4.80226e-06)
(4.80222e-06 -9.80154e-20 -0 4.80222e-06 -0 4.80222e-06)
(4.80213e-06 -1.27992e-20 -0 4.80213e-06 -0 4.80213e-06)
(4.80209e-06 -1.29145e-20 -0 4.80209e-06 -0 4.80209e-06)
(4.80203e-06 -8.36386e-20 -0 4.80203e-06 -0 4.80203e-06)
(4.802e-06 -6.23167e-20 -0 4.802e-06 -0 4.802e-06)
(4.80197e-06 4.05939e-20 -0 4.80197e-06 -0 4.80197e-06)
(4.80195e-06 -1.06062e-19 -0 4.80195e-06 -0 4.80195e-06)
(4.80194e-06 -2.7137e-20 -0 4.80194e-06 -0 4.80194e-06)
(4.80193e-06 -2.60435e-20 -0 4.80193e-06 -0 4.80193e-06)
(4.82018e-06 -2.42315e-17 -0 4.82018e-06 -0 4.82018e-06)
(4.82018e-06 2.07463e-17 -0 4.82018e-06 -0 4.82018e-06)
(4.81991e-06 -4.30517e-18 -0 4.81991e-06 -0 4.81991e-06)
(4.8198e-06 1.10613e-18 -0 4.8198e-06 -0 4.8198e-06)
(4.81961e-06 -1.74409e-19 -0 4.81961e-06 -0 4.81961e-06)
(4.81952e-06 6.33088e-20 -0 4.81952e-06 -0 4.81952e-06)
(4.81935e-06 1.29309e-19 -0 4.81935e-06 -0 4.81935e-06)
(4.81928e-06 8.41506e-20 -0 4.81928e-06 -0 4.81928e-06)
(4.81914e-06 3.01202e-20 -0 4.81914e-06 -0 4.81914e-06)
(4.81908e-06 -5.20108e-20 -0 4.81908e-06 -0 4.81908e-06)
(4.81896e-06 4.37973e-21 -0 4.81896e-06 -0 4.81896e-06)
(4.81891e-06 -7.10496e-20 -0 4.81891e-06 -0 4.81891e-06)
(4.81883e-06 3.59174e-20 -0 4.81883e-06 -0 4.81883e-06)
(4.81878e-06 2.99626e-20 -0 4.81878e-06 -0 4.81878e-06)
(4.81872e-06 3.85756e-20 -0 4.81872e-06 -0 4.81872e-06)
(4.81869e-06 3.09229e-20 -0 4.81869e-06 -0 4.81869e-06)
(4.81866e-06 -3.89732e-21 -0 4.81866e-06 -0 4.81866e-06)
(4.81864e-06 -6.44935e-21 -0 4.81864e-06 -0 4.81864e-06)
(4.81863e-06 -5.8661e-21 -0 4.81863e-06 -0 4.81863e-06)
(4.81862e-06 3.1043e-20 -0 4.81862e-06 -0 4.81862e-06)
(4.8336e-06 8.18627e-18 -0 4.8336e-06 -0 4.8336e-06)
(4.83361e-06 -8.64846e-18 -0 4.83361e-06 -0 4.83361e-06)
(4.83335e-06 1.54756e-18 -0 4.83335e-06 -0 4.83335e-06)
(4.83324e-06 -5.16745e-19 -0 4.83324e-06 -0 4.83324e-06)
(4.83306e-06 3.46545e-20 -0 4.83306e-06 -0 4.83306e-06)
(4.83298e-06 -6.95605e-20 -0 4.83298e-06 -0 4.83298e-06)
(4.8328e-06 -1.16117e-19 -0 4.8328e-06 -0 4.8328e-06)
(4.83275e-06 -7.74253e-20 -0 4.83275e-06 -0 4.83275e-06)
(4.83258e-06 -8.72423e-20 -0 4.83258e-06 -0 4.83258e-06)
(4.83255e-06 -5.23906e-20 -0 4.83255e-06 -0 4.83255e-06)
(4.83241e-06 -4.46427e-20 -0 4.83241e-06 -0 4.83241e-06)
(4.83238e-06 -2.69603e-20 -0 4.83238e-06 -0 4.83238e-06)
(4.83228e-06 -8.07962e-20 -0 4.83228e-06 -0 4.83228e-06)
(4.83225e-06 -4.9652e-20 -0 4.83225e-06 -0 4.83225e-06)
(4.83218e-06 -2.60621e-20 -0 4.83218e-06 -0 4.83218e-06)
(4.83216e-06 -5.87938e-20 -0 4.83216e-06 -0 4.83216e-06)
(4.83212e-06 -5.51048e-20 -0 4.83212e-06 -0 4.83212e-06)
(4.83211e-06 2.33163e-20 -0 4.83211e-06 -0 4.83211e-06)
(4.83209e-06 5.09736e-21 -0 4.83209e-06 -0 4.83209e-06)
(4.83209e-06 -5.6231e-20 -0 4.83209e-06 -0 4.83209e-06)
(4.83972e-06 1.27303e-17 -0 4.83972e-06 -0 4.83972e-06)
(4.83971e-06 -1.2557e-17 -0 4.83971e-06 -0 4.83971e-06)
(4.83971e-06 2.83797e-18 -0 4.83971e-06 -0 4.83971e-06)
(4.83971e-06 -5.64914e-19 -0 4.83971e-06 -0 4.83971e-06)
(4.83971e-06 1.67234e-19 -0 4.83971e-06 -0 4.83971e-06)
(4.8397e-06 4.4969e-21 -0 4.8397e-06 -0 4.8397e-06)
(4.8397e-06 5.49008e-20 -0 4.8397e-06 -0 4.8397e-06)
(4.8397e-06 9.16702e-20 -0 4.8397e-06 -0 4.8397e-06)
(4.8397e-06 8.3936e-20 -0 4.8397e-06 -0 4.8397e-06)
(4.8397e-06 4.01928e-20 -0 4.8397e-06 -0 4.8397e-06)
(4.8397e-06 5.42095e-20 -0 4.8397e-06 -0 4.8397e-06)
(4.8397e-06 9.43131e-20 -0 4.8397e-06 -0 4.8397e-06)
(4.83969e-06 -1.33851e-20 -0 4.83969e-06 -0 4.83969e-06)
(4.83969e-06 1.22662e-20 -0 4.83969e-06 -0 4.83969e-06)
(4.83969e-06 2.30807e-20 -0 4.83969e-06 -0 4.83969e-06)
(4.83969e-06 9.17181e-20 -0 4.83969e-06 -0 4.83969e-06)
(4.83969e-06 4.93766e-20 -0 4.83969e-06 -0 4.83969e-06)
(4.83969e-06 7.25047e-22 -0 4.83969e-06 -0 4.83969e-06)
(4.83969e-06 5.79678e-22 -0 4.83969e-06 -0 4.83969e-06)
(4.83969e-06 2.68262e-20 -0 4.83969e-06 -0 4.83969e-06)
)
;

boundaryField
{
    movingWall
    {
        type            kqRWallFunction;
        value           nonuniform List<symmTensor> 
20
(
(4.83972e-06 0 -0 4.83972e-06 -0 4.83972e-06)
(4.83971e-06 -0 -0 4.83971e-06 -0 4.83971e-06)
(4.83971e-06 0 -0 4.83971e-06 -0 4.83971e-06)
(4.83971e-06 -0 -0 4.83971e-06 -0 4.83971e-06)
(4.83971e-06 0 -0 4.83971e-06 -0 4.83971e-06)
(4.8397e-06 0 -0 4.8397e-06 -0 4.8397e-06)
(4.8397e-06 0 -0 4.8397e-06 -0 4.8397e-06)
(4.8397e-06 0 -0 4.8397e-06 -0 4.8397e-06)
(4.8397e-06 0 -0 4.8397e-06 -0 4.8397e-06)
(4.8397e-06 0 -0 4.8397e-06 -0 4.8397e-06)
(4.8397e-06 0 -0 4.8397e-06 -0 4.8397e-06)
(4.8397e-06 0 -0 4.8397e-06 -0 4.8397e-06)
(4.83969e-06 0 -0 4.83969e-06 -0 4.83969e-06)
(4.83969e-06 0 -0 4.83969e-06 -0 4.83969e-06)
(4.83969e-06 -0 -0 4.83969e-06 -0 4.83969e-06)
(4.83969e-06 0 -0 4.83969e-06 -0 4.83969e-06)
(4.83969e-06 0 -0 4.83969e-06 -0 4.83969e-06)
(4.83969e-06 0 -0 4.83969e-06 -0 4.83969e-06)
(4.83969e-06 0 -0 4.83969e-06 -0 4.83969e-06)
(4.83969e-06 0 -0 4.83969e-06 -0 4.83969e-06)
)
;
    }
    fixedWalls
    {
        type            kqRWallFunction;
        value           nonuniform List<symmTensor> 
60
(
(3.85641e-06 -0 -0 3.85641e-06 -0 3.85641e-06)
(3.97774e-06 0 -0 3.97774e-06 -0 3.97774e-06)
(4.15921e-06 0 -0 4.15921e-06 -0 4.15921e-06)
(4.33624e-06 -0 -0 4.33624e-06 -0 4.33624e-06)
(4.47397e-06 0 -0 4.47397e-06 -0 4.47397e-06)
(4.56741e-06 0 -0 4.56741e-06 -0 4.56741e-06)
(4.62608e-06 -0 -0 4.62608e-06 -0 4.62608e-06)
(4.66208e-06 0 -0 4.66208e-06 -0 4.66208e-06)
(4.68507e-06 0 -0 4.68507e-06 -0 4.68507e-06)
(4.70137e-06 -0 -0 4.70137e-06 -0 4.70137e-06)
(4.71471e-06 0 -0 4.71471e-06 -0 4.71471e-06)
(4.72719e-06 -0 -0 4.72719e-06 -0 4.72719e-06)
(4.74002e-06 0 -0 4.74002e-06 -0 4.74002e-06)
(4.7539e-06 0 -0 4.7539e-06 -0 4.7539e-06)
(4.76923e-06 -0 -0 4.76923e-06 -0 4.76923e-06)
(4.78597e-06 0 -0 4.78597e-06 -0 4.78597e-06)
(4.80348e-06 0 -0 4.80348e-06 -0 4.80348e-06)
(4.82018e-06 -0 -0 4.82018e-06 -0 4.82018e-06)
(4.8336e-06 0 -0 4.8336e-06 -0 4.8336e-06)
(4.83972e-06 0 -0 4.83972e-06 -0 4.83972e-06)
(3.85639e-06 0 -0 3.85639e-06 -0 3.85639e-06)
(3.97671e-06 -0 -0 3.97671e-06 -0 3.97671e-06)
(4.15807e-06 0 -0 4.15807e-06 -0 4.15807e-06)
(4.33499e-06 0 -0 4.33499e-06 -0 4.33499e-06)
(4.47264e-06 0 -0 4.47264e-06 -0 4.47264e-06)
(4.56602e-06 0 -0 4.56602e-06 -0 4.56602e-06)
(4.62465e-06 0 -0 4.62465e-06 -0 4.62465e-06)
(4.66063e-06 -0 -0 4.66063e-06 -0 4.66063e-06)
(4.68361e-06 -0 -0 4.68361e-06 -0 4.68361e-06)
(4.69989e-06 -0 -0 4.69989e-06 -0 4.69989e-06)
(4.71322e-06 0 -0 4.71322e-06 -0 4.71322e-06)
(4.72569e-06 0 -0 4.72569e-06 -0 4.72569e-06)
(4.73851e-06 -0 -0 4.73851e-06 -0 4.73851e-06)
(4.75239e-06 -0 -0 4.75239e-06 -0 4.75239e-06)
(4.76771e-06 -0 -0 4.76771e-06 -0 4.76771e-06)
(4.78444e-06 -0 -0 4.78444e-06 -0 4.78444e-06)
(4.80193e-06 -0 -0 4.80193e-06 -0 4.80193e-06)
(4.81862e-06 0 -0 4.81862e-06 -0 4.81862e-06)
(4.83209e-06 -0 -0 4.83209e-06 -0 4.83209e-06)
(4.83969e-06 0 -0 4.83969e-06 -0 4.83969e-06)
(3.85641e-06 -0 -0 3.85641e-06 -0 3.85641e-06)
(3.8564e-06 0 -0 3.8564e-06 -0 3.8564e-06)
(3.8564e-06 -0 -0 3.8564e-06 -0 3.8564e-06)
(3.8564e-06 0 -0 3.8564e-06 -0 3.8564e-06)
(3.85639e-06 -0 -0 3.85639e-06 -0 3.85639e-06)
(3.8564e-06 -0 -0 3.8564e-06 -0 3.8564e-06)
(3.85639e-06 -0 -0 3.85639e-06 -0 3.85639e-06)
(3.85639e-06 -0 -0 3.85639e-06 -0 3.85639e-06)
(3.85639e-06 -0 -0 3.85639e-06 -0 3.85639e-06)
(3.85639e-06 -0 -0 3.85639e-06 -0 3.85639e-06)
(3.85639e-06 -0 -0 3.85639e-06 -0 3.85639e-06)
(3.85639e-06 -0 -0 3.85639e-06 -0 3.85639e-06)
(3.85639e-06 -0 -0 3.85639e-06 -0 3.85639e-06)
(3.85639e-06 -0 -0 3.85639e-06 -0 3.85639e-06)
(3.85639e-06 0 -0 3.85639e-06 -0 3.85639e-06)
(3.85639e-06 0 -0 3.85639e-06 -0 3.85639e-06)
(3.85639e-06 -0 -0 3.85639e-06 -0 3.85639e-06)
(3.85639e-06 -0 -0 3.85639e-06 -0 3.85639e-06)
(3.85639e-06 -0 -0 3.85639e-06 -0 3.85639e-06)
(3.85639e-06 0 -0 3.85639e-06 -0 3.85639e-06)
)
;
    }
    frontAndBack
    {
        type            empty;
    }
}


// ************************************************************************* //
