/*--------------------------------*- C++ -*----------------------------------*\
| =========                 |                                                 |
| \\      /  F ield         | OpenFOAM: The Open Source CFD Toolbox           |
|  \\    /   O peration     | Version:  2312                                  |
|   \\  /    A nd           | Website:  www.openfoam.com                      |
|    \\/     M anipulation  |                                                 |
\*---------------------------------------------------------------------------*/
FoamFile
{
    version     2.0;
    format      ascii;
    arch        "LSB;label=32;scalar=64";
    class       volScalarField;
    location    "7";
    object      turbulenceProperties:nuEff;
}
// * * * * * * * * * * * * * * * * * * * * * * * * * * * * * * * * * * * * * //

dimensions      [0 2 -1 0 0 0 0];

internalField   nonuniform List<scalar> 
400
(
1.13465e-05
1.13465e-05
1.13465e-05
1.13465e-05
1.13465e-05
1.13465e-05
1.13465e-05
1.13465e-05
1.13465e-05
1.13465e-05
1.13465e-05
1.13465e-05
1.13465e-05
1.13465e-05
1.13465e-05
1.13465e-05
1.13465e-05
1.13465e-05
1.13465e-05
1.13465e-05
1.13674e-05
1.13876e-05
1.13857e-05
1.1385e-05
1.13835e-05
1.13827e-05
1.13812e-05
1.13804e-05
1.13789e-05
1.13782e-05
1.13767e-05
1.13759e-05
1.13744e-05
1.13736e-05
1.13722e-05
1.13713e-05
1.13699e-05
1.13691e-05
1.13684e-05
1.13672e-05
1.13981e-05
1.14195e-05
1.14175e-05
1.14167e-05
1.14151e-05
1.14143e-05
1.14126e-05
1.14118e-05
1.14102e-05
1.14094e-05
1.14078e-05
1.1407e-05
1.14054e-05
1.14046e-05
1.14031e-05
1.14022e-05
1.14007e-05
1.13998e-05
1.13991e-05
1.13979e-05
1.14274e-05
1.14497e-05
1.14477e-05
1.14468e-05
1.14451e-05
1.14443e-05
1.14426e-05
1.14417e-05
1.14401e-05
1.14392e-05
1.14376e-05
1.14367e-05
1.14351e-05
1.14342e-05
1.14326e-05
1.14317e-05
1.14301e-05
1.14292e-05
1.14284e-05
1.14272e-05
1.14498e-05
1.14729e-05
1.14708e-05
1.14699e-05
1.14681e-05
1.14672e-05
1.14655e-05
1.14646e-05
1.14629e-05
1.1462e-05
1.14603e-05
1.14594e-05
1.14577e-05
1.14568e-05
1.14552e-05
1.14542e-05
1.14526e-05
1.14517e-05
1.14509e-05
1.14496e-05
1.14648e-05
1.14884e-05
1.14862e-05
1.14853e-05
1.14836e-05
1.14827e-05
1.14809e-05
1.148e-05
1.14782e-05
1.14773e-05
1.14756e-05
1.14747e-05
1.14729e-05
1.1472e-05
1.14703e-05
1.14694e-05
1.14677e-05
1.14667e-05
1.14659e-05
1.14646e-05
1.14742e-05
1.14981e-05
1.14959e-05
1.1495e-05
1.14932e-05
1.14923e-05
1.14904e-05
1.14896e-05
1.14877e-05
1.14868e-05
1.14851e-05
1.14841e-05
1.14824e-05
1.14815e-05
1.14797e-05
1.14788e-05
1.14771e-05
1.14761e-05
1.14753e-05
1.1474e-05
1.14799e-05
1.1504e-05
1.15018e-05
1.15009e-05
1.1499e-05
1.14981e-05
1.14963e-05
1.14954e-05
1.14936e-05
1.14926e-05
1.14909e-05
1.14899e-05
1.14882e-05
1.14872e-05
1.14855e-05
1.14845e-05
1.14828e-05
1.14818e-05
1.1481e-05
1.14797e-05
1.14835e-05
1.15078e-05
1.15055e-05
1.15046e-05
1.15028e-05
1.15019e-05
1.15e-05
1.14991e-05
1.14973e-05
1.14964e-05
1.14946e-05
1.14936e-05
1.14919e-05
1.14909e-05
1.14892e-05
1.14882e-05
1.14865e-05
1.14855e-05
1.14847e-05
1.14833e-05
1.14861e-05
1.15104e-05
1.15082e-05
1.15073e-05
1.15054e-05
1.15045e-05
1.15027e-05
1.15017e-05
1.14999e-05
1.1499e-05
1.14972e-05
1.14962e-05
1.14945e-05
1.14935e-05
1.14918e-05
1.14908e-05
1.14891e-05
1.14881e-05
1.14872e-05
1.14859e-05
1.14882e-05
1.15126e-05
1.15104e-05
1.15094e-05
1.15076e-05
1.15067e-05
1.15048e-05
1.15039e-05
1.15021e-05
1.15011e-05
1.14993e-05
1.14984e-05
1.14966e-05
1.14956e-05
1.14939e-05
1.14929e-05
1.14912e-05
1.14902e-05
1.14893e-05
1.1488e-05
1.14902e-05
1.15147e-05
1.15124e-05
1.15115e-05
1.15096e-05
1.15087e-05
1.15068e-05
1.15059e-05
1.15041e-05
1.15031e-05
1.15013e-05
1.15004e-05
1.14986e-05
1.14976e-05
1.14959e-05
1.14949e-05
1.14932e-05
1.14922e-05
1.14913e-05
1.149e-05
1.14922e-05
1.15167e-05
1.15145e-05
1.15135e-05
1.15117e-05
1.15107e-05
1.15089e-05
1.15079e-05
1.15061e-05
1.15052e-05
1.15034e-05
1.15024e-05
1.15006e-05
1.14996e-05
1.14979e-05
1.14969e-05
1.14952e-05
1.14942e-05
1.14933e-05
1.1492e-05
1.14944e-05
1.1519e-05
1.15167e-05
1.15158e-05
1.15139e-05
1.1513e-05
1.15111e-05
1.15102e-05
1.15083e-05
1.15074e-05
1.15056e-05
1.15046e-05
1.15028e-05
1.15018e-05
1.15001e-05
1.14991e-05
1.14974e-05
1.14964e-05
1.14955e-05
1.14941e-05
1.14968e-05
1.15215e-05
1.15192e-05
1.15182e-05
1.15164e-05
1.15154e-05
1.15136e-05
1.15126e-05
1.15108e-05
1.15098e-05
1.1508e-05
1.1507e-05
1.15053e-05
1.15043e-05
1.15025e-05
1.15015e-05
1.14998e-05
1.14988e-05
1.14979e-05
1.14965e-05
1.14994e-05
1.15242e-05
1.15219e-05
1.15209e-05
1.1519e-05
1.15181e-05
1.15162e-05
1.15153e-05
1.15134e-05
1.15125e-05
1.15107e-05
1.15097e-05
1.15079e-05
1.15069e-05
1.15051e-05
1.15041e-05
1.15024e-05
1.15014e-05
1.15005e-05
1.14992e-05
1.15021e-05
1.1527e-05
1.15247e-05
1.15237e-05
1.15218e-05
1.15209e-05
1.1519e-05
1.15181e-05
1.15162e-05
1.15153e-05
1.15134e-05
1.15125e-05
1.15107e-05
1.15097e-05
1.15079e-05
1.15069e-05
1.15051e-05
1.15041e-05
1.15033e-05
1.15019e-05
1.15047e-05
1.15297e-05
1.15274e-05
1.15264e-05
1.15245e-05
1.15236e-05
1.15217e-05
1.15207e-05
1.15189e-05
1.15179e-05
1.15161e-05
1.15151e-05
1.15133e-05
1.15123e-05
1.15105e-05
1.15095e-05
1.15078e-05
1.15067e-05
1.15059e-05
1.15045e-05
1.15068e-05
1.15313e-05
1.15291e-05
1.15282e-05
1.15263e-05
1.15254e-05
1.15236e-05
1.15227e-05
1.15208e-05
1.15199e-05
1.15181e-05
1.15171e-05
1.15153e-05
1.15144e-05
1.15126e-05
1.15116e-05
1.15098e-05
1.15088e-05
1.15079e-05
1.15066e-05
1.15078e-05
1.15078e-05
1.15078e-05
1.15078e-05
1.15078e-05
1.15078e-05
1.15078e-05
1.15078e-05
1.15078e-05
1.15078e-05
1.15078e-05
1.15078e-05
1.15078e-05
1.15078e-05
1.15078e-05
1.15078e-05
1.15078e-05
1.15078e-05
1.15078e-05
1.15078e-05
)
;

boundaryField
{
    movingWall
    {
        type            calculated;
        value           uniform 1e-05;
    }
    fixedWalls
    {
        type            calculated;
        value           uniform 1e-05;
    }
    frontAndBack
    {
        type            empty;
    }
}


// ************************************************************************* //
