/*--------------------------------*- C++ -*----------------------------------*\
| =========                 |                                                 |
| \\      /  F ield         | OpenFOAM: The Open Source CFD Toolbox           |
|  \\    /   O peration     | Version:  2312                                  |
|   \\  /    A nd           | Website:  www.openfoam.com                      |
|    \\/     M anipulation  |                                                 |
\*---------------------------------------------------------------------------*/
FoamFile
{
    version     2.0;
    format      ascii;
    arch        "LSB;label=32;scalar=64";
    class       volScalarField;
    location    "7";
    object      turbulenceProperties:k;
}
// * * * * * * * * * * * * * * * * * * * * * * * * * * * * * * * * * * * * * //

dimensions      [0 2 -2 0 0 0 0];

internalField   nonuniform List<scalar> 
400
(
5.78461e-06
5.7846e-06
5.7846e-06
5.7846e-06
5.78459e-06
5.78459e-06
5.78459e-06
5.78459e-06
5.78458e-06
5.78459e-06
5.78458e-06
5.78459e-06
5.78458e-06
5.78458e-06
5.78458e-06
5.78458e-06
5.78458e-06
5.78458e-06
5.78458e-06
5.78458e-06
5.96661e-06
5.96661e-06
5.96635e-06
5.96624e-06
5.96606e-06
5.96596e-06
5.9658e-06
5.96572e-06
5.96558e-06
5.96551e-06
5.96541e-06
5.96534e-06
5.96527e-06
5.96521e-06
5.96516e-06
5.96513e-06
5.9651e-06
5.96508e-06
5.96507e-06
5.96506e-06
6.23882e-06
6.23882e-06
6.23853e-06
6.2384e-06
6.23821e-06
6.23811e-06
6.23791e-06
6.23784e-06
6.23767e-06
6.23761e-06
6.23748e-06
6.23742e-06
6.23732e-06
6.23728e-06
6.2372e-06
6.23718e-06
6.23713e-06
6.23712e-06
6.2371e-06
6.2371e-06
6.50435e-06
6.50435e-06
6.50403e-06
6.5039e-06
6.50368e-06
6.50357e-06
6.50336e-06
6.50328e-06
6.50309e-06
6.50304e-06
6.50288e-06
6.50284e-06
6.50271e-06
6.50268e-06
6.50259e-06
6.50257e-06
6.50251e-06
6.5025e-06
6.50249e-06
6.50248e-06
6.71096e-06
6.71095e-06
6.7106e-06
6.71047e-06
6.71023e-06
6.71011e-06
6.70989e-06
6.7098e-06
6.70961e-06
6.70953e-06
6.70939e-06
6.70932e-06
6.70921e-06
6.70916e-06
6.70908e-06
6.70904e-06
6.70899e-06
6.70898e-06
6.70896e-06
6.70895e-06
6.85111e-06
6.85111e-06
6.85076e-06
6.85061e-06
6.85037e-06
6.85025e-06
6.85e-06
6.84994e-06
6.84971e-06
6.84965e-06
6.84948e-06
6.84943e-06
6.84929e-06
6.84926e-06
6.84915e-06
6.84913e-06
6.84907e-06
6.84906e-06
6.84904e-06
6.84903e-06
6.93911e-06
6.93912e-06
6.93874e-06
6.9386e-06
6.93834e-06
6.93823e-06
6.93797e-06
6.9379e-06
6.93767e-06
6.93761e-06
6.93743e-06
6.93738e-06
6.93724e-06
6.9372e-06
6.9371e-06
6.93707e-06
6.93701e-06
6.937e-06
6.93698e-06
6.93697e-06
6.99313e-06
6.99312e-06
6.99274e-06
6.99258e-06
6.99234e-06
6.99218e-06
6.99199e-06
6.99184e-06
6.99169e-06
6.99156e-06
6.99144e-06
6.99134e-06
6.99123e-06
6.99116e-06
6.99109e-06
6.99104e-06
6.991e-06
6.99097e-06
6.99095e-06
6.99094e-06
7.02761e-06
7.0276e-06
7.02723e-06
7.02707e-06
7.02681e-06
7.02669e-06
7.02643e-06
7.02635e-06
7.02613e-06
7.02606e-06
7.02588e-06
7.02582e-06
7.02568e-06
7.02564e-06
7.02554e-06
7.02551e-06
7.02545e-06
7.02544e-06
7.02542e-06
7.02541e-06
7.05206e-06
7.05206e-06
7.05167e-06
7.05151e-06
7.05126e-06
7.05112e-06
7.05088e-06
7.05079e-06
7.05056e-06
7.0505e-06
7.05031e-06
7.05026e-06
7.05012e-06
7.05007e-06
7.04997e-06
7.04994e-06
7.04988e-06
7.04987e-06
7.04985e-06
7.04984e-06
7.07206e-06
7.07206e-06
7.07168e-06
7.07153e-06
7.07125e-06
7.07113e-06
7.07088e-06
7.07078e-06
7.07056e-06
7.07048e-06
7.07031e-06
7.07024e-06
7.07012e-06
7.07006e-06
7.06997e-06
7.06993e-06
7.06988e-06
7.06986e-06
7.06984e-06
7.06983e-06
7.09079e-06
7.09078e-06
7.0904e-06
7.09025e-06
7.08995e-06
7.08985e-06
7.08959e-06
7.0895e-06
7.08927e-06
7.0892e-06
7.08902e-06
7.08896e-06
7.08882e-06
7.08878e-06
7.08867e-06
7.08865e-06
7.08858e-06
7.08857e-06
7.08855e-06
7.08854e-06
7.11003e-06
7.11004e-06
7.10962e-06
7.10948e-06
7.10922e-06
7.10907e-06
7.10884e-06
7.10872e-06
7.10853e-06
7.10842e-06
7.10827e-06
7.10818e-06
7.10806e-06
7.10799e-06
7.10792e-06
7.10787e-06
7.10782e-06
7.1078e-06
7.10778e-06
7.10777e-06
7.13085e-06
7.13084e-06
7.13047e-06
7.13029e-06
7.13004e-06
7.1299e-06
7.12966e-06
7.12955e-06
7.12934e-06
7.12925e-06
7.12908e-06
7.129e-06
7.12888e-06
7.12882e-06
7.12873e-06
7.12869e-06
7.12863e-06
7.12861e-06
7.12859e-06
7.12859e-06
7.15384e-06
7.15385e-06
7.15344e-06
7.15329e-06
7.15301e-06
7.15287e-06
7.15265e-06
7.1525e-06
7.15233e-06
7.15221e-06
7.15206e-06
7.15196e-06
7.15185e-06
7.15178e-06
7.1517e-06
7.15166e-06
7.15161e-06
7.15158e-06
7.15156e-06
7.15156e-06
7.17896e-06
7.17896e-06
7.17856e-06
7.1784e-06
7.17813e-06
7.17798e-06
7.17775e-06
7.17762e-06
7.17743e-06
7.17733e-06
7.17716e-06
7.17708e-06
7.17695e-06
7.17689e-06
7.1768e-06
7.17676e-06
7.17671e-06
7.17669e-06
7.17667e-06
7.17666e-06
7.20522e-06
7.20522e-06
7.20482e-06
7.20466e-06
7.20437e-06
7.20424e-06
7.20399e-06
7.20388e-06
7.20366e-06
7.20358e-06
7.2034e-06
7.20333e-06
7.2032e-06
7.20314e-06
7.20305e-06
7.203e-06
7.20295e-06
7.20293e-06
7.20291e-06
7.2029e-06
7.23027e-06
7.23027e-06
7.22986e-06
7.2297e-06
7.22942e-06
7.22928e-06
7.22903e-06
7.22893e-06
7.2287e-06
7.22861e-06
7.22844e-06
7.22836e-06
7.22824e-06
7.22817e-06
7.22808e-06
7.22804e-06
7.22798e-06
7.22796e-06
7.22794e-06
7.22794e-06
7.25041e-06
7.25041e-06
7.25002e-06
7.24987e-06
7.24959e-06
7.24947e-06
7.24919e-06
7.24912e-06
7.24888e-06
7.24882e-06
7.24862e-06
7.24857e-06
7.24842e-06
7.24838e-06
7.24827e-06
7.24824e-06
7.24817e-06
7.24816e-06
7.24814e-06
7.24813e-06
7.25958e-06
7.25957e-06
7.25957e-06
7.25956e-06
7.25956e-06
7.25955e-06
7.25955e-06
7.25955e-06
7.25955e-06
7.25955e-06
7.25954e-06
7.25954e-06
7.25954e-06
7.25954e-06
7.25954e-06
7.25954e-06
7.25954e-06
7.25954e-06
7.25954e-06
7.25954e-06
)
;

boundaryField
{
    movingWall
    {
        type            kqRWallFunction;
        value           nonuniform List<scalar> 
20
(
7.25958e-06
7.25957e-06
7.25957e-06
7.25956e-06
7.25956e-06
7.25955e-06
7.25955e-06
7.25955e-06
7.25955e-06
7.25955e-06
7.25954e-06
7.25954e-06
7.25954e-06
7.25954e-06
7.25954e-06
7.25954e-06
7.25954e-06
7.25954e-06
7.25954e-06
7.25954e-06
)
;
    }
    fixedWalls
    {
        type            kqRWallFunction;
        value           nonuniform List<scalar> 
60
(
5.78461e-06
5.96661e-06
6.23882e-06
6.50435e-06
6.71096e-06
6.85111e-06
6.93911e-06
6.99313e-06
7.02761e-06
7.05206e-06
7.07206e-06
7.09079e-06
7.11003e-06
7.13085e-06
7.15384e-06
7.17896e-06
7.20522e-06
7.23027e-06
7.25041e-06
7.25958e-06
5.78458e-06
5.96506e-06
6.2371e-06
6.50248e-06
6.70895e-06
6.84903e-06
6.93697e-06
6.99094e-06
7.02541e-06
7.04984e-06
7.06983e-06
7.08854e-06
7.10777e-06
7.12859e-06
7.15156e-06
7.17666e-06
7.2029e-06
7.22794e-06
7.24813e-06
7.25954e-06
5.78461e-06
5.7846e-06
5.7846e-06
5.7846e-06
5.78459e-06
5.78459e-06
5.78459e-06
5.78459e-06
5.78458e-06
5.78459e-06
5.78458e-06
5.78459e-06
5.78458e-06
5.78458e-06
5.78458e-06
5.78458e-06
5.78458e-06
5.78458e-06
5.78458e-06
5.78458e-06
)
;
    }
    frontAndBack
    {
        type            empty;
    }
}


// ************************************************************************* //
