/*--------------------------------*- C++ -*----------------------------------*\
| =========                 |                                                 |
| \\      /  F ield         | OpenFOAM: The Open Source CFD Toolbox           |
|  \\    /   O peration     | Version:  2312                                  |
|   \\  /    A nd           | Website:  www.openfoam.com                      |
|    \\/     M anipulation  |                                                 |
\*---------------------------------------------------------------------------*/
FoamFile
{
    version     2.0;
    format      ascii;
    arch        "LSB;label=32;scalar=64";
    class       volTensorField;
    location    "7";
    object      U2;
}
// * * * * * * * * * * * * * * * * * * * * * * * * * * * * * * * * * * * * * //

dimensions      [0 2 -2 0 0 0 0];

internalField   nonuniform List<tensor> 
400
(
(1 -1.76856e-13 -0 -1.77539e-13 3.13987e-26 0 -0 0 0)
(1 3.81747e-14 -0 3.81355e-14 1.45581e-27 -0 -0 -0 0)
(1 -9.00237e-15 -0 -9.051e-15 8.14804e-29 0 -0 0 0)
(1 1.96413e-15 -0 1.91993e-15 3.77099e-30 -0 -0 -0 0)
(1 -4.44097e-16 -0 -4.77465e-16 2.12041e-31 0 -0 0 0)
(1 5.92472e-17 -0 4.51134e-17 2.67284e-33 -0 -0 -0 0)
(1 -3.96576e-17 -0 -1.11868e-16 4.4364e-33 0 -0 0 0)
(1 -3.12741e-17 -0 -9.63144e-17 3.01215e-33 0 -0 0 0)
(1 -8.75348e-17 -0 -1.03649e-16 9.07292e-33 0 -0 0 0)
(1 -1.90774e-17 -0 -5.16726e-17 9.85777e-34 0 -0 0 0)
(1 -6.87705e-18 -0 -5.98786e-17 4.11788e-34 0 -0 0 0)
(1 -8.41741e-17 -0 -7.3508e-17 6.18747e-33 0 -0 0 0)
(1 -1.45219e-16 -0 -1.33563e-16 1.93959e-32 0 -0 0 0)
(1 -2.07619e-16 -0 -1.97514e-16 4.10077e-32 0 -0 0 0)
(1 -1.81268e-16 -0 -1.18578e-16 2.14945e-32 0 -0 0 0)
(1 -4.95998e-17 -0 5.88508e-17 -2.91899e-33 -0 -0 0 0)
(1 3.15611e-17 -0 4.14959e-17 1.30965e-33 -0 -0 -0 0)
(1 2.92165e-17 -0 4.26541e-17 1.2462e-33 -0 -0 -0 0)
(1 1.17782e-16 -0 6.31672e-18 7.43998e-34 -0 -0 -0 0)
(1 2.05632e-17 -0 -4.5465e-17 -9.34908e-34 0 -0 -0 0)
(1 4.69027e-15 -0 4.00442e-15 1.87818e-29 -0 -0 -0 0)
(1 -9.94335e-16 -0 -1.32002e-15 1.31254e-30 0 -0 0 0)
(1 2.32463e-16 -0 6.62773e-17 1.5407e-32 -0 -0 -0 0)
(1 -1.19766e-16 -0 -2.04525e-16 2.44952e-32 0 -0 0 0)
(1 -5.26009e-17 -0 -8.95247e-17 4.70908e-33 0 -0 0 0)
(1 -1.21497e-16 -0 -1.06993e-16 1.29994e-32 0 -0 0 0)
(1 -1.25703e-16 -0 -1.39216e-16 1.75e-32 0 -0 0 0)
(1 -2.65234e-17 -0 -4.75665e-17 1.26163e-33 0 -0 0 0)
(1 6.7134e-17 -0 4.86786e-17 3.26799e-33 -0 -0 -0 0)
(1 1.42478e-16 -0 5.89656e-17 8.40129e-33 -0 -0 -0 0)
(1 9.79657e-17 -0 1.84196e-17 1.80449e-33 -0 -0 -0 0)
(1 2.65331e-17 -0 5.31009e-17 1.40893e-33 -0 -0 -0 0)
(1 5.20318e-17 -0 -7.98549e-18 -4.15499e-34 0 -0 -0 0)
(1 -9.69203e-17 -0 -1.65397e-16 1.60303e-32 0 -0 0 0)
(1 -1.94359e-16 -0 -1.79846e-16 3.49548e-32 0 -0 0 0)
(1 -1.48566e-16 -0 -1.28963e-17 1.91595e-33 0 -0 0 0)
(1 -5.94338e-17 -0 8.07617e-18 -4.79997e-34 -0 -0 0 0)
(1 2.75994e-17 -0 3.35362e-17 9.25578e-34 -0 -0 -0 0)
(1 2.01714e-16 -0 3.94095e-17 7.94947e-33 -0 -0 -0 0)
(1 1.15754e-16 -0 -2.09577e-17 -2.42594e-33 0 -0 -0 0)
(1 1.44821e-13 -0 1.44099e-13 2.08685e-26 -0 -0 -0 0)
(1 -3.15488e-14 -0 -3.18223e-14 1.00395e-27 0 -0 0 0)
(1 7.32421e-15 -0 7.18956e-15 5.26578e-29 -0 -0 -0 0)
(1 -1.75231e-15 -0 -1.76925e-15 3.10027e-30 0 -0 0 0)
(1 3.09389e-16 -0 3.37201e-16 1.04326e-31 -0 -0 -0 0)
(1 -2.71844e-17 -0 -4.05352e-17 1.10192e-33 0 -0 0 0)
(1 1.25429e-16 -0 1.10236e-16 1.38268e-32 -0 -0 -0 0)
(1 1.07139e-16 -0 1.1334e-16 1.21431e-32 -0 -0 -0 0)
(1 1.01023e-16 -0 9.77303e-18 9.87305e-34 -0 -0 -0 0)
(1 -5.82168e-17 -0 -1.77809e-16 1.03515e-32 0 -0 0 0)
(1 -1.73235e-16 -0 -1.82654e-16 3.1642e-32 0 -0 0 0)
(1 1.8328e-17 -0 8.73657e-17 1.60123e-33 -0 -0 -0 0)
(1 2.3897e-16 -0 1.75853e-16 4.20237e-32 -0 -0 -0 0)
(1 1.80181e-16 -0 1.16212e-16 2.09392e-32 -0 -0 -0 0)
(1 1.01069e-16 -0 1.14596e-16 1.15822e-32 -0 -0 -0 0)
(1 1.09111e-16 -0 1.42566e-16 1.55554e-32 -0 -0 -0 0)
(1 1.34876e-16 -0 2.81037e-17 3.79051e-33 -0 -0 -0 0)
(1 5.6962e-17 -0 -8.91871e-17 -5.08027e-33 0 -0 -0 0)
(1 5.09029e-17 -0 -3.42586e-17 -1.74386e-33 0 -0 -0 0)
(1 8.92273e-17 -0 -1.22109e-17 -1.08954e-33 0 -0 -0 0)
(1 -1.3764e-13 -0 -1.38574e-13 1.90734e-26 0 -0 0 0)
(1 2.98338e-14 -0 2.97075e-14 8.86287e-28 -0 -0 -0 0)
(1 -6.98511e-15 -0 -7.13692e-15 4.98521e-29 0 -0 0 0)
(1 1.63428e-15 -0 1.56753e-15 2.56178e-30 -0 -0 -0 0)
(1 -1.99957e-16 -0 -2.9565e-16 5.91171e-32 0 -0 0 0)
(1 2.34768e-16 -0 7.3397e-17 1.72313e-32 -0 -0 -0 0)
(1 1.29865e-16 -0 9.17145e-18 1.19105e-33 -0 -0 -0 0)
(1 4.20213e-17 -0 -2.13454e-17 -8.96963e-34 0 -0 -0 0)
(1 -6.73176e-17 -0 -9.24523e-17 6.22366e-33 0 -0 0 0)
(1 -1.94297e-16 -0 -1.65783e-16 3.22111e-32 0 -0 0 0)
(1 -1.90853e-16 -0 -1.60592e-16 3.06496e-32 0 -0 0 0)
(1 -1.70253e-17 -0 -7.12429e-17 1.21293e-33 0 -0 0 0)
(1 1.7729e-17 -0 -3.34536e-17 -5.93101e-34 0 -0 -0 0)
(1 1.70379e-17 -0 1.33375e-17 2.27244e-34 -0 -0 -0 0)
(1 6.26233e-17 -0 1.21456e-16 7.606e-33 -0 -0 -0 0)
(1 1.73707e-16 -0 1.54481e-16 2.68345e-32 -0 -0 -0 0)
(1 2.75381e-16 -0 1.37266e-16 3.78005e-32 -0 -0 -0 0)
(1 2.2176e-16 -0 6.09177e-17 1.35091e-32 -0 -0 -0 0)
(1 4.52219e-17 -0 -6.60226e-17 -2.98567e-33 0 -0 -0 0)
(1 -9.25996e-18 -0 -7.15667e-17 6.62705e-34 0 -0 0 0)
(1 3.9532e-14 -0 3.93881e-14 1.55709e-27 -0 -0 -0 0)
(1 -8.13152e-15 -0 -8.42651e-15 6.85204e-29 0 -0 0 0)
(1 2.1591e-15 -0 1.94042e-15 4.18956e-30 -0 -0 -0 0)
(1 -2.27863e-16 -0 -3.94177e-16 8.98184e-32 0 -0 0 0)
(1 2.42871e-16 -0 7.22725e-17 1.75529e-32 -0 -0 -0 0)
(1 1.07658e-16 -0 -9.05458e-17 -9.74799e-33 0 -0 -0 0)
(1 6.73583e-19 -0 -1.96294e-16 -1.3222e-34 0 -0 -0 0)
(1 -1.51825e-16 -0 -2.59484e-16 3.93962e-32 0 -0 0 0)
(1 -1.82309e-16 -0 -1.00411e-16 1.83059e-32 0 -0 0 0)
(1 -5.78202e-17 -0 6.10397e-17 -3.52932e-33 -0 -0 0 0)
(1 5.42041e-17 -0 8.16959e-17 4.42825e-33 -0 -0 -0 0)
(1 1.21087e-16 -0 -4.21481e-17 -5.10358e-33 0 -0 -0 0)
(1 -7.29501e-17 -0 -1.56442e-16 1.14125e-32 0 -0 0 0)
(1 -1.38234e-16 -0 -1.27105e-16 1.75703e-32 0 -0 0 0)
(1 -3.25742e-17 -0 -4.61907e-17 1.50462e-33 0 -0 0 0)
(1 9.40749e-18 -0 -8.74051e-17 -8.22263e-34 0 -0 -0 0)
(1 8.64105e-17 -0 5.45654e-17 4.71502e-33 -0 -0 -0 0)
(1 1.93767e-16 -0 1.29346e-16 2.50629e-32 -0 -0 -0 0)
(1 1.36942e-16 -0 2.14842e-17 2.9421e-33 -0 -0 -0 0)
(1 -3.58544e-18 -0 -6.60307e-17 2.36749e-34 0 -0 0 0)
(1 8.99843e-14 -0 8.97947e-14 8.08012e-27 -0 -0 -0 0)
(1 -1.92939e-14 -0 -1.95227e-14 3.7667e-28 0 -0 0 0)
(1 4.79901e-15 -0 4.53636e-15 2.17701e-29 -0 -0 -0 0)
(1 -8.86394e-16 -0 -1.11656e-15 9.89709e-31 0 -0 0 0)
(1 3.04414e-16 -0 1.68019e-16 5.11474e-32 -0 -0 -0 0)
(1 3.05769e-17 -0 -7.35647e-17 -2.24938e-33 0 -0 -0 0)
(1 5.67164e-17 -0 -4.84528e-17 -2.74807e-33 0 -0 -0 0)
(1 -3.05949e-17 -0 -1.37915e-16 4.21951e-33 0 -0 0 0)
(1 -7.92455e-17 -0 -1.19325e-16 9.45594e-33 0 -0 0 0)
(1 -7.35299e-17 -0 -7.77733e-17 5.71867e-33 0 -0 0 0)
(1 -2.03388e-17 -0 -1.49452e-17 3.03968e-34 0 -0 0 0)
(1 3.42522e-17 -0 4.35764e-17 1.49259e-33 -0 -0 -0 0)
(1 4.68797e-17 -0 4.03224e-17 1.8903e-33 -0 -0 -0 0)
(1 4.09106e-17 -0 1.86118e-17 7.61418e-34 -0 -0 -0 0)
(1 6.42677e-17 -0 -2.94899e-17 -1.89525e-33 0 -0 -0 0)
(1 1.8304e-17 -0 -4.77507e-17 -8.7403e-34 0 -0 -0 0)
(1 8.04732e-18 -0 -5.69284e-17 -4.5812e-34 0 -0 -0 0)
(1 -1.97689e-17 -0 -7.44951e-17 1.47269e-33 0 -0 0 0)
(1 4.34694e-17 -0 -6.2412e-20 -2.71301e-36 0 -0 -0 0)
(1 1.06721e-17 -0 -5.99417e-17 -6.39704e-34 0 -0 -0 0)
(1 -1.51437e-13 -0 -1.51784e-13 2.29857e-26 0 -0 0 0)
(1 3.31907e-14 -0 3.29722e-14 1.09437e-27 -0 -0 -0 0)
(1 -7.5996e-15 -0 -7.77649e-15 5.90982e-29 0 -0 0 0)
(1 1.81959e-15 -0 1.62168e-15 2.95079e-30 -0 -0 -0 0)
(1 -2.69006e-16 -0 -4.70599e-16 1.26594e-31 0 -0 0 0)
(1 7.04863e-17 -0 -6.7857e-17 -4.78299e-33 0 -0 -0 0)
(1 -1.60544e-16 -0 -1.75693e-16 2.82065e-32 0 -0 0 0)
(1 -9.62665e-17 -0 -7.80904e-17 7.51749e-33 0 -0 0 0)
(1 -1.18729e-17 -0 -5.56126e-17 6.60283e-34 0 -0 0 0)
(1 -1.33166e-16 -0 -1.65208e-16 2.20001e-32 0 -0 0 0)
(1 -9.56849e-17 -0 -1.22199e-16 1.16926e-32 0 -0 0 0)
(1 -6.56814e-17 -0 -6.8337e-17 4.48847e-33 0 -0 0 0)
(1 -1.33998e-17 -0 -3.57446e-17 4.78969e-34 0 -0 0 0)
(1 2.18834e-17 -0 -4.08835e-17 -8.94668e-34 0 -0 -0 0)
(1 -1.44898e-17 -0 -9.14423e-17 1.32498e-33 0 -0 0 0)
(1 -7.91567e-17 -0 -3.44051e-17 2.7234e-33 0 -0 0 0)
(1 -7.63365e-17 -0 -3.40578e-17 2.59985e-33 0 -0 0 0)
(1 -5.88805e-17 -0 -9.5958e-17 5.65005e-33 0 -0 0 0)
(1 -1.38839e-17 -0 -6.71467e-17 9.32259e-34 0 -0 0 0)
(1 1.93747e-17 -0 -2.56956e-17 -4.97843e-34 0 -0 -0 0)
(1 6.72857e-14 -0 6.74331e-14 4.53728e-27 -0 -0 -0 0)
(1 -1.4213e-14 -0 -1.45537e-14 2.06851e-28 0 -0 0 0)
(1 3.26415e-15 -0 3.13835e-15 1.02441e-29 -0 -0 -0 0)
(1 -8.12962e-16 -0 -9.05067e-16 7.35785e-31 0 -0 0 0)
(1 8.56316e-17 -0 5.02825e-17 4.30577e-33 -0 -0 -0 0)
(1 -5.69322e-17 -0 -8.4367e-17 4.8032e-33 0 -0 0 0)
(1 -3.43549e-17 -0 -7.3122e-17 2.51209e-33 0 -0 0 0)
(1 -9.39742e-17 -0 -6.53849e-17 6.14449e-33 0 -0 0 0)
(1 -5.62442e-17 -0 -3.97091e-17 2.23341e-33 0 -0 0 0)
(1 6.31952e-19 -0 2.28472e-17 1.44383e-35 -0 -0 -0 0)
(1 8.24571e-17 -0 1.07013e-17 8.82402e-34 -0 -0 -0 0)
(1 -1.06174e-17 -0 -8.09568e-17 8.59548e-34 0 -0 0 0)
(1 -5.71542e-17 -0 -8.23423e-17 4.7062e-33 0 -0 0 0)
(1 -2.85313e-17 -0 9.21533e-18 -2.62926e-34 -0 -0 0 0)
(1 3.11644e-17 -0 9.19263e-17 2.86483e-33 -0 -0 -0 0)
(1 9.1866e-17 -0 9.06966e-17 8.33194e-33 -0 -0 -0 0)
(1 2.77906e-17 -0 1.19802e-17 3.32937e-34 -0 -0 -0 0)
(1 -2.2362e-17 -0 -4.1918e-17 9.37369e-34 0 -0 0 0)
(1 -5.96212e-17 -0 -7.96466e-17 4.74863e-33 0 -0 0 0)
(1 -1.80766e-17 -0 3.93324e-18 -7.10997e-35 -0 -0 0 0)
(1 5.52147e-14 -0 5.47882e-14 3.02511e-27 -0 -0 -0 0)
(1 -1.21694e-14 -0 -1.22078e-14 1.48561e-28 0 -0 0 0)
(1 2.94782e-15 -0 2.70929e-15 7.98651e-30 -0 -0 -0 0)
(1 -7.18362e-16 -0 -8.26978e-16 5.94069e-31 0 -0 0 0)
(1 1.52781e-17 -0 3.2694e-18 4.995e-35 -0 -0 -0 0)
(1 -1.3347e-16 -0 -3.71336e-17 4.95623e-33 0 -0 0 0)
(1 7.33189e-17 -0 1.92972e-16 1.41485e-32 -0 -0 -0 0)
(1 1.85656e-16 -0 2.25914e-16 4.19423e-32 -0 -0 -0 0)
(1 2.13408e-16 -0 1.70261e-16 3.63351e-32 -0 -0 -0 0)
(1 2.63274e-16 -0 1.92108e-16 5.05771e-32 -0 -0 -0 0)
(1 2.28341e-16 -0 1.35681e-16 3.09816e-32 -0 -0 -0 0)
(1 -1.26192e-18 -0 -4.2475e-17 5.36e-35 0 -0 0 0)
(1 -5.95331e-17 -0 -4.08974e-17 2.43475e-33 0 -0 0 0)
(1 -4.13415e-18 -0 9.64769e-17 -3.9885e-34 -0 -0 0 0)
(1 7.83755e-17 -0 1.41674e-16 1.11038e-32 -0 -0 -0 0)
(1 6.68973e-17 -0 -1.62152e-17 -1.08475e-33 0 -0 -0 0)
(1 -1.10236e-16 -0 -1.17597e-16 1.29633e-32 0 -0 0 0)
(1 -1.40271e-16 -0 -3.44495e-17 4.83227e-33 0 -0 0 0)
(1 -5.25655e-17 -0 6.6696e-18 -3.50591e-34 -0 -0 0 0)
(1 -1.69085e-17 -0 5.59016e-17 -9.45212e-34 -0 -0 0 0)
(1 -1.03568e-13 -0 -1.03974e-13 1.07683e-26 0 -0 0 0)
(1 2.24406e-14 -0 2.23633e-14 5.01846e-28 -0 -0 -0 0)
(1 -5.43279e-15 -0 -5.47245e-15 2.97307e-29 0 -0 0 0)
(1 1.10746e-15 -0 1.04932e-15 1.16208e-30 -0 -0 -0 0)
(1 -3.75382e-16 -0 -5.16189e-16 1.93768e-31 0 -0 0 0)
(1 -1.15907e-16 -0 -1.49224e-16 1.72962e-32 0 -0 0 0)
(1 -1.70526e-16 -0 -9.63604e-17 1.6432e-32 0 -0 0 0)
(1 -1.18437e-17 -0 6.78472e-18 -8.03565e-35 -0 -0 0 0)
(1 9.61838e-17 -0 5.18906e-18 4.99104e-34 -0 -0 -0 0)
(1 2.25606e-17 -0 -9.88717e-17 -2.2306e-33 0 -0 -0 0)
(1 -1.36869e-16 -0 -5.69979e-17 7.80125e-33 0 -0 0 0)
(1 -1.15657e-16 -0 -3.71136e-18 4.29245e-34 0 -0 0 0)
(1 -5.30737e-17 -0 2.98913e-17 -1.58644e-33 -0 -0 0 0)
(1 1.18221e-17 -0 5.59062e-17 6.60929e-34 -0 -0 -0 0)
(1 3.43458e-17 -0 8.57849e-17 2.94635e-33 -0 -0 -0 0)
(1 1.25596e-17 -0 3.25175e-17 4.08406e-34 -0 -0 -0 0)
(1 -9.60154e-17 -0 -3.72649e-17 3.57801e-33 0 -0 0 0)
(1 -8.65431e-17 -0 -2.49696e-17 2.16095e-33 0 -0 0 0)
(1 -4.16335e-17 -0 1.01364e-17 -4.22015e-34 -0 -0 0 0)
(1 -1.83045e-17 -0 5.99199e-17 -1.0968e-33 -0 -0 0 0)
(1 1.03195e-13 -0 1.03137e-13 1.06432e-26 -0 -0 -0 0)
(1 -2.28521e-14 -0 -2.29326e-14 5.24058e-28 0 -0 0 0)
(1 5.15699e-15 -0 5.18034e-15 2.6715e-29 -0 -0 -0 0)
(1 -1.1083e-15 -0 -1.13953e-15 1.26294e-30 0 -0 0 0)
(1 3.59317e-16 -0 2.87799e-16 1.03411e-31 -0 -0 -0 0)
(1 -6.6735e-17 -0 -5.96867e-17 3.98319e-33 0 -0 0 0)
(1 2.72335e-17 -0 -4.22466e-17 -1.15052e-33 0 -0 -0 0)
(1 4.64566e-17 -0 -8.84588e-17 -4.1095e-33 0 -0 -0 0)
(1 1.42688e-19 -0 -5.65846e-17 -8.07394e-36 0 -0 -0 0)
(1 -3.25398e-17 -0 -2.57757e-17 8.38737e-34 0 -0 0 0)
(1 -8.9303e-17 -0 3.98835e-17 -3.56172e-33 -0 -0 0 0)
(1 3.3685e-17 -0 2.18107e-16 7.34695e-33 -0 -0 -0 0)
(1 1.75337e-16 -0 2.46005e-16 4.31339e-32 -0 -0 -0 0)
(1 9.59981e-17 -0 2.12647e-17 2.04137e-33 -0 -0 -0 0)
(1 -1.15384e-16 -0 -9.25391e-17 1.06775e-32 0 -0 0 0)
(1 -7.49361e-17 -0 3.93575e-17 -2.9493e-33 -0 -0 0 0)
(1 3.72865e-17 -0 6.68432e-17 2.49235e-33 -0 -0 -0 0)
(1 3.52984e-17 -0 3.47242e-17 1.22571e-33 -0 -0 -0 0)
(1 -1.14359e-16 -0 -3.08336e-17 3.52611e-33 0 -0 0 0)
(1 -7.28267e-17 -0 -2.83927e-18 2.06774e-34 0 -0 0 0)
(1 -9.78168e-14 -0 -9.82736e-14 9.61281e-27 0 -0 0 0)
(1 2.11739e-14 -0 2.12138e-14 4.4918e-28 -0 -0 -0 0)
(1 -4.94089e-15 -0 -4.9245e-15 2.43314e-29 0 -0 0 0)
(1 1.25408e-15 -0 1.24155e-15 1.55701e-30 -0 -0 -0 0)
(1 -6.11683e-17 -0 -3.94394e-17 2.41244e-33 0 -0 0 0)
(1 1.75796e-16 -0 1.19715e-16 2.10455e-32 -0 -0 -0 0)
(1 2.82324e-17 -0 -1.22946e-16 -3.47106e-33 0 -0 -0 0)
(1 -2.2212e-17 -0 -1.15913e-16 2.57467e-33 0 -0 0 0)
(1 -8.88469e-17 -0 -4.19827e-17 3.73004e-33 0 -0 0 0)
(1 1.10603e-17 -0 5.12936e-17 5.67325e-34 -0 -0 -0 0)
(1 8.64277e-18 -0 -2.55276e-17 -2.20629e-34 0 -0 -0 0)
(1 -3.69908e-17 -0 -1.9357e-17 7.1603e-34 0 -0 0 0)
(1 -4.26794e-17 -0 7.17789e-18 -3.06348e-34 -0 -0 0 0)
(1 -8.65657e-17 -0 -5.04808e-17 4.36991e-33 0 -0 0 0)
(1 -1.31555e-16 -0 -1.35864e-16 1.78737e-32 0 -0 0 0)
(1 -1.38861e-16 -0 -9.04658e-17 1.25621e-32 0 -0 0 0)
(1 -4.96001e-17 -0 -2.68772e-17 1.33311e-33 0 -0 0 0)
(1 -7.61648e-17 -0 1.86167e-17 -1.41794e-33 -0 -0 0 0)
(1 -1.08099e-16 -0 -1.4916e-17 1.6124e-33 0 -0 0 0)
(1 -4.21644e-17 -0 -1.23742e-17 5.21751e-34 0 -0 0 0)
(1 4.32974e-14 -0 4.32291e-14 1.87171e-27 -0 -0 -0 0)
(1 -9.19372e-15 -0 -9.38017e-15 8.62386e-29 0 -0 0 0)
(1 2.08016e-15 -0 2.07486e-15 4.31605e-30 -0 -0 -0 0)
(1 -4.68258e-16 -0 -5.19492e-16 2.43257e-31 0 -0 0 0)
(1 6.74432e-17 -0 9.40307e-17 6.34173e-33 -0 -0 -0 0)
(1 -1.19642e-17 -0 -4.27793e-17 5.11818e-34 0 -0 0 0)
(1 -1.48604e-17 -0 1.24628e-17 -1.85203e-34 -0 -0 0 0)
(1 -3.4015e-17 -0 -1.37018e-17 4.66068e-34 0 -0 0 0)
(1 -6.47201e-17 -0 -5.82902e-17 3.77255e-33 0 -0 0 0)
(1 -1.48618e-17 -0 -7.50219e-18 1.11496e-34 0 -0 0 0)
(1 1.8448e-17 -0 -7.26274e-17 -1.33983e-33 0 -0 -0 0)
(1 -1.30209e-16 -0 -2.46533e-16 3.21007e-32 0 -0 0 0)
(1 -2.51664e-16 -0 -2.47357e-16 6.22507e-32 0 -0 0 0)
(1 -1.578e-16 -0 -2.5719e-17 4.05845e-33 0 -0 0 0)
(1 1.65094e-17 -0 8.04842e-17 1.32874e-33 -0 -0 -0 0)
(1 6.27901e-17 -0 8.21776e-17 5.15994e-33 -0 -0 -0 0)
(1 7.81778e-17 -0 1.30468e-16 1.01997e-32 -0 -0 -0 0)
(1 3.75728e-17 -0 5.94814e-17 2.23488e-33 -0 -0 -0 0)
(1 3.48461e-17 -0 2.56838e-17 8.94981e-34 -0 -0 -0 0)
(1 -1.96159e-17 -0 4.33267e-17 -8.49893e-34 -0 -0 0 0)
(1 7.51011e-14 -0 7.48059e-14 5.61801e-27 -0 -0 -0 0)
(1 -1.68702e-14 -0 -1.68244e-14 2.83831e-28 0 -0 0 0)
(1 3.87681e-15 -0 3.84473e-15 1.49053e-29 -0 -0 -0 0)
(1 -9.32184e-16 -0 -9.80706e-16 9.14199e-31 0 -0 0 0)
(1 1.89741e-16 -0 1.39961e-16 2.65563e-32 -0 -0 -0 0)
(1 -7.10287e-17 -0 -6.64398e-17 4.71913e-33 0 -0 0 0)
(1 1.14749e-16 -0 2.07454e-16 2.3805e-32 -0 -0 -0 0)
(1 1.97395e-16 -0 1.70553e-16 3.36662e-32 -0 -0 -0 0)
(1 5.81231e-17 -0 -6.20225e-17 -3.60494e-33 0 -0 -0 0)
(1 -7.8507e-17 -0 -1.50024e-16 1.1778e-32 0 -0 0 0)
(1 -1.24817e-16 -0 -1.56405e-16 1.9522e-32 0 -0 0 0)
(1 -1.38072e-16 -0 -6.91657e-17 9.54985e-33 0 -0 0 0)
(1 -8.92039e-17 -0 -7.26639e-18 6.4819e-34 0 -0 0 0)
(1 1.20749e-17 -0 4.73675e-17 5.71956e-34 -0 -0 -0 0)
(1 7.77747e-17 -0 6.74177e-17 5.24339e-33 -0 -0 -0 0)
(1 8.72359e-17 -0 6.40216e-18 5.58498e-34 -0 -0 -0 0)
(1 -1.83805e-17 -0 -1.30541e-17 2.39942e-34 0 -0 0 0)
(1 -8.27856e-18 -0 1.41381e-17 -1.17043e-34 -0 -0 0 0)
(1 6.4586e-17 -0 7.23434e-17 4.67237e-33 -0 -0 -0 0)
(1 -2.73469e-17 -0 1.13078e-16 -3.09232e-33 -0 -0 0 0)
(1 -1.62446e-13 -0 -1.62743e-13 2.6437e-26 0 -0 0 0)
(1 3.5221e-14 -0 3.53621e-14 1.24549e-27 -0 -0 -0 0)
(1 -8.30074e-15 -0 -8.23721e-15 6.83749e-29 0 -0 0 0)
(1 1.85485e-15 -0 1.92773e-15 3.57565e-30 -0 -0 -0 0)
(1 -2.66639e-16 -0 -3.0855e-16 8.22714e-32 0 -0 0 0)
(1 2.59463e-16 -0 1.52391e-16 3.95399e-32 -0 -0 -0 0)
(1 1.23496e-16 -0 1.25065e-17 1.5445e-33 -0 -0 -0 0)
(1 -3.56436e-18 -0 -5.32575e-17 1.89829e-34 0 -0 0 0)
(1 -9.73282e-17 -0 -1.45772e-16 1.41877e-32 0 -0 0 0)
(1 -1.97668e-16 -0 -1.84866e-16 3.65422e-32 0 -0 0 0)
(1 -1.78841e-16 -0 -2.02698e-17 3.62507e-33 0 -0 0 0)
(1 -1.15319e-17 -0 1.66582e-16 -1.92101e-33 -0 -0 0 0)
(1 8.06049e-17 -0 1.27841e-16 1.03046e-32 -0 -0 -0 0)
(1 9.81981e-17 -0 3.78819e-17 3.71993e-33 -0 -0 -0 0)
(1 8.63485e-17 -0 1.21663e-17 1.05054e-33 -0 -0 -0 0)
(1 4.30115e-17 -0 -6.14371e-17 -2.6425e-33 0 -0 -0 0)
(1 -1.28757e-16 -0 -1.10396e-16 1.42142e-32 0 -0 0 0)
(1 -1.43456e-16 -0 -5.55104e-17 7.96328e-33 0 -0 0 0)
(1 -1.91247e-17 -0 1.27524e-17 -2.43887e-34 -0 -0 0 0)
(1 -2.26722e-17 -0 4.53178e-17 -1.02746e-33 -0 -0 0 0)
(1 1.14976e-13 -0 1.15309e-13 1.32577e-26 -0 -0 -0 0)
(1 -2.45303e-14 -0 -2.47181e-14 6.06341e-28 0 -0 0 0)
(1 5.80148e-15 -0 5.73739e-15 3.32854e-29 -0 -0 -0 0)
(1 -1.3473e-15 -0 -1.39983e-15 1.88599e-30 0 -0 0 0)
(1 1.2281e-16 -0 1.9737e-16 2.42391e-32 -0 -0 -0 0)
(1 -5.16673e-17 -0 -2.95171e-17 1.52507e-33 0 -0 0 0)
(1 4.50279e-17 -0 9.07328e-17 4.08551e-33 -0 -0 -0 0)
(1 9.42846e-17 -0 2.18768e-16 2.06265e-32 -0 -0 -0 0)
(1 2.46095e-16 -0 2.67959e-16 6.59434e-32 -0 -0 -0 0)
(1 1.2588e-16 -0 6.323e-17 7.95939e-33 -0 -0 -0 0)
(1 2.50268e-17 -0 7.76299e-18 1.94283e-34 -0 -0 -0 0)
(1 -4.47406e-17 -0 -1.27576e-16 5.70782e-33 0 -0 0 0)
(1 -7.50766e-17 -0 -8.48452e-17 6.36988e-33 0 -0 0 0)
(1 -2.16571e-17 -0 -4.09714e-18 8.87324e-35 0 -0 0 0)
(1 1.83748e-17 -0 2.66704e-17 4.90063e-34 -0 -0 -0 0)
(1 -8.54696e-18 -0 -1.28821e-17 1.10102e-34 0 -0 0 0)
(1 4.59137e-17 -0 9.69883e-17 4.45309e-33 -0 -0 -0 0)
(1 1.28552e-16 -0 1.46177e-16 1.87913e-32 -0 -0 -0 0)
(1 9.35513e-17 -0 6.90562e-17 6.4603e-33 -0 -0 -0 0)
(1 1.7239e-17 -0 9.56807e-18 1.64944e-34 -0 -0 -0 0)
(1 1.96297e-14 -0 1.93574e-14 3.7998e-28 -0 -0 -0 0)
(1 -4.39204e-15 -0 -4.4047e-15 1.93456e-29 0 -0 0 0)
(1 9.47433e-16 -0 9.28587e-16 8.79774e-31 -0 -0 -0 0)
(1 -3.39755e-16 -0 -3.79315e-16 1.28874e-31 0 -0 0 0)
(1 -2.83652e-17 -0 -4.81587e-17 1.36603e-33 0 -0 0 0)
(1 -1.10759e-16 -0 -5.54362e-17 6.14004e-33 0 -0 0 0)
(1 -8.55037e-17 -0 -1.29206e-17 1.10476e-33 0 -0 0 0)
(1 7.37994e-17 -0 1.84795e-16 1.36378e-32 -0 -0 -0 0)
(1 2.13361e-16 -0 3.1275e-16 6.67287e-32 -0 -0 -0 0)
(1 2.62896e-16 -0 2.35856e-16 6.20055e-32 -0 -0 -0 0)
(1 1.71221e-16 -0 9.82598e-17 1.68242e-32 -0 -0 -0 0)
(1 1.08572e-16 -0 3.81962e-17 4.14702e-33 -0 -0 -0 0)
(1 6.51736e-17 -0 -7.69174e-18 -5.01299e-34 0 -0 -0 0)
(1 -7.14895e-18 -0 -4.65298e-17 3.32639e-34 0 -0 0 0)
(1 -3.22802e-18 -0 -9.3237e-17 3.00971e-34 0 -0 0 0)
(1 -4.41319e-17 -0 -5.91009e-17 2.60824e-33 0 -0 0 0)
(1 4.1093e-17 -0 3.53177e-17 1.45131e-33 -0 -0 -0 0)
(1 1.94775e-16 -0 2.10601e-16 4.10198e-32 -0 -0 -0 0)
(1 1.54657e-16 -0 1.43327e-16 2.21665e-32 -0 -0 -0 0)
(1 6.31816e-17 -0 3.00785e-17 1.90041e-33 -0 -0 -0 0)
(1 -1.25986e-13 -0 -1.26264e-13 1.59075e-26 0 -0 0 0)
(1 2.71692e-14 -0 2.72987e-14 7.41682e-28 -0 -0 -0 0)
(1 -6.44714e-15 -0 -6.35862e-15 4.09949e-29 0 -0 0 0)
(1 1.47892e-15 -0 1.55096e-15 2.29374e-30 -0 -0 -0 0)
(1 -1.0615e-16 -0 -1.96181e-16 2.08246e-32 0 -0 0 0)
(1 1.2778e-16 -0 1.35871e-16 1.73616e-32 -0 -0 -0 0)
(1 -3.33607e-18 -0 -5.16993e-17 1.72473e-34 0 -0 0 0)
(1 -5.27553e-17 -0 -9.85467e-17 5.19886e-33 0 -0 0 0)
(1 -8.84093e-17 -0 -4.0444e-17 3.57563e-33 0 -0 0 0)
(1 8.51025e-18 -0 9.97612e-17 8.48993e-34 -0 -0 -0 0)
(1 1.33301e-16 -0 1.59008e-16 2.1196e-32 -0 -0 -0 0)
(1 2.04182e-16 -0 1.2865e-16 2.62681e-32 -0 -0 -0 0)
(1 9.92584e-17 -0 -3.88879e-17 -3.85994e-33 0 -0 -0 0)
(1 -1.03571e-16 -0 -1.76103e-16 1.82392e-32 0 -0 0 0)
(1 -8.78457e-17 -0 -1.11811e-16 9.82213e-33 0 -0 0 0)
(1 1.11417e-17 -0 7.92777e-17 8.83288e-34 -0 -0 -0 0)
(1 8.44608e-17 -0 9.30438e-17 7.85855e-33 -0 -0 -0 0)
(1 9.1115e-17 -0 5.34291e-17 4.86819e-33 -0 -0 -0 0)
(1 4.89046e-17 -0 5.02399e-17 2.45696e-33 -0 -0 -0 0)
(1 4.13505e-17 -0 1.44739e-17 5.98501e-34 -0 -0 -0 0)
(1 5.56369e-14 -0 5.57248e-14 3.10035e-27 -0 -0 -0 0)
(1 -1.1633e-14 -0 -1.16962e-14 1.36061e-28 0 -0 0 0)
(1 2.72969e-15 -0 2.77142e-15 7.56513e-30 -0 -0 -0 0)
(1 -5.64506e-16 -0 -4.91155e-16 2.7726e-31 0 -0 0 0)
(1 1.75987e-16 -0 2.03115e-16 3.57455e-32 -0 -0 -0 0)
(1 3.68203e-17 -0 6.93937e-18 2.5551e-34 -0 -0 -0 0)
(1 5.32657e-17 -0 1.81562e-17 9.67102e-34 -0 -0 -0 0)
(1 3.61187e-17 -0 5.7951e-17 2.09312e-33 -0 -0 -0 0)
(1 6.35745e-17 -0 5.17706e-17 3.29129e-33 -0 -0 -0 0)
(1 3.94642e-17 -0 2.63984e-17 1.04179e-33 -0 -0 -0 0)
(1 4.24426e-17 -0 -2.1878e-17 -9.2856e-34 0 -0 -0 0)
(1 7.23756e-17 -0 3.37498e-18 2.44266e-34 -0 -0 -0 0)
(1 1.11639e-16 -0 7.14654e-17 7.97836e-33 -0 -0 -0 0)
(1 6.90781e-17 -0 1.22852e-17 8.48639e-34 -0 -0 -0 0)
(1 -2.35158e-17 -0 1.46398e-17 -3.44268e-34 -0 -0 0 0)
(1 -4.7797e-18 -0 1.11034e-16 -5.30712e-34 -0 -0 0 0)
(1 1.31624e-16 -0 1.67784e-16 2.20845e-32 -0 -0 -0 0)
(1 7.19709e-17 -0 1.71155e-17 1.23182e-33 -0 -0 -0 0)
(1 4.40741e-17 -0 5.12685e-17 2.25962e-33 -0 -0 -0 0)
(1 6.50921e-17 -0 5.09189e-17 3.31441e-33 -0 -0 -0 0)
(1 8.36796e-14 -0 8.35051e-14 6.98767e-27 -0 -0 -0 0)
(1 -1.80546e-14 -0 -1.80464e-14 3.25821e-28 0 -0 0 0)
(1 4.2626e-15 -0 4.28833e-15 1.82795e-29 -0 -0 -0 0)
(1 -9.14959e-16 -0 -8.50161e-16 7.77863e-31 0 -0 0 0)
(1 2.52377e-16 -0 2.70556e-16 6.82819e-32 -0 -0 -0 0)
(1 2.92702e-17 -0 -1.20479e-17 -3.52646e-34 0 -0 -0 0)
(1 5.98085e-17 -0 2.93302e-17 1.7542e-33 -0 -0 -0 0)
(1 3.42436e-17 -0 8.1025e-17 2.77459e-33 -0 -0 -0 0)
(1 5.7803e-17 -0 9.52214e-17 5.50408e-33 -0 -0 -0 0)
(1 8.44356e-17 -0 9.562e-17 8.07373e-33 -0 -0 -0 0)
(1 9.24114e-17 -0 9.07448e-17 8.38585e-33 -0 -0 -0 0)
(1 1.56932e-16 -0 1.84108e-16 2.88925e-32 -0 -0 -0 0)
(1 2.27779e-16 -0 1.74165e-16 3.96711e-32 -0 -0 -0 0)
(1 2.02612e-16 -0 9.53334e-17 1.93157e-32 -0 -0 -0 0)
(1 3.50257e-17 -0 -1.55319e-17 -5.44013e-34 0 -0 -0 0)
(1 -6.00043e-17 -0 -2.26367e-17 1.3583e-33 0 -0 0 0)
(1 9.13151e-18 -0 5.06775e-17 4.62762e-34 -0 -0 -0 0)
(1 2.17081e-17 -0 3.37979e-17 7.33687e-34 -0 -0 -0 0)
(1 5.1362e-17 -0 5.54863e-17 2.84989e-33 -0 -0 -0 0)
(1 5.2261e-17 -0 3.76425e-17 1.96724e-33 -0 -0 -0 0)
)
;

boundaryField
{
    movingWall
    {
        type            calculated;
        value           uniform (1 0 0 0 0 0 0 0 0);
    }
    fixedWalls
    {
        type            calculated;
        value           uniform (1 0 0 0 0 0 0 0 0);
    }
    frontAndBack
    {
        type            empty;
    }
}


// ************************************************************************* //
