/*--------------------------------*- C++ -*----------------------------------*\
| =========                 |                                                 |
| \\      /  F ield         | OpenFOAM: The Open Source CFD Toolbox           |
|  \\    /   O peration     | Version:  2312                                  |
|   \\  /    A nd           | Website:  www.openfoam.com                      |
|    \\/     M anipulation  |                                                 |
\*---------------------------------------------------------------------------*/
FoamFile
{
    version     2.0;
    format      ascii;
    arch        "LSB;label=32;scalar=64";
    class       volVectorField;
    location    "7";
    object      UMean;
}
// * * * * * * * * * * * * * * * * * * * * * * * * * * * * * * * * * * * * * //

dimensions      [0 1 -1 0 0 0 0];

internalField   nonuniform List<vector> 
400
(
(-0.642924 5.35096e-05 0)
(-0.643359 0.000241709 0)
(-0.644168 0.000363591 0)
(-0.645102 0.000424838 0)
(-0.646133 0.000481324 0)
(-0.647286 0.000555981 0)
(-0.648596 0.000653878 0)
(-0.650073 0.000758897 0)
(-0.651654 0.000815093 0)
(-0.653179 0.00076482 0)
(-0.654417 0.00057845 0)
(-0.655124 0.000266313 0)
(-0.655112 -0.000158812 0)
(-0.654224 -0.000611367 0)
(-0.652478 -0.00103032 0)
(-0.650075 -0.00130578 0)
(-0.647373 -0.00131299 0)
(-0.644798 -0.00095855 0)
(-0.643086 -0.000385559 0)
(-0.642676 9.41311e-05 0)
(-0.643156 0.000525751 0)
(-0.644025 0.00113013 0)
(-0.645215 0.00146017 0)
(-0.646546 0.00163155 0)
(-0.647981 0.00179857 0)
(-0.649546 0.00201032 0)
(-0.651261 0.00223533 0)
(-0.653086 0.00239211 0)
(-0.654925 0.00237474 0)
(-0.656623 0.00208798 0)
(-0.657991 0.00148339 0)
(-0.658821 0.000569037 0)
(-0.658915 -0.000597705 0)
(-0.658128 -0.00189109 0)
(-0.65638 -0.00310935 0)
(-0.653755 -0.00396512 0)
(-0.650521 -0.00414453 0)
(-0.64711 -0.00336683 0)
(-0.644145 -0.00175193 0)
(-0.642854 -0.00010017 0)
(-0.643377 0.00145856 0)
(-0.644497 0.00234254 0)
(-0.645828 0.00282209 0)
(-0.647319 0.00312118 0)
(-0.648936 0.00342196 0)
(-0.650696 0.00377482 0)
(-0.652611 0.00411746 0)
(-0.654651 0.00432403 0)
(-0.656727 0.00424275 0)
(-0.6587 0.00374065 0)
(-0.660382 0.00273551 0)
(-0.661553 0.00120794 0)
(-0.661999 -0.000767798 0)
(-0.661569 -0.00302663 0)
(-0.660154 -0.00528498 0)
(-0.657672 -0.00710624 0)
(-0.654178 -0.0079145 0)
(-0.649969 -0.00709759 0)
(-0.645705 -0.00442485 0)
(-0.643066 -0.00103371 0)
(-0.643504 0.00261027 0)
(-0.644774 0.00368187 0)
(-0.646175 0.00427122 0)
(-0.647719 0.004703 0)
(-0.649398 0.00515499 0)
(-0.651244 0.00566953 0)
(-0.653281 0.00616476 0)
(-0.655488 0.00647045 0)
(-0.657777 0.00637723 0)
(-0.659995 0.00569514 0)
(-0.661941 0.00430303 0)
(-0.663391 0.00218025 0)
(-0.664154 -0.000588314 0)
(-0.664082 -0.00379845 0)
(-0.663091 -0.00713197 0)
(-0.661055 -0.0101316 0)
(-0.657802 -0.0120779 0)
(-0.653271 -0.0119532 0)
(-0.647936 -0.00874518 0)
(-0.643584 -0.00282972 0)
(-0.643549 0.00387833 0)
(-0.644874 0.00509707 0)
(-0.646276 0.00575947 0)
(-0.6478 0.00630697 0)
(-0.649461 0.00691698 0)
(-0.651304 0.00762281 0)
(-0.653364 0.00831129 0)
(-0.655624 0.00875717 0)
(-0.657986 0.00868142 0)
(-0.660274 0.00783208 0)
(-0.662273 0.00606666 0)
(-0.663793 0.00339137 0)
(-0.664694 -7.20292e-05 0)
(-0.664887 -0.00408746 0)
(-0.664283 -0.00834938 0)
(-0.662829 -0.0124775 0)
(-0.660248 -0.0158252 0)
(-0.656095 -0.0171619 0)
(-0.650339 -0.0145101 0)
(-0.644655 -0.00636413 0)
(-0.643525 0.00516081 0)
(-0.644823 0.00650402 0)
(-0.646163 0.00721681 0)
(-0.647602 0.00786754 0)
(-0.649165 0.00863597 0)
(-0.650901 0.00954296 0)
(-0.652851 0.0104376 0)
(-0.655001 0.0110314 0)
(-0.65725 0.0109675 0)
(-0.659435 0.00994595 0)
(-0.661383 0.00782925 0)
(-0.662948 0.00465548 0)
(-0.663984 0.000593307 0)
(-0.66436 -0.00411748 0)
(-0.664015 -0.00914003 0)
(-0.662963 -0.0141453 0)
(-0.661064 -0.018726 0)
(-0.657726 -0.0218786 0)
(-0.652247 -0.0209813 0)
(-0.645794 -0.0117068 0)
(-0.643453 0.00637274 0)
(-0.644653 0.00783055 0)
(-0.645877 0.00857743 0)
(-0.647168 0.00930776 0)
(-0.648552 0.0102095 0)
(-0.650068 0.011296 0)
(-0.651762 0.0123759 0)
(-0.653631 0.0131054 0)
(-0.655607 0.0130705 0)
(-0.657587 0.0119437 0)
(-0.659468 0.00958457 0)
(-0.661116 0.00601971 0)
(-0.662339 0.00140368 0)
(-0.66293 -0.00398276 0)
(-0.66281 -0.00973505 0)
(-0.662021 -0.0154497 0)
(-0.660583 -0.0209211 0)
(-0.658078 -0.0256846 0)
(-0.653317 -0.0272568 0)
(-0.646667 -0.0185241 0)
(-0.643352 0.00744384 0)
(-0.644398 0.00901737 0)
(-0.645459 0.009781 0)
(-0.64655 0.0105545 0)
(-0.647684 0.0115387 0)
(-0.648886 0.0127469 0)
(-0.650188 0.0139636 0)
(-0.651621 0.0148296 0)
(-0.65318 0.0148851 0)
(-0.654842 0.0137678 0)
(-0.656577 0.0113233 0)
(-0.658266 0.00751353 0)
(-0.659667 0.00242855 0)
(-0.660546 -0.00361591 0)
(-0.660752 -0.0101002 0)
(-0.660306 -0.0164857 0)
(-0.65927 -0.022656 0)
(-0.657473 -0.0286321 0)
(-0.653588 -0.0328278 0)
(-0.647168 -0.0261742 0)
(-0.643233 0.0083263 0)
(-0.64409 0.0100183 0)
(-0.644956 0.0107816 0)
(-0.645814 0.0115542 0)
(-0.646653 0.012553 0)
(-0.647472 0.0137992 0)
(-0.648296 0.0150795 0)
(-0.649178 0.0160527 0)
(-0.650173 0.0162553 0)
(-0.65134 0.015311 0)
(-0.652742 0.0129837 0)
(-0.654313 0.00911167 0)
(-0.655846 0.00371116 0)
(-0.657045 -0.00289963 0)
(-0.657699 -0.0100317 0)
(-0.657793 -0.0170756 0)
(-0.657319 -0.0238954 0)
(-0.656231 -0.0308416 0)
(-0.653299 -0.0375543 0)
(-0.647393 -0.0340268 0)
(-0.643111 0.00899462 0)
(-0.643761 0.0108073 0)
(-0.644417 0.0115544 0)
(-0.64503 0.0122778 0)
(-0.645562 0.0132126 0)
(-0.645982 0.0143965 0)
(-0.646302 0.0156556 0)
(-0.646574 0.0166775 0)
(-0.646898 0.0170401 0)
(-0.647392 0.0163446 0)
(-0.648185 0.0143077 0)
(-0.64935 0.0106757 0)
(-0.650821 0.00528971 0)
(-0.652299 -0.00160494 0)
(-0.653571 -0.00925434 0)
(-0.654444 -0.0169473 0)
(-0.654756 -0.0244159 0)
(-0.654514 -0.0322729 0)
(-0.652622 -0.0413201 0)
(-0.64753 -0.0416976 0)
(-0.642998 0.00944621 0)
(-0.643446 0.0113785 0)
(-0.643895 0.0120937 0)
(-0.644272 0.0127244 0)
(-0.644515 0.013524 0)
(-0.64457 0.014549 0)
(-0.644427 0.0156767 0)
(-0.644121 0.0166412 0)
(-0.643759 0.0170909 0)
(-0.643487 0.0166546 0)
(-0.643497 0.0150259 0)
(-0.643943 0.0118954 0)
(-0.645002 0.00693215 0)
(-0.646654 0.000190783 0)
(-0.648593 -0.00766403 0)
(-0.650372 -0.0158438 0)
(-0.651644 -0.0239797 0)
(-0.652403 -0.0327272 0)
(-0.651666 -0.0440437 0)
(-0.647676 -0.0489991 0)
(-0.64291 0.00970101 0)
(-0.643181 0.0117472 0)
(-0.643441 0.0124156 0)
(-0.643608 0.0129185 0)
(-0.643601 0.0135282 0)
(-0.643356 0.014317 0)
(-0.642846 0.0152094 0)
(-0.642086 0.0159976 0)
(-0.641163 0.0164014 0)
(-0.640223 0.0161161 0)
(-0.639463 0.014859 0)
(-0.639113 0.012336 0)
(-0.639489 0.00823726 0)
(-0.640893 0.00231353 0)
(-0.643241 -0.00523876 0)
(-0.645882 -0.0136449 0)
(-0.648164 -0.0224341 0)
(-0.649993 -0.0320561 0)
(-0.650526 -0.0456296 0)
(-0.647868 -0.0558741 0)
(-0.642863 0.00980648 0)
(-0.643 0.0119448 0)
(-0.643103 0.0125487 0)
(-0.643089 0.012897 0)
(-0.642875 0.0132841 0)
(-0.642402 0.0137959 0)
(-0.641635 0.0143933 0)
(-0.640581 0.0149247 0)
(-0.639306 0.0151767 0)
(-0.63794 0.0149112 0)
(-0.636667 0.0139007 0)
(-0.635733 0.0119292 0)
(-0.635458 0.00873943 0)
(-0.636291 0.00405115 0)
(-0.638447 -0.00247105 0)
(-0.641489 -0.0106496 0)
(-0.644608 -0.0197903 0)
(-0.647428 -0.0301911 0)
(-0.649302 -0.0459901 0)
(-0.648125 -0.0623084 0)
(-0.642872 0.00985493 0)
(-0.642937 0.012026 0)
(-0.642921 0.0125292 0)
(-0.642752 0.012696 0)
(-0.642361 0.0128442 0)
(-0.64171 0.0130728 0)
(-0.640771 0.0133673 0)
(-0.639554 0.0136262 0)
(-0.638114 0.0136917 0)
(-0.636559 0.0133844 0)
(-0.635055 0.0125361 0)
(-0.633824 0.0110056 0)
(-0.633125 0.00862944 0)
(-0.633323 0.00509987 0)
(-0.634871 -4.04587e-05 0)
(-0.637708 -0.00729939 0)
(-0.641248 -0.0162515 0)
(-0.644857 -0.0271896 0)
(-0.648028 -0.044936 0)
(-0.648442 -0.0680972 0)
(-0.642963 0.00985294 0)
(-0.64305 0.012013 0)
(-0.64294 0.0123676 0)
(-0.642625 0.0123244 0)
(-0.642067 0.0122299 0)
(-0.641255 0.0121915 0)
(-0.640184 0.0122122 0)
(-0.638872 0.0122265 0)
(-0.637366 0.0121239 0)
(-0.63576 0.011775 0)
(-0.634192 0.0110591 0)
(-0.632832 0.00987564 0)
(-0.631881 0.00811038 0)
(-0.631598 0.00553467 0)
(-0.632403 0.00168039 0)
(-0.634626 -0.00412003 0)
(-0.63812 -0.0122094 0)
(-0.642257 -0.0232865 0)
(-0.646415 -0.042191 0)
(-0.648684 -0.0729652 0)
(-0.643179 0.0103381 0)
(-0.643348 0.0121215 0)
(-0.643173 0.0121431 0)
(-0.642709 0.0118128 0)
(-0.641971 0.0114596 0)
(-0.640988 0.011174 0)
(-0.63978 0.0109627 0)
(-0.638377 0.0107791 0)
(-0.636825 0.010546 0)
(-0.635199 0.0101722 0)
(-0.633607 0.0095686 0)
(-0.632179 0.0086551 0)
(-0.63107 0.00734733 0)
(-0.630463 0.00549309 0)
(-0.630671 0.00271483 0)
(-0.6321 -0.00163242 0)
(-0.635289 -0.00827729 0)
(-0.639187 -0.0190222 0)
(-0.643801 -0.0378674 0)
(-0.648577 -0.0773598 0)
(-0.643662 0.00967899 0)
(-0.644173 0.0113643 0)
(-0.643771 0.0113039 0)
(-0.643017 0.0108761 0)
(-0.642014 0.0103912 0)
(-0.640804 0.00994775 0)
(-0.639407 0.00958093 0)
(-0.637861 0.00926714 0)
(-0.63621 0.00895317 0)
(-0.634513 0.00857439 0)
(-0.63285 0.00806492 0)
(-0.631317 0.0073618 0)
(-0.630047 0.00640991 0)
(-0.629188 0.00509952 0)
(-0.628989 0.00318693 0)
(-0.629675 6.17502e-05 0)
(-0.632442 -0.00488778 0)
(-0.634778 -0.0151178 0)
(-0.640278 -0.0328636 0)
(-0.647788 -0.0825572 0)
(-0.644327 0.0156418 0)
(-0.644864 0.0150525 0)
(-0.644044 0.0130708 0)
(-0.642916 0.0113273 0)
(-0.64158 0.0100835 0)
(-0.640023 0.00916382 0)
(-0.638282 0.00847518 0)
(-0.636424 0.00794171 0)
(-0.634502 0.00748766 0)
(-0.632566 0.00705136 0)
(-0.630677 0.00658403 0)
(-0.628926 0.00604782 0)
(-0.627419 0.00539701 0)
(-0.626256 0.00455626 0)
(-0.625697 0.0033924 0)
(-0.625654 0.00131934 0)
(-0.628116 -0.00226006 0)
(-0.626979 -0.011376 0)
(-0.637854 -0.0260763 0)
(-0.644175 -0.0866891 0)
(-0.645248 0.00584409 0)
(-0.646179 0.00359898 0)
(-0.643296 0.00372612 0)
(-0.640092 0.00470325 0)
(-0.636786 0.00493764 0)
(-0.633567 0.00476712 0)
(-0.630522 0.00455782 0)
(-0.627645 0.00438825 0)
(-0.624912 0.00422938 0)
(-0.622307 0.00405407 0)
(-0.619838 0.00385131 0)
(-0.617533 0.00361066 0)
(-0.615451 0.00331867 0)
(-0.613596 0.00291701 0)
(-0.61229 0.00236775 0)
(-0.610944 0.00122443 0)
(-0.613279 -0.000372315 0)
(-0.608756 -0.00601054 0)
(-0.634492 -0.0135487 0)
(-0.622234 -0.0757304 0)
(-0.628601 0.0328316 0)
(-0.621148 0.024015 0)
(-0.612453 0.0147206 0)
(-0.605097 0.00961804 0)
(-0.599514 0.0069816 0)
(-0.594867 0.0054527 0)
(-0.590661 0.00445399 0)
(-0.586772 0.0037504 0)
(-0.58317 0.00322513 0)
(-0.57982 0.00281846 0)
(-0.5767 0.00249006 0)
(-0.5738 0.00221359 0)
(-0.571155 0.0019706 0)
(-0.568741 0.00173917 0)
(-0.566895 0.00148856 0)
(-0.564831 0.00113939 0)
(-0.566756 0.00072296 0)
(-0.558819 -0.000785535 0)
(-0.601508 0.00202747 0)
(-0.513409 -0.0342343 0)
)
;

boundaryField
{
    movingWall
    {
        type            calculated;
        value           uniform (-0.285714 0 0);
    }
    fixedWalls
    {
        type            calculated;
        value           uniform (-0.642857 0 0);
    }
    frontAndBack
    {
        type            empty;
    }
}


// ************************************************************************* //
