/*--------------------------------*- C++ -*----------------------------------*\
| =========                 |                                                 |
| \\      /  F ield         | OpenFOAM: The Open Source CFD Toolbox           |
|  \\    /   O peration     | Version:  2312                                  |
|   \\  /    A nd           | Website:  www.openfoam.com                      |
|    \\/     M anipulation  |                                                 |
\*---------------------------------------------------------------------------*/
FoamFile
{
    version     2.0;
    format      ascii;
    arch        "LSB;label=32;scalar=64";
    class       volSymmTensorField;
    location    "7";
    object      UPrime2Mean;
}
// * * * * * * * * * * * * * * * * * * * * * * * * * * * * * * * * * * * * * //

dimensions      [0 2 -2 0 0 0 0];

internalField   nonuniform List<symmTensor> 
400
(
(0.229509 3.41561e-05 0 1.58024e-08 0 0)
(0.228947 0.000155135 0 1.43926e-07 0 0)
(0.227911 0.000232532 0 3.28547e-07 0 0)
(0.226719 0.000270649 0 4.57234e-07 0 0)
(0.22541 0.00030513 0 6.31702e-07 0 0)
(0.223953 0.000350145 0 9.79278e-07 0 0)
(0.222312 0.000407979 0 1.66627e-06 0 0)
(0.220482 0.000467267 0 2.80208e-06 0 0)
(0.218552 0.00049353 0 3.80175e-06 0 0)
(0.216721 0.000454716 0 3.73961e-06 0 0)
(0.215262 0.000337756 0 2.40513e-06 0 0)
(0.214443 0.000151602 0 7.40909e-07 0 0)
(0.214474 -9.8821e-05 0 1.31695e-07 0 0)
(0.215535 -0.00036692 0 1.3655e-06 0 0)
(0.217624 -0.000621843 0 4.26652e-06 0 0)
(0.220536 -0.000799666 0 7.23179e-06 0 0)
(0.22387 -0.000819266 0 7.46523e-06 0 0)
(0.22711 -0.000609427 0 3.74735e-06 0 0)
(0.229298 -0.000247788 0 4.24334e-07 0 0)
(0.229825 6.08516e-05 0 2.15717e-07 0 0)
(0.229211 0.000337361 0 6.92012e-07 0 0)
(0.228094 0.000722862 0 3.54078e-06 0 0)
(0.226578 0.000928607 0 6.10519e-06 0 0)
(0.224891 0.00103068 0 7.86394e-06 0 0)
(0.223088 0.00112683 0 1.03219e-05 0 0)
(0.221141 0.00124573 0 1.49022e-05 0 0)
(0.219034 0.00136486 0 2.19553e-05 0 0)
(0.216828 0.00143401 0 2.92553e-05 0 0)
(0.214648 0.00139464 0 3.21938e-05 0 0)
(0.212672 0.00120082 0 2.72025e-05 0 0)
(0.21111 0.000834744 0 1.56917e-05 0 0)
(0.210181 0.000305635 0 4.19422e-06 0 0)
(0.210097 -0.000358205 0 1.39504e-06 0 0)
(0.211021 -0.00109733 0 1.39606e-05 0 0)
(0.213058 -0.00181228 0 4.15466e-05 0 0)
(0.216149 -0.00234807 0 7.1682e-05 0 0)
(0.220027 -0.00251116 0 8.18055e-05 0 0)
(0.224214 -0.00209531 0 5.38408e-05 0 0)
(0.227943 -0.00111742 0 1.20967e-05 0 0)
(0.229596 -6.38031e-05 0 9.19452e-07 0 0)
(0.228928 0.000934829 0 5.82771e-06 0 0)
(0.227492 0.00149436 0 1.64475e-05 0 0)
(0.225801 0.00178762 0 2.47204e-05 0 0)
(0.223923 0.00196076 0 3.13822e-05 0 0)
(0.221905 0.00212736 0 4.09646e-05 0 0)
(0.219736 0.00231465 0 5.70484e-05 0 0)
(0.217413 0.00248053 0 7.85154e-05 0 0)
(0.214983 0.00255097 0 9.7389e-05 0 0)
(0.212558 0.00244732 0 0.000101679 0 0)
(0.210295 0.00210987 0 8.4196e-05 0 0)
(0.208396 0.00150821 0 4.96027e-05 0 0)
(0.207092 0.000639671 0 1.45013e-05 0 0)
(0.206606 -0.000459861 0 2.6907e-06 0 0)
(0.20711 -0.00171621 0 3.52218e-05 0 0)
(0.208737 -0.00299456 0 0.000118969 0 0)
(0.211606 -0.00407495 0 0.000230783 0 0)
(0.2157 -0.00463895 0 0.000305607 0 0)
(0.220734 -0.00429076 0 0.000259683 0 0)
(0.225984 -0.00277268 0 9.86303e-05 0 0)
(0.229324 -0.000663339 0 3.5958e-06 0 0)
(0.228764 0.00167206 0 1.98681e-05 0 0)
(0.227139 0.0023446 0 4.23197e-05 0 0)
(0.225364 0.00269893 0 5.91511e-05 0 0)
(0.223423 0.00294485 0 7.5058e-05 0 0)
(0.221337 0.00319105 0 9.82062e-05 0 0)
(0.219073 0.00345757 0 0.000134122 0 0)
(0.216614 0.00369015 0 0.00017869 0 0)
(0.213998 0.00379176 0 0.000214457 0 0)
(0.21133 0.00365659 0 0.000218559 0 0)
(0.208782 0.00319912 0 0.000179308 0 0)
(0.206572 0.00237101 0 0.000107453 0 0)
(0.204936 0.00116955 0 3.47852e-05 0 0)
(0.20408 -0.000364025 0 3.69756e-06 0 0)
(0.204167 -0.00213665 0 5.34369e-05 0 0)
(0.205307 -0.00399779 0 0.000203055 0 0)
(0.207657 -0.00571975 0 0.000435099 0 0)
(0.211444 -0.00692642 0 0.000663812 0 0)
(0.216789 -0.00704153 0 0.00071059 0 0)
(0.223238 -0.00535427 0 0.000414045 0 0)
(0.228664 -0.00180338 0 3.86244e-05 0 0)
(0.228706 0.00248361 0 4.56328e-05 0 0)
(0.227012 0.00324349 0 8.30962e-05 0 0)
(0.225236 0.00363641 0 0.000110184 0 0)
(0.223321 0.00394605 0 0.000138855 0 0)
(0.221257 0.00427864 0 0.000181619 0 0)
(0.218995 0.0046472 0 0.000245578 0 0)
(0.216503 0.00497877 0 0.000320508 0 0)
(0.213811 0.00514638 0 0.0003757 0 0)
(0.211035 0.00500719 0 0.000375647 0 0)
(0.208375 0.00444222 0 0.000305704 0 0)
(0.20607 0.00339025 0 0.000186628 0 0)
(0.204329 0.00186149 0 6.76327e-05 0 0)
(0.203303 -8.09496e-05 0 7.705e-06 0 0)
(0.203087 -0.0023213 0 6.04714e-05 0 0)
(0.203788 -0.00471374 0 0.000257266 0 0)
(0.205479 -0.00706783 0 0.000597537 0 0)
(0.208499 -0.00904847 0 0.00102088 0 0)
(0.213399 -0.00999742 0 0.00132326 0 0)
(0.220304 -0.00873544 0 0.00108588 0 0)
(0.227315 -0.00400114 0 0.000245822 0 0)
(0.228732 0.00330587 0 8.26069e-05 0 0)
(0.227078 0.00413995 0 0.000136686 0 0)
(0.225376 0.00456022 0 0.000174509 0 0)
(0.223566 0.00492991 0 0.000218211 0 0)
(0.221616 0.00535602 0 0.000284656 0 0)
(0.219475 0.00584382 0 0.000381145 0 0)
(0.217097 0.00629784 0 0.000488741 0 0)
(0.214507 0.00655329 0 0.000561721 0 0)
(0.211825 0.00641963 0 0.000552232 0 0)
(0.209244 0.005745 0 0.0004471 0 0)
(0.206964 0.00446624 0 0.000280413 0 0)
(0.205152 0.00261378 0 0.000115739 0 0)
(0.203969 0.000285973 0 2.43368e-05 0 0)
(0.203555 -0.00238994 0 6.95579e-05 0 0)
(0.203972 -0.00524643 0 0.000292686 0 0)
(0.205206 -0.00812157 0 0.000703483 0 0)
(0.207432 -0.0108115 0 0.00128083 0 0)
(0.21138 -0.0127864 0 0.00190142 0 0)
(0.217956 -0.0125693 0 0.0020391 0 0)
(0.225884 -0.00729719 0 0.000813038 0 0)
(0.228821 0.00408429 0 0.000126718 0 0)
(0.227294 0.00498997 0 0.000197651 0 0)
(0.225737 0.00543153 0 0.000245312 0 0)
(0.224106 0.00585254 0 0.000303394 0 0)
(0.22237 0.0063663 0 0.000392498 0 0)
(0.220483 0.00697486 0 0.000519621 0 0)
(0.218393 0.00755778 0 0.000656229 0 0)
(0.216108 0.00791224 0 0.000743662 0 0)
(0.213712 0.00780425 0 0.000726092 0 0)
(0.211334 0.00705468 0 0.000594244 0 0)
(0.209099 0.00559437 0 0.000390974 0 0)
(0.207172 0.00345428 0 0.000186969 0 0)
(0.205771 0.00073758 0 6.29341e-05 0 0)
(0.205124 -0.00239119 0 9.44177e-05 0 0)
(0.205305 -0.00571479 0 0.000331568 0 0)
(0.206255 -0.00902974 0 0.000786269 0 0)
(0.207944 -0.0122544 0 0.00145956 0 0)
(0.210893 -0.0151699 0 0.00233361 0 0)
(0.216613 -0.0164005 0 0.00302759 0 0)
(0.224784 -0.0115252 0 0.00183668 0 0)
(0.228952 0.00477471 0 0.000171417 0 0)
(0.227617 0.00575619 0 0.000258506 0 0)
(0.226264 0.00621265 0 0.000313554 0 0)
(0.22488 0.00666826 0 0.000381933 0 0)
(0.223447 0.00724736 0 0.000486879 0 0)
(0.221937 0.00795468 0 0.000635258 0 0)
(0.22031 0.00865458 0 0.000792079 0 0)
(0.218531 0.00912534 0 0.000894164 0 0)
(0.216608 0.00908992 0 0.000879041 0 0)
(0.214576 0.00833445 0 0.000736945 0 0)
(0.212483 0.00677675 0 0.000514615 0 0)
(0.210479 0.00441477 0 0.000282652 0 0)
(0.208856 0.00132801 0 0.000128176 0 0)
(0.207883 -0.00227907 0 0.000140952 0 0)
(0.207709 -0.00609752 0 0.00037922 0 0)
(0.208283 -0.00983804 0 0.000858243 0 0)
(0.209513 -0.0134841 0 0.00159195 0 0)
(0.211603 -0.0171205 0 0.00263231 0 0)
(0.21625 -0.0199201 0 0.00387937 0 0)
(0.224149 -0.0163269 0 0.00321824 0 0)
(0.229104 0.00534524 0 0.000209686 0 0)
(0.22801 0.00640848 0 0.000311356 0 0)
(0.226902 0.00687262 0 0.000370475 0 0)
(0.225809 0.00733944 0 0.000442814 0 0)
(0.224743 0.00794744 0 0.000552888 0 0)
(0.223705 0.00871 0 0.000707677 0 0)
(0.222664 0.00949175 0 0.000871585 0 0)
(0.221555 0.0100736 0 0.00098465 0 0)
(0.220312 0.0101592 0 0.00098337 0 0)
(0.218865 0.0095099 0 0.000856016 0 0)
(0.217145 0.00798218 0 0.000639514 0 0)
(0.21525 0.00549783 0 0.000395463 0 0)
(0.213443 0.00210237 0 0.000217537 0 0)
(0.212086 -0.00196861 0 0.000206242 0 0)
(0.211389 -0.00626648 0 0.000425165 0 0)
(0.211333 -0.0104363 0 0.000901243 0 0)
(0.211904 -0.0144657 0 0.00166887 0 0)
(0.213132 -0.0186676 0 0.00282397 0 0)
(0.216597 -0.0229904 0 0.00455348 0 0)
(0.22386 -0.0213123 0 0.00475986 0 0)
(0.229261 0.00577923 0 0.000236165 0 0)
(0.228431 0.00692806 0 0.000350063 0 0)
(0.227591 0.00739191 0 0.00040992 0 0)
(0.226807 0.0078412 0 0.000479099 0 0)
(0.226129 0.00842943 0 0.000581961 0 0)
(0.225595 0.00918449 0 0.000726099 0 0)
(0.225194 0.00999581 0 0.00088286 0 0)
(0.224858 0.0106566 0 0.000998435 0 0)
(0.224462 0.010883 0 0.00101579 0 0)
(0.223856 0.010406 0 0.000916918 0 0)
(0.22288 0.00903866 0 0.000730624 0 0)
(0.221456 0.00662912 0 0.000507419 0 0)
(0.219688 0.00311494 0 0.00032249 0 0)
(0.217955 -0.00128178 0 0.000278186 0 0)
(0.216492 -0.00601927 0 0.000449636 0 0)
(0.215481 -0.0106363 0 0.00088716 0 0)
(0.215092 -0.015051 0 0.00165635 0 0)
(0.21528 -0.0197673 0 0.00289882 0 0)
(0.217447 -0.0254974 0 0.00503151 0 0)
(0.223683 -0.026211 0 0.00631319 0 0)
(0.229406 0.00607364 0 0.000248203 0 0)
(0.228836 0.00730862 0 0.000371423 0 0)
(0.22826 0.00776253 0 0.000429131 0 0)
(0.227778 0.00816552 0 0.000489296 0 0)
(0.227471 0.00868538 0 0.000575214 0 0)
(0.227409 0.00936458 0 0.000694578 0 0)
(0.22761 0.0101259 0 0.000827623 0 0)
(0.228031 0.0107908 0 0.000930873 0 0)
(0.228534 0.0111129 0 0.00095895 0 0)
(0.228929 0.0108293 0 0.000892881 0 0)
(0.228962 0.00972395 0 0.000753437 0 0)
(0.228441 0.00759348 0 0.000579397 0 0)
(0.227153 0.00424403 0 0.0004181 0 0)
(0.225143 -0.000209067 0 0.000342549 0 0)
(0.222788 -0.00521993 0 0.000438834 0 0)
(0.220609 -0.010228 0 0.000797981 0 0)
(0.219003 -0.0150645 0 0.00152852 0 0)
(0.217938 -0.0202818 0 0.00282097 0 0)
(0.218657 -0.0273653 0 0.00530369 0 0)
(0.223492 -0.03088 0 0.00779213 0 0)
(0.22952 0.00624112 0 0.000246457 0 0)
(0.229178 0.00755728 0 0.000375572 0 0)
(0.228844 0.00799058 0 0.000429158 0 0)
(0.228636 0.0083221 0 0.000476826 0 0)
(0.228653 0.00873289 0 0.00054054 0 0)
(0.228984 0.00927584 0 0.000627241 0 0)
(0.22967 0.00990483 0 0.000724783 0 0)
(0.230698 0.0104788 0 0.000802022 0 0)
(0.231955 0.010797 0 0.000826008 0 0)
(0.233249 0.010635 0 0.000782286 0 0)
(0.23431 0.00978547 0 0.000686449 0 0)
(0.234833 0.00804422 0 0.000570643 0 0)
(0.2344 0.00521425 0 0.000465647 0 0)
(0.23264 0.00118657 0 0.000390061 0 0)
(0.229673 -0.00378113 0 0.000406347 0 0)
(0.226334 -0.00906484 0 0.000648861 0 0)
(0.223411 -0.0143629 0 0.00128893 0 0)
(0.22098 -0.020099 0 0.00257659 0 0)
(0.220104 -0.0285198 0 0.00535343 0 0)
(0.223246 -0.0352664 0 0.00917603 0 0)
(0.229579 0.00631057 0 0.000234589 0 0)
(0.229412 0.00769224 0 0.000365342 0 0)
(0.229283 0.00809142 0 0.00041349 0 0)
(0.22931 0.00833102 0 0.00044755 0 0)
(0.229599 0.008606 0 0.00048854 0 0)
(0.230232 0.00897663 0 0.000542658 0 0)
(0.23126 0.0094199 0 0.00060303 0 0)
(0.232683 0.00983185 0 0.000649696 0 0)
(0.234417 0.0100576 0 0.000661122 0 0)
(0.23629 0.00991832 0 0.000627669 0 0)
(0.238045 0.00924322 0 0.000561435 0 0)
(0.239345 0.00787844 0 0.000490607 0 0)
(0.239756 0.00565787 0 0.000436431 0 0)
(0.238689 0.00242123 0 0.000397395 0 0)
(0.2359 -0.00197259 0 0.00037097 0 0)
(0.231978 -0.00726256 0 0.000486214 0 0)
(0.22794 -0.0128982 0 0.000978788 0 0)
(0.224222 -0.0191484 0 0.00218255 0 0)
(0.221655 -0.0288963 0 0.00516843 0 0)
(0.222917 -0.0393522 0 0.0104728 0 0)
(0.229567 0.00634221 0 0.000219 0 0)
(0.229494 0.0077472 0 0.000345952 0 0)
(0.229521 0.00808642 0 0.000386834 0 0)
(0.229751 0.00821392 0 0.000407416 0 0)
(0.230273 0.00833854 0 0.0004282 0 0)
(0.231141 0.0085268 0 0.000455172 0 0)
(0.232397 0.00877045 0 0.000484778 0 0)
(0.234037 0.00899878 0 0.000505749 0 0)
(0.235991 0.00909675 0 0.000505164 0 0)
(0.238114 0.00892945 0 0.000477224 0 0)
(0.240175 0.00836973 0 0.000430042 0 0)
(0.241866 0.00731641 0 0.000384029 0 0)
(0.242827 0.00566472 0 0.000357509 0 0)
(0.242576 0.00322273 0 0.000345975 0 0)
(0.240543 -0.000286973 0 0.00033203 0 0)
(0.236846 -0.00509472 0 0.000355425 0 0)
(0.232231 -0.0107612 0 0.000664822 0 0)
(0.227475 -0.0174365 0 0.00169134 0 0)
(0.223263 -0.0283756 0 0.00472192 0 0)
(0.222515 -0.0430107 0 0.0116443 0 0)
(0.229447 0.00633852 0 0.000202546 0 0)
(0.22935 0.00773524 0 0.000321173 0 0)
(0.2295 0.00798113 0 0.000352617 0 0)
(0.229922 0.00797634 0 0.000360303 0 0)
(0.230663 0.00794598 0 0.000364627 0 0)
(0.231743 0.00795997 0 0.000371485 0 0)
(0.233172 0.00801993 0 0.000379512 0 0)
(0.234934 0.00807951 0 0.0003829 0 0)
(0.236969 0.00805841 0 0.000374712 0 0)
(0.23915 0.00785989 0 0.000351594 0 0)
(0.241284 0.00739374 0 0.00031782 0 0)
(0.243134 0.00658859 0 0.000284929 0 0)
(0.244421 0.00537057 0 0.000266049 0 0)
(0.2448 0.0035944 0 0.000264952 0 0)
(0.243722 0.000956936 0 0.000266592 0 0)
(0.240794 -0.00294398 0 0.000268057 0 0)
(0.236221 -0.00819269 0 0.000410443 0 0)
(0.230773 -0.0150964 0 0.00118618 0 0)
(0.225296 -0.0268072 0 0.00399827 0 0)
(0.222207 -0.0461007 0 0.0126123 0 0)
(0.229167 0.00664608 0 0.000209162 0 0)
(0.228969 0.00779506 0 0.000305822 0 0)
(0.229204 0.00782741 0 0.000319084 0 0)
(0.229819 0.00763922 0 0.000311629 0 0)
(0.230794 0.00744253 0 0.000301914 0 0)
(0.232096 0.00729461 0 0.000294499 0 0)
(0.233704 0.00719862 0 0.000288929 0 0)
(0.235581 0.00712124 0 0.000282073 0 0)
(0.237668 0.00700691 0 0.000270312 0 0)
(0.239865 0.00678881 0 0.000251614 0 0)
(0.242019 0.00640164 0 0.000227411 0 0)
(0.243947 0.00578897 0 0.00020283 0 0)
(0.245437 0.00489556 0 0.000185156 0 0)
(0.246241 0.0036239 0 0.000180279 0 0)
(0.245943 0.00172685 0 0.000183148 0 0)
(0.244035 -0.00121558 0 0.000186508 0 0)
(0.239837 -0.00560974 0 0.00023996 0 0)
(0.234698 -0.0124805 0 0.000764744 0 0)
(0.228622 -0.0242918 0 0.00309752 0 0)
(0.222344 -0.0489689 0 0.013498 0 0)
(0.228539 0.00621374 0 0.000176458 0 0)
(0.227912 0.0072855 0 0.000253005 0 0)
(0.228433 0.00726667 0 0.000260447 0 0)
(0.229421 0.00701887 0 0.000249518 0 0)
(0.230738 0.0067386 0 0.000234985 0 0)
(0.232333 0.00648736 0 0.000221317 0 0)
(0.234184 0.00628667 0 0.000209712 0 0)
(0.236245 0.00611912 0 0.000198907 0 0)
(0.238457 0.00594693 0 0.000186917 0 0)
(0.24074 0.00572381 0 0.000172329 0 0)
(0.242981 0.0054025 0 0.000155153 0 0)
(0.245046 0.00493892 0 0.000137029 0 0)
(0.246749 0.00429629 0 0.000120969 0 0)
(0.247886 0.00340287 0 0.000110059 0 0)
(0.248125 0.00209782 0 0.000105781 0 0)
(0.247182 -2.18317e-05 0 0.000104658 0 0)
(0.243493 -0.00334135 0 0.000133242 0 0)
(0.240422 -0.01007 0 0.000486068 0 0)
(0.233155 -0.0213456 0 0.00223903 0 0)
(0.223366 -0.0525034 0 0.0146367 0 0)
(0.227678 0.0100223 0 0.000453793 0 0)
(0.227025 0.00962365 0 0.000431082 0 0)
(0.228076 0.00838727 0 0.000335238 0 0)
(0.22954 0.00730052 0 0.000259067 0 0)
(0.23128 0.00653381 0 0.00021103 0 0)
(0.233323 0.00597501 0 0.000178871 0 0)
(0.235621 0.0055642 0 0.000156514 0 0)
(0.23809 0.00525107 0 0.000139845 0 0)
(0.240661 0.00498503 0 0.000125818 0 0)
(0.243264 0.004724 0 0.000112632 0 0)
(0.245813 0.00443413 0 9.95293e-05 0 0)
(0.24818 0.00408904 0 8.65309e-05 0 0)
(0.250213 0.00365736 0 7.37764e-05 0 0)
(0.251772 0.00308837 0 6.12447e-05 0 0)
(0.252504 0.00229079 0 4.94797e-05 0 0)
(0.252533 0.000870012 0 3.84681e-05 0 0)
(0.249185 -0.00156891 0 5.3151e-05 0 0)
(0.250756 -0.00776081 0 0.000300945 0 0)
(0.236263 -0.017079 0 0.00135648 0 0)
(0.228066 -0.0558801 0 0.0151879 0 0)
(0.226532 0.00373945 0 6.61052e-05 0 0)
(0.225342 0.00228886 0 2.49937e-05 0 0)
(0.229033 0.0023952 0 2.73217e-05 0 0)
(0.233175 0.00305306 0 4.4315e-05 0 0)
(0.237492 0.00323969 0 4.97818e-05 0 0)
(0.241741 0.00316112 0 4.74352e-05 0 0)
(0.245805 0.00305336 0 4.41884e-05 0 0)
(0.249684 0.00296825 0 4.15677e-05 0 0)
(0.253404 0.00288691 0 3.90769e-05 0 0)
(0.25698 0.00279079 0 3.62684e-05 0 0)
(0.260395 0.00267182 0 3.30673e-05 0 0)
(0.263605 0.00252225 0 2.94843e-05 0 0)
(0.266521 0.00233202 0 2.55108e-05 0 0)
(0.269128 0.00205943 0 2.05363e-05 0 0)
(0.270969 0.00167397 0 1.45657e-05 0 0)
(0.272863 0.000858392 0 6.28557e-06 0 0)
(0.269569 -0.000297686 0 8.49296e-06 0 0)
(0.275927 -0.00434484 0 0.000104592 0 0)
(0.240615 -0.00898787 0 0.000389022 0 0)
(0.257371 -0.0519941 0 0.0110242 0 0)
(0.248387 0.0219681 0 0.00195847 0 0)
(0.258359 0.0163992 0 0.00108233 0 0)
(0.270413 0.0103052 0 0.000421817 0 0)
(0.280809 0.00687465 0 0.000186116 0 0)
(0.288857 0.0050709 0 0.00010053 0 0)
(0.295651 0.00401331 0 6.24117e-05 0 0)
(0.301879 0.0033178 0 4.22061e-05 0 0)
(0.307704 0.00282487 0 3.02507e-05 0 0)
(0.313159 0.00245444 0 2.25825e-05 0 0)
(0.318282 0.00216579 0 1.73991e-05 0 0)
(0.3231 0.00193084 0 1.3696e-05 0 0)
(0.327616 0.00173105 0 1.09125e-05 0 0)
(0.33177 0.00155301 0 8.71294e-06 0 0)
(0.335588 0.00138009 0 6.8197e-06 0 0)
(0.338524 0.00118675 0 4.98394e-06 0 0)
(0.341807 0.000910212 0 2.82624e-06 0 0)
(0.33875 0.000566981 0 1.12655e-06 0 0)
(0.351239 -0.000666303 0 4.78115e-06 0 0)
(0.286123 0.00138732 0 3.78002e-05 0 0)
(0.42749 -0.0301305 0 0.00213634 0 0)
)
;

boundaryField
{
    movingWall
    {
        type            calculated;
        value           uniform (0.918367 0 0 0 0 0);
    }
    fixedWalls
    {
        type            calculated;
        value           uniform (0.229592 0 0 0 0 0);
    }
    frontAndBack
    {
        type            empty;
    }
}


// ************************************************************************* //
