/*--------------------------------*- C++ -*----------------------------------*\
| =========                 |                                                 |
| \\      /  F ield         | OpenFOAM: The Open Source CFD Toolbox           |
|  \\    /   O peration     | Version:  2312                                  |
|   \\  /    A nd           | Website:  www.openfoam.com                      |
|    \\/     M anipulation  |                                                 |
\*---------------------------------------------------------------------------*/
FoamFile
{
    version     2.0;
    format      ascii;
    arch        "LSB;label=32;scalar=64";
    class       volScalarField;
    location    "7";
    object      Uy;
}
// * * * * * * * * * * * * * * * * * * * * * * * * * * * * * * * * * * * * * //

dimensions      [0 1 -1 0 0 0 0];

internalField   nonuniform List<scalar> 
400
(
1.77539e-13
-3.81355e-14
9.051e-15
-1.91993e-15
4.77465e-16
-4.51134e-17
1.11868e-16
9.63144e-17
1.03649e-16
5.16726e-17
5.98786e-17
7.3508e-17
1.33563e-16
1.97514e-16
1.18578e-16
-5.88508e-17
-4.14959e-17
-4.26541e-17
-6.31672e-18
4.5465e-17
-4.00442e-15
1.32002e-15
-6.62773e-17
2.04525e-16
8.95247e-17
1.06993e-16
1.39216e-16
4.75665e-17
-4.86786e-17
-5.89656e-17
-1.84196e-17
-5.31009e-17
7.98549e-18
1.65397e-16
1.79846e-16
1.28963e-17
-8.07617e-18
-3.35362e-17
-3.94095e-17
2.09577e-17
-1.44099e-13
3.18223e-14
-7.18956e-15
1.76925e-15
-3.37201e-16
4.05352e-17
-1.10236e-16
-1.1334e-16
-9.77303e-18
1.77809e-16
1.82654e-16
-8.73657e-17
-1.75853e-16
-1.16212e-16
-1.14596e-16
-1.42566e-16
-2.81037e-17
8.91871e-17
3.42586e-17
1.22109e-17
1.38574e-13
-2.97075e-14
7.13692e-15
-1.56753e-15
2.9565e-16
-7.3397e-17
-9.17145e-18
2.13454e-17
9.24523e-17
1.65783e-16
1.60592e-16
7.12429e-17
3.34536e-17
-1.33375e-17
-1.21456e-16
-1.54481e-16
-1.37266e-16
-6.09177e-17
6.60226e-17
7.15667e-17
-3.93881e-14
8.42651e-15
-1.94042e-15
3.94177e-16
-7.22725e-17
9.05458e-17
1.96294e-16
2.59484e-16
1.00411e-16
-6.10397e-17
-8.16959e-17
4.21481e-17
1.56442e-16
1.27105e-16
4.61907e-17
8.74051e-17
-5.45654e-17
-1.29346e-16
-2.14842e-17
6.60307e-17
-8.97947e-14
1.95227e-14
-4.53636e-15
1.11656e-15
-1.68019e-16
7.35647e-17
4.84528e-17
1.37915e-16
1.19325e-16
7.77733e-17
1.49452e-17
-4.35764e-17
-4.03224e-17
-1.86118e-17
2.94899e-17
4.77507e-17
5.69284e-17
7.44951e-17
6.2412e-20
5.99417e-17
1.51784e-13
-3.29722e-14
7.77649e-15
-1.62168e-15
4.70599e-16
6.7857e-17
1.75693e-16
7.80904e-17
5.56126e-17
1.65208e-16
1.22199e-16
6.8337e-17
3.57446e-17
4.08835e-17
9.14423e-17
3.44051e-17
3.40578e-17
9.5958e-17
6.71467e-17
2.56956e-17
-6.74331e-14
1.45537e-14
-3.13835e-15
9.05067e-16
-5.02825e-17
8.4367e-17
7.3122e-17
6.53849e-17
3.97091e-17
-2.28472e-17
-1.07013e-17
8.09568e-17
8.23423e-17
-9.21533e-18
-9.19263e-17
-9.06966e-17
-1.19802e-17
4.1918e-17
7.96466e-17
-3.93324e-18
-5.47882e-14
1.22078e-14
-2.70929e-15
8.26978e-16
-3.2694e-18
3.71336e-17
-1.92972e-16
-2.25914e-16
-1.70261e-16
-1.92108e-16
-1.35681e-16
4.2475e-17
4.08974e-17
-9.64769e-17
-1.41674e-16
1.62152e-17
1.17597e-16
3.44495e-17
-6.6696e-18
-5.59016e-17
1.03974e-13
-2.23633e-14
5.47245e-15
-1.04932e-15
5.16189e-16
1.49224e-16
9.63604e-17
-6.78472e-18
-5.18906e-18
9.88717e-17
5.69979e-17
3.71136e-18
-2.98913e-17
-5.59062e-17
-8.57849e-17
-3.25175e-17
3.72649e-17
2.49696e-17
-1.01364e-17
-5.99199e-17
-1.03137e-13
2.29326e-14
-5.18034e-15
1.13953e-15
-2.87799e-16
5.96867e-17
4.22466e-17
8.84588e-17
5.65846e-17
2.57757e-17
-3.98835e-17
-2.18107e-16
-2.46005e-16
-2.12647e-17
9.25391e-17
-3.93575e-17
-6.68432e-17
-3.47242e-17
3.08336e-17
2.83927e-18
9.82736e-14
-2.12138e-14
4.9245e-15
-1.24155e-15
3.94394e-17
-1.19715e-16
1.22946e-16
1.15913e-16
4.19827e-17
-5.12936e-17
2.55276e-17
1.9357e-17
-7.17789e-18
5.04808e-17
1.35864e-16
9.04658e-17
2.68772e-17
-1.86167e-17
1.4916e-17
1.23742e-17
-4.32291e-14
9.38017e-15
-2.07486e-15
5.19492e-16
-9.40307e-17
4.27793e-17
-1.24628e-17
1.37018e-17
5.82902e-17
7.50219e-18
7.26274e-17
2.46533e-16
2.47357e-16
2.5719e-17
-8.04842e-17
-8.21776e-17
-1.30468e-16
-5.94814e-17
-2.56838e-17
-4.33267e-17
-7.48059e-14
1.68244e-14
-3.84473e-15
9.80706e-16
-1.39961e-16
6.64398e-17
-2.07454e-16
-1.70553e-16
6.20225e-17
1.50024e-16
1.56405e-16
6.91657e-17
7.26639e-18
-4.73675e-17
-6.74177e-17
-6.40216e-18
1.30541e-17
-1.41381e-17
-7.23434e-17
-1.13078e-16
1.62743e-13
-3.53621e-14
8.23721e-15
-1.92773e-15
3.0855e-16
-1.52391e-16
-1.25065e-17
5.32575e-17
1.45772e-16
1.84866e-16
2.02698e-17
-1.66582e-16
-1.27841e-16
-3.78819e-17
-1.21663e-17
6.14371e-17
1.10396e-16
5.55104e-17
-1.27524e-17
-4.53178e-17
-1.15309e-13
2.47181e-14
-5.73739e-15
1.39983e-15
-1.9737e-16
2.95171e-17
-9.07328e-17
-2.18768e-16
-2.67959e-16
-6.323e-17
-7.76299e-18
1.27576e-16
8.48452e-17
4.09714e-18
-2.66704e-17
1.28821e-17
-9.69883e-17
-1.46177e-16
-6.90562e-17
-9.56807e-18
-1.93574e-14
4.4047e-15
-9.28587e-16
3.79315e-16
4.81587e-17
5.54362e-17
1.29206e-17
-1.84795e-16
-3.1275e-16
-2.35856e-16
-9.82598e-17
-3.81962e-17
7.69174e-18
4.65298e-17
9.3237e-17
5.91009e-17
-3.53177e-17
-2.10601e-16
-1.43327e-16
-3.00785e-17
1.26264e-13
-2.72987e-14
6.35862e-15
-1.55096e-15
1.96181e-16
-1.35871e-16
5.16993e-17
9.85467e-17
4.0444e-17
-9.97612e-17
-1.59008e-16
-1.2865e-16
3.88879e-17
1.76103e-16
1.11811e-16
-7.92777e-17
-9.30438e-17
-5.34291e-17
-5.02399e-17
-1.44739e-17
-5.57248e-14
1.16962e-14
-2.77142e-15
4.91155e-16
-2.03115e-16
-6.93937e-18
-1.81562e-17
-5.7951e-17
-5.17706e-17
-2.63984e-17
2.1878e-17
-3.37498e-18
-7.14654e-17
-1.22852e-17
-1.46398e-17
-1.11034e-16
-1.67784e-16
-1.71155e-17
-5.12685e-17
-5.09189e-17
-8.35051e-14
1.80464e-14
-4.28833e-15
8.50161e-16
-2.70556e-16
1.20479e-17
-2.93302e-17
-8.1025e-17
-9.52214e-17
-9.562e-17
-9.07448e-17
-1.84108e-16
-1.74165e-16
-9.53334e-17
1.55319e-17
2.26367e-17
-5.06775e-17
-3.37979e-17
-5.54863e-17
-3.76425e-17
)
;

boundaryField
{
    movingWall
    {
        type            calculated;
        value           uniform -0;
    }
    fixedWalls
    {
        type            calculated;
        value           uniform -0;
    }
    frontAndBack
    {
        type            empty;
    }
}


// ************************************************************************* //
