/*--------------------------------*- C++ -*----------------------------------*\
| =========                 |                                                 |
| \\      /  F ield         | OpenFOAM: The Open Source CFD Toolbox           |
|  \\    /   O peration     | Version:  2312                                  |
|   \\  /    A nd           | Website:  www.openfoam.com                      |
|    \\/     M anipulation  |                                                 |
\*---------------------------------------------------------------------------*/
FoamFile
{
    version     2.0;
    format      ascii;
    arch        "LSB;label=32;scalar=64";
    class       volVectorField;
    location    "7";
    object      vorticityField;
}
// * * * * * * * * * * * * * * * * * * * * * * * * * * * * * * * * * * * * * //

dimensions      [0 0 -1 0 0 0 0];

internalField   nonuniform List<vector> 
400
(
(0 -0 1.28832e-11)
(0 -0 -1.65235e-11)
(0 -0 3.67577e-12)
(0 -0 -8.30248e-13)
(0 -0 1.60376e-13)
(0 -0 -3.65597e-14)
(0 -0 -1.29623e-14)
(0 -0 -8.21819e-16)
(0 -0 -4.46419e-15)
(0 -0 4.9833e-14)
(0 -0 5.63937e-14)
(0 -0 6.15785e-14)
(0 -0 6.66107e-14)
(0 -0 -1.49846e-15)
(0 -0 2.85736e-14)
(0 -0 -1.60074e-14)
(0 -0 -2.54854e-14)
(0 -0 -2.35871e-14)
(0 -0 8.81191e-15)
(0 -0 -3.91483e-15)
(0 -0 -8.37647e-13)
(0 -0 6.64865e-13)
(0 -0 -8.4444e-14)
(0 -0 9.68954e-14)
(0 -0 1.25772e-13)
(0 -0 8.62843e-14)
(0 -0 1.02478e-13)
(0 -0 3.54206e-14)
(0 -0 -1.06532e-14)
(0 -0 3.0259e-15)
(0 -0 2.76915e-14)
(0 -0 8.39557e-14)
(0 -0 4.89549e-14)
(0 -0 9.85012e-14)
(0 -0 -1.52501e-14)
(0 -0 3.54179e-14)
(0 -0 2.24618e-14)
(0 -0 -3.13334e-15)
(0 -0 5.44939e-15)
(0 -0 -2.52599e-14)
(0 -0 -6.59267e-12)
(0 -0 1.22814e-11)
(0 -0 -3.03241e-12)
(0 -0 5.22605e-13)
(0 -0 -3.35502e-13)
(0 -0 -1.12829e-13)
(0 -0 -1.23808e-13)
(0 -0 -7.12689e-14)
(0 -0 2.00986e-15)
(0 -0 1.92427e-14)
(0 -0 -1.07833e-13)
(0 -0 -1.71376e-13)
(0 -0 -8.41998e-14)
(0 -0 -2.09794e-14)
(0 -0 -2.63541e-15)
(0 -0 8.64925e-15)
(0 -0 7.73854e-14)
(0 -0 3.33413e-14)
(0 -0 -7.69762e-15)
(0 -0 -4.64695e-15)
(0 -0 7.25455e-12)
(0 -0 -1.21137e-11)
(0 -0 2.70558e-12)
(0 -0 -7.38337e-13)
(0 -0 6.80984e-14)
(0 -0 -8.46922e-14)
(0 -0 -1.76308e-14)
(0 -0 -1.69427e-14)
(0 -0 1.44437e-14)
(0 -0 -4.73961e-14)
(0 -0 -6.36641e-14)
(0 -0 -6.6924e-14)
(0 -0 -6.26681e-14)
(0 -0 -9.68062e-14)
(0 -0 -9.54295e-14)
(0 -0 -5.57911e-14)
(0 -0 -4.48538e-14)
(0 -0 2.03289e-14)
(0 -0 6.74586e-14)
(0 -0 -1.37589e-14)
(0 -0 -3.06906e-12)
(0 -0 3.63635e-12)
(0 -0 -8.57444e-13)
(0 -0 1.86815e-13)
(0 -0 2.3847e-14)
(0 -0 8.10667e-14)
(0 -0 4.39989e-14)
(0 -0 -9.58825e-15)
(0 -0 -5.91574e-14)
(0 -0 -7.24208e-14)
(0 -0 1.03188e-14)
(0 -0 2.38138e-14)
(0 -0 6.27058e-14)
(0 -0 -3.81302e-14)
(0 -0 -3.10751e-14)
(0 -0 -6.42857e-14)
(0 -0 -7.58852e-14)
(0 -0 3.30811e-15)
(0 -0 -3.46725e-14)
(0 -0 2.26504e-14)
(0 -0 -4.47932e-12)
(0 -0 7.84821e-12)
(0 -0 -1.7593e-12)
(0 -0 4.63939e-13)
(0 -0 -5.00891e-14)
(0 -0 2.16472e-14)
(0 -0 -2.067e-14)
(0 -0 6.12973e-14)
(0 -0 -6.01421e-15)
(0 -0 -1.04379e-14)
(0 -0 -1.2135e-14)
(0 -0 -5.52676e-15)
(0 -0 2.49646e-15)
(0 -0 6.98123e-15)
(0 -0 6.63625e-15)
(0 -0 2.98489e-14)
(0 -0 2.67444e-15)
(0 -0 -5.6866e-15)
(0 -0 -1.45534e-15)
(0 -0 -6.00041e-15)
(0 -0 8.38458e-12)
(0 -0 -1.32623e-11)
(0 -0 3.21637e-12)
(0 -0 -5.95064e-13)
(0 -0 3.04479e-13)
(0 -0 1.06035e-13)
(0 -0 1.90759e-13)
(0 -0 4.22021e-14)
(0 -0 1.17132e-13)
(0 -0 1.15079e-13)
(0 -0 4.4523e-14)
(0 -0 1.84596e-14)
(0 -0 5.14648e-14)
(0 -0 1.1399e-13)
(0 -0 5.35623e-14)
(0 -0 2.13666e-14)
(0 -0 6.03654e-14)
(0 -0 5.7519e-14)
(0 -0 -7.02624e-15)
(0 -0 -9.28423e-15)
(0 -0 -4.80005e-12)
(0 -0 6.18553e-12)
(0 -0 -1.44618e-12)
(0 -0 3.08807e-13)
(0 -0 -1.63385e-13)
(0 -0 1.23404e-14)
(0 -0 -5.61083e-14)
(0 -0 -3.34128e-15)
(0 -0 -8.82322e-15)
(0 -0 -5.92512e-14)
(0 -0 1.03804e-14)
(0 -0 9.30436e-15)
(0 -0 -6.32273e-14)
(0 -0 -1.74269e-14)
(0 -0 -8.14813e-15)
(0 -0 -1.91104e-14)
(0 -0 1.32615e-14)
(0 -0 -4.50474e-14)
(0 -0 -4.58512e-15)
(0 -0 -7.57134e-15)
(0 -0 -2.22516e-12)
(0 -0 4.53027e-12)
(0 -0 -1.16519e-12)
(0 -0 8.08665e-14)
(0 -0 -2.6872e-13)
(0 -0 -1.81601e-13)
(0 -0 -1.6183e-13)
(0 -0 -1.33254e-13)
(0 -0 -7.79346e-14)
(0 -0 -5.07521e-14)
(0 -0 7.76684e-14)
(0 -0 4.47629e-14)
(0 -0 -1.38952e-14)
(0 -0 -1.26677e-13)
(0 -0 1.12692e-14)
(0 -0 5.30321e-14)
(0 -0 1.82342e-15)
(0 -0 -3.95317e-14)
(0 -0 -9.03511e-15)
(0 -0 -2.08479e-14)
(0 -0 7.86287e-12)
(0 -0 -9.49774e-12)
(0 -0 2.26692e-12)
(0 -0 -3.87206e-13)
(0 -0 2.28275e-13)
(0 -0 -1.48778e-14)
(0 -0 1.15042e-14)
(0 -0 1.69501e-14)
(0 -0 3.76707e-14)
(0 -0 6.04288e-14)
(0 -0 -9.51604e-15)
(0 -0 -8.68892e-15)
(0 -0 -3.30668e-14)
(0 -0 -5.58936e-15)
(0 -0 -2.47662e-14)
(0 -0 1.2305e-14)
(0 -0 5.74871e-15)
(0 -0 2.23649e-14)
(0 -0 -8.48895e-15)
(0 -0 7.00563e-15)
(0 -0 -9.0775e-12)
(0 -0 9.82274e-12)
(0 -0 -2.31483e-12)
(0 -0 4.89254e-13)
(0 -0 -1.07984e-13)
(0 -0 3.30045e-14)
(0 -0 -2.42278e-14)
(0 -0 1.4338e-15)
(0 -0 -6.04784e-14)
(0 -0 -6.38569e-14)
(0 -0 -1.32809e-13)
(0 -0 -7.48223e-14)
(0 -0 1.96843e-14)
(0 -0 8.80645e-14)
(0 -0 2.52958e-14)
(0 -0 -1.59382e-14)
(0 -0 4.63327e-16)
(0 -0 9.76769e-15)
(0 -0 -2.33487e-14)
(0 -0 2.37378e-14)
(0 -0 7.38072e-12)
(0 -0 -9.14518e-12)
(0 -0 2.05144e-12)
(0 -0 -5.15611e-13)
(0 -0 1.12184e-13)
(0 -0 6.25607e-14)
(0 -0 7.77729e-14)
(0 -0 1.90088e-14)
(0 -0 -1.67207e-14)
(0 -0 2.54595e-14)
(0 -0 6.12752e-14)
(0 -0 5.09396e-14)
(0 -0 8.44275e-14)
(0 -0 9.56194e-14)
(0 -0 8.53137e-14)
(0 -0 4.33114e-14)
(0 -0 4.33019e-14)
(0 -0 -2.83012e-14)
(0 -0 3.02041e-14)
(0 -0 -2.72902e-15)
(0 -0 -1.92122e-12)
(0 -0 3.81727e-12)
(0 -0 -8.31857e-13)
(0 -0 2.25188e-13)
(0 -0 3.36438e-14)
(0 -0 6.23669e-14)
(0 -0 -2.90775e-15)
(0 -0 8.83905e-14)
(0 -0 5.35901e-14)
(0 -0 8.27489e-14)
(0 -0 1.05218e-13)
(0 -0 7.1683e-14)
(0 -0 -7.62915e-14)
(0 -0 -1.14099e-13)
(0 -0 -3.78947e-14)
(0 -0 -8.63136e-14)
(0 -0 2.26962e-15)
(0 -0 3.75835e-14)
(0 -0 1.61547e-15)
(0 -0 6.90105e-15)
(0 -0 -4.60553e-12)
(0 -0 6.77086e-12)
(0 -0 -1.50305e-12)
(0 -0 3.70477e-13)
(0 -0 -6.43216e-14)
(0 -0 -6.74932e-15)
(0 -0 -2.36992e-14)
(0 -0 5.40527e-14)
(0 -0 1.13373e-13)
(0 -0 9.43822e-15)
(0 -0 -3.51909e-14)
(0 -0 -1.49138e-14)
(0 -0 -3.87584e-14)
(0 -0 -3.45735e-14)
(0 -0 -5.01136e-14)
(0 -0 8.04718e-15)
(0 -0 -8.20888e-14)
(0 -0 -8.53975e-15)
(0 -0 -3.6999e-14)
(0 -0 1.85421e-14)
(0 -0 9.32289e-12)
(0 -0 -1.44748e-11)
(0 -0 3.34344e-12)
(0 -0 -7.1155e-13)
(0 -0 2.31744e-13)
(0 -0 -5.00063e-15)
(0 -0 1.5609e-13)
(0 -0 1.24248e-13)
(0 -0 6.7371e-14)
(0 -0 1.45548e-14)
(0 -0 -8.93549e-14)
(0 -0 -6.90212e-14)
(0 -0 1.2129e-13)
(0 -0 9.28826e-14)
(0 -0 9.12471e-14)
(0 -0 1.20676e-13)
(0 -0 2.65124e-14)
(0 -0 4.18953e-14)
(0 -0 1.70222e-14)
(0 -0 5.80702e-15)
(0 -0 -7.32438e-12)
(0 -0 1.03609e-11)
(0 -0 -2.41314e-12)
(0 -0 4.72687e-13)
(0 -0 -1.91241e-13)
(0 -0 1.06637e-14)
(0 -0 -1.06144e-13)
(0 -0 -1.26143e-13)
(0 -0 -3.86563e-14)
(0 -0 2.60196e-14)
(0 -0 1.90806e-14)
(0 -0 6.34709e-14)
(0 -0 -9.3663e-14)
(0 -0 -9.24667e-14)
(0 -0 -2.62266e-14)
(0 -0 -3.41368e-14)
(0 -0 -1.59059e-14)
(0 -0 2.79321e-15)
(0 -0 1.36609e-14)
(0 -0 -1.92426e-14)
(0 -0 1.51339e-12)
(0 -0 1.08394e-12)
(0 -0 -2.67013e-13)
(0 -0 4.34644e-14)
(0 -0 -1.40808e-13)
(0 -0 -1.11944e-13)
(0 -0 -1.32443e-13)
(0 -0 -1.68092e-13)
(0 -0 -8.64212e-14)
(0 -0 -5.65599e-15)
(0 -0 1.9766e-14)
(0 -0 -4.3615e-14)
(0 -0 8.47259e-15)
(0 -0 8.55452e-15)
(0 -0 -5.2953e-14)
(0 -0 -6.70656e-14)
(0 -0 -2.69702e-14)
(0 -0 -9.21161e-14)
(0 -0 1.80522e-14)
(0 -0 1.73405e-14)
(0 -0 3.6895e-12)
(0 -0 -1.04185e-11)
(0 -0 2.33083e-12)
(0 -0 -5.07824e-13)
(0 -0 1.68614e-13)
(0 -0 1.26569e-14)
(0 -0 1.31862e-13)
(0 -0 5.30846e-14)
(0 -0 -1.98308e-14)
(0 -0 -7.41553e-14)
(0 -0 -2.88888e-15)
(0 -0 -7.31545e-15)
(0 -0 8.46855e-14)
(0 -0 3.43974e-14)
(0 -0 -2.55381e-14)
(0 -0 -2.04855e-14)
(0 -0 2.58486e-15)
(0 -0 4.28039e-15)
(0 -0 3.89553e-15)
(0 -0 3.35764e-14)
(0 -0 -3.37287e-12)
(0 -0 4.94297e-12)
(0 -0 -1.22892e-12)
(0 -0 1.75516e-13)
(0 -0 -7.69145e-14)
(0 -0 -8.60921e-15)
(0 -0 -8.64163e-14)
(0 -0 -5.75715e-14)
(0 -0 -5.10549e-14)
(0 -0 -1.97402e-14)
(0 -0 -2.48027e-14)
(0 -0 -3.64394e-14)
(0 -0 -5.51011e-14)
(0 -0 -2.14225e-14)
(0 -0 -3.698e-14)
(0 -0 -6.95245e-14)
(0 -0 -1.77132e-14)
(0 -0 3.87566e-14)
(0 -0 -3.38033e-15)
(0 -0 -1.68863e-14)
(0 -0 -4.64852e-12)
(0 -0 7.5151e-12)
(0 -0 -1.55699e-12)
(0 -0 4.28883e-13)
(0 -0 -5.67062e-14)
(0 -0 5.12276e-14)
(0 -0 1.77978e-14)
(0 -0 4.7621e-14)
(0 -0 5.27506e-14)
(0 -0 2.75527e-14)
(0 -0 1.82562e-14)
(0 -0 4.58681e-14)
(0 -0 8.87749e-15)
(0 -0 4.60747e-14)
(0 -0 3.89021e-14)
(0 -0 4.75892e-14)
(0 -0 2.14616e-14)
(0 -0 -4.8088e-16)
(0 -0 -3.84465e-16)
(0 -0 3.64179e-14)
)
;

boundaryField
{
    movingWall
    {
        type            calculated;
        value           nonuniform List<vector> 
20
(
(0 -0 -1.28519e-11)
(0 -0 9.74244e-12)
(0 -0 -1.49758e-12)
(0 -0 7.57049e-13)
(0 -0 1.82642e-13)
(0 -0 2.90576e-13)
(0 -0 3.01555e-13)
(0 -0 3.04273e-13)
(0 -0 2.64994e-13)
(0 -0 1.78083e-13)
(0 -0 2.13196e-13)
(0 -0 2.13703e-13)
(0 -0 9.76953e-14)
(0 -0 1.07788e-13)
(0 -0 1.1797e-14)
(0 -0 8.21969e-14)
(0 -0 3.87655e-14)
(0 -0 -4.8088e-16)
(0 -0 -3.84465e-16)
(0 -0 5.37218e-14)
)
;
    }
    fixedWalls
    {
        type            calculated;
        value           nonuniform List<vector> 
60
(
(0 -0 6.99584e-11)
(0 -0 -2.17098e-12)
(0 -0 -5.30045e-11)
(0 -0 5.17974e-11)
(0 -0 -1.57282e-11)
(0 -0 -3.337e-11)
(0 -0 5.72169e-11)
(0 -0 -2.64854e-11)
(0 -0 -1.98824e-11)
(0 -0 4.12913e-11)
(0 -0 -4.23118e-11)
(0 -0 3.89842e-11)
(0 -0 -1.5828e-11)
(0 -0 -2.87297e-11)
(0 -0 6.16821e-11)
(0 -0 -4.43889e-11)
(0 -0 -4.73431e-12)
(0 -0 4.42986e-11)
(0 -0 -2.12599e-11)
(0 -0 -3.15047e-11)
(0 -0 -1.8186e-14)
(0 -0 -3.54881e-14)
(0 -0 -4.88435e-15)
(0 -0 -2.86267e-14)
(0 -0 6.92783e-16)
(0 -0 -2.39767e-14)
(0 -0 -1.02782e-14)
(0 -0 1.5733e-15)
(0 -0 -4.74441e-15)
(0 -0 2.39679e-14)
(0 -0 2.59693e-14)
(0 -0 -4.94968e-15)
(0 -0 1.73307e-14)
(0 -0 4.52311e-14)
(0 -0 1.81271e-14)
(0 -0 -2.32778e-14)
(0 -0 1.20314e-14)
(0 -0 3.28946e-14)
(0 -0 -6.73751e-15)
(0 -0 4.21621e-14)
(0 -0 2.06017e-11)
(0 -0 -1.92469e-11)
(0 -0 3.48833e-12)
(0 -0 -1.21262e-12)
(0 -0 -1.23381e-13)
(0 -0 -3.03013e-13)
(0 -0 -2.9672e-13)
(0 -0 -1.78458e-13)
(0 -0 -1.821e-13)
(0 -0 -1.37604e-13)
(0 -0 -1.31043e-13)
(0 -0 -3.70405e-14)
(0 -0 -1.20826e-13)
(0 -0 -1.79134e-13)
(0 -0 6.31814e-14)
(0 -0 7.28104e-14)
(0 -0 -4.27892e-14)
(0 -0 3.51791e-15)
(0 -0 -3.5597e-14)
(0 -0 -3.91483e-15)
)
;
    }
    frontAndBack
    {
        type            empty;
    }
}


// ************************************************************************* //
