/*--------------------------------*- C++ -*----------------------------------*\
| =========                 |                                                 |
| \\      /  F ield         | OpenFOAM: The Open Source CFD Toolbox           |
|  \\    /   O peration     | Version:  2312                                  |
|   \\  /    A nd           | Website:  www.openfoam.com                      |
|    \\/     M anipulation  |                                                 |
\*---------------------------------------------------------------------------*/
FoamFile
{
    version     2.0;
    format      ascii;
    arch        "LSB;label=32;scalar=64";
    class       volVectorField;
    location    "7";
    object      wallShearStress;
}
// * * * * * * * * * * * * * * * * * * * * * * * * * * * * * * * * * * * * * //

dimensions      [0 2 -2 0 0 0 0];

internalField   uniform (0 0 0);

boundaryField
{
    movingWall
    {
        type            calculated;
        value           uniform (0 0 0);
    }
    fixedWalls
    {
        type            calculated;
        value           nonuniform List<vector> 
60
(
(2.04507e-16 -7.20726e-16 0)
(-3.58902e-16 1.03256e-17 0)
(1.5308e-16 6.22744e-16 0)
(1.71651e-16 -5.90616e-16 0)
(-2.87249e-16 1.57824e-16 0)
(2.30476e-16 3.84658e-16 0)
(1.6092e-17 -6.421e-16 0)
(-2.20611e-16 2.74611e-16 0)
(1.40324e-16 2.39482e-16 0)
(-6.17907e-18 -4.18876e-16 0)
(4.48972e-18 4.01976e-16 0)
(1.09245e-17 -3.96347e-16 0)
(-1.2486e-16 1.87553e-16 0)
(1.87053e-16 3.1115e-16 0)
(2.62886e-17 -6.85126e-16 0)
(-2.52851e-16 4.78584e-16 0)
(3.0671e-16 1.07516e-16 0)
(4.17679e-18 -5.67127e-16 0)
(-3.24587e-16 2.33199e-16 0)
(1.76901e-16 3.52994e-16 0)
(-4.42818e-20 -1.8186e-19 0)
(2.21694e-20 1.8722e-19 0)
(-6.25858e-19 -4.88435e-20 0)
(-6.27999e-19 -2.86267e-19 0)
(-5.84369e-19 -5.35173e-19 0)
(2.68901e-20 -2.39767e-19 0)
(4.25833e-20 -1.02782e-19 0)
(5.43981e-20 1.5733e-20 0)
(-5.54795e-19 4.94657e-19 0)
(-6.3128e-19 2.39679e-19 0)
(-4.8196e-20 -2.82408e-19 0)
(3.07773e-20 -4.94968e-20 0)
(1.26787e-18 1.73307e-19 0)
(1.32739e-21 4.52311e-19 0)
(-6.61125e-19 1.81271e-19 0)
(-1.01595e-20 3.09323e-19 0)
(-1.18097e-18 1.20314e-19 0)
(1.38936e-20 -2.13155e-19 0)
(1.54458e-20 4.74726e-19 0)
(-6.5116e-19 -1.2048e-19 0)
(-7.27899e-17 -9.53921e-16 0)
(1.44507e-16 2.14773e-16 0)
(-3.75478e-17 -5.17053e-17 0)
(5.02082e-18 1.0601e-17 0)
(-4.98344e-18 -2.90788e-18 0)
(-2.29894e-18 2.40605e-19 0)
(-3.25005e-18 -7.77327e-19 0)
(-1.76814e-18 -6.94377e-19 0)
(-1.73171e-18 -5.52797e-19 0)
(-1.2885e-18 -4.56287e-19 0)
(-1.3541e-18 -3.19352e-19 0)
(-5.17774e-19 -3.92043e-19 0)
(-1.45627e-18 -5.31635e-19 0)
(-1.76137e-18 -1.41481e-18 0)
(1.14454e-18 -1.17452e-18 0)
(1.04825e-18 6.75272e-19 0)
(-4.60286e-19 4.02012e-19 0)
(-3.51791e-20 4.67881e-20 0)
(-5.32208e-19 3.36892e-20 0)
(3.91483e-20 -2.4248e-19 0)
)
;
    }
    frontAndBack
    {
        type            empty;
    }
}


// ************************************************************************* //
