/*--------------------------------*- C++ -*----------------------------------*\
| =========                 |                                                 |
| \\      /  F ield         | OpenFOAM: The Open Source CFD Toolbox           |
|  \\    /   O peration     | Version:  2312                                  |
|   \\  /    A nd           | Website:  www.openfoam.com                      |
|    \\/     M anipulation  |                                                 |
\*---------------------------------------------------------------------------*/
FoamFile
{
    version     2.0;
    format      ascii;
    arch        "LSB;label=32;scalar=64";
    class       volScalarField;
    location    "7";
    object      yPlus;
}
// * * * * * * * * * * * * * * * * * * * * * * * * * * * * * * * * * * * * * //

dimensions      [0 0 0 0 0 0 0];

internalField   uniform 0;

boundaryField
{
    movingWall
    {
        type            calculated;
        value           nonuniform List<scalar> 
20
(
4.60924e-06
2.15706e-06
1.03972e-06
5.54411e-07
4.23964e-07
4.08118e-07
4.40939e-07
4.41975e-07
4.10154e-07
3.36997e-07
3.74993e-07
3.82376e-07
2.65613e-07
2.45787e-07
6.23134e-08
2.36218e-07
1.74672e-07
9.1921e-08
1.17778e-07
1.71194e-07
)
;
    }
    fixedWalls
    {
        type            calculated;
        value           nonuniform List<scalar> 
60
(
6.67679e-06
2.61648e-06
6.01059e-06
5.91361e-06
3.42128e-06
4.7919e-06
6.16003e-06
4.15936e-06
3.70829e-06
5.10118e-06
5.0781e-06
4.96045e-06
3.28883e-06
4.34123e-06
6.38455e-06
5.42941e-06
2.89291e-06
5.62087e-06
4.0501e-06
4.60924e-06
1.06613e-07
7.23839e-08
1.67102e-07
1.81721e-07
1.79704e-07
1.22415e-07
8.01492e-08
3.13578e-08
1.76282e-07
1.77595e-07
2.66424e-08
5.56197e-08
2.37819e-07
1.68135e-07
1.73144e-07
4.89083e-08
2.36682e-07
6.01537e-08
1.12826e-07
1.71194e-07
6.67679e-06
3.1066e-06
1.50475e-06
7.27223e-07
4.77522e-07
4.08552e-07
4.43048e-07
3.37051e-07
3.37648e-07
2.90281e-07
2.90864e-07
1.8245e-07
2.9952e-07
3.4858e-07
2.5086e-07
2.39641e-07
1.72136e-07
1.03264e-07
1.66735e-07
1.06613e-07
)
;
    }
    frontAndBack
    {
        type            empty;
    }
}


// ************************************************************************* //
