/*--------------------------------*- C++ -*----------------------------------*\
| =========                 |                                                 |
| \\      /  F ield         | OpenFOAM: The Open Source CFD Toolbox           |
|  \\    /   O peration     | Version:  2312                                  |
|   \\  /    A nd           | Website:  www.openfoam.com                      |
|    \\/     M anipulation  |                                                 |
\*---------------------------------------------------------------------------*/
FoamFile
{
    version     2.0;
    format      ascii;
    arch        "LSB;label=32;scalar=64";
    class       volVectorField;
    location    "5.375";
    object      diffU;
}
// * * * * * * * * * * * * * * * * * * * * * * * * * * * * * * * * * * * * * //

dimensions      [0 1 -1 0 0 0 0];

internalField   nonuniform List<vector> 
400
(
(0 0 0)
(5.32907e-15 -7.59759e-14 0)
(4.44089e-15 -6.04888e-14 0)
(3.88578e-15 -6.3993e-14 0)
(3.77476e-15 -6.34706e-14 0)
(4.10783e-15 -6.36722e-14 0)
(4.32987e-15 -6.36326e-14 0)
(4.10783e-15 -6.3553e-14 0)
(4.10783e-15 -6.3451e-14 0)
(3.9968e-15 -6.34259e-14 0)
(3.66374e-15 -6.34702e-14 0)
(3.88578e-15 -6.34969e-14 0)
(3.77476e-15 -6.34006e-14 0)
(3.66374e-15 -6.34253e-14 0)
(3.33067e-15 -6.3497e-14 0)
(3.33067e-15 -6.35629e-14 0)
(3.10862e-15 -6.36029e-14 0)
(3.10862e-15 -6.36568e-14 0)
(3.44169e-15 -6.35583e-14 0)
(3.33067e-15 -6.35243e-14 0)
(1.5099e-14 -1.69658e-14 0)
(-8.88178e-16 -7.36763e-14 0)
(2.44249e-15 -6.1251e-14 0)
(3.10862e-15 -6.40163e-14 0)
(3.10862e-15 -6.35805e-14 0)
(3.10862e-15 -6.37211e-14 0)
(2.66454e-15 -6.36115e-14 0)
(2.66454e-15 -6.35368e-14 0)
(2.88658e-15 -6.33617e-14 0)
(2.88658e-15 -6.32757e-14 0)
(2.66454e-15 -6.34236e-14 0)
(2.66454e-15 -6.35377e-14 0)
(2.66454e-15 -6.35284e-14 0)
(3.10862e-15 -6.35452e-14 0)
(3.33067e-15 -6.34938e-14 0)
(3.55271e-15 -6.34156e-14 0)
(3.66374e-15 -6.34498e-14 0)
(3.44169e-15 -6.3619e-14 0)
(3.10862e-15 -6.35423e-14 0)
(3.10862e-15 -6.35348e-14 0)
(-7.54952e-15 -1.77938e-13 0)
(5.55112e-15 -3.94835e-14 0)
(2.22045e-15 -6.93179e-14 0)
(2.66454e-15 -6.23632e-14 0)
(2.66454e-15 -6.38171e-14 0)
(2.66454e-15 -6.34647e-14 0)
(2.66454e-15 -6.33945e-14 0)
(2.44249e-15 -6.34898e-14 0)
(2.88658e-15 -6.35735e-14 0)
(2.88658e-15 -6.34798e-14 0)
(2.88658e-15 -6.35262e-14 0)
(2.88658e-15 -6.35616e-14 0)
(2.88658e-15 -6.36817e-14 0)
(2.88658e-15 -6.37396e-14 0)
(2.66454e-15 -6.36348e-14 0)
(3.10862e-15 -6.35415e-14 0)
(3.10862e-15 -6.35401e-14 0)
(3.33067e-15 -6.35521e-14 0)
(3.10862e-15 -6.35997e-14 0)
(3.10862e-15 -6.36516e-14 0)
(4.44089e-15 1.06963e-14 0)
(3.44169e-15 -7.9737e-14 0)
(3.77476e-15 -5.9856e-14 0)
(2.88658e-15 -6.44006e-14 0)
(3.33067e-15 -6.34274e-14 0)
(2.88658e-15 -6.37356e-14 0)
(3.10862e-15 -6.36791e-14 0)
(3.55271e-15 -6.36756e-14 0)
(3.77476e-15 -6.36235e-14 0)
(3.66374e-15 -6.35516e-14 0)
(3.77476e-15 -6.35326e-14 0)
(3.88578e-15 -6.33763e-14 0)
(3.77476e-15 -6.33964e-14 0)
(3.55271e-15 -6.35756e-14 0)
(3.33067e-15 -6.37264e-14 0)
(3.66374e-15 -6.37792e-14 0)
(3.55271e-15 -6.36691e-14 0)
(3.33067e-15 -6.3475e-14 0)
(3.44169e-15 -6.35763e-14 0)
(3.44169e-15 -6.3698e-14 0)
(-8.88178e-15 -7.63291e-14 0)
(4.88498e-15 -6.09855e-14 0)
(1.55431e-15 -6.42364e-14 0)
(3.55271e-15 -6.35252e-14 0)
(3.33067e-15 -6.36818e-14 0)
(3.33067e-15 -6.37082e-14 0)
(3.33067e-15 -6.37849e-14 0)
(3.10862e-15 -6.36561e-14 0)
(2.88658e-15 -6.34605e-14 0)
(3.33067e-15 -6.34794e-14 0)
(3.10862e-15 -6.36011e-14 0)
(3.10862e-15 -6.35999e-14 0)
(3.33067e-15 -6.357e-14 0)
(3.88578e-15 -6.35736e-14 0)
(3.55271e-15 -6.3627e-14 0)
(3.44169e-15 -6.35469e-14 0)
(3.33067e-15 -6.34459e-14 0)
(3.10862e-15 -6.34403e-14 0)
(3.33067e-15 -6.35687e-14 0)
(3.55271e-15 -6.3654e-14 0)
(2.78666e-14 -8.60099e-14 0)
(-8.88178e-16 -5.92918e-14 0)
(5.55112e-15 -6.46327e-14 0)
(3.10862e-15 -6.34021e-14 0)
(3.88578e-15 -6.36285e-14 0)
(3.77476e-15 -6.35698e-14 0)
(3.77476e-15 -6.36284e-14 0)
(3.66374e-15 -6.36714e-14 0)
(3.55271e-15 -6.36108e-14 0)
(3.77476e-15 -6.35177e-14 0)
(3.77476e-15 -6.35216e-14 0)
(3.44169e-15 -6.36722e-14 0)
(3.44169e-15 -6.36721e-14 0)
(3.33067e-15 -6.35861e-14 0)
(3.10862e-15 -6.35306e-14 0)
(3.10862e-15 -6.35635e-14 0)
(3.10862e-15 -6.36031e-14 0)
(3.55271e-15 -6.35867e-14 0)
(3.55271e-15 -6.35611e-14 0)
(3.55271e-15 -6.35583e-14 0)
(-1.64313e-14 -4.40956e-14 0)
(8.43769e-15 -6.72519e-14 0)
(2.44249e-15 -6.27729e-14 0)
(4.21885e-15 -6.38026e-14 0)
(3.55271e-15 -6.36547e-14 0)
(3.66374e-15 -6.36835e-14 0)
(3.9968e-15 -6.35908e-14 0)
(3.88578e-15 -6.3597e-14 0)
(3.66374e-15 -6.35789e-14 0)
(3.66374e-15 -6.3469e-14 0)
(3.88578e-15 -6.33456e-14 0)
(3.66374e-15 -6.33805e-14 0)
(3.66374e-15 -6.34048e-14 0)
(3.55271e-15 -6.34366e-14 0)
(3.44169e-15 -6.3443e-14 0)
(3.55271e-15 -6.35175e-14 0)
(3.44169e-15 -6.35663e-14 0)
(3.10862e-15 -6.35723e-14 0)
(3.33067e-15 -6.3555e-14 0)
(3.33067e-15 -6.35241e-14 0)
(1.84297e-14 -7.09502e-14 0)
(-4.44089e-16 -6.16769e-14 0)
(4.10783e-15 -6.37002e-14 0)
(2.66454e-15 -6.32482e-14 0)
(2.88658e-15 -6.34007e-14 0)
(2.44249e-15 -6.35379e-14 0)
(2.66454e-15 -6.35541e-14 0)
(2.66454e-15 -6.35021e-14 0)
(2.66454e-15 -6.35603e-14 0)
(2.44249e-15 -6.36302e-14 0)
(2.66454e-15 -6.36012e-14 0)
(2.66454e-15 -6.35826e-14 0)
(2.88658e-15 -6.35296e-14 0)
(3.10862e-15 -6.34625e-14 0)
(3.10862e-15 -6.34493e-14 0)
(3.10862e-15 -6.34351e-14 0)
(3.10862e-15 -6.3522e-14 0)
(3.10862e-15 -6.36796e-14 0)
(3.33067e-15 -6.36049e-14 0)
(3.55271e-15 -6.35292e-14 0)
(-1.17684e-14 -5.78535e-14 0)
(5.44009e-15 -6.51483e-14 0)
(1.77636e-15 -6.33408e-14 0)
(3.44169e-15 -6.36698e-14 0)
(3.33067e-15 -6.35349e-14 0)
(3.66374e-15 -6.3615e-14 0)
(3.66374e-15 -6.36459e-14 0)
(3.55271e-15 -6.35468e-14 0)
(3.44169e-15 -6.35482e-14 0)
(3.55271e-15 -6.36357e-14 0)
(3.66374e-15 -6.36566e-14 0)
(3.77476e-15 -6.36026e-14 0)
(3.55271e-15 -6.35324e-14 0)
(3.33067e-15 -6.35144e-14 0)
(3.44169e-15 -6.35479e-14 0)
(3.44169e-15 -6.35426e-14 0)
(3.55271e-15 -6.35921e-14 0)
(3.10862e-15 -6.37252e-14 0)
(3.10862e-15 -6.36395e-14 0)
(3.44169e-15 -6.35559e-14 0)
(1.67644e-14 -7.62724e-14 0)
(1.55431e-15 -6.06738e-14 0)
(4.88498e-15 -6.45585e-14 0)
(3.33067e-15 -6.35554e-14 0)
(3.66374e-15 -6.36249e-14 0)
(3.55271e-15 -6.34224e-14 0)
(3.33067e-15 -6.34292e-14 0)
(3.33067e-15 -6.34278e-14 0)
(3.10862e-15 -6.35394e-14 0)
(3.10862e-15 -6.36032e-14 0)
(3.10862e-15 -6.36372e-14 0)
(2.88658e-15 -6.35249e-14 0)
(3.33067e-15 -6.34602e-14 0)
(3.33067e-15 -6.3442e-14 0)
(3.44169e-15 -6.34706e-14 0)
(3.33067e-15 -6.35599e-14 0)
(3.44169e-15 -6.34704e-14 0)
(3.44169e-15 -6.34746e-14 0)
(3.33067e-15 -6.36541e-14 0)
(3.33067e-15 -6.36288e-14 0)
(-1.70974e-14 -5.32405e-14 0)
(6.88338e-15 -6.69527e-14 0)
(1.55431e-15 -6.27838e-14 0)
(3.33067e-15 -6.37949e-14 0)
(2.88658e-15 -6.35287e-14 0)
(3.10862e-15 -6.35666e-14 0)
(2.88658e-15 -6.3502e-14 0)
(3.44169e-15 -6.35041e-14 0)
(3.44169e-15 -6.35604e-14 0)
(3.33067e-15 -6.35246e-14 0)
(3.10862e-15 -6.35245e-14 0)
(2.88658e-15 -6.36034e-14 0)
(2.88658e-15 -6.37508e-14 0)
(2.88658e-15 -6.3669e-14 0)
(3.33067e-15 -6.36083e-14 0)
(3.33067e-15 -6.36225e-14 0)
(2.88658e-15 -6.36146e-14 0)
(3.44169e-15 -6.35511e-14 0)
(3.33067e-15 -6.361e-14 0)
(3.33067e-15 -6.35882e-14 0)
(3.37508e-14 -6.48866e-14 0)
(-1.55431e-15 -6.28735e-14 0)
(6.21725e-15 -6.37836e-14 0)
(3.66374e-15 -6.3466e-14 0)
(4.10783e-15 -6.35764e-14 0)
(3.77476e-15 -6.36532e-14 0)
(3.66374e-15 -6.35995e-14 0)
(3.66374e-15 -6.34951e-14 0)
(3.77476e-15 -6.34392e-14 0)
(3.55271e-15 -6.34046e-14 0)
(3.66374e-15 -6.33259e-14 0)
(3.88578e-15 -6.35484e-14 0)
(3.88578e-15 -6.36948e-14 0)
(3.77476e-15 -6.36801e-14 0)
(3.77476e-15 -6.36079e-14 0)
(3.55271e-15 -6.34554e-14 0)
(3.44169e-15 -6.35594e-14 0)
(3.55271e-15 -6.36116e-14 0)
(3.44169e-15 -6.35242e-14 0)
(3.55271e-15 -6.34988e-14 0)
(-2.02061e-14 -6.12103e-14 0)
(6.88338e-15 -6.38405e-14 0)
(8.88178e-16 -6.33916e-14 0)
(2.88658e-15 -6.3527e-14 0)
(2.88658e-15 -6.34431e-14 0)
(2.88658e-15 -6.34472e-14 0)
(2.66454e-15 -6.35537e-14 0)
(2.66454e-15 -6.35555e-14 0)
(2.88658e-15 -6.35494e-14 0)
(2.66454e-15 -6.35927e-14 0)
(2.44249e-15 -6.361e-14 0)
(3.10862e-15 -6.36252e-14 0)
(2.88658e-15 -6.3513e-14 0)
(2.88658e-15 -6.3494e-14 0)
(2.66454e-15 -6.35587e-14 0)
(2.66454e-15 -6.35985e-14 0)
(2.88658e-15 -6.35604e-14 0)
(3.10862e-15 -6.3552e-14 0)
(2.88658e-15 -6.3553e-14 0)
(3.10862e-15 -6.35243e-14 0)
(1.96509e-14 -8.12596e-14 0)
(6.66134e-16 -5.98791e-14 0)
(4.88498e-15 -6.43391e-14 0)
(3.33067e-15 -6.34827e-14 0)
(3.55271e-15 -6.36446e-14 0)
(3.66374e-15 -6.34418e-14 0)
(3.9968e-15 -6.35086e-14 0)
(3.55271e-15 -6.35283e-14 0)
(3.77476e-15 -6.34976e-14 0)
(3.66374e-15 -6.3498e-14 0)
(3.77476e-15 -6.36737e-14 0)
(3.55271e-15 -6.36895e-14 0)
(3.44169e-15 -6.3573e-14 0)
(3.88578e-15 -6.35475e-14 0)
(3.88578e-15 -6.35625e-14 0)
(3.9968e-15 -6.36318e-14 0)
(3.55271e-15 -6.35467e-14 0)
(3.66374e-15 -6.35589e-14 0)
(3.33067e-15 -6.36291e-14 0)
(3.44169e-15 -6.36097e-14 0)
(-1.22125e-14 -3.11814e-14 0)
(4.88498e-15 -7.00535e-14 0)
(1.11022e-15 -6.22671e-14 0)
(2.88658e-15 -6.39429e-14 0)
(2.44249e-15 -6.35866e-14 0)
(2.66454e-15 -6.35685e-14 0)
(2.88658e-15 -6.35352e-14 0)
(2.66454e-15 -6.35623e-14 0)
(3.10862e-15 -6.34946e-14 0)
(3.10862e-15 -6.34871e-14 0)
(3.33067e-15 -6.35573e-14 0)
(3.10862e-15 -6.3603e-14 0)
(2.88658e-15 -6.35877e-14 0)
(2.88658e-15 -6.3526e-14 0)
(3.10862e-15 -6.33931e-14 0)
(2.66454e-15 -6.34387e-14 0)
(2.88658e-15 -6.35092e-14 0)
(3.10862e-15 -6.35726e-14 0)
(3.44169e-15 -6.35999e-14 0)
(3.44169e-15 -6.36003e-14 0)
(8.54872e-15 -8.85216e-14 0)
(2.22045e-15 -5.8678e-14 0)
(2.88658e-15 -6.48876e-14 0)
(2.88658e-15 -6.33823e-14 0)
(2.88658e-15 -6.36415e-14 0)
(2.88658e-15 -6.36083e-14 0)
(3.10862e-15 -6.36584e-14 0)
(2.88658e-15 -6.37504e-14 0)
(3.10862e-15 -6.36786e-14 0)
(3.10862e-15 -6.37376e-14 0)
(3.33067e-15 -6.37168e-14 0)
(3.33067e-15 -6.35102e-14 0)
(3.33067e-15 -6.34536e-14 0)
(2.88658e-15 -6.34944e-14 0)
(3.10862e-15 -6.35316e-14 0)
(3.10862e-15 -6.35908e-14 0)
(3.33067e-15 -6.37024e-14 0)
(3.33067e-15 -6.36997e-14 0)
(3.33067e-15 -6.36356e-14 0)
(3.33067e-15 -6.35864e-14 0)
(-7.54952e-15 -6.66168e-14 0)
(5.55112e-15 -6.35795e-14 0)
(2.88658e-15 -6.36687e-14 0)
(3.10862e-15 -6.36298e-14 0)
(3.10862e-15 -6.35775e-14 0)
(3.10862e-15 -6.36848e-14 0)
(3.44169e-15 -6.36993e-14 0)
(3.55271e-15 -6.36243e-14 0)
(3.44169e-15 -6.35716e-14 0)
(3.44169e-15 -6.35971e-14 0)
(3.10862e-15 -6.35606e-14 0)
(3.10862e-15 -6.34754e-14 0)
(3.10862e-15 -6.34918e-14 0)
(3.33067e-15 -6.3562e-14 0)
(3.55271e-15 -6.36426e-14 0)
(3.55271e-15 -6.36941e-14 0)
(3.44169e-15 -6.37056e-14 0)
(3.55271e-15 -6.35763e-14 0)
(3.55271e-15 -6.35382e-14 0)
(3.44169e-15 -6.35375e-14 0)
(9.4369e-15 -3.55018e-14 0)
(1.77636e-15 -6.89425e-14 0)
(3.44169e-15 -6.25062e-14 0)
(2.88658e-15 -6.39306e-14 0)
(3.10862e-15 -6.36423e-14 0)
(2.88658e-15 -6.37947e-14 0)
(2.88658e-15 -6.37382e-14 0)
(2.88658e-15 -6.3612e-14 0)
(2.88658e-15 -6.35925e-14 0)
(2.88658e-15 -6.35423e-14 0)
(2.66454e-15 -6.3474e-14 0)
(3.33067e-15 -6.35541e-14 0)
(2.88658e-15 -6.36818e-14 0)
(2.88658e-15 -6.37379e-14 0)
(3.10862e-15 -6.36924e-14 0)
(3.44169e-15 -6.36254e-14 0)
(3.10862e-15 -6.36206e-14 0)
(3.10862e-15 -6.35983e-14 0)
(3.10862e-15 -6.35696e-14 0)
(3.33067e-15 -6.35185e-14 0)
(1.55431e-15 -5.98641e-14 0)
(3.10862e-15 -6.49446e-14 0)
(2.88658e-15 -6.35155e-14 0)
(3.66374e-15 -6.38045e-14 0)
(3.66374e-15 -6.36766e-14 0)
(3.77476e-15 -6.37348e-14 0)
(3.66374e-15 -6.37119e-14 0)
(3.77476e-15 -6.37223e-14 0)
(3.55271e-15 -6.37308e-14 0)
(3.77476e-15 -6.36018e-14 0)
(3.77476e-15 -6.35519e-14 0)
(3.55271e-15 -6.36102e-14 0)
(3.55271e-15 -6.36349e-14 0)
(3.44169e-15 -6.37188e-14 0)
(3.33067e-15 -6.37461e-14 0)
(3.33067e-15 -6.36783e-14 0)
(3.55271e-15 -6.36712e-14 0)
(3.33067e-15 -6.36184e-14 0)
(3.44169e-15 -6.35601e-14 0)
(3.44169e-15 -6.35234e-14 0)
(1.14353e-14 -1.17869e-13 0)
(3.55271e-15 -5.29682e-14 0)
(5.55112e-15 -6.62218e-14 0)
(3.9968e-15 -6.31729e-14 0)
(4.32987e-15 -6.37972e-14 0)
(4.21885e-15 -6.36551e-14 0)
(3.88578e-15 -6.36361e-14 0)
(3.9968e-15 -6.36071e-14 0)
(3.9968e-15 -6.36139e-14 0)
(3.66374e-15 -6.35318e-14 0)
(3.88578e-15 -6.34964e-14 0)
(3.88578e-15 -6.35615e-14 0)
(3.9968e-15 -6.35777e-14 0)
(3.66374e-15 -6.35878e-14 0)
(3.66374e-15 -6.36327e-14 0)
(3.44169e-15 -6.36862e-14 0)
(3.44169e-15 -6.3664e-14 0)
(2.88658e-15 -6.35146e-14 0)
(3.10862e-15 -6.34858e-14 0)
(3.44169e-15 -6.3521e-14 0)
)
;

boundaryField
{
    movingWall
    {
        type            calculated;
        value           uniform (3.33067e-15 -6.3564e-14 0);
    }
    fixedWalls
    {
        type            calculated;
        value           uniform (3.33067e-15 -6.3564e-14 0);
    }
    frontAndBack
    {
        type            empty;
    }
}


// ************************************************************************* //
