/*--------------------------------*- C++ -*----------------------------------*\
| =========                 |                                                 |
| \\      /  F ield         | OpenFOAM: The Open Source CFD Toolbox           |
|  \\    /   O peration     | Version:  2312                                  |
|   \\  /    A nd           | Website:  www.openfoam.com                      |
|    \\/     M anipulation  |                                                 |
\*---------------------------------------------------------------------------*/
FoamFile
{
    version     2.0;
    format      ascii;
    arch        "LSB;label=32;scalar=64";
    class       volScalarField;
    location    "5.375";
    object      divU;
}
// * * * * * * * * * * * * * * * * * * * * * * * * * * * * * * * * * * * * * //

dimensions      [0 0 -1 0 0 0 0];

internalField   nonuniform List<scalar> 
400
(
1.08691e-11
-1.81875e-12
4.03293e-13
-1.42342e-13
3.47873e-14
2.76678e-14
-1.16221e-14
-2.32969e-14
3.15303e-14
-1.15826e-14
-3.69424e-15
9.32984e-15
-7.20932e-15
-1.13636e-14
-1.33944e-14
1.4941e-14
-4.66852e-14
3.94231e-14
2.73418e-15
0
-1.69949e-11
2.34549e-12
-4.2541e-13
1.83271e-13
-2.6962e-14
-5.79261e-15
-4.20207e-14
1.01351e-14
4.63826e-14
-7.11791e-14
-9.29962e-15
2.85655e-15
1.88821e-14
3.85175e-14
-7.05866e-17
1.70902e-14
1.37974e-14
-3.14211e-14
-5.56197e-14
5.42101e-14
1.92446e-12
3.29947e-13
-1.50388e-13
9.31311e-15
1.54441e-14
-7.24723e-15
-4.8776e-14
5.04705e-14
2.0201e-14
-1.74549e-14
-2.01936e-14
1.9002e-14
4.9793e-15
8.37836e-15
-2.33304e-14
-1.92756e-14
1.89772e-14
-4.41193e-14
-4.81479e-15
2.71051e-14
1.02728e-11
-2.22682e-12
4.66187e-13
-1.61098e-13
1.86982e-15
-5.86989e-14
4.77098e-14
3.38362e-14
3.15018e-14
-1.74142e-14
2.65347e-14
-1.19272e-14
-1.09497e-14
-2.12633e-15
4.55711e-15
3.43894e-14
-2.58089e-14
2.12675e-14
-1.71443e-15
-2.71051e-14
-1.07607e-11
3.09742e-12
-6.62005e-13
3.18222e-13
-4.53417e-14
1.20984e-14
-1.43125e-15
-4.7067e-14
5.66636e-15
6.72871e-14
-5.36803e-14
1.26866e-14
1.56858e-14
-3.17868e-15
2.41346e-14
1.75559e-15
-7.34232e-14
3.71956e-14
2.69117e-14
0
5.25838e-12
-2.86893e-12
5.41438e-13
-1.97415e-13
6.57838e-14
1.45736e-14
1.79798e-14
-1.40545e-14
-6.17459e-15
4.1218e-14
-1.03234e-15
7.52136e-15
-2.20081e-14
1.05211e-14
-3.87818e-14
4.694e-15
5.0059e-14
5.1097e-14
1.17755e-15
-5.42101e-14
5.42101e-14
1.66306e-12
-3.41096e-13
1.16134e-13
-1.98599e-14
1.77631e-14
2.54087e-14
2.88034e-15
-2.82319e-14
2.86812e-15
-8.9926e-15
-1.06239e-14
1.93467e-14
2.28861e-14
-3.54433e-15
-9.5706e-15
-2.31496e-14
-1.23978e-14
-3.19959e-15
0
-2.43945e-13
-1.21655e-12
2.79744e-13
-1.41634e-13
1.92234e-14
-5.67085e-14
4.69977e-14
7.90502e-15
-5.22666e-14
-1.37967e-14
1.41214e-14
2.13779e-14
6.58564e-15
-1.19999e-14
-1.40376e-14
-1.20749e-14
1.37891e-15
2.65198e-14
1.54571e-14
-2.71051e-14
-1.84314e-12
1.45873e-12
-2.66869e-13
1.25802e-13
-3.19691e-15
9.05209e-15
5.27704e-15
1.53318e-14
4.03872e-15
1.60072e-14
1.05162e-14
-2.7062e-14
-1.35796e-14
-3.70589e-14
3.80484e-14
-2.45585e-14
-2.05658e-14
-3.42967e-14
3.76443e-14
0
1.6263e-12
-1.3509e-12
2.22507e-13
-1.30656e-13
-2.56997e-15
-1.32077e-14
-7.4404e-15
-6.17131e-14
2.81233e-15
1.48042e-17
-3.37837e-15
2.70705e-14
4.59031e-14
-2.54163e-14
4.90577e-15
2.16603e-14
4.29379e-15
-1.68818e-14
1.34891e-14
0
-5.42101e-13
1.65464e-12
-2.96319e-13
1.49325e-13
-2.48166e-14
-9.18973e-15
-2.4473e-14
6.70869e-14
-1.4273e-14
1.98736e-14
-5.35576e-14
-2.38533e-15
-3.17614e-14
4.98695e-15
4.53803e-14
-4.92078e-14
-4.60097e-15
5.07335e-14
2.64809e-14
0
1.76183e-12
-2.45227e-12
4.83155e-13
-2.03356e-13
1.08501e-14
-5.14637e-14
-2.52825e-15
3.48374e-14
-1.31725e-14
-1.40406e-14
1.92016e-14
2.25302e-14
-7.98543e-15
2.24882e-14
-3.09752e-14
7.40332e-15
-2.62947e-14
2.35414e-14
5.07884e-15
-5.42101e-14
-3.65918e-12
2.40082e-12
-4.3975e-13
2.0155e-13
4.0295e-15
2.38955e-14
-4.76396e-14
4.40948e-15
3.51917e-14
-5.04806e-14
1.1527e-14
-1.86782e-14
4.19691e-15
8.63485e-15
-5.35429e-14
4.3975e-14
2.07485e-15
1.70319e-15
2.16929e-14
5.42101e-14
4.39102e-12
-2.0965e-12
3.50333e-13
-1.65295e-13
1.67828e-14
1.17662e-14
8.4116e-15
-2.33749e-14
1.35698e-14
1.42864e-14
1.68005e-14
1.06488e-14
-3.27359e-15
5.96432e-14
4.43288e-14
-4.84722e-14
-1.99068e-14
-2.74688e-14
-1.01032e-14
-2.71051e-14
-2.1413e-12
1.46594e-12
-2.73728e-13
1.42909e-13
-6.42272e-14
4.93264e-14
-6.57367e-15
3.57335e-14
-4.52407e-15
-3.67846e-14
3.95929e-14
-5.27386e-14
8.66172e-15
3.78544e-14
-3.38943e-14
-4.43761e-14
4.58377e-14
6.68748e-14
1.63486e-14
-2.71051e-14
-3.11708e-12
1.07567e-13
-8.86274e-14
3.86868e-14
-9.11206e-15
-1.65135e-14
-2.29768e-14
2.95328e-14
-1.22236e-14
-2.0683e-14
6.63723e-14
1.4233e-14
-3.59604e-14
-1.9949e-14
-4.62458e-15
3.85036e-14
-2.80162e-14
1.22995e-14
-4.59128e-15
0
4.39102e-12
5.69035e-14
-4.02172e-14
-1.61486e-14
-9.18792e-15
4.61539e-14
5.03638e-14
-1.08433e-14
-3.61344e-15
-1.14835e-15
-1.77738e-14
-1.72627e-14
2.2539e-14
9.91039e-15
6.4021e-15
-1.91616e-14
3.43809e-14
2.2433e-14
-2.50947e-14
-2.71051e-14
1.11131e-12
-7.03023e-13
8.35263e-14
-3.36178e-14
-1.90934e-14
-1.30523e-14
-5.10753e-15
-2.06449e-14
-1.95318e-14
-1.61843e-15
1.02027e-14
2.34695e-14
-4.59821e-14
-5.76926e-15
7.73598e-14
9.53162e-15
-4.34913e-14
-8.8827e-15
5.40298e-14
0
-8.42967e-12
1.70755e-12
-2.88037e-13
1.23473e-13
1.96208e-14
9.13262e-16
5.10313e-15
-2.01478e-14
5.42352e-15
2.65358e-14
-1.91414e-14
-4.37663e-15
1.86325e-14
-1.78638e-14
-2.50954e-14
3.05527e-14
6.3733e-15
-5.09114e-16
8.19876e-15
-2.71051e-14
5.8818e-12
-1.49078e-12
3.25261e-13
-1.35525e-13
2.71051e-14
0
0
2.71051e-14
-2.71051e-14
0
2.71051e-14
0
-2.71051e-14
0
2.71051e-14
0
-5.42101e-14
0
5.42101e-14
0
)
;

boundaryField
{
    movingWall
    {
        type            extrapolatedCalculated;
        value           nonuniform List<scalar> 
20
(
5.8818e-12
-1.49078e-12
3.25261e-13
-1.35525e-13
2.71051e-14
0
0
2.71051e-14
-2.71051e-14
0
2.71051e-14
0
-2.71051e-14
0
2.71051e-14
0
-5.42101e-14
0
5.42101e-14
0
)
;
    }
    fixedWalls
    {
        type            extrapolatedCalculated;
        value           nonuniform List<scalar> 
60
(
1.08691e-11
-1.69949e-11
1.92446e-12
1.02728e-11
-1.07607e-11
5.25838e-12
5.42101e-14
-2.43945e-13
-1.84314e-12
1.6263e-12
-5.42101e-13
1.76183e-12
-3.65918e-12
4.39102e-12
-2.1413e-12
-3.11708e-12
4.39102e-12
1.11131e-12
-8.42967e-12
5.8818e-12
0
5.42101e-14
2.71051e-14
-2.71051e-14
0
-5.42101e-14
0
-2.71051e-14
0
0
0
-5.42101e-14
5.42101e-14
-2.71051e-14
-2.71051e-14
0
-2.71051e-14
0
-2.71051e-14
0
1.08691e-11
-1.81875e-12
4.03293e-13
-1.42342e-13
3.47873e-14
2.76678e-14
-1.16221e-14
-2.32969e-14
3.15303e-14
-1.15826e-14
-3.69424e-15
9.32984e-15
-7.20932e-15
-1.13636e-14
-1.33944e-14
1.4941e-14
-4.66852e-14
3.94231e-14
2.73418e-15
0
)
;
    }
    frontAndBack
    {
        type            empty;
    }
}


// ************************************************************************* //
