/*--------------------------------*- C++ -*----------------------------------*\
| =========                 |                                                 |
| \\      /  F ield         | OpenFOAM: The Open Source CFD Toolbox           |
|  \\    /   O peration     | Version:  2312                                  |
|   \\  /    A nd           | Website:  www.openfoam.com                      |
|    \\/     M anipulation  |                                                 |
\*---------------------------------------------------------------------------*/
FoamFile
{
    version     2.0;
    format      ascii;
    arch        "LSB;label=32;scalar=64";
    class       volScalarField;
    location    "5.375";
    object      enstrophyField;
}
// * * * * * * * * * * * * * * * * * * * * * * * * * * * * * * * * * * * * * //

dimensions      [0 0 -2 0 0 0 0];

internalField   nonuniform List<scalar> 
400
(
9.13757e-24
1.68486e-23
6.85841e-25
6.20916e-26
2.45006e-28
2.47845e-27
8.94207e-28
3.99691e-29
8.61177e-28
4.21328e-28
1.10983e-27
2.424e-29
2.56721e-29
6.75249e-28
9.47852e-29
7.10338e-28
4.4013e-29
9.93969e-30
8.778e-29
1.02918e-29
9.71315e-24
9.80588e-24
6.99557e-25
7.75382e-27
9.51314e-27
8.76699e-27
2.16664e-26
1.76004e-26
1.30631e-26
5.22489e-27
1.51879e-27
7.81843e-27
3.24506e-27
6.25848e-27
2.25645e-27
4.96318e-28
2.06976e-28
6.60822e-28
1.96172e-27
1.20652e-27
3.17789e-23
5.43755e-23
2.93664e-24
1.51295e-25
9.42074e-27
8.92988e-28
1.60815e-27
4.92183e-27
3.22562e-27
2.93311e-27
1.03261e-26
1.1412e-26
4.91145e-27
2.51141e-28
1.10074e-27
4.48108e-29
5.62187e-31
2.23608e-28
2.05878e-27
8.76391e-28
1.7667e-23
2.45071e-23
1.30405e-24
7.38241e-26
7.54448e-29
1.36612e-27
2.83544e-27
1.18333e-27
7.68085e-29
1.01784e-27
4.57871e-29
8.23843e-28
2.74863e-27
1.00003e-26
8.29265e-27
1.17488e-27
5.51658e-30
4.29724e-29
1.22043e-27
7.77096e-29
5.7014e-24
1.34965e-24
9.84371e-26
7.78653e-31
2.62924e-27
7.04838e-27
1.2005e-27
1.42322e-29
1.56124e-28
9.88229e-29
7.25846e-29
1.64264e-27
1.61535e-27
1.62458e-29
4.43258e-28
2.61498e-27
4.22985e-27
7.54137e-29
2.28387e-28
1.55305e-28
5.60137e-25
1.59374e-24
1.21203e-25
1.06763e-27
9.62405e-28
3.67076e-28
2.0721e-27
1.37538e-27
7.54339e-28
1.65309e-28
2.42604e-27
2.39892e-27
1.03966e-27
8.50946e-28
2.56492e-30
2.6251e-29
1.5982e-27
8.80229e-30
4.03054e-30
3.44795e-28
3.12402e-24
1.84692e-24
1.1542e-25
1.86519e-27
1.08695e-26
1.00709e-26
6.85182e-27
3.40341e-27
7.34706e-27
1.26167e-26
4.06534e-27
5.25321e-27
1.18094e-27
2.71153e-28
3.27401e-29
7.60582e-29
1.50182e-29
1.53142e-27
5.09653e-28
1.19081e-29
4.83732e-25
5.51525e-25
2.87402e-27
6.1897e-27
4.1968e-28
1.17624e-28
1.66985e-27
1.43602e-27
8.20647e-29
8.34726e-30
1.73861e-27
2.55868e-29
7.21898e-29
3.22538e-29
3.75473e-30
2.6439e-29
2.98943e-28
3.43445e-29
1.131e-28
3.50832e-28
1.81413e-25
3.14164e-25
2.21323e-27
2.71053e-27
5.29863e-27
7.1423e-27
5.16095e-27
2.55902e-27
1.99084e-27
2.11584e-27
3.04228e-27
8.73387e-28
1.67235e-28
1.20098e-30
4.47613e-28
4.96815e-28
2.62659e-27
1.7375e-27
2.53061e-27
5.73084e-28
1.08968e-25
5.36511e-25
4.15163e-26
4.35753e-27
2.27866e-27
2.7219e-27
5.81866e-27
1.29478e-28
1.53811e-28
4.78867e-29
3.97336e-27
4.90187e-27
4.01469e-27
1.41394e-27
1.17285e-28
3.67689e-28
6.83875e-27
1.03381e-27
2.42434e-27
9.07498e-28
5.14239e-25
1.97867e-25
2.14976e-26
8.28131e-27
9.11424e-30
2.98715e-28
1.15015e-27
1.80297e-27
1.58249e-27
2.76345e-28
1.9275e-27
5.40202e-27
3.86175e-27
7.98602e-28
1.22781e-27
3.84471e-28
2.54718e-29
1.04152e-31
4.74754e-28
2.01577e-28
3.43336e-26
6.08251e-27
1.27243e-29
2.80783e-27
1.04998e-27
3.07172e-28
2.45196e-27
7.7451e-27
2.0006e-27
4.29155e-27
7.93207e-28
4.14977e-27
9.71702e-29
3.77274e-29
8.56542e-27
3.71253e-27
1.21936e-28
4.68959e-28
4.28665e-27
1.37971e-28
1.26416e-24
9.46025e-26
1.39232e-26
1.20387e-27
6.77473e-27
6.11538e-29
2.11524e-27
8.87786e-32
6.89239e-30
1.83667e-29
5.31057e-30
2.04255e-27
2.26684e-27
5.01692e-28
2.0901e-27
1.47877e-27
1.22813e-27
3.47346e-28
3.83359e-30
1.28403e-29
2.33283e-24
1.71992e-24
7.5068e-26
2.41165e-27
4.86852e-28
2.29913e-27
6.39353e-28
5.99237e-31
2.89736e-28
4.89249e-27
8.13692e-27
5.07054e-29
1.00687e-28
5.42389e-31
1.96161e-27
1.24933e-30
2.65635e-29
1.78038e-28
1.75754e-27
1.2831e-28
6.74732e-24
5.26207e-24
3.42712e-25
5.49615e-27
4.19955e-27
5.19664e-28
3.35652e-27
4.85737e-28
3.94614e-27
2.81586e-27
9.08072e-28
4.61883e-30
2.96348e-29
8.17614e-27
6.86213e-27
2.42967e-27
8.33121e-28
4.1099e-29
3.8172e-30
5.89183e-28
3.04541e-24
2.66618e-24
2.17906e-25
7.76375e-27
5.39903e-27
1.42821e-30
2.34071e-27
3.47186e-27
1.40113e-27
1.68391e-27
2.58665e-28
3.46327e-28
1.38501e-27
6.09244e-28
2.03878e-27
4.841e-27
4.25033e-27
2.08546e-28
1.24507e-28
1.56509e-28
7.53328e-26
6.09085e-26
5.16379e-28
4.15515e-29
1.51067e-29
7.71447e-28
1.81546e-27
8.14987e-29
1.62056e-27
1.5298e-27
4.36984e-27
1.86565e-27
1.03759e-27
1.1359e-28
8.73433e-29
1.83132e-27
7.56213e-28
9.61314e-28
4.79901e-28
1.36055e-29
9.0692e-25
3.01716e-24
1.25593e-25
1.89983e-26
2.29341e-27
2.03515e-27
6.45814e-28
1.06156e-28
2.43204e-29
8.97562e-28
3.40276e-27
5.21085e-27
2.63473e-27
5.66515e-31
6.32805e-29
1.88459e-27
3.65773e-30
1.29886e-29
3.18858e-29
7.93295e-30
1.13729e-28
1.53942e-25
8.44162e-27
7.75422e-27
5.14542e-27
9.66823e-27
3.20589e-27
6.08418e-27
7.62281e-27
6.59456e-28
5.96854e-27
1.95427e-27
4.24793e-27
7.14481e-27
1.25797e-27
1.9236e-28
2.23007e-28
2.1333e-27
4.51376e-29
9.86027e-30
6.92078e-24
1.33372e-23
3.45055e-25
6.15568e-26
3.811e-27
1.14978e-26
3.70812e-27
6.11958e-27
3.94641e-27
2.17549e-27
5.55981e-27
2.67818e-27
3.09573e-27
1.18615e-27
9.84149e-28
2.87471e-28
9.79799e-28
6.62067e-28
2.01811e-31
1.12353e-28
)
;

boundaryField
{
    movingWall
    {
        type            calculated;
        value           nonuniform List<scalar> 
20
(
6.37426e-25
1.37999e-23
8.74972e-27
1.29494e-25
6.17617e-26
6.89649e-26
2.57298e-26
3.60902e-26
3.75325e-26
1.05094e-26
2.39967e-26
2.28802e-26
3.48016e-26
8.15657e-27
7.61158e-27
8.52094e-28
1.89551e-27
1.27703e-26
4.00093e-27
5.21453e-28
)
;
    }
    fixedWalls
    {
        type            calculated;
        value           nonuniform List<scalar> 
60
(
3.02219e-22
1.88145e-22
9.98719e-22
4.45202e-22
2.78571e-23
3.37794e-23
3.79225e-23
5.73991e-24
3.06013e-24
1.04351e-23
2.9325e-24
2.07651e-26
2.70009e-24
3.07108e-23
9.85219e-23
5.45369e-23
8.48198e-25
5.30788e-23
7.97728e-25
2.22005e-22
1.26039e-28
9.04254e-28
1.83152e-28
3.50954e-28
3.97448e-29
3.08872e-28
1.27041e-28
8.41308e-28
2.85431e-28
1.4069e-27
1.51599e-28
5.48307e-31
1.2595e-28
3.8809e-29
8.665e-28
1.6408e-28
5.58589e-29
1.65391e-28
1.31706e-28
4.90784e-29
2.07849e-23
2.34492e-23
2.84412e-25
1.3532e-25
1.05941e-26
5.34833e-26
7.51788e-26
4.28361e-26
4.44478e-26
3.60131e-26
9.84535e-27
2.31301e-26
1.453e-26
1.0206e-26
9.47852e-29
5.604e-29
3.15501e-27
4.35025e-27
4.85442e-28
1.02918e-29
)
;
    }
    frontAndBack
    {
        type            empty;
    }
}


// ************************************************************************* //
