/*--------------------------------*- C++ -*----------------------------------*\
| =========                 |                                                 |
| \\      /  F ield         | OpenFOAM: The Open Source CFD Toolbox           |
|  \\    /   O peration     | Version:  2312                                  |
|   \\  /    A nd           | Website:  www.openfoam.com                      |
|    \\/     M anipulation  |                                                 |
\*---------------------------------------------------------------------------*/
FoamFile
{
    version     2.0;
    format      ascii;
    arch        "LSB;label=32;scalar=64";
    class       volScalarField;
    location    "5.375";
    object      flowTypeField;
}
// * * * * * * * * * * * * * * * * * * * * * * * * * * * * * * * * * * * * * //

dimensions      [0 0 0 0 0 0 0];

internalField   nonuniform List<scalar> 
400
(
0.591945
0.0989285
0.10824
-0.106381
0.614748
0.139402
0.231146
0.724019
0.31552
0.546606
0.253106
0.341524
0.722145
0.126957
0.519823
-0.164907
0.772668
0.879112
0.0194152
0.371961
0.703777
0.228013
0.148388
0.535835
-0.194022
0.0512538
-0.0436981
-0.151961
-0.0903934
0.148417
0.320645
0.0778819
0.19182
0.181819
-0.0592559
0.169499
0.0420802
0.371124
0.174871
0.33167
0.154387
0.044832
-0.0478236
0.00718294
-0.229115
0.00058194
0.239936
0.0108626
0.190359
0.103678
-0.0564713
-0.105411
-0.197344
0.173037
-0.161257
0.731269
0.9585
0.597158
-0.178526
0.422319
0.44428
0.0496945
0.00224024
-0.0100687
0.808831
-0.00673368
0.342766
0.34228
0.541502
0.239636
0.709569
0.249452
-0.157296
-0.232518
-0.186567
0.187396
0.892769
0.312099
-0.748381
0.626568
0.607386
0.341284
0.243438
0.989067
-0.0956989
-0.0807786
0.0984077
0.883605
0.00246954
0.684367
0.719913
0.274371
0.274078
0.0146922
0.105016
-0.085145
0.189404
0.720472
0.338217
0.514966
0.698823
0.396907
0.170037
0.713515
0.27359
0.00438097
-0.106012
0.13014
0.292642
0.476897
-0.0312108
-0.0471196
0.254464
-0.272021
0.929798
0.0650714
0.247167
0.88413
0.0778568
0.51549
0.0977902
0.257595
0.158239
0.516479
0.00515773
-0.025701
-0.0427648
0.0539618
-0.0794779
-0.140129
-0.10212
0.0833005
0.128382
0.203186
0.253322
0.549706
0.738246
-0.00597339
-0.155826
0.118977
0.439632
0.33134
0.745574
0.358495
0.071762
0.664095
0.227297
0.0153775
0.706359
0.674159
0.261715
0.828603
0.557225
0.242386
0.641733
0.0486803
0.00533738
0.799641
0.469169
0.278834
0.536852
0.420883
0.695134
0.522997
0.0933517
-0.0948686
0.0682724
0.122399
-0.160865
-0.195586
0.0872066
0.294618
0.480601
0.891066
0.202556
-0.0449722
-0.153043
0.23566
0.0910161
-0.151581
0.664648
0.34316
0.133297
0.316294
-0.242035
-0.170176
0.041539
0.674866
0.0023387
0.293706
-0.0238271
-0.14162
0.102729
0.0546915
0.433329
0.275518
-0.0779217
0.00988085
-0.278227
-0.533396
0.573419
0.648669
0.538438
0.199374
0.855779
0.403689
0.149568
0.34874
0.0807393
0.272037
0.356171
-0.275136
-0.0357013
0.358256
0.32787
0.490322
0.318296
0.971253
-0.0172012
0.310136
0.870527
0.945155
0.985368
0.609223
-0.501837
0.536635
-0.280021
-0.106906
-0.0322403
-0.133575
0.328554
-0.363234
0.635305
0.482892
-0.16106
-0.0586882
0.447816
0.186659
-0.134287
0.6666
0.414826
0.747879
0.534871
0.693974
-0.0708759
0.469527
0.154226
0.65562
0.892624
0.841693
0.917215
-0.132731
-0.20105
-0.0379441
0.154328
0.27917
0.0848887
0.0437228
0.846801
0.863961
0.371921
0.189012
0.131815
0.504249
0.218971
-0.0735768
-0.306862
0.911823
0.124496
-0.201978
-0.173799
0.0217343
0.105144
0.955877
0.0117292
0.944828
0.669516
0.459968
-0.0880506
0.539219
-0.1526
0.0438007
-0.24159
0.406559
-0.0767588
0.435896
0.00899674
0.462355
-0.0103604
0.110756
0.403454
0.938709
0.392312
-0.135629
-0.0454872
0.265457
0.434206
0.846739
0.837159
0.113599
0.362538
0.0773426
-0.303942
0.029544
-0.275409
0.755862
-0.191099
0.0299342
0.0325147
-0.047221
0.549554
0.0937813
0.287995
0.104493
0.035094
0.0385255
-0.0973683
0.240317
0.41742
0.350837
0.902748
0.717451
0.879315
0.798529
8.43772e-05
0.350499
0.202608
0.543801
-0.0361439
0.123386
0.0751653
-0.121036
0.388206
0.550281
0.544361
0.00829631
0.0478917
-0.415637
0.189348
0.745179
0.430719
0.109137
0.0132514
-0.551278
0.170873
-0.16869
0.332832
0.153481
0.519252
0.215643
-0.0143325
-0.157257
-0.125558
0.85643
0.814813
-0.130254
0.915743
0.191046
0.799107
0.0481437
0.997296
0.606998
0.66393
0.126719
0.0976616
-0.0204111
0.0226046
0.0129304
0.0885722
0.379854
0.0222095
-0.15116
-0.12198
-0.0563407
0.164909
0.446103
0.223133
-0.185054
0.217869
0.768349
0.406506
0.0210706
0.208033
-0.262292
0.368789
-0.0735595
0.0276685
-0.00299717
0.108932
-0.213908
0.057235
0.100268
0.082995
0.212173
0.242536
0.416262
0.454104
0.324537
0.966266
0.452735
)
;

boundaryField
{
    movingWall
    {
        type            calculated;
        value           nonuniform List<scalar> 
20
(
0.93111
0.200902
0.896286
-0.30576
0.140858
-0.0364994
-0.00554764
-0.0061611
-0.00450695
-0.0822669
0.0273444
0.0364983
0.0150545
0.0615132
0.091138
0.377778
0.358028
0.104905
0.16441
0.307008
)
;
    }
    fixedWalls
    {
        type            calculated;
        value           nonuniform List<scalar> 
60
(
0.108934
0.238947
0.0290979
0.0484953
0.351785
0.362226
0.208258
0.458002
0.562084
0.348719
0.686802
0.976591
0.706621
0.208503
0.0266686
0.0330559
0.764586
0.102783
0.806737
0.0635713
0.0766059
0.537415
0.774958
0.582074
0.873623
0.673465
0.0155182
0.505642
0.489919
-0.816929
0.395619
0.974786
0.771109
0.784827
0.209989
0.336059
0.704764
0.00289636
0.589464
0.761692
0.697305
0.124053
0.521554
-0.323351
0.202021
-0.0257888
0.0319812
0.0617367
0.0503214
0.0321731
0.00625264
0.0379936
0.103873
0.0285866
0.591104
0.000688857
0.227024
0.146342
0.294384
0.636567
)
;
    }
    frontAndBack
    {
        type            empty;
    }
}


// ************************************************************************* //
