/*--------------------------------*- C++ -*----------------------------------*\
| =========                 |                                                 |
| \\      /  F ield         | OpenFOAM: The Open Source CFD Toolbox           |
|  \\    /   O peration     | Version:  2312                                  |
|   \\  /    A nd           | Website:  www.openfoam.com                      |
|    \\/     M anipulation  |                                                 |
\*---------------------------------------------------------------------------*/
FoamFile
{
    version     2.0;
    format      ascii;
    arch        "LSB;label=32;scalar=64";
    class       volTensorField;
    location    "5.375";
    object      gradU;
}
// * * * * * * * * * * * * * * * * * * * * * * * * * * * * * * * * * * * * * //

dimensions      [0 0 -1 0 0 0 0];

internalField   nonuniform List<tensor> 
400
(
(-1.35525e-13 5.1152e-12 0 8.40257e-13 1.10162e-11 0 0 0 0)
(4.33681e-13 -6.04888e-12 0 -2.43945e-13 -2.25243e-12 0 0 0 0)
(-1.35525e-13 1.19829e-12 0 2.71051e-14 5.38818e-13 0 0 0 0)
(-5.42101e-14 -2.98186e-13 0 5.42101e-14 -8.81318e-14 0 0 0 0)
(2.71051e-14 3.20739e-14 0 5.42101e-14 7.68228e-15 0 0 0 0)
(5.42101e-14 -1.61951e-14 0 5.42101e-14 -2.65424e-14 0 0 0 0)
(0 1.19205e-14 0 5.42101e-14 -1.16221e-14 0 0 0 0)
(-2.71051e-14 1.81642e-14 0 2.71051e-14 3.80815e-15 0 0 0 0)
(0 1.27088e-14 0 5.42101e-14 3.15303e-14 0 0 0 0)
(-5.42101e-14 -1.92348e-15 0 2.71051e-14 4.26275e-14 0 0 0 0)
(-2.71051e-14 -7.09681e-15 0 -5.42101e-14 2.34108e-14 0 0 0 0)
(0 6.96276e-15 0 0 9.32984e-15 0 0 0 0)
(-2.71051e-14 7.16549e-15 0 0 1.98957e-14 0 0 0 0)
(-2.71051e-14 -9.64407e-15 0 2.71051e-14 1.57415e-14 0 0 0 0)
(-2.71051e-14 -1.37685e-14 0 0 1.37106e-14 0 0 0 0)
(0 -1.05868e-14 0 2.71051e-14 1.4941e-14 0 0 0 0)
(-5.42101e-14 -9.38221e-15 0 0 7.52494e-15 0 0 0 0)
(5.42101e-14 4.45863e-15 0 0 -1.4787e-14 0 0 0 0)
(0 1.32499e-14 0 0 2.73418e-15 0 0 0 0)
(0 -4.53692e-15 0 0 6.89013e-15 0 0 0 0)
(7.86047e-13 3.64859e-12 0 -7.58942e-13 -1.77938e-11 0 0 0 0)
(-1.30104e-12 -4.42852e-12 0 0 3.64924e-12 0 0 0 0)
(4.60786e-13 9.66001e-13 0 -2.1684e-13 -8.82913e-13 0 0 0 0)
(2.71051e-14 -2.3295e-13 0 -1.0842e-13 1.62983e-13 0 0 0 0)
(0 2.95156e-14 0 -1.0842e-13 -3.46443e-14 0 0 0 0)
(-2.71051e-14 -3.10932e-15 0 -1.35525e-13 2.07498e-14 0 0 0 0)
(-5.42101e-14 1.843e-14 0 -1.89735e-13 2.38116e-14 0 0 0 0)
(0 2.49882e-14 0 -1.6263e-13 6.32695e-15 0 0 0 0)
(5.42101e-14 2.61105e-14 0 -1.35525e-13 -1.22527e-14 0 0 0 0)
(-5.42101e-14 -6.19601e-15 0 -1.0842e-13 -5.38636e-15 0 0 0 0)
(0 -2.62009e-14 0 -8.13152e-14 -5.60538e-15 0 0 0 0)
(0 -1.04778e-14 0 -1.35525e-13 -6.47329e-15 0 0 0 0)
(5.42101e-14 -7.53858e-16 0 -8.13152e-14 -2.81187e-14 0 0 0 0)
(8.13152e-14 3.45898e-15 0 -1.0842e-13 -3.14341e-14 0 0 0 0)
(2.71051e-14 1.2968e-14 0 -5.42101e-14 -1.37812e-14 0 0 0 0)
(2.71051e-14 4.40108e-15 0 -2.71051e-14 2.14919e-15 0 0 0 0)
(0 -2.03458e-14 0 0 6.27243e-15 0 0 0 0)
(-5.42101e-14 -9.24938e-15 0 2.71051e-14 1.0471e-14 0 0 0 0)
(-5.42101e-14 8.42726e-15 0 -5.42101e-14 -4.14379e-15 0 0 0 0)
(5.42101e-14 -5.08739e-15 0 -5.42101e-14 -1.2737e-14 0 0 0 0)
(-8.40257e-13 -9.02941e-12 0 -1.0571e-12 2.76621e-12 0 0 0 0)
(9.48677e-13 1.08621e-11 0 4.33681e-13 -6.06078e-13 0 0 0 0)
(-2.98156e-13 -2.28796e-12 0 1.35525e-13 1.39496e-13 0 0 0 0)
(5.42101e-14 5.50083e-13 0 0 -3.84329e-14 0 0 0 0)
(0 -1.10159e-13 0 2.71051e-14 1.53011e-14 0 0 0 0)
(0 4.22608e-14 0 0 -1.45462e-15 0 0 0 0)
(-5.42101e-14 -2.50233e-15 0 5.42101e-14 -6.7553e-15 0 0 0 0)
(5.42101e-14 -1.79e-14 0 8.13152e-14 -1.38747e-14 0 0 0 0)
(5.42101e-14 9.95534e-16 0 8.13152e-14 -2.61816e-14 0 0 0 0)
(0 4.72386e-15 0 8.13152e-14 -2.7591e-14 0 0 0 0)
(0 -8.18373e-15 0 1.35525e-13 -1.0894e-14 0 0 0 0)
(0 -1.55505e-14 0 1.35525e-13 1.61455e-14 0 0 0 0)
(0 -1.77953e-14 0 8.13152e-14 1.32023e-14 0 0 0 0)
(0 4.69338e-15 0 2.71051e-14 -3.03405e-15 0 0 0 0)
(0 1.98148e-14 0 -2.71051e-14 -2.32598e-14 0 0 0 0)
(2.71051e-14 9.46687e-15 0 0 -3.63657e-14 0 0 0 0)
(5.42101e-14 -1.06037e-15 0 0 -2.19252e-14 0 0 0 0)
(-5.42101e-14 -5.95759e-15 0 -2.71051e-14 1.44068e-14 0 0 0 0)
(0 -9.95812e-15 0 5.42101e-14 -3.40518e-15 0 0 0 0)
(5.42101e-14 1.23439e-14 0 5.42101e-14 -1.63205e-14 0 0 0 0)
(1.0842e-13 5.80872e-12 0 -1.35525e-13 1.01609e-11 0 0 0 0)
(-8.13152e-14 -7.05523e-12 0 -5.42101e-14 -2.15019e-12 0 0 0 0)
(-5.42101e-14 1.53365e-12 0 -8.13152e-14 5.08155e-13 0 0 0 0)
(-5.42101e-14 -3.57145e-13 0 2.71051e-14 -1.16201e-13 0 0 0 0)
(0 6.64938e-14 0 5.42101e-14 1.35308e-14 0 0 0 0)
(-2.71051e-14 -2.51657e-14 0 2.71051e-14 -2.43466e-14 0 0 0 0)
(8.13152e-14 6.00993e-15 0 8.13152e-14 -3.90395e-14 0 0 0 0)
(5.42101e-14 5.56185e-15 0 5.42101e-14 -1.66343e-14 0 0 0 0)
(2.71051e-14 1.23942e-14 0 0 1.13008e-14 0 0 0 0)
(-2.71051e-14 9.09164e-15 0 5.42101e-14 4.07527e-17 0 0 0 0)
(2.71051e-14 1.75356e-14 0 2.71051e-14 -7.48175e-15 0 0 0 0)
(0 1.36184e-14 0 5.42101e-14 -3.82413e-15 0 0 0 0)
(-2.71051e-14 -1.99334e-14 0 5.42101e-14 1.1176e-14 0 0 0 0)
(-2.71051e-14 -3.30031e-14 0 1.0842e-13 1.66004e-14 0 0 0 0)
(0 -2.03637e-14 0 1.0842e-13 7.82489e-16 0 0 0 0)
(2.71051e-14 5.73573e-15 0 5.42101e-14 -5.45123e-16 0 0 0 0)
(-2.71051e-14 3.04267e-14 0 2.71051e-14 9.42395e-15 0 0 0 0)
(0 9.27064e-15 0 0 1.11767e-14 0 0 0 0)
(0 -2.23001e-14 0 2.71051e-14 3.10036e-15 0 0 0 0)
(-2.71051e-14 1.46383e-14 0 2.71051e-14 -2.37422e-16 0 0 0 0)
(-1.0842e-12 -1.01866e-12 0 2.35814e-12 -9.67061e-12 0 0 0 0)
(1.0571e-12 1.20927e-12 0 -4.33681e-13 2.04453e-12 0 0 0 0)
(-1.89735e-13 -2.5397e-13 0 1.89735e-13 -4.77671e-13 0 0 0 0)
(2.1684e-13 5.5458e-14 0 5.42101e-14 9.98486e-14 0 0 0 0)
(-2.71051e-14 -1.83053e-14 0 5.42101e-14 -2.01064e-14 0 0 0 0)
(0 -1.03095e-14 0 1.0842e-13 1.65872e-14 0 0 0 0)
(0 5.21004e-15 0 5.42101e-14 5.0691e-15 0 0 0 0)
(-5.42101e-14 3.24403e-14 0 2.71051e-14 4.11899e-16 0 0 0 0)
(0 1.76706e-14 0 0 1.26966e-15 0 0 0 0)
(5.42101e-14 -1.40587e-14 0 0 3.38607e-15 0 0 0 0)
(-5.42101e-14 -1.20486e-14 0 0 1.10017e-15 0 0 0 0)
(5.42101e-14 3.10722e-15 0 -5.42101e-14 -2.95963e-14 0 0 0 0)
(5.42101e-14 2.62916e-15 0 -5.42101e-14 -2.75746e-14 0 0 0 0)
(0 -5.70014e-15 0 0 -1.05235e-15 0 0 0 0)
(0 2.66935e-15 0 -2.71051e-14 1.95774e-14 0 0 0 0)
(-2.71051e-14 1.81083e-14 0 -5.42101e-14 2.15763e-14 0 0 0 0)
(-8.13152e-14 1.06615e-14 0 -8.13152e-14 6.59589e-15 0 0 0 0)
(5.42101e-14 -1.22812e-14 0 0 -1.1177e-14 0 0 0 0)
(2.71051e-14 -2.13723e-14 0 0 1.52103e-15 0 0 0 0)
(-2.71051e-14 9.48094e-15 0 2.71051e-14 1.39623e-14 0 0 0 0)
(2.03288e-12 -1.81737e-12 0 -7.58942e-13 3.22335e-12 0 0 0 0)
(-2.24972e-12 2.13772e-12 0 3.52366e-13 -6.26649e-13 0 0 0 0)
(4.06576e-13 -4.11032e-13 0 8.13152e-14 1.46345e-13 0 0 0 0)
(-1.6263e-13 1.00419e-13 0 5.42101e-14 -2.77461e-14 0 0 0 0)
(5.42101e-14 -1.67676e-14 0 2.71051e-14 2.70521e-15 0 0 0 0)
(0 9.82961e-18 0 2.71051e-14 2.47519e-15 0 0 0 0)
(0 -1.01654e-14 0 5.42101e-14 1.94111e-14 0 0 0 0)
(-2.71051e-14 1.76241e-15 0 5.42101e-14 5.90749e-15 0 0 0 0)
(0 1.53684e-14 0 5.42101e-14 -1.1841e-14 0 0 0 0)
(2.71051e-14 8.92215e-15 0 2.71051e-14 1.03602e-15 0 0 0 0)
(-2.71051e-14 -1.54468e-14 0 5.42101e-14 2.55429e-14 0 0 0 0)
(-2.71051e-14 -1.50564e-14 0 5.42101e-14 2.19398e-14 0 0 0 0)
(-2.71051e-14 8.61057e-15 0 5.42101e-14 1.65163e-14 0 0 0 0)
(0 1.41489e-14 0 -2.71051e-14 1.36998e-14 0 0 0 0)
(-5.42101e-14 2.26491e-15 0 0 1.83988e-14 0 0 0 0)
(0 -7.24582e-15 0 0 2.93842e-15 0 0 0 0)
(5.42101e-14 -2.32654e-15 0 5.42101e-14 -1.20431e-14 0 0 0 0)
(5.42101e-14 4.19578e-15 0 0 -1.32036e-14 0 0 0 0)
(0 2.8392e-15 0 0 1.37095e-15 0 0 0 0)
(-5.42101e-14 -8.45002e-16 0 -2.71051e-14 1.29902e-14 0 0 0 0)
(-1.46367e-12 1.57803e-12 0 -9.21572e-13 1.50596e-12 0 0 0 0)
(1.89735e-12 -1.86773e-12 0 5.42101e-14 -2.38507e-13 0 0 0 0)
(-4.33681e-13 3.44933e-13 0 -1.35525e-13 9.32481e-14 0 0 0 0)
(1.0842e-13 -8.81819e-14 0 -2.71051e-14 1.53936e-14 0 0 0 0)
(-5.42101e-14 1.1916e-14 0 -1.35525e-13 2.27766e-14 0 0 0 0)
(2.71051e-14 6.39632e-15 0 -1.35525e-13 3.18949e-15 0 0 0 0)
(2.71051e-14 8.64233e-15 0 -1.0842e-13 7.42891e-15 0 0 0 0)
(-2.71051e-14 1.18825e-15 0 -8.13152e-14 1.69348e-14 0 0 0 0)
(-2.71051e-14 1.27991e-14 0 -1.0842e-13 5.04777e-15 0 0 0 0)
(2.71051e-14 2.33252e-14 0 -1.35525e-13 -1.12449e-14 0 0 0 0)
(0 8.85513e-15 0 -8.13152e-14 -7.96027e-15 0 0 0 0)
(-2.71051e-14 -5.91938e-15 0 -1.0842e-13 8.95979e-15 0 0 0 0)
(0 -5.61085e-15 0 -5.42101e-14 1.42497e-14 0 0 0 0)
(0 -3.8176e-15 0 -2.71051e-14 1.2365e-14 0 0 0 0)
(0 -8.09198e-15 0 0 8.13242e-15 0 0 0 0)
(-2.71051e-14 -1.23336e-14 0 0 1.28405e-14 0 0 0 0)
(-2.71051e-14 -5.48054e-15 0 0 8.10652e-15 0 0 0 0)
(0 1.13284e-15 0 -5.42101e-14 -9.28471e-15 0 0 0 0)
(0 4.82151e-15 0 -2.71051e-14 -4.37714e-15 0 0 0 0)
(0 -4.88019e-15 0 0 2.91602e-15 0 0 0 0)
(1.13841e-12 -5.49917e-13 0 4.33681e-13 -1.37579e-12 0 0 0 0)
(-1.43657e-12 7.25002e-13 0 -3.25261e-13 2.10369e-13 0 0 0 0)
(3.25261e-13 -1.57131e-13 0 -8.13152e-14 -5.67858e-14 0 0 0 0)
(-1.6263e-13 2.99476e-14 0 -8.13152e-14 1.32823e-14 0 0 0 0)
(0 -2.89717e-14 0 0 1.19783e-14 0 0 0 0)
(-5.42101e-14 -1.53378e-14 0 0 6.84353e-15 0 0 0 0)
(5.42101e-14 3.57998e-15 0 -5.42101e-14 -5.51606e-15 0 0 0 0)
(0 -6.18734e-16 0 -5.42101e-14 5.02468e-15 0 0 0 0)
(-5.42101e-14 -1.28113e-14 0 0 3.07033e-15 0 0 0 0)
(0 -4.08589e-15 0 0 -1.66648e-14 0 0 0 0)
(5.42101e-14 4.75789e-15 0 -5.42101e-14 -3.10961e-14 0 0 0 0)
(5.42101e-14 7.15358e-15 0 0 -2.22083e-14 0 0 0 0)
(2.71051e-14 1.20158e-14 0 0 -1.2761e-14 0 0 0 0)
(0 8.03166e-15 0 0 -7.78097e-15 0 0 0 0)
(0 2.74034e-15 0 0 -1.04932e-14 0 0 0 0)
(0 -7.27172e-15 0 0 -2.50426e-15 0 0 0 0)
(0 -2.44517e-14 0 0 -2.57654e-15 0 0 0 0)
(5.42101e-14 -8.28788e-15 0 0 -1.52925e-14 0 0 0 0)
(2.71051e-14 1.50399e-14 0 0 -8.44835e-15 0 0 0 0)
(-2.71051e-14 6.16124e-16 0 2.71051e-14 -3.18191e-15 0 0 0 0)
(-1.30104e-12 4.12615e-13 0 -1.89735e-13 -5.32219e-13 0 0 0 0)
(1.35525e-12 -5.48726e-13 0 2.43945e-13 1.00304e-13 0 0 0 0)
(-1.89735e-13 1.47847e-13 0 8.13152e-14 -8.58272e-14 0 0 0 0)
(1.6263e-13 -1.94178e-14 0 5.42101e-14 -3.0719e-14 0 0 0 0)
(2.71051e-14 5.47724e-15 0 1.0842e-13 -2.24203e-14 0 0 0 0)
(0 -1.1098e-14 0 1.0842e-13 1.15505e-14 0 0 0 0)
(0 6.82348e-15 0 1.0842e-13 1.24894e-14 0 0 0 0)
(0 9.77464e-15 0 8.13152e-14 7.42675e-15 0 0 0 0)
(0 -8.89041e-15 0 5.42101e-14 2.09522e-15 0 0 0 0)
(0 -1.08412e-14 0 5.42101e-14 2.69887e-15 0 0 0 0)
(2.71051e-14 3.31161e-15 0 8.13152e-14 -3.60527e-15 0 0 0 0)
(-2.71051e-14 1.24157e-14 0 5.42101e-14 5.77023e-15 0 0 0 0)
(-2.71051e-14 8.81651e-15 0 2.71051e-14 6.9398e-15 0 0 0 0)
(-2.71051e-14 -1.54982e-15 0 0 2.04608e-15 0 0 0 0)
(2.71051e-14 -2.81527e-15 0 2.71051e-14 -2.12415e-15 0 0 0 0)
(0 -4.41685e-15 0 2.71051e-14 -1.24837e-14 0 0 0 0)
(-2.71051e-14 -1.82688e-14 0 5.42101e-14 5.16036e-15 0 0 0 0)
(-5.42101e-14 -4.73897e-15 0 5.42101e-14 2.04986e-14 0 0 0 0)
(5.42101e-14 1.69321e-14 0 -5.42101e-14 -4.91788e-15 0 0 0 0)
(0 6.75006e-15 0 -2.71051e-14 -9.96371e-15 0 0 0 0)
(1.16552e-12 -9.81832e-13 0 -5.14996e-13 4.61304e-13 0 0 0 0)
(-1.16552e-12 1.17139e-12 0 1.35525e-13 -1.80439e-13 0 0 0 0)
(1.6263e-13 -2.88154e-13 0 0 5.56949e-14 0 0 0 0)
(-1.0842e-13 9.33544e-14 0 0 -1.25131e-14 0 0 0 0)
(0 1.32979e-14 0 -5.42101e-14 6.26932e-16 0 0 0 0)
(-2.71051e-14 1.95719e-14 0 -5.42101e-14 4.84524e-15 0 0 0 0)
(-2.71051e-14 -5.43813e-16 0 -1.0842e-13 1.43876e-14 0 0 0 0)
(-5.42101e-14 -1.10129e-14 0 -2.71051e-14 4.27034e-15 0 0 0 0)
(0 -1.75392e-14 0 0 -1.2264e-15 0 0 0 0)
(0 -9.78638e-15 0 0 1.11126e-14 0 0 0 0)
(-2.71051e-14 7.82924e-15 0 -8.13152e-14 1.32105e-14 0 0 0 0)
(2.71051e-14 1.76987e-14 0 -8.13152e-14 -7.75743e-17 0 0 0 0)
(5.42101e-14 8.29166e-15 0 -8.13152e-14 -2.18325e-14 0 0 0 0)
(0 -1.03229e-15 0 -5.42101e-14 -1.54624e-14 0 0 0 0)
(0 -1.17894e-14 0 -2.71051e-14 -6.03756e-15 0 0 0 0)
(2.71051e-14 1.27871e-17 0 -2.71051e-14 -7.99133e-15 0 0 0 0)
(0 8.53059e-15 0 -1.0842e-13 -2.24548e-15 0 0 0 0)
(-2.71051e-14 -1.83661e-14 0 2.71051e-14 1.74149e-14 0 0 0 0)
(0 -1.54224e-14 0 5.42101e-14 2.94989e-15 0 0 0 0)
(0 1.54977e-14 0 -2.71051e-14 -3.2262e-15 0 0 0 0)
(-1.68051e-12 6.93479e-13 0 1.70762e-12 1.13858e-12 0 0 0 0)
(1.87025e-12 -9.54335e-13 0 -3.25261e-13 -2.19968e-13 0 0 0 0)
(-3.79471e-13 3.15773e-13 0 1.0842e-13 7.74853e-14 0 0 0 0)
(1.35525e-13 -7.44857e-14 0 5.42101e-14 8.93112e-15 0 0 0 0)
(-2.71051e-14 2.28356e-14 0 2.71051e-14 4.85839e-15 0 0 0 0)
(2.71051e-14 2.66268e-15 0 2.71051e-14 -2.30871e-14 0 0 0 0)
(0 6.24859e-15 0 5.42101e-14 -1.70326e-14 0 0 0 0)
(8.13152e-14 -5.83938e-15 0 5.42101e-14 -6.7253e-15 0 0 0 0)
(-2.71051e-14 -2.04813e-15 0 5.42101e-14 1.00197e-14 0 0 0 0)
(0 3.59569e-15 0 2.71051e-14 1.98588e-14 0 0 0 0)
(-8.13152e-14 -7.87858e-15 0 5.42101e-14 3.1136e-14 0 0 0 0)
(0 -2.26273e-14 0 8.13152e-14 -2.35079e-15 0 0 0 0)
(0 -6.56833e-15 0 8.13152e-14 -2.34544e-14 0 0 0 0)
(2.71051e-14 1.42451e-14 0 5.42101e-14 -2.38069e-14 0 0 0 0)
(5.42101e-14 4.65581e-15 0 5.42101e-14 -1.37356e-14 0 0 0 0)
(-5.42101e-14 -6.24765e-16 0 2.71051e-14 1.04471e-14 0 0 0 0)
(0 7.13748e-15 0 0 -8.89476e-15 0 0 0 0)
(5.42101e-14 4.56402e-16 0 0 -1.36999e-14 0 0 0 0)
(0 -3.70904e-15 0 2.71051e-14 1.29918e-14 0 0 0 0)
(0 7.02637e-15 0 2.71051e-14 1.29995e-14 0 0 0 0)
(2.54788e-12 -6.32163e-14 0 -3.25261e-13 -7.96981e-13 0 0 0 0)
(-2.76472e-12 1.10295e-13 0 0 3.11216e-13 0 0 0 0)
(5.42101e-13 -5.92548e-14 0 -5.42101e-14 -6.07828e-14 0 0 0 0)
(-2.1684e-13 2.07276e-14 0 -5.42101e-14 2.67898e-14 0 0 0 0)
(0 -1.87203e-14 0 2.71051e-14 8.56169e-15 0 0 0 0)
(-5.42101e-14 -2.31908e-15 0 -2.71051e-14 1.19362e-14 0 0 0 0)
(0 1.5818e-14 0 -5.42101e-14 -5.16028e-15 0 0 0 0)
(2.71051e-14 1.60394e-14 0 -1.0842e-13 -5.14445e-15 0 0 0 0)
(-2.71051e-14 9.04488e-15 0 -5.42101e-14 1.10048e-15 0 0 0 0)
(0 1.13299e-14 0 -8.13152e-14 -6.8091e-15 0 0 0 0)
(2.71051e-14 -1.43803e-14 0 -5.42101e-14 -8.55601e-15 0 0 0 0)
(2.71051e-14 -3.68917e-14 0 5.42101e-14 -2.18953e-15 0 0 0 0)
(-2.71051e-14 -1.31645e-14 0 -2.71051e-14 2.3776e-14 0 0 0 0)
(0 8.68647e-15 0 0 1.75012e-14 0 0 0 0)
(-2.71051e-14 2.24646e-14 0 -1.0842e-13 4.9597e-15 0 0 0 0)
(0 4.85363e-15 0 -8.13152e-14 2.40101e-15 0 0 0 0)
(-2.71051e-14 -1.56164e-14 0 0 5.41135e-15 0 0 0 0)
(2.71051e-14 3.52041e-15 0 -2.71051e-14 -8.70407e-17 0 0 0 0)
(0 1.1277e-14 0 -8.13152e-14 5.703e-15 0 0 0 0)
(-5.42101e-14 -1.04936e-14 0 -2.71051e-14 6.39097e-15 0 0 0 0)
(-2.00577e-12 2.07714e-13 0 -1.38236e-12 -1.6373e-12 0 0 0 0)
(2.11419e-12 -2.18137e-13 0 2.1684e-13 2.99443e-13 0 0 0 0)
(-3.79471e-13 3.13469e-14 0 -1.35525e-13 -5.5543e-14 0 0 0 0)
(1.89735e-13 -5.14128e-15 0 -5.42101e-14 -1.6705e-15 0 0 0 0)
(0 7.98193e-15 0 -1.0842e-13 -6.82061e-15 0 0 0 0)
(0 -1.10593e-14 0 0 2.1149e-14 0 0 0 0)
(-5.42101e-14 -1.0832e-14 0 5.42101e-14 9.0988e-15 0 0 0 0)
(0 4.21375e-16 0 0 -3.32288e-15 0 0 0 0)
(5.42101e-14 -3.71279e-15 0 0 -5.84585e-15 0 0 0 0)
(-5.42101e-14 -6.0608e-15 0 0 -9.33494e-15 0 0 0 0)
(5.42101e-14 -3.25901e-15 0 0 -3.47796e-14 0 0 0 0)
(0 9.70467e-15 0 -5.42101e-14 -1.41034e-14 0 0 0 0)
(0 1.31224e-14 0 -5.42101e-14 1.21823e-14 0 0 0 0)
(0 -4.57119e-15 0 2.71051e-14 1.32517e-14 0 0 0 0)
(-5.42101e-14 -1.04444e-14 0 5.42101e-14 4.53739e-15 0 0 0 0)
(5.42101e-14 -1.73114e-16 0 5.42101e-14 -1.76384e-14 0 0 0 0)
(0 4.64943e-15 0 5.42101e-14 1.26447e-15 0 0 0 0)
(0 7.48058e-16 0 2.71051e-14 5.26684e-15 0 0 0 0)
(2.71051e-14 2.76897e-15 0 0 -1.0491e-14 0 0 0 0)
(5.42101e-14 -5.0676e-15 0 0 -1.10882e-14 0 0 0 0)
(1.38236e-12 -1.40107e-12 0 7.58942e-13 3.00289e-12 0 0 0 0)
(-1.46367e-12 1.69205e-12 0 -1.6263e-13 -6.213e-13 0 0 0 0)
(2.43945e-13 -3.60369e-13 0 2.71051e-14 1.12456e-13 0 0 0 0)
(-1.35525e-13 6.945e-14 0 0 -4.15839e-14 0 0 0 0)
(2.71051e-14 4.09919e-15 0 -2.71051e-14 -1.43518e-14 0 0 0 0)
(2.71051e-14 1.36003e-14 0 -5.42101e-14 -1.21293e-14 0 0 0 0)
(0 -8.65395e-15 0 2.71051e-14 1.84105e-15 0 0 0 0)
(-2.71051e-14 1.09475e-15 0 0 -6.79337e-16 0 0 0 0)
(0 3.03282e-15 0 2.71051e-14 5.4831e-15 0 0 0 0)
(0 -1.76039e-14 0 8.13152e-14 1.05568e-14 0 0 0 0)
(0 -1.91487e-14 0 1.0842e-13 5.27352e-15 0 0 0 0)
(0 1.00703e-14 0 0 2.22198e-15 0 0 0 0)
(0 1.41907e-14 0 0 -7.4705e-15 0 0 0 0)
(5.42101e-14 1.04153e-15 0 0 -3.20177e-15 0 0 0 0)
(2.71051e-14 -8.42552e-15 0 5.42101e-14 1.65565e-14 0 0 0 0)
(-5.42101e-14 1.58071e-15 0 0 1.5973e-14 0 0 0 0)
(-2.71051e-14 7.28883e-15 0 0 5.1234e-15 0 0 0 0)
(-2.71051e-14 -8.2351e-15 0 -2.71051e-14 -2.0669e-15 0 0 0 0)
(0 -5.07805e-15 0 5.42101e-14 -4.69097e-15 0 0 0 0)
(-2.71051e-14 1.10857e-14 0 2.71051e-14 -7.59891e-15 0 0 0 0)
(-1.40946e-12 2.5893e-12 0 -1.0842e-12 -7.26203e-13 0 0 0 0)
(1.35525e-12 -3.10857e-12 0 1.35525e-13 1.20104e-13 0 0 0 0)
(-2.1684e-13 6.11063e-13 0 -2.1684e-13 -5.48542e-14 0 0 0 0)
(1.35525e-13 -1.31949e-13 0 -2.71051e-14 1.00479e-14 0 0 0 0)
(-5.42101e-14 3.74365e-14 0 -5.42101e-14 3.0516e-16 0 0 0 0)
(5.42101e-14 5.13356e-15 0 -2.71051e-14 -1.66498e-14 0 0 0 0)
(0 6.17925e-16 0 -8.13152e-14 -1.49853e-14 0 0 0 0)
(5.42101e-14 4.06343e-15 0 -2.71051e-14 -2.22067e-14 0 0 0 0)
(2.71051e-14 7.52339e-15 0 -8.13152e-14 -1.80939e-14 0 0 0 0)
(0 -6.27038e-15 0 -8.13152e-14 -2.39659e-14 0 0 0 0)
(5.42101e-14 -1.15939e-14 0 -5.42101e-14 -4.31271e-15 0 0 0 0)
(-8.13152e-14 -3.03935e-15 0 0 1.79277e-14 0 0 0 0)
(0 7.69867e-15 0 0 1.19353e-14 0 0 0 0)
(2.71051e-14 1.94558e-14 0 -1.0842e-13 5.31625e-15 0 0 0 0)
(-2.71051e-14 8.73038e-15 0 -1.0842e-13 3.09199e-15 0 0 0 0)
(-5.42101e-14 -1.16062e-14 0 -8.13152e-14 4.09607e-15 0 0 0 0)
(5.42101e-14 -1.33905e-14 0 -5.42101e-14 -1.55707e-14 0 0 0 0)
(8.13152e-14 -9.06631e-15 0 0 -1.40766e-14 0 0 0 0)
(2.71051e-14 -2.76304e-15 0 0 -6.53337e-16 0 0 0 0)
(-2.71051e-14 7.22229e-15 0 -2.71051e-14 2.32627e-15 0 0 0 0)
(4.06576e-13 -2.00717e-12 0 4.60786e-13 -3.54354e-12 0 0 0 0)
(-5.42101e-13 2.3634e-12 0 5.42101e-14 6.47398e-13 0 0 0 0)
(5.42101e-14 -4.70425e-13 0 1.89735e-13 -1.4016e-13 0 0 0 0)
(0 1.24609e-13 0 0 3.13033e-14 0 0 0 0)
(0 -2.25986e-14 0 8.13152e-14 9.05083e-16 0 0 0 0)
(0 -1.69009e-15 0 0 -1.16299e-14 0 0 0 0)
(0 -1.42108e-14 0 5.42101e-14 -1.64031e-14 0 0 0 0)
(2.71051e-14 -2.01383e-15 0 8.13152e-14 -6.20076e-15 0 0 0 0)
(0 1.27364e-15 0 5.42101e-14 -7.69951e-15 0 0 0 0)
(0 -3.82278e-15 0 5.42101e-14 -1.10035e-14 0 0 0 0)
(5.42101e-14 2.27449e-14 0 0 -3.25658e-16 0 0 0 0)
(0 2.63183e-14 0 0 1.27615e-14 0 0 0 0)
(-5.42101e-14 1.57917e-15 0 5.42101e-14 9.58797e-15 0 0 0 0)
(-2.71051e-14 -7.80179e-15 0 2.71051e-14 -3.59324e-15 0 0 0 0)
(2.71051e-14 -9.64569e-15 0 5.42101e-14 -2.49404e-14 0 0 0 0)
(5.42101e-14 -1.70819e-14 0 8.13152e-14 -2.55405e-14 0 0 0 0)
(0 -1.08839e-14 0 8.13152e-14 -1.96438e-14 0 0 0 0)
(0 6.68223e-15 0 2.71051e-14 -3.65171e-16 0 0 0 0)
(0 1.13248e-14 0 2.71051e-14 6.16522e-15 0 0 0 0)
(0 9.41275e-15 0 2.71051e-14 6.27348e-15 0 0 0 0)
(-8.94467e-13 -3.06841e-13 0 8.13152e-14 5.30198e-12 0 0 0 0)
(1.0842e-12 2.94813e-13 0 -5.42101e-14 -1.02645e-12 0 0 0 0)
(-2.71051e-13 -5.0315e-15 0 2.71051e-14 2.38146e-13 0 0 0 0)
(2.71051e-14 9.11609e-15 0 0 -5.48353e-14 0 0 0 0)
(0 -5.49668e-15 0 0 -7.58657e-17 0 0 0 0)
(5.42101e-14 -1.21746e-14 0 2.71051e-14 -1.86477e-14 0 0 0 0)
(5.42101e-14 6.04703e-15 0 -5.42101e-14 -7.97459e-15 0 0 0 0)
(-2.71051e-14 1.2767e-14 0 0 1.3834e-14 0 0 0 0)
(0 2.72069e-15 0 -5.42101e-14 8.61015e-15 0 0 0 0)
(-2.71051e-14 1.10347e-15 0 -5.42101e-14 1.95347e-14 0 0 0 0)
(-5.42101e-14 1.21711e-14 0 -8.13152e-14 2.42741e-14 0 0 0 0)
(0 6.87427e-15 0 -5.42101e-14 -4.39063e-15 0 0 0 0)
(5.42101e-14 -8.65606e-15 0 -5.42101e-14 -2.28157e-14 0 0 0 0)
(2.71051e-14 -1.50725e-14 0 0 -2.43508e-14 0 0 0 0)
(2.71051e-14 -1.32169e-14 0 0 -1.60784e-14 0 0 0 0)
(-2.71051e-14 -6.30971e-15 0 5.42101e-14 -3.45513e-15 0 0 0 0)
(2.71051e-14 1.17849e-14 0 -2.71051e-14 8.18707e-15 0 0 0 0)
(0 1.67427e-14 0 -2.71051e-14 1.01335e-14 0 0 0 0)
(-2.71051e-14 3.87561e-15 0 -2.71051e-14 6.60164e-15 0 0 0 0)
(-2.71051e-14 -5.21642e-15 0 0 6.79432e-15 0 0 0 0)
(4.33681e-13 2.26836e-12 0 9.21572e-13 6.75274e-13 0 0 0 0)
(-5.69206e-13 -2.70043e-12 0 -2.43945e-13 -1.36511e-13 0 0 0 0)
(8.13152e-14 5.01186e-13 0 0 1.53232e-14 0 0 0 0)
(-2.71051e-14 -1.13612e-13 0 8.13152e-14 -1.74692e-14 0 0 0 0)
(0 1.35891e-14 0 8.13152e-14 -9.90548e-15 0 0 0 0)
(0 -9.58882e-15 0 5.42101e-14 -4.99606e-15 0 0 0 0)
(0 1.82709e-14 0 5.42101e-14 -1.2612e-15 0 0 0 0)
(0 1.45709e-14 0 0 -9.80152e-15 0 0 0 0)
(0 6.97429e-15 0 0 -1.59183e-14 0 0 0 0)
(0 1.18412e-14 0 5.42101e-14 -4.70078e-16 0 0 0 0)
(0 -1.18039e-15 0 8.13152e-14 8.71461e-16 0 0 0 0)
(2.71051e-14 -2.07715e-14 0 8.13152e-14 -1.34779e-14 0 0 0 0)
(-2.71051e-14 -1.83809e-14 0 5.42101e-14 -1.4311e-14 0 0 0 0)
(0 -1.06444e-15 0 0 -1.56796e-14 0 0 0 0)
(8.13152e-14 1.12499e-14 0 0 -1.03575e-14 0 0 0 0)
(0 7.1835e-15 0 -5.42101e-14 1.58821e-15 0 0 0 0)
(-5.42101e-14 2.70471e-15 0 0 3.44296e-15 0 0 0 0)
(0 5.09679e-15 0 0 -4.21064e-15 0 0 0 0)
(5.42101e-14 7.98571e-15 0 0 -2.19071e-15 0 0 0 0)
(0 -3.9832e-15 0 0 1.41507e-15 0 0 0 0)
(-1.89735e-13 2.31922e-13 0 2.1684e-13 -8.23673e-12 0 0 0 0)
(1.0842e-13 -3.65138e-13 0 1.89735e-13 1.59743e-12 0 0 0 0)
(8.13152e-14 1.1401e-13 0 2.43945e-13 -3.71563e-13 0 0 0 0)
(5.42101e-14 -1.61126e-14 0 1.0842e-13 7.57758e-14 0 0 0 0)
(2.71051e-14 6.97646e-15 0 1.0842e-13 -1.54959e-14 0 0 0 0)
(0 -3.53036e-15 0 1.35525e-13 1.39655e-14 0 0 0 0)
(0 1.24158e-15 0 8.13152e-14 1.02107e-14 0 0 0 0)
(-2.71051e-14 -1.8901e-15 0 1.0842e-13 4.97095e-16 0 0 0 0)
(0 1.20521e-14 0 1.35525e-13 -2.14975e-15 0 0 0 0)
(2.71051e-14 1.78933e-14 0 5.42101e-14 1.04917e-15 0 0 0 0)
(-2.71051e-14 -8.36718e-16 0 1.0842e-13 -2.23908e-15 0 0 0 0)
(0 -8.30818e-15 0 5.42101e-14 -7.41095e-16 0 0 0 0)
(0 -1.08578e-14 0 8.13152e-14 1.04044e-14 0 0 0 0)
(-2.71051e-14 -1.1119e-14 0 1.0842e-13 1.50105e-14 0 0 0 0)
(-2.71051e-14 4.05095e-15 0 5.42101e-14 5.96505e-15 0 0 0 0)
(2.71051e-14 7.49076e-15 0 2.71051e-14 -6.08399e-15 0 0 0 0)
(0 5.98602e-15 0 2.71051e-14 -4.34555e-15 0 0 0 0)
(0 1.11091e-14 0 -5.42101e-14 8.37358e-15 0 0 0 0)
(0 9.50132e-15 0 0 8.37911e-15 0 0 0 0)
(-2.71051e-14 -4.44078e-15 0 0 -2.47436e-16 0 0 0 0)
(8.13152e-13 -4.37094e-12 0 -6.50521e-13 5.06053e-12 0 0 0 0)
(-5.69206e-13 5.16474e-12 0 0 -9.21507e-13 0 0 0 0)
(5.42101e-14 -1.02046e-12 0 -1.89735e-13 2.60932e-13 0 0 0 0)
(-1.0842e-13 2.42455e-13 0 -1.0842e-13 -1.5053e-14 0 0 0 0)
(0 -4.82212e-14 0 -1.35525e-13 3.45893e-14 0 0 0 0)
(-2.71051e-14 1.61178e-14 0 -1.35525e-13 2.61918e-14 0 0 0 0)
(-2.71051e-14 4.80245e-15 0 -8.13152e-14 2.20019e-14 0 0 0 0)
(0 2.2105e-15 0 -1.0842e-13 2.01478e-14 0 0 0 0)
(-5.42101e-14 7.52636e-15 0 -8.13152e-14 2.16815e-14 0 0 0 0)
(0 1.17519e-14 0 -5.42101e-14 5.69267e-16 0 0 0 0)
(2.71051e-14 -2.97065e-15 0 -1.0842e-13 -7.96361e-15 0 0 0 0)
(0 -8.12802e-15 0 -8.13152e-14 4.37663e-15 0 0 0 0)
(-2.71051e-14 -2.62931e-15 0 -8.13152e-14 8.47258e-15 0 0 0 0)
(-2.71051e-14 -5.50383e-15 0 -5.42101e-14 1.78638e-14 0 0 0 0)
(0 -9.84461e-15 0 -5.42101e-14 2.50954e-14 0 0 0 0)
(-2.71051e-14 -3.12711e-15 0 -2.71051e-14 2.36574e-14 0 0 0 0)
(-8.13152e-14 1.71623e-14 0 -2.71051e-14 2.07318e-14 0 0 0 0)
(0 1.78215e-14 0 5.42101e-14 5.09114e-16 0 0 0 0)
(5.42101e-14 -6.35312e-16 0 0 -8.19876e-15 0 0 0 0)
(0 -1.21149e-14 0 -2.71051e-14 -8.3569e-15 0 0 0 0)
)
;

boundaryField
{
    movingWall
    {
        type            extrapolatedCalculated;
        value           nonuniform List<tensor> 
20
(
(8.13152e-13 -4.37094e-12 0 -3.24185e-12 2.17221e-11 0 0 0 0)
(-5.69206e-13 5.16474e-12 0 -8.88178e-14 -4.23829e-12 0 0 0 0)
(5.42101e-14 -1.02046e-12 0 -8.88178e-13 1.06313e-12 0 0 0 0)
(-1.0842e-13 2.42455e-13 0 -2.66454e-13 -1.56438e-13 0 0 0 0)
(0 -4.82212e-14 0 -3.9968e-13 9.33087e-14 0 0 0 0)
(-2.71051e-14 1.61178e-14 0 -3.55271e-13 3.64473e-14 0 0 0 0)
(-2.71051e-14 4.80245e-15 0 -2.22045e-13 2.88376e-14 0 0 0 0)
(0 2.2105e-15 0 -2.66454e-13 1.72375e-14 0 0 0 0)
(-5.42101e-14 7.52636e-15 0 -2.66454e-13 1.99956e-14 0 0 0 0)
(0 1.17519e-14 0 -1.33227e-13 -1.2868e-14 0 0 0 0)
(2.71051e-14 -2.97065e-15 0 -2.22045e-13 -2.70119e-14 0 0 0 0)
(0 -8.12802e-15 0 -2.22045e-13 -9.85399e-16 0 0 0 0)
(-2.71051e-14 -2.62931e-15 0 -2.66454e-13 5.50019e-15 0 0 0 0)
(-2.71051e-14 -5.50383e-15 0 -1.33227e-13 9.53184e-15 0 0 0 0)
(0 -9.84461e-15 0 -1.33227e-13 2.75155e-14 0 0 0 0)
(-2.71051e-14 -3.12711e-15 0 -4.44089e-14 4.89103e-14 0 0 0 0)
(-8.13152e-14 1.71623e-14 0 -4.44089e-14 4.0024e-14 0 0 0 0)
(0 1.78215e-14 0 1.77636e-13 -1.97389e-14 0 0 0 0)
(5.42101e-14 -6.35312e-16 0 8.88178e-14 -3.12619e-14 0 0 0 0)
(0 -1.21149e-14 0 -4.44089e-14 -1.71976e-14 0 0 0 0)
)
;
    }
    fixedWalls
    {
        type            extrapolatedCalculated;
        value           nonuniform List<tensor> 
60
(
(-1.33227e-12 2.54256e-11 0 8.40257e-13 1.10162e-11 0 0 0 0)
(4.70735e-12 1.86393e-11 0 -7.58942e-13 -1.77938e-11 0 0 0 0)
(-4.35207e-12 -4.57498e-11 0 -1.0571e-12 2.76621e-12 0 0 0 0)
(4.44089e-13 2.97041e-11 0 -1.35525e-13 1.01609e-11 0 0 0 0)
(-4.88498e-12 -5.10606e-12 0 2.35814e-12 -9.67061e-12 0 0 0 0)
(9.81437e-12 -8.97836e-12 0 -7.58942e-13 3.22335e-12 0 0 0 0)
(-7.90479e-12 7.78733e-12 0 -9.21572e-13 1.50596e-12 0 0 0 0)
(6.03961e-12 -2.95451e-12 0 4.33681e-13 -1.37579e-12 0 0 0 0)
(-6.03961e-12 2.28418e-12 0 -1.89735e-13 -5.32219e-13 0 0 0 0)
(5.37348e-12 -5.08338e-12 0 -5.14996e-13 4.61304e-13 0 0 0 0)
(-8.17124e-12 4.1294e-12 0 1.70762e-12 1.13858e-12 0 0 0 0)
(1.2168e-11 -5.2905e-13 0 -3.25261e-13 -7.96981e-13 0 0 0 0)
(-9.41469e-12 9.41472e-13 0 -1.38236e-12 -1.6373e-12 0 0 0 0)
(6.52811e-12 -7.07825e-12 0 7.58942e-13 3.00289e-12 0 0 0 0)
(-6.21725e-12 1.2953e-11 0 -1.0842e-12 -7.26203e-13 0 0 0 0)
(2.08722e-12 -9.98306e-12 0 4.60786e-13 -3.54354e-12 0 0 0 0)
(-4.35207e-12 -1.22114e-12 0 8.13152e-14 5.30198e-12 0 0 0 0)
(2.44249e-12 1.12249e-11 0 9.21572e-13 6.75274e-13 0 0 0 0)
(-7.10543e-13 1.47995e-12 0 2.1684e-13 -8.23673e-12 0 0 0 0)
(3.24185e-12 -2.17221e-11 0 -6.50521e-13 5.06053e-12 0 0 0 0)
(0 -1.58769e-14 0 0 6.89013e-15 0 0 0 0)
(8.88178e-14 -1.16836e-14 0 -5.42101e-14 -1.2737e-14 0 0 0 0)
(8.88178e-14 3.50711e-14 0 5.42101e-14 -1.63205e-14 0 0 0 0)
(-4.44089e-14 5.35986e-14 0 2.71051e-14 -2.37422e-16 0 0 0 0)
(-8.88178e-14 3.60207e-14 0 2.71051e-14 1.39623e-14 0 0 0 0)
(-8.88178e-14 -2.25059e-15 0 -2.71051e-14 1.29902e-14 0 0 0 0)
(0 -1.594e-14 0 0 2.91602e-15 0 0 0 0)
(-8.88178e-14 -1.39147e-14 0 2.71051e-14 -3.18191e-15 0 0 0 0)
(-4.44089e-14 -3.21233e-15 0 -2.71051e-14 -9.96371e-15 0 0 0 0)
(0 2.59402e-14 0 -2.71051e-14 -3.2262e-15 0 0 0 0)
(0 9.69249e-15 0 2.71051e-14 1.29995e-14 0 0 0 0)
(-8.88178e-14 -2.60579e-14 0 -2.71051e-14 6.39097e-15 0 0 0 0)
(8.88178e-14 -1.58714e-14 0 0 -1.10882e-14 0 0 0 0)
(-4.44089e-14 1.82949e-14 0 2.71051e-14 -7.59891e-15 0 0 0 0)
(-4.44089e-14 1.45243e-14 0 -2.71051e-14 2.32627e-15 0 0 0 0)
(0 8.98987e-15 0 2.71051e-14 6.27348e-15 0 0 0 0)
(-4.44089e-14 -1.05697e-14 0 0 6.79432e-15 0 0 0 0)
(0 -1.81874e-14 0 0 1.41507e-15 0 0 0 0)
(-4.44089e-14 -1.62299e-14 0 0 -2.47436e-16 0 0 0 0)
(-4.44089e-14 -1.71976e-14 0 -2.71051e-14 -8.3569e-15 0 0 0 0)
(-1.35525e-13 5.1152e-12 0 -1.33227e-12 2.54256e-11 0 0 0 0)
(4.33681e-13 -6.04888e-12 0 7.99361e-13 -4.96478e-12 0 0 0 0)
(-1.35525e-13 1.19829e-12 0 4.44089e-13 1.23007e-12 0 0 0 0)
(-5.42101e-14 -2.98186e-13 0 2.22045e-13 -1.71608e-13 0 0 0 0)
(2.71051e-14 3.20739e-14 0 1.77636e-13 3.73259e-14 0 0 0 0)
(5.42101e-14 -1.61951e-14 0 3.10862e-13 -4.3312e-14 0 0 0 0)
(0 1.19205e-14 0 3.9968e-13 -2.74544e-14 0 0 0 0)
(-2.71051e-14 1.81642e-14 0 3.10862e-13 4.36989e-15 0 0 0 0)
(0 1.27088e-14 0 3.10862e-13 4.52025e-14 0 0 0 0)
(-5.42101e-14 -1.92348e-15 0 2.66454e-13 5.52053e-14 0 0 0 0)
(-2.71051e-14 -7.09681e-15 0 1.33227e-13 3.75086e-14 0 0 0 0)
(0 6.96276e-15 0 2.22045e-13 2.6818e-14 0 0 0 0)
(-2.71051e-14 7.16549e-15 0 1.77636e-13 6.53597e-14 0 0 0 0)
(-2.71051e-14 -9.64407e-15 0 1.33227e-13 5.548e-14 0 0 0 0)
(-2.71051e-14 -1.37685e-14 0 0 2.67834e-14 0 0 0 0)
(0 -1.05868e-14 0 0 4.06156e-16 0 0 0 0)
(-5.42101e-14 -9.38221e-15 0 -8.88178e-14 -1.55638e-14 0 0 0 0)
(5.42101e-14 4.45863e-15 0 -8.88178e-14 -3.71227e-14 0 0 0 0)
(0 1.32499e-14 0 4.44089e-14 2.27076e-15 0 0 0 0)
(0 -4.53692e-15 0 0 1.58769e-14 0 0 0 0)
)
;
    }
    frontAndBack
    {
        type            empty;
    }
}


// ************************************************************************* //
