/*--------------------------------*- C++ -*----------------------------------*\
| =========                 |                                                 |
| \\      /  F ield         | OpenFOAM: The Open Source CFD Toolbox           |
|  \\    /   O peration     | Version:  2312                                  |
|   \\  /    A nd           | Website:  www.openfoam.com                      |
|    \\/     M anipulation  |                                                 |
\*---------------------------------------------------------------------------*/
FoamFile
{
    version     2.0;
    format      ascii;
    arch        "LSB;label=32;scalar=64";
    class       volScalarField;
    location    "5.375";
    object      Lambda2Field;
}
// * * * * * * * * * * * * * * * * * * * * * * * * * * * * * * * * * * * * * //

dimensions      [0 0 -2 0 0 0 0];

internalField   nonuniform List<scalar> 
400
(
4.31645e-24
1.66368e-24
5.08469e-26
-8.3975e-27
1.92025e-27
0
6.4621e-28
5.06845e-28
6.88948e-28
1.76497e-27
1.1194e-27
0
4.08676e-28
0
2.35375e-28
-6.37225e-29
7.86311e-29
2.18657e-28
0
0
0
1.69271e-24
2.85559e-27
2.59912e-26
0
8.51944e-28
0
-4.02381e-27
0
7.00786e-28
2.13053e-27
1.42001e-27
2.47449e-27
6.13079e-28
3.16889e-29
0
0
0
5.41188e-28
4.38019e-28
1.0251e-23
5.078e-24
0
1.47709e-27
0
0
7.14058e-28
0
2.37924e-27
3.84122e-28
0
-1.84682e-27
0
1.27214e-28
0
7.34684e-28
4.80995e-28
3.69036e-28
0
9.35523e-28
0
3.89077e-25
0
0
3.60464e-27
0
3.4305e-27
5.78207e-28
1.66111e-28
4.9286e-28
5.54174e-28
7.38255e-28
0
-2.84352e-27
0
3.11231e-28
9.16286e-28
0
0
3.96829e-28
0
5.93015e-25
0
1.29761e-26
0
-8.42626e-28
2.82437e-28
8.79465e-28
0
1.14655e-29
3.75026e-29
7.07498e-28
1.42551e-27
0
0
-2.46971e-28
1.29149e-27
1.24924e-28
1.16507e-28
4.51927e-28
5.51188e-24
1.14595e-24
4.85951e-26
6.21358e-27
3.40339e-29
2.66432e-31
0
1.30439e-28
8.33123e-28
2.42909e-28
0
-8.15233e-29
1.20146e-27
-1.95824e-28
3.39799e-28
0
8.18012e-28
1.74336e-28
0
1.91649e-28
6.88067e-25
0
1.96581e-26
2.62714e-27
1.32382e-27
-1.32179e-28
0
1.90166e-28
0
-2.42647e-27
0
7.22058e-28
3.04165e-28
1.03476e-28
0
1.64877e-28
7.32247e-29
0
0
0
1.05749e-24
0
1.74388e-26
0
0
4.68339e-29
6.7128e-28
3.35416e-29
5.04592e-29
0
1.57835e-27
4.9321e-28
1.98938e-28
0
0
0
0
2.3386e-28
1.27924e-28
2.68246e-29
2.95676e-25
0
2.04951e-26
0
1.32853e-27
-1.06983e-27
7.39803e-28
7.94826e-28
0
-5.8042e-28
1.00397e-27
7.0635e-28
3.70751e-28
4.18644e-30
1.5201e-28
0
0
1.63294e-28
3.71598e-28
-8.36852e-29
7.72924e-25
1.91312e-25
2.38601e-26
1.56577e-28
0
-3.26313e-28
7.93644e-28
3.16742e-28
0
0
9.80477e-29
-7.04485e-28
1.80976e-27
5.59605e-29
3.19552e-28
6.35147e-29
0
0
0
-4.09658e-28
2.73769e-24
3.58793e-25
5.09889e-26
0
6.47121e-28
6.05185e-28
3.38737e-28
0
6.23655e-28
9.74613e-29
1.5061e-27
-1.83442e-27
0
1.339e-27
1.05497e-27
9.22073e-29
0
1.87687e-28
0
1.9045e-28
6.72907e-25
9.68553e-26
6.91311e-27
0
0
2.05331e-28
0
-1.00431e-27
2.4436e-28
-8.74926e-28
1.24937e-27
-1.26522e-27
9.70705e-28
0
0
-3.88909e-28
9.02506e-29
0
0
3.25273e-28
3.0257e-24
4.23655e-26
5.79831e-27
2.815e-28
0
0
5.53202e-28
0
3.76201e-29
8.71411e-29
1.21228e-27
-3.27186e-28
0
0
4.99447e-28
3.01728e-28
2.52046e-28
2.02762e-29
1.11979e-28
1.22948e-28
8.47581e-25
1.10835e-25
4.04126e-26
1.72922e-27
3.38291e-28
-2.59186e-30
0
4.61499e-31
8.22048e-29
-1.32002e-27
0
0
0
1.02514e-29
2.77936e-28
2.55137e-28
3.9531e-29
2.27485e-28
0
3.58221e-28
0
0
0
3.67745e-27
7.04317e-29
1.38072e-28
0
3.83e-28
1.22919e-28
5.09877e-28
1.10114e-27
3.21404e-28
0
-1.37472e-27
0
9.60541e-28
1.38491e-27
1.98152e-28
2.33545e-30
0
0
4.21994e-25
0
0
0
0
0
0
6.90442e-29
-8.61575e-29
1.29439e-28
0
8.7004e-28
0
2.1179e-28
0
0
1.81122e-28
3.06961e-28
2.55133e-28
7.7512e-25
1.03761e-24
5.68351e-26
7.34684e-28
0
1.77425e-29
6.43515e-28
1.9138e-28
0
3.21784e-28
1.78446e-27
-3.53377e-28
1.5086e-27
5.92959e-28
3.02186e-28
0
1.25705e-28
-3.51126e-28
1.78483e-28
4.61627e-29
2.27854e-24
6.77393e-25
6.61216e-27
-8.5037e-27
1.105e-27
-4.9485e-28
9.90466e-28
0
0
6.41912e-28
0
-9.54357e-28
0
0
1.38918e-28
-3.86896e-28
1.36828e-29
0
2.07421e-29
0
8.62896e-26
0
3.44244e-26
1.1918e-27
1.49107e-27
-2.83417e-28
1.00959e-28
0
1.63337e-27
9.71097e-28
6.43967e-28
-4.49838e-28
0
-4.7084e-28
8.8417e-28
2.40052e-28
1.62251e-28
-5.32107e-28
0
6.12248e-32
3.50461e-24
3.23996e-25
1.96557e-25
-1.45321e-26
6.53519e-27
-1.44968e-27
3.44172e-28
0
1.83129e-27
-6.36746e-28
1.05676e-27
6.60931e-28
9.48487e-28
6.17478e-28
5.33677e-28
6.44434e-28
4.5452e-28
9.66103e-28
6.73206e-29
3.28374e-28
)
;

boundaryField
{
    movingWall
    {
        type            calculated;
        value           nonuniform List<scalar> 
20
(
1.48312e-23
0
9.09293e-25
-4.01303e-26
1.92731e-26
-4.39778e-27
0
-2.91864e-28
9.3331e-28
-1.40008e-27
1.3943e-27
1.80478e-27
1.43527e-27
8.24114e-28
1.31157e-27
8.73555e-28
1.78751e-27
3.16573e-27
2.88231e-27
5.38009e-28
)
;
    }
    fixedWalls
    {
        type            calculated;
        value           nonuniform List<scalar> 
60
(
2.3139e-23
8.01299e-24
6.73025e-23
0
1.18222e-23
1.7204e-23
1.40526e-23
6.11478e-25
1.37993e-24
2.83072e-24
9.81405e-24
8.07258e-25
2.72934e-24
3.64536e-24
2.46105e-23
0
1.88413e-23
1.08005e-23
8.25785e-25
2.46403e-23
0
7.95598e-28
2.25914e-27
1.45285e-27
1.19116e-27
2.29747e-28
0
0
3.29062e-28
-6.92702e-28
2.62715e-28
7.47144e-28
1.85923e-28
5.53629e-28
4.49806e-29
2.43671e-28
7.40922e-29
0
6.5914e-29
5.35981e-28
0
0
5.50516e-25
-3.67615e-26
6.43215e-27
-2.09571e-27
4.76438e-27
5.66567e-27
3.9507e-27
2.42622e-27
0
1.54604e-27
2.00753e-27
0
7.34684e-28
0
2.65304e-27
9.82089e-28
5.88414e-28
0
)
;
    }
    frontAndBack
    {
        type            empty;
    }
}


// ************************************************************************* //
