/*--------------------------------*- C++ -*----------------------------------*\
| =========                 |                                                 |
| \\      /  F ield         | OpenFOAM: The Open Source CFD Toolbox           |
|  \\    /   O peration     | Version:  2312                                  |
|   \\  /    A nd           | Website:  www.openfoam.com                      |
|    \\/     M anipulation  |                                                 |
\*---------------------------------------------------------------------------*/
FoamFile
{
    version     2.0;
    format      ascii;
    arch        "LSB;label=32;scalar=64";
    class       volVectorField;
    location    "5.375";
    object      LambVectorField;
}
// * * * * * * * * * * * * * * * * * * * * * * * * * * * * * * * * * * * * * //

dimensions      [0 1 -2 0 0 0 0];

internalField   nonuniform List<vector> 
400
(
(-2.71732e-25 -4.27494e-12 -4.27494e-12)
(-7.20505e-26 5.80493e-12 -0)
(-3.60161e-27 -1.17119e-12 -1.17119e-12)
(-1.51185e-28 3.52396e-13 -0)
(2.06564e-30 2.21362e-14 2.21362e-14)
(-7.62348e-30 7.04052e-14 -0)
(-2.90259e-30 4.22896e-14 4.22896e-14)
(9.76759e-32 8.94082e-15 0)
(4.68991e-30 4.15013e-14 4.15013e-14)
(4.00632e-30 2.90285e-14 0)
(-4.41789e-30 -4.71133e-14 -4.71133e-14)
(-4.66819e-31 -6.96276e-15 0)
(-1.17083e-30 -7.16549e-15 -7.16549e-15)
(5.0971e-30 3.67491e-14 0)
(9.21915e-31 1.37685e-14 1.37685e-14)
(3.82719e-32 3.76918e-14 0)
(-3.65056e-31 9.38221e-15 9.38221e-15)
(4.13791e-31 -4.45863e-15 -0)
(-7.52184e-32 -1.32499e-14 -1.32499e-14)
(1.80081e-31 4.53692e-15 0)
(-2.05383e-25 -4.40753e-12 -4.40753e-12)
(-4.47825e-26 4.42852e-12 -0)
(-2.73592e-27 -1.18284e-12 -1.18284e-12)
(-5.63246e-29 1.2453e-13 -0)
(2.27483e-30 -1.37936e-13 -1.37936e-13)
(2.08083e-29 -1.32416e-13 -0)
(9.90559e-30 -2.08165e-13 -2.08165e-13)
(-5.09512e-30 -1.87619e-13 0)
(-3.26984e-29 -1.61636e-13 -1.61636e-13)
(-2.94674e-29 -1.02224e-13 0)
(-7.73455e-30 -5.51143e-14 -5.51143e-14)
(-3.28291e-30 -1.25047e-13 0)
(-2.86461e-30 -8.05613e-14 -8.05613e-14)
(-2.09379e-30 -1.11879e-13 0)
(-4.71241e-30 -6.71781e-14 -6.71781e-14)
(-4.67533e-30 -3.15061e-14 0)
(2.32265e-30 2.03458e-14 2.03458e-14)
(-2.00181e-30 3.63544e-14 -0)
(-1.35704e-30 -6.26374e-14 -6.26374e-14)
(-1.43482e-30 -4.91227e-14 0)
(-9.11829e-25 7.97231e-12 7.97231e-12)
(-2.5112e-25 -1.04284e-11 0)
(-1.39446e-26 2.42349e-12 2.42349e-12)
(-6.60544e-28 -5.50083e-13 0)
(-3.47455e-29 1.37264e-13 1.37264e-13)
(-4.19301e-30 -4.22608e-14 0)
(9.6116e-30 5.67124e-14 5.67124e-14)
(7.36119e-30 9.92152e-14 0)
(-7.64716e-31 8.03196e-14 8.03196e-14)
(6.44512e-30 7.65913e-14 0)
(5.42037e-30 1.43709e-13 1.43709e-13)
(3.49316e-31 1.51076e-13 0)
(-1.1674e-29 9.91105e-14 9.91105e-14)
(-3.93641e-30 2.24117e-14 -0)
(3.32446e-30 -4.69199e-14 -4.69199e-14)
(-2.13073e-31 -9.46687e-15 0)
(2.52525e-32 1.06037e-15 1.06037e-15)
(-2.51731e-31 -2.11475e-14 0)
(-2.29472e-30 6.41682e-14 6.41682e-14)
(-3.67073e-30 4.18662e-14 -0)
(-4.41421e-25 -5.94424e-12 -5.94424e-12)
(-1.13228e-25 7.00102e-12 -0)
(-5.98823e-27 -1.61496e-12 -1.61496e-12)
(-3.21474e-28 3.8425e-13 -0)
(-1.67696e-30 -1.22837e-14 -1.22837e-14)
(-8.97436e-30 5.22708e-14 -0)
(-8.67051e-30 7.53052e-14 7.53052e-14)
(-5.42868e-30 4.86483e-14 -0)
(7.37701e-31 -1.23942e-14 -1.23942e-14)
(5.57298e-31 4.51185e-14 0)
(3.00449e-31 9.56944e-15 9.56944e-15)
(7.61939e-30 4.05917e-14 0)
(1.2425e-29 7.41435e-14 7.41435e-14)
(-1.64416e-30 1.41423e-13 -0)
(-2.0921e-29 1.28784e-13 1.28784e-13)
(-1.04347e-29 4.84744e-14 -0)
(3.4908e-31 -3.32162e-15 -3.32162e-15)
(-8.25124e-31 -9.27064e-15 0)
(-6.11971e-31 4.94051e-14 4.94051e-14)
(-1.6705e-30 1.24667e-14 -0)
(-4.31054e-26 3.3768e-12 3.3768e-12)
(-4.23636e-27 -1.64296e-12 0)
(-2.98348e-28 4.43705e-13 4.43705e-13)
(-4.84249e-32 -1.24792e-15 0)
(-8.54381e-30 7.25154e-14 7.25154e-14)
(-1.71266e-29 1.1873e-13 -0)
(-1.08249e-29 4.90001e-14 4.90001e-14)
(4.91631e-31 -5.3352e-15 -0)
(-1.82867e-30 -1.76706e-14 -1.76706e-14)
(1.18876e-30 1.40587e-14 0)
(-4.47001e-31 1.20486e-14 1.20486e-14)
(2.05936e-30 -5.73173e-14 -0)
(3.42605e-31 -5.68393e-14 -5.68393e-14)
(-5.4935e-32 5.70014e-15 -0)
(1.87665e-30 -2.97744e-14 -2.97744e-14)
(-1.23346e-30 -7.23184e-14 0)
(-1.08582e-29 -9.19767e-14 -9.19767e-14)
(1.51883e-30 1.22812e-14 0)
(-1.01679e-31 2.13723e-14 2.13723e-14)
(-1.58708e-30 1.76241e-14 -0)
(-2.37574e-26 1.05843e-12 1.05843e-12)
(-7.62733e-27 -1.78535e-12 0)
(-5.26189e-28 4.92347e-13 4.92347e-13)
(-7.47931e-30 -4.62089e-14 0)
(-2.83178e-30 4.38727e-14 4.38727e-14)
(-1.57632e-31 2.70952e-14 -0)
(-4.14882e-30 6.43755e-14 6.43755e-14)
(-5.63663e-30 5.24477e-14 -0)
(-1.81869e-30 3.88417e-14 3.88417e-14)
(8.40279e-31 1.81829e-14 0)
(2.95334e-30 6.96569e-14 6.96569e-14)
(-7.49844e-30 6.92665e-14 -0)
(-4.93229e-30 4.55995e-14 4.55995e-14)
(9.13747e-31 -4.1254e-14 -0)
(-7.54759e-32 -2.26491e-15 -2.26491e-15)
(3.62173e-33 7.24582e-15 0)
(-2.21252e-30 5.65366e-14 5.65366e-14)
(9.55193e-32 -4.19578e-15 -0)
(-8.01661e-33 -2.8392e-15 -2.8392e-15)
(-1.47751e-31 -2.62601e-14 0)
(-4.86632e-26 -2.49961e-12 -2.49961e-12)
(-7.08809e-27 1.92194e-12 -0)
(-3.80067e-28 -4.80458e-13 -4.80458e-13)
(-1.45764e-29 6.10768e-14 -0)
(1.3383e-29 -1.47441e-13 -1.47441e-13)
(1.69592e-29 -1.41922e-13 -0)
(3.1379e-30 -1.17063e-13 -1.17063e-13)
(2.72869e-30 -8.25034e-14 -0)
(1.80893e-30 -1.21219e-13 -1.21219e-13)
(-1.50776e-29 -1.5885e-13 0)
(-1.96868e-29 -9.01703e-14 -9.01703e-14)
(-1.88057e-29 -1.02501e-13 0)
(-7.73385e-30 -4.85993e-14 -4.85993e-14)
(-2.96589e-30 -2.32875e-14 0)
(9.78799e-31 8.09198e-15 8.09198e-15)
(5.72773e-31 1.23336e-14 0)
(-1.3024e-32 5.48054e-15 5.48054e-15)
(4.62955e-31 -5.5343e-14 -0)
(-2.85807e-31 -3.19266e-14 -3.19266e-14)
(1.94475e-31 4.88019e-15 0)
(-7.26512e-27 9.83598e-13 9.83598e-13)
(-1.98195e-27 -1.05026e-12 0)
(-1.03303e-29 7.58159e-14 7.58159e-14)
(-3.51361e-29 -1.11263e-13 0)
(4.72877e-30 2.89717e-14 2.89717e-14)
(3.99968e-31 1.53378e-14 0)
(-5.68767e-31 -5.77901e-14 -5.77901e-14)
(-3.31607e-30 -5.35914e-14 0)
(4.68203e-32 1.28113e-14 1.28113e-14)
(-2.70633e-31 4.08589e-15 -0)
(2.19386e-30 -5.8968e-14 -5.8968e-14)
(1.33465e-31 -7.15358e-15 -0)
(-4.12521e-31 -1.20158e-14 -1.20158e-14)
(-8.15222e-31 -8.03166e-15 0)
(-3.14175e-31 -2.74034e-15 -2.74034e-15)
(9.37357e-31 7.27172e-15 0)
(1.02528e-30 2.44517e-14 2.44517e-14)
(-9.58184e-31 8.28788e-15 -0)
(6.15853e-31 -1.50399e-14 -1.50399e-14)
(9.21461e-31 2.64889e-14 0)
(-3.43969e-27 -6.0235e-13 -6.0235e-13)
(-1.25583e-27 7.92672e-13 -0)
(-1.48493e-29 -6.65317e-14 -6.65317e-14)
(-7.79234e-30 7.36279e-14 -0)
(2.9868e-30 1.02943e-13 1.02943e-13)
(-6.10279e-30 1.19518e-13 -0)
(-8.32747e-30 1.01597e-13 1.01597e-13)
(1.22858e-30 7.15405e-14 0)
(9.95755e-31 6.31005e-14 6.31005e-14)
(-4.66619e-30 6.50513e-14 -0)
(-7.22561e-30 7.80036e-14 7.80036e-14)
(-1.61388e-30 4.17944e-14 -0)
(5.76545e-31 1.82885e-14 1.82885e-14)
(7.67944e-32 1.54982e-15 0)
(4.79524e-31 2.99203e-14 2.99203e-14)
(6.74495e-31 3.15219e-14 0)
(-2.03968e-30 7.24789e-14 7.24789e-14)
(-9.5079e-30 5.89491e-14 -0)
(5.37347e-30 -7.11422e-14 -7.11422e-14)
(-2.71884e-31 -3.38551e-14 0)
(-5.93276e-27 4.66836e-13 4.66836e-13)
(-2.9938e-27 -1.03587e-12 0)
(-2.86577e-28 2.88154e-13 2.88154e-13)
(-8.0322e-31 -9.33544e-14 0)
(4.11685e-30 -6.7508e-14 -6.7508e-14)
(-1.04463e-29 -7.37821e-14 0)
(-1.45349e-29 -1.07876e-13 -1.07876e-13)
(-2.19085e-30 -1.60921e-14 0)
(4.31583e-31 1.75392e-14 1.75392e-14)
(-3.84089e-31 9.78638e-15 -0)
(6.53046e-30 -8.91444e-14 -8.91444e-14)
(-3.86601e-30 -9.90138e-14 0)
(-9.29487e-30 -8.96068e-14 -8.96068e-14)
(-6.48566e-30 -5.31778e-14 0)
(-1.43058e-30 -1.53157e-14 -1.53157e-14)
(-1.10311e-31 -2.71178e-14 0)
(-1.09389e-29 -1.16951e-13 -1.16951e-13)
(4.06393e-30 4.54712e-14 0)
(-6.27575e-30 6.96325e-14 6.96325e-14)
(2.76281e-30 -4.26028e-14 -0)
(1.04695e-26 1.01414e-12 1.01414e-12)
(-2.13174e-27 6.29074e-13 -0)
(-1.61764e-28 -2.07353e-13 -2.07353e-13)
(-2.97242e-29 1.28696e-13 -0)
(1.50642e-31 4.26948e-15 4.26948e-15)
(-6.37759e-32 2.44424e-14 -0)
(2.96931e-30 4.79615e-14 4.79615e-14)
(3.59556e-30 6.00495e-14 0)
(1.97831e-31 5.62582e-14 5.62582e-14)
(9.2616e-31 2.35094e-14 0)
(2.45085e-30 6.20887e-14 6.20887e-14)
(-4.09434e-30 1.03942e-13 -0)
(-1.64166e-29 8.78835e-14 8.78835e-14)
(-4.19928e-30 3.9965e-14 -0)
(-2.19768e-30 4.95543e-14 4.95543e-14)
(-1.62263e-30 2.77298e-14 -0)
(3.61132e-31 -7.13748e-15 -7.13748e-15)
(-5.86896e-33 -4.56402e-16 0)
(-1.41845e-30 3.08141e-14 3.08141e-14)
(-4.86531e-31 2.00787e-14 -0)
(3.46587e-28 -2.62044e-13 -2.62044e-13)
(-7.61547e-29 -1.10295e-13 0)
(-1.10818e-30 5.04465e-15 5.04465e-15)
(-7.33753e-30 -7.49377e-14 0)
(-5.68198e-31 4.58254e-14 4.58254e-14)
(2.21309e-30 -2.4786e-14 -0)
(2.4923e-30 -7.00281e-14 -7.00281e-14)
(-8.5742e-30 -1.2446e-13 0)
(-7.89448e-30 -6.3255e-14 -6.3255e-14)
(-1.47621e-29 -9.2645e-14 0)
(-9.48358e-30 -3.98298e-14 -3.98298e-14)
(1.41547e-30 9.11018e-14 0)
(1.82363e-30 -1.39406e-14 -1.39406e-14)
(1.00856e-30 -8.68647e-15 -0)
(5.75232e-30 -1.30885e-13 -1.30885e-13)
(-9.35265e-30 -8.61688e-14 0)
(7.16298e-32 1.56164e-14 1.56164e-14)
(1.45855e-30 -3.06255e-14 -0)
(-3.68433e-30 -9.25922e-14 -9.25922e-14)
(-1.08215e-30 -1.66115e-14 0)
(-3.74252e-27 -1.59007e-12 -1.59007e-12)
(-1.20287e-28 4.34977e-13 -0)
(-2.87543e-29 -1.66872e-13 -1.66872e-13)
(-1.81227e-30 -4.90688e-14 0)
(-1.40731e-29 -1.16402e-13 -1.16402e-13)
(1.2912e-30 1.10593e-14 0)
(6.70421e-31 6.50422e-14 6.50422e-14)
(-3.55312e-33 -4.21375e-16 0)
(5.39142e-32 3.71279e-15 3.71279e-15)
(-1.73919e-31 6.0608e-15 -0)
(-1.50197e-31 3.25901e-15 3.25901e-15)
(3.91707e-30 -6.39148e-14 -0)
(-3.43126e-30 -6.73325e-14 -6.73325e-14)
(2.21539e-30 3.16762e-14 0)
(3.39311e-31 6.46545e-14 6.46545e-14)
(-1.87652e-30 5.43832e-14 -0)
(1.74301e-31 4.95607e-14 4.95607e-14)
(3.15988e-31 2.6357e-14 0)
(-3.04518e-32 -2.76897e-15 -2.76897e-15)
(2.01074e-31 5.0676e-15 0)
(-3.82228e-26 2.16001e-12 2.16001e-12)
(-6.83431e-27 -1.85468e-12 0)
(-3.00333e-28 3.87474e-13 3.87474e-13)
(-5.64005e-30 -6.945e-14 0)
(2.51523e-30 -3.12042e-14 -3.12042e-14)
(-8.28658e-30 -6.78104e-14 0)
(1.98098e-30 3.5759e-14 3.5759e-14)
(-3.90416e-32 -1.09475e-15 0)
(1.59709e-30 2.40722e-14 2.40722e-14)
(6.52775e-30 9.89191e-14 0)
(-1.39935e-29 1.27569e-13 1.27569e-13)
(1.26379e-30 -1.00703e-14 -0)
(1.27586e-31 -1.41907e-14 -1.41907e-14)
(-1.70915e-32 -1.04153e-15 0)
(8.92205e-32 6.26356e-14 6.26356e-14)
(1.07244e-31 -1.58071e-15 -0)
(-1.25598e-31 -7.28883e-15 -7.28883e-15)
(-9.51638e-32 -1.887e-14 0)
(-3.86081e-30 5.92882e-14 5.92882e-14)
(-7.32684e-31 1.60194e-14 -0)
(-1.18957e-25 -3.6735e-12 -3.6735e-12)
(-2.10527e-26 3.24409e-12 -0)
(-1.07369e-27 -8.27903e-13 -8.27903e-13)
(-3.9726e-29 1.04844e-13 -0)
(2.07283e-30 -9.16466e-14 -9.16466e-14)
(1.46378e-31 -3.22386e-14 -0)
(-2.35295e-30 -8.19331e-14 -8.19331e-14)
(-5.10793e-32 -3.11685e-14 0)
(-6.16115e-30 -8.88385e-14 -8.88385e-14)
(-5.76889e-30 -7.50448e-14 0)
(-2.83331e-31 -4.26162e-14 -4.26162e-14)
(-1.18735e-31 3.03935e-15 -0)
(1.82806e-31 -7.69867e-15 -7.69867e-15)
(-4.84916e-30 -1.27876e-13 0)
(-2.00109e-29 -1.17151e-13 -1.17151e-13)
(-8.72927e-30 -6.97089e-14 0)
(-2.23491e-30 -4.08196e-14 -4.08196e-14)
(-7.86978e-32 9.06631e-15 -0)
(-9.92269e-32 2.76304e-15 2.76304e-15)
(1.24645e-30 -3.43273e-14 -0)
(-6.15944e-26 2.46796e-12 2.46796e-12)
(-1.12826e-26 -2.30919e-12 0)
(-8.73819e-28 6.6016e-13 6.6016e-13)
(-2.26402e-29 -1.24609e-13 0)
(-8.0589e-30 1.03914e-13 1.03914e-13)
(-7.48649e-32 1.69009e-15 -0)
(-6.46268e-30 6.84209e-14 6.84209e-14)
(-1.55329e-29 8.3329e-14 -0)
(-6.06615e-30 5.29365e-14 5.29365e-14)
(-1.00785e-29 5.80329e-14 -0)
(3.47589e-30 -2.27449e-14 -2.27449e-14)
(-1.41542e-30 -2.63183e-14 0)
(5.80847e-30 5.26309e-14 5.26309e-14)
(2.42856e-30 3.49068e-14 0)
(2.06538e-30 6.38558e-14 6.38558e-14)
(-2.64535e-30 9.83971e-14 -0)
(-1.27673e-29 9.2199e-14 9.2199e-14)
(-2.77185e-30 2.04228e-14 -0)
(-1.1307e-30 1.57802e-14 1.57802e-14)
(-3.97629e-31 1.76923e-14 -0)
(-1.18499e-27 3.88157e-13 3.88157e-13)
(5.42988e-30 -3.49023e-13 -0)
(-3.36559e-30 3.21366e-14 3.21366e-14)
(6.00498e-31 -9.11609e-15 -0)
(-7.45726e-32 5.49668e-15 5.49668e-15)
(-4.74652e-30 3.92797e-14 -0)
(8.15359e-30 -6.02571e-14 -6.02571e-14)
(7.70731e-31 -1.2767e-14 -0)
(4.35114e-31 -5.69308e-14 -5.69308e-14)
(1.8343e-30 -5.53136e-14 -0)
(-3.17092e-31 -9.34863e-14 -9.34863e-14)
(-5.40896e-30 -6.10844e-14 0)
(-3.28602e-30 -4.5554e-14 -4.5554e-14)
(2.99705e-32 1.50725e-14 0)
(-1.03872e-30 1.32169e-14 1.32169e-14)
(-7.87851e-30 6.05198e-14 -0)
(5.51021e-30 -3.88899e-14 -3.88899e-14)
(5.40729e-31 -4.38478e-14 -0)
(-7.97443e-31 -3.09807e-14 -3.09807e-14)
(1.3784e-31 5.21642e-15 0)
(-3.77938e-26 -1.34679e-12 -1.34679e-12)
(-1.32123e-26 2.45649e-12 -0)
(-5.30158e-28 -5.01186e-13 -5.01186e-13)
(-7.14728e-29 1.94927e-13 -0)
(-5.30379e-30 6.77261e-14 6.77261e-14)
(-1.47231e-29 6.37989e-14 -0)
(-6.26063e-30 3.59392e-14 3.59392e-14)
(7.00345e-31 -1.45709e-14 -0)
(1.98708e-31 -6.97429e-15 -6.97429e-15)
(9.18486e-31 4.23689e-14 0)
(7.41804e-30 8.24955e-14 8.24955e-14)
(1.00805e-30 1.02087e-13 0)
(-8.55086e-30 7.25911e-14 7.25911e-14)
(-1.85143e-31 1.06444e-15 -0)
(1.44493e-30 -1.12499e-14 -1.12499e-14)
(3.77176e-30 -6.13936e-14 -0)
(1.53099e-31 -2.70471e-15 -2.70471e-15)
(1.75272e-31 -5.09679e-15 -0)
(4.5011e-32 -7.98571e-15 -7.98571e-15)
(1.8111e-31 3.9832e-15 0)
(-5.58005e-29 -1.50817e-14 -1.50817e-14)
(-7.66094e-28 5.54873e-13 -0)
(6.30247e-30 1.29936e-13 1.29936e-13)
(-2.99582e-29 1.24533e-13 -0)
(-1.14248e-29 1.01444e-13 1.01444e-13)
(-2.37507e-29 1.39056e-13 -0)
(-1.18449e-29 8.00736e-14 8.00736e-14)
(-1.74714e-29 1.1031e-13 -0)
(-2.05986e-29 1.23473e-13 1.23473e-13)
(-1.37505e-30 3.63168e-14 -0)
(1.32271e-30 1.09257e-13 1.09257e-13)
(-2.89021e-30 6.25183e-14 -0)
(-6.54201e-30 9.2173e-14 9.2173e-14)
(-1.85056e-29 1.19539e-13 -0)
(-9.13726e-30 5.01592e-14 5.01592e-14)
(-2.24189e-30 1.96143e-14 -0)
(-2.26518e-30 2.1119e-14 2.1119e-14)
(3.55587e-30 -6.53192e-14 -0)
(-3.64181e-32 -9.50132e-15 -9.50132e-15)
(1.80184e-31 4.44078e-15 0)
(-2.02038e-25 3.72042e-12 3.72042e-12)
(-5.47242e-26 -5.16474e-12 0)
(-2.20793e-27 8.30728e-13 8.30728e-13)
(-1.37225e-28 -3.50875e-13 0)
(2.03656e-29 -8.73041e-14 -8.73041e-14)
(1.38174e-29 -1.51643e-13 -0)
(6.20856e-30 -8.61176e-14 -8.61176e-14)
(4.76748e-30 -1.10631e-13 -0)
(4.4411e-30 -8.88415e-14 -8.88415e-14)
(-2.122e-30 -6.5962e-14 0)
(-7.12098e-30 -1.0545e-13 -1.0545e-13)
(-1.80296e-31 -7.31871e-14 0)
(1.08197e-30 -7.86859e-14 -7.86859e-14)
(1.16065e-30 -4.87063e-14 -0)
(3.05185e-30 -4.43655e-14 -4.43655e-14)
(2.93192e-30 -2.39779e-14 -0)
(4.42939e-30 -4.42673e-14 -4.42673e-14)
(1.79568e-30 3.63887e-14 0)
(4.96526e-32 6.35312e-16 6.35312e-16)
(-6.44489e-31 -1.49902e-14 0)
)
;

boundaryField
{
    movingWall
    {
        type            calculated;
        value           nonuniform List<vector> 
20
(
(0 1.12909e-12 -0)
(0 -5.25355e-12 -0)
(0 1.32285e-13 -0)
(0 -5.08909e-13 -0)
(0 -3.51459e-13 -0)
(0 -3.71389e-13 -0)
(0 -2.26847e-13 -0)
(0 -2.68664e-13 -0)
(0 -2.7398e-13 -0)
(0 -1.44979e-13 -0)
(0 -2.19074e-13 -0)
(0 -2.13917e-13 -0)
(0 -2.63824e-13 -0)
(0 -1.27723e-13 -0)
(0 -1.23382e-13 -0)
(0 -4.12818e-14 -0)
(0 -6.15712e-14 -0)
(0 1.59814e-13 -0)
(0 8.94532e-14 -0)
(0 -3.2294e-14 -0)
)
;
    }
    fixedWalls
    {
        type            calculated;
        value           nonuniform List<vector> 
60
(
(0 -2.45853e-11 -0)
(0 -1.93982e-11 -0)
(0 4.46927e-11 -0)
(0 -2.98396e-11 -0)
(0 7.4642e-12 -0)
(0 8.21942e-12 -0)
(0 -8.7089e-12 -0)
(0 3.38819e-12 -0)
(0 -2.47392e-12 -0)
(0 4.56839e-12 -0)
(0 -2.42178e-12 -0)
(0 2.0379e-13 -0)
(0 -2.32383e-12 -0)
(0 7.83719e-12 -0)
(0 -1.40372e-11 -0)
(0 1.04438e-11 -0)
(0 1.30246e-12 -0)
(0 -1.03033e-11 -0)
(0 -1.26311e-12 -0)
(0 2.10716e-11 -0)
(0 1.58769e-14 -0)
(0 -4.25265e-14 -0)
(0 1.91391e-14 -0)
(0 -2.64936e-14 -0)
(0 -8.91569e-15 -0)
(0 -2.48545e-14 -0)
(0 1.594e-14 -0)
(0 4.10197e-14 -0)
(0 -2.38927e-14 -0)
(0 -5.30453e-14 -0)
(0 1.74126e-14 -0)
(0 -1.04719e-15 -0)
(0 1.58714e-14 -0)
(0 8.8101e-15 -0)
(0 -4.16293e-14 -0)
(0 1.81152e-14 -0)
(0 1.05697e-14 -0)
(0 1.81874e-14 -0)
(0 1.62299e-14 -0)
(0 -9.90741e-15 -0)
(0 -6.44747e-12 -0)
(0 6.84824e-12 -0)
(0 -7.54204e-13 -0)
(0 5.20231e-13 -0)
(0 1.45562e-13 -0)
(0 3.27058e-13 -0)
(0 3.8776e-13 -0)
(0 2.92698e-13 -0)
(0 2.98154e-13 -0)
(0 2.68377e-13 -0)
(0 1.40324e-13 -0)
(0 2.15082e-13 -0)
(0 1.7047e-13 -0)
(0 1.42871e-13 -0)
(0 1.37685e-14 -0)
(0 1.05868e-14 -0)
(0 -7.94356e-14 -0)
(0 -9.32765e-14 -0)
(0 3.1159e-14 -0)
(0 4.53692e-15 -0)
)
;
    }
    frontAndBack
    {
        type            empty;
    }
}


// ************************************************************************* //
