/*--------------------------------*- C++ -*----------------------------------*\
| =========                 |                                                 |
| \\      /  F ield         | OpenFOAM: The Open Source CFD Toolbox           |
|  \\    /   O peration     | Version:  2312                                  |
|   \\  /    A nd           | Website:  www.openfoam.com                      |
|    \\/     M anipulation  |                                                 |
\*---------------------------------------------------------------------------*/
FoamFile
{
    version     2.0;
    format      ascii;
    arch        "LSB;label=32;scalar=64";
    class       volScalarField;
    location    "5.375";
    object      pNear;
}
// * * * * * * * * * * * * * * * * * * * * * * * * * * * * * * * * * * * * * //

dimensions      [0 2 -2 0 0 0 0];

internalField   nonuniform List<scalar> 
400
(
6.67952e-16
4.62291e-15
4.01692e-15
4.78346e-15
4.81057e-15
4.91133e-15
5.30752e-15
5.57812e-15
5.86979e-15
6.15661e-15
5.95271e-15
5.66781e-15
5.64535e-15
5.57234e-15
5.74266e-15
5.86103e-15
5.97899e-15
5.71448e-15
5.68536e-15
5.56676e-15
3.66694e-15
9.87847e-16
4.14701e-15
4.5619e-15
4.97305e-15
5.00794e-15
5.39301e-15
5.65841e-15
5.9587e-15
6.24532e-15
6.02278e-15
5.82282e-15
5.609e-15
5.51678e-15
5.69299e-15
5.73818e-15
5.79496e-15
5.86614e-15
5.82874e-15
5.44817e-15
3.88066e-15
3.68224e-15
4.65215e-15
4.84265e-15
5.18716e-15
5.10633e-15
5.40271e-15
5.85683e-15
5.94591e-15
6.01705e-15
5.88401e-15
5.73295e-15
5.69861e-15
5.7722e-15
5.79905e-15
5.70536e-15
5.67004e-15
5.8963e-15
5.7596e-15
5.49403e-15
3.96944e-15
6.34882e-15
4.87459e-15
5.11031e-15
5.30939e-15
5.50979e-15
5.39846e-15
5.65677e-15
5.82198e-15
5.8849e-15
5.74254e-15
5.61503e-15
5.76518e-15
5.96104e-15
5.94492e-15
5.84484e-15
5.84812e-15
5.71238e-15
5.65098e-15
5.81937e-15
5.01101e-15
2.41306e-15
5.11892e-15
5.0403e-15
5.42902e-15
5.43984e-15
5.51124e-15
5.75822e-15
5.69781e-15
5.57703e-15
5.78522e-15
5.55999e-15
5.64392e-15
5.95878e-15
6.12501e-15
6.11168e-15
5.93601e-15
5.54512e-15
5.59975e-15
6.04059e-15
4.85283e-15
7.41877e-15
5.16457e-15
5.48501e-15
5.39807e-15
5.47408e-15
5.48439e-15
5.66927e-15
5.63099e-15
5.47471e-15
5.61801e-15
5.58612e-15
5.71305e-15
5.9731e-15
6.15124e-15
6.05246e-15
5.88658e-15
5.68438e-15
5.7915e-15
6.15766e-15
4.9591e-15
4.41877e-15
5.62326e-15
5.55427e-15
5.63409e-15
5.52377e-15
5.48977e-15
5.65249e-15
5.59215e-15
5.41257e-15
5.44915e-15
5.5308e-15
5.74297e-15
5.94104e-15
6.07311e-15
6.09121e-15
6.09599e-15
5.67898e-15
5.78618e-15
6.09584e-15
5.60854e-15
6.1975e-15
5.64823e-15
5.81772e-15
5.73149e-15
5.72675e-15
5.50445e-15
5.56384e-15
5.61293e-15
5.50182e-15
5.35401e-15
5.49151e-15
5.71748e-15
5.92893e-15
5.95393e-15
5.96869e-15
5.99444e-15
5.88206e-15
5.84943e-15
6.07123e-15
5.81533e-15
4.45837e-15
5.75775e-15
5.53468e-15
5.68564e-15
5.75966e-15
5.62902e-15
5.58795e-15
5.58222e-15
5.56178e-15
5.47761e-15
5.60199e-15
5.63946e-15
5.83641e-15
5.87259e-15
5.93178e-15
6.04347e-15
6.05229e-15
5.86286e-15
5.99592e-15
5.67136e-15
6.67109e-15
5.69252e-15
5.77292e-15
5.82399e-15
5.89229e-15
5.74109e-15
5.69445e-15
5.60978e-15
5.59584e-15
5.6527e-15
5.53698e-15
5.53097e-15
5.79236e-15
5.77481e-15
5.82828e-15
5.88677e-15
6.0679e-15
6.01635e-15
6.0537e-15
5.59838e-15
4.47804e-15
5.87286e-15
5.92413e-15
5.97793e-15
5.97173e-15
5.82954e-15
5.52594e-15
5.6316e-15
5.59369e-15
5.71894e-15
5.44738e-15
5.555e-15
5.68846e-15
5.72874e-15
5.97636e-15
5.90456e-15
5.77633e-15
5.9998e-15
6.14887e-15
5.54506e-15
7.77657e-15
5.72706e-15
6.07808e-15
6.09387e-15
6.12913e-15
5.86418e-15
5.55022e-15
5.64429e-15
5.6698e-15
5.59933e-15
5.34238e-15
5.56956e-15
5.67731e-15
5.96388e-15
5.92046e-15
5.96448e-15
5.82512e-15
5.94904e-15
6.12057e-15
6.14467e-15
3.77783e-15
6.09617e-15
5.82076e-15
6.01381e-15
6.14183e-15
6.00561e-15
5.55498e-15
5.62218e-15
5.67167e-15
5.54909e-15
5.73097e-15
5.63549e-15
5.675e-15
5.93122e-15
5.78586e-15
5.87423e-15
5.85435e-15
5.88654e-15
5.99126e-15
6.056e-15
7.50124e-15
5.86129e-15
6.24051e-15
6.19301e-15
6.0963e-15
6.09379e-15
5.77014e-15
5.78281e-15
5.62082e-15
5.57876e-15
5.68848e-15
5.70427e-15
5.49407e-15
5.64311e-15
5.79772e-15
5.71782e-15
5.65529e-15
5.82216e-15
5.96673e-15
6.5259e-15
4.76837e-15
5.97111e-15
6.14549e-15
6.31638e-15
6.09777e-15
6.01482e-15
5.7266e-15
5.72474e-15
5.54765e-15
5.67972e-15
5.89874e-15
5.70309e-15
5.52401e-15
5.6446e-15
5.75536e-15
5.48682e-15
5.42492e-15
5.66961e-15
6.08681e-15
6.53487e-15
5.88453e-15
6.2162e-15
6.11089e-15
6.2206e-15
6.13709e-15
6.04366e-15
5.85154e-15
5.77992e-15
5.6832e-15
5.52181e-15
5.70173e-15
5.74598e-15
5.59891e-15
5.47413e-15
5.42741e-15
5.39183e-15
5.49265e-15
5.75997e-15
6.07907e-15
5.93609e-15
6.19282e-15
6.26621e-15
6.22164e-15
6.11255e-15
6.05256e-15
6.01588e-15
6.00603e-15
5.74898e-15
5.71928e-15
5.73644e-15
5.59696e-15
5.47844e-15
5.44573e-15
5.28926e-15
5.34811e-15
5.42941e-15
5.57176e-15
5.79147e-15
6.11798e-15
6.10384e-15
6.52388e-15
6.00381e-15
6.12595e-15
6.0616e-15
6.04024e-15
6.19327e-15
6.03584e-15
5.71506e-15
5.68676e-15
5.61549e-15
5.52139e-15
5.58822e-15
5.42287e-15
5.17004e-15
5.39931e-15
5.53246e-15
5.48617e-15
5.77348e-15
5.93832e-15
6.09297e-15
4.25164e-15
6.15131e-15
5.93682e-15
5.95992e-15
6.05365e-15
6.12294e-15
5.92783e-15
5.77207e-15
5.68161e-15
5.53025e-15
5.40863e-15
5.43567e-15
5.4604e-15
5.38215e-15
5.37605e-15
5.54162e-15
5.58511e-15
5.78598e-15
5.92357e-15
4.72361e-15
7.46576e-15
6.05168e-15
6.17351e-15
5.98694e-15
6.09999e-15
5.98679e-15
5.73741e-15
5.84271e-15
5.74607e-15
5.44133e-15
5.32023e-15
5.38329e-15
5.39394e-15
5.33811e-15
5.51083e-15
5.81837e-15
5.58498e-15
5.62406e-15
5.77382e-15
)
;

boundaryField
{
    movingWall
    {
        type            zeroGradient;
    }
    fixedWalls
    {
        type            calculated;
        value           nonuniform List<scalar> 
60
(
1.1178e-15
3.24915e-15
3.86192e-15
4.11236e-15
4.83105e-15
4.8925e-15
5.04058e-15
5.54215e-15
5.76272e-15
5.68201e-15
5.60133e-15
5.643e-15
6.04143e-15
6.13979e-15
6.45676e-15
6.44371e-15
6.05107e-15
6.07705e-15
5.88919e-15
4.92901e-15
5.54897e-15
5.47284e-15
5.53595e-15
5.80375e-15
6.02497e-15
6.13083e-15
6.10142e-15
6.06363e-15
6.01588e-15
6.05931e-15
6.13035e-15
6.10542e-15
6.00698e-15
5.98842e-15
6.06764e-15
6.08607e-15
6.08519e-15
5.96306e-15
5.90332e-15
5.79628e-15
1.2612e-15
3.93877e-15
4.2228e-15
4.67255e-15
4.82162e-15
4.95565e-15
5.28868e-15
5.58128e-15
5.86907e-15
6.083e-15
5.94056e-15
5.70717e-15
5.63777e-15
5.60884e-15
5.73487e-15
5.86097e-15
5.92162e-15
5.74979e-15
5.67193e-15
5.58455e-15
)
;
    }
    frontAndBack
    {
        type            empty;
    }
}


// ************************************************************************* //
