/*--------------------------------*- C++ -*----------------------------------*\
| =========                 |                                                 |
| \\      /  F ield         | OpenFOAM: The Open Source CFD Toolbox           |
|  \\    /   O peration     | Version:  2312                                  |
|   \\  /    A nd           | Website:  www.openfoam.com                      |
|    \\/     M anipulation  |                                                 |
\*---------------------------------------------------------------------------*/
FoamFile
{
    version     2.0;
    format      ascii;
    arch        "LSB;label=32;scalar=64";
    class       volScalarField;
    location    "5.375";
    object      QField;
}
// * * * * * * * * * * * * * * * * * * * * * * * * * * * * * * * * * * * * * //

dimensions      [0 0 -2 0 0 0 0];

internalField   nonuniform List<scalar> 
400
(
-5.79106e-24
-2.45243e-24
-1.05503e-25
2.09423e-26
-1.5305e-27
-5.60927e-28
-6.4621e-28
-5.95563e-28
-6.88948e-28
-2.25871e-27
-1.01927e-27
0
-5.39275e-28
-1.65271e-28
-3.71628e-28
2.86955e-28
-4.07928e-28
-8.01607e-28
0
0
-1.12177e-23
-4.74781e-24
-1.97366e-25
-2.08388e-26
3.20008e-27
-9.83815e-28
2.206e-27
4.06384e-27
2.87442e-27
-3.79777e-28
-2.13053e-27
-1.42001e-27
-1.58562e-27
-2.18105e-27
3.29454e-28
1.77545e-28
0
-3.16931e-28
6.81478e-28
-9.66262e-28
-1.18693e-23
-5.28564e-24
2.68485e-25
-2.08345e-27
2.98587e-27
0
5.01857e-28
7.03395e-28
-1.50026e-27
-3.84122e-28
1.1091e-27
2.10749e-27
1.44703e-27
-1.27214e-28
5.37082e-28
-9.85695e-28
-1.18857e-27
-9.42473e-28
5.39831e-28
-1.5539e-27
1.88888e-24
-2.07622e-25
9.71615e-26
1.59797e-26
-3.60464e-27
1.34203e-27
-3.66321e-27
-1.20325e-27
3.06308e-28
-4.93963e-28
-6.78097e-28
-7.38255e-28
7.77665e-28
3.12825e-27
2.20784e-27
-3.2571e-28
-1.08015e-27
0
6.04444e-28
-3.90337e-28
1.28871e-23
2.6857e-24
1.38818e-25
1.86448e-26
1.53732e-27
1.11776e-27
-2.82437e-28
-9.01624e-28
0
1.83559e-28
-5.96403e-29
-1.43598e-27
-1.3523e-27
0
7.23529e-29
3.96829e-28
3.30595e-28
-6.05904e-28
4.12277e-29
-6.3543e-28
5.1734e-24
6.56527e-25
9.29235e-26
-9.31365e-28
6.01137e-28
-2.66432e-31
5.51066e-28
-2.55663e-28
-8.33123e-28
-2.13754e-28
1.4503e-28
2.21529e-28
-9.14454e-28
3.83507e-28
-9.97401e-28
0
-5.26734e-28
-7.1577e-28
0
-7.27103e-28
-7.49964e-25
-3.51283e-25
6.30725e-27
-7.21196e-28
3.80198e-28
9.53314e-28
1.13836e-27
-3.62397e-28
1.25086e-27
2.85636e-27
7.20057e-28
-8.84635e-28
-3.04165e-28
-1.03476e-28
0
-3.48041e-28
-2.19728e-28
6.14115e-29
1.30687e-28
0
-1.32773e-24
-6.63943e-26
-3.12473e-26
2.75088e-28
0
-3.70989e-28
-1.04956e-28
-3.35416e-29
-1.66443e-28
0
-1.4278e-27
-1.20392e-27
-3.45888e-28
0
0
0
0
-8.29007e-28
-2.28993e-28
6.95458e-29
7.70727e-25
2.69796e-25
4.26227e-27
-3.94321e-27
-1.20155e-27
1.20325e-27
-7.39803e-28
-7.94826e-28
4.8195e-28
5.87704e-28
-3.67005e-28
-8.29457e-28
-4.27076e-28
-5.54591e-29
1.87329e-29
1.19719e-28
8.5048e-28
-8.54334e-28
6.51291e-28
1.82961e-28
3.20178e-26
5.15516e-26
9.05768e-27
1.35667e-27
7.20878e-28
9.29667e-28
-4.48937e-28
-5.30002e-28
0
0
2.78565e-28
1.43707e-27
-5.09302e-28
-5.59605e-29
-3.19552e-28
-2.16259e-28
9.24888e-28
2.57823e-29
8.36051e-28
4.20067e-28
-3.0976e-24
-7.21802e-25
-6.36396e-26
5.24827e-27
-7.50646e-28
-6.97948e-28
-3.38737e-28
-2.30316e-28
-1.60556e-28
-9.74613e-29
-2.10473e-27
1.83994e-27
5.34105e-28
-1.41751e-27
-9.97001e-28
-5.49403e-28
0
-7.42673e-28
1.00534e-28
-1.9045e-28
-2.05117e-24
-8.60423e-25
-3.61626e-26
-4.68547e-27
5.07415e-28
-7.09921e-28
8.57493e-28
1.59955e-27
4.60496e-28
9.2129e-28
-1.01147e-27
1.94056e-27
-1.00127e-27
0
2.30118e-27
3.94674e-28
-1.46675e-28
9.30616e-29
9.1699e-28
-6.30884e-28
3.57119e-24
6.80382e-25
2.53253e-26
-5.95662e-28
8.65403e-28
0
9.39594e-29
0
-3.16904e-28
5.06048e-28
-1.88541e-27
5.26091e-28
7.11368e-28
1.23902e-28
3.2022e-28
-9.46794e-28
-2.52046e-28
-2.02762e-29
-2.8436e-28
-6.01093e-28
5.2144e-24
1.18456e-24
3.7201e-26
5.63566e-27
-2.77897e-28
4.0851e-28
2.34566e-28
1.84135e-29
-8.22048e-29
1.43147e-27
2.07611e-27
0
0
-1.73569e-28
9.05514e-28
-8.65898e-28
-1.3887e-28
-1.67189e-28
2.75282e-28
-9.4509e-29
3.83088e-24
5.84061e-25
1.44398e-25
-2.21474e-27
2.01289e-27
-7.63444e-28
5.02467e-29
-1.09369e-27
1.21331e-28
-5.09877e-28
-8.62297e-28
-1.4578e-27
0
2.2535e-27
8.62741e-28
-1.16581e-27
-1.56999e-27
-1.14464e-27
-1.77087e-29
1.32707e-28
-5.15842e-25
-4.79075e-25
8.16581e-26
0
1.83761e-27
0
7.70371e-28
-4.31685e-30
-6.90442e-29
2.07233e-28
-1.7654e-29
0
-6.05372e-28
3.08863e-28
-1.53116e-28
4.46658e-30
8.85024e-28
-1.81122e-28
-3.06961e-28
-2.55133e-28
-4.71749e-24
-1.09689e-24
-6.44131e-26
-1.48631e-27
0
-6.809e-28
-1.04493e-28
-3.74971e-28
1.47489e-28
-4.69669e-28
-3.26209e-28
3.72655e-28
-1.70609e-27
-6.60029e-28
-4.35805e-28
4.35701e-28
5.4134e-28
4.53813e-28
-7.3889e-29
-1.8416e-28
-1.7976e-24
-5.81055e-25
1.24601e-27
9.71189e-27
-1.105e-27
5.19811e-28
-9.90466e-28
0
0
-6.41912e-28
9.59833e-29
1.32372e-27
1.38433e-27
0
-8.42222e-28
3.89418e-28
-1.86643e-28
0
-1.18759e-28
0
1.51251e-24
2.42473e-25
-5.80259e-26
5.85475e-27
-1.17641e-27
4.78453e-28
-1.00959e-28
1.91452e-28
-1.63337e-27
-9.41559e-28
1.51407e-28
4.50387e-28
8.82906e-28
7.98662e-28
-3.81285e-28
-3.67944e-28
-1.62251e-28
6.02224e-28
0
6.70678e-30
1.27159e-24
5.24527e-25
-1.79473e-25
2.79191e-26
-6.53519e-27
1.47444e-27
-2.05851e-28
2.39663e-28
-5.63351e-28
6.3707e-28
-5.37932e-28
-6.60931e-28
-4.43452e-28
-7.82562e-28
-5.33677e-28
-7.25996e-28
-1.22062e-27
-9.66103e-28
-4.44456e-28
-3.28374e-28
)
;

boundaryField
{
    movingWall
    {
        type            calculated;
        value           nonuniform List<scalar> 
20
(
3.49339e-24
2.87118e-24
-8.48722e-25
8.1564e-26
-1.92731e-26
4.73828e-27
2.84714e-28
5.88995e-28
9.21463e-28
1.56566e-27
-1.39177e-27
-1.80478e-27
-8.49672e-28
-9.91619e-28
-1.31157e-27
-1.46459e-27
-2.4924e-27
-3.16573e-27
-1.63828e-27
-5.38009e-28
)
;
    }
    fixedWalls
    {
        type            calculated;
        value           nonuniform List<scalar> 
60
(
-3.60406e-23
-6.96157e-23
-6.04007e-23
8.53802e-24
5.92816e-23
2.48211e-23
-4.72773e-24
-7.02791e-24
3.64778e-24
-1.39117e-25
-1.63551e-23
-9.86978e-24
1.67161e-23
2.49752e-23
1.85587e-23
-2.7961e-24
-2.29753e-23
-8.69516e-24
5.53164e-24
2.27481e-24
0
-1.76464e-27
-3.35076e-27
-1.44225e-27
-2.21645e-27
-1.21476e-27
0
6.59768e-28
3.55407e-28
7.03111e-28
-2.62715e-28
-1.27393e-27
-9.8483e-28
-1.58426e-28
2.90374e-28
-2.43671e-28
-3.01728e-28
0
1.09884e-29
-9.50223e-29
3.36901e-24
2.6821e-24
-6.98855e-25
7.55135e-26
-4.68575e-27
2.68649e-27
-4.76438e-27
-5.76502e-27
-3.9507e-27
-2.48017e-27
-7.11883e-29
-1.54604e-27
-3.04442e-27
-2.1894e-28
-7.25965e-28
0
1.04052e-29
-1.61642e-27
-5.88414e-28
0
)
;
    }
    frontAndBack
    {
        type            empty;
    }
}


// ************************************************************************* //
