/*--------------------------------*- C++ -*----------------------------------*\
| =========                 |                                                 |
| \\      /  F ield         | OpenFOAM: The Open Source CFD Toolbox           |
|  \\    /   O peration     | Version:  2312                                  |
|   \\  /    A nd           | Website:  www.openfoam.com                      |
|    \\/     M anipulation  |                                                 |
\*---------------------------------------------------------------------------*/
FoamFile
{
    version     2.0;
    format      ascii;
    arch        "LSB;label=32;scalar=64";
    class       volVectorField;
    location    "5.375";
    object      UNear;
}
// * * * * * * * * * * * * * * * * * * * * * * * * * * * * * * * * * * * * * //

dimensions      [0 1 -1 0 0 0 0];

internalField   nonuniform List<vector> 
400
(
(-1 6.3564e-14 0)
(-1 -1.24119e-14 0)
(-1 3.07518e-15 0)
(-1 -4.29019e-16 0)
(-1 9.33148e-17 0)
(-1 -1.0828e-16 0)
(-1 -6.8636e-17 0)
(-1 1.09247e-17 0)
(-1 1.13006e-16 0)
(-1 1.38013e-16 0)
(-1 9.37715e-17 0)
(-1 6.70451e-17 0)
(-1 1.63399e-16 0)
(-1 1.387e-16 0)
(-1 6.69585e-17 0)
(-1 1.01539e-18 0)
(-1 -3.89094e-17 0)
(-1 -9.28067e-17 0)
(-1 5.6769e-18 0)
(-1 3.96923e-17 0)
(-1 4.65982e-14 0)
(-1 -1.01123e-14 0)
(-1 2.31301e-15 0)
(-1 -4.52299e-16 0)
(-1 -1.6492e-17 0)
(-1 -1.57144e-16 0)
(-1 -4.75852e-17 0)
(-1 2.71568e-17 0)
(-1 2.02297e-16 0)
(-1 2.88262e-16 0)
(-1 1.40337e-16 0)
(-1 2.62533e-17 0)
(-1 3.55582e-17 0)
(-1 1.87147e-17 0)
(-1 7.0148e-17 0)
(-1 1.48394e-16 0)
(-1 1.14159e-16 0)
(-1 -5.50637e-17 0)
(-1 2.16649e-17 0)
(-1 2.92089e-17 0)
(-1 -1.14374e-13 0)
(-1 2.40804e-14 0)
(-1 -5.75395e-15 0)
(-1 1.20081e-15 0)
(-1 -2.53128e-16 0)
(-1 9.92175e-17 0)
(-1 1.6948e-16 0)
(-1 7.41942e-17 0)
(-1 -9.52091e-18 0)
(-1 8.41495e-17 0)
(-1 3.77177e-17 0)
(-1 2.31219e-18 0)
(-1 -1.17788e-16 0)
(-1 -1.75641e-16 0)
(-1 -7.08539e-17 0)
(-1 2.25073e-17 0)
(-1 2.38149e-17 0)
(-1 1.19036e-17 0)
(-1 -3.57611e-17 0)
(-1 -8.76776e-17 0)
(-1 7.42603e-14 0)
(-1 -1.61731e-14 0)
(-1 3.70797e-15 0)
(-1 -8.36628e-16 0)
(-1 1.36519e-16 0)
(-1 -1.7169e-16 0)
(-1 -1.15138e-16 0)
(-1 -1.1159e-16 0)
(-1 -5.95197e-17 0)
(-1 1.23519e-17 0)
(-1 3.13967e-17 0)
(-1 1.87708e-16 0)
(-1 1.67581e-16 0)
(-1 -1.16258e-17 0)
(-1 -1.6245e-16 0)
(-1 -2.15263e-16 0)
(-1 -1.05093e-16 0)
(-1 8.9004e-17 0)
(-1 -1.23868e-17 0)
(-1 -1.33997e-16 0)
(-1 -1.27651e-14 0)
(-1 2.5785e-15 0)
(-1 -6.72401e-16 0)
(-1 3.88044e-17 0)
(-1 -1.17821e-16 0)
(-1 -1.44249e-16 0)
(-1 -2.20916e-16 0)
(-1 -9.21485e-17 0)
(-1 1.03487e-16 0)
(-1 8.45571e-17 0)
(-1 -3.70998e-17 0)
(-1 -3.59291e-17 0)
(-1 -6.0276e-18 0)
(-1 -9.63749e-18 0)
(-1 -6.3029e-17 0)
(-1 1.7056e-17 0)
(-1 1.18054e-16 0)
(-1 1.23671e-16 0)
(-1 -4.7575e-18 0)
(-1 -9.00519e-17 0)
(-1 -2.24459e-14 0)
(-1 4.27218e-15 0)
(-1 -1.06874e-15 0)
(-1 1.61858e-16 0)
(-1 -6.45455e-17 0)
(-1 -5.81772e-18 0)
(-1 -6.44472e-17 0)
(-1 -1.07471e-16 0)
(-1 -4.68231e-17 0)
(-1 4.62126e-17 0)
(-1 4.23984e-17 0)
(-1 -1.08255e-16 0)
(-1 -1.08165e-16 0)
(-1 -2.21493e-17 0)
(-1 3.3324e-17 0)
(-1 4.99836e-19 0)
(-1 -3.91343e-17 0)
(-1 -2.27656e-17 0)
(-1 2.82354e-18 0)
(-1 5.62647e-18 0)
(-1 1.94683e-14 0)
(-1 -3.68799e-15 0)
(-1 7.9105e-16 0)
(-1 -2.38657e-16 0)
(-1 -9.07685e-17 0)
(-1 -1.19497e-16 0)
(-1 -2.68053e-17 0)
(-1 -3.30736e-17 0)
(-1 -1.49228e-17 0)
(-1 9.49172e-17 0)
(-1 2.18329e-16 0)
(-1 1.83469e-16 0)
(-1 1.59135e-16 0)
(-1 1.2736e-16 0)
(-1 1.20959e-16 0)
(-1 4.64402e-17 0)
(-1 -2.37642e-18 0)
(-1 -8.36521e-18 0)
(-1 8.952e-18 0)
(-1 3.98499e-17 0)
(-1 -7.38627e-15 0)
(-1 1.8871e-15 0)
(-1 -1.36255e-16 0)
(-1 3.15794e-16 0)
(-1 1.6322e-16 0)
(-1 2.60772e-17 0)
(-1 9.84195e-18 0)
(-1 6.1877e-17 0)
(-1 3.65461e-18 0)
(-1 -6.6236e-17 0)
(-1 -3.72043e-17 0)
(-1 -1.86571e-17 0)
(-1 3.43315e-17 0)
(-1 1.01501e-16 0)
(-1 1.14648e-16 0)
(-1 1.28904e-16 0)
(-1 4.19309e-17 0)
(-1 -1.15613e-16 0)
(-1 -4.09479e-17 0)
(-1 3.47866e-17 0)
(-1 5.71045e-15 0)
(-1 -1.5843e-15 0)
(-1 2.23192e-16 0)
(-1 -1.05834e-16 0)
(-1 2.90141e-17 0)
(-1 -5.10616e-17 0)
(-1 -8.19659e-17 0)
(-1 1.71732e-17 0)
(-1 1.57805e-17 0)
(-1 -7.17309e-17 0)
(-1 -9.26318e-17 0)
(-1 -3.86147e-17 0)
(-1 3.15249e-17 0)
(-1 4.95504e-17 0)
(-1 1.60267e-17 0)
(-1 2.13977e-17 0)
(-1 -2.81418e-17 0)
(-1 -1.6129e-16 0)
(-1 -7.55315e-17 0)
(-1 8.03082e-18 0)
(-1 -1.27085e-14 0)
(-1 2.89014e-15 0)
(-1 -9.94528e-16 0)
(-1 8.60398e-18 0)
(-1 -6.09831e-17 0)
(-1 1.41583e-16 0)
(-1 1.34736e-16 0)
(-1 1.36144e-16 0)
(-1 2.46068e-17 0)
(-1 -3.92473e-17 0)
(-1 -7.32571e-17 0)
(-1 3.90451e-17 0)
(-1 1.0373e-16 0)
(-1 1.21962e-16 0)
(-1 9.34066e-17 0)
(-1 4.06783e-18 0)
(-1 9.35345e-17 0)
(-1 8.93737e-17 0)
(-1 -9.01267e-17 0)
(-1 -6.48505e-17 0)
(-1 1.03235e-14 0)
(-1 -3.38869e-15 0)
(-1 7.80141e-16 0)
(-1 -2.30965e-16 0)
(-1 3.52834e-17 0)
(-1 -2.60924e-18 0)
(-1 6.19102e-17 0)
(-1 5.98767e-17 0)
(-1 3.51648e-18 0)
(-1 3.93954e-17 0)
(-1 3.94734e-17 0)
(-1 -3.93905e-17 0)
(-1 -1.868e-16 0)
(-1 -1.05074e-16 0)
(-1 -4.43489e-17 0)
(-1 -5.85156e-17 0)
(-1 -5.05965e-17 0)
(-1 1.28592e-17 0)
(-1 -4.60325e-17 0)
(-1 -2.42312e-17 0)
(-1 -1.32263e-15 0)
(-1 6.90463e-16 0)
(-1 -2.19675e-16 0)
(-1 9.79151e-17 0)
(-1 -1.23992e-17 0)
(-1 -8.92881e-17 0)
(-1 -3.559e-17 0)
(-1 6.88914e-17 0)
(-1 1.24804e-16 0)
(-1 1.5934e-16 0)
(-1 2.38103e-16 0)
(-1 1.55372e-17 0)
(-1 -1.30814e-16 0)
(-1 -1.16107e-16 0)
(-1 -4.39495e-17 0)
(-1 1.08539e-16 0)
(-1 4.58684e-18 0)
(-1 -4.76253e-17 0)
(-1 3.97909e-17 0)
(-1 6.51447e-17 0)
(-1 2.35368e-15 0)
(-1 -2.76536e-16 0)
(-1 1.72313e-16 0)
(-1 3.69333e-17 0)
(-1 1.209e-16 0)
(-1 1.16753e-16 0)
(-1 1.03075e-17 0)
(-1 8.43219e-18 0)
(-1 1.45212e-17 0)
(-1 -2.86957e-17 0)
(-1 -4.60868e-17 0)
(-1 -6.12858e-17 0)
(-1 5.09599e-17 0)
(-1 6.99385e-17 0)
(-1 5.24806e-18 0)
(-1 -3.45055e-17 0)
(-1 3.51692e-18 0)
(-1 1.19888e-17 0)
(-1 1.09975e-17 0)
(-1 3.96785e-17 0)
(-1 -1.76956e-14 0)
(-1 3.6849e-15 0)
(-1 -7.75105e-16 0)
(-1 8.12102e-17 0)
(-1 -8.06053e-17 0)
(-1 1.22202e-16 0)
(-1 5.53981e-17 0)
(-1 3.56626e-17 0)
(-1 6.63456e-17 0)
(-1 6.59908e-17 0)
(-1 -1.09694e-16 0)
(-1 -1.25497e-16 0)
(-1 -8.99083e-18 0)
(-1 1.641e-17 0)
(-1 1.42444e-18 0)
(-1 -6.78451e-17 0)
(-1 1.72316e-17 0)
(-1 5.04314e-18 0)
(-1 -6.51194e-17 0)
(-1 -4.57374e-17 0)
(-1 3.23826e-14 0)
(-1 -6.48953e-15 0)
(-1 1.29687e-15 0)
(-1 -3.78905e-16 0)
(-1 -2.26177e-17 0)
(-1 -4.54044e-18 0)
(-1 2.8718e-17 0)
(-1 1.63881e-18 0)
(-1 6.93522e-17 0)
(-1 7.68727e-17 0)
(-1 6.64843e-18 0)
(-1 -3.9066e-17 0)
(-1 -2.37451e-17 0)
(-1 3.79208e-17 0)
(-1 1.70813e-16 0)
(-1 1.25225e-16 0)
(-1 5.47509e-17 0)
(-1 -8.68024e-18 0)
(-1 -3.59122e-17 0)
(-1 -3.63107e-17 0)
(-1 -2.49576e-14 0)
(-1 4.88594e-15 0)
(-1 -1.32365e-15 0)
(-1 1.81689e-16 0)
(-1 -7.75537e-17 0)
(-1 -4.42963e-17 0)
(-1 -9.44546e-17 0)
(-1 -1.86405e-16 0)
(-1 -1.14593e-16 0)
(-1 -1.73668e-16 0)
(-1 -1.52821e-16 0)
(-1 5.37808e-17 0)
(-1 1.10362e-16 0)
(-1 6.95725e-17 0)
(-1 3.23444e-17 0)
(-1 -2.68844e-17 0)
(-1 -1.38475e-16 0)
(-1 -1.35723e-16 0)
(-1 -7.16528e-17 0)
(-1 -2.24747e-17 0)
(-1 -3.05286e-15 0)
(-1 -1.55574e-17 0)
(-1 -1.04728e-16 0)
(-1 -6.58723e-17 0)
(-1 -1.35668e-17 0)
(-1 -1.20839e-16 0)
(-1 -1.35313e-16 0)
(-1 -6.03688e-17 0)
(-1 -7.64286e-18 0)
(-1 -3.31619e-17 0)
(-1 3.39185e-18 0)
(-1 8.85491e-17 0)
(-1 7.21346e-17 0)
(-1 1.98843e-18 0)
(-1 -7.85902e-17 0)
(-1 -1.30181e-16 0)
(-1 -1.41687e-16 0)
(-1 -1.23319e-17 0)
(-1 2.574e-17 0)
(-1 2.64242e-17 0)
(-1 2.80621e-14 0)
(-1 -5.37852e-15 0)
(-1 1.05781e-15 0)
(-1 -3.66664e-16 0)
(-1 -7.83124e-17 0)
(-1 -2.30773e-16 0)
(-1 -1.74201e-16 0)
(-1 -4.80646e-17 0)
(-1 -2.84915e-17 0)
(-1 2.16783e-17 0)
(-1 8.99205e-17 0)
(-1 9.87444e-18 0)
(-1 -1.17795e-16 0)
(-1 -1.73935e-16 0)
(-1 -1.28439e-16 0)
(-1 -6.14357e-17 0)
(-1 -5.66044e-17 0)
(-1 -3.43886e-17 0)
(-1 -5.63645e-18 0)
(-1 4.54685e-17 0)
(-1 3.69989e-15 0)
(-1 -1.38066e-15 0)
(-1 4.85046e-17 0)
(-1 -2.40564e-16 0)
(-1 -1.12622e-16 0)
(-1 -1.708e-16 0)
(-1 -1.47925e-16 0)
(-1 -1.58384e-16 0)
(-1 -1.66826e-16 0)
(-1 -3.78626e-17 0)
(-1 1.21065e-17 0)
(-1 -4.62298e-17 0)
(-1 -7.09753e-17 0)
(-1 -1.54808e-16 0)
(-1 -1.82165e-16 0)
(-1 -1.14299e-16 0)
(-1 -1.07258e-16 0)
(-1 -5.44384e-17 0)
(-1 3.83295e-18 0)
(-1 4.05749e-17 0)
(-1 -5.43052e-14 0)
(-1 1.05957e-14 0)
(-1 -2.65782e-15 0)
(-1 3.91094e-16 0)
(-1 -2.33272e-16 0)
(-1 -9.11181e-17 0)
(-1 -7.20939e-17 0)
(-1 -4.30937e-17 0)
(-1 -4.9989e-17 0)
(-1 3.217e-17 0)
(-1 6.75297e-17 0)
(-1 2.4635e-18 0)
(-1 -1.37505e-17 0)
(-1 -2.38296e-17 0)
(-1 -6.87888e-17 0)
(-1 -1.22276e-16 0)
(-1 -1.0006e-16 0)
(-1 4.93472e-17 0)
(-1 7.81547e-17 0)
(-1 4.29941e-17 0)
)
;

boundaryField
{
    movingWall
    {
        type            fixedValue;
        value           uniform (-1 -0 -0);
    }
    fixedWalls
    {
        type            calculated;
        value           nonuniform List<vector> 
60
(
(-1 2.54256e-14 0)
(-1 1.86393e-14 0)
(-1 -4.57498e-14 0)
(-1 2.97041e-14 0)
(-1 -5.10606e-15 0)
(-1 -8.97836e-15 0)
(-1 7.78733e-15 0)
(-1 -2.95451e-15 0)
(-1 2.28418e-15 0)
(-1 -5.08338e-15 0)
(-1 4.1294e-15 0)
(-1 -5.2905e-16 0)
(-1 9.41472e-16 0)
(-1 -7.07825e-15 0)
(-1 1.2953e-14 0)
(-1 -9.98306e-15 0)
(-1 -1.22114e-15 0)
(-1 1.12249e-14 0)
(-1 1.47995e-15 0)
(-1 -2.17221e-14 0)
(-1 1.58769e-17 0)
(-1 1.16836e-17 0)
(-1 -3.50711e-17 0)
(-1 -5.35986e-17 0)
(-1 -3.60207e-17 0)
(-1 2.25059e-18 0)
(-1 1.594e-17 0)
(-1 1.39147e-17 0)
(-1 3.21233e-18 0)
(-1 -2.59402e-17 0)
(-1 -9.69249e-18 0)
(-1 2.60579e-17 0)
(-1 1.58714e-17 0)
(-1 -1.82949e-17 0)
(-1 -1.45243e-17 0)
(-1 -8.98987e-18 0)
(-1 1.05697e-17 0)
(-1 1.81874e-17 0)
(-1 1.62299e-17 0)
(-1 1.71976e-17 0)
(-1 2.54256e-14 0)
(-1 -4.96478e-15 0)
(-1 1.23007e-15 0)
(-1 -1.71608e-16 0)
(-1 3.73259e-17 0)
(-1 -4.3312e-17 0)
(-1 -2.74544e-17 0)
(-1 4.36989e-18 0)
(-1 4.52025e-17 0)
(-1 5.52053e-17 0)
(-1 3.75086e-17 0)
(-1 2.6818e-17 0)
(-1 6.53597e-17 0)
(-1 5.548e-17 0)
(-1 2.67834e-17 0)
(-1 4.06156e-19 0)
(-1 -1.55638e-17 0)
(-1 -3.71227e-17 0)
(-1 2.27076e-18 0)
(-1 1.58769e-17 0)
)
;
    }
    frontAndBack
    {
        type            empty;
    }
}


// ************************************************************************* //
