/*--------------------------------*- C++ -*----------------------------------*\
| =========                 |                                                 |
| \\      /  F ield         | OpenFOAM: The Open Source CFD Toolbox           |
|  \\    /   O peration     | Version:  2312                                  |
|   \\  /    A nd           | Website:  www.openfoam.com                      |
|    \\/     M anipulation  |                                                 |
\*---------------------------------------------------------------------------*/
FoamFile
{
    version     2.0;
    format      ascii;
    arch        "LSB;label=32;scalar=64";
    class       volScalarField;
    location    "5.375";
    object      zeroGradient(epsilon);
}
// * * * * * * * * * * * * * * * * * * * * * * * * * * * * * * * * * * * * * //

dimensions      [0 2 -3 0 0 0 0];

internalField   nonuniform List<scalar> 
400
(
6.47712e-06
6.47709e-06
6.47708e-06
6.47707e-06
6.47706e-06
6.47704e-06
6.47703e-06
6.47703e-06
6.47702e-06
6.47701e-06
6.47701e-06
6.477e-06
6.477e-06
6.477e-06
6.47699e-06
6.47699e-06
6.47699e-06
6.47699e-06
6.47699e-06
6.47699e-06
7.19809e-06
7.04665e-06
7.05904e-06
7.06411e-06
7.07441e-06
7.0797e-06
7.09005e-06
7.0955e-06
7.10594e-06
7.11154e-06
7.12204e-06
7.12783e-06
7.13839e-06
7.14436e-06
7.15497e-06
7.16115e-06
7.17179e-06
7.17818e-06
7.18354e-06
7.19212e-06
8.21838e-06
8.03499e-06
8.05019e-06
8.0564e-06
8.06899e-06
8.07541e-06
8.08806e-06
8.09463e-06
8.10735e-06
8.11407e-06
8.12686e-06
8.13374e-06
8.14657e-06
8.15365e-06
8.1665e-06
8.17378e-06
8.18665e-06
8.19414e-06
8.2006e-06
8.21083e-06
9.14027e-06
8.9283e-06
8.94582e-06
8.95297e-06
8.96748e-06
8.97489e-06
8.98948e-06
8.99706e-06
9.01174e-06
9.01949e-06
9.03424e-06
9.04219e-06
9.057e-06
9.06517e-06
9.08001e-06
9.08843e-06
9.10329e-06
9.11195e-06
9.11941e-06
9.13123e-06
9.80127e-06
9.56795e-06
9.58718e-06
9.59504e-06
9.61098e-06
9.61913e-06
9.63516e-06
9.64349e-06
9.65963e-06
9.66816e-06
9.68437e-06
9.69313e-06
9.70941e-06
9.71841e-06
9.73473e-06
9.744e-06
9.76035e-06
9.7699e-06
9.7781e-06
9.79112e-06
1.02177e-05
9.97057e-06
9.99091e-06
9.99922e-06
1.00161e-05
1.00247e-05
1.00417e-05
1.00505e-05
1.00675e-05
1.00766e-05
1.00937e-05
1.0103e-05
1.01202e-05
1.01298e-05
1.0147e-05
1.01569e-05
1.01742e-05
1.01843e-05
1.0193e-05
1.02068e-05
1.04651e-05
1.02097e-05
1.02307e-05
1.02393e-05
1.02567e-05
1.02656e-05
1.02831e-05
1.02922e-05
1.03099e-05
1.03192e-05
1.03369e-05
1.03465e-05
1.03643e-05
1.03741e-05
1.0392e-05
1.04021e-05
1.042e-05
1.04305e-05
1.04394e-05
1.04537e-05
1.06134e-05
1.03531e-05
1.03745e-05
1.03832e-05
1.0401e-05
1.04101e-05
1.04279e-05
1.04372e-05
1.04551e-05
1.04647e-05
1.04827e-05
1.04925e-05
1.05106e-05
1.05207e-05
1.05388e-05
1.05492e-05
1.05674e-05
1.05781e-05
1.05872e-05
1.06017e-05
1.07099e-05
1.04464e-05
1.0468e-05
1.04769e-05
1.04948e-05
1.0504e-05
1.05221e-05
1.05315e-05
1.05497e-05
1.05593e-05
1.05776e-05
1.05875e-05
1.06058e-05
1.0616e-05
1.06344e-05
1.06449e-05
1.06633e-05
1.06741e-05
1.06834e-05
1.06981e-05
1.07821e-05
1.05162e-05
1.0538e-05
1.05469e-05
1.05651e-05
1.05743e-05
1.05925e-05
1.0602e-05
1.06204e-05
1.06301e-05
1.06485e-05
1.06585e-05
1.0677e-05
1.06873e-05
1.07059e-05
1.07164e-05
1.0735e-05
1.07459e-05
1.07553e-05
1.07701e-05
1.08451e-05
1.0577e-05
1.0599e-05
1.0608e-05
1.06263e-05
1.06356e-05
1.0654e-05
1.06635e-05
1.0682e-05
1.06918e-05
1.07104e-05
1.07204e-05
1.07391e-05
1.07495e-05
1.07682e-05
1.07788e-05
1.07976e-05
1.08086e-05
1.0818e-05
1.08329e-05
1.09069e-05
1.06368e-05
1.0659e-05
1.0668e-05
1.06864e-05
1.06958e-05
1.07143e-05
1.0724e-05
1.07426e-05
1.07524e-05
1.07712e-05
1.07813e-05
1.08001e-05
1.08105e-05
1.08294e-05
1.08401e-05
1.0859e-05
1.08701e-05
1.08796e-05
1.08946e-05
1.09724e-05
1.07001e-05
1.07225e-05
1.07316e-05
1.07502e-05
1.07597e-05
1.07783e-05
1.0788e-05
1.08068e-05
1.08167e-05
1.08356e-05
1.08458e-05
1.08647e-05
1.08753e-05
1.08943e-05
1.09051e-05
1.09241e-05
1.09353e-05
1.09449e-05
1.09601e-05
1.10449e-05
1.07702e-05
1.07927e-05
1.08019e-05
1.08206e-05
1.08302e-05
1.0849e-05
1.08588e-05
1.08777e-05
1.08878e-05
1.09068e-05
1.09171e-05
1.09362e-05
1.09468e-05
1.0966e-05
1.09769e-05
1.09961e-05
1.10074e-05
1.1017e-05
1.10324e-05
1.11266e-05
1.08493e-05
1.0872e-05
1.08813e-05
1.09002e-05
1.09099e-05
1.09289e-05
1.09388e-05
1.09579e-05
1.0968e-05
1.09872e-05
1.09976e-05
1.10169e-05
1.10276e-05
1.1047e-05
1.1058e-05
1.10774e-05
1.10888e-05
1.10985e-05
1.1114e-05
1.12191e-05
1.09387e-05
1.09617e-05
1.09711e-05
1.09902e-05
1.09999e-05
1.10191e-05
1.10291e-05
1.10484e-05
1.10587e-05
1.10781e-05
1.10887e-05
1.11081e-05
1.1119e-05
1.11385e-05
1.11497e-05
1.11693e-05
1.11808e-05
1.11907e-05
1.12063e-05
1.13206e-05
1.10368e-05
1.106e-05
1.10695e-05
1.10889e-05
1.10987e-05
1.11182e-05
1.11283e-05
1.11478e-05
1.11582e-05
1.11778e-05
1.11885e-05
1.12082e-05
1.12192e-05
1.1239e-05
1.12503e-05
1.12701e-05
1.12818e-05
1.12917e-05
1.13076e-05
1.14231e-05
1.11359e-05
1.11594e-05
1.11691e-05
1.11886e-05
1.11986e-05
1.12182e-05
1.12284e-05
1.12482e-05
1.12587e-05
1.12786e-05
1.12894e-05
1.13093e-05
1.13204e-05
1.13404e-05
1.13519e-05
1.1372e-05
1.13838e-05
1.13938e-05
1.14099e-05
1.151e-05
1.12259e-05
1.12487e-05
1.12581e-05
1.12771e-05
1.12869e-05
1.13061e-05
1.13162e-05
1.13356e-05
1.1346e-05
1.13656e-05
1.13764e-05
1.13961e-05
1.14073e-05
1.14272e-05
1.14388e-05
1.14587e-05
1.14708e-05
1.14808e-05
1.1497e-05
1.15484e-05
1.15483e-05
1.15483e-05
1.15483e-05
1.15482e-05
1.15482e-05
1.15482e-05
1.15482e-05
1.15482e-05
1.15482e-05
1.15482e-05
1.15481e-05
1.15482e-05
1.15481e-05
1.15481e-05
1.15481e-05
1.15481e-05
1.15481e-05
1.15481e-05
1.15481e-05
)
;

boundaryField
{
    movingWall
    {
        type            zeroGradient;
    }
    fixedWalls
    {
        type            zeroGradient;
    }
    frontAndBack
    {
        type            empty;
    }
}


// ************************************************************************* //
