/*--------------------------------*- C++ -*----------------------------------*\
| =========                 |                                                 |
| \\      /  F ield         | OpenFOAM: The Open Source CFD Toolbox           |
|  \\    /   O peration     | Version:  2312                                  |
|   \\  /    A nd           | Website:  www.openfoam.com                      |
|    \\/     M anipulation  |                                                 |
\*---------------------------------------------------------------------------*/
FoamFile
{
    version     2.0;
    format      ascii;
    arch        "LSB;label=32;scalar=64";
    class       volVectorField;
    location    "10";
    object      ddtU;
}
// * * * * * * * * * * * * * * * * * * * * * * * * * * * * * * * * * * * * * //

dimensions      [0 1 -2 0 0 0 0];

internalField   nonuniform List<vector> 
400
(
(-4.44089e-14 9.74557e-14 0)
(6.66134e-14 1.99116e-15 0)
(2.22045e-14 6.55375e-15 0)
(2.22045e-14 8.76768e-15 0)
(6.66134e-14 1.25709e-14 0)
(0 9.26777e-15 0)
(-2.22045e-14 -6.97862e-15 0)
(4.44089e-14 3.79145e-16 0)
(-2.22045e-14 9.57568e-16 0)
(2.22045e-14 -1.32454e-14 0)
(4.44089e-14 -6.08526e-15 0)
(0 1.40869e-14 0)
(4.44089e-14 9.17859e-15 0)
(0 -8.50666e-15 0)
(0 -1.60011e-14 0)
(4.44089e-14 -1.30821e-14 0)
(0 1.80025e-14 0)
(0 9.13104e-15 0)
(6.66134e-14 -5.4746e-16 0)
(-2.22045e-14 -4.70435e-15 0)
(2.22045e-14 2.47004e-14 0)
(8.88178e-14 2.66674e-14 0)
(4.44089e-14 1.85829e-14 0)
(4.44089e-14 2.22444e-14 0)
(-4.44089e-14 2.39403e-14 0)
(4.44089e-14 1.7511e-14 0)
(6.66134e-14 1.73649e-14 0)
(0 1.27306e-14 0)
(-4.44089e-14 2.48345e-15 0)
(2.22045e-14 -1.46362e-14 0)
(2.22045e-14 -1.78041e-14 0)
(-6.66134e-14 -1.00737e-14 0)
(4.44089e-14 -4.26192e-16 0)
(6.66134e-14 1.31353e-14 0)
(0 1.24721e-14 0)
(0 -2.71005e-15 0)
(-4.44089e-14 1.90304e-15 0)
(4.44089e-14 5.36395e-15 0)
(4.44089e-14 3.62486e-16 0)
(0 -4.70805e-15 0)
(8.88178e-14 4.5736e-14 0)
(0 4.30625e-14 0)
(0 3.14191e-14 0)
(0 2.62127e-14 0)
(2.22045e-14 9.76688e-15 0)
(2.22045e-14 7.21499e-15 0)
(0 3.57577e-14 0)
(4.44089e-14 2.60882e-14 0)
(2.22045e-14 2.95871e-15 0)
(0 -7.35584e-15 0)
(2.22045e-14 9.47148e-16 0)
(0 2.3469e-15 0)
(-6.66134e-14 -2.74601e-15 0)
(-6.66134e-14 6.87901e-15 0)
(0 8.2931e-15 0)
(2.22045e-14 5.42686e-15 0)
(2.22045e-14 -6.88399e-15 0)
(0 2.85051e-15 0)
(-2.22045e-14 2.46159e-15 0)
(0 -4.70354e-16 0)
(-8.88178e-14 4.2504e-14 0)
(2.22045e-14 3.31386e-14 0)
(0 9.30025e-15 0)
(0 1.94532e-14 0)
(4.44089e-14 1.80154e-14 0)
(4.44089e-14 1.78894e-14 0)
(0 2.46498e-14 0)
(0 2.05024e-14 0)
(0 -5.3503e-16 0)
(0 -2.05961e-15 0)
(-4.44089e-14 3.0113e-15 0)
(0 1.44187e-14 0)
(4.44089e-14 1.0624e-14 0)
(4.44089e-14 -5.54985e-15 0)
(4.44089e-14 -1.54133e-14 0)
(4.44089e-14 4.88192e-15 0)
(2.22045e-14 1.78846e-14 0)
(0 1.43508e-14 0)
(0 5.12065e-15 0)
(0 -1.48499e-15 0)
(6.66134e-14 -7.54814e-14 0)
(4.44089e-14 4.56217e-14 0)
(-4.44089e-14 4.57883e-15 0)
(-1.11022e-13 2.5597e-14 0)
(-6.66134e-14 2.79467e-14 0)
(-4.44089e-14 8.90387e-15 0)
(0 3.54157e-17 0)
(-4.44089e-14 1.23199e-14 0)
(0 1.95621e-14 0)
(-4.44089e-14 2.67414e-14 0)
(-4.44089e-14 -2.16475e-15 0)
(-4.44089e-14 -1.92023e-14 0)
(0 -9.22134e-15 0)
(-4.44089e-14 4.31311e-15 0)
(0 5.32591e-15 0)
(0 4.00087e-15 0)
(4.44089e-14 1.03535e-14 0)
(0 1.42255e-14 0)
(0 9.28927e-15 0)
(-2.22045e-14 -4.608e-15 0)
(-1.77636e-13 1.09329e-15 0)
(6.66134e-14 3.33084e-14 0)
(-4.44089e-14 4.1548e-14 0)
(0 3.3275e-14 0)
(-4.44089e-14 1.60895e-14 0)
(0 3.12672e-15 0)
(0 -1.5016e-14 0)
(0 -9.00135e-17 0)
(-4.44089e-14 1.86309e-14 0)
(4.44089e-14 1.65483e-14 0)
(4.44089e-14 1.37114e-14 0)
(2.22045e-14 -7.66006e-15 0)
(0 -1.93018e-14 0)
(-4.44089e-14 -4.40255e-15 0)
(6.66134e-14 1.09279e-14 0)
(2.22045e-14 6.77646e-17 0)
(0 -5.73409e-15 0)
(2.22045e-14 1.34701e-14 0)
(4.44089e-14 1.59138e-14 0)
(2.22045e-14 -2.21946e-15 0)
(4.44089e-14 2.05057e-14 0)
(4.44089e-14 1.76562e-14 0)
(-2.22045e-14 5.17205e-14 0)
(6.66134e-14 2.89447e-14 0)
(2.22045e-14 1.24231e-14 0)
(-8.88178e-14 -4.39077e-15 0)
(2.22045e-14 -1.27951e-14 0)
(0 -4.22858e-15 0)
(4.44089e-14 -1.64344e-15 0)
(0 -9.03867e-15 0)
(-2.22045e-14 1.1892e-15 0)
(2.22045e-14 1.64651e-14 0)
(2.22045e-14 7.61868e-15 0)
(-6.66134e-14 -1.5313e-15 0)
(0 -2.12782e-15 0)
(2.22045e-14 1.19227e-16 0)
(0 -1.71224e-14 0)
(-2.22045e-14 4.62531e-15 0)
(4.44089e-14 2.217e-14 0)
(-2.22045e-14 9.32919e-15 0)
(-2.22045e-14 -1.54863e-13 0)
(0 5.87692e-14 0)
(0 2.7992e-14 0)
(4.44089e-14 2.4528e-14 0)
(0 1.66932e-14 0)
(8.88178e-14 9.33135e-15 0)
(0 -1.49554e-14 0)
(0 -6.06656e-15 0)
(-4.44089e-14 -6.17664e-16 0)
(0 -3.72362e-15 0)
(-4.44089e-14 -4.75425e-15 0)
(-4.44089e-14 1.07221e-14 0)
(4.44089e-14 1.39167e-14 0)
(0 1.51614e-15 0)
(0 -9.01843e-15 0)
(-4.44089e-14 -3.54528e-15 0)
(4.44089e-14 -5.66186e-15 0)
(-8.88178e-14 -9.24707e-15 0)
(0 1.43043e-14 0)
(0 1.27741e-14 0)
(-8.88178e-14 5.56092e-14 0)
(-4.44089e-14 -9.71736e-15 0)
(2.22045e-14 5.0095e-15 0)
(2.22045e-14 4.92181e-15 0)
(-2.22045e-14 4.5891e-15 0)
(4.44089e-14 1.66794e-14 0)
(2.22045e-14 3.26833e-16 0)
(2.22045e-14 -8.13121e-16 0)
(4.44089e-14 1.42214e-14 0)
(-2.22045e-14 1.93586e-14 0)
(-2.22045e-14 7.81755e-15 0)
(-4.44089e-14 -1.54921e-14 0)
(-2.22045e-14 3.45004e-15 0)
(-2.22045e-14 4.94267e-15 0)
(0 -1.40255e-14 0)
(-4.44089e-14 -1.22465e-14 0)
(4.44089e-14 1.20142e-14 0)
(-4.44089e-14 7.01591e-15 0)
(-2.22045e-14 -8.90116e-15 0)
(4.44089e-14 3.06041e-15 0)
(-1.33227e-13 6.38697e-14 0)
(0 -3.03929e-14 0)
(4.44089e-14 -3.31756e-15 0)
(0 3.59332e-15 0)
(4.44089e-14 2.37055e-15 0)
(-2.22045e-14 -1.15432e-15 0)
(0 1.4542e-14 0)
(-4.44089e-14 -4.90713e-15 0)
(0 3.53208e-15 0)
(0 1.71274e-14 0)
(4.44089e-14 1.65197e-14 0)
(0 7.40643e-16 0)
(0 9.48564e-16 0)
(0 1.49366e-15 0)
(2.22045e-14 -1.25485e-14 0)
(0 -1.80521e-14 0)
(0 -1.45311e-16 0)
(2.22045e-14 1.20349e-14 0)
(0 -7.07269e-15 0)
(0 2.61207e-15 0)
(6.66134e-14 -1.10143e-13 0)
(-4.44089e-14 -8.59477e-15 0)
(-4.44089e-14 -2.80734e-14 0)
(-2.22045e-14 -1.58603e-14 0)
(4.44089e-14 5.76851e-15 0)
(0 2.85271e-14 0)
(0 2.94928e-14 0)
(2.22045e-14 3.78356e-15 0)
(0 3.6497e-15 0)
(-4.44089e-14 9.67951e-15 0)
(-4.44089e-14 -5.80888e-15 0)
(0 -7.06306e-15 0)
(0 -1.36051e-14 0)
(0 -9.30088e-15 0)
(0 1.61532e-15 0)
(-4.44089e-14 -3.4145e-15 0)
(-4.44089e-14 -5.14412e-15 0)
(-2.22045e-14 -1.08547e-14 0)
(4.44089e-14 -5.34889e-17 0)
(0 9.71203e-15 0)
(0 8.30858e-14 0)
(4.44089e-14 -1.37561e-14 0)
(-4.44089e-14 -2.15397e-14 0)
(-2.22045e-14 -2.90561e-14 0)
(-6.66134e-14 -1.6848e-14 0)
(-8.88178e-14 5.33617e-15 0)
(0 1.55797e-14 0)
(0 1.2827e-14 0)
(0 7.94627e-15 0)
(4.44089e-14 5.34642e-15 0)
(4.44089e-14 1.13369e-14 0)
(4.44089e-14 6.74085e-15 0)
(2.22045e-14 -4.72645e-15 0)
(0 -4.12863e-15 0)
(0 -7.9877e-15 0)
(0 -1.45455e-14 0)
(-4.44089e-14 -5.11465e-15 0)
(0 -9.15665e-15 0)
(-4.44089e-14 -1.40016e-15 0)
(-4.44089e-14 -6.36667e-15 0)
(4.44089e-14 2.05384e-14 0)
(-4.44089e-14 1.42488e-14 0)
(0 1.12602e-14 0)
(-4.44089e-14 8.45355e-15 0)
(-4.44089e-14 -1.0269e-14 0)
(-4.44089e-14 -1.48071e-14 0)
(0 -7.10919e-15 0)
(0 -8.98913e-15 0)
(0 -1.072e-14 0)
(-4.44089e-14 -9.40693e-15 0)
(-4.44089e-14 1.93631e-14 0)
(8.88178e-14 2.7209e-14 0)
(4.44089e-14 1.72377e-14 0)
(0 3.83289e-15 0)
(4.44089e-14 -4.9031e-15 0)
(0 7.66483e-15 0)
(0 -1.55193e-15 0)
(0 -1.77772e-14 0)
(-4.44089e-14 -7.26676e-15 0)
(0 -4.03689e-17 0)
(-8.88178e-14 -4.68318e-14 0)
(4.44089e-14 3.48988e-15 0)
(0 -9.16534e-15 0)
(4.44089e-14 8.41526e-15 0)
(4.44089e-14 1.07317e-14 0)
(0 -1.76805e-15 0)
(6.66134e-14 -1.82585e-14 0)
(2.22045e-14 -6.07469e-15 0)
(2.22045e-14 7.57775e-15 0)
(0 8.93183e-15 0)
(0 -6.00809e-15 0)
(-2.22045e-14 4.47668e-15 0)
(4.44089e-14 1.65469e-14 0)
(2.22045e-14 8.05515e-15 0)
(-2.22045e-14 1.19356e-14 0)
(0 1.66082e-14 0)
(4.44089e-14 -7.14208e-15 0)
(6.66134e-14 -1.26315e-14 0)
(2.22045e-14 -1.31147e-14 0)
(0 1.23829e-14 0)
(4.44089e-14 4.21482e-14 0)
(2.22045e-14 -2.54249e-14 0)
(-4.44089e-14 -2.89491e-15 0)
(-2.22045e-14 8.73844e-16 0)
(0 1.50419e-14 0)
(6.66134e-14 1.21374e-14 0)
(0 4.1642e-15 0)
(-4.44089e-14 1.07824e-14 0)
(-4.44089e-14 5.34055e-15 0)
(-4.44089e-14 5.00257e-15 0)
(4.44089e-14 3.06235e-15 0)
(0 5.31917e-15 0)
(0 3.38274e-16 0)
(0 1.45047e-14 0)
(6.66134e-14 2.42774e-14 0)
(0 3.49674e-15 0)
(-2.22045e-14 -1.30349e-14 0)
(-2.22045e-14 -2.06946e-15 0)
(0 -5.76458e-16 0)
(-2.22045e-14 -1.07029e-15 0)
(-2.22045e-14 1.54416e-14 0)
(0 5.30948e-16 0)
(-2.22045e-14 7.77416e-16 0)
(0 -2.39094e-17 0)
(0 6.38408e-15 0)
(-4.44089e-14 4.42696e-15 0)
(-4.44089e-14 1.21475e-14 0)
(0 -2.23956e-15 0)
(4.44089e-14 -1.99275e-14 0)
(0 -1.17526e-14 0)
(4.44089e-14 1.24804e-15 0)
(-4.44089e-14 1.01911e-14 0)
(0 -1.39336e-15 0)
(4.44089e-14 1.56462e-15 0)
(8.88178e-14 2.22998e-14 0)
(-2.22045e-14 1.21282e-14 0)
(2.22045e-14 8.13223e-15 0)
(2.22045e-14 6.14382e-15 0)
(-2.22045e-14 1.73716e-15 0)
(0 -6.27519e-15 0)
(0 -7.14367e-14 0)
(2.22045e-14 -2.15307e-15 0)
(4.44089e-14 -1.90361e-14 0)
(2.22045e-14 -5.21663e-15 0)
(4.44089e-14 1.09798e-14 0)
(4.44089e-14 3.11573e-15 0)
(0 3.34387e-15 0)
(0 -1.6741e-15 0)
(-4.44089e-14 -6.01851e-15 0)
(-4.44089e-14 8.19086e-15 0)
(-4.44089e-14 7.90138e-15 0)
(-2.22045e-14 -1.54258e-15 0)
(2.22045e-14 -1.02068e-14 0)
(0 -1.83067e-14 0)
(-2.22045e-14 1.90476e-15 0)
(4.44089e-14 1.26519e-14 0)
(-2.22045e-14 2.06632e-14 0)
(-4.44089e-14 2.80583e-14 0)
(0 2.891e-16 0)
(-2.22045e-14 -4.4423e-15 0)
(0 8.22627e-14 0)
(-2.22045e-14 -4.80203e-14 0)
(-4.44089e-14 6.21171e-15 0)
(-2.22045e-14 -5.51435e-15 0)
(-4.44089e-14 -4.12631e-15 0)
(0 -2.08925e-15 0)
(0 6.41587e-16 0)
(0 2.26161e-15 0)
(-4.44089e-14 3.37014e-15 0)
(0 1.67963e-15 0)
(0 -3.71126e-15 0)
(4.44089e-14 -1.70286e-14 0)
(4.44089e-14 -1.61137e-14 0)
(0 1.724e-14 0)
(-4.44089e-14 2.07635e-14 0)
(0 -1.9394e-15 0)
(-8.88178e-14 1.88945e-14 0)
(0 2.28381e-14 0)
(-2.22045e-14 -2.45506e-15 0)
(-2.22045e-14 -4.92073e-15 0)
(2.22045e-14 8.98178e-15 0)
(-4.44089e-14 1.91768e-15 0)
(2.22045e-14 2.23141e-15 0)
(4.44089e-14 -7.06717e-15 0)
(2.22045e-14 -6.83677e-15 0)
(0 -5.4403e-15 0)
(0 -7.92735e-15 0)
(0 -4.03951e-15 0)
(-2.22045e-14 6.21477e-16 0)
(0 -1.23221e-14 0)
(0 -1.39468e-14 0)
(-2.22045e-14 -1.38062e-14 0)
(0 -1.49409e-15 0)
(-6.66134e-14 2.4597e-14 0)
(4.44089e-14 2.18093e-14 0)
(4.44089e-14 4.43486e-15 0)
(-4.44089e-14 4.44552e-15 0)
(4.44089e-14 2.58555e-15 0)
(0 -1.18276e-15 0)
(0 -8.25767e-15 0)
(4.44089e-14 -7.39261e-14 0)
(0 1.43438e-14 0)
(-2.22045e-14 -7.33561e-15 0)
(2.22045e-14 -1.1821e-15 0)
(0 8.90121e-15 0)
(2.22045e-14 8.72404e-15 0)
(4.44089e-14 1.5462e-15 0)
(0 4.29546e-15 0)
(-2.22045e-14 6.20625e-15 0)
(0 3.31453e-17 0)
(2.22045e-14 -1.30307e-15 0)
(0 -4.14817e-15 0)
(-4.44089e-14 7.14467e-16 0)
(0 -7.31395e-15 0)
(-2.22045e-14 -7.26979e-15 0)
(2.22045e-14 1.5811e-14 0)
(4.44089e-14 -1.49146e-15 0)
(-2.22045e-14 -5.07073e-15 0)
(4.44089e-14 2.38679e-15 0)
(2.22045e-14 -3.45008e-15 0)
)
;

boundaryField
{
    movingWall
    {
        type            calculated;
        value           uniform (0 0 0);
    }
    fixedWalls
    {
        type            calculated;
        value           uniform (0 0 0);
    }
    frontAndBack
    {
        type            empty;
    }
}


// ************************************************************************* //
