/*--------------------------------*- C++ -*----------------------------------*\
| =========                 |                                                 |
| \\      /  F ield         | OpenFOAM: The Open Source CFD Toolbox           |
|  \\    /   O peration     | Version:  2312                                  |
|   \\  /    A nd           | Website:  www.openfoam.com                      |
|    \\/     M anipulation  |                                                 |
\*---------------------------------------------------------------------------*/
FoamFile
{
    version     2.0;
    format      ascii;
    arch        "LSB;label=32;scalar=64";
    class       volScalarField;
    location    "10";
    object      divPhi;
}
// * * * * * * * * * * * * * * * * * * * * * * * * * * * * * * * * * * * * * //

dimensions      [0 0 -1 0 0 0 0];

internalField   nonuniform List<scalar> 
400
(
8.13152e-14
5.44013e-15
-1.9435e-14
7.72125e-15
9.37028e-16
5.90606e-15
-5.8631e-15
1.00347e-14
-1.34088e-14
1.00456e-14
-2.9965e-15
3.59943e-15
4.6648e-15
-1.97242e-14
9.77965e-15
-7.85678e-15
-2.27321e-15
3.52407e-15
7.20454e-15
0
-2.71051e-14
7.18162e-15
1.00137e-14
1.26045e-14
1.6826e-15
1.93042e-14
-1.58489e-15
1.16287e-14
-4.07469e-14
1.0248e-14
-1.07585e-14
-1.52971e-14
3.44124e-14
3.92203e-15
-1.50909e-14
-1.25928e-14
-8.19053e-15
7.53159e-15
2.11153e-14
0
2.71051e-14
-1.57501e-14
4.55548e-16
-3.25756e-15
2.57121e-14
-3.07447e-14
8.29079e-15
2.55507e-14
3.35397e-14
8.8383e-15
9.1783e-15
5.5985e-15
4.20512e-15
8.53337e-15
1.87525e-14
-5.6105e-15
-3.01292e-14
1.99361e-16
-4.43152e-15
0
-2.71051e-14
2.47148e-14
-3.3852e-14
-4.43893e-15
2.43857e-14
-2.26121e-14
1.22826e-14
-2.08972e-15
-1.59717e-14
2.06367e-15
1.91381e-14
1.51828e-14
-4.85866e-15
9.51163e-15
2.35912e-14
5.65063e-15
-1.9215e-14
8.48805e-15
1.13648e-16
0
0
-7.94121e-15
-5.39984e-15
-3.30498e-14
-9.65635e-15
3.18268e-15
1.58738e-14
1.41917e-15
2.77484e-14
-1.26069e-15
1.09461e-14
-1.59524e-14
-1.03542e-14
4.91132e-16
1.77034e-17
7.47715e-15
3.54198e-15
3.4309e-14
-7.07503e-15
0
0
-1.68731e-14
-3.4315e-15
1.75156e-14
-1.21251e-14
-1.10788e-15
-5.39896e-15
1.08763e-14
-2.7667e-15
8.03223e-15
5.72251e-15
1.42949e-14
-1.53608e-14
-1.36866e-14
1.03731e-14
1.26129e-14
6.80415e-16
3.29603e-14
-1.13913e-14
0
0
-1.51954e-14
-1.06134e-14
-4.06027e-15
-2.19442e-15
3.45276e-15
3.70345e-15
-1.43547e-14
-4.14156e-15
1.16072e-14
-1.59336e-14
-2.76501e-14
3.01461e-14
1.71315e-14
1.40731e-14
1.04399e-14
-1.61649e-14
1.47665e-15
4.06408e-15
0
0
5.83583e-15
-2.13492e-14
-9.46591e-15
1.19918e-14
7.5879e-15
-7.48627e-15
8.82625e-15
2.74879e-15
-1.25577e-14
4.18764e-14
-2.31081e-16
-2.23717e-15
8.03196e-15
-5.71655e-15
2.10193e-15
2.40478e-15
6.15477e-15
1.71731e-14
-2.71051e-14
0
-7.70387e-15
3.99002e-15
-5.28737e-15
1.21415e-14
-2.61166e-15
1.29249e-14
-2.89154e-15
7.01173e-15
-3.47764e-14
1.6944e-14
8.6688e-15
-2.47165e-14
2.25366e-14
-2.10071e-14
-1.10104e-14
-1.00669e-14
2.54686e-14
-1.49419e-15
0
2.71051e-14
-1.06015e-14
-2.2419e-15
-1.84725e-14
1.13297e-14
7.71136e-15
7.07333e-15
-4.73682e-15
3.3402e-15
-2.00722e-14
1.61085e-14
-2.23961e-14
-1.54097e-15
-2.06179e-14
1.31985e-14
1.7688e-15
-2.02323e-14
-1.70066e-14
2.20828e-14
0
-2.71051e-14
-1.54724e-15
2.40983e-15
-1.26867e-15
8.23947e-15
-1.1262e-15
-5.90183e-16
1.29386e-14
-2.08387e-15
1.03313e-14
-9.93387e-15
2.19154e-14
-1.04515e-14
6.88223e-16
-7.94118e-15
7.75483e-15
-2.3173e-14
1.70969e-14
1.98326e-14
-2.71051e-14
0
-1.35985e-15
-3.81806e-15
1.17477e-14
2.71452e-15
-5.13083e-15
1.88199e-15
1.35061e-14
-1.60701e-16
1.32512e-14
-6.87642e-15
7.67485e-15
-5.01991e-15
-2.38622e-14
1.20479e-14
1.6181e-14
-6.72945e-15
-1.98754e-14
2.46088e-15
0
0
9.44216e-15
-2.5912e-14
1.33126e-14
9.90885e-15
-7.8454e-15
2.56498e-14
5.43618e-15
-1.40704e-14
3.71542e-15
2.30835e-16
1.71891e-14
-9.40649e-15
6.25739e-15
5.43057e-15
6.34538e-15
-1.6827e-14
1.10536e-14
8.7581e-15
0
0
2.00489e-14
-1.87647e-14
2.86138e-14
2.28534e-14
-1.49444e-14
8.93102e-15
6.0182e-15
-7.32158e-15
1.37776e-14
-1.54443e-14
1.09011e-14
-2.68237e-14
2.06156e-14
1.22043e-14
1.97319e-14
-4.38019e-15
4.19466e-15
8.56005e-15
0
0
-7.61894e-15
2.53388e-14
-1.94817e-14
-8.22755e-15
-2.13541e-15
3.0047e-14
9.07163e-15
-9.63654e-15
-1.75503e-16
9.0831e-15
1.01787e-14
-1.0172e-14
2.43946e-14
1.79821e-14
-2.73045e-14
2.85668e-15
-9.94898e-15
2.3118e-14
0
0
-4.66805e-15
-4.72371e-15
1.33624e-14
-8.15402e-15
-1.43645e-14
-1.56149e-14
4.86709e-15
-2.33033e-14
2.46266e-15
6.85608e-15
1.77776e-14
-6.20081e-15
-2.73628e-15
-2.27983e-15
-1.08886e-14
9.55567e-15
-4.92695e-15
2.77663e-15
0
2.71051e-14
-5.69513e-15
-9.16587e-15
-1.64459e-15
-1.3212e-14
1.91633e-14
-6.18856e-15
9.59658e-15
-1.87775e-15
1.59116e-14
-1.23516e-14
2.02935e-14
-1.27726e-14
6.08651e-15
-2.00666e-14
-1.88383e-14
5.20608e-15
4.77013e-15
4.73473e-15
-2.71051e-14
-2.71051e-14
-4.21926e-15
5.02344e-15
-7.8338e-15
-4.93022e-14
2.25005e-14
-1.85302e-14
9.61089e-15
-3.52732e-14
-4.17851e-15
1.06601e-15
-7.2054e-15
-2.75097e-14
1.68542e-14
-1.75885e-14
1.03791e-14
1.05316e-14
-1.69158e-14
2.87781e-14
2.71051e-14
0
2.21514e-14
-1.19708e-14
-1.52972e-14
-1.77375e-14
-2.98965e-15
1.44869e-14
8.28226e-15
1.78516e-14
-1.40405e-14
3.19187e-15
-2.62097e-14
1.67251e-14
5.70183e-15
-1.40331e-14
2.89154e-14
-7.73065e-15
4.13794e-14
-1.30885e-14
-2.71051e-14
0
0
0
2.71051e-14
0
0
-2.71051e-14
0
0
2.71051e-14
2.71051e-14
0
0
0
2.71051e-14
0
0
0
-2.71051e-14
0
)
;

boundaryField
{
    movingWall
    {
        type            extrapolatedCalculated;
        value           nonuniform List<scalar> 
20
(
0
0
0
2.71051e-14
0
0
-2.71051e-14
0
0
2.71051e-14
2.71051e-14
0
0
0
2.71051e-14
0
0
0
-2.71051e-14
0
)
;
    }
    fixedWalls
    {
        type            extrapolatedCalculated;
        value           nonuniform List<scalar> 
60
(
8.13152e-14
-2.71051e-14
2.71051e-14
-2.71051e-14
0
0
0
0
0
2.71051e-14
-2.71051e-14
0
0
0
0
0
2.71051e-14
-2.71051e-14
0
0
0
0
0
0
0
0
0
-2.71051e-14
0
0
-2.71051e-14
0
0
0
0
0
-2.71051e-14
2.71051e-14
-2.71051e-14
0
8.13152e-14
5.44013e-15
-1.9435e-14
7.72125e-15
9.37028e-16
5.90606e-15
-5.8631e-15
1.00347e-14
-1.34088e-14
1.00456e-14
-2.9965e-15
3.59943e-15
4.6648e-15
-1.97242e-14
9.77965e-15
-7.85678e-15
-2.27321e-15
3.52407e-15
7.20454e-15
0
)
;
    }
    frontAndBack
    {
        type            empty;
    }
}


// ************************************************************************* //
