/*--------------------------------*- C++ -*----------------------------------*\
| =========                 |                                                 |
| \\      /  F ield         | OpenFOAM: The Open Source CFD Toolbox           |
|  \\    /   O peration     | Version:  2312                                  |
|   \\  /    A nd           | Website:  www.openfoam.com                      |
|    \\/     M anipulation  |                                                 |
\*---------------------------------------------------------------------------*/
FoamFile
{
    version     2.0;
    format      ascii;
    arch        "LSB;label=32;scalar=64";
    class       volScalarField;
    location    "10";
    object      divU;
}
// * * * * * * * * * * * * * * * * * * * * * * * * * * * * * * * * * * * * * //

dimensions      [0 0 -1 0 0 0 0];

internalField   nonuniform List<scalar> 
400
(
1.73472e-11
-2.1234e-12
4.54434e-13
-1.50608e-13
5.1359e-14
-3.35027e-14
-1.37726e-14
9.13084e-15
1.49272e-14
-2.48575e-14
2.82047e-16
8.83818e-15
-3.33094e-15
-3.05874e-14
1.03344e-14
4.57606e-15
3.50574e-14
-1.65056e-14
2.21711e-16
0
-3.08727e-11
3.90882e-12
-8.01371e-13
2.97421e-13
-4.64134e-14
3.53561e-14
2.65726e-14
-8.71365e-15
-3.15011e-15
1.34005e-14
-9.41708e-15
-1.33931e-14
4.41955e-14
6.47353e-15
-1.40851e-14
-2.44452e-14
6.59282e-15
-1.57677e-15
-2.22003e-14
2.71051e-14
9.83913e-12
-1.66912e-12
2.60999e-13
-1.25087e-13
2.9745e-14
-3.87232e-14
1.52409e-14
-1.4321e-14
-1.24932e-14
3.71509e-15
3.94698e-15
-2.17991e-14
-2.36167e-14
1.12303e-14
8.88486e-15
2.26718e-14
4.14919e-15
7.09407e-16
-1.72625e-14
0
1.46638e-11
-4.09937e-13
1.59494e-14
1.72021e-14
6.38502e-14
-1.36067e-14
-7.51589e-14
3.98999e-14
2.20442e-14
7.72949e-15
2.55163e-14
1.25351e-14
-4.46285e-15
1.24826e-14
6.07713e-14
8.48972e-15
-2.17181e-14
1.42534e-15
5.28203e-14
-2.71051e-14
-2.21448e-11
1.79882e-12
-3.71509e-13
1.15963e-13
-3.03228e-14
1.59975e-14
1.8966e-14
-3.69252e-14
1.76904e-15
3.62885e-15
2.4345e-16
6.85399e-15
-2.43691e-14
-1.03853e-14
-3.31523e-15
4.9852e-15
8.5532e-16
4.6687e-14
3.05408e-14
-2.71051e-14
1.20889e-11
-6.44106e-13
1.56717e-13
-5.39732e-14
2.95314e-14
-1.70505e-14
-1.04256e-14
4.27149e-14
-5.66301e-15
-2.89519e-14
3.11621e-14
1.71881e-14
3.24704e-14
-2.37259e-15
8.04344e-15
1.66337e-14
4.1111e-15
9.19009e-16
1.71818e-14
-2.71051e-14
1.01915e-11
-2.12044e-12
3.99796e-13
-1.30334e-13
-7.70361e-15
-2.46399e-15
1.37661e-14
-4.19323e-14
-1.05095e-14
-1.60333e-14
3.31515e-14
2.70128e-15
-4.16652e-14
-1.64015e-14
1.46966e-14
-2.52081e-14
-1.01063e-14
5.09719e-15
-8.18719e-15
0
-2.57227e-11
4.44201e-12
-8.84089e-13
3.20408e-13
8.5739e-15
3.99182e-15
-7.01051e-14
6.08218e-15
3.86283e-14
2.75562e-14
-7.46881e-14
5.04575e-14
5.63754e-14
1.68824e-14
-2.11355e-14
6.02831e-14
-6.84426e-14
1.64541e-15
2.86252e-14
-2.71051e-14
2.23617e-11
-4.33236e-12
8.53535e-13
-3.80403e-13
4.46061e-14
3.78261e-15
4.46072e-14
2.74955e-15
3.08456e-15
-5.18549e-14
-6.07063e-15
3.23468e-14
-1.43496e-14
-1.91018e-14
-6.36028e-14
1.95731e-14
5.59628e-14
3.94093e-15
-5.89192e-15
0
-7.48099e-12
1.79346e-12
-2.42764e-13
1.22552e-13
-4.57317e-14
-4.5353e-16
-5.6491e-14
1.70703e-14
1.14457e-14
1.95297e-15
6.75332e-14
1.53634e-14
-7.60129e-15
4.42488e-14
-1.04755e-14
-2.93985e-14
-6.33223e-16
-2.69377e-14
1.9325e-14
-2.71051e-14
-9.21572e-12
1.36338e-12
-2.83882e-13
1.03934e-13
5.26258e-15
1.02457e-14
6.13264e-15
1.58614e-14
-1.2364e-14
-6.3833e-14
1.11225e-14
-1.22727e-14
-2.05501e-14
-3.176e-14
-2.8098e-14
-1.54881e-14
1.44129e-14
4.76723e-14
-2.39868e-15
0
2.14943e-11
-4.23696e-12
8.09932e-13
-3.60347e-13
4.84649e-14
-1.15735e-14
9.32075e-15
-1.77944e-14
3.76928e-15
1.74378e-14
1.62052e-14
5.56909e-15
1.10889e-14
1.0062e-14
9.06512e-16
-1.07225e-14
-3.62303e-14
2.05754e-14
-6.49198e-16
-2.71051e-14
-2.33375e-11
4.81192e-12
-9.49022e-13
4.02248e-13
-8.90336e-14
5.84045e-15
-1.58789e-14
3.07286e-14
-1.98904e-14
-2.27688e-14
8.95585e-15
5.03869e-14
-4.74029e-14
1.54718e-17
4.791e-14
-4.55022e-14
5.19898e-15
-3.5701e-14
9.28522e-15
5.42101e-14
1.37965e-11
-2.89506e-12
5.40825e-13
-2.21938e-13
2.04365e-14
-5.36206e-15
5.01889e-14
-4.25509e-15
7.62694e-15
1.81305e-14
-3.33623e-14
2.00478e-15
2.9445e-14
-2.96128e-15
-7.7535e-14
1.78507e-14
5.3543e-14
4.04183e-14
-1.75533e-14
-2.71051e-14
4.52654e-12
-1.81295e-13
-8.85367e-15
2.6819e-14
7.82828e-15
2.95028e-14
-3.63822e-14
-3.83819e-14
-2.33955e-14
-3.0973e-14
5.27169e-14
-9.24774e-15
2.25558e-14
2.15963e-14
1.03282e-14
-3.68414e-14
-2.51185e-14
2.34528e-14
2.35864e-14
0
-2.18196e-11
2.6027e-12
-5.46529e-13
1.83277e-13
-5.39012e-14
1.21685e-14
-6.50013e-15
1.68928e-14
2.53925e-15
7.6579e-16
-1.87362e-14
-1.01216e-14
-1.0065e-14
7.17902e-16
3.51359e-14
-3.72152e-15
9.69237e-15
-1.05717e-14
5.46046e-16
0
2.27682e-11
-2.7583e-12
5.63115e-13
-2.65376e-13
5.1509e-14
1.88259e-14
-3.45033e-14
-2.08363e-14
7.96691e-15
2.32084e-14
-2.34886e-14
-8.48782e-15
5.7128e-15
-3.32933e-15
-1.90619e-14
-1.87499e-14
1.03468e-15
-6.07944e-14
6.01859e-14
0
6.77626e-13
2.50592e-13
-8.01126e-14
-4.43328e-15
-2.19497e-14
2.36353e-14
-2.61022e-14
6.45622e-15
-4.12301e-14
-1.23016e-14
3.17918e-14
-7.82844e-15
4.10333e-14
5.36178e-15
-2.64685e-14
-1.26479e-14
1.6255e-14
2.60883e-14
1.71224e-15
0
-2.49095e-11
2.5885e-12
-5.48252e-13
2.1666e-13
6.25391e-15
-9.44837e-16
1.82291e-14
1.22554e-14
-5.37723e-15
1.90734e-14
8.38133e-15
5.38929e-15
-4.35584e-14
-3.2818e-14
4.61641e-14
-5.92298e-14
-1.05444e-14
-1.87212e-14
4.12118e-14
0
1.55854e-11
-1.89735e-12
4.33681e-13
-1.35525e-13
2.71051e-14
0
0
0
-2.71051e-14
0
2.71051e-14
0
2.71051e-14
0
0
0
0
2.71051e-14
0
-5.42101e-14
)
;

boundaryField
{
    movingWall
    {
        type            extrapolatedCalculated;
        value           nonuniform List<scalar> 
20
(
1.55854e-11
-1.89735e-12
4.33681e-13
-1.35525e-13
2.71051e-14
0
0
0
-2.71051e-14
0
2.71051e-14
0
2.71051e-14
0
0
0
0
2.71051e-14
0
-5.42101e-14
)
;
    }
    fixedWalls
    {
        type            extrapolatedCalculated;
        value           nonuniform List<scalar> 
60
(
1.73472e-11
-3.08727e-11
9.83913e-12
1.46638e-11
-2.21448e-11
1.20889e-11
1.01915e-11
-2.57227e-11
2.23617e-11
-7.48099e-12
-9.21572e-12
2.14943e-11
-2.33375e-11
1.37965e-11
4.52654e-12
-2.18196e-11
2.27682e-11
6.77626e-13
-2.49095e-11
1.55854e-11
0
2.71051e-14
0
-2.71051e-14
-2.71051e-14
-2.71051e-14
0
-2.71051e-14
0
-2.71051e-14
0
-2.71051e-14
5.42101e-14
-2.71051e-14
0
0
0
0
0
-5.42101e-14
1.73472e-11
-2.1234e-12
4.54434e-13
-1.50608e-13
5.1359e-14
-3.35027e-14
-1.37726e-14
9.13084e-15
1.49272e-14
-2.48575e-14
2.82047e-16
8.83818e-15
-3.33094e-15
-3.05874e-14
1.03344e-14
4.57606e-15
3.50574e-14
-1.65056e-14
2.21711e-16
0
)
;
    }
    frontAndBack
    {
        type            empty;
    }
}


// ************************************************************************* //
