/*--------------------------------*- C++ -*----------------------------------*\
| =========                 |                                                 |
| \\      /  F ield         | OpenFOAM: The Open Source CFD Toolbox           |
|  \\    /   O peration     | Version:  2312                                  |
|   \\  /    A nd           | Website:  www.openfoam.com                      |
|    \\/     M anipulation  |                                                 |
\*---------------------------------------------------------------------------*/
FoamFile
{
    version     2.0;
    format      ascii;
    arch        "LSB;label=32;scalar=64";
    class       volScalarField;
    location    "10";
    object      dpdt2;
}
// * * * * * * * * * * * * * * * * * * * * * * * * * * * * * * * * * * * * * //

dimensions      [0 4 -6 0 0 0 0];

internalField   nonuniform List<scalar> 
400
(
1.27142e-26
2.77175e-25
6.12707e-25
8.58376e-25
1.19532e-24
1.5249e-24
1.95507e-24
2.12092e-24
2.39555e-24
2.79867e-24
2.98993e-24
2.95817e-24
2.88878e-24
2.89122e-24
2.88488e-24
2.93102e-24
2.59632e-24
2.49717e-24
2.50343e-24
2.8289e-24
1.91939e-25
3.90869e-25
6.91422e-25
9.94107e-25
1.23544e-24
1.55341e-24
1.90286e-24
2.20392e-24
2.53499e-24
2.73049e-24
2.8875e-24
2.96872e-24
2.97454e-24
2.8076e-24
2.84288e-24
2.70766e-24
2.78383e-24
2.58482e-24
2.62584e-24
2.79761e-24
4.58792e-25
5.93963e-25
9.80338e-25
1.22784e-24
1.41564e-24
1.64592e-24
2.03208e-24
2.24175e-24
2.48954e-24
2.80159e-24
2.9065e-24
2.82333e-24
2.8172e-24
2.78595e-24
2.78429e-24
2.8125e-24
2.78231e-24
2.71341e-24
2.71047e-24
2.75881e-24
8.12169e-25
9.32596e-25
1.22236e-24
1.33488e-24
1.47362e-24
1.83057e-24
2.21748e-24
2.38826e-24
2.6091e-24
2.75848e-24
2.9371e-24
2.96687e-24
2.82986e-24
2.65794e-24
2.67698e-24
2.79502e-24
2.84783e-24
2.81386e-24
2.78201e-24
2.76874e-24
1.10082e-24
1.13623e-24
1.32909e-24
1.51842e-24
1.75559e-24
1.97621e-24
2.33071e-24
2.57918e-24
2.63889e-24
2.79017e-24
2.82193e-24
2.88848e-24
2.96762e-24
2.76458e-24
2.66422e-24
2.81731e-24
2.97209e-24
2.89746e-24
2.83622e-24
2.76541e-24
1.4033e-24
1.40214e-24
1.56705e-24
1.7305e-24
2.11072e-24
2.11631e-24
2.4025e-24
2.6584e-24
2.65513e-24
2.76314e-24
2.68136e-24
2.89478e-24
2.9032e-24
2.88589e-24
2.81481e-24
2.85133e-24
2.94616e-24
2.91054e-24
2.79668e-24
2.69218e-24
1.67186e-24
1.75598e-24
1.88846e-24
2.00621e-24
2.09316e-24
2.32033e-24
2.49492e-24
2.70454e-24
2.66851e-24
2.66333e-24
2.7448e-24
2.87109e-24
2.8548e-24
2.89166e-24
2.80133e-24
2.78498e-24
2.86215e-24
2.96554e-24
2.79252e-24
2.69471e-24
1.89681e-24
2.04154e-24
2.14435e-24
2.22193e-24
2.28062e-24
2.32445e-24
2.52634e-24
2.6692e-24
2.62678e-24
2.69337e-24
2.58945e-24
2.92232e-24
2.78987e-24
2.72399e-24
2.62648e-24
2.76726e-24
2.76406e-24
2.94979e-24
2.79814e-24
2.77985e-24
2.02417e-24
2.18722e-24
2.33651e-24
2.38831e-24
2.39588e-24
2.53572e-24
2.40564e-24
2.62334e-24
2.60609e-24
2.66799e-24
2.73357e-24
2.85834e-24
2.80335e-24
2.71568e-24
2.58994e-24
2.71612e-24
2.76345e-24
2.80068e-24
2.90785e-24
2.84778e-24
2.19268e-24
2.27919e-24
2.3666e-24
2.56388e-24
2.47428e-24
2.53263e-24
2.49145e-24
2.69195e-24
2.6478e-24
2.62864e-24
2.70857e-24
2.75179e-24
2.89221e-24
2.68536e-24
2.50004e-24
2.58361e-24
2.74035e-24
2.90194e-24
2.83038e-24
2.85635e-24
2.38535e-24
2.31751e-24
2.46584e-24
2.55694e-24
2.63151e-24
2.61593e-24
2.69061e-24
2.66806e-24
2.73614e-24
2.6741e-24
2.71725e-24
2.63671e-24
2.66151e-24
2.65015e-24
2.48984e-24
2.5529e-24
2.67458e-24
2.92276e-24
2.86898e-24
2.89107e-24
2.37961e-24
2.33172e-24
2.44043e-24
2.56226e-24
2.57618e-24
2.79592e-24
2.75306e-24
2.732e-24
2.74435e-24
2.77551e-24
2.61222e-24
2.65589e-24
2.70091e-24
2.62648e-24
2.49681e-24
2.51112e-24
2.7045e-24
2.8272e-24
2.82235e-24
2.94831e-24
2.41015e-24
2.41713e-24
2.43633e-24
2.58933e-24
2.54866e-24
2.7019e-24
2.85674e-24
2.83225e-24
2.78438e-24
2.79923e-24
2.82958e-24
2.78251e-24
2.62723e-24
2.7536e-24
2.62253e-24
2.52298e-24
2.64081e-24
2.65203e-24
2.77512e-24
2.76199e-24
2.6096e-24
2.58387e-24
2.61376e-24
2.5705e-24
2.49073e-24
2.70542e-24
2.81472e-24
2.82279e-24
2.85216e-24
2.87855e-24
2.73056e-24
2.79071e-24
2.83007e-24
2.83081e-24
2.64873e-24
2.66607e-24
2.62705e-24
2.56101e-24
2.72696e-24
2.93034e-24
2.74565e-24
2.69489e-24
2.67233e-24
2.6157e-24
2.73781e-24
2.90174e-24
2.84298e-24
2.84707e-24
2.93927e-24
2.99198e-24
2.85109e-24
2.85653e-24
3.04719e-24
2.92304e-24
2.81148e-24
2.68197e-24
2.51027e-24
2.70767e-24
2.62213e-24
2.93515e-24
2.83163e-24
2.70828e-24
2.85897e-24
2.8059e-24
2.81545e-24
3.03618e-24
3.03839e-24
3.03852e-24
2.94496e-24
2.95336e-24
2.8973e-24
3.02117e-24
3.07104e-24
2.99815e-24
2.91796e-24
2.72579e-24
2.65296e-24
2.63322e-24
2.71236e-24
2.8887e-24
2.82765e-24
2.77131e-24
2.75393e-24
2.81726e-24
2.90222e-24
3.01586e-24
3.07081e-24
2.9536e-24
2.91398e-24
3.04258e-24
3.04306e-24
3.15575e-24
3.09655e-24
2.92373e-24
2.88981e-24
2.81701e-24
2.82634e-24
2.87004e-24
2.75744e-24
2.83662e-24
2.59488e-24
2.76961e-24
2.82702e-24
2.93629e-24
3.05704e-24
3.07412e-24
3.03667e-24
2.97637e-24
2.94509e-24
3.13613e-24
3.08129e-24
3.1514e-24
3.13226e-24
2.91484e-24
2.85014e-24
2.81994e-24
3.00031e-24
3.07381e-24
2.93314e-24
2.86464e-24
2.5909e-24
2.72789e-24
2.86666e-24
2.88054e-24
3.03722e-24
3.08924e-24
3.08839e-24
2.9879e-24
2.89551e-24
3.0736e-24
3.06066e-24
3.09761e-24
3.00178e-24
3.11342e-24
3.02778e-24
2.80072e-24
3.17247e-24
3.16634e-24
2.86805e-24
2.82473e-24
2.66222e-24
2.63875e-24
2.87449e-24
2.93868e-24
3.25668e-24
3.21629e-24
3.10984e-24
3.02634e-24
2.98216e-24
3.02563e-24
3.02146e-24
2.97834e-24
3.0054e-24
3.03621e-24
2.99051e-24
2.90839e-24
3.12534e-24
3.30163e-24
3.02886e-24
2.74236e-24
)
;

boundaryField
{
    movingWall
    {
        type            calculated;
        value           nonuniform List<scalar> 
20
(
2.66222e-24
2.63875e-24
2.87449e-24
2.93868e-24
3.25668e-24
3.21629e-24
3.10984e-24
3.02634e-24
2.98216e-24
3.02563e-24
3.02146e-24
2.97834e-24
3.0054e-24
3.03621e-24
2.99051e-24
2.90839e-24
3.12534e-24
3.30163e-24
3.02886e-24
2.74236e-24
)
;
    }
    fixedWalls
    {
        type            calculated;
        value           nonuniform List<scalar> 
60
(
1.27142e-26
1.91939e-25
4.58792e-25
8.12169e-25
1.10082e-24
1.4033e-24
1.67186e-24
1.89681e-24
2.02417e-24
2.19268e-24
2.38535e-24
2.37961e-24
2.41015e-24
2.6096e-24
2.74565e-24
2.83163e-24
2.82765e-24
2.59488e-24
2.5909e-24
2.66222e-24
2.8289e-24
2.79761e-24
2.75881e-24
2.76874e-24
2.76541e-24
2.69218e-24
2.69471e-24
2.77985e-24
2.84778e-24
2.85635e-24
2.89107e-24
2.94831e-24
2.76199e-24
2.93034e-24
2.93515e-24
2.8887e-24
2.83662e-24
2.86464e-24
2.82473e-24
2.74236e-24
1.27142e-26
2.77175e-25
6.12707e-25
8.58376e-25
1.19532e-24
1.5249e-24
1.95507e-24
2.12092e-24
2.39555e-24
2.79867e-24
2.98993e-24
2.95817e-24
2.88878e-24
2.89122e-24
2.88488e-24
2.93102e-24
2.59632e-24
2.49717e-24
2.50343e-24
2.8289e-24
)
;
    }
    frontAndBack
    {
        type            empty;
    }
}


// ************************************************************************* //
