/*--------------------------------*- C++ -*----------------------------------*\
| =========                 |                                                 |
| \\      /  F ield         | OpenFOAM: The Open Source CFD Toolbox           |
|  \\    /   O peration     | Version:  2312                                  |
|   \\  /    A nd           | Website:  www.openfoam.com                      |
|    \\/     M anipulation  |                                                 |
\*---------------------------------------------------------------------------*/
FoamFile
{
    version     2.0;
    format      ascii;
    arch        "LSB;label=32;scalar=64";
    class       volScalarField;
    location    "10";
    object      dUdt2;
}
// * * * * * * * * * * * * * * * * * * * * * * * * * * * * * * * * * * * * * //

dimensions      [0 2 -4 0 0 0 0];

internalField   nonuniform List<scalar> 
400
(
1.14698e-26
4.44131e-27
5.3599e-28
5.6991e-28
4.59537e-27
8.58916e-29
5.41739e-28
1.9723e-27
4.93955e-28
6.6848e-28
2.00918e-27
1.98442e-28
2.0564e-27
7.23632e-29
2.56034e-28
2.14329e-27
3.2409e-28
8.33758e-29
4.43764e-27
5.15169e-28
1.10315e-27
8.59976e-27
2.31748e-27
2.46696e-27
2.54529e-27
2.27879e-27
4.73888e-27
1.62067e-28
1.97832e-27
7.07256e-28
8.10026e-28
4.53882e-27
1.97233e-27
4.60988e-27
1.55552e-28
7.34435e-30
1.97577e-27
2.00092e-27
1.97228e-27
2.21657e-29
9.98039e-27
1.85438e-27
9.87157e-28
6.87108e-28
5.8843e-28
5.45094e-28
1.27861e-27
2.65275e-27
5.01792e-28
5.41084e-29
4.93935e-28
5.50794e-30
4.44488e-27
4.48466e-27
6.87755e-29
5.22489e-28
5.40427e-28
8.12543e-30
4.99097e-28
2.21233e-31
9.6952e-27
1.5912e-27
8.64946e-29
3.78427e-28
2.29671e-27
2.29218e-27
6.07614e-28
4.20347e-28
2.86257e-31
4.24199e-30
1.98122e-27
2.07899e-28
2.08502e-27
2.00295e-27
2.20972e-27
1.99599e-27
8.12895e-28
2.05945e-28
2.6221e-29
2.2052e-30
1.01348e-26
4.05349e-27
1.99312e-27
1.29812e-26
5.21836e-27
2.05143e-27
1.25427e-33
2.12393e-27
3.82677e-28
2.68726e-27
1.97684e-27
2.34088e-27
8.50331e-29
1.99076e-27
2.83653e-29
1.6007e-29
2.07935e-27
2.02365e-28
8.62906e-29
5.14272e-28
3.15556e-26
5.54679e-27
3.69839e-27
1.10722e-27
2.23102e-27
9.77635e-30
2.25481e-28
8.10243e-33
2.31926e-27
2.246e-27
2.16015e-27
5.51715e-28
3.72559e-28
1.99153e-27
4.55676e-27
4.93043e-28
3.28797e-29
6.7448e-28
2.2254e-27
4.97964e-28
2.39263e-27
2.28389e-27
3.16805e-27
5.27514e-27
6.47371e-28
7.90789e-27
6.56753e-28
1.78809e-29
1.97485e-27
8.16976e-29
4.94452e-28
7.64136e-28
5.51082e-28
4.43969e-27
4.52761e-30
4.93052e-28
2.93176e-28
5.14432e-28
2.46366e-27
5.80072e-28
2.44756e-26
3.45382e-27
7.83555e-28
2.57378e-27
2.78664e-28
7.97568e-27
2.23663e-28
3.68032e-29
1.97253e-27
1.38653e-29
1.99476e-27
2.08712e-27
2.16583e-27
2.29867e-30
8.1332e-29
1.98472e-27
2.00421e-27
7.97412e-27
2.04612e-28
1.63178e-28
1.0981e-26
2.06658e-27
5.18133e-28
5.17262e-28
5.14098e-28
2.25035e-27
4.93145e-28
4.93699e-28
2.1744e-27
8.67793e-28
5.54152e-28
2.21216e-27
5.04941e-28
5.17468e-28
1.96714e-28
2.12213e-27
2.11649e-27
2.02138e-27
5.72269e-28
1.98152e-27
2.18287e-26
9.23731e-28
1.98316e-27
1.29119e-29
1.97777e-27
4.94371e-28
2.11469e-28
1.99623e-27
1.24756e-29
2.93347e-28
2.24505e-27
5.48552e-31
8.99773e-31
2.23101e-30
6.50504e-28
3.25878e-28
2.11152e-32
6.37876e-28
5.0023e-29
6.82288e-30
1.65689e-26
2.04602e-27
2.76027e-27
7.44588e-28
2.00543e-27
8.13796e-28
8.69822e-28
5.07353e-28
1.33203e-29
2.06585e-27
2.0059e-27
4.98869e-29
1.85099e-28
8.65065e-29
2.60926e-30
1.98381e-27
1.99861e-27
6.10864e-28
1.97216e-27
9.43235e-29
6.90325e-27
2.16138e-27
2.43611e-27
1.33729e-27
4.7212e-27
7.91708e-27
2.42729e-28
1.64533e-28
6.31432e-29
2.00074e-27
2.10068e-27
2.01759e-27
5.15377e-28
1.70456e-29
6.38033e-29
2.11571e-28
1.99831e-27
8.38443e-29
1.97411e-27
2.01269e-27
2.39398e-27
2.17518e-27
1.26793e-28
2.04361e-27
2.07761e-27
2.1914e-27
5.05405e-29
8.08045e-29
1.14919e-28
2.06064e-27
2.34708e-27
8.62894e-27
2.26929e-27
1.4691e-29
1.99619e-27
5.87496e-29
2.40848e-30
3.1603e-28
2.02496e-27
1.62965e-33
1.00818e-26
1.98433e-27
8.40034e-29
2.04297e-27
2.08732e-27
3.12602e-30
4.77071e-27
5.2994e-28
5.5046e-28
7.97776e-29
3.60971e-29
5.13079e-28
2.24595e-27
5.57924e-28
6.35496e-28
2.75834e-28
2.02316e-27
4.5969e-27
6.65033e-28
1.53336e-28
3.74862e-27
1.13946e-27
1.98053e-27
4.93802e-28
2.26258e-28
4.58466e-27
1.73406e-29
2.08841e-27
2.00067e-27
1.99718e-27
1.98153e-27
2.82936e-29
1.14429e-31
2.10387e-28
5.02674e-27
1.22272e-29
6.62946e-28
4.97321e-28
3.32304e-31
4.94184e-28
7.3148e-28
2.81906e-31
4.93642e-28
5.7166e-34
4.07564e-29
1.99175e-27
2.11971e-27
5.01562e-30
2.36926e-27
1.38124e-28
1.97371e-27
2.07601e-27
1.94146e-30
1.9746e-27
8.38589e-27
6.40131e-28
5.59171e-28
5.30785e-28
4.96056e-28
3.93779e-29
5.1032e-27
4.97674e-28
2.33452e-27
5.20251e-28
2.09271e-27
1.98186e-27
1.11815e-29
2.8026e-30
2.00837e-27
2.03924e-27
2.03458e-27
4.95418e-28
5.97217e-28
3.35137e-28
4.96666e-28
2.13222e-27
9.20004e-28
2.75942e-27
8.35787e-32
5.12772e-28
6.76715e-27
2.79899e-27
2.01074e-27
5.23446e-28
1.98918e-27
4.36495e-30
4.11634e-31
5.11487e-30
1.98351e-27
2.82115e-30
1.37734e-29
2.26213e-27
2.2318e-27
2.97216e-28
2.40328e-27
3.76128e-30
8.24561e-27
5.2158e-28
4.99065e-28
5.17252e-28
5.7371e-28
1.97583e-27
4.98017e-28
2.0221e-27
5.3978e-28
2.95969e-29
6.28428e-29
1.63177e-29
4.93424e-28
1.51835e-28
1.94513e-28
6.83648e-28
2.23231e-30
5.04236e-27
2.4478e-27
1.99182e-27
1.99191e-27
1.97884e-27
1.39893e-30
6.81891e-29
7.43722e-27
2.05745e-28
5.46849e-28
4.94435e-28
7.92315e-29
5.69147e-28
1.97454e-27
1.8451e-29
5.31556e-28
1.09861e-33
4.94736e-28
1.72073e-29
1.97266e-27
5.34939e-29
5.45888e-28
7.43027e-28
1.97438e-27
5.1875e-28
1.97785e-27
5.04941e-28
)
;

boundaryField
{
    movingWall
    {
        type            calculated;
        value           uniform 0;
    }
    fixedWalls
    {
        type            calculated;
        value           uniform 0;
    }
    frontAndBack
    {
        type            empty;
    }
}


// ************************************************************************* //
