/*--------------------------------*- C++ -*----------------------------------*\
| =========                 |                                                 |
| \\      /  F ield         | OpenFOAM: The Open Source CFD Toolbox           |
|  \\    /   O peration     | Version:  2312                                  |
|   \\  /    A nd           | Website:  www.openfoam.com                      |
|    \\/     M anipulation  |                                                 |
\*---------------------------------------------------------------------------*/
FoamFile
{
    version     2.0;
    format      ascii;
    arch        "LSB;label=32;scalar=64";
    class       volScalarField;
    location    "10";
    object      enstrophyField;
}
// * * * * * * * * * * * * * * * * * * * * * * * * * * * * * * * * * * * * * //

dimensions      [0 0 -2 0 0 0 0];

internalField   nonuniform List<scalar> 
400
(
7.24192e-23
1.32154e-22
5.81617e-24
4.75297e-25
6.84331e-28
1.40912e-26
1.77432e-26
6.43039e-27
6.60075e-27
2.63191e-27
1.47287e-27
5.40089e-28
1.2431e-27
2.85325e-27
1.91963e-28
1.35573e-29
2.4123e-27
8.2335e-30
4.12256e-29
1.41261e-29
7.75638e-26
1.50679e-25
3.63925e-26
1.61958e-27
1.3029e-26
1.23174e-26
1.12046e-26
1.84771e-27
1.44745e-27
6.83343e-30
2.09099e-28
4.27871e-28
2.08957e-27
3.11378e-29
1.49844e-31
6.01847e-28
4.25583e-29
6.9485e-29
6.15949e-29
1.07655e-28
1.3403e-23
8.87189e-23
4.37965e-24
3.47419e-25
7.85437e-27
5.5933e-27
1.25768e-26
7.97934e-27
5.39087e-27
2.54551e-27
1.1456e-27
3.08659e-27
2.02506e-27
7.63395e-27
1.24246e-27
1.40705e-27
5.34899e-27
9.7283e-28
6.99176e-28
5.73648e-30
9.01238e-24
4.44898e-23
2.36013e-24
9.74199e-26
8.49991e-27
2.41266e-27
4.04233e-28
4.03955e-27
2.55858e-28
3.48585e-28
3.98276e-27
4.31945e-28
2.78456e-28
1.50657e-28
2.14595e-27
2.24876e-28
3.71513e-28
2.57598e-28
9.55627e-29
5.1767e-29
5.8696e-28
9.71273e-25
4.94579e-26
8.9926e-27
1.54836e-27
1.75561e-28
2.06442e-30
1.09937e-27
3.5175e-28
4.89163e-28
4.57048e-28
6.45036e-27
5.509e-27
3.84122e-27
1.95929e-28
5.06525e-28
5.8903e-28
2.80742e-30
2.59827e-28
2.41556e-31
2.37387e-23
7.40649e-23
3.94951e-24
2.21133e-25
1.66931e-26
8.15805e-28
5.52309e-27
3.09893e-27
2.26362e-27
1.62378e-29
5.20874e-27
5.07696e-27
5.20282e-27
1.45406e-27
1.81341e-28
1.49949e-27
5.24735e-28
2.45424e-28
7.60827e-28
6.53228e-29
3.76364e-23
9.81424e-23
5.509e-24
2.92697e-25
1.36838e-26
9.12453e-27
1.59307e-27
2.3629e-30
1.24141e-27
2.17116e-27
7.33274e-27
5.20964e-27
1.53138e-27
6.14e-27
7.12408e-27
1.29188e-27
9.58604e-28
3.99939e-27
3.80141e-27
3.51659e-30
4.13945e-24
5.96876e-24
2.88819e-25
1.90089e-26
7.05443e-28
5.50342e-28
2.36735e-27
2.14892e-31
1.30224e-27
6.46486e-31
1.83235e-29
4.43295e-27
5.77157e-28
2.9572e-32
5.93681e-28
3.78422e-27
9.08643e-29
1.92297e-29
1.13787e-27
7.13563e-29
2.08353e-23
4.47697e-23
2.59321e-24
7.98103e-26
1.95109e-26
3.79114e-29
2.08824e-27
3.76681e-28
6.4484e-28
1.82003e-29
4.19278e-27
1.16786e-26
8.89804e-29
1.25814e-27
8.01158e-27
3.34983e-28
4.09793e-29
1.76186e-27
4.86991e-31
5.32112e-30
9.01715e-23
1.48469e-22
8.02689e-24
3.90016e-25
2.04534e-26
3.79017e-29
2.02201e-27
8.48886e-29
1.96081e-27
5.54387e-27
4.46127e-27
6.89687e-27
4.74502e-27
1.51908e-27
2.99581e-28
2.54834e-27
1.60347e-27
3.10972e-30
3.14721e-32
3.83099e-28
9.80654e-23
1.31006e-22
7.45593e-24
3.49682e-25
1.79997e-26
1.28926e-26
1.94385e-27
2.42723e-31
1.66956e-27
1.24964e-29
3.74597e-28
1.62769e-27
2.34828e-27
1.68163e-27
1.27042e-29
3.35065e-33
3.68454e-28
1.08248e-29
2.12644e-28
1.05778e-30
3.02953e-23
3.45895e-23
1.95767e-24
9.62357e-26
2.68129e-26
3.54802e-27
1.33565e-27
3.98071e-27
3.14907e-27
3.71332e-29
4.50637e-28
1.56418e-27
1.76275e-27
4.7646e-28
6.30698e-29
2.16662e-27
1.65542e-28
1.11697e-28
3.91833e-27
2.18293e-28
4.37669e-24
6.29529e-24
4.00513e-25
8.84663e-27
6.43887e-28
2.39239e-27
4.74332e-28
8.22888e-28
4.83525e-27
1.81572e-27
1.64756e-28
3.03581e-27
2.03962e-27
2.13976e-28
1.20572e-29
6.05063e-27
1.11225e-29
5.63651e-28
1.35595e-27
8.18174e-30
5.18848e-23
8.46697e-23
4.91809e-24
2.41407e-25
3.6359e-26
2.77614e-27
8.98428e-27
1.00166e-27
1.57287e-28
1.92216e-27
1.42669e-27
7.76158e-31
1.69368e-29
5.71025e-28
8.24465e-28
9.81093e-28
7.92218e-29
9.52818e-28
3.23773e-28
3.63532e-29
6.18812e-23
1.26818e-22
7.13103e-24
3.72274e-25
3.62879e-26
1.7032e-27
5.83727e-27
3.4871e-27
1.08082e-29
5.29213e-28
5.18794e-29
1.8949e-27
1.51603e-27
6.20734e-28
2.59843e-29
1.03116e-28
2.6839e-27
1.45112e-27
5.41218e-28
5.2548e-28
1.42229e-23
3.30351e-23
1.88587e-24
7.66997e-26
1.25286e-26
1.00165e-28
2.27902e-27
4.76582e-27
5.58209e-27
7.08661e-27
6.65754e-29
1.39408e-28
4.16149e-30
2.27674e-29
2.44151e-27
1.81156e-29
1.93228e-30
1.3352e-29
1.10847e-27
5.08115e-30
1.15156e-24
1.1867e-23
6.66952e-25
2.7964e-26
8.21002e-29
2.19721e-28
4.12017e-29
1.53258e-30
6.23877e-28
4.78007e-27
1.73394e-27
1.9367e-27
2.69089e-27
9.18584e-28
2.44798e-29
2.5872e-28
2.92083e-27
1.2616e-27
2.64657e-27
1.45924e-29
1.96118e-23
8.6691e-23
4.82291e-24
2.04593e-25
1.30397e-26
5.87444e-29
1.28679e-27
4.98919e-29
1.98017e-27
1.98059e-29
2.01485e-27
1.44195e-28
3.90903e-30
1.02118e-27
1.73445e-27
3.51313e-30
1.45351e-28
3.97819e-29
3.22052e-29
1.42012e-29
4.35893e-24
9.39873e-24
5.875e-25
8.27326e-27
1.7603e-26
2.7847e-27
1.1134e-26
3.73713e-27
5.91808e-27
7.56539e-27
4.4819e-27
1.51754e-27
7.3053e-28
9.13401e-30
1.24012e-27
1.9874e-27
3.7614e-27
1.27855e-27
2.29147e-28
2.02866e-28
2.78594e-23
5.69205e-23
2.50107e-24
1.89487e-25
4.49159e-28
6.46483e-27
3.28941e-27
4.04573e-27
1.8851e-27
1.53739e-27
3.27995e-27
1.64519e-27
1.47027e-27
8.04103e-29
6.89985e-30
1.833e-27
1.77141e-28
1.85819e-29
4.78828e-28
8.95663e-28
)
;

boundaryField
{
    movingWall
    {
        type            calculated;
        value           nonuniform List<scalar> 
20
(
1.17884e-22
8.60542e-23
2.2534e-24
4.20141e-25
1.99152e-26
4.46548e-26
3.54441e-26
3.78375e-26
1.70806e-26
1.59984e-26
1.57201e-26
1.63421e-26
3.94577e-27
7.0571e-27
3.62126e-27
9.73908e-27
7.80551e-27
7.33932e-28
9.39378e-27
5.41183e-27
)
;
    }
    fixedWalls
    {
        type            calculated;
        value           nonuniform List<scalar> 
60
(
2.32146e-21
4.00268e-24
1.58531e-21
8.01587e-22
1.77606e-23
1.34449e-21
1.79363e-21
1.10731e-22
8.11966e-22
2.70227e-21
2.46006e-21
6.48458e-22
1.22282e-22
1.57518e-21
2.31325e-21
5.94374e-22
2.19558e-22
1.593e-21
1.7637e-22
1.01027e-21
1.12626e-29
5.63587e-28
4.86187e-28
6.2416e-28
4.41104e-30
5.05216e-28
1.26609e-28
3.62015e-28
1.5267e-30
7.28753e-28
1.36634e-28
1.12764e-28
3.44325e-31
3.80238e-29
5.8052e-28
8.3999e-29
2.78086e-28
1.86985e-31
1.02763e-28
1.30398e-27
2.10684e-22
1.81311e-22
4.89583e-24
9.41694e-25
8.90838e-26
1.59758e-25
9.8006e-26
4.98799e-26
5.03523e-26
1.92036e-26
1.57887e-26
6.25887e-27
2.36958e-26
2.16088e-27
1.91963e-28
1.35573e-29
4.25142e-28
8.2335e-30
1.43055e-27
1.41261e-29
)
;
    }
    frontAndBack
    {
        type            empty;
    }
}


// ************************************************************************* //
