/*--------------------------------*- C++ -*----------------------------------*\
| =========                 |                                                 |
| \\      /  F ield         | OpenFOAM: The Open Source CFD Toolbox           |
|  \\    /   O peration     | Version:  2312                                  |
|   \\  /    A nd           | Website:  www.openfoam.com                      |
|    \\/     M anipulation  |                                                 |
\*---------------------------------------------------------------------------*/
FoamFile
{
    version     2.0;
    format      ascii;
    arch        "LSB;label=32;scalar=64";
    class       volScalarField;
    location    "10";
    object      epsilon;
}
// * * * * * * * * * * * * * * * * * * * * * * * * * * * * * * * * * * * * * //

dimensions      [0 2 -3 0 0 0 0];

internalField   nonuniform List<scalar> 
400
(
5.85437e-07
5.85437e-07
5.85437e-07
5.85437e-07
5.85436e-07
5.85437e-07
5.85436e-07
5.85436e-07
5.85436e-07
5.85436e-07
5.85436e-07
5.85436e-07
5.85436e-07
5.85436e-07
5.85436e-07
5.85436e-07
5.85436e-07
5.85436e-07
5.85436e-07
5.85436e-07
5.95359e-07
5.89879e-07
5.9035e-07
5.90543e-07
5.9093e-07
5.91131e-07
5.91518e-07
5.91722e-07
5.92111e-07
5.92317e-07
5.92711e-07
5.92918e-07
5.93315e-07
5.93524e-07
5.93924e-07
5.94137e-07
5.94538e-07
5.94755e-07
5.94956e-07
5.95266e-07
6.118e-07
6.06018e-07
6.06523e-07
6.0673e-07
6.07143e-07
6.07357e-07
6.07769e-07
6.07985e-07
6.08398e-07
6.08616e-07
6.09031e-07
6.09249e-07
6.09666e-07
6.09885e-07
6.10306e-07
6.10524e-07
6.10947e-07
6.11167e-07
6.11379e-07
6.11701e-07
6.30284e-07
6.24268e-07
6.24794e-07
6.25009e-07
6.25439e-07
6.2566e-07
6.26089e-07
6.26314e-07
6.26744e-07
6.2697e-07
6.27402e-07
6.27629e-07
6.28063e-07
6.28291e-07
6.28728e-07
6.28955e-07
6.29395e-07
6.29624e-07
6.29844e-07
6.30179e-07
6.47075e-07
6.40844e-07
6.41389e-07
6.41612e-07
6.42057e-07
6.42287e-07
6.42731e-07
6.42963e-07
6.43408e-07
6.43643e-07
6.4409e-07
6.44325e-07
6.44775e-07
6.45011e-07
6.45463e-07
6.45699e-07
6.46154e-07
6.46392e-07
6.4662e-07
6.46967e-07
6.60301e-07
6.53898e-07
6.54457e-07
6.54687e-07
6.55144e-07
6.55379e-07
6.55836e-07
6.56075e-07
6.56532e-07
6.56773e-07
6.57232e-07
6.57474e-07
6.57936e-07
6.58179e-07
6.58644e-07
6.58886e-07
6.59354e-07
6.59598e-07
6.59832e-07
6.60189e-07
6.69744e-07
6.63215e-07
6.63786e-07
6.6402e-07
6.64485e-07
6.64726e-07
6.65191e-07
6.65434e-07
6.659e-07
6.66146e-07
6.66614e-07
6.66861e-07
6.67332e-07
6.67579e-07
6.68053e-07
6.683e-07
6.68777e-07
6.69025e-07
6.69264e-07
6.69628e-07
6.76102e-07
6.69489e-07
6.70067e-07
6.70304e-07
6.70776e-07
6.71019e-07
6.7149e-07
6.71737e-07
6.72209e-07
6.72458e-07
6.72932e-07
6.73182e-07
6.73659e-07
6.73909e-07
6.74389e-07
6.74639e-07
6.75122e-07
6.75374e-07
6.75616e-07
6.75984e-07
6.80326e-07
6.73658e-07
6.74241e-07
6.7448e-07
6.74955e-07
6.75201e-07
6.75676e-07
6.75925e-07
6.76401e-07
6.76652e-07
6.7713e-07
6.77382e-07
6.77863e-07
6.78115e-07
6.78599e-07
6.78852e-07
6.79339e-07
6.79593e-07
6.79837e-07
6.80208e-07
6.83253e-07
6.76546e-07
6.77132e-07
6.77372e-07
6.7785e-07
6.78097e-07
6.78575e-07
6.78825e-07
6.79304e-07
6.79557e-07
6.80037e-07
6.80291e-07
6.80774e-07
6.81028e-07
6.81515e-07
6.81769e-07
6.82259e-07
6.82514e-07
6.8276e-07
6.83134e-07
6.85484e-07
6.78747e-07
6.79335e-07
6.79577e-07
6.80057e-07
6.80305e-07
6.80785e-07
6.81036e-07
6.81517e-07
6.81771e-07
6.82254e-07
6.82508e-07
6.82994e-07
6.83249e-07
6.83738e-07
6.83993e-07
6.84485e-07
6.84742e-07
6.84988e-07
6.85364e-07
6.8741e-07
6.80647e-07
6.81237e-07
6.8148e-07
6.81962e-07
6.82211e-07
6.82693e-07
6.82945e-07
6.83428e-07
6.83682e-07
6.84167e-07
6.84422e-07
6.8491e-07
6.85166e-07
6.85657e-07
6.85913e-07
6.86407e-07
6.86664e-07
6.86912e-07
6.87288e-07
6.89263e-07
6.82476e-07
6.83069e-07
6.83312e-07
6.83796e-07
6.84046e-07
6.84529e-07
6.84782e-07
6.85267e-07
6.85522e-07
6.86009e-07
6.86265e-07
6.86754e-07
6.87011e-07
6.87504e-07
6.87761e-07
6.88257e-07
6.88515e-07
6.88763e-07
6.89141e-07
6.91172e-07
6.8436e-07
6.84955e-07
6.85199e-07
6.85684e-07
6.85935e-07
6.8642e-07
6.86674e-07
6.87161e-07
6.87417e-07
6.87905e-07
6.88163e-07
6.88654e-07
6.88912e-07
6.89406e-07
6.89664e-07
6.90162e-07
6.90421e-07
6.9067e-07
6.9105e-07
6.93183e-07
6.86345e-07
6.86942e-07
6.87187e-07
6.87675e-07
6.87927e-07
6.88414e-07
6.88669e-07
6.89157e-07
6.89414e-07
6.89904e-07
6.90163e-07
6.90656e-07
6.90914e-07
6.91411e-07
6.9167e-07
6.92169e-07
6.9243e-07
6.9268e-07
6.93061e-07
6.95272e-07
6.88406e-07
6.89005e-07
6.89251e-07
6.89741e-07
6.89993e-07
6.90482e-07
6.90738e-07
6.91228e-07
6.91487e-07
6.91979e-07
6.92238e-07
6.92733e-07
6.92993e-07
6.93492e-07
6.93751e-07
6.94253e-07
6.94514e-07
6.94766e-07
6.95148e-07
6.97332e-07
6.90438e-07
6.9104e-07
6.91287e-07
6.91778e-07
6.92032e-07
6.92523e-07
6.9278e-07
6.93272e-07
6.93532e-07
6.94026e-07
6.94286e-07
6.94783e-07
6.95044e-07
6.95544e-07
6.95805e-07
6.96309e-07
6.96571e-07
6.96823e-07
6.97207e-07
6.99183e-07
6.92268e-07
6.92871e-07
6.93119e-07
6.93612e-07
6.93867e-07
6.94358e-07
6.94617e-07
6.9511e-07
6.9537e-07
6.95866e-07
6.96127e-07
6.96626e-07
6.96888e-07
6.9739e-07
6.97652e-07
6.98157e-07
6.98421e-07
6.98674e-07
6.99059e-07
7.00599e-07
6.93795e-07
6.94379e-07
6.94619e-07
6.95098e-07
6.95347e-07
6.95825e-07
6.9608e-07
6.96561e-07
6.96819e-07
6.97305e-07
6.97564e-07
6.98055e-07
6.98315e-07
6.98813e-07
6.99074e-07
6.99576e-07
6.99841e-07
7.00093e-07
7.00478e-07
7.01255e-07
7.01255e-07
7.01254e-07
7.01254e-07
7.01254e-07
7.01254e-07
7.01253e-07
7.01254e-07
7.01253e-07
7.01254e-07
7.01253e-07
7.01253e-07
7.01253e-07
7.01253e-07
7.01253e-07
7.01253e-07
7.01253e-07
7.01253e-07
7.01253e-07
7.01253e-07
)
;

boundaryField
{
    movingWall
    {
        type            epsilonWallFunction;
        blending        stepwise;
        value           nonuniform List<scalar> 
20
(
7.01255e-07
7.01255e-07
7.01254e-07
7.01254e-07
7.01254e-07
7.01254e-07
7.01253e-07
7.01254e-07
7.01253e-07
7.01254e-07
7.01253e-07
7.01253e-07
7.01253e-07
7.01253e-07
7.01253e-07
7.01253e-07
7.01253e-07
7.01253e-07
7.01253e-07
7.01253e-07
)
;
    }
    fixedWalls
    {
        type            epsilonWallFunction;
        blending        stepwise;
        value           nonuniform List<scalar> 
60
(
5.85437e-07
5.95359e-07
6.118e-07
6.30284e-07
6.47075e-07
6.60301e-07
6.69744e-07
6.76102e-07
6.80326e-07
6.83253e-07
6.85484e-07
6.8741e-07
6.89263e-07
6.91172e-07
6.93183e-07
6.95272e-07
6.97332e-07
6.99183e-07
7.00599e-07
7.01255e-07
5.85436e-07
5.95266e-07
6.11701e-07
6.30179e-07
6.46967e-07
6.60189e-07
6.69628e-07
6.75984e-07
6.80208e-07
6.83134e-07
6.85364e-07
6.87288e-07
6.89141e-07
6.9105e-07
6.93061e-07
6.95148e-07
6.97207e-07
6.99059e-07
7.00478e-07
7.01253e-07
5.85437e-07
5.85437e-07
5.85437e-07
5.85437e-07
5.85436e-07
5.85437e-07
5.85436e-07
5.85436e-07
5.85436e-07
5.85436e-07
5.85436e-07
5.85436e-07
5.85436e-07
5.85436e-07
5.85436e-07
5.85436e-07
5.85436e-07
5.85436e-07
5.85436e-07
5.85436e-07
)
;
    }
    frontAndBack
    {
        type            empty;
    }
}


// ************************************************************************* //
