/*--------------------------------*- C++ -*----------------------------------*\
| =========                 |                                                 |
| \\      /  F ield         | OpenFOAM: The Open Source CFD Toolbox           |
|  \\    /   O peration     | Version:  2312                                  |
|   \\  /    A nd           | Website:  www.openfoam.com                      |
|    \\/     M anipulation  |                                                 |
\*---------------------------------------------------------------------------*/
FoamFile
{
    version     2.0;
    format      ascii;
    arch        "LSB;label=32;scalar=64";
    class       volScalarField;
    location    "10";
    object      flowTypeField;
}
// * * * * * * * * * * * * * * * * * * * * * * * * * * * * * * * * * * * * * //

dimensions      [0 0 0 0 0 0 0];

internalField   nonuniform List<scalar> 
400
(
0.43161
0.04956
0.0827365
-0.120552
0.815127
-0.119695
0.0627361
0.0347904
0.0381851
0.1291
-0.00116144
0.394321
0.215512
0.0858271
0.106711
0.207612
-0.107819
0.796499
0.000276395
0.434063
0.983456
0.907773
0.821376
0.812031
0.087171
-0.0618622
-0.0747885
0.0139189
0.0205193
0.848216
0.410661
0.22105
0.155896
0.324175
0.971947
0.423752
0.00987832
0.266498
0.487903
0.680923
0.648219
0.124413
0.117254
-0.0552762
0.304704
-0.37578
-0.13833
-0.16225
0.0453832
0.126916
0.13812
0.0995484
-0.0132185
-0.137503
0.0818467
-0.142482
-0.268853
-0.596915
0.0620638
0.868777
0.741151
0.192283
0.167001
0.252256
0.0905988
0.144702
0.482489
0.110615
0.581541
0.0351574
-0.0574939
-0.0442454
0.156395
0.566269
0.326117
0.431052
0.25982
0.158706
0.529422
0.763176
0.998049
0.746878
0.754935
0.589559
0.00780012
0.513438
0.883023
0.253599
0.341178
0.00826404
-0.109719
-0.387853
-0.239215
-0.0350961
0.297266
-0.15854
-0.237122
0.924519
0.366819
0.940583
0.568575
0.114735
0.0714616
0.0638645
-0.143792
0.255103
-0.289276
0.180336
0.173965
0.826912
0.268253
-0.135529
-0.172258
0.0156038
0.331817
0.0121644
-0.180026
0.208585
-0.220128
0.735109
0.428076
0.0821277
0.0137385
0.0141396
0.0179443
-0.60474
0.0674391
0.863686
0.0831305
-0.165113
0.0263393
-0.154672
0.255421
0.0151595
-0.0980202
0.166072
0.273732
-0.0974133
-0.071414
0.879284
0.857444
0.456373
0.474808
0.377957
0.685901
-0.178146
0.112136
0.748959
0.303056
0.857545
0.918463
0.0454582
0.402168
0.817231
-0.188754
0.236757
0.694736
0.109025
0.354342
0.214525
0.67452
0.137652
0.0863858
0.297806
-0.520753
0.798204
-0.0460198
-0.00487056
0.339063
0.862487
-0.0471121
-0.0999469
0.613844
0.192065
0.0746754
0.324229
0.781284
-0.0927242
0.737967
0.288408
0.160021
0.0308083
-0.0298812
0.0344736
0.0154108
0.743225
0.167194
0.544644
-0.137634
-0.292376
0.172475
-0.0776523
-0.120932
0.271673
0.000949034
-0.138863
-0.0430191
0.850037
0.952209
0.253004
0.160215
0.0311052
-0.054671
0.00957666
-0.125631
-0.819738
-0.132656
0.927525
0.27175
0.90766
-0.00632391
-0.0517678
-0.21645
0.00936272
0.639428
0.921715
0.290247
0.871548
0.244645
0.00999266
0.597125
0.122367
0.0648838
0.12627
-0.174578
0.0193028
-0.798342
-0.0925791
0.078343
0.806147
0.288946
0.0838719
-0.0899244
0.00634082
0.571399
-0.0650758
0.478168
0.455567
-0.0876267
0.411918
0.834383
0.389198
0.341949
0.575727
0.443067
-0.195323
0.158153
0.377516
-0.150155
-0.0764621
0.403191
0.0346858
0.162217
0.268714
0.865956
0.0990024
0.597211
0.127906
0.161073
0.885464
0.384254
0.0618967
-0.0322962
0.0289139
-0.603497
0.0907537
-0.0765667
0.179336
0.00025968
-0.102422
0.281569
0.644767
0.719364
-0.231007
0.531274
0.190035
0.71141
0.277536
0.300567
0.734717
0.238698
0.053433
-0.0239815
0.00600139
-0.423363
0.0944291
0.116141
0.15229
0.762317
0.0749197
0.834061
-0.10736
0.0923749
0.0966287
0.222339
0.468643
-0.166512
0.0226408
-0.0595751
-0.189248
0.734
0.1999
0.161363
0.236928
-0.221916
0.159177
-0.240117
-0.126941
-0.296626
-0.096318
0.557458
0.00131033
0.430557
0.738494
0.152858
0.761368
0.630132
0.785025
0.131877
0.309736
0.918777
0.374583
0.349911
0.384597
0.826027
0.463485
0.607864
0.731253
-0.261478
-0.149199
0.240312
-0.145556
-0.147126
-0.529121
0.67477
0.151626
-0.376264
0.311908
0.0763748
0.112181
0.490467
0.112169
0.0265419
0.144859
0.0147561
0.73777
0.159654
0.000164444
0.172298
0.338221
0.203068
0.525627
0.918
-0.4842
0.23455
0.845426
0.442117
0.793653
0.103328
0.0924381
0.859343
0.421761
0.387237
0.605776
-0.0157194
0.0819283
-0.074338
-0.0598059
0.0288935
-0.0950012
-0.161489
0.0125495
0.477125
0.900325
0.319747
0.173095
-0.0660581
0.10842
0.593347
0.26339
0.553524
0.0865205
0.110025
-0.0489276
0.743429
-0.394781
0.00831065
-0.0292
-0.00212616
-0.0115006
0.0287153
0.104041
0.0414509
0.525251
0.482781
-0.110109
0.333896
0.607641
-0.0208988
0.296867
)
;

boundaryField
{
    movingWall
    {
        type            calculated;
        value           nonuniform List<scalar> 
20
(
0.623206
0.120092
0.339143
-0.178065
0.413302
-0.118342
0.00798088
-0.024282
-0.0279735
-0.00539727
0.00262108
-0.00478706
0.0233634
0.109379
0.112783
-0.0461373
0.0656952
0.320528
0.00882081
0.0346091
)
;
    }
    fixedWalls
    {
        type            calculated;
        value           nonuniform List<scalar> 
60
(
0.0589467
0.895039
0.123808
0.191496
0.754174
0.110085
0.0699914
0.466759
0.14561
0.0197473
0.00640405
0.118967
0.397662
0.043561
0.0418731
0.209327
0.381808
0.0966807
0.43403
0.0965572
0.468385
0.587913
0.459456
0.57354
0.740117
0.602612
0.619991
0.0628122
0.456166
0.256653
0.584071
0.653318
0.976044
0.785033
-0.248528
0.044359
0.00818263
0.552838
0.467213
0.420854
0.656378
0.147523
0.349218
-0.109391
0.348368
-0.0496009
0.0263203
0.00479384
0.00287752
-0.0356981
0.00157828
0.178724
0.0737956
0.231818
0.118755
0.756389
0.419051
0.852159
-0.0235178
0.212307
)
;
    }
    frontAndBack
    {
        type            empty;
    }
}


// ************************************************************************* //
