/*--------------------------------*- C++ -*----------------------------------*\
| =========                 |                                                 |
| \\      /  F ield         | OpenFOAM: The Open Source CFD Toolbox           |
|  \\    /   O peration     | Version:  2312                                  |
|   \\  /    A nd           | Website:  www.openfoam.com                      |
|    \\/     M anipulation  |                                                 |
\*---------------------------------------------------------------------------*/
FoamFile
{
    version     2.0;
    format      ascii;
    arch        "LSB;label=32;scalar=64";
    class       surfaceScalarField;
    location    "10";
    object      fluxField;
}
// * * * * * * * * * * * * * * * * * * * * * * * * * * * * * * * * * * * * * //

dimensions      [0 3 -1 0 0 0 0];

oriented        oriented;

internalField   nonuniform List<scalar> 
760
(
-5e-05
4.6134e-18
-5e-05
-9.91635e-19
-5e-05
2.35581e-19
-5e-05
-5.12045e-20
-5e-05
1.28398e-20
-5e-05
5.17684e-21
-5e-05
1.01094e-20
-5e-05
9.05897e-21
-5e-05
1.05081e-20
-5e-05
7.33815e-21
-5e-05
7.05118e-23
-5e-05
2.20954e-21
-5e-05
5.94353e-21
-5e-05
5.90567e-21
-5e-05
2.58359e-21
-5e-05
1.14402e-21
-5e-05
1.98808e-21
-5e-05
2.64987e-21
-5e-05
5.54277e-23
-2.39497e-21
-5e-05
-3.71851e-18
-5e-05
8.21351e-19
-5e-05
-1.93566e-19
-5e-05
4.0474e-20
-5e-05
-1.16034e-20
-5e-05
2.06275e-21
-5e-05
6.64316e-21
-5e-05
1.13741e-20
-5e-05
1.2765e-20
-5e-05
1.01264e-20
-5e-05
4.42199e-21
-5e-05
3.428e-21
-5e-05
4.27261e-21
-5e-05
8.39465e-21
-5e-05
1.00313e-20
-5e-05
7.44123e-21
-5e-05
1.6482e-21
-5e-05
-3.94194e-22
-5e-05
-5.55008e-21
-5.74134e-21
-5e-05
-1.19127e-18
-5e-05
2.60345e-19
-5e-05
-7.02756e-20
-5e-05
9.38577e-21
-5e-05
-6.11628e-21
-5e-05
-2.90453e-21
-5e-05
3.81022e-21
-5e-05
9.97229e-21
-5e-05
1.04292e-20
-5e-05
7.70504e-21
-5e-05
7.76301e-21
-5e-05
8.10275e-21
-5e-05
7.64835e-21
-5e-05
9.58385e-21
-5e-05
8.99748e-21
-5e-05
5.66795e-21
-5e-05
1.0373e-21
-5e-05
1.77352e-22
-5e-05
-4.31563e-21
-5.85122e-21
-5e-05
3.23242e-18
-5e-05
-7.32677e-19
-5e-05
1.59841e-19
-5e-05
-4.31333e-20
-5e-05
9.18628e-21
-5e-05
-3.40167e-21
-5e-05
1.53907e-21
-5e-05
3.19872e-21
-5e-05
5.51106e-21
-5e-05
8.70864e-21
-5e-05
1.31553e-20
-5e-05
9.91003e-21
-5e-05
5.66055e-21
-5e-05
3.12064e-21
-5e-05
1.64031e-21
-5e-05
2.12243e-21
-5e-05
1.34673e-21
-5e-05
3.56335e-22
-5e-05
-3.4744e-22
-2.02259e-21
-5e-05
-3.03788e-18
-5e-05
6.46217e-19
-5e-05
-1.53864e-19
-5e-05
3.57671e-20
-5e-05
-8.04431e-22
-5e-05
3.99936e-21
-5e-05
-2.03476e-21
-5e-05
-2.45503e-21
-5e-05
4.4226e-22
-5e-05
7.68348e-21
-5e-05
1.36134e-20
-5e-05
8.48976e-21
-5e-05
6.83987e-22
-5e-05
-2.59632e-21
-5e-05
-8.28808e-22
-5e-05
1.2463e-21
-5e-05
2.1383e-22
-5e-05
-1.88077e-21
-5e-05
8.5893e-22
2.17234e-21
-5e-05
4.85455e-19
-5e-05
-1.06816e-19
-5e-05
2.56267e-20
-5e-05
5.92369e-23
-5e-05
7.38286e-21
-5e-05
2.51364e-21
-5e-05
-2.6064e-21
-5e-05
-2.8738e-21
-5e-05
-1.41575e-21
-5e-05
-4.61716e-22
-5e-05
1.01427e-21
-5e-05
4.29703e-21
-5e-05
1.34134e-21
-5e-05
-5.93146e-22
-5e-05
2.01086e-21
-5e-05
4.15842e-21
-5e-05
1.02777e-21
-5e-05
2.29752e-22
-5e-05
4.29545e-21
4.67532e-21
-5e-05
3.03688e-18
-5e-05
-6.9274e-19
-5e-05
1.60935e-19
-5e-05
-3.25835e-20
-5e-05
1.16266e-20
-5e-05
-6.15998e-22
-5e-05
-3.33474e-21
-5e-05
-3.7068e-21
-5e-05
-2.62737e-21
-5e-05
-4.00832e-21
-5e-05
-5.26466e-21
-5e-05
6.75321e-22
-5e-05
3.13622e-21
-5e-05
2.67589e-21
-5e-05
3.67415e-21
-5e-05
7.25051e-21
-5e-05
4.24968e-21
-5e-05
1.2743e-21
-5e-05
4.72947e-21
4.37035e-21
-5e-05
-3.56562e-18
-5e-05
7.64912e-19
-5e-05
-1.80365e-19
-5e-05
3.94444e-20
-5e-05
-1.14091e-20
-5e-05
9.97954e-22
-5e-05
-3.97376e-21
-5e-05
-5.25572e-21
-5e-05
-3.89546e-21
-5e-05
1.12797e-22
-5e-05
1.65676e-21
-5e-05
-9.3816e-22
-5e-05
5.41315e-22
-5e-05
4.22059e-21
-5e-05
1.4924e-21
-5e-05
1.51825e-21
-5e-05
3.21813e-21
-5e-05
4.11354e-22
-5e-05
3.80049e-22
1.79095e-21
-5e-05
2.04052e-18
-5e-05
-4.39346e-19
-5e-05
9.81873e-20
-5e-05
-2.73382e-20
-5e-05
-2.40101e-21
-5e-05
-5.83061e-21
-5e-05
-2.40073e-21
-5e-05
-6.08888e-21
-5e-05
-6.00512e-21
-5e-05
5.88803e-22
-5e-05
5.25861e-21
-5e-05
1.31044e-21
-5e-05
3.18886e-21
-5e-05
8.77708e-21
-5e-05
4.42808e-21
-5e-05
-1.88298e-21
-5e-05
4.38185e-22
-5e-05
9.85232e-22
-5e-05
-1.47298e-21
8.01227e-22
-5e-05
3.0223e-19
-5e-05
-8.0183e-20
-5e-05
7.07173e-21
-5e-05
-1.67957e-20
-5e-05
-1.14329e-20
-5e-05
-6.88965e-21
-5e-05
-5.70224e-22
-5e-05
-2.50869e-21
-5e-05
-3.91484e-21
-5e-05
4.88243e-22
-5e-05
3.33077e-21
-5e-05
3.84085e-21
-5e-05
4.87594e-21
-5e-05
4.28593e-21
-5e-05
4.15739e-21
-5e-05
-5.73353e-22
-5e-05
-1.58306e-22
-5e-05
4.18334e-23
-5e-05
-1.94501e-21
1.72519e-21
-5e-05
-2.16706e-18
-5e-05
4.7637e-19
-5e-05
-1.18404e-19
-5e-05
1.24309e-20
-5e-05
-1.90131e-20
-5e-05
-4.21483e-21
-5e-05
1.53316e-21
-5e-05
3.96535e-21
-5e-05
3.68526e-21
-5e-05
4.37053e-21
-5e-05
2.78063e-21
-5e-05
3.70808e-21
-5e-05
1.63874e-21
-5e-05
-1.16373e-21
-5e-05
-2.48236e-22
-5e-05
-3.87202e-21
-5e-05
-3.17303e-21
-5e-05
-1.63444e-21
-5e-05
-5.99671e-22
1.78865e-21
-5e-05
3.18246e-18
-5e-05
-6.79769e-19
-5e-05
1.61825e-19
-5e-05
-3.58766e-20
-5e-05
5.33996e-21
-5e-05
-2.89338e-21
-5e-05
2.33019e-21
-5e-05
2.32766e-21
-5e-05
9.42321e-22
-5e-05
-2.4168e-21
-5e-05
-2.72496e-21
-5e-05
1.39227e-21
-5e-05
2.77223e-21
-5e-05
2.5155e-21
-5e-05
2.26628e-22
-5e-05
-2.68063e-21
-5e-05
-2.28132e-21
-5e-05
-1.63241e-21
-5e-05
-1.62299e-22
7.03603e-22
-5e-05
-2.58311e-18
-5e-05
5.66012e-19
-5e-05
-1.28835e-19
-5e-05
3.27994e-20
-5e-05
-1.9296e-21
-5e-05
1.46011e-21
-5e-05
-3.96971e-21
-5e-05
-5.87038e-21
-5e-05
-4.9726e-21
-5e-05
-5.6922e-21
-5e-05
-4.5373e-21
-5e-05
-9.55797e-22
-5e-05
1.7018e-21
-5e-05
3.86796e-24
-5e-05
-1.57502e-21
-5e-05
2.17698e-21
-5e-05
1.29975e-21
-5e-05
-2.14899e-21
-5e-05
-4.45496e-21
-1.2009e-21
-5e-05
8.49875e-19
-5e-05
-1.88441e-19
-5e-05
4.71149e-20
-5e-05
-8.05075e-21
-5e-05
5.10913e-21
-5e-05
-1.34052e-21
-5e-05
-7.78157e-21
-5e-05
-7.84004e-21
-5e-05
-4.86953e-21
-5e-05
-2.24364e-21
-5e-05
-1.5643e-21
-5e-05
5.01195e-22
-5e-05
5.84986e-22
-5e-05
-7.4032e-22
-5e-05
9.45048e-22
-5e-05
4.46268e-21
-5e-05
-1.6677e-22
-5e-05
-3.44796e-21
-5e-05
-4.38833e-21
-1.58459e-21
-5e-05
2.15725e-18
-5e-05
-4.65452e-19
-5e-05
1.12983e-19
-5e-05
-2.04003e-20
-5e-05
8.73333e-21
-5e-05
5.99437e-22
-5e-05
-2.31929e-21
-5e-05
-2.81921e-21
-5e-05
-5.84888e-21
-5e-05
-7.74326e-21
-5e-05
-7.14956e-21
-5e-05
-2.31194e-21
-5e-05
-1.1373e-21
-5e-05
-1.37719e-21
-5e-05
2.58204e-21
-5e-05
4.34218e-21
-5e-05
4.96646e-22
-5e-05
-9.13075e-22
-5e-05
-8.79675e-22
-1.24565e-21
-5e-05
-3.7729e-18
-5e-05
8.26857e-19
-5e-05
-1.90842e-19
-5e-05
4.58194e-20
-5e-05
-6.69903e-21
-5e-05
3.04213e-21
-5e-05
-1.62503e-21
-5e-05
-2.55306e-21
-5e-05
-6.14145e-21
-5e-05
-6.58482e-21
-5e-05
-4.68405e-21
-5e-05
-2.53041e-21
-5e-05
-2.51625e-21
-5e-05
-6.59679e-21
-5e-05
-4.76855e-21
-5e-05
-9.30379e-22
-5e-05
2.42309e-21
-5e-05
4.13333e-21
-5e-05
1.36512e-22
-2.28404e-21
-5e-05
2.39089e-18
-5e-05
-5.13393e-19
-5e-05
1.2045e-19
-5e-05
-2.56865e-20
-5e-05
6.10097e-21
-5e-05
-2.06978e-21
-5e-05
-1.84955e-21
-5e-05
-5.20908e-21
-5e-05
-4.78454e-21
-5e-05
-9.74158e-22
-5e-05
9.04102e-22
-5e-05
-2.12195e-21
-5e-05
-5.34806e-21
-5e-05
-7.6086e-21
-5e-05
-4.76548e-21
-5e-05
-4.68749e-21
-5e-05
2.58671e-22
-5e-05
5.13019e-21
-5e-05
1.49395e-21
-1.51218e-21
-5e-05
2.66905e-18
-5e-05
-5.81097e-19
-5e-05
1.35826e-19
-5e-05
-2.82134e-20
-5e-05
8.0651e-21
-5e-05
-8.67436e-22
-5e-05
2.50703e-22
-5e-05
-5.16221e-21
-5e-05
-3.53126e-21
-5e-05
-3.07539e-21
-5e-05
-5.60458e-21
-5e-05
-8.73337e-21
-5e-05
-1.00705e-20
-5e-05
-5.43582e-21
-5e-05
1.59146e-22
-5e-05
-3.16197e-21
-5e-05
-2.7125e-21
-5e-05
-2.54194e-22
-5e-05
4.28061e-22
-8.36277e-22
-5e-05
-4.15264e-18
-5e-05
8.70742e-19
-5e-05
-2.11602e-19
-5e-05
4.06124e-20
-5e-05
-1.1989e-20
-5e-05
-2.36209e-22
-5e-05
-2.21899e-21
-5e-05
-3.7124e-21
-5e-05
-1.34431e-21
-5e-05
-2.00791e-21
-5e-05
-4.68093e-21
-5e-05
-5.42894e-21
-5e-05
-4.11334e-21
-5e-05
-1.42823e-21
-5e-05
-2.0115e-21
-5e-05
-1.25491e-21
-5e-05
-2.63611e-21
-5e-05
-4.68031e-21
-5e-05
-3.24956e-21
-2.29575e-21
-5e-05
-5e-05
-5e-05
-5e-05
-5e-05
-5e-05
-5e-05
-5e-05
-5e-05
-5e-05
-5e-05
-5e-05
-5e-05
-5e-05
-5e-05
-5e-05
-5e-05
-5e-05
-5e-05
)
;

boundaryField
{
    movingWall
    {
        type            calculated;
        value           uniform -0;
    }
    fixedWalls
    {
        type            calculated;
        value           nonuniform List<scalar> 
60
(
5e-05
5e-05
5e-05
5e-05
5e-05
5e-05
5e-05
5e-05
5e-05
5e-05
5e-05
5e-05
5e-05
5e-05
5e-05
5e-05
5e-05
5e-05
5e-05
5e-05
-5e-05
-5e-05
-5e-05
-5e-05
-5e-05
-5e-05
-5e-05
-5e-05
-5e-05
-5e-05
-5e-05
-5e-05
-5e-05
-5e-05
-5e-05
-5e-05
-5e-05
-5e-05
-5e-05
-5e-05
0
0
0
0
0
0
0
0
0
0
0
0
0
0
0
0
0
0
0
0
)
;
    }
    frontAndBack
    {
        type            empty;
        value           nonuniform List<scalar> 0();
    }
}


// ************************************************************************* //
