/*--------------------------------*- C++ -*----------------------------------*\
| =========                 |                                                 |
| \\      /  F ield         | OpenFOAM: The Open Source CFD Toolbox           |
|  \\    /   O peration     | Version:  2312                                  |
|   \\  /    A nd           | Website:  www.openfoam.com                      |
|    \\/     M anipulation  |                                                 |
\*---------------------------------------------------------------------------*/
FoamFile
{
    version     2.0;
    format      ascii;
    arch        "LSB;label=32;scalar=64";
    class       volTensorField;
    location    "10";
    object      gradU;
}
// * * * * * * * * * * * * * * * * * * * * * * * * * * * * * * * * * * * * * //

dimensions      [0 0 -1 0 0 0 0];

internalField   nonuniform List<tensor> 
400
(
(-1.11131e-12 1.36883e-11 0 1.65341e-12 1.84536e-11 0 0 0 0)
(1.84314e-12 -1.65557e-11 0 -2.98156e-13 -3.96654e-12 0 0 0 0)
(-4.87891e-13 3.57325e-12 0 1.6263e-13 9.42325e-13 0 0 0 0)
(5.42101e-14 -8.39459e-13 0 1.35525e-13 -2.04818e-13 0 0 0 0)
(0 1.99626e-13 0 1.6263e-13 5.1359e-14 0 0 0 0)
(-5.42101e-14 -3.23509e-14 0 1.35525e-13 2.07074e-14 0 0 0 0)
(-5.42101e-14 1.35683e-15 0 1.89735e-13 4.04376e-14 0 0 0 0)
(-2.71051e-14 -4.98518e-15 0 1.0842e-13 3.62359e-14 0 0 0 0)
(-2.71051e-14 -6.47753e-15 0 1.0842e-13 4.20323e-14 0 0 0 0)
(-5.42101e-14 -1.83421e-14 0 5.42101e-14 2.93526e-14 0 0 0 0)
(0 -6.45183e-17 0 5.42101e-14 2.82047e-16 0 0 0 0)
(0 2.1344e-14 0 5.42101e-14 8.83818e-15 0 0 0 0)
(-2.71051e-14 4.34839e-15 0 5.42101e-14 2.37741e-14 0 0 0 0)
(-5.42101e-14 -2.13312e-14 0 5.42101e-14 2.36227e-14 0 0 0 0)
(0 -1.9594e-14 0 0 1.03344e-14 0 0 0 0)
(0 5.20717e-15 0 0 4.57606e-15 0 0 0 0)
(2.71051e-14 1.52493e-14 0 -5.42101e-14 7.9523e-15 0 0 0 0)
(-2.71051e-14 4.05796e-15 0 0 1.05995e-14 0 0 0 0)
(0 -9.08027e-15 0 0 2.21711e-16 0 0 0 0)
(0 -5.31527e-15 0 0 -9.57987e-15 0 0 0 0)
(2.46656e-12 7.9876e-13 0 1.19262e-12 -3.33276e-11 0 0 0 0)
(-3.33392e-12 -9.55536e-13 0 -4.06576e-13 7.25194e-12 0 0 0 0)
(9.21572e-13 1.88472e-13 0 -8.13152e-14 -1.71659e-12 0 0 0 0)
(-8.13152e-14 -5.15067e-14 0 -1.0842e-13 3.66714e-13 0 0 0 0)
(5.42101e-14 2.58996e-14 0 -1.35525e-13 -9.77725e-14 0 0 0 0)
(5.42101e-14 2.14294e-14 0 -1.35525e-13 -1.24564e-14 0 0 0 0)
(2.71051e-14 1.41717e-14 0 -1.35525e-13 -1.38649e-14 0 0 0 0)
(-2.71051e-14 6.57992e-15 0 -5.42101e-14 9.26057e-15 0 0 0 0)
(0 -4.05779e-16 0 -5.42101e-14 9.0277e-15 0 0 0 0)
(0 -2.34082e-14 0 -2.71051e-14 1.1153e-14 0 0 0 0)
(-2.71051e-14 -2.04499e-14 0 0 1.74059e-14 0 0 0 0)
(-2.71051e-14 2.14802e-15 0 -2.71051e-14 4.87381e-15 0 0 0 0)
(5.42101e-14 1.04361e-14 0 -5.42101e-14 -6.68368e-15 0 0 0 0)
(0 7.89149e-15 0 0 9.95591e-15 0 0 0 0)
(-5.42101e-14 5.47437e-16 0 0 2.97907e-14 0 0 0 0)
(-5.42101e-14 -7.58923e-15 0 2.71051e-14 2.51889e-14 0 0 0 0)
(0 -9.22586e-15 0 0 -1.35949e-15 0 0 0 0)
(0 -1.17885e-14 0 0 -1.21763e-14 0 0 0 0)
(0 -1.10991e-14 0 0 -2.2422e-14 0 0 0 0)
(5.42101e-14 1.46734e-14 0 0 -1.33855e-14 0 0 0 0)
(-2.71051e-13 -1.23874e-11 0 -7.20994e-12 1.01089e-11 0 0 0 0)
(5.69206e-13 1.50553e-11 0 1.73472e-12 -2.24402e-12 0 0 0 0)
(-2.43945e-13 -3.31198e-12 0 -3.52366e-13 4.93163e-13 0 0 0 0)
(0 7.79359e-13 0 -5.42101e-14 -1.24353e-13 0 0 0 0)
(0 -1.79545e-13 0 -5.42101e-14 2.19483e-14 0 0 0 0)
(-2.71051e-14 5.15566e-14 0 -5.42101e-14 -1.98691e-14 0 0 0 0)
(2.71051e-14 2.30737e-14 0 -1.35525e-13 -1.13317e-14 0 0 0 0)
(0 1.79074e-14 0 -1.0842e-13 -5.6073e-15 0 0 0 0)
(0 -4.5851e-15 0 -1.0842e-13 -9.34307e-15 0 0 0 0)
(0 -9.96383e-15 0 -8.13152e-14 -9.68544e-15 0 0 0 0)
(0 -6.3437e-15 0 -5.42101e-14 1.33641e-14 0 0 0 0)
(-2.71051e-14 -2.74557e-15 0 -8.13152e-14 1.8699e-14 0 0 0 0)
(-2.71051e-14 9.43048e-15 0 -5.42101e-14 1.3503e-14 0 0 0 0)
(0 1.51431e-14 0 -1.0842e-13 4.75681e-15 0 0 0 0)
(0 -4.3611e-15 0 -5.42101e-14 -4.13514e-15 0 0 0 0)
(2.71051e-14 -2.5943e-14 0 2.71051e-14 -7.09312e-15 0 0 0 0)
(0 -2.21158e-14 0 8.13152e-14 -2.44363e-15 0 0 0 0)
(0 -1.70046e-14 0 2.71051e-14 2.28618e-15 0 0 0 0)
(-2.71051e-14 -1.02895e-14 0 2.71051e-14 4.9378e-15 0 0 0 0)
(0 3.04922e-14 0 2.71051e-14 -4.39537e-16 0 0 0 0)
(-3.03577e-12 8.66368e-12 0 4.41812e-12 1.76948e-11 0 0 0 0)
(3.55076e-12 -1.05713e-11 0 -1.13841e-12 -3.97209e-12 0 0 0 0)
(-8.94467e-13 2.30814e-12 0 1.35525e-13 9.20468e-13 0 0 0 0)
(2.1684e-13 -5.22722e-13 0 -8.13152e-14 -2.10076e-13 0 0 0 0)
(0 1.30383e-13 0 0 6.12103e-14 0 0 0 0)
(0 -1.18506e-14 0 -8.13152e-14 -1.98857e-15 0 0 0 0)
(-5.42101e-14 2.84335e-14 0 0 -9.08462e-15 0 0 0 0)
(5.42101e-14 8.5686e-15 0 -8.13152e-14 -2.70943e-14 0 0 0 0)
(5.42101e-14 -4.48391e-15 0 -2.71051e-14 -1.96727e-14 0 0 0 0)
(0 -7.01064e-16 0 -2.71051e-14 4.0144e-15 0 0 0 0)
(0 7.93456e-15 0 -8.13152e-14 2.15694e-14 0 0 0 0)
(0 2.28695e-15 0 -2.71051e-14 7.22912e-15 0 0 0 0)
(0 -3.50609e-15 0 -2.71051e-14 -7.95121e-15 0 0 0 0)
(2.71051e-14 -9.74663e-15 0 -2.71051e-14 -2.58528e-14 0 0 0 0)
(8.13152e-14 -1.13025e-14 0 5.42101e-14 -2.94287e-14 0 0 0 0)
(2.71051e-14 -5.89771e-15 0 -2.71051e-14 -1.41821e-14 0 0 0 0)
(-2.71051e-14 1.53438e-16 0 -2.71051e-14 1.23773e-15 0 0 0 0)
(0 -4.40712e-15 0 -2.71051e-14 7.15934e-16 0 0 0 0)
(2.71051e-14 -1.38248e-14 0 0 1.58728e-14 0 0 0 0)
(-5.42101e-14 1.01752e-14 0 0 1.53145e-14 0 0 0 0)
(2.92735e-12 1.33531e-12 0 1.30104e-12 -2.50812e-11 0 0 0 0)
(-3.71339e-12 -1.71901e-12 0 -3.25261e-13 5.51558e-12 0 0 0 0)
(8.94467e-13 4.50034e-13 0 1.35525e-13 -1.25482e-12 0 0 0 0)
(-1.89735e-13 -7.98988e-14 0 5.42101e-14 3.15602e-13 0 0 0 0)
(0 2.85432e-14 0 -2.71051e-14 -3.99629e-14 0 0 0 0)
(-2.71051e-14 -1.87382e-14 0 0 2.96042e-14 0 0 0 0)
(2.71051e-14 -2.03195e-15 0 0 -1.42953e-14 0 0 0 0)
(-2.71051e-14 7.31938e-15 0 5.42101e-14 -2.2615e-14 0 0 0 0)
(2.71051e-14 2.65236e-14 0 0 -2.02752e-14 0 0 0 0)
(0 3.12782e-14 0 0 -4.10064e-15 0 0 0 0)
(0 -3.12898e-15 0 2.71051e-14 1.83217e-15 0 0 0 0)
(0 -3.22661e-14 0 8.13152e-14 -5.68108e-15 0 0 0 0)
(0 -2.36515e-14 0 8.13152e-14 -1.99063e-14 0 0 0 0)
(0 -6.33433e-15 0 8.13152e-14 -2.28679e-14 0 0 0 0)
(0 7.30966e-15 0 2.71051e-14 -9.87647e-15 0 0 0 0)
(0 4.7234e-15 0 -2.71051e-14 -3.50452e-15 0 0 0 0)
(0 -7.21782e-15 0 2.71051e-14 -4.5316e-15 0 0 0 0)
(5.42101e-14 -2.36957e-15 0 0 -8.94844e-15 0 0 0 0)
(2.71051e-14 4.30913e-15 0 2.71051e-14 4.82548e-15 0 0 0 0)
(-2.71051e-14 -6.95063e-16 0 0 1.67797e-14 0 0 0 0)
(-2.00577e-12 -1.09019e-11 0 -4.01155e-12 1.40933e-11 0 0 0 0)
(2.35814e-12 1.32551e-11 0 1.0842e-12 -3.01213e-12 0 0 0 0)
(-5.69206e-13 -2.89184e-12 0 -8.13152e-14 7.17961e-13 0 0 0 0)
(8.13152e-14 6.92136e-13 0 2.71051e-14 -1.42831e-13 0 0 0 0)
(0 -1.55614e-13 0 2.71051e-14 3.27492e-14 0 0 0 0)
(0 1.38169e-14 0 5.42101e-14 -5.94288e-15 0 0 0 0)
(0 -2.37856e-14 0 8.13152e-14 -2.28656e-15 0 0 0 0)
(5.42101e-14 2.5887e-15 0 8.13152e-14 -1.67505e-15 0 0 0 0)
(0 1.40305e-14 0 8.13152e-14 -7.43205e-15 0 0 0 0)
(0 2.14063e-14 0 2.71051e-14 -3.25808e-14 0 0 0 0)
(8.13152e-14 6.35412e-15 0 1.0842e-13 -5.03965e-14 0 0 0 0)
(2.71051e-14 -1.94515e-14 0 8.13152e-14 -1.67709e-14 0 0 0 0)
(2.71051e-14 -2.06929e-14 0 8.13152e-14 2.62942e-15 0 0 0 0)
(0 2.83149e-16 0 5.42101e-14 8.0127e-15 0 0 0 0)
(0 8.06083e-15 0 2.71051e-14 1.13587e-14 0 0 0 0)
(0 -5.52845e-16 0 5.42101e-14 1.16485e-14 0 0 0 0)
(0 -5.29048e-15 0 2.71051e-14 3.25578e-15 0 0 0 0)
(0 4.94996e-15 0 2.71051e-14 8.4421e-15 0 0 0 0)
(0 1.19033e-14 0 -2.71051e-14 1.37461e-14 0 0 0 0)
(-5.42101e-14 -1.143e-14 0 0 1.00119e-14 0 0 0 0)
(0 1.24165e-11 0 3.7405e-12 1.02057e-11 0 0 0 0)
(2.1684e-13 -1.50944e-11 0 -1.0842e-12 -2.3437e-12 0 0 0 0)
(-1.35525e-13 3.31934e-12 0 0 5.41234e-13 0 0 0 0)
(0 -7.65111e-13 0 0 -1.30571e-13 0 0 0 0)
(-2.71051e-14 1.65432e-13 0 0 1.69751e-14 0 0 0 0)
(0 -5.37739e-14 0 8.13152e-14 -1.25186e-14 0 0 0 0)
(2.71051e-14 2.23588e-15 0 -5.42101e-14 -2.91336e-15 0 0 0 0)
(-2.71051e-14 2.17389e-15 0 0 -3.33202e-15 0 0 0 0)
(0 -4.38215e-15 0 -5.42101e-14 -4.84648e-15 0 0 0 0)
(0 -1.16862e-14 0 5.42101e-14 -1.41864e-14 0 0 0 0)
(5.42101e-14 1.26809e-14 0 -1.0842e-13 -2.51157e-14 0 0 0 0)
(2.71051e-14 2.07598e-14 0 -8.13152e-14 -1.44869e-14 0 0 0 0)
(-5.42101e-14 1.13214e-15 0 -5.42101e-14 7.17952e-15 0 0 0 0)
(-2.71051e-14 2.39492e-15 0 -1.0842e-13 1.30761e-14 0 0 0 0)
(0 1.09454e-14 0 -1.0842e-13 6.65317e-15 0 0 0 0)
(-2.71051e-14 -3.37949e-15 0 -5.42101e-14 1.23684e-14 0 0 0 0)
(-2.71051e-14 -1.04242e-14 0 -5.42101e-14 1.28876e-14 0 0 0 0)
(0 8.12072e-15 0 -8.13152e-14 4.17818e-15 0 0 0 0)
(0 5.87894e-15 0 -8.13152e-14 1.73608e-15 0 0 0 0)
(0 -2.4453e-14 0 -2.71051e-14 -1.21987e-15 0 0 0 0)
(6.77626e-13 -3.03994e-12 0 -1.6263e-13 -2.641e-11 0 0 0 0)
(-1.38236e-12 3.5906e-12 0 1.35525e-13 5.83061e-12 0 0 0 0)
(4.87891e-13 -6.7871e-13 0 8.13152e-14 -1.3652e-12 0 0 0 0)
(2.71051e-14 1.67876e-13 0 -2.71051e-14 2.88112e-13 0 0 0 0)
(1.0842e-13 -3.75618e-14 0 0 -9.21427e-14 0 0 0 0)
(0 -6.07151e-15 0 2.71051e-14 6.45581e-15 0 0 0 0)
(-5.42101e-14 -1.45991e-14 0 5.42101e-14 -2.55607e-15 0 0 0 0)
(0 6.55579e-16 0 0 -6.19568e-15 0 0 0 0)
(5.42101e-14 3.17607e-15 0 5.42101e-14 -5.07234e-15 0 0 0 0)
(0 1.13709e-15 0 0 1.64845e-14 0 0 0 0)
(-1.0842e-13 6.05367e-15 0 0 2.76856e-14 0 0 0 0)
(5.42101e-14 1.28437e-14 0 -8.13152e-14 -6.45392e-15 0 0 0 0)
(5.42101e-14 6.87014e-15 0 -2.71051e-14 -1.03796e-14 0 0 0 0)
(0 -2.43195e-16 0 0 6.1788e-15 0 0 0 0)
(0 7.35306e-15 0 -2.71051e-14 -8.72702e-15 0 0 0 0)
(8.13152e-14 5.68159e-15 0 -8.13152e-14 -2.29291e-14 0 0 0 0)
(-5.42101e-14 -1.34807e-14 0 0 -4.12618e-15 0 0 0 0)
(0 -6.20156e-15 0 0 -3.45177e-15 0 0 0 0)
(5.42101e-14 6.50529e-15 0 5.42101e-14 -1.73977e-14 0 0 0 0)
(0 -1.19462e-14 0 0 -1.03176e-14 0 0 0 0)
(-5.42101e-14 -8.16289e-12 0 -1.70762e-12 2.24246e-11 0 0 0 0)
(4.87891e-13 9.95042e-12 0 4.87891e-13 -4.81703e-12 0 0 0 0)
(-2.71051e-13 -2.22316e-12 0 5.42101e-14 1.11421e-12 0 0 0 0)
(-1.0842e-13 5.07946e-13 0 1.0842e-13 -2.6713e-13 0 0 0 0)
(0 -1.16224e-13 0 8.13152e-14 3.60322e-14 0 0 0 0)
(2.71051e-14 3.58127e-14 0 2.71051e-14 -2.73143e-14 0 0 0 0)
(2.71051e-14 -1.04156e-14 0 5.42101e-14 6.29211e-15 0 0 0 0)
(0 -3.42378e-16 0 2.71051e-14 -3.33263e-15 0 0 0 0)
(0 1.8298e-14 0 5.42101e-14 -8.43867e-15 0 0 0 0)
(-5.42101e-14 2.10718e-14 0 2.71051e-14 1.90402e-15 0 0 0 0)
(-2.71051e-14 -1.02575e-14 0 8.13152e-14 1.44074e-14 0 0 0 0)
(2.71051e-14 -1.73055e-14 0 1.35525e-13 8.99441e-15 0 0 0 0)
(-2.71051e-14 1.37649e-14 0 2.71051e-14 1.05902e-14 0 0 0 0)
(-2.71051e-14 4.04753e-15 0 5.42101e-14 1.8226e-14 0 0 0 0)
(-8.13152e-14 -1.81624e-14 0 1.0842e-13 1.17427e-14 0 0 0 0)
(2.71051e-14 1.22134e-15 0 2.71051e-14 -1.36049e-14 0 0 0 0)
(5.42101e-14 9.0531e-15 0 0 -1.11198e-14 0 0 0 0)
(0 -5.15077e-15 0 5.42101e-14 2.29551e-15 0 0 0 0)
(0 -9.86906e-16 0 0 -7.41211e-15 0 0 0 0)
(0 3.26224e-15 0 0 -3.95889e-15 0 0 0 0)
(-5.42101e-13 1.45676e-11 0 1.13841e-12 -6.95317e-12 0 0 0 0)
(3.52366e-13 -1.77198e-11 0 -4.87891e-13 1.43665e-12 0 0 0 0)
(1.0842e-13 3.87119e-12 0 -1.35525e-13 -3.64462e-13 0 0 0 0)
(8.13152e-14 -9.10299e-13 0 -2.71051e-14 4.21697e-14 0 0 0 0)
(0 2.02254e-13 0 0 -3.61276e-14 0 0 0 0)
(0 -3.58116e-14 0 -2.71051e-14 -4.23614e-15 0 0 0 0)
(-5.42101e-14 9.38255e-15 0 -5.42101e-14 7.32202e-15 0 0 0 0)
(0 -1.40752e-14 0 -2.71051e-14 1.43207e-14 0 0 0 0)
(0 8.41273e-15 0 -5.42101e-14 8.36114e-15 0 0 0 0)
(0 2.39832e-14 0 -8.13152e-14 -4.0224e-16 0 0 0 0)
(8.13152e-14 1.31441e-14 0 -8.13152e-14 -7.71134e-15 0 0 0 0)
(0 9.02651e-15 0 -1.0842e-13 1.01216e-14 0 0 0 0)
(-2.71051e-14 1.61017e-14 0 -8.13152e-14 6.74834e-15 0 0 0 0)
(5.42101e-14 9.09356e-16 0 -5.42101e-14 -1.79646e-14 0 0 0 0)
(0 -2.44778e-14 0 0 -1.08276e-15 0 0 0 0)
(-2.71051e-14 -1.71809e-14 0 5.42101e-14 5.23852e-15 0 0 0 0)
(0 2.41975e-15 0 -5.42101e-14 -2.38596e-15 0 0 0 0)
(-2.71051e-14 -2.49388e-15 0 0 -3.7736e-15 0 0 0 0)
(2.71051e-14 2.50887e-16 0 0 -1.88811e-15 0 0 0 0)
(-2.71051e-14 -5.75238e-16 0 2.71051e-14 3.69586e-15 0 0 0 0)
(6.77626e-13 -1.36794e-11 0 3.25261e-13 -9.87717e-12 0 0 0 0)
(-8.67362e-13 1.65391e-11 0 3.52366e-13 2.22621e-12 0 0 0 0)
(2.1684e-13 -3.61764e-12 0 2.43945e-13 -5.01904e-13 0 0 0 0)
(0 8.3628e-13 0 0 1.16906e-13 0 0 0 0)
(2.71051e-14 -1.6263e-13 0 2.71051e-14 -3.03209e-14 0 0 0 0)
(0 7.92623e-14 0 -8.13152e-14 1.06993e-14 0 0 0 0)
(0 8.14126e-15 0 -5.42101e-14 8.41353e-15 0 0 0 0)
(0 6.9674e-16 0 0 2.58962e-14 0 0 0 0)
(-5.42101e-14 3.57502e-15 0 -5.42101e-14 3.04004e-14 0 0 0 0)
(-8.13152e-14 4.99928e-15 0 0 1.55291e-14 0 0 0 0)
(0 2.66365e-16 0 -2.71051e-14 -2.20058e-15 0 0 0 0)
(0 -2.84583e-15 0 5.42101e-14 -5.31084e-16 0 0 0 0)
(0 -1.43214e-14 0 5.42101e-14 -1.29488e-14 0 0 0 0)
(0 -3.78356e-15 0 5.42101e-14 -2.17986e-14 0 0 0 0)
(0 5.04068e-15 0 0 -1.76225e-14 0 0 0 0)
(0 -8.18614e-17 0 0 -1.31947e-14 0 0 0 0)
(2.71051e-14 4.09915e-17 0 -2.71051e-14 -1.20589e-14 0 0 0 0)
(5.42101e-14 -4.65292e-15 0 0 -6.70509e-15 0 0 0 0)
(0 6.48255e-15 0 2.71051e-14 5.38134e-15 0 0 0 0)
(0 1.4545e-15 0 0 2.53813e-16 0 0 0 0)
(8.13152e-14 6.91664e-12 0 -8.67362e-13 2.13981e-11 0 0 0 0)
(3.79471e-13 -8.34449e-12 0 -2.71051e-14 -4.62456e-12 0 0 0 0)
(-2.98156e-13 1.76188e-12 0 -2.1684e-13 1.12092e-12 0 0 0 0)
(-1.6263e-13 -4.38716e-13 0 0 -1.9323e-13 0 0 0 0)
(-5.42101e-14 9.60472e-14 0 -1.35525e-13 9.74124e-14 0 0 0 0)
(-2.71051e-14 2.92288e-15 0 -8.13152e-14 5.28581e-15 0 0 0 0)
(0 2.45795e-14 0 -2.71051e-14 3.18812e-15 0 0 0 0)
(0 7.91165e-15 0 -8.13152e-14 -6.55078e-15 0 0 0 0)
(2.71051e-14 -1.95432e-15 0 -8.13152e-14 -1.09717e-14 0 0 0 0)
(5.42101e-14 -8.6178e-15 0 0 -2.71493e-14 0 0 0 0)
(2.71051e-14 -2.91617e-15 0 2.71051e-14 -2.20223e-14 0 0 0 0)
(2.71051e-14 -1.72171e-15 0 5.42101e-14 -9.26322e-15 0 0 0 0)
(0 -5.16585e-15 0 5.42101e-14 4.53396e-15 0 0 0 0)
(0 -3.76435e-15 0 2.71051e-14 1.47169e-14 0 0 0 0)
(0 -1.58739e-14 0 -2.71051e-14 1.89946e-15 0 0 0 0)
(-2.71051e-14 -1.16173e-14 0 5.42101e-14 4.76558e-15 0 0 0 0)
(-2.71051e-14 8.90933e-15 0 2.71051e-14 3.56683e-15 0 0 0 0)
(2.71051e-14 1.49463e-14 0 0 8.13081e-18 0 0 0 0)
(0 7.20979e-15 0 -8.13152e-14 1.74949e-15 0 0 0 0)
(-2.71051e-14 -6.21039e-15 0 -2.71051e-14 -4.34017e-15 0 0 0 0)
(-2.71051e-13 3.09414e-12 0 1.35525e-13 -2.30623e-11 0 0 0 0)
(-1.6263e-13 -3.73806e-12 0 -1.89735e-13 4.98312e-12 0 0 0 0)
(2.1684e-13 8.13686e-13 0 -8.13152e-14 -1.16264e-12 0 0 0 0)
(1.35525e-13 -1.87226e-13 0 -5.42101e-14 2.74704e-13 0 0 0 0)
(-5.42101e-14 3.58856e-14 0 0 -2.90782e-14 0 0 0 0)
(0 -1.4962e-14 0 5.42101e-14 1.7414e-14 0 0 0 0)
(0 -3.69533e-15 0 2.71051e-14 -2.51996e-14 0 0 0 0)
(5.42101e-14 -1.34631e-14 0 2.71051e-14 -3.27922e-14 0 0 0 0)
(0 -1.70235e-14 0 8.13152e-14 -2.36597e-14 0 0 0 0)
(0 -6.05132e-15 0 5.42101e-14 -1.31016e-14 0 0 0 0)
(2.71051e-14 1.81525e-14 0 0 -7.24937e-15 0 0 0 0)
(5.42101e-14 2.37105e-14 0 -5.42101e-14 -9.39228e-15 0 0 0 0)
(-5.42101e-14 9.65876e-15 0 -5.42101e-14 -4.28174e-15 0 0 0 0)
(0 -6.41806e-15 0 -2.71051e-14 -1.00465e-14 0 0 0 0)
(5.42101e-14 -4.91065e-15 0 0 -7.20658e-15 0 0 0 0)
(-5.42101e-14 1.58551e-15 0 -1.0842e-13 1.94304e-14 0 0 0 0)
(0 -4.71646e-15 0 0 1.43243e-14 0 0 0 0)
(-2.71051e-14 -6.47026e-15 0 2.71051e-14 -2.06634e-15 0 0 0 0)
(2.71051e-14 2.13425e-15 0 5.42101e-14 -1.71706e-14 0 0 0 0)
(5.42101e-14 4.04518e-15 0 0 -7.618e-15 0 0 0 0)
(8.13152e-14 -1.11625e-11 0 -9.75782e-13 1.37319e-11 0 0 0 0)
(1.35525e-13 1.35551e-11 0 5.42101e-13 -3.01781e-12 0 0 0 0)
(-1.6263e-13 -2.94653e-12 0 1.89735e-13 7.038e-13 0 0 0 0)
(-5.42101e-14 6.94849e-13 0 0 -1.63401e-13 0 0 0 0)
(0 -1.61243e-13 0 1.0842e-13 2.81549e-14 0 0 0 0)
(0 6.8015e-15 0 8.13152e-14 -1.12025e-14 0 0 0 0)
(5.42101e-14 -2.56266e-14 0 1.0842e-13 -1.52474e-14 0 0 0 0)
(0 9.45157e-15 0 5.42101e-14 -7.87862e-15 0 0 0 0)
(0 1.77362e-14 0 0 4.12287e-16 0 0 0 0)
(0 7.79252e-15 0 -5.42101e-14 1.37942e-14 0 0 0 0)
(-5.42101e-14 7.93143e-16 0 5.42101e-14 1.1892e-14 0 0 0 0)
(0 1.24592e-15 0 0 5.82797e-15 0 0 0 0)
(2.71051e-14 -5.8201e-15 0 0 -4.46724e-15 0 0 0 0)
(0 -6.68918e-15 0 2.71051e-14 -2.97675e-15 0 0 0 0)
(-8.13152e-14 1.36031e-14 0 5.42101e-14 1.00803e-14 0 0 0 0)
(0 9.91353e-15 0 5.42101e-14 9.14281e-15 0 0 0 0)
(5.42101e-14 -1.25874e-14 0 0 -5.86606e-15 0 0 0 0)
(5.42101e-14 -1.65485e-14 0 2.71051e-14 -5.19588e-15 0 0 0 0)
(-2.71051e-14 1.65813e-15 0 2.71051e-14 2.66506e-16 0 0 0 0)
(-2.71051e-14 1.85782e-14 0 2.71051e-14 -1.53478e-15 0 0 0 0)
(-7.04731e-13 1.38083e-11 0 2.6834e-12 5.22948e-12 0 0 0 0)
(9.21572e-13 -1.67662e-11 0 -8.40257e-13 -1.10804e-12 0 0 0 0)
(-2.71051e-13 3.6681e-12 0 -1.0842e-13 2.63473e-13 0 0 0 0)
(8.13152e-14 -8.62871e-13 0 0 -4.93982e-14 0 0 0 0)
(0 1.88084e-13 0 -8.13152e-14 1.44968e-14 0 0 0 0)
(2.71051e-14 -5.83643e-14 0 0 7.75981e-15 0 0 0 0)
(-5.42101e-14 -3.71437e-16 0 -1.0842e-13 2.18491e-14 0 0 0 0)
(-5.42101e-14 2.19657e-15 0 -8.13152e-14 2.00833e-14 0 0 0 0)
(-2.71051e-14 4.64933e-15 0 0 -3.91739e-15 0 0 0 0)
(0 5.4284e-15 0 -2.71051e-14 -2.19985e-14 0 0 0 0)
(8.13152e-14 1.01862e-14 0 0 -2.23411e-14 0 0 0 0)
(0 7.35122e-15 0 -5.42101e-14 -1.12525e-14 0 0 0 0)
(2.71051e-14 8.5404e-16 0 -5.42101e-14 -6.88916e-15 0 0 0 0)
(2.71051e-14 8.12943e-15 0 -2.71051e-14 -2.54746e-15 0 0 0 0)
(0 7.20892e-15 0 0 6.54796e-15 0 0 0 0)
(-2.71051e-14 -1.43608e-14 0 0 -4.82027e-16 0 0 0 0)
(-2.71051e-14 -1.90552e-14 0 5.42101e-14 2.65366e-15 0 0 0 0)
(0 -3.37701e-16 0 -5.42101e-14 1.01396e-14 0 0 0 0)
(0 5.79535e-15 0 -2.71051e-14 1.40346e-14 0 0 0 0)
(0 5.31346e-15 0 -2.71051e-14 1.35578e-15 0 0 0 0)
(1.89735e-12 -7.04108e-12 0 -1.70762e-12 -2.37206e-11 0 0 0 0)
(-2.57498e-12 8.58914e-12 0 4.60786e-13 5.16924e-12 0 0 0 0)
(6.77626e-13 -1.88789e-12 0 5.42101e-14 -1.2153e-12 0 0 0 0)
(-8.13152e-14 4.45873e-13 0 5.42101e-14 2.64879e-13 0 0 0 0)
(0 -1.04085e-13 0 5.42101e-14 -6.17294e-14 0 0 0 0)
(0 1.41538e-14 0 0 9.77079e-15 0 0 0 0)
(0 -1.33032e-14 0 5.42101e-14 2.77704e-15 0 0 0 0)
(2.71051e-14 -1.63149e-14 0 8.13152e-14 1.06459e-15 0 0 0 0)
(0 -2.43455e-14 0 8.13152e-14 -1.1703e-15 0 0 0 0)
(0 -1.06311e-14 0 1.0842e-13 4.63378e-15 0 0 0 0)
(-2.71051e-14 1.15391e-14 0 0 9.86205e-15 0 0 0 0)
(0 1.66978e-14 0 0 -8.73881e-16 0 0 0 0)
(0 2.88496e-15 0 0 -5.51578e-15 0 0 0 0)
(2.71051e-14 6.74794e-15 0 0 -2.08784e-14 0 0 0 0)
(5.42101e-14 1.56685e-14 0 -5.42101e-14 -2.94023e-14 0 0 0 0)
(2.71051e-14 6.01923e-15 0 0 -2.10902e-14 0 0 0 0)
(0 -1.96585e-15 0 0 7.70578e-15 0 0 0 0)
(-2.71051e-14 -5.16758e-15 0 0 2.01856e-14 0 0 0 0)
(0 -7.12565e-15 0 -5.42101e-14 4.06474e-15 0 0 0 0)
(0 3.18784e-15 0 0 -4.15358e-15 0 0 0 0)
(-1.89735e-12 -4.7431e-12 0 -3.2255e-12 2.46552e-11 0 0 0 0)
(2.60209e-12 5.73911e-12 0 8.67362e-13 -5.361e-12 0 0 0 0)
(-6.77626e-13 -1.23626e-12 0 -8.13152e-14 1.24517e-12 0 0 0 0)
(2.71051e-14 2.90701e-13 0 5.42101e-14 -2.86023e-13 0 0 0 0)
(0 -6.70242e-14 0 -5.42101e-14 5.12e-14 0 0 0 0)
(2.71051e-14 6.14218e-15 0 2.71051e-14 -2.04476e-14 0 0 0 0)
(-2.71051e-14 -9.07764e-15 0 0 -8.98069e-16 0 0 0 0)
(0 -1.75076e-15 0 0 -1.06241e-14 0 0 0 0)
(0 8.21852e-15 0 -2.71051e-14 5.42766e-15 0 0 0 0)
(0 1.64608e-14 0 -8.13152e-14 2.24426e-14 0 0 0 0)
(-5.42101e-14 4.67855e-15 0 -5.42101e-14 2.23526e-14 0 0 0 0)
(0 -8.02661e-15 0 5.42101e-14 1.6338e-15 0 0 0 0)
(2.71051e-14 -1.91505e-14 0 5.42101e-14 -1.13273e-14 0 0 0 0)
(0 -1.57571e-14 0 2.71051e-14 -4.04723e-15 0 0 0 0)
(-2.71051e-14 6.99711e-15 0 0 1.22562e-17 0 0 0 0)
(0 2.27473e-14 0 0 -1.50284e-14 0 0 0 0)
(0 2.22207e-14 0 -5.42101e-14 -8.65768e-15 0 0 0 0)
(-5.42101e-14 -3.97874e-15 0 -5.42101e-14 3.98743e-15 0 0 0 0)
(5.42101e-14 -1.85439e-14 0 5.42101e-14 5.42976e-15 0 0 0 0)
(0 5.40229e-15 0 0 3.08747e-15 0 0 0 0)
(-4.33681e-13 1.22531e-11 0 5.99022e-12 1.11264e-12 0 0 0 0)
(5.14996e-13 -1.48209e-11 0 -1.65341e-12 -2.70817e-13 0 0 0 0)
(-1.35525e-13 3.18709e-12 0 8.13152e-14 6.15041e-14 0 0 0 0)
(0 -7.48097e-13 0 -1.0842e-13 -1.01077e-14 0 0 0 0)
(-2.71051e-14 1.61491e-13 0 0 7.85648e-15 0 0 0 0)
(2.71051e-14 -3.79443e-14 0 -2.71051e-14 4.80936e-15 0 0 0 0)
(-2.71051e-14 -3.47959e-15 0 -5.42101e-14 8.40101e-15 0 0 0 0)
(0 -9.98918e-15 0 0 1.8749e-16 0 0 0 0)
(-5.42101e-14 8.72118e-15 0 -5.42101e-14 5.01309e-15 0 0 0 0)
(0 6.2938e-15 0 0 -8.40493e-15 0 0 0 0)
(5.42101e-14 -9.26973e-15 0 5.42101e-14 -2.60347e-14 0 0 0 0)
(2.71051e-14 -1.69821e-14 0 0 -2.64457e-14 0 0 0 0)
(5.42101e-14 -2.79608e-15 0 0 -1.88896e-14 0 0 0 0)
(0 1.80875e-14 0 -2.71051e-14 8.69111e-15 0 0 0 0)
(-5.42101e-14 4.68734e-15 0 -5.42101e-14 1.96985e-14 0 0 0 0)
(-2.71051e-14 -2.65071e-15 0 0 6.10205e-15 0 0 0 0)
(2.71051e-14 1.705e-14 0 0 -1.18847e-14 0 0 0 0)
(5.42101e-14 8.91986e-15 0 0 -2.15375e-14 0 0 0 0)
(0 -8.02561e-15 0 0 -4.26356e-15 0 0 0 0)
(0 -5.32939e-15 0 0 2.7036e-15 0 0 0 0)
(2.38524e-12 -3.90128e-12 0 -9.48677e-13 -2.72868e-11 0 0 0 0)
(-3.2255e-12 4.68797e-12 0 3.52366e-13 5.80736e-12 0 0 0 0)
(8.40257e-13 -9.75554e-13 0 1.0842e-13 -1.38971e-12 0 0 0 0)
(-5.42101e-14 2.37053e-13 0 1.0842e-13 2.75303e-13 0 0 0 0)
(8.13152e-14 -5.21071e-14 0 1.35525e-13 -8.02166e-14 0 0 0 0)
(0 6.68671e-15 0 8.13152e-14 2.52491e-15 0 0 0 0)
(2.71051e-14 -1.36995e-14 0 1.35525e-13 -9.87878e-15 0 0 0 0)
(0 -5.13869e-15 0 8.13152e-14 5.79922e-15 0 0 0 0)
(-2.71051e-14 -3.73897e-16 0 1.0842e-13 8.74782e-15 0 0 0 0)
(2.71051e-14 -1.45871e-14 0 1.0842e-13 4.26993e-15 0 0 0 0)
(0 -1.33622e-14 0 8.13152e-14 3.69459e-15 0 0 0 0)
(0 -8.81451e-16 0 5.42101e-14 1.32177e-14 0 0 0 0)
(-5.42101e-14 1.59863e-14 0 5.42101e-14 2.38284e-14 0 0 0 0)
(-5.42101e-14 2.28309e-14 0 2.71051e-14 1.60304e-14 0 0 0 0)
(5.42101e-14 4.40805e-15 0 5.42101e-14 -8.68257e-15 0 0 0 0)
(-5.42101e-14 -8.83589e-15 0 5.42101e-14 7.62824e-15 0 0 0 0)
(0 -5.41889e-15 0 8.13152e-14 3.05563e-16 0 0 0 0)
(0 3.6424e-15 0 5.42101e-14 -1.77045e-14 0 0 0 0)
(5.42101e-14 5.69727e-15 0 2.71051e-14 -1.47105e-14 0 0 0 0)
(0 6.96225e-15 0 2.71051e-14 -5.83788e-15 0 0 0 0)
(-1.02999e-12 -9.22633e-12 0 -1.76183e-12 1.66106e-11 0 0 0 0)
(1.57209e-12 1.10762e-11 0 4.06576e-13 -3.48297e-12 0 0 0 0)
(-4.06576e-13 -2.34497e-12 0 -1.0842e-13 8.46408e-13 0 0 0 0)
(2.71051e-14 5.61398e-13 0 -5.42101e-14 -1.62449e-13 0 0 0 0)
(-2.71051e-14 -1.11287e-13 0 -8.13152e-14 4.79562e-14 0 0 0 0)
(0 3.23935e-14 0 -8.13152e-14 9.44837e-16 0 0 0 0)
(0 -2.05272e-16 0 -8.13152e-14 8.87597e-15 0 0 0 0)
(-2.71051e-14 8.63742e-15 0 -8.13152e-14 1.48496e-14 0 0 0 0)
(-2.71051e-14 7.19189e-15 0 -5.42101e-14 5.37723e-15 0 0 0 0)
(0 1.24057e-15 0 -5.42101e-14 8.03163e-15 0 0 0 0)
(0 -3.21926e-16 0 -8.13152e-14 1.87237e-14 0 0 0 0)
(-2.71051e-14 3.1518e-15 0 -5.42101e-14 2.17158e-14 0 0 0 0)
(0 1.65513e-17 0 -5.42101e-14 1.64534e-14 0 0 0 0)
(0 -1.44235e-14 0 -2.71051e-14 5.71291e-15 0 0 0 0)
(0 -3.71479e-15 0 0 8.04598e-15 0 0 0 0)
(0 6.33742e-15 0 -5.42101e-14 5.01965e-15 0 0 0 0)
(0 -8.28269e-15 0 -2.71051e-14 1.05444e-14 0 0 0 0)
(0 -6.09621e-15 0 0 1.87212e-14 0 0 0 0)
(0 3.84097e-15 0 -2.71051e-14 1.29983e-14 0 0 0 0)
(-5.42101e-14 1.5219e-14 0 -2.71051e-14 9.18299e-15 0 0 0 0)
)
;

boundaryField
{
    movingWall
    {
        type            extrapolatedCalculated;
        value           nonuniform List<tensor> 
20
(
(-1.02999e-12 -9.22633e-12 0 6.12843e-12 4.67123e-11 0 0 0 0)
(1.57209e-12 1.10762e-11 0 -2.04281e-12 -9.80695e-12 0 0 0 0)
(-4.06576e-13 -2.34497e-12 0 -2.22045e-13 2.40747e-12 0 0 0 0)
(2.71051e-14 5.61398e-13 0 -3.55271e-13 -4.27087e-13 0 0 0 0)
(-2.71051e-14 -1.11287e-13 0 -3.10862e-13 1.61877e-13 0 0 0 0)
(0 3.23935e-14 0 -2.66454e-13 1.8062e-14 0 0 0 0)
(0 -2.05272e-16 0 -2.66454e-13 3.23027e-14 0 0 0 0)
(-2.71051e-14 8.63742e-15 0 -2.66454e-13 1.88831e-14 0 0 0 0)
(-2.71051e-14 7.19189e-15 0 -1.77636e-13 -2.24696e-15 0 0 0 0)
(0 1.24057e-15 0 -1.77636e-13 -9.8845e-15 0 0 0 0)
(0 -3.21926e-16 0 -1.77636e-13 -7.20923e-15 0 0 0 0)
(-2.71051e-14 3.1518e-15 0 -1.77636e-13 -8.5968e-15 0 0 0 0)
(0 1.65513e-17 0 -8.88178e-14 -1.98164e-14 0 0 0 0)
(0 -1.44235e-14 0 -1.33227e-13 -8.66301e-15 0 0 0 0)
(0 -3.71479e-15 0 -8.88178e-14 3.78778e-14 0 0 0 0)
(0 6.33742e-15 0 -1.33227e-13 6.19617e-15 0 0 0 0)
(0 -8.28269e-15 0 -1.33227e-13 1.25281e-14 0 0 0 0)
(0 -6.09621e-15 0 -4.44089e-14 3.93269e-14 0 0 0 0)
(0 3.84097e-15 0 -1.33227e-13 3.69129e-14 0 0 0 0)
(-5.42101e-14 1.5219e-14 0 -8.88178e-14 2.39631e-14 0 0 0 0)
)
;
    }
    fixedWalls
    {
        type            extrapolatedCalculated;
        value           nonuniform List<tensor> 
60
(
(-6.83897e-12 6.97924e-11 0 1.65341e-12 1.84536e-11 0 0 0 0)
(1.34559e-11 4.022e-12 0 1.19262e-12 -3.33276e-11 0 0 0 0)
(-2.13163e-12 -6.35181e-11 0 -7.20994e-12 1.01089e-11 0 0 0 0)
(-1.52767e-11 4.44578e-11 0 4.41812e-12 1.76948e-11 0 0 0 0)
(1.54543e-11 7.26101e-12 0 1.30104e-12 -2.50812e-11 0 0 0 0)
(-1.00364e-11 -5.5867e-11 0 -4.01155e-12 1.40933e-11 0 0 0 0)
(-6.21725e-13 6.36343e-11 0 3.7405e-12 1.02057e-11 0 0 0 0)
(4.9738e-12 -1.50442e-11 0 -1.6263e-13 -2.641e-11 0 0 0 0)
(-1.24345e-12 -4.20057e-11 0 -1.70762e-12 2.24246e-11 0 0 0 0)
(-1.95399e-12 7.4654e-11 0 1.13841e-12 -6.95317e-12 0 0 0 0)
(3.41949e-12 -6.98184e-11 0 3.25261e-13 -9.87717e-12 0 0 0 0)
(-7.99361e-13 3.51453e-11 0 -8.67362e-13 2.13981e-11 0 0 0 0)
(0 1.57741e-11 0 1.35525e-13 -2.30623e-11 0 0 0 0)
(-1.77636e-13 -5.71038e-11 0 -9.75782e-13 1.37319e-11 0 0 0 0)
(-3.90799e-12 7.07018e-11 0 2.6834e-12 5.22948e-12 0 0 0 0)
(1.04805e-11 -3.61859e-11 0 -1.70762e-12 -2.37206e-11 0 0 0 0)
(-1.06581e-11 -2.41806e-11 0 -3.2255e-12 2.46552e-11 0 0 0 0)
(-2.39808e-12 6.24349e-11 0 5.99022e-12 1.11264e-12 0 0 0 0)
(1.31894e-11 -1.973e-11 0 -9.48677e-13 -2.72868e-11 0 0 0 0)
(-6.12843e-12 -4.67123e-11 0 -1.76183e-12 1.66106e-11 0 0 0 0)
(0 4.74607e-15 0 0 -9.57987e-15 0 0 0 0)
(8.88178e-14 3.35734e-14 0 0 -1.33855e-14 0 0 0 0)
(0 5.8288e-14 0 2.71051e-14 -4.39537e-16 0 0 0 0)
(-8.88178e-14 3.53316e-14 0 0 1.53145e-14 0 0 0 0)
(0 -2.9702e-15 0 0 1.67797e-14 0 0 0 0)
(-8.88178e-14 -3.17873e-14 0 0 1.00119e-14 0 0 0 0)
(0 -4.30179e-14 0 -2.71051e-14 -1.21987e-15 0 0 0 0)
(0 -2.69078e-14 0 0 -1.03176e-14 0 0 0 0)
(0 -1.7474e-15 0 0 -3.95889e-15 0 0 0 0)
(-4.44089e-14 -1.10722e-14 0 2.71051e-14 3.69586e-15 0 0 0 0)
(-4.44089e-14 -1.65308e-14 0 0 2.53813e-16 0 0 0 0)
(-4.44089e-14 -1.20875e-14 0 -2.71051e-14 -4.34017e-15 0 0 0 0)
(8.88178e-14 8.2985e-16 0 0 -7.618e-15 0 0 0 0)
(-4.44089e-14 1.83845e-14 0 2.71051e-14 -1.53478e-15 0 0 0 0)
(0 6.96897e-15 0 -2.71051e-14 1.35578e-15 0 0 0 0)
(0 1.29614e-14 0 0 -4.15358e-15 0 0 0 0)
(0 2.35833e-14 0 0 3.08747e-15 0 0 0 0)
(0 6.11531e-16 0 0 2.7036e-15 0 0 0 0)
(0 1.27689e-14 0 2.71051e-14 -5.83788e-15 0 0 0 0)
(-8.88178e-14 2.39631e-14 0 -2.71051e-14 9.18299e-15 0 0 0 0)
(-1.11131e-12 1.36883e-11 0 -6.83897e-12 6.97924e-11 0 0 0 0)
(1.84314e-12 -1.65557e-11 0 2.4869e-12 -1.50392e-11 0 0 0 0)
(-4.87891e-13 3.57325e-12 0 4.44089e-13 3.56944e-12 0 0 0 0)
(5.42101e-14 -8.39459e-13 0 5.32907e-13 -7.46202e-13 0 0 0 0)
(0 1.99626e-13 0 6.21725e-13 2.11608e-13 0 0 0 0)
(-5.42101e-14 -3.23509e-14 0 5.32907e-13 5.23014e-14 0 0 0 0)
(-5.42101e-14 1.35683e-15 0 4.44089e-13 8.22044e-14 0 0 0 0)
(-2.71051e-14 -4.98518e-15 0 3.10862e-13 5.77287e-14 0 0 0 0)
(-2.71051e-14 -6.47753e-15 0 3.10862e-13 6.22637e-14 0 0 0 0)
(-5.42101e-14 -1.83421e-14 0 1.77636e-13 3.18186e-14 0 0 0 0)
(0 -6.45183e-17 0 1.77636e-13 -1.11046e-14 0 0 0 0)
(0 2.1344e-14 0 1.33227e-13 3.15605e-14 0 0 0 0)
(-2.71051e-14 4.34839e-15 0 2.22045e-13 7.42716e-14 0 0 0 0)
(-5.42101e-14 -2.13312e-14 0 4.44089e-14 4.89541e-14 0 0 0 0)
(0 -1.9594e-14 0 0 -1.10534e-14 0 0 0 0)
(0 5.20717e-15 0 0 -2.94221e-14 0 0 0 0)
(2.71051e-14 1.52493e-14 0 4.44089e-14 9.77533e-15 0 0 0 0)
(-2.71051e-14 4.05796e-15 0 0 3.1575e-14 0 0 0 0)
(0 -9.08027e-15 0 4.44089e-14 2.60072e-14 0 0 0 0)
(0 -5.31527e-15 0 0 -4.74607e-15 0 0 0 0)
)
;
    }
    frontAndBack
    {
        type            empty;
    }
}


// ************************************************************************* //
