/*--------------------------------*- C++ -*----------------------------------*\
| =========                 |                                                 |
| \\      /  F ield         | OpenFOAM: The Open Source CFD Toolbox           |
|  \\    /   O peration     | Version:  2312                                  |
|   \\  /    A nd           | Website:  www.openfoam.com                      |
|    \\/     M anipulation  |                                                 |
\*---------------------------------------------------------------------------*/
FoamFile
{
    version     2.0;
    format      ascii;
    arch        "LSB;label=32;scalar=64";
    class       volVectorField;
    location    "10";
    object      gradPhi;
}
// * * * * * * * * * * * * * * * * * * * * * * * * * * * * * * * * * * * * * //

dimensions      [0 2 -1 0 0 0 0];

internalField   nonuniform List<vector> 
400
(
(-0.02 1.07937e-16 0)
(1.58819e-16 -1.58293e-16 0)
(-4.63221e-17 4.64621e-17 0)
(8.27181e-18 -7.74545e-18 0)
(-1.65436e-18 1.4021e-18 0)
(-1.65436e-18 1.65056e-18 0)
(-3.30872e-18 2.41735e-18 0)
(-1.65436e-18 1.85699e-18 0)
(-1.65436e-18 2.04007e-18 0)
(-1.65436e-18 1.85753e-18 0)
(0 -1.49825e-19 0)
(0 1.79971e-19 0)
(-1.65436e-18 1.58849e-18 0)
(-1.65436e-18 1.72429e-18 0)
(0 4.88983e-19 0)
(0 -3.92839e-19 0)
(0 -1.13661e-19 0)
(0 1.76203e-19 0)
(0 3.60227e-19 0)
(0 1.73229e-19 0)
(-0.02 -2.11348e-16 0)
(-2.81241e-16 2.8198e-16 0)
(8.43724e-17 -8.39085e-17 0)
(-1.32349e-17 1.37967e-17 0)
(1.65436e-18 -2.67323e-18 0)
(3.30872e-18 -2.0406e-18 0)
(1.65436e-18 -1.14134e-18 0)
(0 7.9697e-20 0)
(-1.65436e-18 -1.16519e-20 0)
(0 1.01198e-20 0)
(-1.65436e-18 9.67154e-19 0)
(-1.65436e-18 4.10425e-19 0)
(3.30872e-18 -1.22312e-18 0)
(0 -1.7294e-19 0)
(-3.30872e-18 1.46698e-18 0)
(-1.65436e-18 2.47371e-18 0)
(-1.65436e-18 1.05939e-18 0)
(0 2.00376e-19 0)
(1.65436e-18 -2.01497e-18 0)
(1.65436e-18 -1.98799e-18 0)
(-0.02 3.91288e-17 0)
(5.9557e-17 -6.07777e-17 0)
(-2.31611e-17 2.25614e-17 0)
(3.30872e-18 -3.50361e-18 0)
(1.65436e-18 -1.5378e-19 0)
(-1.65436e-18 2.08061e-19 0)
(1.65436e-18 -8.61469e-19 0)
(0 6.96103e-19 0)
(0 1.00382e-18 0)
(0 -7.04844e-20 0)
(0 9.96839e-19 0)
(-1.65436e-18 1.04478e-18 0)
(-1.65436e-18 1.20014e-18 0)
(0 2.30567e-19 0)
(0 3.36918e-19 0)
(1.65436e-18 -1.00614e-18 0)
(0 -1.09694e-18 0)
(0 -3.66611e-19 0)
(-1.65436e-18 1.43317e-18 0)
(0 2.82802e-19 0)
(-0.02 1.63777e-16 0)
(1.9356e-16 -1.93133e-16 0)
(-4.79765e-17 4.70737e-17 0)
(9.92617e-18 -1.09011e-17 0)
(-1.65436e-18 2.64419e-18 0)
(0 -9.48625e-19 0)
(0 1.9959e-19 0)
(3.30872e-18 -2.73728e-18 0)
(1.65436e-18 -2.47557e-18 0)
(0 -3.38731e-19 0)
(0 4.9799e-19 0)
(0 4.79215e-19 0)
(0 -4.53189e-19 0)
(1.65436e-18 -1.30634e-18 0)
(3.30872e-18 -2.46857e-18 0)
(1.65436e-18 -7.92196e-19 0)
(-1.65436e-18 5.45711e-19 0)
(0 4.14434e-19 0)
(0 2.27258e-19 0)
(-1.65436e-18 1.39854e-18 0)
(-0.02 -1.918e-16 0)
(-2.43191e-16 2.42313e-16 0)
(6.28657e-17 -6.36295e-17 0)
(-1.48893e-17 1.48325e-17 0)
(0 -3.46851e-19 0)
(-3.30872e-18 2.64499e-18 0)
(1.65436e-18 -1.17569e-18 0)
(0 1.75444e-19 0)
(1.65436e-18 -5.24501e-19 0)
(0 -1.66218e-19 0)
(0 9.45653e-19 0)
(0 -2.01505e-19 0)
(0 -2.74778e-19 0)
(0 -4.51025e-19 0)
(0 1.76577e-19 0)
(0 9.13258e-20 0)
(0 -2.17402e-19 0)
(1.65436e-18 -1.41946e-18 0)
(0 -3.59434e-19 0)
(0 4.57957e-19 0)
(-0.02 1.20379e-16 0)
(1.43929e-16 -1.44103e-16 0)
(-3.80503e-17 3.80455e-17 0)
(8.27181e-18 -6.9585e-18 0)
(0 -1.23438e-19 0)
(1.65436e-18 -1.56978e-18 0)
(0 2.91613e-19 0)
(1.65436e-18 -8.82396e-19 0)
(0 -1.70504e-19 0)
(0 -8.90607e-19 0)
(3.30872e-18 -2.97169e-18 0)
(1.65436e-18 -1.19814e-18 0)
(1.65436e-18 -1.60558e-18 0)
(0 -7.08885e-19 0)
(0 5.17769e-19 0)
(0 2.56786e-19 0)
(0 -1.43078e-19 0)
(0 1.28782e-18 0)
(-1.65436e-18 1.13944e-18 0)
(-1.65436e-18 9.07545e-19 0)
(-0.02 3.37904e-17 0)
(5.79026e-17 -5.95472e-17 0)
(-2.31611e-17 2.40355e-17 0)
(3.30872e-18 -3.7893e-18 0)
(-1.65436e-18 1.85179e-18 0)
(0 2.28032e-19 0)
(1.65436e-18 -9.00132e-19 0)
(-1.65436e-18 9.37021e-20 0)
(0 -6.87429e-20 0)
(1.65436e-18 -1.17651e-18 0)
(1.65436e-18 -2.43806e-18 0)
(0 -7.42e-19 0)
(-1.65436e-18 2.27534e-18 0)
(-1.65436e-18 1.5409e-18 0)
(0 1.85001e-19 0)
(0 1.24661e-18 0)
(-1.65436e-18 5.12988e-19 0)
(0 -2.18928e-19 0)
(0 7.72766e-19 0)
(0 -1.73555e-19 0)
(-0.02 -1.1567e-16 0)
(-1.8198e-16 1.813e-16 0)
(6.45201e-17 -6.55889e-17 0)
(-9.92617e-18 9.21649e-18 0)
(6.61744e-18 -4.7117e-18 0)
(0 2.06757e-19 0)
(-1.65436e-18 7.95767e-19 0)
(0 -1.96205e-19 0)
(1.65436e-18 -1.01074e-18 0)
(-1.65436e-18 1.4701e-19 0)
(-1.65436e-18 2.8905e-18 0)
(0 1.56991e-20 0)
(1.65436e-18 -1.61916e-18 0)
(1.65436e-18 -4.54976e-19 0)
(0 -9.89484e-19 0)
(1.65436e-18 -1.77215e-18 0)
(-1.65436e-18 9.28483e-19 0)
(0 2.33906e-19 0)
(3.30872e-18 -2.05505e-18 0)
(0 -8.40502e-19 0)
(-0.02 8.12621e-17 0)
(1.30695e-16 -1.32136e-16 0)
(-5.29396e-17 5.41218e-17 0)
(8.27181e-18 -7.92259e-18 0)
(-1.65436e-18 1.36274e-18 0)
(1.65436e-18 -1.86523e-18 0)
(0 -3.34695e-19 0)
(0 -5.85889e-19 0)
(0 2.13147e-19 0)
(-1.65436e-18 1.59957e-18 0)
(0 1.46389e-18 0)
(0 4.44994e-19 0)
(-1.65436e-18 2.31284e-19 0)
(-1.65436e-18 2.08048e-18 0)
(-3.30872e-18 1.94598e-18 0)
(0 -6.55618e-19 0)
(1.65436e-18 -1.97884e-18 0)
(1.65436e-18 -3.89561e-19 0)
(0 4.21886e-19 0)
(0 -3.37601e-19 0)
(-0.02 -3.40601e-18 0)
(-2.31611e-17 2.28944e-17 0)
(1.8198e-17 -1.79299e-17 0)
(0 -6.59256e-19 0)
(1.65436e-18 -1.39584e-18 0)
(0 5.16151e-19 0)
(-1.65436e-18 1.06267e-18 0)
(-1.65436e-18 1.26299e-18 0)
(0 -1.83576e-19 0)
(1.65436e-18 -1.97529e-18 0)
(3.30872e-18 -2.75228e-18 0)
(0 -1.97992e-19 0)
(-1.65436e-18 1.15878e-18 0)
(1.65436e-18 -2.15772e-18 0)
(0 -1.00022e-18 0)
(0 6.38962e-19 0)
(0 8.46982e-19 0)
(-1.65436e-18 5.86743e-19 0)
(1.65436e-18 -1.76403e-19 0)
(-1.65436e-18 8.70368e-19 0)
(-0.02 -5.53879e-17 0)
(-7.27919e-17 7.36364e-17 0)
(2.31611e-17 -2.4162e-17 0)
(-3.30872e-18 3.5707e-18 0)
(1.65436e-18 -1.50976e-18 0)
(0 -4.41878e-19 0)
(0 -3.83175e-19 0)
(0 8.83772e-19 0)
(-3.30872e-18 2.4393e-18 0)
(-3.30872e-18 2.87542e-18 0)
(0 1.40839e-18 0)
(0 8.60324e-19 0)
(0 -4.45526e-19 0)
(0 -2.89948e-19 0)
(0 -1.05699e-18 0)
(0 -1.05595e-18 0)
(0 -1.50229e-18 0)
(1.65436e-18 -1.00533e-18 0)
(1.65436e-18 -1.12512e-19 0)
(0 -8.68201e-19 0)
(-0.02 7.35871e-17 0)
(1.24077e-16 -1.24674e-16 0)
(-5.45939e-17 5.38987e-17 0)
(4.96308e-18 -3.41494e-18 0)
(-4.96308e-18 3.78951e-18 0)
(0 1.15502e-18 0)
(0 1.23609e-19 0)
(0 2.83748e-20 0)
(0 -1.25909e-18 0)
(3.30872e-18 -2.56451e-18 0)
(1.65436e-18 -1.20238e-18 0)
(1.65436e-18 -7.12029e-19 0)
(1.65436e-18 -1.08367e-18 0)
(-1.65436e-18 1.2773e-19 0)
(0 9.99452e-19 0)
(0 4.21307e-19 0)
(-1.65436e-18 8.22176e-19 0)
(0 -4.93364e-19 0)
(0 4.86669e-19 0)
(-1.65436e-18 1.05791e-18 0)
(-0.02 -7.2845e-17 0)
(-1.27386e-16 1.27934e-16 0)
(5.45939e-17 -5.53148e-17 0)
(-6.61744e-18 6.85451e-18 0)
(0 3.59717e-19 0)
(0 -1.35729e-19 0)
(0 -1.66861e-19 0)
(1.65436e-18 -1.75875e-18 0)
(0 -6.95486e-19 0)
(0 -4.76788e-19 0)
(1.65436e-18 -9.9989e-19 0)
(1.65436e-18 -8.79539e-19 0)
(-1.65436e-18 1.13592e-18 0)
(0 1.50729e-19 0)
(1.65436e-18 -1.68612e-18 0)
(0 8.63473e-19 0)
(-1.65436e-18 8.50378e-19 0)
(-1.65436e-18 1.54645e-18 0)
(1.65436e-18 -1.04039e-18 0)
(3.30872e-18 -1.85604e-18 0)
(-0.02 4.57921e-17 0)
(7.61006e-17 -7.53638e-17 0)
(-3.47416e-17 3.28834e-17 0)
(4.96308e-18 -3.3007e-18 0)
(0 6.47229e-19 0)
(-1.65436e-18 1.0003e-18 0)
(3.30872e-18 -2.19119e-18 0)
(0 -1.32615e-18 0)
(0 -1.01781e-18 0)
(0 5.03109e-19 0)
(-1.65436e-18 1.92675e-18 0)
(0 1.04085e-18 0)
(0 -8.70859e-19 0)
(1.65436e-18 -6.37343e-19 0)
(-1.65436e-18 1.69394e-18 0)
(0 6.69326e-19 0)
(0 -7.32914e-19 0)
(1.65436e-18 -1.6982e-18 0)
(0 -9.9024e-21 0)
(-1.65436e-18 6.35645e-19 0)
(-0.02 4.36806e-17 0)
(5.62483e-17 -5.55935e-17 0)
(-1.32349e-17 1.44024e-17 0)
(1.65436e-18 -3.76003e-18 0)
(0 -1.98796e-19 0)
(0 -7.14805e-19 0)
(-1.65436e-18 2.41105e-18 0)
(-1.65436e-18 2.86318e-18 0)
(-1.65436e-18 1.2395e-18 0)
(1.65436e-18 -6.97655e-19 0)
(1.65436e-18 -2.83939e-18 0)
(1.65436e-18 -1.39137e-18 0)
(0 -5.22672e-19 0)
(1.65436e-18 1.88953e-19 0)
(0 2.88888e-19 0)
(-1.65436e-18 3.58686e-19 0)
(0 3.61844e-19 0)
(-1.65436e-18 6.48071e-19 0)
(0 7.27899e-19 0)
(0 2.47075e-19 0)
(-0.02 -1.48176e-16 0)
(-2.01832e-16 2.0208e-16 0)
(6.12114e-17 -6.11342e-17 0)
(-1.15805e-17 1.1129e-17 0)
(1.65436e-18 -1.35158e-18 0)
(-1.65436e-18 7.43799e-19 0)
(0 -9.27838e-19 0)
(1.65436e-18 -1.56548e-18 0)
(0 -6.83339e-19 0)
(0 1.31908e-19 0)
(-1.65436e-18 1.2439e-18 0)
(0 3.79944e-19 0)
(0 1.98561e-19 0)
(1.65436e-18 -1.35655e-18 0)
(3.30872e-18 -2.36835e-18 0)
(1.65436e-18 -1.88971e-18 0)
(0 3.34949e-19 0)
(-1.65436e-18 1.60635e-18 0)
(0 3.38183e-19 0)
(0 -5.16928e-19 0)
(-0.02 1.56603e-16 0)
(2.10104e-16 -2.11471e-16 0)
(-6.12114e-17 6.21195e-17 0)
(9.92617e-18 -1.15924e-17 0)
(-1.65436e-18 1.10235e-18 0)
(1.65436e-18 -1.03411e-18 0)
(-1.65436e-18 4.71315e-19 0)
(0 2.36475e-19 0)
(0 -2.83974e-19 0)
(0 6.7245e-19 0)
(-1.65436e-18 1.75012e-18 0)
(1.65436e-18 1.25795e-19 0)
(0 -3.28592e-19 0)
(0 4.41139e-19 0)
(-1.65436e-18 4.65915e-19 0)
(0 -3.97484e-19 0)
(0 -2.1748e-19 0)
(0 4.84854e-19 0)
(0 9.79049e-20 0)
(0 -1.5837e-19 0)
(-0.02 1.55209e-17 0)
(1.65436e-17 -1.75445e-17 0)
(-1.65436e-18 3.41997e-18 0)
(0 -3.09461e-19 0)
(-3.30872e-18 9.05998e-19 0)
(1.65436e-18 1.66857e-19 0)
(-1.65436e-18 7.38168e-19 0)
(0 7.15506e-22 0)
(-3.30872e-18 1.04073e-18 0)
(0 3.50745e-19 0)
(3.30872e-18 -2.03962e-18 0)
(1.65436e-18 -1.37495e-18 0)
(1.65436e-18 -2.09211e-18 0)
(0 -8.16867e-19 0)
(-1.65436e-18 1.47916e-18 0)
(0 1.05617e-19 0)
(1.65436e-18 -1.08897e-18 0)
(0 -2.43955e-18 0)
(1.65436e-18 -1.53083e-19 0)
(-1.65436e-18 1.60291e-18 0)
(-0.02 -1.84441e-16 0)
(-2.44845e-16 2.46619e-16 0)
(6.94832e-17 -6.99676e-17 0)
(-1.15805e-17 1.04689e-17 0)
(3.30872e-18 -3.84278e-18 0)
(0 8.07469e-20 0)
(1.65436e-18 -1.05965e-18 0)
(0 -6.64315e-20 0)
(0 -5.4268e-20 0)
(0 -4.931e-19 0)
(0 1.06293e-19 0)
(0 4.05037e-19 0)
(-1.65436e-18 2.21174e-18 0)
(-1.65436e-18 2.15289e-18 0)
(0 -1.17748e-18 0)
(0 9.26817e-19 0)
(-1.65436e-18 4.42138e-19 0)
(1.65436e-18 2.04254e-19 0)
(0 -7.38076e-19 0)
(1.65436e-18 -2.47255e-18 0)
(-0.02 1.01617e-16 0)
(1.47238e-16 -1.4612e-16 0)
(-4.30134e-17 4.26114e-17 0)
(6.61744e-18 -6.01141e-18 0)
(-1.65436e-18 2.24213e-18 0)
(0 1.49483e-19 0)
(-1.65436e-18 6.30909e-19 0)
(-1.65436e-18 9.4114e-19 0)
(0 4.62673e-19 0)
(0 7.02025e-19 0)
(0 1.19566e-18 0)
(-1.65436e-18 1.31049e-18 0)
(0 5.18997e-19 0)
(0 -2.85092e-19 0)
(0 7.01655e-19 0)
(0 -9.05183e-20 0)
(0 3.86532e-19 0)
(0 6.41535e-19 0)
(0 6.54423e-19 0)
(-1.65436e-18 1.57775e-18 0)
)
;

boundaryField
{
    movingWall
    {
        type            extrapolatedCalculated;
        value           nonuniform List<vector> 
20
(
(-0.02 1.01617e-16 0)
(1.47238e-16 -1.4612e-16 0)
(-4.30134e-17 4.26114e-17 0)
(6.61744e-18 -6.01141e-18 0)
(-1.65436e-18 2.24213e-18 0)
(0 1.49483e-19 0)
(-1.65436e-18 6.30909e-19 0)
(-1.65436e-18 9.4114e-19 0)
(0 4.62673e-19 0)
(0 7.02025e-19 0)
(0 1.19566e-18 0)
(-1.65436e-18 1.31049e-18 0)
(0 5.18997e-19 0)
(0 -2.85092e-19 0)
(0 7.01655e-19 0)
(0 -9.05183e-20 0)
(0 3.86532e-19 0)
(0 6.41535e-19 0)
(0 6.54423e-19 0)
(-1.65436e-18 1.57775e-18 0)
)
;
    }
    fixedWalls
    {
        type            extrapolatedCalculated;
        value           nonuniform List<vector> 
60
(
(-0.02 1.07937e-16 0)
(-0.02 -2.11348e-16 0)
(-0.02 3.91288e-17 0)
(-0.02 1.63777e-16 0)
(-0.02 -1.918e-16 0)
(-0.02 1.20379e-16 0)
(-0.02 3.37904e-17 0)
(-0.02 -1.1567e-16 0)
(-0.02 8.12621e-17 0)
(-0.02 -3.40601e-18 0)
(-0.02 -5.53879e-17 0)
(-0.02 7.35871e-17 0)
(-0.02 -7.2845e-17 0)
(-0.02 4.57921e-17 0)
(-0.02 4.36806e-17 0)
(-0.02 -1.48176e-16 0)
(-0.02 1.56603e-16 0)
(-0.02 1.55209e-17 0)
(-0.02 -1.84441e-16 0)
(-0.02 1.01617e-16 0)
(0 1.73229e-19 0)
(1.65436e-18 -1.98799e-18 0)
(0 2.82802e-19 0)
(-1.65436e-18 1.39854e-18 0)
(0 4.57957e-19 0)
(-1.65436e-18 9.07545e-19 0)
(0 -1.73555e-19 0)
(0 -8.40502e-19 0)
(0 -3.37601e-19 0)
(-1.65436e-18 8.70368e-19 0)
(0 -8.68201e-19 0)
(-1.65436e-18 1.05791e-18 0)
(3.30872e-18 -1.85604e-18 0)
(-1.65436e-18 6.35645e-19 0)
(0 2.47075e-19 0)
(0 -5.16928e-19 0)
(0 -1.5837e-19 0)
(-1.65436e-18 1.60291e-18 0)
(1.65436e-18 -2.47255e-18 0)
(-1.65436e-18 1.57775e-18 0)
(-0.02 1.07937e-16 0)
(1.58819e-16 -1.58293e-16 0)
(-4.63221e-17 4.64621e-17 0)
(8.27181e-18 -7.74545e-18 0)
(-1.65436e-18 1.4021e-18 0)
(-1.65436e-18 1.65056e-18 0)
(-3.30872e-18 2.41735e-18 0)
(-1.65436e-18 1.85699e-18 0)
(-1.65436e-18 2.04007e-18 0)
(-1.65436e-18 1.85753e-18 0)
(0 -1.49825e-19 0)
(0 1.79971e-19 0)
(-1.65436e-18 1.58849e-18 0)
(-1.65436e-18 1.72429e-18 0)
(0 4.88983e-19 0)
(0 -3.92839e-19 0)
(0 -1.13661e-19 0)
(0 1.76203e-19 0)
(0 3.60227e-19 0)
(0 1.73229e-19 0)
)
;
    }
    frontAndBack
    {
        type            empty;
    }
}


// ************************************************************************* //
