/*--------------------------------*- C++ -*----------------------------------*\
| =========                 |                                                 |
| \\      /  F ield         | OpenFOAM: The Open Source CFD Toolbox           |
|  \\    /   O peration     | Version:  2312                                  |
|   \\  /    A nd           | Website:  www.openfoam.com                      |
|    \\/     M anipulation  |                                                 |
\*---------------------------------------------------------------------------*/
FoamFile
{
    version     2.0;
    format      ascii;
    arch        "LSB;label=32;scalar=64";
    class       volScalarField;
    location    "10";
    object      initialResidual:Uy;
}
// * * * * * * * * * * * * * * * * * * * * * * * * * * * * * * * * * * * * * //

dimensions      [0 0 0 0 0 0 0];

internalField   nonuniform List<scalar> 
400
(
-7.57758e-21
-9.56958e-21
-3.52909e-21
-5.13507e-21
2.09625e-21
5.46859e-21
7.03677e-22
-3.38601e-21
-3.13169e-21
-3.20893e-21
-2.30498e-21
4.35851e-21
3.9931e-21
1.23084e-21
-2.6734e-21
-1.37116e-21
-2.52091e-21
2.04061e-21
-3.09841e-21
-1.19263e-21
-5.43291e-20
-1.1312e-20
-1.65749e-20
-1.11748e-20
-2.20456e-21
1.44822e-21
3.18509e-21
1.76573e-22
3.66048e-23
-3.55239e-21
-4.21716e-21
1.23338e-22
5.17942e-22
7.42051e-21
1.00255e-20
1.38581e-21
-6.95112e-21
-4.78157e-21
-5.10383e-21
2.6404e-22
-4.0017e-20
-1.8486e-20
-1.70985e-20
-4.83329e-21
-5.4169e-21
-1.31584e-20
-1.03468e-21
5.35563e-21
3.52788e-21
-2.1649e-21
-1.32243e-21
9.07691e-22
4.00769e-21
8.50955e-21
7.39846e-21
-2.37374e-21
-4.30147e-21
-5.80517e-21
-3.17634e-21
8.54463e-22
-2.94914e-20
-1.41124e-20
-1.11589e-20
-6.63511e-21
-8.35063e-21
-6.75601e-21
-1.61087e-21
-1.04593e-21
-2.05247e-21
1.8418e-21
5.25336e-21
2.62383e-21
1.76134e-21
2.74154e-21
-1.2373e-21
-3.82108e-21
-7.5906e-22
1.3037e-21
-2.05468e-21
-9.88853e-22
-5.62301e-20
5.96375e-21
-1.28221e-20
-8.71114e-21
-1.42595e-20
-3.67468e-21
-7.24159e-21
-7.02911e-21
2.07138e-21
1.58654e-20
1.54363e-20
-1.9783e-21
-6.21705e-21
-5.04739e-21
1.20164e-21
1.52607e-21
-3.50586e-21
-7.44481e-22
4.1912e-21
5.68978e-22
-2.94723e-20
-1.35919e-20
-9.52866e-21
-5.29256e-21
-3.92615e-21
-6.28194e-21
-9.15052e-21
-6.1501e-21
5.82498e-21
1.22146e-20
1.17127e-20
2.70486e-21
-2.2471e-21
-5.49971e-21
2.4026e-21
7.0303e-21
-1.70739e-21
-2.9408e-21
8.84107e-21
1.5313e-21
-1.57705e-20
-2.60324e-20
-2.9531e-21
-3.43978e-21
2.84159e-21
-4.47016e-21
-5.87448e-21
8.11515e-22
5.56826e-21
-1.97776e-21
-1.78287e-21
6.5092e-21
7.50011e-21
6.40749e-21
9.02363e-21
8.8769e-21
6.45416e-22
-2.63801e-21
5.60125e-21
1.35806e-21
-6.52705e-20
7.94528e-21
-5.33535e-21
-1.94313e-21
-2.23508e-21
2.08472e-21
7.39336e-22
2.81946e-21
3.88529e-21
-1.1493e-21
-2.92647e-21
4.005e-21
8.44605e-21
8.27415e-21
6.14941e-21
5.85998e-21
5.50598e-21
1.75602e-21
-1.24119e-21
6.71771e-22
4.57501e-21
-1.09946e-20
-4.02518e-21
-6.86127e-21
-6.04006e-21
3.02031e-21
4.23674e-21
-2.24045e-21
2.06984e-21
1.13547e-20
8.97723e-21
-8.13897e-22
-3.74324e-22
6.97906e-21
7.57278e-23
-7.69269e-22
5.91285e-21
8.25717e-21
-1.18378e-21
-1.29724e-21
1.07285e-20
-1.75978e-20
-4.37662e-21
-3.243e-21
-3.42305e-21
-2.48562e-21
-1.00155e-21
-3.64795e-21
-5.0018e-21
6.25142e-21
9.31057e-21
9.59849e-21
7.89373e-21
6.62244e-21
-2.45177e-22
-3.80714e-21
-1.69173e-21
3.14917e-21
4.9687e-21
-2.66526e-22
-2.97849e-20
-3.32251e-23
-1.14154e-20
-9.1236e-21
-3.67794e-21
-7.29661e-22
4.63731e-21
1.78434e-21
-1.23803e-21
2.64661e-21
1.40916e-21
3.85277e-21
3.18503e-21
-4.35245e-22
-6.82473e-22
1.98427e-22
9.63341e-22
-9.0296e-22
2.31062e-21
1.53552e-21
2.4087e-20
-5.07276e-21
-2.7303e-21
-1.06977e-20
-5.30173e-21
-3.51379e-21
-9.10413e-22
6.64937e-22
2.46162e-21
-1.77024e-21
9.33173e-22
1.16474e-21
1.70804e-21
-2.61017e-21
-7.90037e-21
-7.14049e-21
1.58941e-21
6.92277e-21
6.68468e-21
1.61196e-21
-4.60414e-21
-5.52508e-21
-3.27764e-21
6.09626e-21
2.3679e-21
-1.58306e-21
-2.13358e-21
-3.50816e-21
-6.95448e-21
-9.50367e-21
-7.53062e-23
6.56602e-21
3.24538e-21
-4.74529e-21
-9.62449e-21
-3.1901e-21
7.0591e-21
5.23132e-21
2.54188e-21
6.49203e-22
-2.1397e-20
-4.8898e-21
-1.3216e-20
2.55439e-21
-1.51471e-21
-3.45095e-21
-5.37545e-21
-3.86415e-21
-2.5254e-21
-4.42554e-22
9.13976e-22
-4.18039e-21
-1.03434e-20
-6.17647e-21
-1.43129e-21
5.05468e-21
4.29943e-21
-2.57463e-21
-2.14415e-21
-1.68224e-22
1.27241e-20
-1.20406e-20
-7.45575e-21
-1.05366e-20
-6.6807e-21
-5.60415e-21
-6.94947e-21
-3.75885e-21
4.64554e-22
-8.99351e-22
-1.48343e-21
-4.12954e-21
-1.08674e-20
-4.99074e-21
5.43133e-21
3.94291e-21
-6.33391e-21
-4.27088e-21
1.47956e-21
9.88632e-22
3.21361e-21
3.8147e-23
-7.13609e-22
-9.26578e-21
-3.88284e-21
-4.82549e-21
-2.2076e-21
-3.45233e-22
-3.14479e-21
-6.17032e-21
-8.53841e-21
-3.42893e-21
-1.93246e-21
-2.81264e-21
4.24423e-21
2.55715e-21
-6.14443e-21
-3.43135e-21
-1.99717e-21
4.74269e-22
-8.10869e-21
1.46252e-21
-4.79138e-21
-9.00862e-21
-5.18073e-21
-1.31123e-21
1.38218e-21
2.08282e-21
-2.38299e-21
-2.48043e-21
-1.63172e-21
-3.64735e-21
-3.35052e-21
-5.55046e-21
-1.91016e-21
1.38394e-21
-3.45137e-21
-1.85563e-21
-7.33967e-21
-1.33597e-21
3.99665e-20
-2.49691e-20
1.99549e-22
-3.08338e-21
-5.32019e-21
-2.86262e-21
-9.24911e-22
-1.63091e-22
1.11237e-21
5.83319e-22
6.20514e-22
-3.67176e-21
-9.33162e-21
-2.92858e-21
4.04697e-21
-4.3803e-21
-5.55061e-21
6.34141e-22
-3.35576e-21
-2.02015e-21
-4.80961e-21
4.63932e-21
-4.55418e-22
-1.93668e-21
-7.65647e-21
-3.86216e-21
-5.05104e-21
-1.29283e-21
5.4545e-22
-1.59012e-21
-4.67295e-21
-2.02198e-21
-2.50007e-21
1.06627e-21
2.94447e-21
-2.13684e-21
-5.08786e-21
-6.04073e-21
5.54479e-22
4.24096e-22
-2.6676e-20
1.25865e-20
-4.27596e-21
-4.69453e-21
-5.39553e-21
8.18492e-22
-8.75525e-24
2.49192e-22
-1.6139e-22
1.92813e-22
-5.42046e-22
6.30307e-22
2.22195e-21
-1.51024e-21
-4.78465e-21
3.22734e-21
5.99445e-22
-6.63576e-21
-2.62626e-21
1.36138e-21
)
;

boundaryField
{
    movingWall
    {
        type            zeroGradient;
    }
    fixedWalls
    {
        type            zeroGradient;
    }
    frontAndBack
    {
        type            empty;
    }
}


// ************************************************************************* //
