/*--------------------------------*- C++ -*----------------------------------*\
| =========                 |                                                 |
| \\      /  F ield         | OpenFOAM: The Open Source CFD Toolbox           |
|  \\    /   O peration     | Version:  2312                                  |
|   \\  /    A nd           | Website:  www.openfoam.com                      |
|    \\/     M anipulation  |                                                 |
\*---------------------------------------------------------------------------*/
FoamFile
{
    version     2.0;
    format      ascii;
    arch        "LSB;label=32;scalar=64";
    class       volScalarField;
    location    "10";
    object      initialResidual:k;
}
// * * * * * * * * * * * * * * * * * * * * * * * * * * * * * * * * * * * * * //

dimensions      [0 0 0 0 0 0 0];

internalField   nonuniform List<scalar> 
400
(
-1.43464e-13
-1.43534e-13
-1.43426e-13
-1.43546e-13
-1.43421e-13
-1.43531e-13
-1.43448e-13
-1.43496e-13
-1.43474e-13
-1.43489e-13
-1.43477e-13
-1.43482e-13
-1.43483e-13
-1.43483e-13
-1.43483e-13
-1.43482e-13
-1.43483e-13
-1.43482e-13
-1.43483e-13
-1.43483e-13
-1.46943e-13
-1.47032e-13
-1.46941e-13
-1.46811e-13
-1.47015e-13
-1.46913e-13
-1.46977e-13
-1.46899e-13
-1.46931e-13
-1.46927e-13
-1.46918e-13
-1.46921e-13
-1.46931e-13
-1.46911e-13
-1.46937e-13
-1.46914e-13
-1.46932e-13
-1.46934e-13
-1.46909e-13
-1.46916e-13
-1.52384e-13
-1.5259e-13
-1.52292e-13
-1.5237e-13
-1.52366e-13
-1.52354e-13
-1.52424e-13
-1.52351e-13
-1.5242e-13
-1.52344e-13
-1.524e-13
-1.52383e-13
-1.52427e-13
-1.5238e-13
-1.52407e-13
-1.52375e-13
-1.52391e-13
-1.52379e-13
-1.52378e-13
-1.52378e-13
-1.58171e-13
-1.57979e-13
-1.58192e-13
-1.58019e-13
-1.58242e-13
-1.57986e-13
-1.58108e-13
-1.58115e-13
-1.58023e-13
-1.58069e-13
-1.58087e-13
-1.58072e-13
-1.58096e-13
-1.5807e-13
-1.58103e-13
-1.58076e-13
-1.58104e-13
-1.58101e-13
-1.58068e-13
-1.58073e-13
-1.62835e-13
-1.62395e-13
-1.6312e-13
-1.62804e-13
-1.62854e-13
-1.62774e-13
-1.62826e-13
-1.62767e-13
-1.6283e-13
-1.62766e-13
-1.62836e-13
-1.62775e-13
-1.62929e-13
-1.6268e-13
-1.62965e-13
-1.62648e-13
-1.62856e-13
-1.62735e-13
-1.62785e-13
-1.62787e-13
-1.66131e-13
-1.65987e-13
-1.66173e-13
-1.6669e-13
-1.65696e-13
-1.6702e-13
-1.65346e-13
-1.66759e-13
-1.65553e-13
-1.6643e-13
-1.65869e-13
-1.66278e-13
-1.65971e-13
-1.6607e-13
-1.66202e-13
-1.66114e-13
-1.66171e-13
-1.66161e-13
-1.66146e-13
-1.66134e-13
-1.68367e-13
-1.68325e-13
-1.68331e-13
-1.68226e-13
-1.68486e-13
-1.6825e-13
-1.68285e-13
-1.68276e-13
-1.68256e-13
-1.68262e-13
-1.68308e-13
-1.68275e-13
-1.68313e-13
-1.68285e-13
-1.68315e-13
-1.68287e-13
-1.68316e-13
-1.68312e-13
-1.68278e-13
-1.68283e-13
-1.69623e-13
-1.69544e-13
-1.69594e-13
-1.70173e-13
-1.69198e-13
-1.70034e-13
-1.69227e-13
-1.69804e-13
-1.69418e-13
-1.69694e-13
-1.69542e-13
-1.69657e-13
-1.69512e-13
-1.69544e-13
-1.69654e-13
-1.69575e-13
-1.69632e-13
-1.69624e-13
-1.6961e-13
-1.69598e-13
-1.70401e-13
-1.70383e-13
-1.70345e-13
-1.71237e-13
-1.69761e-13
-1.71451e-13
-1.69494e-13
-1.7106e-13
-1.69814e-13
-1.70714e-13
-1.7013e-13
-1.70573e-13
-1.70246e-13
-1.70344e-13
-1.70487e-13
-1.70399e-13
-1.70454e-13
-1.70446e-13
-1.7043e-13
-1.70417e-13
-1.71127e-13
-1.70635e-13
-1.7127e-13
-1.70955e-13
-1.71115e-13
-1.7089e-13
-1.71031e-13
-1.70991e-13
-1.70978e-13
-1.70977e-13
-1.70971e-13
-1.70989e-13
-1.70995e-13
-1.70981e-13
-1.71008e-13
-1.70985e-13
-1.71008e-13
-1.71009e-13
-1.7097e-13
-1.70979e-13
-1.71505e-13
-1.71514e-13
-1.71533e-13
-1.71366e-13
-1.71546e-13
-1.71342e-13
-1.71533e-13
-1.71435e-13
-1.71374e-13
-1.71425e-13
-1.71426e-13
-1.71417e-13
-1.71452e-13
-1.71429e-13
-1.7146e-13
-1.71431e-13
-1.71447e-13
-1.71448e-13
-1.71417e-13
-1.71427e-13
-1.71926e-13
-1.71782e-13
-1.7214e-13
-1.7177e-13
-1.7194e-13
-1.7175e-13
-1.71908e-13
-1.71826e-13
-1.7182e-13
-1.71838e-13
-1.71822e-13
-1.7187e-13
-1.71874e-13
-1.71862e-13
-1.71877e-13
-1.71845e-13
-1.7186e-13
-1.71862e-13
-1.71832e-13
-1.71842e-13
-1.72352e-13
-1.72359e-13
-1.72262e-13
-1.72197e-13
-1.72464e-13
-1.72203e-13
-1.72273e-13
-1.72281e-13
-1.72247e-13
-1.72251e-13
-1.72299e-13
-1.72271e-13
-1.72296e-13
-1.72268e-13
-1.72303e-13
-1.72274e-13
-1.72304e-13
-1.72301e-13
-1.72264e-13
-1.7227e-13
-1.72882e-13
-1.72411e-13
-1.73044e-13
-1.72697e-13
-1.72894e-13
-1.72639e-13
-1.72784e-13
-1.72766e-13
-1.72693e-13
-1.72744e-13
-1.72732e-13
-1.72738e-13
-1.72755e-13
-1.72733e-13
-1.72766e-13
-1.72738e-13
-1.72768e-13
-1.72766e-13
-1.72726e-13
-1.72734e-13
-1.733e-13
-1.72932e-13
-1.73544e-13
-1.73223e-13
-1.73393e-13
-1.73143e-13
-1.73667e-13
-1.72885e-13
-1.74022e-13
-1.72519e-13
-1.74066e-13
-1.72405e-13
-1.73978e-13
-1.72548e-13
-1.7375e-13
-1.72822e-13
-1.73416e-13
-1.73109e-13
-1.73227e-13
-1.73244e-13
-1.7385e-13
-1.73707e-13
-1.7411e-13
-1.73565e-13
-1.73941e-13
-1.73821e-13
-1.73903e-13
-1.73741e-13
-1.74012e-13
-1.73624e-13
-1.73744e-13
-1.73807e-13
-1.73813e-13
-1.73833e-13
-1.73805e-13
-1.73809e-13
-1.73807e-13
-1.73817e-13
-1.73787e-13
-1.73795e-13
-1.74444e-13
-1.74066e-13
-1.7484e-13
-1.74223e-13
-1.74497e-13
-1.7437e-13
-1.74381e-13
-1.74363e-13
-1.74398e-13
-1.74398e-13
-1.743e-13
-1.74368e-13
-1.74374e-13
-1.74362e-13
-1.74392e-13
-1.7436e-13
-1.74381e-13
-1.74382e-13
-1.7435e-13
-1.7436e-13
-1.7494e-13
-1.74495e-13
-1.75288e-13
-1.74873e-13
-1.7496e-13
-1.74883e-13
-1.74941e-13
-1.74874e-13
-1.74958e-13
-1.74859e-13
-1.75092e-13
-1.74693e-13
-1.75203e-13
-1.74608e-13
-1.75112e-13
-1.7469e-13
-1.74962e-13
-1.7482e-13
-1.74881e-13
-1.74885e-13
-1.75344e-13
-1.74837e-13
-1.75636e-13
-1.75302e-13
-1.75364e-13
-1.75297e-13
-1.7536e-13
-1.75285e-13
-1.75367e-13
-1.75287e-13
-1.75541e-13
-1.75058e-13
-1.75737e-13
-1.74929e-13
-1.75589e-13
-1.75052e-13
-1.75382e-13
-1.75232e-13
-1.75296e-13
-1.75299e-13
-1.75521e-13
-1.75545e-13
-1.75504e-13
-1.75571e-13
-1.7547e-13
-1.75615e-13
-1.75426e-13
-1.75633e-13
-1.75433e-13
-1.75607e-13
-1.75473e-13
-1.75556e-13
-1.75517e-13
-1.75528e-13
-1.75532e-13
-1.75527e-13
-1.75529e-13
-1.75528e-13
-1.75528e-13
-1.75528e-13
)
;

boundaryField
{
    movingWall
    {
        type            zeroGradient;
    }
    fixedWalls
    {
        type            zeroGradient;
    }
    frontAndBack
    {
        type            empty;
    }
}


// ************************************************************************* //
