/*--------------------------------*- C++ -*----------------------------------*\
| =========                 |                                                 |
| \\      /  F ield         | OpenFOAM: The Open Source CFD Toolbox           |
|  \\    /   O peration     | Version:  2312                                  |
|   \\  /    A nd           | Website:  www.openfoam.com                      |
|    \\/     M anipulation  |                                                 |
\*---------------------------------------------------------------------------*/
FoamFile
{
    version     2.0;
    format      ascii;
    arch        "LSB;label=32;scalar=64";
    class       volScalarField;
    location    "10";
    object      initialResidual:epsilon;
}
// * * * * * * * * * * * * * * * * * * * * * * * * * * * * * * * * * * * * * //

dimensions      [0 0 0 0 0 0 0];

internalField   nonuniform List<scalar> 
400
(
0
0
0
0
0
0
0
0
0
0
0
0
0
0
0
0
0
0
0
0
0
-5.45197e-14
-5.42698e-14
-5.43659e-14
-5.44516e-14
-5.4422e-14
-5.45372e-14
-5.44817e-14
-5.46171e-14
-5.45517e-14
-5.46856e-14
-5.46356e-14
-5.47436e-14
-5.47298e-14
-5.47976e-14
-5.4828e-14
-5.48533e-14
-5.49272e-14
-1.09796e-13
0
0
-5.69627e-14
-5.66435e-14
-5.6769e-14
-5.68631e-14
-5.68468e-14
-5.69516e-14
-5.69118e-14
-5.70255e-14
-5.69767e-14
-5.71088e-14
-5.7062e-14
-5.71905e-14
-5.71352e-14
-5.72606e-14
-5.7251e-14
-5.73051e-14
-5.73718e-14
-1.14802e-13
0
0
-5.96646e-14
-5.93501e-14
-5.94753e-14
-5.9578e-14
-5.95572e-14
-5.96589e-14
-5.96348e-14
-5.97428e-14
-5.96938e-14
-5.98347e-14
-5.97872e-14
-5.99191e-14
-5.98569e-14
-5.99991e-14
-5.99811e-14
-6.00438e-14
-6.01111e-14
-1.20283e-13
0
0
-6.19837e-14
-6.16506e-14
-6.1783e-14
-6.18913e-14
-6.18694e-14
-6.19757e-14
-6.19506e-14
-6.20636e-14
-6.20143e-14
-6.21597e-14
-6.21096e-14
-6.22489e-14
-6.21843e-14
-6.23324e-14
-6.23138e-14
-6.23797e-14
-6.24497e-14
-1.24963e-13
0
0
-6.36852e-14
-6.33363e-14
-6.34758e-14
-6.35882e-14
-6.35632e-14
-6.36757e-14
-6.365e-14
-6.37657e-14
-6.37153e-14
-6.38654e-14
-6.38141e-14
-6.39576e-14
-6.38909e-14
-6.40443e-14
-6.40249e-14
-6.40933e-14
-6.41655e-14
-1.28396e-13
0
0
-6.48108e-14
-6.44567e-14
-6.45993e-14
-6.47136e-14
-6.46878e-14
-6.48031e-14
-6.47773e-14
-6.48948e-14
-6.4843e-14
-6.49969e-14
-6.49454e-14
-6.5091e-14
-6.50234e-14
-6.51799e-14
-6.51605e-14
-6.523e-14
-6.53042e-14
-1.30674e-13
0
0
-6.55236e-14
-6.51609e-14
-6.53073e-14
-6.5423e-14
-6.53948e-14
-6.55147e-14
-6.54887e-14
-6.56064e-14
-6.55547e-14
-6.57104e-14
-6.56583e-14
-6.5806e-14
-6.57371e-14
-6.58962e-14
-6.58763e-14
-6.59471e-14
-6.6022e-14
-1.32111e-13
0
0
-6.59764e-14
-6.56092e-14
-6.57572e-14
-6.58741e-14
-6.58449e-14
-6.59672e-14
-6.59411e-14
-6.60591e-14
-6.60069e-14
-6.61643e-14
-6.61116e-14
-6.62609e-14
-6.61913e-14
-6.63515e-14
-6.63319e-14
-6.64029e-14
-6.64788e-14
-1.33025e-13
0
0
-6.62869e-14
-6.59192e-14
-6.60671e-14
-6.61844e-14
-6.61557e-14
-6.62783e-14
-6.62528e-14
-6.63707e-14
-6.63176e-14
-6.64768e-14
-6.64235e-14
-6.65739e-14
-6.65047e-14
-6.66645e-14
-6.66458e-14
-6.67166e-14
-6.67932e-14
-1.33655e-13
0
0
-6.65324e-14
-6.61638e-14
-6.63109e-14
-6.64289e-14
-6.63998e-14
-6.65241e-14
-6.64989e-14
-6.66161e-14
-6.65634e-14
-6.6723e-14
-6.66697e-14
-6.68206e-14
-6.6751e-14
-6.69118e-14
-6.68929e-14
-6.6964e-14
-6.70412e-14
-1.34151e-13
0
0
-6.67536e-14
-6.63862e-14
-6.65346e-14
-6.66519e-14
-6.66214e-14
-6.67477e-14
-6.67218e-14
-6.68396e-14
-6.67871e-14
-6.69469e-14
-6.68939e-14
-6.70451e-14
-6.69754e-14
-6.71368e-14
-6.71177e-14
-6.71892e-14
-6.72666e-14
-1.34602e-13
0
0
-6.69785e-14
-6.66108e-14
-6.67592e-14
-6.68776e-14
-6.68478e-14
-6.69732e-14
-6.69475e-14
-6.70663e-14
-6.70123e-14
-6.71741e-14
-6.71198e-14
-6.72725e-14
-6.72029e-14
-6.73637e-14
-6.73456e-14
-6.74168e-14
-6.74948e-14
-1.35058e-13
0
0
-6.72238e-14
-6.68497e-14
-6.69994e-14
-6.71186e-14
-6.70879e-14
-6.72159e-14
-6.71897e-14
-6.73084e-14
-6.72546e-14
-6.74166e-14
-6.73624e-14
-6.75156e-14
-6.74463e-14
-6.76069e-14
-6.75895e-14
-6.76605e-14
-6.77391e-14
-1.35547e-13
0
0
-6.74879e-14
-6.71111e-14
-6.72621e-14
-6.73815e-14
-6.73496e-14
-6.748e-14
-6.74523e-14
-6.75722e-14
-6.75199e-14
-6.76802e-14
-6.76274e-14
-6.77801e-14
-6.77111e-14
-6.78723e-14
-6.78549e-14
-6.79262e-14
-6.80051e-14
-1.36079e-13
0
0
-6.77679e-14
-6.73928e-14
-6.75436e-14
-6.7663e-14
-6.76312e-14
-6.77622e-14
-6.77346e-14
-6.78548e-14
-6.78019e-14
-6.79636e-14
-6.79103e-14
-6.80638e-14
-6.79942e-14
-6.81569e-14
-6.81386e-14
-6.82109e-14
-6.82898e-14
-1.36649e-13
0
0
-6.80554e-14
-6.76777e-14
-6.78288e-14
-6.79493e-14
-6.79178e-14
-6.80489e-14
-6.80211e-14
-6.81423e-14
-6.8089e-14
-6.82515e-14
-6.81979e-14
-6.83523e-14
-6.82821e-14
-6.84457e-14
-6.84275e-14
-6.85e-14
-6.85795e-14
-1.37229e-13
0
0
-6.83284e-14
-6.79342e-14
-6.80936e-14
-6.82089e-14
-6.81926e-14
-6.83204e-14
-6.82651e-14
-6.84131e-14
-6.83634e-14
-6.85167e-14
-6.84544e-14
-6.86219e-14
-6.8555e-14
-6.8706e-14
-6.86991e-14
-6.87641e-14
-6.88482e-14
-1.37764e-13
0
0
-6.87213e-14
-6.82783e-14
-6.84603e-14
-6.85829e-14
-6.85512e-14
-6.86886e-14
-6.86234e-14
-6.87926e-14
-6.87003e-14
-6.88865e-14
-6.88014e-14
-6.89944e-14
-6.89037e-14
-6.90672e-14
-6.90571e-14
-6.91176e-14
-6.92143e-14
-1.38331e-13
0
0
0
0
0
0
0
0
0
0
0
0
0
0
0
0
0
0
0
0
0
)
;

boundaryField
{
    movingWall
    {
        type            zeroGradient;
    }
    fixedWalls
    {
        type            zeroGradient;
    }
    frontAndBack
    {
        type            empty;
    }
}


// ************************************************************************* //
