/*--------------------------------*- C++ -*----------------------------------*\
| =========                 |                                                 |
| \\      /  F ield         | OpenFOAM: The Open Source CFD Toolbox           |
|  \\    /   O peration     | Version:  2312                                  |
|   \\  /    A nd           | Website:  www.openfoam.com                      |
|    \\/     M anipulation  |                                                 |
\*---------------------------------------------------------------------------*/
FoamFile
{
    version     2.0;
    format      ascii;
    arch        "LSB;label=32;scalar=64";
    class       volScalarField;
    location    "10";
    object      initialResidual:p;
}
// * * * * * * * * * * * * * * * * * * * * * * * * * * * * * * * * * * * * * //

dimensions      [0 0 0 0 0 0 0];

internalField   nonuniform List<scalar> 
400
(
-1.15197e-19
3.10735e-20
5.90629e-21
-1.13315e-20
7.35844e-22
-3.84599e-21
2.13164e-20
-8.79479e-21
-9.5585e-21
1.20897e-20
1.26995e-20
1.70362e-21
-4.23787e-21
1.05332e-20
-2.15524e-22
1.29052e-20
-2.47423e-20
-1.49469e-20
-2.3045e-21
1.35525e-20
-2.71048e-20
-7.09969e-21
2.50742e-21
2.9626e-22
-1.78875e-20
-3.48514e-21
7.83418e-21
-5.4001e-21
7.51458e-21
4.71229e-21
6.76285e-21
1.03563e-20
1.07133e-20
-2.29015e-21
4.98186e-21
-2.32699e-20
2.40839e-21
9.31004e-21
-2.18762e-21
6.77629e-21
-3.38815e-20
1.2978e-21
1.65157e-20
9.69323e-21
-1.69927e-20
-4.46987e-21
1.25113e-20
2.22622e-21
1.15819e-21
2.1459e-20
7.82929e-21
-5.8041e-21
-1.00951e-20
4.07338e-21
-8.08711e-22
1.04783e-20
-2.2244e-21
-8.15281e-21
5.76596e-21
8.75123e-27
-1.35525e-20
1.22945e-20
3.13467e-20
-9.16644e-21
-1.57098e-20
2.36085e-21
1.27793e-20
-1.60768e-21
2.70618e-21
-6.77822e-21
1.24604e-20
1.41369e-20
-2.76415e-21
-2.15652e-20
4.1681e-22
1.30043e-20
6.11876e-21
1.44278e-23
-6.79771e-21
2.83991e-26
-1.35527e-20
-1.14327e-20
4.70441e-21
-1.27646e-20
-1.66089e-21
3.09104e-21
8.36374e-21
1.45915e-20
5.6517e-23
3.45094e-21
1.3725e-21
-2.26303e-21
1.79449e-20
-2.57244e-21
-1.33958e-20
1.07233e-21
3.26129e-20
-1.25301e-20
-2.82368e-21
6.77627e-21
-1.35525e-20
-7.60292e-21
1.37518e-21
-4.5812e-21
3.31253e-20
-1.23079e-20
4.2896e-21
1.45373e-20
-1.01578e-21
5.06027e-21
-1.78825e-20
1.13574e-20
2.4022e-21
2.55611e-21
5.4529e-21
-2.29072e-21
3.28984e-22
2.10115e-20
-2.77152e-21
-6.77624e-21
-1.81834e-25
1.38591e-21
-3.27049e-21
1.28862e-20
-6.53413e-21
1.38667e-20
4.94021e-21
1.7552e-21
-3.95501e-21
-6.99638e-21
1.36166e-21
5.56613e-21
8.56756e-21
7.90962e-21
-1.3264e-20
-1.69828e-21
8.46036e-21
5.78452e-21
8.37408e-21
-6.77627e-21
6.77638e-21
1.03631e-20
3.69989e-21
4.37015e-21
-8.17319e-21
2.35179e-21
4.58195e-21
2.98186e-21
-3.52984e-21
-3.35465e-21
-1.0579e-20
3.71938e-20
-1.58527e-20
-2.0826e-21
-1.14178e-20
-1.07964e-20
-1.80157e-21
1.78049e-20
-8.70917e-21
1.35525e-20
-6.77649e-21
6.47202e-21
1.03413e-20
2.1408e-21
-2.36742e-21
7.16938e-21
-1.36873e-20
-7.27765e-21
-3.11695e-21
9.75342e-21
8.78738e-21
3.70313e-21
1.12897e-21
3.98934e-21
-1.31256e-20
-6.6991e-21
-1.21993e-20
-1.02345e-20
1.57321e-20
1.35525e-20
-6.77622e-21
1.69661e-20
-2.05847e-20
1.76568e-20
-2.88004e-20
1.36219e-20
-1.29777e-20
7.09465e-21
-7.3641e-21
-4.10538e-21
2.93953e-21
-7.08532e-21
1.99016e-20
-1.28333e-20
-6.92905e-21
-1.3556e-20
1.69454e-21
1.34303e-20
-5.42048e-21
4.56965e-27
2.03287e-20
-9.34002e-21
7.41354e-21
-2.45966e-23
1.08989e-20
-1.50605e-20
2.1256e-21
-5.95148e-21
8.61002e-21
-4.5284e-21
2.96522e-21
-7.22936e-21
-8.32815e-21
-1.33324e-21
-9.81257e-21
-1.23462e-21
-5.50122e-21
2.43585e-20
2.24464e-21
-6.77628e-21
-1.06522e-25
-1.06075e-20
-1.1068e-21
4.33435e-21
-8.89916e-21
1.93328e-20
-2.92475e-21
-2.52779e-21
-9.16096e-21
-2.95043e-21
-1.39917e-20
2.61316e-21
7.34632e-21
-1.14857e-20
-1.7202e-20
-5.68844e-22
1.05098e-20
1.0494e-20
-2.84598e-21
1.35525e-20
-1.35526e-20
1.99121e-21
-1.20055e-20
9.06742e-21
-6.68726e-21
-3.58984e-21
1.19836e-20
4.13375e-21
-4.22986e-21
4.25411e-21
7.26098e-21
5.40505e-21
-2.38231e-20
3.35368e-21
-3.35435e-21
2.12366e-21
-2.24931e-21
-4.74369e-21
5.56156e-21
-1.35526e-20
-1.03622e-25
5.24472e-21
1.32072e-20
-3.81959e-21
-2.57689e-20
-3.82168e-21
4.87774e-22
-3.11696e-21
-8.04933e-21
4.27198e-21
-2.33401e-20
1.53618e-20
-1.09786e-21
4.72769e-21
-1.10946e-20
8.2231e-21
5.19777e-21
-1.67111e-20
-5.70477e-21
1.35525e-20
6.77613e-21
9.22952e-22
-5.8004e-21
-1.55624e-20
2.32235e-21
8.33595e-21
-9.75795e-21
-9.744e-21
4.2516e-21
1.05866e-20
-4.14302e-21
-1.78734e-20
3.10946e-20
5.74538e-21
2.59667e-21
-1.33626e-20
-1.77127e-20
1.91244e-20
-2.1325e-20
1.35525e-20
1.35525e-20
-1.4743e-20
1.67641e-20
8.79902e-21
-2.89553e-21
1.19976e-20
5.2655e-21
6.20875e-21
-2.77593e-21
-3.88639e-21
-5.06759e-21
3.73533e-21
4.42567e-21
5.04134e-21
6.39216e-21
-2.8237e-20
9.51514e-21
-9.95545e-21
-1.16433e-21
6.77625e-21
2.03286e-20
-7.94766e-21
-1.07205e-20
-6.16782e-21
2.83158e-21
5.97275e-21
8.24728e-21
-7.03853e-21
-9.29019e-21
-3.1932e-21
5.74008e-21
3.15569e-21
2.36482e-21
-1.90927e-21
-9.69336e-22
1.0881e-20
-1.64367e-20
5.81964e-21
-1.16538e-20
-2.11645e-26
-3.38814e-20
6.65925e-22
4.76986e-21
4.73559e-21
9.84163e-21
1.05415e-20
-2.26115e-21
-1.73954e-22
7.86761e-21
-1.59208e-22
-2.99893e-21
3.6791e-21
1.00577e-20
-1.57391e-20
-1.19159e-20
-9.92619e-21
8.72188e-21
-2.12293e-21
1.45304e-20
6.77624e-21
-6.77627e-21
9.89675e-21
3.97357e-21
-1.13915e-20
-5.18407e-21
-1.60301e-21
4.76691e-21
-9.29262e-22
-1.49145e-20
5.37183e-21
-1.65402e-21
-5.87208e-22
1.99113e-23
2.12791e-20
-2.41951e-21
5.68888e-21
5.36128e-21
-4.34192e-21
-1.87569e-21
-1.98416e-26
-6.77636e-21
6.77629e-21
6.77623e-21
6.77624e-21
2.03288e-20
6.77624e-21
-6.77629e-21
-2.17934e-26
-6.77628e-21
-2.09208e-26
6.77624e-21
-2.02589e-26
6.77624e-21
-1.97985e-26
6.77625e-21
-1.75755e-26
6.77625e-21
2.03288e-20
-1.98424e-26
-1.35525e-20
)
;

boundaryField
{
    movingWall
    {
        type            zeroGradient;
    }
    fixedWalls
    {
        type            zeroGradient;
    }
    frontAndBack
    {
        type            empty;
    }
}


// ************************************************************************* //
