/*--------------------------------*- C++ -*----------------------------------*\
| =========                 |                                                 |
| \\      /  F ield         | OpenFOAM: The Open Source CFD Toolbox           |
|  \\    /   O peration     | Version:  2312                                  |
|   \\  /    A nd           | Website:  www.openfoam.com                      |
|    \\/     M anipulation  |                                                 |
\*---------------------------------------------------------------------------*/
FoamFile
{
    version     2.0;
    format      ascii;
    arch        "LSB;label=32;scalar=64";
    class       volScalarField;
    location    "10";
    object      k;
}
// * * * * * * * * * * * * * * * * * * * * * * * * * * * * * * * * * * * * * //

dimensions      [0 2 -2 0 0 0 0];

internalField   nonuniform List<scalar> 
400
(
2.36859e-06
2.36859e-06
2.36859e-06
2.36859e-06
2.36859e-06
2.36859e-06
2.36859e-06
2.36859e-06
2.36859e-06
2.36859e-06
2.36859e-06
2.36858e-06
2.36858e-06
2.36858e-06
2.36858e-06
2.36858e-06
2.36858e-06
2.36858e-06
2.36858e-06
2.36858e-06
2.39524e-06
2.39524e-06
2.39519e-06
2.39518e-06
2.39515e-06
2.39513e-06
2.39511e-06
2.39509e-06
2.39507e-06
2.39506e-06
2.39504e-06
2.39504e-06
2.39502e-06
2.39502e-06
2.395e-06
2.395e-06
2.39499e-06
2.39499e-06
2.39499e-06
2.39499e-06
2.43908e-06
2.43908e-06
2.43903e-06
2.43902e-06
2.43898e-06
2.43897e-06
2.43894e-06
2.43893e-06
2.4389e-06
2.4389e-06
2.43887e-06
2.43887e-06
2.43885e-06
2.43884e-06
2.43883e-06
2.43883e-06
2.43882e-06
2.43882e-06
2.43882e-06
2.43882e-06
2.48791e-06
2.48791e-06
2.48786e-06
2.48784e-06
2.48781e-06
2.48779e-06
2.48777e-06
2.48775e-06
2.48773e-06
2.48771e-06
2.48769e-06
2.48769e-06
2.48767e-06
2.48766e-06
2.48765e-06
2.48765e-06
2.48764e-06
2.48764e-06
2.48763e-06
2.48763e-06
2.53186e-06
2.53187e-06
2.53181e-06
2.5318e-06
2.53176e-06
2.53175e-06
2.53171e-06
2.53171e-06
2.53167e-06
2.53167e-06
2.53164e-06
2.53163e-06
2.53162e-06
2.53161e-06
2.5316e-06
2.53159e-06
2.53159e-06
2.53158e-06
2.53158e-06
2.53158e-06
2.56623e-06
2.56623e-06
2.56617e-06
2.56615e-06
2.56612e-06
2.5661e-06
2.56608e-06
2.56605e-06
2.56603e-06
2.56602e-06
2.566e-06
2.56599e-06
2.56597e-06
2.56596e-06
2.56595e-06
2.56595e-06
2.56594e-06
2.56594e-06
2.56593e-06
2.56593e-06
2.59062e-06
2.59062e-06
2.59057e-06
2.59055e-06
2.59051e-06
2.59049e-06
2.59046e-06
2.59045e-06
2.59042e-06
2.59041e-06
2.59039e-06
2.59038e-06
2.59036e-06
2.59036e-06
2.59034e-06
2.59034e-06
2.59033e-06
2.59033e-06
2.59032e-06
2.59032e-06
2.60699e-06
2.60699e-06
2.60693e-06
2.60691e-06
2.60688e-06
2.60686e-06
2.60683e-06
2.60681e-06
2.60679e-06
2.60677e-06
2.60675e-06
2.60674e-06
2.60672e-06
2.60672e-06
2.6067e-06
2.6067e-06
2.60669e-06
2.60669e-06
2.60669e-06
2.60668e-06
2.61783e-06
2.61783e-06
2.61778e-06
2.61776e-06
2.61773e-06
2.6177e-06
2.61768e-06
2.61766e-06
2.61763e-06
2.61762e-06
2.6176e-06
2.61758e-06
2.61757e-06
2.61756e-06
2.61755e-06
2.61754e-06
2.61754e-06
2.61753e-06
2.61753e-06
2.61753e-06
2.62533e-06
2.62533e-06
2.62527e-06
2.62526e-06
2.62522e-06
2.6252e-06
2.62517e-06
2.62515e-06
2.62513e-06
2.62512e-06
2.62509e-06
2.62509e-06
2.62507e-06
2.62506e-06
2.62504e-06
2.62504e-06
2.62503e-06
2.62503e-06
2.62503e-06
2.62503e-06
2.63104e-06
2.63104e-06
2.63099e-06
2.63097e-06
2.63093e-06
2.63091e-06
2.63088e-06
2.63086e-06
2.63084e-06
2.63083e-06
2.6308e-06
2.63079e-06
2.63077e-06
2.63077e-06
2.63075e-06
2.63075e-06
2.63074e-06
2.63074e-06
2.63074e-06
2.63074e-06
2.63597e-06
2.63596e-06
2.63591e-06
2.63589e-06
2.63585e-06
2.63583e-06
2.6358e-06
2.63578e-06
2.63576e-06
2.63575e-06
2.63573e-06
2.63572e-06
2.6357e-06
2.63569e-06
2.63567e-06
2.63567e-06
2.63566e-06
2.63566e-06
2.63566e-06
2.63566e-06
2.6407e-06
2.6407e-06
2.64064e-06
2.64062e-06
2.64058e-06
2.64057e-06
2.64054e-06
2.64052e-06
2.64049e-06
2.64048e-06
2.64046e-06
2.64045e-06
2.64043e-06
2.64042e-06
2.64041e-06
2.64041e-06
2.64039e-06
2.64039e-06
2.64039e-06
2.64039e-06
2.64557e-06
2.64557e-06
2.64551e-06
2.6455e-06
2.64546e-06
2.64544e-06
2.64541e-06
2.64539e-06
2.64536e-06
2.64535e-06
2.64533e-06
2.64532e-06
2.6453e-06
2.64529e-06
2.64528e-06
2.64527e-06
2.64526e-06
2.64526e-06
2.64526e-06
2.64526e-06
2.6507e-06
2.6507e-06
2.65064e-06
2.65062e-06
2.65058e-06
2.65056e-06
2.65053e-06
2.65051e-06
2.65049e-06
2.65047e-06
2.65045e-06
2.65044e-06
2.65043e-06
2.65041e-06
2.65041e-06
2.6504e-06
2.65039e-06
2.65039e-06
2.65039e-06
2.65038e-06
2.65601e-06
2.65601e-06
2.65595e-06
2.65594e-06
2.6559e-06
2.65588e-06
2.65585e-06
2.65583e-06
2.65581e-06
2.65579e-06
2.65577e-06
2.65576e-06
2.65574e-06
2.65573e-06
2.65572e-06
2.65571e-06
2.6557e-06
2.6557e-06
2.6557e-06
2.6557e-06
2.66125e-06
2.66125e-06
2.66119e-06
2.66118e-06
2.66114e-06
2.66111e-06
2.66109e-06
2.66107e-06
2.66104e-06
2.66103e-06
2.66101e-06
2.661e-06
2.66098e-06
2.66097e-06
2.66095e-06
2.66095e-06
2.66094e-06
2.66094e-06
2.66094e-06
2.66094e-06
2.66596e-06
2.66596e-06
2.66589e-06
2.66589e-06
2.66584e-06
2.66583e-06
2.66579e-06
2.66578e-06
2.66575e-06
2.66573e-06
2.66571e-06
2.6657e-06
2.66568e-06
2.66567e-06
2.66566e-06
2.66566e-06
2.66565e-06
2.66565e-06
2.66564e-06
2.66564e-06
2.66955e-06
2.66956e-06
2.6695e-06
2.66948e-06
2.66944e-06
2.66943e-06
2.66939e-06
2.66938e-06
2.66935e-06
2.66934e-06
2.66931e-06
2.6693e-06
2.66929e-06
2.66928e-06
2.66927e-06
2.66926e-06
2.66925e-06
2.66925e-06
2.66925e-06
2.66925e-06
2.67122e-06
2.67121e-06
2.67121e-06
2.67121e-06
2.67121e-06
2.67121e-06
2.67121e-06
2.67121e-06
2.67121e-06
2.67121e-06
2.67121e-06
2.67121e-06
2.67121e-06
2.67121e-06
2.67121e-06
2.67121e-06
2.67121e-06
2.67121e-06
2.67121e-06
2.67121e-06
)
;

boundaryField
{
    movingWall
    {
        type            kqRWallFunction;
        value           nonuniform List<scalar> 
20
(
2.67122e-06
2.67121e-06
2.67121e-06
2.67121e-06
2.67121e-06
2.67121e-06
2.67121e-06
2.67121e-06
2.67121e-06
2.67121e-06
2.67121e-06
2.67121e-06
2.67121e-06
2.67121e-06
2.67121e-06
2.67121e-06
2.67121e-06
2.67121e-06
2.67121e-06
2.67121e-06
)
;
    }
    fixedWalls
    {
        type            kqRWallFunction;
        value           nonuniform List<scalar> 
60
(
2.36859e-06
2.39524e-06
2.43908e-06
2.48791e-06
2.53186e-06
2.56623e-06
2.59062e-06
2.60699e-06
2.61783e-06
2.62533e-06
2.63104e-06
2.63597e-06
2.6407e-06
2.64557e-06
2.6507e-06
2.65601e-06
2.66125e-06
2.66596e-06
2.66955e-06
2.67122e-06
2.36858e-06
2.39499e-06
2.43882e-06
2.48763e-06
2.53158e-06
2.56593e-06
2.59032e-06
2.60668e-06
2.61753e-06
2.62503e-06
2.63074e-06
2.63566e-06
2.64039e-06
2.64526e-06
2.65038e-06
2.6557e-06
2.66094e-06
2.66564e-06
2.66925e-06
2.67121e-06
2.36859e-06
2.36859e-06
2.36859e-06
2.36859e-06
2.36859e-06
2.36859e-06
2.36859e-06
2.36859e-06
2.36859e-06
2.36859e-06
2.36859e-06
2.36858e-06
2.36858e-06
2.36858e-06
2.36858e-06
2.36858e-06
2.36858e-06
2.36858e-06
2.36858e-06
2.36858e-06
)
;
    }
    frontAndBack
    {
        type            empty;
    }
}


// ************************************************************************* //
