/*--------------------------------*- C++ -*----------------------------------*\
| =========                 |                                                 |
| \\      /  F ield         | OpenFOAM: The Open Source CFD Toolbox           |
|  \\    /   O peration     | Version:  2312                                  |
|   \\  /    A nd           | Website:  www.openfoam.com                      |
|    \\/     M anipulation  |                                                 |
\*---------------------------------------------------------------------------*/
FoamFile
{
    version     2.0;
    format      ascii;
    arch        "LSB;label=32;scalar=64";
    class       volScalarField;
    location    "10";
    object      k2;
}
// * * * * * * * * * * * * * * * * * * * * * * * * * * * * * * * * * * * * * //

dimensions      [0 4 -4 0 0 0 0];

internalField   nonuniform List<scalar> 
400
(
5.617e-12
5.617e-12
5.61699e-12
5.617e-12
5.61699e-12
5.61699e-12
5.61699e-12
5.61699e-12
5.61699e-12
5.61699e-12
5.61698e-12
5.61698e-12
5.61698e-12
5.61698e-12
5.61698e-12
5.61698e-12
5.61698e-12
5.61698e-12
5.61698e-12
5.61698e-12
5.7442e-12
5.7442e-12
5.74398e-12
5.74391e-12
5.74377e-12
5.74369e-12
5.74358e-12
5.7435e-12
5.74341e-12
5.74335e-12
5.74327e-12
5.74323e-12
5.74316e-12
5.74313e-12
5.74308e-12
5.74306e-12
5.74303e-12
5.74302e-12
5.74301e-12
5.743e-12
5.95653e-12
5.95653e-12
5.9563e-12
5.95622e-12
5.95607e-12
5.956e-12
5.95585e-12
5.9558e-12
5.95568e-12
5.95563e-12
5.95553e-12
5.95549e-12
5.95541e-12
5.95538e-12
5.95533e-12
5.95531e-12
5.95527e-12
5.95526e-12
5.95525e-12
5.95525e-12
6.19755e-12
6.19754e-12
6.1973e-12
6.19721e-12
6.19705e-12
6.19695e-12
6.19685e-12
6.19673e-12
6.19665e-12
6.19657e-12
6.19649e-12
6.19643e-12
6.19636e-12
6.19632e-12
6.19627e-12
6.19624e-12
6.19621e-12
6.1962e-12
6.19618e-12
6.19618e-12
6.41857e-12
6.41858e-12
6.41831e-12
6.41824e-12
6.41805e-12
6.41797e-12
6.41781e-12
6.41775e-12
6.41762e-12
6.41756e-12
6.41746e-12
6.4174e-12
6.41733e-12
6.41727e-12
6.41724e-12
6.41719e-12
6.41717e-12
6.41715e-12
6.41714e-12
6.41714e-12
6.59403e-12
6.59403e-12
6.59377e-12
6.59367e-12
6.59349e-12
6.5934e-12
6.59324e-12
6.59317e-12
6.59303e-12
6.59297e-12
6.59286e-12
6.59281e-12
6.59273e-12
6.59269e-12
6.59263e-12
6.5926e-12
6.59257e-12
6.59255e-12
6.59253e-12
6.59253e-12
6.72003e-12
6.72002e-12
6.71975e-12
6.71965e-12
6.71946e-12
6.71935e-12
6.71922e-12
6.71912e-12
6.719e-12
6.71893e-12
6.71882e-12
6.71877e-12
6.71868e-12
6.71864e-12
6.71858e-12
6.71855e-12
6.71851e-12
6.7185e-12
6.71848e-12
6.71848e-12
6.80521e-12
6.80521e-12
6.80494e-12
6.80483e-12
6.80463e-12
6.80454e-12
6.80438e-12
6.8043e-12
6.80416e-12
6.80409e-12
6.80398e-12
6.80392e-12
6.80384e-12
6.8038e-12
6.80373e-12
6.80371e-12
6.80367e-12
6.80365e-12
6.80364e-12
6.80363e-12
6.86196e-12
6.86196e-12
6.86169e-12
6.86158e-12
6.86138e-12
6.86129e-12
6.86111e-12
6.86105e-12
6.8609e-12
6.86084e-12
6.86072e-12
6.86067e-12
6.86058e-12
6.86054e-12
6.86047e-12
6.86044e-12
6.86041e-12
6.86039e-12
6.86037e-12
6.86037e-12
6.90134e-12
6.90133e-12
6.90105e-12
6.90095e-12
6.90076e-12
6.90064e-12
6.90051e-12
6.90039e-12
6.90028e-12
6.90019e-12
6.9001e-12
6.90003e-12
6.89994e-12
6.8999e-12
6.89983e-12
6.89981e-12
6.89976e-12
6.89975e-12
6.89974e-12
6.89973e-12
6.9314e-12
6.93139e-12
6.9311e-12
6.93099e-12
6.9308e-12
6.93069e-12
6.93055e-12
6.93043e-12
6.93033e-12
6.93024e-12
6.93014e-12
6.93008e-12
6.92999e-12
6.92995e-12
6.92988e-12
6.92985e-12
6.92981e-12
6.9298e-12
6.92978e-12
6.92978e-12
6.95737e-12
6.95736e-12
6.95706e-12
6.95695e-12
6.95677e-12
6.95665e-12
6.95652e-12
6.95639e-12
6.95629e-12
6.9562e-12
6.9561e-12
6.95603e-12
6.95595e-12
6.9559e-12
6.95583e-12
6.95581e-12
6.95576e-12
6.95575e-12
6.95574e-12
6.95573e-12
6.98238e-12
6.98237e-12
6.98209e-12
6.98198e-12
6.98178e-12
6.98167e-12
6.98153e-12
6.98142e-12
6.9813e-12
6.98122e-12
6.98111e-12
6.98105e-12
6.98096e-12
6.98092e-12
6.98085e-12
6.98082e-12
6.98078e-12
6.98076e-12
6.98075e-12
6.98074e-12
7.00817e-12
7.00815e-12
7.00787e-12
7.00776e-12
7.00757e-12
7.00745e-12
7.00732e-12
7.00719e-12
7.00709e-12
7.00699e-12
7.00689e-12
7.00683e-12
7.00673e-12
7.0067e-12
7.00662e-12
7.0066e-12
7.00655e-12
7.00654e-12
7.00652e-12
7.00652e-12
7.03537e-12
7.03537e-12
7.03507e-12
7.03497e-12
7.03477e-12
7.03465e-12
7.03452e-12
7.03438e-12
7.03429e-12
7.03416e-12
7.0341e-12
7.03398e-12
7.03396e-12
7.03385e-12
7.03384e-12
7.03376e-12
7.03376e-12
7.03372e-12
7.03372e-12
7.03371e-12
7.06363e-12
7.06363e-12
7.06332e-12
7.06322e-12
7.06305e-12
7.06289e-12
7.06277e-12
7.06263e-12
7.06254e-12
7.06242e-12
7.06234e-12
7.06226e-12
7.06219e-12
7.06213e-12
7.06207e-12
7.06203e-12
7.06199e-12
7.06198e-12
7.06196e-12
7.06196e-12
7.09154e-12
7.09153e-12
7.09122e-12
7.09111e-12
7.09094e-12
7.09079e-12
7.09067e-12
7.09053e-12
7.09043e-12
7.09032e-12
7.09023e-12
7.09016e-12
7.09007e-12
7.09003e-12
7.08995e-12
7.08993e-12
7.08988e-12
7.08987e-12
7.08986e-12
7.08985e-12
7.11664e-12
7.11665e-12
7.11633e-12
7.11624e-12
7.11603e-12
7.11593e-12
7.11576e-12
7.11566e-12
7.11553e-12
7.11543e-12
7.11534e-12
7.11525e-12
7.11519e-12
7.11511e-12
7.11508e-12
7.11502e-12
7.115e-12
7.11497e-12
7.11496e-12
7.11496e-12
7.13585e-12
7.13587e-12
7.13558e-12
7.13548e-12
7.13528e-12
7.13518e-12
7.13501e-12
7.13492e-12
7.13478e-12
7.13469e-12
7.1346e-12
7.13451e-12
7.13445e-12
7.13437e-12
7.13434e-12
7.13428e-12
7.13426e-12
7.13423e-12
7.13422e-12
7.13422e-12
7.14476e-12
7.14475e-12
7.14475e-12
7.14475e-12
7.14474e-12
7.14475e-12
7.14474e-12
7.14474e-12
7.14473e-12
7.14474e-12
7.14473e-12
7.14474e-12
7.14473e-12
7.14473e-12
7.14473e-12
7.14473e-12
7.14473e-12
7.14473e-12
7.14473e-12
7.14473e-12
)
;

boundaryField
{
    movingWall
    {
        type            calculated;
        value           nonuniform List<scalar> 
20
(
7.14476e-12
7.14475e-12
7.14475e-12
7.14475e-12
7.14474e-12
7.14475e-12
7.14474e-12
7.14474e-12
7.14473e-12
7.14474e-12
7.14473e-12
7.14474e-12
7.14473e-12
7.14473e-12
7.14473e-12
7.14473e-12
7.14473e-12
7.14473e-12
7.14473e-12
7.14473e-12
)
;
    }
    fixedWalls
    {
        type            calculated;
        value           nonuniform List<scalar> 
60
(
5.617e-12
5.7442e-12
5.95653e-12
6.19755e-12
6.41857e-12
6.59403e-12
6.72003e-12
6.80521e-12
6.86196e-12
6.90134e-12
6.9314e-12
6.95737e-12
6.98238e-12
7.00817e-12
7.03537e-12
7.06363e-12
7.09154e-12
7.11664e-12
7.13585e-12
7.14476e-12
5.61698e-12
5.743e-12
5.95525e-12
6.19618e-12
6.41714e-12
6.59253e-12
6.71848e-12
6.80363e-12
6.86037e-12
6.89973e-12
6.92978e-12
6.95573e-12
6.98074e-12
7.00652e-12
7.03371e-12
7.06196e-12
7.08985e-12
7.11496e-12
7.13422e-12
7.14473e-12
5.617e-12
5.617e-12
5.61699e-12
5.617e-12
5.61699e-12
5.61699e-12
5.61699e-12
5.61699e-12
5.61699e-12
5.61699e-12
5.61698e-12
5.61698e-12
5.61698e-12
5.61698e-12
5.61698e-12
5.61698e-12
5.61698e-12
5.61698e-12
5.61698e-12
5.61698e-12
)
;
    }
    frontAndBack
    {
        type            empty;
    }
}


// ************************************************************************* //
