/*--------------------------------*- C++ -*----------------------------------*\
| =========                 |                                                 |
| \\      /  F ield         | OpenFOAM: The Open Source CFD Toolbox           |
|  \\    /   O peration     | Version:  2312                                  |
|   \\  /    A nd           | Website:  www.openfoam.com                      |
|    \\/     M anipulation  |                                                 |
\*---------------------------------------------------------------------------*/
FoamFile
{
    version     2.0;
    format      ascii;
    arch        "LSB;label=32;scalar=64";
    class       volScalarField;
    location    "10";
    object      kDiff;
}
// * * * * * * * * * * * * * * * * * * * * * * * * * * * * * * * * * * * * * //

dimensions      [0 2 -2 0 0 0 0];

internalField   nonuniform List<scalar> 
400
(
-2.86618e-09
-2.86674e-09
-2.86591e-09
-2.86667e-09
-2.86581e-09
-2.8666e-09
-2.86596e-09
-2.86636e-09
-2.86616e-09
-2.86637e-09
-2.86617e-09
-2.86632e-09
-2.86622e-09
-2.86631e-09
-2.86623e-09
-2.86628e-09
-2.86626e-09
-2.86626e-09
-2.86626e-09
-2.86626e-09
-2.93576e-09
-2.93594e-09
-2.93484e-09
-2.93312e-09
-2.93821e-09
-2.93247e-09
-2.93827e-09
-2.93138e-09
-2.93857e-09
-2.9313e-09
-2.93852e-09
-2.93135e-09
-2.93838e-09
-2.93175e-09
-2.93769e-09
-2.9328e-09
-2.93643e-09
-2.93424e-09
-2.93479e-09
-2.93477e-09
-3.04476e-09
-3.04556e-09
-3.04217e-09
-3.0439e-09
-3.04398e-09
-3.04287e-09
-3.04575e-09
-3.04164e-09
-3.0465e-09
-3.04096e-09
-3.04687e-09
-3.04163e-09
-3.04675e-09
-3.04178e-09
-3.04582e-09
-3.0425e-09
-3.0447e-09
-3.04333e-09
-3.04385e-09
-3.04376e-09
-3.15836e-09
-3.15653e-09
-3.15965e-09
-3.15648e-09
-3.1605e-09
-3.15448e-09
-3.16027e-09
-3.15549e-09
-3.15886e-09
-3.15532e-09
-3.16032e-09
-3.15472e-09
-3.16062e-09
-3.15494e-09
-3.16022e-09
-3.15583e-09
-3.1592e-09
-3.15704e-09
-3.15744e-09
-3.15743e-09
-3.25177e-09
-3.24531e-09
-3.26282e-09
-3.24418e-09
-3.25968e-09
-3.24408e-09
-3.25945e-09
-3.24433e-09
-3.25877e-09
-3.24575e-09
-3.25711e-09
-3.24839e-09
-3.25504e-09
-3.24931e-09
-3.25399e-09
-3.24945e-09
-3.25286e-09
-3.2506e-09
-3.25181e-09
-3.25153e-09
-3.31804e-09
-3.31773e-09
-3.32166e-09
-3.32326e-09
-3.31369e-09
-3.32681e-09
-3.30939e-09
-3.32601e-09
-3.31117e-09
-3.32327e-09
-3.31433e-09
-3.32053e-09
-3.3156e-09
-3.31874e-09
-3.31952e-09
-3.31777e-09
-3.31951e-09
-3.31839e-09
-3.31851e-09
-3.31836e-09
-3.36265e-09
-3.36169e-09
-3.36239e-09
-3.36062e-09
-3.36562e-09
-3.35771e-09
-3.36427e-09
-3.35787e-09
-3.36438e-09
-3.35757e-09
-3.36568e-09
-3.35733e-09
-3.36567e-09
-3.358e-09
-3.36477e-09
-3.35922e-09
-3.36341e-09
-3.36075e-09
-3.36134e-09
-3.36129e-09
-3.38793e-09
-3.38776e-09
-3.3899e-09
-3.39285e-09
-3.3823e-09
-3.3933e-09
-3.38214e-09
-3.39135e-09
-3.38468e-09
-3.38945e-09
-3.38657e-09
-3.38773e-09
-3.38644e-09
-3.38701e-09
-3.38912e-09
-3.38653e-09
-3.38894e-09
-3.38744e-09
-3.38774e-09
-3.38756e-09
-3.40393e-09
-3.40426e-09
-3.40585e-09
-3.41129e-09
-3.3967e-09
-3.41402e-09
-3.39357e-09
-3.41208e-09
-3.39633e-09
-3.40883e-09
-3.39961e-09
-3.40626e-09
-3.40096e-09
-3.40422e-09
-3.40517e-09
-3.4033e-09
-3.4051e-09
-3.40397e-09
-3.40407e-09
-3.40392e-09
-3.41589e-09
-3.41104e-09
-3.42222e-09
-3.412e-09
-3.4192e-09
-3.4112e-09
-3.41927e-09
-3.41182e-09
-3.41855e-09
-3.41154e-09
-3.41886e-09
-3.41181e-09
-3.41887e-09
-3.41224e-09
-3.41829e-09
-3.41331e-09
-3.41704e-09
-3.4147e-09
-3.41511e-09
-3.41513e-09
-3.42567e-09
-3.42542e-09
-3.42552e-09
-3.42266e-09
-3.42724e-09
-3.42093e-09
-3.42858e-09
-3.42023e-09
-3.42687e-09
-3.42072e-09
-3.42776e-09
-3.42046e-09
-3.42813e-09
-3.42102e-09
-3.42737e-09
-3.42205e-09
-3.42588e-09
-3.42354e-09
-3.42407e-09
-3.42408e-09
-3.43372e-09
-3.43272e-09
-3.43704e-09
-3.42918e-09
-3.43578e-09
-3.42861e-09
-3.43646e-09
-3.4284e-09
-3.43579e-09
-3.42862e-09
-3.43628e-09
-3.42929e-09
-3.43651e-09
-3.4295e-09
-3.43565e-09
-3.43027e-09
-3.43418e-09
-3.43181e-09
-3.43237e-09
-3.43238e-09
-3.44233e-09
-3.44156e-09
-3.44095e-09
-3.44031e-09
-3.44484e-09
-3.43705e-09
-3.44416e-09
-3.43776e-09
-3.44395e-09
-3.43734e-09
-3.44531e-09
-3.43711e-09
-3.44512e-09
-3.43769e-09
-3.44437e-09
-3.43891e-09
-3.44304e-09
-3.44041e-09
-3.44095e-09
-3.44092e-09
-3.45103e-09
-3.44658e-09
-3.45728e-09
-3.447e-09
-3.45462e-09
-3.44592e-09
-3.4546e-09
-3.44665e-09
-3.45339e-09
-3.44659e-09
-3.45432e-09
-3.44628e-09
-3.45454e-09
-3.44671e-09
-3.45386e-09
-3.44798e-09
-3.45243e-09
-3.44962e-09
-3.4502e-09
-3.45018e-09
-3.46033e-09
-3.4573e-09
-3.46703e-09
-3.45813e-09
-3.46412e-09
-3.45902e-09
-3.46571e-09
-3.45616e-09
-3.46803e-09
-3.4531e-09
-3.46967e-09
-3.45435e-09
-3.46501e-09
-3.45503e-09
-3.46353e-09
-3.45662e-09
-3.46126e-09
-3.45863e-09
-3.46071e-09
-3.46037e-09
-3.4725e-09
-3.47044e-09
-3.47681e-09
-3.4651e-09
-3.4785e-09
-3.46792e-09
-3.47612e-09
-3.46805e-09
-3.47624e-09
-3.46559e-09
-3.47533e-09
-3.46786e-09
-3.47571e-09
-3.46832e-09
-3.47459e-09
-3.46925e-09
-3.4732e-09
-3.47078e-09
-3.47139e-09
-3.47137e-09
-3.48318e-09
-3.48046e-09
-3.49141e-09
-3.47713e-09
-3.48837e-09
-3.47934e-09
-3.48625e-09
-3.47949e-09
-3.48704e-09
-3.47862e-09
-3.48603e-09
-3.47903e-09
-3.48681e-09
-3.47924e-09
-3.48625e-09
-3.48026e-09
-3.48469e-09
-3.48198e-09
-3.48265e-09
-3.48264e-09
-3.49357e-09
-3.48739e-09
-3.50493e-09
-3.48574e-09
-3.50072e-09
-3.48743e-09
-3.49933e-09
-3.48871e-09
-3.4981e-09
-3.49051e-09
-3.49686e-09
-3.49007e-09
-3.49698e-09
-3.48949e-09
-3.49619e-09
-3.49044e-09
-3.49466e-09
-3.49201e-09
-3.49344e-09
-3.49312e-09
-3.50053e-09
-3.49678e-09
-3.51129e-09
-3.49519e-09
-3.50827e-09
-3.49601e-09
-3.50757e-09
-3.49694e-09
-3.50641e-09
-3.49916e-09
-3.50513e-09
-3.49812e-09
-3.50609e-09
-3.49702e-09
-3.50505e-09
-3.49826e-09
-3.50312e-09
-3.50025e-09
-3.50171e-09
-3.50138e-09
-3.50591e-09
-3.50607e-09
-3.50578e-09
-3.50636e-09
-3.50566e-09
-3.50648e-09
-3.50531e-09
-3.50666e-09
-3.5053e-09
-3.50652e-09
-3.50552e-09
-3.50619e-09
-3.50586e-09
-3.50597e-09
-3.50601e-09
-3.50595e-09
-3.50597e-09
-3.50596e-09
-3.50596e-09
-3.50596e-09
)
;

boundaryField
{
    movingWall
    {
        type            calculated;
        value           nonuniform List<scalar> 
20
(
-3.50591e-09
-3.50607e-09
-3.50578e-09
-3.50636e-09
-3.50566e-09
-3.50648e-09
-3.50531e-09
-3.50666e-09
-3.5053e-09
-3.50652e-09
-3.50552e-09
-3.50619e-09
-3.50586e-09
-3.50597e-09
-3.50601e-09
-3.50595e-09
-3.50597e-09
-3.50596e-09
-3.50596e-09
-3.50596e-09
)
;
    }
    fixedWalls
    {
        type            calculated;
        value           nonuniform List<scalar> 
60
(
-2.86618e-09
-2.93576e-09
-3.04476e-09
-3.15836e-09
-3.25177e-09
-3.31804e-09
-3.36265e-09
-3.38793e-09
-3.40393e-09
-3.41589e-09
-3.42567e-09
-3.43372e-09
-3.44233e-09
-3.45103e-09
-3.46033e-09
-3.4725e-09
-3.48318e-09
-3.49357e-09
-3.50053e-09
-3.50591e-09
-2.86626e-09
-2.93477e-09
-3.04376e-09
-3.15743e-09
-3.25153e-09
-3.31836e-09
-3.36129e-09
-3.38756e-09
-3.40392e-09
-3.41513e-09
-3.42408e-09
-3.43238e-09
-3.44092e-09
-3.45018e-09
-3.46037e-09
-3.47137e-09
-3.48264e-09
-3.49312e-09
-3.50138e-09
-3.50596e-09
-2.86618e-09
-2.86674e-09
-2.86591e-09
-2.86667e-09
-2.86581e-09
-2.8666e-09
-2.86596e-09
-2.86636e-09
-2.86616e-09
-2.86637e-09
-2.86617e-09
-2.86632e-09
-2.86622e-09
-2.86631e-09
-2.86623e-09
-2.86628e-09
-2.86626e-09
-2.86626e-09
-2.86626e-09
-2.86626e-09
)
;
    }
    frontAndBack
    {
        type            empty;
    }
}


// ************************************************************************* //
