/*--------------------------------*- C++ -*----------------------------------*\
| =========                 |                                                 |
| \\      /  F ield         | OpenFOAM: The Open Source CFD Toolbox           |
|  \\    /   O peration     | Version:  2312                                  |
|   \\  /    A nd           | Website:  www.openfoam.com                      |
|    \\/     M anipulation  |                                                 |
\*---------------------------------------------------------------------------*/
FoamFile
{
    version     2.0;
    format      ascii;
    arch        "LSB;label=32;scalar=64";
    class       volScalarField;
    location    "10";
    object      kTotal;
}
// * * * * * * * * * * * * * * * * * * * * * * * * * * * * * * * * * * * * * //

dimensions      [0 2 -2 0 0 0 0];

internalField   nonuniform List<scalar> 
400
(
4.74004e-06
4.74004e-06
4.74004e-06
4.74004e-06
4.74004e-06
4.74004e-06
4.74004e-06
4.74004e-06
4.74004e-06
4.74004e-06
4.74004e-06
4.74004e-06
4.74004e-06
4.74004e-06
4.74004e-06
4.74004e-06
4.74004e-06
4.74004e-06
4.74004e-06
4.74004e-06
4.79341e-06
4.79341e-06
4.79332e-06
4.79329e-06
4.79324e-06
4.7932e-06
4.79315e-06
4.79312e-06
4.79308e-06
4.79306e-06
4.79302e-06
4.79301e-06
4.79298e-06
4.79297e-06
4.79294e-06
4.79294e-06
4.79292e-06
4.79292e-06
4.79291e-06
4.79291e-06
4.8812e-06
4.8812e-06
4.88111e-06
4.88107e-06
4.88101e-06
4.88098e-06
4.88093e-06
4.8809e-06
4.88085e-06
4.88083e-06
4.88079e-06
4.88078e-06
4.88074e-06
4.88073e-06
4.88071e-06
4.8807e-06
4.88069e-06
4.88068e-06
4.88068e-06
4.88068e-06
4.97898e-06
4.97897e-06
4.97888e-06
4.97884e-06
4.97878e-06
4.97873e-06
4.97869e-06
4.97865e-06
4.97861e-06
4.97858e-06
4.97855e-06
4.97853e-06
4.9785e-06
4.97848e-06
4.97846e-06
4.97845e-06
4.97844e-06
4.97843e-06
4.97843e-06
4.97843e-06
5.06698e-06
5.06699e-06
5.06688e-06
5.06685e-06
5.06677e-06
5.06675e-06
5.06668e-06
5.06666e-06
5.0666e-06
5.06658e-06
5.06654e-06
5.06652e-06
5.06649e-06
5.06647e-06
5.06645e-06
5.06644e-06
5.06643e-06
5.06642e-06
5.06642e-06
5.06641e-06
5.13577e-06
5.13577e-06
5.13567e-06
5.13563e-06
5.13556e-06
5.13552e-06
5.13546e-06
5.13544e-06
5.13538e-06
5.13536e-06
5.13531e-06
5.13529e-06
5.13526e-06
5.13525e-06
5.13522e-06
5.13521e-06
5.1352e-06
5.13519e-06
5.13519e-06
5.13519e-06
5.1846e-06
5.1846e-06
5.1845e-06
5.18446e-06
5.18439e-06
5.18434e-06
5.18429e-06
5.18425e-06
5.18421e-06
5.18418e-06
5.18414e-06
5.18412e-06
5.18408e-06
5.18407e-06
5.18404e-06
5.18404e-06
5.18402e-06
5.18401e-06
5.18401e-06
5.18401e-06
5.21736e-06
5.21736e-06
5.21726e-06
5.21721e-06
5.21714e-06
5.2171e-06
5.21704e-06
5.21701e-06
5.21696e-06
5.21693e-06
5.21689e-06
5.21687e-06
5.21683e-06
5.21682e-06
5.21679e-06
5.21678e-06
5.21677e-06
5.21676e-06
5.21676e-06
5.21676e-06
5.23907e-06
5.23907e-06
5.23897e-06
5.23892e-06
5.23885e-06
5.23881e-06
5.23875e-06
5.23872e-06
5.23866e-06
5.23864e-06
5.2386e-06
5.23858e-06
5.23854e-06
5.23853e-06
5.2385e-06
5.23849e-06
5.23848e-06
5.23847e-06
5.23846e-06
5.23846e-06
5.25408e-06
5.25408e-06
5.25397e-06
5.25393e-06
5.25386e-06
5.25382e-06
5.25377e-06
5.25372e-06
5.25368e-06
5.25364e-06
5.25361e-06
5.25358e-06
5.25355e-06
5.25353e-06
5.25351e-06
5.2535e-06
5.25348e-06
5.25348e-06
5.25347e-06
5.25347e-06
5.26551e-06
5.26551e-06
5.2654e-06
5.26536e-06
5.26529e-06
5.26524e-06
5.26519e-06
5.26514e-06
5.2651e-06
5.26507e-06
5.26503e-06
5.26501e-06
5.26497e-06
5.26496e-06
5.26493e-06
5.26492e-06
5.26491e-06
5.2649e-06
5.2649e-06
5.26489e-06
5.27537e-06
5.27536e-06
5.27525e-06
5.27521e-06
5.27514e-06
5.27509e-06
5.27504e-06
5.275e-06
5.27496e-06
5.27492e-06
5.27489e-06
5.27486e-06
5.27483e-06
5.27481e-06
5.27478e-06
5.27477e-06
5.27476e-06
5.27475e-06
5.27475e-06
5.27475e-06
5.28484e-06
5.28484e-06
5.28473e-06
5.28469e-06
5.28461e-06
5.28457e-06
5.28452e-06
5.28448e-06
5.28443e-06
5.2844e-06
5.28436e-06
5.28434e-06
5.2843e-06
5.28429e-06
5.28426e-06
5.28425e-06
5.28423e-06
5.28423e-06
5.28422e-06
5.28422e-06
5.29459e-06
5.29458e-06
5.29448e-06
5.29444e-06
5.29436e-06
5.29432e-06
5.29427e-06
5.29422e-06
5.29418e-06
5.29415e-06
5.29411e-06
5.29408e-06
5.29405e-06
5.29403e-06
5.29401e-06
5.294e-06
5.29398e-06
5.29398e-06
5.29397e-06
5.29397e-06
5.30485e-06
5.30486e-06
5.30474e-06
5.3047e-06
5.30463e-06
5.30458e-06
5.30453e-06
5.30448e-06
5.30445e-06
5.3044e-06
5.30438e-06
5.30433e-06
5.30433e-06
5.30428e-06
5.30428e-06
5.30425e-06
5.30425e-06
5.30423e-06
5.30423e-06
5.30423e-06
5.3155e-06
5.3155e-06
5.31538e-06
5.31534e-06
5.31528e-06
5.31522e-06
5.31518e-06
5.31512e-06
5.31509e-06
5.31504e-06
5.31502e-06
5.31498e-06
5.31496e-06
5.31493e-06
5.31491e-06
5.3149e-06
5.31488e-06
5.31488e-06
5.31487e-06
5.31487e-06
5.32599e-06
5.32599e-06
5.32587e-06
5.32583e-06
5.32577e-06
5.32571e-06
5.32566e-06
5.32561e-06
5.32557e-06
5.32553e-06
5.3255e-06
5.32547e-06
5.32544e-06
5.32542e-06
5.32539e-06
5.32539e-06
5.32537e-06
5.32536e-06
5.32536e-06
5.32536e-06
5.33541e-06
5.33541e-06
5.33529e-06
5.33526e-06
5.33518e-06
5.33514e-06
5.33508e-06
5.33504e-06
5.33499e-06
5.33495e-06
5.33492e-06
5.33489e-06
5.33486e-06
5.33484e-06
5.33482e-06
5.3348e-06
5.33479e-06
5.33478e-06
5.33478e-06
5.33478e-06
5.34261e-06
5.34261e-06
5.3425e-06
5.34246e-06
5.34239e-06
5.34235e-06
5.34229e-06
5.34225e-06
5.3422e-06
5.34217e-06
5.34213e-06
5.3421e-06
5.34208e-06
5.34205e-06
5.34204e-06
5.34202e-06
5.34201e-06
5.342e-06
5.34199e-06
5.34199e-06
5.34594e-06
5.34594e-06
5.34593e-06
5.34593e-06
5.34593e-06
5.34593e-06
5.34593e-06
5.34593e-06
5.34593e-06
5.34593e-06
5.34593e-06
5.34593e-06
5.34593e-06
5.34593e-06
5.34593e-06
5.34593e-06
5.34593e-06
5.34593e-06
5.34593e-06
5.34593e-06
)
;

boundaryField
{
    movingWall
    {
        type            calculated;
        value           nonuniform List<scalar> 
20
(
5.34594e-06
5.34594e-06
5.34593e-06
5.34593e-06
5.34593e-06
5.34593e-06
5.34593e-06
5.34593e-06
5.34593e-06
5.34593e-06
5.34593e-06
5.34593e-06
5.34593e-06
5.34593e-06
5.34593e-06
5.34593e-06
5.34593e-06
5.34593e-06
5.34593e-06
5.34593e-06
)
;
    }
    fixedWalls
    {
        type            calculated;
        value           nonuniform List<scalar> 
60
(
4.74004e-06
4.79341e-06
4.8812e-06
4.97898e-06
5.06698e-06
5.13577e-06
5.1846e-06
5.21736e-06
5.23907e-06
5.25408e-06
5.26551e-06
5.27537e-06
5.28484e-06
5.29459e-06
5.30485e-06
5.3155e-06
5.32599e-06
5.33541e-06
5.34261e-06
5.34594e-06
4.74004e-06
4.79291e-06
4.88068e-06
4.97843e-06
5.06641e-06
5.13519e-06
5.18401e-06
5.21676e-06
5.23846e-06
5.25347e-06
5.26489e-06
5.27475e-06
5.28422e-06
5.29397e-06
5.30423e-06
5.31487e-06
5.32536e-06
5.33478e-06
5.34199e-06
5.34593e-06
4.74004e-06
4.74004e-06
4.74004e-06
4.74004e-06
4.74004e-06
4.74004e-06
4.74004e-06
4.74004e-06
4.74004e-06
4.74004e-06
4.74004e-06
4.74004e-06
4.74004e-06
4.74004e-06
4.74004e-06
4.74004e-06
4.74004e-06
4.74004e-06
4.74004e-06
4.74004e-06
)
;
    }
    frontAndBack
    {
        type            empty;
    }
}


// ************************************************************************* //
