/*--------------------------------*- C++ -*----------------------------------*\
| =========                 |                                                 |
| \\      /  F ield         | OpenFOAM: The Open Source CFD Toolbox           |
|  \\    /   O peration     | Version:  2312                                  |
|   \\  /    A nd           | Website:  www.openfoam.com                      |
|    \\/     M anipulation  |                                                 |
\*---------------------------------------------------------------------------*/
FoamFile
{
    version     2.0;
    format      ascii;
    arch        "LSB;label=32;scalar=64";
    class       volVectorField;
    location    "10";
    object      kU;
}
// * * * * * * * * * * * * * * * * * * * * * * * * * * * * * * * * * * * * * //

dimensions      [0 3 -3 0 0 0 0];

internalField   nonuniform List<vector> 
400
(
(-2.36859e-06 4.13274e-19 0)
(-2.36859e-06 -8.90542e-20 0)
(-2.36859e-06 2.11363e-20 0)
(-2.36859e-06 -4.41861e-21 0)
(-2.36859e-06 1.25303e-21 0)
(-2.36859e-06 3.09701e-22 0)
(-2.36859e-06 4.86771e-22 0)
(-2.36859e-06 3.41838e-22 0)
(-2.36859e-06 3.68692e-22 0)
(-2.36859e-06 1.88413e-22 0)
(-2.36859e-06 -6.57552e-23 0)
(-2.36858e-06 1.86884e-22 0)
(-2.36858e-06 4.39796e-22 0)
(-2.36858e-06 2.8988e-22 0)
(-2.36858e-06 -6.5452e-23 0)
(-2.36858e-06 -1.74222e-22 0)
(-2.36858e-06 5.78842e-23 0)
(-2.36858e-06 1.8697e-22 0)
(-2.36858e-06 1.54e-22 0)
(-2.36858e-06 -2.81037e-23 0)
(-2.39524e-06 2.40841e-20 0)
(-2.39524e-06 -4.9519e-21 0)
(-2.39519e-06 1.19673e-21 0)
(-2.39518e-06 -4.37542e-22 0)
(-2.39515e-06 -3.69561e-23 0)
(-2.39513e-06 1.82797e-22 0)
(-2.39511e-06 4.76302e-22 0)
(-2.39509e-06 5.2222e-22 0)
(-2.39507e-06 6.33889e-22 0)
(-2.39506e-06 5.12494e-22 0)
(-2.39504e-06 7.32449e-23 0)
(-2.39504e-06 2.27062e-23 0)
(-2.39502e-06 1.2469e-22 0)
(-2.39502e-06 2.72653e-22 0)
(-2.395e-06 3.1369e-22 0)
(-2.395e-06 2.85762e-22 0)
(-2.39499e-06 1.31928e-22 0)
(-2.39499e-06 6.48021e-23 0)
(-2.39499e-06 -1.50407e-22 0)
(-2.39499e-06 -2.0102e-22 0)
(-2.43908e-06 -3.87314e-19 0)
(-2.43908e-06 8.51761e-20 0)
(-2.43903e-06 -2.01032e-20 0)
(-2.43902e-06 4.39422e-21 0)
(-2.43898e-06 -1.09438e-21 0)
(-2.43897e-06 1.50969e-23 0)
(-2.43894e-06 1.63072e-22 0)
(-2.43893e-06 5.77849e-22 0)
(-2.4389e-06 5.99815e-22 0)
(-2.4389e-06 4.66015e-22 0)
(-2.43887e-06 3.56802e-22 0)
(-2.43887e-06 3.11296e-22 0)
(-2.43885e-06 2.89838e-22 0)
(-2.43884e-06 5.41288e-22 0)
(-2.43883e-06 6.59152e-22 0)
(-2.43883e-06 4.34924e-22 0)
(-2.43882e-06 2.64452e-23 0)
(-2.43882e-06 -1.04443e-22 0)
(-2.43882e-06 -3.88265e-22 0)
(-2.43882e-06 -3.55384e-22 0)
(-2.48791e-06 2.76517e-19 0)
(-2.48791e-06 -6.09727e-20 0)
(-2.48786e-06 1.35122e-20 0)
(-2.48784e-06 -3.54817e-21 0)
(-2.48781e-06 5.07646e-22 0)
(-2.48779e-06 -3.04434e-22 0)
(-2.48777e-06 2.12821e-22 0)
(-2.48775e-06 4.02926e-22 0)
(-2.48773e-06 4.25981e-22 0)
(-2.48771e-06 2.91374e-22 0)
(-2.48769e-06 4.08535e-22 0)
(-2.48769e-06 4.88757e-22 0)
(-2.48767e-06 4.65423e-22 0)
(-2.48766e-06 4.01533e-22 0)
(-2.48765e-06 2.22957e-22 0)
(-2.48765e-06 1.20364e-22 0)
(-2.48764e-06 7.62423e-23 0)
(-2.48764e-06 1.24181e-22 0)
(-2.48763e-06 -3.33909e-23 0)
(-2.48763e-06 -2.1973e-22 0)
(-2.53186e-06 4.59597e-20 0)
(-2.53187e-06 -1.21516e-20 0)
(-2.53181e-06 2.43658e-21 0)
(-2.5318e-06 -7.57332e-22 0)
(-2.53176e-06 4.13684e-22 0)
(-2.53175e-06 -3.46745e-23 0)
(-2.53171e-06 -6.07215e-23 0)
(-2.53171e-06 -8.6117e-23 0)
(-2.53167e-06 1.24582e-22 0)
(-2.53167e-06 5.85373e-22 0)
(-2.53164e-06 9.16433e-22 0)
(-2.53163e-06 5.06151e-22 0)
(-2.53162e-06 9.95688e-23 0)
(-2.53161e-06 -9.26167e-23 0)
(-2.5316e-06 -6.07918e-23 0)
(-2.53159e-06 9.24347e-23 0)
(-2.53159e-06 5.87854e-23 0)
(-2.53158e-06 -9.02909e-23 0)
(-2.53158e-06 -1.20218e-24 0)
(-2.53158e-06 1.87983e-23 0)
(-2.56623e-06 -3.58418e-19 0)
(-2.56623e-06 7.86501e-20 0)
(-2.56617e-06 -1.82633e-20 0)
(-2.56615e-06 4.43896e-21 0)
(-2.56612e-06 -5.0187e-22 0)
(-2.5661e-06 4.45655e-22 0)
(-2.56608e-06 -1.47308e-22 0)
(-2.56605e-06 -1.64705e-22 0)
(-2.56603e-06 -8.08788e-23 0)
(-2.56602e-06 1.95322e-22 0)
(-2.566e-06 4.68408e-22 0)
(-2.56599e-06 3.58365e-22 0)
(-2.56597e-06 -3.07163e-23 0)
(-2.56596e-06 -1.72609e-22 0)
(-2.56595e-06 -2.34506e-23 0)
(-2.56595e-06 3.42286e-23 0)
(-2.56594e-06 -3.76361e-23 0)
(-2.56594e-06 -1.01522e-22 0)
(-2.56593e-06 8.93768e-23 0)
(-2.56593e-06 2.0391e-22 0)
(-2.59062e-06 4.12131e-19 0)
(-2.59062e-06 -9.04666e-20 0)
(-2.59057e-06 2.10924e-20 0)
(-2.59055e-06 -4.47502e-21 0)
(-2.59051e-06 1.27165e-21 0)
(-2.59049e-06 -1.89429e-22 0)
(-2.59046e-06 -1.21363e-22 0)
(-2.59045e-06 -1.31506e-22 0)
(-2.59042e-06 -6.50483e-23 0)
(-2.59041e-06 -2.4502e-22 0)
(-2.59039e-06 -3.67766e-22 0)
(-2.59038e-06 8.34661e-23 0)
(-2.59036e-06 1.6999e-22 0)
(-2.59036e-06 1.12792e-22 0)
(-2.59034e-06 2.32026e-22 0)
(-2.59034e-06 3.96314e-22 0)
(-2.59033e-06 1.44485e-22 0)
(-2.59033e-06 1.26292e-22 0)
(-2.59032e-06 3.54837e-22 0)
(-2.59032e-06 2.78575e-22 0)
(-2.60699e-06 -9.80502e-20 0)
(-2.60699e-06 1.87995e-20 0)
(-2.60693e-06 -4.44375e-21 0)
(-2.60691e-06 1.1056e-21 0)
(-2.60688e-06 -6.73214e-23 0)
(-2.60686e-06 1.26393e-22 0)
(-2.60683e-06 -2.25594e-22 0)
(-2.60681e-06 -2.5418e-22 0)
(-2.60679e-06 -2.08501e-22 0)
(-2.60677e-06 -1.71383e-22 0)
(-2.60675e-06 -1.78857e-22 0)
(-2.60674e-06 -1.35778e-23 0)
(-2.60672e-06 1.55946e-22 0)
(-2.60672e-06 1.65508e-22 0)
(-2.6067e-06 1.49605e-22 0)
(-2.6067e-06 3.57179e-22 0)
(-2.60669e-06 2.97706e-22 0)
(-2.60669e-06 5.77797e-24 0)
(-2.60669e-06 1.3605e-22 0)
(-2.60668e-06 1.7535e-22 0)
(-2.61783e-06 -2.74909e-19 0)
(-2.61783e-06 6.12187e-20 0)
(-2.61778e-06 -1.4424e-20 0)
(-2.61776e-06 3.02004e-21 0)
(-2.61773e-06 -1.12703e-21 0)
(-2.6177e-06 -2.24247e-23 0)
(-2.61768e-06 -1.89548e-22 0)
(-2.61766e-06 -2.95069e-22 0)
(-2.61763e-06 -1.98507e-22 0)
(-2.61762e-06 1.83907e-22 0)
(-2.6176e-06 3.5307e-22 0)
(-2.61758e-06 -8.45942e-23 0)
(-2.61757e-06 -9.99178e-23 0)
(-2.61756e-06 2.7571e-22 0)
(-2.61755e-06 6.02914e-24 0)
(-2.61754e-06 -1.99702e-22 0)
(-2.61754e-06 3.79982e-23 0)
(-2.61753e-06 3.72673e-23 0)
(-2.61753e-06 -9.68249e-23 0)
(-2.61753e-06 1.14347e-23 0)
(-2.62533e-06 4.89979e-19 0)
(-2.62533e-06 -1.07531e-19 0)
(-2.62527e-06 2.4776e-20 0)
(-2.62526e-06 -5.89949e-21 0)
(-2.62522e-06 8.78129e-22 0)
(-2.6252e-06 -5.89772e-22 0)
(-2.62517e-06 -6.20027e-23 0)
(-2.62515e-06 -3.43455e-22 0)
(-2.62513e-06 -4.31494e-22 0)
(-2.62512e-06 -1.22606e-22 0)
(-2.62509e-06 1.98093e-22 0)
(-2.62509e-06 2.22438e-22 0)
(-2.62507e-06 4.35042e-22 0)
(-2.62506e-06 6.45114e-22 0)
(-2.62504e-06 4.5891e-22 0)
(-2.62504e-06 2.55731e-24 0)
(-2.62503e-06 7.90291e-24 0)
(-2.62503e-06 6.60766e-23 0)
(-2.62503e-06 -5.75622e-23 0)
(-2.62503e-06 7.26623e-23 0)
(-2.63104e-06 -4.59238e-19 0)
(-2.63104e-06 9.93265e-20 0)
(-2.63099e-06 -2.40857e-20 0)
(-2.63097e-06 4.14475e-21 0)
(-2.63093e-06 -2.08321e-21 0)
(-2.63091e-06 -1.33987e-22 0)
(-2.63088e-06 2.12978e-24 0)
(-2.63086e-06 8.02009e-23 0)
(-2.63084e-06 2.04598e-23 0)
(-2.63083e-06 1.74252e-22 0)
(-2.6308e-06 1.51981e-22 0)
(-2.63079e-06 1.81258e-22 0)
(-2.63077e-06 7.71117e-23 0)
(-2.63077e-06 -1.95506e-22 0)
(-2.63075e-06 -2.24251e-23 0)
(-2.63075e-06 -6.28968e-23 0)
(-2.63074e-06 -2.45785e-23 0)
(-2.63074e-06 -6.18182e-23 0)
(-2.63074e-06 -1.46985e-22 0)
(-2.63074e-06 1.08721e-22 0)
(-2.63597e-06 2.31605e-19 0)
(-2.63596e-06 -4.92846e-20 0)
(-2.63591e-06 1.16466e-20 0)
(-2.63589e-06 -2.84185e-21 0)
(-2.63585e-06 8.24706e-23 0)
(-2.63583e-06 -3.10146e-22 0)
(-2.6358e-06 1.5951e-22 0)
(-2.63578e-06 3.37722e-22 0)
(-2.63576e-06 3.6804e-22 0)
(-2.63575e-06 2.86206e-22 0)
(-2.63573e-06 1.40894e-22 0)
(-2.63572e-06 2.09341e-22 0)
(-2.6357e-06 9.5513e-23 0)
(-2.63569e-06 7.31829e-23 0)
(-2.63567e-06 -3.70373e-24 0)
(-2.63567e-06 -3.45201e-22 0)
(-2.63566e-06 -3.09897e-22 0)
(-2.63566e-06 -1.10379e-22 0)
(-2.63566e-06 8.40385e-23 0)
(-2.63566e-06 7.96462e-23 0)
(-2.6407e-06 1.04136e-19 0)
(-2.6407e-06 -2.24295e-20 0)
(-2.64064e-06 5.42539e-21 0)
(-2.64062e-06 -9.42506e-22 0)
(-2.64058e-06 4.81406e-22 0)
(-2.64057e-06 5.09676e-24 0)
(-2.64054e-06 8.6321e-23 0)
(-2.64052e-06 -9.24793e-23 0)
(-2.64049e-06 -2.69173e-22 0)
(-2.64048e-06 -5.41981e-22 0)
(-2.64046e-06 -4.28952e-22 0)
(-2.64045e-06 -6.26675e-23 0)
(-2.64043e-06 1.97111e-22 0)
(-2.64042e-06 1.92365e-22 0)
(-2.64041e-06 2.7646e-23 0)
(-2.64041e-06 6.2703e-23 0)
(-2.64039e-06 6.95096e-23 0)
(-2.64039e-06 -6.18303e-23 0)
(-2.64039e-06 -1.01331e-22 0)
(-2.64039e-06 -5.47781e-24 0)
(-2.64557e-06 -3.7768e-19 0)
(-2.64557e-06 8.23678e-20 0)
(-2.64551e-06 -1.90688e-20 0)
(-2.6455e-06 4.41507e-21 0)
(-2.64546e-06 -6.8648e-22 0)
(-2.64544e-06 1.49399e-22 0)
(-2.64541e-06 -5.06541e-22 0)
(-2.64539e-06 -5.28527e-22 0)
(-2.64536e-06 -2.56504e-22 0)
(-2.64535e-06 -5.93343e-23 0)
(-2.64533e-06 -5.03627e-23 0)
(-2.64532e-06 -3.83524e-23 0)
(-2.6453e-06 -1.74039e-23 0)
(-2.64529e-06 -1.92311e-22 0)
(-2.64528e-06 -1.94351e-22 0)
(-2.64527e-06 1.6753e-22 0)
(-2.64526e-06 6.78889e-23 0)
(-2.64526e-06 -1.65442e-22 0)
(-2.64526e-06 -3.69863e-22 0)
(-2.64526e-06 -1.2158e-22 0)
(-2.6507e-06 4.68523e-19 0)
(-2.6507e-06 -1.02508e-19 0)
(-2.65064e-06 2.41011e-20 0)
(-2.65062e-06 -5.27721e-21 0)
(-2.65058e-06 1.2295e-21 0)
(-2.65056e-06 -2.91814e-22 0)
(-2.65053e-06 -3.1749e-22 0)
(-2.65051e-06 -3.01653e-22 0)
(-2.65049e-06 -2.59265e-22 0)
(-2.65047e-06 -1.78419e-22 0)
(-2.65045e-06 -1.15384e-22 0)
(-2.65044e-06 9.15621e-23 0)
(-2.65043e-06 7.94562e-23 0)
(-2.65041e-06 1.14197e-22 0)
(-2.65041e-06 2.94919e-22 0)
(-2.6504e-06 3.05261e-22 0)
(-2.65039e-06 -8.57008e-23 0)
(-2.65039e-06 -1.99775e-22 0)
(-2.65039e-06 -9.46509e-23 0)
(-2.65038e-06 -4.61761e-23 0)
(-2.65601e-06 -2.40275e-19 0)
(-2.65601e-06 5.32632e-20 0)
(-2.65595e-06 -1.21463e-20 0)
(-2.65594e-06 3.12052e-21 0)
(-2.6559e-06 -3.0417e-22 0)
(-2.65588e-06 3.5608e-22 0)
(-2.65585e-06 7.1739e-23 0)
(-2.65583e-06 2.76443e-24 0)
(-2.65581e-06 -3.61555e-22 0)
(-2.65579e-06 -6.43802e-22 0)
(-2.65577e-06 -6.43888e-22 0)
(-2.65576e-06 -3.37343e-22 0)
(-2.65574e-06 -2.00431e-22 0)
(-2.65573e-06 -2.60723e-22 0)
(-2.65572e-06 -2.12228e-23 0)
(-2.65571e-06 1.5539e-22 0)
(-2.6557e-06 1.3863e-22 0)
(-2.6557e-06 1.03182e-22 0)
(-2.6557e-06 1.39464e-24 0)
(-2.6557e-06 -8.6054e-23 0)
(-2.66125e-06 -1.60877e-19 0)
(-2.66125e-06 3.46508e-20 0)
(-2.66119e-06 -8.14442e-21 0)
(-2.66118e-06 1.75067e-21 0)
(-2.66114e-06 -4.08311e-22 0)
(-2.66111e-06 -3.29635e-23 0)
(-2.66109e-06 -2.44855e-22 0)
(-2.66107e-06 -2.74525e-22 0)
(-2.66104e-06 -2.91439e-22 0)
(-2.66103e-06 -5.58237e-23 0)
(-2.66101e-06 1.46587e-22 0)
(-2.661e-06 6.86729e-23 0)
(-2.66098e-06 -6.70012e-23 0)
(-2.66097e-06 -4.40917e-22 0)
(-2.66095e-06 -4.86291e-22 0)
(-2.66095e-06 -2.54724e-22 0)
(-2.66094e-06 1.19004e-22 0)
(-2.66094e-06 3.36557e-22 0)
(-2.66094e-06 1.31326e-23 0)
(-2.66094e-06 -1.56884e-22 0)
(-2.66596e-06 4.16122e-19 0)
(-2.66596e-06 -8.94595e-20 0)
(-2.66589e-06 2.10031e-20 0)
(-2.66589e-06 -4.49285e-21 0)
(-2.66584e-06 1.0596e-21 0)
(-2.66583e-06 -1.87685e-22 0)
(-2.66579e-06 4.80668e-23 0)
(-2.66578e-06 -2.80439e-22 0)
(-2.66575e-06 -2.1822e-22 0)
(-2.66573e-06 -4.79513e-23 0)
(-2.66571e-06 -5.04428e-23 0)
(-2.6657e-06 -2.95054e-22 0)
(-2.66568e-06 -5.0313e-22 0)
(-2.66567e-06 -3.69585e-22 0)
(-2.66566e-06 -2.09755e-23 0)
(-2.66566e-06 -2.44635e-22 0)
(-2.66565e-06 -9.1634e-23 0)
(-2.66565e-06 2.09859e-22 0)
(-2.66564e-06 1.46138e-22 0)
(-2.66564e-06 -4.07531e-24 0)
(-2.66955e-06 -1.31676e-19 0)
(-2.66956e-06 2.75293e-20 0)
(-2.6695e-06 -6.528e-21 0)
(-2.66948e-06 1.48631e-21 0)
(-2.66944e-06 -1.99861e-22 0)
(-2.66943e-06 9.53161e-23 0)
(-2.66939e-06 -2.13628e-23 0)
(-2.66938e-06 -2.70378e-22 0)
(-2.66935e-06 -1.58532e-22 0)
(-2.66934e-06 -2.80354e-22 0)
(-2.66931e-06 -5.47904e-22 0)
(-2.6693e-06 -6.37028e-22 0)
(-2.66929e-06 -5.71427e-22 0)
(-2.66928e-06 -2.10303e-22 0)
(-2.66927e-06 3.79961e-23 0)
(-2.66926e-06 -9.26396e-23 0)
(-2.66925e-06 -1.97856e-22 0)
(-2.66925e-06 -2.37283e-22 0)
(-2.66925e-06 -1.00631e-22 0)
(-2.66925e-06 -8.52083e-23 0)
(-2.67122e-06 -3.11946e-19 0)
(-2.67121e-06 6.54912e-20 0)
(-2.67121e-06 -1.60772e-20 0)
(-2.67121e-06 2.8521e-21 0)
(-2.67121e-06 -1.08102e-21 0)
(-2.67121e-06 -1.20618e-22 0)
(-2.67121e-06 -2.15719e-22 0)
(-2.67121e-06 -1.26102e-22 0)
(-2.67121e-06 1.50053e-23 0)
(-2.67121e-06 6.6009e-23 0)
(-2.67121e-06 4.81434e-23 0)
(-2.67121e-06 5.74097e-23 0)
(-2.67121e-06 1.32335e-22 0)
(-2.67121e-06 5.78518e-23 0)
(-2.67121e-06 -2.52949e-22 0)
(-2.67121e-06 -4.13782e-23 0)
(-2.67121e-06 -8.3663e-23 0)
(-2.67121e-06 -2.62626e-22 0)
(-2.67121e-06 -2.46506e-22 0)
(-2.67121e-06 -1.60026e-22 0)
)
;

boundaryField
{
    movingWall
    {
        type            calculated;
        value           nonuniform List<vector> 
20
(
(-2.67122e-06 -0 -0)
(-2.67121e-06 -0 -0)
(-2.67121e-06 -0 -0)
(-2.67121e-06 -0 -0)
(-2.67121e-06 -0 -0)
(-2.67121e-06 -0 -0)
(-2.67121e-06 -0 -0)
(-2.67121e-06 -0 -0)
(-2.67121e-06 -0 -0)
(-2.67121e-06 -0 -0)
(-2.67121e-06 -0 -0)
(-2.67121e-06 -0 -0)
(-2.67121e-06 -0 -0)
(-2.67121e-06 -0 -0)
(-2.67121e-06 -0 -0)
(-2.67121e-06 -0 -0)
(-2.67121e-06 -0 -0)
(-2.67121e-06 -0 -0)
(-2.67121e-06 -0 -0)
(-2.67121e-06 -0 -0)
)
;
    }
    fixedWalls
    {
        type            calculated;
        value           nonuniform List<vector> 
60
(
(-2.36859e-06 -0 -0)
(-2.39524e-06 -0 -0)
(-2.43908e-06 -0 -0)
(-2.48791e-06 -0 -0)
(-2.53186e-06 -0 -0)
(-2.56623e-06 -0 -0)
(-2.59062e-06 -0 -0)
(-2.60699e-06 -0 -0)
(-2.61783e-06 -0 -0)
(-2.62533e-06 -0 -0)
(-2.63104e-06 -0 -0)
(-2.63597e-06 -0 -0)
(-2.6407e-06 -0 -0)
(-2.64557e-06 -0 -0)
(-2.6507e-06 -0 -0)
(-2.65601e-06 -0 -0)
(-2.66125e-06 -0 -0)
(-2.66596e-06 -0 -0)
(-2.66955e-06 -0 -0)
(-2.67122e-06 -0 -0)
(-2.36858e-06 -0 -0)
(-2.39499e-06 -0 -0)
(-2.43882e-06 -0 -0)
(-2.48763e-06 -0 -0)
(-2.53158e-06 -0 -0)
(-2.56593e-06 -0 -0)
(-2.59032e-06 -0 -0)
(-2.60668e-06 -0 -0)
(-2.61753e-06 -0 -0)
(-2.62503e-06 -0 -0)
(-2.63074e-06 -0 -0)
(-2.63566e-06 -0 -0)
(-2.64039e-06 -0 -0)
(-2.64526e-06 -0 -0)
(-2.65038e-06 -0 -0)
(-2.6557e-06 -0 -0)
(-2.66094e-06 -0 -0)
(-2.66564e-06 -0 -0)
(-2.66925e-06 -0 -0)
(-2.67121e-06 -0 -0)
(-2.36859e-06 -0 -0)
(-2.36859e-06 -0 -0)
(-2.36859e-06 -0 -0)
(-2.36859e-06 -0 -0)
(-2.36859e-06 -0 -0)
(-2.36859e-06 -0 -0)
(-2.36859e-06 -0 -0)
(-2.36859e-06 -0 -0)
(-2.36859e-06 -0 -0)
(-2.36859e-06 -0 -0)
(-2.36859e-06 -0 -0)
(-2.36858e-06 -0 -0)
(-2.36858e-06 -0 -0)
(-2.36858e-06 -0 -0)
(-2.36858e-06 -0 -0)
(-2.36858e-06 -0 -0)
(-2.36858e-06 -0 -0)
(-2.36858e-06 -0 -0)
(-2.36858e-06 -0 -0)
(-2.36858e-06 -0 -0)
)
;
    }
    frontAndBack
    {
        type            empty;
    }
}


// ************************************************************************* //
