/*--------------------------------*- C++ -*----------------------------------*\
| =========                 |                                                 |
| \\      /  F ield         | OpenFOAM: The Open Source CFD Toolbox           |
|  \\    /   O peration     | Version:  2312                                  |
|   \\  /    A nd           | Website:  www.openfoam.com                      |
|    \\/     M anipulation  |                                                 |
\*---------------------------------------------------------------------------*/
FoamFile
{
    version     2.0;
    format      ascii;
    arch        "LSB;label=32;scalar=64";
    class       volTensorField;
    location    "10";
    object      kU2;
}
// * * * * * * * * * * * * * * * * * * * * * * * * * * * * * * * * * * * * * //

dimensions      [0 4 -4 0 0 0 0];

internalField   nonuniform List<tensor> 
400
(
(2.36859e-06 -4.12119e-19 -0 -4.13274e-19 7.1907e-32 0 -0 0 0)
(2.36859e-06 8.90778e-20 -0 8.90542e-20 3.34915e-33 -0 -0 -0 0)
(2.36859e-06 -2.10587e-20 -0 -2.11363e-20 1.8792e-34 0 -0 0 0)
(2.36859e-06 4.52244e-21 -0 4.41861e-21 8.43664e-36 -0 -0 -0 0)
(2.36859e-06 -1.10415e-21 -0 -1.25303e-21 5.84119e-37 0 -0 0 0)
(2.36859e-06 -1.99943e-22 -0 -3.09701e-22 2.61432e-38 0 -0 0 0)
(2.36859e-06 -5.69418e-22 -0 -4.86771e-22 1.17022e-37 0 -0 0 0)
(2.36859e-06 -3.37348e-22 -0 -3.41838e-22 4.86867e-38 0 -0 0 0)
(2.36859e-06 -3.57352e-22 -0 -3.68692e-22 5.56251e-38 0 -0 0 0)
(2.36859e-06 -3.45277e-22 -0 -1.88413e-22 2.74656e-38 0 -0 0 0)
(2.36859e-06 -6.31203e-24 -0 6.57552e-23 -1.75231e-40 -0 -0 0 0)
(2.36858e-06 -2.00537e-23 -0 -1.86884e-22 1.58226e-39 0 -0 0 0)
(2.36858e-06 -3.31095e-22 -0 -4.39796e-22 6.14774e-38 0 -0 0 0)
(2.36858e-06 -3.90623e-22 -0 -2.8988e-22 4.78065e-38 0 -0 0 0)
(2.36858e-06 -1.24047e-22 -0 6.5452e-23 -3.42785e-39 -0 -0 0 0)
(2.36858e-06 1.92916e-23 -0 1.74222e-22 1.419e-39 -0 -0 -0 0)
(2.36858e-06 1.55318e-22 -0 -5.78842e-23 -3.79571e-39 0 -0 -0 0)
(2.36858e-06 -7.8832e-23 -0 -1.8697e-22 6.2228e-39 0 -0 0 0)
(2.36858e-06 -1.60484e-22 -0 -1.54e-22 1.04343e-38 0 -0 0 0)
(2.36858e-06 -2.76095e-23 -0 2.81037e-23 -3.27592e-40 -0 -0 0 0)
(2.39524e-06 -2.37883e-20 -0 -2.40841e-20 2.39191e-34 0 -0 0 0)
(2.39524e-06 5.27128e-21 -0 4.9519e-21 1.08978e-35 -0 -0 -0 0)
(2.39519e-06 -9.74179e-22 -0 -1.19673e-21 4.86736e-37 0 -0 0 0)
(2.39518e-06 7.03938e-22 -0 4.37542e-22 1.28593e-37 -0 -0 -0 0)
(2.39515e-06 3.23659e-22 -0 3.69561e-23 4.99392e-39 -0 -0 -0 0)
(2.39513e-06 2.69089e-23 -0 -1.82797e-22 -2.0537e-39 0 -0 -0 0)
(2.39511e-06 -2.68348e-22 -0 -4.76302e-22 5.3365e-38 0 -0 0 0)
(2.39509e-06 -3.69765e-22 -0 -5.2222e-22 8.06226e-38 0 -0 0 0)
(2.39507e-06 -6.04149e-22 -0 -6.33889e-22 1.59896e-37 0 -0 0 0)
(2.39506e-06 -6.87767e-22 -0 -5.12494e-22 1.47168e-37 0 -0 0 0)
(2.39504e-06 -2.86453e-22 -0 -7.32449e-23 8.76028e-39 0 -0 0 0)
(2.39504e-06 -1.43341e-22 -0 -2.27062e-23 1.35894e-39 0 -0 0 0)
(2.39502e-06 -1.29793e-22 -0 -1.2469e-22 6.75732e-39 0 -0 0 0)
(2.39502e-06 -1.15356e-22 -0 -2.72653e-22 1.31323e-38 0 -0 0 0)
(2.395e-06 -1.64337e-22 -0 -3.1369e-22 2.15244e-38 0 -0 0 0)
(2.395e-06 -3.18215e-22 -0 -2.85762e-22 3.79681e-38 0 -0 0 0)
(2.39499e-06 -1.09139e-22 -0 -1.31928e-22 6.01188e-39 0 -0 0 0)
(2.39499e-06 -5.69081e-25 -0 -6.48021e-23 1.53978e-41 0 -0 0 0)
(2.39499e-06 1.54748e-22 -0 1.50407e-22 9.71829e-39 -0 -0 -0 0)
(2.39499e-06 1.44641e-22 -0 2.0102e-22 1.21403e-38 -0 -0 -0 0)
(2.43908e-06 3.87872e-19 -0 3.87314e-19 6.15923e-32 -0 -0 -0 0)
(2.43908e-06 -8.46509e-20 -0 -8.51761e-20 2.95613e-33 0 -0 0 0)
(2.43903e-06 2.04864e-20 -0 2.01032e-20 1.68855e-34 -0 -0 -0 0)
(2.43902e-06 -4.07455e-21 -0 -4.39422e-21 7.34086e-36 0 -0 0 0)
(2.43898e-06 1.21349e-21 -0 1.09438e-21 5.44499e-37 -0 -0 -0 0)
(2.43897e-06 7.28888e-23 -0 -1.50969e-23 -4.51172e-40 0 -0 -0 0)
(2.43894e-06 2.72983e-22 -0 -1.63072e-22 -1.82521e-38 0 -0 -0 0)
(2.43893e-06 -2.59713e-22 -0 -5.77849e-22 6.15331e-38 0 -0 0 0)
(2.4389e-06 -5.63735e-22 -0 -5.99815e-22 1.38643e-37 0 -0 0 0)
(2.4389e-06 -5.55716e-22 -0 -4.66015e-22 1.06184e-37 0 -0 0 0)
(2.43887e-06 -3.45252e-22 -0 -3.56802e-22 5.05097e-38 0 -0 0 0)
(2.43887e-06 -2.82677e-22 -0 -3.11296e-22 3.60807e-38 0 -0 0 0)
(2.43885e-06 -3.23324e-22 -0 -2.89838e-22 3.84245e-38 0 -0 0 0)
(2.43884e-06 -4.57403e-22 -0 -5.41288e-22 1.01518e-37 0 -0 0 0)
(2.43883e-06 -5.58024e-22 -0 -6.59152e-22 1.50819e-37 0 -0 0 0)
(2.43883e-06 -3.68748e-22 -0 -4.34924e-22 6.57601e-38 0 -0 0 0)
(2.43882e-06 -1.10389e-22 -0 -2.64452e-23 1.197e-39 0 -0 0 0)
(2.43882e-06 1.39202e-22 -0 1.04443e-22 5.96134e-39 -0 -0 -0 0)
(2.43882e-06 4.18282e-22 -0 3.88265e-22 6.65915e-38 -0 -0 -0 0)
(2.43882e-06 3.49649e-22 -0 3.55384e-22 5.09508e-38 -0 -0 -0 0)
(2.48791e-06 -2.75988e-19 -0 -2.76517e-19 3.06746e-32 0 -0 0 0)
(2.48791e-06 6.13849e-20 -0 6.09727e-20 1.5044e-33 -0 -0 -0 0)
(2.48786e-06 -1.33965e-20 -0 -1.35122e-20 7.27603e-35 0 -0 0 0)
(2.48784e-06 3.79016e-21 -0 3.54817e-21 5.40554e-36 -0 -0 -0 0)
(2.48781e-06 -2.83551e-22 -0 -5.07646e-22 5.78596e-38 0 -0 0 0)
(2.48779e-06 5.26959e-22 -0 3.04434e-22 6.44846e-38 -0 -0 -0 0)
(2.48777e-06 9.37941e-23 -0 -2.12821e-22 -8.02381e-39 0 -0 -0 0)
(2.48775e-06 -1.47902e-22 -0 -4.02926e-22 2.39549e-38 0 -0 0 0)
(2.48773e-06 -4.32636e-22 -0 -4.25981e-22 7.40816e-38 0 -0 0 0)
(2.48771e-06 -3.16992e-22 -0 -2.91374e-22 3.71278e-38 0 -0 0 0)
(2.48769e-06 -3.71079e-22 -0 -4.08535e-22 6.09395e-38 0 -0 0 0)
(2.48769e-06 -3.09411e-22 -0 -4.88757e-22 6.07903e-38 0 -0 0 0)
(2.48767e-06 -3.33277e-22 -0 -4.65423e-22 6.23535e-38 0 -0 0 0)
(2.48766e-06 -4.70564e-22 -0 -4.01533e-22 7.59537e-38 0 -0 0 0)
(2.48765e-06 -4.14672e-22 -0 -2.22957e-22 3.71652e-38 0 -0 0 0)
(2.48765e-06 -5.96419e-23 -0 -1.20364e-22 2.88576e-39 0 -0 0 0)
(2.48764e-06 1.46209e-22 -0 -7.62423e-23 -4.48109e-39 0 -0 -0 0)
(2.48764e-06 5.43169e-23 -0 -1.24181e-22 -2.71145e-39 0 -0 -0 0)
(2.48763e-06 9.70824e-23 -0 3.33909e-23 1.30311e-39 -0 -0 -0 0)
(2.48763e-06 2.01259e-22 -0 2.1973e-22 1.7777e-38 -0 -0 -0 0)
(2.53186e-06 -4.69153e-20 -0 -4.59597e-20 8.5163e-34 0 -0 0 0)
(2.53187e-06 1.27292e-20 -0 1.21516e-20 6.10932e-35 -0 -0 -0 0)
(2.53181e-06 -2.37861e-21 -0 -2.43658e-21 2.28915e-36 0 -0 0 0)
(2.5318e-06 1.08136e-21 -0 7.57332e-22 3.23466e-37 -0 -0 -0 0)
(2.53176e-06 -5.99124e-23 -0 -4.13684e-22 9.78957e-39 0 -0 0 0)
(2.53175e-06 1.47386e-22 -0 3.46745e-23 2.01859e-39 -0 -0 -0 0)
(2.53171e-06 6.11699e-23 -0 6.07215e-23 1.46712e-39 -0 -0 -0 0)
(2.53171e-06 2.42069e-22 -0 8.6117e-23 8.23408e-39 -0 -0 -0 0)
(2.53167e-06 1.23043e-22 -0 -1.24582e-22 -6.05485e-39 0 -0 -0 0)
(2.53167e-06 -2.46871e-22 -0 -5.85373e-22 5.70817e-38 0 -0 0 0)
(2.53164e-06 -9.43834e-22 -0 -9.16433e-22 3.4166e-37 0 -0 0 0)
(2.53163e-06 -7.49217e-22 -0 -5.06151e-22 1.49791e-37 0 -0 0 0)
(2.53162e-06 -2.16293e-22 -0 -9.95688e-23 8.50684e-39 0 -0 0 0)
(2.53161e-06 1.47212e-22 -0 9.26167e-23 5.38563e-39 -0 -0 -0 0)
(2.5316e-06 1.28207e-22 -0 6.07918e-23 3.07867e-39 -0 -0 -0 0)
(2.53159e-06 -4.17918e-23 -0 -9.24347e-23 1.52592e-39 0 -0 0 0)
(2.53159e-06 7.22686e-23 -0 -5.87854e-23 -1.67813e-39 0 -0 -0 0)
(2.53158e-06 2.70356e-22 -0 9.02909e-23 9.64245e-39 -0 -0 -0 0)
(2.53158e-06 1.18785e-22 -0 1.20218e-24 5.64079e-41 -0 -0 -0 0)
(2.53158e-06 -7.71259e-23 -0 -1.87983e-23 5.72698e-40 0 -0 0 0)
(2.56623e-06 3.58432e-19 -0 3.58418e-19 5.00614e-32 -0 -0 -0 0)
(2.56623e-06 -7.82227e-20 -0 -7.86501e-20 2.39738e-33 0 -0 0 0)
(2.56617e-06 1.87964e-20 -0 1.82633e-20 1.33773e-34 -0 -0 -0 0)
(2.56615e-06 -4.01202e-21 -0 -4.43896e-21 6.94003e-36 0 -0 0 0)
(2.56612e-06 7.08307e-22 -0 5.0187e-22 1.38527e-37 -0 -0 -0 0)
(2.5661e-06 -4.05538e-22 -0 -4.45655e-22 7.043e-38 0 -0 0 0)
(2.56608e-06 -4.53531e-23 -0 1.47308e-22 -2.60354e-39 -0 -0 0 0)
(2.56605e-06 1.6355e-22 -0 1.64705e-22 1.04976e-38 -0 -0 -0 0)
(2.56603e-06 3.19916e-22 -0 8.08788e-23 1.00834e-38 -0 -0 -0 0)
(2.56602e-06 1.69943e-23 -0 -1.95322e-22 -1.29358e-39 0 -0 -0 0)
(2.566e-06 -2.92491e-22 -0 -4.68408e-22 5.33926e-38 0 -0 0 0)
(2.56599e-06 -4.56643e-22 -0 -3.58365e-22 6.37747e-38 0 -0 0 0)
(2.56597e-06 -2.16923e-22 -0 3.07163e-23 -2.5967e-39 -0 -0 0 0)
(2.56596e-06 1.16125e-22 -0 1.72609e-22 7.81161e-39 -0 -0 -0 0)
(2.56595e-06 1.63653e-22 -0 2.34506e-23 1.49565e-39 -0 -0 -0 0)
(2.56595e-06 -3.33592e-23 -0 -3.42286e-23 4.44998e-40 0 -0 0 0)
(2.56594e-06 -3.59305e-23 -0 3.76361e-23 -5.27013e-40 -0 -0 0 0)
(2.56594e-06 2.74338e-22 -0 1.01522e-22 1.08542e-38 -0 -0 -0 0)
(2.56593e-06 1.14791e-22 -0 -8.93768e-23 -3.99842e-39 0 -0 -0 0)
(2.56593e-06 -2.32385e-22 -0 -2.0391e-22 1.84672e-38 0 -0 0 0)
(2.59062e-06 -4.11865e-19 -0 -4.12131e-19 6.55219e-32 0 -0 0 0)
(2.59062e-06 9.06953e-20 -0 9.04666e-20 3.16715e-33 -0 -0 -0 0)
(2.59057e-06 -2.04225e-20 -0 -2.10924e-20 1.6628e-34 0 -0 0 0)
(2.59055e-06 4.84994e-21 -0 4.47502e-21 8.37798e-36 -0 -0 -0 0)
(2.59051e-06 -1.11074e-21 -0 -1.27165e-21 5.45252e-37 0 -0 0 0)
(2.59049e-06 1.32558e-22 -0 1.89429e-22 9.69322e-39 -0 -0 -0 0)
(2.59046e-06 -4.43635e-23 -0 1.21363e-22 -2.07843e-39 -0 -0 0 0)
(2.59045e-06 7.67367e-23 -0 1.31506e-22 3.89561e-39 -0 -0 -0 0)
(2.59042e-06 4.37622e-23 -0 6.50483e-23 1.09892e-39 -0 -0 -0 0)
(2.59041e-06 1.27951e-22 -0 2.4502e-22 1.21025e-38 -0 -0 -0 0)
(2.59039e-06 3.83168e-22 -0 3.67766e-22 5.43997e-38 -0 -0 -0 0)
(2.59038e-06 1.29788e-22 -0 -8.34661e-23 -4.18197e-39 0 -0 -0 0)
(2.59036e-06 -7.13149e-23 -0 -1.6999e-22 4.67998e-39 0 -0 0 0)
(2.59036e-06 -1.32625e-22 -0 -1.12792e-22 5.77487e-39 0 -0 0 0)
(2.59034e-06 -2.59585e-22 -0 -2.32026e-22 2.32519e-38 0 -0 0 0)
(2.59034e-06 -3.9477e-22 -0 -3.96314e-22 6.03987e-38 0 -0 0 0)
(2.59033e-06 -3.66248e-22 -0 -1.44485e-22 2.04288e-38 0 -0 0 0)
(2.59033e-06 -6.63869e-23 -0 -1.26292e-22 3.23671e-39 0 -0 0 0)
(2.59032e-06 -6.77001e-23 -0 -3.54837e-22 9.27395e-39 0 -0 0 0)
(2.59032e-06 -1.57747e-22 -0 -2.78575e-22 1.69649e-38 0 -0 0 0)
(2.60699e-06 9.60316e-20 -0 9.80502e-20 3.6118e-33 -0 -0 -0 0)
(2.60699e-06 -1.80335e-20 -0 -1.87995e-20 1.30043e-34 0 -0 0 0)
(2.60693e-06 4.80861e-21 -0 4.44375e-21 8.1967e-36 -0 -0 -0 0)
(2.60691e-06 -7.85885e-22 -0 -1.1056e-21 3.33296e-37 0 -0 0 0)
(2.60688e-06 2.84908e-22 -0 6.73214e-23 7.3576e-39 -0 -0 -0 0)
(2.60686e-06 -4.76536e-24 -0 -1.26393e-22 2.31047e-40 0 -0 0 0)
(2.60683e-06 3.06634e-23 -0 2.25594e-22 2.6536e-39 -0 -0 -0 0)
(2.60681e-06 1.75108e-22 -0 2.5418e-22 1.70741e-38 -0 -0 -0 0)
(2.60679e-06 2.0045e-22 -0 2.08501e-22 1.60328e-38 -0 -0 -0 0)
(2.60677e-06 1.2285e-22 -0 1.71383e-22 8.07683e-39 -0 -0 -0 0)
(2.60675e-06 1.16891e-22 -0 1.78857e-22 8.02024e-39 -0 -0 -0 0)
(2.60674e-06 1.53327e-22 -0 1.35778e-23 7.98635e-40 -0 -0 -0 0)
(2.60672e-06 2.54393e-23 -0 -1.55946e-22 -1.5219e-39 0 -0 -0 0)
(2.60672e-06 -1.45747e-22 -0 -1.65508e-22 9.25386e-39 0 -0 0 0)
(2.6067e-06 -2.67147e-22 -0 -1.49605e-22 1.53323e-38 0 -0 0 0)
(2.6067e-06 -4.03386e-22 -0 -3.57179e-22 5.52733e-38 0 -0 0 0)
(2.60669e-06 -3.715e-22 -0 -2.97706e-22 4.24284e-38 0 -0 0 0)
(2.60669e-06 -1.26299e-22 -0 -5.77797e-24 2.79954e-40 0 -0 0 0)
(2.60669e-06 5.03832e-23 -0 -1.3605e-22 -2.62965e-39 0 -0 -0 0)
(2.60668e-06 -8.86007e-24 -0 -1.7535e-22 5.96012e-40 0 -0 0 0)
(2.61783e-06 2.75637e-19 -0 2.74909e-19 2.89458e-32 -0 -0 -0 0)
(2.61783e-06 -6.13459e-20 -0 -6.12187e-20 1.43459e-33 0 -0 0 0)
(2.61778e-06 1.44895e-20 -0 1.4424e-20 7.98372e-35 -0 -0 -0 0)
(2.61776e-06 -2.95562e-21 -0 -3.02004e-21 3.40982e-36 0 -0 0 0)
(2.61773e-06 1.18709e-21 -0 1.12703e-21 5.11089e-37 -0 -0 -0 0)
(2.6177e-06 2.40732e-22 -0 2.24247e-23 2.06225e-39 -0 -0 -0 0)
(2.61768e-06 1.93825e-22 -0 1.89548e-22 1.4035e-38 -0 -0 -0 0)
(2.61766e-06 2.84427e-22 -0 2.95069e-22 3.20613e-38 -0 -0 -0 0)
(2.61763e-06 3.84639e-22 -0 1.98507e-22 2.91689e-38 -0 -0 -0 0)
(2.61762e-06 6.94603e-23 -0 -1.83907e-22 -4.88009e-39 0 -0 -0 0)
(2.6176e-06 -2.50754e-22 -0 -3.5307e-22 3.38225e-38 0 -0 0 0)
(2.61758e-06 -1.18166e-22 -0 8.45942e-23 -3.81884e-39 -0 -0 0 0)
(2.61757e-06 1.45071e-22 -0 9.99178e-23 5.53766e-39 -0 -0 -0 0)
(2.61756e-06 -2.11021e-22 -0 -2.7571e-22 2.22271e-38 0 -0 0 0)
(2.61755e-06 -1.89591e-22 -0 -6.02914e-24 4.36695e-40 0 -0 0 0)
(2.61754e-06 3.94227e-23 -0 1.99702e-22 3.0077e-39 -0 -0 -0 0)
(2.61754e-06 1.1924e-22 -0 -3.79982e-23 -1.73098e-39 0 -0 -0 0)
(2.61753e-06 5.45546e-23 -0 -3.72673e-23 -7.76724e-40 0 -0 -0 0)
(2.61753e-06 -1.96704e-23 -0 9.68249e-23 -7.27628e-40 -0 -0 0 0)
(2.61753e-06 2.86189e-23 -0 -1.14347e-23 -1.25021e-40 0 -0 -0 0)
(2.62533e-06 -4.89141e-19 -0 -4.89979e-19 9.12908e-32 0 -0 0 0)
(2.62533e-06 1.07132e-19 -0 1.07531e-19 4.38805e-33 -0 -0 -0 0)
(2.62527e-06 -2.48195e-20 -0 -2.4776e-20 2.34234e-34 0 -0 0 0)
(2.62526e-06 5.94666e-21 -0 5.89949e-21 1.33633e-35 -0 -0 -0 0)
(2.62522e-06 -8.47013e-22 -0 -8.78129e-22 2.83323e-37 0 -0 0 0)
(2.6252e-06 5.74621e-22 -0 5.89772e-22 1.29093e-37 -0 -0 -0 0)
(2.62517e-06 2.52879e-22 -0 6.20027e-23 5.97262e-39 -0 -0 -0 0)
(2.62515e-06 2.79045e-22 -0 3.43455e-22 3.65082e-38 -0 -0 -0 0)
(2.62513e-06 4.77855e-22 -0 4.31494e-22 7.85452e-38 -0 -0 -0 0)
(2.62512e-06 3.47413e-22 -0 1.22606e-22 1.6226e-38 -0 -0 -0 0)
(2.62509e-06 1.87361e-23 -0 -1.98093e-22 -1.41385e-39 0 -0 -0 0)
(2.62509e-06 -2.12716e-22 -0 -2.22438e-22 1.80246e-38 0 -0 0 0)
(2.62507e-06 -4.22592e-22 -0 -4.35042e-22 7.00346e-38 0 -0 0 0)
(2.62506e-06 -6.2551e-22 -0 -6.45114e-22 1.5372e-37 0 -0 0 0)
(2.62504e-06 -6.23612e-22 -0 -4.5891e-22 1.0902e-37 0 -0 0 0)
(2.62504e-06 -2.39495e-22 -0 -2.55731e-24 2.33315e-40 0 -0 0 0)
(2.62503e-06 -9.81014e-24 -0 -7.90291e-24 2.95344e-41 0 -0 0 0)
(2.62503e-06 9.1883e-23 -0 -6.60766e-23 -2.31286e-39 0 -0 -0 0)
(2.62503e-06 -3.52679e-23 -0 5.75622e-23 -7.73361e-40 -0 -0 0 0)
(2.62503e-06 -3.83786e-23 -0 -7.26623e-23 1.06234e-39 0 -0 0 0)
(2.63104e-06 4.57789e-19 -0 4.59238e-19 7.99052e-32 -0 -0 -0 0)
(2.63104e-06 -9.94396e-20 -0 -9.93265e-20 3.75402e-33 0 -0 0 0)
(2.63099e-06 2.37164e-20 -0 2.40857e-20 2.17114e-34 -0 -0 -0 0)
(2.63097e-06 -4.35339e-21 -0 -4.14475e-21 6.85821e-36 0 -0 0 0)
(2.63093e-06 2.15909e-21 -0 2.08321e-21 1.7096e-36 -0 -0 -0 0)
(2.63091e-06 5.09248e-22 -0 1.33987e-22 2.5935e-38 -0 -0 -0 0)
(2.63088e-06 3.8583e-22 -0 -2.12978e-24 -3.12342e-40 0 -0 -0 0)
(2.63086e-06 -3.04308e-23 -0 -8.02009e-23 9.27671e-40 0 -0 0 0)
(2.63084e-06 2.7549e-23 -0 -2.04598e-23 -2.14247e-40 0 -0 -0 0)
(2.63083e-06 -4.69269e-23 -0 -1.74252e-22 3.1082e-39 0 -0 0 0)
(2.6308e-06 -2.28391e-22 -0 -1.51981e-22 1.31941e-38 0 -0 0 0)
(2.63079e-06 -2.74165e-22 -0 -1.81258e-22 1.88896e-38 0 -0 0 0)
(2.63077e-06 -2.56071e-22 -0 -7.71117e-23 7.50582e-39 0 -0 0 0)
(2.63077e-06 7.31635e-23 -0 1.95506e-22 5.43716e-39 -0 -0 -0 0)
(2.63075e-06 4.36726e-23 -0 2.24251e-23 3.72275e-40 -0 -0 -0 0)
(2.63075e-06 1.79834e-23 -0 6.28968e-23 4.29952e-40 -0 -0 -0 0)
(2.63074e-06 -4.30857e-23 -0 2.45785e-23 -4.02542e-40 -0 -0 0 0)
(2.63074e-06 -8.09619e-23 -0 6.18182e-23 -1.90247e-39 -0 -0 0 0)
(2.63074e-06 1.46281e-22 -0 1.46985e-22 8.17302e-39 -0 -0 -0 0)
(2.63074e-06 1.90283e-23 -0 -1.08721e-22 -7.86383e-40 0 -0 -0 0)
(2.63597e-06 -2.3051e-19 -0 -2.31605e-19 2.02534e-32 0 -0 0 0)
(2.63596e-06 4.91033e-20 -0 4.92846e-20 9.18083e-34 -0 -0 -0 0)
(2.63591e-06 -1.19305e-20 -0 -1.16466e-20 5.27142e-35 0 -0 0 0)
(2.63589e-06 2.45891e-21 -0 2.84185e-21 2.65104e-36 -0 -0 -0 0)
(2.63585e-06 -3.04515e-22 -0 -8.24706e-23 9.52766e-39 0 -0 0 0)
(2.63583e-06 3.80472e-22 -0 3.10146e-22 4.47683e-38 -0 -0 -0 0)
(2.6358e-06 4.58153e-23 -0 -1.5951e-22 -2.7726e-39 0 -0 -0 0)
(2.63578e-06 -1.68676e-22 -0 -3.37722e-22 2.16123e-38 0 -0 0 0)
(2.63576e-06 -2.63318e-22 -0 -3.6804e-22 3.6768e-38 0 -0 0 0)
(2.63575e-06 -2.15747e-22 -0 -2.86206e-22 2.34272e-38 0 -0 0 0)
(2.63573e-06 8.51156e-24 -0 -1.40894e-22 -4.54988e-40 0 -0 -0 0)
(2.63572e-06 -1.20506e-22 -0 -2.09341e-22 9.57112e-39 0 -0 0 0)
(2.6357e-06 -1.578e-22 -0 -9.5513e-23 5.71842e-39 0 -0 0 0)
(2.63569e-06 -1.27592e-22 -0 -7.31829e-23 3.54273e-39 0 -0 0 0)
(2.63567e-06 -1.01561e-22 -0 3.70373e-24 -1.42717e-40 -0 -0 0 0)
(2.63567e-06 1.53515e-22 -0 3.45201e-22 2.01063e-38 -0 -0 -0 0)
(2.63566e-06 2.42494e-22 -0 3.09897e-22 2.8512e-38 -0 -0 -0 0)
(2.63566e-06 -1.02898e-23 -0 1.10379e-22 -4.30928e-40 -0 -0 0 0)
(2.63566e-06 -1.0249e-22 -0 -8.40385e-23 3.26792e-39 0 -0 0 0)
(2.63566e-06 -1.63548e-22 -0 -7.96462e-23 4.94221e-39 0 -0 0 0)
(2.6407e-06 -1.03865e-19 -0 -1.04136e-19 4.09593e-33 0 -0 0 0)
(2.6407e-06 2.26176e-20 -0 2.24295e-20 1.92109e-34 -0 -0 -0 0)
(2.64064e-06 -5.27672e-21 -0 -5.42539e-21 1.08414e-35 0 -0 0 0)
(2.64062e-06 1.05412e-21 -0 9.42506e-22 3.76242e-37 -0 -0 -0 0)
(2.64058e-06 -6.16987e-22 -0 -4.81406e-22 1.12483e-37 0 -0 0 0)
(2.64057e-06 -2.00592e-22 -0 -5.09676e-24 3.87178e-40 0 -0 0 0)
(2.64054e-06 -1.80181e-22 -0 -8.6321e-23 5.89026e-39 0 -0 0 0)
(2.64052e-06 -2.62006e-23 -0 9.24793e-23 -9.17627e-40 -0 -0 0 0)
(2.64049e-06 1.27642e-22 -0 2.69173e-22 1.30119e-38 -0 -0 -0 0)
(2.64048e-06 4.17787e-22 -0 5.41981e-22 8.57543e-38 -0 -0 -0 0)
(2.64046e-06 6.84589e-22 -0 4.28952e-22 1.11214e-37 -0 -0 -0 0)
(2.64045e-06 4.21887e-22 -0 6.26675e-23 1.00129e-38 -0 -0 -0 0)
(2.64043e-06 3.04634e-23 -0 -1.97111e-22 -2.27412e-39 0 -0 -0 0)
(2.64042e-06 -1.41763e-22 -0 -1.92365e-22 1.0328e-38 0 -0 0 0)
(2.64041e-06 -9.23769e-23 -0 -2.7646e-23 9.67218e-40 0 -0 0 0)
(2.64041e-06 3.84883e-23 -0 -6.2703e-23 -9.14001e-40 0 -0 -0 0)
(2.64039e-06 -8.99981e-23 -0 -6.95096e-23 2.36924e-39 0 -0 0 0)
(2.64039e-06 -1.72864e-22 -0 6.18303e-23 -4.04797e-39 -0 -0 0 0)
(2.64039e-06 5.39533e-24 -0 1.01331e-22 2.07058e-40 -0 -0 -0 0)
(2.64039e-06 4.94487e-24 -0 5.47781e-24 1.02587e-41 -0 -0 -0 0)
(2.64557e-06 3.77061e-19 -0 3.7768e-19 5.3829e-32 -0 -0 -0 0)
(2.64557e-06 -8.23216e-20 -0 -8.23678e-20 2.56302e-33 0 -0 0 0)
(2.64551e-06 1.89475e-20 -0 1.90688e-20 1.36574e-34 -0 -0 -0 0)
(2.6455e-06 -4.30376e-21 -0 -4.41507e-21 7.18255e-36 0 -0 0 0)
(2.64546e-06 8.28431e-22 -0 6.8648e-22 2.14973e-37 -0 -0 -0 0)
(2.64544e-06 -1.72786e-22 -0 -1.49399e-22 9.75796e-39 0 -0 0 0)
(2.64541e-06 2.65036e-22 -0 5.06541e-22 5.07488e-38 -0 -0 -0 0)
(2.64539e-06 4.48178e-22 -0 5.28527e-22 8.95424e-38 -0 -0 -0 0)
(2.64536e-06 3.56733e-22 -0 2.56504e-22 3.45901e-38 -0 -0 -0 0)
(2.64535e-06 1.77473e-22 -0 5.93343e-23 3.98066e-39 -0 -0 -0 0)
(2.64533e-06 -2.91041e-23 -0 5.03627e-23 -5.54094e-40 -0 -0 0 0)
(2.64532e-06 9.75636e-23 -0 3.83524e-23 1.4145e-39 -0 -0 -0 0)
(2.6453e-06 2.36261e-22 -0 1.74039e-23 1.5544e-39 -0 -0 -0 0)
(2.64529e-06 2.98852e-22 -0 1.92311e-22 2.17263e-38 -0 -0 -0 0)
(2.64528e-06 3.52215e-22 -0 1.94351e-22 2.58776e-38 -0 -0 -0 0)
(2.64527e-06 5.21371e-23 -0 -1.6753e-22 -3.30193e-39 0 -0 -0 0)
(2.64526e-06 -1.62352e-22 -0 -6.78889e-23 4.16666e-39 0 -0 0 0)
(2.64526e-06 -1.62597e-24 -0 1.65442e-22 -1.01692e-40 -0 -0 0 0)
(2.64526e-06 1.96405e-22 -0 3.69863e-22 2.74615e-38 -0 -0 -0 0)
(2.64526e-06 2.85359e-22 -0 1.2158e-22 1.31155e-38 -0 -0 -0 0)
(2.6507e-06 -4.67964e-19 -0 -4.68523e-19 8.27147e-32 0 -0 0 0)
(2.6507e-06 1.02171e-19 -0 1.02508e-19 3.95113e-33 -0 -0 -0 0)
(2.65064e-06 -2.41395e-20 -0 -2.41011e-20 2.1949e-34 0 -0 0 0)
(2.65062e-06 5.28879e-21 -0 5.27721e-21 1.05296e-35 -0 -0 -0 0)
(2.65058e-06 -1.03015e-21 -0 -1.2295e-21 4.77845e-37 0 -0 0 0)
(2.65056e-06 4.52669e-22 -0 2.91814e-22 4.98366e-38 -0 -0 -0 0)
(2.65053e-06 3.72677e-22 -0 3.1749e-22 4.46405e-38 -0 -0 -0 0)
(2.65051e-06 4.44548e-22 -0 3.01653e-22 5.05937e-38 -0 -0 -0 0)
(2.65049e-06 3.3004e-22 -0 2.59265e-22 3.22838e-38 -0 -0 -0 0)
(2.65047e-06 2.44715e-22 -0 1.78419e-22 1.64733e-38 -0 -0 -0 0)
(2.65045e-06 1.55967e-22 -0 1.15384e-22 6.78981e-39 -0 -0 -0 0)
(2.65044e-06 -2.10714e-23 -0 -9.15621e-23 7.27933e-40 0 -0 0 0)
(2.65043e-06 -7.49734e-23 -0 -7.94562e-23 2.2476e-39 0 -0 0 0)
(2.65041e-06 7.8021e-23 -0 -1.14197e-22 -3.36164e-39 0 -0 -0 0)
(2.65041e-06 2.6807e-23 -0 -2.94919e-22 -2.98289e-39 0 -0 -0 0)
(2.6504e-06 -2.58922e-22 -0 -3.05261e-22 2.98215e-38 0 -0 0 0)
(2.65039e-06 -8.70371e-23 -0 8.57008e-23 -2.81436e-39 -0 -0 0 0)
(2.65039e-06 1.72351e-22 -0 1.99775e-22 1.29911e-38 -0 -0 -0 0)
(2.65039e-06 8.70117e-23 -0 9.46509e-23 3.10737e-39 -0 -0 -0 0)
(2.65038e-06 3.19927e-23 -0 4.61761e-23 5.5739e-40 -0 -0 -0 0)
(2.65601e-06 2.4048e-19 -0 2.40275e-19 2.1755e-32 -0 -0 -0 0)
(2.65601e-06 -5.32561e-20 -0 -5.32632e-20 1.06799e-33 0 -0 0 0)
(2.65595e-06 1.21567e-20 -0 1.21463e-20 5.55955e-35 -0 -0 -0 0)
(2.65594e-06 -3.12083e-21 -0 -3.12052e-21 3.66673e-36 0 -0 0 0)
(2.6559e-06 3.88948e-22 -0 3.0417e-22 4.45447e-38 -0 -0 -0 0)
(2.65588e-06 -2.97293e-22 -0 -3.5608e-22 3.98588e-38 0 -0 0 0)
(2.65585e-06 8.95711e-23 -0 -7.1739e-23 -2.41947e-39 0 -0 -0 0)
(2.65583e-06 -3.25038e-23 -0 -2.76443e-24 3.3833e-41 0 -0 0 0)
(2.65581e-06 9.69365e-23 -0 3.61555e-22 1.31967e-38 -0 -0 -0 0)
(2.65579e-06 4.87739e-22 -0 6.43802e-22 1.18235e-37 -0 -0 -0 0)
(2.65577e-06 6.60461e-22 -0 6.43888e-22 1.60128e-37 -0 -0 -0 0)
(2.65576e-06 4.72669e-22 -0 3.37343e-22 6.004e-38 -0 -0 -0 0)
(2.65574e-06 1.81929e-22 -0 2.00431e-22 1.37303e-38 -0 -0 -0 0)
(2.65573e-06 2.81499e-22 -0 2.60723e-22 2.76359e-38 -0 -0 -0 0)
(2.65572e-06 3.17332e-22 -0 2.12228e-23 2.53591e-39 -0 -0 -0 0)
(2.65571e-06 5.65509e-24 -0 -1.5539e-22 -3.30887e-40 0 -0 -0 0)
(2.6557e-06 -3.06464e-23 -0 -1.3863e-22 1.59977e-39 0 -0 0 0)
(2.6557e-06 -2.16011e-23 -0 -1.03182e-22 8.39266e-40 0 -0 0 0)
(2.6557e-06 2.16723e-23 -0 -1.39464e-24 -1.13812e-41 0 -0 -0 0)
(2.6557e-06 2.72897e-24 -0 8.6054e-23 8.84283e-41 -0 -0 -0 0)
(2.66125e-06 1.59926e-19 -0 1.60877e-19 9.66779e-33 -0 -0 -0 0)
(2.66125e-06 -3.46795e-20 -0 -3.46508e-20 4.51543e-34 0 -0 0 0)
(2.66119e-06 7.89113e-21 -0 8.14442e-21 2.41504e-35 -0 -0 -0 0)
(2.66118e-06 -1.82008e-21 -0 -1.75067e-21 1.19735e-36 0 -0 0 0)
(2.66114e-06 5.54405e-22 -0 4.08311e-22 8.5065e-38 -0 -0 -0 0)
(2.66111e-06 7.44201e-23 -0 3.29635e-23 9.21849e-40 -0 -0 -0 0)
(2.66109e-06 2.89346e-22 -0 2.44855e-22 2.66236e-38 -0 -0 -0 0)
(2.66107e-06 2.5225e-22 -0 2.74525e-22 2.6023e-38 -0 -0 -0 0)
(2.66104e-06 2.11362e-22 -0 2.91439e-22 2.31484e-38 -0 -0 -0 0)
(2.66103e-06 1.64804e-22 -0 5.58237e-23 3.4573e-39 -0 -0 -0 0)
(2.66101e-06 -4.14585e-23 -0 -1.46587e-22 2.28382e-39 0 -0 0 0)
(2.661e-06 -8.9197e-23 -0 -6.86729e-23 2.30192e-39 0 -0 0 0)
(2.66098e-06 -6.87993e-23 -0 6.70012e-23 -1.73231e-39 -0 -0 0 0)
(2.66097e-06 1.97348e-22 -0 4.40917e-22 3.27001e-38 -0 -0 -0 0)
(2.66095e-06 5.11633e-22 -0 4.86291e-22 9.35013e-38 -0 -0 -0 0)
(2.66095e-06 4.23054e-22 -0 2.54724e-22 4.04975e-38 -0 -0 -0 0)
(2.66094e-06 1.55913e-22 -0 -1.19004e-22 -6.97284e-39 0 -0 -0 0)
(2.66094e-06 3.67509e-23 -0 -3.36557e-22 -4.64827e-39 0 -0 -0 0)
(2.66094e-06 -9.28618e-24 -0 -1.31326e-23 4.58302e-41 0 -0 0 0)
(2.66094e-06 9.77807e-23 -0 1.56884e-22 5.76498e-39 -0 -0 -0 0)
(2.66596e-06 -4.15025e-19 -0 -4.16122e-19 6.47801e-32 0 -0 0 0)
(2.66596e-06 8.88194e-20 -0 8.94595e-20 2.98044e-33 -0 -0 -0 0)
(2.66589e-06 -2.09203e-20 -0 -2.10031e-20 1.64819e-34 0 -0 0 0)
(2.66589e-06 4.41935e-21 -0 4.49285e-21 7.44799e-36 -0 -0 -0 0)
(2.66584e-06 -1.1146e-21 -0 -1.0596e-21 4.43025e-37 0 -0 0 0)
(2.66583e-06 1.59837e-22 -0 1.87685e-22 1.12532e-38 -0 -0 -0 0)
(2.66579e-06 -3.95151e-23 -0 -4.80668e-23 7.12497e-40 0 -0 0 0)
(2.66578e-06 3.10584e-22 -0 2.80439e-22 3.26734e-38 -0 -0 -0 0)
(2.66575e-06 2.6314e-22 -0 2.1822e-22 2.15408e-38 -0 -0 -0 0)
(2.66573e-06 7.03385e-23 -0 4.79513e-23 1.26525e-39 -0 -0 -0 0)
(2.66571e-06 9.77127e-25 -0 5.04428e-23 1.849e-41 -0 -0 -0 0)
(2.6657e-06 6.80882e-23 -0 2.95054e-22 7.53637e-39 -0 -0 -0 0)
(2.66568e-06 2.8836e-22 -0 5.0313e-22 5.4426e-38 -0 -0 -0 0)
(2.66567e-06 5.99366e-22 -0 3.69585e-22 8.30998e-38 -0 -0 -0 0)
(2.66566e-06 2.97718e-22 -0 2.09755e-23 2.34268e-39 -0 -0 -0 0)
(2.66566e-06 2.18786e-22 -0 2.44635e-22 2.00786e-38 -0 -0 -0 0)
(2.66565e-06 3.43464e-22 -0 9.1634e-23 1.18069e-38 -0 -0 -0 0)
(2.66565e-06 9.45329e-23 -0 -2.09859e-22 -7.44231e-39 0 -0 -0 0)
(2.66564e-06 -1.78859e-22 -0 -1.46138e-22 9.80555e-39 0 -0 0 0)
(2.66564e-06 -6.15092e-23 -0 4.07531e-24 -9.4037e-41 -0 -0 0 0)
(2.66955e-06 1.31796e-19 -0 1.31676e-19 6.50084e-33 -0 -0 -0 0)
(2.66956e-06 -2.75037e-20 -0 -2.75293e-20 2.83627e-34 0 -0 0 0)
(2.6695e-06 6.55778e-21 -0 6.528e-21 1.60364e-35 -0 -0 -0 0)
(2.66948e-06 -1.58064e-21 -0 -1.48631e-21 8.80065e-37 0 -0 0 0)
(2.66944e-06 1.08609e-22 -0 1.99861e-22 8.13156e-39 -0 -0 -0 0)
(2.66943e-06 -1.67929e-22 -0 -9.53161e-23 5.99615e-39 0 -0 0 0)
(2.66939e-06 -8.44431e-23 -0 2.13628e-23 -6.75788e-40 -0 -0 0 0)
(2.66938e-06 2.16463e-22 -0 2.70378e-22 2.19252e-38 -0 -0 -0 0)
(2.66935e-06 1.66827e-22 -0 1.58532e-22 9.90779e-39 -0 -0 -0 0)
(2.66934e-06 1.15894e-22 -0 2.80354e-22 1.21721e-38 -0 -0 -0 0)
(2.66931e-06 3.61762e-22 -0 5.47904e-22 7.42554e-38 -0 -0 -0 0)
(2.6693e-06 4.52764e-22 -0 6.37028e-22 1.08052e-37 -0 -0 -0 0)
(2.66929e-06 5.51486e-22 -0 5.71427e-22 1.18059e-37 -0 -0 -0 0)
(2.66928e-06 5.38584e-22 -0 2.10303e-22 4.24332e-38 -0 -0 -0 0)
(2.66927e-06 2.53078e-22 -0 -3.79961e-23 -3.60248e-39 0 -0 -0 0)
(2.66926e-06 1.51829e-22 -0 9.26396e-23 5.26938e-39 -0 -0 -0 0)
(2.66925e-06 2.57187e-22 -0 1.97856e-22 1.90638e-38 -0 -0 -0 0)
(2.66925e-06 2.7179e-22 -0 2.37283e-22 2.41608e-38 -0 -0 -0 0)
(2.66925e-06 8.48459e-23 -0 1.00631e-22 3.19872e-39 -0 -0 -0 0)
(2.66925e-06 -2.50004e-23 -0 8.52083e-23 -7.98069e-40 -0 -0 0 0)
(2.67122e-06 3.10959e-19 -0 3.11946e-19 3.6314e-32 -0 -0 -0 0)
(2.67121e-06 -6.52996e-20 -0 -6.54912e-20 1.60097e-33 0 -0 0 0)
(2.67121e-06 1.59792e-20 -0 1.60772e-20 9.61735e-35 -0 -0 -0 0)
(2.67121e-06 -2.86789e-21 -0 -2.8521e-21 3.06209e-36 0 -0 0 0)
(2.67121e-06 1.1999e-21 -0 1.08102e-21 4.85592e-37 -0 -0 -0 0)
(2.67121e-06 2.37137e-22 -0 1.20618e-22 1.07079e-38 -0 -0 -0 0)
(2.67121e-06 2.3637e-22 -0 2.15719e-22 1.90885e-38 -0 -0 -0 0)
(2.67121e-06 1.83472e-22 -0 1.26102e-22 8.66129e-39 -0 -0 -0 0)
(2.67121e-06 6.78857e-23 -0 -1.50053e-23 -3.81341e-40 0 -0 -0 0)
(2.67121e-06 -6.55663e-23 -0 -6.6009e-23 1.62023e-39 0 -0 0 0)
(2.67121e-06 -6.55473e-23 -0 -4.81434e-23 1.18136e-39 0 -0 0 0)
(2.67121e-06 -1.12813e-22 -0 -5.74097e-23 2.42457e-39 0 -0 0 0)
(2.67121e-06 -1.22792e-22 -0 -1.32335e-22 6.08325e-39 0 -0 0 0)
(2.67121e-06 -1.55537e-22 -0 -5.78518e-23 3.36855e-39 0 -0 0 0)
(2.67121e-06 1.55853e-22 -0 2.52949e-22 1.47584e-38 -0 -0 -0 0)
(2.67121e-06 2.52551e-22 -0 4.13782e-23 3.91213e-39 -0 -0 -0 0)
(2.67121e-06 6.37429e-23 -0 8.3663e-23 1.99644e-39 -0 -0 -0 0)
(2.67121e-06 1.94901e-22 -0 2.62626e-22 1.91622e-38 -0 -0 -0 0)
(2.67121e-06 2.78384e-22 -0 2.46506e-22 2.56899e-38 -0 -0 -0 0)
(2.67121e-06 1.13947e-22 -0 1.60026e-22 6.82627e-39 -0 -0 -0 0)
)
;

boundaryField
{
    movingWall
    {
        type            calculated;
        value           nonuniform List<tensor> 
20
(
(2.67122e-06 0 0 0 0 0 0 0 0)
(2.67121e-06 0 0 0 0 0 0 0 0)
(2.67121e-06 0 0 0 0 0 0 0 0)
(2.67121e-06 0 0 0 0 0 0 0 0)
(2.67121e-06 0 0 0 0 0 0 0 0)
(2.67121e-06 0 0 0 0 0 0 0 0)
(2.67121e-06 0 0 0 0 0 0 0 0)
(2.67121e-06 0 0 0 0 0 0 0 0)
(2.67121e-06 0 0 0 0 0 0 0 0)
(2.67121e-06 0 0 0 0 0 0 0 0)
(2.67121e-06 0 0 0 0 0 0 0 0)
(2.67121e-06 0 0 0 0 0 0 0 0)
(2.67121e-06 0 0 0 0 0 0 0 0)
(2.67121e-06 0 0 0 0 0 0 0 0)
(2.67121e-06 0 0 0 0 0 0 0 0)
(2.67121e-06 0 0 0 0 0 0 0 0)
(2.67121e-06 0 0 0 0 0 0 0 0)
(2.67121e-06 0 0 0 0 0 0 0 0)
(2.67121e-06 0 0 0 0 0 0 0 0)
(2.67121e-06 0 0 0 0 0 0 0 0)
)
;
    }
    fixedWalls
    {
        type            calculated;
        value           nonuniform List<tensor> 
60
(
(2.36859e-06 0 0 0 0 0 0 0 0)
(2.39524e-06 0 0 0 0 0 0 0 0)
(2.43908e-06 0 0 0 0 0 0 0 0)
(2.48791e-06 0 0 0 0 0 0 0 0)
(2.53186e-06 0 0 0 0 0 0 0 0)
(2.56623e-06 0 0 0 0 0 0 0 0)
(2.59062e-06 0 0 0 0 0 0 0 0)
(2.60699e-06 0 0 0 0 0 0 0 0)
(2.61783e-06 0 0 0 0 0 0 0 0)
(2.62533e-06 0 0 0 0 0 0 0 0)
(2.63104e-06 0 0 0 0 0 0 0 0)
(2.63597e-06 0 0 0 0 0 0 0 0)
(2.6407e-06 0 0 0 0 0 0 0 0)
(2.64557e-06 0 0 0 0 0 0 0 0)
(2.6507e-06 0 0 0 0 0 0 0 0)
(2.65601e-06 0 0 0 0 0 0 0 0)
(2.66125e-06 0 0 0 0 0 0 0 0)
(2.66596e-06 0 0 0 0 0 0 0 0)
(2.66955e-06 0 0 0 0 0 0 0 0)
(2.67122e-06 0 0 0 0 0 0 0 0)
(2.36858e-06 0 0 0 0 0 0 0 0)
(2.39499e-06 0 0 0 0 0 0 0 0)
(2.43882e-06 0 0 0 0 0 0 0 0)
(2.48763e-06 0 0 0 0 0 0 0 0)
(2.53158e-06 0 0 0 0 0 0 0 0)
(2.56593e-06 0 0 0 0 0 0 0 0)
(2.59032e-06 0 0 0 0 0 0 0 0)
(2.60668e-06 0 0 0 0 0 0 0 0)
(2.61753e-06 0 0 0 0 0 0 0 0)
(2.62503e-06 0 0 0 0 0 0 0 0)
(2.63074e-06 0 0 0 0 0 0 0 0)
(2.63566e-06 0 0 0 0 0 0 0 0)
(2.64039e-06 0 0 0 0 0 0 0 0)
(2.64526e-06 0 0 0 0 0 0 0 0)
(2.65038e-06 0 0 0 0 0 0 0 0)
(2.6557e-06 0 0 0 0 0 0 0 0)
(2.66094e-06 0 0 0 0 0 0 0 0)
(2.66564e-06 0 0 0 0 0 0 0 0)
(2.66925e-06 0 0 0 0 0 0 0 0)
(2.67121e-06 0 0 0 0 0 0 0 0)
(2.36859e-06 0 0 0 0 0 0 0 0)
(2.36859e-06 0 0 0 0 0 0 0 0)
(2.36859e-06 0 0 0 0 0 0 0 0)
(2.36859e-06 0 0 0 0 0 0 0 0)
(2.36859e-06 0 0 0 0 0 0 0 0)
(2.36859e-06 0 0 0 0 0 0 0 0)
(2.36859e-06 0 0 0 0 0 0 0 0)
(2.36859e-06 0 0 0 0 0 0 0 0)
(2.36859e-06 0 0 0 0 0 0 0 0)
(2.36859e-06 0 0 0 0 0 0 0 0)
(2.36859e-06 0 0 0 0 0 0 0 0)
(2.36858e-06 0 0 0 0 0 0 0 0)
(2.36858e-06 0 0 0 0 0 0 0 0)
(2.36858e-06 0 0 0 0 0 0 0 0)
(2.36858e-06 0 0 0 0 0 0 0 0)
(2.36858e-06 0 0 0 0 0 0 0 0)
(2.36858e-06 0 0 0 0 0 0 0 0)
(2.36858e-06 0 0 0 0 0 0 0 0)
(2.36858e-06 0 0 0 0 0 0 0 0)
(2.36858e-06 0 0 0 0 0 0 0 0)
)
;
    }
    frontAndBack
    {
        type            empty;
    }
}


// ************************************************************************* //
