/*--------------------------------*- C++ -*----------------------------------*\
| =========                 |                                                 |
| \\      /  F ield         | OpenFOAM: The Open Source CFD Toolbox           |
|  \\    /   O peration     | Version:  2312                                  |
|   \\  /    A nd           | Website:  www.openfoam.com                      |
|    \\/     M anipulation  |                                                 |
\*---------------------------------------------------------------------------*/
FoamFile
{
    version     2.0;
    format      ascii;
    arch        "LSB;label=32;scalar=64";
    class       volScalarField;
    location    "10";
    object      L_P;
}
// * * * * * * * * * * * * * * * * * * * * * * * * * * * * * * * * * * * * * //

dimensions      [0 0 0 0 0 0 0];

internalField   nonuniform List<scalar> 
400
(
-212.011
-212.011
-212.011
-212.011
-212.011
-212.011
-212.011
-212.011
-212.011
-212.011
-212.011
-212.011
-212.011
-212.011
-212.011
-212.011
-212.011
-212.011
-212.011
-212.011
-211.817
-211.857
-211.854
-211.852
-211.85
-211.848
-211.845
-211.844
-211.841
-211.84
-211.837
-211.835
-211.833
-211.831
-211.828
-211.827
-211.824
-211.822
-211.821
-211.818
-211.501
-211.543
-211.539
-211.538
-211.535
-211.534
-211.531
-211.529
-211.526
-211.525
-211.522
-211.521
-211.518
-211.516
-211.513
-211.512
-211.509
-211.507
-211.506
-211.503
-211.157
-211.199
-211.195
-211.194
-211.191
-211.189
-211.187
-211.185
-211.182
-211.181
-211.178
-211.176
-211.173
-211.172
-211.169
-211.167
-211.164
-211.163
-211.161
-211.159
-210.853
-210.895
-210.891
-210.89
-210.887
-210.885
-210.883
-210.881
-210.878
-210.877
-210.874
-210.872
-210.869
-210.868
-210.865
-210.863
-210.86
-210.858
-210.857
-210.855
-210.618
-210.661
-210.657
-210.656
-210.653
-210.651
-210.649
-210.647
-210.644
-210.643
-210.64
-210.638
-210.635
-210.633
-210.63
-210.629
-210.626
-210.624
-210.623
-210.62
-210.454
-210.497
-210.493
-210.492
-210.489
-210.487
-210.484
-210.483
-210.48
-210.478
-210.475
-210.474
-210.471
-210.469
-210.466
-210.465
-210.462
-210.46
-210.458
-210.456
-210.345
-210.387
-210.384
-210.382
-210.379
-210.378
-210.375
-210.373
-210.371
-210.369
-210.366
-210.364
-210.361
-210.36
-210.357
-210.355
-210.352
-210.351
-210.349
-210.347
-210.272
-210.315
-210.312
-210.31
-210.307
-210.306
-210.303
-210.301
-210.298
-210.297
-210.294
-210.292
-210.289
-210.288
-210.285
-210.283
-210.28
-210.278
-210.277
-210.274
-210.223
-210.266
-210.262
-210.261
-210.258
-210.256
-210.253
-210.252
-210.249
-210.247
-210.244
-210.243
-210.24
-210.238
-210.235
-210.233
-210.23
-210.229
-210.227
-210.225
-210.185
-210.228
-210.224
-210.223
-210.22
-210.219
-210.216
-210.214
-210.211
-210.21
-210.207
-210.205
-210.202
-210.2
-210.197
-210.196
-210.193
-210.191
-210.189
-210.187
-210.153
-210.195
-210.192
-210.19
-210.188
-210.186
-210.183
-210.182
-210.179
-210.177
-210.174
-210.172
-210.169
-210.168
-210.165
-210.163
-210.16
-210.159
-210.157
-210.155
-210.121
-210.164
-210.161
-210.159
-210.156
-210.155
-210.152
-210.15
-210.147
-210.146
-210.143
-210.141
-210.138
-210.137
-210.134
-210.132
-210.129
-210.127
-210.126
-210.123
-210.089
-210.132
-210.129
-210.127
-210.124
-210.123
-210.12
-210.118
-210.115
-210.114
-210.111
-210.109
-210.106
-210.105
-210.102
-210.1
-210.097
-210.095
-210.094
-210.091
-210.056
-210.099
-210.095
-210.094
-210.091
-210.089
-210.086
-210.085
-210.082
-210.08
-210.077
-210.076
-210.073
-210.071
-210.068
-210.066
-210.063
-210.062
-210.06
-210.058
-210.021
-210.064
-210.06
-210.059
-210.056
-210.055
-210.052
-210.05
-210.047
-210.046
-210.043
-210.041
-210.038
-210.036
-210.033
-210.032
-210.029
-210.027
-210.025
-210.023
-209.987
-210.03
-210.026
-210.025
-210.022
-210.02
-210.017
-210.016
-210.013
-210.011
-210.008
-210.007
-210.004
-210.002
-209.999
-209.997
-209.994
-209.993
-209.991
-209.989
-209.956
-209.999
-209.996
-209.994
-209.991
-209.99
-209.987
-209.985
-209.982
-209.981
-209.978
-209.976
-209.973
-209.971
-209.968
-209.967
-209.964
-209.962
-209.96
-209.958
-209.933
-209.975
-209.971
-209.97
-209.967
-209.966
-209.963
-209.961
-209.958
-209.957
-209.954
-209.952
-209.949
-209.948
-209.945
-209.943
-209.94
-209.938
-209.937
-209.935
-209.922
-209.922
-209.922
-209.922
-209.922
-209.922
-209.922
-209.922
-209.922
-209.922
-209.922
-209.922
-209.922
-209.922
-209.922
-209.922
-209.922
-209.922
-209.922
-209.922
)
;

boundaryField
{
    movingWall
    {
        type            calculated;
        value           nonuniform List<scalar> 
20
(
-209.922
-209.922
-209.922
-209.922
-209.922
-209.922
-209.922
-209.922
-209.922
-209.922
-209.922
-209.922
-209.922
-209.922
-209.922
-209.922
-209.922
-209.922
-209.922
-209.922
)
;
    }
    fixedWalls
    {
        type            calculated;
        value           nonuniform List<scalar> 
60
(
-212.011
-211.817
-211.501
-211.157
-210.853
-210.618
-210.454
-210.345
-210.272
-210.223
-210.185
-210.153
-210.121
-210.089
-210.056
-210.021
-209.987
-209.956
-209.933
-209.922
-212.011
-211.818
-211.503
-211.159
-210.855
-210.62
-210.456
-210.347
-210.274
-210.225
-210.187
-210.155
-210.123
-210.091
-210.058
-210.023
-209.989
-209.958
-209.935
-209.922
-212.011
-212.011
-212.011
-212.011
-212.011
-212.011
-212.011
-212.011
-212.011
-212.011
-212.011
-212.011
-212.011
-212.011
-212.011
-212.011
-212.011
-212.011
-212.011
-212.011
)
;
    }
    frontAndBack
    {
        type            empty;
    }
}


// ************************************************************************* //
