/*--------------------------------*- C++ -*----------------------------------*\
| =========                 |                                                 |
| \\      /  F ield         | OpenFOAM: The Open Source CFD Toolbox           |
|  \\    /   O peration     | Version:  2312                                  |
|   \\  /    A nd           | Website:  www.openfoam.com                      |
|    \\/     M anipulation  |                                                 |
\*---------------------------------------------------------------------------*/
FoamFile
{
    version     2.0;
    format      ascii;
    arch        "LSB;label=32;scalar=64";
    class       volScalarField;
    location    "10";
    object      Lambda2Field;
}
// * * * * * * * * * * * * * * * * * * * * * * * * * * * * * * * * * * * * * //

dimensions      [0 0 -2 0 0 0 0];

internalField   nonuniform List<scalar> 
400
(
2.38673e-23
8.33336e-24
8.19157e-25
-7.18175e-26
3.24652e-26
-1.44563e-27
3.19617e-27
1.94189e-28
3.23893e-29
0
0
1.15706e-27
9.70411e-28
0
0
0
0
1.12349e-28
0
0
7.03654e-24
1.15035e-23
8.33969e-25
1.21965e-26
0
0
0
0
2.19973e-29
6.3448e-28
4.07516e-28
0
5.23712e-28
0
8.8756e-28
4.28772e-28
0
0
0
1.79171e-28
8.93859e-23
2.64408e-23
1.22654e-24
-2.67855e-26
9.73313e-27
-2.06021e-27
0
-1.91009e-27
4.97117e-28
8.10211e-28
3.43892e-28
5.72909e-28
2.23456e-28
-1.61919e-27
2.36416e-28
0
0
-4.55684e-28
9.50728e-29
8.26494e-28
4.74931e-23
2.46424e-23
1.11288e-24
8.66373e-26
0
9.63637e-28
2.84647e-28
3.73424e-29
6.3648e-28
1.90024e-29
0
-9.7277e-30
9.50327e-29
9.32552e-28
1.32631e-27
3.60989e-28
1.83129e-28
1.19455e-28
2.99726e-28
2.34535e-28
1.03066e-23
1.43484e-23
8.61062e-25
3.16682e-26
0
7.34684e-28
2.05388e-28
9.08223e-28
5.86959e-28
0
0
-2.59145e-27
0
0
1.98129e-28
-1.15746e-28
0
8.00745e-29
2.69998e-28
2.81559e-28
4.77568e-23
1.9932e-23
5.59146e-25
2.53725e-26
0
7.49016e-28
0
2.13307e-28
1.14089e-27
5.80219e-28
5.83309e-27
-8.47016e-28
0
1.53495e-29
2.18489e-28
0
0
1.34169e-28
0
1.00238e-28
4.64438e-23
1.64124e-23
1.83671e-26
0
7.34684e-28
-4.21592e-27
6.13477e-28
1.11023e-29
2.37557e-28
-4.32257e-28
1.56387e-27
-9.53399e-28
7.55863e-28
0
0
3.36179e-28
1.21049e-27
-6.4288e-28
0
6.62801e-28
9.53563e-25
2.39753e-24
1.82848e-25
0
8.843e-27
-1.22891e-28
3.98792e-28
0
8.49022e-28
0
7.75657e-28
0
2.10099e-28
0
0
6.37424e-29
6.24575e-29
0
1.22427e-27
0
1.3942e-23
5.09276e-24
0
6.68265e-26
0
1.70539e-27
1.70053e-28
0
9.91936e-28
5.74777e-28
0
-1.61065e-27
5.29739e-28
5.51602e-28
2.17451e-27
2.18198e-28
1.44139e-28
-2.73955e-28
0
0
1.68778e-23
8.76947e-24
0
2.6452e-26
0
9.70674e-28
5.5599e-28
3.81509e-28
0
-1.95003e-27
1.22129e-27
-8.76209e-28
0
2.73431e-28
0
-1.96696e-28
0
1.424e-29
3.5807e-30
0
0
6.58014e-24
0
0
0
-6.33076e-27
0
0
1.56516e-27
2.41154e-28
0
-1.53991e-28
0
0
0
0
3.28533e-28
4.49583e-29
1.7571e-28
0
0
3.70176e-25
0
2.64486e-26
0
0
0
-6.00425e-28
8.936e-28
7.37086e-28
6.31259e-28
0
0
0
4.30262e-28
0
3.36981e-28
6.611e-35
0
1.8717e-28
4.92802e-25
7.3569e-25
0
2.85166e-26
1.16749e-27
-5.07843e-28
0
7.10407e-28
0
-1.56391e-28
1.34931e-28
0
5.14539e-28
1.73962e-28
5.79634e-29
2.0564e-28
0
0
8.50382e-28
5.8034e-29
1.08988e-23
7.36663e-24
0
2.93874e-27
0
5.53065e-28
1.6029e-28
5.12371e-28
0
-2.32152e-28
8.97759e-28
0
2.84246e-29
-1.7245e-28
1.25127e-27
5.37414e-28
7.40215e-29
0
2.06901e-28
5.0592e-28
3.75497e-23
1.49372e-23
0
2.44018e-27
0
6.02147e-29
2.97901e-27
2.24724e-28
2.075e-29
0
5.25062e-28
-2.71891e-28
6.88386e-28
0
0
2.3235e-31
0
1.83068e-29
0
-1.42183e-28
1.56234e-23
1.05883e-23
3.56835e-25
3.0783e-26
0
0
0
-5.91966e-28
0
-1.13116e-27
1.30548e-28
0
0
4.35908e-28
1.23586e-27
4.44798e-28
0
4.07459e-28
3.86282e-28
0
1.88988e-23
1.17487e-23
5.59704e-25
1.64936e-26
3.63339e-27
5.8459e-28
2.14074e-29
0
0
-8.34837e-28
1.11298e-27
-4.32454e-28
0
-4.10718e-28
1.224e-29
0
0
2.31587e-28
3.47503e-28
0
7.35868e-23
2.45783e-23
2.77526e-25
8.11088e-26
7.34684e-28
1.05161e-27
9.02602e-28
0
5.42442e-28
0
1.18272e-27
6.99374e-28
3.5877e-28
-4.14726e-28
1.00116e-27
3.7235e-29
2.13922e-28
4.63865e-28
0
0
9.39045e-24
1.20557e-23
6.00262e-25
2.86401e-26
0
5.43731e-28
0
-3.84222e-28
6.94146e-28
-8.46848e-28
0
0
1.79968e-27
8.75807e-28
9.34409e-28
0
0
1.97455e-28
4.85397e-28
1.88712e-28
1.73161e-23
6.97479e-24
4.19546e-25
-4.04362e-27
9.78401e-27
-2.63319e-27
1.66917e-29
0
3.44811e-28
-2.74429e-30
2.61775e-29
3.00715e-28
0
3.90951e-28
0
-3.18355e-28
2.24503e-28
0
0
0
)
;

boundaryField
{
    movingWall
    {
        type            calculated;
        value           nonuniform List<scalar> 
20
(
0
0
6.85991e-25
-1.70457e-26
3.53297e-26
-8.30513e-27
5.46955e-29
-1.56679e-27
0
-1.22666e-28
5.71855e-29
0
0
1.9216e-27
3.2994e-28
-8.05922e-28
1.10348e-27
2.70726e-28
0
0
)
;
    }
    fixedWalls
    {
        type            calculated;
        value           nonuniform List<scalar> 
60
(
1.62167e-22
1.85858e-22
4.62506e-22
4.29797e-22
2.48282e-22
3.24843e-22
2.3841e-22
2.71853e-23
7.32758e-23
8.88052e-23
0
0
2.13778e-24
5.57524e-23
2.04994e-22
1.71633e-22
1.91591e-22
3.75236e-22
1.92679e-22
1.19857e-22
0
1.79171e-28
1.5799e-27
2.34535e-28
0
1.00238e-28
1.166e-27
0
0
0
6.83815e-29
3.46469e-28
5.82062e-29
5.00669e-28
0
0
0
0
3.46102e-28
0
0
0
1.82488e-24
0
1.24112e-25
-1.43013e-26
3.54129e-27
0
0
-3.19469e-28
0
2.8436e-27
1.70022e-27
1.4492e-27
0
0
9.85332e-28
7.34684e-28
0
0
)
;
    }
    frontAndBack
    {
        type            empty;
    }
}


// ************************************************************************* //
