/*--------------------------------*- C++ -*----------------------------------*\
| =========                 |                                                 |
| \\      /  F ield         | OpenFOAM: The Open Source CFD Toolbox           |
|  \\    /   O peration     | Version:  2312                                  |
|   \\  /    A nd           | Website:  www.openfoam.com                      |
|    \\/     M anipulation  |                                                 |
\*---------------------------------------------------------------------------*/
FoamFile
{
    version     2.0;
    format      ascii;
    arch        "LSB;label=32;scalar=64";
    class       volVectorField;
    location    "10";
    object      LambVectorField;
}
// * * * * * * * * * * * * * * * * * * * * * * * * * * * * * * * * * * * * * //

dimensions      [0 1 -2 0 0 0 0];

internalField   nonuniform List<vector> 
400
(
(-2.09986e-24 -1.20349e-11 -1.20349e-11)
(-6.11253e-25 1.62576e-11 -0)
(-3.04351e-26 -3.41062e-12 -3.41062e-12)
(-1.81884e-27 9.74984e-13 -0)
(-1.95713e-29 -3.69954e-14 -3.69954e-14)
(2.19504e-29 1.67876e-13 0)
(3.87139e-29 1.88379e-13 1.88379e-13)
(1.63669e-29 1.13405e-13 0)
(1.78849e-29 1.14898e-13 1.14898e-13)
(5.77127e-30 7.25522e-14 0)
(-1.50674e-30 5.42746e-14 5.42746e-14)
(2.59317e-30 3.28661e-14 0)
(9.25827e-30 4.98617e-14 4.98617e-14)
(9.24514e-30 7.55413e-14 0)
(-5.4145e-31 1.9594e-14 1.9594e-14)
(3.83015e-31 -5.20717e-15 -0)
(-1.69747e-30 -6.94594e-14 -6.94594e-14)
(-3.20325e-31 -4.05796e-15 0)
(5.9038e-31 9.08027e-15 9.08027e-15)
(-6.30666e-32 5.31527e-15 -0)
(3.96028e-27 3.93862e-13 3.93862e-13)
(-1.13492e-27 5.4896e-13 -0)
(-1.34796e-28 -2.69787e-13 -2.69787e-13)
(1.03967e-29 -5.69136e-14 -0)
(2.49072e-30 -1.61425e-13 -1.61425e-13)
(-1.19788e-29 -1.56955e-13 0)
(-2.97694e-29 -1.49697e-13 -1.49697e-13)
(-1.32545e-29 -6.079e-14 0)
(-1.42401e-29 -5.38043e-14 -5.38043e-14)
(-7.91054e-31 -3.69687e-15 0)
(6.25396e-31 2.04499e-14 2.04499e-14)
(-2.77334e-31 -2.92531e-14 0)
(-3.36562e-30 -6.46462e-14 -6.46462e-14)
(-8.9838e-31 -7.89149e-15 0)
(-7.17017e-32 -5.47437e-16 -5.47437e-16)
(4.13958e-30 3.46943e-14 0)
(5.08204e-31 9.22586e-15 9.22586e-15)
(3.18967e-31 1.17885e-14 0)
(-6.97031e-31 1.10991e-14 1.10991e-14)
(1.23159e-30 -1.46734e-14 -0)
(-8.22154e-25 5.17744e-12 5.17744e-12)
(-4.65173e-25 -1.33206e-11 0)
(-2.4394e-26 2.95961e-12 2.95961e-12)
(-1.50179e-27 -8.33569e-13 0)
(-5.62382e-29 1.25334e-13 1.25334e-13)
(-6.54682e-31 -1.05767e-13 0)
(-1.06042e-29 -1.58599e-13 -1.58599e-13)
(-2.99305e-29 -1.26328e-13 0)
(-2.55368e-29 -1.03835e-13 -1.03835e-13)
(-1.36336e-29 -7.13513e-14 0)
(-7.00276e-30 -4.78664e-14 -4.78664e-14)
(-1.00286e-29 -7.85696e-14 0)
(-7.56319e-30 -6.36406e-14 -6.36406e-14)
(-2.74242e-29 -1.23563e-13 0)
(-1.34729e-29 -4.9849e-14 -4.9849e-14)
(9.46023e-30 5.30481e-14 0)
(1.12155e-30 1.03431e-13 1.03431e-13)
(-1.889e-30 4.41096e-14 -0)
(-5.9533e-30 3.73945e-14 3.73945e-14)
(4.93579e-31 -3.38718e-15 -0)
(-4.7187e-25 -4.24556e-12 -4.24556e-12)
(-2.31178e-25 9.4329e-12 -0)
(-1.18001e-26 -2.17262e-12 -2.17262e-12)
(-6.29536e-28 4.41407e-13 -0)
(-2.66052e-29 -1.30383e-13 -1.30383e-13)
(8.50045e-30 -6.94645e-14 -0)
(-2.4324e-30 -2.84335e-14 -2.84335e-14)
(-1.4558e-29 -8.98838e-14 0)
(-3.87349e-30 -2.26211e-14 -2.26211e-14)
(-3.09257e-30 -2.6404e-14 0)
(-1.46568e-29 -8.92497e-14 -8.92497e-14)
(-5.77467e-30 -2.9392e-14 0)
(-4.41518e-30 -2.3599e-14 -2.3599e-14)
(-2.80182e-30 -1.73584e-14 0)
(5.87161e-30 6.55126e-14 6.55126e-14)
(-1.02611e-30 -2.12073e-14 0)
(-8.35431e-31 -2.72585e-14 -2.72585e-14)
(-1.13306e-30 -2.26979e-14 0)
(-1.85567e-31 1.38248e-14 1.38248e-14)
(8.98761e-31 -1.01752e-14 -0)
(-6.21951e-28 -3.42625e-14 -3.42625e-14)
(-6.68927e-27 1.39375e-12 -0)
(-3.02679e-28 -3.14509e-13 -3.14509e-13)
(-4.01157e-29 1.34109e-13 -0)
(-9.09281e-30 -5.56482e-14 -5.56482e-14)
(-2.56636e-31 1.87382e-14 -0)
(-4.87352e-32 2.03195e-15 2.03195e-15)
(-1.59501e-30 4.68907e-14 -0)
(-1.30521e-30 -2.65236e-14 -2.65236e-14)
(-7.23216e-30 -3.12782e-14 0)
(1.09445e-29 3.0234e-14 3.0234e-14)
(2.27084e-29 1.13581e-13 0)
(4.12835e-30 1.04967e-13 1.04967e-13)
(-3.20658e-30 8.76495e-14 -0)
(-4.75351e-31 1.97954e-14 1.97954e-14)
(-1.16213e-30 -3.18285e-14 0)
(7.97004e-31 3.43229e-14 3.43229e-14)
(-8.45123e-32 2.36957e-15 -0)
(-1.08252e-32 2.27959e-14 2.27959e-14)
(5.16119e-33 6.95063e-16 0)
(-9.62363e-25 6.89039e-12 6.89039e-12)
(-3.73014e-25 -1.21709e-11 0)
(-2.00023e-26 2.81052e-12 2.81052e-12)
(-1.15038e-27 -6.65031e-13 0)
(-3.57353e-29 1.82719e-13 1.82719e-13)
(7.0151e-30 4.03932e-14 0)
(-6.03342e-30 1.05101e-13 1.05101e-13)
(-5.05313e-30 7.87265e-14 -0)
(-2.12075e-30 6.72847e-14 6.72847e-14)
(4.33781e-31 5.69874e-15 0)
(1.86316e-29 1.02066e-13 1.02066e-13)
(1.40731e-29 1.00767e-13 0)
(-1.2211e-30 1.02008e-13 1.02008e-13)
(-3.6276e-30 5.3927e-14 -0)
(-1.74048e-31 1.90442e-14 1.90442e-14)
(7.30514e-31 5.4763e-14 0)
(-4.75164e-31 3.23955e-14 3.23955e-14)
(-8.7657e-31 2.21551e-14 -0)
(-1.35874e-30 -3.90084e-14 -3.90084e-14)
(9.08324e-31 1.143e-14 0)
(-1.38023e-24 -8.67599e-12 -8.67599e-12)
(-4.89247e-25 1.40102e-11 -0)
(-2.7026e-26 -3.31934e-12 -3.31934e-12)
(-1.32168e-27 7.65111e-13 -0)
(-8.12087e-29 -1.65432e-13 -1.65432e-13)
(-9.87834e-30 1.35089e-13 -0)
(2.64449e-30 -5.6446e-14 -5.6446e-14)
(1.10359e-31 -2.17389e-15 -0)
(1.25123e-30 -4.9828e-14 -4.9828e-14)
(-6.23296e-30 6.58963e-14 -0)
(1.71931e-29 -1.21101e-13 -1.21101e-13)
(-3.28901e-30 -1.02075e-13 0)
(-3.63179e-30 -5.53422e-14 -5.53422e-14)
(-4.82521e-30 -1.10815e-13 0)
(-1.0692e-29 -1.19366e-13 -1.19366e-13)
(-7.77694e-30 -5.08306e-14 0)
(-2.44232e-30 -4.37859e-14 -4.37859e-14)
(-4.36047e-30 -8.94359e-14 0)
(-1.19443e-29 -8.71941e-14 -8.71941e-14)
(-2.8521e-31 -2.65202e-15 0)
(-1.08217e-25 2.87731e-12 2.87731e-12)
(-2.49152e-26 -3.45507e-12 0)
(-1.29553e-27 7.60025e-13 7.60025e-13)
(-8.26921e-29 -1.94981e-13 0)
(-9.70014e-31 3.75618e-14 3.75618e-14)
(1.60856e-30 3.31766e-14 0)
(-5.95472e-30 6.88092e-14 6.88092e-14)
(6.39229e-32 -6.55579e-16 -0)
(-4.0819e-30 5.1034e-14 5.1034e-14)
(7.47584e-32 -1.13709e-15 -0)
(4.1536e-31 -6.05367e-15 -6.05367e-15)
(4.90447e-31 -9.41589e-14 -0)
(-2.03255e-30 -3.39752e-14 -3.39752e-14)
(1.54411e-32 2.43195e-16 0)
(-1.97764e-30 -3.44581e-14 -3.44581e-14)
(-1.19206e-29 -8.69968e-14 0)
(1.53961e-30 1.34807e-14 1.34807e-14)
(1.37463e-32 6.20156e-15 0)
(2.48985e-30 4.77048e-14 4.77048e-14)
(8.03617e-31 1.19462e-14 0)
(-6.77895e-25 6.45527e-12 6.45527e-12)
(-2.21284e-25 -9.46253e-12 0)
(-1.25483e-26 2.27737e-12 2.27737e-12)
(-4.60922e-28 -3.99525e-13 0)
(-8.50481e-29 1.97539e-13 1.97539e-13)
(7.45947e-32 -8.70763e-15 -0)
(-4.67959e-30 6.46257e-14 6.46257e-14)
(-3.09395e-30 2.74474e-14 -0)
(-2.72338e-30 3.59121e-14 3.59121e-14)
(4.23883e-31 6.03329e-15 0)
(1.23516e-29 9.15727e-14 9.15727e-14)
(-4.93914e-30 1.52831e-13 -0)
(-5.09222e-31 1.33402e-14 1.33402e-14)
(5.28367e-30 5.01626e-14 0)
(2.91564e-31 1.26583e-13 1.26583e-13)
(-1.97476e-30 2.58837e-14 -0)
(-1.31422e-31 -9.0531e-15 -9.0531e-15)
(8.45154e-31 5.93609e-14 0)
(-3.65066e-32 9.86906e-16 9.86906e-16)
(-1.42511e-32 -3.26224e-15 0)
(-2.50636e-24 -1.34292e-11 -1.34292e-11)
(-7.05802e-25 1.72319e-11 -0)
(-3.78133e-26 -4.00672e-12 -4.00672e-12)
(-1.98472e-27 8.83194e-13 -0)
(-6.76535e-29 -2.02254e-13 -2.02254e-13)
(-1.95599e-30 8.70651e-15 -0)
(1.50196e-30 -6.35927e-14 -6.35927e-14)
(1.70473e-30 -1.30299e-14 -0)
(1.02933e-29 -6.26228e-14 -6.26228e-14)
(4.91797e-30 -1.05298e-13 -0)
(-7.128e-30 -9.44592e-14 -9.44592e-14)
(-9.9519e-30 -1.17447e-13 0)
(-1.61445e-29 -9.74168e-14 -9.74168e-14)
(-1.35457e-29 -5.51195e-14 0)
(4.2792e-30 2.44778e-14 2.44778e-14)
(6.95489e-32 7.1391e-14 0)
(-1.7049e-31 -5.66299e-14 -5.66299e-14)
(6.27753e-32 2.49388e-15 0)
(5.5015e-33 -2.50887e-16 -2.50887e-16)
(7.66207e-31 2.76803e-14 0)
(-2.44446e-24 1.40047e-11 1.40047e-11)
(-6.11079e-25 -1.61868e-11 0)
(-3.53514e-26 3.86159e-12 3.86159e-12)
(-1.31745e-27 -8.3628e-13 0)
(-1.50235e-28 1.89735e-13 1.89735e-13)
(8.17788e-30 -1.60578e-13 -0)
(-5.04754e-32 -6.23514e-14 -6.23514e-14)
(-2.12399e-32 -6.9674e-16 0)
(-4.49391e-31 -5.77851e-14 -5.77851e-14)
(-3.31127e-31 -4.99928e-15 0)
(-1.58124e-30 -2.73714e-14 -2.73714e-14)
(3.93107e-30 5.70559e-14 0)
(2.00876e-30 6.85315e-14 6.85315e-14)
(-4.30981e-30 5.79937e-14 -0)
(4.29678e-32 -5.04068e-15 -5.04068e-15)
(-1.95717e-33 8.18614e-17 -0)
(2.53621e-31 -2.7146e-14 -2.7146e-14)
(-1.09336e-31 4.65292e-15 -0)
(-1.15222e-30 2.06225e-14 2.06225e-14)
(-6.01101e-32 -1.4545e-15 0)
(-6.83929e-25 -7.784e-12 -7.784e-12)
(-1.5551e-25 8.31739e-12 -0)
(-8.74288e-27 -1.97872e-12 -1.97872e-12)
(-4.72996e-28 4.38716e-13 -0)
(-7.24544e-30 -2.31573e-13 -2.31573e-13)
(9.91189e-30 -8.4238e-14 -0)
(-3.12778e-30 -5.16845e-14 -5.16845e-14)
(-1.14326e-29 -8.92268e-14 0)
(-1.10814e-29 -7.93608e-14 -7.93608e-14)
(9.35775e-31 8.6178e-15 0)
(1.60479e-30 3.00212e-14 3.00212e-14)
(4.44236e-30 5.59318e-14 0)
(2.15168e-30 5.9376e-14 5.9376e-14)
(8.57123e-31 3.08694e-14 0)
(1.57824e-32 -1.12312e-14 -1.12312e-14)
(-8.62158e-30 6.58274e-14 -0)
(-2.13942e-30 1.81957e-14 1.81957e-14)
(6.25941e-31 -1.49463e-14 -0)
(-2.82264e-30 -8.8525e-14 -8.8525e-14)
(-6.3141e-31 -2.08947e-14 0)
(-1.16673e-25 -2.95861e-12 -2.95861e-12)
(-3.01387e-26 3.54832e-12 -0)
(-1.83884e-27 -8.95001e-13 -8.95001e-13)
(-4.74768e-29 1.33016e-13 -0)
(-6.54231e-30 -3.58856e-14 -3.58856e-14)
(1.33514e-31 6.91721e-14 0)
(1.00689e-30 3.08004e-14 3.08004e-14)
(-1.42083e-30 4.05682e-14 -0)
(-1.00247e-29 9.83387e-14 9.83387e-14)
(-1.23692e-29 6.02614e-14 -0)
(2.94894e-30 -1.81525e-14 -1.81525e-14)
(1.84934e-30 -7.79206e-14 -0)
(-4.76787e-30 -6.38689e-14 -6.38689e-14)
(-1.50713e-30 -2.0687e-14 0)
(5.14162e-32 4.91065e-15 4.91065e-15)
(-2.61236e-30 -1.10006e-13 0)
(1.24163e-31 4.71646e-15 4.71646e-15)
(-7.86236e-31 3.35753e-14 -0)
(-1.99853e-30 5.20759e-14 5.20759e-14)
(8.39223e-33 -4.04518e-15 -0)
(-1.45425e-24 1.01867e-11 1.01867e-11)
(-4.05151e-25 -1.3013e-11 0)
(-2.26062e-26 3.13627e-12 3.13627e-12)
(-1.15963e-27 -6.94849e-13 0)
(-6.9976e-29 2.69663e-13 2.69663e-13)
(4.20811e-30 7.45137e-14 0)
(-2.56672e-29 1.34047e-13 1.34047e-13)
(-8.9424e-30 4.47585e-14 -0)
(1.71977e-30 -1.77362e-14 -1.77362e-14)
(1.3907e-30 -6.20026e-14 -0)
(-1.01697e-30 5.3417e-14 5.3417e-14)
(1.80636e-32 -1.24592e-15 -0)
(-3.82915e-32 5.8201e-15 5.8201e-15)
(-2.45681e-30 3.37942e-14 -0)
(-2.98344e-30 4.0607e-14 4.0607e-14)
(2.80538e-30 4.42966e-14 0)
(3.23048e-31 1.25874e-14 1.25874e-14)
(-2.73021e-30 4.36536e-14 -0)
(-3.55802e-30 2.54469e-14 2.54469e-14)
(-3.91903e-31 8.52681e-15 -0)
(-1.96637e-24 -1.11249e-11 -1.11249e-11)
(-6.15886e-25 1.59259e-11 -0)
(-3.43382e-26 -3.77652e-12 -3.77652e-12)
(-1.71792e-27 8.62871e-13 -0)
(-1.24963e-28 -2.69399e-13 -2.69399e-13)
(-6.42562e-30 5.83643e-14 -0)
(1.29424e-29 -1.08049e-13 -1.08049e-13)
(9.50442e-30 -8.35117e-14 -0)
(4.54787e-31 -4.64933e-15 -4.64933e-15)
(2.19002e-30 -3.25335e-14 -0)
(4.43442e-31 -1.01862e-14 -1.01862e-14)
(-2.1267e-30 -6.15613e-14 0)
(-1.65075e-30 -5.50641e-14 -5.50641e-14)
(-1.51813e-30 -3.52345e-14 0)
(-8.02158e-31 -7.20892e-15 -7.20892e-15)
(1.65401e-30 1.43608e-14 0)
(-2.36904e-30 7.32653e-14 7.32653e-14)
(4.06068e-30 -5.38724e-14 -0)
(1.17494e-30 -3.29004e-14 -3.29004e-14)
(5.64809e-31 -3.24185e-14 -0)
(-4.8249e-25 5.33347e-12 5.33347e-12)
(-1.63004e-25 -8.12835e-12 0)
(-8.88171e-27 1.9421e-12 1.9421e-12)
(-4.60172e-28 -3.91662e-13 0)
(-1.81289e-29 1.58295e-13 1.58295e-13)
(-1.89763e-30 -1.41538e-14 0)
(1.82365e-30 6.75133e-14 6.75133e-14)
(1.01622e-31 9.76301e-14 0)
(-1.43844e-29 1.05661e-13 1.05661e-13)
(-2.88598e-29 1.19051e-13 -0)
(2.79764e-30 -1.15391e-14 -1.15391e-14)
(2.12101e-30 -1.66978e-14 -0)
(2.1773e-31 -2.88496e-15 -2.88496e-15)
(6.62471e-31 -6.74794e-15 -0)
(5.58425e-31 -6.98786e-14 -6.98786e-14)
(-3.52194e-31 -6.01923e-15 0)
(1.02619e-31 1.96585e-15 1.96585e-15)
(2.00776e-31 5.16758e-15 0)
(-2.47263e-32 -4.70845e-14 -4.70845e-14)
(1.03297e-31 -3.18784e-15 -0)
(-9.17414e-26 1.5176e-12 1.5176e-12)
(-6.34325e-26 -4.87175e-12 0)
(-3.53465e-27 1.15495e-12 1.15495e-12)
(-1.55577e-28 -2.36491e-13 0)
(-1.96612e-30 1.28141e-14 1.28141e-14)
(-2.59669e-31 2.09629e-14 -0)
(-8.35261e-31 9.07764e-15 9.07764e-15)
(-1.80615e-31 1.75076e-15 -0)
(3.86866e-30 -3.53236e-14 -3.53236e-14)
(2.05117e-30 -9.77759e-14 -0)
(-3.24399e-30 -5.88887e-14 -5.88887e-14)
(1.60616e-30 6.22367e-14 0)
(-1.84716e-30 7.33606e-14 7.33606e-14)
(-7.10217e-30 4.28622e-14 -0)
(1.27873e-30 -6.99711e-15 -6.99711e-15)
(2.17752e-30 -2.27473e-14 -0)
(-3.41819e-30 -7.64308e-14 -7.64308e-14)
(-6.35328e-30 -5.02314e-14 0)
(3.59064e-31 7.2754e-14 7.2754e-14)
(3.1851e-31 -5.40229e-15 -0)
(-9.77554e-25 -6.26288e-12 -6.26288e-12)
(-4.4185e-25 1.31675e-11 -0)
(-2.44686e-26 -3.10577e-12 -3.10577e-12)
(-1.07806e-27 6.39676e-13 -0)
(-6.41884e-29 -1.61491e-13 -1.61491e-13)
(-7.63124e-31 1.08392e-14 -0)
(-9.14722e-31 -5.07305e-14 -5.07305e-14)
(-1.05086e-30 9.98918e-15 -0)
(5.15161e-30 -6.29313e-14 -6.29313e-14)
(1.13213e-31 -6.2938e-15 -0)
(-1.20122e-30 6.34798e-14 6.34798e-14)
(-1.87966e-30 1.69821e-14 -0)
(-5.27741e-31 2.79608e-15 2.79608e-15)
(6.26577e-30 -4.51925e-14 -0)
(4.63451e-31 -5.88974e-14 -5.88974e-14)
(-2.43263e-31 2.65071e-15 -0)
(5.86109e-31 -1.705e-14 -1.705e-14)
(-7.02236e-31 -8.91986e-15 0)
(4.39986e-31 8.02561e-15 8.02561e-15)
(-8.14772e-33 5.32939e-15 -0)
(-1.45637e-25 2.9526e-12 2.9526e-12)
(-4.47101e-26 -4.3356e-12 0)
(-2.65075e-27 1.08397e-12 1.08397e-12)
(-7.16202e-29 -1.28633e-13 0)
(-1.4048e-29 1.87632e-13 1.87632e-13)
(2.66472e-30 7.46285e-14 0)
(-1.19423e-30 1.49225e-13 1.49225e-13)
(-8.75679e-30 8.64538e-14 -0)
(-6.46125e-30 1.08794e-13 1.08794e-13)
(-1.29191e-29 1.23007e-13 -0)
(-1.94335e-29 9.46774e-14 9.46774e-14)
(-1.31476e-29 5.50916e-14 -0)
(-8.18275e-30 3.82238e-14 3.82238e-14)
(-3.36743e-31 4.27411e-15 -0)
(7.08915e-31 4.98021e-14 4.98021e-14)
(-2.18808e-30 6.3046e-14 -0)
(-6.4291e-30 8.67341e-14 8.67341e-14)
(-4.49522e-30 5.05677e-14 -0)
(-8.07079e-31 2.14078e-14 2.14078e-14)
(-6.43003e-31 2.01428e-14 -0)
(-8.7171e-25 7.4645e-12 7.4645e-12)
(-2.61591e-25 -1.06696e-11 0)
(-1.3461e-26 2.23655e-12 2.23655e-12)
(-6.57295e-28 -6.15608e-13 0)
(-1.21294e-29 2.9972e-14 2.9972e-14)
(5.13451e-30 -1.13709e-13 -0)
(6.55018e-30 -8.11099e-14 -8.11099e-14)
(4.24645e-30 -8.99526e-14 -0)
(-3.44919e-31 -6.1402e-14 -6.1402e-14)
(-1.37026e-30 -5.54507e-14 0)
(-1.45975e-30 -8.09932e-14 -8.09932e-14)
(-1.23282e-30 -5.73619e-14 0)
(-2.68644e-30 -5.42267e-14 -5.42267e-14)
(-2.7465e-31 -1.26815e-14 0)
(-3.5177e-31 3.71479e-15 3.71479e-15)
(9.37908e-31 -6.05475e-14 -0)
(5.89521e-31 -1.88224e-14 -1.88224e-14)
(-5.99363e-31 6.09621e-15 -0)
(2.85577e-30 -3.0946e-14 -3.0946e-14)
(2.53554e-30 -4.23241e-14 -0)
)
;

boundaryField
{
    movingWall
    {
        type            calculated;
        value           nonuniform List<vector> 
20
(
(0 1.53548e-11 -0)
(0 -1.3119e-11 -0)
(0 2.12292e-12 -0)
(0 -9.16669e-13 -0)
(0 -1.99575e-13 -0)
(0 -2.98847e-13 -0)
(0 -2.66248e-13 -0)
(0 -2.75091e-13 -0)
(0 -1.84828e-13 -0)
(0 -1.78876e-13 -0)
(0 -1.77314e-13 -0)
(0 -1.80787e-13 -0)
(0 -8.88344e-14 -0)
(0 -1.18803e-13 -0)
(0 -8.5103e-14 -0)
(0 -1.39564e-13 -0)
(0 -1.24944e-13 -0)
(0 -3.83127e-14 -0)
(0 -1.37068e-13 -0)
(0 -1.04037e-13 -0)
)
;
    }
    fixedWalls
    {
        type            calculated;
        value           nonuniform List<vector> 
60
(
(0 -6.8139e-11 -0)
(0 -2.82938e-12 -0)
(0 5.63082e-11 -0)
(0 -4.00396e-11 -0)
(0 -5.95996e-12 -0)
(0 5.18555e-11 -0)
(0 -5.98938e-11 -0)
(0 1.48816e-11 -0)
(0 4.0298e-11 -0)
(0 -7.35156e-11 -0)
(0 7.01436e-11 -0)
(0 -3.60127e-11 -0)
(0 -1.56385e-11 -0)
(0 5.6128e-11 -0)
(0 -6.80184e-11 -0)
(0 3.44782e-11 -0)
(0 2.09551e-11 -0)
(0 -5.64446e-11 -0)
(0 1.87814e-11 -0)
(0 4.49504e-11 -0)
(0 -4.74607e-15 -0)
(0 -3.35734e-14 -0)
(0 -3.11829e-14 -0)
(0 -3.53316e-14 -0)
(0 2.9702e-15 -0)
(0 3.17873e-14 -0)
(0 1.59128e-14 -0)
(0 2.69078e-14 -0)
(0 1.7474e-15 -0)
(0 3.81773e-14 -0)
(0 1.65308e-14 -0)
(0 -1.50176e-14 -0)
(0 -8.2985e-16 -0)
(0 8.72053e-15 -0)
(0 -3.4074e-14 -0)
(0 -1.29614e-14 -0)
(0 -2.35833e-14 -0)
(0 -6.11531e-16 -0)
(0 1.43362e-14 -0)
(0 -5.10681e-14 -0)
(0 -2.05273e-11 -0)
(0 1.90426e-11 -0)
(0 -3.12916e-12 -0)
(0 1.37237e-12 -0)
(0 4.22099e-13 -0)
(0 5.65258e-13 -0)
(0 4.42732e-13 -0)
(0 3.15848e-13 -0)
(0 3.1734e-13 -0)
(0 1.95978e-13 -0)
(0 1.777e-13 -0)
(0 1.11883e-13 -0)
(0 2.17696e-13 -0)
(0 6.57402e-14 -0)
(0 1.9594e-14 -0)
(0 -5.20717e-15 -0)
(0 2.91596e-14 -0)
(0 -4.05796e-15 -0)
(0 5.34892e-14 -0)
(0 5.31527e-15 -0)
)
;
    }
    frontAndBack
    {
        type            empty;
    }
}


// ************************************************************************* //
