/*--------------------------------*- C++ -*----------------------------------*\
| =========                 |                                                 |
| \\      /  F ield         | OpenFOAM: The Open Source CFD Toolbox           |
|  \\    /   O peration     | Version:  2312                                  |
|   \\  /    A nd           | Website:  www.openfoam.com                      |
|    \\/     M anipulation  |                                                 |
\*---------------------------------------------------------------------------*/
FoamFile
{
    version     2.0;
    format      ascii;
    arch        "LSB;label=32;scalar=64";
    class       volVectorField;
    location    "10";
    object      momentum1:momentum;
}
// * * * * * * * * * * * * * * * * * * * * * * * * * * * * * * * * * * * * * //

dimensions      [1 1 -1 0 0 0 0];

internalField   nonuniform List<vector> 
400
(
(-2.5e-07 4.36202e-20 0)
(-2.5e-07 -9.39951e-21 0)
(-2.5e-07 2.2309e-21 0)
(-2.5e-07 -4.66376e-22 0)
(-2.5e-07 1.32255e-22 0)
(-2.5e-07 3.26884e-23 0)
(-2.5e-07 5.13778e-23 0)
(-2.5e-07 3.60804e-23 0)
(-2.5e-07 3.89148e-23 0)
(-2.5e-07 1.98866e-23 0)
(-2.5e-07 -6.94035e-24 0)
(-2.5e-07 1.97253e-23 0)
(-2.5e-07 4.64197e-23 0)
(-2.5e-07 3.05963e-23 0)
(-2.5e-07 -6.90835e-24 0)
(-2.5e-07 -1.83888e-23 0)
(-2.5e-07 6.10958e-24 0)
(-2.5e-07 1.97344e-23 0)
(-2.5e-07 1.62545e-23 0)
(-2.5e-07 -2.96629e-24 0)
(-2.5e-07 2.51375e-21 0)
(-2.5e-07 -5.16849e-22 0)
(-2.5e-07 1.24909e-22 0)
(-2.5e-07 -4.5669e-23 0)
(-2.5e-07 -3.85739e-24 0)
(-2.5e-07 1.90801e-23 0)
(-2.5e-07 4.97161e-23 0)
(-2.5e-07 5.45093e-23 0)
(-2.5e-07 6.61659e-23 0)
(-2.5e-07 5.34949e-23 0)
(-2.5e-07 7.64547e-24 0)
(-2.5e-07 2.37013e-24 0)
(-2.5e-07 1.30155e-23 0)
(-2.5e-07 2.84604e-23 0)
(-2.5e-07 3.27443e-23 0)
(-2.5e-07 2.9829e-23 0)
(-2.5e-07 1.37712e-23 0)
(-2.5e-07 6.76434e-24 0)
(-2.5e-07 -1.57002e-23 0)
(-2.5e-07 -2.09834e-23 0)
(-2.5e-07 -3.96988e-20 0)
(-2.5e-07 8.73035e-21 0)
(-2.5e-07 -2.06057e-21 0)
(-2.5e-07 4.50409e-22 0)
(-2.5e-07 -1.12176e-22 0)
(-2.5e-07 1.54747e-24 0)
(-2.5e-07 1.67154e-23 0)
(-2.5e-07 5.92318e-23 0)
(-2.5e-07 6.14841e-23 0)
(-2.5e-07 4.77691e-23 0)
(-2.5e-07 3.65745e-23 0)
(-2.5e-07 3.19099e-23 0)
(-2.5e-07 2.97106e-23 0)
(-2.5e-07 5.54861e-23 0)
(-2.5e-07 6.75684e-23 0)
(-2.5e-07 4.45833e-23 0)
(-2.5e-07 2.71086e-24 0)
(-2.5e-07 -1.07063e-23 0)
(-2.5e-07 -3.98006e-23 0)
(-2.5e-07 -3.643e-23 0)
(-2.5e-07 2.77861e-20 0)
(-2.5e-07 -6.1269e-21 0)
(-2.5e-07 1.35782e-21 0)
(-2.5e-07 -3.56551e-22 0)
(-2.5e-07 5.10133e-23 0)
(-2.5e-07 -3.05928e-23 0)
(-2.5e-07 2.13868e-23 0)
(-2.5e-07 4.04911e-23 0)
(-2.5e-07 4.28083e-23 0)
(-2.5e-07 2.92813e-23 0)
(-2.5e-07 4.10556e-23 0)
(-2.5e-07 4.91177e-23 0)
(-2.5e-07 4.6773e-23 0)
(-2.5e-07 4.03524e-23 0)
(-2.5e-07 2.24064e-23 0)
(-2.5e-07 1.20962e-23 0)
(-2.5e-07 7.66211e-24 0)
(-2.5e-07 1.24798e-23 0)
(-2.5e-07 -3.35568e-24 0)
(-2.5e-07 -2.20822e-23 0)
(-2.5e-07 4.53813e-21 0)
(-2.5e-07 -1.19987e-21 0)
(-2.5e-07 2.40597e-22 0)
(-2.5e-07 -7.47819e-23 0)
(-2.5e-07 4.08495e-23 0)
(-2.5e-07 -3.42397e-24 0)
(-2.5e-07 -5.9961e-24 0)
(-2.5e-07 -8.50385e-24 0)
(-2.5e-07 1.23023e-23 0)
(-2.5e-07 5.78051e-23 0)
(-2.5e-07 9.04979e-23 0)
(-2.5e-07 4.99827e-23 0)
(-2.5e-07 9.83253e-24 0)
(-2.5e-07 -9.14603e-24 0)
(-2.5e-07 -6.0033e-24 0)
(-2.5e-07 9.12811e-24 0)
(-2.5e-07 5.8052e-24 0)
(-2.5e-07 -8.91644e-24 0)
(-2.5e-07 -1.18718e-25 0)
(-2.5e-07 1.85638e-24 0)
(-2.5e-07 -3.49169e-20 0)
(-2.5e-07 7.66204e-21 0)
(-2.5e-07 -1.77923e-21 0)
(-2.5e-07 4.32453e-22 0)
(-2.5e-07 -4.88938e-23 0)
(-2.5e-07 4.34176e-23 0)
(-2.5e-07 -1.43515e-23 0)
(-2.5e-07 -1.60465e-23 0)
(-2.5e-07 -7.87975e-24 0)
(-2.5e-07 1.90297e-23 0)
(-2.5e-07 4.5636e-23 0)
(-2.5e-07 3.4915e-23 0)
(-2.5e-07 -2.99265e-24 0)
(-2.5e-07 -1.68172e-23 0)
(-2.5e-07 -2.28478e-24 0)
(-2.5e-07 3.33489e-24 0)
(-2.5e-07 -3.66689e-24 0)
(-2.5e-07 -9.8913e-24 0)
(-2.5e-07 8.70802e-24 0)
(-2.5e-07 1.98671e-23 0)
(-2.5e-07 3.97714e-20 0)
(-2.5e-07 -8.7302e-21 0)
(-2.5e-07 2.0355e-21 0)
(-2.5e-07 -4.3186e-22 0)
(-2.5e-07 1.22722e-22 0)
(-2.5e-07 -1.82812e-23 0)
(-2.5e-07 -1.17125e-23 0)
(-2.5e-07 -1.26915e-23 0)
(-2.5e-07 -6.27777e-24 0)
(-2.5e-07 -2.36468e-23 0)
(-2.5e-07 -3.54933e-23 0)
(-2.5e-07 8.05539e-24 0)
(-2.5e-07 1.64061e-23 0)
(-2.5e-07 1.08857e-23 0)
(-2.5e-07 2.23934e-23 0)
(-2.5e-07 3.82493e-23 0)
(-2.5e-07 1.39446e-23 0)
(-2.5e-07 1.21888e-23 0)
(-2.5e-07 3.42464e-23 0)
(-2.5e-07 2.68862e-23 0)
(-2.5e-07 -9.40264e-21 0)
(-2.5e-07 1.8028e-21 0)
(-2.5e-07 -4.26147e-22 0)
(-2.5e-07 1.06026e-22 0)
(-2.5e-07 -6.45613e-24 0)
(-2.5e-07 1.21212e-23 0)
(-2.5e-07 -2.16349e-23 0)
(-2.5e-07 -2.43765e-23 0)
(-2.5e-07 -1.9996e-23 0)
(-2.5e-07 -1.64363e-23 0)
(-2.5e-07 -1.71532e-23 0)
(-2.5e-07 -1.30218e-24 0)
(-2.5e-07 1.49561e-23 0)
(-2.5e-07 1.58732e-23 0)
(-2.5e-07 1.43481e-23 0)
(-2.5e-07 3.42558e-23 0)
(-2.5e-07 2.85521e-23 0)
(-2.5e-07 5.54149e-25 0)
(-2.5e-07 1.30482e-23 0)
(-2.5e-07 1.68174e-23 0)
(-2.5e-07 -2.62535e-20 0)
(-2.5e-07 5.84632e-21 0)
(-2.5e-07 -1.3775e-21 0)
(-2.5e-07 2.88419e-22 0)
(-2.5e-07 -1.07634e-22 0)
(-2.5e-07 -2.14165e-24 0)
(-2.5e-07 -1.81027e-23 0)
(-2.5e-07 -2.81807e-23 0)
(-2.5e-07 -1.89586e-23 0)
(-2.5e-07 1.75643e-23 0)
(-2.5e-07 3.37208e-23 0)
(-2.5e-07 -8.07942e-24 0)
(-2.5e-07 -9.54299e-24 0)
(-2.5e-07 2.63327e-23 0)
(-2.5e-07 5.75838e-25 0)
(-2.5e-07 -1.90734e-23 0)
(-2.5e-07 3.6292e-24 0)
(-2.5e-07 3.55939e-24 0)
(-2.5e-07 -9.24773e-24 0)
(-2.5e-07 1.09212e-24 0)
(-2.5e-07 4.66588e-20 0)
(-2.5e-07 -1.02398e-20 0)
(-2.5e-07 2.35937e-21 0)
(-2.5e-07 -5.618e-22 0)
(-2.5e-07 8.36243e-23 0)
(-2.5e-07 -5.61645e-23 0)
(-2.5e-07 -5.90463e-24 0)
(-2.5e-07 -3.27081e-23 0)
(-2.5e-07 -4.10926e-23 0)
(-2.5e-07 -1.16763e-23 0)
(-2.5e-07 1.88653e-23 0)
(-2.5e-07 2.11839e-23 0)
(-2.5e-07 4.14316e-23 0)
(-2.5e-07 6.14381e-23 0)
(-2.5e-07 4.3705e-23 0)
(-2.5e-07 2.43549e-25 0)
(-2.5e-07 7.52649e-25 0)
(-2.5e-07 6.29293e-24 0)
(-2.5e-07 -5.48206e-24 0)
(-2.5e-07 6.92015e-24 0)
(-2.5e-07 -4.36365e-20 0)
(-2.5e-07 9.43795e-21 0)
(-2.5e-07 -2.28865e-21 0)
(-2.5e-07 3.93843e-22 0)
(-2.5e-07 -1.97953e-22 0)
(-2.5e-07 -1.2732e-23 0)
(-2.5e-07 2.02383e-25 0)
(-2.5e-07 7.62116e-24 0)
(-2.5e-07 1.94423e-24 0)
(-2.5e-07 1.65587e-23 0)
(-2.5e-07 1.44424e-23 0)
(-2.5e-07 1.72246e-23 0)
(-2.5e-07 7.32786e-24 0)
(-2.5e-07 -1.85788e-23 0)
(-2.5e-07 -2.13105e-24 0)
(-2.5e-07 -5.97708e-24 0)
(-2.5e-07 -2.33571e-24 0)
(-2.5e-07 -5.8746e-24 0)
(-2.5e-07 -1.3968e-23 0)
(-2.5e-07 1.03318e-23 0)
(-2.5e-07 2.19658e-20 0)
(-2.5e-07 -4.67424e-21 0)
(-2.5e-07 1.10461e-21 0)
(-2.5e-07 -2.69534e-22 0)
(-2.5e-07 7.822e-24 0)
(-2.5e-07 -2.94163e-23 0)
(-2.5e-07 1.51292e-23 0)
(-2.5e-07 3.20324e-23 0)
(-2.5e-07 3.49083e-23 0)
(-2.5e-07 2.71466e-23 0)
(-2.5e-07 1.33638e-23 0)
(-2.5e-07 1.98561e-23 0)
(-2.5e-07 9.05957e-24 0)
(-2.5e-07 6.94153e-24 0)
(-2.5e-07 -3.51308e-25 0)
(-2.5e-07 -3.27431e-23 0)
(-2.5e-07 -2.93946e-23 0)
(-2.5e-07 -1.04698e-23 0)
(-2.5e-07 7.9713e-24 0)
(-2.5e-07 7.55468e-24 0)
(-2.5e-07 9.85878e-21 0)
(-2.5e-07 -2.12345e-21 0)
(-2.5e-07 5.13643e-22 0)
(-2.5e-07 -8.92314e-23 0)
(-2.5e-07 4.55776e-23 0)
(-2.5e-07 4.82544e-25 0)
(-2.5e-07 8.17268e-24 0)
(-2.5e-07 -8.75579e-24 0)
(-2.5e-07 -2.54851e-23 0)
(-2.5e-07 -5.13146e-23 0)
(-2.5e-07 -4.06134e-23 0)
(-2.5e-07 -5.93342e-24 0)
(-2.5e-07 1.86627e-23 0)
(-2.5e-07 1.82135e-23 0)
(-2.5e-07 2.61759e-24 0)
(-2.5e-07 5.93687e-24 0)
(-2.5e-07 6.58137e-24 0)
(-2.5e-07 -5.85427e-24 0)
(-2.5e-07 -9.5943e-24 0)
(-2.5e-07 -5.18656e-25 0)
(-2.5e-07 -3.56899e-20 0)
(-2.5e-07 7.78356e-21 0)
(-2.5e-07 -1.802e-21 0)
(-2.5e-07 4.17225e-22 0)
(-2.5e-07 -6.48736e-23 0)
(-2.5e-07 1.41186e-23 0)
(-2.5e-07 -4.78698e-23 0)
(-2.5e-07 -4.9948e-23 0)
(-2.5e-07 -2.42409e-23 0)
(-2.5e-07 -5.60741e-24 0)
(-2.5e-07 -4.75959e-24 0)
(-2.5e-07 -3.62455e-24 0)
(-2.5e-07 -1.64479e-24 0)
(-2.5e-07 -1.81748e-23 0)
(-2.5e-07 -1.83677e-23 0)
(-2.5e-07 1.58329e-23 0)
(-2.5e-07 6.41608e-24 0)
(-2.5e-07 -1.56357e-23 0)
(-2.5e-07 -3.49553e-23 0)
(-2.5e-07 -1.14903e-23 0)
(-2.5e-07 4.41886e-20 0)
(-2.5e-07 -9.66797e-21 0)
(-2.5e-07 2.27314e-21 0)
(-2.5e-07 -4.97733e-22 0)
(-2.5e-07 1.15965e-22 0)
(-2.5e-07 -2.75237e-23 0)
(-2.5e-07 -2.99458e-23 0)
(-2.5e-07 -2.84523e-23 0)
(-2.5e-07 -2.44544e-23 0)
(-2.5e-07 -1.6829e-23 0)
(-2.5e-07 -1.08834e-23 0)
(-2.5e-07 8.6365e-24 0)
(-2.5e-07 7.49465e-24 0)
(-2.5e-07 1.07716e-23 0)
(-2.5e-07 2.78182e-23 0)
(-2.5e-07 2.87939e-23 0)
(-2.5e-07 -8.08378e-24 0)
(-2.5e-07 -1.8844e-23 0)
(-2.5e-07 -8.92803e-24 0)
(-2.5e-07 -4.35561e-24 0)
(-2.5e-07 -2.26162e-20 0)
(-2.5e-07 5.01345e-21 0)
(-2.5e-07 -1.14331e-21 0)
(-2.5e-07 2.9373e-22 0)
(-2.5e-07 -2.86316e-23 0)
(-2.5e-07 3.35181e-23 0)
(-2.5e-07 6.75292e-24 0)
(-2.5e-07 2.60223e-25 0)
(-2.5e-07 -3.40344e-23 0)
(-2.5e-07 -6.06036e-23 0)
(-2.5e-07 -6.06122e-23 0)
(-2.5e-07 -3.17559e-23 0)
(-2.5e-07 -1.88677e-23 0)
(-2.5e-07 -2.45435e-23 0)
(-2.5e-07 -1.99784e-24 0)
(-2.5e-07 1.46279e-23 0)
(-2.5e-07 1.30502e-23 0)
(-2.5e-07 9.71323e-24 0)
(-2.5e-07 1.31287e-25 0)
(-2.5e-07 -8.10088e-24 0)
(-2.5e-07 -1.51129e-20 0)
(-2.5e-07 3.25512e-21 0)
(-2.5e-07 -7.65111e-22 0)
(-2.5e-07 1.64464e-22 0)
(-2.5e-07 -3.83587e-23 0)
(-2.5e-07 -3.09677e-24 0)
(-2.5e-07 -2.30033e-23 0)
(-2.5e-07 -2.57909e-23 0)
(-2.5e-07 -2.73802e-23 0)
(-2.5e-07 -5.24457e-24 0)
(-2.5e-07 1.37717e-23 0)
(-2.5e-07 6.4518e-24 0)
(-2.5e-07 -6.2948e-24 0)
(-2.5e-07 -4.14244e-23 0)
(-2.5e-07 -4.56876e-23 0)
(-2.5e-07 -2.39317e-23 0)
(-2.5e-07 1.11807e-23 0)
(-2.5e-07 3.16201e-23 0)
(-2.5e-07 1.23383e-24 0)
(-2.5e-07 -1.47396e-23 0)
(-2.5e-07 3.90218e-20 0)
(-2.5e-07 -8.38905e-21 0)
(-2.5e-07 1.96961e-21 0)
(-2.5e-07 -4.21328e-22 0)
(-2.5e-07 9.93684e-23 0)
(-2.5e-07 -1.7601e-23 0)
(-2.5e-07 4.50775e-24 0)
(-2.5e-07 -2.63e-23 0)
(-2.5e-07 -2.04652e-23 0)
(-2.5e-07 -4.49701e-24 0)
(-2.5e-07 -4.73071e-24 0)
(-2.5e-07 -2.76713e-23 0)
(-2.5e-07 -4.71858e-23 0)
(-2.5e-07 -3.46615e-23 0)
(-2.5e-07 -1.9672e-24 0)
(-2.5e-07 -2.29432e-23 0)
(-2.5e-07 -8.59397e-24 0)
(-2.5e-07 1.96818e-23 0)
(-2.5e-07 1.37057e-23 0)
(-2.5e-07 -3.82207e-25 0)
(-2.5e-07 -1.23313e-20 0)
(-2.5e-07 2.57808e-21 0)
(-2.5e-07 -6.11351e-22 0)
(-2.5e-07 1.39194e-22 0)
(-2.5e-07 -1.87175e-23 0)
(-2.5e-07 8.92664e-24 0)
(-2.5e-07 -2.00072e-24 0)
(-2.5e-07 -2.53221e-23 0)
(-2.5e-07 -1.48474e-23 0)
(-2.5e-07 -2.62569e-23 0)
(-2.5e-07 -5.13151e-23 0)
(-2.5e-07 -5.96624e-23 0)
(-2.5e-07 -5.35187e-23 0)
(-2.5e-07 -1.96967e-23 0)
(-2.5e-07 3.55866e-24 0)
(-2.5e-07 -8.67653e-24 0)
(-2.5e-07 -1.85311e-23 0)
(-2.5e-07 -2.22237e-23 0)
(-2.5e-07 -9.42507e-24 0)
(-2.5e-07 -7.98056e-24 0)
(-2.5e-07 -2.91952e-20 0)
(-2.5e-07 6.12934e-21 0)
(-2.5e-07 -1.50467e-21 0)
(-2.5e-07 2.66929e-22 0)
(-2.5e-07 -1.01173e-22 0)
(-2.5e-07 -1.12887e-23 0)
(-2.5e-07 -2.01892e-23 0)
(-2.5e-07 -1.18019e-23 0)
(-2.5e-07 1.40435e-24 0)
(-2.5e-07 6.17782e-24 0)
(-2.5e-07 4.50577e-24 0)
(-2.5e-07 5.373e-24 0)
(-2.5e-07 1.23853e-23 0)
(-2.5e-07 5.41438e-24 0)
(-2.5e-07 -2.36736e-23 0)
(-2.5e-07 -3.87261e-24 0)
(-2.5e-07 -7.83006e-24 0)
(-2.5e-07 -2.45793e-23 0)
(-2.5e-07 -2.30706e-23 0)
(-2.5e-07 -1.49769e-23 0)
)
;

boundaryField
{
    movingWall
    {
        type            calculated;
        value           uniform (0 0 0);
    }
    fixedWalls
    {
        type            calculated;
        value           uniform (0 0 0);
    }
    frontAndBack
    {
        type            empty;
    }
}


// ************************************************************************* //
