/*--------------------------------*- C++ -*----------------------------------*\
| =========                 |                                                 |
| \\      /  F ield         | OpenFOAM: The Open Source CFD Toolbox           |
|  \\    /   O peration     | Version:  2312                                  |
|   \\  /    A nd           | Website:  www.openfoam.com                      |
|    \\/     M anipulation  |                                                 |
\*---------------------------------------------------------------------------*/
FoamFile
{
    version     2.0;
    format      ascii;
    arch        "LSB;label=32;scalar=64";
    class       volScalarField;
    location    "10";
    object      norm_k_field;
}
// * * * * * * * * * * * * * * * * * * * * * * * * * * * * * * * * * * * * * //

dimensions      [0 0 0 0 0 0 0];

internalField   nonuniform List<scalar> 
400
(
2.36859e+09
8.80947e+08
2.36859e+09
2.36859e+09
2.36859e+09
2.36859e+09
2.36859e+09
2.36859e+09
2.36859e+09
2.36859e+09
2.36859e+09
2.36858e+09
2.36858e+09
2.36858e+09
2.36858e+09
2.36858e+09
2.36858e+09
2.36858e+09
2.36858e+09
2.36858e+09
1.28889e+09
2.39524e+09
2.39519e+09
2.39518e+09
2.39515e+09
2.39513e+09
2.39511e+09
2.39509e+09
2.39507e+09
2.39506e+09
2.39504e+09
2.39504e+09
2.39502e+09
2.39502e+09
2.395e+09
2.395e+09
2.39499e+09
2.39499e+09
2.39499e+09
2.39499e+09
2.43908e+09
1.63489e+09
2.43903e+09
2.43902e+09
2.43898e+09
2.43897e+09
2.43894e+09
2.43893e+09
2.4389e+09
2.4389e+09
2.43887e+09
2.43887e+09
2.43885e+09
2.43884e+09
2.43883e+09
2.43883e+09
2.43882e+09
2.43882e+09
2.43882e+09
2.43882e+09
2.48791e+09
2.48791e+09
2.48786e+09
2.48784e+09
2.48781e+09
2.48779e+09
2.48777e+09
2.48775e+09
2.48773e+09
2.48771e+09
2.48769e+09
2.48769e+09
2.48767e+09
2.48766e+09
2.48765e+09
2.48765e+09
2.48764e+09
2.48764e+09
2.48763e+09
2.48763e+09
2.53186e+09
2.53187e+09
2.53181e+09
2.5318e+09
2.53176e+09
2.53175e+09
2.53171e+09
2.53171e+09
2.53167e+09
2.53167e+09
2.53164e+09
2.53163e+09
2.53162e+09
2.53161e+09
2.5316e+09
2.53159e+09
2.53159e+09
2.53158e+09
2.53158e+09
2.53158e+09
2.56623e+09
2.56623e+09
2.56617e+09
2.56615e+09
2.56612e+09
2.5661e+09
2.56608e+09
2.56605e+09
2.56603e+09
2.56602e+09
2.566e+09
2.56599e+09
2.56597e+09
2.56596e+09
2.56595e+09
2.56595e+09
2.56594e+09
2.56594e+09
2.56593e+09
2.56593e+09
2.59062e+09
2.59062e+09
2.59057e+09
2.59055e+09
2.59051e+09
2.59049e+09
2.59046e+09
2.59045e+09
2.59042e+09
2.59041e+09
2.59039e+09
2.59038e+09
2.59036e+09
2.59036e+09
2.59034e+09
2.59034e+09
2.59033e+09
2.59033e+09
2.59032e+09
2.59032e+09
2.60699e+09
2.60699e+09
2.60693e+09
2.60691e+09
2.60688e+09
2.60686e+09
2.60683e+09
2.60681e+09
2.60679e+09
2.60677e+09
2.60675e+09
2.60674e+09
2.60672e+09
2.60672e+09
2.6067e+09
2.6067e+09
2.60669e+09
2.60669e+09
2.60669e+09
2.60668e+09
2.61783e+09
1.20246e+09
2.61778e+09
2.61776e+09
2.61773e+09
2.6177e+09
2.61768e+09
2.61766e+09
2.61763e+09
2.61762e+09
2.6176e+09
2.61758e+09
2.61757e+09
2.61756e+09
2.61755e+09
2.61754e+09
2.61754e+09
2.61753e+09
2.61753e+09
2.61753e+09
2.62533e+09
2.62533e+09
2.62527e+09
2.62526e+09
2.62522e+09
2.6252e+09
2.62517e+09
2.62515e+09
2.62513e+09
2.62512e+09
2.62509e+09
2.62509e+09
2.62507e+09
2.62506e+09
2.62504e+09
2.62504e+09
2.62503e+09
2.62503e+09
2.62503e+09
2.62503e+09
2.63104e+09
2.63104e+09
2.63099e+09
2.63097e+09
2.63093e+09
2.63091e+09
2.63088e+09
2.63086e+09
2.63084e+09
2.63083e+09
2.6308e+09
2.63079e+09
2.63077e+09
2.63077e+09
2.63075e+09
2.63075e+09
2.63074e+09
2.63074e+09
2.63074e+09
2.63074e+09
2.63597e+09
1.33367e+09
2.63591e+09
2.63589e+09
2.63585e+09
2.63583e+09
2.6358e+09
2.63578e+09
2.63576e+09
2.63575e+09
2.63573e+09
2.63572e+09
2.6357e+09
2.63569e+09
2.63567e+09
2.63567e+09
2.63566e+09
2.63566e+09
2.63566e+09
2.63566e+09
2.6407e+09
2.6407e+09
2.64064e+09
2.64062e+09
2.64058e+09
2.64057e+09
2.64054e+09
2.64052e+09
2.64049e+09
2.64048e+09
2.64046e+09
2.64045e+09
2.64043e+09
2.64042e+09
2.64041e+09
2.64041e+09
2.64039e+09
2.64039e+09
2.64039e+09
2.64039e+09
2.64557e+09
2.64557e+09
2.64551e+09
2.6455e+09
2.64546e+09
2.64544e+09
2.64541e+09
2.64539e+09
2.64536e+09
2.64535e+09
2.64533e+09
2.64532e+09
2.6453e+09
2.64529e+09
2.64528e+09
2.64527e+09
2.64526e+09
2.64526e+09
2.64526e+09
2.64526e+09
2.6507e+09
2.6507e+09
2.65064e+09
2.65062e+09
2.65058e+09
2.65056e+09
2.65053e+09
2.65051e+09
2.65049e+09
2.65047e+09
2.65045e+09
2.65044e+09
2.65043e+09
2.65041e+09
2.65041e+09
2.6504e+09
2.65039e+09
2.65039e+09
2.65039e+09
2.65038e+09
2.65601e+09
2.65601e+09
2.65595e+09
2.65594e+09
2.6559e+09
2.65588e+09
2.65585e+09
2.65583e+09
2.65581e+09
2.65579e+09
2.65577e+09
2.65576e+09
2.65574e+09
2.65573e+09
2.65572e+09
2.65571e+09
2.6557e+09
2.6557e+09
2.6557e+09
2.6557e+09
2.66125e+09
2.66125e+09
2.66119e+09
2.66118e+09
2.66114e+09
2.66111e+09
2.66109e+09
2.66107e+09
2.66104e+09
2.66103e+09
2.66101e+09
2.661e+09
2.66098e+09
2.66097e+09
2.66095e+09
2.66095e+09
2.66094e+09
2.66094e+09
2.66094e+09
2.66094e+09
2.66596e+09
2.66596e+09
2.66589e+09
2.66589e+09
2.66584e+09
2.66583e+09
2.66579e+09
2.66578e+09
2.66575e+09
2.66573e+09
2.66571e+09
2.6657e+09
2.66568e+09
2.66567e+09
2.66566e+09
2.66566e+09
2.66565e+09
2.66565e+09
2.66564e+09
2.66564e+09
2.66955e+09
2.66956e+09
2.6695e+09
2.66948e+09
2.66944e+09
2.66943e+09
2.66939e+09
2.66938e+09
2.66935e+09
2.66934e+09
2.66931e+09
2.6693e+09
2.66929e+09
2.66928e+09
2.66927e+09
2.66926e+09
2.66925e+09
2.66925e+09
2.66925e+09
2.66925e+09
2.67122e+09
2.67121e+09
2.67121e+09
2.67121e+09
2.67121e+09
2.67121e+09
2.67121e+09
2.67121e+09
2.67121e+09
2.67121e+09
2.67121e+09
2.67121e+09
2.67121e+09
2.67121e+09
2.67121e+09
2.67121e+09
2.67121e+09
2.67121e+09
2.67121e+09
2.67121e+09
)
;

boundaryField
{
    movingWall
    {
        type            calculated;
        value           nonuniform List<scalar> 
20
(
2.67122e+09
2.67121e+09
2.67121e+09
2.67121e+09
2.67121e+09
2.67121e+09
2.67121e+09
2.67121e+09
2.67121e+09
2.67121e+09
2.67121e+09
2.67121e+09
2.67121e+09
2.67121e+09
2.67121e+09
2.67121e+09
2.67121e+09
2.67121e+09
2.67121e+09
2.67121e+09
)
;
    }
    fixedWalls
    {
        type            calculated;
        value           nonuniform List<scalar> 
60
(
2.36859e+09
1.28889e+09
2.43908e+09
2.48791e+09
2.53186e+09
2.56623e+09
2.59062e+09
2.60699e+09
2.61783e+09
2.62533e+09
2.63104e+09
2.63597e+09
2.6407e+09
2.64557e+09
2.6507e+09
2.65601e+09
2.66125e+09
2.66596e+09
2.66955e+09
2.67122e+09
2.36858e+09
2.39499e+09
2.43882e+09
2.48763e+09
2.53158e+09
2.56593e+09
2.59032e+09
2.60668e+09
2.61753e+09
2.62503e+09
2.63074e+09
2.63566e+09
2.64039e+09
2.64526e+09
2.65038e+09
2.6557e+09
2.66094e+09
2.66564e+09
2.66925e+09
2.67121e+09
2.36859e+09
8.80947e+08
2.36859e+09
2.36859e+09
2.36859e+09
2.36859e+09
2.36859e+09
2.36859e+09
2.36859e+09
2.36859e+09
2.36859e+09
2.36858e+09
2.36858e+09
2.36858e+09
2.36858e+09
2.36858e+09
2.36858e+09
2.36858e+09
2.36858e+09
2.36858e+09
)
;
    }
    frontAndBack
    {
        type            empty;
    }
}


// ************************************************************************* //
