/*--------------------------------*- C++ -*----------------------------------*\
| =========                 |                                                 |
| \\      /  F ield         | OpenFOAM: The Open Source CFD Toolbox           |
|  \\    /   O peration     | Version:  2312                                  |
|   \\  /    A nd           | Website:  www.openfoam.com                      |
|    \\/     M anipulation  |                                                 |
\*---------------------------------------------------------------------------*/
FoamFile
{
    version     2.0;
    format      ascii;
    arch        "LSB;label=32;scalar=64";
    class       volScalarField;
    location    "10";
    object      P_A;
}
// * * * * * * * * * * * * * * * * * * * * * * * * * * * * * * * * * * * * * //

dimensions      [1 -1 -3 0 0 0 0];

internalField   nonuniform List<scalar> 
400
(
6.29339e-34
6.29339e-34
6.29338e-34
6.29338e-34
6.29337e-34
6.29337e-34
6.29336e-34
6.29336e-34
6.29336e-34
6.29336e-34
6.29336e-34
6.29335e-34
6.29335e-34
6.29335e-34
6.29335e-34
6.29335e-34
6.29335e-34
6.29335e-34
6.29335e-34
6.29335e-34
6.58159e-34
6.52101e-34
6.52592e-34
6.52796e-34
6.53202e-34
6.53413e-34
6.53824e-34
6.54041e-34
6.54456e-34
6.54677e-34
6.55098e-34
6.55324e-34
6.5575e-34
6.5598e-34
6.56412e-34
6.56646e-34
6.57084e-34
6.57323e-34
6.57543e-34
6.57886e-34
7.07709e-34
7.0102e-34
7.01572e-34
7.01799e-34
7.02254e-34
7.0249e-34
7.02945e-34
7.03188e-34
7.03646e-34
7.03893e-34
7.04356e-34
7.04605e-34
7.05074e-34
7.05324e-34
7.05801e-34
7.06052e-34
7.06535e-34
7.06789e-34
7.07032e-34
7.07404e-34
7.6613e-34
7.58817e-34
7.59419e-34
7.59668e-34
7.60164e-34
7.6042e-34
7.60923e-34
7.61181e-34
7.61689e-34
7.61954e-34
7.62463e-34
7.62733e-34
7.63247e-34
7.63521e-34
7.64041e-34
7.64315e-34
7.64843e-34
7.6512e-34
7.65385e-34
7.65792e-34
8.21744e-34
8.13835e-34
8.14477e-34
8.14756e-34
8.15285e-34
8.15571e-34
8.16103e-34
8.16394e-34
8.16932e-34
8.17226e-34
8.17773e-34
8.18066e-34
8.18623e-34
8.18916e-34
8.19483e-34
8.19777e-34
8.2035e-34
8.20649e-34
8.20936e-34
8.21376e-34
8.6728e-34
8.5887e-34
8.59561e-34
8.59845e-34
8.6042e-34
8.60709e-34
8.61289e-34
8.61586e-34
8.62169e-34
8.62472e-34
8.63059e-34
8.63367e-34
8.63962e-34
8.64273e-34
8.64873e-34
8.65187e-34
8.65795e-34
8.66113e-34
8.66418e-34
8.66886e-34
9.00739e-34
8.91958e-34
8.92679e-34
8.92978e-34
8.93571e-34
8.93879e-34
8.9448e-34
8.94794e-34
8.95398e-34
8.9572e-34
8.96327e-34
8.96654e-34
8.97268e-34
8.97598e-34
8.98221e-34
8.98551e-34
8.99184e-34
8.99517e-34
8.99836e-34
9.00324e-34
9.23717e-34
9.14684e-34
9.15426e-34
9.1573e-34
9.16347e-34
9.16659e-34
9.17279e-34
9.17599e-34
9.18223e-34
9.1855e-34
9.19179e-34
9.19511e-34
9.20148e-34
9.20484e-34
9.21128e-34
9.21466e-34
9.22118e-34
9.2246e-34
9.22788e-34
9.2329e-34
9.39187e-34
9.29983e-34
9.30741e-34
9.31048e-34
9.31679e-34
9.31995e-34
9.32629e-34
9.32953e-34
9.33591e-34
9.33923e-34
9.34565e-34
9.34902e-34
9.35552e-34
9.35893e-34
9.36549e-34
9.36893e-34
9.37559e-34
9.37906e-34
9.38241e-34
9.38753e-34
9.49998e-34
9.40672e-34
9.41435e-34
9.41756e-34
9.42386e-34
9.42713e-34
9.43351e-34
9.43681e-34
9.44326e-34
9.44664e-34
9.45313e-34
9.45657e-34
9.46311e-34
9.4666e-34
9.47323e-34
9.47673e-34
9.48345e-34
9.48699e-34
9.49037e-34
9.49556e-34
9.58292e-34
9.48872e-34
9.49644e-34
9.49965e-34
9.50602e-34
9.50933e-34
9.51576e-34
9.5191e-34
9.52561e-34
9.52903e-34
9.53557e-34
9.53906e-34
9.54566e-34
9.54918e-34
9.55587e-34
9.55941e-34
9.5662e-34
9.56978e-34
9.57319e-34
9.57843e-34
9.65485e-34
9.55985e-34
9.56761e-34
9.57086e-34
9.5773e-34
9.58062e-34
9.58712e-34
9.59049e-34
9.59706e-34
9.6005e-34
9.60711e-34
9.61061e-34
9.61727e-34
9.62082e-34
9.62757e-34
9.63113e-34
9.63798e-34
9.64159e-34
9.64503e-34
9.65031e-34
9.72439e-34
9.62863e-34
9.6365e-34
9.63975e-34
9.64622e-34
9.64958e-34
9.65613e-34
9.65954e-34
9.66613e-34
9.66963e-34
9.67626e-34
9.67981e-34
9.68651e-34
9.6901e-34
9.6969e-34
9.7005e-34
9.7074e-34
9.71103e-34
9.71451e-34
9.71983e-34
9.79635e-34
9.6998e-34
9.70768e-34
9.71101e-34
9.71753e-34
9.72091e-34
9.72752e-34
9.73093e-34
9.73761e-34
9.74111e-34
9.74781e-34
9.75139e-34
9.75815e-34
9.76177e-34
9.76862e-34
9.77226e-34
9.77921e-34
9.78287e-34
9.78637e-34
9.79174e-34
9.87253e-34
9.77516e-34
9.78311e-34
9.78645e-34
9.79303e-34
9.79642e-34
9.8031e-34
9.80653e-34
9.81328e-34
9.81678e-34
9.82359e-34
9.82712e-34
9.83406e-34
9.83759e-34
9.84461e-34
9.84819e-34
9.85527e-34
9.85893e-34
9.86247e-34
9.86788e-34
9.95201e-34
9.85374e-34
9.86174e-34
9.86514e-34
9.87179e-34
9.87518e-34
9.88194e-34
9.88539e-34
9.8922e-34
9.89575e-34
9.9026e-34
9.9062e-34
9.91312e-34
9.91677e-34
9.92377e-34
9.92745e-34
9.93454e-34
9.93827e-34
9.94183e-34
9.9473e-34
1.00308e-33
9.93164e-34
9.93969e-34
9.94312e-34
9.94984e-34
9.95326e-34
9.96008e-34
9.96357e-34
9.97043e-34
9.974e-34
9.98091e-34
9.98457e-34
9.99152e-34
9.99524e-34
1.00023e-33
1.0006e-33
1.00131e-33
1.00169e-33
1.00205e-33
1.0026e-33
1.01019e-33
1.00021e-33
1.00101e-33
1.00136e-33
1.00203e-33
1.00239e-33
1.00306e-33
1.00343e-33
1.00411e-33
1.00447e-33
1.00517e-33
1.00553e-33
1.00624e-33
1.00661e-33
1.00732e-33
1.00769e-33
1.00842e-33
1.0088e-33
1.00916e-33
1.00971e-33
1.01565e-33
1.0058e-33
1.00658e-33
1.00692e-33
1.00757e-33
1.00792e-33
1.00858e-33
1.00894e-33
1.00961e-33
1.00997e-33
1.01065e-33
1.01102e-33
1.01172e-33
1.01208e-33
1.01279e-33
1.01317e-33
1.01389e-33
1.01427e-33
1.01463e-33
1.01519e-33
1.01819e-33
1.01819e-33
1.01819e-33
1.01819e-33
1.01819e-33
1.01819e-33
1.01818e-33
1.01819e-33
1.01818e-33
1.01818e-33
1.01818e-33
1.01818e-33
1.01818e-33
1.01818e-33
1.01818e-33
1.01818e-33
1.01818e-33
1.01818e-33
1.01818e-33
1.01818e-33
)
;

boundaryField
{
    movingWall
    {
        type            calculated;
        value           nonuniform List<scalar> 
20
(
1.01819e-33
1.01819e-33
1.01819e-33
1.01819e-33
1.01819e-33
1.01819e-33
1.01818e-33
1.01819e-33
1.01818e-33
1.01818e-33
1.01818e-33
1.01818e-33
1.01818e-33
1.01818e-33
1.01818e-33
1.01818e-33
1.01818e-33
1.01818e-33
1.01818e-33
1.01818e-33
)
;
    }
    fixedWalls
    {
        type            calculated;
        value           nonuniform List<scalar> 
60
(
6.29339e-34
6.58159e-34
7.07709e-34
7.6613e-34
8.21744e-34
8.6728e-34
9.00739e-34
9.23717e-34
9.39187e-34
9.49998e-34
9.58292e-34
9.65485e-34
9.72439e-34
9.79635e-34
9.87253e-34
9.95201e-34
1.00308e-33
1.01019e-33
1.01565e-33
1.01819e-33
6.29335e-34
6.57886e-34
7.07404e-34
7.65792e-34
8.21376e-34
8.66886e-34
9.00324e-34
9.2329e-34
9.38753e-34
9.49556e-34
9.57843e-34
9.65031e-34
9.71983e-34
9.79174e-34
9.86788e-34
9.9473e-34
1.0026e-33
1.00971e-33
1.01519e-33
1.01818e-33
6.29339e-34
6.29339e-34
6.29338e-34
6.29338e-34
6.29337e-34
6.29337e-34
6.29336e-34
6.29336e-34
6.29336e-34
6.29336e-34
6.29336e-34
6.29335e-34
6.29335e-34
6.29335e-34
6.29335e-34
6.29335e-34
6.29335e-34
6.29335e-34
6.29335e-34
6.29335e-34
)
;
    }
    frontAndBack
    {
        type            empty;
    }
}


// ************************************************************************* //
