/*--------------------------------*- C++ -*----------------------------------*\
| =========                 |                                                 |
| \\      /  F ield         | OpenFOAM: The Open Source CFD Toolbox           |
|  \\    /   O peration     | Version:  2312                                  |
|   \\  /    A nd           | Website:  www.openfoam.com                      |
|    \\/     M anipulation  |                                                 |
\*---------------------------------------------------------------------------*/
FoamFile
{
    version     2.0;
    format      ascii;
    arch        "LSB;label=32;scalar=64";
    class       surfaceScalarField;
    location    "10";
    object      PecletNoField;
}
// * * * * * * * * * * * * * * * * * * * * * * * * * * * * * * * * * * * * * //

dimensions      [0 0 0 0 0 0 0];

oriented        oriented;

internalField   nonuniform List<scalar> 
760
(
460.301
4.96724e-12
460.301
7.2819e-12
460.301
2.13746e-12
460.301
3.56329e-13
460.301
6.45055e-14
460.301
7.59369e-14
460.301
1.11218e-13
460.301
8.54379e-14
460.301
9.38635e-14
460.301
8.54664e-14
460.301
6.89375e-15
460.301
8.28095e-15
460.301
7.30927e-14
460.301
7.93426e-14
460.301
2.25009e-14
460.301
1.80771e-14
460.301
5.2304e-15
460.301
8.1086e-15
460.301
1.65773e-14
7.97201e-15
459.926
4.75621e-12
459.771
5.68445e-12
459.793
1.72109e-12
459.812
2.78132e-13
459.831
5.84276e-14
459.85
1.79289e-14
459.869
5.86571e-14
459.888
8.90306e-14
459.907
9.32525e-14
459.926
8.58643e-14
459.945
3.75783e-14
459.964
2.71455e-14
459.983
1.68e-14
460.003
7.13347e-14
460.022
8.99445e-14
460.041
9.5691e-14
460.06
4.34927e-14
460.073
1.73189e-14
460.089
7.61037e-14
8.34664e-14
459.587
2.95431e-12
459.427
2.88895e-12
459.45
6.83604e-13
459.47
1.17005e-13
459.49
6.54453e-14
459.509
8.35856e-15
459.529
1.90413e-14
459.549
1.20937e-13
459.569
1.39294e-13
459.589
8.25602e-14
459.608
8.33459e-14
459.628
7.5125e-14
459.648
7.19283e-14
459.668
8.18739e-14
459.687
1.05357e-13
459.707
4.93848e-14
459.726
6.94863e-15
459.74
4.58082e-16
459.756
1.01828e-14
7.04058e-14
459.217
4.5691e-12
459.054
5.97559e-12
459.077
1.47715e-12
459.097
3.83355e-13
459.118
5.59585e-14
459.138
5.18901e-14
459.158
2.81877e-14
459.178
4.7959e-15
459.198
2.55526e-14
459.218
6.69481e-14
459.239
1.06143e-13
459.259
9.70677e-14
459.279
5.10674e-14
459.299
2.18349e-14
459.319
8.06685e-15
459.339
1.29728e-14
459.359
1.8115e-14
459.372
1.94886e-14
459.389
2.60944e-16
6.1269e-15
458.887
4.23633e-12
458.721
5.14012e-12
458.745
1.4419e-12
458.765
2.97143e-13
458.786
4.00143e-14
458.807
6.94595e-14
458.827
2.57583e-14
458.848
3.2549e-15
458.868
1.47571e-15
458.889
5.92801e-14
458.909
1.4946e-13
458.929
8.7761e-14
458.95
3.84277e-14
458.97
1.12673e-15
458.991
4.06166e-17
459.011
1.71552e-14
459.031
8.12703e-15
459.045
4.56643e-14
459.062
1.62345e-14
1.48947e-14
458.631
1.28777e-12
458.463
1.4674e-12
458.487
3.02752e-13
458.508
2.19793e-14
458.529
3.43363e-14
458.55
2.53951e-15
458.57
1.23764e-14
458.591
3.72034e-14
458.612
6.34285e-15
458.633
1.84151e-14
458.653
1.31204e-14
458.674
3.27762e-14
458.695
3.52221e-14
458.715
3.13841e-14
458.736
2.37875e-14
458.757
2.89246e-14
458.777
1.56047e-15
458.791
1.34288e-14
458.808
3.60403e-14
5.65193e-14
458.45
2.8369e-12
458.281
4.19539e-12
458.305
1.40405e-12
458.326
1.95617e-13
458.348
1.19189e-13
458.368
7.91189e-15
458.389
5.36273e-14
458.41
3.28964e-14
458.431
9.4917e-15
458.452
3.55195e-14
458.473
9.86459e-14
458.494
1.24934e-15
458.515
6.91019e-14
458.536
3.92707e-14
458.556
3.22619e-14
458.577
8.60725e-14
458.598
2.5082e-14
458.612
3.38555e-15
458.629
7.14644e-14
4.85421e-14
458.33
2.46695e-12
458.16
4.11094e-12
458.184
1.60113e-12
458.205
2.2668e-13
458.226
9.67177e-14
458.247
1.73836e-14
458.268
1.71518e-14
458.289
4.188e-14
458.311
5.58079e-14
458.332
2.87746e-14
458.353
3.38489e-14
458.374
5.29545e-16
458.395
5.12701e-15
458.416
1.84077e-14
458.436
1.3102e-14
458.457
4.81766e-15
458.478
6.76412e-14
458.492
1.41081e-14
458.509
2.27669e-14
9.99622e-15
458.25
1.25855e-12
458.079
1.94197e-12
458.104
8.78257e-13
458.125
1.36274e-13
458.146
3.42749e-14
458.167
6.807e-14
458.188
3.24835e-14
458.21
6.87174e-14
458.231
4.60334e-14
458.252
4.45236e-14
458.273
1.00925e-13
458.294
1.98625e-14
458.315
5.47303e-15
458.336
1.13752e-13
458.357
7.60884e-14
458.378
2.52324e-14
458.399
2.30715e-14
458.413
3.75059e-15
458.43
3.42463e-15
5.48132e-15
458.195
1.1023e-12
458.024
8.93236e-13
458.048
5.69391e-14
458.069
1.66456e-13
458.091
9.82095e-14
458.112
4.4419e-14
458.133
1.62016e-14
458.154
1.08501e-14
458.176
5.4439e-14
458.197
4.59816e-14
458.218
2.51926e-14
458.239
1.07883e-14
458.26
5.85714e-14
458.281
1.48636e-14
458.302
3.02428e-14
458.323
4.05311e-15
458.344
1.57495e-14
458.359
2.31421e-14
458.376
1.15096e-14
3.44139e-14
458.153
1.43636e-12
457.981
2.47899e-12
458.006
1.04964e-12
458.027
2.90523e-15
458.049
1.67352e-13
458.07
6.46549e-14
458.091
1.35171e-15
458.113
2.96346e-14
458.134
5.73121e-14
458.155
8.57522e-14
458.176
3.9335e-14
458.197
5.02045e-14
458.219
3.81528e-14
458.24
1.57675e-15
458.261
1.81947e-14
458.282
4.43362e-14
458.303
5.30983e-14
458.317
2.29332e-14
458.334
1.66651e-14
5.38096e-15
458.117
1.93618e-12
457.945
3.23015e-12
457.97
1.41871e-12
457.991
1.59296e-13
458.013
6.21608e-15
458.034
1.17497e-14
458.055
4.31005e-15
458.077
3.0932e-14
458.098
3.68065e-16
458.119
3.17315e-14
458.14
1.5751e-14
458.162
1.75804e-14
458.183
1.14996e-14
458.204
7.42886e-15
458.225
2.76017e-14
458.246
2.50279e-14
458.267
1.54186e-14
458.281
4.55402e-14
458.299
5.63876e-15
4.31027e-14
458.083
1.40213e-12
457.91
2.62787e-12
457.935
1.11432e-12
457.956
1.54601e-13
457.978
2.26889e-14
457.999
1.79647e-14
458.021
3.33245e-15
458.042
4.96228e-14
458.063
3.22239e-14
458.084
5.35684e-14
458.106
6.15528e-14
458.127
2.27122e-14
458.148
4.05406e-14
458.169
1.43337e-14
458.191
4.96525e-14
458.212
1.45366e-14
458.233
2.35475e-14
458.247
2.53251e-14
458.264
4.20362e-14
4.19551e-14
458.047
6.96262e-13
457.875
8.22785e-13
457.899
3.91415e-13
457.921
3.45419e-15
457.942
5.23248e-14
457.963
2.78438e-14
457.985
1.0368e-13
458.006
1.10353e-13
458.028
7.88373e-14
458.049
3.05209e-14
458.07
2.67058e-14
458.092
2.49668e-14
458.113
6.44502e-16
458.134
1.48642e-14
458.155
2.79558e-14
458.176
4.52003e-14
458.198
1.00344e-14
458.212
5.24862e-14
458.229
4.24866e-14
1.28252e-14
458.01
2.69757e-12
457.837
3.36778e-12
457.862
1.05078e-12
457.883
1.68699e-13
457.905
4.3218e-14
457.926
4.88895e-15
457.948
6.73578e-15
457.969
2.07711e-14
457.99
2.20659e-14
458.012
6.24695e-14
458.033
1.03342e-13
458.054
3.8763e-14
458.076
2.32965e-14
458.097
6.20771e-15
458.118
4.11872e-14
458.139
6.16282e-14
458.161
6.54372e-15
458.175
2.27905e-14
458.192
9.13352e-15
1.50354e-15
457.971
4.09122e-12
457.798
5.88294e-12
457.823
1.74802e-12
457.844
3.40812e-13
457.866
1.86662e-14
457.887
2.91666e-14
457.909
3.57488e-14
457.93
5.09135e-14
457.952
5.33559e-14
457.973
5.64237e-14
457.994
4.63669e-14
458.016
2.1359e-14
458.037
1.42002e-14
458.058
6.83405e-14
458.08
6.72992e-14
458.101
2.49387e-14
458.122
2.18871e-14
458.136
5.08001e-14
458.154
6.36022e-15
2.51862e-14
457.933
3.08318e-12
457.76
3.79706e-12
457.784
1.09571e-12
457.806
1.89884e-13
457.828
3.18013e-14
457.849
1.81793e-14
457.871
1.4167e-14
457.892
4.00822e-14
457.914
6.63545e-14
457.935
2.56275e-14
457.956
3.37804e-14
457.978
1.55966e-14
457.999
2.92478e-14
458.021
4.81314e-14
458.042
4.59542e-14
458.063
4.31428e-14
458.084
1.19235e-14
458.099
7.30061e-14
458.116
1.08446e-14
3.24393e-14
457.899
3.79396e-12
457.725
4.59985e-12
457.75
1.25218e-12
457.772
2.04038e-13
457.793
7.32737e-14
457.815
1.05397e-14
457.836
1.96285e-14
457.858
4.0047e-14
457.879
1.86993e-14
457.901
9.56618e-15
457.922
5.96167e-14
457.944
7.85568e-14
457.965
1.25053e-13
457.987
8.55375e-14
458.008
2.17924e-14
458.029
3.83027e-14
458.051
3.79556e-14
458.065
3.87409e-14
458.082
3.83183e-15
4.0989e-14
457.877
4.65467e-12
457.706
6.69039e-12
457.73
1.95112e-12
457.75
2.75259e-13
457.771
1.02669e-13
457.792
6.84504e-15
457.813
2.88912e-14
457.834
4.30982e-14
457.856
2.11882e-14
457.877
3.21498e-14
457.898
5.47578e-14
457.919
6.00175e-14
457.94
2.37697e-14
457.961
1.30572e-14
457.982
3.21368e-14
458.004
4.14593e-15
458.025
1.77045e-14
458.039
2.9385e-14
458.057
2.99758e-14
7.22707e-14
458.053
458.053
458.053
458.053
458.053
458.053
458.053
458.053
458.053
458.053
458.053
458.053
458.053
458.053
458.053
458.053
458.053
458.053
458.053
)
;

boundaryField
{
    movingWall
    {
        type            calculated;
        value           uniform 0;
    }
    fixedWalls
    {
        type            calculated;
        value           nonuniform List<scalar> 
60
(
250
250
250
250
250
250
250
250
250
250
250
250
250
250
250
250
250
250
250
250
250
250
250
250
250
250
250
250
250
250
250
250
250
250
250
250
250
250
250
250
0
0
0
0
0
0
0
0
0
0
0
0
0
0
0
0
0
0
0
0
)
;
    }
    frontAndBack
    {
        type            empty;
        value           nonuniform List<scalar> 0();
    }
}


// ************************************************************************* //
