/*--------------------------------*- C++ -*----------------------------------*\
| =========                 |                                                 |
| \\      /  F ield         | OpenFOAM: The Open Source CFD Toolbox           |
|  \\    /   O peration     | Version:  2312                                  |
|   \\  /    A nd           | Website:  www.openfoam.com                      |
|    \\/     M anipulation  |                                                 |
\*---------------------------------------------------------------------------*/
FoamFile
{
    version     2.0;
    format      ascii;
    arch        "LSB;label=32;scalar=64";
    class       volScalarField;
    location    "10";
    object      QField;
}
// * * * * * * * * * * * * * * * * * * * * * * * * * * * * * * * * * * * * * //

dimensions      [0 0 -2 0 0 0 0];

internalField   nonuniform List<scalar> 
400
(
-4.31399e-23
-1.22471e-23
-1.04087e-24
1.02665e-25
-3.24652e-26
3.26181e-27
-2.44956e-27
-4.41681e-28
-4.36993e-28
-5.96882e-28
3.49754e-30
-1.15706e-27
-8.80125e-28
-1.24219e-28
0
0
1.04221e-27
-2.873e-28
0
0
-8.31572e-23
-2.45659e-23
-1.56664e-24
-3.54038e-26
-1.7902e-27
2.22897e-27
1.54481e-27
1.0569e-28
-2.19973e-29
-6.3448e-28
-4.71789e-28
-7.38827e-29
2.0342e-28
0
-1.61496e-27
-1.15978e-27
0
0
0
-7.25628e-28
-9.20524e-23
-2.73941e-23
-1.28733e-24
4.22491e-26
-9.73313e-27
3.33345e-27
2.81993e-27
1.94153e-27
-4.97117e-28
-8.10211e-28
-3.43892e-28
-7.30094e-28
1.45229e-28
1.64182e-27
-2.36416e-28
5.10927e-28
1.79835e-27
4.6091e-28
1.45058e-28
-8.26494e-28
-9.19944e-23
-2.61385e-23
-1.13614e-24
-8.80582e-26
0
-9.63637e-28
4.92478e-28
-7.72026e-28
-1.188e-27
-1.90024e-29
6.452e-28
6.19879e-29
-9.50327e-29
-9.64926e-28
-1.78029e-27
-5.44264e-28
-2.93899e-29
-1.19455e-28
4.30232e-28
-8.30203e-28
-7.51586e-23
-2.10406e-23
-1.18339e-24
-5.55495e-26
7.73665e-28
-8.02422e-28
-3.87475e-28
2.16197e-28
-5.4956e-28
0
8.48111e-29
2.62373e-27
1.92322e-27
5.15077e-28
-1.98129e-28
1.28028e-28
1.95639e-28
-4.85096e-28
1.39958e-29
-4.54815e-28
-7.20017e-23
-2.14742e-23
-6.43818e-25
-3.03747e-26
4.21793e-27
-7.49016e-28
1.93413e-27
-3.01305e-28
-1.14089e-27
-5.80219e-28
-4.78691e-27
1.12712e-27
1.75391e-27
-1.53495e-29
-2.18489e-28
2.99698e-29
1.43399e-28
-1.34169e-28
3.22641e-28
-5.42747e-28
-4.64438e-23
-1.68736e-23
-7.33509e-26
0
-4.6011e-28
4.37264e-27
4.22405e-29
9.03145e-29
-2.37557e-28
6.33511e-28
1.33393e-29
1.29542e-27
-3.27829e-28
-9.47715e-29
1.1867e-27
-5.18448e-28
-9.14415e-28
6.60337e-28
4.78047e-28
-6.62801e-28
-1.83905e-23
-8.5466e-24
-6.10879e-25
1.23596e-26
-9.99013e-27
1.64569e-28
9.29983e-28
0
-4.47147e-28
0
-3.00168e-27
6.94524e-28
-3.76465e-28
0
1.99305e-28
-1.40248e-27
2.23681e-28
0
-1.29578e-27
0
-1.51547e-23
-7.2049e-24
-1.81489e-25
-2.61092e-26
9.45079e-27
-1.71106e-27
7.35179e-28
9.28017e-30
-9.91936e-28
-6.74369e-28
4.43576e-28
2.58913e-27
-6.60144e-28
-7.13433e-28
1.01431e-27
-4.01866e-28
-6.02805e-28
2.79224e-28
0
0
-1.28146e-23
-8.13908e-24
4.85129e-25
-2.12447e-26
0
-9.70674e-28
1.11701e-28
-3.81509e-28
4.56055e-28
1.95019e-27
4.41762e-28
9.78657e-28
1.1264e-27
-9.24567e-28
0
7.89389e-28
1.31175e-28
1.02284e-28
-5.11774e-29
-8.45846e-29
-2.24366e-24
-7.75875e-24
7.73674e-25
0
3.58624e-27
6.44523e-27
4.41339e-28
0
-1.45421e-27
-1.26276e-27
7.21983e-30
1.54273e-28
7.76363e-28
2.05107e-28
0
0
-3.25746e-28
-3.63484e-28
-1.7571e-28
0
7.73922e-24
-1.98106e-24
4.78394e-26
3.1425e-26
7.73609e-27
9.44023e-29
6.66228e-28
6.43337e-28
-4.56306e-28
-1.47177e-27
-5.17874e-28
-1.57746e-28
2.80041e-28
1.02033e-28
-4.30262e-28
5.00604e-28
-3.38167e-28
2.20386e-31
5.86266e-28
-5.06925e-29
5.83171e-24
-1.51965e-24
-1.85943e-25
2.70798e-26
1.57633e-27
8.11089e-28
1.00162e-28
-1.41275e-27
1.38427e-27
3.28043e-28
-1.96495e-28
7.76191e-28
7.55716e-28
-1.73962e-28
-3.90669e-28
-8.81424e-28
0
2.31385e-28
-5.81109e-28
-4.12973e-28
-9.77557e-24
-7.75725e-24
4.44603e-25
8.85797e-27
1.7482e-26
-5.53065e-28
1.95188e-27
-5.12371e-28
0
4.22433e-28
-6.87663e-28
0
-1.21085e-28
1.81311e-28
-1.5571e-27
-5.37414e-28
-3.18e-28
1.6688e-28
-5.21674e-29
-4.61964e-28
-4.07385e-23
-1.5109e-23
3.26281e-25
-4.01682e-27
1.52941e-26
2.1033e-28
-1.22471e-27
-9.10103e-28
1.06181e-28
1.47137e-28
-1.81667e-27
3.98511e-28
-1.40433e-28
1.513e-28
0
1.30654e-29
9.61054e-28
-1.83068e-29
1.57083e-28
1.44021e-28
-5.70299e-23
-1.72684e-23
-7.21178e-25
-4.57094e-26
5.64244e-27
0
7.21166e-28
1.35551e-27
1.97966e-27
1.15263e-27
-2.67312e-28
0
0
-5.6591e-28
-7.44512e-28
-5.71652e-28
0
-5.47132e-28
-3.86282e-28
0
-6.20785e-23
-1.89277e-23
-9.44286e-25
-2.35116e-26
-3.63339e-27
-7.20719e-28
2.43422e-29
0
2.22763e-28
1.33851e-27
-9.58113e-28
4.35124e-28
7.31124e-28
4.27098e-28
-3.32205e-31
0
1.20459e-27
-4.31847e-28
1.29961e-27
0
-7.38812e-23
-2.46444e-23
-2.67494e-25
-8.11088e-26
-2.1295e-28
-8.98124e-28
-4.16339e-28
0
2.01016e-28
0
-9.08832e-28
-7.16812e-28
-1.02401e-27
4.90262e-28
-8.13758e-28
-1.65396e-28
-3.22135e-28
-1.16755e-27
0
0
-6.87867e-23
-2.03835e-23
-1.06194e-24
-4.06256e-26
5.39011e-28
-5.43731e-28
1.58886e-27
4.17853e-28
-1.96572e-28
1.69727e-27
1.08655e-27
4.77835e-29
-2.15836e-27
-1.48784e-27
-7.09644e-28
6.54669e-29
4.40638e-28
-1.97455e-28
-9.51883e-28
-1.88712e-28
-3.3364e-23
-9.97887e-24
-5.98371e-25
2.60302e-26
-1.03492e-26
2.63408e-27
-1.66917e-29
2.99854e-28
2.44123e-28
6.72513e-29
-2.61775e-29
-4.17748e-28
8.97247e-31
-3.90951e-28
0
3.43552e-28
-2.24503e-28
0
1.0411e-28
-8.52992e-29
)
;

boundaryField
{
    movingWall
    {
        type            calculated;
        value           nonuniform List<scalar> 
20
(
8.42966e-24
7.20914e-24
-1.49951e-24
1.87872e-25
-3.89827e-26
8.63137e-27
-5.46955e-29
1.78965e-27
1.33844e-27
2.20369e-28
-5.71855e-29
7.92888e-28
1.47005e-30
-1.9216e-27
-3.2994e-28
8.44314e-28
-1.10348e-27
-2.70726e-28
5.1172e-28
5.2678e-29
)
;
    }
    fixedWalls
    {
        type            calculated;
        value           nonuniform List<scalar> 
60
(
-2.41599e-22
-4.5325e-22
-4.79511e-22
-4.66737e-22
-3.97059e-22
-3.6556e-22
-2.44369e-22
-1.33805e-22
-9.96135e-23
-7.14006e-23
-1.10657e-23
1.33789e-23
-2.13778e-24
-5.81601e-23
-2.10158e-22
-3.10395e-22
-3.40773e-22
-3.76667e-22
-3.78615e-22
-1.84096e-22
0
-1.18887e-27
-1.5799e-27
-1.3602e-27
0
-8.89237e-28
-1.166e-27
0
0
1.35985e-28
-1.12716e-29
-1.3489e-28
-6.76615e-28
-4.30156e-28
1.88894e-28
0
0
0
-3.46102e-28
-1.66093e-28
1.60531e-23
1.3453e-23
-3.32834e-24
4.06902e-25
-1.24112e-25
1.44047e-26
-5.05886e-27
-1.50333e-29
3.25959e-28
1.53332e-27
1.14608e-29
-2.8436e-27
-2.97867e-27
-1.70651e-27
0
0
-4.12243e-28
-8.55842e-28
4.03245e-28
0
)
;
    }
    frontAndBack
    {
        type            empty;
    }
}


// ************************************************************************* //
