/*--------------------------------*- C++ -*----------------------------------*\
| =========                 |                                                 |
| \\      /  F ield         | OpenFOAM: The Open Source CFD Toolbox           |
|  \\    /   O peration     | Version:  2312                                  |
|   \\  /    A nd           | Website:  www.openfoam.com                      |
|    \\/     M anipulation  |                                                 |
\*---------------------------------------------------------------------------*/
FoamFile
{
    version     2.0;
    format      ascii;
    arch        "LSB;label=32;scalar=64";
    class       surfaceScalarField;
    location    "10";
    object      surfaceK;
}
// * * * * * * * * * * * * * * * * * * * * * * * * * * * * * * * * * * * * * //

dimensions      [0 2 -2 0 0 0 0];

internalField   nonuniform List<scalar> 
760
(
2.36859e-06
2.38191e-06
2.36859e-06
2.38191e-06
2.36859e-06
2.38189e-06
2.36859e-06
2.38188e-06
2.36859e-06
2.38187e-06
2.36859e-06
2.38186e-06
2.36859e-06
2.38185e-06
2.36859e-06
2.38184e-06
2.36859e-06
2.38183e-06
2.36859e-06
2.38182e-06
2.36859e-06
2.38181e-06
2.36858e-06
2.38181e-06
2.36858e-06
2.3818e-06
2.36858e-06
2.3818e-06
2.36858e-06
2.38179e-06
2.36858e-06
2.38179e-06
2.36858e-06
2.38179e-06
2.36858e-06
2.38179e-06
2.36858e-06
2.38179e-06
2.38179e-06
2.39524e-06
2.41716e-06
2.39522e-06
2.41716e-06
2.39519e-06
2.41711e-06
2.39516e-06
2.4171e-06
2.39514e-06
2.41707e-06
2.39512e-06
2.41705e-06
2.3951e-06
2.41702e-06
2.39508e-06
2.41701e-06
2.39507e-06
2.41699e-06
2.39505e-06
2.41698e-06
2.39504e-06
2.41696e-06
2.39503e-06
2.41695e-06
2.39502e-06
2.41693e-06
2.39501e-06
2.41693e-06
2.395e-06
2.41692e-06
2.395e-06
2.41692e-06
2.39499e-06
2.41691e-06
2.39499e-06
2.41691e-06
2.39499e-06
2.4169e-06
2.4169e-06
2.43908e-06
2.46349e-06
2.43906e-06
2.46349e-06
2.43902e-06
2.46345e-06
2.439e-06
2.46343e-06
2.43898e-06
2.4634e-06
2.43895e-06
2.46338e-06
2.43893e-06
2.46335e-06
2.43892e-06
2.46334e-06
2.4389e-06
2.46332e-06
2.43888e-06
2.46331e-06
2.43887e-06
2.46328e-06
2.43886e-06
2.46328e-06
2.43885e-06
2.46326e-06
2.43884e-06
2.46325e-06
2.43883e-06
2.46324e-06
2.43883e-06
2.46324e-06
2.43882e-06
2.46323e-06
2.43882e-06
2.46323e-06
2.43882e-06
2.46323e-06
2.46323e-06
2.48791e-06
2.50989e-06
2.48788e-06
2.50989e-06
2.48785e-06
2.50983e-06
2.48783e-06
2.50982e-06
2.4878e-06
2.50978e-06
2.48778e-06
2.50977e-06
2.48776e-06
2.50974e-06
2.48774e-06
2.50973e-06
2.48772e-06
2.5097e-06
2.4877e-06
2.50969e-06
2.48769e-06
2.50967e-06
2.48768e-06
2.50966e-06
2.48767e-06
2.50964e-06
2.48766e-06
2.50964e-06
2.48765e-06
2.50963e-06
2.48764e-06
2.50962e-06
2.48764e-06
2.50961e-06
2.48764e-06
2.50961e-06
2.48763e-06
2.50961e-06
2.50961e-06
2.53187e-06
2.54904e-06
2.53184e-06
2.54905e-06
2.53181e-06
2.54899e-06
2.53178e-06
2.54898e-06
2.53175e-06
2.54894e-06
2.53173e-06
2.54892e-06
2.53171e-06
2.54889e-06
2.53169e-06
2.54888e-06
2.53167e-06
2.54885e-06
2.53165e-06
2.54884e-06
2.53164e-06
2.54882e-06
2.53163e-06
2.54881e-06
2.53161e-06
2.5488e-06
2.5316e-06
2.54879e-06
2.5316e-06
2.54878e-06
2.53159e-06
2.54877e-06
2.53159e-06
2.54876e-06
2.53158e-06
2.54876e-06
2.53158e-06
2.54876e-06
2.54876e-06
2.56623e-06
2.57842e-06
2.5662e-06
2.57842e-06
2.56616e-06
2.57837e-06
2.56614e-06
2.57835e-06
2.56611e-06
2.57832e-06
2.56609e-06
2.5783e-06
2.56607e-06
2.57827e-06
2.56604e-06
2.57825e-06
2.56603e-06
2.57823e-06
2.56601e-06
2.57821e-06
2.56599e-06
2.57819e-06
2.56598e-06
2.57818e-06
2.56597e-06
2.57817e-06
2.56596e-06
2.57816e-06
2.56595e-06
2.57815e-06
2.56594e-06
2.57814e-06
2.56594e-06
2.57813e-06
2.56594e-06
2.57813e-06
2.56593e-06
2.57813e-06
2.57813e-06
2.59062e-06
2.5988e-06
2.59059e-06
2.5988e-06
2.59056e-06
2.59875e-06
2.59053e-06
2.59873e-06
2.5905e-06
2.59869e-06
2.59048e-06
2.59867e-06
2.59046e-06
2.59865e-06
2.59044e-06
2.59863e-06
2.59042e-06
2.5986e-06
2.5904e-06
2.59859e-06
2.59038e-06
2.59857e-06
2.59037e-06
2.59856e-06
2.59036e-06
2.59854e-06
2.59035e-06
2.59854e-06
2.59034e-06
2.59852e-06
2.59033e-06
2.59852e-06
2.59033e-06
2.59851e-06
2.59033e-06
2.59851e-06
2.59032e-06
2.5985e-06
2.5985e-06
2.60699e-06
2.61241e-06
2.60696e-06
2.61241e-06
2.60692e-06
2.61236e-06
2.60689e-06
2.61233e-06
2.60687e-06
2.6123e-06
2.60684e-06
2.61228e-06
2.60682e-06
2.61225e-06
2.6068e-06
2.61223e-06
2.60678e-06
2.61221e-06
2.60676e-06
2.61219e-06
2.60675e-06
2.61217e-06
2.60673e-06
2.61216e-06
2.60672e-06
2.61215e-06
2.60671e-06
2.61214e-06
2.6067e-06
2.61213e-06
2.60669e-06
2.61212e-06
2.60669e-06
2.61211e-06
2.60669e-06
2.61211e-06
2.60668e-06
2.61211e-06
2.61211e-06
2.61783e-06
2.62158e-06
2.61781e-06
2.62158e-06
2.61777e-06
2.62153e-06
2.61774e-06
2.62151e-06
2.61771e-06
2.62147e-06
2.61769e-06
2.62145e-06
2.61767e-06
2.62143e-06
2.61764e-06
2.6214e-06
2.61763e-06
2.62138e-06
2.61761e-06
2.62137e-06
2.61759e-06
2.62135e-06
2.61758e-06
2.62134e-06
2.61757e-06
2.62132e-06
2.61756e-06
2.62131e-06
2.61755e-06
2.6213e-06
2.61754e-06
2.62129e-06
2.61753e-06
2.62128e-06
2.61753e-06
2.62128e-06
2.61753e-06
2.62128e-06
2.62128e-06
2.62533e-06
2.62819e-06
2.6253e-06
2.62819e-06
2.62527e-06
2.62813e-06
2.62524e-06
2.62811e-06
2.62521e-06
2.62807e-06
2.62519e-06
2.62806e-06
2.62516e-06
2.62803e-06
2.62514e-06
2.62801e-06
2.62512e-06
2.62798e-06
2.62511e-06
2.62797e-06
2.62509e-06
2.62795e-06
2.62508e-06
2.62794e-06
2.62506e-06
2.62792e-06
2.62505e-06
2.62791e-06
2.62504e-06
2.6279e-06
2.62504e-06
2.6279e-06
2.62503e-06
2.62789e-06
2.62503e-06
2.62789e-06
2.62503e-06
2.62788e-06
2.62788e-06
2.63104e-06
2.6335e-06
2.63101e-06
2.6335e-06
2.63098e-06
2.63345e-06
2.63095e-06
2.63343e-06
2.63092e-06
2.63339e-06
2.6309e-06
2.63337e-06
2.63087e-06
2.63334e-06
2.63085e-06
2.63332e-06
2.63083e-06
2.6333e-06
2.63081e-06
2.63329e-06
2.6308e-06
2.63326e-06
2.63078e-06
2.63325e-06
2.63077e-06
2.63323e-06
2.63076e-06
2.63323e-06
2.63075e-06
2.63321e-06
2.63075e-06
2.63321e-06
2.63074e-06
2.6332e-06
2.63074e-06
2.6332e-06
2.63074e-06
2.6332e-06
2.6332e-06
2.63597e-06
2.63833e-06
2.63594e-06
2.63833e-06
2.6359e-06
2.63827e-06
2.63587e-06
2.63826e-06
2.63584e-06
2.63822e-06
2.63582e-06
2.6382e-06
2.63579e-06
2.63817e-06
2.63577e-06
2.63815e-06
2.63575e-06
2.63813e-06
2.63574e-06
2.63811e-06
2.63572e-06
2.63809e-06
2.63571e-06
2.63808e-06
2.63569e-06
2.63806e-06
2.63568e-06
2.63806e-06
2.63567e-06
2.63804e-06
2.63567e-06
2.63804e-06
2.63566e-06
2.63803e-06
2.63566e-06
2.63803e-06
2.63566e-06
2.63802e-06
2.63802e-06
2.6407e-06
2.64313e-06
2.64067e-06
2.64313e-06
2.64063e-06
2.64308e-06
2.6406e-06
2.64306e-06
2.64058e-06
2.64302e-06
2.64055e-06
2.643e-06
2.64053e-06
2.64297e-06
2.64051e-06
2.64295e-06
2.64049e-06
2.64293e-06
2.64047e-06
2.64292e-06
2.64045e-06
2.64289e-06
2.64044e-06
2.64288e-06
2.64043e-06
2.64286e-06
2.64042e-06
2.64286e-06
2.64041e-06
2.64284e-06
2.6404e-06
2.64284e-06
2.64039e-06
2.64283e-06
2.64039e-06
2.64283e-06
2.64039e-06
2.64282e-06
2.64282e-06
2.64557e-06
2.64813e-06
2.64554e-06
2.64813e-06
2.6455e-06
2.64807e-06
2.64548e-06
2.64806e-06
2.64545e-06
2.64802e-06
2.64542e-06
2.648e-06
2.6454e-06
2.64797e-06
2.64538e-06
2.64795e-06
2.64536e-06
2.64793e-06
2.64534e-06
2.64791e-06
2.64532e-06
2.64789e-06
2.64531e-06
2.64788e-06
2.6453e-06
2.64786e-06
2.64528e-06
2.64785e-06
2.64528e-06
2.64784e-06
2.64527e-06
2.64784e-06
2.64526e-06
2.64783e-06
2.64526e-06
2.64783e-06
2.64526e-06
2.64782e-06
2.64782e-06
2.6507e-06
2.65336e-06
2.65067e-06
2.65336e-06
2.65063e-06
2.6533e-06
2.6506e-06
2.65328e-06
2.65057e-06
2.65324e-06
2.65055e-06
2.65322e-06
2.65052e-06
2.65319e-06
2.6505e-06
2.65317e-06
2.65048e-06
2.65315e-06
2.65046e-06
2.65313e-06
2.65045e-06
2.65311e-06
2.65043e-06
2.6531e-06
2.65042e-06
2.65309e-06
2.65041e-06
2.65307e-06
2.6504e-06
2.65306e-06
2.6504e-06
2.65306e-06
2.65039e-06
2.65305e-06
2.65039e-06
2.65305e-06
2.65039e-06
2.65304e-06
2.65304e-06
2.65601e-06
2.65863e-06
2.65598e-06
2.65863e-06
2.65595e-06
2.65857e-06
2.65592e-06
2.65856e-06
2.65589e-06
2.65852e-06
2.65586e-06
2.6585e-06
2.65584e-06
2.65847e-06
2.65582e-06
2.65845e-06
2.6558e-06
2.65842e-06
2.65578e-06
2.65841e-06
2.65576e-06
2.65839e-06
2.65575e-06
2.65838e-06
2.65574e-06
2.65836e-06
2.65573e-06
2.65835e-06
2.65572e-06
2.65834e-06
2.65571e-06
2.65833e-06
2.6557e-06
2.65832e-06
2.6557e-06
2.65832e-06
2.6557e-06
2.65832e-06
2.65832e-06
2.66125e-06
2.6636e-06
2.66122e-06
2.66361e-06
2.66118e-06
2.66354e-06
2.66116e-06
2.66353e-06
2.66113e-06
2.66349e-06
2.6611e-06
2.66347e-06
2.66108e-06
2.66344e-06
2.66105e-06
2.66342e-06
2.66103e-06
2.66339e-06
2.66102e-06
2.66338e-06
2.661e-06
2.66336e-06
2.66099e-06
2.66335e-06
2.66097e-06
2.66333e-06
2.66096e-06
2.66332e-06
2.66095e-06
2.66331e-06
2.66095e-06
2.6633e-06
2.66094e-06
2.6633e-06
2.66094e-06
2.66329e-06
2.66094e-06
2.66329e-06
2.66329e-06
2.66596e-06
2.66775e-06
2.66593e-06
2.66776e-06
2.66589e-06
2.66769e-06
2.66586e-06
2.66769e-06
2.66583e-06
2.66764e-06
2.66581e-06
2.66763e-06
2.66578e-06
2.66759e-06
2.66576e-06
2.66758e-06
2.66574e-06
2.66755e-06
2.66572e-06
2.66753e-06
2.6657e-06
2.66751e-06
2.66569e-06
2.6675e-06
2.66568e-06
2.66749e-06
2.66567e-06
2.66747e-06
2.66566e-06
2.66746e-06
2.66565e-06
2.66746e-06
2.66565e-06
2.66745e-06
2.66564e-06
2.66745e-06
2.66564e-06
2.66744e-06
2.66744e-06
2.66955e-06
2.67038e-06
2.66953e-06
2.67039e-06
2.66949e-06
2.67035e-06
2.66946e-06
2.67035e-06
2.66943e-06
2.67033e-06
2.66941e-06
2.67032e-06
2.66938e-06
2.6703e-06
2.66936e-06
2.6703e-06
2.66934e-06
2.67028e-06
2.66932e-06
2.67027e-06
2.66931e-06
2.67026e-06
2.66929e-06
2.67026e-06
2.66928e-06
2.67025e-06
2.66927e-06
2.67024e-06
2.66926e-06
2.67024e-06
2.66926e-06
2.67024e-06
2.66925e-06
2.67023e-06
2.66925e-06
2.67023e-06
2.66925e-06
2.67023e-06
2.67023e-06
2.67122e-06
2.67121e-06
2.67121e-06
2.67121e-06
2.67121e-06
2.67121e-06
2.67121e-06
2.67121e-06
2.67121e-06
2.67121e-06
2.67121e-06
2.67121e-06
2.67121e-06
2.67121e-06
2.67121e-06
2.67121e-06
2.67121e-06
2.67121e-06
2.67121e-06
)
;

boundaryField
{
    movingWall
    {
        type            calculated;
        value           nonuniform List<scalar> 
20
(
2.67122e-06
2.67121e-06
2.67121e-06
2.67121e-06
2.67121e-06
2.67121e-06
2.67121e-06
2.67121e-06
2.67121e-06
2.67121e-06
2.67121e-06
2.67121e-06
2.67121e-06
2.67121e-06
2.67121e-06
2.67121e-06
2.67121e-06
2.67121e-06
2.67121e-06
2.67121e-06
)
;
    }
    fixedWalls
    {
        type            calculated;
        value           nonuniform List<scalar> 
60
(
2.36859e-06
2.39524e-06
2.43908e-06
2.48791e-06
2.53186e-06
2.56623e-06
2.59062e-06
2.60699e-06
2.61783e-06
2.62533e-06
2.63104e-06
2.63597e-06
2.6407e-06
2.64557e-06
2.6507e-06
2.65601e-06
2.66125e-06
2.66596e-06
2.66955e-06
2.67122e-06
2.36858e-06
2.39499e-06
2.43882e-06
2.48763e-06
2.53158e-06
2.56593e-06
2.59032e-06
2.60668e-06
2.61753e-06
2.62503e-06
2.63074e-06
2.63566e-06
2.64039e-06
2.64526e-06
2.65038e-06
2.6557e-06
2.66094e-06
2.66564e-06
2.66925e-06
2.67121e-06
2.36859e-06
2.36859e-06
2.36859e-06
2.36859e-06
2.36859e-06
2.36859e-06
2.36859e-06
2.36859e-06
2.36859e-06
2.36859e-06
2.36859e-06
2.36858e-06
2.36858e-06
2.36858e-06
2.36858e-06
2.36858e-06
2.36858e-06
2.36858e-06
2.36858e-06
2.36858e-06
)
;
    }
    frontAndBack
    {
        type            empty;
        value           nonuniform List<scalar> 0();
    }
}


// ************************************************************************* //
