/*--------------------------------*- C++ -*----------------------------------*\
| =========                 |                                                 |
| \\      /  F ield         | OpenFOAM: The Open Source CFD Toolbox           |
|  \\    /   O peration     | Version:  2312                                  |
|   \\  /    A nd           | Website:  www.openfoam.com                      |
|    \\/     M anipulation  |                                                 |
\*---------------------------------------------------------------------------*/
FoamFile
{
    version     2.0;
    format      ascii;
    arch        "LSB;label=32;scalar=64";
    class       surfaceScalarField;
    location    "10";
    object      surfaceDivU;
}
// * * * * * * * * * * * * * * * * * * * * * * * * * * * * * * * * * * * * * //

dimensions      [0 0 -1 0 0 0 0];

internalField   nonuniform List<scalar> 
760
(
7.61192e-12
-6.76271e-12
-8.34482e-13
8.9271e-13
1.51913e-13
-1.73469e-13
-4.96245e-14
7.34067e-14
8.92814e-15
2.4728e-15
-2.36376e-14
9.26667e-16
-2.32086e-15
6.40004e-15
1.2029e-14
2.08596e-16
-4.96514e-15
5.88856e-15
-1.22877e-14
-5.7285e-15
4.56011e-15
-4.56752e-15
2.75362e-15
-2.27744e-15
-1.69592e-14
2.04323e-14
-1.01265e-14
-1.20569e-14
7.45521e-15
-1.87535e-15
1.98167e-14
-9.93456e-15
9.27589e-15
2.08251e-14
-8.14193e-15
-9.04117e-15
1.10855e-16
-1.09893e-14
1.35525e-14
-1.34819e-11
-1.05168e-11
1.55372e-12
1.11985e-12
-2.51975e-13
-2.70186e-13
1.25504e-13
8.6167e-14
-5.52868e-15
-8.33422e-15
3.09644e-14
-1.68355e-15
8.92949e-15
2.09068e-14
-5.93188e-15
-1.15173e-14
5.12521e-15
-7.82165e-15
1.99172e-15
8.55781e-15
-1.14051e-14
-2.73505e-15
1.54012e-14
-1.75961e-14
2.53345e-14
1.02894e-14
-3.80576e-15
8.85194e-15
-1.92651e-14
-2.6001e-15
-8.92618e-15
-8.86692e-16
2.50802e-15
5.371e-15
-1.18885e-14
-4.33684e-16
2.45237e-15
-1.97314e-14
1.35525e-14
4.08501e-12
1.22515e-11
-7.04063e-13
-1.03953e-12
6.79557e-14
1.38474e-13
-4.76711e-14
-5.39426e-14
-4.4891e-15
4.67976e-14
-1.17411e-14
-2.61649e-14
4.59965e-16
-2.9959e-14
-1.34071e-14
1.27895e-14
-4.38904e-15
4.77553e-15
3.83103e-15
5.72229e-15
-8.92606e-15
1.47317e-14
-2.27079e-14
-4.63202e-15
-6.19317e-15
-1.40398e-14
1.00576e-14
1.18565e-14
1.57783e-14
3.48281e-14
1.34105e-14
1.55808e-14
2.4293e-15
-8.78447e-15
-8.27655e-15
1.06737e-15
-8.63126e-15
1.77789e-14
-1.35525e-14
7.12695e-12
-3.7405e-12
-1.96994e-13
6.94443e-13
1.65758e-14
-1.7778e-13
4.05261e-14
6.65827e-14
2.51217e-14
1.67637e-14
-4.43828e-14
1.19538e-15
-1.76295e-14
-2.80964e-14
3.09721e-14
1.48737e-15
1.48869e-14
1.19066e-14
1.66229e-14
5.67917e-15
1.90257e-14
1.28799e-14
4.03611e-15
9.69453e-15
4.00985e-15
-1.4416e-14
3.6627e-14
1.04864e-15
3.46305e-14
2.87281e-14
-6.6142e-15
6.73746e-15
-1.01464e-14
-1.04314e-14
2.71228e-14
2.40562e-14
1.28576e-14
4.16806e-14
-2.71051e-14
-1.0173e-11
-5.02799e-12
7.13657e-13
5.77359e-13
-1.27773e-13
-1.07396e-13
4.28203e-14
3.09951e-14
-7.16266e-15
-3.95672e-16
1.74817e-14
-5.2651e-16
-8.97959e-15
4.27021e-15
-1.75781e-14
2.89487e-15
2.69895e-15
-1.94698e-15
1.93615e-15
-1.26615e-14
3.54872e-15
1.57028e-14
-8.75756e-15
1.20211e-14
-1.73772e-14
4.05066e-15
-6.85026e-15
-6.37894e-15
8.34984e-16
2.3641e-15
2.92026e-15
1.08094e-14
2.37712e-14
2.48321e-15
3.86139e-14
2.3803e-14
1.71786e-15
2.38613e-14
-2.71051e-14
5.72237e-12
1.11402e-11
-2.43694e-13
-1.38227e-12
5.13718e-14
2.78256e-13
-1.22209e-14
-9.21535e-14
6.24048e-15
1.09139e-14
-1.3738e-14
-9.75723e-15
1.61447e-14
1.67025e-15
1.8526e-14
3.91338e-16
-1.73075e-14
-8.08625e-15
1.10511e-15
-2.24926e-14
2.41751e-14
3.21568e-14
2.48293e-14
9.94471e-15
1.50489e-14
-4.5974e-15
2.83543e-15
-9.38704e-15
1.23386e-14
1.137e-14
1.03724e-14
-4.2872e-15
2.51505e-15
-2.99763e-15
9.0504e-15
3.0081e-15
-4.96164e-15
4.4973e-15
-1.35525e-14
4.03553e-12
-7.7656e-12
-8.60322e-13
1.16078e-12
1.34731e-13
-2.42146e-13
-6.90188e-14
9.50371e-14
-5.0838e-15
4.35148e-16
5.65105e-15
7.63913e-16
-1.40831e-14
-2.81695e-14
-2.62209e-14
-1.7925e-14
-1.32714e-14
1.40594e-14
8.55911e-15
5.76149e-15
1.79264e-14
-2.07683e-14
-1.9482e-14
2.65794e-14
-2.90334e-14
7.35507e-15
-8.5244e-16
2.40436e-16
-5.25573e-15
-3.21942e-15
-1.76572e-14
1.75375e-14
-2.50458e-15
-3.92745e-14
-1.545e-15
3.3713e-15
-4.0936e-15
1.0219e-14
-1.35525e-14
-1.06403e-11
-1.68051e-12
1.77896e-12
5.48209e-14
-2.8184e-13
-1.52766e-14
1.64491e-13
-2.99976e-14
6.28286e-15
2.659e-14
-3.30567e-14
3.88721e-15
-3.20115e-14
-1.2749e-14
2.23552e-14
4.41587e-15
3.30923e-14
2.08564e-14
-2.35659e-14
-1.21493e-14
-1.21153e-14
-4.03794e-14
5.34164e-14
4.14022e-14
3.66289e-14
2.10129e-14
-2.12655e-15
-1.10972e-15
1.95738e-14
-4.23692e-14
-4.07977e-15
3.99281e-14
-3.33986e-14
-6.23989e-15
1.51353e-14
2.79317e-15
7.60098e-16
1.13667e-14
-1.35525e-14
9.01465e-12
7.44034e-12
-1.73941e-12
-1.26945e-12
2.36566e-13
3.05386e-13
-1.67899e-13
-1.28925e-13
2.41943e-14
-5.62804e-16
2.41949e-14
1.66454e-15
2.36784e-14
-5.94191e-15
2.91706e-15
9.90991e-15
-2.43852e-14
7.26513e-15
-2.89628e-14
-2.4951e-14
1.31381e-14
3.07313e-14
8.9986e-15
2.38551e-14
-1.67257e-14
-1.09755e-14
-4.13523e-14
1.25735e-14
-2.20149e-14
-3.70392e-14
3.7768e-14
-4.91267e-15
2.99519e-14
2.76648e-14
-9.75493e-16
-1.14984e-14
-2.94596e-15
6.71656e-15
-1.35525e-14
-2.84377e-12
-8.34836e-12
7.75349e-13
1.57842e-12
-6.01056e-14
-2.63323e-13
3.84104e-14
1.13243e-13
-2.30926e-14
-2.02346e-14
-2.84723e-14
4.8961e-15
-1.97104e-14
-2.51792e-14
1.4258e-14
1.64658e-14
6.69934e-15
-4.59163e-16
3.47431e-14
-3.094e-14
4.14483e-14
3.93278e-14
3.88105e-15
1.54533e-15
1.83237e-14
-1.40757e-14
1.68866e-14
6.2444e-15
-1.9937e-14
-1.92867e-14
-1.50158e-14
-2.24433e-14
-1.37855e-14
6.88986e-15
-3.80635e-15
1.03673e-14
-3.89001e-15
8.46317e-15
-1.35525e-14
-3.92617e-12
6.13929e-12
5.39749e-13
-1.43679e-12
-8.99742e-14
2.63025e-13
5.45981e-14
-1.28207e-13
7.75416e-15
2.68637e-14
8.18919e-15
-6.63885e-16
1.0997e-14
7.72669e-15
1.7487e-15
-9.66497e-16
-3.80985e-14
-4.29737e-15
-2.63553e-14
-2.31976e-14
-5.75118e-16
1.36639e-14
-1.64114e-14
-3.35182e-15
-2.6155e-14
-4.73058e-15
-2.9929e-14
-1.0849e-14
-2.1793e-14
-1.35957e-14
-5.37571e-16
-1.31053e-14
3.10426e-14
-1.09087e-14
2.26368e-14
3.41239e-14
-1.19934e-15
-1.52394e-15
-1.35525e-14
8.62867e-12
-9.21572e-13
-1.71351e-12
2.87481e-13
2.24793e-13
-6.95449e-14
-1.55941e-13
2.09507e-14
1.84457e-14
-2.02843e-14
-1.12638e-15
-2.86653e-15
-4.23683e-15
-3.27905e-15
-7.01257e-15
6.46709e-15
1.06036e-14
-8.06056e-15
1.68215e-14
-2.66548e-15
1.08872e-14
1.25805e-14
8.32901e-15
2.7978e-14
1.05755e-14
-1.8157e-14
5.48426e-15
5.03874e-15
-4.908e-15
2.44083e-14
-2.34764e-14
-2.81123e-14
-7.82746e-15
-1.55157e-14
9.96311e-15
-7.5628e-15
-1.38771e-14
4.31801e-15
1.35525e-14
-9.26277e-12
-4.77049e-12
1.93145e-12
9.58429e-13
-2.73387e-13
-2.04098e-13
1.56607e-13
9.01549e-14
-4.15966e-14
-3.42985e-14
-5.0192e-15
2.39195e-16
7.42486e-15
1.7155e-14
5.41909e-15
1.32367e-14
-2.13296e-14
-6.13173e-15
-6.90648e-15
-2.31916e-15
2.96714e-14
-1.22032e-14
1.492e-15
2.61959e-14
-2.36937e-14
-8.97896e-15
2.39628e-14
-1.4729e-15
1.20393e-15
-1.48125e-14
-2.01516e-14
-1.38257e-14
-1.5251e-14
2.9371e-14
-1.32079e-14
2.35861e-15
3.17477e-14
-4.13405e-15
1.35525e-14
5.4507e-12
9.16151e-12
-1.17712e-12
-1.53818e-12
1.59443e-13
2.65986e-13
-1.00751e-13
-9.75597e-14
7.53723e-15
1.41324e-14
2.24134e-14
1.20704e-14
2.29669e-14
6.90334e-15
1.68592e-15
-2.13185e-14
1.28787e-14
-7.88429e-15
-7.61588e-15
-6.42128e-15
-1.56787e-14
9.67733e-15
1.57249e-14
-3.62148e-15
1.32419e-14
2.60004e-14
-4.02481e-14
9.31752e-15
-2.98421e-14
-3.36034e-14
3.56969e-14
-9.49533e-15
4.69806e-14
1.42123e-14
1.14325e-14
3.19355e-14
-2.23292e-14
3.01652e-15
-1.35525e-14
2.17262e-12
-8.64651e-12
-9.50741e-14
1.2107e-12
8.98267e-15
-2.77691e-13
1.73236e-14
1.05048e-13
1.86655e-14
-2.30364e-14
-3.43971e-15
2.08357e-14
-3.73821e-14
-2.14412e-14
-3.08887e-14
-1.07446e-14
-2.71843e-14
-1.04281e-14
1.08719e-14
-1.51036e-14
2.17346e-14
1.69904e-14
6.65405e-15
-9.68468e-15
2.20761e-14
6.24542e-15
1.59622e-14
1.11571e-14
-1.32566e-14
2.2732e-14
-3.09799e-14
-2.02815e-14
-8.32857e-16
-7.71305e-15
2.35196e-14
6.44051e-15
1.17932e-14
1.20662e-14
0
-9.60844e-12
4.74338e-13
1.02808e-12
-7.78026e-14
-1.81626e-13
8.29272e-15
6.46881e-14
-4.10494e-14
-2.08663e-14
-1.1961e-15
2.8342e-15
1.54972e-14
5.19633e-15
-2.05017e-14
9.71602e-15
-1.97177e-15
1.65252e-15
5.25308e-15
-8.9852e-15
1.19871e-14
-1.44289e-14
-2.11124e-14
-1.00933e-14
-9.30472e-15
-4.67355e-15
-2.1761e-15
1.79269e-14
-1.30572e-15
1.57072e-14
8.03699e-15
2.98543e-15
-1.12357e-14
-4.39683e-16
5.36352e-15
-5.01284e-15
-3.56831e-14
2.73023e-16
3.0366e-14
0
1.0005e-11
1.17229e-11
-1.09759e-12
-1.25386e-12
1.48869e-13
2.41501e-13
-1.06934e-13
-1.34905e-13
3.51674e-14
1.47796e-14
-7.83865e-15
2.12306e-14
-2.76698e-14
-3.03027e-14
-6.43471e-15
-7.19006e-15
1.55877e-14
-1.66316e-14
-1.40111e-16
5.45343e-15
-1.59882e-14
4.15158e-15
-1.38751e-15
-8.15813e-15
1.19173e-15
2.33731e-14
-1.11956e-14
1.01622e-15
-1.89059e-14
-2.27652e-14
-8.85763e-15
-1.56989e-14
-2.98799e-14
8.64486e-15
-3.0425e-16
-1.73531e-14
3.0093e-14
3.09491e-14
0
4.64109e-13
-1.2116e-11
8.52398e-14
1.41955e-12
-4.2273e-14
-3.14182e-13
-1.31915e-14
1.06113e-13
8.42792e-16
-7.84791e-15
-1.23347e-15
1.13452e-14
-9.82301e-15
-3.93658e-15
-1.73869e-14
9.35583e-15
-2.67658e-14
-2.33037e-14
9.74512e-15
3.38594e-15
1.19817e-14
2.00866e-14
1.66025e-14
-1.21957e-15
2.31976e-14
-1.26254e-15
-1.05533e-14
-1.37281e-14
-1.95582e-14
9.84783e-15
1.80358e-15
-3.59388e-14
2.11717e-14
2.8553e-15
1.39003e-14
3.68352e-15
8.56122e-16
2.1462e-14
0
-1.11605e-11
-4.66207e-12
1.02013e-12
3.45574e-13
-1.65796e-13
-5.72856e-14
1.11457e-13
4.05671e-14
2.65454e-15
1.66795e-14
8.64212e-15
-4.72419e-16
1.52423e-14
9.11454e-15
3.4391e-15
6.12772e-15
6.8481e-15
-1.62411e-14
1.37274e-14
9.53671e-15
6.88531e-15
1.77432e-14
-1.90846e-14
2.69465e-15
-3.81882e-14
-8.22669e-15
6.67308e-15
-1.6409e-14
-6.53282e-15
2.30821e-14
-3.48871e-14
-2.96149e-14
-1.46328e-14
-5.27222e-15
1.12453e-14
4.19191e-15
2.06059e-14
2.06059e-14
-2.71051e-14
6.84403e-12
-7.31836e-13
1.49078e-13
-5.42101e-14
1.35525e-14
0
0
-1.35525e-14
-1.35525e-14
1.35525e-14
1.35525e-14
1.35525e-14
1.35525e-14
0
0
0
1.35525e-14
1.35525e-14
-2.71051e-14
)
;

boundaryField
{
    movingWall
    {
        type            calculated;
        value           nonuniform List<scalar> 
20
(
1.55854e-11
-1.89735e-12
4.33681e-13
-1.35525e-13
2.71051e-14
0
0
0
-2.71051e-14
0
2.71051e-14
0
2.71051e-14
0
0
0
0
2.71051e-14
0
-5.42101e-14
)
;
    }
    fixedWalls
    {
        type            calculated;
        value           nonuniform List<scalar> 
60
(
1.73472e-11
-3.08727e-11
9.83913e-12
1.46638e-11
-2.21448e-11
1.20889e-11
1.01915e-11
-2.57227e-11
2.23617e-11
-7.48099e-12
-9.21572e-12
2.14943e-11
-2.33375e-11
1.37965e-11
4.52654e-12
-2.18196e-11
2.27682e-11
6.77626e-13
-2.49095e-11
1.55854e-11
0
2.71051e-14
0
-2.71051e-14
-2.71051e-14
-2.71051e-14
0
-2.71051e-14
0
-2.71051e-14
0
-2.71051e-14
5.42101e-14
-2.71051e-14
0
0
0
0
0
-5.42101e-14
1.73472e-11
-2.1234e-12
4.54434e-13
-1.50608e-13
5.1359e-14
-3.35027e-14
-1.37726e-14
9.13084e-15
1.49272e-14
-2.48575e-14
2.82047e-16
8.83818e-15
-3.33094e-15
-3.05874e-14
1.03344e-14
4.57606e-15
3.50574e-14
-1.65056e-14
2.21711e-16
0
)
;
    }
    frontAndBack
    {
        type            empty;
        value           nonuniform List<scalar> 0();
    }
}


// ************************************************************************* //
