/*--------------------------------*- C++ -*----------------------------------*\
| =========                 |                                                 |
| \\      /  F ield         | OpenFOAM: The Open Source CFD Toolbox           |
|  \\    /   O peration     | Version:  2312                                  |
|   \\  /    A nd           | Website:  www.openfoam.com                      |
|    \\/     M anipulation  |                                                 |
\*---------------------------------------------------------------------------*/
FoamFile
{
    version     2.0;
    format      ascii;
    arch        "LSB;label=32;scalar=64";
    class       volSymmTensorField;
    location    "10";
    object      turbulenceProperties:R;
}
// * * * * * * * * * * * * * * * * * * * * * * * * * * * * * * * * * * * * * //

dimensions      [0 2 -2 0 0 0 0];

internalField   nonuniform List<symmTensor> 
400
(
(1.57906e-06 -0 -0 1.57906e-06 -0 1.57906e-06)
(1.57906e-06 2.33771e-20 -0 1.57906e-06 -0 1.57906e-06)
(1.57906e-06 -0 -0 1.57906e-06 -0 1.57906e-06)
(1.57906e-06 -2.33771e-20 -0 1.57906e-06 -0 1.57906e-06)
(1.57906e-06 -2.33772e-20 -0 1.57906e-06 -0 1.57906e-06)
(1.57906e-06 -0 -0 1.57906e-06 -0 1.57906e-06)
(1.57906e-06 -0 -0 1.57906e-06 -0 1.57906e-06)
(1.57906e-06 -0 -0 1.57906e-06 -0 1.57906e-06)
(1.57906e-06 -0 -0 1.57906e-06 -0 1.57906e-06)
(1.57906e-06 -0 -0 1.57906e-06 -0 1.57906e-06)
(1.57906e-06 -0 -0 1.57906e-06 -0 1.57906e-06)
(1.57906e-06 -0 -0 1.57906e-06 -0 1.57906e-06)
(1.57906e-06 -0 -0 1.57906e-06 -0 1.57906e-06)
(1.57906e-06 -0 -0 1.57906e-06 -0 1.57906e-06)
(1.57906e-06 -0 -0 1.57906e-06 -0 1.57906e-06)
(1.57906e-06 -0 -0 1.57906e-06 -0 1.57906e-06)
(1.57906e-06 -0 -0 1.57906e-06 -0 1.57906e-06)
(1.57906e-06 -0 -0 1.57906e-06 -0 1.57906e-06)
(1.57906e-06 -0 -0 1.57906e-06 -0 1.57906e-06)
(1.57906e-06 -0 -0 1.57906e-06 -0 1.57906e-06)
(1.59683e-06 -0 -0 1.59683e-06 -0 1.59683e-06)
(1.59683e-06 -0 -0 1.59683e-06 -0 1.59683e-06)
(1.5968e-06 -0 -0 1.5968e-06 -0 1.5968e-06)
(1.59679e-06 -0 -0 1.59679e-06 -0 1.59679e-06)
(1.59677e-06 -0 -0 1.59677e-06 -0 1.59677e-06)
(1.59676e-06 -0 -0 1.59676e-06 -0 1.59676e-06)
(1.59674e-06 -0 -0 1.59674e-06 -0 1.59674e-06)
(1.59673e-06 -0 -0 1.59673e-06 -0 1.59673e-06)
(1.59672e-06 -0 -0 1.59672e-06 -0 1.59672e-06)
(1.59671e-06 -0 -0 1.59671e-06 -0 1.59671e-06)
(1.5967e-06 -0 -0 1.5967e-06 -0 1.5967e-06)
(1.59669e-06 -0 -0 1.59669e-06 -0 1.59669e-06)
(1.59668e-06 -0 -0 1.59668e-06 -0 1.59668e-06)
(1.59668e-06 -0 -0 1.59668e-06 -0 1.59668e-06)
(1.59667e-06 -0 -0 1.59667e-06 -0 1.59667e-06)
(1.59667e-06 -0 -0 1.59667e-06 -0 1.59667e-06)
(1.59666e-06 -0 -0 1.59666e-06 -0 1.59666e-06)
(1.59666e-06 -0 -0 1.59666e-06 -0 1.59666e-06)
(1.59666e-06 -0 -0 1.59666e-06 -0 1.59666e-06)
(1.59666e-06 -0 -0 1.59666e-06 -0 1.59666e-06)
(1.62605e-06 -0 -0 1.62605e-06 -0 1.62605e-06)
(1.62605e-06 -0 -0 1.62605e-06 -0 1.62605e-06)
(1.62602e-06 -0 -0 1.62602e-06 -0 1.62602e-06)
(1.62601e-06 -0 -0 1.62601e-06 -0 1.62601e-06)
(1.62599e-06 -0 -0 1.62599e-06 -0 1.62599e-06)
(1.62598e-06 -0 -0 1.62598e-06 -0 1.62598e-06)
(1.62596e-06 -0 -0 1.62596e-06 -0 1.62596e-06)
(1.62595e-06 -0 -0 1.62595e-06 -0 1.62595e-06)
(1.62594e-06 -0 -0 1.62594e-06 -0 1.62594e-06)
(1.62593e-06 -0 -0 1.62593e-06 -0 1.62593e-06)
(1.62592e-06 -0 -0 1.62592e-06 -0 1.62592e-06)
(1.62591e-06 -0 -0 1.62591e-06 -0 1.62591e-06)
(1.6259e-06 -0 -0 1.6259e-06 -0 1.6259e-06)
(1.6259e-06 -0 -0 1.6259e-06 -0 1.6259e-06)
(1.62589e-06 -0 -0 1.62589e-06 -0 1.62589e-06)
(1.62589e-06 -0 -0 1.62589e-06 -0 1.62589e-06)
(1.62588e-06 -0 -0 1.62588e-06 -0 1.62588e-06)
(1.62588e-06 -0 -0 1.62588e-06 -0 1.62588e-06)
(1.62588e-06 -0 -0 1.62588e-06 -0 1.62588e-06)
(1.62588e-06 -0 -0 1.62588e-06 -0 1.62588e-06)
(1.65861e-06 -0 -0 1.65861e-06 -0 1.65861e-06)
(1.65861e-06 -0 -0 1.65861e-06 -0 1.65861e-06)
(1.65857e-06 -0 -0 1.65857e-06 -0 1.65857e-06)
(1.65856e-06 -0 -0 1.65856e-06 -0 1.65856e-06)
(1.65854e-06 -0 -0 1.65854e-06 -0 1.65854e-06)
(1.65853e-06 -0 -0 1.65853e-06 -0 1.65853e-06)
(1.65851e-06 -0 -0 1.65851e-06 -0 1.65851e-06)
(1.6585e-06 -0 -0 1.6585e-06 -0 1.6585e-06)
(1.65849e-06 -0 -0 1.65849e-06 -0 1.65849e-06)
(1.65848e-06 -0 -0 1.65848e-06 -0 1.65848e-06)
(1.65846e-06 -0 -0 1.65846e-06 -0 1.65846e-06)
(1.65846e-06 -0 -0 1.65846e-06 -0 1.65846e-06)
(1.65845e-06 -0 -0 1.65845e-06 -0 1.65845e-06)
(1.65844e-06 -0 -0 1.65844e-06 -0 1.65844e-06)
(1.65843e-06 -0 -0 1.65843e-06 -0 1.65843e-06)
(1.65843e-06 -0 -0 1.65843e-06 -0 1.65843e-06)
(1.65843e-06 -0 -0 1.65843e-06 -0 1.65843e-06)
(1.65843e-06 -0 -0 1.65843e-06 -0 1.65843e-06)
(1.65842e-06 -0 -0 1.65842e-06 -0 1.65842e-06)
(1.65842e-06 -0 -0 1.65842e-06 -0 1.65842e-06)
(1.68791e-06 -0 -0 1.68791e-06 -0 1.68791e-06)
(1.68791e-06 -0 -0 1.68791e-06 -0 1.68791e-06)
(1.68787e-06 -0 -0 1.68787e-06 -0 1.68787e-06)
(1.68787e-06 -0 -0 1.68787e-06 -0 1.68787e-06)
(1.68784e-06 -0 -0 1.68784e-06 -0 1.68784e-06)
(1.68783e-06 -0 -0 1.68783e-06 -0 1.68783e-06)
(1.68781e-06 -0 -0 1.68781e-06 -0 1.68781e-06)
(1.6878e-06 -0 -0 1.6878e-06 -0 1.6878e-06)
(1.68778e-06 -0 -0 1.68778e-06 -0 1.68778e-06)
(1.68778e-06 -0 -0 1.68778e-06 -0 1.68778e-06)
(1.68776e-06 -0 -0 1.68776e-06 -0 1.68776e-06)
(1.68776e-06 -0 -0 1.68776e-06 -0 1.68776e-06)
(1.68775e-06 -0 -0 1.68775e-06 -0 1.68775e-06)
(1.68774e-06 -0 -0 1.68774e-06 -0 1.68774e-06)
(1.68773e-06 -0 -0 1.68773e-06 -0 1.68773e-06)
(1.68773e-06 -0 -0 1.68773e-06 -0 1.68773e-06)
(1.68773e-06 -0 -0 1.68773e-06 -0 1.68773e-06)
(1.68772e-06 -0 -0 1.68772e-06 -0 1.68772e-06)
(1.68772e-06 -0 -0 1.68772e-06 -0 1.68772e-06)
(1.68772e-06 -0 -0 1.68772e-06 -0 1.68772e-06)
(1.71082e-06 -0 -0 1.71082e-06 -0 1.71082e-06)
(1.71082e-06 -0 -0 1.71082e-06 -0 1.71082e-06)
(1.71078e-06 -0 -0 1.71078e-06 -0 1.71078e-06)
(1.71077e-06 -0 -0 1.71077e-06 -0 1.71077e-06)
(1.71075e-06 -0 -0 1.71075e-06 -0 1.71075e-06)
(1.71073e-06 -0 -0 1.71073e-06 -0 1.71073e-06)
(1.71072e-06 -0 -0 1.71072e-06 -0 1.71072e-06)
(1.7107e-06 -0 -0 1.7107e-06 -0 1.7107e-06)
(1.71069e-06 -0 -0 1.71069e-06 -0 1.71069e-06)
(1.71068e-06 -0 -0 1.71068e-06 -0 1.71068e-06)
(1.71067e-06 -0 -0 1.71067e-06 -0 1.71067e-06)
(1.71066e-06 -0 -0 1.71066e-06 -0 1.71066e-06)
(1.71065e-06 -0 -0 1.71065e-06 -0 1.71065e-06)
(1.71064e-06 -0 -0 1.71064e-06 -0 1.71064e-06)
(1.71063e-06 -0 -0 1.71063e-06 -0 1.71063e-06)
(1.71063e-06 -0 -0 1.71063e-06 -0 1.71063e-06)
(1.71063e-06 -0 -0 1.71063e-06 -0 1.71063e-06)
(1.71062e-06 -0 -0 1.71062e-06 -0 1.71062e-06)
(1.71062e-06 -0 -0 1.71062e-06 -0 1.71062e-06)
(1.71062e-06 -0 -0 1.71062e-06 -0 1.71062e-06)
(1.72708e-06 -0 -0 1.72708e-06 -0 1.72708e-06)
(1.72708e-06 -0 -0 1.72708e-06 -0 1.72708e-06)
(1.72704e-06 -0 -0 1.72704e-06 -0 1.72704e-06)
(1.72703e-06 -0 -0 1.72703e-06 -0 1.72703e-06)
(1.72701e-06 -0 -0 1.72701e-06 -0 1.72701e-06)
(1.72699e-06 -0 -0 1.72699e-06 -0 1.72699e-06)
(1.72698e-06 -0 -0 1.72698e-06 -0 1.72698e-06)
(1.72697e-06 -0 -0 1.72697e-06 -0 1.72697e-06)
(1.72695e-06 -0 -0 1.72695e-06 -0 1.72695e-06)
(1.72694e-06 -0 -0 1.72694e-06 -0 1.72694e-06)
(1.72692e-06 -0 -0 1.72692e-06 -0 1.72692e-06)
(1.72692e-06 -0 -0 1.72692e-06 -0 1.72692e-06)
(1.72691e-06 -0 -0 1.72691e-06 -0 1.72691e-06)
(1.7269e-06 -0 -0 1.7269e-06 -0 1.7269e-06)
(1.72689e-06 -0 -0 1.72689e-06 -0 1.72689e-06)
(1.72689e-06 -0 -0 1.72689e-06 -0 1.72689e-06)
(1.72689e-06 -0 -0 1.72689e-06 -0 1.72689e-06)
(1.72688e-06 -0 -0 1.72688e-06 -0 1.72688e-06)
(1.72688e-06 -0 -0 1.72688e-06 -0 1.72688e-06)
(1.72688e-06 -0 -0 1.72688e-06 -0 1.72688e-06)
(1.73799e-06 -0 -0 1.73799e-06 -0 1.73799e-06)
(1.73799e-06 -0 -0 1.73799e-06 -0 1.73799e-06)
(1.73796e-06 -0 -0 1.73796e-06 -0 1.73796e-06)
(1.73794e-06 -0 -0 1.73794e-06 -0 1.73794e-06)
(1.73792e-06 -0 -0 1.73792e-06 -0 1.73792e-06)
(1.7379e-06 -0 -0 1.7379e-06 -0 1.7379e-06)
(1.73789e-06 -0 -0 1.73789e-06 -0 1.73789e-06)
(1.73787e-06 -0 -0 1.73787e-06 -0 1.73787e-06)
(1.73786e-06 -0 -0 1.73786e-06 -0 1.73786e-06)
(1.73785e-06 -0 -0 1.73785e-06 -0 1.73785e-06)
(1.73783e-06 -0 -0 1.73783e-06 -0 1.73783e-06)
(1.73783e-06 -0 -0 1.73783e-06 -0 1.73783e-06)
(1.73782e-06 -0 -0 1.73782e-06 -0 1.73782e-06)
(1.73781e-06 -0 -0 1.73781e-06 -0 1.73781e-06)
(1.7378e-06 -0 -0 1.7378e-06 -0 1.7378e-06)
(1.7378e-06 -0 -0 1.7378e-06 -0 1.7378e-06)
(1.73779e-06 -0 -0 1.73779e-06 -0 1.73779e-06)
(1.73779e-06 -0 -0 1.73779e-06 -0 1.73779e-06)
(1.73779e-06 -0 -0 1.73779e-06 -0 1.73779e-06)
(1.73779e-06 -0 -0 1.73779e-06 -0 1.73779e-06)
(1.74522e-06 -0 -0 1.74522e-06 -0 1.74522e-06)
(1.74522e-06 -0 -0 1.74522e-06 -0 1.74522e-06)
(1.74519e-06 -0 -0 1.74519e-06 -0 1.74519e-06)
(1.74517e-06 -0 -0 1.74517e-06 -0 1.74517e-06)
(1.74515e-06 -0 -0 1.74515e-06 -0 1.74515e-06)
(1.74513e-06 -0 -0 1.74513e-06 -0 1.74513e-06)
(1.74512e-06 -0 -0 1.74512e-06 -0 1.74512e-06)
(1.7451e-06 -0 -0 1.7451e-06 -0 1.7451e-06)
(1.74509e-06 -0 -0 1.74509e-06 -0 1.74509e-06)
(1.74508e-06 -0 -0 1.74508e-06 -0 1.74508e-06)
(1.74507e-06 -0 -0 1.74507e-06 -0 1.74507e-06)
(1.74506e-06 -0 -0 1.74506e-06 -0 1.74506e-06)
(1.74505e-06 -0 -0 1.74505e-06 -0 1.74505e-06)
(1.74504e-06 -0 -0 1.74504e-06 -0 1.74504e-06)
(1.74503e-06 -0 -0 1.74503e-06 -0 1.74503e-06)
(1.74503e-06 -0 -0 1.74503e-06 -0 1.74503e-06)
(1.74502e-06 -0 -0 1.74502e-06 -0 1.74502e-06)
(1.74502e-06 -0 -0 1.74502e-06 -0 1.74502e-06)
(1.74502e-06 -0 -0 1.74502e-06 -0 1.74502e-06)
(1.74502e-06 -0 -0 1.74502e-06 -0 1.74502e-06)
(1.75022e-06 -0 -0 1.75022e-06 -0 1.75022e-06)
(1.75022e-06 -0 -0 1.75022e-06 -0 1.75022e-06)
(1.75018e-06 -0 -0 1.75018e-06 -0 1.75018e-06)
(1.75017e-06 -0 -0 1.75017e-06 -0 1.75017e-06)
(1.75015e-06 -0 -0 1.75015e-06 -0 1.75015e-06)
(1.75013e-06 -0 -0 1.75013e-06 -0 1.75013e-06)
(1.75012e-06 -0 -0 1.75012e-06 -0 1.75012e-06)
(1.7501e-06 -0 -0 1.7501e-06 -0 1.7501e-06)
(1.75009e-06 -0 -0 1.75009e-06 -0 1.75009e-06)
(1.75008e-06 -0 -0 1.75008e-06 -0 1.75008e-06)
(1.75006e-06 -0 -0 1.75006e-06 -0 1.75006e-06)
(1.75006e-06 -0 -0 1.75006e-06 -0 1.75006e-06)
(1.75004e-06 -0 -0 1.75004e-06 -0 1.75004e-06)
(1.75004e-06 -0 -0 1.75004e-06 -0 1.75004e-06)
(1.75003e-06 -0 -0 1.75003e-06 -0 1.75003e-06)
(1.75003e-06 -0 -0 1.75003e-06 -0 1.75003e-06)
(1.75002e-06 -0 -0 1.75002e-06 -0 1.75002e-06)
(1.75002e-06 -0 -0 1.75002e-06 -0 1.75002e-06)
(1.75002e-06 -0 -0 1.75002e-06 -0 1.75002e-06)
(1.75002e-06 -0 -0 1.75002e-06 -0 1.75002e-06)
(1.75403e-06 -0 -0 1.75403e-06 -0 1.75403e-06)
(1.75403e-06 -0 -0 1.75403e-06 -0 1.75403e-06)
(1.75399e-06 -0 -0 1.75399e-06 -0 1.75399e-06)
(1.75398e-06 -0 -0 1.75398e-06 -0 1.75398e-06)
(1.75395e-06 -0 -0 1.75395e-06 -0 1.75395e-06)
(1.75394e-06 -0 -0 1.75394e-06 -0 1.75394e-06)
(1.75392e-06 -0 -0 1.75392e-06 -0 1.75392e-06)
(1.75391e-06 -0 -0 1.75391e-06 -0 1.75391e-06)
(1.75389e-06 -0 -0 1.75389e-06 -0 1.75389e-06)
(1.75388e-06 -0 -0 1.75388e-06 -0 1.75388e-06)
(1.75387e-06 -0 -0 1.75387e-06 -0 1.75387e-06)
(1.75386e-06 -0 -0 1.75386e-06 -0 1.75386e-06)
(1.75385e-06 -0 -0 1.75385e-06 -0 1.75385e-06)
(1.75385e-06 -0 -0 1.75385e-06 -0 1.75385e-06)
(1.75384e-06 -0 -0 1.75384e-06 -0 1.75384e-06)
(1.75383e-06 -0 -0 1.75383e-06 -0 1.75383e-06)
(1.75383e-06 -0 -0 1.75383e-06 -0 1.75383e-06)
(1.75383e-06 -0 -0 1.75383e-06 -0 1.75383e-06)
(1.75382e-06 -0 -0 1.75382e-06 -0 1.75382e-06)
(1.75382e-06 -0 -0 1.75382e-06 -0 1.75382e-06)
(1.75731e-06 -0 -0 1.75731e-06 -0 1.75731e-06)
(1.75731e-06 -0 -0 1.75731e-06 -0 1.75731e-06)
(1.75727e-06 -0 -0 1.75727e-06 -0 1.75727e-06)
(1.75726e-06 -0 -0 1.75726e-06 -0 1.75726e-06)
(1.75723e-06 -0 -0 1.75723e-06 -0 1.75723e-06)
(1.75722e-06 -0 -0 1.75722e-06 -0 1.75722e-06)
(1.7572e-06 -0 -0 1.7572e-06 -0 1.7572e-06)
(1.75719e-06 -0 -0 1.75719e-06 -0 1.75719e-06)
(1.75717e-06 -0 -0 1.75717e-06 -0 1.75717e-06)
(1.75716e-06 -0 -0 1.75716e-06 -0 1.75716e-06)
(1.75715e-06 -0 -0 1.75715e-06 -0 1.75715e-06)
(1.75714e-06 -0 -0 1.75714e-06 -0 1.75714e-06)
(1.75713e-06 -0 -0 1.75713e-06 -0 1.75713e-06)
(1.75713e-06 -0 -0 1.75713e-06 -0 1.75713e-06)
(1.75712e-06 -0 -0 1.75712e-06 -0 1.75712e-06)
(1.75711e-06 -0 -0 1.75711e-06 -0 1.75711e-06)
(1.75711e-06 -0 -0 1.75711e-06 -0 1.75711e-06)
(1.75711e-06 -0 -0 1.75711e-06 -0 1.75711e-06)
(1.7571e-06 -0 -0 1.7571e-06 -0 1.7571e-06)
(1.7571e-06 -0 -0 1.7571e-06 -0 1.7571e-06)
(1.76047e-06 -0 -0 1.76047e-06 -0 1.76047e-06)
(1.76046e-06 -0 -0 1.76046e-06 -0 1.76046e-06)
(1.76043e-06 -0 -0 1.76043e-06 -0 1.76043e-06)
(1.76042e-06 -0 -0 1.76042e-06 -0 1.76042e-06)
(1.76039e-06 -0 -0 1.76039e-06 -0 1.76039e-06)
(1.76038e-06 -0 -0 1.76038e-06 -0 1.76038e-06)
(1.76036e-06 -0 -0 1.76036e-06 -0 1.76036e-06)
(1.76035e-06 -0 -0 1.76035e-06 -0 1.76035e-06)
(1.76033e-06 -0 -0 1.76033e-06 -0 1.76033e-06)
(1.76032e-06 -0 -0 1.76032e-06 -0 1.76032e-06)
(1.7603e-06 -0 -0 1.7603e-06 -0 1.7603e-06)
(1.7603e-06 -0 -0 1.7603e-06 -0 1.7603e-06)
(1.76029e-06 -0 -0 1.76029e-06 -0 1.76029e-06)
(1.76028e-06 -0 -0 1.76028e-06 -0 1.76028e-06)
(1.76027e-06 -0 -0 1.76027e-06 -0 1.76027e-06)
(1.76027e-06 -0 -0 1.76027e-06 -0 1.76027e-06)
(1.76026e-06 -0 -0 1.76026e-06 -0 1.76026e-06)
(1.76026e-06 -0 -0 1.76026e-06 -0 1.76026e-06)
(1.76026e-06 -0 -0 1.76026e-06 -0 1.76026e-06)
(1.76026e-06 -0 -0 1.76026e-06 -0 1.76026e-06)
(1.76371e-06 -0 -0 1.76371e-06 -0 1.76371e-06)
(1.76371e-06 -0 -0 1.76371e-06 -0 1.76371e-06)
(1.76367e-06 -0 -0 1.76367e-06 -0 1.76367e-06)
(1.76366e-06 -0 -0 1.76366e-06 -0 1.76366e-06)
(1.76364e-06 -0 -0 1.76364e-06 -0 1.76364e-06)
(1.76362e-06 -0 -0 1.76362e-06 -0 1.76362e-06)
(1.76361e-06 -0 -0 1.76361e-06 -0 1.76361e-06)
(1.76359e-06 -0 -0 1.76359e-06 -0 1.76359e-06)
(1.76358e-06 -0 -0 1.76358e-06 -0 1.76358e-06)
(1.76357e-06 -0 -0 1.76357e-06 -0 1.76357e-06)
(1.76355e-06 -0 -0 1.76355e-06 -0 1.76355e-06)
(1.76355e-06 -0 -0 1.76355e-06 -0 1.76355e-06)
(1.76353e-06 -0 -0 1.76353e-06 -0 1.76353e-06)
(1.76353e-06 -0 -0 1.76353e-06 -0 1.76353e-06)
(1.76352e-06 -0 -0 1.76352e-06 -0 1.76352e-06)
(1.76352e-06 -0 -0 1.76352e-06 -0 1.76352e-06)
(1.76351e-06 -0 -0 1.76351e-06 -0 1.76351e-06)
(1.76351e-06 -0 -0 1.76351e-06 -0 1.76351e-06)
(1.76351e-06 -0 -0 1.76351e-06 -0 1.76351e-06)
(1.76351e-06 -0 -0 1.76351e-06 -0 1.76351e-06)
(1.76713e-06 -0 -0 1.76713e-06 -0 1.76713e-06)
(1.76713e-06 -0 -0 1.76713e-06 -0 1.76713e-06)
(1.76709e-06 -0 -0 1.76709e-06 -0 1.76709e-06)
(1.76708e-06 -0 -0 1.76708e-06 -0 1.76708e-06)
(1.76706e-06 -0 -0 1.76706e-06 -0 1.76706e-06)
(1.76704e-06 -0 -0 1.76704e-06 -0 1.76704e-06)
(1.76702e-06 -0 -0 1.76702e-06 -0 1.76702e-06)
(1.76701e-06 -0 -0 1.76701e-06 -0 1.76701e-06)
(1.76699e-06 -0 -0 1.76699e-06 -0 1.76699e-06)
(1.76698e-06 -0 -0 1.76698e-06 -0 1.76698e-06)
(1.76697e-06 -0 -0 1.76697e-06 -0 1.76697e-06)
(1.76696e-06 -0 -0 1.76696e-06 -0 1.76696e-06)
(1.76695e-06 -0 -0 1.76695e-06 -0 1.76695e-06)
(1.76694e-06 -0 -0 1.76694e-06 -0 1.76694e-06)
(1.76694e-06 -0 -0 1.76694e-06 -0 1.76694e-06)
(1.76693e-06 -0 -0 1.76693e-06 -0 1.76693e-06)
(1.76693e-06 -0 -0 1.76693e-06 -0 1.76693e-06)
(1.76693e-06 -0 -0 1.76693e-06 -0 1.76693e-06)
(1.76692e-06 -0 -0 1.76692e-06 -0 1.76692e-06)
(1.76692e-06 -0 -0 1.76692e-06 -0 1.76692e-06)
(1.77068e-06 -0 -0 1.77068e-06 -0 1.77068e-06)
(1.77068e-06 -0 -0 1.77068e-06 -0 1.77068e-06)
(1.77063e-06 -0 -0 1.77063e-06 -0 1.77063e-06)
(1.77063e-06 -0 -0 1.77063e-06 -0 1.77063e-06)
(1.7706e-06 -0 -0 1.7706e-06 -0 1.7706e-06)
(1.77058e-06 -0 -0 1.77058e-06 -0 1.77058e-06)
(1.77057e-06 -0 -0 1.77057e-06 -0 1.77057e-06)
(1.77055e-06 -0 -0 1.77055e-06 -0 1.77055e-06)
(1.77054e-06 -0 -0 1.77054e-06 -0 1.77054e-06)
(1.77053e-06 -0 -0 1.77053e-06 -0 1.77053e-06)
(1.77051e-06 -0 -0 1.77051e-06 -0 1.77051e-06)
(1.77051e-06 -0 -0 1.77051e-06 -0 1.77051e-06)
(1.77049e-06 -0 -0 1.77049e-06 -0 1.77049e-06)
(1.77049e-06 -0 -0 1.77049e-06 -0 1.77049e-06)
(1.77048e-06 -0 -0 1.77048e-06 -0 1.77048e-06)
(1.77048e-06 -0 -0 1.77048e-06 -0 1.77048e-06)
(1.77047e-06 -0 -0 1.77047e-06 -0 1.77047e-06)
(1.77047e-06 -0 -0 1.77047e-06 -0 1.77047e-06)
(1.77047e-06 -0 -0 1.77047e-06 -0 1.77047e-06)
(1.77047e-06 -0 -0 1.77047e-06 -0 1.77047e-06)
(1.77417e-06 -0 -0 1.77417e-06 -0 1.77417e-06)
(1.77417e-06 -0 -0 1.77417e-06 -0 1.77417e-06)
(1.77413e-06 -0 -0 1.77413e-06 -0 1.77413e-06)
(1.77412e-06 -0 -0 1.77412e-06 -0 1.77412e-06)
(1.77409e-06 -0 -0 1.77409e-06 -0 1.77409e-06)
(1.77408e-06 -0 -0 1.77408e-06 -0 1.77408e-06)
(1.77406e-06 -0 -0 1.77406e-06 -0 1.77406e-06)
(1.77404e-06 -0 -0 1.77404e-06 -0 1.77404e-06)
(1.77403e-06 -0 -0 1.77403e-06 -0 1.77403e-06)
(1.77402e-06 -0 -0 1.77402e-06 -0 1.77402e-06)
(1.774e-06 -0 -0 1.774e-06 -0 1.774e-06)
(1.774e-06 -0 -0 1.774e-06 -0 1.774e-06)
(1.77398e-06 -0 -0 1.77398e-06 -0 1.77398e-06)
(1.77398e-06 -0 -0 1.77398e-06 -0 1.77398e-06)
(1.77397e-06 -0 -0 1.77397e-06 -0 1.77397e-06)
(1.77397e-06 -0 -0 1.77397e-06 -0 1.77397e-06)
(1.77396e-06 -0 -0 1.77396e-06 -0 1.77396e-06)
(1.77396e-06 -0 -0 1.77396e-06 -0 1.77396e-06)
(1.77396e-06 -0 -0 1.77396e-06 -0 1.77396e-06)
(1.77396e-06 -0 -0 1.77396e-06 -0 1.77396e-06)
(1.7773e-06 -0 -0 1.7773e-06 -0 1.7773e-06)
(1.77731e-06 -0 -0 1.77731e-06 -0 1.77731e-06)
(1.77726e-06 -0 -0 1.77726e-06 -0 1.77726e-06)
(1.77726e-06 -0 -0 1.77726e-06 -0 1.77726e-06)
(1.77723e-06 -0 -0 1.77723e-06 -0 1.77723e-06)
(1.77722e-06 -0 -0 1.77722e-06 -0 1.77722e-06)
(1.77719e-06 -0 -0 1.77719e-06 -0 1.77719e-06)
(1.77718e-06 -0 -0 1.77718e-06 -0 1.77718e-06)
(1.77716e-06 -0 -0 1.77716e-06 -0 1.77716e-06)
(1.77715e-06 -0 -0 1.77715e-06 -0 1.77715e-06)
(1.77714e-06 -0 -0 1.77714e-06 -0 1.77714e-06)
(1.77713e-06 -0 -0 1.77713e-06 -0 1.77713e-06)
(1.77712e-06 -0 -0 1.77712e-06 -0 1.77712e-06)
(1.77712e-06 -0 -0 1.77712e-06 -0 1.77712e-06)
(1.77711e-06 -0 -0 1.77711e-06 -0 1.77711e-06)
(1.7771e-06 -0 -0 1.7771e-06 -0 1.7771e-06)
(1.7771e-06 -0 -0 1.7771e-06 -0 1.7771e-06)
(1.7771e-06 -0 -0 1.7771e-06 -0 1.7771e-06)
(1.77709e-06 -0 -0 1.77709e-06 -0 1.77709e-06)
(1.77709e-06 -0 -0 1.77709e-06 -0 1.77709e-06)
(1.7797e-06 -0 -0 1.7797e-06 -0 1.7797e-06)
(1.7797e-06 -0 -0 1.7797e-06 -0 1.7797e-06)
(1.77966e-06 -0 -0 1.77966e-06 -0 1.77966e-06)
(1.77966e-06 -0 -0 1.77966e-06 -0 1.77966e-06)
(1.77963e-06 -0 -0 1.77963e-06 -0 1.77963e-06)
(1.77962e-06 -0 -0 1.77962e-06 -0 1.77962e-06)
(1.77959e-06 -0 -0 1.77959e-06 -0 1.77959e-06)
(1.77959e-06 -0 -0 1.77959e-06 -0 1.77959e-06)
(1.77957e-06 -0 -0 1.77957e-06 -0 1.77957e-06)
(1.77956e-06 -0 -0 1.77956e-06 -0 1.77956e-06)
(1.77954e-06 -0 -0 1.77954e-06 -0 1.77954e-06)
(1.77953e-06 -0 -0 1.77953e-06 -0 1.77953e-06)
(1.77953e-06 -0 -0 1.77953e-06 -0 1.77953e-06)
(1.77952e-06 -0 -0 1.77952e-06 -0 1.77952e-06)
(1.77951e-06 -0 -0 1.77951e-06 -0 1.77951e-06)
(1.77951e-06 -0 -0 1.77951e-06 -0 1.77951e-06)
(1.7795e-06 -0 -0 1.7795e-06 -0 1.7795e-06)
(1.7795e-06 -0 -0 1.7795e-06 -0 1.7795e-06)
(1.7795e-06 -0 -0 1.7795e-06 -0 1.7795e-06)
(1.7795e-06 -0 -0 1.7795e-06 -0 1.7795e-06)
(1.78081e-06 -0 -0 1.78081e-06 -0 1.78081e-06)
(1.78081e-06 -0 -0 1.78081e-06 -0 1.78081e-06)
(1.78081e-06 -0 -0 1.78081e-06 -0 1.78081e-06)
(1.78081e-06 -0 -0 1.78081e-06 -0 1.78081e-06)
(1.78081e-06 -0 -0 1.78081e-06 -0 1.78081e-06)
(1.78081e-06 -0 -0 1.78081e-06 -0 1.78081e-06)
(1.78081e-06 -0 -0 1.78081e-06 -0 1.78081e-06)
(1.78081e-06 -0 -0 1.78081e-06 -0 1.78081e-06)
(1.78081e-06 -0 -0 1.78081e-06 -0 1.78081e-06)
(1.78081e-06 -0 -0 1.78081e-06 -0 1.78081e-06)
(1.78081e-06 -0 -0 1.78081e-06 -0 1.78081e-06)
(1.78081e-06 -0 -0 1.78081e-06 -0 1.78081e-06)
(1.78081e-06 -0 -0 1.78081e-06 -0 1.78081e-06)
(1.78081e-06 -0 -0 1.78081e-06 -0 1.78081e-06)
(1.78081e-06 -0 -0 1.78081e-06 -0 1.78081e-06)
(1.78081e-06 -0 -0 1.78081e-06 -0 1.78081e-06)
(1.78081e-06 -0 -0 1.78081e-06 -0 1.78081e-06)
(1.78081e-06 -0 -0 1.78081e-06 -0 1.78081e-06)
(1.78081e-06 -0 -0 1.78081e-06 -0 1.78081e-06)
(1.78081e-06 -0 -0 1.78081e-06 -0 1.78081e-06)
)
;

boundaryField
{
    movingWall
    {
        type            kqRWallFunction;
        value           nonuniform List<symmTensor> 
20
(
(1.78081e-06 -0 -0 1.78081e-06 -0 1.78081e-06)
(1.78081e-06 -0 -0 1.78081e-06 -0 1.78081e-06)
(1.78081e-06 -0 -0 1.78081e-06 -0 1.78081e-06)
(1.78081e-06 -0 -0 1.78081e-06 -0 1.78081e-06)
(1.78081e-06 -0 -0 1.78081e-06 -0 1.78081e-06)
(1.78081e-06 -0 -0 1.78081e-06 -0 1.78081e-06)
(1.78081e-06 -0 -0 1.78081e-06 -0 1.78081e-06)
(1.78081e-06 -0 -0 1.78081e-06 -0 1.78081e-06)
(1.78081e-06 -0 -0 1.78081e-06 -0 1.78081e-06)
(1.78081e-06 -0 -0 1.78081e-06 -0 1.78081e-06)
(1.78081e-06 -0 -0 1.78081e-06 -0 1.78081e-06)
(1.78081e-06 -0 -0 1.78081e-06 -0 1.78081e-06)
(1.78081e-06 -0 -0 1.78081e-06 -0 1.78081e-06)
(1.78081e-06 -0 -0 1.78081e-06 -0 1.78081e-06)
(1.78081e-06 -0 -0 1.78081e-06 -0 1.78081e-06)
(1.78081e-06 -0 -0 1.78081e-06 -0 1.78081e-06)
(1.78081e-06 -0 -0 1.78081e-06 -0 1.78081e-06)
(1.78081e-06 -0 -0 1.78081e-06 -0 1.78081e-06)
(1.78081e-06 -0 -0 1.78081e-06 -0 1.78081e-06)
(1.78081e-06 -0 -0 1.78081e-06 -0 1.78081e-06)
)
;
    }
    fixedWalls
    {
        type            kqRWallFunction;
        value           nonuniform List<symmTensor> 
60
(
(1.57906e-06 -0 -0 1.57906e-06 -0 1.57906e-06)
(1.59683e-06 -0 -0 1.59683e-06 -0 1.59683e-06)
(1.62605e-06 -0 -0 1.62605e-06 -0 1.62605e-06)
(1.65861e-06 -0 -0 1.65861e-06 -0 1.65861e-06)
(1.68791e-06 -0 -0 1.68791e-06 -0 1.68791e-06)
(1.71082e-06 -0 -0 1.71082e-06 -0 1.71082e-06)
(1.72708e-06 -0 -0 1.72708e-06 -0 1.72708e-06)
(1.73799e-06 -0 -0 1.73799e-06 -0 1.73799e-06)
(1.74522e-06 -0 -0 1.74522e-06 -0 1.74522e-06)
(1.75022e-06 -0 -0 1.75022e-06 -0 1.75022e-06)
(1.75403e-06 -0 -0 1.75403e-06 -0 1.75403e-06)
(1.75731e-06 -0 -0 1.75731e-06 -0 1.75731e-06)
(1.76047e-06 -0 -0 1.76047e-06 -0 1.76047e-06)
(1.76371e-06 -0 -0 1.76371e-06 -0 1.76371e-06)
(1.76713e-06 -0 -0 1.76713e-06 -0 1.76713e-06)
(1.77068e-06 -0 -0 1.77068e-06 -0 1.77068e-06)
(1.77417e-06 -0 -0 1.77417e-06 -0 1.77417e-06)
(1.7773e-06 -0 -0 1.7773e-06 -0 1.7773e-06)
(1.7797e-06 -0 -0 1.7797e-06 -0 1.7797e-06)
(1.78081e-06 -0 -0 1.78081e-06 -0 1.78081e-06)
(1.57906e-06 -0 -0 1.57906e-06 -0 1.57906e-06)
(1.59666e-06 -0 -0 1.59666e-06 -0 1.59666e-06)
(1.62588e-06 -0 -0 1.62588e-06 -0 1.62588e-06)
(1.65842e-06 -0 -0 1.65842e-06 -0 1.65842e-06)
(1.68772e-06 -0 -0 1.68772e-06 -0 1.68772e-06)
(1.71062e-06 -0 -0 1.71062e-06 -0 1.71062e-06)
(1.72688e-06 -0 -0 1.72688e-06 -0 1.72688e-06)
(1.73779e-06 -0 -0 1.73779e-06 -0 1.73779e-06)
(1.74502e-06 -0 -0 1.74502e-06 -0 1.74502e-06)
(1.75002e-06 -0 -0 1.75002e-06 -0 1.75002e-06)
(1.75382e-06 -0 -0 1.75382e-06 -0 1.75382e-06)
(1.7571e-06 -0 -0 1.7571e-06 -0 1.7571e-06)
(1.76026e-06 -0 -0 1.76026e-06 -0 1.76026e-06)
(1.76351e-06 -0 -0 1.76351e-06 -0 1.76351e-06)
(1.76692e-06 -0 -0 1.76692e-06 -0 1.76692e-06)
(1.77047e-06 -0 -0 1.77047e-06 -0 1.77047e-06)
(1.77396e-06 -0 -0 1.77396e-06 -0 1.77396e-06)
(1.77709e-06 -0 -0 1.77709e-06 -0 1.77709e-06)
(1.7795e-06 -0 -0 1.7795e-06 -0 1.7795e-06)
(1.78081e-06 -0 -0 1.78081e-06 -0 1.78081e-06)
(1.57906e-06 -0 -0 1.57906e-06 -0 1.57906e-06)
(1.57906e-06 -0 -0 1.57906e-06 -0 1.57906e-06)
(1.57906e-06 -0 -0 1.57906e-06 -0 1.57906e-06)
(1.57906e-06 -0 -0 1.57906e-06 -0 1.57906e-06)
(1.57906e-06 -0 -0 1.57906e-06 -0 1.57906e-06)
(1.57906e-06 -0 -0 1.57906e-06 -0 1.57906e-06)
(1.57906e-06 -0 -0 1.57906e-06 -0 1.57906e-06)
(1.57906e-06 -0 -0 1.57906e-06 -0 1.57906e-06)
(1.57906e-06 -0 -0 1.57906e-06 -0 1.57906e-06)
(1.57906e-06 -0 -0 1.57906e-06 -0 1.57906e-06)
(1.57906e-06 -0 -0 1.57906e-06 -0 1.57906e-06)
(1.57906e-06 -0 -0 1.57906e-06 -0 1.57906e-06)
(1.57906e-06 -0 -0 1.57906e-06 -0 1.57906e-06)
(1.57906e-06 -0 -0 1.57906e-06 -0 1.57906e-06)
(1.57906e-06 -0 -0 1.57906e-06 -0 1.57906e-06)
(1.57906e-06 -0 -0 1.57906e-06 -0 1.57906e-06)
(1.57906e-06 -0 -0 1.57906e-06 -0 1.57906e-06)
(1.57906e-06 -0 -0 1.57906e-06 -0 1.57906e-06)
(1.57906e-06 -0 -0 1.57906e-06 -0 1.57906e-06)
(1.57906e-06 -0 -0 1.57906e-06 -0 1.57906e-06)
)
;
    }
    frontAndBack
    {
        type            empty;
    }
}


// ************************************************************************* //
