/*--------------------------------*- C++ -*----------------------------------*\
| =========                 |                                                 |
| \\      /  F ield         | OpenFOAM: The Open Source CFD Toolbox           |
|  \\    /   O peration     | Version:  2312                                  |
|   \\  /    A nd           | Website:  www.openfoam.com                      |
|    \\/     M anipulation  |                                                 |
\*---------------------------------------------------------------------------*/
FoamFile
{
    version     2.0;
    format      ascii;
    arch        "LSB;label=32;scalar=64";
    class       volScalarField;
    location    "10";
    object      turbulenceProperties:I;
}
// * * * * * * * * * * * * * * * * * * * * * * * * * * * * * * * * * * * * * //

dimensions      [0 0 0 0 0 0 0];

internalField   nonuniform List<scalar> 
400
(
0.00125661
0.00125661
0.00125661
0.00125661
0.00125661
0.00125661
0.00125661
0.00125661
0.00125661
0.00125661
0.00125661
0.00125661
0.00125661
0.00125661
0.00125661
0.00125661
0.00125661
0.00125661
0.00125661
0.00125661
0.00126366
0.00126366
0.00126364
0.00126364
0.00126363
0.00126363
0.00126362
0.00126362
0.00126361
0.00126361
0.0012636
0.0012636
0.0012636
0.0012636
0.00126359
0.00126359
0.00126359
0.00126359
0.00126359
0.00126359
0.00127517
0.00127517
0.00127516
0.00127515
0.00127514
0.00127514
0.00127513
0.00127513
0.00127512
0.00127512
0.00127511
0.00127511
0.00127511
0.00127511
0.0012751
0.0012751
0.0012751
0.0012751
0.0012751
0.0012751
0.00128787
0.00128787
0.00128786
0.00128785
0.00128784
0.00128784
0.00128783
0.00128783
0.00128782
0.00128782
0.00128781
0.00128781
0.00128781
0.00128781
0.0012878
0.0012878
0.0012878
0.0012878
0.0012878
0.0012878
0.0012992
0.0012992
0.00129918
0.00129918
0.00129917
0.00129917
0.00129916
0.00129916
0.00129915
0.00129915
0.00129914
0.00129914
0.00129913
0.00129913
0.00129913
0.00129913
0.00129912
0.00129912
0.00129912
0.00129912
0.00130798
0.00130798
0.00130797
0.00130796
0.00130796
0.00130795
0.00130794
0.00130794
0.00130793
0.00130793
0.00130792
0.00130792
0.00130792
0.00130792
0.00130791
0.00130791
0.00130791
0.00130791
0.00130791
0.00130791
0.00131418
0.00131418
0.00131417
0.00131417
0.00131416
0.00131415
0.00131414
0.00131414
0.00131413
0.00131413
0.00131413
0.00131412
0.00131412
0.00131412
0.00131411
0.00131411
0.00131411
0.00131411
0.00131411
0.00131411
0.00131833
0.00131833
0.00131832
0.00131831
0.0013183
0.0013183
0.00131829
0.00131828
0.00131828
0.00131827
0.00131827
0.00131827
0.00131826
0.00131826
0.00131826
0.00131826
0.00131825
0.00131825
0.00131825
0.00131825
0.00132107
0.00132107
0.00132106
0.00132105
0.00132104
0.00132104
0.00132103
0.00132102
0.00132102
0.00132101
0.00132101
0.00132101
0.001321
0.001321
0.001321
0.001321
0.00132099
0.00132099
0.00132099
0.00132099
0.00132296
0.00132296
0.00132294
0.00132294
0.00132293
0.00132293
0.00132292
0.00132291
0.00132291
0.0013229
0.0013229
0.0013229
0.00132289
0.00132289
0.00132289
0.00132289
0.00132288
0.00132288
0.00132288
0.00132288
0.0013244
0.0013244
0.00132438
0.00132438
0.00132437
0.00132436
0.00132436
0.00132435
0.00132435
0.00132434
0.00132434
0.00132433
0.00132433
0.00132433
0.00132432
0.00132432
0.00132432
0.00132432
0.00132432
0.00132432
0.00132564
0.00132564
0.00132562
0.00132562
0.00132561
0.0013256
0.0013256
0.00132559
0.00132558
0.00132558
0.00132558
0.00132557
0.00132557
0.00132557
0.00132556
0.00132556
0.00132556
0.00132556
0.00132556
0.00132556
0.00132683
0.00132683
0.00132681
0.00132681
0.0013268
0.00132679
0.00132678
0.00132678
0.00132677
0.00132677
0.00132676
0.00132676
0.00132676
0.00132676
0.00132675
0.00132675
0.00132675
0.00132675
0.00132675
0.00132675
0.00132805
0.00132805
0.00132803
0.00132803
0.00132802
0.00132802
0.00132801
0.001328
0.001328
0.00132799
0.00132799
0.00132799
0.00132798
0.00132798
0.00132797
0.00132797
0.00132797
0.00132797
0.00132797
0.00132797
0.00132933
0.00132934
0.00132932
0.00132932
0.00132931
0.0013293
0.00132929
0.00132929
0.00132928
0.00132928
0.00132927
0.00132927
0.00132927
0.00132926
0.00132926
0.00132926
0.00132926
0.00132926
0.00132926
0.00132926
0.00133067
0.00133067
0.00133065
0.00133065
0.00133064
0.00133063
0.00133063
0.00133062
0.00133062
0.00133061
0.00133061
0.0013306
0.0013306
0.0013306
0.00133059
0.00133059
0.00133059
0.00133059
0.00133059
0.00133059
0.00133198
0.00133198
0.00133196
0.00133196
0.00133195
0.00133194
0.00133194
0.00133193
0.00133193
0.00133192
0.00133192
0.00133192
0.00133191
0.00133191
0.0013319
0.0013319
0.0013319
0.0013319
0.0013319
0.0013319
0.00133316
0.00133316
0.00133314
0.00133314
0.00133313
0.00133312
0.00133311
0.00133311
0.0013331
0.0013331
0.00133309
0.00133309
0.00133309
0.00133308
0.00133308
0.00133308
0.00133308
0.00133308
0.00133308
0.00133308
0.00133405
0.00133406
0.00133404
0.00133404
0.00133403
0.00133402
0.00133401
0.00133401
0.001334
0.001334
0.001334
0.00133399
0.00133399
0.00133399
0.00133398
0.00133398
0.00133398
0.00133398
0.00133398
0.00133398
0.00133447
0.00133447
0.00133447
0.00133447
0.00133447
0.00133447
0.00133447
0.00133447
0.00133447
0.00133447
0.00133447
0.00133447
0.00133447
0.00133447
0.00133447
0.00133447
0.00133447
0.00133447
0.00133447
0.00133447
)
;

boundaryField
{
    movingWall
    {
        type            calculated;
        value           nonuniform List<scalar> 
20
(
0.00133447
0.00133447
0.00133447
0.00133447
0.00133447
0.00133447
0.00133447
0.00133447
0.00133447
0.00133447
0.00133447
0.00133447
0.00133447
0.00133447
0.00133447
0.00133447
0.00133447
0.00133447
0.00133447
0.00133447
)
;
    }
    fixedWalls
    {
        type            calculated;
        value           nonuniform List<scalar> 
60
(
0.00125661
0.00126366
0.00127517
0.00128787
0.0012992
0.00130798
0.00131418
0.00131833
0.00132107
0.00132296
0.0013244
0.00132564
0.00132683
0.00132805
0.00132933
0.00133067
0.00133198
0.00133316
0.00133405
0.00133447
0.00125661
0.00126359
0.0012751
0.0012878
0.00129912
0.00130791
0.00131411
0.00131825
0.00132099
0.00132288
0.00132432
0.00132556
0.00132675
0.00132797
0.00132926
0.00133059
0.0013319
0.00133308
0.00133398
0.00133447
0.00125661
0.00125661
0.00125661
0.00125661
0.00125661
0.00125661
0.00125661
0.00125661
0.00125661
0.00125661
0.00125661
0.00125661
0.00125661
0.00125661
0.00125661
0.00125661
0.00125661
0.00125661
0.00125661
0.00125661
)
;
    }
    frontAndBack
    {
        type            empty;
    }
}


// ************************************************************************* //
