/*--------------------------------*- C++ -*----------------------------------*\
| =========                 |                                                 |
| \\      /  F ield         | OpenFOAM: The Open Source CFD Toolbox           |
|  \\    /   O peration     | Version:  2312                                  |
|   \\  /    A nd           | Website:  www.openfoam.com                      |
|    \\/     M anipulation  |                                                 |
\*---------------------------------------------------------------------------*/
FoamFile
{
    version     2.0;
    format      ascii;
    arch        "LSB;label=32;scalar=64";
    class       volScalarField;
    location    "10";
    object      turbulenceProperties:nuEff;
}
// * * * * * * * * * * * * * * * * * * * * * * * * * * * * * * * * * * * * * //

dimensions      [0 2 -1 0 0 0 0];

internalField   nonuniform List<scalar> 
400
(
1.08625e-05
1.08625e-05
1.08625e-05
1.08625e-05
1.08625e-05
1.08625e-05
1.08625e-05
1.08625e-05
1.08625e-05
1.08625e-05
1.08625e-05
1.08625e-05
1.08625e-05
1.08625e-05
1.08625e-05
1.08625e-05
1.08625e-05
1.08625e-05
1.08625e-05
1.08625e-05
1.08673e-05
1.08753e-05
1.08746e-05
1.08743e-05
1.08737e-05
1.08734e-05
1.08728e-05
1.08725e-05
1.08719e-05
1.08716e-05
1.0871e-05
1.08707e-05
1.08701e-05
1.08698e-05
1.08692e-05
1.08689e-05
1.08683e-05
1.0868e-05
1.08677e-05
1.08672e-05
1.08752e-05
1.08835e-05
1.08827e-05
1.08824e-05
1.08818e-05
1.08815e-05
1.08809e-05
1.08805e-05
1.08799e-05
1.08796e-05
1.0879e-05
1.08787e-05
1.08781e-05
1.08777e-05
1.08771e-05
1.08768e-05
1.08762e-05
1.08759e-05
1.08756e-05
1.08751e-05
1.08838e-05
1.08924e-05
1.08916e-05
1.08913e-05
1.08906e-05
1.08903e-05
1.08897e-05
1.08893e-05
1.08887e-05
1.08884e-05
1.08878e-05
1.08874e-05
1.08868e-05
1.08865e-05
1.08858e-05
1.08855e-05
1.08849e-05
1.08846e-05
1.08843e-05
1.08838e-05
1.08916e-05
1.09003e-05
1.08995e-05
1.08991e-05
1.08985e-05
1.08982e-05
1.08975e-05
1.08972e-05
1.08965e-05
1.08962e-05
1.08956e-05
1.08952e-05
1.08946e-05
1.08943e-05
1.08936e-05
1.08933e-05
1.08927e-05
1.08923e-05
1.0892e-05
1.08915e-05
1.08976e-05
1.09064e-05
1.09056e-05
1.09053e-05
1.09046e-05
1.09043e-05
1.09036e-05
1.09033e-05
1.09026e-05
1.09023e-05
1.09016e-05
1.09013e-05
1.09007e-05
1.09003e-05
1.08997e-05
1.08993e-05
1.08987e-05
1.08984e-05
1.0898e-05
1.08976e-05
1.09019e-05
1.09107e-05
1.09099e-05
1.09096e-05
1.09089e-05
1.09086e-05
1.09079e-05
1.09076e-05
1.09069e-05
1.09066e-05
1.09059e-05
1.09056e-05
1.09049e-05
1.09046e-05
1.0904e-05
1.09036e-05
1.0903e-05
1.09026e-05
1.09023e-05
1.09018e-05
1.09047e-05
1.09136e-05
1.09128e-05
1.09125e-05
1.09118e-05
1.09115e-05
1.09108e-05
1.09105e-05
1.09098e-05
1.09095e-05
1.09088e-05
1.09085e-05
1.09078e-05
1.09075e-05
1.09068e-05
1.09065e-05
1.09058e-05
1.09055e-05
1.09051e-05
1.09047e-05
1.09066e-05
1.09156e-05
1.09147e-05
1.09144e-05
1.09137e-05
1.09134e-05
1.09127e-05
1.09124e-05
1.09117e-05
1.09114e-05
1.09107e-05
1.09104e-05
1.09097e-05
1.09094e-05
1.09087e-05
1.09084e-05
1.09077e-05
1.09074e-05
1.0907e-05
1.09065e-05
1.09079e-05
1.09169e-05
1.0916e-05
1.09157e-05
1.0915e-05
1.09147e-05
1.0914e-05
1.09137e-05
1.0913e-05
1.09127e-05
1.0912e-05
1.09117e-05
1.0911e-05
1.09107e-05
1.091e-05
1.09097e-05
1.0909e-05
1.09087e-05
1.09083e-05
1.09078e-05
1.09089e-05
1.09179e-05
1.09171e-05
1.09167e-05
1.0916e-05
1.09157e-05
1.0915e-05
1.09147e-05
1.0914e-05
1.09137e-05
1.0913e-05
1.09127e-05
1.0912e-05
1.09117e-05
1.0911e-05
1.09106e-05
1.091e-05
1.09096e-05
1.09093e-05
1.09088e-05
1.09097e-05
1.09188e-05
1.09179e-05
1.09176e-05
1.09169e-05
1.09166e-05
1.09159e-05
1.09155e-05
1.09149e-05
1.09145e-05
1.09139e-05
1.09135e-05
1.09129e-05
1.09125e-05
1.09118e-05
1.09115e-05
1.09108e-05
1.09105e-05
1.09102e-05
1.09097e-05
1.09105e-05
1.09196e-05
1.09188e-05
1.09184e-05
1.09177e-05
1.09174e-05
1.09167e-05
1.09164e-05
1.09157e-05
1.09154e-05
1.09147e-05
1.09143e-05
1.09137e-05
1.09133e-05
1.09127e-05
1.09123e-05
1.09117e-05
1.09113e-05
1.0911e-05
1.09105e-05
1.09114e-05
1.09204e-05
1.09196e-05
1.09193e-05
1.09186e-05
1.09182e-05
1.09176e-05
1.09172e-05
1.09165e-05
1.09162e-05
1.09155e-05
1.09152e-05
1.09145e-05
1.09142e-05
1.09135e-05
1.09132e-05
1.09125e-05
1.09121e-05
1.09118e-05
1.09113e-05
1.09123e-05
1.09213e-05
1.09205e-05
1.09202e-05
1.09195e-05
1.09191e-05
1.09185e-05
1.09181e-05
1.09174e-05
1.09171e-05
1.09164e-05
1.09161e-05
1.09154e-05
1.09151e-05
1.09144e-05
1.0914e-05
1.09134e-05
1.0913e-05
1.09127e-05
1.09122e-05
1.09132e-05
1.09223e-05
1.09214e-05
1.09211e-05
1.09204e-05
1.09201e-05
1.09194e-05
1.0919e-05
1.09184e-05
1.0918e-05
1.09173e-05
1.0917e-05
1.09163e-05
1.0916e-05
1.09153e-05
1.0915e-05
1.09143e-05
1.09139e-05
1.09136e-05
1.09131e-05
1.09141e-05
1.09232e-05
1.09223e-05
1.0922e-05
1.09213e-05
1.0921e-05
1.09203e-05
1.09199e-05
1.09193e-05
1.09189e-05
1.09182e-05
1.09179e-05
1.09172e-05
1.09169e-05
1.09162e-05
1.09159e-05
1.09152e-05
1.09148e-05
1.09145e-05
1.0914e-05
1.09149e-05
1.0924e-05
1.09232e-05
1.09228e-05
1.09221e-05
1.09218e-05
1.09211e-05
1.09208e-05
1.09201e-05
1.09197e-05
1.09191e-05
1.09187e-05
1.0918e-05
1.09177e-05
1.0917e-05
1.09167e-05
1.0916e-05
1.09157e-05
1.09153e-05
1.09148e-05
1.09155e-05
1.09245e-05
1.09236e-05
1.09233e-05
1.09227e-05
1.09223e-05
1.09217e-05
1.09213e-05
1.09206e-05
1.09203e-05
1.09196e-05
1.09193e-05
1.09186e-05
1.09183e-05
1.09176e-05
1.09173e-05
1.09166e-05
1.09163e-05
1.09159e-05
1.09154e-05
1.09158e-05
1.09158e-05
1.09158e-05
1.09158e-05
1.09158e-05
1.09158e-05
1.09158e-05
1.09158e-05
1.09158e-05
1.09158e-05
1.09158e-05
1.09158e-05
1.09158e-05
1.09158e-05
1.09158e-05
1.09158e-05
1.09158e-05
1.09158e-05
1.09158e-05
1.09158e-05
)
;

boundaryField
{
    movingWall
    {
        type            calculated;
        value           uniform 1e-05;
    }
    fixedWalls
    {
        type            calculated;
        value           uniform 1e-05;
    }
    frontAndBack
    {
        type            empty;
    }
}


// ************************************************************************* //
