/*--------------------------------*- C++ -*----------------------------------*\
| =========                 |                                                 |
| \\      /  F ield         | OpenFOAM: The Open Source CFD Toolbox           |
|  \\    /   O peration     | Version:  2312                                  |
|   \\  /    A nd           | Website:  www.openfoam.com                      |
|    \\/     M anipulation  |                                                 |
\*---------------------------------------------------------------------------*/
FoamFile
{
    version     2.0;
    format      ascii;
    arch        "LSB;label=32;scalar=64";
    class       volScalarField;
    location    "10";
    object      turbulenceProperties:nuTilda;
}
// * * * * * * * * * * * * * * * * * * * * * * * * * * * * * * * * * * * * * //

dimensions      [0 2 -1 0 0 0 0];

internalField   nonuniform List<scalar> 
400
(
8.62465e-07
8.62465e-07
8.62465e-07
8.62464e-07
8.62465e-07
8.62464e-07
8.62465e-07
8.62464e-07
8.62464e-07
8.62464e-07
8.62464e-07
8.62464e-07
8.62464e-07
8.62464e-07
8.62464e-07
8.62464e-07
8.62464e-07
8.62464e-07
8.62464e-07
8.62464e-07
8.67283e-07
8.75341e-07
8.7461e-07
8.74313e-07
8.73718e-07
8.73411e-07
8.7282e-07
8.7251e-07
8.7192e-07
8.71609e-07
8.71017e-07
8.70708e-07
8.70112e-07
8.69804e-07
8.69208e-07
8.68896e-07
8.68304e-07
8.67986e-07
8.67691e-07
8.67238e-07
8.75155e-07
8.83505e-07
8.82736e-07
8.82421e-07
8.81798e-07
8.81478e-07
8.80859e-07
8.80539e-07
8.79921e-07
8.79601e-07
8.78986e-07
8.78667e-07
8.78051e-07
8.77734e-07
8.77119e-07
8.76804e-07
8.76191e-07
8.75875e-07
8.75569e-07
8.75108e-07
8.83843e-07
8.9236e-07
8.91574e-07
8.91255e-07
8.90618e-07
8.9029e-07
8.89663e-07
8.8933e-07
8.88707e-07
8.88376e-07
8.87751e-07
8.87424e-07
8.86797e-07
8.86473e-07
8.85847e-07
8.85525e-07
8.84899e-07
8.84577e-07
8.84266e-07
8.83795e-07
8.91597e-07
9.0027e-07
8.99462e-07
8.99144e-07
8.98489e-07
8.98164e-07
8.97515e-07
8.97187e-07
8.96543e-07
8.96212e-07
8.95572e-07
8.9524e-07
8.94604e-07
8.94271e-07
8.93637e-07
8.93306e-07
8.92672e-07
8.92343e-07
8.92026e-07
8.91547e-07
8.97615e-07
9.06406e-07
9.05594e-07
9.05262e-07
9.04609e-07
9.04266e-07
9.03621e-07
9.03277e-07
9.02634e-07
9.0229e-07
9.01648e-07
9.01307e-07
9.00665e-07
9.00327e-07
8.99682e-07
8.99348e-07
8.98705e-07
8.98371e-07
8.9805e-07
8.97564e-07
9.01865e-07
9.10742e-07
9.09922e-07
9.09589e-07
9.08924e-07
9.08583e-07
9.07928e-07
9.07584e-07
9.06931e-07
9.06589e-07
9.05935e-07
9.05596e-07
9.04942e-07
9.04605e-07
9.03951e-07
9.03616e-07
9.02964e-07
9.02628e-07
9.02304e-07
9.01813e-07
9.04707e-07
9.13642e-07
9.12817e-07
9.12479e-07
9.11815e-07
9.11468e-07
9.1081e-07
9.10462e-07
9.09807e-07
9.09459e-07
9.08804e-07
9.08459e-07
9.07805e-07
9.07463e-07
9.06807e-07
9.06469e-07
9.05814e-07
9.05475e-07
9.05148e-07
9.04654e-07
9.06586e-07
9.1556e-07
9.14732e-07
9.14391e-07
9.13726e-07
9.13375e-07
9.12717e-07
9.12366e-07
9.11709e-07
9.11358e-07
9.10702e-07
9.10354e-07
9.09699e-07
9.09354e-07
9.08696e-07
9.08355e-07
9.07698e-07
9.07357e-07
9.07029e-07
9.06533e-07
9.07882e-07
9.16883e-07
9.16049e-07
9.15714e-07
9.1504e-07
9.14694e-07
9.1403e-07
9.1368e-07
9.1302e-07
9.1267e-07
9.1201e-07
9.11664e-07
9.11003e-07
9.10659e-07
9.09998e-07
9.09657e-07
9.08997e-07
9.08656e-07
9.08327e-07
9.0783e-07
9.08868e-07
9.17889e-07
9.17055e-07
9.16716e-07
9.16042e-07
9.15695e-07
9.15029e-07
9.14678e-07
9.14017e-07
9.13667e-07
9.13004e-07
9.12659e-07
9.11995e-07
9.11651e-07
9.10988e-07
9.10647e-07
9.09985e-07
9.09644e-07
9.09314e-07
9.08815e-07
9.09717e-07
9.18755e-07
9.17917e-07
9.1758e-07
9.16905e-07
9.16557e-07
9.1589e-07
9.15538e-07
9.14876e-07
9.14525e-07
9.13862e-07
9.13514e-07
9.1285e-07
9.12505e-07
9.11841e-07
9.11499e-07
9.10836e-07
9.10494e-07
9.10164e-07
9.09664e-07
9.10532e-07
9.19586e-07
9.18751e-07
9.1841e-07
9.17733e-07
9.17385e-07
9.16717e-07
9.16365e-07
9.157e-07
9.1535e-07
9.14684e-07
9.14337e-07
9.13671e-07
9.13326e-07
9.1266e-07
9.12318e-07
9.11653e-07
9.11311e-07
9.1098e-07
9.10479e-07
9.1137e-07
9.20442e-07
9.19601e-07
9.19263e-07
9.18584e-07
9.18235e-07
9.17566e-07
9.17213e-07
9.16548e-07
9.16196e-07
9.15529e-07
9.15182e-07
9.14514e-07
9.1417e-07
9.13502e-07
9.13159e-07
9.12493e-07
9.1215e-07
9.11818e-07
9.11317e-07
9.12252e-07
9.21342e-07
9.20499e-07
9.2016e-07
9.1948e-07
9.19129e-07
9.18459e-07
9.18104e-07
9.17439e-07
9.17084e-07
9.16419e-07
9.16066e-07
9.15406e-07
9.15052e-07
9.1439e-07
9.14041e-07
9.13379e-07
9.13032e-07
9.127e-07
9.12198e-07
9.13163e-07
9.22272e-07
9.21426e-07
9.21089e-07
9.20408e-07
9.20054e-07
9.19384e-07
9.19028e-07
9.18361e-07
9.18007e-07
9.1734e-07
9.16988e-07
9.16321e-07
9.15972e-07
9.15303e-07
9.14959e-07
9.14291e-07
9.13946e-07
9.13613e-07
9.1311e-07
9.14062e-07
9.23188e-07
9.22339e-07
9.22001e-07
9.2132e-07
9.20965e-07
9.20294e-07
9.19938e-07
9.19269e-07
9.18913e-07
9.18245e-07
9.17895e-07
9.17223e-07
9.16876e-07
9.16205e-07
9.1586e-07
9.1519e-07
9.14845e-07
9.14512e-07
9.14007e-07
9.14867e-07
9.24009e-07
9.23157e-07
9.22822e-07
9.22134e-07
9.21787e-07
9.21107e-07
9.20756e-07
9.20081e-07
9.19728e-07
9.19058e-07
9.18704e-07
9.18036e-07
9.17685e-07
9.17016e-07
9.16668e-07
9.15999e-07
9.15651e-07
9.15318e-07
9.14813e-07
9.15483e-07
9.24463e-07
9.23643e-07
9.23317e-07
9.22651e-07
9.22311e-07
9.21651e-07
9.21306e-07
9.20649e-07
9.20299e-07
9.19643e-07
9.19293e-07
9.18636e-07
9.18286e-07
9.17626e-07
9.17278e-07
9.16615e-07
9.16265e-07
9.15934e-07
9.15429e-07
9.15766e-07
9.15766e-07
9.15766e-07
9.15765e-07
9.15766e-07
9.15765e-07
9.15766e-07
9.15765e-07
9.15766e-07
9.15765e-07
9.15765e-07
9.15765e-07
9.15765e-07
9.15765e-07
9.15765e-07
9.15765e-07
9.15765e-07
9.15765e-07
9.15765e-07
9.15765e-07
)
;

boundaryField
{
    movingWall
    {
        type            calculated;
        value           nonuniform List<scalar> 
20
(
9.15766e-07
9.15766e-07
9.15766e-07
9.15765e-07
9.15766e-07
9.15765e-07
9.15766e-07
9.15765e-07
9.15766e-07
9.15765e-07
9.15765e-07
9.15765e-07
9.15765e-07
9.15765e-07
9.15765e-07
9.15765e-07
9.15765e-07
9.15765e-07
9.15765e-07
9.15765e-07
)
;
    }
    fixedWalls
    {
        type            calculated;
        value           nonuniform List<scalar> 
60
(
8.62465e-07
8.67283e-07
8.75155e-07
8.83843e-07
8.91597e-07
8.97615e-07
9.01865e-07
9.04707e-07
9.06586e-07
9.07882e-07
9.08868e-07
9.09717e-07
9.10532e-07
9.1137e-07
9.12252e-07
9.13163e-07
9.14062e-07
9.14867e-07
9.15483e-07
9.15766e-07
8.62464e-07
8.67238e-07
8.75108e-07
8.83795e-07
8.91547e-07
8.97564e-07
9.01813e-07
9.04654e-07
9.06533e-07
9.0783e-07
9.08815e-07
9.09664e-07
9.10479e-07
9.11317e-07
9.12198e-07
9.1311e-07
9.14007e-07
9.14813e-07
9.15429e-07
9.15765e-07
8.62465e-07
8.62465e-07
8.62465e-07
8.62464e-07
8.62465e-07
8.62464e-07
8.62465e-07
8.62464e-07
8.62464e-07
8.62464e-07
8.62464e-07
8.62464e-07
8.62464e-07
8.62464e-07
8.62464e-07
8.62464e-07
8.62464e-07
8.62464e-07
8.62464e-07
8.62464e-07
)
;
    }
    frontAndBack
    {
        type            empty;
    }
}


// ************************************************************************* //
