/*--------------------------------*- C++ -*----------------------------------*\
| =========                 |                                                 |
| \\      /  F ield         | OpenFOAM: The Open Source CFD Toolbox           |
|  \\    /   O peration     | Version:  2312                                  |
|   \\  /    A nd           | Website:  www.openfoam.com                      |
|    \\/     M anipulation  |                                                 |
\*---------------------------------------------------------------------------*/
FoamFile
{
    version     2.0;
    format      ascii;
    arch        "LSB;label=32;scalar=64";
    class       volScalarField;
    location    "10";
    object      turbulenceProperties:omega;
}
// * * * * * * * * * * * * * * * * * * * * * * * * * * * * * * * * * * * * * //

dimensions      [0 0 -1 0 0 0 0];

internalField   nonuniform List<scalar> 
400
(
2.7463
2.7463
2.7463
2.7463
2.7463
2.7463
2.7463
2.7463
2.7463
2.7463
2.7463
2.7463
2.7463
2.7463
2.7463
2.7463
2.7463
2.7463
2.7463
2.7463
2.76177
2.73635
2.73858
2.7395
2.74133
2.74228
2.7441
2.74506
2.7469
2.74786
2.74971
2.75068
2.75254
2.75351
2.75539
2.75637
2.75824
2.75925
2.76019
2.76163
2.78703
2.76068
2.76304
2.764
2.76592
2.76691
2.76882
2.76982
2.77173
2.77273
2.77465
2.77565
2.77757
2.77857
2.7805
2.7815
2.78343
2.78444
2.78541
2.78688
2.81488
2.78801
2.79041
2.79139
2.79335
2.79436
2.7963
2.79733
2.79927
2.8003
2.80224
2.80327
2.80523
2.80625
2.80822
2.80924
2.81121
2.81223
2.81322
2.81472
2.8397
2.81235
2.8148
2.81579
2.81779
2.81881
2.8208
2.82183
2.82382
2.82485
2.82684
2.82789
2.82988
2.83092
2.83292
2.83396
2.83596
2.83701
2.83801
2.83954
2.85894
2.83121
2.83369
2.83471
2.83672
2.83777
2.83977
2.84083
2.84283
2.84389
2.8459
2.84696
2.84898
2.85004
2.85207
2.85312
2.85515
2.85621
2.85723
2.85878
2.87252
2.84452
2.84702
2.84804
2.85008
2.85113
2.85316
2.85422
2.85625
2.85732
2.85935
2.86042
2.86246
2.86352
2.86557
2.86663
2.86869
2.86976
2.87079
2.87235
2.88158
2.8534
2.85592
2.85695
2.859
2.86006
2.8621
2.86317
2.86521
2.86629
2.86833
2.86941
2.87146
2.87253
2.87459
2.87566
2.87773
2.87881
2.87984
2.88141
2.88757
2.85927
2.8618
2.86284
2.86489
2.86596
2.86801
2.86909
2.87113
2.87221
2.87426
2.87535
2.8774
2.87849
2.88056
2.88163
2.88371
2.88479
2.88583
2.88741
2.89171
2.86332
2.86587
2.8669
2.86897
2.87003
2.87209
2.87317
2.87522
2.8763
2.87836
2.87944
2.88151
2.88259
2.88467
2.88575
2.88783
2.88892
2.88996
2.89154
2.89486
2.86641
2.86895
2.86999
2.87206
2.87313
2.87519
2.87627
2.87833
2.87941
2.88148
2.88256
2.88464
2.88572
2.8878
2.88888
2.89097
2.89205
2.8931
2.89469
2.89757
2.86906
2.87161
2.87265
2.87473
2.8758
2.87786
2.87894
2.881
2.88209
2.88416
2.88525
2.88733
2.88841
2.8905
2.89158
2.89367
2.89476
2.89581
2.8974
2.90017
2.87162
2.87417
2.87521
2.87729
2.87836
2.88043
2.88151
2.88358
2.88467
2.88674
2.88783
2.88991
2.891
2.89309
2.89417
2.89627
2.89736
2.89841
2.9
2.90285
2.87424
2.8768
2.87784
2.87993
2.881
2.88307
2.88416
2.88623
2.88732
2.8894
2.89048
2.89257
2.89366
2.89575
2.89684
2.89894
2.90003
2.90108
2.90268
2.90566
2.877
2.87957
2.88061
2.8827
2.88378
2.88585
2.88694
2.88901
2.89011
2.89218
2.89328
2.89536
2.89646
2.89855
2.89965
2.90175
2.90284
2.9039
2.90549
2.90859
2.87986
2.88244
2.88348
2.88557
2.88665
2.88873
2.88982
2.8919
2.893
2.89508
2.89617
2.89826
2.89936
2.90146
2.90255
2.90466
2.90576
2.90681
2.90841
2.91146
2.88268
2.88526
2.8863
2.8884
2.88948
2.89156
2.89266
2.89474
2.89584
2.89793
2.89902
2.90112
2.90221
2.90432
2.90541
2.90753
2.90862
2.90968
2.91129
2.91404
2.88521
2.8878
2.88884
2.89095
2.89202
2.89411
2.8952
2.89729
2.89839
2.90048
2.90158
2.90368
2.90478
2.90689
2.90798
2.9101
2.9112
2.91226
2.91387
2.91601
2.88768
2.89018
2.89119
2.89323
2.89428
2.89631
2.89739
2.89942
2.90051
2.90255
2.90365
2.90571
2.9068
2.90888
2.90998
2.91208
2.91318
2.91423
2.91584
2.91692
2.91692
2.91692
2.91692
2.91692
2.91692
2.91692
2.91692
2.91692
2.91692
2.91692
2.91692
2.91692
2.91692
2.91692
2.91692
2.91692
2.91692
2.91692
2.91692
)
;

boundaryField
{
    movingWall
    {
        type            calculated;
        value           nonuniform List<scalar> 
20
(
2.91692
2.91692
2.91692
2.91692
2.91692
2.91692
2.91692
2.91692
2.91692
2.91692
2.91692
2.91692
2.91692
2.91692
2.91692
2.91692
2.91692
2.91692
2.91692
2.91692
)
;
    }
    fixedWalls
    {
        type            calculated;
        value           nonuniform List<scalar> 
60
(
2.7463
2.76177
2.78703
2.81488
2.8397
2.85894
2.87252
2.88158
2.88757
2.89171
2.89486
2.89757
2.90017
2.90285
2.90566
2.90859
2.91146
2.91404
2.91601
2.91692
2.7463
2.76163
2.78688
2.81472
2.83954
2.85878
2.87235
2.88141
2.88741
2.89154
2.89469
2.8974
2.9
2.90268
2.90549
2.90841
2.91129
2.91387
2.91584
2.91692
2.7463
2.7463
2.7463
2.7463
2.7463
2.7463
2.7463
2.7463
2.7463
2.7463
2.7463
2.7463
2.7463
2.7463
2.7463
2.7463
2.7463
2.7463
2.7463
2.7463
)
;
    }
    frontAndBack
    {
        type            empty;
    }
}


// ************************************************************************* //
