/*--------------------------------*- C++ -*----------------------------------*\
| =========                 |                                                 |
| \\      /  F ield         | OpenFOAM: The Open Source CFD Toolbox           |
|  \\    /   O peration     | Version:  2312                                  |
|   \\  /    A nd           | Website:  www.openfoam.com                      |
|    \\/     M anipulation  |                                                 |
\*---------------------------------------------------------------------------*/
FoamFile
{
    version     2.0;
    format      ascii;
    arch        "LSB;label=32;scalar=64";
    class       volTensorField;
    location    "10";
    object      U2;
}
// * * * * * * * * * * * * * * * * * * * * * * * * * * * * * * * * * * * * * //

dimensions      [0 2 -2 0 0 0 0];

internalField   nonuniform List<tensor> 
400
(
(1 -1.73994e-13 -0 -1.74481e-13 3.03586e-26 0 -0 0 0)
(1 3.7608e-14 -0 3.7598e-14 1.41399e-27 -0 -0 -0 0)
(1 -8.89084e-15 -0 -8.92361e-15 7.93384e-29 0 -0 0 0)
(1 1.90934e-15 -0 1.8655e-15 3.56189e-30 -0 -0 -0 0)
(1 -4.66165e-16 -0 -5.2902e-16 2.46611e-31 0 -0 0 0)
(1 -8.44145e-17 -0 -1.30753e-16 1.10375e-32 0 -0 0 0)
(1 -2.40404e-16 -0 -2.05511e-16 4.94057e-32 0 -0 0 0)
(1 -1.42426e-16 -0 -1.44322e-16 2.05552e-32 0 -0 0 0)
(1 -1.50871e-16 -0 -1.55659e-16 2.34845e-32 0 -0 0 0)
(1 -1.45774e-16 -0 -7.95465e-17 1.15958e-32 0 -0 0 0)
(1 -2.6649e-18 -0 2.77614e-17 -7.39812e-35 -0 -0 0 0)
(1 -8.46652e-18 -0 -7.89013e-17 6.68019e-34 0 -0 0 0)
(1 -1.39786e-16 -0 -1.85679e-16 2.59553e-32 0 -0 0 0)
(1 -1.64918e-16 -0 -1.22385e-16 2.01836e-32 0 -0 0 0)
(1 -5.2372e-17 -0 2.76334e-17 -1.44722e-33 -0 -0 0 0)
(1 8.14478e-18 -0 7.35553e-17 5.99092e-34 -0 -0 -0 0)
(1 6.55741e-17 -0 -2.44383e-17 -1.60252e-33 0 -0 -0 0)
(1 -3.32823e-17 -0 -7.89375e-17 2.62722e-33 0 -0 0 0)
(1 -6.77552e-17 -0 -6.50179e-17 4.4053e-33 0 -0 0 0)
(1 -1.16566e-17 -0 1.18652e-17 -1.38307e-34 -0 -0 0 0)
(1 -9.93149e-15 -0 -1.0055e-14 9.98611e-29 0 -0 0 0)
(1 2.20073e-15 -0 2.06739e-15 4.54978e-30 -0 -0 -0 0)
(1 -4.06723e-16 -0 -4.99637e-16 2.03214e-31 0 -0 0 0)
(1 2.93898e-16 -0 1.82676e-16 5.36881e-32 -0 -0 -0 0)
(1 1.35131e-16 -0 1.54296e-17 2.08502e-33 -0 -0 -0 0)
(1 1.12348e-17 -0 -7.63203e-17 -8.57447e-34 0 -0 -0 0)
(1 -1.1204e-16 -0 -1.98864e-16 2.22808e-32 0 -0 0 0)
(1 -1.54384e-16 -0 -2.18037e-16 3.36615e-32 0 -0 0 0)
(1 -2.52246e-16 -0 -2.64664e-16 6.67605e-32 0 -0 0 0)
(1 -2.8716e-16 -0 -2.13979e-16 6.14464e-32 0 -0 0 0)
(1 -1.19603e-16 -0 -3.05819e-17 3.65767e-33 0 -0 0 0)
(1 -5.9849e-17 -0 -9.48052e-18 5.67399e-34 0 -0 0 0)
(1 -5.41931e-17 -0 -5.20621e-17 2.8214e-33 0 -0 0 0)
(1 -4.8165e-17 -0 -1.13842e-16 5.48318e-33 0 -0 0 0)
(1 -6.86167e-17 -0 -1.30977e-16 8.98721e-33 0 -0 0 0)
(1 -1.32866e-16 -0 -1.19316e-16 1.58531e-32 0 -0 0 0)
(1 -4.55695e-17 -0 -5.50847e-17 2.51018e-33 0 -0 0 0)
(1 -2.37613e-19 -0 -2.70573e-17 6.42917e-36 0 -0 0 0)
(1 6.46132e-17 -0 6.28008e-17 4.05776e-33 -0 -0 -0 0)
(1 6.03933e-17 -0 8.39336e-17 5.06903e-33 -0 -0 -0 0)
(1 1.59024e-13 -0 1.58795e-13 2.52523e-26 -0 -0 -0 0)
(1 -3.47061e-14 -0 -3.49214e-14 1.21199e-27 0 -0 0 0)
(1 8.39939e-15 -0 8.24229e-15 6.92302e-29 -0 -0 -0 0)
(1 -1.67057e-15 -0 -1.80164e-15 3.00976e-30 0 -0 0 0)
(1 4.97539e-16 -0 4.48705e-16 2.23248e-31 -0 -0 -0 0)
(1 2.98851e-17 -0 -6.18987e-18 -1.84985e-34 0 -0 -0 0)
(1 1.11927e-16 -0 -6.68618e-17 -7.48362e-33 0 -0 -0 0)
(1 -1.06486e-16 -0 -2.36927e-16 2.52295e-32 0 -0 0 0)
(1 -2.31143e-16 -0 -2.45936e-16 5.68464e-32 0 -0 0 0)
(1 -2.27856e-16 -0 -1.91076e-16 4.35378e-32 0 -0 0 0)
(1 -1.41562e-16 -0 -1.46298e-16 2.07102e-32 0 -0 0 0)
(1 -1.15905e-16 -0 -1.27639e-16 1.4794e-32 0 -0 0 0)
(1 -1.32572e-16 -0 -1.18842e-16 1.57552e-32 0 -0 0 0)
(1 -1.87549e-16 -0 -2.21944e-16 4.16255e-32 0 -0 0 0)
(1 -2.28808e-16 -0 -2.70274e-16 6.18408e-32 0 -0 0 0)
(1 -1.51199e-16 -0 -1.78333e-16 2.69638e-32 0 -0 0 0)
(1 -4.52634e-17 -0 -1.08434e-17 4.90811e-34 0 -0 0 0)
(1 5.70777e-17 -0 4.28251e-17 2.44436e-33 -0 -0 -0 0)
(1 1.7151e-16 -0 1.59202e-16 2.73049e-32 -0 -0 -0 0)
(1 1.43368e-16 -0 1.4572e-16 2.08916e-32 -0 -0 -0 0)
(1 -1.10932e-13 -0 -1.11144e-13 1.23295e-26 0 -0 0 0)
(1 2.46733e-14 -0 2.45076e-14 6.04684e-28 -0 -0 -0 0)
(1 -5.38477e-15 -0 -5.43127e-15 2.92461e-29 0 -0 0 0)
(1 1.52347e-15 -0 1.4262e-15 2.17278e-30 -0 -0 -0 0)
(1 -1.13976e-16 -0 -2.04053e-16 2.32572e-32 0 -0 0 0)
(1 2.11818e-16 -0 1.22371e-16 2.59204e-32 -0 -0 -0 0)
(1 3.77021e-17 -0 -8.5547e-17 -3.2253e-33 0 -0 -0 0)
(1 -5.94524e-17 -0 -1.61964e-16 9.62916e-33 0 -0 0 0)
(1 -1.73908e-16 -0 -1.71233e-16 2.97788e-32 0 -0 0 0)
(1 -1.27423e-16 -0 -1.17125e-16 1.49244e-32 0 -0 0 0)
(1 -1.49166e-16 -0 -1.64222e-16 2.44964e-32 0 -0 0 0)
(1 -1.24377e-16 -0 -1.96471e-16 2.44365e-32 0 -0 0 0)
(1 -1.33972e-16 -0 -1.87092e-16 2.5065e-32 0 -0 0 0)
(1 -1.89159e-16 -0 -1.6141e-16 3.05321e-32 0 -0 0 0)
(1 -1.66692e-16 -0 -8.96256e-17 1.49399e-32 0 -0 0 0)
(1 -2.39752e-17 -0 -4.83848e-17 1.16003e-33 0 -0 0 0)
(1 5.87743e-17 -0 -3.06485e-17 -1.80134e-33 0 -0 -0 0)
(1 2.18347e-17 -0 -4.99192e-17 -1.08997e-33 0 -0 -0 0)
(1 3.9026e-17 -0 1.34227e-17 5.23835e-34 -0 -0 -0 0)
(1 8.0904e-17 -0 8.83289e-17 7.14616e-33 -0 -0 -0 0)
(1 -1.85299e-14 -0 -1.81525e-14 3.36365e-28 0 -0 0 0)
(1 5.02758e-15 -0 4.79947e-15 2.41297e-29 -0 -0 -0 0)
(1 -9.39492e-16 -0 -9.62386e-16 9.04154e-31 0 -0 0 0)
(1 4.27113e-16 -0 2.99128e-16 1.27761e-31 -0 -0 -0 0)
(1 -2.36644e-17 -0 -1.63398e-16 3.86671e-33 0 -0 0 0)
(1 5.82152e-17 -0 1.36959e-17 7.97309e-34 -0 -0 -0 0)
(1 2.41615e-17 -0 2.39844e-17 5.79498e-34 -0 -0 -0 0)
(1 9.5615e-17 -0 3.40154e-17 3.25238e-33 -0 -0 -0 0)
(1 4.86013e-17 -0 -4.92094e-17 -2.39164e-33 0 -0 -0 0)
(1 -9.75133e-17 -0 -2.3122e-16 2.25471e-32 0 -0 0 0)
(1 -3.72815e-16 -0 -3.61991e-16 1.34956e-31 0 -0 0 0)
(1 -2.95942e-16 -0 -1.99931e-16 5.91679e-32 0 -0 0 0)
(1 -8.54368e-17 -0 -3.93301e-17 3.36024e-33 0 -0 0 0)
(1 5.81497e-17 -0 3.65841e-17 2.12735e-33 -0 -0 -0 0)
(1 5.06428e-17 -0 2.40132e-17 1.2161e-33 -0 -0 -0 0)
(1 -1.65081e-17 -0 -3.65124e-17 6.02751e-34 0 -0 0 0)
(1 2.85467e-17 -0 -2.32208e-17 -6.62878e-34 0 -0 -0 0)
(1 1.06793e-16 -0 3.56658e-17 3.80886e-33 -0 -0 -0 0)
(1 4.69212e-17 -0 4.74874e-19 2.22817e-35 -0 -0 -0 0)
(1 -3.04655e-17 -0 -7.4255e-18 2.26222e-34 0 -0 0 0)
(1 1.39673e-13 -0 1.39668e-13 1.95078e-26 -0 -0 -0 0)
(1 -3.04816e-14 -0 -3.06482e-14 9.34206e-28 0 -0 0 0)
(1 7.32467e-15 -0 7.11693e-15 5.21292e-29 -0 -0 -0 0)
(1 -1.56344e-15 -0 -1.72981e-15 2.70445e-30 0 -0 0 0)
(1 2.76022e-16 -0 1.95575e-16 5.39831e-32 -0 -0 -0 0)
(1 -1.58037e-16 -0 -1.7367e-16 2.74463e-32 0 -0 0 0)
(1 -1.76741e-17 -0 5.7406e-17 -1.0146e-33 -0 -0 0 0)
(1 6.37359e-17 -0 6.41859e-17 4.09095e-33 -0 -0 -0 0)
(1 1.24673e-16 -0 3.1519e-17 3.92957e-33 -0 -0 -0 0)
(1 6.62282e-18 -0 -7.61187e-17 -5.0412e-34 0 -0 -0 0)
(1 -1.13987e-16 -0 -1.82544e-16 2.08077e-32 0 -0 0 0)
(1 -1.7796e-16 -0 -1.3966e-16 2.48539e-32 0 -0 0 0)
(1 -8.45383e-17 -0 1.19706e-17 -1.01198e-33 -0 -0 0 0)
(1 4.5256e-17 -0 6.72688e-17 3.04432e-33 -0 -0 -0 0)
(1 6.37789e-17 -0 9.13913e-18 5.82883e-34 -0 -0 -0 0)
(1 -1.30007e-17 -0 -1.33396e-17 1.73424e-34 0 -0 0 0)
(1 -1.40028e-17 -0 1.46676e-17 -2.05388e-34 -0 -0 0 0)
(1 1.06915e-16 -0 3.95652e-17 4.23013e-33 -0 -0 -0 0)
(1 4.47367e-17 -0 -3.48321e-17 -1.55827e-33 0 -0 -0 0)
(1 -9.05655e-17 -0 -7.94682e-17 7.19708e-33 0 -0 0 0)
(1 -1.58983e-13 -0 -1.59086e-13 2.5292e-26 0 -0 0 0)
(1 3.50091e-14 -0 3.49208e-14 1.22255e-27 -0 -0 -0 0)
(1 -7.8834e-15 -0 -8.142e-15 6.41866e-29 0 -0 0 0)
(1 1.87216e-15 -0 1.72744e-15 3.23406e-30 -0 -0 -0 0)
(1 -4.28774e-16 -0 -4.9089e-16 2.10481e-31 0 -0 0 0)
(1 5.11708e-17 -0 7.31247e-17 3.74185e-33 -0 -0 -0 0)
(1 -1.71257e-17 -0 4.685e-17 -8.02337e-34 -0 -0 0 0)
(1 2.9623e-17 -0 5.07659e-17 1.50384e-33 -0 -0 -0 0)
(1 1.68939e-17 -0 2.51111e-17 4.24223e-34 -0 -0 -0 0)
(1 4.93939e-17 -0 9.45873e-17 4.67204e-33 -0 -0 -0 0)
(1 1.47919e-16 -0 1.41973e-16 2.10006e-32 -0 -0 -0 0)
(1 5.01038e-17 -0 -3.22216e-17 -1.61442e-33 0 -0 -0 0)
(1 -2.75309e-17 -0 -6.56243e-17 1.80669e-33 0 -0 0 0)
(1 -5.11994e-17 -0 -4.35429e-17 2.22937e-33 0 -0 0 0)
(1 -1.00213e-16 -0 -8.95735e-17 8.97639e-33 0 -0 0 0)
(1 -1.52401e-16 -0 -1.52997e-16 2.33169e-32 0 -0 0 0)
(1 -1.41391e-16 -0 -5.57786e-17 7.88656e-33 0 -0 0 0)
(1 -2.56288e-17 -0 -4.87553e-17 1.24954e-33 0 -0 0 0)
(1 -2.61358e-17 -0 -1.36986e-16 3.58023e-33 0 -0 0 0)
(1 -6.08987e-17 -0 -1.07545e-16 6.54933e-33 0 -0 0 0)
(1 3.68363e-14 -0 3.76106e-14 1.38543e-27 -0 -0 -0 0)
(1 -6.91736e-15 -0 -7.2112e-15 4.98825e-29 0 -0 0 0)
(1 1.84455e-15 -0 1.70459e-15 3.14419e-30 -0 -0 -0 0)
(1 -3.01462e-16 -0 -4.24102e-16 1.27851e-31 0 -0 0 0)
(1 1.09291e-16 -0 2.58245e-17 2.82238e-33 -0 -0 -0 0)
(1 -1.82801e-18 -0 -4.84847e-17 8.86305e-35 0 -0 0 0)
(1 1.17627e-17 -0 8.65396e-17 1.01794e-33 -0 -0 -0 0)
(1 6.71733e-17 -0 9.75061e-17 6.5498e-33 -0 -0 -0 0)
(1 7.68955e-17 -0 7.99838e-17 6.1504e-33 -0 -0 -0 0)
(1 4.71273e-17 -0 6.57454e-17 3.0984e-33 -0 -0 -0 0)
(1 4.48417e-17 -0 6.86129e-17 3.07672e-33 -0 -0 -0 0)
(1 5.88193e-17 -0 5.20871e-18 3.06373e-34 -0 -0 -0 0)
(1 9.75912e-18 -0 -5.98245e-17 -5.83835e-34 0 -0 -0 0)
(1 -5.5912e-17 -0 -6.34927e-17 3.55001e-33 0 -0 0 0)
(1 -1.02485e-16 -0 -5.73926e-17 5.88186e-33 0 -0 0 0)
(1 -1.5475e-16 -0 -1.37023e-16 2.12043e-32 0 -0 0 0)
(1 -1.42518e-16 -0 -1.14208e-16 1.62767e-32 0 -0 0 0)
(1 -4.8452e-17 -0 -2.2166e-18 1.07398e-34 0 -0 0 0)
(1 1.93285e-17 -0 -5.21929e-17 -1.00881e-33 0 -0 -0 0)
(1 -3.39898e-18 -0 -6.72695e-17 2.28648e-34 0 -0 0 0)
(1 1.05292e-13 -0 1.05014e-13 1.10572e-26 -0 -0 -0 0)
(1 -2.34339e-14 -0 -2.33853e-14 5.48007e-28 0 -0 0 0)
(1 5.53504e-15 -0 5.50999e-15 3.0498e-29 -0 -0 -0 0)
(1 -1.12907e-15 -0 -1.15368e-15 1.30258e-30 0 -0 0 0)
(1 4.53483e-16 -0 4.30538e-16 1.95241e-31 -0 -0 -0 0)
(1 9.19633e-17 -0 8.56658e-18 7.87812e-34 -0 -0 -0 0)
(1 7.40448e-17 -0 7.24107e-17 5.36164e-33 -0 -0 -0 0)
(1 1.08657e-16 -0 1.12723e-16 1.22481e-32 -0 -0 -0 0)
(1 1.46941e-16 -0 7.58345e-17 1.11432e-32 -0 -0 -0 0)
(1 2.65357e-17 -0 -7.02573e-17 -1.86433e-33 0 -0 -0 0)
(1 -9.57954e-17 -0 -1.34883e-16 1.29212e-32 0 -0 0 0)
(1 -4.5143e-17 -0 3.23177e-17 -1.45892e-33 -0 -0 0 0)
(1 5.54221e-17 -0 3.8172e-17 2.11557e-33 -0 -0 -0 0)
(1 -8.06176e-17 -0 -1.05331e-16 8.49152e-33 0 -0 0 0)
(1 -7.24307e-17 -0 -2.30335e-18 1.66833e-34 0 -0 0 0)
(1 1.5061e-17 -0 7.62935e-17 1.14905e-33 -0 -0 -0 0)
(1 4.55541e-17 -0 -1.45168e-17 -6.613e-34 0 -0 -0 0)
(1 2.0842e-17 -0 -1.42376e-17 -2.96739e-34 0 -0 -0 0)
(1 -7.51489e-18 -0 3.69909e-17 -2.77983e-34 -0 -0 0 0)
(1 1.09336e-17 -0 -4.3685e-18 -4.77632e-35 0 -0 -0 0)
(1 -1.86316e-13 -0 -1.86635e-13 3.47731e-26 0 -0 0 0)
(1 4.08071e-14 -0 4.09591e-14 1.67142e-27 -0 -0 -0 0)
(1 -9.45407e-15 -0 -9.43749e-15 8.92227e-29 0 -0 0 0)
(1 2.26517e-15 -0 2.2472e-15 5.09029e-30 -0 -0 -0 0)
(1 -3.22644e-16 -0 -3.34497e-16 1.07924e-31 0 -0 0 0)
(1 2.18886e-16 -0 2.24658e-16 4.91745e-32 -0 -0 -0 0)
(1 9.63284e-17 -0 2.36185e-17 2.27513e-33 -0 -0 -0 0)
(1 1.06297e-16 -0 1.30832e-16 1.39071e-32 -0 -0 -0 0)
(1 1.82031e-16 -0 1.6437e-16 2.99205e-32 -0 -0 -0 0)
(1 1.32342e-16 -0 4.67051e-17 6.18105e-33 -0 -0 -0 0)
(1 7.13732e-18 -0 -7.54611e-17 -5.3859e-34 0 -0 -0 0)
(1 -8.10322e-17 -0 -8.47354e-17 6.8663e-33 0 -0 0 0)
(1 -1.60983e-16 -0 -1.65726e-16 2.66792e-32 0 -0 0 0)
(1 -2.38284e-16 -0 -2.45752e-16 5.85588e-32 0 -0 0 0)
(1 -2.37562e-16 -0 -1.7482e-16 4.15306e-32 0 -0 0 0)
(1 -9.12346e-17 -0 -9.74197e-19 8.88805e-35 0 -0 0 0)
(1 -3.73715e-18 -0 -3.0106e-18 1.1251e-35 0 -0 0 0)
(1 3.50026e-17 -0 -2.51717e-17 -8.81077e-34 0 -0 -0 0)
(1 -1.34352e-17 -0 2.19282e-17 -2.94611e-34 -0 -0 0 0)
(1 -1.46203e-17 -0 -2.76806e-17 4.04698e-34 0 -0 0 0)
(1 1.73995e-13 -0 1.74546e-13 3.03701e-26 -0 -0 -0 0)
(1 -3.77948e-14 -0 -3.77518e-14 1.42682e-27 0 -0 0 0)
(1 9.01425e-15 -0 9.15462e-15 8.2522e-29 -0 -0 -0 0)
(1 -1.65467e-15 -0 -1.57537e-15 2.60673e-30 0 -0 0 0)
(1 8.20656e-16 -0 7.91814e-16 6.49807e-31 -0 -0 -0 0)
(1 1.93564e-16 -0 5.09279e-17 9.85779e-33 -0 -0 -0 0)
(1 1.46654e-16 -0 -8.09532e-19 -1.18721e-34 0 -0 -0 0)
(1 -1.15668e-17 -0 -3.04846e-17 3.52611e-34 0 -0 0 0)
(1 1.04716e-17 -0 -7.77693e-18 -8.14367e-35 0 -0 -0 0)
(1 -1.78373e-17 -0 -6.62349e-17 1.18145e-33 0 -0 0 0)
(1 -8.68141e-17 -0 -5.77697e-17 5.01523e-33 0 -0 0 0)
(1 -1.04214e-16 -0 -6.88985e-17 7.18018e-33 0 -0 0 0)
(1 -9.73369e-17 -0 -2.93114e-17 2.85309e-33 0 -0 0 0)
(1 2.78107e-17 -0 7.43151e-17 2.06676e-33 -0 -0 -0 0)
(1 1.66008e-17 -0 8.52421e-18 1.41509e-34 -0 -0 -0 0)
(1 6.83583e-18 -0 2.39083e-17 1.63433e-34 -0 -0 -0 0)
(1 -1.63778e-17 -0 9.34282e-18 -1.53015e-34 -0 -0 0 0)
(1 -3.07753e-17 -0 2.34984e-17 -7.23171e-34 -0 -0 0 0)
(1 5.56046e-17 -0 5.5872e-17 3.10674e-33 -0 -0 -0 0)
(1 7.23306e-18 -0 -4.13271e-17 -2.98921e-34 0 -0 -0 0)
(1 -8.74479e-14 -0 -8.78634e-14 7.68347e-27 0 -0 0 0)
(1 1.86282e-14 -0 1.8697e-14 3.48291e-28 -0 -0 -0 0)
(1 -4.52614e-15 -0 -4.41844e-15 1.99985e-29 0 -0 0 0)
(1 9.32857e-16 -0 1.07814e-15 1.00575e-30 -0 -0 -0 0)
(1 -1.15528e-16 -0 -3.1288e-17 3.61464e-33 0 -0 0 0)
(1 1.44346e-16 -0 1.17665e-16 1.69845e-32 -0 -0 -0 0)
(1 1.73819e-17 -0 -6.05168e-17 -1.0519e-33 0 -0 -0 0)
(1 -6.39944e-17 -0 -1.2813e-16 8.19958e-33 0 -0 0 0)
(1 -9.9902e-17 -0 -1.39633e-16 1.39497e-32 0 -0 0 0)
(1 -8.18542e-17 -0 -1.08586e-16 8.88825e-33 0 -0 0 0)
(1 3.2293e-18 -0 -5.34553e-17 -1.72623e-34 0 -0 -0 0)
(1 -4.57203e-17 -0 -7.94246e-17 3.63132e-33 0 -0 0 0)
(1 -5.98705e-17 -0 -3.62383e-17 2.1696e-33 0 -0 0 0)
(1 -4.84092e-17 -0 -2.77661e-17 1.34414e-33 0 -0 0 0)
(1 -3.85332e-17 -0 1.40523e-18 -5.41481e-35 -0 -0 0 0)
(1 5.82452e-17 -0 1.30973e-16 7.62852e-33 -0 -0 -0 0)
(1 9.2005e-17 -0 1.17578e-16 1.08178e-32 -0 -0 -0 0)
(1 -3.90406e-18 -0 4.18792e-17 -1.63499e-34 -0 -0 0 0)
(1 -3.8886e-17 -0 -3.18852e-17 1.23989e-33 0 -0 0 0)
(1 -6.20521e-17 -0 -3.02187e-17 1.87514e-33 0 -0 0 0)
(1 -3.93324e-14 -0 -3.94351e-14 1.55108e-27 0 -0 0 0)
(1 8.56503e-15 -0 8.49378e-15 7.27495e-29 -0 -0 -0 0)
(1 -1.99827e-15 -0 -2.05457e-15 4.10559e-30 0 -0 0 0)
(1 3.99193e-16 -0 3.56926e-16 1.42482e-31 -0 -0 -0 0)
(1 -2.33655e-16 -0 -1.8231e-16 4.25978e-32 0 -0 0 0)
(1 -7.59655e-17 -0 -1.93018e-18 1.46627e-34 0 -0 0 0)
(1 -6.82366e-17 -0 -3.26907e-17 2.2307e-33 0 -0 0 0)
(1 -9.92251e-18 -0 3.50232e-17 -3.47518e-34 -0 -0 0 0)
(1 4.83403e-17 -0 1.01941e-16 4.92784e-33 -0 -0 -0 0)
(1 1.58224e-16 -0 2.05258e-16 3.24767e-32 -0 -0 -0 0)
(1 2.59269e-16 -0 1.62454e-16 4.21192e-32 -0 -0 -0 0)
(1 1.59778e-16 -0 2.37337e-17 3.79213e-33 -0 -0 -0 0)
(1 1.15373e-17 -0 -7.4651e-17 -8.61271e-34 0 -0 -0 0)
(1 -5.36895e-17 -0 -7.28539e-17 3.91149e-33 0 -0 0 0)
(1 -3.49858e-17 -0 -1.04704e-17 3.66314e-34 0 -0 0 0)
(1 1.45767e-17 -0 -2.37475e-17 -3.46159e-34 0 -0 -0 0)
(1 -3.40851e-17 -0 -2.63255e-17 8.97306e-34 0 -0 0 0)
(1 -6.5469e-17 -0 2.34171e-17 -1.53309e-33 -0 -0 0 0)
(1 2.04339e-18 -0 3.83772e-17 7.84194e-35 -0 -0 -0 0)
(1 1.87278e-18 -0 2.07462e-18 3.88531e-36 -0 -0 -0 0)
(1 1.42525e-13 -0 1.42759e-13 2.03468e-26 -0 -0 -0 0)
(1 -3.11168e-14 -0 -3.11342e-14 9.68798e-28 0 -0 0 0)
(1 7.16215e-15 -0 7.20798e-15 5.16247e-29 -0 -0 -0 0)
(1 -1.62683e-15 -0 -1.6689e-15 2.71501e-30 0 -0 0 0)
(1 3.13153e-16 -0 2.59494e-16 8.12613e-32 -0 -0 -0 0)
(1 -6.53146e-17 -0 -5.64744e-17 3.6886e-33 0 -0 0 0)
(1 1.00187e-16 -0 1.91479e-16 1.91837e-32 -0 -0 -0 0)
(1 1.69419e-16 -0 1.99792e-16 3.38485e-32 -0 -0 -0 0)
(1 1.34852e-16 -0 9.69635e-17 1.30758e-32 -0 -0 -0 0)
(1 6.70888e-17 -0 2.24296e-17 1.50478e-33 -0 -0 -0 0)
(1 -1.10021e-17 -0 1.90384e-17 -2.09462e-34 -0 -0 0 0)
(1 3.68816e-17 -0 1.44982e-17 5.34717e-34 -0 -0 -0 0)
(1 8.93135e-17 -0 6.57917e-18 5.87609e-34 -0 -0 -0 0)
(1 1.12975e-16 -0 7.26992e-17 8.2132e-33 -0 -0 -0 0)
(1 1.33149e-16 -0 7.3471e-17 9.78258e-33 -0 -0 -0 0)
(1 1.97095e-17 -0 -6.33317e-17 -1.24824e-33 0 -0 -0 0)
(1 -6.13747e-17 -0 -2.56643e-17 1.57514e-33 0 -0 0 0)
(1 -6.14672e-19 -0 6.25426e-17 -3.84432e-35 -0 -0 0 0)
(1 7.42478e-17 -0 1.39821e-16 1.03814e-32 -0 -0 -0 0)
(1 1.07876e-16 -0 4.59613e-17 4.95811e-33 -0 -0 -0 0)
(1 -1.76544e-13 -0 -1.76754e-13 3.12049e-26 0 -0 0 0)
(1 3.85448e-14 -0 3.86719e-14 1.4906e-27 -0 -0 -0 0)
(1 -9.10705e-15 -0 -9.09257e-15 8.28065e-29 0 -0 0 0)
(1 1.9953e-15 -0 1.99093e-15 3.97251e-30 -0 -0 -0 0)
(1 -3.8865e-16 -0 -4.6386e-16 1.80279e-31 0 -0 0 0)
(1 1.70782e-16 -0 1.10095e-16 1.88023e-32 -0 -0 -0 0)
(1 1.40604e-16 -0 1.19783e-16 1.68421e-32 -0 -0 -0 0)
(1 1.67721e-16 -0 1.13809e-16 1.90883e-32 -0 -0 -0 0)
(1 1.2452e-16 -0 9.78176e-17 1.21803e-32 -0 -0 -0 0)
(1 9.23289e-17 -0 6.7316e-17 6.21521e-33 -0 -0 -0 0)
(1 5.88454e-17 -0 4.35336e-17 2.56175e-33 -0 -0 -0 0)
(1 -7.95015e-18 -0 -3.4546e-17 2.74646e-34 0 -0 0 0)
(1 -2.82872e-17 -0 -2.99786e-17 8.48012e-34 0 -0 0 0)
(1 2.94373e-17 -0 -4.30864e-17 -1.26835e-33 0 -0 -0 0)
(1 1.01143e-17 -0 -1.11273e-16 -1.12545e-33 0 -0 -0 0)
(1 -9.76919e-17 -0 -1.15176e-16 1.12517e-32 0 -0 0 0)
(1 -3.28393e-17 -0 3.23351e-17 -1.06186e-33 -0 -0 0 0)
(1 6.50286e-17 -0 7.53759e-17 4.90159e-33 -0 -0 -0 0)
(1 3.28298e-17 -0 3.57121e-17 1.17242e-33 -0 -0 -0 0)
(1 1.2071e-17 -0 1.74224e-17 2.10305e-34 -0 -0 -0 0)
(1 9.05418e-14 -0 9.04646e-14 8.19084e-27 -0 -0 -0 0)
(1 -2.00511e-14 -0 -2.00538e-14 4.02102e-28 0 -0 0 0)
(1 4.57714e-15 -0 4.57325e-15 2.09324e-29 -0 -0 -0 0)
(1 -1.17504e-15 -0 -1.17492e-15 1.38058e-30 0 -0 0 0)
(1 1.46447e-16 -0 1.14526e-16 1.6772e-32 -0 -0 -0 0)
(1 -1.11938e-16 -0 -1.34072e-16 1.50078e-32 0 -0 0 0)
(1 3.37259e-17 -0 -2.70117e-17 -9.10995e-34 0 -0 -0 0)
(1 -1.22387e-17 -0 -1.04089e-18 1.27391e-35 0 -0 0 0)
(1 3.64998e-17 -0 1.36137e-16 4.96899e-33 -0 -0 -0 0)
(1 1.83651e-16 -0 2.42414e-16 4.45197e-32 -0 -0 -0 0)
(1 2.48689e-16 -0 2.42449e-16 6.02944e-32 -0 -0 -0 0)
(1 1.77979e-16 -0 1.27023e-16 2.26075e-32 -0 -0 -0 0)
(1 6.8504e-17 -0 7.54708e-17 5.17005e-33 -0 -0 -0 0)
(1 1.05997e-16 -0 9.81738e-17 1.04061e-32 -0 -0 -0 0)
(1 1.1949e-16 -0 7.99135e-18 9.54887e-34 -0 -0 -0 0)
(1 2.1294e-18 -0 -5.85114e-17 -1.24594e-34 0 -0 -0 0)
(1 -1.15398e-17 -0 -5.2201e-17 6.02391e-34 0 -0 0 0)
(1 -8.13385e-18 -0 -3.88529e-17 3.16024e-34 0 -0 0 0)
(1 8.16067e-18 -0 -5.25148e-19 -4.28556e-36 0 -0 -0 0)
(1 1.02759e-18 -0 3.24035e-17 3.32976e-35 -0 -0 -0 0)
(1 6.00943e-14 -0 6.04515e-14 3.63279e-27 -0 -0 -0 0)
(1 -1.30312e-14 -0 -1.30205e-14 1.69673e-28 0 -0 0 0)
(1 2.96527e-15 -0 3.06045e-15 9.07503e-30 -0 -0 -0 0)
(1 -6.83938e-16 -0 -6.57855e-16 4.49932e-31 0 -0 0 0)
(1 2.08334e-16 -0 1.53435e-16 3.19656e-32 -0 -0 -0 0)
(1 2.79658e-17 -0 1.23871e-17 3.46415e-34 -0 -0 -0 0)
(1 1.08732e-16 -0 9.2013e-17 1.00048e-32 -0 -0 -0 0)
(1 9.4793e-17 -0 1.03163e-16 9.77917e-33 -0 -0 -0 0)
(1 7.94281e-17 -0 1.09521e-16 8.69901e-33 -0 -0 -0 0)
(1 6.19325e-17 -0 2.09783e-17 1.29924e-33 -0 -0 -0 0)
(1 -1.558e-17 -0 -5.50869e-17 8.58254e-34 0 -0 0 0)
(1 -3.35201e-17 -0 -2.58072e-17 8.65061e-34 0 -0 0 0)
(1 -2.58549e-17 -0 2.51792e-17 -6.51006e-34 -0 -0 0 0)
(1 7.4164e-17 -0 1.65698e-16 1.22888e-32 -0 -0 -0 0)
(1 1.92274e-16 -0 1.82751e-16 3.51383e-32 -0 -0 -0 0)
(1 1.58986e-16 -0 9.57266e-17 1.52192e-32 -0 -0 -0 0)
(1 5.85931e-17 -0 -4.47227e-17 -2.62044e-33 0 -0 -0 0)
(1 1.38113e-17 -0 -1.2648e-16 -1.74685e-33 0 -0 -0 0)
(1 -3.48982e-18 -0 -4.93531e-18 1.72233e-35 0 -0 0 0)
(1 3.67467e-17 -0 5.89582e-17 2.16652e-33 -0 -0 -0 0)
(1 -1.55676e-13 -0 -1.56087e-13 2.4299e-26 0 -0 0 0)
(1 3.33161e-14 -0 3.35562e-14 1.11796e-27 -0 -0 -0 0)
(1 -7.84738e-15 -0 -7.87844e-15 6.18251e-29 0 -0 0 0)
(1 1.65774e-15 -0 1.68531e-15 2.79381e-30 -0 -0 -0 0)
(1 -4.18105e-16 -0 -3.97474e-16 1.66186e-31 0 -0 0 0)
(1 5.99577e-17 -0 7.0404e-17 4.22126e-33 -0 -0 -0 0)
(1 -1.48231e-17 -0 -1.8031e-17 2.67274e-34 0 -0 0 0)
(1 1.16508e-16 -0 1.052e-16 1.22566e-32 -0 -0 -0 0)
(1 9.87115e-17 -0 8.18608e-17 8.08061e-33 -0 -0 -0 0)
(1 2.63862e-17 -0 1.7988e-17 4.74636e-34 -0 -0 -0 0)
(1 3.66554e-19 -0 1.89228e-17 6.93624e-36 -0 -0 -0 0)
(1 2.55424e-17 -0 1.10685e-16 2.82717e-33 -0 -0 -0 0)
(1 1.08175e-16 -0 1.88743e-16 2.04173e-32 -0 -0 -0 0)
(1 2.24846e-16 -0 1.38646e-16 3.1174e-32 -0 -0 -0 0)
(1 1.11686e-16 -0 7.86879e-18 8.78836e-34 -0 -0 -0 0)
(1 8.20758e-17 -0 9.17728e-17 7.53233e-33 -0 -0 -0 0)
(1 1.28848e-16 -0 3.43759e-17 4.42927e-33 -0 -0 -0 0)
(1 3.54634e-17 -0 -7.87272e-17 -2.79194e-33 0 -0 -0 0)
(1 -6.7098e-17 -0 -5.48227e-17 3.67849e-33 0 -0 0 0)
(1 -2.30748e-17 -0 1.52883e-18 -3.52774e-35 -0 -0 0 0)
(1 4.937e-14 -0 4.93251e-14 2.43518e-27 -0 -0 -0 0)
(1 -1.03027e-14 -0 -1.03123e-14 1.06245e-28 0 -0 0 0)
(1 2.45656e-15 -0 2.4454e-15 6.00729e-30 -0 -0 -0 0)
(1 -5.92114e-16 -0 -5.56778e-16 3.29676e-31 0 -0 0 0)
(1 4.06861e-17 -0 7.487e-17 3.04617e-33 -0 -0 -0 0)
(1 -6.2908e-17 -0 -3.57065e-17 2.24623e-33 0 -0 0 0)
(1 -3.16338e-17 -0 8.00288e-18 -2.53162e-34 -0 -0 0 0)
(1 8.1091e-17 -0 1.01289e-16 8.21359e-33 -0 -0 -0 0)
(1 6.24971e-17 -0 5.93897e-17 3.71169e-33 -0 -0 -0 0)
(1 4.34169e-17 -0 1.05028e-16 4.55996e-33 -0 -0 -0 0)
(1 1.35526e-16 -0 2.0526e-16 2.78182e-32 -0 -0 -0 0)
(1 1.69619e-16 -0 2.3865e-16 4.04794e-32 -0 -0 -0 0)
(1 2.06604e-16 -0 2.14075e-16 4.42288e-32 -0 -0 -0 0)
(1 2.01772e-16 -0 7.87866e-17 1.58969e-32 -0 -0 -0 0)
(1 9.4812e-17 -0 -1.42346e-17 -1.34961e-33 0 -0 -0 0)
(1 5.68804e-17 -0 3.47061e-17 1.9741e-33 -0 -0 -0 0)
(1 9.63518e-17 -0 7.41242e-17 7.14201e-33 -0 -0 -0 0)
(1 1.01823e-16 -0 8.8895e-17 9.05153e-33 -0 -0 -0 0)
(1 3.17865e-17 -0 3.77003e-17 1.19836e-33 -0 -0 -0 0)
(1 -9.3661e-18 -0 3.19222e-17 -2.98987e-34 -0 -0 0 0)
(1 1.16411e-13 -0 1.16781e-13 1.35946e-26 -0 -0 -0 0)
(1 -2.44457e-14 -0 -2.45174e-14 5.99343e-28 0 -0 0 0)
(1 5.98199e-15 -0 6.01867e-15 3.60037e-29 -0 -0 -0 0)
(1 -1.07363e-15 -0 -1.06772e-15 1.14633e-30 0 -0 0 0)
(1 4.49198e-16 -0 4.04692e-16 1.81787e-31 -0 -0 -0 0)
(1 8.87751e-17 -0 4.51549e-17 4.00863e-33 -0 -0 -0 0)
(1 8.84878e-17 -0 8.07568e-17 7.146e-33 -0 -0 -0 0)
(1 6.8685e-17 -0 4.72076e-17 3.24245e-33 -0 -0 -0 0)
(1 2.54138e-17 -0 -5.6174e-18 -1.4276e-34 0 -0 -0 0)
(1 -2.45455e-17 -0 -2.47113e-17 6.06551e-34 0 -0 0 0)
(1 -2.45384e-17 -0 -1.80231e-17 4.42258e-34 0 -0 0 0)
(1 -4.22329e-17 -0 -2.1492e-17 9.07669e-34 0 -0 0 0)
(1 -4.59687e-17 -0 -4.9541e-17 2.27734e-33 0 -0 0 0)
(1 -5.82273e-17 -0 -2.16575e-17 1.26106e-33 0 -0 0 0)
(1 5.83455e-17 -0 9.46945e-17 5.52499e-33 -0 -0 -0 0)
(1 9.45456e-17 -0 1.54904e-17 1.46455e-33 -0 -0 -0 0)
(1 2.38629e-17 -0 3.13202e-17 7.47392e-34 -0 -0 -0 0)
(1 7.29637e-17 -0 9.83173e-17 7.1736e-33 -0 -0 -0 0)
(1 1.04216e-16 -0 9.22823e-17 9.61732e-33 -0 -0 -0 0)
(1 4.26573e-17 -0 5.99077e-17 2.5555e-33 -0 -0 -0 0)
)
;

boundaryField
{
    movingWall
    {
        type            calculated;
        value           uniform (1 0 0 0 0 0 0 0 0);
    }
    fixedWalls
    {
        type            calculated;
        value           uniform (1 0 0 0 0 0 0 0 0);
    }
    frontAndBack
    {
        type            empty;
    }
}


// ************************************************************************* //
