/*--------------------------------*- C++ -*----------------------------------*\
| =========                 |                                                 |
| \\      /  F ield         | OpenFOAM: The Open Source CFD Toolbox           |
|  \\    /   O peration     | Version:  2312                                  |
|   \\  /    A nd           | Website:  www.openfoam.com                      |
|    \\/     M anipulation  |                                                 |
\*---------------------------------------------------------------------------*/
FoamFile
{
    version     2.0;
    format      ascii;
    arch        "LSB;label=32;scalar=64";
    class       volVectorField;
    location    "10";
    object      UMean;
}
// * * * * * * * * * * * * * * * * * * * * * * * * * * * * * * * * * * * * * //

dimensions      [0 1 -1 0 0 0 0];

internalField   nonuniform List<vector> 
400
(
(-0.750046 3.74567e-05 0)
(-0.750351 0.000169196 0)
(-0.750918 0.000254513 0)
(-0.751571 0.000297386 0)
(-0.752293 0.000336927 0)
(-0.7531 0.000389187 0)
(-0.754017 0.000457715 0)
(-0.755051 0.000531228 0)
(-0.756158 0.000570565 0)
(-0.757225 0.000535374 0)
(-0.758092 0.000404915 0)
(-0.758587 0.000186419 0)
(-0.758579 -0.000111168 0)
(-0.757957 -0.000427957 0)
(-0.756735 -0.000721223 0)
(-0.755053 -0.000914044 0)
(-0.753161 -0.000919092 0)
(-0.751358 -0.000670985 0)
(-0.75016 -0.000269892 0)
(-0.749873 6.58917e-05 0)
(-0.750209 0.000368026 0)
(-0.750818 0.000791092 0)
(-0.751651 0.00102212 0)
(-0.752582 0.00114209 0)
(-0.753587 0.001259 0)
(-0.754682 0.00140722 0)
(-0.755883 0.00156473 0)
(-0.75716 0.00167448 0)
(-0.758447 0.00166232 0)
(-0.759636 0.00146158 0)
(-0.760594 0.00103838 0)
(-0.761175 0.000398326 0)
(-0.76124 -0.000418394 0)
(-0.76069 -0.00132376 0)
(-0.759466 -0.00217654 0)
(-0.757629 -0.00277559 0)
(-0.755365 -0.00290117 0)
(-0.752977 -0.00235678 0)
(-0.750901 -0.00122635 0)
(-0.749998 -7.01188e-05 0)
(-0.750364 0.00102099 0)
(-0.751148 0.00163977 0)
(-0.75208 0.00197546 0)
(-0.753123 0.00218483 0)
(-0.754255 0.00239537 0)
(-0.755487 0.00264238 0)
(-0.756828 0.00288222 0)
(-0.758256 0.00302682 0)
(-0.759709 0.00296992 0)
(-0.76109 0.00261846 0)
(-0.762268 0.00191486 0)
(-0.763087 0.000845559 0)
(-0.763399 -0.000537459 0)
(-0.763098 -0.00211864 0)
(-0.762108 -0.00369949 0)
(-0.760371 -0.00497437 0)
(-0.757924 -0.00554015 0)
(-0.754979 -0.00496831 0)
(-0.751993 -0.00309739 0)
(-0.750146 -0.000723594 0)
(-0.750453 0.00182719 0)
(-0.751342 0.00257731 0)
(-0.752322 0.00298986 0)
(-0.753404 0.0032921 0)
(-0.754578 0.00360849 0)
(-0.755871 0.00396867 0)
(-0.757297 0.00431533 0)
(-0.758841 0.00452931 0)
(-0.760444 0.00446406 0)
(-0.761997 0.0039866 0)
(-0.763358 0.00301212 0)
(-0.764374 0.00152617 0)
(-0.764908 -0.00041182 0)
(-0.764858 -0.00265891 0)
(-0.764164 -0.00499238 0)
(-0.762739 -0.00709213 0)
(-0.760462 -0.00845451 0)
(-0.75729 -0.00836724 0)
(-0.753555 -0.00612163 0)
(-0.750509 -0.0019808 0)
(-0.750484 0.00271483 0)
(-0.751412 0.00356795 0)
(-0.752393 0.00403163 0)
(-0.75346 0.00441488 0)
(-0.754623 0.00484188 0)
(-0.755913 0.00533597 0)
(-0.757355 0.0058179 0)
(-0.758937 0.00613002 0)
(-0.76059 0.00607699 0)
(-0.762192 0.00548245 0)
(-0.763591 0.00424666 0)
(-0.764655 0.00237396 0)
(-0.765286 -5.04205e-05 0)
(-0.765421 -0.00286122 0)
(-0.764998 -0.00584456 0)
(-0.76398 -0.00873428 0)
(-0.762173 -0.0110777 0)
(-0.759266 -0.0120133 0)
(-0.755237 -0.0101571 0)
(-0.751258 -0.00445489 0)
(-0.750467 0.00361257 0)
(-0.751376 0.00455282 0)
(-0.752314 0.00505176 0)
(-0.753322 0.00550728 0)
(-0.754416 0.00604518 0)
(-0.75563 0.00668007 0)
(-0.756996 0.00730632 0)
(-0.758501 0.00772196 0)
(-0.760075 0.00767722 0)
(-0.761605 0.00696217 0)
(-0.762968 0.00548048 0)
(-0.764064 0.00325884 0)
(-0.764789 0.000415315 0)
(-0.765052 -0.00288224 0)
(-0.76481 -0.00639802 0)
(-0.764074 -0.00990173 0)
(-0.762745 -0.0131082 0)
(-0.760409 -0.015315 0)
(-0.756573 -0.0146869 0)
(-0.752056 -0.00819477 0)
(-0.750417 0.00446092 0)
(-0.751257 0.00548138 0)
(-0.752114 0.0060042 0)
(-0.753018 0.00651543 0)
(-0.753986 0.00714666 0)
(-0.755048 0.00790719 0)
(-0.756234 0.00866316 0)
(-0.757541 0.00917375 0)
(-0.758925 0.00914934 0)
(-0.760311 0.00836059 0)
(-0.761628 0.0067092 0)
(-0.762781 0.0042138 0)
(-0.763637 0.000982578 0)
(-0.764051 -0.00278793 0)
(-0.763967 -0.00681454 0)
(-0.763415 -0.0108148 0)
(-0.762408 -0.0146448 0)
(-0.760655 -0.0179792 0)
(-0.757322 -0.0190797 0)
(-0.752667 -0.0129668 0)
(-0.750346 0.00521069 0)
(-0.751079 0.00631216 0)
(-0.751821 0.0068467 0)
(-0.752585 0.00738814 0)
(-0.753379 0.00807706 0)
(-0.754221 0.00892282 0)
(-0.755131 0.00977453 0)
(-0.756134 0.0103807 0)
(-0.757226 0.0104196 0)
(-0.75839 0.00963743 0)
(-0.759604 0.00792634 0)
(-0.760786 0.00525947 0)
(-0.761767 0.00169998 0)
(-0.762382 -0.00253113 0)
(-0.762526 -0.00707012 0)
(-0.762214 -0.01154 0)
(-0.761489 -0.0158592 0)
(-0.760231 -0.0200425 0)
(-0.757512 -0.0229795 0)
(-0.753018 -0.0183219 0)
(-0.750263 0.00582841 0)
(-0.750863 0.00701281 0)
(-0.751469 0.00754715 0)
(-0.75207 0.00808792 0)
(-0.752657 0.00878711 0)
(-0.753231 0.00965943 0)
(-0.753807 0.0105557 0)
(-0.754425 0.0112369 0)
(-0.755121 0.0113787 0)
(-0.755938 0.0107177 0)
(-0.75692 0.00908862 0)
(-0.758019 0.00637817 0)
(-0.759093 0.00259781 0)
(-0.759931 -0.00202974 0)
(-0.76039 -0.00702219 0)
(-0.760455 -0.0119529 0)
(-0.760123 -0.0167268 0)
(-0.759362 -0.0215891 0)
(-0.757309 -0.026288 0)
(-0.753175 -0.0238188 0)
(-0.750178 0.00629623 0)
(-0.750633 0.00756512 0)
(-0.751092 0.00808806 0)
(-0.751521 0.00859449 0)
(-0.751893 0.00924882 0)
(-0.752188 0.0100775 0)
(-0.752411 0.0109589 0)
(-0.752602 0.0116742 0)
(-0.752829 0.0119281 0)
(-0.753174 0.0114412 0)
(-0.753729 0.0100154 0)
(-0.754545 0.00747302 0)
(-0.755574 0.0037028 0)
(-0.756609 -0.00112346 0)
(-0.7575 -0.00647804 0)
(-0.758111 -0.0118631 0)
(-0.758329 -0.0170911 0)
(-0.75816 -0.022591 0)
(-0.756835 -0.0289241 0)
(-0.753271 -0.0291883 0)
(-0.750099 0.00661235 0)
(-0.750412 0.00796493 0)
(-0.750726 0.00846558 0)
(-0.750991 0.00890709 0)
(-0.751161 0.00946677 0)
(-0.751199 0.0101843 0)
(-0.751099 0.0109737 0)
(-0.750885 0.0116488 0)
(-0.750631 0.0119636 0)
(-0.750441 0.0116582 0)
(-0.750448 0.0105181 0)
(-0.75076 0.0083268 0)
(-0.751501 0.0048525 0)
(-0.752658 0.000133548 0)
(-0.754015 -0.00536482 0)
(-0.755261 -0.0110906 0)
(-0.756151 -0.0167858 0)
(-0.756682 -0.022909 0)
(-0.756167 -0.0308306 0)
(-0.753374 -0.0342993 0)
(-0.750037 0.00679071 0)
(-0.750226 0.00822307 0)
(-0.750409 0.00869089 0)
(-0.750525 0.00904292 0)
(-0.750521 0.00946974 0)
(-0.750349 0.0100219 0)
(-0.749992 0.0106466 0)
(-0.74946 0.0111983 0)
(-0.748814 0.011481 0)
(-0.748156 0.0112813 0)
(-0.747624 0.0104013 0)
(-0.747379 0.00863517 0)
(-0.747642 0.00576608 0)
(-0.748625 0.00161947 0)
(-0.750269 -0.00366713 0)
(-0.752118 -0.00955145 0)
(-0.753715 -0.0157039 0)
(-0.754995 -0.0224393 0)
(-0.755368 -0.0319407 0)
(-0.753508 -0.0391118 0)
(-0.750004 0.00686454 0)
(-0.7501 0.00836134 0)
(-0.750172 0.00878409 0)
(-0.750162 0.00902789 0)
(-0.750012 0.00929887 0)
(-0.749681 0.00965716 0)
(-0.749144 0.0100753 0)
(-0.748407 0.0104473 0)
(-0.747514 0.0106237 0)
(-0.746558 0.0104379 0)
(-0.745667 0.00973048 0)
(-0.745013 0.00835041 0)
(-0.744821 0.0061176 0)
(-0.745404 0.00283581 0)
(-0.746913 -0.00172973 0)
(-0.749042 -0.00745471 0)
(-0.751226 -0.0138532 0)
(-0.753199 -0.0211338 0)
(-0.754511 -0.032193 0)
(-0.753688 -0.0436159 0)
(-0.750011 0.00689845 0)
(-0.750056 0.00841823 0)
(-0.750045 0.00877043 0)
(-0.749926 0.00888718 0)
(-0.749653 0.00899093 0)
(-0.749197 0.00915093 0)
(-0.74854 0.00935714 0)
(-0.747688 0.00953835 0)
(-0.74668 0.00958418 0)
(-0.745592 0.00936911 0)
(-0.744539 0.00877529 0)
(-0.743677 0.00770393 0)
(-0.743188 0.00604061 0)
(-0.743326 0.00356991 0)
(-0.744409 -2.83211e-05 0)
(-0.746396 -0.00510957 0)
(-0.748874 -0.0113761 0)
(-0.7514 -0.0190327 0)
(-0.753619 -0.0314552 0)
(-0.75391 -0.0476681 0)
(-0.750074 0.00689706 0)
(-0.750135 0.00840913 0)
(-0.750058 0.0086573 0)
(-0.749838 0.00862707 0)
(-0.749447 0.00856094 0)
(-0.748878 0.00853406 0)
(-0.748129 0.00854853 0)
(-0.74721 0.00855852 0)
(-0.746156 0.00848676 0)
(-0.745032 0.0082425 0)
(-0.743934 0.00774134 0)
(-0.742982 0.00691295 0)
(-0.742317 0.00567727 0)
(-0.742118 0.00387427 0)
(-0.742682 0.00117627 0)
(-0.744238 -0.00288402 0)
(-0.746684 -0.00854656 0)
(-0.74958 -0.0163006 0)
(-0.752491 -0.0295337 0)
(-0.754079 -0.0510756 0)
(-0.750225 0.00723665 0)
(-0.750344 0.00848504 0)
(-0.750221 0.00850019 0)
(-0.749897 0.00826897 0)
(-0.74938 0.00802169 0)
(-0.748692 0.00782177 0)
(-0.747846 0.00767386 0)
(-0.746864 0.00754534 0)
(-0.745777 0.00738217 0)
(-0.744639 0.00712053 0)
(-0.743525 0.00669802 0)
(-0.742525 0.00605857 0)
(-0.741749 0.00514313 0)
(-0.741324 0.00384516 0)
(-0.74147 0.00190038 0)
(-0.74247 -0.00114269 0)
(-0.744702 -0.00579411 0)
(-0.747431 -0.0133155 0)
(-0.750661 -0.0265072 0)
(-0.754004 -0.0541519 0)
(-0.750563 0.00677529 0)
(-0.750921 0.00795503 0)
(-0.75064 0.00791274 0)
(-0.750112 0.00761329 0)
(-0.74941 0.00727381 0)
(-0.748563 0.00696343 0)
(-0.747585 0.00670665 0)
(-0.746503 0.006487 0)
(-0.745347 0.00626722 0)
(-0.744159 0.00600207 0)
(-0.742995 0.00564545 0)
(-0.741922 0.00515326 0)
(-0.741033 0.00448694 0)
(-0.740431 0.00356967 0)
(-0.740292 0.00223085 0)
(-0.740773 4.32252e-05 0)
(-0.742709 -0.00342144 0)
(-0.744345 -0.0105824 0)
(-0.748194 -0.0230045 0)
(-0.753451 -0.05779 0)
(-0.751029 0.0109493 0)
(-0.751405 0.0105368 0)
(-0.750831 0.00914955 0)
(-0.750041 0.0079291 0)
(-0.749106 0.00705843 0)
(-0.748016 0.00641468 0)
(-0.746797 0.00593263 0)
(-0.745497 0.0055592 0)
(-0.744152 0.00524136 0)
(-0.742796 0.00493595 0)
(-0.741474 0.00460882 0)
(-0.740248 0.00423347 0)
(-0.739193 0.00377791 0)
(-0.738379 0.00318938 0)
(-0.737988 0.00237468 0)
(-0.737958 0.000923537 0)
(-0.739681 -0.00158204 0)
(-0.738885 -0.00796319 0)
(-0.746498 -0.0182534 0)
(-0.750923 -0.0606824 0)
(-0.751674 0.00409087 0)
(-0.752325 0.00251928 0)
(-0.750308 0.00260828 0)
(-0.748064 0.00329228 0)
(-0.74575 0.00345635 0)
(-0.743497 0.00333698 0)
(-0.741365 0.00319048 0)
(-0.739351 0.00307177 0)
(-0.737438 0.00296056 0)
(-0.735615 0.00283785 0)
(-0.733887 0.00269592 0)
(-0.732273 0.00252746 0)
(-0.730815 0.00232307 0)
(-0.729517 0.0020419 0)
(-0.728603 0.00165743 0)
(-0.727661 0.000857101 0)
(-0.729295 -0.000260621 0)
(-0.726129 -0.00420738 0)
(-0.744144 -0.00948408 0)
(-0.735564 -0.0530113 0)
(-0.740021 0.0229821 0)
(-0.734804 0.0168105 0)
(-0.728717 0.0103044 0)
(-0.723568 0.00673262 0)
(-0.71966 0.00488712 0)
(-0.716407 0.00381689 0)
(-0.713463 0.00311779 0)
(-0.71074 0.00262528 0)
(-0.708219 0.00225759 0)
(-0.705874 0.00197292 0)
(-0.70369 0.00174304 0)
(-0.70166 0.00154951 0)
(-0.699808 0.00137942 0)
(-0.698119 0.00121742 0)
(-0.696826 0.00104199 0)
(-0.695382 0.000797576 0)
(-0.696729 0.000506072 0)
(-0.691173 -0.000549874 0)
(-0.721056 0.00141923 0)
(-0.659387 -0.023964 0)
)
;

boundaryField
{
    movingWall
    {
        type            calculated;
        value           uniform (-0.5 0 0);
    }
    fixedWalls
    {
        type            calculated;
        value           uniform (-0.75 0 0);
    }
    frontAndBack
    {
        type            empty;
    }
}


// ************************************************************************* //
