/*--------------------------------*- C++ -*----------------------------------*\
| =========                 |                                                 |
| \\      /  F ield         | OpenFOAM: The Open Source CFD Toolbox           |
|  \\    /   O peration     | Version:  2312                                  |
|   \\  /    A nd           | Website:  www.openfoam.com                      |
|    \\/     M anipulation  |                                                 |
\*---------------------------------------------------------------------------*/
FoamFile
{
    version     2.0;
    format      ascii;
    arch        "LSB;label=32;scalar=64";
    class       volVectorField;
    location    "10";
    object      UNear;
}
// * * * * * * * * * * * * * * * * * * * * * * * * * * * * * * * * * * * * * //

dimensions      [0 1 -1 0 0 0 0];

internalField   nonuniform List<vector> 
400
(
(-1 1.74481e-13 0)
(-1 -3.7598e-14 0)
(-1 8.92361e-15 0)
(-1 -1.8655e-15 0)
(-1 5.2902e-16 0)
(-1 1.30753e-16 0)
(-1 2.05511e-16 0)
(-1 1.44322e-16 0)
(-1 1.55659e-16 0)
(-1 7.95465e-17 0)
(-1 -2.77614e-17 0)
(-1 7.89013e-17 0)
(-1 1.85679e-16 0)
(-1 1.22385e-16 0)
(-1 -2.76334e-17 0)
(-1 -7.35553e-17 0)
(-1 2.44383e-17 0)
(-1 7.89375e-17 0)
(-1 6.50179e-17 0)
(-1 -1.18652e-17 0)
(-1 1.0055e-14 0)
(-1 -2.06739e-15 0)
(-1 4.99637e-16 0)
(-1 -1.82676e-16 0)
(-1 -1.54296e-17 0)
(-1 7.63203e-17 0)
(-1 1.98864e-16 0)
(-1 2.18037e-16 0)
(-1 2.64664e-16 0)
(-1 2.13979e-16 0)
(-1 3.05819e-17 0)
(-1 9.48052e-18 0)
(-1 5.20621e-17 0)
(-1 1.13842e-16 0)
(-1 1.30977e-16 0)
(-1 1.19316e-16 0)
(-1 5.50847e-17 0)
(-1 2.70573e-17 0)
(-1 -6.28008e-17 0)
(-1 -8.39336e-17 0)
(-1 -1.58795e-13 0)
(-1 3.49214e-14 0)
(-1 -8.24229e-15 0)
(-1 1.80164e-15 0)
(-1 -4.48705e-16 0)
(-1 6.18987e-18 0)
(-1 6.68618e-17 0)
(-1 2.36927e-16 0)
(-1 2.45936e-16 0)
(-1 1.91076e-16 0)
(-1 1.46298e-16 0)
(-1 1.27639e-16 0)
(-1 1.18842e-16 0)
(-1 2.21944e-16 0)
(-1 2.70274e-16 0)
(-1 1.78333e-16 0)
(-1 1.08434e-17 0)
(-1 -4.28251e-17 0)
(-1 -1.59202e-16 0)
(-1 -1.4572e-16 0)
(-1 1.11144e-13 0)
(-1 -2.45076e-14 0)
(-1 5.43127e-15 0)
(-1 -1.4262e-15 0)
(-1 2.04053e-16 0)
(-1 -1.22371e-16 0)
(-1 8.5547e-17 0)
(-1 1.61964e-16 0)
(-1 1.71233e-16 0)
(-1 1.17125e-16 0)
(-1 1.64222e-16 0)
(-1 1.96471e-16 0)
(-1 1.87092e-16 0)
(-1 1.6141e-16 0)
(-1 8.96256e-17 0)
(-1 4.83848e-17 0)
(-1 3.06485e-17 0)
(-1 4.99192e-17 0)
(-1 -1.34227e-17 0)
(-1 -8.83289e-17 0)
(-1 1.81525e-14 0)
(-1 -4.79947e-15 0)
(-1 9.62386e-16 0)
(-1 -2.99128e-16 0)
(-1 1.63398e-16 0)
(-1 -1.36959e-17 0)
(-1 -2.39844e-17 0)
(-1 -3.40154e-17 0)
(-1 4.92094e-17 0)
(-1 2.3122e-16 0)
(-1 3.61991e-16 0)
(-1 1.99931e-16 0)
(-1 3.93301e-17 0)
(-1 -3.65841e-17 0)
(-1 -2.40132e-17 0)
(-1 3.65124e-17 0)
(-1 2.32208e-17 0)
(-1 -3.56658e-17 0)
(-1 -4.74874e-19 0)
(-1 7.4255e-18 0)
(-1 -1.39668e-13 0)
(-1 3.06482e-14 0)
(-1 -7.11693e-15 0)
(-1 1.72981e-15 0)
(-1 -1.95575e-16 0)
(-1 1.7367e-16 0)
(-1 -5.7406e-17 0)
(-1 -6.41859e-17 0)
(-1 -3.1519e-17 0)
(-1 7.61187e-17 0)
(-1 1.82544e-16 0)
(-1 1.3966e-16 0)
(-1 -1.19706e-17 0)
(-1 -6.72688e-17 0)
(-1 -9.13913e-18 0)
(-1 1.33396e-17 0)
(-1 -1.46676e-17 0)
(-1 -3.95652e-17 0)
(-1 3.48321e-17 0)
(-1 7.94682e-17 0)
(-1 1.59086e-13 0)
(-1 -3.49208e-14 0)
(-1 8.142e-15 0)
(-1 -1.72744e-15 0)
(-1 4.9089e-16 0)
(-1 -7.31247e-17 0)
(-1 -4.685e-17 0)
(-1 -5.07659e-17 0)
(-1 -2.51111e-17 0)
(-1 -9.45873e-17 0)
(-1 -1.41973e-16 0)
(-1 3.22216e-17 0)
(-1 6.56243e-17 0)
(-1 4.35429e-17 0)
(-1 8.95735e-17 0)
(-1 1.52997e-16 0)
(-1 5.57786e-17 0)
(-1 4.87553e-17 0)
(-1 1.36986e-16 0)
(-1 1.07545e-16 0)
(-1 -3.76106e-14 0)
(-1 7.2112e-15 0)
(-1 -1.70459e-15 0)
(-1 4.24102e-16 0)
(-1 -2.58245e-17 0)
(-1 4.84847e-17 0)
(-1 -8.65396e-17 0)
(-1 -9.75061e-17 0)
(-1 -7.99838e-17 0)
(-1 -6.57454e-17 0)
(-1 -6.86129e-17 0)
(-1 -5.20871e-18 0)
(-1 5.98245e-17 0)
(-1 6.34927e-17 0)
(-1 5.73926e-17 0)
(-1 1.37023e-16 0)
(-1 1.14208e-16 0)
(-1 2.2166e-18 0)
(-1 5.21929e-17 0)
(-1 6.72695e-17 0)
(-1 -1.05014e-13 0)
(-1 2.33853e-14 0)
(-1 -5.50999e-15 0)
(-1 1.15368e-15 0)
(-1 -4.30538e-16 0)
(-1 -8.56658e-18 0)
(-1 -7.24107e-17 0)
(-1 -1.12723e-16 0)
(-1 -7.58345e-17 0)
(-1 7.02573e-17 0)
(-1 1.34883e-16 0)
(-1 -3.23177e-17 0)
(-1 -3.8172e-17 0)
(-1 1.05331e-16 0)
(-1 2.30335e-18 0)
(-1 -7.62935e-17 0)
(-1 1.45168e-17 0)
(-1 1.42376e-17 0)
(-1 -3.69909e-17 0)
(-1 4.3685e-18 0)
(-1 1.86635e-13 0)
(-1 -4.09591e-14 0)
(-1 9.43749e-15 0)
(-1 -2.2472e-15 0)
(-1 3.34497e-16 0)
(-1 -2.24658e-16 0)
(-1 -2.36185e-17 0)
(-1 -1.30832e-16 0)
(-1 -1.6437e-16 0)
(-1 -4.67051e-17 0)
(-1 7.54611e-17 0)
(-1 8.47354e-17 0)
(-1 1.65726e-16 0)
(-1 2.45752e-16 0)
(-1 1.7482e-16 0)
(-1 9.74197e-19 0)
(-1 3.0106e-18 0)
(-1 2.51717e-17 0)
(-1 -2.19282e-17 0)
(-1 2.76806e-17 0)
(-1 -1.74546e-13 0)
(-1 3.77518e-14 0)
(-1 -9.15462e-15 0)
(-1 1.57537e-15 0)
(-1 -7.91814e-16 0)
(-1 -5.09279e-17 0)
(-1 8.09532e-19 0)
(-1 3.04846e-17 0)
(-1 7.77693e-18 0)
(-1 6.62349e-17 0)
(-1 5.77697e-17 0)
(-1 6.88985e-17 0)
(-1 2.93114e-17 0)
(-1 -7.43151e-17 0)
(-1 -8.52421e-18 0)
(-1 -2.39083e-17 0)
(-1 -9.34282e-18 0)
(-1 -2.34984e-17 0)
(-1 -5.5872e-17 0)
(-1 4.13271e-17 0)
(-1 8.78634e-14 0)
(-1 -1.8697e-14 0)
(-1 4.41844e-15 0)
(-1 -1.07814e-15 0)
(-1 3.1288e-17 0)
(-1 -1.17665e-16 0)
(-1 6.05168e-17 0)
(-1 1.2813e-16 0)
(-1 1.39633e-16 0)
(-1 1.08586e-16 0)
(-1 5.34553e-17 0)
(-1 7.94246e-17 0)
(-1 3.62383e-17 0)
(-1 2.77661e-17 0)
(-1 -1.40523e-18 0)
(-1 -1.30973e-16 0)
(-1 -1.17578e-16 0)
(-1 -4.18792e-17 0)
(-1 3.18852e-17 0)
(-1 3.02187e-17 0)
(-1 3.94351e-14 0)
(-1 -8.49378e-15 0)
(-1 2.05457e-15 0)
(-1 -3.56926e-16 0)
(-1 1.8231e-16 0)
(-1 1.93018e-18 0)
(-1 3.26907e-17 0)
(-1 -3.50232e-17 0)
(-1 -1.01941e-16 0)
(-1 -2.05258e-16 0)
(-1 -1.62454e-16 0)
(-1 -2.37337e-17 0)
(-1 7.4651e-17 0)
(-1 7.28539e-17 0)
(-1 1.04704e-17 0)
(-1 2.37475e-17 0)
(-1 2.63255e-17 0)
(-1 -2.34171e-17 0)
(-1 -3.83772e-17 0)
(-1 -2.07462e-18 0)
(-1 -1.42759e-13 0)
(-1 3.11342e-14 0)
(-1 -7.20798e-15 0)
(-1 1.6689e-15 0)
(-1 -2.59494e-16 0)
(-1 5.64744e-17 0)
(-1 -1.91479e-16 0)
(-1 -1.99792e-16 0)
(-1 -9.69635e-17 0)
(-1 -2.24296e-17 0)
(-1 -1.90384e-17 0)
(-1 -1.44982e-17 0)
(-1 -6.57917e-18 0)
(-1 -7.26992e-17 0)
(-1 -7.3471e-17 0)
(-1 6.33317e-17 0)
(-1 2.56643e-17 0)
(-1 -6.25426e-17 0)
(-1 -1.39821e-16 0)
(-1 -4.59613e-17 0)
(-1 1.76754e-13 0)
(-1 -3.86719e-14 0)
(-1 9.09257e-15 0)
(-1 -1.99093e-15 0)
(-1 4.6386e-16 0)
(-1 -1.10095e-16 0)
(-1 -1.19783e-16 0)
(-1 -1.13809e-16 0)
(-1 -9.78176e-17 0)
(-1 -6.7316e-17 0)
(-1 -4.35336e-17 0)
(-1 3.4546e-17 0)
(-1 2.99786e-17 0)
(-1 4.30864e-17 0)
(-1 1.11273e-16 0)
(-1 1.15176e-16 0)
(-1 -3.23351e-17 0)
(-1 -7.53759e-17 0)
(-1 -3.57121e-17 0)
(-1 -1.74224e-17 0)
(-1 -9.04646e-14 0)
(-1 2.00538e-14 0)
(-1 -4.57325e-15 0)
(-1 1.17492e-15 0)
(-1 -1.14526e-16 0)
(-1 1.34072e-16 0)
(-1 2.70117e-17 0)
(-1 1.04089e-18 0)
(-1 -1.36137e-16 0)
(-1 -2.42414e-16 0)
(-1 -2.42449e-16 0)
(-1 -1.27023e-16 0)
(-1 -7.54708e-17 0)
(-1 -9.81738e-17 0)
(-1 -7.99135e-18 0)
(-1 5.85114e-17 0)
(-1 5.2201e-17 0)
(-1 3.88529e-17 0)
(-1 5.25148e-19 0)
(-1 -3.24035e-17 0)
(-1 -6.04515e-14 0)
(-1 1.30205e-14 0)
(-1 -3.06045e-15 0)
(-1 6.57855e-16 0)
(-1 -1.53435e-16 0)
(-1 -1.23871e-17 0)
(-1 -9.2013e-17 0)
(-1 -1.03163e-16 0)
(-1 -1.09521e-16 0)
(-1 -2.09783e-17 0)
(-1 5.50869e-17 0)
(-1 2.58072e-17 0)
(-1 -2.51792e-17 0)
(-1 -1.65698e-16 0)
(-1 -1.82751e-16 0)
(-1 -9.57266e-17 0)
(-1 4.47227e-17 0)
(-1 1.2648e-16 0)
(-1 4.93531e-18 0)
(-1 -5.89582e-17 0)
(-1 1.56087e-13 0)
(-1 -3.35562e-14 0)
(-1 7.87844e-15 0)
(-1 -1.68531e-15 0)
(-1 3.97474e-16 0)
(-1 -7.0404e-17 0)
(-1 1.8031e-17 0)
(-1 -1.052e-16 0)
(-1 -8.18608e-17 0)
(-1 -1.7988e-17 0)
(-1 -1.89228e-17 0)
(-1 -1.10685e-16 0)
(-1 -1.88743e-16 0)
(-1 -1.38646e-16 0)
(-1 -7.86879e-18 0)
(-1 -9.17728e-17 0)
(-1 -3.43759e-17 0)
(-1 7.87272e-17 0)
(-1 5.48227e-17 0)
(-1 -1.52883e-18 0)
(-1 -4.93251e-14 0)
(-1 1.03123e-14 0)
(-1 -2.4454e-15 0)
(-1 5.56778e-16 0)
(-1 -7.487e-17 0)
(-1 3.57065e-17 0)
(-1 -8.00288e-18 0)
(-1 -1.01289e-16 0)
(-1 -5.93897e-17 0)
(-1 -1.05028e-16 0)
(-1 -2.0526e-16 0)
(-1 -2.3865e-16 0)
(-1 -2.14075e-16 0)
(-1 -7.87866e-17 0)
(-1 1.42346e-17 0)
(-1 -3.47061e-17 0)
(-1 -7.41242e-17 0)
(-1 -8.8895e-17 0)
(-1 -3.77003e-17 0)
(-1 -3.19222e-17 0)
(-1 -1.16781e-13 0)
(-1 2.45174e-14 0)
(-1 -6.01867e-15 0)
(-1 1.06772e-15 0)
(-1 -4.04692e-16 0)
(-1 -4.51549e-17 0)
(-1 -8.07568e-17 0)
(-1 -4.72076e-17 0)
(-1 5.6174e-18 0)
(-1 2.47113e-17 0)
(-1 1.80231e-17 0)
(-1 2.1492e-17 0)
(-1 4.9541e-17 0)
(-1 2.16575e-17 0)
(-1 -9.46945e-17 0)
(-1 -1.54904e-17 0)
(-1 -3.13202e-17 0)
(-1 -9.83173e-17 0)
(-1 -9.22823e-17 0)
(-1 -5.99077e-17 0)
)
;

boundaryField
{
    movingWall
    {
        type            fixedValue;
        value           uniform (-1 -0 -0);
    }
    fixedWalls
    {
        type            calculated;
        value           nonuniform List<vector> 
60
(
(-1 6.97924e-14 0)
(-1 4.022e-15 0)
(-1 -6.35181e-14 0)
(-1 4.44578e-14 0)
(-1 7.26101e-15 0)
(-1 -5.5867e-14 0)
(-1 6.36343e-14 0)
(-1 -1.50442e-14 0)
(-1 -4.20057e-14 0)
(-1 7.4654e-14 0)
(-1 -6.98184e-14 0)
(-1 3.51453e-14 0)
(-1 1.57741e-14 0)
(-1 -5.71038e-14 0)
(-1 7.07018e-14 0)
(-1 -3.61859e-14 0)
(-1 -2.41806e-14 0)
(-1 6.24349e-14 0)
(-1 -1.973e-14 0)
(-1 -4.67123e-14 0)
(-1 -4.74607e-18 0)
(-1 -3.35734e-17 0)
(-1 -5.8288e-17 0)
(-1 -3.53316e-17 0)
(-1 2.9702e-18 0)
(-1 3.17873e-17 0)
(-1 4.30179e-17 0)
(-1 2.69078e-17 0)
(-1 1.7474e-18 0)
(-1 1.10722e-17 0)
(-1 1.65308e-17 0)
(-1 1.20875e-17 0)
(-1 -8.2985e-19 0)
(-1 -1.83845e-17 0)
(-1 -6.96897e-18 0)
(-1 -1.29614e-17 0)
(-1 -2.35833e-17 0)
(-1 -6.11531e-19 0)
(-1 -1.27689e-17 0)
(-1 -2.39631e-17 0)
(-1 6.97924e-14 0)
(-1 -1.50392e-14 0)
(-1 3.56944e-15 0)
(-1 -7.46202e-16 0)
(-1 2.11608e-16 0)
(-1 5.23014e-17 0)
(-1 8.22044e-17 0)
(-1 5.77287e-17 0)
(-1 6.22637e-17 0)
(-1 3.18186e-17 0)
(-1 -1.11046e-17 0)
(-1 3.15605e-17 0)
(-1 7.42716e-17 0)
(-1 4.89541e-17 0)
(-1 -1.10534e-17 0)
(-1 -2.94221e-17 0)
(-1 9.77533e-18 0)
(-1 3.1575e-17 0)
(-1 2.60072e-17 0)
(-1 -4.74607e-18 0)
)
;
    }
    frontAndBack
    {
        type            empty;
    }
}


// ************************************************************************* //
