/*--------------------------------*- C++ -*----------------------------------*\
| =========                 |                                                 |
| \\      /  F ield         | OpenFOAM: The Open Source CFD Toolbox           |
|  \\    /   O peration     | Version:  2312                                  |
|   \\  /    A nd           | Website:  www.openfoam.com                      |
|    \\/     M anipulation  |                                                 |
\*---------------------------------------------------------------------------*/
FoamFile
{
    version     2.0;
    format      ascii;
    arch        "LSB;label=32;scalar=64";
    class       volSymmTensorField;
    location    "10";
    object      UPrime2Mean;
}
// * * * * * * * * * * * * * * * * * * * * * * * * * * * * * * * * * * * * * //

dimensions      [0 2 -2 0 0 0 0];

internalField   nonuniform List<symmTensor> 
400
(
(0.187432 2.79217e-05 0 1.1663e-08 0 0)
(0.186973 0.000126697 0 1.13017e-07 0 0)
(0.186127 0.000189942 0 2.57745e-07 0 0)
(0.185153 0.000221117 0 3.57966e-07 0 0)
(0.184083 0.000249359 0 4.90843e-07 0 0)
(0.182893 0.000286283 0 7.50409e-07 0 0)
(0.18155 0.000333838 0 1.25618e-06 0 0)
(0.180051 0.000382854 0 2.0824e-06 0 0)
(0.178469 0.000405097 0 2.80074e-06 0 0)
(0.176965 0.000374005 0 2.74056e-06 0 0)
(0.175763 0.000278409 0 1.75386e-06 0 0)
(0.175087 0.000125409 0 5.3353e-07 0 0)
(0.17511 -8.06769e-05 0 9.74828e-08 0 0)
(0.175983 -0.000301237 0 1.03434e-06 0 0)
(0.177698 -0.000510483 0 3.20949e-06 0 0)
(0.180089 -0.00065572 0 5.42032e-06 0 0)
(0.182822 -0.000670715 0 5.58769e-06 0 0)
(0.185472 -0.000498099 0 2.8161e-06 0 0)
(0.18726 -0.00020235 0 3.28252e-07 0 0)
(0.187691 4.96596e-05 0 1.52863e-07 0 0)
(0.187189 0.000275551 0 5.42456e-07 0 0)
(0.186277 0.000590486 0 2.74676e-06 0 0)
(0.185038 0.000758815 0 4.72137e-06 0 0)
(0.183659 0.000842579 0 6.06377e-06 0 0)
(0.182184 0.000921737 0 7.90468e-06 0 0)
(0.18059 0.00101996 0 1.12803e-05 0 0)
(0.178864 0.00111911 0 1.6418e-05 0 0)
(0.177053 0.00117807 0 2.16804e-05 0 0)
(0.17526 0.00114834 0 2.372e-05 0 0)
(0.173631 0.000991138 0 1.99573e-05 0 0)
(0.172341 0.000690861 0 1.14463e-05 0 0)
(0.171571 0.000254715 0 3.00395e-06 0 0)
(0.171499 -0.000293556 0 1.05155e-06 0 0)
(0.172259 -0.000903897 0 1.05234e-05 0 0)
(0.173936 -0.00149297 0 3.11129e-05 0 0)
(0.17648 -0.00193196 0 5.34791e-05 0 0)
(0.179667 -0.00206198 0 6.0871e-05 0 0)
(0.183101 -0.00171622 0 4.0069e-05 0 0)
(0.186153 -0.000913112 0 9.11224e-06 0 0)
(0.187503 -5.2175e-05 0 6.45724e-07 0 0)
(0.186957 0.000763613 0 4.52616e-06 0 0)
(0.185785 0.00122094 0 1.26657e-05 0 0)
(0.184403 0.00146123 0 1.89768e-05 0 0)
(0.182867 0.0016037 0 2.40133e-05 0 0)
(0.181215 0.00174143 0 3.11343e-05 0 0)
(0.179438 0.00189715 0 4.29262e-05 0 0)
(0.177532 0.00203675 0 5.8521e-05 0 0)
(0.175534 0.00209927 0 7.20987e-05 0 0)
(0.173536 0.00201897 0 7.49552e-05 0 0)
(0.171668 0.00174502 0 6.18756e-05 0 0)
(0.170099 0.00125084 0 3.62933e-05 0 0)
(0.169019 0.000533623 0 1.04573e-05 0 0)
(0.168616 -0.000376401 0 2.00729e-06 0 0)
(0.169029 -0.00141645 0 2.65789e-05 0 0)
(0.17037 -0.00247337 0 8.91437e-05 0 0)
(0.172734 -0.00336333 0 0.000172153 0 0)
(0.176105 -0.00382204 0 0.000227079 0 0)
(0.180244 -0.00352525 0 0.000192357 0 0)
(0.184549 -0.0022701 0 7.31528e-05 0 0)
(0.187281 -0.00054182 0 2.74145e-06 0 0)
(0.186823 0.00136586 0 1.53385e-05 0 0)
(0.185497 0.00191588 0 3.24706e-05 0 0)
(0.184045 0.00220662 0 4.52369e-05 0 0)
(0.182458 0.00240932 0 5.71854e-05 0 0)
(0.18075 0.00261328 0 7.43249e-05 0 0)
(0.178893 0.00283553 0 0.000100635 0 0)
(0.176874 0.00303196 0 0.000133064 0 0)
(0.174723 0.00312235 0 0.000158912 0 0)
(0.172525 0.00301793 0 0.000161532 0 0)
(0.170424 0.00264602 0 0.000132327 0 0)
(0.1686 0.00196519 0 7.91058e-05 0 0)
(0.16725 0.000972799 0 2.53479e-05 0 0)
(0.166543 -0.00029631 0 2.66098e-06 0 0)
(0.166614 -0.00176361 0 4.04357e-05 0 0)
(0.167551 -0.00330305 0 0.00015282 0 0)
(0.169485 -0.00472498 0 0.000326126 0 0)
(0.172601 -0.00571643 0 0.000495302 0 0)
(0.176999 -0.00579942 0 0.000527418 0 0)
(0.182296 -0.00439455 0 0.000305892 0 0)
(0.186742 -0.00147416 0 2.87186e-05 0 0)
(0.186776 0.00202884 0 3.51017e-05 0 0)
(0.185393 0.00265056 0 6.36232e-05 0 0)
(0.18394 0.00297331 0 8.40946e-05 0 0)
(0.182374 0.00322871 0 0.000105552 0 0)
(0.180684 0.00350423 0 0.00013718 0 0)
(0.178831 0.00381123 0 0.000184107 0 0)
(0.176785 0.00409015 0 0.000238862 0 0)
(0.174573 0.00423578 0 0.000279095 0 0)
(0.172289 0.00412856 0 0.00027878 0 0)
(0.1701 0.00366831 0 0.000226874 0 0)
(0.168202 0.00280344 0 0.000138368 0 0)
(0.166768 0.00154249 0 4.97582e-05 0 0)
(0.165922 -6.17366e-05 0 5.39459e-06 0 0)
(0.165744 -0.00191256 0 4.58385e-05 0 0)
(0.16632 -0.00388825 0 0.000194725 0 0)
(0.167709 -0.00583096 0 0.00045097 0 0)
(0.17019 -0.00746303 0 0.000767211 0 0)
(0.174216 -0.00823763 0 0.000988137 0 0)
(0.179888 -0.00718027 0 0.000804327 0 0)
(0.185638 -0.0032757 0 0.000180581 0 0)
(0.186798 0.00270045 0 6.3418e-05 0 0)
(0.185446 0.00338308 0 0.000104564 0 0)
(0.184055 0.0037284 0 0.000133093 0 0)
(0.182575 0.00403316 0 0.000165747 0 0)
(0.180979 0.00438547 0 0.000214921 0 0)
(0.179225 0.00479028 0 0.000285925 0 0)
(0.177275 0.0051694 0 0.000364997 0 0)
(0.17515 0.00538652 0 0.00041876 0 0)
(0.172948 0.00528315 0 0.000411822 0 0)
(0.170827 0.00473282 0 0.000333744 0 0)
(0.168954 0.0036831 0 0.000209162 0 0)
(0.167463 0.00215917 0 8.55689e-05 0 0)
(0.166489 0.000242047 0 1.71097e-05 0 0)
(0.166146 -0.00196317 0 5.22508e-05 0 0)
(0.166487 -0.0043174 0 0.000222423 0 0)
(0.167499 -0.00668627 0 0.000534457 0 0)
(0.169327 -0.00890093 0 0.000970222 0 0)
(0.172567 -0.010523 0 0.00143152 0 0)
(0.177965 -0.0103307 0 0.00151981 0 0)
(0.184466 -0.00597883 0 0.000597907 0 0)
(0.186871 0.00333616 0 9.72314e-05 0 0)
(0.185623 0.00407732 0 0.000151232 0 0)
(0.18435 0.00443994 0 0.000187169 0 0)
(0.183017 0.00478643 0 0.000230569 0 0)
(0.181597 0.00520992 0 0.000296638 0 0)
(0.180053 0.0057125 0 0.000390531 0 0)
(0.178341 0.0061955 0 0.000491525 0 0)
(0.17647 0.00649182 0 0.000556631 0 0)
(0.174506 0.00640826 0 0.00054414 0 0)
(0.172555 0.00579711 0 0.000445928 0 0)
(0.170722 0.00460147 0 0.000292973 0 0)
(0.169137 0.00284639 0 0.000138488 0 0)
(0.167983 0.00061584 0 4.44676e-05 0 0)
(0.167446 -0.00195575 0 6.94235e-05 0 0)
(0.16759 -0.00468969 0 0.000251999 0 0)
(0.168366 -0.00741737 0 0.000600514 0 0)
(0.169753 -0.0100693 0 0.00111361 0 0)
(0.172176 -0.0124631 0 0.00177207 0 0)
(0.176869 -0.0134647 0 0.00227533 0 0)
(0.183566 -0.00944213 0 0.00135773 0 0)
(0.186978 0.00389981 0 0.000131628 0 0)
(0.185887 0.00470271 0 0.00019803 0 0)
(0.184782 0.00507709 0 0.000239578 0 0)
(0.18365 0.00545118 0 0.000290746 0 0)
(0.18248 0.00592685 0 0.000368775 0 0)
(0.181245 0.00650816 0 0.000478802 0 0)
(0.179915 0.00708398 0 0.000595402 0 0)
(0.178459 0.00747266 0 0.000672097 0 0)
(0.176885 0.00744706 0 0.000661858 0 0)
(0.175221 0.00683204 0 0.000555667 0 0)
(0.173505 0.00556035 0 0.000387156 0 0)
(0.17186 0.00362954 0 0.000209711 0 0)
(0.170523 0.00110318 0 9.09619e-05 0 0)
(0.169716 -0.00185311 0 0.000101412 0 0)
(0.169565 -0.00498782 0 0.000286876 0 0)
(0.170031 -0.00806265 0 0.000657844 0 0)
(0.171039 -0.01106 0 0.00122216 0 0)
(0.17276 -0.0140439 0 0.00201478 0 0)
(0.176575 -0.0163322 0 0.00294187 0 0)
(0.183047 -0.0133682 0 0.00239663 0 0)
(0.187102 0.00436548 0 0.000161339 0 0)
(0.186208 0.00523471 0 0.000239026 0 0)
(0.185303 0.0056147 0 0.000283744 0 0)
(0.18441 0.005997 0 0.000338005 0 0)
(0.183539 0.00649468 0 0.000420113 0 0)
(0.182691 0.00711857 0 0.000535361 0 0)
(0.181841 0.00775796 0 0.000657861 0 0)
(0.180935 0.00823414 0 0.00074337 0 0)
(0.179918 0.0083056 0 0.000743848 0 0)
(0.178734 0.00777798 0 0.000648441 0 0)
(0.177325 0.00653435 0 0.000483061 0 0)
(0.17577 0.00450994 0 0.000294259 0 0)
(0.174283 0.00173988 0 0.000155168 0 0)
(0.17316 -0.00158686 0 0.000146135 0 0)
(0.172578 -0.00510764 0 0.000318749 0 0)
(0.172526 -0.00853254 0 0.000692101 0 0)
(0.172993 -0.0118456 0 0.00128812 0 0)
(0.17401 -0.0152938 0 0.00217653 0 0)
(0.176861 -0.0188275 0 0.00348361 0 0)
(0.182812 -0.0174382 0 0.00357504 0 0)
(0.18723 0.00471958 0 0.000182305 0 0)
(0.186552 0.00565814 0 0.000269572 0 0)
(0.185866 0.00603713 0 0.00031498 0 0)
(0.185226 0.00640407 0 0.000367026 0 0)
(0.184672 0.00688404 0 0.000444033 0 0)
(0.184235 0.00749943 0 0.000551794 0 0)
(0.183908 0.00815992 0 0.000669473 0 0)
(0.183632 0.00869743 0 0.000757314 0 0)
(0.183306 0.00888164 0 0.000772029 0 0)
(0.182809 0.00849447 0 0.000697943 0 0)
(0.182008 0.00738413 0 0.000554426 0 0)
(0.18084 0.00542651 0 0.000379127 0 0)
(0.179386 0.00256834 0 0.000231619 0 0)
(0.177957 -0.00101443 0 0.000195271 0 0)
(0.176747 -0.00488674 0 0.00033273 0 0)
(0.175913 -0.0086752 0 0.000681326 0 0)
(0.175595 -0.0123059 0 0.00128463 0 0)
(0.175762 -0.0161786 0 0.00224789 0 0)
(0.177554 -0.0208624 0 0.0038806 0 0)
(0.182667 -0.0214341 0 0.00478436 0 0)
(0.187349 0.00495973 0 0.00019248 0 0)
(0.186883 0.00596801 0 0.000287185 0 0)
(0.186412 0.00633816 0 0.000331106 0 0)
(0.186019 0.00666642 0 0.000376509 0 0)
(0.185767 0.00708936 0 0.000441059 0 0)
(0.185716 0.00764115 0 0.000530656 0 0)
(0.185878 0.00825872 0 0.000630946 0 0)
(0.186218 0.00879723 0 0.000709766 0 0)
(0.186624 0.00905764 0 0.000732605 0 0)
(0.186941 0.00882742 0 0.000683265 0 0)
(0.186963 0.00793169 0 0.000574819 0 0)
(0.186532 0.00620488 0 0.000435293 0 0)
(0.185472 0.00348761 0 0.000302761 0 0)
(0.183819 -0.000132191 0 0.000239792 0 0)
(0.181883 -0.00421952 0 0.000319518 0 0)
(0.180096 -0.00832289 0 0.000611302 0 0)
(0.178786 -0.0122994 0 0.00119072 0 0)
(0.177929 -0.0165862 0 0.0021996 0 0)
(0.17854 -0.0223775 0 0.00411995 0 0)
(0.182512 -0.0252413 0 0.00595868 0 0)
(0.187441 0.00509625 0 0.000192283 0 0)
(0.187162 0.00617034 0 0.00029188 0 0)
(0.186889 0.00652305 0 0.000332781 0 0)
(0.186718 0.00679232 0 0.000368824 0 0)
(0.186731 0.00712552 0 0.000416811 0 0)
(0.187 0.00756536 0 0.000482114 0 0)
(0.187556 0.00807412 0 0.000555926 0 0)
(0.18839 0.0085376 0 0.000615159 0 0)
(0.189409 0.00879382 0 0.000634697 0 0)
(0.190457 0.00866215 0 0.000602144 0 0)
(0.191314 0.00797484 0 0.00052688 0 0)
(0.191733 0.00656585 0 0.000431407 0 0)
(0.191374 0.0042736 0 0.000340202 0 0)
(0.189929 0.00100507 0 0.000274167 0 0)
(0.187499 -0.00303927 0 0.000290207 0 0)
(0.184767 -0.00736009 0 0.000493301 0 0)
(0.182383 -0.0117116 0 0.00100794 0 0)
(0.180412 -0.0164254 0 0.00201941 0 0)
(0.17972 -0.0233126 0 0.00418464 0 0)
(0.182312 -0.0288183 0 0.00707883 0 0)
(0.187491 0.00515288 0 0.000184407 0 0)
(0.187353 0.00628007 0 0.000285702 0 0)
(0.187247 0.0066045 0 0.000322511 0 0)
(0.187268 0.00679836 0 0.000348215 0 0)
(0.187502 0.00702046 0 0.000379036 0 0)
(0.188016 0.00731965 0 0.000419829 0 0)
(0.188852 0.00767712 0 0.000465626 0 0)
(0.190006 0.00800878 0 0.000501564 0 0)
(0.191413 0.00818989 0 0.000511155 0 0)
(0.192931 0.00807656 0 0.000486061 0 0)
(0.194354 0.00753087 0 0.000433583 0 0)
(0.195407 0.00642744 0 0.000373309 0 0)
(0.195736 0.00462954 0 0.000321541 0 0)
(0.194862 0.00200429 0 0.000281623 0 0)
(0.192581 -0.00156843 0 0.000260961 0 0)
(0.189376 -0.00588557 0 0.000364166 0 0)
(0.186082 -0.0105057 0 0.000767399 0 0)
(0.18306 -0.0156392 0 0.0017192 0 0)
(0.180986 -0.0236144 0 0.00406207 0 0)
(0.182043 -0.0321507 0 0.00814626 0 0)
(0.18748 0.00517863 0 0.000173695 0 0)
(0.18742 0.00632479 0 0.000272538 0 0)
(0.187441 0.00660001 0 0.00030375 0 0)
(0.187627 0.00670222 0 0.00031904 0 0)
(0.188051 0.00680163 0 0.000334385 0 0)
(0.188757 0.00695237 0 0.000354509 0 0)
(0.189777 0.00714772 0 0.000376869 0 0)
(0.191109 0.00733056 0 0.000393016 0 0)
(0.192696 0.00740824 0 0.000392982 0 0)
(0.194419 0.00727215 0 0.000371677 0 0)
(0.196091 0.00681956 0 0.000334032 0 0)
(0.197464 0.00596779 0 0.000294256 0 0)
(0.198245 0.00463015 0 0.000265895 0 0)
(0.198038 0.00264861 0 0.000247644 0 0)
(0.196377 -0.000203984 0 0.000232422 0 0)
(0.193356 -0.00412165 0 0.000259987 0 0)
(0.18959 -0.00875719 0 0.000520839 0 0)
(0.185719 -0.0142334 0 0.00133919 0 0)
(0.1823 -0.0231844 0 0.00372939 0 0)
(0.181715 -0.0351349 0 0.00912485 0 0)
(0.187383 0.00517572 0 0.000162169 0 0)
(0.187302 0.00631516 0 0.000255127 0 0)
(0.187423 0.00651414 0 0.000278953 0 0)
(0.187766 0.00650837 0 0.000284109 0 0)
(0.188369 0.00648146 0 0.000286649 0 0)
(0.189247 0.00649044 0 0.000291252 0 0)
(0.190409 0.00653672 0 0.000296977 0 0)
(0.191841 0.00658288 0 0.000299422 0 0)
(0.193494 0.00656416 0 0.000293166 0 0)
(0.195266 0.0064026 0 0.000275232 0 0)
(0.197 0.00602517 0 0.000248158 0 0)
(0.198505 0.00537348 0 0.000219931 0 0)
(0.199552 0.00438637 0 0.000200047 0 0)
(0.199861 0.00294426 0 0.000191899 0 0)
(0.198982 0.000799573 0 0.000187207 0 0)
(0.19659 -0.00237691 0 0.000191205 0 0)
(0.192856 -0.00666273 0 0.000318614 0 0)
(0.188417 -0.0123169 0 0.000944203 0 0)
(0.183962 -0.0218978 0 0.00317261 0 0)
(0.181464 -0.0376536 0 0.00994664 0 0)
(0.187154 0.00542691 0 0.000168857 0 0)
(0.18699 0.0063644 0 0.000244931 0 0)
(0.187181 0.00638912 0 0.000254324 0 0)
(0.187681 0.00623378 0 0.000247444 0 0)
(0.188475 0.00607137 0 0.000238917 0 0)
(0.189534 0.00594866 0 0.000232369 0 0)
(0.190842 0.00586832 0 0.000227488 0 0)
(0.192368 0.00580344 0 0.00022185 0 0)
(0.194066 0.00570914 0 0.000212574 0 0)
(0.195852 0.00553144 0 0.000197859 0 0)
(0.197604 0.00521738 0 0.000178415 0 0)
(0.199174 0.00472082 0 0.000157712 0 0)
(0.200389 0.00399613 0 0.000140946 0 0)
(0.201046 0.00296301 0 0.000132532 0 0)
(0.200805 0.00141936 0 0.000129751 0 0)
(0.199248 -0.000977024 0 0.000131115 0 0)
(0.195819 -0.00456077 0 0.00018236 0 0)
(0.191628 -0.0101776 0 0.000611308 0 0)
(0.18668 -0.0198368 0 0.00246939 0 0)
(0.181576 -0.0399873 0 0.0107054 0 0)
(0.186642 0.00507391 0 0.000143194 0 0)
(0.186127 0.00594903 0 0.000204225 0 0)
(0.186552 0.0059323 0 0.000209146 0 0)
(0.187357 0.00572855 0 0.000199504 0 0)
(0.188429 0.00549819 0 0.000187165 0 0)
(0.189727 0.00529152 0 0.000175703 0 0)
(0.191235 0.00512618 0 0.000166075 0 0)
(0.192912 0.00498815 0 0.00015727 0 0)
(0.194712 0.00484683 0 0.000147676 0 0)
(0.19657 0.00466477 0 0.00013607 0 0)
(0.198395 0.00440357 0 0.000122266 0 0)
(0.200077 0.00402722 0 0.000107302 0 0)
(0.201466 0.00350539 0 9.33062e-05 0 0)
(0.202396 0.00277911 0 8.25021e-05 0 0)
(0.202594 0.00171677 0 7.61795e-05 0 0)
(0.201827 -1.048e-05 0 7.32616e-05 0 0)
(0.198816 -0.00271622 0 9.82861e-05 0 0)
(0.196306 -0.00820846 0 0.000388243 0 0)
(0.190383 -0.0174245 0 0.00179412 0 0)
(0.182407 -0.0428587 0 0.011677 0 0)
(0.18594 0.00818391 0 0.000369035 0 0)
(0.185403 0.00785915 0 0.000349339 0 0)
(0.186261 0.00684814 0 0.000270544 0 0)
(0.187455 0.00595977 0 0.000208291 0 0)
(0.188874 0.00533263 0 0.000169073 0 0)
(0.190538 0.00487525 0 0.000142845 0 0)
(0.192411 0.00453872 0 0.000124644 0 0)
(0.194422 0.00428211 0 0.000111136 0 0)
(0.196516 0.00406423 0 9.98463e-05 0 0)
(0.198637 0.00385089 0 8.92841e-05 0 0)
(0.200713 0.00361454 0 7.87739e-05 0 0)
(0.202642 0.00333361 0 6.82526e-05 0 0)
(0.2043 0.00298243 0 5.77603e-05 0 0)
(0.205574 0.00251946 0 4.72308e-05 0 0)
(0.206174 0.00187021 0 3.70525e-05 0 0)
(0.206202 0.000712725 0 2.72932e-05 0 0)
(0.203472 -0.00127474 0 3.82783e-05 0 0)
(0.20475 -0.0063237 0 0.000237838 0 0)
(0.192926 -0.0139384 0 0.00109233 0 0)
(0.186235 -0.0455938 0 0.0122097 0 0)
(0.185001 0.00305299 0 5.34458e-05 0 0)
(0.184029 0.00186961 0 2.02157e-05 0 0)
(0.187043 0.00195575 0 2.20409e-05 0 0)
(0.190425 0.00249262 0 3.56658e-05 0 0)
(0.193949 0.0026444 0 3.99671e-05 0 0)
(0.197416 0.00257962 0 3.7977e-05 0 0)
(0.200732 0.002491 0 3.52944e-05 0 0)
(0.203895 0.00242091 0 3.31413e-05 0 0)
(0.206928 0.00235398 0 3.11102e-05 0 0)
(0.209843 0.0022751 0 2.88393e-05 0 0)
(0.212627 0.00217774 0 2.6262e-05 0 0)
(0.215242 0.00205558 0 2.33768e-05 0 0)
(0.217619 0.00190041 0 2.01704e-05 0 0)
(0.219744 0.0016783 0 1.61623e-05 0 0)
(0.221245 0.00136456 0 1.13733e-05 0 0)
(0.222791 0.000700912 0 4.71474e-06 0 0)
(0.220104 -0.000238617 0 5.97418e-06 0 0)
(0.225294 -0.00353522 0 8.08007e-05 0 0)
(0.196485 -0.00733146 0 0.000310864 0 0)
(0.210128 -0.0424036 0 0.00892131 0 0)
(0.202838 0.0179383 0 0.00159729 0 0)
(0.210992 0.0133901 0 0.000878743 0 0)
(0.220829 0.00841164 0 0.000340778 0 0)
(0.229316 0.00560987 0 0.000149708 0 0)
(0.235882 0.0041368 0 8.0607e-05 0 0)
(0.241424 0.00327322 0 4.99319e-05 0 0)
(0.246502 0.00270533 0 3.37103e-05 0 0)
(0.251252 0.00230286 0 2.41293e-05 0 0)
(0.255698 0.00200042 0 1.79921e-05 0 0)
(0.259873 0.00176475 0 1.38476e-05 0 0)
(0.263799 0.00157294 0 1.08893e-05 0 0)
(0.267477 0.00140986 0 8.66777e-06 0 0)
(0.27086 0.00126457 0 6.91455e-06 0 0)
(0.273968 0.00112357 0 5.40898e-06 0 0)
(0.276359 0.000966115 0 3.95408e-06 0 0)
(0.279033 0.000741272 0 2.25099e-06 0 0)
(0.276542 0.000462662 0 8.98346e-07 0 0)
(0.286742 -0.000539191 0 3.47639e-06 0 0)
(0.233633 0.00114079 0 2.73234e-05 0 0)
(0.348965 -0.0245895 0 0.00174156 0 0)
)
;

boundaryField
{
    movingWall
    {
        type            calculated;
        value           uniform (0.75 0 0 0 0 0);
    }
    fixedWalls
    {
        type            calculated;
        value           uniform (0.1875 0 0 0 0 0);
    }
    frontAndBack
    {
        type            empty;
    }
}


// ************************************************************************* //
