/*--------------------------------*- C++ -*----------------------------------*\
| =========                 |                                                 |
| \\      /  F ield         | OpenFOAM: The Open Source CFD Toolbox           |
|  \\    /   O peration     | Version:  2312                                  |
|   \\  /    A nd           | Website:  www.openfoam.com                      |
|    \\/     M anipulation  |                                                 |
\*---------------------------------------------------------------------------*/
FoamFile
{
    version     2.0;
    format      ascii;
    arch        "LSB;label=32;scalar=64";
    class       volScalarField;
    location    "250";
    object      epsilon;
}
// * * * * * * * * * * * * * * * * * * * * * * * * * * * * * * * * * * * * * //

dimensions      [0 2 -3 0 0 0 0];

internalField   nonuniform List<scalar> 
12225
(
1085.71
2467.78
3645.43
4414.73
4812.14
4980.48
4975.3
4926.49
4840.67
4729.12
4620.67
4517.18
4425.48
4339.49
4268.99
4198.42
4150.85
4085.43
81.231
262.521
438.555
584.504
691.168
762.825
805.02
829.671
846.865
856.89
866.628
873.724
883.013
890.99
900.543
910.432
917.544
934.503
20.5772
51.1749
83.4701
112.535
136.926
156.193
170.162
179.891
186.38
190.788
193.493
195.619
196.874
198.372
199.371
200.766
202.596
206.068
14.7578
21.8681
30.0198
38.5015
46.2164
53.0384
58.6228
63.2635
66.7563
69.6469
71.6136
73.3334
74.3204
75.3364
75.7622
76.3065
76.6683
77.4611
14.361
16.3335
18.4562
21.4873
24.4386
27.262
29.7364
31.9833
33.819
35.4796
36.7453
37.928
38.7446
39.5758
40.0584
40.6447
40.8593
41.4645
14.6447
14.9541
15.4274
16.4563
17.6089
18.8289
19.9697
21.0769
22.0337
22.9483
23.6897
24.4159
24.9564
25.5276
25.8924
26.352
26.5489
27.0041
14.7184
14.6387
14.6737
14.8757
15.2175
15.6833
16.1628
16.6724
17.1383
17.6109
18.0104
18.4208
18.7385
19.0881
19.3207
19.6257
19.7606
20.0853
14.7545
14.5907
14.4691
14.4209
14.4418
14.5153
14.6476
14.8246
15.0022
15.2023
15.3793
15.5761
15.7326
15.9151
16.0396
16.2095
16.2873
16.4803
14.7641
14.5919
14.4345
14.3029
14.2031
14.1371
14.0973
14.0987
14.1107
14.1415
14.1783
14.2346
14.2793
14.3427
14.3851
14.4504
14.4805
14.5627
14.7656
14.5942
14.432
14.2828
14.1465
14.0296
13.9256
13.8437
13.7744
13.7224
13.6771
13.6482
13.6204
13.6063
13.5891
13.584
13.5722
13.5818
14.7657
14.5945
14.4323
14.2806
14.137
14.0051
13.8816
13.7705
13.6679
13.5777
13.4938
13.4219
13.3537
13.2971
13.2406
13.1973
13.1473
13.1179
14.7657
14.5944
14.4323
14.2801
14.1357
14.0007
13.8728
13.754
13.6417
13.5385
13.4409
13.3523
13.2677
13.1922
13.1185
13.0549
12.9895
12.9368
14.7657
14.5941
14.4321
14.2796
14.1353
13.9995
13.8707
13.7496
13.6347
13.5271
13.4247
13.3294
13.2383
13.1542
13.0731
12.999
12.9266
12.8616
14.7657
14.594
14.4319
14.2792
14.1349
13.9987
13.8698
13.7481
13.6326
13.5236
13.4201
13.3224
13.2294
13.1417
13.0581
12.9795
12.9043
12.8337
14.7657
14.5938
14.4317
14.2789
14.1345
13.9981
13.8691
13.7471
13.6315
13.5221
13.4183
13.32
13.2265
13.1379
13.0536
12.9737
12.8975
12.8253
14.7657
14.5938
14.4316
14.2786
14.1341
13.9976
13.8685
13.7463
13.6306
13.5211
13.4171
13.3185
13.2249
13.136
13.0515
12.9713
12.8948
12.8222
14.7657
14.5937
14.4315
14.2784
14.1338
13.9972
13.868
13.7457
13.6299
13.5202
13.4162
13.3174
13.2237
13.1347
13.0501
12.9696
12.8931
12.8203
14.7657
14.5937
14.4314
14.2783
14.1336
13.9969
13.8677
13.7453
13.6294
13.5196
13.4155
13.3167
13.2228
13.1337
13.049
12.9685
12.8919
12.819
14.7657
14.5937
14.4314
14.2782
14.1336
13.9969
13.8675
13.7451
13.6292
13.5194
13.4152
13.3163
13.2224
13.1333
13.0485
12.968
12.8913
12.8184
14.7657
14.5937
14.4315
14.2783
14.1337
13.997
13.8677
13.7453
13.6294
13.5196
13.4154
13.3166
13.2227
13.1336
13.0489
12.9683
12.8917
12.8188
14.7657
14.5937
14.4316
14.2785
14.1339
13.9972
13.868
13.7457
13.63
13.5202
13.4163
13.3176
13.2241
13.1352
13.051
12.9708
12.8948
12.8224
14.7657
14.5938
14.4317
14.2786
14.1343
13.9977
13.869
13.7473
13.6325
13.524
13.4219
13.3252
13.2344
13.1482
13.0676
12.9907
12.9192
12.8504
14.7657
14.5937
14.4319
14.2789
14.1361
14.002
13.8782
13.7628
13.6573
13.5595
13.4707
13.3883
13.3141
13.2446
13.1829
13.1237
13.0729
13.0213
14.7644
14.5922
14.4335
14.2871
14.1628
14.0551
13.9689
13.8978
13.8459
13.8048
13.7783
13.758
13.7482
13.7415
13.7422
13.7433
13.7528
13.7516
14.7478
14.5944
14.4764
14.4101
14.4234
14.4613
14.5554
14.6706
14.8169
14.9612
15.1237
15.2711
15.4319
15.5683
15.7196
15.8372
15.9781
16.072
14.6504
14.7821
14.9369
15.3416
15.9227
16.5508
17.2338
17.878
18.5377
19.1217
19.7127
20.2096
20.72
21.1248
21.5587
21.8756
22.2453
22.4806
14.572
16.1273
17.9726
20.4196
22.9236
25.2654
27.5467
29.5525
31.4906
33.1025
34.6855
35.9137
37.1756
38.0656
39.0608
39.6724
40.4609
40.8523
16.5442
25.8796
36.7208
46.5546
55.8657
64.2732
72.1012
78.7409
84.8017
89.5901
94.0126
97.1742
100.312
102.189
104.451
105.414
107.132
107.489
45.7966
105.211
164.439
217.233
267.842
313.448
353.657
386.102
413.216
433.649
450.586
462.693
472.88
479.759
486.798
490.286
496.13
497.463
632.343
1081.16
1534.74
1880.99
2183.47
2431.77
2631.53
2773.03
2876.15
2932.21
2969.07
2970.17
2963.16
2946.23
2918.31
2885.06
2849.27
2811.94
0.22495
0.222771
0.380851
0.549185
0.708819
0.852322
0.978213
1.08757
1.19029
1.29194
1.39363
1.4988
1.61063
1.73114
1.8613
2.0025
2.16006
2.34969
2.59292
2.88821
3.22913
3.61709
4.05832
4.56145
5.13581
5.78967
6.52938
7.36119
8.2904
9.32213
10.4616
11.7052
13.0542
14.5083
16.0669
17.728
19.4916
21.3581
23.328
25.4037
27.5883
29.8878
32.3106
34.8699
37.5848
40.4836
43.5961
46.8212
50.2109
53.748
57.4467
61.3074
65.3362
69.5373
73.915
78.4743
83.219
88.154
93.2828
98.6099
104.138
109.872
115.814
121.968
128.335
134.919
141.719
148.738
155.977
163.435
171.113
179.009
187.121
195.449
203.987
212.735
221.687
230.839
240.184
249.718
259.432
269.32
279.372
289.58
299.932
310.42
321.029
331.75
342.566
353.465
364.429
375.442
386.483
397.531
408.562
419.55
430.465
441.279
451.968
462.52
472.964
483.358
493.565
503.635
513.528
523.238
532.742
542.025
551.066
559.849
568.356
576.57
584.475
592.054
599.293
606.177
612.692
618.826
624.567
629.904
634.829
639.332
643.407
647.048
650.25
653.01
655.327
657.198
658.62
659.582
660.202
660.396
660.089
659.261
658.023
656.464
654.482
652.12
649.381
646.282
642.837
639.059
634.968
630.587
625.934
621.008
615.829
610.41
604.768
598.917
592.872
586.647
580.257
573.714
567.032
560.221
553.294
546.26
539.13
531.914
524.62
517.258
509.841
502.386
494.951
488.09
484.383
482.037
479.775
477.48
475.131
472.714
470.212
467.595
464.818
461.788
458.331
453.991
447.786
422.256
0.876204
0.504537
0.452211
0.469133
0.512828
0.571142
0.639414
0.717407
0.806618
0.907777
1.02103
1.14752
1.28887
1.44692
1.62374
1.82191
2.04492
2.29712
2.58209
2.90179
3.25869
3.65483
4.09258
4.57393
5.09907
5.66443
6.27379
6.92747
7.62527
8.36696
9.15224
9.98078
10.8516
11.7653
12.7184
13.7106
14.7429
15.817
16.9348
18.0987
19.3116
20.5767
21.8977
23.2781
24.7214
26.2295
27.8017
29.4323
31.128
32.8879
34.7149
36.61
38.5751
40.6115
42.7207
44.9042
47.1632
49.499
51.9127
54.4052
56.9775
59.6305
62.3646
65.1806
68.0785
71.0587
74.1211
77.2657
80.4921
83.7999
87.1882
90.6564
94.2031
97.8273
101.527
105.301
109.147
113.063
117.046
121.094
125.203
129.371
133.594
137.867
142.188
146.551
150.952
155.386
159.847
164.33
168.827
173.332
177.837
182.335
186.817
191.275
195.701
200.093
204.449
208.785
213.127
217.525
221.849
226.119
230.323
234.455
238.508
242.475
246.349
250.123
253.791
257.345
260.779
264.087
267.263
270.301
273.195
275.941
278.534
280.969
283.242
285.35
287.289
289.058
290.653
292.072
293.316
294.383
295.273
295.988
296.538
296.906
297.079
297.057
296.868
296.537
296.038
295.384
294.576
293.618
292.514
291.271
289.894
288.391
286.767
285.025
283.172
281.214
279.156
277.005
274.765
272.444
270.046
267.576
265.04
262.442
259.787
257.08
254.324
251.523
248.681
245.802
242.893
239.961
237.035
234.254
232.079
230.23
228.435
226.638
224.823
222.984
221.118
219.219
217.285
215.312
213.278
211.244
209.112
205.339
1.81822
0.877397
0.694758
0.661255
0.678677
0.724031
0.789433
0.872117
0.972068
1.09002
1.22679
1.38326
1.56031
1.75889
1.98006
2.22516
2.49581
2.79379
3.12076
3.47725
3.86263
4.27678
4.71973
5.19171
5.69366
6.22843
6.79456
7.39204
8.02125
8.68281
9.37768
10.1074
10.8661
11.6455
12.4579
13.3063
14.1922
15.1172
16.083
17.091
18.1426
19.2395
20.3829
21.5741
22.8142
24.1039
25.4442
26.8345
28.2766
29.7713
31.3198
32.9231
34.5823
36.2983
38.0721
39.9045
41.7965
43.7487
45.7618
47.8367
49.9737
52.1734
54.4364
56.7629
59.1527
61.606
64.1228
66.7028
69.3459
72.0515
74.8192
77.6482
80.5378
83.4869
86.4944
89.559
92.6791
95.8531
99.0792
102.355
105.679
109.049
112.46
115.912
119.401
122.923
126.475
130.053
133.654
137.272
140.904
144.545
148.191
151.836
155.476
159.108
162.728
166.336
169.933
173.522
177.108
180.678
184.205
187.687
191.117
194.49
197.801
201.043
204.211
207.299
210.301
213.213
216.028
218.742
221.349
223.845
226.226
228.486
230.622
232.63
234.507
236.25
237.855
239.322
240.648
241.831
242.871
243.767
244.52
245.129
245.596
245.915
246.069
246.084
245.956
245.706
245.321
244.807
244.166
243.401
242.517
241.518
240.408
239.193
237.877
236.464
234.959
233.366
231.691
229.938
228.111
226.216
224.257
222.238
220.163
218.037
215.863
213.645
211.385
209.088
206.757
204.395
202.007
199.601
197.194
194.849
192.712
190.714
188.757
186.805
184.845
182.874
180.89
178.895
176.895
174.901
172.927
171.072
169.349
167.669
2.75636
1.23606
0.957955
0.894894
0.902241
0.947302
1.01912
1.11391
1.23069
1.36962
1.53118
1.71581
1.9238
2.15523
2.41014
2.68856
2.99055
3.31619
3.66547
4.03819
4.43409
4.85318
5.29577
5.7625
6.2543
6.77218
7.31668
7.88848
8.48825
9.11648
9.77329
10.458
11.1749
11.9309
12.7232
13.5521
14.4187
15.3242
16.2702
17.2582
18.2882
19.361
20.4773
21.6377
22.8425
24.0913
25.3848
26.7257
28.1152
29.5543
31.044
32.5853
34.1792
35.8265
37.5283
39.2853
41.0986
42.9688
44.8966
46.8827
48.9277
51.0322
53.1966
55.4213
57.7067
60.0529
62.46
64.9282
67.4573
70.0471
72.6973
75.4075
78.177
81.0052
83.8911
86.8335
89.8314
92.8833
95.9875
99.1423
102.346
105.596
108.889
112.225
115.599
119.008
122.45
125.921
129.417
132.935
136.471
140.02
143.579
147.143
150.71
154.275
157.836
161.39
164.936
168.472
171.992
175.484
178.938
182.348
185.709
189.014
192.258
195.435
198.539
201.564
204.505
207.356
210.112
212.767
215.317
217.756
220.081
222.286
224.368
226.322
228.146
229.837
231.391
232.807
234.082
235.216
236.206
237.054
237.757
238.318
238.736
239.002
239.105
239.08
238.917
238.622
238.194
237.638
236.955
236.149
235.225
234.187
233.039
231.786
230.432
228.982
227.441
225.813
224.104
222.318
220.46
218.535
216.547
214.5
212.399
210.248
208.051
205.811
203.532
201.217
198.87
196.494
194.094
191.675
189.252
186.859
184.556
182.326
180.126
177.933
175.739
173.541
171.341
169.142
166.948
164.782
162.673
160.719
158.952
157.432
3.57271
1.58721
1.23169
1.14653
1.14744
1.19464
1.27376
1.37952
1.51006
1.66486
1.84381
2.04677
2.2734
2.52315
2.79531
3.0892
3.40421
3.73988
4.09595
4.47234
4.86922
5.28706
5.72662
6.18889
6.675
7.1861
7.72332
8.28776
8.88051
9.50267
10.1554
10.84
11.5586
12.3131
13.1037
13.9313
14.7966
15.7005
16.6438
17.6268
18.6511
19.7177
20.8275
21.9813
23.1803
24.4259
25.7193
27.0607
28.451
29.8913
31.3826
32.926
34.5226
36.1734
37.8796
39.6421
41.4622
43.341
45.2793
47.2778
49.3372
51.4583
53.642
55.8887
58.1992
60.574
63.0133
65.5177
68.0872
70.722
73.422
76.1869
79.0166
81.9103
84.8676
87.8874
90.9687
94.1104
97.3108
100.568
103.881
107.247
110.664
114.129
117.639
121.192
124.783
128.411
132.07
135.757
139.468
143.2
146.946
150.705
154.47
158.239
162.006
165.768
169.519
173.253
176.963
180.642
184.282
187.876
191.418
194.901
198.32
201.668
204.938
208.124
211.22
214.219
217.117
219.907
222.584
225.142
227.576
229.882
232.055
234.092
235.987
237.739
239.344
240.8
242.104
243.256
244.254
245.097
245.786
246.32
246.7
246.907
246.961
246.869
246.629
246.247
245.722
245.058
244.259
243.329
242.273
241.094
239.798
238.39
236.875
235.258
233.544
231.739
229.848
227.876
225.829
223.711
221.528
219.284
216.985
214.634
212.236
209.796
207.316
204.801
202.254
199.68
197.082
194.466
191.843
189.233
186.667
184.141
181.637
179.143
176.654
174.168
171.69
169.225
166.786
164.396
162.088
159.948
158.004
156.272
4.2496
1.91915
1.5022
1.39935
1.39554
1.4444
1.52896
1.64241
1.78196
1.94639
2.13504
2.34728
2.58235
2.83937
3.11737
3.41548
3.73301
4.06954
4.42499
4.79956
5.19381
5.60854
6.04479
6.50376
6.98673
7.495
8.02986
8.59259
9.18446
9.80675
10.4607
11.1477
11.8691
12.6261
13.4196
14.2504
15.1195
16.0279
16.9764
17.966
18.9979
20.0731
21.1927
22.3577
23.5693
24.8287
26.1371
27.4954
28.9048
30.3665
31.8818
33.452
35.0783
36.7621
38.5047
40.3074
42.1713
44.0976
46.0876
48.1427
50.2643
52.4534
54.7112
57.0387
59.4368
61.9066
64.4486
67.0636
69.7521
72.5145
75.3511
78.2618
81.2466
84.3052
87.4371
90.6415
93.9175
97.2639
100.679
104.162
107.71
111.321
114.992
118.721
122.505
126.34
130.223
134.15
138.117
142.119
146.152
150.211
154.292
158.389
162.497
166.61
170.724
174.831
178.926
183
187.048
191.061
195.031
198.952
202.815
206.615
210.342
213.992
217.555
221.025
224.395
227.658
230.807
233.837
236.74
239.511
242.144
244.634
246.975
249.164
251.197
253.068
254.777
256.318
257.691
258.894
259.925
260.784
261.471
261.987
262.326
262.473
262.464
262.287
261.947
261.447
260.789
259.978
259.017
257.912
256.666
255.287
253.778
252.147
250.398
248.538
246.572
244.507
242.349
240.103
237.777
235.374
232.902
230.366
227.772
225.123
222.426
219.685
216.905
214.089
211.243
208.369
205.473
202.56
199.639
196.723
193.83
190.962
188.113
185.276
182.45
179.636
176.839
174.067
171.336
168.669
166.102
163.709
161.502
159.431
4.80449
2.22481
1.75956
1.64103
1.63226
1.68092
1.76797
1.8852
2.02896
2.1974
2.3894
2.60403
2.84036
3.09742
3.37431
3.67025
3.98473
4.31754
4.66882
5.03904
5.42895
5.83952
6.27192
6.7274
7.20728
7.71291
8.24561
8.80669
9.39748
10.0193
10.6733
11.3609
12.0832
12.8415
13.6368
14.4701
15.3426
16.2554
17.2096
18.2063
19.2468
20.3324
21.4641
22.6434
23.8715
25.1498
26.4797
27.8626
29.3001
30.7935
32.3445
33.9547
35.6256
37.359
39.1565
41.0197
42.9503
44.9499
47.0203
49.1632
51.3803
53.673
56.0431
58.4919
61.0208
63.6312
66.3241
69.1006
71.9617
74.908
77.9401
81.0584
84.2629
87.5536
90.9301
94.3918
97.9378
101.567
105.278
109.068
112.937
116.88
120.896
124.982
129.133
133.347
137.619
141.944
146.318
150.736
155.192
159.682
164.198
168.735
173.287
177.847
182.408
186.962
191.502
196.019
200.505
204.952
209.352
213.695
217.975
222.182
226.308
230.345
234.285
238.119
241.84
245.44
248.911
252.246
255.438
258.48
261.365
264.088
266.644
269.026
271.231
273.255
275.093
276.743
278.202
279.469
280.543
281.422
282.107
282.599
282.884
282.971
282.875
282.592
282.125
281.478
280.655
279.659
278.497
277.173
275.693
274.064
272.291
270.382
268.343
266.181
263.903
261.515
259.026
256.441
253.768
251.013
248.184
245.286
242.325
239.309
236.242
233.13
229.978
226.791
223.574
220.332
217.069
213.791
210.505
207.222
203.953
200.703
197.471
194.256
191.059
187.882
184.733
181.622
178.564
175.585
172.719
170.027
167.504
165.049
5.61619
2.56823
2.01619
1.86936
1.84984
1.89392
1.97952
2.09658
2.24038
2.40842
2.5992
2.81159
3.04464
3.29746
3.56931
3.85963
4.16812
4.49478
4.83994
5.20419
5.58838
5.99354
6.42084
6.87154
7.34693
7.84831
8.37701
8.93437
9.52171
10.1404
10.7916
11.4768
12.1972
12.9541
13.7486
14.5822
15.456
16.3714
17.3296
18.3322
19.3805
20.476
21.6201
22.8144
24.0604
25.3598
26.7144
28.126
29.5965
31.1278
32.7219
34.3806
36.1062
37.9006
39.766
41.7044
43.7181
45.8092
47.9798
50.2322
52.5686
54.991
57.5014
60.1019
62.7943
65.5803
68.4617
71.4398
74.516
77.6913
80.9667
84.3427
87.8198
91.3979
95.077
98.8564
102.735
106.712
110.786
114.955
119.215
123.565
128.002
132.521
137.119
141.791
146.532
151.338
156.202
161.119
166.083
171.086
176.121
181.182
186.261
191.349
196.438
201.519
206.584
211.622
216.625
221.582
226.485
231.323
236.088
240.77
245.359
249.846
254.221
258.475
262.6
266.586
270.424
274.107
277.626
280.974
284.144
287.129
289.922
292.519
294.914
297.103
299.081
300.845
302.394
303.724
304.835
305.727
306.399
306.851
307.067
307.075
306.867
306.45
305.827
305.001
303.977
302.761
301.358
299.774
298.016
296.091
294.007
291.772
289.393
286.877
284.234
281.47
278.595
275.615
272.54
269.376
266.132
262.815
259.431
255.989
252.495
248.955
245.375
241.761
238.119
234.453
230.77
227.074
223.374
219.676
215.991
212.324
208.678
205.054
201.456
197.889
194.36
190.881
187.47
184.149
180.952
177.926
175.052
172.198
6.84133
2.97589
2.27582
2.08129
2.0427
2.07679
2.15689
2.27024
2.41077
2.57526
2.76179
2.96911
3.19626
3.44246
3.70716
3.99
4.29088
4.60994
4.9476
5.30453
5.68158
6.07981
6.50036
6.94448
7.41342
7.90837
8.43056
8.98143
9.56244
10.175
10.8205
11.5002
12.2158
12.9684
13.7597
14.591
15.4639
16.38
17.3407
18.3479
19.4031
20.5082
21.6649
22.8751
24.1404
25.4626
26.8443
28.2879
29.7958
31.3705
33.0142
34.7295
36.5189
38.385
40.3305
42.3579
44.4701
46.6698
48.9597
51.3425
53.8211
56.3981
59.0761
61.8577
64.7452
67.741
70.8471
74.0656
77.398
80.846
84.4106
88.0928
91.8932
95.812
99.849
104.004
108.275
112.662
117.162
121.774
126.494
131.319
136.245
141.269
146.385
151.588
156.872
162.232
167.66
173.15
178.693
184.283
189.909
195.565
201.24
206.924
212.609
218.284
223.937
229.559
235.139
240.665
246.127
251.514
256.815
262.02
267.117
272.095
276.945
281.655
286.216
290.617
294.848
298.902
302.768
306.439
309.906
313.162
316.2
319.014
321.599
323.95
326.062
327.932
329.558
330.937
332.069
332.953
333.591
333.974
334.105
333.996
333.648
333.064
332.249
331.208
329.946
328.469
326.784
324.897
322.818
320.554
318.113
315.505
312.738
309.821
306.764
303.576
300.265
296.842
293.314
289.691
285.983
282.197
278.341
274.425
270.455
266.439
262.384
258.297
254.183
250.05
245.903
241.748
237.592
233.443
229.308
225.194
221.107
217.049
213.026
209.044
205.113
201.244
197.455
193.77
190.215
186.831
183.584
180.326
8.06888
3.36841
2.51273
2.26536
2.20401
2.2249
2.29665
2.40373
2.53867
2.6975
2.87793
3.07853
3.29834
3.53669
3.79313
4.06746
4.35971
4.67015
4.99927
5.34762
5.71599
6.10555
6.51753
6.95326
7.41423
7.90225
8.41761
8.9617
9.53594
10.1418
10.7807
11.4542
12.1638
12.9112
13.6979
14.5257
15.3963
16.3115
17.2732
18.2834
19.344
20.4573
21.6254
22.8507
24.1358
25.4837
26.8963
28.3767
29.928
31.5531
33.2552
35.0371
36.902
38.853
40.8935
43.0266
45.2558
47.5845
50.0161
52.554
55.2016
57.9622
60.839
63.8353
66.954
70.198
73.5698
77.0719
80.7063
84.475
88.3793
92.4204
96.599
100.915
105.369
109.96
114.687
119.548
124.54
129.661
134.909
140.277
145.763
151.361
157.065
162.868
168.765
174.748
180.808
186.937
193.126
199.366
205.646
211.957
218.287
224.626
230.961
237.281
243.574
249.827
256.028
262.165
268.225
274.196
280.066
285.822
291.452
296.944
302.287
307.468
312.477
317.302
321.933
326.359
330.572
334.561
338.318
341.835
345.105
348.122
350.879
353.371
355.595
357.546
359.222
360.621
361.742
362.586
363.153
363.436
363.445
363.181
362.651
361.859
360.812
359.513
357.97
356.189
354.177
351.944
349.498
346.849
344.007
340.98
337.78
334.417
330.901
327.242
323.451
319.538
315.514
311.388
307.172
302.873
298.503
294.071
289.584
285.052
280.483
275.884
271.263
266.626
261.981
257.333
252.689
248.058
243.447
238.862
234.311
229.799
225.331
220.917
216.565
212.289
208.106
204.037
200.105
196.346
192.713
189.051
9.22431
3.72263
2.71603
2.41595
2.33065
2.33681
2.3985
2.49767
2.62551
2.77737
2.95058
3.14356
3.3553
3.5852
3.83289
4.09796
4.38078
4.6819
5.00207
5.34251
5.70338
6.08547
6.48983
6.91761
7.36995
7.84778
8.35241
8.88564
9.44911
10.0444
10.6733
11.3373
12.0384
12.7782
13.5588
14.3822
15.2504
16.1656
17.1302
18.1463
19.2166
20.3437
21.5301
22.7787
24.092
25.4723
26.9222
28.4472
30.0518
31.7393
33.5133
35.3772
37.335
39.3903
41.5472
43.8097
46.1818
48.6678
51.2717
53.9977
56.85
59.8324
62.949
66.2034
69.5994
73.1401
76.8288
80.6683
84.6608
88.8087
93.1133
97.5761
102.197
106.978
111.917
117.013
122.265
127.67
133.227
138.93
144.777
150.761
156.877
163.12
169.482
175.955
182.531
189.201
195.956
202.785
209.678
216.624
223.611
230.627
237.659
244.695
251.72
258.722
265.687
272.6
279.448
286.217
292.893
299.462
305.91
312.224
318.39
324.396
330.227
335.871
341.316
346.55
351.561
356.339
360.873
365.153
369.171
372.917
376.385
379.567
382.458
385.052
387.345
389.333
391.015
392.389
393.453
394.209
394.657
394.795
394.631
394.163
393.401
392.353
391.024
389.419
387.545
385.412
383.027
380.4
377.541
374.461
371.171
367.682
364.004
360.151
356.133
351.962
347.649
343.207
338.647
333.98
329.217
324.37
319.45
314.466
309.429
304.348
299.233
294.093
288.934
283.766
278.595
273.428
268.273
263.138
258.031
252.958
247.927
242.946
238.021
233.161
228.377
223.682
219.091
214.626
210.306
206.16
202.136
198.076
10.271
4.02982
2.88254
2.53236
2.42254
2.41405
2.4647
2.55492
2.67473
2.81884
2.98422
3.16903
3.37229
3.59357
3.83289
4.09044
4.36589
4.6594
4.97135
5.302
5.65206
6.02291
6.41574
6.83172
7.27211
7.73828
8.23209
8.75497
9.30853
9.89449
10.5147
11.1711
11.8658
12.6008
13.3783
14.2009
15.0708
15.9908
16.9636
17.992
19.0788
20.2272
21.4408
22.7225
24.0748
25.5
27.0031
28.5904
30.2662
32.0358
33.9044
35.8759
37.9544
40.1447
42.4514
44.8794
47.4337
50.119
52.9405
55.9029
59.011
62.2697
65.6833
69.2564
72.9928
76.8965
80.9708
85.2188
89.643
94.2456
99.028
103.991
109.136
114.461
119.967
125.65
131.51
137.542
143.744
150.109
156.633
163.31
170.132
177.091
184.18
191.388
198.706
206.123
213.628
221.209
228.853
236.548
244.28
252.034
259.796
267.553
275.287
282.986
290.632
298.21
305.705
313.101
320.384
327.537
334.545
341.395
348.07
354.558
360.843
366.912
372.752
378.351
383.695
388.774
393.577
398.094
402.315
406.232
409.837
413.124
416.086
418.718
421.016
422.978
424.602
425.885
426.829
427.433
427.7
427.633
427.233
426.498
425.445
424.082
422.414
420.446
418.189
415.65
412.84
409.769
406.449
402.892
399.108
395.112
390.916
386.531
381.972
377.251
372.38
367.374
362.244
357.003
351.663
346.238
340.739
335.177
329.564
323.91
318.226
312.521
306.804
301.084
295.37
289.668
283.986
278.334
272.717
267.146
261.627
256.169
250.779
245.468
240.246
235.125
230.123
225.256
220.542
216.006
211.591
207.145
11.1875
4.28648
3.01228
2.61604
2.4823
2.4596
2.49902
2.57988
2.69108
2.82708
2.98488
3.16303
3.3597
3.5741
3.80566
4.0537
4.31886
4.60167
4.90266
5.22258
5.56258
5.9235
6.30644
6.71264
7.14349
7.60052
8.08541
8.59992
9.1459
9.72536
10.3404
10.9934
11.6866
12.4226
13.2039
14.0333
14.9139
15.8487
16.8418
17.8956
19.0136
20.1989
21.4542
22.7821
24.1894
25.6824
27.2667
28.9473
30.7295
32.6189
34.6218
36.7435
38.989
41.364
43.8742
46.5254
49.3232
52.2735
55.3818
58.6539
62.0951
65.7107
69.5057
73.4848
77.6524
82.0124
86.5681
91.3226
96.2781
101.436
106.798
112.364
118.134
124.106
130.279
136.649
143.213
149.967
156.904
164.02
171.305
178.754
186.356
194.102
201.982
209.985
218.097
226.308
234.604
242.97
251.393
259.857
268.346
276.847
285.341
293.812
302.244
310.621
318.924
327.137
335.244
343.227
351.069
358.755
366.268
373.593
380.713
387.614
394.281
400.7
406.857
412.739
418.334
423.63
428.615
433.281
437.616
441.614
445.266
448.567
451.51
454.091
456.306
458.154
459.632
460.741
461.48
461.853
461.86
461.515
460.792
459.721
458.308
456.562
454.489
452.097
449.395
446.394
443.104
439.538
435.707
431.625
427.304
422.759
418.004
413.051
407.916
402.612
397.153
391.553
385.826
379.987
374.048
368.022
361.924
355.766
349.56
343.317
337.05
330.769
324.483
318.202
311.935
305.69
299.476
293.301
287.173
281.102
275.094
269.159
263.306
257.545
251.886
246.343
240.929
235.663
230.557
225.634
220.837
216.022
11.9689
4.49388
3.10758
2.67011
2.51428
2.47796
2.50644
2.57866
2.68296
2.81257
2.96364
3.13355
3.32141
3.52666
3.74899
3.98851
4.24542
4.52003
4.81291
5.12485
5.45681
5.8099
6.18538
6.58466
7.00934
7.46113
7.94187
8.45356
8.99838
9.57867
10.197
10.8561
11.5595
12.3095
13.1091
13.9616
14.8704
15.8386
16.8682
17.9637
19.1307
20.3746
21.701
23.1158
24.6243
26.2329
27.9478
29.7753
31.7218
33.7944
35.9996
38.3437
40.8335
43.4759
46.2778
49.2458
52.3865
55.7061
59.2108
62.9068
66.7997
70.895
75.1978
79.7127
84.4436
89.3941
94.5669
99.9643
105.587
111.437
117.513
123.814
130.338
137.082
144.044
151.216
158.596
166.175
173.946
181.901
190.032
198.326
206.774
215.364
224.083
232.919
241.856
250.88
259.977
269.129
278.322
287.538
296.761
305.972
315.155
324.291
333.362
342.35
351.238
360.007
368.639
377.117
385.422
393.539
401.45
409.14
416.591
423.788
430.718
437.364
443.714
449.755
455.473
460.858
465.899
470.585
474.909
478.862
482.438
485.629
488.433
490.844
492.86
494.48
495.704
496.531
496.961
497
496.667
495.925
494.802
493.31
491.456
489.252
486.701
483.816
480.606
477.082
473.256
469.141
464.751
460.099
455.199
450.067
444.718
439.165
433.425
427.512
421.441
415.228
408.886
402.432
395.88
389.243
382.537
375.775
368.969
362.134
355.281
348.421
341.566
334.726
327.909
321.125
314.383
307.692
301.06
294.496
288.008
281.607
275.301
269.1
263.015
257.059
251.245
245.589
240.101
234.804
229.639
224.477
12.5913
4.64601
3.16855
2.69732
2.52286
2.47517
2.49519
2.55949
2.65533
2.77667
2.91988
3.08291
3.26438
3.46351
3.67996
3.91375
4.16513
4.43455
4.72268
5.03041
5.35885
5.70928
6.08322
6.48241
6.90895
7.36489
7.8522
8.37329
8.93082
9.52759
10.1664
10.85
11.5802
12.3609
13.1971
14.0934
15.0544
16.0852
17.1916
18.3788
19.6521
21.018
22.4834
24.0554
25.7409
27.5471
29.4814
31.5514
33.7648
36.1298
38.6538
41.3447
44.211
47.261
50.5031
53.9444
57.5914
61.4505
65.5276
69.8285
74.3585
79.1222
84.1237
89.3666
94.8536
100.586
106.566
112.793
119.266
125.984
132.944
140.143
147.577
155.239
163.123
171.223
179.53
188.035
196.728
205.598
214.633
223.821
233.15
242.604
252.169
261.83
271.571
281.376
291.228
301.109
311.002
320.89
330.753
340.574
350.333
360.013
369.594
379.058
388.386
397.56
406.562
415.373
423.977
432.356
440.493
448.372
455.977
463.292
470.305
476.999
483.363
489.382
495.046
500.344
505.266
509.802
513.945
517.688
521.024
523.949
526.459
528.551
530.224
531.476
532.311
532.73
532.725
532.336
531.509
530.28
528.657
526.649
524.267
521.52
518.415
514.965
511.18
507.072
502.655
497.941
492.946
487.683
482.168
476.417
470.445
464.269
457.903
451.365
444.67
437.833
430.87
423.797
416.63
409.383
402.072
394.71
387.313
379.893
372.464
365.038
357.627
350.24
342.89
335.583
328.331
321.142
314.024
306.988
300.041
293.194
286.455
279.835
273.345
266.997
260.802
254.775
248.926
243.274
237.763
232.285
13.1408
4.76692
3.20679
2.70568
2.51552
2.45705
2.46713
2.52332
2.61299
2.72923
2.86812
3.02736
3.2056
3.40213
3.6167
3.8495
4.10122
4.37221
4.6633
4.97569
5.31081
5.67028
6.05589
6.46951
6.91278
7.38708
7.89634
8.44404
9.03372
9.66912
10.3543
11.0937
11.8928
12.7561
13.6889
14.6969
15.7867
16.9651
18.2393
19.6168
21.1049
22.712
24.4467
26.3175
28.3334
30.5032
32.8357
35.34
38.0247
40.8973
43.9659
47.241
50.7323
54.4502
58.4071
62.6076
67.0556
71.7553
76.7108
81.9255
87.4024
93.1435
99.1501
105.422
111.96
118.761
125.823
133.142
140.715
148.535
156.596
164.892
173.415
182.155
191.102
200.248
209.58
219.087
228.756
238.574
248.526
258.6
268.778
279.046
289.389
299.788
310.228
320.691
331.159
341.616
352.042
362.419
372.73
382.955
393.077
403.076
412.935
422.635
432.158
441.487
450.603
459.49
468.13
476.508
484.606
492.41
499.904
507.075
513.908
520.391
526.511
532.257
537.617
542.583
547.146
551.298
555.031
558.341
561.222
563.67
565.685
567.261
568.405
569.106
569.381
569.226
568.651
567.632
566.197
564.351
562.102
559.462
556.442
553.051
549.298
545.196
540.757
535.993
530.918
525.546
519.892
513.971
507.8
501.394
494.77
487.944
480.933
473.753
466.421
458.952
451.364
443.672
435.892
428.04
420.131
412.181
404.204
396.215
388.227
380.253
372.305
364.395
356.532
348.728
340.99
333.329
325.753
318.271
310.893
303.628
296.485
289.475
282.607
275.893
269.344
262.973
256.787
250.809
244.978
239.22
13.6058
4.85457
3.22398
2.69928
2.49591
2.42932
2.43476
2.48827
2.57681
2.69357
2.83446
2.99706
3.18011
3.383
3.60558
3.8479
4.10983
4.39262
4.69808
5.028
5.38443
5.76972
6.18652
6.63786
7.1274
7.65917
8.23699
8.86547
9.54971
10.2953
11.1083
11.9957
12.9649
14.0231
15.1783
16.4389
17.8141
19.3136
20.9474
22.7259
24.6595
26.7589
29.0351
31.4988
34.1606
37.0308
40.1193
43.4358
46.9893
50.7876
54.8385
59.1508
63.7326
68.592
73.7378
79.1712
84.8905
90.8945
97.1817
103.75
110.597
117.719
125.11
132.766
140.681
148.846
157.254
165.897
174.765
183.85
193.139
202.623
212.291
222.13
232.128
242.274
252.553
262.953
273.46
284.06
294.737
305.477
316.266
327.086
337.923
348.76
359.582
370.372
381.112
391.788
402.38
412.874
423.25
433.494
443.587
453.513
463.255
472.796
482.12
491.211
500.052
508.628
516.924
524.924
532.614
539.98
547.008
553.685
560.001
565.942
571.498
576.659
581.415
585.759
589.684
593.182
596.248
598.879
601.07
602.819
604.129
604.986
605.418
605.385
604.961
604.056
602.735
600.988
598.824
596.251
593.277
589.916
586.179
582.075
577.613
572.809
567.672
562.218
556.458
550.408
544.083
537.498
530.671
523.616
516.351
508.893
501.258
493.462
485.523
477.457
469.28
461.008
452.659
444.247
435.789
427.299
418.794
410.288
401.794
393.327
384.898
376.519
368.201
359.953
351.786
343.709
335.73
327.859
320.104
312.475
304.981
297.631
290.436
283.405
276.55
269.88
263.404
257.142
251.034
245.047
13.9758
4.90421
3.22241
2.68391
2.47617
2.41005
2.41873
2.47753
2.57303
2.69771
2.84744
3.02071
3.21672
3.43534
3.677
3.94269
4.23417
4.55309
4.90186
5.28345
5.70128
6.15929
6.66196
7.21441
7.82258
8.49306
9.23269
10.049
10.9503
11.9457
13.0454
14.2605
15.6024
17.0832
18.7154
20.5119
22.4858
24.6511
27.0216
29.6106
32.431
35.4952
38.8152
42.4025
46.2664
50.4151
54.8555
59.5944
64.6375
69.987
75.6443
81.6124
87.8947
94.4931
101.402
108.605
116.094
123.858
131.889
140.175
148.706
157.471
166.459
175.657
185.053
194.636
204.394
214.314
224.385
234.595
244.931
255.381
265.935
276.58
287.303
298.094
308.941
319.83
330.749
341.687
352.63
363.565