/*--------------------------------*- C++ -*----------------------------------*\
| =========                 |                                                 |
| \\      /  F ield         | OpenFOAM: The Open Source CFD Toolbox           |
|  \\    /   O peration     | Version:  2312                                  |
|   \\  /    A nd           | Website:  www.openfoam.com                      |
|    \\/     M anipulation  |                                                 |
\*---------------------------------------------------------------------------*/
FoamFile
{
    version     2.0;
    format      ascii;
    arch        "LSB;label=32;scalar=64";
    class       volScalarField;
    location    "250";
    object      k;
}
// * * * * * * * * * * * * * * * * * * * * * * * * * * * * * * * * * * * * * //

dimensions      [0 2 -2 0 0 0 0];

internalField   nonuniform List<scalar> 
12225
(
0.571498
0.987649
1.28116
1.45558
1.54167
1.57742
1.57566
1.56723
1.54713
1.52372
1.50045
1.478
1.45793
1.43899
1.42336
1.40762
1.397
1.38221
0.438453
0.496876
0.521953
0.534905
0.542882
0.547411
0.550232
0.552235
0.556006
0.559457
0.565548
0.571157
0.579522
0.58694
0.596727
0.605367
0.615276
0.625296
0.387571
0.41749
0.424189
0.421528
0.415042
0.404967
0.393803
0.382807
0.371934
0.362423
0.353245
0.346108
0.338979
0.334341
0.329113
0.326711
0.323048
0.322348
0.37618
0.384817
0.388124
0.387415
0.385434
0.381137
0.375684
0.369561
0.363115
0.356561
0.350108
0.343801
0.337819
0.332061
0.326777
0.321682
0.317161
0.312713
0.374178
0.375374
0.376396
0.375929
0.374798
0.372507
0.369615
0.366136
0.362484
0.358469
0.354556
0.350369
0.34652
0.342382
0.338792
0.334818
0.331604
0.327842
0.373737
0.372544
0.371997
0.371082
0.369917
0.368266
0.366339
0.364031
0.36164
0.358967
0.356372
0.353536
0.350915
0.348046
0.345519
0.3427
0.340347
0.337623
0.373769
0.371726
0.370231
0.368831
0.367465
0.36594
0.364344
0.362551
0.360733
0.358749
0.356812
0.35473
0.352769
0.350664
0.348747
0.34667
0.344851
0.342828
0.373818
0.371563
0.369621
0.36786
0.36625
0.364663
0.363121
0.361521
0.359944
0.358297
0.356694
0.355025
0.353428
0.351768
0.350212
0.348586
0.347102
0.345522
0.373833
0.371554
0.369457
0.36751
0.365722
0.364025
0.362428
0.360861
0.359354
0.357851
0.3564
0.354942
0.35354
0.352129
0.350784
0.349424
0.348147
0.346841
0.373832
0.37156
0.369425
0.36741
0.365529
0.363752
0.362086
0.360492
0.35898
0.357515
0.356115
0.354747
0.353436
0.35215
0.350918
0.349705
0.348549
0.347403
0.37383
0.371561
0.369417
0.367384
0.365468
0.363652
0.361942
0.360316
0.358778
0.357309
0.355911
0.354569
0.353288
0.352053
0.350871
0.349728
0.348634
0.347573
0.373828
0.371559
0.369412
0.367375
0.365448
0.363619
0.361889
0.360247
0.35869
0.357209
0.355802
0.354459
0.35318
0.351957
0.350789
0.349669
0.348598
0.34757
0.373827
0.371557
0.369407
0.367369
0.365437
0.363603
0.361865
0.360213
0.358646
0.357156
0.355739
0.35439
0.353107
0.351883
0.350716
0.349601
0.348536
0.34752
0.373827
0.371555
0.369403
0.367362
0.365428
0.363591
0.361848
0.360192
0.358619
0.357123
0.3557
0.354345
0.353056
0.351828
0.350656
0.34954
0.348474
0.347458
0.373826
0.371553
0.369399
0.367357
0.36542
0.363581
0.361835
0.360176
0.358599
0.3571
0.355673
0.354315
0.353021
0.351788
0.350613
0.349493
0.348424
0.347405
0.373826
0.371552
0.369396
0.367352
0.365413
0.363572
0.361824
0.360163
0.358584
0.357081
0.355652
0.35429
0.352994
0.351758
0.35058
0.349457
0.348385
0.347363
0.373825
0.371551
0.369394
0.367349
0.365408
0.363566
0.361816
0.360152
0.358571
0.357067
0.355635
0.354271
0.352972
0.351735
0.350555
0.349429
0.348355
0.347331
0.373825
0.371551
0.369393
0.367347
0.365405
0.363561
0.36181
0.360145
0.358562
0.357056
0.355623
0.354258
0.352957
0.351718
0.350536
0.349409
0.348334
0.347308
0.373825
0.371551
0.369393
0.367347
0.365404
0.36356
0.361808
0.360143
0.358559
0.357052
0.355618
0.354252
0.35295
0.35171
0.350527
0.3494
0.348323
0.347296
0.373825
0.371551
0.369394
0.367348
0.365406
0.363562
0.361811
0.360146
0.358562
0.357056
0.355622
0.354256
0.352955
0.351715
0.350532
0.349405
0.348329
0.347302
0.373826
0.371552
0.369396
0.367351
0.36541
0.363567
0.361816
0.360152
0.35857
0.357065
0.355633
0.354268
0.352969
0.35173
0.35055
0.349423
0.348349
0.347323
0.373826
0.371553
0.369398
0.367355
0.365416
0.363575
0.361828
0.360168
0.358591
0.357091
0.355664
0.354306
0.353012
0.351779
0.350602
0.34948
0.348408
0.347383
0.373826
0.371555
0.369401
0.367363
0.365432
0.363605
0.361875
0.360237
0.358681
0.357203
0.355794
0.354451
0.353167
0.351939
0.350762
0.349635
0.348552
0.347513
0.373827
0.371555
0.369413
0.367418
0.365544
0.363793
0.362138
0.360572
0.359071
0.357632
0.35624
0.354896
0.353589
0.352323
0.35109
0.349894
0.348728
0.347601
0.373819
0.371564
0.369582
0.367846
0.366223
0.364712
0.363219
0.361753
0.360266
0.358787
0.357288
0.3558
0.354306
0.352833
0.351361
0.349924
0.348495
0.34711
0.373767
0.371946
0.370916
0.369978
0.368912
0.367767
0.366326
0.364737
0.362933
0.361062
0.35906
0.357054
0.354971
0.352925
0.350845
0.348825
0.346792
0.344839
0.374093
0.3752
0.37726
0.377562
0.377091
0.375807
0.373488
0.370864
0.367802
0.364686
0.361328
0.358027
0.354602
0.351291
0.347923
0.3447
0.341472
0.338414
0.377677
0.394076
0.402944
0.402354
0.400308
0.396046
0.390665
0.385166
0.379132
0.373302
0.367221
0.361475
0.355719
0.350305
0.345128
0.340198
0.335726
0.331324
0.405777
0.438976
0.451187
0.455808
0.459109
0.462259
0.464969
0.467226
0.46922
0.47084
0.472486
0.473922
0.47554
0.477066
0.479203
0.480826
0.483664
0.485377
0.479011
0.684926
0.865145
0.990809
1.09437
1.17584
1.23938
1.28342
1.31504
1.33208
1.34321
1.34355
1.34143
1.33632
1.32786
1.31776
1.30683
1.2954
0.00278127
0.00458336
0.00655341
0.00836523
0.00991691
0.0112141
0.012293
0.0131928
0.0140064
0.0147894
0.0155518
0.0163202
0.0171173
0.0179557
0.0188393
0.0197735
0.0207861
0.0219641
0.0234312
0.0251634
0.0270966
0.0292165
0.0315371
0.0340823
0.0368759
0.0399346
0.0432598
0.0468531
0.0507107
0.0548286
0.0592022
0.0637991
0.0686037
0.0735991
0.0787687
0.084095
0.0895681
0.0951798
0.100924
0.106801
0.11281
0.118962
0.125269
0.131757
0.138461
0.145435
0.152754
0.160141
0.167724
0.175449
0.183342
0.191396
0.199616
0.208003
0.216559
0.225285
0.234181
0.243249
0.252488
0.261899
0.271481
0.281234
0.291155
0.301244
0.311497
0.321913
0.332487
0.343216
0.354094
0.365118
0.376282
0.387581
0.399006
0.410553
0.422212
0.433977
0.445837
0.457787
0.469814
0.48191
0.494064
0.506266
0.518503
0.530767
0.543041
0.555317
0.567579
0.579816
0.592012
0.604153
0.616224
0.628207
0.640084
0.651835
0.663439
0.674871
0.686107
0.69712
0.707891
0.718414
0.728723
0.73889
0.748771
0.758427
0.767822
0.776955
0.785809
0.794374
0.802637
0.810585
0.818208
0.825494
0.832432
0.839014
0.845228
0.851067
0.856523
0.861588
0.866255
0.87052
0.874376
0.877821
0.880851
0.883463
0.885658
0.887434
0.888793
0.889736
0.890261
0.890361
0.890139
0.889512
0.888435
0.886868
0.884943
0.882728
0.880112
0.877149
0.873838
0.870194
0.86623
0.861957
0.857392
0.852555
0.84746
0.842108
0.836515
0.830694
0.824658
0.81842
0.811993
0.80539
0.798622
0.791702
0.784641
0.777447
0.770134
0.762708
0.75518
0.747557
0.739847
0.732059
0.724206
0.7163
0.708399
0.700998
0.69656
0.693472
0.690476
0.687455
0.684391
0.68127
0.678076
0.674781
0.67134
0.667664
0.663586
0.658661
0.651902
0.626323
0.00688502
0.0107968
0.0151653
0.0186536
0.0215855
0.0241729
0.0265429
0.0287808
0.0309493
0.0331332
0.03542
0.0378629
0.0404872
0.0432981
0.0462905
0.0494594
0.0528073
0.0563444
0.0600829
0.0640335
0.0682079
0.072622
0.0772979
0.0822609
0.0875357
0.0931419
0.0990884
0.105383
0.112027
0.119022
0.126365
0.134055
0.142091
0.15047
0.159182
0.1682
0.177521
0.187142
0.19706
0.207275
0.217787
0.228596
0.239702
0.251109
0.262815
0.274821
0.287122
0.299703
0.312582
0.325759
0.339239
0.353028
0.36713
0.38155
0.396291
0.411358
0.426754
0.442482
0.458547
0.474949
0.49169
0.508773
0.526198
0.543965
0.562073
0.580522
0.599308
0.618429
0.637881
0.65766
0.677758
0.698171
0.71889
0.739908
0.761214
0.782799
0.804651
0.826758
0.849107
0.871684
0.894474
0.917461
0.940627
0.963955
0.987426
1.01102
1.03472
1.05849
1.08233
1.1062
1.13008
1.15394
1.17776
1.20149
1.22512
1.24861
1.27191
1.29498
1.31777
1.34021
1.36222
1.38376
1.40501
1.42592
1.44648
1.46667
1.48645
1.5058
1.5247
1.54312
1.56102
1.5784
1.59523
1.61147
1.62711
1.64213
1.65651
1.67022
1.68325
1.69559
1.70721
1.7181
1.72826
1.73767
1.74632
1.75421
1.76133
1.76768
1.77326
1.77808
1.78216
1.78548
1.78807
1.78965
1.79044
1.7907
1.79021
1.78901
1.78711
1.78453
1.7813
1.77744
1.77296
1.76788
1.76224
1.75605
1.74933
1.74211
1.73441
1.72625
1.71767
1.70867
1.69929
1.68955
1.67946
1.66905
1.65833
1.64733
1.63605
1.62452
1.61276
1.60076
1.58855
1.57614
1.56357
1.55096
1.53881
1.52681
1.5147
1.50244
1.49002
1.47743
1.46466
1.45169
1.43846
1.42492
1.41089
1.39634
1.37969
1.34398
0.0112127
0.0175932
0.0235162
0.0280761
0.0319342
0.0354213
0.0387228
0.0419632
0.0452386
0.0486282
0.0521935
0.0559756
0.0599958
0.0642602
0.0687664
0.07351
0.0784897
0.0837082
0.0891727
0.0948938
0.100885
0.107164
0.113749
0.120661
0.127919
0.135544
0.143556
0.15197
0.160797
0.170046
0.179723
0.189829
0.200367
0.211326
0.222697
0.234473
0.24665
0.259225
0.272191
0.285546
0.299286
0.313408
0.327908
0.342785
0.358036
0.373658
0.389649
0.40601
0.422746
0.439861
0.457358
0.475243
0.493518
0.512189
0.531258
0.550729
0.570605
0.59089
0.611584
0.632689
0.654208
0.676139
0.698482
0.721238
0.744402
0.767973
0.791947
0.81632
0.841084
0.866235
0.891764
0.917662
0.943921
0.970528
0.997473
1.02474
1.05232
1.08019
1.10835
1.13676
1.16542
1.1943
1.22338
1.25264
1.28206
1.31161
1.34127
1.37101
1.40081
1.43063
1.46044
1.49022
1.51993
1.54953
1.579
1.6083
1.63738
1.66622
1.69478
1.72302
1.75092
1.77847
1.80563
1.83239
1.8587
1.88454
1.90986
1.93464
1.95883
1.98242
2.00535
2.02761
2.04916
2.06997
2.09
2.10924
2.12766
2.14523
2.16192
2.17772
2.1926
2.20656
2.21956
2.2316
2.24267
2.25276
2.26186
2.26997
2.27709
2.28323
2.28839
2.29257
2.29578
2.29787
2.29887
2.2991
2.29837
2.29674
2.29421
2.29081
2.28656
2.28149
2.27561
2.26897
2.26159
2.2535
2.24472
2.23529
2.22523
2.21459
2.20338
2.19164
2.17939
2.16666
2.15349
2.13989
2.12589
2.11152
2.09679
2.08172
2.06633
2.05065
2.03469
2.01848
2.00204
1.98547
1.969
1.95252
1.93589
1.91906
1.90205
1.88484
1.86742
1.84981
1.83198
1.81395
1.79564
1.77717
1.75708
1.72545
0.0148078
0.0245585
0.0319611
0.0375046
0.0421752
0.0464124
0.0504549
0.0544571
0.0585309
0.0627608
0.0672078
0.0719114
0.0768915
0.0821539
0.0876955
0.0935108
0.0995965
0.105954
0.112589
0.119514
0.126746
0.134305
0.142216
0.150504
0.159195
0.168313
0.177877
0.187904
0.198404
0.209386
0.220851
0.232797
0.245216
0.258105
0.271461
0.285282
0.299559
0.314288
0.329463
0.345079
0.361132
0.377617
0.394531
0.411872
0.429638
0.447829
0.466444
0.485486
0.504958
0.524866
0.545214
0.566005
0.587246
0.60894
0.631091
0.653703
0.67678
0.700324
0.724338
0.748825
0.773785
0.79922
0.825128
0.85151
0.878362
0.905682
0.933466
0.96171
0.990406
1.01955
1.04913
1.07914
1.10956
1.14039
1.17162
1.20322
1.23518
1.26749
1.30012
1.33306
1.36629
1.39977
1.4335
1.46744
1.50156
1.53585
1.57026
1.60477
1.63936
1.67397
1.70859
1.74317
1.77769
1.81209
1.84636
1.88044
1.91431
1.94792
1.98125
2.01424
2.04688
2.07911
2.11091
2.14223
2.17303
2.20327
2.23291
2.26191
2.29022
2.31781
2.34465
2.37068
2.39588
2.4202
2.44362
2.4661
2.4876
2.50811
2.52758
2.546
2.56334
2.57958
2.5947
2.60869
2.62152
2.6332
2.64371
2.65305
2.66122
2.66822
2.67406
2.67874
2.68226
2.68451
2.68548
2.68551
2.6844
2.68221
2.67897
2.67468
2.66939
2.66313
2.65591
2.64778
2.63877
2.62892
2.61825
2.60681
2.59463
2.58174
2.56819
2.554
2.53921
2.52385
2.50796
2.49156
2.47469
2.45737
2.43963
2.4215
2.40299
2.38413
2.36495
2.34546
2.3257
2.30575
2.28574
2.26561
2.24531
2.2248
2.20409
2.18317
2.16208
2.14081
2.11942
2.09797
2.07649
2.05517
2.03279
2.00319
0.0176107
0.0312292
0.0402214
0.0467925
0.0522767
0.0572228
0.0619241
0.0665644
0.0712725
0.0761418
0.0812387
0.0866061
0.092267
0.0982304
0.104496
0.111062
0.117927
0.125095
0.132576
0.140386
0.148546
0.157081
0.166015
0.175377
0.185191
0.195478
0.206254
0.217535
0.229326
0.241635
0.25446
0.2678
0.281654
0.296018
0.310887
0.326258
0.342124
0.358481
0.375324
0.392649
0.410452
0.428729
0.44748
0.466704
0.486399
0.506566
0.52721
0.548333
0.56994
0.592037
0.614628
0.63772
0.661316
0.685424
0.710047
0.73519
0.760858
0.787056
0.813786
0.841051
0.868854
0.897195
0.926076
0.955497
0.985455
1.01595
1.04697
1.07853
1.1106
1.14319
1.17628
1.20988
1.24395
1.2785
1.3135
1.34895
1.38482
1.42109
1.45775
1.49477
1.53213
1.56981
1.60776
1.64598
1.68442
1.72306
1.76186
1.80079
1.83981
1.87889
1.91798
1.95706
1.99607
2.03497
2.07374
2.11232
2.15067
2.18875
2.22652
2.26393
2.30093
2.33749
2.37354
2.40906
2.44398
2.47827
2.51188
2.54475
2.57684
2.60811
2.63852
2.66801
2.69654
2.72408
2.75059
2.77602
2.80034
2.82352
2.84552
2.86631
2.88587
2.90417
2.92119
2.93691
2.95131
2.96439
2.97613
2.98653
2.99559
3.00331
3.0097
3.01475
3.01847
3.02075
3.02163
3.02135
3.0198
3.017
3.01298
3.00776
3.0014
2.9939
2.98533
2.9757
2.96506
2.95344
2.9409
2.92746
2.91317
2.89808
2.88221
2.86562
2.84834
2.83041
2.81187
2.79275
2.7731
2.75293
2.73229
2.71119
2.68968
2.66777
2.64549
2.62288
2.59996
2.5768
2.55347
2.52998
2.50628
2.48237
2.45826
2.43397
2.40952
2.38498
2.3604
2.33591
2.31162
2.28775
2.26328
2.23387
0.0197744
0.0374471
0.0480312
0.0556332
0.0619184
0.0675382
0.0728357
0.0780229
0.0832455
0.0886085
0.0941868
0.100031
0.106171
0.112624
0.119398
0.126495
0.133922
0.141687
0.149803
0.15829
0.167169
0.176466
0.186204
0.196409
0.2071
0.218297
0.230014
0.24226
0.255042
0.268364
0.282228
0.296632
0.311576
0.327056
0.343071
0.359616
0.376688
0.394285
0.412403
0.43104
0.450195
0.469868
0.490058
0.510766
0.531996
0.55375
0.576031
0.598846
0.6222
0.646099
0.670548
0.695556
0.721129
0.747272
0.773993
0.801298
0.829193
0.857683
0.886773
0.916467
0.946769
0.977681
1.00921
1.04134
1.07409
1.10745
1.14142
1.176
1.21117
1.24694
1.28329
1.32022
1.3577
1.39574
1.43431
1.47339
1.51297
1.55302
1.59353
1.63447
1.67581
1.71752
1.75957
1.80193
1.84457
1.88745
1.93053
1.97378
2.01715
2.0606
2.10409
2.14757
2.19101
2.23434
2.27753
2.32053
2.36328
2.40575
2.44786
2.48958
2.53086
2.57162
2.61184
2.65144
2.69038
2.72861
2.76607
2.80271
2.83848
2.87333
2.90719
2.94004
2.97181
3.00246
3.03195
3.06024
3.08727
3.11302
3.13745
3.16052
3.1822
3.20246
3.22129
3.23866
3.25454
3.26894
3.28182
3.2932
3.30307
3.31142
3.31827
3.32362
3.32747
3.3297
3.33043
3.32979
3.32771
3.32423
3.31937
3.31317
3.30566
3.29688
3.28688
3.27569
3.26337
3.24994
3.23546
3.21998
3.20354
3.18619
3.16797
3.14894
3.12913
3.10859
3.08737
3.06551
3.04304
3.02001
2.99645
2.9724
2.94788
2.92292
2.89757
2.87185
2.8458
2.81947
2.79291
2.76615
2.73918
2.71199
2.68463
2.65711
2.62948
2.60183
2.57425
2.5469
2.51995
2.49362
2.467
2.43661
0.021459
0.0430591
0.0551475
0.063735
0.0707794
0.0770249
0.0828586
0.088518
0.094165
0.0999168
0.105859
0.112051
0.118534
0.125334
0.132469
0.13995
0.147789
0.155999
0.164596
0.173601
0.183033
0.192916
0.203271
0.21412
0.225479
0.237363
0.249786
0.262754
0.276274
0.290351
0.304986
0.320181
0.335935
0.352247
0.369118
0.386546
0.404531
0.423071
0.442167
0.46182
0.482031
0.502802
0.524135
0.546034
0.568503
0.591548
0.615174
0.639389
0.664199
0.689612
0.715637
0.74228
0.769552
0.79746
0.826013
0.855218
0.885083
0.915615
0.946822
0.978708
1.01128
1.04454
1.0785
1.11315
1.14849
1.18454
1.22128
1.25871
1.29683
1.33562
1.37509
1.41522
1.456
1.49742
1.53945
1.58208
1.62529
1.66906
1.71335
1.75815
1.80342
1.84913
1.89525
1.94173
1.98854
2.03565
2.083
2.13056
2.17828
2.2261
2.27399
2.32188
2.36974
2.4175
2.46511
2.51252
2.55967
2.6065
2.65295
2.69896
2.74448
2.78943
2.83377
2.87744
2.92037
2.9625
3.00378
3.04415
3.08355
3.12192
3.15921
3.19536
3.23032
3.26403
3.29645
3.32753
3.35722
3.38548
3.41227
3.43756
3.4613
3.48347
3.50404
3.52299
3.54029
3.55593
3.5699
3.58219
3.5928
3.60172
3.60897
3.61455
3.61846
3.62058
3.62109
3.62002
3.61736
3.61312
3.60736
3.6001
3.59138
3.58125
3.56976
3.55695
3.54286
3.52755
3.51108
3.49348
3.47482
3.45515
3.43452
3.41298
3.39058
3.36738
3.34342
3.31876
3.29344
3.2675
3.24098
3.21392
3.18637
3.15836
3.12991
3.10108
3.07189
3.0424
3.01266
2.98269
2.9525
2.92212
2.89159
2.86094
2.83024
2.7996
2.76913
2.73902
2.70946
2.68067
2.65178
2.61977
0.0237664
0.0481137
0.0614699
0.070915
0.0786282
0.0854261
0.0917291
0.0977942
0.103797
0.109863
0.11609
0.122546
0.129283
0.136337
0.143735
0.151495
0.159636
0.168175
0.177129
0.186517
0.196359
0.206675
0.217482
0.228799
0.240641
0.25302
0.265947
0.27943
0.293475
0.308087
0.323271
0.339028
0.355362
0.372273
0.389765
0.407839
0.426498
0.445743
0.465578
0.486006
0.507032
0.528661
0.550897
0.573747
0.597218
0.621318
0.646054
0.671435
0.697471
0.724171
0.751546
0.779607
0.808364
0.837828
0.868008
0.898916
0.930561
0.962952
0.996099
1.03001
1.06469
1.10015
1.13639
1.17342
1.21124
1.24985
1.28925
1.32943
1.3704
1.41215
1.45467
1.49794
1.54196
1.58671
1.63217
1.67831
1.72513
1.77259
1.82066
1.86931
1.91851
1.96822
2.01841
2.06903
2.12004
2.17138
2.22303
2.27492
2.327
2.37922
2.43152
2.48384
2.53614
2.58833
2.64038
2.6922
2.74374
2.79493
2.8457
2.89599
2.94573
2.99485
3.04329
3.09099
3.13787
3.18387
3.22893
3.27299
3.31597
3.35781
3.39846
3.43786
3.47594
3.51264
3.54793
3.58173
3.61401
3.64471
3.67379
3.70122
3.72695
3.75095
3.77318
3.79363
3.81228
3.82909
3.84406
3.85719
3.86846
3.87788
3.88545
3.89118
3.89508
3.89704
3.89726
3.89569
3.89237
3.88732
3.88058
3.87219
3.8622
3.85066
3.83761
3.82311
3.8072
3.78995
3.77142
3.75165
3.73071
3.70865
3.68555
3.66145
3.63641
3.61049
3.58375
3.55624
3.52802
3.49913
3.46962
3.43954
3.40893
3.37783
3.34629
3.31434
3.28203
3.2494
3.2165
3.18337
3.15004
3.11654
3.08291
3.04922
3.01555
2.98201
2.94874
2.91594
2.88381
2.85254
2.82133
2.7877
0.0271131
0.0526094
0.0669215
0.0770527
0.0853163
0.0925783
0.0992792
0.105689
0.111991
0.118319
0.124777
0.131443
0.138375
0.14562
0.15321
0.161173
0.16953
0.178302
0.187507
0.197164
0.207289
0.217901
0.229015
0.240647
0.25281
0.265515
0.278773
0.292592
0.30698
0.321943
0.337486
0.353616
0.370336
0.387652
0.405569
0.424092
0.443226
0.462978
0.483352
0.504357
0.525999
0.548286
0.571227
0.594831
0.619108
0.644067
0.66972
0.696078
0.723153
0.750958
0.779506
0.80881
0.838884
0.86974
0.901393
0.933853
0.967135
1.00125
1.03621
1.07202
1.1087
1.14626
1.18469
1.22401
1.26422
1.30532
1.34732
1.39021
1.43399
1.47864
1.52418
1.57057
1.61781
1.66588
1.71476
1.76443
1.81486
1.86602
1.91788
1.9704
2.02355
2.07728
2.13156
2.18633
2.24155
2.29716
2.35311
2.40934
2.4658
2.52242
2.57914
2.63589
2.69261
2.74923
2.80568
2.86189
2.91779
2.9733
3.02835
3.08287
3.13678
3.19001
3.24249
3.29414
3.3449
3.39469
3.44344
3.49108
3.53754
3.58276
3.62667
3.6692
3.71029
3.74988
3.78791
3.82432
3.85906
3.89209
3.92335
3.9528
3.9804
4.00611
4.0299
4.05175
4.07162
4.0895
4.10538
4.11924
4.13108
4.1409
4.1487
4.1545
4.1583
4.16004
4.15987
4.15774
4.15369
4.14775
4.13998
4.13041
4.11909
4.10607
4.09142
4.07517
4.0574
4.03816
4.01752
3.99554
3.97228
3.94781
3.92219
3.89549
3.86778
3.83912
3.80957
3.77919
3.74805
3.7162
3.68369
3.65058
3.61692
3.58275
3.54812
3.51308
3.47768
3.44195
3.40596
3.36974
3.33334
3.2968
3.26018
3.22355
3.187
3.15066
3.11468
3.07926
3.04461
3.01088
2.97731
2.94186
0.0302784
0.0563118
0.0713681
0.0820476
0.0907566
0.0983993
0.10543
0.112128
0.118682
0.12523
0.131879
0.138715
0.145801
0.15319
0.16092
0.169024
0.177527
0.186451
0.195815
0.205638
0.215936
0.226725
0.238018
0.24983
0.262174
0.275061
0.288501
0.302505
0.317081
0.332237
0.347982
0.364323
0.381269
0.398827
0.417006
0.435813
0.455259
0.475352
0.496101
0.517517
0.539611
0.562393
0.585876
0.610073
0.634995
0.660657
0.687073
0.714258
0.742226
0.770995
0.800579
0.830996
0.862262
0.894393
0.927406
0.961316
0.996138
1.03189
1.06858
1.10622
1.14483
1.18442
1.225
1.26657
1.30914
1.35271
1.39728
1.44286
1.48944
1.53701
1.58556
1.63509
1.68556
1.73697
1.78929
1.8425
1.89656
1.95144
2.00711
2.06353
2.12065
2.17842
2.2368
2.29573
2.35516
2.41503
2.47528
2.53584
2.59665
2.65763
2.71873
2.77986
2.84095
2.90193
2.96271
3.02322
3.08339
3.14312
3.20234
3.26097
3.31892
3.37613
3.4325
3.48796
3.54244
3.59586
3.64813
3.6992
3.74897
3.79739
3.84437
3.88986
3.93377
3.97606
4.01665
4.05549
4.09252
4.12769
4.16095
4.19225
4.22154
4.2488
4.27399
4.29707
4.31802
4.33682
4.35346
4.36792
4.3802
4.39031
4.39823
4.40399
4.40759
4.40903
4.40839
4.40562
4.40077
4.39388
4.38501
4.3742
4.3615
4.34697
4.33067
4.31266
4.29299
4.27174
4.24898
4.22476
4.19917
4.17227
4.14414
4.11485
4.08447
4.05306
4.02071
3.98748
3.95344
3.91865
3.88318
3.84707
3.8104
3.77321
3.73555
3.69748
3.65904
3.6203
3.58129
3.54208
3.50272
3.46326
3.42376
3.38431
3.34501
3.30599
3.26741
3.22947
3.19236
3.15622
3.12032
3.08294
0.0331161
0.0591887
0.0747892
0.0858882
0.0949435
0.102887
0.110183
0.117115
0.123874
0.130603
0.13741
0.144381
0.151587
0.159081
0.166906
0.175099
0.183686
0.192691
0.202135
0.212035
0.222409
0.233272
0.244636
0.256516
0.268925
0.281874
0.295374
0.309436
0.324071
0.33929
0.355104
0.371524
0.388561
0.406227
0.424533
0.443491
0.463114
0.483415
0.504406
0.526102
0.548517
0.571666
0.595565
0.62023
0.64568
0.671931
0.699
0.726905
0.755666
0.785302
0.815834
0.847282
0.879666
0.913005
0.947318
0.982626
1.01895
1.05629
1.09469
1.13414
1.17468
1.2163
1.25902
1.30284
1.34779
1.39385
1.44103
1.48933
1.53875
1.58927
1.64088
1.69357
1.74733
1.80211
1.85791
1.91469
1.97242
2.03105
2.09055
2.15087
2.21196
2.27376
2.33623
2.3993
2.46291
2.52699
2.59148
2.65629
2.72137
2.78663
2.85199
2.91738
2.9827
3.04789
3.11285
3.17749
3.24174
3.3055
3.36868
3.43121
3.49299
3.55394
3.61397
3.673
3.73094
3.78773
3.84327
3.89748
3.9503
4.00164
4.05143
4.09959
4.14606
4.19077
4.23365
4.27465
4.3137
4.35075
4.38575
4.41865
4.44941
4.47798
4.50433
4.52844
4.55026
4.56979
4.58701
4.6019
4.61446
4.6247
4.63261
4.63821
4.6415
4.64252
4.64132
4.63783
4.63209
4.62419
4.61417
4.60208
4.58797
4.57191
4.55394
4.53415
4.51259
4.48933
4.46445
4.43803
4.41013
4.38083
4.35022
4.31837
4.28536
4.25127
4.21618
4.18015
4.14328
4.10562
4.06725
4.02823
3.98863
3.9485
3.90791
3.86691
3.82556
3.78391
3.74203
3.69997
3.65778
3.61554
3.57332
3.53121
3.4893
3.44775
3.40671
3.36637
3.3269
3.28845
3.25031
3.21101
0.0355879
0.0612762
0.0772339
0.0886308
0.0979365
0.106102
0.113597
0.120708
0.127628
0.134497
0.141425
0.148499
0.15579
0.163353
0.171232
0.179467
0.188085
0.197113
0.206571
0.216477
0.226849
0.2377
0.249044
0.260897
0.273272
0.28618
0.299634
0.313649
0.328236
0.343411
0.359187
0.375579
0.392603
0.410272
0.428604
0.447613
0.467316
0.48773
0.508871
0.530759
0.55341
0.576843
0.601079
0.626139
0.652045
0.678819
0.706482
0.735056
0.764566
0.795035
0.826488
0.858948
0.892441
0.926987
0.962611
0.999334
1.03718
1.07616
1.1163
1.15762
1.20013
1.24384
1.28878
1.33494
1.38234
1.43097
1.48084
1.53195
1.58428
1.63783
1.69259
1.74852
1.80561
1.86384
1.92317
1.98356
2.04498
2.10737
2.1707
2.23491
2.29994
2.36574
2.43224
2.49936
2.56705
2.63523
2.70382
2.77274
2.84192
2.91126
2.98068
3.0501
3.11942
3.18855
3.25741
3.3259
3.39392
3.4614
3.52822
3.5943
3.65956
3.72389
3.78721
3.84943
3.91047
3.97024
4.02866
4.08564
4.1411
4.19497
4.24717
4.29763
4.34627
4.39302
4.43782
4.48061
4.52133
4.55991
4.59632
4.63049
4.66239
4.69197
4.7192
4.74405
4.76649
4.78651
4.80407
4.81917
4.83182
4.842
4.84973
4.85501
4.85788
4.85835
4.85652
4.85218
4.84549
4.83652
4.82531
4.81191
4.79638
4.77877
4.75915
4.7376
4.71417
4.68895
4.662
4.63342
4.60328
4.57166
4.53865
4.50433
4.46879
4.43211
4.39437
4.35567
4.31607
4.27567
4.23453
4.19273
4.15034
4.10742
4.06405
4.02028
3.97617
3.93179
3.88719
3.84246
3.79764
3.75281
3.70805
3.66346
3.61915
3.57524
3.53191
3.48933
3.44767
3.40704
3.36679
3.3257
0.0376861
0.0626426
0.078788
0.0903697
0.0998344
0.108144
0.115772
0.123006
0.130035
0.137001
0.144012
0.151153
0.158496
0.166095
0.173996
0.182234
0.190839
0.199838
0.209251
0.219097
0.229395
0.24016
0.251409
0.263156
0.275416
0.288206
0.301538
0.315425
0.329885
0.344936
0.360599
0.37689
0.393831
0.411439
0.429734
0.448738
0.468471
0.488953
0.510208
0.532256
0.555119
0.578818
0.60337
0.628811
0.655168
0.682468
0.710737
0.740005
0.770299
0.801649
0.834082
0.867627
0.90231
0.938157
0.975195
1.01345
1.05293
1.09368
1.13571
1.17903
1.22367
1.26964
1.31694
1.3656
1.41561
1.46697
1.51969
1.57374
1.62913
1.68584
1.74385
1.80313
1.86365
1.92538
1.98829
2.05232
2.11744
2.18358
2.2507
2.31874
2.38763
2.45729
2.52767
2.59869
2.67026
2.74231
2.81476
2.88751
2.96048
3.03358
3.10672
3.17979
3.25272
3.32539
3.39772
3.46961
3.54095
3.61166
3.68164
3.75078
3.819
3.8862
3.95229
4.01718
4.08078
4.143
4.20376
4.26297
4.32056
4.37644
4.43053
4.48277
4.53307
4.58137
4.6276
4.67171
4.71363
4.7533
4.79068
4.82571
4.85835
4.88857
4.91632
4.94157
4.96431
4.9845
5.00213
5.01719
5.02968
5.0396
5.04695
5.05176
5.05405
5.05386
5.05127
5.04599
5.03829
5.02821
5.01578
5.00105
4.9841
4.96497
4.94374
4.92047
4.89524
4.86813
4.83921
4.80858
4.7763
4.74249
4.70721
4.67056
4.63263
4.59352
4.55331
4.51209
4.46995
4.42697
4.38325
4.33886
4.29387
4.24837
4.20242
4.15608
4.10944
4.06254
4.01547
3.96829
3.92107
3.87389
3.82683
3.78
3.7335
3.68747
3.64206
3.59745
3.55377
3.51117
3.46901
3.42633
0.0394316
0.0633806
0.0795531
0.091213
0.100751
0.109129
0.116825
0.124122
0.13121
0.13823
0.145286
0.152462
0.159824
0.167426
0.175314
0.183516
0.192063
0.200984
0.210301
0.220033
0.230201
0.240823
0.251917
0.263501
0.275594
0.288218
0.3014
0.31514
0.329458
0.344376
0.359916
0.376099
0.39295
0.410491
0.428749
0.447747
0.467512
0.488071
0.509449
0.531674
0.554772
0.578772
0.603702
0.629602
0.656501
0.684433
0.713431
0.743529
0.774761
0.807161
0.840762
0.875593
0.911684
0.949064
0.987757
1.02779
1.06919
1.11197
1.15615
1.20176
1.24881
1.2973
1.34726
1.39867
1.45155
1.50589
1.56167
1.61889
1.67753
1.73757
1.79897
1.86171
1.92574
1.99103
2.05754
2.12519
2.19396
2.26376
2.33454
2.40624
2.47877
2.55207
2.62605
2.70064
2.77574
2.85128
2.92715
3.00328
3.07956
3.1559
3.23221
3.30838
3.38432
3.45992
3.53509
3.60972
3.68373
3.757
3.82943
3.90094
3.97143
4.04079
4.10894
4.17579
4.24124
4.30521
4.36761
4.42836
4.48738
4.5446
4.59992
4.65328
4.7046
4.75383
4.80089
4.84573
4.88829
4.9285
4.96633
5.00171
5.03462
5.06502
5.09286
5.11812
5.14077
5.1608
5.17818
5.1929
5.20497
5.21438
5.22115
5.22529
5.22684
5.22592
5.22239
5.21612
5.20735
5.19612
5.18246
5.16643
5.14809
5.12749
5.10472
5.07983
5.05291
5.02403
4.99328
4.96074
4.92651
4.89067
4.85332
4.81454
4.77444
4.73311
4.69065
4.64714
4.6027
4.5574
4.51135
4.46462
4.4173
4.36947
4.32121
4.27259
4.22368
4.17455
4.12528
4.07594
4.02661
3.97736
3.92829
3.8795
3.83109
3.78321
3.73599
3.6896
3.64416
3.59981
3.55598
3.51198
0.0407979
0.0634823
0.0795695
0.0912331
0.100778
0.109165
0.116872
0.124181
0.131282
0.138309
0.145366
0.152534
0.159876
0.167446
0.17529
0.183434
0.191911
0.200744
0.209958
0.219574
0.229614
0.240096
0.251041
0.262469
0.274399
0.286848
0.29983
0.313373
0.327507
0.34226
0.35766
0.373735
0.390516
0.408032
0.426314
0.445393
0.465299
0.486065
0.507726
0.53032
0.553876
0.578415
0.603946
0.630533
0.658225
0.687062
0.717083
0.748327
0.780835
0.814648
0.849805
0.88633
0.924254
0.963604
1.00441
1.04668
1.09045
1.13573
1.18254
1.23089
1.28079
1.33225
1.38527
1.43984
1.49595
1.55359
1.61275
1.6734
1.7355
1.79904
1.86396
1.93023
1.9978
2.06662
2.13663
2.20777
2.27998
2.35319
2.42733
2.50233
2.5781
2.65456
2.73164
2.80924
2.88727
2.96565
3.04427
3.12306
3.2019
3.2807
3.35936
3.43779
3.51588
3.59353
3.67064
3.74712
3.82286
3.89777
3.97174
4.04468
4.1165
4.18709
4.25638
4.32426
4.39065
4.45547
4.51864
4.58006
4.63966
4.69737
4.75311
4.8068
4.85838
4.90778
4.95495
4.99983
5.04235
5.08246
5.12013
5.1553
5.18792
5.21798
5.24542
5.27024
5.29239
5.31186
5.32864
5.3427
5.35407
5.36273
5.36869
5.37198
5.37263
5.37088
5.36628
5.35897
5.3491
5.33671
5.32185
5.30456
5.28491
5.26294
5.23874
5.21238
5.18392
5.15346
5.12108
5.08686
5.05089
5.01327
4.97409
4.93346
4.89146
4.8482
4.80379
4.75831
4.71187
4.66457
4.6165
4.56776
4.51844
4.46862
4.41839
4.36782
4.31699
4.26597
4.21485
4.1637
4.11261
4.06164
4.01091
3.96049
3.91051
3.8611
3.81238
3.76451
3.71761
3.67182
3.62661
3.5816
0.0419866
0.063328
0.0792465
0.0908296
0.100307
0.108635
0.11629
0.123552
0.13061
0.137598
0.144614
0.151737
0.159026
0.166529
0.174285
0.182324
0.190676
0.199365
0.208415
0.217854
0.227704
0.237989
0.248735
0.259965
0.271705
0.283983
0.296827
0.310268
0.324336
0.339063
0.35448
0.370624
0.387532
0.405246
0.423813
0.44326
0.463622
0.484936
0.507237
0.530547
0.554881
0.580317
0.606922
0.634756
0.663857
0.694266
0.726023
0.759168
0.793736
0.829756
0.867258
0.906278
0.946848
0.989006
1.03277
1.07813
1.12511
1.17371
1.22394
1.27581
1.3293
1.38441
1.44112
1.49942
1.55929
1.62069
1.6836
1.74797
1.81377
1.88094
1.94944
2.01922
2.09021
2.16236
2.2356
2.30987
2.38509
2.4612
2.53811
2.61574
2.69402
2.77287
2.85219
2.9319
3.01191
3.09212
3.17246
3.25281
3.3331
3.41322
3.49307
3.57256
3.6516
3.73008
3.80791
3.885
3.96124
4.03654
4.11082
4.18396
4.2559
4.32653
4.39576
4.46351
4.52969
4.59423
4.65705
4.71806
4.77719
4.83437
4.88953
4.94258
4.99348
5.04216
5.08857
5.13265
5.17435
5.21361
5.25039
5.28465
5.31636
5.34547
5.37195
5.39579
5.41696
5.43543
5.4512
5.46425
5.47458
5.48219
5.48709
5.48932
5.48899
5.48619
5.4804
5.47199
5.46099
5.44745
5.43142
5.41293
5.39204
5.36882
5.34334
5.31565
5.28585
5.25401
5.22022
5.18455
5.14711
5.10799
5.06729
5.0251
4.98152
4.93667
4.89063
4.84352
4.79544
4.74649
4.69678
4.6464
4.59545
4.54402
4.49219
4.44006
4.3877
4.33518
4.2826
4.23003
4.17756
4.12526
4.07323
4.02157
3.97039
3.9198
3.86994
3.82094
3.7729
3.72599
3.67971
3.63404
0.0429842
0.0628968
0.0784689
0.0898663
0.0991903
0.10738
0.114911
0.122063
0.129022
0.135917
0.142843
0.149873
0.157063
0.164458
0.172097
0.180012
0.188236
0.1968
0.205731
0.215055
0.2248
0.234996
0.245671
0.25686
0.268593
0.280903
0.29383
0.307413
0.321703
0.336732
0.352537
0.369163
0.386653
0.405042
0.424343
0.444607
0.465911