/*--------------------------------*- C++ -*----------------------------------*\
| =========                 |                                                 |
| \\      /  F ield         | OpenFOAM: The Open Source CFD Toolbox           |
|  \\    /   O peration     | Version:  2312                                  |
|   \\  /    A nd           | Website:  www.openfoam.com                      |
|    \\/     M anipulation  |                                                 |
\*---------------------------------------------------------------------------*/
FoamFile
{
    version     2.0;
    format      ascii;
    arch        "LSB;label=32;scalar=64";
    class       volScalarField;
    location    "250";
    object      nut;
}
// * * * * * * * * * * * * * * * * * * * * * * * * * * * * * * * * * * * * * //

dimensions      [0 2 -1 0 0 0 0];

internalField   nonuniform List<scalar> 
12225
(
2.70744e-05
3.55747e-05
4.05232e-05
4.31924e-05
4.44515e-05
4.49643e-05
4.49108e-05
4.48716e-05
4.4503e-05
4.41847e-05
4.38513e-05
4.35232e-05
4.32271e-05
4.29454e-05
4.27117e-05
4.24744e-05
4.23151e-05
4.20876e-05
0.000212993
8.46399e-05
5.5909e-05
4.40563e-05
3.83769e-05
3.53544e-05
3.38475e-05
3.30815e-05
3.28539e-05
3.28739e-05
3.3216e-05
3.3603e-05
3.42306e-05
3.47982e-05
3.55868e-05
3.62269e-05
3.71327e-05
3.76559e-05
0.000656989
0.000306533
0.000194013
0.000142104
0.000113224
9.44973e-05
8.20235e-05
7.33149e-05
6.67999e-05
6.19617e-05
5.80401e-05
5.51131e-05
5.25292e-05
5.07156e-05
4.88957e-05
4.78496e-05
4.63602e-05
4.53819e-05
0.000863003
0.000609451
0.000451622
0.000350847
0.000289298
0.000246498
0.000216681
0.000194295
0.000177762
0.000164289
0.000154046
0.000145062
0.000138198
0.000131726
0.000126851
0.000122049
0.000118083
0.000113619
0.000877431
0.000776409
0.000690862
0.000591932
0.000517323
0.000458093
0.000413479
0.000377228
0.000349672
0.000325962
0.000307901
0.000291295
0.000278925
0.000266584
0.000257879
0.000248232
0.00024221
0.000233289
0.000858411
0.000835293
0.000807286
0.000753097
0.00069939
0.000648247
0.000604834
0.000565863
0.000534205
0.000505358
0.000482493
0.000460719
0.000444084
0.000427076
0.000414968
0.000401103
0.000392681
0.000379907
0.000854258
0.000849543
0.000840712
0.000823039
0.000798601
0.000768464
0.000739181
0.000709551
0.000683357
0.000657721
0.000636206
0.000614794
0.000597706
0.000579779
0.000566553
0.000551125
0.000541633
0.000526645
0.00085239
0.000851592
0.000849792
0.000844527
0.000835946
0.000824519
0.000810178
0.000793463
0.000777242
0.000760012
0.000744559
0.000728286
0.000714568
0.000699756
0.000688194
0.000674675
0.000665745
0.000651971
0.000851903
0.00085148
0.000851079
0.000849881
0.000847545
0.000843616
0.000838592
0.000831271
0.000823646
0.000814989
0.000806297
0.000796549
0.000787795
0.000778062
0.000769856
0.000760444
0.000753331
0.000743467
0.000851815
0.000851373
0.000851073
0.000850609
0.000850034
0.000848808
0.000847331
0.000844857
0.000841997
0.000838303
0.000834501
0.000829861
0.000825422
0.000820269
0.000815574
0.00081025
0.000805601
0.000799749
0.000851799
0.000851357
0.000851021
0.000850623
0.000850325
0.000849824
0.000849338
0.000848517
0.000847604
0.00084626
0.000844872
0.000843007
0.0008412
0.000838881
0.000836817
0.000834099
0.000832042
0.000828842
0.000851792
0.000851359
0.000851001
0.000850611
0.000850306
0.000849938
0.000849631
0.00084921
0.000848815
0.000848233
0.000847676
0.000846875
0.000846137
0.000845091
0.000844212
0.000842914
0.000841974
0.000840423
0.000851787
0.000851362
0.000850989
0.000850607
0.00085028
0.000849936
0.000849644
0.000849319
0.00084904
0.000848697
0.000848398
0.000848001
0.000847658
0.000847179
0.000846786
0.00084621
0.000845771
0.0008451
0.000851783
0.000851364
0.00085098
0.000850604
0.000850263
0.000849925
0.000849622
0.000849315
0.000849043
0.000848758
0.000848506
0.000848232
0.00084799
0.000847714
0.000847472
0.000847185
0.000846936
0.000846635
0.000851781
0.000851364
0.000850974
0.0008506
0.000850251
0.000849916
0.000849602
0.0008493
0.000849018
0.000848744
0.000848488
0.000848238
0.000848004
0.000847773
0.000847556
0.00084734
0.000847136
0.000846932
0.00085178
0.000851363
0.00085097
0.000850596
0.000850242
0.000849906
0.000849588
0.000849285
0.000848998
0.000848724
0.000848463
0.000848213
0.000847976
0.000847748
0.000847531
0.000847322
0.000847123
0.000846931
0.000851779
0.000851362
0.000850967
0.000850592
0.000850236
0.000849899
0.000849578
0.000849273
0.000848984
0.000848707
0.000848444
0.000848192
0.000847952
0.000847722
0.000847502
0.000847292
0.00084709
0.000846898
0.000851779
0.000851362
0.000850965
0.000850589
0.000850233
0.000849894
0.000849572
0.000849265
0.000848974
0.000848696
0.00084843
0.000848177
0.000847935
0.000847703
0.000847481
0.000847269
0.000847066
0.000846871
0.000851779
0.000851362
0.000850965
0.000850589
0.000850232
0.000849892
0.00084957
0.000849262
0.00084897
0.000848691
0.000848424
0.00084817
0.000847927
0.000847694
0.000847471
0.000847258
0.000847054
0.000846858
0.000851779
0.000851362
0.000850966
0.000850591
0.000850234
0.000849895
0.000849573
0.000849266
0.000848973
0.000848695
0.000848428
0.000848174
0.00084793
0.000847697
0.000847473
0.000847259
0.000847052
0.000846855
0.000851779
0.000851364
0.000850968
0.000850595
0.000850238
0.000849902
0.000849578
0.000849274
0.000848979
0.0008487
0.000848427
0.000848168
0.000847911
0.000847667
0.00084742
0.000847187
0.000846947
0.000846723
0.000851778
0.000851367
0.000850969
0.000850603
0.000850243
0.00084991
0.000849573
0.000849254
0.000848916
0.000848587
0.000848223
0.000847865
0.000847456
0.00084706
0.000846596
0.00084616
0.000845637
0.00084517
0.000851779
0.000851381
0.000850972
0.000850624
0.000850209
0.000849789
0.000849233
0.000848616
0.000847803
0.000846896
0.000845768
0.00084456
0.000843125
0.000841663
0.000839959
0.000838332
0.000836385
0.000834698
0.000851855
0.000851467
0.000850932
0.000850394
0.000849126
0.000847458
0.000844947
0.00084194
0.000838072
0.000833848
0.00082896
0.000823929
0.000818453
0.000812997
0.000807277
0.000801726
0.000795841
0.000790773
0.000852785
0.00085138
0.000849189
0.000845095
0.000836884
0.000827817
0.000815748
0.000802823
0.000788373
0.000774369
0.000759662
0.000746077
0.000732118
0.000719683
0.000706819
0.000695842
0.000684087
0.000674694
0.000858211
0.000842299
0.000828961
0.000803015
0.000769257
0.000735475
0.000700803
0.000669705
0.000639499
0.000613594
0.000588613
0.000567745
0.000547316
0.000530659
0.000513866
0.00050061
0.000486567
0.000476067
0.000864337
0.000785613
0.000712709
0.000628304
0.00055828
0.00050309
0.000455748
0.000418868
0.000386625
0.000361594
0.000338764
0.000321228
0.000304415
0.000291772
0.000278911
0.000269548
0.000259369
0.000252304
0.000775957
0.000540063
0.000397942
0.000312965
0.000258158
0.000219636
0.000190507
0.000169565
0.000152553
0.000139992
0.000129095
0.000121017
0.000113528
0.000108076
0.000102634
9.88115e-05
9.46876e-05
9.19149e-05
0.000323583
0.000164841
0.000111417
8.60758e-05
7.08266e-05
6.13546e-05
5.50185e-05
5.08856e-05
4.79533e-05
4.60098e-05
4.45906e-05
4.36882e-05
4.30394e-05
4.2695e-05
4.24553e-05
4.24393e-05
4.2436e-05
4.26226e-05
3.26574e-05
3.90518e-05
4.3892e-05
4.69715e-05
4.93654e-05
5.11699e-05
5.25343e-05
5.34595e-05
5.41141e-05
5.44634e-05
5.46907e-05
5.46975e-05
5.46544e-05
5.45501e-05
5.43773e-05
5.41699e-05
5.3945e-05
5.37084e-05
3.09487e-06
8.48696e-06
1.0149e-05
1.14678e-05
1.24871e-05
1.32792e-05
1.39035e-05
1.44032e-05
1.48334e-05
1.5237e-05
1.5619e-05
1.59937e-05
1.63726e-05
1.67616e-05
1.71615e-05
1.75727e-05
1.80021e-05
1.84782e-05
1.90564e-05
1.97312e-05
2.04638e-05
2.12394e-05
2.20566e-05
2.2919e-05
2.38298e-05
2.47906e-05
2.57952e-05
2.68393e-05
2.79169e-05
2.90229e-05
3.01524e-05
3.12964e-05
3.24479e-05
3.36024e-05
3.4755e-05
3.59024e-05
3.70425e-05
3.81742e-05
3.92968e-05
4.04104e-05
4.1516e-05
4.26152e-05
4.37106e-05
4.48063e-05
4.59075e-05
4.70218e-05
4.81701e-05
4.92955e-05
5.04238e-05
5.15443e-05
5.26627e-05
5.37769e-05
5.48885e-05
5.59971e-05
5.71034e-05
5.82074e-05
5.93092e-05
6.0409e-05
6.15067e-05
6.26024e-05
6.3696e-05
6.47874e-05
6.58764e-05
6.69629e-05
6.80465e-05
6.91271e-05
7.02042e-05
7.12776e-05
7.23468e-05
7.34115e-05
7.44711e-05
7.55254e-05
7.65736e-05
7.76154e-05
7.86502e-05
7.96775e-05
8.06966e-05
8.17071e-05
8.27084e-05
8.36999e-05
8.46808e-05
8.56508e-05
8.66091e-05
8.75552e-05
8.84882e-05
8.94078e-05
9.03132e-05
9.12037e-05
9.20786e-05
9.29374e-05
9.37791e-05
9.46031e-05
9.54083e-05
9.61939e-05
9.69587e-05
9.77015e-05
9.84211e-05
9.91161e-05
9.97857e-05
0.00010043
0.000101051
0.000101656
0.000102234
0.000102791
0.000103324
0.000103833
0.000104318
0.000104779
0.000105215
0.000105626
0.000106011
0.00010637
0.000106703
0.000107009
0.000107288
0.00010754
0.000107765
0.000107963
0.000108132
0.000108274
0.000108388
0.000108475
0.000108533
0.000108563
0.000108566
0.000108541
0.000108489
0.00010841
0.000108303
0.00010817
0.000108014
0.000107831
0.00010762
0.000107375
0.00010711
0.000106828
0.000106517
0.000106185
0.000105829
0.000105451
0.000105053
0.000104634
0.000104196
0.000103739
0.000103265
0.000102773
0.000102266
0.000101742
0.000101205
0.000100653
0.000100089
9.95125e-05
9.89247e-05
9.83264e-05
9.77184e-05
9.71013e-05
9.6476e-05
9.58429e-05
9.52028e-05
9.45561e-05
9.39036e-05
9.32456e-05
9.25831e-05
9.1917e-05
9.12506e-05
9.06099e-05
9.0151e-05
8.97885e-05
8.94339e-05
8.90793e-05
8.87234e-05
8.83655e-05
8.80046e-05
8.76391e-05
8.72658e-05
8.68793e-05
8.64685e-05
8.60039e-05
8.54155e-05
8.36108e-05
4.86909e-06
2.07942e-05
4.57723e-05
6.67533e-05
8.17705e-05
9.20779e-05
9.9165e-05
0.000103916
0.000106875
0.000108841
0.000110586
0.000112438
0.000114464
0.00011661
0.000118771
0.000120841
0.000122731
0.000124383
0.000125827
0.000127172
0.00012849
0.000129871
0.000131396
0.00013315
0.000135245
0.00013784
0.00014085
0.00014428
0.000148127
0.000152381
0.000157026
0.000162047
0.000167449
0.000173198
0.000179308
0.000185712
0.000192379
0.000199278
0.000206377
0.000213644
0.000221049
0.000228561
0.00023615
0.000243791
0.000251461
0.000259151
0.000266873
0.000274664
0.000282501
0.000290401
0.000298359
0.000306381
0.000314468
0.000322624
0.000330851
0.000339152
0.000347531
0.00035599
0.000364532
0.00037316
0.000381876
0.000390681
0.000399579
0.00040857
0.000417656
0.000426838
0.000436115
0.000445488
0.000454956
0.000464517
0.00047417
0.000483914
0.000493745
0.000503661
0.000513658
0.000523733
0.000533883
0.000544101
0.000554385
0.000564728
0.000575126
0.000585572
0.000596062
0.000606589
0.000617147
0.00062773
0.000638331
0.000648945
0.000659564
0.000670184
0.000680799
0.000691402
0.000701989
0.000712551
0.000723081
0.000733564
0.000743979
0.000754287
0.000764422
0.000774262
0.000783609
0.000792239
0.000800837
0.000809278
0.000817586
0.000825747
0.000833758
0.000841611
0.000849298
0.000856812
0.000864145
0.000871291
0.000878243
0.000884993
0.000891536
0.000897865
0.000903973
0.000909856
0.000915508
0.000920923
0.000926098
0.000931028
0.000935708
0.000940137
0.000944311
0.000948228
0.000951888
0.000955291
0.000958438
0.000961328
0.000963947
0.000966351
0.000968588
0.000970378
0.000971851
0.000973219
0.000974321
0.000975165
0.000975768
0.000976136
0.000976275
0.00097619
0.000975887
0.000975366
0.000974638
0.000973713
0.000972599
0.000971304
0.000969834
0.000968197
0.000966402
0.000964456
0.000962367
0.000960142
0.000957789
0.000955313
0.000952723
0.000950024
0.00094722
0.000944318
0.00094132
0.000938227
0.000935038
0.000931735
0.000928245
0.000924185
0.000918278
0.000911277
0.000903923
0.000896403
0.000888764
0.000881018
0.000873162
0.000865184
0.000857048
0.000848706
0.000840007
0.000830688
0.000819273
0.000791687
6.22327e-06
3.17493e-05
7.16377e-05
0.000107287
0.000135235
0.000155961
0.000170946
0.000181721
0.000189481
0.000195248
0.000199851
0.000203863
0.000207622
0.000211294
0.000214939
0.000218561
0.000222155
0.000225728
0.000229322
0.000233068
0.000237147
0.000241671
0.000246729
0.000252385
0.000258656
0.000265477
0.000272976
0.000281186
0.000290106
0.00029972
0.000309993
0.00032087
0.000332522
0.000345136
0.000358282
0.000371853
0.000385795
0.000400058
0.000414595
0.000429366
0.000444339
0.000459481
0.000474767
0.000490177
0.000505697
0.000521318
0.000537034
0.000552869
0.000568819
0.00058489
0.000601085
0.000617407
0.000633862
0.000650453
0.000667186
0.000684064
0.000701092
0.000718274
0.000735615
0.000753118
0.000770784
0.000788615
0.000806611
0.000824774
0.000843108
0.000861611
0.000880284
0.000899122
0.000918123
0.000937283
0.000956597
0.00097606
0.000995666
0.00101541
0.00103528
0.00105527
0.00107537
0.00109557
0.00111587
0.00113624
0.00115669
0.00117719
0.00119775
0.00121833
0.00123894
0.00125956
0.00128018
0.00130078
0.00132135
0.00134187
0.00136234
0.00138273
0.00140303
0.00142321
0.00144326
0.00146313
0.00148279
0.00150218
0.00152122
0.00153982
0.0015579
0.00157554
0.00159295
0.00161007
0.00162691
0.00164344
0.00165966
0.00167553
0.00169106
0.00170622
0.00172101
0.0017354
0.00174938
0.00176294
0.00177606
0.00178875
0.00180097
0.00181272
0.00182399
0.00183477
0.00184505
0.00185482
0.00186407
0.00187281
0.00188101
0.00188868
0.00189582
0.00190242
0.00190849
0.00191402
0.00191903
0.00192355
0.00192773
0.00193112
0.00193381
0.00193617
0.00193798
0.00193929
0.00194011
0.00194044
0.00194029
0.00193967
0.00193861
0.0019371
0.00193516
0.00193282
0.00193007
0.00192695
0.00192347
0.00191963
0.00191546
0.00191098
0.00190619
0.00190111
0.00189576
0.00189015
0.00188429
0.00187819
0.00187187
0.00186533
0.00185859
0.00185164
0.00184448
0.00183708
0.00182934
0.00182084
0.00181061
0.00179908
0.0017869
0.00177433
0.00176148
0.00174839
0.00173505
0.00172146
0.00170753
0.00169318
0.00167811
0.00166159
0.00164076
0.00159806
7.15954e-06
4.39143e-05
9.59709e-05
0.000141462
0.000177433
0.000204655
0.000224815
0.000239609
0.000250533
0.000258833
0.000265495
0.000271249
0.000276593
0.000281841
0.00028718
0.000292716
0.000298524
0.000304673
0.000311246
0.000318341
0.000326065
0.000334502
0.000343723
0.000353775
0.00036469
0.000376487
0.000389196
0.000402828
0.000417375
0.000432822
0.000449159
0.000466389
0.00048428
0.000502526
0.000521268
0.000540485
0.000560122
0.000580123
0.000600431
0.000620989
0.000641804
0.000662854
0.00068412
0.000705594
0.000727284
0.000749216
0.000771379
0.000793719
0.000816231
0.000838918
0.000861784
0.000884834
0.000908074
0.000931508
0.000955141
0.000978978
0.00100302
0.00102728
0.00105175
0.00107644
0.00110136
0.0011265
0.00115187
0.00117746
0.00120327
0.00122931
0.00125556
0.00128203
0.0013087
0.00133557
0.00136264
0.00138989
0.00141732
0.00144491
0.00147265
0.00150053
0.00152854
0.00155666
0.00158488
0.00161319
0.00164156
0.00166999
0.00169845
0.00172693
0.0017554
0.00178387
0.00181229
0.00184066
0.00186895
0.00189714
0.00192521
0.00195314
0.0019809
0.00200846
0.00203579
0.00206284
0.00208959
0.00211597
0.00214192
0.0021674
0.00219239
0.00221698
0.00224119
0.00226502
0.00228845
0.00231144
0.00233399
0.00235608
0.00237767
0.00239876
0.00241932
0.00243933
0.00245878
0.00247765
0.00249592
0.00251357
0.00253059
0.00254696
0.00256267
0.0025777
0.00259204
0.00260568
0.00261861
0.00263082
0.0026423
0.00265304
0.00266305
0.00267231
0.00268083
0.00268861
0.00269566
0.00270211
0.00270805
0.00271287
0.0027167
0.00272011
0.00272273
0.00272467
0.00272591
0.00272647
0.00272636
0.00272561
0.00272421
0.00272221
0.0027196
0.00271642
0.00271267
0.0027084
0.00270361
0.00269832
0.00269256
0.00268635
0.0026797
0.00267264
0.0026652
0.00265737
0.0026492
0.00264068
0.00263184
0.00262268
0.00261323
0.00260347
0.00259342
0.00258304
0.00257223
0.00256068
0.0025478
0.00253376
0.00251895
0.00250362
0.00248789
0.00247182
0.00245541
0.00243865
0.00242157
0.00240398
0.00238553
0.00236521
0.00233972
0.00229399
7.8126e-06
5.53005e-05
0.00011821
0.000171873
0.000214353
0.000246686
0.00027094
0.000289066
0.000302755
0.000313409
0.000322147
0.000329815
0.000337023
0.000344185
0.000351572
0.000359359
0.000367665
0.000376586
0.000386205
0.000396603
0.000407855
0.000420023
0.000433153
0.000447277
0.000462414
0.000478567
0.00049573
0.00051388
0.000532982
0.000552987
0.000573832
0.000595436
0.000617686
0.000640489
0.000663826
0.00068766
0.000711947
0.000736649
0.000761734
0.000787188
0.000812947
0.000838983
0.000865274
0.000891807
0.000918561
0.000945508
0.000972636
0.000999981
0.00102755
0.00105535
0.00108337
0.00111164
0.00114014
0.00116888
0.00119787
0.00122711
0.0012566
0.00128634
0.00131632
0.00134657
0.00137709
0.00140786
0.0014389
0.0014702
0.00150175
0.00153356
0.0015656
0.00159789
0.0016304
0.00166313
0.00169606
0.00172919
0.00176251
0.00179599
0.00182963
0.0018634
0.0018973
0.0019313
0.00196539
0.00199955
0.00203375
0.00206799
0.00210223
0.00213647
0.00217067
0.00220481
0.00223887
0.00227284
0.00230667
0.00234036
0.00237387
0.00240717
0.00244025
0.00247305
0.00250556
0.00253774
0.00256955
0.00260096
0.00263194
0.00266248
0.00269257
0.00272221
0.00275141
0.00278014
0.00280839
0.00283613
0.00286333
0.00288999
0.00291606
0.00294153
0.00296639
0.0029906
0.00301414
0.003037
0.00305915
0.00308057
0.00310125
0.00312117
0.00314031
0.00315866
0.00317619
0.0031929
0.00320877
0.00322379
0.00323795
0.00325125
0.00326367
0.00327521
0.00328588
0.00329566
0.0033046
0.00331293
0.00332039
0.00332663
0.0033318
0.00333638
0.00334006
0.00334289
0.00334489
0.00334607
0.00334645
0.00334605
0.00334488
0.00334297
0.00334033
0.003337
0.00333299
0.00332833
0.00332304
0.00331714
0.00331067
0.00330364
0.00329608
0.00328802
0.00327947
0.00327046
0.00326102
0.00325115
0.00324088
0.00323022
0.00321919
0.00320779
0.00319602
0.00318387
0.00317125
0.00315796
0.00314368
0.00312842
0.00311241
0.00309582
0.00307875
0.00306127
0.0030434
0.00302514
0.00300644
0.00298719
0.00296705
0.00294499
0.00291778
0.00287394
8.28133e-06
6.57612e-05
0.000138217
0.000199061
0.000247252
0.000284219
0.000312273
0.000333584
0.000349999
0.000363047
0.000373953
0.000383659
0.000392862
0.000402054
0.000411571
0.000421636
0.0004324
0.00044397
0.000456427
0.000469836
0.000484249
0.000499704
0.000516226
0.000533825
0.000552497
0.000572226
0.000592982
0.000614724
0.000637399
0.000660947
0.000685299
0.000710382
0.000736123
0.000762461
0.000789354
0.000816758
0.000844634
0.000872944
0.000901654
0.000930734
0.000960148
0.000989872
0.00101989
0.00105017
0.00108072
0.00111151
0.00114256
0.00117385
0.0012054
0.00123722
0.00126929
0.00130162
0.00133423
0.0013671
0.00140024
0.00143366
0.00146736
0.00150135
0.00153562
0.00157017
0.00160499
0.00164007
0.00167543
0.00171104
0.00174691
0.00178302
0.00181938
0.00185597
0.00189277
0.00192979
0.001967
0.00200439
0.00204196
0.00207967
0.00211753
0.00215551
0.00219359
0.00223176
0.00226999
0.00230827
0.00234658
0.00238489
0.00242319
0.00246145
0.00249965
0.00253777
0.00257578
0.00261366
0.00265138
0.00268892
0.00272625
0.00276335
0.00280019
0.00283673
0.00287294
0.00290881
0.00294429
0.00297936
0.00301401
0.0030482
0.00308194
0.0031152
0.00314797
0.00318023
0.00321196
0.00324314
0.00327373
0.00330372
0.00333309
0.0033618
0.00338983
0.00341717
0.00344378
0.00346965
0.00349475
0.00351907
0.00354257
0.00356525
0.00358708
0.00360805
0.00362813
0.00364731
0.00366558
0.00368293
0.00369933
0.00371478
0.00372928
0.00374281
0.00375537
0.00376697
0.00377769
0.00378774
0.00379666
0.0038043
0.00381092
0.00381674
0.00382159
0.0038255
0.00382847
0.00383052
0.00383168
0.00383197
0.00383139
0.00382998
0.00382775
0.00382473
0.00382095
0.00381643
0.0038112
0.00380528
0.00379871
0.0037915
0.00378369
0.0037753
0.00376635
0.00375688
0.00374691
0.00373645
0.00372553
0.00371416
0.00370237
0.00369016
0.00367753
0.00366448
0.00365095
0.00363681
0.0036219
0.00360617
0.00358975
0.00357274
0.00355522
0.00353727
0.0035189
0.00350013
0.00348094
0.00346124
0.00344073
0.00341846
0.00339158
0.00335152
8.62613e-06
7.50032e-05
0.000155557
0.000222782
0.000276228
0.000317655
0.000349497
0.000374065
0.000393322
0.000408894
0.000422091
0.000433936
0.0004452
0.000456439
0.000468044
0.000480278
0.000493319
0.000507282
0.000522246
0.000538266
0.000555374
0.00057359
0.000592918
0.00061335
0.000634866
0.000657433
0.000681011
0.00070555
0.000730992
0.000757277
0.000784341
0.000812122
0.000840561
0.000869606
0.000899212
0.000929337
0.000959943
0.000990994
0.00102246
0.0010543
0.00108651
0.00111905
0.0011519
0.00118506
0.00121851
0.00125224
0.00128625
0.00132054
0.0013551
0.00138993
0.00142504
0.00146042
0.00149609
0.00153202
0.00156824
0.00160474
0.00164151
0.00167857
0.00171591
0.00175351
0.00179139
0.00182952
0.00186792
0.00190657
0.00194546
0.00198459
0.00202395
0.00206353
0.00210331
0.0021433
0.00218346
0.0022238
0.00226429
0.00230492
0.00234567
0.00238653
0.00242748
0.0024685
0.00250958
0.00255068
0.0025918
0.00263291
0.00267399
0.00271502
0.00275597
0.00279683
0.00283756
0.00287815
0.00291858
0.0029588
0.00299881
0.00303857
0.00307805
0.00311724
0.00315609
0.00319459
0.00323271
0.00327042
0.00330771
0.00334455
0.00338092
0.00341681
0.0034522
0.00348705
0.00352136
0.00355509
0.00358822
0.00362073
0.00365259
0.00368377
0.00371425
0.00374401
0.00377301
0.00380125
0.00382869
0.00385531
0.0038811
0.00390602
0.00393006
0.00395319
0.00397541
0.00399668
0.004017
0.00403635
0.00405471
0.00407208
0.00408843
0.00410376
0.00411807
0.00413135
0.00414383
0.00415535
0.00416576
0.00417483
0.00418293
0.00419006
0.00419617
0.00420125
0.00420533
0.00420843
0.00421056
0.00421174
0.00421199
0.00421133
0.00420979
0.0042074
0.00420417
0.00420013
0.00419532
0.00418976
0.00418347
0.0041765
0.00416886
0.00416059
0.00415171
0.00414224
0.00413223
0.00412169
0.00411063
0.00409909
0.00408709
0.00407463
0.00406172
0.00404836
0.00403452
0.00402013
0.00400509
0.00398936
0.003973
0.00395608
0.00393866
0.00392079
0.00390252
0.00388388
0.00386486
0.00384542
0.00382531
0.00380373
0.00377827
0.00374244
9.05161e-06
8.11236e-05
0.000168669
0.000242118
0.000300791
0.000346786
0.000382557
0.000410541
0.0004328
0.000451042
0.000466652
0.000480718
0.000494073
0.000507332
0.000520932
0.000535173
0.000550257
0.000566312
0.000583419
0.000601625
0.000620953
0.000641406
0.000662976
0.000685642
0.000709374
0.000734134
0.000759876
0.000786545
0.000814084
0.000842436
0.000871542
0.000901347
0.0009318
0.000962853
0.000994464
0.00102659
0.0010592
0.00109226
0.00112574
0.00115961
0.00119385
0.00122843
0.00126336
0.0012986
0.00133415
0.00137001
0.00140616
0.00144259
0.00147929
0.00151627
0.00155352
0.00159104
0.00162883
0.00166688
0.00170521
0.00174381
0.00178267
0.0018218
0.00186118
0.00190083
0.00194072
0.00198086
0.00202125
0.00206187
0.00210272
0.00214379
0.00218507
0.00222656
0.00226824
0.0023101
0.00235214
0.00239433
0.00243666
0.00247913
0.00252171
0.00256439
0.00260715
0.00264998
0.00269286
0.00273577
0.00277869
0.0028216
0.00286448
0.00290731
0.00295007
0.00299274
0.00303529
0.0030777
0.00311995
0.00316201
0.00320386
0.00324547
0.00328682
0.00332788
0.00336862
0.00340903
0.00344907
0.00348872
0.00352797
0.00356677
0.00360512
0.003643
0.00368037
0.00371722
0.00375352
0.00378924
0.00382437
0.00385886
0.00389271
0.00392588
0.00395834
0.00399008
0.00402106
0.00405127
0.00408067
0.00410924
0.00413697
0.00416382
0.00418977
0.00421481
0.0042389
0.00426204
0.0042842
0.00430537
0.00432552
0.00434465
0.00436273
0.00437976
0.00439573
0.00441066
0.00442478
0.00443773
0.00444964
0.00446018
0.00446977
0.00447827
0.00448568
0.00449203
0.00449731
0.00450156
0.00450478
0.004507
0.00450823
0.0045085
0.00450783
0.00450624
0.00450377
0.00450043
0.00449627
0.0044913
0.00448556
0.00447908
0.00447188
0.00446401
0.00445549
0.00444634
0.00443661
0.0044263
0.00441546
0.00440409
0.00439223
0.00437989
0.00436708
0.0043538
0.00434005
0.00432579
0.00431096
0.00429554
0.00427955
0.00426304
0.00424605
0.00422863
0.00421084
0.00419272
0.00417429
0.00415555
0.00413631
0.00411591
0.00409243
0.00406167
9.67077e-06
8.37052e-05
0.000177107
0.000256735
0.000320703
0.000371422
0.000411275
0.000442821
0.000468219
0.000489252
0.000507366
0.000523708
0.000539161
0.000554388
0.000569869
0.00058594
0.000602826
0.000620671
0.000639564
0.000659552
0.000680654
0.000702864
0.000726163
0.000750522
0.00077591
0.000802294
0.000829637
0.000857873
0.00088694
0.000916783
0.000947348
0.000978585
0.00101045
0.00104289
0.00107588
0.00110937
0.00114334
0.00117774
0.00121256
0.00124776
0.00128334
0.00131926
0.00135551
0.00139209
0.00142899
0.00146623
0.00150375
0.00154155
0.0015796
0.0016179
0.00165646
0.00169526
0.00173432
0.00177362
0.00181316
0.00185296
0.00189299
0.00193327
0.00197378
0.00201453
0.00205551
0.00209672
0.00213815
0.0021798
0.00222167
0.00226374
0.00230601
0.00234847
0.00239113
0.00243395
0.00247695
0.0025201
0.00256339
0.00260682
0.00265037
0.00269403
0.00273778
0.00278161
0.0028255
0.00286944
0.0029134
0.00295738
0.00300135
0.00304529
0.00308918
0.003133
0.00317673
0.00322035
0.00326383
0.00330716
0.0033503
0.00339323
0.00343592
0.00347836
0.00352051
0.00356236
0.00360387
0.00364501
0.00368578
0.00372613
0.00376605
0.00380552
0.0038445
0.00388297
0.00392091
0.00395829
0.00399508
0.00403126
0.0040668
0.00410167
0.00413585
0.00416931
0.00420203
0.00423397
0.00426512
0.00429544
0.00432491
0.00435352
0.00438122
0.00440801
0.00443385
0.00445873
0.00448262
0.0045055
0.00452736
0.00454818
0.00456794
0.00458662
0.00460421
0.00462083
0.00463644
0.00465092
0.00466429
0.00467638
0.00468746
0.00469739
0.00470617
0.00471383
0.0047204
0.00472587
0.00473028
0.00473364
0.00473596
0.00473727
0.00473759
0.00473695
0.00473537
0.00473289
0.00472952
0.0047253
0.00472027
0.00471446
0.00470789
0.00470061
0.00469263
0.004684
0.00467475
0.0046649
0.00465448
0.00464352
0.00463204
0.00462007
0.00460761
0.00459469
0.0045813
0.00456742
0.00455304
0.00453813
0.00452271
0.00450682
0.00449049
0.00447376
0.00445671
0.00443937
0.0044218
0.00440402
0.00438592
0.00436696
0.00434564
0.00431947
1.02257e-05
8.47261e-05
0.000182434
0.000267446
0.000336344
0.000391666
0.000435593
0.000470746
0.000499346
0.000523232
0.000543896
0.000562528
0.000580055
0.000597179
0.000614419
0.000632143
0.000650599
0.000669946
0.000690287
0.000711687
0.000734178
0.000757731
0.000782312
0.000807876
0.000834364
0.000861685
0.000889917
0.000919005
0.000948898
0.000979547
0.0010109
0.00104292
0.00107556
0.00110878
0.00114254
0.00117681
0.00121155
0.00124675
0.00128236
0.00131836
0.00135474
0.00139147
0.00142853
0.0014659
0.00150356
0.00154146
0.00157963
0.00161805
0.00165668
0.00169552
0.00173457
0.00177383
0.00181331
0.001853
0.0018929
0.00193303
0.00197336
0.00201392
0.00205468
0.00209567
0.00213686
0.00217827
0.00221989
0.00226171
0.00230375
0.00234599
0.00238843
0.00243106
0.0024739
0.00251692
0.00256012
0.00260349
0.00264704
0.00269074
0.00273458
0.00277857
0.00282268
0.00286691
0.00291123
0.00295564
0.00300012
0.00304465
0.00308922
0.0031338
0.00317838
0.00322293
0.00326744
0.00331188
0.00335623
0.00340046
0.00344456
0.00348849
0.00353222
0.00357575
0.00361903
0.00366204
0.00370475
0.00374714
0.00378919
0.00383086
0.00387212
0.00391296
0.00395334
0.00399324
0.00403263
0.00407148
0.00410977
0.00414746
0.00418454
0.00422097
0.00425672
0.00429177
0.00432609
0.00435966
0.00439244
0.00442441
0.00445554
0.00448581
0.00451519
0.00454365
0.00457118
0.00459774
0.00462331
0.00464788
0.00467142
0.00469391
0.00471533
0.00473567
0.0047549
0.00477315
0.00479028
0.00480632
0.00482122
0.00483492
0.00484754
0.00485894
0.00486914
0.00487819
0.0048861
0.00489289
0.00489857
0.00490316
0.00490666
0.00490911
0.00491053
0.00491094
0.00491036
0.00490883
0.00490638
0.00490304
0.00489884
0.00489382
0.00488801
0.00488144
0.00487416
0.00486619
0.00485757
0.00484832
0.00483849
0.0048281
0.00481718
0.00480574
0.00479383
0.00478144
0.0047686
0.00475529
0.00474153
0.00472729
0.0047126
0.00469748
0.00468196
0.0046661
0.00464995
0.00463358
0.00461705
0.00460041
0.0045836
0.0045662
0.00454704
0.00452474
1.07001e-05
8.46973e-05
0.000185347
0.000274804
0.000348093
0.000407699
0.000455545
0.000494234
0.000526008
0.000552733
0.00057593
0.000596821
0.00061636
0.000635278
0.000654127
0.000673351
0.000693175
0.000713748
0.000735149
0.00075738
0.000780578
0.00080477
0.000829947
0.000856084
0.000883161
0.000911182
0.0009401
0.000969828
0.0010003
0.00103148
0.0010633
0.00109574
0.00112874
0.00116228
0.00119631
0.0012308
0.00126572
0.00130104
0.00133672
0.00137276
0.00140911
0.00144577
0.0014827
0.00151992
0.00155741
0.00159523
0.00163337
0.0016717
0.00171014
0.00174871
0.00178743
0.00182631
0.00186536
0.00190458
0.00194398
0.00198358
0.00202336
0.00206334
0.00210351
0.00214389
0.00218448
0.00222528
0.0022663
0.00230753
0.00234899
0.00239067
0.00243257
0.00247471
0.00251707
0.00255966
0.00260247
0.0026455
0.00268875
0.00273221
0.00277587
0.00281973
0.00286377
0.00290799
0.00295237
0.0029969
0.00304156
0.00308634
0.00313122
0.00317618
0.0032212
0.00326625
0.00331132
0.00335639
0.00340142
0.00344639
0.00349128
0.00353606
0.00358071
0.00362518
0.00366947
0.00371353
0.00375734
0.00380087
0.00384409
0.00388697
0.00392948
0.0039716
0.0040133
0.00405454
0.0040953
0.00413555
0.00417526
0.00421441
0.00425295
0.00429087
0.00432814
0.00436473
0.0044006
0.00443574
0.00447011
0.00450368
0.00453644
0.00456834
0.00459937
0.00462949
0.00465868
0.00468692
0.00471418
0.00474043
0.00476565
0.00478982
0.00481292
0.00483494
0.00485586
0.0048757
0.00489443
0.00491209
0.0049286
0.00494394
0.00495819
0.00497113
0.00498281
0.00499332
0.00500266
0.00501084
0.00501788
0.00502378
0.00502856
0.00503225
0.00503486
0.00503641
0.00503694
0.00503648
0.00503505
0.00503268
0.00502943
0.00502531
0.00502036
0.00501463
0.00500815
0.00500096
0.00499309
0.00498458
0.00497546
0.00496577
0.00495553
0.00494479
0.00493355
0.00492185
0.0049097
0.00489712
0.00488411
0.00487068
0.00485684
0.00484262
0.00482805
0.00481319
0.00479808
0.00478281
0.00476746
0.00475207
0.00473665
0.00472085
0.00470378
0.00468483
1.10978e-05
8.38574e-05
0.000186245
0.000279182
0.000356337
0.000419701
0.00047121
0.000513262
0.000548089
0.000577558
0.000603203
0.000626276
0.000647734
0.000668296
0.000688476
0.000708663
0.000729254
0.000750485
0.000772513
0.000795477
0.000819423
0.000844292
0.000870061
0.00089671
0.000924211
0.000952523
0.000981557
0.00101129
0.00104168