/*--------------------------------*- C++ -*----------------------------------*\
| =========                 |                                                 |
| \\      /  F ield         | OpenFOAM: The Open Source CFD Toolbox           |
|  \\    /   O peration     | Version:  2312                                  |
|   \\  /    A nd           | Website:  www.openfoam.com                      |
|    \\/     M anipulation  |                                                 |
\*---------------------------------------------------------------------------*/
FoamFile
{
    version     2.0;
    format      ascii;
    arch        "LSB;label=32;scalar=64";
    class       volScalarField;
    location    "150";
    object      epsilon;
}
// * * * * * * * * * * * * * * * * * * * * * * * * * * * * * * * * * * * * * //

dimensions      [0 2 -3 0 0 0 0];

internalField   nonuniform List<scalar> 
12225
(
936.679
1509.32
1777.64
1793.91
1752.31
1670.13
1570.2
1481.27
1405.57
1342.46
1290.31
1247.54
1211.96
1183.15
1157.99
1140.29
1120.61
1114.33
109.951
259.887
333.729
359.026
363.445
361.186
352.044
342.385
334.371
328.008
323.451
320.347
318.308
316.597
315.822
314.799
313.755
314.697
30.0966
67.124
93.1542
106.931
113.239
114.662
113.837
112.201
109.82
107.65
106.004
104.777
104.107
103.725
103.729
103.989
103.996
105.227
17.8795
29.1852
39.3761
46.5601
51.2393
53.7257
54.9819
55.0277
54.7741
54.1787
53.3753
52.5879
51.8216
51.2305
50.5852
50.2894
49.6296
49.7811
15.3567
19.0019
23.3949
27.0638
29.8985
31.8189
33.1266
33.7984
34.1543
34.148
34.0439
33.8197
33.4603
33.1549
32.7119
32.4666
31.9146
31.8635
14.8221
15.8175
17.5546
19.4136
21.0167
22.2557
23.2072
23.8468
24.2814
24.5102
24.6143
24.6027
24.539
24.4305
24.2272
24.0954
23.7794
23.7286
14.6762
14.8244
15.284
16.0988
16.9126
17.6176
18.2076
18.6575
18.9949
19.2233
19.3653
19.4407
19.4459
19.4268
19.3651
19.3032
19.1358
19.1138
14.6551
14.4546
14.4764
14.6426
14.9524
15.2722
15.5693
15.8191
16.0195
16.1698
16.272
16.3377
16.3622
16.3588
16.3357
16.3072
16.2136
16.205
14.668
14.3514
14.1557
14.0536
14.0616
14.1035
14.1816
14.2615
14.3313
14.3866
14.4225
14.4436
14.442
14.4324
14.4052
14.378
14.3102
14.2966
14.6758
14.3358
14.0557
13.8298
13.6742
13.5629
13.4897
13.4395
13.4014
13.3692
13.3367
13.3041
13.2654
13.2263
13.1775
13.1371
13.0699
13.0399
14.6776
14.3376
14.032
13.7594
13.5286
13.3341
13.1721
13.0366
12.9207
12.8202
12.7295
12.6475
12.5691
12.4971
12.4229
12.3592
12.2823
12.2311
14.6775
14.3395
14.0284
13.7428
13.4857
13.2562
13.0528
12.8729
12.713
12.5703
12.4412
12.3242
12.2155
12.1163
12.0203
11.9351
11.8454
11.7749
14.6772
14.3401
14.0281
13.739
13.4725
13.2282
13.0049
12.8015
12.6161
12.4473
12.2925
12.1509
12.0195
11.8991
11.7851
11.6817
11.5794
11.4922
14.677
14.3401
14.0279
13.7381
13.469
13.2193
12.9879
12.7735
12.575
12.3913
12.2209
12.0631
11.9161
11.7798
11.6518
11.5336
11.4203
11.3183
14.6769
14.34
14.0276
13.7375
13.4678
13.2168
12.9829
12.7649
12.5614
12.3716
12.1942
12.0285
11.8733
11.7282
11.5919
11.4645
11.3438
11.2319
14.6768
14.3398
14.0273
13.737
13.467
13.2156
12.981
12.762
12.5572
12.3655
12.1858
12.0174
11.8592
11.7106
11.5707
11.4392
11.315
11.1984
14.6768
14.3397
14.027
13.7366
13.4664
13.2147
12.9798
12.7604
12.5552
12.363
12.1827
12.0134
11.8543
11.7046
11.5637
11.4309
11.3055
11.1873
14.6768
14.3397
14.0269
13.7363
13.466
13.2141
12.979
12.7594
12.5539
12.3614
12.1809
12.0113
11.8519
11.7019
11.5606
11.4274
11.3017
11.183
14.6768
14.3396
14.0268
13.7362
13.4658
13.2139
12.9787
12.759
12.5534
12.3608
12.1801
12.0105
11.851
11.7009
11.5595
11.4262
11.3005
11.1818
14.6768
14.3397
14.0269
13.7364
13.4661
13.2142
12.9791
12.7596
12.5542
12.3619
12.1817
12.0125
11.8537
11.7044
11.5639
11.4315
11.3069
11.1892
14.6768
14.3398
14.0271
13.7367
13.4666
13.2153
12.9813
12.7632
12.56
12.3703
12.1932
12.0278
11.8731
11.7281
11.5924
11.4648
11.3455
11.2324
14.677
14.3398
14.0272
13.7378
13.4705
13.2242
12.9978
12.7899
12.5989
12.4233
12.2615
12.1121
11.9739
11.8453
11.7262
11.614
11.5105
11.4107
14.6779
14.3385
14.0297
13.7522
13.5065
13.2916
13.1043
12.9407
12.7967
12.6686
12.5535
12.4484
12.3521
12.2618
12.1782
12.0971
12.0235
11.9471
14.6794
14.3371
14.0751
13.8733
13.7321
13.6399
13.5806
13.5415
13.5132
13.4892
13.466
13.4402
13.412
13.3787
13.3432
13.3007
13.2621
13.2083
14.6846
14.411
14.4216
14.4962
14.6899
14.92
15.1433
15.3435
15.5103
15.6424
15.7419
15.8086
15.8512
15.8658
15.8603
15.845
15.8174
15.7646
14.8082
15.0393
15.8732
16.9023
17.8695
18.7164
19.4034
19.949
20.3522
20.6448
20.8381
20.9494
21.004
20.9978
20.962
20.8971
20.827
20.6967
15.6356
18.1168
21.7914
24.9293
27.3815
29.2538
30.5672
31.4814
32.0114
32.3222
32.3955
32.3481
32.2401
32.0078
31.7865
31.4698
31.2351
30.888
19.9117
33.9067
45.1074
53.0735
58.3555
61.7443
63.512
64.3186
64.2644
63.9392
63.346
62.5161
61.7195
60.8517
60.1702
59.3841
58.9112
58.233
57.9094
118.806
155.105
177.27
189.656
195.635
196.481
195.569
193.307
190.24
187.189
184.423
182.019
179.94
178.338
176.865
176.025
174.967
557.18
767.373
897.451
964.604
979.929
973.455
956.328
928.665
899.502
871.129
844.646
820.516
798.783
779.333
761.97
746.468
732.583
720.149
0.150661
0.139199
0.229352
0.323951
0.411953
0.489641
0.559948
0.626098
0.68794
0.747764
0.808737
0.876101
0.95866
1.06505
1.19251
1.33686
1.49618
1.6709
1.86165
2.07017
2.29754
2.54582
2.81597
3.10995
3.4282
3.77246
4.14336
4.54351
4.97461
5.43485
5.92197
6.43717
6.97884
7.54813
8.14344
8.76636
9.4155
10.0934
10.7985
11.5331
12.2956
13.0882
13.9081
14.7566
15.6323
16.5378
17.4712
18.4356
19.429
20.4548
21.5105
22.5998
23.7202
24.8756
26.0634
27.2879
28.546
29.8429
31.1753
32.5496
33.9625
35.4223
36.9277
38.49
40.1115
41.8093
43.5923
45.4165
47.2873
49.2073
51.1706
53.1837
55.2388
57.3424
59.4861
61.6761
63.9032
66.1737
68.4779
70.8215
73.1936
75.599
78.0261
80.4781
82.9418
85.419
87.896
90.3727
92.8375
95.2898
97.7294
100.164
102.619
105.043
107.449
109.823
112.163
114.459
116.705
118.89
121.007
123.045
124.995
126.845
128.586
130.207
131.697
133.047
134.246
135.283
136.146
136.836
137.204
137.489
137.438
137.21
136.791
136.174
135.298
134.2
132.88
131.326
129.546
127.589
125.469
123.201
120.809
118.305
115.716
113.056
110.347
107.605
104.851
102.098
99.371
96.7016
94.1972
92.2069
90.576
88.9848
87.4011
85.8346
84.2937
82.7821
81.3008
79.8496
78.4298
77.0454
75.7
74.3973
73.1393
71.928
70.7658
69.654
68.5923
67.5793
66.6132
65.6916
64.8218
64.0157
63.2572
62.5424
61.8697
61.237
60.6428
60.0846
59.5607
59.0684
58.6051
58.1677
57.7563
57.3705
57.001
56.6378
56.2726
55.893
55.477
54.9649
54.2471
51.085
0.532084
0.291601
0.260081
0.273511
0.303353
0.341653
0.386245
0.436285
0.490906
0.550173
0.614842
0.686288
0.766225
0.85598
0.955572
1.06456
1.18266
1.30995
1.44663
1.59311
1.74967
1.91668
2.09428
2.28263
2.48181
2.69231
2.91406
3.14687
3.39046
3.64448
3.90856
4.18284
4.46721
4.76208
5.06768
5.38491
5.71467
6.0557
6.40776
6.77133
7.14635
7.53317
7.93151
8.34161
8.76359
9.19801
9.64486
10.1047
10.5775
11.0639
11.5638
12.0777
12.6057
13.1484
13.7056
14.2782
14.866
15.4699
16.0898
16.7268
17.3809
18.0536
18.745
19.4567
20.1887
20.9417
21.7139
22.502
23.3065
24.1272
24.9632
25.8147
26.6806
27.5609
28.4544
29.361
30.2791
31.2089
32.1485
33.0975
34.0538
35.0169
35.9843
36.9552
37.9268
38.8983
39.8671
40.8327
41.7938
42.7523
43.711
44.6771
45.6641
46.6571
47.6406
48.6138
49.5743
50.5195
51.4465
52.3525
53.2341
54.0879
54.9103
55.6976
56.4457
57.1509
57.809
58.4159
58.967
59.4576
59.8815
60.232
60.4933
60.6864
60.7496
60.7815
60.7016
60.5439
60.2827
59.9283
59.481
58.9421
58.315
57.6108
56.8346
55.993
55.0927
54.141
53.1456
52.1137
51.0531
49.9709
48.8747
47.7713
46.6691
45.5801
44.5329
43.5854
42.7205
41.8853
41.0667
40.2644
39.4799
38.7142
37.9679
37.2414
36.5354
35.8508
35.1888
34.5502
33.9358
33.3458
32.7805
32.2397
31.7232
31.2301
30.7598
30.3113
29.8854
29.4842
29.105
28.7459
28.406
28.0839
27.7788
27.4894
27.2149
26.9538
26.7053
26.4676
26.2411
26.0264
25.8198
25.6185
25.421
25.227
25.0335
24.8516
24.6953
24.5053
1.02188
0.485673
0.387967
0.373996
0.388335
0.417434
0.456858
0.504918
0.560805
0.624187
0.69503
0.773497
0.859808
0.954069
1.05614
1.16577
1.28273
1.40694
1.5384
1.67724
1.82365
1.97796
2.14023
2.30989
2.48625
2.66799
2.85675
3.05301
3.25689
3.46852
3.68799
3.91548
4.15109
4.39505
4.64755
4.90889
5.17928
5.4592
5.74836
6.04689
6.3549
6.67255
6.99993
7.33723
7.6846
8.04231
8.4105
8.78941
9.17918
9.58002
9.99209
10.4156
10.8507
11.2975
11.7564
12.2274
12.7106
13.2065
13.715
14.2365
14.7711
15.319
15.8803
16.4551
17.0431
17.6441
18.2573
18.8821
19.5183
20.1657
20.8238
21.4924
22.1709
22.8591
23.5564
24.2622
24.976
25.6972
26.4251
27.159
27.8981
28.6417
29.3889
30.139
30.8912
31.645
32.3998
33.1556
33.9126
34.6717
35.434
36.2004
36.9715
37.7412
38.5054
39.2627
40.0116
40.75
41.4761
42.1876
42.8822
43.5573
44.2101
44.8376
45.4367
46.0041
46.5364
47.0297
47.4803
47.8838
48.2357
48.5314
48.7668
48.9338
49.0188
49.0661
49.0336
48.9308
48.7513
48.4974
48.1705
47.7725
47.3066
46.7783
46.1917
45.5521
44.8647
44.1355
43.3702
42.575
41.7556
40.9182
40.068
39.2111
38.3532
37.5028
36.6736
35.8847
35.1347
34.4093
33.7019
33.0113
32.3382
31.6832
31.047
30.4301
29.833
29.256
28.6994
28.1637
27.6489
27.1549
26.6816
26.2286
25.7956
25.3818
24.9867
24.6095
24.2499
23.9081
23.5831
23.2735
22.9784
22.6968
22.4278
22.1704
21.9236
21.6864
21.4581
21.2375
21.0241
20.8177
20.617
20.4209
20.2292
20.0432
19.8644
19.7078
19.5878
19.5298
1.47054
0.670925
0.524424
0.492852
0.498685
0.524122
0.562703
0.611815
0.670246
0.737363
0.812772
0.89617
0.987263
1.08573
1.19122
1.3034
1.42198
1.54676
1.67764
1.81455
1.95745
2.10621
2.26081
2.42159
2.58894
2.76363
2.94535
3.13411
3.33001
3.53325
3.7441
3.96288
4.18941
4.42376
4.66596
4.91602
5.17362
5.43966
5.71436
5.99792
6.29048
6.5922
6.90321
7.22369
7.55382
7.89378
8.24375
8.60391
8.97439
9.35535
9.74695
10.1493
10.5627
10.9871
11.4228
11.8698
12.3284
12.7986
13.2805
13.7742
14.2797
14.7971
15.3263
15.8672
16.4195
16.983
17.5573
18.142
18.737
19.342
19.9566
20.5805
21.2133
21.8547
22.5042
23.1613
23.8256
24.4964
25.1734
25.8559
26.5434
27.2353
27.9312
28.6306
29.333
30.0381
30.7456
31.4554
32.1675
32.8821
33.5993
34.3188
35.0388
35.7563
36.4695
37.177
37.8773
38.5688
39.2498
39.9182
40.572
41.2088
41.8262
42.4213
42.9912
43.5327
44.0425
44.5169
44.9522
45.3442
45.689
45.9823
46.2204
46.3977
46.5061
46.557
46.5494
46.4695
46.3184
46.097
45.8062
45.4483
45.0261
44.5434
44.0046
43.4145
42.778
42.101
41.3889
40.6476
39.8827
39.0999
38.3046
37.5024
36.6989
35.901
35.1171
34.3564
33.6209
32.9064
32.2101
31.5316
30.8712
30.2295
29.6073
29.005
28.423
27.8614
27.3204
26.7999
26.2999
25.8201
25.3601
24.9194
24.4976
24.094
23.7079
23.3386
22.9854
22.6479
22.3252
22.0163
21.7202
21.436
21.1627
20.8994
20.645
20.3988
20.1599
19.9271
19.6999
19.478
19.2608
19.0479
18.8398
18.6383
18.4466
18.2779
18.1446
18.0704
1.84083
0.844231
0.658775
0.613533
0.612874
0.635422
0.673172
0.722691
0.782334
0.851187
0.928632
1.01417
1.10732
1.20764
1.31469
1.42811
1.54759
1.67293
1.80399
1.94074
2.08318
2.23138
2.38547
2.5457
2.71232
2.88559
3.06562
3.25251
3.44639
3.6474
3.85561
4.07109
4.29416
4.52505
4.76393
5.01102
5.26667
5.53104
5.80414
6.08611
6.37707
6.6772
6.98666
7.30563
7.63429
7.97285
8.32152
8.68056
9.05002
9.43005
9.8208
10.2225
10.6352
11.0591
11.4944
11.9412
12.3996
12.8697
13.3516
13.8453
14.3509
14.8683
15.3974
15.9382
16.4903
17.0537
17.628
18.2131
18.8086
19.4143
20.0298
20.6549
21.2893
21.9324
22.5839
23.2433
23.9101
24.584
25.2643
25.9506
26.6424
27.3391
28.0405
28.7459
29.455
30.1675
30.8829
31.6008
32.321
33.0431
33.7666
34.4905
35.2133
35.9332
36.649
37.3592
38.0627
38.7578
39.4428
40.116
40.7754
41.4187
42.0436
42.6473
43.227
43.7796
44.3018
44.7899
45.2402
45.6486
46.0111
46.3236
46.582
46.7823
46.9186
46.9874
47.0007
46.9415
46.8108
46.6089
46.3367
45.9958
45.5892
45.12
44.5927
44.0117
43.3826
42.7108
42.0023
41.2628
40.4984
39.7149
38.9181
38.1136
37.3071
36.5042
35.7116
34.935
34.1775
33.4389
32.7185
32.0165
31.3336
30.6705
30.0277
29.4058
28.8051
28.2256
27.6674
27.1304
26.6142
26.1184
25.6426
25.1862
24.7486
24.3291
23.9268
23.541
23.1709
22.8156
22.4744
22.1462
21.83
21.5249
21.2298
20.9439
20.6662
20.3958
20.1321
19.8739
19.6207
19.3721
19.1279
18.8881
18.6537
18.4268
18.2114
18.0187
17.8587
17.7393
2.14686
1.00393
0.787071
0.729455
0.722992
0.742424
0.778705
0.827675
0.88728
0.956354
1.03412
1.11999
1.21342
1.31394
1.42114
1.53466
1.65421
1.77961
1.91074
2.04759
2.19018
2.33863
2.49308
2.65373
2.82076
2.99438
3.17475
3.36203
3.55637
3.75795
3.96691
4.18343
4.40774
4.64005
4.88056
5.12949
5.38706
5.65343
5.92876
6.2132
6.50692
6.81011
7.12296
7.44567
7.77842
8.12142
8.47485
8.83887
9.21374
9.59968
9.9969
10.4056
10.826
11.2582
11.7025
12.1589
12.6277
13.1089
13.6027
14.109
14.628
15.1596
15.7038
16.2604
16.8294
17.4106
18.0038
18.6088
19.2254
19.8532
20.4921
21.1416
21.8014
22.4711
23.1503
23.8385
24.5352
25.2399
25.9521
26.6712
27.3968
28.1282
28.865
29.6067
30.3526
31.1023
31.8552
32.6106
33.368
34.1264
34.8848
35.6423
36.3978
37.15
37.8978
38.6399
39.3748
40.1013
40.8176
41.522
42.2124
42.8869
43.5429
44.178
44.7892
45.3734
45.9273
46.4474
46.9297
47.3702
47.7648
48.109
48.3988
48.63
48.7982
48.893
48.9291
48.8916
48.7796
48.593
48.3325
47.9995
47.5965
47.1269
46.5947
46.0048
45.3628
44.6744
43.9458
43.1836
42.394
41.5834
40.7577
39.9229
39.0847
38.2484
37.4199
36.6039
35.8039
35.0214
34.2571
33.5119
32.7866
32.0822
31.3992
30.7382
30.0994
29.483
28.8889
28.3168
27.7664
27.2372
26.7285
26.2398
25.7703
25.3192
24.8856
24.4686
24.0672
23.6806
23.3078
22.9477
22.5994
22.2617
21.9337
21.6145
21.303
20.9985
20.7001
20.4071
20.1189
19.8351
19.5558
19.2812
19.0127
18.7526
18.5051
18.2799
18.084
17.9145
2.63303
1.19457
0.919716
0.841819
0.826523
0.841092
0.874671
0.922027
0.980555
1.04879
1.1258
1.21091
1.30357
1.40332
1.50978
1.62262
1.7416
1.86655
1.99738
2.13409
2.27672
2.42536
2.58016
2.74129
2.90892
3.08324
3.26443
3.45267
3.64817
3.85109
4.06166
4.28006
4.50652
4.74126
4.98449
5.23644
5.49732
5.76734
6.04669
6.33558
6.63421
6.94282
7.2616
7.59081
7.93067
8.28142
8.64329
9.01654
9.40142
9.7982
10.2071
10.6285
11.0624
11.5093
11.9692
12.4425
12.9292
13.4296
13.9438
14.4719
15.0139
15.57
16.14
16.7241
17.322
17.9336
18.5589
19.1976
19.8495
20.5144
21.1918
21.8816
22.5832
23.2963
24.0203
24.7548
25.4992
26.2529
27.0153
27.7857
28.5636
29.3483
30.1391
30.9353
31.7362
32.5411
33.3492
34.1596
34.9715
35.7838
36.5956
37.4057
38.213
39.0162
39.8143
40.6059
41.3896
42.164
42.9274
43.678
44.414
45.1332
45.8332
46.5115
47.1654
47.7917
48.387
48.9479
49.4704
49.9503
50.3834
50.7652
51.0911
51.3568
51.5578
51.685
51.7432
51.7282
51.6341
51.4608
51.2087
50.8791
50.474
49.9968
49.4515
48.8433
48.1778
47.4615
46.7009
45.903
45.0745
44.2222
43.3525
42.4717
41.5855
40.6997
39.8195
38.9499
38.0943
37.2552
36.4344
35.6332
34.8528
34.0942
33.3581
32.6452
31.9557
31.2897
30.6471
30.0276
29.4307
28.8559
28.3026
27.77
27.2572
26.7634
26.2875
25.8286
25.3856
24.9576
24.5434
24.1419
23.752
23.3728
23.0032
22.6421
22.2887
21.942
21.6015
21.2662
20.9358
20.6101
20.2891
19.9735
19.6646
19.3651
19.0789
18.8144
18.5758
18.3539
3.26963
1.40995
1.05387
0.948237
0.920945
0.928832
0.9585
1.00332
1.05998
1.12668
1.20227
1.286
1.37729
1.47571
1.58089
1.69255
1.81047
1.93453
2.06465
2.20083
2.34312
2.49161
2.64643
2.80774
2.97571
3.15054
3.33242
3.52156
3.71816
3.92246
4.13468
4.35504
4.5838
4.82119
5.06745
5.32284
5.5876
5.86197
6.14619
6.44053
6.74522
7.06056
7.38678
7.72419
8.07306
8.43369
8.80637
9.19142
9.58914
9.99986
10.4239
10.8615
11.3131
11.7789
12.2593
12.7544
13.2646
13.79
14.3309
14.8875
15.4599
16.0481
16.6522
17.2723
17.9083
18.5601
19.2276
19.9107
20.609
21.3224
22.0505
22.793
23.5493
24.3191
25.1016
25.8965
26.7029
27.5202
28.3477
29.1845
30.03
30.8832
31.7433
32.6093
33.4804
34.3556
35.2339
36.1142
36.9954
37.8764
38.756
39.6329
40.5058
41.3735
42.2347
43.0879
43.9317
44.7646
45.5849
46.3908
47.1803
47.9514
48.7018
49.429
50.1301
50.8023
51.4422
52.0462
52.6106
53.1312
53.6035
54.023
54.3849
54.6843
54.9165
55.0742
55.156
55.1607
55.0824
54.9198
54.673
54.3429
53.9316
53.4421
52.8787
52.2467
51.552
50.8014
50.002
49.1609
48.2855
47.3829
46.4599
45.5234
44.5794
43.6339
42.6923
41.7595
40.8395
39.9353
39.0493
38.1833
37.3388
36.517
35.7189
34.9449
34.1955
33.4707
32.7703
32.0942
31.4418
30.8124
30.2054
29.6199
29.0551
28.5098
27.983
27.4738
26.9809
26.5032
26.0395
25.5887
25.1497
24.7214
24.3028
23.8927
23.4903
23.0948
22.7055
22.3217
21.943
21.5694
21.2011
20.8389
20.4842
20.1398
19.8094
19.5
19.2136
18.9375
3.89975
1.61707
1.17824
1.04361
1.00329
1.00371
1.02878
1.07047
1.12478
1.18949
1.26328
1.34528
1.43489
1.53165
1.63523
1.74538
1.86191
1.98471
2.11374
2.24899
2.39052
2.53843
2.69285
2.85393
3.02186
3.19683
3.37906
3.56877
3.76621
3.97163
4.18529
4.40747
4.63843
4.87846
5.12784
5.38685
5.65579
5.93494
6.22462
6.52512
6.83676
7.15986
7.49475
7.84178
8.20128
8.57363
8.95919
9.35833
9.77145
10.1989
10.6412
11.0986
11.5715
12.0604
12.5655
13.0873
13.626
14.1821
14.7557
15.3471
15.9565
16.5841
17.2299
17.8941
18.5767
19.2776
19.9967
20.7339
21.4889
22.2614
23.0512
23.8577
24.6805
25.5189
26.3724
27.2401
28.1215
29.0154
29.9212
30.8378
31.7641
32.6993
33.642
34.5912
35.5458
36.5044
37.4658
38.4286
39.3916
40.3534
41.3124
42.2673
43.2165
44.1586
45.092
46.0152
46.9267
47.8247
48.7074
49.5731
50.4197
51.2453
52.0474
52.8237
53.5715
54.288
54.9699
55.6139
56.2163
56.773
57.2798
57.7318
58.1243
58.452
58.71
58.892
58.9938
59.0134
58.9459
58.789
58.5429
58.2082
57.7867
57.2813
56.6962
56.0369
55.3095
54.5209
53.6785
52.7899
51.8629
50.905
49.9235
48.9256
47.9179
46.9066
45.8974
44.8955
43.9053
42.9302
41.9732
41.0364
40.1217
39.2304
38.3636
37.5221
36.706
35.9156
35.1508
34.4112
33.6962
33.0053
32.3376
31.6922
31.0682
30.4645
29.88
29.3134
28.7636
28.2295
27.7097
27.203
26.7084
26.2246
25.7507
25.2855
24.8282
24.378
23.9343
23.4964
23.0642
22.6377
22.2171
21.8034
21.3983
21.0043
20.6248
20.2659
19.9276
19.5963
4.48799
1.80523
1.28789
1.12542
1.07179
1.06501
1.08516
1.12342
1.17509
1.23757
1.30935
1.38944
1.47718
1.57212
1.67393
1.78236
1.89726
2.01855
2.14617
2.28017
2.4206
2.56758
2.72124
2.88175
3.04929
3.22406
3.4063
3.59627
3.79425
4.00055
4.21548
4.43936
4.6725
4.91523
5.16788
5.43079
5.70432
5.98881
6.28464
6.59218
6.9118
7.2439
7.58889
7.94718
8.31919
8.70538
9.10618
9.52207
9.95351
10.401
10.865
11.346
11.8445
12.3609
12.8958
13.4495
14.0225
14.6152
15.2279
15.861
16.5148
17.1894
17.8851
18.6019
19.3399
20.0992
20.8795
21.6808
22.5029
23.3453
24.2077
25.0895
25.9903
26.9092
27.8456
28.7985
29.7671
30.7501
31.7466
32.7554
33.7751
34.8045
35.8422
36.8867
37.9365
38.9901
40.0459
41.1022
42.1574
43.2098
44.2576
45.2992
46.3326
47.3562
48.3681
49.3665
50.3497
51.3158
52.2628
53.1889
54.0919
54.9699
55.8206
56.6416
57.4305
58.1845
58.9006
59.5758
60.2066
60.7893
61.3198
61.7936
62.2058
62.5512
62.8245
63.0201
63.1332
63.1588
63.0944
62.9353
62.6833
62.3385
61.9023
61.3772
60.7673
60.0779
59.3153
58.4865
57.5991
56.661
55.6802
54.6648
53.6224
52.5605
51.4862
50.4061
49.3262
48.2522
47.1885
46.1394
45.1079
44.0967
43.108
42.1432
41.2037
40.2901
39.4029
38.5423
37.708
36.8999
36.1173
35.3595
34.6258
33.9152
33.2266
32.559
31.911
31.2816
30.6695
30.0733
29.4919
28.9239
28.3682
27.8237
27.2892
26.7638
26.2466
25.7368
25.2339
24.7374
24.2472
23.7633
23.2863
22.8171
22.3575
21.9099
21.4774
21.0652
20.672
20.2844
5.01252
1.96913
1.38053
1.19253
1.12633
1.11261
1.128
1.1628
1.21172
1.27188
1.34154
1.41964
1.50546
1.59852
1.69848
1.80512
1.9183
2.03795
2.16403
2.29659
2.43573
2.58158
2.73429
2.89405
3.06106
3.23551
3.41764
3.60773
3.80615
4.01331
4.22957
4.45531
4.69088
4.93669
5.19312
5.4606
5.73953
6.03037
6.33354
6.6495
6.97872
7.32168
7.67886
8.05078
8.43795
8.84092
9.26022
9.69643
10.1501
10.6219
11.1122
11.6219
12.1513
12.7011
13.2719
13.8642
14.4784
15.1152
15.7749
16.458
17.1647
17.8954
18.6503
19.4296
20.2332
21.0613
21.9137
22.7903
23.6906
24.6145
25.5613
26.5305
27.5213
28.533
29.5645
30.6148
31.6828
32.7671
33.8665
34.9793
36.1041
37.2392
38.3829
39.5334
40.6888
41.8473
43.0068
44.1654
45.321
46.4715
47.6149
48.749
49.8715
50.9804
52.0735
53.1488
54.2041
55.2373
56.2463
57.229
58.1833
59.1071
59.9982
60.8544
61.6734
62.4526
63.1896
63.8814
64.5252
65.1176
65.6552
66.1338
66.5489
66.8957
67.1686
67.3625
67.4724
67.4917
67.4182
67.2464
66.9797
66.6175
66.1605
65.611
64.9727
64.2508
63.4513
62.5813
61.6484
60.6607
59.6263
58.5536
57.4504
56.3247
55.1839
54.0348
52.884
51.7373
50.5997
49.4757
48.3688
47.282
46.2177
45.1777
44.1633
43.1755
42.2146
41.2809
40.3744
39.4945
38.6409
37.8129
37.0094
36.2297
35.4725
34.7369
34.0214
33.3249
32.6461
31.9836
31.3362
30.7026
30.0816
29.4721
28.8729
28.2831
27.7019
27.1286
26.5627
26.0038
25.4519
24.9072
24.3703
23.8424
23.325
22.8206
22.3319
21.8635
21.4132
20.9688
5.45742
2.10559
1.45536
1.245
1.16755
1.14742
1.15832
1.18977
1.236
1.29384
1.36142
1.43756
1.5215
1.61273
1.71091
1.81584
1.92741
2.04556
2.17018
2.30135
2.43924
2.584
2.73585
2.895
3.06167
3.23607
3.41841
3.60898
3.80811
4.01652
4.23467
4.46296
4.70182
4.95172
5.21312
5.48655
5.77251
6.07155
6.3842
6.711
7.05253
7.40936
7.78209
8.17134
8.57774
9.00194
9.4446
9.90641
10.388
10.8902
11.4136
11.9588
12.5267
13.1179
13.7331
14.3728
15.0377
15.7284
16.4453
17.189
17.9598
18.758
19.5839
20.4377
21.3193
22.2288
23.1661
24.1308
25.1226
26.141
27.1854
28.255
29.3489
30.4662
31.6055
32.7657
33.9453
35.1428
36.3564
37.5843
38.8246
40.0754
41.3345
42.5998
43.8689
45.1396
46.4094
47.676
48.9369
50.1895
51.4312
52.6595
53.8718
55.0655
56.238
57.387
58.5098
59.6041
60.6676
61.6979
62.6929
63.6503
64.5682
65.4443
66.2766
67.0629
67.8011
68.4889
69.124
69.7038
70.2256
70.686
71.0813
71.407
71.6584
71.8304
71.9179
71.9144
71.8148
71.6169
71.324
70.9345
70.4489
69.8692
69.1986
68.4417
67.6043
66.6933
65.7161
64.6806
63.5951
62.4678
61.3069
60.1203
58.9158
57.7006
56.4813
55.2643
54.0548
52.8577
51.6769
50.5156
49.3766
48.2618
47.1728
46.1105
45.0754
44.068
43.088
42.1352
41.209
40.3087
39.4335
38.5824
37.7542
36.9479
36.1622
35.3958
34.6473
33.9155
33.1991
32.4967
31.8073
31.1295
30.4625
29.8053
29.1571
28.5174
27.8855
27.2615
26.6452
26.037
25.4377
24.8484
24.2708
23.7072
23.1601
22.6335
22.1246
21.6233
5.81218
2.21286
1.51228
1.28341
1.19641
1.17063
1.17753
1.20592
1.24964
1.30533
1.37097
1.44536
1.52768
1.61732
1.71394
1.81739
1.9276
2.04461
2.16814
2.29841
2.43555
2.57978
2.73131
2.89043
3.05742
3.23266
3.4162
3.60835
3.80943
4.02053
4.24206
4.47456
4.71856
4.97461
5.24332
5.52531
5.82129
6.13191
6.4578
6.79961
7.15802
7.53375
7.92753
8.34011
8.77223
9.2247
9.6983
10.1938
10.7121
11.2539
11.8202
12.4116
13.0289
13.6731
14.3447
15.0445
15.7732
16.5314
17.3196
18.1383
18.9879
19.8688
20.781
21.7247
22.6999
23.7065
24.7442
25.8126
26.9112
28.0393
29.1961
30.3806
31.5917
32.828
34.0882
35.3705
36.6733
37.9946
39.3324
40.6846
42.0487
43.4224
44.8032
46.1884
47.5754
48.9614
50.3435
51.7188
53.0845
54.4375
55.7747
57.093
58.3895
59.661
60.9046
62.1174
63.2965
64.4391
65.5427
66.6047
67.6228
68.5949
69.5188
70.3928
71.2148
71.9833
72.6967
73.3532
73.9515
74.49
74.967
75.3803
75.7272
76.0043
76.2074
76.3324
76.3733
76.3254
76.1781
75.9382
75.6049
75.1763
74.6529
74.0361
73.3289
72.535
71.6598
70.7094
69.691
68.612
67.4804
66.3041
65.0912
63.8498
62.5876
61.3119
60.0299
58.7478
57.4714
56.2058
54.9552
53.7232
52.5128
51.3261
50.1648
49.0301
47.9226
46.8426
45.7901
44.7649
43.7663
42.7938
41.8464
40.9233
40.0233
39.1453
38.288
37.4502
36.6305
35.8277
35.0404
34.2674
33.5075
32.7596
32.0228
31.2962
30.5791
29.8709
29.1713
28.4802
27.7977
27.1244
26.461
25.8087
25.1693
24.545
23.938
23.352
22.7839
22.226
6.06616
2.28867
1.55112
1.30843
1.21403
1.18367
1.18729
1.21313
1.25481
1.30871
1.37279
1.4458
1.527
1.61558
1.71124
1.81381
1.92316
2.0392
2.16216
2.2923
2.4297
2.57452
2.72704
2.88759
3.05655
3.23427
3.42066
3.61645
3.82229
4.03895
4.26711
4.50742
4.76056
5.0272
5.30806
5.6039
5.91549
6.24373
6.58945
6.95345
7.33656
7.73967
8.16366
8.60944
9.07792
9.57003
10.0867
10.6289
11.1975
11.7935
12.4178
13.0712
13.7547
14.4691
15.2151
15.9935
16.805
17.6501
18.5294
19.4432
20.3918
21.3756
22.3944
23.4483
24.537
25.6603
26.8176
28.0083
29.2316
30.4866
31.7721
33.0869
34.4294
35.798
37.1909
38.6061
40.0415
41.4948
42.9634
44.4448
45.9363
47.435
48.938
50.4422
51.9445
53.4417
54.9305
56.4075
57.8692
59.3123
60.7332
62.1282
63.494
64.827
66.1238
67.3811
68.5956
69.7643
70.8842
71.9528
72.9675
73.9262
74.8271
75.6683
76.4486
77.1667
77.8218
78.4131
78.94
79.4024
79.7998
80.1314
80.3962
80.5917
80.7145
80.7636
80.7307
80.6061
80.3919
80.0912
79.7012
79.2206
78.6493
77.9887
77.2409
76.4091
75.4976
74.5118
73.4577
72.3423
71.1725
69.9561
68.7005
67.4137
66.1032
64.7764
63.4405
62.1019
60.7667
59.4401
58.1268
56.8306
55.5547
54.3016
53.073
51.8703
50.6942
49.5452
48.4232
47.328
46.2592
45.2162
44.1981
43.204
42.2329
41.2837
40.355
39.4458
38.5547
37.6805
36.8218
35.9776
35.1466
34.3279
33.5205
32.7236
31.9366
31.1592
30.391
29.632
28.8826
28.1433
27.415
26.6991
25.9972
25.3115
24.644
23.9984
23.371
22.7577
6.23201
2.337
1.57411
1.32177
1.22216
1.1884
1.18963
1.2137
1.25412
1.30701
1.37027
1.44264
1.52321
1.61144
1.70711
1.81002
1.92008
2.0373
2.16183
2.29383
2.43324
2.58053
2.7361
2.90035
3.07376
3.25683
3.45006
3.6541
3.86965
4.0975
4.33843
4.59327
4.86284
5.14801
5.44967
5.76873
6.10615
6.46297
6.84023
7.23897
7.6603
8.10533
8.57516
9.07087
9.59353
10.1442
10.724
11.3339
11.9751
12.6484
13.3548
14.0952
14.8706
15.6817
16.5291
17.4136
18.3357
19.2957
20.2941
21.331
22.4064
23.5202
24.6723
25.8622
27.0894
28.3532
29.6527
30.9868
32.3545
33.7543
35.1847
36.644
38.1302
39.6413
41.1751
42.7291
44.3008
45.8874
47.4861
49.0938
50.7073
52.3236
53.9392
55.5506
57.1544
58.7469
60.3245
61.8833
63.4196
64.9293
66.4087
67.8537
69.2604
70.6249
71.9436
73.2126
74.4286
75.5882
76.6882
77.7259
78.699
79.6052
80.4431
81.2113
81.9088
82.5353
83.0909
83.5754
83.9896
84.3353
84.613
84.8234
84.9682
85.0453
85.0512
84.9928
84.8463
84.622
84.3199
83.9382
83.4751
82.9297
82.3016
81.5917
80.8013
79.933
78.9897
77.9754
76.8948
75.7536
74.5577
73.3137
72.0286
70.7097
69.3642
67.9994
66.6223
65.2394
63.8568
62.4802
61.1144
59.7636
58.431
57.1196
55.8312
54.5674
53.329
52.1166
50.9302
49.7698
48.6349
47.525
46.4394
45.3772
44.3374
43.319
42.3208
41.3417
40.3804
39.4358
38.5067
37.5919
36.6904
35.8012
34.9236
34.0568
33.2003
32.3538
31.5172
30.6906
29.8744
29.0693
28.2763
27.4969
26.7328
25.986
25.2585
24.5537
23.8681
23.201
6.31608
2.35913
1.58181
1.32427
1.22207
1.1868
1.18718
1.21068
1.25075
1.30374
1.36763
1.44106
1.52318
1.61315
1.71084
1.8162
1.92922
2.05002
2.17879
2.31584
2.46146
2.61608
2.78021
2.9544
3.13929
3.33556
3.54398
3.76535
4.00057
4.25056
4.5163
4.79882
5.09919
5.41852
5.75791
6.11852
6.50149
6.90796
7.33927
7.79686
8.28222
8.79696
9.34236
9.91959
10.5298
11.1742
11.8539
12.57
13.3233
14.115
14.9457
15.8163
16.7273
17.6794
18.6728
19.708
20.785
21.9038
23.0642
24.266
25.5086
26.7914
28.1136
29.4743
30.8723
32.3064
33.775
35.2766
36.8095
38.3718
39.9613
41.5759
43.2132
44.8706
46.5455
48.235
49.9363
51.6461
53.3613
55.0784
56.7941
58.5047
60.2067
61.8964
63.5699
65.2235
66.8531
68.4547
70.0242
71.5575
73.0503
74.4983
75.8973
77.2433
78.5325
79.7609
80.9249
82.021
83.046
83.9975
84.873
85.6707
86.3897
87.029
87.5883
88.0683
88.471
88.796
89.0457
89.2253
89.335
89.3775
89.3591
89.2753
89.1212
88.9046
88.6227
88.2739
87.858
87.3743
86.822
86.2002
85.5082
84.7462
83.9145
83.0141
82.0465
81.0142
79.92
78.7676
77.5612
76.3062
75.0085
73.6744
72.3106
70.924
69.5213
68.109
66.6934
65.28
63.8742
62.4802
61.1017
59.7418
58.4026
57.0859
55.7927
54.5237
53.2792
52.059
50.8629
49.6906
48.5413
47.4143
46.3088
45.2238
44.1583
43.1112
42.0815
41.0679
40.0695
39.0853
38.1142
37.1555
36.2083
35.2723
34.3469
33.432
32.5276
31.634
30.7517
29.8816
29.0247
28.1826
27.357
26.55
25.7635
25.0008
24.2584
23.5396
6.29886
2.35024
1.57462
1.31811
1.21644
1.18172
1.18357
1.20922
1.25182
1.30753
1.37455
1.45167
1.53816
1.6336
1.7378
1.85074
1.97256
2.1035
2.24393
2.39432
2.5552
2.72723
2.9111
3.10765
3.31776
3.54239
3.78261
4.03953
4.31434
4.60828
4.92264
5.25878
5.61811
6.00208
6.41215
6.8498
7.31653
7.8139
8.34353
8.9071
9.50642
10.1432
10.8187
11.5345
12.2915
13.0908
13.9332
14.8194
15.7499
16.7252
17.7456
18.8113
19.9221
21.078
22.2784
23.523
24.8109
26.1412
27.513
28.925
30.3759
31.8642
33.3882
34.9462
36.5364
38.1567
39.8051
41.4792
43.1769
44.8957
46.6331
48.3864
50.1531
51.9302
53.7148
55.5039
57.2944
59.0831
60.8664
62.6411
64.4036
66.1503
67.8775
69.5817
71.259
72.9056
74.5174
76.0905
77.6206
79.1036
80.5351
81.9107
83.2263
84.4778
85.6615
86.7735
87.8101
88.768
89.6443
90.4372
91.144
91.7637
92.2959
92.741
93.098
93.3702
93.5634
93.6732
93.7054
93.6725
93.5677
93.3911
93.1614
92.8782
92.5407
92.1507
91.7081
91.2133
90.6679
90.072
89.4255
88.7268
87.9751
87.169
86.3077
85.3901
84.4155
83.384
82.2979
81.157
79.964
78.7223
77.4364
76.1116
74.7536
73.3688
71.9634
70.5436
69.1158
67.6857
66.2586
64.8393
63.4317
62.0391
60.6639
59.308
57.9728
56.6591
55.3674
54.0977
52.85
51.6239
50.4191
49.2348
48.0705
46.9253
45.7984
44.6888
43.5955
42.5178
41.4545
40.4048
39.368
38.3433
37.3301
36.3281
35.3369
34.3567
33.3875
32.4297
31.4841
30.5516
29.6334
28.7312
27.8469
26.9823
26.1392
25.3207
24.523
23.7546
6.23754
2.32256
1.55585
1.30487
1.20819
1.1789
1.18602
1.21669
1.26502
1.32769
1.4028
1.48925
1.5865
1.69433
1.81273
1.94191
2.08224
2.23424
2.39857
2.57602
2.76747
2.97394
3.19655
3.43652
3.69518
3.97391
4.27427
4.59784
4.9463
5.32137
5.72481
6.1585
6.62427
7.124
7.65954
8.23276
8.84543
9.49932
10.1961
10.9374
11.7248
12.5595
13.4441
14.3791
15.3648
16.4009
17.4873
18.6235
19.8088
21.0427
22.3241
23.6519
25.0249
26.4416
27.9002
29.3989
30.9358
32.5089
34.116
35.7547
37.423
39.1184
40.8385
42.5809
44.3433
46.1231
47.9177
49.7249
51.5418
53.3662
55.1952
57.0265
58.8572
60.6847
62.506
64.3186
66.1195
67.9056
69.6739
71.421
73.1438
74.8389