/*--------------------------------*- C++ -*----------------------------------*\
| =========                 |                                                 |
| \\      /  F ield         | OpenFOAM: The Open Source CFD Toolbox           |
|  \\    /   O peration     | Version:  2312                                  |
|   \\  /    A nd           | Website:  www.openfoam.com                      |
|    \\/     M anipulation  |                                                 |
\*---------------------------------------------------------------------------*/
FoamFile
{
    version     2.0;
    format      ascii;
    arch        "LSB;label=32;scalar=64";
    class       volScalarField;
    location    "150";
    object      epsilon;
}
// * * * * * * * * * * * * * * * * * * * * * * * * * * * * * * * * * * * * * //

dimensions      [0 2 -3 0 0 0 0];

internalField   nonuniform List<scalar> 
12225
(
430.923
270.341
194.517
149.305
122.293
106.378
96.3044
89.2905
84.0279
79.8596
76.4557
73.6422
71.3458
69.4752
68.111
67.1047
66.9308
66.5456
96.1461
89.3078
68.5676
52.9314
43.4824
37.514
33.5822
30.8279
28.7672
27.1371
25.7996
24.6738
23.7231
22.89
22.1959
21.5237
21.1128
20.3243
40.0519
44.9579
39.5425
31.8806
26.5053
22.824
20.2658
18.419
17.0209
15.9149
15.0114
14.2528
13.6084
13.0431
12.5518
12.0923
11.6692
11.273
24.7504
29.2902
27.6464
23.9067
20.378
17.6927
15.6888
14.1759
13.003
12.0666
11.2998
10.6571
10.1106
9.63498
9.21703
8.83948
8.47855
8.16487
18.9911
21.9815
21.4133
19.5411
17.1373
15.1112
13.4852
12.1943
11.1607
10.3198
9.62388
9.038
8.53803
8.10429
7.72286
7.38311
7.06581
6.78824
16.4245
18.0573
17.7808
16.7062
15.0326
13.4837
12.1552
11.0478
10.1301
9.36583
8.7235
8.17753
7.70854
7.30092
6.94236
6.62423
6.33357
6.07708
15.1871
15.7959
15.5302
14.7472
13.5322
12.3248
11.231
10.2796
9.46524
8.77067
8.17664
7.6655
7.22255
6.83553
6.49431
6.1914
5.91793
5.67507
14.5758
14.4637
14.0739
13.3649
12.4239
11.4508
10.5358
9.71338
8.99003
8.35948
7.81093
7.33276
6.91426
6.54604
6.21999
5.92972
5.66876
5.43576
14.2764
13.6799
13.0992
12.4042
11.6014
10.7787
9.99325
9.27281
8.62641
8.05294
7.54656
7.09976
6.70486
6.35475
6.04303
5.76436
5.51377
5.28888
14.1343
13.2141
12.4653
11.7384
10.9957
10.2624
9.56559
8.92174
8.33738
7.8126
7.34387
6.92605
6.55355
6.22089
5.923
5.65545
5.41423
5.19671
14.0699
12.9443
12.0605
11.2839
10.5572
9.87132
9.23099
8.64136
8.10442
7.61912
7.18245
6.79033
6.43832
6.12202
5.83728
5.58039
5.34799
5.13749
14.0445
12.8057
11.83
11.0064
10.2733
9.60593
8.99545
8.4386
7.93291
7.47539
7.06249
6.69025
6.35467
6.05189
5.77827
5.53052
5.30572
5.1014
14.0331
12.7252
11.6828
10.8171
10.0694
9.40697
8.81277
8.27709
7.79355
7.35701
6.96295
6.60711
6.28555
5.9946
5.73094
5.49155
5.27377
5.07528
14.0281
12.6775
11.5854
10.6818
9.91416
9.24776
8.66042
8.1378
7.67007
7.24993
6.87156
6.53009
6.22131
5.94155
5.68757
5.45651
5.24587
5.05345
14.0264
12.6532
11.5292
10.5964
9.80898
9.13329
8.54533
8.02814
7.56946
7.16016
6.79317
6.46284
6.16453
5.89433
5.64893
5.42549
5.22157
5.03502
14.0259
12.6428
11.5017
10.5502
9.74733
9.06148
8.46889
7.95165
7.49629
7.09249
6.73224
6.40919
6.11822
5.85512
5.61641
5.39916
5.20087
5.01941
14.0258
12.6391
11.4905
10.5294
9.71708
9.02361
8.42595
7.90629
7.45078
7.0486
6.69123
6.37186
6.08502
5.82624
5.59184
5.37877
5.18446
5.00672
14.0258
12.638
11.4869
10.5222
9.70574
9.00844
8.40772
7.88598
7.4294
7.02706
6.67026
6.35202
6.06671
5.80971
5.57722
5.36612
5.17375
4.99792
14.0258
12.6382
11.4875
10.5234
9.70749
9.01062
8.41013
7.88838
7.43159
7.02886
6.67156
6.35275
6.06682
5.80919
5.57609
5.3644
5.17149
4.99515
14.0259
12.6414
11.4973
10.5415
9.73412
9.04429
8.44865
7.9294
7.47297
7.06887
6.70888
6.38649
6.09643
5.8344
5.59682
5.38071
5.18354
5.00317
14.0266
12.6549
11.5315
10.5978
9.80857
9.13065
8.54052
8.02141
7.56112
7.15049
6.78239
6.45112
6.15199
5.88108
5.63508
5.41113
5.20677
5.01986
14.0313
12.7042
11.6361
10.749
9.9886
9.32212
8.72993
8.19983
7.72345
7.29441
6.90744
6.55795
6.24188
5.95561
5.6959
5.45985
5.2449
5.04877
14.0551
12.8563
11.9056
11.0921
10.3582
9.68411
9.06442
8.49764
7.98219
7.51554
7.0943
6.7146
6.37247
6.06401
5.78556
5.53379
5.3057
5.09856
14.1519
13.2596
12.5071
11.7751
11.0279
10.2917
9.59255
8.94591
8.35809
7.8293
7.35632
6.93433
6.55798
6.222
5.9215
5.65206
5.40983
5.19124
14.4813
14.2086
13.7163
13.0175
12.1402
11.2328
10.3699
9.58385
8.88383
8.26737
7.72693
7.2534
6.83773
6.47171
6.14817
5.86099
5.6051
5.37563
15.4704
16.2816
16.0117
15.1835
13.902
12.638
11.4938
10.4979
9.64551
8.91979
8.30103
7.77105
7.31423
6.91787
6.57158
6.26709
5.99805
5.75767
18.3032
20.8542
20.4001
18.8304
16.6879
14.801
13.2296
11.9486
10.9076
10.0556
9.35062
8.76002
8.25902
7.82952
7.45731
7.1321
6.84637
6.59067
27.0838
31.5406
29.5748
25.4028
21.6397
18.7347
16.5372
14.8715
13.5875
12.5745
11.7556
11.0794
10.5101
10.0243
9.60312
9.23575
8.91257
8.62091
62.9929
62.415
52.4713
41.5214
34.3599
29.4656
26.054
23.6132
21.7996
20.3954
19.2667
18.3323
17.5395
16.8578
16.2592
15.7353
15.2665
14.8418
317.812
196.896
144.161
113.626
94.0084
81.2652
72.742
66.7414
62.2821
58.7973
55.9538
53.5595
51.4966
49.6979
48.101
46.6898
45.4019
44.2605
0.0168124
0.0121634
0.0182319
0.0254783
0.0329232
0.0398501
0.0459107
0.0511597
0.0555658
0.0592057
0.0622497
0.064948
0.0677402
0.071645
0.0785879
0.0885863
0.10083
0.115149
0.131728
0.150936
0.173196
0.198957
0.228625
0.262581
0.301124
0.344499
0.392798
0.446057
0.504163
0.56698
0.634222
0.705565
0.780772
0.859767
0.941241
1.02492
1.11029
1.197
1.28461
1.37282
1.46124
1.54965
1.63769
1.72521
1.81186
1.89753
1.9819
2.06488
2.14614
2.22559
2.30289
2.37797
2.45045
2.52026
2.58704
2.6507
2.71085
2.76745
2.82015
2.86907
2.9142
2.95636
2.99518
3.03052
3.06225
3.09044
3.11479
3.13527
3.15064
3.16388
3.16978
3.17626
3.17992
3.18044
3.17205
3.16078
3.14513
3.12539
3.10152
3.07356
3.04144
3.0048
2.964
2.92009
2.8728
2.82247
2.76914
2.71292
2.65408
2.59283
2.52943
2.46417
2.39735
2.32925
2.26019
2.19048
2.12045
2.05049
1.98115
1.91368
1.85568
1.82816
1.8237
1.82402
1.82479
1.82493
1.82422
1.82267
1.82033
1.81733
1.8137
1.80944
1.80464
1.79931
1.79352
1.78729
1.78067
1.77367
1.76633
1.75867
1.7507
1.74241
1.73386
1.72507
1.71608
1.70688
1.69752
1.68797
1.67829
1.66849
1.65858
1.64858
1.63848
1.62829
1.61804
1.60773
1.5974
1.58707
1.57677
1.56649
1.55626
1.54609
1.53599
1.52598
1.51606
1.50626
1.49652
1.48681
1.47716
1.46761
1.45821
1.44897
1.43994
1.43111
1.42249
1.41409
1.40592
1.39796
1.39023
1.38272
1.37542
1.36831
1.36139
1.35462
1.34799
1.34144
1.33493
1.3284
1.32176
1.31488
1.30764
1.29973
1.29104
1.28063
1.26913
1.25321
1.23638
1.20531
1.17889
1.08322
0.0451827
0.0242578
0.0201405
0.0206348
0.0227667
0.025751
0.029232
0.0331066
0.037265
0.0416571
0.0463125
0.051337
0.0569194
0.0633372
0.0708847
0.0796476
0.0895854
0.1007
0.113047
0.126715
0.141792
0.158356
0.176473
0.196228
0.217568
0.240315
0.264346
0.289544
0.315789
0.343
0.370758
0.398866
0.427176
0.455546
0.483778
0.511816
0.539571
0.567008
0.59407
0.620747
0.647
0.672834
0.698216
0.723156
0.74762
0.771616
0.795104
0.818085
0.840512
0.862381
0.883637
0.904273
0.924232
0.943506
0.962043
0.979837
0.996854
1.01314
1.02874
1.04387
1.05885
1.07449
1.09041
1.10546
1.11969
1.13307
1.14551
1.157
1.16744
1.17697
1.18523
1.193
1.19961
1.20506
1.20882
1.21148
1.21261
1.21252
1.21095
1.20797
1.20352
1.19756
1.19014
1.18144
1.17144
1.16019
1.1477
1.13398
1.1191
1.10312
1.0861
1.06811
1.04925
1.02961
1.00928
0.988355
0.966964
0.945259
0.923483
0.902177
0.88291
0.868639
0.85885
0.850861
0.843393
0.835965
0.828407
0.82069
0.812811
0.804806
0.796693
0.788498
0.780238
0.771935
0.763609
0.755277
0.746953
0.738653
0.730388
0.722162
0.713993
0.705884
0.697834
0.689848
0.681934
0.674096
0.666339
0.658668
0.651087
0.643602
0.636217
0.628938
0.621763
0.614693
0.607732
0.600882
0.594151
0.587543
0.581065
0.574719
0.568509
0.562436
0.556501
0.550705
0.545054
0.539531
0.534257
0.529172
0.524218
0.519384
0.514671
0.510084
0.505624
0.501293
0.497095
0.49303
0.489097
0.485294
0.481621
0.478077
0.474658
0.471362
0.468186
0.465126
0.46218
0.459342
0.456611
0.453978
0.451448
0.449002
0.446665
0.444381
0.442226
0.440091
0.437875
0.436236
0.434229
0.432875
0.434351
0.438756
0.0887307
0.041873
0.0309796
0.0288315
0.0296787
0.0319955
0.0352545
0.0392626
0.0439198
0.0491728
0.0550042
0.0614305
0.0684989
0.0762743
0.0848101
0.0941141
0.10416
0.11492
0.126375
0.13851
0.151305
0.164723
0.178703
0.193108
0.207826
0.223036
0.238641
0.254584
0.270811
0.287263
0.303862
0.320561
0.337321
0.354111
0.370897
0.387666
0.404398
0.421085
0.437709
0.454264
0.470735
0.487116
0.503393
0.519557
0.535594
0.551495
0.567245
0.582833
0.598242
0.613462
0.628477
0.643277
0.657848
0.672183
0.686275
0.700127
0.713744
0.727151
0.740383
0.753497
0.766612
0.779661
0.792496
0.804936
0.816941
0.828469
0.839479
0.849935
0.859798
0.869042
0.877609
0.885536
0.892689
0.899006
0.904403
0.908919
0.912497
0.915176
0.916664
0.917068
0.916411
0.914721
0.911968
0.908184
0.903381
0.897572
0.890766
0.882984
0.874255
0.864618
0.854117
0.842804
0.830738
0.81798
0.8046
0.790673
0.776289
0.761564
0.746669
0.731906
0.717836
0.705191
0.693962
0.683554
0.673509
0.663592
0.653696
0.64379
0.633872
0.623959
0.614071
0.604226
0.594438
0.584722
0.575093
0.565564
0.556146
0.546849
0.53768
0.528644
0.519747
0.510993
0.502383
0.493919
0.485602
0.477435
0.469418
0.461551
0.453832
0.446263
0.438843
0.431577
0.42446
0.417492
0.410673
0.404004
0.397482
0.391111
0.384894
0.37883
0.37292
0.367166
0.361564
0.356114
0.350816
0.345666
0.340683
0.33586
0.331187
0.326656
0.322263
0.318007
0.313889
0.309911
0.306068
0.302358
0.298778
0.295325
0.291998
0.288793
0.285709
0.282742
0.27989
0.277151
0.274523
0.272004
0.269593
0.267288
0.265094
0.263008
0.261046
0.259197
0.257507
0.255953
0.254599
0.253605
0.252669
0.252642
0.254801
0.26183
0.127271
0.058127
0.042699
0.0391872
0.0395106
0.0417319
0.0451644
0.0495342
0.0547095
0.0606112
0.0671813
0.074372
0.0821416
0.0904514
0.0992599
0.10852
0.118183
0.128208
0.138564
0.149232
0.160195
0.171439
0.182948
0.194726
0.206808
0.21904
0.231556
0.244313
0.257285
0.270445
0.283764
0.29722
0.310792
0.324462
0.338214
0.352034
0.365908
0.379824
0.393769
0.407734
0.421707
0.435679
0.44964
0.463582
0.477494
0.491371
0.505202
0.518981
0.532698
0.54635
0.559926
0.573422
0.586832
0.600154
0.613384
0.626524
0.639576
0.652545
0.665434
0.678262
0.690993
0.703572
0.715927
0.727993
0.739725
0.751081
0.762019
0.772497
0.782474
0.791905
0.800746
0.808956
0.816473
0.823244
0.829221
0.834378
0.838676
0.842086
0.844556
0.845906
0.846278
0.845667
0.844089
0.841525
0.83798
0.833464
0.827989
0.821577
0.814255
0.80606
0.797032
0.787219
0.776674
0.765455
0.753625
0.741253
0.728419
0.715224
0.701802
0.688339
0.675096
0.662337
0.650114
0.638283
0.626684
0.615212
0.603815
0.592477
0.581199
0.569998
0.558899
0.547914
0.537053
0.526332
0.515763
0.505357
0.495124
0.485072
0.475204
0.465526
0.45604
0.446749
0.437653
0.428752
0.420043
0.411527
0.403201
0.395064
0.387114
0.379349
0.371766
0.364365
0.357142
0.350095
0.343221
0.336516
0.329974
0.323598
0.317387
0.311342
0.305462
0.299744
0.294184
0.28878
0.283532
0.278437
0.273498
0.268713
0.264077
0.259586
0.255235
0.251023
0.246947
0.243006
0.239198
0.235519
0.231967
0.228539
0.225233
0.222045
0.218972
0.216013
0.213164
0.210423
0.207788
0.205257
0.202829
0.200504
0.198283
0.196167
0.194166
0.192279
0.190531
0.188926
0.187514
0.186358
0.185512
0.185099
0.186029
0.19027
0.151661
0.0713686
0.0539004
0.0497929
0.049889
0.0520956
0.0556256
0.0601546
0.0655181
0.0716096
0.0783406
0.0856283
0.0933927
0.10156
0.110063
0.118849
0.127877
0.137121
0.146571
0.156227
0.166095
0.176186
0.18651
0.197077
0.207895
0.218989
0.230252
0.241732
0.253457
0.265393
0.277519
0.289817
0.302272
0.31487
0.327598
0.340444
0.353396
0.366444
0.379578
0.392787
0.406064
0.419399
0.432786
0.446216
0.459682
0.473179
0.486699
0.500236
0.513784
0.527338
0.540893
0.554437
0.567964
0.581472
0.594954
0.608405
0.621818
0.635187
0.648502
0.661733
0.674835
0.687762
0.700465
0.712895
0.725008
0.736761
0.748108
0.759002
0.769397
0.779245
0.788495
0.797099
0.805003
0.812157
0.818517
0.824041
0.828691
0.832432
0.83523
0.836951
0.837624
0.837333
0.83605
0.833761
0.83047
0.826186
0.820927
0.814715
0.807583
0.799565
0.790706
0.781053
0.77066
0.759585
0.74789
0.735645
0.722929
0.709833
0.696466
0.68296
0.669466
0.656123
0.642991
0.630052
0.617259
0.604577
0.591988
0.579492
0.567097
0.554817
0.542655
0.530632
0.51878
0.507117
0.495656
0.484407
0.47338
0.462578
0.452008
0.441671
0.431567
0.421705
0.412077
0.402681
0.393515
0.384576
0.375861
0.367367
0.359091
0.351027
0.343174
0.335529
0.328086
0.320842
0.313792
0.306931
0.300256
0.293763
0.287451
0.281316
0.275355
0.269567
0.263941
0.258478
0.253177
0.248034
0.24305
0.23822
0.23354
0.229007
0.224618
0.22037
0.216259
0.212282
0.208438
0.204722
0.201133
0.197667
0.194321
0.191092
0.187977
0.184973
0.182077
0.179288
0.176602
0.174018
0.171535
0.169151
0.166868
0.164685
0.162609
0.160643
0.158801
0.157093
0.155555
0.154219
0.153189
0.15238
0.152607
0.154752
0.164426
0.0822457
0.0643744
0.0599808
0.059878
0.0619507
0.0653865
0.0698221
0.0750666
0.0809939
0.0875021
0.0944991
0.1019
0.109632
0.117633
0.125863
0.134294
0.142917
0.151735
0.160759
0.170002
0.179481
0.189207
0.199191
0.209436
0.219944
0.230723
0.241754
0.252998
0.264467
0.276155
0.288053
0.300148
0.312429
0.324887
0.337512
0.350294
0.363226
0.376298
0.389503
0.402833
0.41628
0.429838
0.4435
0.457258
0.471107
0.485038
0.499043
0.513115
0.527244
0.541418
0.555627
0.56987
0.584138
0.59842
0.612701
0.626963
0.641186
0.655337
0.669381
0.683277
0.696981
0.710446
0.723627
0.736476
0.748944
0.760981
0.772537
0.783558
0.793992
0.803785
0.812883
0.821234
0.828787
0.835492
0.841307
0.846191
0.850107
0.853023
0.854831
0.855545
0.855238
0.853879
0.851461
0.84799
0.84348
0.837951
0.831432
0.823957
0.815567
0.806308
0.796233
0.785397
0.773863
0.761698
0.748972
0.735766
0.722162
0.708254
0.694145
0.679941
0.665738
0.651599
0.637551
0.623602
0.609753
0.596013
0.582393
0.56891
0.555582
0.542427
0.529473
0.516731
0.504215
0.491937
0.479908
0.468135
0.456623
0.445377
0.434396
0.423681
0.413221
0.403024
0.393091
0.38342
0.374006
0.364847
0.355936
0.347271
0.338844
0.330652
0.322692
0.314957
0.307441
0.300139
0.293046
0.286157
0.279467
0.272972
0.266669
0.260552
0.254619
0.248863
0.24328
0.237867
0.23262
0.227537
0.22261
0.217836
0.213214
0.208739
0.204409
0.200218
0.196164
0.192244
0.188455
0.184793
0.181255
0.177838
0.174539
0.171355
0.168282
0.165318
0.16246
0.159706
0.157053
0.154499
0.152045
0.149689
0.147432
0.145278
0.143229
0.141297
0.13949
0.137833
0.136352
0.135123
0.134128
0.133716
0.134705
0.207579
0.0999244
0.0764852
0.0701738
0.0692296
0.0707763
0.0738346
0.0779367
0.0828407
0.0883965
0.0944937
0.101042
0.107965
0.115201
0.122702
0.130439
0.138395
0.146569
0.154966
0.163598
0.17248
0.181625
0.191042
0.20074
0.210721
0.220987
0.231537
0.242366
0.253465
0.264829
0.276456
0.288327
0.300432
0.312766
0.325321
0.338092
0.351074
0.364262
0.377649
0.39123
0.404999
0.418948
0.433073
0.447368
0.461826
0.476441
0.491202
0.506099
0.521122
0.53626
0.551501
0.56683
0.582227
0.597675
0.613151
0.62863
0.644085
0.659481
0.674784
0.689956
0.704953
0.719729
0.734234
0.748418
0.762227
0.775608
0.788505
0.80086
0.812617
0.823717
0.834103
0.843719
0.852507
0.860417
0.867398
0.873404
0.878395
0.882335
0.885193
0.886865
0.887407
0.886833
0.885131
0.882304
0.87836
0.873319
0.867208
0.86006
0.851917
0.842823
0.832832
0.822002
0.810395
0.798079
0.785124
0.771604
0.757597
0.743185
0.728452
0.713487
0.698376
0.683202
0.668027
0.652898
0.637845
0.622893
0.608064
0.593381
0.578864
0.564537
0.55042
0.536535
0.522898
0.509522
0.496421
0.483602
0.471074
0.458841
0.446906
0.435269
0.423929
0.412884
0.402136
0.39168
0.381511
0.371624
0.362015
0.352679
0.343608
0.334798
0.326241
0.317929
0.309861
0.30203
0.294433
0.287062
0.279913
0.272978
0.266254
0.259735
0.253416
0.247293
0.241358
0.235608
0.230038
0.224642
0.219418
0.214359
0.209461
0.20472
0.200132
0.195693
0.191396
0.187239
0.183219
0.179333
0.175577
0.171947
0.16844
0.165053
0.161782
0.158624
0.155577
0.152637
0.149802
0.14707
0.144438
0.141905
0.13947
0.137135
0.1349
0.132768
0.130748
0.128847
0.127083
0.125478
0.124081
0.122919
0.122055
0.12236
0.285826
0.125239
0.0903224
0.0802196
0.0776776
0.0782751
0.0806953
0.0842868
0.0887248
0.0938222
0.0994558
0.105536
0.111994
0.118779
0.125854
0.133196
0.140795
0.148651
0.156766
0.165152
0.173818
0.182777
0.192035
0.2016
0.211474
0.221659
0.232154
0.242959
0.254073
0.265494
0.277217
0.289236
0.301547
0.314149
0.327039
0.340214
0.35367
0.367405
0.381411
0.395685
0.410218
0.425005
0.440038
0.455306
0.4708
0.486507
0.502417
0.518518
0.534795
0.551232
0.56781
0.584508
0.601301
0.618161
0.63506
0.651964
0.668836
0.685635
0.702318
0.718838
0.735144
0.751183
0.766899
0.782233
0.797127
0.811519
0.825348
0.83855
0.851062
0.862823
0.873771
0.883846
0.892992
0.901154
0.908283
0.914333
0.919265
0.923045
0.925639
0.926963
0.927103
0.926027
0.92374
0.920253
0.915585
0.909762
0.902817
0.894793
0.885738
0.875705
0.864755
0.852954
0.840369
0.827074
0.813142
0.79865
0.783677
0.768302
0.752606
0.736671
0.720574
0.704392
0.688187
0.672015
0.655916
0.639927
0.62408
0.608401
0.592918
0.577654
0.562632
0.547872
0.533391
0.519203
0.50532
0.49175
0.478501
0.465575
0.452975
0.440702
0.428754
0.417128
0.405823
0.394834
0.384157
0.373785
0.363713
0.353934
0.344443
0.335233
0.326294
0.317626
0.309219
0.301067
0.293163
0.285502
0.278076
0.270879
0.263906
0.257149
0.250602
0.244262
0.238122
0.232177
0.226422
0.220852
0.215461
0.210244
0.205196
0.200313
0.195589
0.19102
0.186599
0.182325
0.178191
0.174195
0.170331
0.166596
0.162987
0.159501
0.156133
0.152881
0.149741
0.146711
0.143787
0.140968
0.138251
0.135634
0.133117
0.130699
0.128382
0.126167
0.12406
0.122069
0.120207
0.11849
0.116953
0.115633
0.114503
0.114286
0.371526
0.151633
0.103743
0.0892553
0.0847586
0.0842485
0.0858909
0.0888893
0.0928209
0.0974537
0.102646
0.108305
0.114364
0.120776
0.127511
0.134553
0.141893
0.149531
0.157456
0.165681
0.174218
0.183077
0.192265
0.201789
0.211652
0.221858
0.232407
0.243296
0.254545
0.266156
0.278127
0.290459
0.30315
0.316201
0.329612
0.343381
0.357507
0.371987
0.386816
0.40199
0.417501
0.433342
0.449503
0.465973
0.48274
0.499787
0.517101
0.534661
0.552448
0.570438
0.588605
0.606918
0.625346
0.643852
0.662395
0.680935
0.699423
0.71781
0.736042
0.754061
0.771809
0.789223
0.806237
0.822787
0.838804
0.85422
0.868967
0.882976
0.896179
0.908511
0.919907
0.930306
0.939652
0.947889
0.954971
0.960855
0.965505
0.968892
0.970971
0.971734
0.971198
0.969358
0.966228
0.961831
0.956193
0.94935
0.941346
0.932232
0.922065
0.910908
0.898829
0.885901
0.872197
0.857796
0.842773
0.82721
0.811184
0.794775
0.778062
0.761121
0.744028
0.726853
0.70966
0.692504
0.675435
0.658492
0.641711
0.625125
0.60876
0.592643
0.576796
0.561239
0.545988
0.531057
0.516456
0.502195
0.488279
0.474711
0.461494
0.448625
0.436105
0.423929
0.412095
0.400598
0.389431
0.378591
0.368069
0.357859
0.347954
0.338348
0.329032
0.320001
0.311247
0.302763
0.294543
0.286579
0.278865
0.271393
0.264158
0.257151
0.250369
0.243804
0.23745
0.231301
0.225351
0.219595
0.214026
0.208639
0.203427
0.198387
0.193513
0.188801
0.184244
0.179838
0.17558
0.171463
0.167483
0.163636
0.159919
0.156327
0.152856
0.149504
0.146267
0.143142
0.140125
0.137215
0.13441
0.131706
0.129103
0.126601
0.1242
0.121902
0.11971
0.117631
0.115675
0.113856
0.112196
0.110733
0.109422
0.108789
0.456653
0.176688
0.115721
0.096804
0.0902482
0.0886325
0.089487
0.0918934
0.0953389
0.0995474
0.104357
0.109666
0.115409
0.121526
0.127996
0.134808
0.141959
0.149456
0.15727
0.165413
0.173894
0.18272
0.191903
0.201448
0.211365
0.22166
0.232339
0.243407
0.254898
0.266813
0.279157
0.291934
0.305147
0.3188
0.332894
0.34743
0.362408
0.377826
0.39368
0.409965
0.426674
0.443796
0.46132
0.479232
0.497514
0.516147
0.535108
0.554372
0.573909
0.593687
0.613671
0.63382
0.654091
0.674437
0.694807
0.715146
0.735396
0.755495
0.775378
0.794976
0.814219
0.833035
0.851349
0.869086
0.88617
0.902526
0.91808
0.932758
0.946488
0.959203
0.970838
0.981331
0.990629
0.99868
1.00544
1.01087
1.01495
1.01765
1.01894
1.01883
1.01733
1.01443
1.01019
1.00462
0.997767
0.989677
0.980404
0.970009
0.95856
0.946128
0.932789
0.918621
0.903705
0.88812
0.871947
0.855268
0.838162
0.820707
0.80298
0.785056
0.767005
0.748896
0.730789
0.71274
0.694799
0.677008
0.659404
0.642019
0.624882
0.608019
0.59145
0.575195
0.559269
0.543685
0.528454
0.513583
0.499076
0.484936
0.471166
0.457762
0.444724
0.432049
0.419731
0.407766
0.396148
0.38487
0.373927
0.36331
0.353014
0.34303
0.333351
0.32397
0.31488
0.306073
0.297542
0.28928
0.28128
0.273534
0.266037
0.258779
0.251756
0.244961
0.238386
0.232026
0.225875
0.219925
0.214172
0.208608
0.203229
0.198028
0.193
0.18814
0.183441
0.178899
0.174509
0.170266
0.166164
0.162201
0.158371
0.15467
0.151094
0.147639
0.144302
0.14108
0.137969
0.134966
0.132071
0.129279
0.12659
0.124004
0.121519
0.119137
0.116862
0.114698
0.112652
0.110737
0.108967
0.107375
0.10592
0.104968
0.534479
0.198871
0.125751
0.102704
0.0942119
0.0915435
0.0916656
0.0935288
0.0965412
0.100387
0.104874
0.1099
0.115405
0.12133
0.12764
0.134313
0.141339
0.148703
0.156419
0.164499
0.172954
0.181795
0.191033
0.200681
0.210749
0.221251
0.232206
0.243596
0.255446
0.267788
0.280643
0.29402
0.307922
0.322355
0.337324
0.352829
0.368873
0.385454
0.402567
0.420207
0.438363
0.457023
0.476171
0.495786
0.515846
0.536323
0.557186
0.578399
0.599924
0.621716
0.643727
0.665906
0.688195
0.710534
0.732858
0.755099
0.777185
0.799041
0.820589
0.841749
0.862439
0.882574
0.902072
0.920849
0.938822
0.955909
0.972032
0.987115
1.00108
1.01387
1.02542
1.03566
1.04456
1.05206
1.05813
1.06275
1.06589
1.06753
1.06769
1.06637
1.06355
1.0593
1.05365
1.04665
1.03834
1.02878
1.01805
1.00621
0.993335
0.97951
0.964817
0.949339
0.93316
0.916362
0.899029
0.881242
0.863079
0.844619
0.825934
0.807097
0.788174
0.769229
0.750319
0.731497
0.712812
0.694305
0.676012
0.657964
0.640189
0.622709
0.605545
0.588714
0.572231
0.556108
0.540352
0.524972
0.509969
0.495348
0.481107
0.467246
0.453763
0.440653
0.427912
0.415535
0.403516
0.391848
0.380525
0.36954
0.358886
0.348554
0.338539
0.328832
0.319427
0.310315
0.30149
0.292944
0.28467
0.27666
0.268908
0.261406
0.254148
0.247126
0.240335
0.233766
0.227415
0.221273
0.215335
0.209595
0.204046
0.198682
0.193498
0.188487
0.183644
0.178964
0.174441
0.170071
0.165847
0.161765
0.157822
0.154011
0.150328
0.146771
0.143334
0.140015
0.136809
0.133715
0.13073
0.127851
0.125076
0.122406
0.119839
0.117375
0.115018
0.112771
0.11064
0.108634
0.106764
0.105054
0.103476
0.102278
0.599032
0.217029
0.133583
0.106982
0.0968061
0.0931682
0.0926777
0.0940644
0.0967092
0.100277
0.104543
0.109378
0.114692
0.12043
0.126577
0.133122
0.140057
0.147386
0.155111
0.16324
0.171784
0.180757
0.190176
0.200063
0.210419
0.221253
0.232573
0.244402
0.256787
0.269756
0.283329
0.297525
0.312351
0.327813
0.343916
0.360665
0.378059
0.396098
0.414773
0.434076
0.453992
0.474503
0.495585
0.517211
0.539346
0.561954
0.584991
0.608408
0.632153
0.656167
0.680386
0.704744
0.729168
0.753582
0.777904
0.802053
0.825941
0.84948
0.872578
0.895142
0.91708
0.938298
0.958706
0.978212
0.99673
1.01418
1.03047
1.04553
1.0593
1.0717
1.08269
1.09221
1.10022
1.10669
1.11161
1.11494
1.1167
1.11687
1.11551
1.11255
1.10808
1.10215
1.0948
1.0861
1.0761
1.06489
1.05253
1.0391
1.0247
1.00941
0.993309
0.976499
0.95906
0.941073
0.922621
0.903786
0.884645
0.865271
0.845734
0.826102
0.806436
0.786794
0.767228
0.747788
0.728517
0.709456
0.690636
0.672086
0.65383
0.635888
0.618279
0.601017
0.584116
0.567585
0.551431
0.53566
0.520275
0.505278
0.490667
0.476442
0.462599
0.449135
0.436046
0.423326
0.410969
0.39897
0.387321
0.376016
0.365049
0.354411
0.344096
0.334097
0.324407
0.315018
0.305923
0.297115
0.288586
0.28033
0.27234
0.264608
0.257127
0.24989
0.242891
0.236123
0.229578
0.223251
0.217134
0.211221
0.205507
0.199983
0.194646
0.189488
0.184503
0.179687
0.175033
0.170535
0.16619
0.161991
0.157934
0.154014
0.150227
0.146568
0.143033
0.139619
0.136322
0.133138
0.130064
0.1271
0.124242
0.12149
0.118842
0.116299
0.113863
0.111536
0.109323
0.10723
0.105267
0.103451
0.101763
0.10037
0.644798
0.229967
0.138989
0.109689
0.0981913
0.0937624
0.0927726
0.0938158
0.0961903
0.0994986
0.103534
0.108178
0.113356
0.119018
0.125133
0.131683
0.138663
0.146074
0.153925
0.162229
0.171012
0.180269
0.190017
0.200269
0.211027
0.222342
0.234256
0.246803
0.260014
0.27392
0.288545
0.303903
0.320007
0.336867
0.354488
0.372874
0.392023
0.411928
0.432578
0.453955
0.476038
0.498796
0.522196
0.546195
0.570747
0.595797
0.621288
0.647152
0.673319
0.699713
0.726252
0.75285
0.779417
0.80586
0.832082
0.857985
0.883466
0.908425
0.932758
0.956363
0.979138
1.00099
1.02181
1.04152
1.06002
1.07723
1.09309
1.10751
1.12044
1.13183
1.14162
1.14979
1.1563
1.16116
1.16433
1.16585
1.1657
1.16396
1.16055
1.15558
1.14909
1.14115
1.13182
1.12118
1.1093
1.09626
1.08214
1.06705
1.05106
1.03427
1.01678
0.998681
0.980044
0.96095
0.941482
0.921718
0.901731
0.88159
0.861359
0.841098
0.820863
0.800705
0.780669
0.760796
0.74113
0.721705
0.702548
0.683681
0.665126
0.646899
0.629015
0.611487
0.594324
0.577536
0.561128
0.545103
0.529463
0.51421
0.499343
0.484859
0.470757
0.457033
0.443682
0.430699
0.418079
0.405817
0.393906
0.38234
0.371113
0.360219
0.34965
0.339401
0.329464
0.319832
0.3105
0.301459
0.292703
0.284226
0.276019
0.268076
0.260391
0.252956
0.245765
0.23881
0.232085
0.225583
0.219298
0.213222
0.20735
0.201675
0.196191
0.190892
0.185771
0.180823
0.176042
0.171423
0.16696
0.162647
0.158481
0.154455
0.150566
0.146808
0.143178
0.139672
0.136285
0.133014
0.129857
0.126811
0.123872
0.121041
0.118316
0.115697
0.113184
0.110781
0.10849
0.106316
0.104267
0.102354
0.100566
0.0990141
0.671402
0.238125
0.142345
0.111138
0.0986539
0.0936311
0.0922679
0.0929696
0.095077
0.0982122
0.102147
0.106744
0.111921
0.117628
0.123836
0.130533
0.137726
0.145402
0.153566
0.162231
0.171397
0.181089
0.191353
0.202229
0.213754
0.225963
0.238898
0.252596
0.267095
0.282429
0.298615
0.315666
0.333597
0.352418
0.372132
0.392736
0.414221
0.43657
0.459761
0.483761
0.508534
0.534032
0.560203
0.586985
0.614311
0.642106
0.670289
0.698772
0.727464
0.756267
0.785079
0.813796
0.842309
0.870508
0.898282
0.92552
0.952108
0.977936
1.00289
1.02688
1.04978
1.07151
1.09196
1.11105
1.12871
1.14485
1.15941
1.17234
1.1836
1.19313
1.20093
1.20697
1.21125
1.21378
1.21455
1.21367
1.21106
1.20678
1.20092
1.19353
1.18467
1.17441
1.16284
1.15007
1.13615
1.12118
1.10525
1.08847
1.07091
1.05268
1.03387
1.01454
0.994797
0.974717
0.954383
0.933864
0.913225
0.892526
0.871822
0.851164
0.830598
0.810166
0.789903
0.769842
0.750013
0.730445
0.711164
0.692189
0.673536
0.655219
0.637249
0.619635
0.602383
0.585502
0.568996
0.552866
0.537113
0.521737
0.506737
0.492113
0.477862
0.46398
0.450462
0.437306
0.424506
0.412058
0.399957
0.388197
0.376773
0.365679
0.35491
0.344459
0.334321
0.324489
0.314958
0.30572
0.29677
0.2881
0.279705
0.271578
0.263712
0.256101
0.248737
0.241614
0.234725
0.228064
0.221625
0.215399
0.209382
0.203567
0.197946
0.192515
0.187267
0.182196
0.177296
0.172562
0.167987
0.163567
0.159297
0.155171
0.151184
0.147333
0.143612
0.140017
0.136545
0.133192
0.129955
0.12683
0.123816
0.12091
0.118111
0.115419
0.112835
0.110359
0.107994
0.105744
0.103614
0.101614
0.0997337
0.0980512
0.674388
0.239927
0.143082
0.11118
0.0982895
0.0929013
0.0912351
0.0917749
0.0937955
0.0969023
0.100869
0.105565
0.110917
0.116867
0.12338
0.130441
0.138032
0.146153
0.154845
0.16414
0.174083
0.184701
0.196035
0.208128
0.221026
0.234772
0.24941
0.264982
0.281531
0.299076
0.317632
0.337214
0.357829
0.379476
0.402145
0.425817
0.450465
0.476052
0.502532
0.529849
0.557939
0.586729
0.616139
0.64608
0.676457
0.70717
0.738111
0.769171
0.800233
0.831182
0.861895
0.892254
0.922135
0.951419
0.979985
1.00772
1.0345
1.06022
1.08477
1.10806
1.12998
1.15045
1.16938
1.1867
1.20236
1.21629
1.22844
1.23879
1.24732
1.25401
1.25884
1.26187
1.26306
1.2625
1.26023
1.25619
1.25051
1.24325
1.23452
1.22435
1.21281
1.19999
1.18599
1.17084
1.15466
1.1376
1.11978
1.10128
1.08221
1.06263
1.04265
1.02233
1.00177
0.981041
0.960168
0.939208
0.918216
0.897244
0.876339
0.855544
0.834897
0.814432
0.794178
0.774167
0.75444
0.735003
0.715867
0.697044
0.678545
0.660378
0.642551
0.625068
0.607928
0.591132
0.574693
0.558615
0.542897
0.527539
0.512538
0.497899
0.483615
0.469685
0.456104
0.442871
0.429981
0.417432
0.405219
0.393338
0.381784
0.370555
0.359643
0.349046
0.338758
0.328773
0.319086
0.309692
0.300586
0.29176
0.283209
0.274928
0.266909
0.259147
0.251635
0.244366
0.237335
0.230535
0.223959
0.2176
0.211454
0.205512
0.199769
0.194218
0.188854
0.183671
0.178662
0.173821
0.169144
0.164625
0.160259
0.156039
0.151963
0.148024
0.144218
0.140541
0.13699
0.133559
0.130247
0.127049
0.123963
0.120987
0.11812
0.11536
0.112708
0.110164
0.10773
0.105409
0.103205
0.101124
0.0991602
0.0973671
0.657811
0.23734
0.142018
0.110286
0.0972232
0.0917039
0.0900084
0.0905902
0.0927242
0.0960386
0.100291
0.105345
0.111114
0.117533
0.124614
0.132367
0.140819
0.149993
0.15992
0.17064
0.182203
0.194655
0.208044
0.22242
0.237831
0.254325
0.271942
0.290717
0.310669
0.331821
0.354191
0.377761
0.402508
0.4284
0.455394
0.483435
0.512457
0.542386
0.573135
0.604609
0.636707
0.669316
0.702323
0.735605
0.769039
0.802497
0.835849
0.868965
0.901717
0.933974
0.965608
0.996494
1.02651
1.05554
1.08346
1.11018
1.13559
1.15958
1.18208
1.20299
1.22226
1.2398
1.25556
1.2695
1.28158
1.29177
1.30006
1.30643
1.31092
1.31353
1.31421
1.31323
1.31042
1.30582
1.2996
1.29181
1.28248
1.2717
1.25946
1.24584
1.23108
1.21528
1.19858
1.18111
1.16303
1.14433
1.12506
1.10529
1.08512
1.06461
1.04383
1.02286
1.00178
0.980603
0.959397
0.938216
0.917106
0.896106
0.875254
0.85458
0.834112
0.813875
0.793887
0.774161
0.754726
0.735593
0.716769
0.698262
0.680077
0.662219
0.64469
0.627493
0.610629
0.594118
0.577946