/*--------------------------------*- C++ -*----------------------------------*\
| =========                 |                                                 |
| \\      /  F ield         | OpenFOAM: The Open Source CFD Toolbox           |
|  \\    /   O peration     | Version:  2312                                  |
|   \\  /    A nd           | Website:  www.openfoam.com                      |
|    \\/     M anipulation  |                                                 |
\*---------------------------------------------------------------------------*/
FoamFile
{
    version     2.0;
    format      ascii;
    arch        "LSB;label=32;scalar=64";
    class       volScalarField;
    location    "150";
    object      k;
}
// * * * * * * * * * * * * * * * * * * * * * * * * * * * * * * * * * * * * * //

dimensions      [0 2 -2 0 0 0 0];

internalField   nonuniform List<scalar> 
12225
(
0.517801
0.711672
0.793719
0.798533
0.787819
0.760226
0.730368
0.702746
0.678655
0.658201
0.641047
0.6268
0.614825
0.605035
0.596447
0.590282
0.58371
0.580621
0.43595
0.440172
0.428455
0.403625
0.382552
0.365887
0.35309
0.344008
0.338592
0.335317
0.334291
0.334593
0.335565
0.336781
0.339308
0.340616
0.343403
0.344715
0.392668
0.393603
0.38542
0.36672
0.344564
0.324287
0.306858
0.291736
0.279832
0.26999
0.262766
0.25693
0.253101
0.249945
0.248273
0.246976
0.246444
0.246337
0.37938
0.377787
0.372776
0.362581
0.349737
0.336124
0.322955
0.310364
0.299134
0.288703
0.279907
0.271748
0.265226
0.259018
0.254389
0.249783
0.24655
0.243111
0.374833
0.372715
0.368505
0.361905
0.353769
0.344753
0.335577
0.326358
0.317655
0.309209
0.301591
0.294224
0.28786
0.281582
0.276395
0.271035
0.266954
0.262388
0.37332
0.370313
0.366498
0.361537
0.355682
0.349194
0.342471
0.335583
0.328879
0.322241
0.316025
0.309938
0.304413
0.298961
0.294202
0.289336
0.285373
0.280987
0.372807
0.369124
0.36538
0.361161
0.356481
0.35142
0.346179
0.340797
0.335477
0.330172
0.325088
0.320085
0.315409
0.310807
0.306629
0.302417
0.298807
0.294907
0.372668
0.368557
0.364706
0.3608
0.356732
0.352488
0.348151
0.343736
0.339351
0.334983
0.330742
0.326569
0.322595
0.318696
0.315066
0.311448
0.308228
0.30483
0.372647
0.368314
0.364325
0.360504
0.356724
0.352934
0.349143
0.345343
0.341584
0.33786
0.334229
0.330666
0.327238
0.323885
0.320715
0.317583
0.31472
0.311761
0.372653
0.368223
0.364131
0.360295
0.356626
0.353061
0.349578
0.346154
0.3428
0.33951
0.336307
0.33318
0.330161
0.32722
0.324414
0.321662
0.319099
0.316499
0.372658
0.368194
0.364043
0.360168
0.356519
0.353045
0.349716
0.346503
0.343395
0.340381
0.337466
0.334638
0.331912
0.329269
0.326738
0.324272
0.321949
0.319629
0.372659
0.368186
0.364009
0.360106
0.356446
0.352994
0.349722
0.3466
0.343614
0.340747
0.337994
0.335343
0.332796
0.33034
0.327989
0.325712
0.323554
0.321426
0.372659
0.368182
0.363993
0.360072
0.356398
0.352944
0.349689
0.346607
0.343682
0.340896
0.338239
0.335697
0.333268
0.330939
0.328712
0.326569
0.324532
0.322546
0.372658
0.368179
0.363983
0.360052
0.356365
0.352902
0.349644
0.346573
0.343672
0.340924
0.338318
0.33584
0.333484
0.331236
0.329096
0.327047
0.325099
0.323221
0.372657
0.368176
0.363976
0.360039
0.356343
0.352871
0.349606
0.346531
0.343631
0.340893
0.338303
0.335851
0.333526
0.331318
0.329222
0.327226
0.325328
0.323516
0.372656
0.368173
0.363971
0.360029
0.356328
0.352849
0.349577
0.346495
0.34359
0.340848
0.338258
0.335808
0.33349
0.331293
0.32921
0.327233
0.325355
0.323569
0.372656
0.368171
0.363966
0.360021
0.356316
0.352833
0.349556
0.346469
0.343558
0.34081
0.338215
0.335761
0.33344
0.331241
0.329157
0.327181
0.325305
0.323525
0.372656
0.36817
0.363964
0.360017
0.356309
0.352823
0.349542
0.346451
0.343536
0.340784
0.338184
0.335726
0.3334
0.331198
0.32911
0.327131
0.325253
0.32347
0.372656
0.36817
0.363964
0.360016
0.356307
0.35282
0.349537
0.346444
0.343526
0.340772
0.33817
0.33571
0.333381
0.331175
0.329085
0.327103
0.325222
0.323436
0.372656
0.368171
0.363965
0.360019
0.356311
0.352825
0.349543
0.346451
0.343534
0.340781
0.338178
0.335717
0.333386
0.331178
0.329084
0.327096
0.325209
0.323416
0.372656
0.368172
0.363969
0.360024
0.35632
0.352838
0.34956
0.34647
0.343555
0.340799
0.338191
0.33572
0.333376
0.33115
0.329034
0.327021
0.325103
0.323279
0.372657
0.368174
0.363974
0.360038
0.356344
0.35287
0.349597
0.346503
0.343572
0.340789
0.33814
0.335615
0.333205
0.330904
0.328702
0.326597
0.324578
0.322654
0.372655
0.368177
0.363999
0.360092
0.356423
0.352955
0.349655
0.346502
0.343475
0.340563
0.337758
0.335054
0.332447
0.329935
0.327512
0.325185
0.322935
0.320791
0.372643
0.368215
0.364128
0.3603
0.356643
0.353099
0.349632
0.34623
0.34289
0.33962
0.336421
0.333307
0.330276
0.327344
0.324499
0.321765
0.319109
0.31659
0.372635
0.368469
0.364634
0.360891
0.357079
0.353161
0.349151
0.345099
0.341036
0.337014
0.333051
0.329187
0.32542
0.321787
0.318265
0.314905
0.311638
0.308575
0.37284
0.369539
0.366148
0.362224
0.357688
0.352686
0.347385
0.341958
0.336494
0.331118
0.325843
0.320764
0.315847
0.31118
0.306681
0.302468
0.298384
0.294635
0.37432
0.373097
0.370167
0.365153
0.358373
0.350669
0.342579
0.33448
0.326511
0.31889
0.311571
0.304744
0.298246
0.292283
0.286619
0.281498
0.276594
0.272247
0.381266
0.38572
0.382104
0.372933
0.359469
0.345683
0.332424
0.320091
0.30869
0.298458
0.289087
0.280901
0.273461
0.267056
0.261251
0.256282
0.251827
0.247961
0.407694
0.411613
0.403617
0.386601
0.368794
0.352503
0.338831
0.327437
0.317646
0.309898
0.303542
0.298705
0.294805
0.291978
0.289793
0.288285
0.287315
0.286631
0.44027
0.54501
0.604977
0.634792
0.641497
0.63867
0.631156
0.618926
0.6059
0.593091
0.581009
0.569891
0.559783
0.55066
0.542451
0.535069
0.528414
0.522418
0.00212451
0.00334059
0.00465882
0.00586422
0.00688246
0.00772139
0.00844087
0.00908996
0.00967511
0.0102232
0.0107654
0.0113468
0.0120374
0.0129006
0.0139007
0.0149921
0.0161515
0.0173759
0.0186638
0.0200215
0.0214499
0.0229562
0.0245399
0.0262066
0.0279525
0.0297813
0.0316897
0.033685
0.0357694
0.0379316
0.0401542
0.0424395
0.0447773
0.0471698
0.0496082
0.0520965
0.0546275
0.0572089
0.0598328
0.0625058
0.0652197
0.0679804
0.0707759
0.0736103
0.0764774
0.0793849
0.0823253
0.0853072
0.0883229
0.0913812
0.0944738
0.0976101
0.100781
0.103997
0.107249
0.110548
0.113882
0.117266
0.120687
0.124162
0.127679
0.131256
0.134888
0.138597
0.142385
0.146288
0.150324
0.154434
0.158577
0.162769
0.166996
0.17127
0.175573
0.179918
0.184287
0.188693
0.193114
0.197565
0.202026
0.206508
0.21099
0.215482
0.219962
0.224439
0.228888
0.233315
0.237696
0.242033
0.246307
0.250517
0.254659
0.25874
0.262798
0.266802
0.270731
0.274581
0.278344
0.282009
0.285568
0.289008
0.292318
0.295486
0.298499
0.301343
0.304004
0.30647
0.308727
0.310762
0.312563
0.314118
0.315408
0.316414
0.317108
0.317392
0.317435
0.317046
0.316328
0.315366
0.314042
0.312331
0.310275
0.307868
0.305059
0.301939
0.29853
0.294847
0.290924
0.286777
0.282444
0.277943
0.273312
0.26857
0.263755
0.258886
0.254007
0.249166
0.244524
0.240697
0.237588
0.23457
0.231564
0.228565
0.225575
0.2226
0.219651
0.216737
0.213869
0.211055
0.208303
0.20562
0.203011
0.200479
0.198025
0.19565
0.193355
0.191139
0.189002
0.186947
0.184975
0.183135
0.181387
0.179722
0.178138
0.176632
0.175201
0.173842
0.172552
0.171326
0.170164
0.169059
0.168015
0.167015
0.166045
0.165091
0.164143
0.163172
0.162135
0.160901
0.159328
0.152819
0.00492414
0.007761
0.0107771
0.0132206
0.0153063
0.0171634
0.0188638
0.0204749
0.0220653
0.0236808
0.025352
0.0270997
0.0289376
0.0308712
0.0328966
0.0350066
0.0371955
0.0394626
0.0418096
0.0442414
0.0467624
0.0493786
0.0520946
0.0549159
0.0578443
0.0608819
0.0640259
0.0672768
0.0706323
0.0740904
0.0776473
0.0813024
0.0850526
0.0888978
0.0928355
0.0968671
0.100992
0.105216
0.109538
0.113963
0.118493
0.123136
0.127881
0.132713
0.137634
0.142644
0.147744
0.152938
0.158223
0.163605
0.169081
0.174656
0.180328
0.186102
0.191976
0.197953
0.204032
0.210218
0.216507
0.222905
0.229408
0.23602
0.242741
0.249572
0.256511
0.26356
0.270712
0.277963
0.28531
0.292757
0.300299
0.307939
0.315672
0.323501
0.331419
0.339426
0.347517
0.355692
0.363945
0.372275
0.380676
0.389145
0.397674
0.40626
0.414891
0.423562
0.432259
0.440975
0.449693
0.458399
0.46707
0.475678
0.484188
0.492639
0.501057
0.50943
0.517746
0.525989
0.534141
0.542184
0.550095
0.55785
0.565425
0.572791
0.579918
0.586777
0.593334
0.599556
0.605409
0.61086
0.615882
0.620401
0.624374
0.627746
0.630535
0.632439
0.633727
0.634302
0.63437
0.633582
0.632036
0.629752
0.626744
0.623051
0.618703
0.613741
0.608206
0.602146
0.595611
0.588653
0.581327
0.573686
0.565785
0.557675
0.549412
0.541053
0.532683
0.524431
0.516301
0.508218
0.500196
0.492262
0.484443
0.476765
0.469248
0.461908
0.45476
0.447814
0.441078
0.434557
0.428254
0.422172
0.41631
0.410668
0.405244
0.400033
0.395033
0.390236
0.385638
0.38124
0.377031
0.373
0.369138
0.365433
0.361874
0.35845
0.355147
0.351952
0.348863
0.345864
0.342939
0.340066
0.337228
0.334404
0.331575
0.328719
0.325776
0.322806
0.319261
0.309859
0.00761168
0.0125343
0.0166997
0.0199342
0.022706
0.0252326
0.0276311
0.0299782
0.0323288
0.0347221
0.037185
0.0397345
0.0423806
0.0451272
0.0479737
0.050918
0.0539583
0.0570953
0.0603311
0.0636703
0.0671172
0.0706776
0.0743559
0.0781565
0.0820819
0.0861332
0.0903098
0.0946123
0.09904
0.103592
0.108267
0.113063
0.117981
0.12302
0.128178
0.133455
0.138852
0.144366
0.149999
0.155748
0.161615
0.167598
0.173695
0.179904
0.186225
0.19266
0.199209
0.205875
0.212658
0.219559
0.22658
0.233722
0.240986
0.248373
0.255883
0.263518
0.271277
0.279161
0.287171
0.295307
0.303566
0.311951
0.320459
0.329088
0.337838
0.346704
0.355682
0.364771
0.373968
0.38327
0.392676
0.402183
0.411787
0.421485
0.431273
0.441147
0.451103
0.461136
0.471241
0.481414
0.491648
0.501941
0.512283
0.522671
0.533095
0.54355
0.554028
0.564522
0.575024
0.585528
0.596027
0.606512
0.616974
0.627405
0.637799
0.648143
0.65842
0.668613
0.678701
0.688662
0.69847
0.708098
0.717514
0.726684
0.735572
0.744138
0.752342
0.760137
0.767477
0.774313
0.780594
0.786262
0.791264
0.79555
0.799083
0.801744
0.803534
0.804384
0.804568
0.803772
0.802042
0.799397
0.795863
0.791474
0.786267
0.780291
0.773599
0.766249
0.758303
0.749828
0.74089
0.731556
0.721891
0.711963
0.701834
0.691576
0.681271
0.671012
0.660829
0.650713
0.640678
0.630754
0.620971
0.61136
0.601944
0.592744
0.583777
0.575053
0.566583
0.558372
0.550424
0.542741
0.535325
0.528172
0.52128
0.514645
0.508259
0.502117
0.496208
0.490527
0.485063
0.479803
0.474735
0.469845
0.46512
0.460544
0.456103
0.451779
0.44756
0.44343
0.439372
0.435369
0.431404
0.427463
0.423528
0.419595
0.41564
0.41174
0.407648
0.399702
0.00970426
0.0170894
0.0223384
0.0262807
0.0296258
0.0326714
0.0355719
0.0384207
0.04128
0.0441926
0.0471867
0.0502802
0.0534828
0.0567989
0.0602291
0.0637731
0.0674306
0.0712031
0.0750928
0.0791038
0.0832402
0.0875063
0.0919054
0.0964397
0.101111
0.105921
0.110871
0.115962
0.121194
0.126566
0.132076
0.137723
0.143507
0.149425
0.155477
0.161661
0.167976
0.17442
0.180993
0.187695
0.194523
0.20148
0.208562
0.215771
0.223108
0.230573
0.238168
0.245894
0.253753
0.261746
0.269874
0.278138
0.286541
0.295082
0.303763
0.312583
0.321544
0.330646
0.339889
0.349271
0.358792
0.36845
0.378245
0.388173
0.398231
0.408416
0.418725
0.429153
0.439698
0.450355
0.461123
0.471995
0.482968
0.494038
0.505198
0.516443
0.527769
0.539168
0.550637
0.562168
0.573756
0.585396
0.59708
0.608803
0.620559
0.632342
0.644144
0.655961
0.667785
0.679611
0.691433
0.70324
0.715025
0.726773
0.738474
0.750114
0.761677
0.773142
0.78449
0.795697
0.806736
0.817578
0.828191
0.838539
0.848581
0.858276
0.867577
0.876434
0.884795
0.892603
0.899801
0.906328
0.912124
0.917136
0.921311
0.924585
0.926885
0.928096
0.9285
0.927856
0.926164
0.92344
0.919706
0.914995
0.909348
0.902817
0.89546
0.887343
0.878536
0.869113
0.859148
0.848718
0.837898
0.826764
0.815392
0.80386
0.792247
0.780633
0.769062
0.757555
0.746137
0.734839
0.723694
0.712735
0.701988
0.691474
0.681213
0.671218
0.661498
0.652062
0.642913
0.634055
0.625485
0.617203
0.609205
0.601484
0.594034
0.586845
0.579907
0.573211
0.566742
0.56049
0.554437
0.548571
0.542875
0.537332
0.531926
0.526639
0.521455
0.516359
0.511333
0.506362
0.501434
0.496537
0.491667
0.486832
0.482039
0.477377
0.472658
0.465521
0.0112719
0.0212578
0.0275802
0.0322136
0.0361008
0.0396134
0.0429407
0.0461949
0.0494492
0.0527534
0.0561409
0.0596336
0.0632443
0.06698
0.0708439
0.0748373
0.0789612
0.0832172
0.0876073
0.0921345
0.0968019
0.101613
0.10657
0.111676
0.116932
0.122341
0.127903
0.133617
0.139483
0.145501
0.151667
0.157982
0.164443
0.171047
0.177795
0.184684
0.191713
0.198881
0.206189
0.213636
0.221221
0.228945
0.236807
0.244809
0.252951
0.261236
0.269663
0.278236
0.286956
0.295824
0.304841
0.31401
0.323332
0.332808
0.342439
0.352225
0.362167
0.372266
0.382519
0.392928
0.403491
0.414205
0.425069
0.43608
0.447233
0.458527
0.469956
0.481516
0.493203
0.505012
0.516939
0.528978
0.541124
0.55337
0.565709
0.578137
0.590644
0.603226
0.615875
0.628583
0.641345
0.654153
0.667001
0.679883
0.69279
0.705717
0.718658
0.731605
0.744552
0.75749
0.770414
0.783311
0.796173
0.808987
0.82174
0.83442
0.847009
0.859489
0.87184
0.884039
0.896061
0.907876
0.919451
0.930752
0.941737
0.952364
0.962584
0.972346
0.981594
0.990269
0.998308
1.00565
1.01222
1.01797
1.02283
1.02675
1.02967
1.03142
1.03219
1.03188
1.03044
1.02788
1.0242
1.01944
1.01364
1.00685
0.999143
0.990576
0.981229
0.971179
0.960511
0.949308
0.937655
0.925635
0.913331
0.900824
0.888195
0.875519
0.862851
0.85023
0.83769
0.825268
0.812999
0.800918
0.789053
0.777429
0.766066
0.754979
0.74418
0.733676
0.723473
0.713573
0.703977
0.69468
0.68568
0.676968
0.668538
0.660378
0.652477
0.644823
0.637403
0.630201
0.623203
0.616392
0.60975
0.603261
0.596908
0.590672
0.584537
0.578486
0.572505
0.566581
0.560705
0.554872
0.549087
0.54337
0.537753
0.532325
0.526929
0.519958
0.0124859
0.0249915
0.0323194
0.037609
0.0420068
0.0459503
0.0496593
0.0532638
0.0568479
0.0604691
0.0641673
0.0679696
0.0718935
0.07595
0.0801454
0.0844835
0.0889667
0.093597
0.0983764
0.103307
0.108392
0.113634
0.119033
0.124593
0.130314
0.136197
0.142243
0.14845
0.154818
0.161345
0.168031
0.174873
0.18187
0.18902
0.196323
0.203777
0.211382
0.219136
0.227041
0.235095
0.243299
0.251653
0.260159
0.268817
0.277629
0.286596
0.295721
0.305004
0.314449
0.324057
0.33383
0.34377
0.353878
0.364157
0.374606
0.385229
0.396023
0.406991
0.418131
0.429444
0.440926
0.452577
0.464393
0.476373
0.488511
0.500804
0.513247
0.525836
0.538565
0.551428
0.564419
0.577532
0.590759
0.604094
0.617528
0.631054
0.644664
0.658347
0.672098
0.685906
0.699764
0.713664
0.727597
0.741555
0.755531
0.769517
0.783503
0.797483
0.811448
0.82539
0.8393
0.853166
0.866979
0.880726
0.894397
0.907977
0.921453
0.934805
0.948017
0.961066
0.973929
0.986578
0.998982
1.01111
1.02292
1.03437
1.04541
1.05599
1.06606
1.07555
1.08441
1.09256
1.09993
1.10646
1.11207
1.11671
1.12032
1.12277
1.12408
1.12428
1.12328
1.12107
1.11766
1.11308
1.10737
1.10057
1.09275
1.08398
1.07434
1.06391
1.05278
1.04104
1.02879
1.0161
1.00308
0.989795
0.976341
0.962791
0.949207
0.935639
0.922134
0.908731
0.89547
0.882389
0.869519
0.856886
0.844514
0.832418
0.820612
0.809106
0.797905
0.787012
0.776427
0.766148
0.756169
0.746484
0.737083
0.727956
0.719091
0.710473
0.702088
0.69392
0.685954
0.678173
0.670558
0.663092
0.655759
0.648539
0.641418
0.634379
0.62741
0.620501
0.613647
0.60685
0.600123
0.593497
0.587018
0.580774
0.574621
0.567396
0.01429
0.0283839
0.0365441
0.0424036
0.0472539
0.0515824
0.0556315
0.0595444
0.0634138
0.067304
0.0712601
0.0753144
0.079489
0.0837989
0.0882539
0.0928604
0.0976227
0.102544
0.107626
0.112871
0.118282
0.123859
0.129605
0.13552
0.141605
0.14786
0.154286
0.160881
0.167644
0.174575
0.181672
0.188934
0.196359
0.203948
0.211698
0.219609
0.227682
0.235915
0.24431
0.252865
0.261583
0.270464
0.279508
0.288719
0.298098
0.307646
0.317366
0.327261
0.337332
0.347583
0.358015
0.368631
0.379433
0.390424
0.401603
0.412974
0.424536
0.436291
0.448237
0.460374
0.472701
0.485216
0.497916
0.510797
0.523856
0.537089
0.550489
0.564051
0.577769
0.591637
0.605646
0.619789
0.634058
0.648444
0.662937
0.677527
0.692204
0.706959
0.72178
0.736657
0.75158
0.766538
0.781522
0.796521
0.811526
0.826526
0.841511
0.856472
0.871398
0.88628
0.901107
0.915869
0.930554
0.945153
0.959652
0.974041
0.988304
1.00243
1.01639
1.03019
1.04378
1.05715
1.07028
1.08312
1.09565
1.10783
1.11961
1.13094
1.14176
1.15203
1.16166
1.1706
1.17878
1.18611
1.19252
1.19795
1.20232
1.20556
1.20758
1.20843
1.20803
1.20636
1.20342
1.19922
1.1938
1.1872
1.17948
1.17073
1.161
1.15041
1.13903
1.12697
1.1143
1.10114
1.08757
1.07367
1.05955
1.04527
1.03091
1.01652
1.00217
0.98789
0.973731
0.959734
0.945932
0.932355
0.919028
0.90597
0.893196
0.880717
0.86854
0.856669
0.845103
0.833842
0.822879
0.812209
0.80182
0.791703
0.781845
0.772231
0.762845
0.753673
0.744697
0.7359
0.727265
0.718773
0.710409
0.702156
0.693998
0.685921
0.677916
0.669975
0.662099
0.654294
0.64658
0.638999
0.631601
0.624472
0.617475
0.609684
0.0165142
0.0313833
0.0402049
0.046541
0.0517783
0.0564418
0.0607896
0.064974
0.0690937
0.0732173
0.0773942
0.0816603
0.0860416
0.0905565
0.095218
0.100035
0.105014
0.110159
0.115473
0.120958
0.126617
0.132451
0.13846
0.144646
0.151009
0.15755
0.164267
0.171161
0.17823
0.185474
0.192892
0.200483
0.208247
0.216183
0.224291
0.232571
0.241022
0.249645
0.258442
0.267412
0.276557
0.285879
0.295379
0.30506
0.314923
0.324973
0.33521
0.345638
0.356261
0.367081
0.3781
0.389323
0.400752
0.412388
0.424235
0.436293
0.448565
0.46105
0.473749
0.486661
0.499785
0.513119
0.526661
0.540406
0.55435
0.568488
0.582815
0.597324
0.612008
0.626859
0.641867
0.657025
0.672321
0.687744
0.703284
0.718929
0.734666
0.750483
0.766367
0.782305
0.798283
0.81429
0.830312
0.846336
0.86235
0.878342
0.894299
0.910208
0.926059
0.94184
0.957538
0.973143
0.988642
1.00403
1.01928
1.0344
1.04936
1.06417
1.07879
1.09322
1.10744
1.12142
1.13515
1.1486
1.16174
1.17453
1.18693
1.1989
1.2104
1.22135
1.2317
1.24139
1.25033
1.25846
1.26568
1.27193
1.27712
1.28119
1.28404
1.28565
1.286
1.28502
1.28271
1.27907
1.27412
1.26792
1.26051
1.25197
1.24238
1.23183
1.2204
1.2082
1.19531
1.18184
1.16789
1.15354
1.13889
1.12402
1.10901
1.09392
1.07882
1.06376
1.04879
1.03395
1.01928
1.00481
0.990573
0.97659
0.962876
0.949445
0.936305
0.92346
0.910913
0.898661
0.886701
0.875025
0.863624
0.852487
0.841602
0.830953
0.820526
0.810304
0.800271
0.79041
0.780704
0.771136
0.761689
0.752349
0.743102
0.733937
0.724845
0.715824
0.706876
0.698017
0.68927
0.680681
0.672306
0.664224
0.656304
0.64782
0.0185797
0.0338777
0.043239
0.0499759
0.0555426
0.0604942
0.0651013
0.0695229
0.0738614
0.0781885
0.0825559
0.087002
0.0915556
0.0962377
0.101064
0.106045
0.111189
0.116503
0.121989
0.127651
0.133492
0.139513
0.145714
0.152098
0.158665
0.165415
0.172347
0.179462
0.186759
0.194238
0.201899
0.209742
0.217766
0.225972
0.23436
0.242931
0.251684
0.260622
0.269746
0.279057
0.288557
0.298249
0.308134
0.318216
0.328498
0.338983
0.349674
0.360575
0.37169
0.383022
0.394574
0.406351
0.418356
0.430591
0.443059
0.455763
0.468703
0.481882
0.4953
0.508955
0.522848
0.536976
0.551336
0.565924
0.580736
0.595766
0.611008
0.626454
0.642096
0.657925
0.67393
0.6901
0.706424
0.722888
0.739479
0.756183
0.772985
0.789869
0.806819
0.823821
0.840857
0.857913
0.87497
0.892015
0.90903
0.926
0.942911
0.959748
0.976496
0.993141
1.00967
1.02607
1.04233
1.05844
1.07438
1.09014
1.10572
1.12111
1.13628
1.15123
1.16595
1.18041
1.19461
1.20852
1.22212
1.23538
1.24827
1.26075
1.27277
1.28429
1.29525
1.30558
1.31521
1.32407
1.33206
1.33912
1.34514
1.35005
1.35378
1.35625
1.35744
1.35728
1.35575
1.35282
1.34853
1.34291
1.33601
1.32789
1.31863
1.30832
1.29704
1.28489
1.27197
1.25837
1.24421
1.22956
1.21454
1.19922
1.18369
1.16802
1.15229
1.13654
1.12084
1.10524
1.08977
1.07447
1.05938
1.04451
1.02989
1.01553
1.00144
0.987632
0.974105
0.960859
0.947891
0.935194
0.92276
0.910578
0.898636
0.88692
0.875415
0.864104
0.852973
0.842005
0.831183
0.820491
0.809916
0.799443
0.789061
0.778761
0.768538
0.758392
0.748332
0.738375
0.72855
0.718907
0.709502
0.700406
0.691495
0.682183
0.020411
0.0358553
0.0456401
0.0527059
0.0585462
0.0637399
0.0685675
0.073192
0.0777184
0.0822198
0.0867493
0.0913468
0.0960423
0.100859
0.105813
0.110919
0.116186
0.12162
0.127228
0.133013
0.138978
0.145126
0.151458
0.157975
0.16468
0.171572
0.178652
0.185921
0.193378
0.201024
0.20886
0.216885
0.225102
0.23351
0.24211
0.250905
0.259895
0.269083
0.27847
0.288059
0.297853
0.307854
0.318067
0.328494
0.33914
0.350008
0.361103
0.372429
0.383991
0.395792
0.407837
0.42013
0.432676
0.445477
0.458537
0.471859
0.485445
0.499296
0.513414
0.527797
0.542445
0.557355
0.572526
0.587952
0.603628
0.619549
0.635707
0.652093
0.668697
0.68551
0.702519
0.719711
0.737072
0.754587
0.77224
0.790013
0.807889
0.82585
0.843876
0.861948
0.880047
0.898153
0.916246
0.934306
0.952314
0.970251
0.988099
1.00584
1.02345
1.04093
1.05825
1.07539
1.09235
1.10911
1.12565
1.14198
1.15807
1.17392
1.18952
1.20486
1.21993
1.23473
1.24923
1.26343
1.27731
1.29086
1.30404
1.31684
1.32921
1.34112
1.35251
1.36334
1.37352
1.38299
1.39166
1.39945
1.40625
1.412
1.41659
1.41996
1.42205
1.42281
1.42219
1.42012
1.41665
1.41178
1.40558
1.39808
1.38935
1.37949
1.36856
1.35667
1.34391
1.33038
1.31618
1.30142
1.28618
1.27057
1.25466
1.23855
1.2223
1.20599
1.18967
1.17339
1.1572
1.14114
1.12525
1.10955
1.09407
1.07882
1.06381
1.04906
1.03457
1.02033
1.00636
0.992638
0.979162
0.965921
0.952904
0.940098
0.927489
0.915062
0.902802
0.890694
0.878723
0.866874
0.855135
0.843493
0.831941
0.820472
0.809083
0.79778
0.786573
0.775484
0.764546
0.753809
0.743329
0.733172
0.723218
0.712994
0.0219788
0.0373355
0.0474337
0.0547583
0.0608174
0.0662071
0.0712151
0.0760067
0.0806885
0.0853338
0.0899964
0.0947163
0.0995244
0.104445
0.109495
0.11469
0.120041
0.125555
0.13124
0.1371
0.14314
0.149362
0.15577
0.162366
0.169151
0.176128
0.183298
0.190661
0.198219
0.205972
0.213923
0.222073
0.230423
0.238975
0.247731
0.256693
0.265864
0.275247
0.284844
0.294659
0.304697
0.31496
0.325453
0.336182
0.34715
0.358362
0.369825
0.381542
0.393519
0.405761
0.418273
0.431061
0.444128
0.457479
0.471118
0.485047
0.49927
0.513788
0.528602
0.543712
0.559116
0.574813
0.5908
0.60707
0.62362
0.640441
0.657526
0.674864
0.692444
0.710254
0.72828
0.746508
0.764919
0.783497
0.802222
0.821075
0.840035
0.859079
0.878185
0.89733
0.916491
0.935643
0.954762
0.973826
0.99281
1.01169
1.03045
1.04906
1.0675
1.08575
1.1038
1.12162
1.13921
1.15653
1.17359
1.19036
1.20685
1.22303
1.23892
1.25448
1.26974
1.28467
1.29928
1.31356
1.32751
1.34112
1.35437
1.36725
1.37974
1.3918
1.40341
1.41452
1.42506
1.43496
1.44415
1.45254
1.46003
1.46653
1.47195
1.47621
1.47924
1.48098
1.48134
1.48029
1.47777
1.47383
1.46849
1.46181
1.45383
1.44462
1.43426
1.42285
1.41046
1.3972
1.38317
1.36848
1.35321
1.33748
1.32137
1.30496
1.28835
1.27159
1.25476
1.23792
1.22111
1.20439
1.18778
1.17132
1.15503
1.13894
1.12307
1.10741
1.09198
1.07679
1.06182
1.04709
1.03257
1.01828
1.00418
0.99028
0.976558
0.963002
0.949598
0.936333
0.923194
0.910168
0.897244
0.884414
0.87167
0.85901
0.846435
0.833952
0.821576
0.809332
0.797257
0.785399
0.773812
0.762562
0.75153
0.740343
0.0232676
0.0383494
0.0486591
0.0561756
0.0624005
0.0679403
0.0730876
0.0780091
0.0828117
0.0875686
0.0923332
0.0971456
0.102036
0.10703
0.112145
0.117396
0.122796
0.128354
0.134077
0.139972
0.146043
0.152295
0.158733
0.165359
0.172177
0.17919
0.186399
0.193807
0.201415
0.209227
0.217244
0.225469
0.233905
0.242554
0.25142
0.260506
0.269814
0.279349
0.289115
0.299117
0.30936
0.319851
0.330593
0.341593
0.352857
0.36439
0.376199
0.38829
0.400669
0.413342
0.426314
0.439592
0.453179
0.467082
0.481304
0.495848
0.510717
0.525914
0.541438
0.55729
0.573469
0.589971
0.606792
0.623928
0.64137
0.659112
0.677143
0.695452
0.714026
0.73285
0.751908
0.771183
0.790656
0.810305
0.830109
0.850044
0.870086
0.890209
0.910387
0.930592
0.950797
0.970973
0.991092
1.01113
1.03105
1.05083
1.07044
1.08987
1.10907
1.12803
1.14673
1.16514
1.18324
1.20102
1.21846
1.23555
1.25228
1.26864
1.28463
1.30024
1.31547
1.33033
1.34482
1.35894
1.3727
1.3861
1.39914
1.41183
1.42415
1.43609
1.44764
1.45875
1.4694
1.47951
1.48901
1.49782
1.50584
1.51299
1.51916
1.52425
1.52819
1.53091
1.53233
1.53238
1.53098
1.52812
1.52383
1.51815
1.51112
1.50279
1.49323
1.48252
1.47074
1.45798
1.44435
1.42994
1.41485
1.39919
1.38306
1.36654
1.34972
1.33268
1.31549
1.29821
1.28091
1.26362
1.24639
1.22926
1.21226
1.19541
1.17872
1.16222
1.14591
1.12979
1.11387
1.09816
1.08263
1.0673
1.05214
1.03715
1.02233
1.00765
0.993102
0.978681
0.964372
0.950166
0.936054
0.92203
0.908089
0.894232
0.880464
0.866794
0.853242
0.839834
0.826609
0.813616
0.800907
0.788544
0.776418
0.764242
0.0242718
0.0389327
0.0493603
0.057006
0.0633463
0.0689915
0.0742371
0.0792503
0.0841377
0.0889723
0.0938066
0.0986802
0.103623
0.10866
0.11381
0.119087
0.124505
0.130073
0.135801
0.141695
0.147762
0.154008
0.160437
0.167055
0.173866
0.180874
0.188084
0.195497
0.203118
0.21095
0.218997
0.227262
0.23575
0.244465
0.25341
0.262589
0.272006
0.281667
0.291576
0.301742
0.312172
0.322872
0.33385
0.345111
0.356664
0.368516
0.380673
0.393143
0.405932
0.419048
0.432496
0.446283
0.460414
0.474893
0.489726
0.504915
0.520463
0.536371
0.55264
0.569269
0.586256
0.603597
0.621287
0.639319
0.657686
0.676376
0.695379
0.71468
0.734266
0.754118
0.774219
0.794548
0.815082
0.835798
0.856671
0.877672
0.898775
0.91995
0.941165
0.962389
0.983592
1.00474
1.0258
1.04674
1.06752
1.08812
1.10851
1.12864
1.1485
1.16806
1.18728
1.20614
1.22463
1.24272
1.26038
1.27762
1.29441
1.31074
1.32663
1.34205
1.35703
1.37156
1.38566
1.39934
1.41262
1.42551
1.43804
1.45021
1.46205
1.47354
1.48471
1.49553
1.50598
1.51602
1.52558
1.53458
1.54295
1.55057
1.55735
1.56318
1.56798
1.57165
1.57413
1.57535
1.57521
1.5736
1.57053
1.56605
1.56018
1.55296
1.54444
1.53468
1.52376
1.51175
1.49876
1.48488
1.4702
1.45484
1.4389
1.42246
1.40563
1.38848
1.3711
1.35354
1.33588
1.31817
1.30045
1.28277
1.26515
1.24763
1.23022
1.21295
1.19582
1.17885
1.16204
1.14539
1.1289
1.11257
1.09639
1.08035
1.06445
1.04867
1.033
1.01744
1.00198
0.986613
0.971327
0.95612
0.940994
0.925951
0.910999
0.896152
0.88143
0.866863
0.852492
0.838364
0.824531
0.811053
0.79783
0.784661
0.02498
0.0391015
0.0495685
0.0572917
0.0637034
0.0694131
0.0747176
0.0797848
0.0847213
0.0895993
0.0944707
0.0993743
0.10434
0.109391
0.114547
0.119823
0.125231
0.130782
0.136487
0.142352
0.148387
0.154598
0.160991
0.167573
0.17435
0.181327
0.188511
0.195905
0.203515
0.211345
0.219402
0.22769
0.236215
0.244982
0.253996
0.263263
0.272786
0.28257
0.292615
0.302944
0.313565
0.324485
0.335711
0.347252
0.359117
0.371313
0.383849
0.396734
0.409975
0.423578
0.437551
0.451899
0.466627
0.48174
0.497242
0.513135
0.529421
0.5461
0.563173
0.580635
0.598485
0.616716
0.635322
0.654294
0.673621
0.693292
0.713291
0.733604
0.754212
0.775096
0.796234
0.817602
0.839175
0.860926
0.882826
0.904845
0.926949
0.949107
0.971282
0.99344
1.01554
1.03756
1.05944
1.08117
1.10269
1.12397
1.14498
1.16567
1.18603
1.20601
1.22558
1.24472
1.26339
1.28157
1.29925
1.31641
1.33303
1.3491
1.36462
1.3796
1.39404
1.40796
1.42137
1.43429
1.44677
1.45883
1.4705
1.48182
1.49281
1.50351
1.51395
1.52414
1.53408
1.54373
1.55307
1.562
1.57047
1.57836
1.58559
1.59203
1.59759
1.60218
1.6057
1.60809
1.60927
1.60911
1.60746
1.60438
1.5999
1.59403
1.5868
1.57827
1.56848
1.5575
1.54541
1.53232
1.51832
1.50351
1.488
1.47187
1.45524
1.43819
1.4208
1.40315
1.38531
1.36732
1.34926
1.33116
1.31305
1.29498
1.27696
1.25902
1.24118
1.22344
1.20581
1.18831
1.17092
1.15365
1.1365
1.11946
1.10253
1.0857
1.06896
1.0523
1.03572
1.01922
1.00279
0.986435
0.970153
0.953951
0.937841
0.92184
0.90597
0.890265
0.874765
0.859519
0.844576
0.829996
0.81569
0.801541
0.0254395
0.0389768
0.0494003
0.0571303
0.0635542
0.0692765
0.0745931
0.0796711
0.0846167
0.0895015
0.0943765
0.0992795
0.10424
0.10928
0.114419
0.119672
0.125052
0.13057
0.136237
0.142062
0.148053
0.154219
0.160568
0.167106
0.173842
0.180782
0.187934
0.195305
0.202901
0.210729
0.218796
0.227109
0.235676
0.244503
0.253598
0.262967
0.272616
0.282549
0.292768
0.303305
0.314163
0.325353
0.336884
0.348765
0.361007
0.37362
0.386614
0.399996
0.413776
0.42796
0.442553
0.457559
0.472984
0.48883
0.505099
0.521793
0.538912
0.556453
0.574413
0.592789
0.611574
0.63076
0.650338
0.670295
0.690618
0.711292
0.7323
0.753622
0.775239
0.797126
0.819259
0.841612
0.864155
0.886859
0.90969
0.932615
0.955599
0.978604
1.00159
1.02452
1.04736
1.07006
1.09258
1.11489
1.13693
1.15868
1.18009
1.20111
1.22172
1.24188
1.26155
1.28069
1.29928
1.31729
1.3347
1.35149
1.36765
1.38315
1.39801
1.41223
1.42582
1.43879
1.45118
1.463
1.47434
1.48521
1.49567
1.50577
1.51557
1.52508
1.53434
1.54346
1.55246
1.56134
1.57008
1.57863
1.58692
1.59486
1.60236
1.6093
1.61557
1.62108
1.62571
1.62937
1.63197
1.63339
1.63346
1.63201
1.62915
1.62487
1.61921
1.61219
1.60382
1.59417
1.5833
1.57129
1.55824
1.54426
1.52944
1.51388
1.49769
1.48097
1.46379
1.44625
1.42841
1.41035
1.39211
1.37375
1.35531
1.33683
1.31833
1.29985
1.2814
1.263
1.24466
1.22639
1.2082
1.19008
1.17204
1.15407
1.13618
1.11836
1.1006
1.0829
1.06527
1.04769
1.03017
1.01271
0.995317
0.978001
0.960776
0.943661
0.926683
0.909876
0.89328
0.876947
0.860923
0.84527
0.82991
0.81481
0.0256746
0.0385709
0.0488663
0.0565508
0.0629453
0.0686431
0.073937
0.0789931
0.0839165
0.0887777
0.0936267
0.0985009
0.103428
0.108432
0.113528
0.118734
0.124062
0.129525
0.135134
0.1409
0.146832
0.152941
0.159235
0.165725
0.172421
0.17933
0.186464
0.193831
0.201441
0.209303
0.217427
0.225821
0.234494
0.243457
0.252722
0.262302
0.272191
0.282397
0.29292
0.303781
0.314998
0.326587
0.338558
0.350924
0.363696
0.376884
0.390499
0.404553
0.419053
0.434
0.449398
0.465248
0.481551
0.498308
0.515518
0.533178
0.551284
0.569832
0.588814
0.608222
0.628046
0.648273
0.668891
0.689883
0.711232
0.732919
0.754924
0.777223
0.799793
0.822608
0.84564
0.868859
0.892233
0.91573
0.939313
0.962948