/*--------------------------------*- C++ -*----------------------------------*\
| =========                 |                                                 |
| \\      /  F ield         | OpenFOAM: The Open Source CFD Toolbox           |
|  \\    /   O peration     | Version:  2312                                  |
|   \\  /    A nd           | Website:  www.openfoam.com                      |
|    \\/     M anipulation  |                                                 |
\*---------------------------------------------------------------------------*/
FoamFile
{
    version     2.0;
    format      ascii;
    arch        "LSB;label=32;scalar=64";
    class       volScalarField;
    location    "150";
    object      k;
}
// * * * * * * * * * * * * * * * * * * * * * * * * * * * * * * * * * * * * * //

dimensions      [0 2 -2 0 0 0 0];

internalField   nonuniform List<scalar> 
12225
(
0.308577
0.226137
0.18158
0.152223
0.133259
0.121431
0.113639
0.108052
0.103763
0.100303
0.0974318
0.0950265
0.0930399
0.0914078
0.0901999
0.0893241
0.0891416
0.0887986
0.352584
0.255159
0.191001
0.157055
0.137422
0.125016
0.116356
0.109719
0.104297
0.0997039
0.0957484
0.092308
0.0893261
0.0866771
0.0844294
0.0823545
0.0806003
0.079261
0.35828
0.290218
0.233322
0.195692
0.171255
0.154718
0.142838
0.133739
0.126398
0.120276
0.115068
0.110568
0.106662
0.103207
0.100212
0.0974775
0.0950866
0.0927616
0.361093
0.310635
0.263692
0.227392
0.201069
0.181823
0.167358
0.156085
0.146983
0.139428
0.133032
0.127531
0.122758
0.118558
0.114876
0.111555
0.108645
0.105842
0.3625
0.322852
0.283681
0.250487
0.22438
0.204095
0.188183
0.175457
0.165051
0.156368
0.149
0.142662
0.137156
0.13232
0.128059
0.124247
0.120886
0.11772
0.363255
0.330517
0.297217
0.267428
0.242557
0.222284
0.205784
0.192238
0.180971
0.171471
0.163358
0.15635
0.150243
0.144872
0.140126
0.135891
0.132136
0.128649
0.363659
0.335491
0.306638
0.279981
0.256763
0.237112
0.220614
0.206741
0.194997
0.184968
0.176327
0.168816
0.162238
0.156435
0.151289
0.146696
0.1426
0.138826
0.363868
0.338777
0.313301
0.289337
0.267862
0.249151
0.233038
0.2192
0.207287
0.196981
0.188012
0.180157
0.173236
0.167103
0.161642
0.156755
0.152375
0.148351
0.363967
0.340953
0.318034
0.296314
0.276498
0.25886
0.243358
0.229804
0.217959
0.207584
0.198463
0.190409
0.183266
0.176902
0.171208
0.166094
0.161488
0.157258
0.364006
0.342382
0.321371
0.301486
0.283162
0.266608
0.251832
0.238721
0.227112
0.216829
0.207703
0.199579
0.192323
0.185821
0.179975
0.1747
0.169925
0.165538
0.364014
0.343299
0.323689
0.305268
0.288234
0.272705
0.258687
0.246106
0.234846
0.224773
0.215755
0.207666
0.200394
0.193839
0.187913
0.182542
0.177656
0.173161
0.364011
0.343822
0.325127
0.307749
0.291704
0.27702
0.263678
0.251613
0.240729
0.230922
0.22208
0.214099
0.206883
0.200344
0.194406
0.189
0.184063
0.179512
0.364004
0.344155
0.326122
0.309557
0.294332
0.28039
0.267675
0.256116
0.245627
0.236117
0.227494
0.219667
0.212553
0.206077
0.200169
0.194769
0.189818
0.185245
0.363996
0.344374
0.326843
0.310956
0.296467
0.283233
0.271151
0.260133
0.25009
0.240939
0.232596
0.224984
0.218032
0.211671
0.205843
0.200492
0.195567
0.191007
0.363989
0.344496
0.327303
0.311922
0.298031
0.285415
0.273923
0.263436
0.253857
0.245098
0.237082
0.229736
0.222995
0.216801
0.211101
0.205845
0.20099
0.196484
0.363984
0.344551
0.327549
0.312494
0.299028
0.286889
0.275884
0.265865
0.256716
0.248342
0.240659
0.233599
0.227099
0.221105
0.215568
0.210444
0.205695
0.201278
0.363981
0.344568
0.327651
0.312767
0.299549
0.287716
0.277048
0.267374
0.258561
0.250501
0.243105
0.236301
0.230025
0.224224
0.218852
0.213869
0.209236
0.204922
0.363979
0.344569
0.327677
0.312852
0.299733
0.288034
0.277526
0.268027
0.259392
0.251507
0.244277
0.237625
0.231487
0.225807
0.220541
0.215649
0.211094
0.206846
0.363979
0.344565
0.327659
0.312809
0.299654
0.287909
0.277349
0.267795
0.259106
0.251167
0.243886
0.237186
0.231003
0.225283
0.219979
0.215053
0.210469
0.206198
0.363982
0.344544
0.32755
0.312526
0.299114
0.287047
0.276123
0.266188
0.257119
0.248814
0.24119
0.234175
0.227708
0.221734
0.216206
0.211083
0.206328
0.201912
0.363986
0.344466
0.327228
0.311796
0.297855
0.285192
0.273654
0.263121
0.253493
0.244682
0.236608
0.2292
0.222392
0.216128
0.210354
0.205023
0.200096
0.195539
0.363994
0.344225
0.326403
0.310138
0.295242
0.281612
0.269165
0.257817
0.247482
0.238071
0.229498
0.22168
0.214542
0.208013
0.202031
0.196539
0.191489
0.186845
0.364001
0.343616
0.324617
0.306907
0.290544
0.275574
0.261979
0.249688
0.238603
0.22861
0.219597
0.211454
0.204084
0.197398
0.191317
0.185772
0.180704
0.176072
0.363989
0.342285
0.321213
0.301287
0.282923
0.266314
0.251458
0.238243
0.22651
0.216087
0.20681
0.198528
0.191111
0.184443
0.178428
0.172982
0.168035
0.163544
0.363901
0.339668
0.315264
0.292228
0.27139
0.253013
0.23699
0.223073
0.210975
0.200425
0.191181
0.183039
0.175828
0.169406
0.163658
0.15849
0.15382
0.149605
0.363618
0.334828
0.305352
0.278223
0.254661
0.234711
0.217936
0.203814
0.191852
0.181638
0.172838
0.165188
0.158482
0.15256
0.147293
0.142583
0.138341
0.134535
0.362909
0.325999
0.289014
0.256956
0.230975
0.210217
0.193583
0.180107
0.169023
0.159758
0.151895
0.145131
0.139245
0.134074
0.129491
0.125408
0.121728
0.118448
0.361263
0.309487
0.261541
0.224766
0.197904
0.178088
0.163171
0.151616
0.142377
0.134775
0.128372
0.122884
0.11811
0.113919
0.110193
0.106886
0.10388
0.101228
0.355887
0.276248
0.215134
0.177762
0.154165
0.138566
0.127645
0.119486
0.113029
0.107696
0.103162
0.099237
0.0957886
0.0927425
0.0900063
0.0875833
0.0853411
0.0833877
0.302816
0.220068
0.178771
0.15254
0.134434
0.121993
0.113307
0.106987
0.102166
0.0983191
0.0951231
0.0923898
0.0900021
0.0878941
0.0860011
0.0843107
0.0827533
0.0813605
0.000490332
0.00065507
0.000857735
0.00107215
0.00127221
0.00144526
0.00158867
0.00170772
0.00180462
0.00188276
0.00194683
0.00200253
0.00205875
0.00213473
0.00226636
0.0024522
0.00267152
0.00291718
0.00318908
0.00348997
0.00382293
0.00419082
0.00459535
0.00503755
0.00551721
0.00603342
0.00658373
0.00716537
0.00777449
0.00840753
0.00906009
0.00972789
0.0104078
0.0110986
0.0117903
0.0124801
0.0131646
0.0138421
0.0145098
0.0151667
0.0158108
0.0164415
0.0170573
0.0176581
0.0182424
0.0188106
0.0193612
0.0198947
0.0204095
0.0209062
0.0213831
0.0218407
0.0222773
0.0226932
0.0230867
0.0234582
0.0238058
0.0241298
0.0244286
0.0247035
0.0249541
0.0251853
0.025397
0.0255876
0.0257568
0.0259055
0.026032
0.026137
0.0262179
0.026268
0.0263236
0.0263413
0.0263342
0.0263309
0.0262725
0.0262017
0.0261053
0.0259864
0.0258446
0.02568
0.0254921
0.0252796
0.0250415
0.0247836
0.0245066
0.0242109
0.0238966
0.0235638
0.0232137
0.0228471
0.022465
0.0220689
0.02166
0.0212398
0.0208097
0.0203712
0.0199261
0.0194764
0.0190248
0.0185773
0.0181601
0.0178917
0.0178245
0.0178114
0.0178061
0.0177978
0.0177846
0.0177657
0.0177412
0.0177123
0.0176793
0.0176419
0.0176009
0.0175563
0.0175086
0.0174578
0.0174043
0.0173482
0.0172898
0.0172291
0.0171662
0.0171011
0.0170342
0.0169655
0.0168953
0.0168235
0.0167503
0.0166758
0.0166001
0.0165234
0.0164457
0.0163672
0.0162878
0.0162075
0.0161265
0.0160449
0.0159629
0.0158805
0.0157981
0.0157155
0.015633
0.0155507
0.0154685
0.0153867
0.0153051
0.0152243
0.0151435
0.0150628
0.0149821
0.0149019
0.0148224
0.0147438
0.0146663
0.0145901
0.0145151
0.0144415
0.0143691
0.0142982
0.0142286
0.0141604
0.0140935
0.0140279
0.0139633
0.0138997
0.0138369
0.0137747
0.0137126
0.0136502
0.0135871
0.0135221
0.0134547
0.0133825
0.0133049
0.0132155
0.0131175
0.0129903
0.0128553
0.0126233
0.0124133
0.0117254
0.000946044
0.00113871
0.00155309
0.00195959
0.00232484
0.00265407
0.00295569
0.0032362
0.00350462
0.00376813
0.00403136
0.00429766
0.0045702
0.00485309
0.00515068
0.0054642
0.00579298
0.00613748
0.00649954
0.00688184
0.00728691
0.00771683
0.00817285
0.00865565
0.00916526
0.00970148
0.0102635
0.0108505
0.0114614
0.0120956
0.0127527
0.0134249
0.0141099
0.0148061
0.0155114
0.0162248
0.0169448
0.0176708
0.0184018
0.0191372
0.0198761
0.0206183
0.0213628
0.0221096
0.0228577
0.023607
0.0243568
0.0251067
0.0258559
0.026604
0.0273499
0.0280932
0.0288325
0.029567
0.0302952
0.0310161
0.0317275
0.0324281
0.0331155
0.0337877
0.0344419
0.0350765
0.0356936
0.0362974
0.036886
0.0374586
0.0380139
0.0385511
0.0390694
0.039567
0.0400426
0.0404897
0.0409094
0.0413013
0.04166
0.0419875
0.0422815
0.0425412
0.042766
0.0429545
0.0431057
0.0432174
0.0432766
0.043296
0.0432797
0.0432273
0.0431366
0.0430077
0.0428411
0.0426377
0.0423986
0.0421251
0.0418186
0.041481
0.0411139
0.0407194
0.0402997
0.0398571
0.0393949
0.0389176
0.0384351
0.0379649
0.0375112
0.0370574
0.0365958
0.0361247
0.0356451
0.0351583
0.0346657
0.0341689
0.0336691
0.0331676
0.0326654
0.0321635
0.0316629
0.0311642
0.0306682
0.0301755
0.0296866
0.0292019
0.0287217
0.0282459
0.0277751
0.0273098
0.0268502
0.0263968
0.0259497
0.0255092
0.0250755
0.0246487
0.0242291
0.0238169
0.0234117
0.0230137
0.022623
0.0222398
0.0218645
0.0214971
0.0211378
0.0207866
0.0204435
0.0201085
0.0197815
0.0194624
0.0191513
0.0188484
0.0185527
0.0182638
0.0179823
0.0177082
0.0174418
0.017183
0.0169317
0.0166877
0.016451
0.0162213
0.0159984
0.0157822
0.0155726
0.0153693
0.0151721
0.0149807
0.014795
0.0146147
0.0144396
0.0142694
0.0141039
0.0139428
0.013786
0.0136328
0.0134836
0.0133366
0.0131936
0.0130481
0.0129132
0.0127666
0.0126406
0.0124831
0.0123577
0.0120523
0.0014846
0.00186167
0.00251236
0.00308772
0.00358827
0.00404171
0.00446721
0.00487749
0.00528144
0.0056851
0.00609229
0.00650543
0.00692628
0.00735641
0.00779724
0.00824969
0.00871457
0.00919325
0.00968773
0.0102006
0.0107344
0.0112917
0.0118743
0.0124837
0.0131201
0.0137834
0.0144734
0.0151895
0.0159306
0.0166953
0.0174817
0.0182873
0.01911
0.0199481
0.0207996
0.0216629
0.0225361
0.0234177
0.0243063
0.0252005
0.026099
0.0270008
0.0279046
0.0288097
0.0297151
0.0306201
0.0315239
0.0324259
0.0333252
0.0342213
0.0351132
0.0360004
0.0368818
0.0377567
0.0386241
0.0394829
0.0403321
0.0411706
0.0419973
0.0428114
0.043612
0.0443989
0.0451709
0.0459271
0.0466659
0.0473855
0.0480841
0.04876
0.0494111
0.0500354
0.0506309
0.0511944
0.0517245
0.0522191
0.052676
0.0530937
0.0534702
0.0538043
0.0540948
0.0543403
0.0545392
0.0546903
0.0547855
0.0548257
0.0548224
0.0547721
0.0546739
0.0545282
0.0543356
0.0540972
0.0538141
0.0534881
0.053121
0.0527147
0.0522715
0.0517939
0.0512844
0.0507461
0.0501826
0.049599
0.0490026
0.0484013
0.0477961
0.0471827
0.0465587
0.0459237
0.0452789
0.0446261
0.0439669
0.0433031
0.0426364
0.0419683
0.0413
0.0406329
0.0399679
0.0393061
0.0386481
0.0379949
0.037347
0.036705
0.0360692
0.0354401
0.0348179
0.0342033
0.0335964
0.0329977
0.0324074
0.0318258
0.0312529
0.0306892
0.0301347
0.0295897
0.0290536
0.0285267
0.0280094
0.0275018
0.0270043
0.026517
0.0260399
0.0255732
0.0251169
0.0246708
0.0242349
0.0238092
0.0233937
0.0229885
0.0225933
0.0222078
0.021832
0.0214658
0.0211092
0.0207623
0.0204249
0.0200968
0.019778
0.0194683
0.0191674
0.0188751
0.0185911
0.0183153
0.0180474
0.0177872
0.0175344
0.0172888
0.0170501
0.016818
0.0165924
0.0163729
0.0161593
0.0159513
0.0157487
0.0155508
0.0153586
0.0151687
0.0149877
0.0148041
0.0146388
0.0144592
0.0143158
0.0140413
0.00189031
0.00262184
0.0035121
0.00423886
0.00485513
0.00540824
0.00592637
0.00642685
0.00692089
0.00741564
0.0079154
0.00842257
0.00893845
0.00946393
0.00999987
0.0105474
0.011108
0.0116839
0.0122775
0.0128919
0.0135298
0.0141936
0.014885
0.0156052
0.0163546
0.0171332
0.0179401
0.0187739
0.019633
0.0205154
0.0214187
0.0223406
0.0232789
0.0242314
0.025196
0.0261707
0.0271538
0.0281435
0.0291383
0.030137
0.0311382
0.0321409
0.0331442
0.0341472
0.0351492
0.0361494
0.0371473
0.0381423
0.0391337
0.0401211
0.0411037
0.0420811
0.0430525
0.0440173
0.0449746
0.0459237
0.0468638
0.0477939
0.048713
0.0496203
0.0505146
0.0513948
0.0522591
0.0531059
0.0539334
0.0547394
0.055522
0.0562788
0.0570077
0.0577063
0.0583722
0.0590027
0.0595957
0.0601488
0.0606598
0.0611265
0.061547
0.0619194
0.0622422
0.062514
0.0627332
0.0628987
0.0630045
0.0630496
0.0630432
0.062983
0.0628686
0.0627004
0.0624792
0.0622063
0.061883
0.0615113
0.061093
0.0606306
0.0601264
0.0595832
0.0590038
0.0583916
0.0577506
0.0570855
0.0564018
0.0557043
0.054995
0.0542736
0.0535398
0.0527944
0.0520389
0.0512751
0.0505049
0.0497303
0.0489531
0.0481748
0.0473971
0.0466211
0.0458481
0.0450791
0.044315
0.0435567
0.0428048
0.0420599
0.0413226
0.0405933
0.0398724
0.0391603
0.0384573
0.0377639
0.0370802
0.0364066
0.0357432
0.0350903
0.0344481
0.0338167
0.0331961
0.0325864
0.0319878
0.0314004
0.0308244
0.0302599
0.0297071
0.0291659
0.0286364
0.0281183
0.0276115
0.0271162
0.0266325
0.0261603
0.0256995
0.02525
0.0248115
0.0243839
0.0239672
0.0235611
0.0231658
0.022781
0.0224065
0.0220423
0.0216879
0.0213434
0.0210083
0.0206825
0.0203657
0.0200576
0.0197581
0.0194669
0.0191836
0.0189081
0.0186401
0.0183794
0.0181257
0.0178787
0.0176384
0.0174043
0.017177
0.0169549
0.0167412
0.0165315
0.0163368
0.016139
0.0159918
0.0157224
0.00212666
0.00335223
0.00448307
0.00535461
0.00607888
0.00672022
0.00731459
0.00788377
0.00844183
0.00899797
0.00955802
0.0101255
0.0107024
0.0112904
0.0118908
0.0125055
0.0131366
0.0137868
0.0144587
0.0151551
0.0158785
0.0166306
0.0174126
0.0182249
0.0190672
0.0199388
0.0208382
0.0217636
0.0227129
0.023684
0.0246745
0.0256821
0.0267046
0.0277399
0.0287861
0.0298413
0.0309038
0.0319722
0.033045
0.0341212
0.0351994
0.0362789
0.0373587
0.038438
0.0395163
0.0405928
0.041667
0.0427384
0.0438064
0.0448704
0.0459299
0.0469842
0.0480328
0.049075
0.0501098
0.0511367
0.0521545
0.0531624
0.0541591
0.0551434
0.0561139
0.0570688
0.0580065
0.0589249
0.0598219
0.0606954
0.0615429
0.0623622
0.0631506
0.0639056
0.0646246
0.0653051
0.0659444
0.0665399
0.0670894
0.0675904
0.0680408
0.0684387
0.0687821
0.0690697
0.0692999
0.0694715
0.0695796
0.069624
0.0696105
0.0695379
0.0694062
0.0692159
0.0689681
0.0686641
0.0683055
0.0678944
0.0674328
0.0669233
0.0663684
0.0657711
0.0651347
0.0644627
0.063759
0.0630279
0.0622739
0.0615009
0.0607116
0.0599074
0.0590895
0.0582593
0.0574187
0.0565695
0.055714
0.054854
0.0539916
0.0531283
0.0522659
0.0514057
0.050549
0.0496969
0.0488504
0.0480104
0.0471775
0.0463525
0.045536
0.0447283
0.0439301
0.0431417
0.0423634
0.0415957
0.0408387
0.0400929
0.0393583
0.0386353
0.0379241
0.0372248
0.0365376
0.0358625
0.0351996
0.0345492
0.0339113
0.0332861
0.0326735
0.0320737
0.0314867
0.0309123
0.0303505
0.0298013
0.0292646
0.0287404
0.0282287
0.0277291
0.0272417
0.0267661
0.0263021
0.0258498
0.025409
0.0249797
0.0245615
0.0241543
0.0237578
0.023372
0.0229964
0.022631
0.0222753
0.0219293
0.0215926
0.0212649
0.0209461
0.0206359
0.0203339
0.0200401
0.0197541
0.0194758
0.019205
0.0189415
0.0186856
0.0184367
0.0181966
0.0179637
0.0177446
0.0175282
0.0173651
0.0170868
0.00224508
0.00402013
0.00537507
0.00638159
0.00720511
0.00792461
0.00858296
0.00920621
0.00981146
0.0104104
0.0110108
0.0116182
0.0122363
0.0128677
0.013515
0.0141806
0.014867
0.0155768
0.0163123
0.0170757
0.0178687
0.0186922
0.0195466
0.0204315
0.0213463
0.0222894
0.0232593
0.024254
0.0252714
0.0263095
0.027366
0.0284389
0.0295262
0.0306259
0.0317363
0.0328558
0.0339827
0.0351159
0.036254
0.0373959
0.0385406
0.0396871
0.0408347
0.0419826
0.04313
0.0442764
0.045421
0.0465634
0.047703
0.048839
0.0499708
0.0510978
0.0522192
0.0533341
0.0544417
0.055541
0.0566308
0.05771
0.0587771
0.0598306
0.0608687
0.0618896
0.0628912
0.0638715
0.064828
0.0657585
0.0666604
0.0675311
0.068368
0.0691683
0.0699293
0.0706483
0.0713226
0.0719495
0.0725265
0.0730512
0.0735214
0.073935
0.0742901
0.0745851
0.0748187
0.0749898
0.0750937
0.0751321
0.0751076
0.0750197
0.074869
0.0746561
0.0743821
0.0740487
0.0736576
0.0732109
0.0727109
0.0721603
0.071562
0.0709192
0.0702351
0.0695135
0.0687581
0.0679728
0.0671618
0.0663287
0.0654765
0.0646075
0.0637237
0.062827
0.0619194
0.0610032
0.0600804
0.0591531
0.0582232
0.0572926
0.0563628
0.0554354
0.0545117
0.0535929
0.05268
0.0517739
0.0508753
0.0499851
0.0491038
0.0482319
0.04737
0.0465186
0.0456779
0.0448485
0.0440305
0.0432244
0.0424304
0.0416487
0.0408797
0.0401234
0.0393801
0.0386499
0.0379329
0.0372293
0.0365392
0.0358626
0.0351996
0.0345503
0.0339146
0.0332926
0.0326842
0.0320892
0.0315077
0.0309396
0.0303847
0.029843
0.0293142
0.0287981
0.0282946
0.0278035
0.0273246
0.0268578
0.0264028
0.0259594
0.0255275
0.0251068
0.0246971
0.0242981
0.0239095
0.0235312
0.0231629
0.0228044
0.0224553
0.0221154
0.0217846
0.0214625
0.021149
0.0208438
0.020547
0.0202583
0.019978
0.019706
0.0194432
0.0191896
0.0189492
0.0187158
0.0185275
0.0182485
0.00261099
0.00465194
0.00617377
0.00728995
0.0081954
0.00897974
0.00969073
0.0103577
0.0110002
0.011632
0.012263
0.0129005
0.0135497
0.0142148
0.0148991
0.0156055
0.0163366
0.0170945
0.0178812
0.018698
0.0195459
0.0204251
0.0213354
0.0222761
0.023246
0.0242437
0.0252673
0.0263151
0.0273851
0.0284755
0.0295842
0.0307094
0.0318494
0.0330025
0.034167
0.0353416
0.0365248
0.0377154
0.0389121
0.040114
0.0413201
0.0425294
0.043741
0.0449542
0.0461681
0.0473821
0.0485954
0.0498073
0.051017
0.0522237
0.0534267
0.0546249
0.0558176
0.0570036
0.0581818
0.0593511
0.0605099
0.0616568
0.0627902
0.0639081
0.0650087
0.0660897
0.0671491
0.0681844
0.0691932
0.070173
0.071121
0.0720345
0.0729107
0.0737469
0.0745402
0.0752879
0.0759871
0.0766352
0.0772298
0.0777682
0.0782484
0.0786683
0.0790261
0.0793202
0.0795493
0.0797126
0.0798061
0.0798324
0.0797919
0.079685
0.0795123
0.0792749
0.078974
0.0786114
0.078189
0.0777091
0.0771744
0.0765875
0.0759517
0.0752701
0.0745461
0.0737835
0.0729857
0.0721567
0.0713002
0.0704198
0.0695187
0.0685995
0.0676647
0.0667165
0.0657573
0.0647892
0.0638143
0.0628348
0.0618525
0.0608693
0.0598868
0.0589066
0.0579299
0.0569581
0.055992
0.0550328
0.0540811
0.0531378
0.0522034
0.0512787
0.0503641
0.0494602
0.0485674
0.0476861
0.0468167
0.0459596
0.0451151
0.0442834
0.0434648
0.0426597
0.0418682
0.0410904
0.0403266
0.0395769
0.0388414
0.0381202
0.0374134
0.036721
0.036043
0.0353795
0.0347303
0.0340954
0.0334747
0.0328682
0.0322757
0.031697
0.0311321
0.0305806
0.0300424
0.0295172
0.029005
0.0285055
0.0280184
0.0275436
0.0270808
0.0266297
0.0261901
0.0257618
0.0253445
0.0249379
0.0245419
0.0241562
0.0237805
0.0234146
0.0230582
0.0227113
0.0223735
0.0220447
0.0217248
0.0214138
0.0211119
0.0208191
0.0205363
0.0202638
0.0200044
0.0197551
0.0195414
0.0192627
0.00323275
0.0052265
0.00685545
0.00805375
0.00902268
0.0098588
0.010613
0.0113168
0.0119912
0.0126517
0.0133096
0.0139734
0.0146497
0.0153437
0.0160592
0.0167994
0.0175667
0.0183632
0.0191902
0.0200486
0.0209387
0.0218604
0.022813
0.0237958
0.0248075
0.0258466
0.0269115
0.0280006
0.0291122
0.0302445
0.0313959
0.0325649
0.0337497
0.034949
0.0361613
0.0373854
0.0386199
0.0398636
0.0411155
0.0423745
0.0436396
0.0449098
0.0461841
0.0474617
0.0487417
0.0500231
0.0513051
0.0525867
0.0538668
0.0551447
0.056419
0.0576887
0.0589525
0.0602092
0.0614572
0.062695
0.063921
0.0651332
0.0663298
0.0675087
0.0686675
0.069804
0.0709157
0.072
0.0730544
0.0740761
0.0750622
0.0760101
0.0769168
0.0777794
0.0785952
0.0793613
0.080075
0.0807338
0.0813352
0.0818768
0.0823566
0.0827727
0.0831233
0.0834072
0.0836231
0.0837703
0.0838461
0.0838532
0.0837909
0.0836599
0.0834613
0.0831963
0.0828667
0.0824742
0.0820211
0.0815098
0.0809432
0.0803242
0.0796559
0.0789417
0.0781849
0.0773891
0.0765578
0.0756948
0.0748036
0.0738877
0.0729502
0.0719941
0.071022
0.0700363
0.0690394
0.0680333
0.0670204
0.0660025
0.0649816
0.0639594
0.0629376
0.0619176
0.0609008
0.0598884
0.0588813
0.0578807
0.0568872
0.0559018
0.0549251
0.0539577
0.0530003
0.0520535
0.0511176
0.0501933
0.0492809
0.0483808
0.0474935
0.0466193
0.0457585
0.0449114
0.0440783
0.0432594
0.0424549
0.0416651
0.0408899
0.0401297
0.0393844
0.0386541
0.0379388
0.0372387
0.0365535
0.0358833
0.0352279
0.0345873
0.0339614
0.03335
0.0327529
0.0321699
0.0316008
0.0310455
0.0305036
0.0299749
0.0294593
0.0289565
0.0284662
0.0279881
0.0275221
0.0270677
0.0266249
0.0261932
0.0257726
0.0253626
0.0249631
0.0245738
0.0241946
0.0238253
0.0234657
0.0231155
0.022775
0.0224439
0.0221224
0.0218109
0.0215098
0.0212199
0.0209431
0.0206784
0.0204417
0.0201598
0.00385312
0.00568718
0.00738901
0.00865136
0.00967077
0.0105492
0.0113403
0.0120768
0.0127809
0.0134688
0.0141527
0.014842
0.015544
0.0162642
0.0170071
0.0177758
0.0185729
0.0194001
0.0202584
0.0211485
0.0220704
0.0230238
0.0240081
0.0250224
0.0260656
0.0271364
0.0282334
0.0293552
0.0305003
0.0316673
0.0328548
0.0340614
0.0352859
0.0365268
0.0377831
0.0390534
0.0403365
0.0416315
0.042937
0.0442522
0.0455758
0.0469068
0.0482442
0.0495869
0.0509337
0.0522836
0.0536353
0.0549878
0.0563396
0.0576895
0.0590361
0.0603777
0.061713
0.0630401
0.0643572
0.0656624
0.0669537
0.0682289
0.0694857
0.0707217
0.0719343
0.073121
0.0742791
0.0754059
0.0764984
0.0775539
0.0785695
0.0795423
0.0804693
0.0813479
0.0821751
0.0829483
0.083665
0.0843227
0.0849191
0.0854521
0.0859199
0.0863208
0.0866534
0.0869166
0.0871095
0.0872314
0.0872819
0.0872615
0.0871704
0.0870093
0.08678
0.0864842
0.0861235
0.0857001
0.0852166
0.0846754
0.0840795
0.083432
0.082736
0.0819948
0.0812119
0.0803906
0.0795345
0.0786469
0.0777314
0.0767912
0.0758295
0.0748491
0.0738527
0.0728427
0.0718215
0.0707911
0.0697535
0.0687107
0.0676645
0.0666165
0.0655683
0.0645213
0.0634767
0.0624357
0.0613993
0.0603686
0.0593443
0.0583273
0.0573183
0.0563181
0.0553273
0.0543464
0.0533761
0.052417
0.0514694
0.050534
0.0496112
0.0487014
0.047805
0.0469223
0.0460538
0.0451996
0.0443601
0.0435355
0.0427259
0.0419316
0.0411527
0.0403891
0.0396411
0.0389086
0.0381916
0.0374901
0.0368039
0.0361331
0.0354774
0.0348368
0.034211
0.0335998
0.0330031
0.0324207
0.0318522
0.0312975
0.0307563
0.0302283
0.0297133
0.029211
0.0287212
0.0282436
0.0277778
0.0273236
0.0268809
0.0264492
0.0260284
0.0256182
0.0252184
0.0248289
0.0244494
0.0240799
0.0237205
0.0233711
0.0230319
0.022703
0.0223852
0.0220791
0.0217862
0.0215065
0.0212496
0.0209617
0.00442468
0.00602373
0.00776824
0.00907944
0.0101391
0.0110528
0.0118762
0.0126428
0.0133754
0.0140906
0.0148006
0.0155153
0.0162422
0.0169872
0.0177546
0.0185479
0.0193695
0.020221
0.0211036
0.0220177
0.0229634
0.0239404
0.0249483
0.0259862
0.0270534
0.0281488
0.0292712
0.0304197
0.0315928
0.0327897
0.034009
0.0352498
0.0365108
0.037791
0.0390893
0.0404045
0.0417356
0.0430815
0.0444409
0.0458127
0.0471958
0.048589
0.0499909
0.0514003
0.0528158
0.054236
0.0556594
0.0570845
0.0585095
0.0599328
0.0613525
0.0627666
0.0641733
0.0655702
0.0669552
0.068326
0.06968
0.0710148
0.0723276
0.0736157
0.0748764
0.0761066
0.0773036
0.0784643
0.0795858
0.0806652
0.0816996
0.0826859
0.0836215
0.0845035
0.0853294
0.0860966
0.0868029
0.087446
0.088024
0.0885352
0.0889779
0.089351
0.0896535
0.0898845
0.0900437
0.0901309
0.0901461
0.0900906
0.0899628
0.0897657
0.0895011
0.0891709
0.088777
0.0883218
0.0878079
0.0872382
0.0866156
0.0859432
0.0852242
0.0844619
0.0836595
0.0828204
0.0819479
0.0810453
0.0801158
0.0791624
0.0781882
0.0771957
0.0761877
0.0751664
0.074134
0.0730925
0.0720436
0.0709892
0.0699307
0.0688699
0.067808
0.0667464
0.0656863
0.0646286
0.0635745
0.0625249
0.0614806
0.0604424
0.0594112
0.0583877
0.0573726
0.0563666
0.0553703
0.0543844
0.0534094
0.052446
0.0514947
0.050556
0.0496304
0.0487184
0.0478203
0.0469364
0.0460673
0.0452131
0.044374
0.0435504
0.0427423
0.0419499
0.0411733
0.0404126
0.0396676
0.0389385
0.0382252
0.0375276
0.0368455
0.0361789
0.0355276
0.0348913
0.0342699
0.0336632
0.0330709
0.0324928
0.0319286
0.0313781
0.0308409
0.0303169
0.0298057
0.029307
0.0288206
0.0283462
0.0278835
0.0274323
0.0269922
0.0265632
0.0261449
0.0257373
0.02534
0.0249531
0.0245766
0.0242104
0.0238547
0.02351
0.0231767
0.0228555
0.0225476
0.0222535
0.0219787
0.0216829
0.00491804
0.00623993
0.00800085
0.00934745
0.0104388
0.0113819
0.0122337
0.0130282
0.0137882
0.0145301
0.0152662
0.0160061
0.0167572
0.0175254
0.0183153
0.0191301
0.0199723
0.0208437
0.0217453
0.0226778
0.0236414
0.0246362
0.0256619
0.0267181
0.0278042
0.0289196
0.0300635
0.0312351
0.0324335
0.0336577
0.0349071
0.0361807
0.0374776
0.0387968
0.0401375
0.0414985
0.0428788
0.0442771
0.0456924
0.0471233
0.0485684
0.0500264
0.0514956
0.0529745
0.0544614
0.0559544
0.0574518
0.0589513
0.060451
0.0619487
0.0634419
0.0649282
0.0664052
0.0678702
0.0693204
0.0707531
0.0721653
0.0735541
0.0749164
0.0762492
0.0775494
0.0788137
0.0800392
0.0812227
0.0823612
0.0834517
0.0844913
0.0854771
0.0864067
0.0872772
0.0880865
0.0888323
0.0895126
0.0901258
0.0906702
0.0911446
0.091548
0.0918795
0.0921386
0.0923253
0.0924395
0.0924817
0.0924531
0.0923528
0.0921817
0.0919431
0.0916389
0.0912711
0.0908421
0.0903544
0.0898109
0.0892144
0.0885679
0.0878746
0.0871375
0.08636
0.0855451
0.0846961
0.0838159
0.0829077
0.0819744
0.0810189
0.0800438
0.0790514
0.0780442
0.0770245
0.075994
0.0749544
0.0739074
0.0728544
0.0717968
0.070736
0.0696732
0.0686095
0.0675459
0.0664835
0.0654231
0.0643657
0.0633121
0.0622631
0.0612196
0.0601824
0.0591522
0.0581297
0.0571158
0.0561112
0.0551165
0.0541324
0.0531596
0.0521987
0.0512503
0.0503149
0.049393
0.0484851
0.0475916
0.0467128
0.0458492
0.0450009
0.0441681
0.0433511
0.04255
0.0417649
0.0409959
0.0402428
0.0395058
0.0387847
0.0380795
0.0373901
0.0367162
0.0360577
0.0354145
0.0347862
0.0341727
0.0335737
0.032989
0.0324183
0.0318613
0.0313177
0.0307872
0.0302697
0.0297647
0.0292721
0.0287915
0.0283226
0.0278653
0.0274193
0.0269844
0.0265604
0.0261471
0.0257445
0.0253525
0.0249712
0.0246008
0.0242415
0.0238939
0.0235586
0.0232366
0.0229288
0.0226379
0.0223334
0.00531109
0.00634634
0.00810114
0.00947209
0.0105876
0.0115549
0.0124316
0.0132517
0.0140374
0.0148049
0.0155662
0.0163305
0.017105
0.0178952
0.0187056
0.0195395
0.0203994
0.0212873
0.0222044
0.0231518
0.0241301
0.0251394
0.0261801
0.0272521
0.0283552
0.0294891
0.0306533
0.0318475
0.0330709
0.0343231
0.0356036
0.0369116
0.0382465
0.0396075
0.0409936
0.0424038
0.043837
0.045292
0.0467674
0.0482616
0.049773
0.0513
0.0528406
0.0543928
0.0559543
0.0575231
0.0590965
0.0606721
0.0622472
0.063819
0.0653846
0.0669409
0.068485
0.0700136
0.0715234
0.0730112
0.0744737
0.0759074
0.077309
0.0786751
0.0800023
0.0812873
0.0825268
0.0837178
0.0848573
0.0859422
0.0869698
0.0879376
0.0888431
0.0896842
0.0904587
0.0911651
0.0918017
0.0923674
0.0928613
0.0932827
0.0936312
0.0939066
0.0941089
0.0942386
0.0942964
0.094284
0.0942024
0.0940491
0.0938288
0.0935438
0.0931963
0.0927887
0.0923236
0.0918037
0.0912318
0.090611
0.0899442
0.0892345
0.0884851
0.0876988
0.0868789
0.086028
0.0851492
0.0842452
0.0833187
0.082372
0.0814076
0.0804272
0.0794331
0.0784277
0.077412
0.0763874
0.0753552
0.0743166
0.0732726
0.0722246
0.0711734
0.07012
0.069065
0.0680095
0.0669543
0.0659002
0.064848
0.0637985
0.0627526
0.0617111
0.060675
0.0596449
0.0586217
0.0576063
0.0565995
0.0556021
0.0546148
0.0536383
0.0526734
0.0517208
0.050781
0.0498545
0.048942
0.0480438
0.0471603
0.046292
0.045439
0.0446017
0.0437802
0.0429746
0.0421851
0.0414118
0.0406545
0.0399133
0.0391882
0.0384789
0.0377855
0.0371076
0.0364453
0.0357981
0.0351659
0.0345485
0.0339457
0.0333571
0.0327824
0.0322215
0.0316739
0.0311395
0.030618
0.030109
0.0296124
0.0291278
0.028655
0.0281937
0.0277438
0.027305
0.0268773
0.0264606
0.0260547
0.0256598
0.025276
0.0249036
0.024543
0.0241949
0.0238599
0.0235391
0.0232336
0.02292
0.0055826
0.00634506
0.00808239
0.00946727
0.010602
0.011591
0.0124905
0.0133343
0.0141443
0.0149355
0.0157203
0.0165074
0.0173036
0.0181143
0.0189436
0.0197951
0.0206713
0.0215745
0.0225063
0.0234679
0.0244603
0.0254845
0.0265407
0.0276296
0.0287512
0.0299056
0.0310927
0.0323126
0.0335649
0.0348495
0.036166
0.0375141
0.038893
0.0403021
0.0417404
0.0432068
0.0447001
0.0462187
0.047761
0.0493252
0.0509093
0.0525111
0.054128
0.0557578
0.0573974
0.0590442
0.0606949
0.0623465
0.0639956
0.0656387
0.0672724
0.068893
0.0704969
0.0720803
0.0736395
0.0751707
0.0766703
0.0781344
0.0795594
0.0809418
0.082278
0.0835647
0.0847985
0.0859765
0.0870959
0.0881538
0.0891478
0.0900758
0.0909357
0.0917258
0.0924444
0.0930907
0.0936637
0.0941628
0.0945878
0.0949391
0.095217
0.0954214
0.0955533
0.095614
0.0956042
0.0955263
0.0953767
0.0951607
0.0948821
0.0945436
0.0941477
0.0936971
0.0931944
0.0926426
0.0920445
0.0914031
0.0907212
0.0900019
0.0892478
0.088462
0.087647
0.0868055
0.08594
0.0850529
0.0841464
0.0832226
0.0822834
0.08133
0.0803633
0.0793849
0.0783966
0.0773997
0.0763951
0.0753835
0.0743657
0.073343
0.0723158
0.0712846
0.0702501
0.069213
0.0681741
0.0671342
0.0660939
0.0650541
0.0640156
0.0629793
0.0619461
0.0609171
0.059893
0.0588748
0.0578635
0.05686
0.0558652
0.0548799
0.0539049
0.0529411
0.0519891
0.0510497
0.0501235
0.0492109
0.0483126
0.0474289
0.0465602
0.0457068
0.044869
0.044047
0.0432409
0.0424508
0.0416768
0.0409188
0.0401769
0.039451
0.0387409
0.0380466
0.0373678
0.0367043
0.0360561
0.0354227
0.0348041
0.0341999
0.0336098
0.0330336
0.0324711
0.0319218
0.0313857
0.0308623
0.0303514
0.0298527
0.0293661
0.0288913
0.028428
0.0279761
0.0275355
0.027106
0.0266877
0.0262805
0.0258847
0.0255004
0.0251281
0.0247683
0.0244216
0.0240888
0.0237703
0.0234477
0.0057403
0.00629112
0.00799739
0.00938864
0.0105341
0.0115341
0.0124466
0.0133054
0.014132
0.0149419
0.0157478
0.0165564
0.0173738
0.0182045
0.0190523
0.0199215
0.0208149
0.0217349
0.0226834
0.0236621
0.0246725
0.0257156
0.0267923
0.0279035
0.0290498
0.0302318
0.0314498
0.032704
0.0339947
0.0353218
0.0366851
0.0380843
0.0395187
0.0409875
0.0424896
0.0440236
0.0455879
0.0471807
0.0487999
0.0504431
0.0521077
0.0537909
0.0554895
0.0572004
0.0589202
0.060645
0.0623713
0.0640951
0.0658124
0.0675191
0.069211
0.070884
0.0725338
0.0741563
0.0757474
0.0773029
0.0788188
0.0802913
0.0817165
0.0830908
0.0844108
0.0856732
0.0868749
0.0880133
0.0890857
0.0900899
0.0910239
0.091886
0.092675
0.0933895
0.0940285
0.0945921
0.0950801
0.0954924
0.0958292
0.0960906
0.0962747
0.0963858
0.0964273
0.0964018
0.0963102
0.0961525
0.0959338
0.0956592
0.0953283
0.0949429
0.0945057
0.0940191
0.0934862
0.0929096
0.0922922
0.091637
0.0909466
0.0902239
0.0894716
0.0886921