/*--------------------------------*- C++ -*----------------------------------*\
| =========                 |                                                 |
| \\      /  F ield         | OpenFOAM: The Open Source CFD Toolbox           |
|  \\    /   O peration     | Version:  2312                                  |
|   \\  /    A nd           | Website:  www.openfoam.com                      |
|    \\/     M anipulation  |                                                 |
\*---------------------------------------------------------------------------*/
FoamFile
{
    version     2.0;
    format      ascii;
    arch        "LSB;label=32;scalar=64";
    class       volScalarField;
    location    "150";
    object      mag(U);
}
// * * * * * * * * * * * * * * * * * * * * * * * * * * * * * * * * * * * * * //

dimensions      [0 1 -1 0 0 0 0];

internalField   nonuniform List<scalar> 
12225
(
0.984913
0.877292
0.765364
0.662617
0.593578
0.551024
0.522452
0.50158
0.485492
0.472548
0.461923
0.453249
0.446401
0.441324
0.438356
0.437753
0.44085
0.447369
1.04742
1.02191
0.978456
0.928524
0.88412
0.847787
0.818481
0.795259
0.776928
0.762227
0.750266
0.740537
0.73278
0.726885
0.722987
0.721327
0.723287
0.727591
1.00435
1.00816
1.00915
0.996014
0.976322
0.955223
0.935114
0.917528
0.902858
0.890766
0.880821
0.872714
0.866251
0.861336
0.857988
0.856264
0.856557
0.857028
0.999139
1.00559
1.01617
1.01573
1.0083
0.99742
0.985093
0.973112
0.96243
0.953248
0.945506
0.939103
0.933947
0.929974
0.927148
0.925373
0.924545
0.923054
0.999562
1.00583
1.01725
1.0216
1.02061
1.01614
1.00941
1.00193
0.994701
0.98816
0.982454
0.977626
0.973672
0.970558
0.968227
0.96651
0.965149
0.962871
0.999818
1.00551
1.0162
1.02261
1.02517
1.02471
1.0219
1.01787
1.0135
1.00925
1.00536
1.00197
0.999121
0.996808
0.994969
0.993421
0.991894
0.989443
0.999809
1.00489
1.01458
1.02177
1.02623
1.02826
1.02817
1.02673
1.02464
1.02232
1.02002
1.01792
1.01608
1.01452
1.01318
1.0119
1.01045
1.00816
0.999819
1.00429
1.01291
1.0202
1.02561
1.02914
1.0309
1.03137
1.03105
1.0303
1.02936
1.02839
1.02746
1.0266
1.02576
1.02482
1.02359
1.02164
0.999887
1.00378
1.01134
1.01838
1.02417
1.02857
1.03154
1.03336
1.03439
1.03489
1.03507
1.03506
1.03493
1.0347
1.03436
1.03379
1.03289
1.03137
0.999967
1.00334
1.00991
1.01652
1.02236
1.0272
1.03092
1.03368
1.03569
1.03716
1.03822
1.039
1.03955
1.03989
1.04001
1.03984
1.03931
1.03826
1.00003
1.00294
1.00863
1.01472
1.02041
1.02541
1.02957
1.03293
1.03564
1.03781
1.03956
1.04097
1.04207
1.0429
1.04345
1.04366
1.04352
1.04293
1.00007
1.00261
1.00759
1.01318
1.01861
1.02359
1.02794
1.03164
1.03477
1.0374
1.03961
1.04146
1.04298
1.04418
1.04506
1.04561
1.04581
1.04563
1.00009
1.00232
1.00666
1.01175
1.01688
1.02175
1.02615
1.03005
1.03345
1.0364
1.03896
1.04114
1.04298
1.0445
1.04568
1.04653
1.04705
1.04722
1.00011
1.00202
1.00573
1.01028
1.01503
1.01968
1.02403
1.028
1.03158
1.03476
1.03757
1.04003
1.04215
1.04394
1.04541
1.04655
1.04739
1.04793
1.00011
1.00172
1.00485
1.00883
1.01314
1.01748
1.02168
1.02561
1.02924
1.03255
1.03552
1.03818
1.04051
1.04253
1.04424
1.04566
1.04679
1.04766
1.00011
1.00145
1.00405
1.00749
1.01133
1.01531
1.01926
1.02306
1.02664
1.02996
1.033
1.03576
1.03823
1.04041
1.04231
1.04395
1.04534
1.0465
1.0001
1.00122
1.00341
1.00637
1.00977
1.01338
1.01704
1.02063
1.02407
1.02732
1.03034
1.03312
1.03564
1.03792
1.03994
1.04174
1.04331
1.04468
1.00009
1.00106
1.00297
1.00559
1.00866
1.01196
1.01536
1.01874
1.02202
1.02514
1.02807
1.0308
1.03331
1.03559
1.03767
1.03953
1.0412
1.04269
1.00009
1.00101
1.00282
1.00534
1.00828
1.01146
1.01472
1.01797
1.02112
1.02412
1.02694
1.02957
1.03199
1.03421
1.03623
1.03806
1.03971
1.04119
1.00009
1.0011
1.00309
1.00581
1.00895
1.01226
1.0156
1.01886
1.02197
1.02489
1.02759
1.03007
1.03233
1.03438
1.03622
1.03787
1.03935
1.04066
1.00009
1.00122
1.00353
1.00664
1.01011
1.01366
1.01715
1.02046
1.02352
1.02632
1.02884
1.0311
1.03311
1.03488
1.03644
1.03781
1.039
1.04003
1.00006
1.00132
1.00409
1.00774
1.01163
1.01548
1.0191
1.02238
1.02529
1.02783
1.03002
1.03189
1.03348
1.03482
1.03593
1.03684
1.03759
1.03819
0.999972
1.00132
1.00473
1.00904
1.01339
1.01747
1.0211
1.02417
1.02669
1.02871
1.03031
1.03154
1.03246
1.03313
1.03358
1.03385
1.03398
1.034
0.999828
1.00118
1.00541
1.01047
1.01521
1.01935
1.02269
1.02517
1.02689
1.028
1.02861
1.02885
1.02879
1.0285
1.02804
1.02746
1.02679
1.02606
0.999538
1.00075
1.00618
1.01199
1.01684
1.0206
1.02307
1.02429
1.02457
1.02416
1.02328
1.02208
1.02067
1.01913
1.01751
1.01587
1.01422
1.01261
0.998544
0.99952
1.00686
1.01336
1.01765
1.02005
1.02054
1.01945
1.01733
1.01462
1.01161
1.00847
1.00531
1.00221
0.999203
0.996311
0.993536
0.990922
0.996379
0.997079
1.00687
1.01344
1.01564
1.01474
1.01131
1.00621
1.00036
0.994356
0.988474
0.982855
0.977561
0.972606
0.967976
0.963651
0.959599
0.955852
0.997526
0.998373
1.00659
1.0086
1.00433
0.996016
0.985175
0.973451
0.962074
0.951559
0.941996
0.933335
0.925485
0.918345
0.911817
0.90582
0.900272
0.895193
1.03262
1.0259
1.0081
0.983295
0.956992
0.931266
0.907002
0.885279
0.866571
0.850588
0.836783
0.824692
0.813972
0.804363
0.795666
0.787739
0.780431
0.773769
1.00442
0.957555
0.88166
0.79563
0.726499
0.677622
0.642475
0.616018
0.595302
0.578373
0.56398
0.551415
0.540272
0.530286
0.521241
0.51302
0.505414
0.498516
0.00145948
0.00381656
0.00633555
0.00876153
0.0106407
0.0118106
0.0122577
0.0120012
0.0111472
0.00980591
0.00807783
0.00605582
0.00385508
0.00193662
0.00267732
0.00542001
0.00869038
0.0123294
0.0163389
0.0207482
0.0255917
0.0309013
0.0367021
0.0430104
0.0498324
0.0571627
0.0649837
0.0732673
0.0819754
0.0910622
0.100476
0.110159
0.12005
0.130089
0.140217
0.150376
0.160513
0.170577
0.180522
0.190307
0.199894
0.209248
0.218341
0.227144
0.235634
0.243789
0.25159
0.25902
0.266059
0.272693
0.278903
0.284671
0.289979
0.294808
0.299141
0.302959
0.306245
0.30898
0.31114
0.312699
0.313623
0.313888
0.313573
0.312716
0.311324
0.309404
0.306958
0.30399
0.300499
0.296491
0.291971
0.286945
0.281421
0.27541
0.268925
0.261979
0.254587
0.246767
0.238536
0.229914
0.220923
0.211588
0.201935
0.191992
0.181787
0.171348
0.160705
0.14989
0.138932
0.127862
0.116708
0.105501
0.0942721
0.0830554
0.0718843
0.0607948
0.0498283
0.0390408
0.0285322
0.0185667
0.0102628
0.00906077
0.0162688
0.0253243
0.0345904
0.0437422
0.0526784
0.0613566
0.0697553
0.0778631
0.0856734
0.0931823
0.100389
0.107293
0.113895
0.1202
0.126209
0.131927
0.137358
0.142508
0.147384
0.151995
0.156346
0.160443
0.164293
0.1679
0.171274
0.174421
0.177351
0.18007
0.182586
0.184907
0.187041
0.188996
0.190779
0.192397
0.193858
0.19517
0.196339
0.197374
0.19828
0.199067
0.199741
0.200309
0.200774
0.201147
0.201412
0.201584
0.201672
0.201687
0.201638
0.20153
0.201369
0.201161
0.20091
0.200618
0.200291
0.199929
0.199537
0.199117
0.198669
0.198194
0.197693
0.197164
0.196605
0.196012
0.19538
0.1947
0.193961
0.193146
0.192234
0.191189
0.18997
0.188501
0.186711
0.184398
0.181492
0.17692
0.17259
0.157379
0.00537215
0.00939203
0.0101888
0.00933183
0.00775945
0.0059138
0.00416829
0.00340708
0.00469492
0.00744135
0.0109979
0.0151754
0.0199149
0.0251938
0.0310028
0.0373394
0.0442059
0.051603
0.0595243
0.0679542
0.0768673
0.0862276
0.0959889
0.106096
0.116484
0.127081
0.137813
0.148609
0.159398
0.170116
0.180702
0.191103
0.201275
0.211178
0.220779
0.230051
0.238973
0.247527
0.255701
0.263485
0.270871
0.277854
0.28443
0.290596
0.29635
0.30169
0.306612
0.311116
0.315198
0.318856
0.322089
0.324894
0.327268
0.329208
0.330712
0.331777
0.332404
0.332596
0.332364
0.331723
0.330695
0.329305
0.327493
0.325211
0.322444
0.319184
0.315428
0.311175
0.306426
0.301185
0.295454
0.28924
0.282553
0.275399
0.267792
0.259744
0.25127
0.242389
0.233117
0.223474
0.213483
0.203167
0.192549
0.181655
0.170515
0.159157
0.147612
0.135911
0.124088
0.112176
0.100212
0.0882361
0.076296
0.0644545
0.0528024
0.041497
0.0308745
0.0218306
0.0168621
0.0191762
0.0267627
0.0362729
0.0463647
0.0565952
0.0667914
0.076859
0.086743
0.0964089
0.105834
0.115004
0.123908
0.132539
0.140894
0.148969
0.156764
0.16428
0.171518
0.178481
0.185171
0.191593
0.197753
0.203656
0.209309
0.214715
0.21988
0.224809
0.229508
0.233984
0.238243
0.242293
0.246138
0.249788
0.253246
0.256521
0.259619
0.262547
0.26531
0.267915
0.270369
0.272676
0.274845
0.27688
0.278789
0.280577
0.282249
0.28381
0.285278
0.286652
0.287934
0.289126
0.290231
0.291255
0.292201
0.293073
0.293876
0.294615
0.295293
0.295913
0.296478
0.296992
0.297455
0.29787
0.298236
0.298555
0.298826
0.299044
0.299207
0.299308
0.299338
0.299282
0.299121
0.298829
0.298368
0.297681
0.296697
0.295261
0.293339
0.290139
0.287125
0.277051
0.00872414
0.0119272
0.00962375
0.00561252
0.00238744
0.0051934
0.00990734
0.0148597
0.0199637
0.0252744
0.0308764
0.0368512
0.0432618
0.0501485
0.0575291
0.0654002
0.0737396
0.0825086
0.0916535
0.101109
0.110803
0.120656
0.130589
0.140524
0.150388
0.16012
0.169666
0.178984
0.188038
0.196803
0.205261
0.213403
0.221223
0.228721
0.2359
0.242762
0.249313
0.255558
0.261502
0.267147
0.272496
0.27755
0.28231
0.286774
0.290939
0.294803
0.29836
0.301606
0.304534
0.307139
0.309415
0.311355
0.312951
0.314198
0.31509
0.315619
0.315782
0.315573
0.314987
0.314015
0.312646
0.310862
0.308647
0.305988
0.302877
0.299308
0.295277
0.290782
0.285822
0.280399
0.274516
0.268178
0.261392
0.254166
0.246512
0.238441
0.229969
0.221111
0.211885
0.202313
0.192415
0.182216
0.171739
0.161011
0.150063
0.138928
0.127643
0.116247
0.104786
0.093316
0.0819046
0.0706473
0.0596891
0.0492727
0.039845
0.0322686
0.0280235
0.0285377
0.0334785
0.0411635
0.0502366
0.059967
0.0699789
0.0800755
0.0901459
0.100118
0.109941
0.119582
0.129015
0.138222
0.147191
0.155913
0.164382
0.172594
0.180547
0.18824
0.195675
0.202852
0.209774
0.216446
0.222872
0.229056
0.235004
0.240721
0.24621
0.251477
0.256528
0.26137
0.266007
0.270447
0.274695
0.278758
0.282643
0.286354
0.289899
0.293283
0.296512
0.299593
0.302531
0.305331
0.308
0.310543
0.312967
0.315276
0.317476
0.319572
0.321571
0.32348
0.3253
0.327037
0.328692
0.33027
0.331775
0.33321
0.33458
0.335886
0.337133
0.338322
0.339458
0.340541
0.341574
0.342559
0.343496
0.344385
0.345227
0.346018
0.346756
0.347436
0.348049
0.348584
0.349027
0.349355
0.349538
0.349534
0.349284
0.348687
0.34771
0.345895
0.344193
0.338736
0.0096012
0.0101808
0.00651608
0.00624922
0.0109991
0.0170111
0.0232831
0.0296365
0.0360616
0.0426056
0.0493357
0.0563172
0.0635992
0.0712064
0.0791375
0.0873673
0.0958507
0.104528
0.11333
0.122182
0.131011
0.139748
0.148331
0.156712
0.164852
0.172724
0.18031
0.187603
0.194602
0.201314
0.207745
0.213908
0.219815
0.225477
0.230906
0.236112
0.241102
0.245882
0.250456
0.254825
0.258988
0.262944
0.266688
0.270214
0.273517
0.276588
0.27942
0.282003
0.284329
0.286386
0.288166
0.289659
0.290853
0.291739
0.292308
0.292549
0.292453
0.292009
0.291207
0.290032
0.288472
0.286513
0.284147
0.281364
0.27816
0.274528
0.270465
0.265968
0.261037
0.255673
0.249879
0.24366
0.237022
0.229974
0.222527
0.214693
0.206487
0.197927
0.18903
0.17982
0.17032
0.160559
0.150564
0.140369
0.130013
0.119543
0.109015
0.0984975
0.0880807
0.0778868
0.0680921
0.0589636
0.0509162
0.0445756
0.040756
0.0401649
0.0428921
0.0483161
0.0555806
0.0639855
0.0730615
0.0825123
0.0921495
0.101852
0.111539
0.121149
0.13064
0.139977
0.149136
0.158096
0.166844
0.175369
0.183663
0.191721
0.19954
0.207117
0.214454
0.22155
0.228407
0.23503
0.241421
0.247585
0.253526
0.259249
0.264756
0.270055
0.27515
0.280046
0.28475
0.289267
0.293604
0.297765
0.301758
0.305587
0.30926
0.31278
0.316155
0.31939
0.322489
0.32546
0.328306
0.331035
0.333651
0.336159
0.338565
0.340873
0.343088
0.345217
0.347262
0.349228
0.351118
0.352936
0.354685
0.356369
0.357991
0.359554
0.361061
0.362515
0.363918
0.365273
0.366581
0.367844
0.369063
0.370237
0.371368
0.372452
0.373488
0.374472
0.375397
0.376255
0.377033
0.377714
0.378274
0.378683
0.378899
0.378855
0.378535
0.37769
0.376981
0.374245
0.00747192
0.00553543
0.007253
0.0139316
0.0213323
0.0287706
0.0361432
0.0434462
0.0507073
0.05797
0.065282
0.0726851
0.0802053
0.0878486
0.0955991
0.103422
0.111271
0.119089
0.126818
0.134403
0.141797
0.148959
0.155863
0.162491
0.168835
0.174896
0.180682
0.186204
0.191479
0.196524
0.201356
0.205992
0.210447
0.214735
0.218865
0.222847
0.226686
0.230384
0.233942
0.237358
0.240629
0.243749
0.246712
0.24951
0.252133
0.254572
0.256816
0.258855
0.260678
0.262272
0.263626
0.264729
0.265568
0.266132
0.266409
0.266387
0.266056
0.265402
0.264414
0.26308
0.261387
0.259325
0.256887
0.254066
0.250856
0.247253
0.243253
0.238854
0.234058
0.228864
0.223277
0.217302
0.210946
0.20422
0.197134
0.189703
0.181944
0.173876
0.165524
0.156913
0.148076
0.139049
0.129874
0.120602
0.111297
0.102038
0.0929293
0.084109
0.075763
0.0681451
0.0615967
0.0565484
0.0534681
0.0527226
0.0544078
0.0582931
0.0639434
0.070893
0.0787476
0.0872085
0.0960588
0.105143
0.114347
0.123592
0.132816
0.141973
0.151026
0.159945
0.168707
0.177293
0.185689
0.193882
0.201866
0.209634
0.217182
0.224507
0.231609
0.238488
0.245145
0.251583
0.257804
0.263813
0.269613
0.275207
0.280599
0.285795
0.290799
0.295617
0.300253
0.304714
0.309005
0.313131
0.317097
0.32091
0.324575
0.328098
0.331483
0.334735
0.337861
0.340865
0.343753
0.34653
0.349201
0.351771
0.354244
0.356626
0.35892
0.361131
0.363264
0.365323
0.36731
0.369229
0.371084
0.372879
0.374615
0.376296
0.377925
0.379504
0.381036
0.382523
0.383967
0.385369
0.38673
0.388051
0.389331
0.39057
0.391766
0.392915
0.394012
0.395051
0.396021
0.39691
0.397699
0.398366
0.398884
0.399211
0.399352
0.399168
0.399182
0.398025
0.00284194
0.00659099
0.0151742
0.0237919
0.0321717
0.0403032
0.0482241
0.0559697
0.0635705
0.0710556
0.0784515
0.0857772
0.0930402
0.100235
0.10734
0.114328
0.12116
0.127799
0.134211
0.140365
0.146242
0.15183
0.157127
0.162139
0.166876
0.171357
0.175602
0.17963
0.183465
0.187126
0.190634
0.194005
0.197254
0.200393
0.20343
0.206372
0.209221
0.211979
0.214644
0.217213
0.219679
0.222037
0.224279
0.226394
0.228373
0.230205
0.231878
0.233382
0.234703
0.23583
0.236751
0.237453
0.237924
0.238151
0.238124
0.237829
0.237255
0.236391
0.235225
0.233746
0.231944
0.229812
0.227342
0.224528
0.221366
0.217853
0.213986
0.209765
0.205192
0.200269
0.195002
0.189397
0.183466
0.177219
0.170672
0.163845
0.156759
0.149442
0.141926
0.134251
0.126463
0.118622
0.110797
0.103075
0.0955662
0.0884128
0.0817926
0.0759268
0.071077
0.0675276
0.065543
0.0653041
0.066852
0.0700745
0.0747472
0.0805991
0.0873658
0.0948179
0.102768
0.111069
0.119603
0.128278
0.137023
0.145781
0.154507
0.163165
0.171727
0.180167
0.188465
0.196605
0.204572
0.212357
0.219951
0.227347
0.234543
0.241534
0.24832
0.2549
0.261275
0.267447
0.273418
0.279192
0.28477
0.290157
0.295356
0.300372
0.305209
0.309871
0.314365
0.318693
0.322863
0.326879
0.330746
0.334468
0.338053
0.341503
0.344825
0.348023
0.351102
0.354068
0.356924
0.359677
0.362331
0.36489
0.367358
0.369741
0.372041
0.374264
0.376413
0.378492
0.380505
0.382454
0.384343
0.386175
0.387953
0.38968
0.391359
0.392991
0.394579
0.396126
0.397633
0.399101
0.400532
0.401926
0.403283
0.404603
0.405884
0.407124
0.408319
0.409463
0.410549
0.411568
0.412505
0.413347
0.414077
0.414671
0.415152
0.415447
0.415997
0.415841
0.00417569
0.0156835
0.0256607
0.0347283
0.0433135
0.0515457
0.0594934
0.0671972
0.074678
0.0819486
0.089016
0.0958823
0.102543
0.108986
0.115195
0.121149
0.126827
0.132212
0.137289
0.142051
0.1465
0.150643
0.154493
0.158071
0.161398
0.164499
0.167401
0.170127
0.172701
0.175146
0.17748
0.179721
0.181881
0.183971
0.185999
0.187969
0.189884
0.191743
0.193544
0.195282
0.196953
0.198547
0.200057
0.201474
0.202786
0.203983
0.205053
0.205986
0.206768
0.207389
0.207836
0.208098
0.208163
0.208018
0.207654
0.207059
0.206222
0.205134
0.203785
0.202166
0.200269
0.198089
0.195619
0.192857
0.1898
0.186447
0.182799
0.178857
0.174626
0.170112
0.165325
0.160277
0.154983
0.149461
0.143735
0.137835
0.131794
0.125656
0.119471
0.113303
0.107229
0.101342
0.0957526
0.0905921
0.0860142
0.0821901
0.0792982
0.0775056
0.0769421
0.0776769
0.0797047
0.0829495
0.0872834
0.0925514
0.0985936
0.10526
0.112417
0.119952
0.127767
0.135783
0.143932
0.152156
0.160409
0.168649
0.176846
0.184972
0.193003
0.200921
0.208708
0.216351
0.223837
0.231158
0.238305
0.245274
0.252059
0.258658
0.26507
0.271293
0.277328
0.283177
0.288842
0.294324
0.299626
0.304751
0.309703
0.314485
0.319102
0.323557
0.327856
0.332002
0.336001
0.339856
0.343574
0.347158
0.350612
0.353943
0.357154
0.360251
0.363237
0.366117
0.368896
0.371579
0.374169
0.376672
0.37909
0.381428
0.38369
0.38588
0.388001
0.390056
0.39205
0.393985
0.395864
0.39769
0.399466
0.401195
0.402879
0.40452
0.406121
0.407683
0.409209
0.4107
0.412156
0.413579
0.414969
0.416325
0.417648
0.418934
0.420182
0.421386
0.422543
0.423644
0.424682
0.425647
0.426533
0.42733
0.428071
0.428727
0.429677
0.430196
0.0115088
0.0264364
0.0371605
0.0461622
0.0544668
0.0623479
0.0699014
0.0771692
0.0841628
0.0908813
0.0973181
0.103464
0.109306
0.114834
0.120034
0.124895
0.129409
0.133574
0.137392
0.14087
0.144022
0.146868
0.14943
0.151734
0.153809
0.155682
0.157382
0.158933
0.16036
0.161685
0.162927
0.164102
0.165223
0.1663
0.167341
0.168349
0.169328
0.170276
0.171191
0.172069
0.172904
0.17369
0.174419
0.175081
0.175666
0.176166
0.176568
0.176864
0.177041
0.17709
0.176999
0.176759
0.17636
0.175792
0.175046
0.174114
0.172986
0.171657
0.170119
0.168368
0.166398
0.164208
0.161795
0.15916
0.156305
0.153233
0.14995
0.146464
0.142786
0.13893
0.134913
0.130757
0.12649
0.122143
0.117755
0.113373
0.109054
0.104862
0.100875
0.09718
0.0938765
0.0910709
0.0888722
0.0873851
0.0867019
0.0868926
0.0879964
0.0900173
0.092925
0.0966608
0.101147
0.106294
0.112012
0.118213
0.124813
0.131738
0.138923
0.146308
0.153842
0.16148
0.16918
0.176908
0.18463
0.19232
0.199955
0.207514
0.214981
0.222339
0.229576
0.236681
0.243644
0.250456
0.257113
0.263607
0.269937
0.276097
0.282089
0.287909
0.29356
0.299041
0.304354
0.309501
0.314484
0.319306
0.323969
0.328477
0.332833
0.337042
0.341107
0.345032
0.348822
0.352481
0.356012
0.359421
0.362711
0.365887
0.368952
0.371913
0.374771
0.377533
0.380201
0.382781
0.385275
0.387688
0.390024
0.392286
0.394478
0.396603
0.398665
0.400666
0.40261
0.4045
0.406338
0.408128
0.409872
0.411572
0.413231
0.414851
0.416435
0.417983
0.419498
0.420981
0.422433
0.423855
0.425248
0.426612
0.427946
0.429249
0.430519
0.431754
0.432951
0.434104
0.43521
0.436264
0.437267
0.43822
0.439165
0.440097
0.441349
0.44234
0.0190554
0.0375379
0.0488601
0.0575496
0.0652804
0.0725076
0.0793733
0.0859269
0.0921773
0.0981159
0.103728
0.108998
0.113911
0.118456
0.122622
0.126407
0.129811
0.13284
0.135505
0.137823
0.139815
0.141505
0.142921
0.14409
0.145042
0.145806
0.146409
0.146878
0.147234
0.147502
0.147697
0.147838
0.147936
0.148003
0.148045
0.148067
0.148072
0.148062
0.148033
0.147984
0.147911
0.147807
0.147666
0.147481
0.147244
0.146948
0.146583
0.146142
0.145616
0.144998
0.14428
0.143456
0.142517
0.14146
0.140277
0.138967
0.137525
0.135949
0.134239
0.132396
0.130421
0.128319
0.126096
0.123761
0.121325
0.1188
0.116204
0.113556
0.11088
0.108205
0.105563
0.102993
0.100537
0.0982437
0.0961679
0.0943672
0.0929027
0.091836
0.0912267
0.0911298
0.0915911
0.092644
0.0943068
0.0965817
0.0994567
0.102908
0.106901
0.111395
0.116344
0.1217
0.127416
0.133445
0.139743
0.146268
0.152981
0.159848
0.166835
0.173913
0.181053
0.18823
0.19542
0.2026
0.20975
0.216852
0.22389
0.230848
0.237715
0.24448
0.251132
0.257663
0.264065
0.270332
0.276459
0.282442
0.288276
0.293961
0.299493
0.304873
0.310101
0.315177
0.320103
0.324879
0.329507
0.33399
0.338331
0.342531
0.346595
0.350525
0.354324
0.357998
0.361548
0.36498
0.368296
0.371501
0.374598
0.377591
0.380484
0.383281
0.385986
0.388602
0.391133
0.393584
0.395957
0.398256
0.400484
0.402646
0.404743
0.406779
0.408757
0.410681
0.412552
0.414373
0.416148
0.417879
0.419567
0.421217
0.422828
0.424405
0.425948
0.42746
0.428941
0.430395
0.431821
0.433221
0.434595
0.435944
0.437268
0.438566
0.439837
0.441081
0.442295
0.443478
0.444628
0.445746
0.446837
0.447912
0.449016
0.450161
0.451641
0.452969
0.0261401
0.0482164
0.0601169
0.0684043
0.0754191
0.081825
0.08783
0.0935027
0.0988579
0.103887
0.108573
0.112897
0.116845
0.120404
0.123569
0.126338
0.128717
0.130717
0.132352
0.133643
0.134611
0.135284
0.135688
0.13585
0.1358
0.135565
0.135169
0.134638
0.133994
0.133257
0.132446
0.131574
0.130656
0.129702
0.12872
0.127715
0.126691
0.125651
0.124596
0.123523
0.122432
0.121318
0.12018
0.119013
0.117813
0.116575
0.115295
0.11397
0.112597
0.111172
0.109696
0.108167
0.106585
0.104954
0.103278
0.101561
0.0998119
0.0980403
0.0962585
0.0944814
0.0927267
0.091015
0.0893695
0.0878169
0.0863861
0.085109
0.0840192
0.0831517
0.082542
0.0822247
0.0822324
0.0825941
0.0833339
0.0844702
0.0860145
0.0879719
0.0903407
0.0931139
0.0962788
0.099819
0.103715
0.107945
0.112486
0.117313
0.122402
0.127729
0.133272
0.139009
0.144918
0.15098
0.157174
0.163482
0.169887
0.176371
0.182917
0.189511
0.196137
0.202781
0.20943
0.216069
0.222685
0.229265
0.235797
0.242269
0.24867
0.254991
0.261224
0.26736
0.273393
0.279317
0.285125
0.290814
0.296378
0.301815
0.307121
0.312296
0.317337
0.322244
0.327018
0.331657
0.336164
0.340538
0.344782
0.348898
0.352887
0.356751
0.360494
0.364118
0.367626
0.371022
0.374308
0.377487
0.380563
0.38354
0.38642
0.389207
0.391905
0.394516
0.397045
0.399494
0.401867
0.404168
0.406398
0.408563
0.410663
0.412704
0.414686
0.416614
0.41849
0.420316
0.422095
0.42383
0.425522
0.427175
0.428791
0.43037
0.431917
0.433432
0.434917
0.436375
0.437806
0.439212
0.440594
0.441954
0.443292
0.44461
0.445906
0.447183
0.448438
0.449674
0.450888
0.452083
0.453258
0.454419
0.455576
0.456744
0.457972
0.459281
0.460932
0.462502
0.0323198
0.0579091
0.0704237
0.078315
0.0845832
0.090112
0.0951873
0.099909
0.104307
0.108378
0.112108
0.115482
0.118483
0.121103
0.123334
0.125179
0.126643
0.127736
0.128475
0.128878
0.128968
0.128768
0.128303
0.127598
0.126679
0.125568
0.124289
0.122864
0.121311
0.119649
0.117894
0.116058
0.114155
0.112193
0.11018
0.108122
0.106023
0.103886
0.101713
0.0995065
0.0972658
0.0949916
0.0926842
0.090344
0.0879722
0.0855707
0.0831428
0.0806934
0.0782295
0.0757608
0.0732999
0.0708634
0.0684722
0.066152
0.0639343
0.0618569
0.0599636
0.0583043
0.0569334
0.0559078
0.0552833
0.0551105
0.0554304
0.0562698
0.0576396
0.0595343
0.061934
0.0648077
0.0681175
0.071822
0.0758794
0.0802497
0.0848948
0.0897799
0.094874
0.10015
0.105583
0.111152
0.116838
0.122626
0.1285
0.134449
0.140459
0.146521
0.152624
0.158762
0.164926
0.171111
0.17731
0.183518
0.18973
0.19594
0.202144
0.208337
0.214515
0.220672
0.226804
0.232907
0.238974
0.244999
0.250978
0.256902
0.262766
0.268563
0.274288
0.279934
0.285497
0.290971
0.296352
0.301636
0.306819
0.311897
0.316869
0.32173
0.326479
0.331115
0.335637
0.340043
0.344334
0.34851
0.352571
0.356518
0.360352
0.364074
0.367687
0.371191
0.37459
0.377885
0.381079
0.384174
0.387174
0.39008
0.392896
0.395624
0.398267
0.400828
0.403311
0.405717
0.408051
0.410315
0.412511
0.414644
0.416714
0.418726
0.420682
0.422584
0.424436
0.426238
0.427995
0.429708
0.431379
0.433011
0.434606
0.436165
0.437692
0.439187
0.440653
0.442092
0.443505
0.444893
0.446259
0.447603
0.448928
0.450234
0.451522
0.452793
0.454048
0.455289
0.456515
0.457728
0.458929
0.46012
0.461305
0.462492
0.463695
0.464933
0.466255
0.467687
0.469464
0.471209
0.0372965
0.066196
0.079388
0.0869505
0.0925195
0.0971971
0.101356
0.105135
0.108585
0.111717
0.114523
0.116991
0.119109
0.120868
0.122263
0.123294
0.123967
0.124292
0.124283
0.123954
0.123327
0.122419
0.121252
0.119848
0.118226
0.116407
0.114409
0.112249
0.109943
0.107505
0.104947
0.102281
0.0995134
0.0966519
0.0937014
0.0906652
0.0875458
0.0843443
0.0810612
0.0776962
0.0742488
0.0707185
0.0671048
0.0634083
0.0596305
0.055775
0.0518484
0.0478615
0.0438321
0.039788
0.0357735
0.031859
0.0281575
0.0248496
0.0222121
0.0206155
0.020421
0.0217738
0.0245127
0.0283176
0.0328866
0.0379996
0.0435098
0.0493198
0.0553632
0.0615925
0.0679721
0.0744738
0.0810741
0.0877526
0.0944915
0.101274
0.108086
0.114913
0.121741
0.12856
0.135358
0.142126
0.148855
0.155538
0.162167
0.168737
0.175242
0.181679
0.188044
0.194336
0.200554
0.206697
0.212765
0.218759
0.224681
0.230532
0.236314
0.24203
0.247679
0.253265
0.258789
0.264251
0.269652
0.274991
0.280268
0.28548
0.290626
0.295703
0.300709
0.305642
0.310499
0.315277
0.319974
0.324588
0.329117
0.333558
0.337908
0.342168
0.346334
0.350406
0.354382
0.358263
0.362048
0.365737
0.369329
0.372826
0.376228
0.379537
0.382752
0.385876
0.38891
0.391857
0.394717
0.397493
0.400187
0.402802
0.405339
0.407801
0.41019
0.412508
0.414759
0.416944
0.419067
0.421129
0.423133
0.425081
0.426977
0.428821
0.430617
0.432367
0.434072
0.435735
0.437359
0.438944
0.440494
0.442009
0.443493
0.444946
0.44637
0.447768
0.449141
0.45049
0.451818
0.453125
0.454413
0.455683
0.456937
0.458177
0.459402
0.460616
0.461818
0.463011
0.464195
0.465373
0.466548
0.467723
0.468905
0.470103
0.471334
0.472621
0.474012
0.475535
0.477401
0.479269
0.0408806
0.0727765
0.0867196
0.0940629
0.0990324
0.102943
0.106258
0.109162
0.111731
0.113992
0.115948
0.117593
0.11892
0.119923
0.120599
0.120947
0.120973
0.120684
0.12009
0.119205
0.118043
0.116621
0.114957
0.113067
0.110967
0.108674
0.106203
0.103568
0.100782
0.097855
0.0947979
0.0916185
0.0883234
0.0849177
0.0814054
0.0777895
0.0740721
0.0702548
0.0663391
0.0623265
0.058219
0.0540201
0.0497352
0.0453735
0.04095
0.0364898
0.0320352
0.0276603
0.0234987
0.0197976
0.0169988
0.0157486
0.0165546
0.0192903
0.023395
0.0283692
0.033906
0.0398327
0.0460497
0.0524958
0.05913
0.0659226
0.0728502
0.0798927
0.0870321
0.0942517
0.101535
0.108867
0.116232
0.123613
0.130997
0.138368
0.145711
0.153013
0.160259
0.167437
0.174536
0.181545
0.188454
0.195254
0.201939
0.208503
0.21494
0.221247
0.227422
0.233464
0.239374
0.245154
0.250806
0.256335
0.261745
0.267041
0.272229
0.277314
0.282302
0.2872
0.292011
0.296743
0.301397
0.30598
0.310492
0.314936
0.319313
0.323626
0.327873
0.332055
0.336171
0.340222
0.344206
0.348122
0.35197
0.355747
0.359453
0.363087
0.366648
0.370134
0.373545
0.37688
0.380138
0.38332
0.386425
0.389454
0.392405
0.395281
0.398082
0.400808
0.403461
0.406042
0.408552
0.410993
0.413366
0.415673
0.417916
0.420096
0.422216
0.424277
0.426282
0.428232
0.430129
0.431976
0.433773
0.435525
0.437231
0.438895
0.440518
0.442102
0.443649
0.44516
0.446638
0.448083
0.449499
0.450886
0.452246
0.453581
0.454892
0.456181
0.457449
0.458698
0.459928
0.461143
0.462342
0.463528
0.464701
0.465863
0.467016
0.468161
0.4693
0.470434
0.471566
0.472699
0.473837
0.474984
0.47615
0.477346
0.47859
0.479907
0.481344
0.482931
0.484856
0.48681
0.0430395
0.0774649
0.0922137
0.0994677
0.103968
0.107235
0.109823
0.111963
0.113756
0.11525
0.116462
0.117396
0.11805
0.118423
0.118514
0.118325
0.117859
0.117123
0.116126
0.114879
0.113397
0.111692
0.109781
0.107678
0.105401
0.102964
0.100385
0.0976764
0.0948552
0.0919358
0.0889331
0.085862
0.082738
0.0795777
0.0763992
0.073223
0.0700731
0.0669776
0.0639703
0.061092
0.0583915
0.0559265
0.0537642
0.0519797
0.0506529
0.0498625
0.0496781
0.0501515
0.05131
0.053154
0.0556592
0.0587833
0.0624734
0.0666732
0.071327
0.0763829
0.0817937
0.0875177
0.0935176
0.0997604
0.106216
0.112858
0.119661
0.126602
0.133657
0.140805
0.148026
0.155298
0.162602
0.169917
0.177225
0.184507
0.191745
0.198921
0.20602
0.213026
0.219924
0.226703
0.233348
0.23985
0.246201
0.252393
0.25842
0.26428
0.26997
0.27549
0.280842
0.286028
0.291055
0.295926
0.30065
0.305233
0.309685
0.314013
0.318226
0.322333
0.326342
0.330261
0.334098
0.337859
0.34155
0.345175
0.348738
0.352243
0.355693
0.359089
0.362434
0.365727
0.368971
0.372164
0.375308
0.378401
0.381442
0.384432
0.387368
0.39025
0.393078
0.395851
0.398567
0.401226
0.403828
0.406373
0.408859
0.411288
0.41366
0.415974
0.418231
0.420433
0.42258
0.424672
0.426711
0.428698
0.430634
0.43252
0.434358
0.436149
0.437895
0.439597
0.441257
0.442876
0.444456
0.445998
0.447504
0.448976
0.450414
0.451821
0.453198
0.454546
0.455868
0.457163
0.458434
0.459682
0.460908
0.462114
0.463301
0.464471
0.465624
0.466762
0.467887
0.468999
0.4701
0.471191
0.472274
0.47335
0.474421
0.475488
0.476553
0.47762
0.47869
0.479769
0.480859
0.481969
0.483108
0.484289
0.485531
0.486862
0.488326
0.489952
0.491912
0.49392
0.0438297
0.0801966
0.0957623
0.103056
0.107236
0.110005
0.112004
0.113511
0.11466
0.115515
0.11611
0.116461
0.116575
0.116456
0.116108
0.115535
0.114745
0.113745
0.112545
0.111159
0.109602
0.10789
0.106041
0.104075
0.102013
0.0998756
0.0976872
0.0954719
0.0932554
0.0910651
0.0889299
0.0868799
0.0849476
0.0831665
0.0815721
0.0802007
0.0790891
0.0782734
0.0777879
0.077664
0.0779282
0.0786016
0.0796983
0.0812255
0.0831836
0.0855663
0.0883623
0.0915558
0.0951283
0.0990593
0.103327
0.107911
0.112789
0.11794
0.123346
0.128986
0.134841
0.140893
0.147125
0.153519
0.160057
0.166722
0.173498
0.180365
0.187308
0.194306
0.201343
0.2084
0.215457
0.222498
0.229504
0.236456
0.243338
0.250132
0.256819
0.263386
0.269817
0.276097
0.282216
0.288161
0.293925
0.2995
0.304882
0.310068
0.315056
0.31985
0.324452
0.328867
0.333102
0.337163
0.341061
0.344805
0.348404
0.35187
0.355214
0.358446
0.361577
0.364617
0.367576
0.370462
0.373283
0.376046
0.378757
0.381421
0.384043
0.386627
0.389175
0.391689
0.394172
0.396623
0.399045
0.401437
0.403797
0.406127
0.408425
0.410691
0.412923
0.41512
0.417282
0.419407
0.421495
0.423544
0.425554
0.427525
0.429457
0.431348
0.433199
0.435011
0.436783
0.438516
0.44021
0.441866
0.443485
0.445066
0.446612
0.448123
0.4496
0.451044
0.452456
0.453838
0.45519
0.456513
0.457809
0.459078
0.460322
0.461542
0.46274
0.463915
0.46507
0.466206
0.467323
0.468422
0.469505
0.470574
0.471628
0.472669
0.473699
0.474717
0.475727
0.476728
0.477722
0.47871
0.479694
0.480675
0.481655
0.482636
0.48362
0.484611
0.485611
0.486626
0.48766
0.488723
0.489824
0.490979
0.492207
0.493537
0.49501
0.496656
0.498628
0.500668
0.0432652
0.0809998
0.0973762
0.104821
0.108812
0.111219
0.112764
0.113772
0.114404
0.114747
0.114852
0.114747
0.114451
0.113978
0.113339