/*--------------------------------*- C++ -*----------------------------------*\
| =========                 |                                                 |
| \\      /  F ield         | OpenFOAM: The Open Source CFD Toolbox           |
|  \\    /   O peration     | Version:  2312                                  |
|   \\  /    A nd           | Website:  www.openfoam.com                      |
|    \\/     M anipulation  |                                                 |
\*---------------------------------------------------------------------------*/
FoamFile
{
    version     2.0;
    format      ascii;
    arch        "LSB;label=32;scalar=64";
    class       volScalarField;
    location    "150";
    object      mag(U);
}
// * * * * * * * * * * * * * * * * * * * * * * * * * * * * * * * * * * * * * //

dimensions      [0 1 -1 0 0 0 0];

internalField   nonuniform List<scalar> 
12225
(
4.91717
4.70384
4.45478
4.20474
3.98067
3.79144
3.63296
3.50113
3.39208
3.30191
3.22708
3.16464
3.11231
3.06854
3.03228
3.00391
2.97877
2.97099
5.07624
5.14497
5.13419
5.08669
5.02753
4.96175
4.89058
4.8162
4.74201
4.67043
4.60277
4.53964
4.4815
4.42844
4.38052
4.33765
4.30101
4.26891
5.00439
5.02835
5.05661
5.07539
5.08631
5.09036
5.08688
5.07662
5.06144
5.04303
5.02254
5.00087
4.97877
4.95686
4.93568
4.91553
4.89757
4.87936
4.99798
5.00999
5.03474
5.05419
5.0685
5.08023
5.08889
5.09416
5.09669
5.09713
5.09591
5.09341
5.08995
5.08591
5.08153
5.07702
5.07267
5.067
4.99929
5.00894
5.02802
5.04339
5.05565
5.06715
5.07728
5.08545
5.09194
5.09716
5.10133
5.10465
5.10727
5.10939
5.11112
5.11251
5.11352
5.11335
5.00015
5.00827
5.02346
5.03662
5.04777
5.05856
5.06847
5.077
5.08431
5.09074
5.09644
5.10153
5.10612
5.11031
5.11414
5.11758
5.1205
5.12241
5.00029
5.00717
5.01995
5.03188
5.0423
5.05236
5.06176
5.0701
5.0775
5.08418
5.09031
5.09595
5.10118
5.10605
5.11058
5.11469
5.11825
5.12095
5.00029
5.00611
5.01708
5.02803
5.03783
5.04726
5.05618
5.06425
5.07153
5.07821
5.0844
5.09016
5.09555
5.1006
5.10528
5.10955
5.11326
5.11625
5.00031
5.00522
5.01463
5.0246
5.03382
5.04272
5.0512
5.05901
5.06613
5.07271
5.07884
5.08457
5.08993
5.09494
5.09959
5.1038
5.10749
5.11056
5.00032
5.00449
5.01251
5.0215
5.03013
5.03851
5.04658
5.05411
5.06105
5.0675
5.07352
5.07915
5.08441
5.08932
5.09385
5.09795
5.10155
5.10462
5.00031
5.00385
5.01069
5.01874
5.02673
5.03459
5.04223
5.04945
5.05618
5.06247
5.06835
5.07385
5.07899
5.08377
5.08816
5.09213
5.09563
5.09867
5.00029
5.00335
5.00929
5.01651
5.02391
5.03127
5.0385
5.0454
5.05191
5.05801
5.06374
5.0691
5.07411
5.07875
5.083
5.08686
5.09027
5.09327
5.00027
5.00293
5.00809
5.01456
5.02138
5.02825
5.03505
5.04162
5.04786
5.05376
5.05931
5.06451
5.06936
5.07386
5.07799
5.08173
5.08506
5.08802
5.00024
5.00253
5.00695
5.01266
5.01884
5.02516
5.03148
5.03765
5.04357
5.0492
5.05451
5.05951
5.06417
5.0685
5.07247
5.07608
5.07932
5.08223
5.00022
5.00216
5.00591
5.01088
5.01641
5.02215
5.02795
5.03368
5.03922
5.04452
5.04955
5.05429
5.05873
5.06284
5.06664
5.0701
5.07323
5.07607
5.00019
5.00183
5.005
5.0093
5.0142
5.01937
5.02465
5.02991
5.03505
5.04
5.04471
5.04917
5.05334
5.05724
5.06083
5.06414
5.06715
5.0699
5.00016
5.00155
5.00426
5.008
5.01234
5.01699
5.02179
5.02662
5.03136
5.03596
5.04035
5.04452
5.04845
5.05212
5.05552
5.05867
5.06155
5.06421
5.00014
5.00136
5.00375
5.00708
5.011
5.01525
5.01967
5.02413
5.02854
5.03284
5.03696
5.04088
5.04458
5.04805
5.05129
5.0543
5.05708
5.05965
5.00013
5.00128
5.00353
5.00669
5.01042
5.01448
5.0187
5.02296
5.02718
5.03129
5.03523
5.03899
5.04254
5.04588
5.049
5.05191
5.05461
5.05712
5.00014
5.00136
5.00375
5.00709
5.01101
5.0152
5.01951
5.02385
5.0281
5.03222
5.03615
5.03989
5.0434
5.04671
5.04979
5.05267
5.05535
5.05783
5.00015
5.0015
5.00419
5.00793
5.01222
5.01673
5.0213
5.02583
5.03025
5.03447
5.03847
5.04225
5.04579
5.0491
5.05218
5.05505
5.05772
5.0602
5.00015
5.00165
5.00481
5.00918
5.01401
5.01893
5.02385
5.02867
5.0333
5.03767
5.04178
5.04561
5.04919
5.05252
5.05561
5.05848
5.06114
5.0636
5.00012
5.00172
5.00552
5.01074
5.01623
5.02161
5.02693
5.03207
5.03692
5.04145
5.04566
5.04958
5.0532
5.05655
5.05964
5.06251
5.06516
5.06761
5.00005
5.00169
5.00629
5.01245
5.01858
5.0245
5.0303
5.03582
5.04093
5.04564
5.04999
5.05399
5.05767
5.06105
5.06416
5.06702
5.06965
5.07207
4.99981
5.0012
5.00707
5.01428
5.02095
5.02749
5.034
5.04008
5.04558
5.05055
5.05508
5.0592
5.06294
5.06631
5.06938
5.07215
5.07468
5.07697
4.99829
4.99842
5.00723
5.01677
5.02447
5.03185
5.03919
5.04593
5.05187
5.05711
5.06178
5.06589
5.06948
5.07262
5.07534
5.0777
5.07975
5.08151
4.99438
4.9923
5.00593
5.02052
5.03159
5.04106
5.04953
5.05669
5.06256
5.06737
5.07126
5.07432
5.0766
5.07822
5.07925
5.07979
5.07992
5.0797
4.99493
4.99726
5.01307
5.0304
5.04574
5.05859
5.06797
5.07359
5.07608
5.07613
5.07426
5.07079
5.06606
5.06031
5.05382
5.04675
5.03928
5.03162
5.0413
5.09322
5.10212
5.09229
5.0802
5.06597
5.04627
5.02092
4.99162
4.95995
4.92707
4.89377
4.86063
4.82809
4.79639
4.76577
4.73624
4.70817
4.9737
4.89696
4.76594
4.60649
4.44789
4.30358
4.17517
4.06152
3.96157
3.87407
3.79729
3.72965
3.66972
3.61641
3.56868
3.52576
3.48672
3.4514
0.00619389
0.0139655
0.0205072
0.0259417
0.0296472
0.0314449
0.0312883
0.0293146
0.02587
0.0212853
0.016009
0.0109226
0.00866382
0.0123218
0.0194521
0.0280242
0.0374905
0.0477097
0.0586499
0.0703138
0.0827118
0.0958556
0.109751
0.124396
0.139782
0.155888
0.172686
0.190139
0.208206
0.226841
0.245992
0.265614
0.285653
0.306063
0.326797
0.347813
0.369071
0.390541
0.412191
0.433995
0.455928
0.477971
0.500102
0.522305
0.544565
0.566872
0.589214
0.611586
0.633977
0.656383
0.678795
0.701207
0.723606
0.745984
0.768326
0.790625
0.812864
0.83503
0.857105
0.879072
0.900909
0.922595
0.944102
0.965409
0.986492
1.00733
1.02789
1.0482
1.06826
1.08806
1.10757
1.12677
1.14564
1.16415
1.18226
1.19995
1.21716
1.23386
1.25
1.26554
1.28043
1.29462
1.30804
1.32064
1.33235
1.34309
1.35278
1.36132
1.36861
1.37452
1.37893
1.38175
1.38283
1.38253
1.38074
1.37745
1.37259
1.36612
1.35797
1.3481
1.33645
1.32298
1.30763
1.29038
1.27119
1.25003
1.22689
1.20177
1.17468
1.14564
1.11467
1.08184
1.04721
1.01082
0.9728
0.933225
0.892243
0.849964
0.80656
0.762158
0.716909
0.67098
0.624562
0.577847
0.531034
0.484306
0.437839
0.391802
0.346355
0.301654
0.25785
0.215097
0.173556
0.133455
0.0951485
0.0596428
0.0318152
0.0332423
0.059831
0.0900694
0.119884
0.148437
0.175489
0.200965
0.224859
0.247195
0.268014
0.287368
0.305315
0.321923
0.337262
0.35141
0.364444
0.37645
0.387514
0.397726
0.407177
0.415963
0.424176
0.431858
0.439156
0.446184
0.453049
0.459863
0.46673
0.473754
0.481033
0.48866
0.496719
0.505284
0.514416
0.524154
0.534508
0.545434
0.556845
0.568374
0.579897
0.58834
0.598064
0.575132
0.0195938
0.026179
0.0238615
0.0190569
0.0135806
0.00866621
0.0071543
0.0108342
0.0168389
0.0239697
0.0320917
0.0412287
0.0513854
0.0625241
0.074592
0.0875467
0.101348
0.115955
0.131324
0.147415
0.164183
0.181582
0.199564
0.218076
0.237062
0.256465
0.276226
0.29629
0.316604
0.337117
0.357783
0.378563
0.399421
0.420327
0.441256
0.462185
0.483099
0.50398
0.524814
0.545592
0.566305
0.586947
0.607515
0.628008
0.648425
0.668763
0.689021
0.709197
0.729288
0.749289
0.769199
0.78901
0.808717
0.828311
0.847784
0.867126
0.886327
0.905374
0.924255
0.942958
0.961471
0.979782
0.997881
1.01576
1.0334
1.0508
1.06794
1.08478
1.1013
1.11747
1.13326
1.14864
1.16358
1.17806
1.19205
1.20551
1.21841
1.23071
1.24237
1.25335
1.26362
1.27311
1.2818
1.28962
1.29655
1.30253
1.30752
1.3115
1.31444
1.31635
1.31726
1.31718
1.31616
1.31383
1.31011
1.30492
1.29819
1.28986
1.27988
1.2682
1.25476
1.23953
1.22245
1.2035
1.18264
1.15986
1.13514
1.10848
1.07989
1.04941
1.01706
0.98291
0.947014
0.909465
0.870356
0.829806
0.787944
0.744904
0.700869
0.655981
0.610407
0.564327
0.517935
0.471433
0.425027
0.378914
0.33329
0.28835
0.2443
0.201376
0.159897
0.120399
0.0841005
0.0548557
0.0447437
0.0612308
0.0889847
0.118957
0.148662
0.177442
0.20507
0.231406
0.256379
0.279964
0.302162
0.322997
0.342503
0.360728
0.377728
0.393564
0.408304
0.422024
0.434801
0.44672
0.457867
0.468332
0.478208
0.487591
0.496584
0.505284
0.513791
0.522205
0.530626
0.539158
0.547898
0.556943
0.566383
0.576303
0.586779
0.597876
0.609642
0.622107
0.635273
0.649091
0.663464
0.678098
0.692789
0.705759
0.719204
0.721325
0.0287121
0.0278554
0.0185161
0.00913913
0.00790061
0.0166589
0.0267551
0.0369681
0.0472122
0.0575895
0.0682574
0.0793737
0.0910657
0.103416
0.116462
0.130206
0.144621
0.159662
0.175273
0.191393
0.207959
0.224909
0.242185
0.259727
0.277481
0.295393
0.313421
0.331533
0.349701
0.3679
0.386112
0.404322
0.422517
0.44069
0.458832
0.47694
0.49501
0.513039
0.531028
0.548974
0.566878
0.584739
0.602558
0.620335
0.638068
0.655757
0.6734
0.690995
0.708538
0.726025
0.743453
0.760815
0.778106
0.795319
0.812444
0.829475
0.846401
0.863212
0.879899
0.89645
0.912856
0.929104
0.945184
0.96108
0.976779
0.992262
1.00751
1.02249
1.03717
1.05154
1.06557
1.07923
1.0925
1.10535
1.11774
1.12966
1.14107
1.15193
1.16222
1.17189
1.18091
1.18923
1.19683
1.20367
1.20969
1.21488
1.21918
1.22257
1.22499
1.22641
1.22678
1.22604
1.22412
1.22091
1.21635
1.21037
1.20291
1.19391
1.18331
1.17107
1.15714
1.14147
1.12403
1.10477
1.08369
1.06075
1.03595
1.00929
0.980796
0.950487
0.918409
0.884618
0.849188
0.81221
0.773785
0.73404
0.693092
0.651103
0.608244
0.564677
0.520577
0.476135
0.431556
0.387061
0.342883
0.299271
0.256509
0.21495
0.175108
0.137855
0.10495
0.0803062
0.070986
0.0806245
0.102584
0.129575
0.158076
0.186584
0.214412
0.241269
0.267017
0.291572
0.314885
0.336938
0.357738
0.377306
0.395677
0.412898
0.429022
0.444112
0.458235
0.471464
0.483879
0.495561
0.506597
0.517075
0.527087
0.536728
0.546097
0.555292
0.564409
0.573542
0.582787
0.592236
0.601983
0.612116
0.622717
0.633865
0.645626
0.658057
0.6712
0.685077
0.699684
0.714973
0.730852
0.747081
0.763509
0.778985
0.795388
0.805971
0.0286619
0.021511
0.0130515
0.0163842
0.0271225
0.0391512
0.051272
0.0632616
0.0751147
0.0869084
0.0987561
0.110778
0.123081
0.135745
0.148816
0.16231
0.176218
0.190507
0.205134
0.220048
0.235197
0.25053
0.265999
0.281564
0.297191
0.312855
0.328538
0.344226
0.359909
0.375582
0.391241
0.406886
0.422517
0.438136
0.453744
0.469343
0.484934
0.500519
0.516101
0.531682
0.547262
0.562841
0.57842
0.593996
0.609568
0.625133
0.640688
0.656228
0.671751
0.68725
0.702721
0.718156
0.73355
0.748893
0.764178
0.779397
0.794539
0.809595
0.824555
0.839407
0.85414
0.868742
0.883198
0.897494
0.911613
0.925536
0.93924
0.952704
0.965902
0.978813
0.991412
1.00368
1.01558
1.0271
1.0382
1.04886
1.05906
1.06875
1.07791
1.08649
1.09448
1.10182
1.10849
1.11444
1.11965
1.12406
1.12764
1.13033
1.13209
1.13286
1.13258
1.13119
1.12863
1.12482
1.11971
1.11325
1.10537
1.09602
1.08515
1.0727
1.05864
1.04293
1.02552
1.00638
0.985506
0.962867
0.938463
0.912301
0.8844
0.854791
0.82352
0.790646
0.756247
0.720417
0.683266
0.644922
0.605512
0.565205
0.524179
0.482622
0.440731
0.398735
0.356892
0.315508
0.274945
0.235681
0.198391
0.164142
0.13473
0.113158
0.103344
0.107397
0.122859
0.145166
0.170815
0.197776
0.224941
0.2517
0.27771
0.302793
0.326848
0.349812
0.371648
0.392344
0.411907
0.430358
0.447731
0.464071
0.47943
0.493869
0.507453
0.520256
0.532353
0.543825
0.554754
0.565228
0.575335
0.585167
0.594819
0.604384
0.613956
0.623624
0.633475
0.643598
0.654077
0.664995
0.676427
0.688442
0.701102
0.714456
0.72854
0.743371
0.758941
0.775207
0.792088
0.809397
0.827047
0.844271
0.862891
0.878037
0.0205761
0.0122056
0.0183718
0.0319372
0.0460655
0.0598866
0.0733146
0.0863783
0.0991357
0.111664
0.124054
0.136396
0.148773
0.161249
0.17387
0.186655
0.199609
0.212717
0.225954
0.239292
0.252698
0.266143
0.279602
0.293056
0.306493
0.319905
0.333291
0.34665
0.359986
0.373303
0.386609
0.399909
0.413212
0.426523
0.43985
0.453196
0.466568
0.479969
0.493402
0.506867
0.520366
0.533898
0.547461
0.561053
0.574671
0.58831
0.601967
0.615636
0.629312
0.642989
0.65666
0.670318
0.683955
0.697564
0.711135
0.724659
0.738126
0.751527
0.76485
0.778083
0.791215
0.804232
0.81712
0.829864
0.842446
0.854848
0.86705
0.879032
0.890771
0.902246
0.913436
0.924316
0.934865
0.945058
0.95487
0.964274
0.973243
0.981746
0.989753
0.997232
1.00415
1.01047
1.01616
1.02118
1.0255
1.02906
1.03183
1.03376
1.03479
1.03487
1.03394
1.03194
1.02882
1.02452
1.01899
1.01218
1.00403
0.994483
0.983502
0.971039
0.957049
0.941497
0.924349
0.905578
0.885166
0.863101
0.839383
0.814024
0.787044
0.758481
0.728385
0.69682
0.663871
0.629638
0.594247
0.557836
0.520559
0.482604
0.444185
0.405548
0.36697
0.328797
0.291464
0.255547
0.221838
0.191478
0.166111
0.147937
0.139227
0.141058
0.15231
0.170402
0.192739
0.217395
0.243104
0.269064
0.294768
0.319893
0.344241
0.367695
0.390186
0.41167
0.432125
0.451544
0.469938
0.487329
0.503751
0.519249
0.533872
0.547682
0.56074
0.573118
0.584888
0.596129
0.606921
0.617346
0.627491
0.637443
0.647292
0.657126
0.667034
0.6771
0.687407
0.698036
0.709067
0.720573
0.732625
0.745285
0.758608
0.772637
0.787404
0.802922
0.819184
0.836151
0.853759
0.871866
0.890451
0.908984
0.929286
0.94711
0.00808341
0.0172283
0.0337969
0.0497604
0.0649608
0.0794689
0.0934032
0.106855
0.119895
0.132587
0.144999
0.157197
0.169239
0.181178
0.193049
0.204878
0.216675
0.228443
0.240175
0.251861
0.263491
0.275056
0.28655
0.297971
0.309322
0.32061
0.331842
0.34303
0.354185
0.36532
0.376449
0.387583
0.398734
0.409912
0.421127
0.432385
0.443693
0.455054
0.466473
0.47795
0.489485
0.501077
0.512724
0.524422
0.536168
0.547957
0.559783
0.57164
0.583522
0.595421
0.607331
0.619243
0.63115
0.643041
0.654909
0.666743
0.678532
0.690267
0.701936
0.713527
0.725028
0.736426
0.747705
0.758852
0.769849
0.780679
0.791324
0.801765
0.811982
0.821956
0.831664
0.841088
0.850204
0.858992
0.867426
0.875483
0.883136
0.890359
0.897122
0.903397
0.90915
0.91435
0.918963
0.922952
0.926278
0.928903
0.93078
0.931865
0.932105
0.931448
0.929847
0.927247
0.923598
0.918851
0.912956
0.905862
0.897523
0.88789
0.876921
0.864573
0.850809
0.835595
0.818903
0.800711
0.781006
0.759782
0.737046
0.712814
0.687118
0.660001
0.631525
0.601769
0.570832
0.538836
0.505937
0.472313
0.438177
0.40378
0.369443
0.335557
0.302616
0.271264
0.242356
0.217011
0.196636
0.182782
0.176739
0.178927
0.188609
0.204221
0.224029
0.24653
0.270591
0.295399
0.320387
0.345162
0.369449
0.393062
0.415879
0.437827
0.458861
0.478959
0.498108
0.516312
0.533586
0.549955
0.565454
0.580127
0.594025
0.607205
0.619728
0.631663
0.643081
0.654055
0.664663
0.674985
0.685102
0.695096
0.705053
0.715057
0.725189
0.735531
0.746159
0.757149
0.768574
0.780502
0.792998
0.806117
0.819909
0.834414
0.849659
0.865654
0.882395
0.89985
0.917971
0.936658
0.955943
0.975447
0.996989
1.01646
0.0126022
0.0354343
0.0530976
0.0690381
0.0840553
0.0983535
0.112065
0.125275
0.138037
0.150396
0.162392
0.174067
0.185461
0.196607
0.207536
0.21827
0.228825
0.239213
0.249441
0.259513
0.269435
0.279213
0.288856
0.298374
0.30778
0.317092
0.326324
0.335496
0.344626
0.353731
0.36283
0.371938
0.381071
0.39024
0.399457
0.408732
0.418071
0.427479
0.43696
0.446515
0.456143
0.465845
0.475617
0.485455
0.495354
0.50531
0.515316
0.525365
0.535449
0.545561
0.555693
0.565836
0.575981
0.586119
0.596239
0.606331
0.616386
0.626392
0.636337
0.646211
0.655999
0.66569
0.675269
0.684722
0.694034
0.703188
0.712167
0.720955
0.729534
0.737884
0.745988
0.753827
0.761381
0.768629
0.77555
0.782122
0.788321
0.794123
0.799501
0.804429
0.808878
0.812818
0.816216
0.819039
0.821253
0.822818
0.823695
0.82384
0.823209
0.821756
0.819435
0.816203
0.812014
0.806821
0.800582
0.793252
0.784789
0.775152
0.764302
0.752205
0.73883
0.724149
0.708143
0.690798
0.672109
0.652084
0.63074
0.60811
0.584241
0.559199
0.53307
0.505967
0.478032
0.449442
0.420424
0.391258
0.362286
0.333934
0.306751
0.281422
0.258797
0.239876
0.225748
0.217395
0.215432
0.219867
0.230083
0.245049
0.263618
0.284727
0.307495
0.331231
0.355409
0.379635
0.403615
0.427135
0.450035
0.472206
0.493574
0.514094
0.533745
0.552518
0.570413
0.587443
0.603627
0.618994
0.633582
0.647433
0.660599
0.673135
0.685102
0.696564
0.70759
0.71825
0.728619
0.738772
0.748786
0.75874
0.768712
0.778784
0.78903
0.799526
0.810346
0.821558
0.83323
0.845426
0.858203
0.871612
0.8857
0.9005
0.916038
0.932324
0.949355
0.967108
0.985552
1.00462
1.02439
1.04457
1.06698
1.08743
0.0306114
0.056642
0.0740488
0.089105
0.103204
0.116649
0.129568
0.142026
0.154056
0.165677
0.176906
0.187763
0.198268
0.20844
0.218299
0.227864
0.23715
0.246174
0.254949
0.263488
0.271807
0.279921
0.287848
0.295607
0.303218
0.310704
0.318087
0.32539
0.332636
0.339845
0.34704
0.354239
0.36146
0.368717
0.376023
0.38339
0.390825
0.398334
0.405922
0.41359
0.421339
0.429167
0.437072
0.44505
0.453095
0.461202
0.469364
0.477573
0.485821
0.4941
0.502401
0.510713
0.519029
0.527337
0.535627
0.54389
0.552113
0.560287
0.5684
0.576439
0.584394
0.59225
0.599997
0.607619
0.615102
0.622433
0.629595
0.636574
0.643354
0.649918
0.65625
0.662333
0.66815
0.673683
0.678913
0.683821
0.688386
0.692587
0.696401
0.699804
0.702772
0.705277
0.707293
0.708789
0.709734
0.710095
0.709837
0.708924
0.707316
0.704975
0.701865
0.697948
0.693184
0.687537
0.68097
0.673446
0.664933
0.6554
0.644817
0.633161
0.620412
0.606557
0.59159
0.575516
0.55835
0.540122
0.520878
0.500685
0.479629
0.457828
0.43543
0.412626
0.389658
0.36683
0.34452
0.323198
0.303424
0.285856
0.271231
0.260319
0.2538
0.252143
0.255483
0.263594
0.275936
0.291806
0.310448
0.331154
0.3533
0.376369
0.399934
0.423659
0.447274
0.470571
0.493387
0.515599
0.537116
0.557873
0.577829
0.596964
0.61527
0.632751
0.64942
0.665294
0.6804
0.694769
0.708441
0.72146
0.733876
0.745742
0.757119
0.768067
0.778652
0.788942
0.799007
0.808919
0.81875
0.828575
0.838468
0.848502
0.858751
0.869282
0.880166
0.891465
0.903243
0.915557
0.92846
0.942
0.956218
0.971145
0.986804
1.00321
1.02035
1.03823
1.05682
1.07608
1.09613
1.11673
1.13966
1.16065
0.0495131
0.0784977
0.0953912
0.10924
0.122039
0.134235
0.145977
0.157323
0.168288
0.178873
0.189077
0.1989
0.208345
0.21742
0.226133
0.234495
0.24252
0.250222
0.257617
0.264722
0.271556
0.278138
0.284492
0.29064
0.296607
0.302418
0.308099
0.313676
0.319173
0.324615
0.330024
0.335422
0.340828
0.346259
0.351729
0.357251
0.362834
0.368485
0.37421
0.380011
0.385889
0.391844
0.397872
0.40397
0.410132
0.416352
0.422623
0.428937
0.435284
0.441656
0.448044
0.454437
0.460825
0.467197
0.473544
0.479855
0.486118
0.492322
0.498458
0.504512
0.510475
0.516333
0.522075
0.527689
0.533163
0.538482
0.543635
0.548607
0.553385
0.557956
0.562305
0.566419
0.570282
0.573881
0.577198
0.58022
0.582928
0.585305
0.587334
0.588994
0.590265
0.591125
0.591553
0.591524
0.591014
0.589996
0.588442
0.586323
0.58361
0.580276
0.576292
0.571633
0.566269
0.560176
0.553329
0.545707
0.537292
0.528069
0.51803
0.507171
0.495498
0.483025
0.469778
0.455802
0.441155
0.425923
0.410216
0.394175
0.377981
0.361858
0.346084
0.330994
0.316985
0.304513
0.294081
0.286205
0.281368
0.279957
0.28221
0.288177
0.297707
0.310487
0.326091
0.344047
0.363881
0.385144
0.407436
0.430403
0.453745
0.477207
0.500574
0.523672
0.546355
0.568509
0.590044
0.61089
0.631
0.650338
0.668888
0.686645
0.703616
0.719815
0.735261
0.749979
0.764001
0.777362
0.790101
0.802264
0.813899
0.82506
0.835803
0.846187
0.856275
0.866132
0.875823
0.885417
0.894982
0.904587
0.914301
0.924193
0.934331
0.944779
0.955601
0.966856
0.978601
0.99089
1.00377
1.01729
1.03148
1.04637
1.06199
1.07835
1.09544
1.11328
1.13184
1.15112
1.17125
1.19203
1.2152
1.23637
0.067839
0.0998152
0.116197
0.128773
0.140127
0.150881
0.16123
0.171243
0.180932
0.190287
0.199296
0.207944
0.216224
0.224129
0.231659
0.238819
0.245614
0.252056
0.258158
0.263936
0.269409
0.274598
0.279525
0.284214
0.288691
0.292983
0.297114
0.301112
0.305002
0.308809
0.312556
0.316267
0.319961
0.323658
0.327371
0.331116
0.334902
0.338738
0.342631
0.346583
0.350598
0.354673
0.358808
0.362998
0.367237
0.371521
0.37584
0.380186
0.384551
0.388924
0.393295
0.397655
0.401992
0.406296
0.410557
0.414762
0.418903
0.422967
0.426945
0.430826
0.4346
0.438255
0.441781
0.445168
0.448404
0.451479
0.454381
0.457101
0.459627
0.461947
0.464052
0.465931
0.467572
0.468964
0.470096
0.470956
0.471532
0.471812
0.471781
0.471428
0.470737
0.469695
0.468285
0.466493
0.464301
0.461694
0.458655
0.455168
0.451216
0.446786
0.441869
0.436454
0.430535
0.424106
0.417171
0.409734
0.401811
0.393425
0.384608
0.375407
0.365884
0.356117
0.346211
0.336296
0.326533
0.317119
0.308286
0.300302
0.293469
0.288109
0.28455
0.283106
0.284043
0.287558
0.293755
0.302629
0.314079
0.327924
0.343927
0.361813
0.381295
0.402084
0.423905
0.446496
0.469622
0.493068
0.516645
0.54018
0.56353
0.586563
0.609172
0.631264
0.652762
0.673605
0.693749
0.713158
0.731812
0.7497
0.76682
0.783183
0.798804
0.813705
0.827913
0.841459
0.854376
0.866703
0.878479
0.889751
0.900567
0.910977
0.921036
0.9308
0.94033
0.949685
0.958929
0.968124
0.977335
0.986627
0.996064
1.00571
1.01563
1.02587
1.03651
1.04759
1.05917
1.0713
1.08402
1.09736
1.11138
1.12609
1.14151
1.15766
1.17455
1.19218
1.21056
1.22969
1.24971
1.27045
1.2936
1.31469
0.0848241
0.119818
0.135781
0.147145
0.157056
0.166319
0.175195
0.183776
0.192082
0.200106
0.207828
0.215229
0.222291
0.229001
0.23535
0.241333
0.246951
0.252209
0.257117
0.261685
0.26593
0.269869
0.273523
0.276914
0.280065
0.283002
0.285749
0.28833
0.29077
0.293093
0.295323
0.297482
0.29959
0.301666
0.303726
0.305784
0.307852
0.309938
0.31205
0.314193
0.316367
0.318575
0.320813
0.323078
0.325365
0.327667
0.329976
0.332284
0.334581
0.336856
0.339101
0.341303
0.343452
0.345537
0.347547
0.349473
0.351303
0.353027
0.354637
0.356121
0.357471
0.358678
0.359731
0.360624
0.361346
0.36189
0.362248
0.36241
0.36237
0.36212
0.361652
0.36096
0.360037
0.358876
0.35747
0.355813
0.3539
0.351723
0.349277
0.346557
0.343557
0.340273
0.336701
0.332837
0.328682
0.324235
0.319499
0.314482
0.309194
0.303652
0.297881
0.291915
0.285792
0.279566
0.273302
0.267082
0.261007
0.2552
0.249804
0.244986
0.240935
0.23786
0.235983
0.235526
0.236703
0.2397
0.244662
0.251678
0.260782
0.27195
0.285104
0.300122
0.316856
0.335139
0.354791
0.375624
0.397458
0.420117
0.443434
0.467246
0.491399
0.515753
0.540175
0.564545
0.588752
0.612696
0.636285
0.65944
0.682091
0.704174
0.725638
0.746439
0.76654
0.785915
0.804548
0.82243
0.839558
0.855938
0.871582
0.886508
0.900743
0.914312
0.92725
0.939589
0.951366
0.962621
0.973395
0.983733
0.993681
1.00329
1.01261
1.02169
1.0306
1.03938
1.0481
1.05681
1.06558
1.07447
1.08353
1.09283
1.10241
1.11235
1.12268
1.13347
1.14475
1.15658
1.169
1.18204
1.19574
1.21012
1.2252
1.241
1.25754
1.27481
1.29285
1.31166
1.3314
1.3519
1.37481
1.39559
0.0999627
0.137968
0.15364
0.163916
0.172473
0.180294
0.187712
0.194854
0.201758
0.208424
0.214837
0.220975
0.226817
0.232345
0.237544
0.242402
0.246915
0.251082
0.254904
0.258388
0.261545
0.264388
0.266933
0.269197
0.271202
0.272967
0.274514
0.275864
0.277039
0.278062
0.278954
0.279735
0.280426
0.281043
0.281601
0.282114
0.282594
0.283049
0.283486
0.283911
0.284326
0.28473
0.285123
0.285499
0.285853
0.286179
0.286469
0.286712
0.286899
0.28702
0.287064
0.287018
0.286873
0.286618
0.286241
0.285733
0.285084
0.284283
0.283321
0.282191
0.280883
0.27939
0.277704
0.275818
0.273726
0.271421
0.268896
0.266147
0.263169
0.259956
0.256505
0.252813
0.248876
0.244693
0.240261
0.235581
0.230652
0.225479
0.220063
0.214412
0.208535
0.202447
0.196166
0.18972
0.183145
0.176488
0.169814
0.16321
0.156784
0.150678
0.145072
0.140182
0.136262
0.133594
0.132468
0.133158
0.13588
0.140768
0.147861
0.157111
0.168408
0.181604
0.196539
0.213053
0.230995
0.250229
0.270632
0.292092
0.314505
0.33777
0.361785
0.38645
0.411663
0.437319
0.463308
0.48952
0.515849
0.542194
0.568451
0.594527
0.620331
0.645786
0.67082
0.695372
0.719386
0.742812
0.765609
0.787746
0.809192
0.829925
0.849925
0.86918
0.88768
0.905422
0.92241
0.938651
0.954159
0.968951
0.983048
0.996476
1.00927
1.02145
1.03307
1.04415
1.05474
1.06488
1.0746
1.08395
1.09298
1.10173
1.11024
1.11858
1.12679
1.13493
1.14305
1.1512
1.15944
1.16783
1.17642
1.18527
1.19442
1.20393
1.21385
1.22422
1.23509
1.2465
1.25849
1.27109
1.28434
1.29825
1.31286
1.32817
1.34421
1.36098
1.37853
1.39687
1.41616
1.43624
1.4587
1.479
0.112934
0.153906
0.16943
0.178773
0.18611
0.192594
0.198634
0.204393
0.209936
0.215277
0.220408
0.225313
0.229972
0.234364
0.238472
0.242279
0.245776
0.248955
0.251812
0.254348
0.256568
0.258478
0.26009
0.261415
0.262468
0.263266
0.263826
0.264165
0.2643
0.264251
0.264037
0.263675
0.263183
0.262574
0.261864
0.261063
0.260181
0.259227
0.258207
0.257125
0.255983
0.254781
0.253516
0.252183
0.250777
0.24929
0.247713
0.246037
0.244252
0.242345
0.240306
0.238123
0.235787
0.233284
0.230606
0.227743
0.224683
0.221419
0.217941
0.214242
0.210313
0.206148
0.201739
0.19708
0.192165
0.186986
0.181539
0.175818
0.169815
0.163526
0.156944
0.150062
0.142875
0.135374
0.127551
0.119397
0.110904
0.102061
0.092857
0.0832804
0.07332
0.0629662
0.0522142
0.041074
0.0296027
0.0180724
0.00860115
0.0125782
0.0249631
0.0389461
0.0537718
0.0693079
0.0855261
0.102424
0.120008
0.138286
0.157266
0.176952
0.197348
0.218453
0.240263
0.262769
0.285957
0.309803
0.334281
0.359356
0.384991
0.411141
0.437756
0.464776
0.492134
0.519752
0.547549
0.575429
0.603292
0.631034
0.658555
0.68576
0.712552
0.738848
0.764574
0.789669
0.814085
0.837784
0.860737
0.882919
0.904315
0.924922
0.944736
0.963759
0.981994
0.999449
1.01613
1.03206
1.04725
1.06171
1.07548
1.08858
1.10104
1.11289
1.12416
1.13489
1.14513
1.15489
1.16424
1.17319
1.1818
1.19011
1.19815
1.20598
1.21363
1.22115
1.2286
1.23602
1.24346
1.25097
1.2586
1.2664
1.27443
1.28273
1.29134
1.30033
1.30972
1.31957
1.32991
1.34078
1.35222
1.36426
1.37693
1.39025
1.40425
1.41894
1.43435
1.45049
1.46741
1.48513
1.50382
1.52331
1.54515
1.5648
0.123557
0.16742
0.182942
0.191515
0.197783
0.203062
0.207834
0.212306
0.216567
0.220651
0.224566
0.228301
0.231842
0.235171
0.238267
0.241115
0.243699
0.246006
0.248029
0.249762
0.251203
0.252355
0.253222
0.253811
0.254131
0.254194
0.254013
0.253601
0.252971
0.252139
0.251121
0.249933
0.248587
0.247097
0.245475
0.243731
0.241873
0.23991
0.237847
0.23569
0.233441
0.231098
0.228661
0.226128
0.223494
0.220753
0.2179
0.214928
0.21183
0.2086
0.205231
0.201719
0.198058
0.194248
0.190285
0.186171
0.181907
0.177498
0.172951
0.168274
0.163482
0.158589
0.153616
0.148588
0.143537
0.138498
0.133517
0.128648
0.123955
0.119513
0.11541
0.111747
0.108634
0.106193
0.104545
0.103807
0.104084
0.105454
0.107968
0.111643
0.11647
0.122415
0.129432
0.137469
0.146474
0.156399
0.167207
0.178863
0.191345
0.204632
0.218711
0.233575
0.249222
0.265652
0.282866
0.300865
0.319648
0.339215
0.35956
0.380678
0.402555
0.425175
0.448513
0.472539
0.497212
0.522489
0.548317
0.57464
0.601394
0.628507
0.655899
0.683484
0.711164
0.738829
0.766366
0.793655
0.820585
0.847045
0.872933
0.898165
0.922669
0.946388
0.969284
0.991333
1.01252
1.03284
1.0523
1.07091
1.08869
1.10564
1.1218
1.13719
1.15182
1.16572
1.17893
1.19146
1.20335
1.21464
1.22534
1.23551
1.24517
1.25437
1.26314
1.27152
1.27954
1.28725
1.29469
1.30188
1.30888
1.31571
1.32243
1.32907
1.33568
1.34231
1.34899
1.35578
1.36271
1.36984
1.37722
1.38487
1.39286
1.40122
1.40998
1.4192
1.42891
1.43913
1.44991
1.46127
1.47324
1.48585
1.49912
1.51307
1.52772
1.5431
1.55926
1.57623
1.59418
1.61293
1.63398
1.65285
0.131869
0.178467
0.194109
0.202061
0.207405
0.211611
0.215232
0.218519
0.221593
0.224509
0.22729
0.229937
0.232444
0.234797
0.236977
0.238967
0.240751
0.242313
0.243641
0.244725
0.245558
0.246138
0.246463
0.246538
0.246367
0.245958
0.245322
0.244468
0.243409
0.242159
0.240732
0.239142
0.237402
0.235527
0.23353
0.231422
0.229215
0.22692
0.224549
0.222111
0.219615
0.217069
0.21448
0.211856
0.209206
0.206537
0.203858
0.201181
0.198518
0.195884
0.193298
0.190782
0.188359
0.18606
0.183915
0.18196
0.180233
0.178775
0.17763
0.176843
0.176456
0.176515
0.17706
0.178129
0.179755
0.181964
0.184778
0.188209
0.192265
0.196946
0.202247
0.208155
0.214656
0.221732
0.229364
0.23753
0.246212
0.25539
0.265045
0.275165
0.285737
0.296752
0.308206
0.320098
0.332431
0.345211
0.358448
0.372154
0.386341
0.401025
0.416224
0.431954
0.448238
0.465098
0.482554
0.500623
0.519322
0.538665
0.558661
0.579315
0.600628
0.622592
0.645194
0.668406
0.692198
0.716528
0.741348
0.7666
0.792222
0.818143
0.844285
0.870556
0.896856
0.923066
0.949068
0.974734
0.999942
1.02458
1.04854
1.07174
1.09412
1.11562
1.13622
1.15591
1.17468
1.19256
1.20956
1.2257
1.24101
1.25553
1.26928
1.2823
1.29462
1.30627
1.31729
1.32771
1.33756
1.34688
1.35571
1.36408
1.37202
1.37958
1.3868
1.3937
1.40033
1.40672
1.41291
1.41892
1.4248
1.43057
1.43629
1.44198
1.44768
1.45344
1.45929
1.46527
1.47143
1.47781
1.48445
1.49138
1.49864
1.50628
1.51432
1.52281
1.53177
1.54124
1.55125
1.56183
1.573
1.58478
1.5972
1.61029
1.62408
1.63858
1.65386
1.66995
1.68701
1.70488
1.725
1.74297
0.138172
0.18736
0.203216
0.210651
0.215166
0.218378
0.220919
0.223084
0.225028
0.22683
0.228533
0.230152
0.231691
0.233141
0.234488
0.235715
0.236805
0.237742
0.23851
0.239097
0.239493
0.239694
0.239697
0.239504
0.239118
0.238549
0.237805
0.2369
0.235848
0.234665
0.233369
0.231979
0.230514
0.228997
0.227447
0.225885
0.224333
0.222815
0.221355
0.219978
0.218709
0.217574
0.216601
0.215818
0.215252
0.214933
0.214891
0.215158
0.215765
0.216743
0.218123
0.219937
0.222212
0.224975
0.228247
0.232049
0.236395
0.241294
0.246753
0.252772
0.259348
0.266474
0.274139
0.28233
0.291028
0.300216
0.309874
0.319981
0.330516
0.341457
0.352784
0.364474
0.376507
0.388863
0.401525
0.414476
0.4277
0.441183
0.454915
0.468887
0.483093
0.497529
0.512194
0.527093
0.542231
0.557614
0.573252
0.589155
0.605337
0.621813
0.638598
0.655711
0.673172
0.691003
0.709225
0.727856
0.746915
0.766416
0.786374
0.806796
0.82769
0.849054
0.87088
0.893152
0.915843
0.938917
0.962327
0.98602
1.00994
1.03402
1.05819
1.08236
1.10645
1.13033
1.15388
1.17698
1.19951
1.22138
1.24247
1.26273
1.28208
1.3005
1.31797
1.33451
1.35013
1.36486
1.37875
1.39184
1.40416
1.41575
1.42665
1.43691
1.44655
1.45562
1.46415
1.47219
1.47975
1.48688