/*--------------------------------*- C++ -*----------------------------------*\
| =========                 |                                                 |
| \\      /  F ield         | OpenFOAM: The Open Source CFD Toolbox           |
|  \\    /   O peration     | Version:  2312                                  |
|   \\  /    A nd           | Website:  www.openfoam.com                      |
|    \\/     M anipulation  |                                                 |
\*---------------------------------------------------------------------------*/
FoamFile
{
    version     2.0;
    format      ascii;
    arch        "LSB;label=32;scalar=64";
    class       volScalarField;
    location    "150";
    object      nut;
}
// * * * * * * * * * * * * * * * * * * * * * * * * * * * * * * * * * * * * * //

dimensions      [0 2 -1 0 0 0 0];

internalField   nonuniform List<scalar> 
12225
(
2.57619e-05
3.0201e-05
3.18958e-05
3.1991e-05
3.18776e-05
3.11443e-05
3.05754e-05
3.00058e-05
2.94909e-05
2.90441e-05
2.86634e-05
2.8343e-05
2.80711e-05
2.7846e-05
2.76491e-05
2.75008e-05
2.73641e-05
2.72278e-05
0.000155567
6.70969e-05
4.95063e-05
4.08389e-05
3.62398e-05
3.33584e-05
3.18725e-05
3.11075e-05
3.08579e-05
3.08511e-05
3.10945e-05
3.14525e-05
3.18382e-05
3.22428e-05
3.28086e-05
3.31695e-05
3.38268e-05
3.39835e-05
0.000461081
0.000207722
0.000143519
0.00011319
9.43592e-05
8.25435e-05
7.44442e-05
6.82698e-05
6.41736e-05
6.09433e-05
5.86218e-05
5.67029e-05
5.53798e-05
5.42062e-05
5.34814e-05
5.27913e-05
5.25607e-05
5.19009e-05
0.000724495
0.000440124
0.000317618
0.00025412
0.000214844
0.00018926
0.000170728
0.000157545
0.000147028
0.000138457
0.000132108
0.000126383
0.00012217
0.000117862
0.000115137
0.000111658
0.000110233
0.000106853
0.000823415
0.000657961
0.000522406
0.000435554
0.000376731
0.000336182
0.000305949
0.000283619
0.000265894
0.00025199
0.000240459
0.000230372
0.000222882
0.000215231
0.000210183
0.000203637
0.000200968
0.000194463
0.000846241
0.000780263
0.000688643
0.000605955
0.000541752
0.000493101
0.000454848
0.000425023
0.000400905
0.000381293
0.000365173
0.000351406
0.00033987
0.000329259
0.000321538
0.00031269
0.000308225
0.000299464
0.000852307
0.000827196
0.000786133
0.000729208
0.000676245
0.000630884
0.000592366
0.000560248
0.000533249
0.000510381
0.000491155
0.000474309
0.000460429
0.000447531
0.000436968
0.000426409
0.000419929
0.000409511
0.0008529
0.000845758
0.000826925
0.000800125
0.000765976
0.000732199
0.000700662
0.000672221
0.000646981
0.000624573
0.000605034
0.000587494
0.00057242
0.000558783
0.0005469
0.000535347
0.00052736
0.000516072
0.000852055
0.000850712
0.000843896
0.000832286
0.000814466
0.000794885
0.00077361
0.000752622
0.000732739
0.0007141
0.000697091
0.000681311
0.000667333
0.000654165
0.000642633
0.000631336
0.00062294
0.000611864
0.000851629
0.000851224
0.000848995
0.00084478
0.000837078
0.000827156
0.000815321
0.000802409
0.000789179
0.000775965
0.000763253
0.000750957
0.000739563
0.000728594
0.000718802
0.000708831
0.000701166
0.000691372
0.000851544
0.00085098
0.00085002
0.000848506
0.000845579
0.000841277
0.000835639
0.00082888
0.000821378
0.000813353
0.000805175
0.00079687
0.000788831
0.000780793
0.000773426
0.000765724
0.000759519
0.000751743
0.000851556
0.000850831
0.000850075
0.000849235
0.000847925
0.000845977
0.000843305
0.000839893
0.000835867
0.000831305
0.000826416
0.000821223
0.000815998
0.000810578
0.00080546
0.000799987
0.000795399
0.000789671
0.000851574
0.000850774
0.000850021
0.000849312
0.000848522
0.00084753
0.000846251
0.00084461
0.000842616
0.000840258
0.000837624
0.000834702
0.000831653
0.000828369
0.000825166
0.000821651
0.000818601
0.000814749
0.000851583
0.000850759
0.000849987
0.000849271
0.000848588
0.000847892
0.000847145
0.000846296
0.000845323
0.000844192
0.000842925
0.000841491
0.000839959
0.000838261
0.000836555
0.000834638
0.000832908
0.000830727
0.000851584
0.000850755
0.000849975
0.000849243
0.000848558
0.000847908
0.000847283
0.000846662
0.000846035
0.000845381
0.000844698
0.000843963
0.000843198
0.000842366
0.000841523
0.000840587
0.000839705
0.000838646
0.000851584
0.000850752
0.000849968
0.00084923
0.000848536
0.000847882
0.000847265
0.000846678
0.000846118
0.000845576
0.000845051
0.000844532
0.000844023
0.000843508
0.000843003
0.000842481
0.000841977
0.000841436
0.000851583
0.000850749
0.000849963
0.000849222
0.000848523
0.000847863
0.000847241
0.000846651
0.000846093
0.000845562
0.000845058
0.000844575
0.000844114
0.00084367
0.000843244
0.00084283
0.000842433
0.000842042
0.000851583
0.000850748
0.00084996
0.000849216
0.000848515
0.000847852
0.000847225
0.000846632
0.000846069
0.000845535
0.000845028
0.000844545
0.000844085
0.000843646
0.000843227
0.000842827
0.000842444
0.000842077
0.000851583
0.000850748
0.000849959
0.000849215
0.000848512
0.000847848
0.00084722
0.000846624
0.000846059
0.000845521
0.000845009
0.000844521
0.000844054
0.000843608
0.000843179
0.000842769
0.000842373
0.000841995
0.000851583
0.000850749
0.000849962
0.000849219
0.000848517
0.000847854
0.000847223
0.000846622
0.000846044
0.000845486
0.000844943
0.000844411
0.000843886
0.000843369
0.000842852
0.000842344
0.000841825
0.000841329
0.000851583
0.00085075
0.000849966
0.000849228
0.000848524
0.000847841
0.000847163
0.000846474
0.000845758
0.000845005
0.000844205
0.000843361
0.00084246
0.000841521
0.000840522
0.000839511
0.000838418
0.000837383
0.000851574
0.000850757
0.000849987
0.000849223
0.000848393
0.000847427
0.000846265
0.000844871
0.000843228
0.000841351
0.000839248
0.000836965
0.000834507
0.000831952
0.00082926
0.000826582
0.000823732
0.000821111
0.000851515
0.000850852
0.000849952
0.000848592
0.000846507
0.000843537
0.000839671
0.000835021
0.000829725
0.000823968
0.000817878
0.000811631
0.000805279
0.000799001
0.000792713
0.000786728
0.000780622
0.000775217
0.000851373
0.000851109
0.000847811
0.000842149
0.000833628
0.000822666
0.000810113
0.000796722
0.000783056
0.00076956
0.000756431
0.000743921
0.000731989
0.000720834
0.000710248
0.000700562
0.000691048
0.000682949
0.000851034
0.000847912
0.00082974
0.00080861
0.000781182
0.000752348
0.000724519
0.000698563
0.000674872
0.000653486
0.000634171
0.000616929
0.000601269
0.00058738
0.00057479
0.000563262
0.000552595
0.000543603
0.000844866
0.000817214
0.000760135
0.000698637
0.000644375
0.000598134
0.000559739
0.000527552
0.000500708
0.000477966
0.000458564
0.000442022
0.000427457
0.000415043
0.000403818
0.000394019
0.000384741
0.000377495
0.000806517
0.000691521
0.000565916
0.000481374
0.000422139
0.000378317
0.000345547
0.000319836
0.000299731
0.000283154
0.000269694
0.000258382
0.000248311
0.000240212
0.0002326
0.000226621
0.000220437
0.000215963
0.000657039
0.000394913
0.000291312
0.000235845
0.000199289
0.000174181
0.000156593
0.000143368
0.00013345
0.000125384
0.000118736
0.000113595
0.000109046
0.000105481
0.000102089
9.95427e-05
9.68836e-05
9.50255e-05
0.000258322
0.000128346
9.45268e-05
7.58812e-05
6.45423e-05
5.71637e-05
5.25882e-05
4.93396e-05
4.69767e-05
4.54338e-05
4.42995e-05
4.35426e-05
4.29732e-05
4.264e-05
4.23812e-05
4.22907e-05
4.22072e-05
4.22604e-05
3.13102e-05
3.48374e-05
3.67036e-05
3.75972e-05
3.77953e-05
3.7712e-05
3.74894e-05
3.71245e-05
3.67318e-05
3.63415e-05
3.59695e-05
3.56237e-05
3.53064e-05
3.50176e-05
3.47556e-05
3.45184e-05
3.43031e-05
3.4108e-05
2.69623e-06
7.21529e-06
8.51709e-06
9.55397e-06
1.03486e-05
1.09586e-05
1.14517e-05
1.18775e-05
1.22463e-05
1.25793e-05
1.28972e-05
1.32262e-05
1.36032e-05
1.40635e-05
1.45832e-05
1.51315e-05
1.56923e-05
1.62626e-05
1.68402e-05
1.74272e-05
1.80232e-05
1.86301e-05
1.9247e-05
1.98751e-05
2.05124e-05
2.11596e-05
2.18135e-05
2.24763e-05
2.31477e-05
2.38263e-05
2.4504e-05
2.51818e-05
2.58568e-05
2.65297e-05
2.71983e-05
2.78638e-05
2.85248e-05
2.91832e-05
2.98372e-05
3.04885e-05
3.11351e-05
3.17782e-05
3.24149e-05
3.3047e-05
3.36734e-05
3.42958e-05
3.4913e-05
3.55268e-05
3.61358e-05
3.67419e-05
3.73435e-05
3.79426e-05
3.85376e-05
3.91302e-05
3.97191e-05
4.0306e-05
4.08893e-05
4.14708e-05
4.20489e-05
4.26258e-05
4.31996e-05
4.37728e-05
4.43441e-05
4.49162e-05
4.54888e-05
4.60667e-05
4.66543e-05
4.72622e-05
4.78603e-05
4.84573e-05
4.90496e-05
4.96394e-05
5.02243e-05
5.08063e-05
5.13828e-05
5.19559e-05
5.25229e-05
5.30858e-05
5.36422e-05
5.4194e-05
5.47384e-05
5.52774e-05
5.58083e-05
5.63328e-05
5.68479e-05
5.73552e-05
5.78517e-05
5.83386e-05
5.8813e-05
5.92748e-05
5.97221e-05
6.01533e-05
6.057e-05
6.0989e-05
6.13931e-05
6.17858e-05
6.21664e-05
6.25341e-05
6.28885e-05
6.32287e-05
6.3554e-05
6.38633e-05
6.41558e-05
6.44303e-05
6.46857e-05
6.49211e-05
6.51351e-05
6.53272e-05
6.54962e-05
6.56426e-05
6.57631e-05
6.585e-05
6.59617e-05
6.59427e-05
6.59854e-05
6.59326e-05
6.58351e-05
6.57322e-05
6.56035e-05
6.54215e-05
6.52043e-05
6.49564e-05
6.46528e-05
6.43088e-05
6.39267e-05
6.35072e-05
6.30528e-05
6.25645e-05
6.20459e-05
6.14982e-05
6.09254e-05
6.03291e-05
5.97135e-05
5.90806e-05
5.84352e-05
5.77812e-05
5.7128e-05
5.65486e-05
5.6089e-05
5.56508e-05
5.52163e-05
5.4777e-05
5.43288e-05
5.38714e-05
5.34088e-05
5.29464e-05
5.24877e-05
5.20342e-05
5.15867e-05
5.11464e-05
5.07141e-05
5.02899e-05
4.98723e-05
4.94603e-05
4.90543e-05
4.86548e-05
4.82633e-05
4.78815e-05
4.75057e-05
4.71518e-05
4.68106e-05
4.64805e-05
4.61614e-05
4.58529e-05
4.55552e-05
4.52678e-05
4.49909e-05
4.47234e-05
4.44673e-05
4.42219e-05
4.39883e-05
4.37587e-05
4.35323e-05
4.33097e-05
4.30915e-05
4.28723e-05
4.26467e-05
4.23911e-05
4.21165e-05
4.11439e-05
4.10131e-06
1.85904e-05
4.01919e-05
5.75134e-05
6.95085e-05
7.76007e-05
8.2916e-05
8.64798e-05
8.92611e-05
9.17355e-05
9.4081e-05
9.63087e-05
9.8358e-05
0.000100204
0.000101925
0.000103602
0.000105284
0.000106994
0.000108752
0.000110575
0.000112481
0.000114491
0.000116625
0.000118906
0.000121338
0.000123907
0.000126606
0.000129448
0.000132431
0.00013556
0.000138829
0.000142226
0.000145741
0.000149358
0.00015306
0.000156825
0.00016063
0.000164528
0.000168525
0.000172622
0.000176826
0.000181148
0.000185566
0.00019003
0.00019454
0.000199093
0.000203689
0.000208327
0.000213009
0.000217733
0.000222501
0.000227313
0.000232168
0.000237067
0.000242011
0.000246997
0.000252026
0.000257095
0.000262203
0.000267343
0.000272513
0.000277702
0.000282906
0.000288114
0.000293323
0.000298531
0.000303753
0.000309028
0.000314341
0.000319705
0.000325124
0.000330601
0.00033614
0.000341743
0.000347414
0.000353153
0.000358964
0.000364848
0.000370811
0.000376856
0.000382989
0.000389213
0.000395534
0.000401953
0.000408474
0.000415093
0.000421809
0.00042861
0.000435474
0.000442354
0.000449175
0.000455811
0.000462058
0.000468147
0.000474285
0.000480455
0.000486653
0.000492875
0.000499113
0.000505357
0.000511596
0.000517818
0.000524008
0.000530149
0.000536222
0.000542207
0.000548082
0.000553823
0.00055941
0.00056483
0.000570091
0.000575122
0.000579997
0.000584412
0.000589004
0.000592254
0.000595451
0.000598087
0.000600806
0.000602859
0.000604433
0.000605557
0.000606238
0.000606437
0.00060617
0.000605452
0.000604296
0.000602725
0.000600759
0.000598425
0.000595747
0.000592753
0.000589469
0.00058592
0.000582116
0.000578026
0.000573455
0.000567909
0.00056158
0.000554984
0.000548318
0.000541643
0.000534998
0.000528422
0.000521951
0.000515617
0.000509441
0.000503431
0.000497588
0.000491909
0.000486393
0.000481038
0.000475841
0.000470798
0.000465906
0.00046117
0.000456588
0.000452161
0.000447862
0.00044366
0.000439571
0.000435596
0.000431728
0.000427957
0.000424273
0.000420662
0.000417112
0.000413608
0.000410161
0.00040676
0.000403362
0.000399904
0.000396403
0.000392855
0.000389236
0.000385502
0.000381558
0.000377375
0.000371467
0.000352623
5.10277e-06
2.91139e-05
6.46939e-05
9.56256e-05
0.000119486
0.000137271
0.000150404
0.000160189
0.00016773
0.000173836
0.00017905
0.000183705
0.000188007
0.000192105
0.000196122
0.000200158
0.000204279
0.000208529
0.000212939
0.00021753
0.000222315
0.000227295
0.000232495
0.000238002
0.000243889
0.000250264
0.000256945
0.000263882
0.000271057
0.000278452
0.00028605
0.000293834
0.000301791
0.000309904
0.000318158
0.000326536
0.000335024
0.000343594
0.000352268
0.000361042
0.000369911
0.000378868
0.000387902
0.000397
0.000406159
0.000415379
0.000424659
0.000434001
0.000443406
0.000452877
0.000462414
0.000472019
0.000481693
0.000491435
0.000501247
0.000511127
0.000521075
0.000531088
0.000541164
0.000551297
0.000561485
0.000571722
0.000582006
0.000592335
0.000602711
0.00061314
0.000623635
0.00063421
0.000644864
0.000655601
0.000666425
0.000677337
0.00068834
0.000699434
0.000710622
0.000721904
0.000733281
0.000744756
0.00075633
0.000768007
0.00077979
0.000791678
0.000803673
0.000815774
0.000827974
0.000840266
0.000852636
0.000865062
0.000877512
0.000889945
0.000902308
0.000914551
0.000926637
0.000938692
0.0009508
0.00096295
0.000975131
0.000987334
0.000999543
0.00101174
0.00102391
0.00103602
0.00104805
0.00105996
0.00107173
0.00108331
0.00109466
0.00110574
0.0011165
0.00112691
0.00113691
0.00114645
0.00115548
0.00116404
0.00117237
0.00117905
0.00118511
0.00119011
0.00119504
0.00119892
0.00120186
0.0012039
0.00120503
0.00120523
0.00120453
0.00120295
0.00120052
0.00119728
0.00119326
0.00118853
0.00118314
0.00117712
0.00117055
0.00116345
0.00115587
0.00114778
0.00113901
0.00112926
0.00111862
0.0011075
0.00109615
0.00108467
0.00107317
0.00106171
0.00105035
0.00103914
0.00102811
0.00101729
0.00100669
0.00099632
0.000986185
0.000976292
0.000966641
0.000957233
0.000948068
0.000939149
0.000930475
0.00092204
0.00091382
0.000905781
0.000897921
0.000890239
0.000882724
0.000875362
0.000868133
0.000861019
0.000853998
0.000847046
0.000840143
0.000833278
0.000826402
0.000819456
0.000812431
0.00080531
0.000798046
0.000790561
0.000782713
0.000774197
0.000763531
0.000736239
5.76357e-06
3.91764e-05
8.56377e-05
0.000126125
0.0001584
0.000183293
0.000202384
0.000217147
0.000228817
0.000238375
0.000246555
0.00025389
0.000260759
0.000267423
0.00027407
0.000280827
0.000287782
0.000294996
0.000302511
0.000310361
0.00031858
0.000327205
0.000336249
0.000345663
0.000355399
0.000365362
0.000375612
0.000386153
0.00039697
0.000408036
0.000419316
0.000430771
0.000442421
0.000454255
0.000466266
0.000478453
0.000490841
0.000503342
0.00051594
0.000528622
0.000541381
0.00055421
0.000567104
0.000580058
0.000593071
0.000606144
0.000619277
0.000632475
0.000645743
0.000659085
0.000672504
0.000686004
0.000699587
0.000713254
0.000727007
0.000740848
0.000754776
0.000768791
0.000782892
0.000797078
0.000811349
0.000825702
0.000840138
0.000854658
0.000869265
0.000883963
0.000898758
0.000913652
0.000928646
0.000943741
0.000958936
0.000974231
0.000989625
0.00100512
0.00102071
0.00103639
0.00105217
0.00106804
0.00108401
0.00110006
0.0011162
0.00113242
0.00114873
0.00116511
0.00118155
0.00119805
0.00121458
0.00123113
0.00124766
0.00126417
0.0012806
0.00129693
0.00131321
0.0013295
0.00134581
0.00136214
0.00137849
0.00139484
0.00141117
0.00142747
0.00144371
0.00145986
0.0014759
0.00149178
0.00150747
0.00152293
0.00153811
0.00155294
0.00156739
0.00158138
0.00159486
0.00160776
0.00162001
0.0016316
0.00164265
0.00165254
0.00166104
0.00166825
0.00167515
0.00168086
0.00168536
0.00168866
0.00169074
0.00169159
0.00169124
0.00168969
0.001687
0.00168319
0.00167833
0.00167248
0.00166569
0.00165803
0.00164958
0.00164039
0.0016305
0.00161993
0.00160859
0.00159635
0.00158328
0.00156961
0.00155556
0.00154128
0.00152686
0.0015124
0.00149797
0.00148361
0.0014694
0.00145535
0.0014415
0.00142786
0.00141447
0.00140132
0.00138844
0.00137582
0.00136347
0.00135139
0.00133959
0.00132805
0.00131676
0.0013057
0.00129485
0.0012842
0.00127375
0.00126347
0.00125335
0.00124336
0.00123347
0.00122367
0.00121391
0.00120421
0.0011945
0.00118473
0.00117489
0.00116493
0.00115481
0.00114444
0.00113368
0.00112212
0.00110812
0.00107933
6.21189e-06
4.81746e-05
0.00010392
0.000152224
0.000191384
0.000222261
0.000246521
0.000265753
0.0002813
0.000294251
0.000305463
0.000315584
0.000325097
0.000334347
0.000343577
0.000352953
0.000362589
0.000372556
0.000382903
0.000393658
0.00040484
0.000416453
0.000428487
0.000440914
0.000453703
0.000466824
0.000480269
0.000494024
0.000508069
0.000522384
0.00053695
0.000551756
0.000566751
0.000581905
0.000597195
0.000612595
0.00062807
0.000643612
0.000659229
0.000674919
0.000690675
0.000706495
0.000722374
0.000738312
0.000754307
0.000770361
0.000786474
0.000802643
0.000818885
0.000835207
0.000851614
0.000868111
0.0008847
0.000901385
0.000918169
0.000935053
0.000952039
0.000969127
0.000986319
0.00100361
0.00102101
0.00103851
0.00105612
0.00107383
0.00109164
0.00110957
0.00112759
0.00114573
0.00116396
0.0011823
0.00120073
0.00121925
0.00123787
0.00125657
0.00127535
0.00129421
0.00131314
0.00133214
0.0013512
0.00137032
0.00138948
0.00140869
0.00142794
0.00144722
0.00146651
0.00148582
0.00150511
0.00152439
0.00154364
0.00156285
0.00158199
0.00160107
0.00162013
0.00163919
0.00165825
0.00167731
0.00169636
0.0017154
0.0017344
0.00175335
0.00177223
0.00179101
0.00180967
0.00182818
0.00184649
0.00186456
0.00188234
0.00189978
0.00191682
0.0019334
0.00194944
0.00196486
0.0019796
0.00199357
0.00200682
0.00201927
0.00203019
0.00203966
0.00204838
0.00205606
0.00206237
0.00206731
0.00207085
0.00207298
0.00207371
0.00207304
0.00207101
0.00206767
0.00206305
0.00205723
0.00205026
0.00204222
0.00203318
0.00202321
0.00201237
0.00200069
0.00198816
0.00197475
0.00196053
0.00194565
0.00193026
0.00191451
0.00189851
0.00188234
0.00186609
0.00184983
0.00183361
0.00181748
0.00180148
0.00178565
0.00177001
0.00175458
0.00173939
0.00172444
0.00170975
0.00169532
0.00168116
0.00166726
0.0016536
0.00164018
0.00162698
0.001614
0.00160121
0.0015886
0.00157616
0.00156385
0.00155166
0.00153955
0.00152748
0.00151546
0.00150344
0.00149139
0.00147926
0.00146703
0.00145465
0.00144206
0.00142911
0.00141538
0.00139925
0.00137165
6.53547e-06
5.59917e-05
0.000119442
0.000174513
0.000219658
0.000255957
0.000285018
0.000308495
0.000327801
0.000344105
0.000358343
0.000371244
0.000383365
0.000395113
0.000406782
0.000418576
0.000430632
0.000443039
0.000455851
0.000469098
0.000482792
0.000496928
0.000511495
0.000526468
0.000541823
0.000557534
0.000573578
0.00058993
0.000606564
0.000623454
0.000640572
0.000657891
0.000675378
0.000693004
0.000710746
0.000728582
0.000746492
0.000764467
0.000782503
0.000800597
0.000818743
0.000836939
0.000855185
0.00087348
0.000891827
0.00091023
0.000928696
0.000947234
0.000965844
0.000984528
0.00100329
0.00102214
0.00104108
0.00106011
0.00107923
0.00109846
0.00111779
0.00113722
0.00115676
0.00117641
0.00119616
0.00121601
0.00123598
0.00125604
0.00127621
0.00129647
0.00131683
0.00133729
0.00135782
0.00137844
0.00139913
0.0014199
0.00144072
0.00146159
0.00148252
0.00150348
0.00152447
0.00154549
0.00156652
0.00158756
0.0016086
0.00162963
0.00165064
0.00167163
0.00169259
0.00171351
0.00173438
0.0017552
0.00177597
0.00179668
0.00181736
0.00183799
0.00185859
0.00187917
0.00189972
0.00192025
0.00194075
0.00196122
0.00198165
0.00200203
0.00202235
0.00204259
0.00206272
0.00208272
0.00210257
0.00212222
0.00214162
0.00216074
0.00217951
0.00219787
0.00221575
0.00223308
0.00224977
0.00226572
0.00228089
0.00229551
0.00230864
0.00232054
0.00233128
0.00234107
0.00234951
0.00235651
0.00236205
0.00236608
0.0023686
0.0023696
0.00236911
0.00236715
0.00236377
0.00235901
0.00235294
0.00234562
0.00233713
0.00232752
0.00231688
0.00230526
0.00229268
0.00227918
0.00226482
0.00224971
0.00223398
0.00221776
0.00220114
0.00218424
0.00216712
0.00214986
0.00213254
0.00211521
0.00209791
0.0020807
0.0020636
0.00204665
0.00202987
0.00201329
0.00199692
0.00198077
0.00196484
0.00194915
0.00193368
0.00191842
0.00190337
0.00188852
0.00187386
0.00185937
0.00184503
0.00183082
0.00181673
0.00180271
0.00178876
0.00177484
0.00176093
0.001747
0.00173303
0.00171898
0.00170483
0.00169051
0.00167592
0.00166067
0.00164328
0.00161737
6.97994e-06
6.06984e-05
0.000130684
0.000192234
0.000243143
0.000284709
0.000318448
0.000346084
0.000369096
0.000388718
0.000405951
0.000421587
0.000436237
0.000450361
0.000464298
0.000478286
0.000492489
0.000507016
0.000521933
0.000537275
0.000553056
0.000569276
0.00058592
0.000602968
0.000620396
0.000638175
0.000656279
0.000674676
0.000693338
0.000712233
0.000731333
0.000750606
0.000770024
0.000789563
0.000809198
0.000828912
0.000848689
0.000868518
0.000888394
0.00090831
0.000928264
0.000948253
0.000968277
0.000988339
0.00100844
0.00102859
0.00104878
0.00106903
0.00108934
0.00110972
0.00113016
0.00115068
0.00117129
0.00119197
0.00121275
0.00123362
0.00125459
0.00127565
0.00129681
0.00131808
0.00133944
0.0013609
0.00138245
0.0014041
0.00142584
0.00144766
0.00146956
0.00149153
0.00151357
0.00153566
0.0015578
0.00157998
0.0016022
0.00162443
0.00164667
0.00166892
0.00169116
0.00171338
0.00173557
0.00175772
0.00177983
0.00180188
0.00182387
0.00184579
0.00186763
0.00188939
0.00191107
0.00193266
0.00195417
0.00197559
0.00199695
0.00201823
0.00203946
0.00206063
0.00208176
0.00210285
0.00212389
0.0021449
0.00216587
0.00218681
0.0022077
0.00222855
0.00224934
0.00227006
0.00229069
0.00231119
0.00233155
0.00235171
0.00237164
0.00239127
0.00241055
0.00242939
0.00244772
0.00246544
0.00248246
0.00249895
0.00251438
0.0025287
0.0025418
0.00255392
0.00256481
0.00257431
0.00258233
0.00258882
0.00259374
0.00259708
0.00259884
0.00259903
0.00259768
0.00259482
0.0025905
0.00258478
0.00257771
0.00256938
0.00255984
0.00254916
0.0025374
0.00252461
0.00251087
0.00249627
0.00248092
0.00246493
0.00244841
0.00243144
0.00241413
0.00239655
0.00237876
0.00236085
0.00234286
0.00232485
0.00230686
0.00228893
0.0022711
0.00225338
0.0022358
0.00221838
0.00220114
0.00218407
0.00216718
0.00215047
0.00213394
0.00211757
0.00210136
0.0020853
0.00206938
0.00205357
0.00203787
0.00202224
0.00200667
0.00199113
0.00197562
0.00196011
0.00194457
0.00192901
0.00191338
0.00189768
0.0018818
0.00186543
0.00184728
0.00182274
7.50683e-06
6.28688e-05
0.000138043
0.000205588
0.000262002
0.00030868
0.000346983
0.000378691
0.000405341
0.000428224
0.000448392
0.000466685
0.000483762
0.000500127
0.000516154
0.000532117
0.000548206
0.000564553
0.000581238
0.000598309
0.000615789
0.000633681
0.000651976
0.000670657
0.0006897
0.000709077
0.000728758
0.000748713
0.000768909
0.000789313
0.000809897
0.000830629
0.000851483
0.000872435
0.000893465
0.000914553
0.000935687
0.000956856
0.000978052
0.000999269
0.00102051
0.00104176
0.00106303
0.00108433
0.00110564
0.00112699
0.00114836
0.00116978
0.00119124
0.00121275
0.00123432
0.00125595
0.00127765
0.00129942
0.00132127
0.0013432
0.00136521
0.00138731
0.0014095
0.00143177
0.00145413
0.00147658
0.00149911
0.00152171
0.00154439
0.00156713
0.00158993
0.00161279
0.00163569
0.00165861
0.00168157
0.00170453
0.0017275
0.00175045
0.00177338
0.00179628
0.00181913
0.00184193
0.00186465
0.0018873
0.00190986
0.00193232
0.00195467
0.00197691
0.00199903
0.00202103
0.0020429
0.00206465
0.00208628
0.00210779
0.0021292
0.0021505
0.00217172
0.00219285
0.00221392
0.00223493
0.00225589
0.00227681
0.00229771
0.0023186
0.00233948
0.00236036
0.00238125
0.00240214
0.00242303
0.0024439
0.00246475
0.00248555
0.00250625
0.00252681
0.00254719
0.00256732
0.00258711
0.00260649
0.00262536
0.00264375
0.00266143
0.00267816
0.00269394
0.00270871
0.00272239
0.00273477
0.00274573
0.00275517
0.00276303
0.00276928
0.0027739
0.00277688
0.00277822
0.00277794
0.00277607
0.00277266
0.00276774
0.00276138
0.00275366
0.00274462
0.00273435
0.00272291
0.00271038
0.00269685
0.00268242
0.0026672
0.00265128
0.00263477
0.00261775
0.00260031
0.00258254
0.0025645
0.00254626
0.00252788
0.0025094
0.00249088
0.00247236
0.00245386
0.00243543
0.00241707
0.00239882
0.00238067
0.00236265
0.00234476
0.00232699
0.00230935
0.00229184
0.00227444
0.00225715
0.00223995
0.00222284
0.0022058
0.00218881
0.00217187
0.00215494
0.00213804
0.00212115
0.00210426
0.00208738
0.00207049
0.00205355
0.00203628
0.00201765
0.00199447
7.96682e-06
6.38766e-05
0.00014281
0.00021539
0.000276737
0.000328143
0.000370765
0.000406371
0.000436528
0.000462559
0.000485555
0.000506392
0.000525767
0.000544217
0.000562151
0.000579872
0.000597598
0.000615482
0.000633625
0.000652088
0.000670904
0.000690088
0.000709637
0.000729539
0.000749774
0.000770317
0.00079114
0.00081221
0.000833493
0.000854957
0.000876571
0.000898307
0.000920138
0.000942042
0.000963998
0.000985989
0.001008
0.00103003
0.00105206
0.00107409
0.00109611
0.00111814
0.00114016
0.00116218
0.00118421
0.00120624
0.00122829
0.00125036
0.00127246
0.0012946
0.00131677
0.00133899
0.00136127
0.0013836
0.001406
0.00142847
0.00145101
0.00147362
0.0014963
0.00151906
0.0015419
0.00156481
0.00158778
0.00161082
0.00163392
0.00165707
0.00168027
0.0017035
0.00172675
0.00175002
0.00177329
0.00179655
0.00181979
0.00184299
0.00186615
0.00188924
0.00191226
0.00193519
0.00195802
0.00198073
0.00200332
0.00202577
0.00204808
0.00207024
0.00209224
0.00211407
0.00213575
0.00215726
0.00217861
0.00219981
0.00222086
0.00224178
0.00226258
0.00228327
0.00230386
0.00232439
0.00234485
0.00236529
0.00238571
0.00240614
0.00242661
0.00244713
0.00246772
0.00248841
0.00250921
0.00253011
0.00255113
0.00257225
0.00259346
0.00261473
0.00263601
0.00265726
0.00267841
0.00269938
0.00272008
0.00274046
0.0027604
0.00277967
0.00279823
0.00281597
0.00283275
0.00284837
0.00286268
0.00287549
0.00288675
0.00289642
0.00290442
0.00291074
0.00291534
0.00291822
0.00291939
0.00291887
0.00291669
0.00291291
0.00290757
0.00290075
0.00289251
0.00288293
0.0028721
0.00286009
0.00284702
0.00283298
0.00281807
0.0028024
0.00278606
0.00276914
0.00275172
0.00273389
0.00271573
0.00269728
0.00267862
0.0026598
0.00264087
0.00262186
0.00260281
0.00258376
0.00256472
0.00254572
0.00252677
0.00250789
0.00248908
0.00247035
0.00245169
0.00243311
0.00241461
0.00239618
0.00237781
0.00235949
0.00234122
0.002323
0.0023048
0.00228665
0.00226853
0.00225046
0.00223245
0.00221452
0.00219664
0.0021786
0.00215956
0.00213732
8.3545e-06
6.40937e-05
0.000145565
0.000222151
0.000287827
0.000343331
0.000389929
0.000429167
0.000462616
0.000491614
0.000517272
0.000540492
0.000561995
0.000582348
0.000601988
0.000621242
0.000640356
0.000659502
0.000678802
0.000698334
0.000718144
0.000738257
0.00075868
0.00077941
0.000800435
0.000821737
0.00084329
0.000865062
0.000887015
0.000909116
0.000931332
0.000953635
0.000976002
0.00099841
0.00102084
0.00104327
0.0010657
0.00108811
0.0011105
0.00113286
0.00115519
0.0011775
0.00119978
0.00122204
0.00124428
0.00126652
0.00128875
0.00131099
0.00133324
0.0013555
0.0013778
0.00140013
0.0014225
0.00144491
0.00146739
0.00148991
0.00151251
0.00153516
0.00155789
0.00158068
0.00160354
0.00162647
0.00164946
0.00167251
0.00169561
0.00171876
0.00174195
0.00176516
0.0017884
0.00181164
0.00183487
0.00185809
0.00188127
0.00190441
0.00192748
0.00195048
0.00197338
0.00199617
0.00201884
0.00204137
0.00206375
0.00208597
0.002108
0.00212986
0.00215152
0.00217299
0.00219425
0.00221531
0.00223618
0.00225685
0.00227734
0.00229766
0.00231781
0.00233783
0.00235773
0.00237753
0.00239727
0.00241697
0.00243666
0.00245639
0.00247618
0.00249608
0.00251612
0.00253634
0.00255678
0.00257746
0.0025984
0.00261961
0.0026411
0.00266287
0.00268488
0.00270711
0.0027295
0.00275198
0.00277448
0.0027969
0.00281911
0.00284103
0.00286247
0.00288338
0.0029035
0.00292266
0.0029407
0.00295725
0.00297232
0.00298582
0.00299767
0.0030078
0.00301615
0.00302269
0.00302741
0.0030303
0.00303137
0.00303066
0.00302821
0.00302408
0.00301834
0.00301106
0.00300234
0.00299225
0.00298091
0.0029684
0.00295485
0.00294034
0.00292498
0.00290887
0.00289209
0.00287475
0.00285691
0.00283865
0.00282005
0.00280115
0.00278202
0.0027627
0.00274324
0.00272367
0.00270402
0.00268433
0.00266461
0.00264489
0.00262517
0.00260547
0.0025858
0.00256617
0.00254657
0.00252701
0.00250749
0.002488
0.00246856
0.00244915
0.00242979
0.00241047
0.00239123
0.00237207
0.00235302
0.00233413
0.00231538
0.00229662
0.00227719
0.00225555
8.67351e-06
6.37107e-05
0.00014668
0.000226294
0.000295552
0.000354575
0.000404649
0.00044714
0.000483574
0.000515276
0.00054336
0.000568738
0.000592149
0.00061418
0.000635288
0.000655824
0.000676054
0.000696173
0.000716325
0.000736602
0.000757064
0.000777746
0.000798666
0.000819831
0.000841241
0.000862895
0.000884773
0.000906845
0.000929064
0.000951387
0.000973781
0.00099622
0.00101868
0.00104114
0.00106359
0.00108601
0.00110837
0.00113069
0.00115295
0.00117515
0.0011973
0.00121939
0.00124143
0.00126343
0.0012854
0.00130735
0.00132927
0.00135118
0.0013731
0.00139503
0.00141697
0.00143894
0.00146095
0.00148301
0.00150511
0.00152727
0.0015495
0.0015718
0.00159416
0.0016166
0.00163912
0.00166171
0.00168437
0.00170709
0.00172989
0.00175273
0.00177563
0.00179856
0.00182153
0.0018445
0.00186748
0.00189045
0.00191339
0.00193629
0.00195912
0.00198188
0.00200453
0.00202708
0.00204949
0.00207174
0.00209383
0.00211574
0.00213745
0.00215894
0.00218022
0.00220126
0.00222207
0.00224264
0.00226297
0.00228306
0.00230293
0.00232259
0.00234204
0.00236132
0.00238044
0.00239943
0.00241833
0.00243718
0.00245602
0.0024749
0.00249386
0.00251297
0.00253227
0.00255184
0.00257171
0.00259195
0.00261259
0.00263369
0.00265526
0.00267732
0.00269988
0.00272292
0.00274641
0.00277028
0.00279448
0.00281889
0.00284341
0.00286797
0.00289237
0.00291657
0.00294019
0.00296314
0.00298506
0.00300579
0.00302499
0.00304269
0.00305877
0.00307311
0.00308564
0.00309629
0.003105
0.00311175
0.00311652
0.00311933
0.00312021
0.00311921
0.00311638
0.0031118
0.00310556
0.00309775
0.00308846
0.00307781
0.0030659
0.00305284
0.00303874
0.00302369
0.00300781
0.00299118
0.0029739
0.00295604
0.00293769
0.0029189
0.00289976
0.0028803
0.00286058
0.00284065
0.00282055
0.0028003
0.00277994
0.0027595
0.002739
0.00271845
0.00269787
0.00267727
0.00265668
0.00263608
0.0026155
0.00259493
0.00257439
0.00255389
0.00253343
0.00251304
0.00249274
0.00247256
0.00245255
0.00243274
0.00241317
0.00239371
0.00237385
0.00235253
8.92806e-06
6.28615e-05
0.00014642
0.000228122
0.000300155
0.000362057
0.000415051
0.00046033
0.000499352
0.000533408
0.000563596
0.000590831
0.000615858
0.000639279
0.000661565
0.000683081
0.000704106
0.000724849
0.000745512
0.000766193