/*--------------------------------*- C++ -*----------------------------------*\
| =========                 |                                                 |
| \\      /  F ield         | OpenFOAM: The Open Source CFD Toolbox           |
|  \\    /   O peration     | Version:  2312                                  |
|   \\  /    A nd           | Website:  www.openfoam.com                      |
|    \\/     M anipulation  |                                                 |
\*---------------------------------------------------------------------------*/
FoamFile
{
    version     2.0;
    format      ascii;
    arch        "LSB;label=32;scalar=64";
    class       volScalarField;
    location    "150";
    object      nut;
}
// * * * * * * * * * * * * * * * * * * * * * * * * * * * * * * * * * * * * * //

dimensions      [0 2 -1 0 0 0 0];

internalField   nonuniform List<scalar> 
12225
(
1.9887e-05
1.70245e-05
1.52554e-05
1.39678e-05
1.30688e-05
1.24753e-05
1.20684e-05
1.1768e-05
1.15321e-05
1.13381e-05
1.11747e-05
1.10358e-05
1.09198e-05
1.08238e-05
1.07507e-05
1.07011e-05
1.06851e-05
1.06644e-05
0.000116369
6.56109e-05
4.78844e-05
4.19403e-05
3.90881e-05
3.74955e-05
3.62837e-05
3.51447e-05
3.40322e-05
3.29688e-05
3.1981e-05
3.10803e-05
3.0271e-05
2.95396e-05
2.89039e-05
2.83596e-05
2.7693e-05
2.78192e-05
0.000288446
0.00016861
0.000123906
0.000108109
9.95862e-05
9.43914e-05
9.06075e-05
8.73956e-05
8.4477e-05
8.18076e-05
7.93838e-05
7.71978e-05
7.52406e-05
7.34993e-05
7.20072e-05
7.07201e-05
6.97331e-05
6.86971e-05
0.000474131
0.000296498
0.000226359
0.000194659
0.000178554
0.000168169
0.000160675
0.000154673
0.000149531
0.000144997
0.000140957
0.000137353
0.000134142
0.000131296
0.000128857
0.000126705
0.000125298
0.000123484
0.000622742
0.00042677
0.000338234
0.000288976
0.000264403
0.00024809
0.000236344
0.000227211
0.00021968
0.00021324
0.000207619
0.00020267
0.000198297
0.000194436
0.000191111
0.000188181
0.000186136
0.000183733
0.00072306
0.000544474
0.000447134
0.000385281
0.000352239
0.0003298
0.000313546
0.000301054
0.000290971
0.000282539
0.000275316
0.00026904
0.000263546
0.000258723
0.000254549
0.000250895
0.000248104
0.000245108
0.00078371
0.0006413
0.000544902
0.000478399
0.000438469
0.000410554
0.000390024
0.000374213
0.000361547
0.000351078
0.000342219
0.000334601
0.000327986
0.00032221
0.000317193
0.000312817
0.000309254
0.00030564
0.000817519
0.000714153
0.000627699
0.000563747
0.000519764
0.000487901
0.000463906
0.000445197
0.000430155
0.000417747
0.000407299
0.000398363
0.000390638
0.000383914
0.00037806
0.000372951
0.000368624
0.000364387
0.000835117
0.000764804
0.000694936
0.000637056
0.000593082
0.000559505
0.000533368
0.000512561
0.000495633
0.000481586
0.000469733
0.000459595
0.000450835
0.00044321
0.000436553
0.000430725
0.000425669
0.000420828
0.000843692
0.000798407
0.000745684
0.000696894
0.000656277
0.000623362
0.000596693
0.000574875
0.000556793
0.000541606
0.000528691
0.000517589
0.00050796
0.000499553
0.00049218
0.000485692
0.000479978
0.000474583
0.000847594
0.000819423
0.000781869
0.000743267
0.000708242
0.000678036
0.000652443
0.000630818
0.000612472
0.000596797
0.000583299
0.000571588
0.000561357
0.000552368
0.000544434
0.000537405
0.000531145
0.000525282
0.000849114
0.000830822
0.0008042
0.000774448
0.000745445
0.000718996
0.000695613
0.000675207
0.000657459
0.000642004
0.000628496
0.000616636
0.000606174
0.000596905
0.000588661
0.000581301
0.000574687
0.000568512
0.000849772
0.0008377
0.000819322
0.000797281
0.000774313
0.000752175
0.000731723
0.000713243
0.000696723
0.00068202
0.000668942
0.000657295
0.000646897
0.000637589
0.000629233
0.000621709
0.000614888
0.000608521
0.000850032
0.000841917
0.000829872
0.000814702
0.000797884
0.000780716
0.00076406
0.000748385
0.000733898
0.000720645
0.000708585
0.000697636
0.000687701
0.000678681
0.000670481
0.00066301
0.000656167
0.000649762
0.000850103
0.000844129
0.000836261
0.000826376
0.000814972
0.000802731
0.00079026
0.000777999
0.000766225
0.000755094
0.000744674
0.00073498
0.000725994
0.000717681
0.000709995
0.000702886
0.000696287
0.000690075
0.000850109
0.000845092
0.000839519
0.000833037
0.000825623
0.000817471
0.000808853
0.000800035
0.000791232
0.000782605
0.000774261
0.000766268
0.00075866
0.000751453
0.000744646
0.000738228
0.000732171
0.000726413
0.000850103
0.000845426
0.000840864
0.000836139
0.000831082
0.00082564
0.000819847
0.000813783
0.000807546
0.000801232
0.000794923
0.000788689
0.000782581
0.000776638
0.000770886
0.000765338
0.000759999
0.000754859
0.0008501
0.000845507
0.00084126
0.00083717
0.000833075
0.00082886
0.000824462
0.000819865
0.000815085
0.000810159
0.000805131
0.000800047
0.000794952
0.000789886
0.000784881
0.000779966
0.000775156
0.000770457
0.0008501
0.000845474
0.000841125
0.000836847
0.000832483
0.000827938
0.000823175
0.0008182
0.000813046
0.00080776
0.000802395
0.000797
0.000791619
0.000786291
0.000781046
0.000775911
0.000770908
0.000766063
0.000850102
0.000845153
0.000839851
0.000833893
0.000827216
0.000819924
0.000812198
0.00080423
0.00079619
0.000788209
0.000780387
0.00077279
0.00076546
0.000758423
0.00075169
0.000745266
0.000739153
0.00073337
0.000850079
0.00084387
0.000835713
0.000825596
0.000814042
0.000801706
0.000789153
0.00077679
0.000764873
0.000753547
0.000742879
0.000732884
0.000723547
0.000714836
0.000706712
0.000699135
0.000692071
0.000685518
0.000849831
0.000839424
0.000824028
0.00080535
0.000785407
0.000765652
0.000746911
0.00072956
0.000713703
0.000699301
0.00068625
0.000674416
0.000663667
0.000653877
0.000644932
0.000636735
0.000629208
0.000622331
0.000848429
0.000826561
0.000796591
0.000764259
0.000733466
0.000705763
0.00068145
0.000660298
0.000641906
0.000625854
0.000611764
0.000599315
0.00058824
0.000578321
0.000569381
0.000561278
0.000553903
0.000547237
0.000842569
0.000795224
0.000742461
0.000693806
0.000653262
0.000620218
0.000593253
0.00057103
0.000552471
0.000536756
0.000523267
0.000511543
0.000501235
0.000492081
0.000483878
0.000476473
0.000469743
0.000463701
0.000823007
0.000730805
0.000652158
0.000590418
0.000546017
0.000512909
0.000487448
0.000467299
0.000450925
0.000437299
0.000425722
0.000415708
0.000406916
0.000399099
0.000392078
0.000385722
0.000379911
0.000374721
0.000769184
0.000619711
0.000524091
0.000458836
0.000419847
0.00039231
0.000371909
0.000356129
0.00034344
0.000332891
0.000323882
0.000316022
0.000309053
0.000302796
0.000297122
0.000291952
0.000287166
0.000282924
0.000647607
0.00045865
0.00036851
0.000315573
0.000287721
0.000268713
0.000254936
0.000244335
0.000235726
0.000228433
0.000222069
0.0002164
0.000211287
0.000206633
0.000202366
0.000198461
0.000194789
0.000191589
0.00043369
0.00027331
0.000208162
0.000178987
0.000162892
0.000152357
0.000144899
0.000139116
0.000134271
0.000130008
0.000126166
0.000122664
0.000119456
0.000116514
0.0001138
0.000111329
0.000108969
0.000106978
0.000180957
0.000110041
7.93853e-05
6.84936e-05
6.22534e-05
5.86459e-05
5.62824e-05
5.44158e-05
5.27443e-05
5.11809e-05
4.97138e-05
4.83473e-05
4.70819e-05
4.59198e-05
4.48424e-05
4.38743e-05
4.29357e-05
4.21656e-05
2.59675e-05
2.2137e-05
1.99521e-05
1.84303e-05
1.7302e-05
1.64819e-05
1.58843e-05
1.5435e-05
1.50833e-05
1.47966e-05
1.45541e-05
1.43435e-05
1.41569e-05
1.39902e-05
1.38387e-05
1.37021e-05
1.3575e-05
1.34603e-05
1.28704e-06
3.17514e-06
3.63175e-06
4.06056e-06
4.42442e-06
4.71741e-06
4.94761e-06
5.13035e-06
5.27483e-06
5.38851e-06
5.47978e-06
5.55695e-06
5.63125e-06
5.72455e-06
5.88228e-06
6.10923e-06
6.37045e-06
6.65134e-06
6.94859e-06
7.2626e-06
7.59447e-06
7.94475e-06
8.31299e-06
8.69798e-06
9.09778e-06
9.51002e-06
9.93156e-06
1.03593e-05
1.07899e-05
1.12205e-05
1.16484e-05
1.2071e-05
1.24864e-05
1.28942e-05
1.3292e-05
1.36769e-05
1.40483e-05
1.44063e-05
1.47501e-05
1.50804e-05
1.53967e-05
1.56997e-05
1.59893e-05
1.62663e-05
1.65304e-05
1.67826e-05
1.70226e-05
1.72513e-05
1.74683e-05
1.76745e-05
1.78695e-05
1.80539e-05
1.82273e-05
1.83903e-05
1.85424e-05
1.86841e-05
1.88149e-05
1.89352e-05
1.90445e-05
1.91433e-05
1.92313e-05
1.93099e-05
1.93814e-05
1.94439e-05
1.94978e-05
1.95436e-05
1.95808e-05
1.96101e-05
1.96355e-05
1.96281e-05
1.96745e-05
1.96607e-05
1.96275e-05
1.96194e-05
1.95842e-05
1.95482e-05
1.95012e-05
1.94461e-05
1.93824e-05
1.93104e-05
1.92298e-05
1.91411e-05
1.90409e-05
1.89311e-05
1.88149e-05
1.86911e-05
1.85596e-05
1.84203e-05
1.82733e-05
1.81188e-05
1.7957e-05
1.77882e-05
1.76129e-05
1.74312e-05
1.72436e-05
1.70505e-05
1.68523e-05
1.66495e-05
1.64425e-05
1.62307e-05
1.59946e-05
1.57591e-05
1.56792e-05
1.56535e-05
1.56376e-05
1.56216e-05
1.56046e-05
1.55847e-05
1.55618e-05
1.55367e-05
1.55098e-05
1.54807e-05
1.54498e-05
1.54171e-05
1.53829e-05
1.53471e-05
1.531e-05
1.52715e-05
1.52318e-05
1.51909e-05
1.51489e-05
1.51058e-05
1.50617e-05
1.50165e-05
1.49705e-05
1.49235e-05
1.48756e-05
1.48269e-05
1.47774e-05
1.47271e-05
1.46761e-05
1.46245e-05
1.45722e-05
1.45192e-05
1.44656e-05
1.44113e-05
1.43566e-05
1.43013e-05
1.42457e-05
1.41897e-05
1.41334e-05
1.40769e-05
1.40201e-05
1.39631e-05
1.39059e-05
1.38489e-05
1.37916e-05
1.3734e-05
1.36761e-05
1.3618e-05
1.356e-05
1.35021e-05
1.34444e-05
1.33871e-05
1.33301e-05
1.32735e-05
1.32173e-05
1.31616e-05
1.31063e-05
1.30515e-05
1.29971e-05
1.29431e-05
1.28895e-05
1.28362e-05
1.27831e-05
1.27302e-05
1.26772e-05
1.26239e-05
1.25702e-05
1.25155e-05
1.24595e-05
1.24011e-05
1.23403e-05
1.2274e-05
1.22021e-05
1.21187e-05
1.20298e-05
1.18984e-05
1.17637e-05
1.14229e-05
1.78276e-06
4.81076e-06
1.07787e-05
1.67484e-05
2.13663e-05
2.46191e-05
2.68969e-05
2.84707e-05
2.96636e-05
3.06764e-05
3.15826e-05
3.238e-05
3.30257e-05
3.34672e-05
3.36837e-05
3.37383e-05
3.37139e-05
3.36662e-05
3.36317e-05
3.36374e-05
3.37037e-05
3.38443e-05
3.40651e-05
3.43622e-05
3.47486e-05
3.52482e-05
3.58644e-05
3.65957e-05
3.74388e-05
3.83886e-05
3.9478e-05
4.06665e-05
4.19453e-05
4.33106e-05
4.47611e-05
4.62898e-05
4.78924e-05
4.95641e-05
5.13009e-05
5.30987e-05
5.49542e-05
5.68642e-05
5.88261e-05
6.08374e-05
6.28965e-05
6.50017e-05
6.7152e-05
6.93464e-05
7.15842e-05
7.38647e-05
7.61871e-05
7.85499e-05
8.09516e-05
8.33897e-05
8.58612e-05
8.83613e-05
9.08831e-05
9.34153e-05
9.594e-05
9.84269e-05
0.000100828
0.000103056
0.000105156
0.000107263
0.000109362
0.000111452
0.000113534
0.000115607
0.000117674
0.000119713
0.000121755
0.000123678
0.000125559
0.000127397
0.000129217
0.000130968
0.000132686
0.000134331
0.000135929
0.000137469
0.000138949
0.000140366
0.000141628
0.000142799
0.00014391
0.000144954
0.000145918
0.000146801
0.000147602
0.000148323
0.000148963
0.000149522
0.000150003
0.000150407
0.000150734
0.000150985
0.000151159
0.000151253
0.000151249
0.000151092
0.000150585
0.000149337
0.000147451
0.000145256
0.000142914
0.000140496
0.000138038
0.000135556
0.000133062
0.000130561
0.00012806
0.000125565
0.000123081
0.000120612
0.00011816
0.000115731
0.000113325
0.000110946
0.000108595
0.000106274
0.000103984
0.000101723
9.94951e-05
9.73027e-05
9.51472e-05
9.30302e-05
9.09521e-05
8.89139e-05
8.69164e-05
8.49599e-05
8.30448e-05
8.11717e-05
7.93383e-05
7.75453e-05
7.57931e-05
7.40827e-05
7.24145e-05
7.07887e-05
6.92051e-05
6.76634e-05
6.61632e-05
6.47038e-05
6.32841e-05
6.19039e-05
6.05616e-05
5.92621e-05
5.79834e-05
5.6732e-05
5.55161e-05
5.43382e-05
5.31983e-05
5.20955e-05
5.10287e-05
4.99971e-05
4.89989e-05
4.80328e-05
4.70977e-05
4.61926e-05
4.53166e-05
4.44684e-05
4.36466e-05
4.28501e-05
4.20778e-05
4.13285e-05
4.06012e-05
3.98948e-05
3.9208e-05
3.85397e-05
3.78887e-05
3.72535e-05
3.66331e-05
3.60226e-05
3.5426e-05
3.48172e-05
3.42735e-05
3.3626e-05
3.31174e-05
3.23987e-05
3.16428e-05
2.97962e-05
2.23556e-06
7.44925e-06
1.83371e-05
2.97613e-05
3.90453e-05
4.59498e-05
5.09448e-05
5.45325e-05
5.71593e-05
5.91552e-05
6.07306e-05
6.20027e-05
6.30317e-05
6.38553e-05
6.45174e-05
6.50824e-05
6.56196e-05
6.61887e-05
6.68383e-05
6.76099e-05
6.85403e-05
6.96633e-05
7.10113e-05
7.26317e-05
7.45448e-05
7.66626e-05
7.90024e-05
8.15639e-05
8.43413e-05
8.73278e-05
9.05177e-05
9.38924e-05
9.74365e-05
0.000101136
0.000104979
0.000108947
0.000113029
0.00011721
0.000121478
0.000125821
0.000130231
0.000134698
0.000139215
0.000143776
0.000148375
0.000153008
0.000157671
0.000162361
0.000167075
0.000171809
0.000176561
0.000181325
0.000186098
0.000190872
0.000195641
0.000200394
0.000205117
0.000209793
0.000214402
0.000218917
0.000223295
0.000227552
0.000231719
0.000235841
0.000239911
0.000243925
0.000247877
0.000251758
0.000255561
0.000259273
0.00026289
0.000266368
0.000269734
0.000272985
0.000276126
0.000279128
0.000281991
0.00028469
0.000287305
0.000289791
0.000292126
0.000294289
0.000296206
0.000297877
0.000299425
0.000300809
0.000302022
0.000303063
0.00030393
0.000304626
0.000305153
0.000305514
0.000305711
0.000305748
0.000305628
0.000305353
0.000304922
0.000304327
0.000303543
0.000302505
0.000301061
0.000298985
0.000296272
0.000293114
0.000289668
0.000286032
0.000282267
0.000278404
0.000274468
0.000270474
0.000266432
0.000262353
0.000258248
0.000254126
0.000249993
0.000245855
0.000241719
0.000237589
0.00023347
0.000229366
0.00022528
0.000221216
0.000217177
0.000213168
0.000209194
0.000205257
0.00020136
0.000197506
0.0001937
0.000189943
0.000186238
0.000182586
0.000178981
0.000175428
0.000171931
0.000168492
0.000165117
0.000161804
0.000158555
0.00015537
0.00015225
0.000149192
0.000146197
0.000143266
0.000140397
0.000137596
0.000134851
0.000132159
0.000129526
0.000126954
0.000124445
0.000121999
0.000119615
0.00011729
0.000115025
0.000112818
0.000110668
0.000108573
0.000106531
0.000104541
0.000102601
0.000100709
9.88634e-05
9.70629e-05
9.53049e-05
9.35875e-05
9.1908e-05
9.0264e-05
8.8652e-05
8.70692e-05
8.55095e-05
8.39687e-05
8.24441e-05
8.09058e-05
7.94064e-05
7.77763e-05
7.63311e-05
7.4478e-05
7.23893e-05
6.777e-05
2.52685e-06
1.06433e-05
2.59991e-05
4.12664e-05
5.36946e-05
6.30792e-05
6.99879e-05
7.50471e-05
7.8796e-05
8.16557e-05
8.39344e-05
8.58465e-05
8.75395e-05
8.9119e-05
9.06687e-05
9.22621e-05
9.39639e-05
9.583e-05
9.79072e-05
0.000100235
0.000102844
0.000105759
0.000108997
0.000112553
0.000116401
0.000120614
0.000125094
0.00012984
0.000134835
0.000140062
0.000145502
0.000151132
0.000156928
0.000162868
0.000168933
0.000175101
0.000181356
0.000187679
0.000194058
0.000200477
0.000206928
0.000213399
0.000219884
0.000226374
0.000232865
0.000239351
0.000245828
0.000252293
0.00025874
0.000265165
0.000271565
0.000277935
0.000284267
0.000290554
0.000296787
0.000302956
0.000309047
0.000315047
0.000320943
0.000326711
0.000332356
0.000337887
0.000343319
0.000348659
0.000353906
0.000359051
0.000364088
0.000369008
0.000373801
0.000378456
0.000382965
0.000387313
0.000391499
0.00039552
0.000399368
0.000403032
0.000406501
0.00040977
0.000412841
0.00041579
0.000418528
0.000421043
0.00042325
0.000425148
0.00042686
0.000428354
0.000429621
0.000430661
0.000431473
0.00043206
0.000432424
0.00043257
0.000432501
0.000432222
0.000431736
0.000431046
0.00043015
0.000429043
0.000427701
0.00042608
0.000424094
0.00042164
0.000418697
0.000415342
0.000411668
0.00040775
0.000403641
0.000399378
0.000394989
0.000390491
0.000385895
0.000381216
0.000376468
0.000371662
0.000366804
0.000361904
0.000356968
0.000352003
0.000347014
0.000342008
0.000336989
0.000331961
0.000326931
0.000321905
0.000316889
0.000311888
0.000306907
0.00030195
0.000297023
0.000292132
0.000287279
0.000282467
0.0002777
0.000272979
0.00026831
0.000263697
0.00025915
0.000254667
0.000250249
0.000245897
0.000241613
0.000237394
0.000233241
0.000229158
0.000225146
0.000221208
0.00021734
0.000213538
0.000209806
0.000206143
0.000202551
0.000199031
0.000195584
0.000192207
0.000188901
0.000185664
0.000182496
0.000179394
0.000176357
0.000173383
0.000170471
0.000167619
0.000164824
0.000162084
0.000159398
0.000156763
0.000154174
0.000151629
0.000149123
0.000146652
0.000144208
0.000141784
0.00013937
0.000136943
0.000134518
0.000131983
0.000129481
0.000126646
0.000123725
0.000116926
2.68391e-06
1.41711e-05
3.35585e-05
5.18239e-05
6.6663e-05
7.80204e-05
8.65661e-05
9.29913e-05
9.78936e-05
0.000101756
0.000104952
0.000107759
0.000110381
0.000112964
0.000115618
0.000118427
0.000121456
0.000124756
0.000128367
0.000132314
0.000136617
0.000141282
0.000146307
0.000151682
0.000157388
0.000163387
0.00016973
0.000176348
0.000183182
0.000190222
0.000197444
0.000204823
0.000212332
0.000219948
0.000227649
0.000235413
0.000243223
0.000251061
0.000258913
0.000266767
0.000274612
0.000282438
0.000290237
0.000298003
0.000305729
0.000313412
0.000321046
0.000328628
0.000336152
0.000343616
0.000351011
0.00035834
0.000365593
0.000372764
0.000379844
0.000386825
0.000393698
0.000400452
0.000407075
0.000413568
0.000419938
0.000426189
0.000432324
0.000438343
0.000444243
0.000450015
0.000455654
0.00046115
0.000466494
0.000471679
0.000476694
0.000481531
0.000486184
0.000490645
0.000494906
0.000498958
0.000502793
0.000506404
0.000509786
0.000513
0.00051601
0.00051875
0.000521163
0.000523262
0.000525132
0.000526754
0.000528122
0.000529235
0.000530093
0.000530699
0.000531055
0.000531165
0.000531034
0.000530665
0.000530063
0.00052923
0.000528168
0.000526869
0.000525322
0.000523495
0.000521346
0.000518825
0.000515919
0.000512658
0.000509091
0.000505268
0.000501229
0.000497005
0.000492622
0.000488101
0.000483471
0.000478742
0.00047391
0.000468983
0.000463967
0.000458871
0.000453701
0.000448464
0.000443166
0.000437815
0.000432417
0.000426972
0.000421492
0.000415983
0.000410453
0.000404909
0.000399356
0.0003938
0.00038825
0.00038271
0.000377188
0.000371687
0.000366213
0.000360771
0.000355368
0.000350008
0.000344699
0.000339446
0.00033425
0.000329115
0.000324043
0.000319035
0.000314099
0.000309235
0.000304441
0.000299721
0.000295071
0.000290494
0.00028599
0.000281555
0.000277191
0.000272901
0.000268686
0.000264546
0.00026048
0.000256487
0.000252565
0.000248713
0.000244931
0.000241217
0.000237568
0.000233983
0.00023046
0.000226997
0.000223591
0.000220238
0.000216936
0.000213681
0.000210467
0.00020729
0.000204139
0.000201007
0.00019788
0.000194739
0.000191575
0.00018832
0.000184989
0.000181463
0.000177837
0.000169795
2.75889e-06
1.76852e-05
4.03922e-05
6.11067e-05
7.80291e-05
9.12331e-05
0.000101398
0.000109247
0.000115415
0.000120426
0.0001247
0.000128557
0.000132241
0.000135929
0.000139748
0.000143793
0.000148127
0.000152796
0.000157828
0.00016324
0.000169033
0.000175204
0.000181738
0.000188615
0.00019581
0.000203295
0.000211029
0.000218995
0.000227188
0.000235558
0.000244069
0.000252695
0.00026141
0.00027019
0.000279012
0.000287857
0.000296706
0.000305544
0.000314357
0.000323132
0.000331859
0.000340531
0.000349137
0.000357674
0.000366134
0.000374513
0.000382808
0.000391016
0.000399134
0.000407159
0.00041509
0.000422925
0.000430652
0.000438265
0.000445759
0.000453128
0.000460369
0.000467478
0.000474454
0.0004813
0.000488016
0.000494604
0.000501062
0.00050739
0.000513582
0.000519634
0.000525539
0.00053129
0.00053688
0.000542301
0.000547547
0.000552609
0.00055748
0.000562154
0.000566622
0.000570878
0.000574913
0.000578721
0.000582295
0.000585688
0.00058887
0.000591779
0.000594366
0.000596663
0.000598713
0.000600508
0.000602043
0.000603317
0.000604332
0.000605088
0.000605588
0.000605835
0.000605833
0.000605586
0.000605098
0.000604372
0.000603409
0.000602207
0.000600759
0.00059905
0.000597058
0.000594762
0.000592153
0.000589242
0.000586053
0.000582614
0.00057895
0.000575084
0.000571037
0.000566826
0.000562463
0.00055795
0.000553304
0.000548532
0.000543642
0.000538641
0.000533535
0.000528331
0.000523034
0.000517651
0.000512192
0.000506674
0.000501094
0.000495453
0.000489757
0.000484015
0.000478233
0.00047242
0.000466583
0.00046073
0.000454869
0.000449004
0.000443145
0.000437299
0.000431473
0.000425674
0.000419909
0.000414185
0.000408506
0.000402878
0.000397303
0.000391784
0.000386329
0.000380938
0.000375614
0.00037036
0.000365176
0.000360067
0.000355033
0.000350071
0.000345181
0.000340362
0.000335619
0.00033095
0.000326354
0.00032183
0.000317376
0.000312993
0.000308679
0.000304433
0.000300253
0.000296138
0.000292085
0.000288093
0.000284158
0.000280277
0.000276448
0.000272665
0.000268925
0.000265219
0.000261541
0.00025788
0.000254223
0.00025055
0.000246844
0.00024306
0.000239164
0.000235038
0.000231043
0.000222492
2.95576e-06
1.94912e-05
4.48504e-05
6.8158e-05
8.73154e-05
0.000102537
0.000114471
0.000123887
0.000131461
0.000137757
0.000143229
0.000148235
0.000153045
0.000157859
0.000162822
0.000168033
0.000173558
0.000179438
0.000185694
0.000192333
0.000199349
0.000206727
0.000214445
0.000222479
0.000230798
0.000239372
0.000248164
0.000257147
0.00026629
0.000275561
0.000284928
0.000294375
0.000303878
0.000313413
0.000322958
0.000332491
0.000341994
0.000351451
0.000360848
0.000370172
0.000379412
0.000388561
0.000397611
0.000406553
0.000415383
0.000424094
0.000432686
0.000441156
0.000449503
0.000457723
0.000465814
0.000473775
0.000481606
0.000489308
0.000496879
0.000504318
0.000511626
0.000518803
0.000525849
0.000532762
0.000539542
0.000546187
0.000552699
0.000559073
0.000565308
0.0005714
0.000577342
0.000583132
0.000588762
0.000594227
0.000599521
0.000604638
0.000609571
0.000614314
0.000618862
0.000623206
0.000627341
0.000631261
0.000634959
0.000638488
0.00064179
0.000644844
0.0006476
0.000650104
0.00065236
0.000654369
0.000656127
0.000657634
0.000658891
0.000659898
0.000660657
0.000661171
0.000661442
0.000661474
0.000661271
0.000660835
0.000660168
0.00065927
0.000658138
0.000656765
0.000655141
0.000653256
0.000651106
0.000648693
0.000646028
0.000643126
0.000640001
0.00063667
0.000633143
0.000629434
0.000625551
0.000621499
0.000617288
0.000612925
0.000608413
0.00060376
0.000598971
0.00059405
0.000589003
0.000583837
0.00057856
0.000573177
0.000567691
0.000562113
0.000556449
0.000550709
0.000544901
0.000539034
0.000533116
0.000527158
0.000521171
0.000515167
0.000509148
0.000503122
0.000497096
0.000491078
0.000485076
0.000479098
0.000473151
0.000467241
0.000461371
0.000455547
0.000449777
0.000444062
0.000438407
0.000432816
0.000427289
0.000421831
0.000416443
0.000411124
0.000405876
0.0004007
0.0003956
0.000390574
0.00038562
0.000380736
0.000375922
0.000371177
0.000366499
0.000361887
0.000357338
0.000352853
0.000348429
0.000344065
0.000339756
0.0003355
0.000331294
0.000327136
0.000323018
0.000318935
0.000314879
0.00031084
0.000306805
0.000302757
0.000298674
0.000294521
0.00029026
0.000285747
0.000281579
0.000272921
3.29067e-06
1.96302e-05
4.68294e-05
7.27709e-05
9.4323e-05
0.000111755
0.000125623
0.00013675
0.000145856
0.000153545
0.000160302
0.000166512
0.000172467
0.000178386
0.000184426
0.000190694
0.000197259
0.000204162
0.000211423
0.000219042
0.00022701
0.000235308
0.000243909
0.000252787
0.00026191
0.000271246
0.000280764
0.000290432
0.000300215
0.000310085
0.000320014
0.000329981
0.000339959
0.000349926
0.000359858
0.000369738
0.000379546
0.00038927
0.000398897
0.000408416
0.00041782
0.0004271
0.000436253
0.000445273
0.000454159
0.000462909
0.000471519
0.000479988
0.000488313
0.000496495
0.000504533
0.000512429
0.000520182
0.000527796
0.00053527
0.000542607
0.000549806
0.000556871
0.000563802
0.000570598
0.000577261
0.00058379
0.000590186
0.000596446
0.00060257
0.000608555
0.000614397
0.000620092
0.000625638
0.00063103
0.000636263
0.000641332
0.000646233
0.00065096
0.000655508
0.000659872
0.000664047
0.000668026
0.00067181
0.00067544
0.00067884
0.000682022
0.00068495
0.000687661
0.00069014
0.000692388
0.000694405
0.000696191
0.000697746
0.00069907
0.000700165
0.000701031
0.000701671
0.000702087
0.000702283
0.000702261
0.000702022
0.000701568
0.000700897
0.000700006
0.00069889
0.000697545
0.000695967
0.000694157
0.000692118
0.000689856
0.000687379
0.000684694
0.000681808
0.000678728
0.000675459
0.000672005
0.000668371
0.00066456
0.000660575
0.000656422
0.000652102
0.00064762
0.00064298
0.000638189
0.000633251
0.000628175
0.000622964
0.000617628
0.000612175
0.000606614
0.000600954
0.000595205
0.000589378
0.000583482
0.000577532
0.000571531
0.000565491
0.000559423
0.000553336
0.00054724
0.000541143
0.000535054
0.000528982
0.000522936
0.000516923
0.000510946
0.000505011
0.000499123
0.000493285
0.000487502
0.000481777
0.000476113
0.000470513
0.000464978
0.00045951
0.000454109
0.00044878
0.000443521
0.000438331
0.000433211
0.000428162
0.000423181
0.000418265
0.000413414
0.000408624
0.000403895
0.000399225
0.00039461
0.000390048
0.000385536
0.000381076
0.00037666
0.000372284
0.000367941
0.000363626
0.00035933
0.000355038
0.000350738
0.000346407
0.000342016
0.00033753
0.000332807
0.000328445
0.000320054
3.59648e-06
1.91974e-05
4.73649e-05
7.54704e-05
9.93073e-05
0.000118884
0.000134755
0.000147671
0.000158387
0.000167534
0.000175622
0.000183054
0.000190142
0.000197119
0.000204152
0.000211353
0.000218798
0.000226527
0.000234582
0.000242956
0.000251633
0.000260593
0.00026981
0.000279257
0.000288905
0.000298724
0.000308687
0.00031877
0.000328916
0.0003391
0.000349298
0.000359488
0.000369647
0.000379755
0.000389793
0.000399744
0.000409595
0.000419332
0.000428945
0.000438426
0.000447768
0.000456966
0.000466015
0.000474914
0.00048366
0.000492252
0.000500691
0.000508975
0.000517105
0.000525082
0.000532909
0.000540587
0.000548119
0.000555508
0.000562755
0.000569863
0.000576835
0.000583673
0.000590379
0.000596954
0.000603399
0.000609716
0.000615905
0.000621965
0.000627895
0.000633695
0.000639363
0.000644896
0.000650292
0.000655548
0.000660661
0.000665628
0.000670445
0.000675108
0.000679614
0.000683959
0.000688138
0.000692146
0.000695997
0.000699681
0.000703178
0.000706486
0.000709595
0.000712507
0.000715212
0.000717707
0.00072
0.000722091
0.000723976
0.000725657
0.000727132
0.000728403
0.000729471
0.000730338
0.000731006
0.000731476
0.00073175
0.000731828
0.000731711
0.000731396
0.000730881
0.000730163
0.000729238
0.000728104
0.000726762
0.000725212
0.000723455
0.000721494
0.00071933
0.000716966
0.000714401
0.000711637
0.000708676
0.000705517
0.000702161
0.000698611
0.000694866
0.000690931
0.000686807
0.0006825
0.000678015
0.000673357
0.000668534
0.000663553
0.000658424
0.000653155
0.000647758
0.000642243
0.00063662
0.000630902
0.000625102
0.000619228
0.000613293
0.000607308
0.000601283
0.00059523
0.000589158
0.000583078
0.000576998
0.00057093
0.000564877
0.000558848
0.000552849
0.000546888
0.000540968
0.000535095
0.000529273
0.000523508
0.000517802
0.000512157
0.000506573
0.000501051
0.000495596
0.000490206
0.000484882
0.000479623
0.000474432
0.000469307
0.000464245
0.000459248
0.000454312
0.000449435
0.000444614
0.000439847
0.000435131
0.000430463
0.000425841
0.000421261
0.000416718
0.000412207
0.000407726
0.000403266
0.000398812
0.000394354
0.000389874
0.000385345
0.000380737
0.000375929
0.000371401
0.000363505
3.85851e-06
1.84828e-05
4.69328e-05
7.66421e-05
0.000102519
0.000124049
0.000141852
0.000156547
0.000168884
0.000179502
0.000188922
0.000197558
0.000205728
0.000213706
0.000221651
0.000229676
0.000237856
0.000246228
0.000254865
0.000263764
0.000272917
0.000282305
0.000291905
0.000301693
0.000311639
0.000321716
0.000331896
0.000342152
0.000352414
0.000362669
0.000372892
0.000383064
0.000393166
0.000403182
0.000413097
0.000422898
0.000432572
0.000442111
0.000451507
0.000460753
0.000469845
0.000478779
0.000487553
0.000496167
0.000504621
0.000512914
0.000521049
0.000529027
0.000536849
0.00054452
0.000552041
0.000559415
0.000566647
0.000573739
0.000580694
0.000587516
0.000594207
0.00060077
0.000607208
0.000613522
0.000619713
0.000625784
0.000631734
0.000637565
0.000643276
0.000648867
0.000654337
0.000659685
0.00066491
0.00067001
0.000674984
0.000679828
0.000684542
0.000689122
0.000693567
0.000697874
0.000702041
0.000706066
0.000709951
0.000713691
0.000717279
0.000720719
0.000723993
0.00072711
0.000730028
0.000732774
0.000735351
0.000737756
0.000739986
0.000742042
0.000743921
0.000745624
0.000747151
0.000748505
0.000749685
0.000750693
0.000751529
0.000752193
0.000752686
0.000753005
0.000753148
0.000753111
0.000752892
0.000752485
0.000751888
0.000751098
0.000750113
0.000748928
0.000747541
0.00074595
0.000744151
0.000742141
0.000739919
0.000737482
0.000734826
0.000731951
0.000728857
0.000725543
0.000722013
0.000718268
0.000714313
0.000710154
0.000705798
0.000701254
0.000696529
0.000691634
0.000686581
0.000681381
0.000676046
0.000670589
0.000665023
0.000659361
0.000653614
0.000647796
0.000641918
0.000635992
0.000630031
0.000624044
0.000618041
0.000612035
0.000606031
0.000600039
0.000594066
0.000588119
0.000582204
0.000576327
0.000570492
0.000564707
0.00055897
0.000553288
0.000547661
0.000542093
0.000536585
0.000531139
0.000525757
0.000520437
0.00051518
0.000509986
0.000504853
0.000499781
0.000494768
0.000489812
0.000484913
0.000480067
0.00047527
0.00047052
0.000465814
0.000461147
0.000456517
0.000451917
0.000447344
0.00044279
0.000438245
0.000433703
0.000429147
0.000424553
0.000419899
0.000415087
0.000410457
0.000403106
4.07282e-06
1.76209e-05
4.58148e-05
7.65669e-05
0.000104097
0.000127363
0.000146944
0.000163331
0.000177234
0.00018928
0.000200005
0.000209805
0.000218988
0.000227831
0.000236529
0.00024522
0.000254002
0.000262948
0.000272071
0.00028137
0.000290843
0.000300475
0.000310251
0.000320146
0.000330141
0.000340206
0.000350307
0.000360461
0.000370621
0.000380734
0.000390765
0.0004007
0.000410529
0.000420242
0.000429829
0.000439281
0.00044859
0.000457751
0.000466758
0.000475609
0.000484302
0.000492835
0.00050121
0.000509427
0.000517488
0.000525394
0.00053315
0.000540757
0.000548219
0.000555539
0.00056272
0.000569766
0.000576681
0.000583466
0.000590126
0.000596663
0.00060308
0.000609378
0.00061556
0.000621628
0.000627582
0.000633425
0.000639156
0.000644776
0.000650286
0.000655686
0.000660975
0.000666154
0.000671222
0.000676177
0.00068102
0.000685749
0.000690364
0.000694864
0.000699248
0.000703516
0.000707668
0.000711701
0.00071562
0.000719408
0.000723101
0.000726667
0.00073011
0.000733403
0.000736535
0.000739531
0.000742391
0.00074511
0.000747688
0.000750123
0.000752412
0.000754555
0.000756553
0.000758406
0.000760115
0.00076168
0.000763102
0.000764378
0.000765508
0.00076649
0.000767322
0.000767998
0.000768514
0.000768863
0.00076904
0.000769042
0.000768859
0.000768484
0.00076791