/*--------------------------------*- C++ -*----------------------------------*\
| =========                 |                                                 |
| \\      /  F ield         | OpenFOAM: The Open Source CFD Toolbox           |
|  \\    /   O peration     | Version:  2312                                  |
|   \\  /    A nd           | Website:  www.openfoam.com                      |
|    \\/     M anipulation  |                                                 |
\*---------------------------------------------------------------------------*/
FoamFile
{
    version     2.0;
    format      ascii;
    arch        "LSB;label=32;scalar=64";
    class       surfaceScalarField;
    location    "150";
    object      phi;
}
// * * * * * * * * * * * * * * * * * * * * * * * * * * * * * * * * * * * * * //

dimensions      [0 3 -1 0 0 0 0];

oriented        oriented;

internalField   nonuniform List<scalar> 
24170
(
1.53242e-06
6.17787e-08
1.447e-06
8.54215e-08
1.37259e-06
7.4407e-08
1.3026e-06
6.99878e-08
1.2385e-06
6.4101e-08
1.18309e-06
5.54061e-08
1.13677e-06
4.63204e-08
1.09848e-06
3.82845e-08
1.06684e-06
3.16408e-08
1.0406e-06
2.62419e-08
1.01875e-06
2.18514e-08
1.00048e-06
1.82674e-08
9.85186e-07
1.52893e-08
9.72462e-07
1.27233e-08
9.62101e-07
1.03597e-08
9.5394e-07
8.15977e-09
9.47736e-07
6.20246e-09
1.94093e-09
9.45794e-07
1.74833e-06
2.20751e-08
1.75312e-06
8.06304e-08
1.74302e-06
8.45002e-08
1.72705e-06
8.59551e-08
1.70653e-06
8.46263e-08
1.68303e-06
7.88965e-08
1.65807e-06
7.12803e-08
1.63274e-06
6.36145e-08
1.6079e-06
5.64781e-08
1.58414e-06
4.99972e-08
1.56182e-06
4.41757e-08
1.54112e-06
3.89633e-08
1.52215e-06
3.42627e-08
1.50491e-06
2.99575e-08
1.48942e-06
2.5849e-08
1.47573e-06
2.18475e-08
1.46445e-06
1.74771e-08
1.08064e-08
1.45559e-06
1.83576e-06
1.75723e-08
1.84805e-06
6.83374e-08
1.85523e-06
7.73257e-08
1.86076e-06
8.04176e-08
1.86375e-06
8.16362e-08
1.86368e-06
7.89638e-08
1.86101e-06
7.39528e-08
1.85634e-06
6.82818e-08
1.85021e-06
6.26043e-08
1.8431e-06
5.71145e-08
1.83538e-06
5.18952e-08
1.82737e-06
4.6972e-08
1.81932e-06
4.23109e-08
1.81144e-06
3.78374e-08
1.80388e-06
3.3406e-08
1.79691e-06
2.88192e-08
1.79066e-06
2.37217e-08
1.70495e-08
1.78442e-06
1.96288e-06
1.73823e-08
1.97288e-06
5.83397e-08
1.98014e-06
7.00697e-08
1.98645e-06
7.40975e-08
1.99186e-06
7.62295e-08
1.99584e-06
7.49812e-08
1.99848e-06
7.13148e-08
2.00001e-06
6.67537e-08
2.00061e-06
6.1996e-08
2.00047e-06
5.7257e-08
1.99974e-06
5.26233e-08
1.99857e-06
4.8136e-08
1.99711e-06
4.37745e-08
1.99547e-06
3.94788e-08
1.99374e-06
3.51272e-08
1.99203e-06
3.05316e-08
1.99024e-06
2.55101e-08
1.94881e-08
1.9878e-06
2.10464e-06
1.63076e-08
2.11225e-06
5.07247e-08
2.11852e-06
6.38064e-08
2.12408e-06
6.85272e-08
2.12935e-06
7.09607e-08
2.13392e-06
7.04127e-08
2.13769e-06
6.75437e-08
2.14076e-06
6.36804e-08
2.14324e-06
5.95145e-08
2.14523e-06
5.52727e-08
2.14681e-06
5.10456e-08
2.14806e-06
4.68809e-08
2.14907e-06
4.27677e-08
2.14989e-06
3.86561e-08
2.15057e-06
3.44491e-08
2.15109e-06
3.00089e-08
2.15135e-06
2.52431e-08
1.98853e-08
2.15096e-06
2.25611e-06
1.47402e-08
2.26226e-06
4.45718e-08
2.26806e-06
5.80114e-08
2.27334e-06
6.32388e-08
2.27847e-06
6.58296e-08
2.28316e-06
6.57277e-08
2.28725e-06
6.34501e-08
2.29081e-06
6.01221e-08
2.29392e-06
5.64016e-08
2.29666e-06
5.25294e-08
2.2991e-06
4.86078e-08
2.30129e-06
4.46904e-08
2.30328e-06
4.07785e-08
2.3051e-06
3.6835e-08
2.30676e-06
3.27918e-08
2.30821e-06
2.85589e-08
2.30935e-06
2.41022e-08
1.93392e-08
2.30989e-06
2.41792e-06
1.31845e-08
2.42332e-06
3.91684e-08
2.42891e-06
5.24144e-08
2.43412e-06
5.80305e-08
2.43919e-06
6.07661e-08
2.44391e-06
6.10047e-08
2.44815e-06
5.92102e-08
2.45194e-06
5.63336e-08
2.45535e-06
5.29875e-08
2.45845e-06
4.94247e-08
2.4613e-06
4.57605e-08
2.46393e-06
4.20567e-08
2.46638e-06
3.83278e-08
2.46867e-06
3.4552e-08
2.47077e-06
3.06893e-08
2.47264e-06
2.66909e-08
2.47417e-06
2.25627e-08
1.83162e-08
2.4752e-06
2.59123e-06
1.17432e-08
2.59612e-06
3.42779e-08
2.60155e-06
4.6987e-08
2.60672e-06
5.28527e-08
2.61178e-06
5.57134e-08
2.61655e-06
5.62278e-08
2.62092e-06
5.48455e-08
2.62488e-06
5.23702e-08
2.6285e-06
4.93635e-08
2.63184e-06
4.60845e-08
2.63494e-06
4.26603e-08
2.63784e-06
3.91616e-08
2.64055e-06
3.56164e-08
2.64308e-06
3.20206e-08
2.64541e-06
2.8358e-08
2.64749e-06
2.46132e-08
2.64923e-06
2.08155e-08
1.70172e-08
2.65053e-06
2.77702e-06
1.03892e-08
2.78144e-06
2.9857e-08
2.78666e-06
4.17731e-08
2.7918e-06
4.77101e-08
2.79687e-06
5.06438e-08
2.80172e-06
5.13778e-08
2.80621e-06
5.03518e-08
2.81034e-06
4.82414e-08
2.81415e-06
4.55545e-08
2.81768e-06
4.25502e-08
2.82098e-06
3.93643e-08
2.82406e-06
3.60765e-08
2.82695e-06
3.27273e-08
2.82964e-06
2.93297e-08
2.83211e-06
2.58877e-08
2.83431e-06
2.24099e-08
2.83619e-06
1.89374e-08
1.55364e-08
2.83767e-06
2.97617e-06
9.10893e-09
2.98015e-06
2.58694e-08
2.98512e-06
3.68091e-08
2.99019e-06
4.26332e-08
2.99527e-06
4.55676e-08
3.00019e-06
4.64583e-08
3.00481e-06
4.57321e-08
3.0091e-06
4.39516e-08
3.01308e-06
4.15684e-08
3.0168e-06
3.88352e-08
3.02027e-06
3.58929e-08
3.02351e-06
3.28282e-08
3.02655e-06
2.96928e-08
3.02936e-06
2.6514e-08
3.03194e-06
2.3312e-08
3.03424e-06
2.01107e-08
3.03622e-06
1.69561e-08
1.39137e-08
3.03784e-06
3.18961e-06
7.90471e-09
3.19321e-06
2.22691e-08
3.19791e-06
3.2112e-08
3.20288e-06
3.76581e-08
3.20793e-06
4.05168e-08
3.21289e-06
4.14965e-08
3.21762e-06
4.10073e-08
3.22205e-06
3.95161e-08
3.2262e-06
3.74172e-08
3.23009e-06
3.49506e-08
3.23372e-06
3.22576e-08
3.23712e-06
2.94294e-08
3.24028e-06
2.65258e-08
3.24321e-06
2.35854e-08
3.24589e-06
2.06396e-08
3.24827e-06
1.77213e-08
3.25035e-06
1.48761e-08
1.21641e-08
3.2521e-06
2.87138e-06
6.9395e-09
2.87415e-06
1.94993e-08
2.87791e-06
2.83502e-08
2.88202e-06
3.35488e-08
2.88624e-06
3.62918e-08
2.89044e-06
3.72977e-08
2.89449e-06
3.69576e-08
2.89833e-06
3.56756e-08
2.90195e-06
3.37987e-08
2.90535e-06
3.15506e-08
2.90854e-06
2.90701e-08
2.91152e-06
2.64497e-08
2.91429e-06
2.37537e-08
2.91685e-06
2.10269e-08
2.91918e-06
1.8307e-08
2.92127e-06
1.56305e-08
2.9231e-06
1.30404e-08
1.05914e-08
2.92468e-06
3.50011e-06
5.90944e-09
3.50304e-06
1.65639e-08
3.50711e-06
2.42781e-08
3.51167e-06
2.89869e-08
3.51644e-06
3.15255e-08
3.52123e-06
3.25048e-08
3.52591e-06
3.22833e-08
3.53038e-06
3.12003e-08
3.53463e-06
2.95523e-08
3.53863e-06
2.75429e-08
3.5424e-06
2.53041e-08
3.54592e-06
2.29272e-08
3.5492e-06
2.04782e-08
3.55222e-06
1.8006e-08
3.55497e-06
1.55514e-08
3.55745e-06
1.31524e-08
3.55964e-06
1.08469e-08
8.68377e-09
3.56155e-06
4.26651e-06
4.82341e-09
4.26957e-06
1.34992e-08
4.27392e-06
1.99338e-08
4.27891e-06
2.39963e-08
4.28421e-06
2.62246e-08
4.2896e-06
2.71075e-08
4.29493e-06
2.6958e-08
4.30008e-06
2.6051e-08
4.305e-06
2.46302e-08
4.30967e-06
2.28741e-08
4.31407e-06
2.09033e-08
4.31819e-06
1.88046e-08
4.32202e-06
1.66421e-08
4.32557e-06
1.44655e-08
4.3288e-06
1.23154e-08
4.33173e-06
1.0228e-08
4.33434e-06
8.23585e-09
6.37946e-09
4.33664e-06
5.20074e-06
3.69153e-09
5.2039e-06
1.0337e-08
5.20848e-06
1.5354e-08
5.21387e-06
1.86039e-08
5.2197e-06
2.04011e-08
5.2257e-06
2.11031e-08
5.23169e-06
2.0965e-08
5.23754e-06
2.01994e-08
5.24318e-06
1.89961e-08
5.24855e-06
1.75017e-08
5.25363e-06
1.58218e-08
5.2584e-06
1.40329e-08
5.26285e-06
1.21941e-08
5.26696e-06
1.03512e-08
5.27074e-06
8.54192e-09
5.27417e-06
6.79734e-09
5.27726e-06
5.14405e-09
3.61448e-09
5.28002e-06
6.33956e-06
2.52303e-09
6.34281e-06
7.08451e-09
6.34761e-06
1.05556e-08
6.35339e-06
1.2825e-08
6.35973e-06
1.40558e-08
6.36636e-06
1.44797e-08
6.37304e-06
1.42814e-08
6.37963e-06
1.3613e-08
6.38601e-06
1.26096e-08
6.39213e-06
1.13813e-08
6.39794e-06
1.00108e-08
6.40341e-06
8.56067e-09
6.40853e-06
7.07917e-09
6.41327e-06
5.605e-09
6.41765e-06
4.16864e-09
6.42165e-06
2.79545e-09
6.42529e-06
1.50433e-09
3.21094e-10
6.42858e-06
7.7278e-06
1.31298e-09
7.73118e-06
3.70711e-09
7.73623e-06
5.50031e-09
7.74243e-06
6.62153e-09
7.74935e-06
7.14121e-09
7.75665e-06
7.18021e-09
7.76408e-06
6.84482e-09
7.77147e-06
6.22449e-09
7.77868e-06
5.39939e-09
7.78562e-06
4.43777e-09
7.79224e-06
3.3935e-09
7.79849e-06
2.30851e-09
7.80435e-06
1.21612e-09
7.80981e-06
1.43123e-10
7.81487e-06
-8.89087e-10
7.81953e-06
-1.86354e-09
7.8238e-06
-2.76791e-09
-3.58397e-09
7.8277e-06
9.42011e-06
2.53559e-11
9.42372e-06
8.69129e-11
9.4292e-06
2.60071e-11
9.436e-06
-1.81852e-10
9.44366e-06
-5.23047e-10
9.45182e-06
-9.75261e-10
9.46018e-06
-1.51882e-09
9.46854e-06
-2.13256e-09
9.47673e-06
-2.79371e-09
9.48465e-06
-3.48132e-09
9.49222e-06
-4.17741e-09
9.49939e-06
-4.8664e-09
9.50614e-06
-5.53456e-09
9.51245e-06
-6.1702e-09
9.51833e-06
-6.76353e-09
9.52377e-06
-7.30672e-09
9.5288e-06
-7.79437e-09
-8.21513e-09
9.53343e-06
1.14831e-05
-1.43696e-09
1.14873e-05
-4.07028e-09
1.14936e-05
-6.29758e-09
1.15015e-05
-8.07403e-09
1.15104e-05
-9.43063e-09
1.15199e-05
-1.0462e-08
1.15296e-05
-1.12558e-08
1.15394e-05
-1.18681e-08
1.15489e-05
-1.23423e-08
1.15581e-05
-1.2714e-08
1.1567e-05
-1.30101e-08
1.15753e-05
-1.32463e-08
1.15832e-05
-1.34332e-08
1.15907e-05
-1.35763e-08
1.15976e-05
-1.36793e-08
1.1604e-05
-1.37438e-08
1.161e-05
-1.37714e-08
-1.37568e-08
1.16155e-05
8.40649e-06
-2.5744e-09
8.40971e-06
-7.29594e-09
8.41462e-06
-1.12096e-08
8.4207e-06
-1.41499e-08
8.42747e-06
-1.62012e-08
8.4346e-06
-1.75993e-08
8.44187e-06
-1.85216e-08
8.44908e-06
-1.90799e-08
8.4561e-06
-1.93684e-08
8.46286e-06
-1.94712e-08
8.46929e-06
-1.94463e-08
8.47538e-06
-1.93335e-08
8.4811e-06
-1.91576e-08
8.48646e-06
-1.89376e-08
8.49147e-06
-1.86838e-08
8.49613e-06
-1.84047e-08
8.50046e-06
-1.8104e-08
-1.77811e-08
8.50448e-06
7.31836e-06
-3.65407e-09
7.32151e-06
-1.04428e-08
7.32632e-06
-1.60209e-08
7.33215e-06
-1.99871e-08
7.33853e-06
-2.25737e-08
7.34515e-06
-2.42239e-08
7.35181e-06
-2.51872e-08
7.35835e-06
-2.5617e-08
7.36465e-06
-2.5671e-08
7.37066e-06
-2.54801e-08
7.37634e-06
-2.51312e-08
7.38169e-06
-2.46793e-08
7.38669e-06
-2.41635e-08
7.39136e-06
-2.361e-08
7.39571e-06
-2.30363e-08
7.39976e-06
-2.24525e-08
7.40352e-06
-2.18652e-08
-2.1274e-08
7.40702e-06
6.37105e-06
-4.6373e-09
6.37425e-06
-1.36415e-08
6.37918e-06
-2.09595e-08
6.38495e-06
-2.57532e-08
6.39106e-06
-2.86896e-08
6.39733e-06
-3.04898e-08
6.40354e-06
-3.14027e-08
6.40954e-06
-3.16213e-08
6.41526e-06
-3.13837e-08
6.42064e-06
-3.08698e-08
6.4257e-06
-3.01855e-08
6.43042e-06
-2.93982e-08
6.43481e-06
-2.85566e-08
6.43889e-06
-2.76927e-08
6.44268e-06
-2.68269e-08
6.4462e-06
-2.59699e-08
6.44946e-06
-2.51284e-08
-2.43017e-08
6.45249e-06
5.54624e-06
-5.41468e-09
5.54955e-06
-1.69528e-08
5.55476e-06
-2.61655e-08
5.5605e-06
-3.1499e-08
5.56641e-06
-3.45974e-08
5.57237e-06
-3.64508e-08
5.57818e-06
-3.72132e-08
5.5837e-06
-3.71403e-08
5.58888e-06
-3.65675e-08
5.59372e-06
-3.57115e-08
5.59822e-06
-3.46871e-08
5.60239e-06
-3.35708e-08
5.60625e-06
-3.24178e-08
5.60982e-06
-3.12645e-08
5.61312e-06
-3.01304e-08
5.61618e-06
-2.90272e-08
5.61901e-06
-2.79586e-08
-2.6924e-08
5.62163e-06
4.8281e-06
-5.91133e-09
4.83159e-06
-2.04391e-08
4.83698e-06
-3.1557e-08
4.8426e-06
-3.71183e-08
4.84833e-06
-4.03276e-08
4.85405e-06
-4.21737e-08
4.85951e-06
-4.26757e-08
4.86461e-06
-4.22351e-08
4.86933e-06
-4.12934e-08
4.8737e-06
-4.00824e-08
4.87773e-06
-3.87159e-08
4.88143e-06
-3.72759e-08
4.88484e-06
-3.58229e-08
4.88796e-06
-3.4394e-08
4.89084e-06
-3.3009e-08
4.89349e-06
-3.1677e-08
4.89593e-06
-3.04003e-08
-2.91745e-08
4.89818e-06
4.20248e-06
-5.71535e-09
4.20659e-06
-2.45492e-08
4.21199e-06
-3.69581e-08
4.21732e-06
-4.24507e-08
4.22293e-06
-4.5938e-08
4.22854e-06
-4.77817e-08
4.23379e-06
-4.79264e-08
4.2386e-06
-4.70432e-08
4.24299e-06
-4.56847e-08
4.24699e-06
-4.40838e-08
4.25062e-06
-4.23504e-08
4.25392e-06
-4.05709e-08
4.2569e-06
-3.88087e-08
4.2596e-06
-3.70997e-08
4.26206e-06
-3.54623e-08
4.26428e-06
-3.39047e-08
4.26631e-06
-3.24271e-08
-3.10223e-08
4.26816e-06
3.65584e-06
-2.90897e-09
3.66189e-06
-3.06009e-08
3.66789e-06
-4.29596e-08
3.67335e-06
-4.79111e-08
3.67908e-06
-5.16722e-08
3.68466e-06
-5.33657e-08
3.68976e-06
-5.30185e-08
3.69433e-06
-5.16158e-08
3.69842e-06
-4.97766e-08
3.70205e-06
-4.77196e-08
3.70526e-06
-4.55575e-08
3.70807e-06
-4.33853e-08
3.71053e-06
-4.12685e-08
3.71267e-06
-3.92412e-08
3.71453e-06
-3.73218e-08
3.71614e-06
-3.55171e-08
3.71754e-06
-3.38239e-08
-3.22365e-08
3.71875e-06
3.17742e-06
4.70411e-09
3.18641e-06
-3.95939e-08
3.19424e-06
-5.0783e-08
3.20125e-06
-5.49317e-08
3.208e-06
-5.84146e-08
3.21387e-06
-5.92382e-08
3.21877e-06
-5.79228e-08
3.22287e-06
-5.57188e-08
3.22629e-06
-5.31933e-08
3.22908e-06
-5.05066e-08
3.23129e-06
-4.77701e-08
3.23299e-06
-4.50828e-08
3.23423e-06
-4.25121e-08
3.23507e-06
-4.00867e-08
3.23558e-06
-3.78233e-08
3.23579e-06
-3.573e-08
3.23576e-06
-3.37986e-08
-3.20508e-08
3.23557e-06
2.76711e-06
1.03257e-08
2.77705e-06
-4.9539e-08
2.78525e-06
-5.89763e-08
2.79388e-06
-6.35654e-08
2.80188e-06
-6.64153e-08
2.80795e-06
-6.53057e-08
2.81193e-06
-6.1908e-08
2.81412e-06
-5.79119e-08
2.81483e-06
-5.39049e-08
2.81433e-06
-5.0001e-08
2.81283e-06
-4.62753e-08
2.81055e-06
-4.27986e-08
2.80764e-06
-3.9604e-08
2.80425e-06
-3.66939e-08
2.80048e-06
-3.40596e-08
2.79645e-06
-3.16988e-08
2.79224e-06
-2.95923e-08
-2.77949e-08
2.78799e-06
2.44887e-06
-2.47426e-08
2.45701e-06
-5.76794e-08
2.45647e-06
-5.84348e-08
2.45386e-06
-6.09574e-08
2.44871e-06
-6.1262e-08
2.44053e-06
-5.71326e-08
2.42957e-06
-5.09438e-08
2.41643e-06
-4.47767e-08
2.40179e-06
-3.92677e-08
2.38625e-06
-3.44597e-08
2.37029e-06
-3.03156e-08
2.35427e-06
-2.67757e-08
2.33843e-06
-2.37649e-08
2.32294e-06
-2.12045e-08
2.3079e-06
-1.90276e-08
2.2934e-06
-1.71925e-08
2.27947e-06
-1.56682e-08
-1.46139e-08
2.26629e-06
2.0766e-06
2.01892e-06
1.96048e-06
1.89952e-06
1.83826e-06
1.78113e-06
1.73018e-06
1.68541e-06
1.64614e-06
1.61168e-06
1.58136e-06
1.55459e-06
1.53082e-06
1.50962e-06
1.49059e-06
1.4734e-06
1.45773e-06
1.44312e-06
5.9981e-09
-6.0189e-09
1.49483e-08
-8.98641e-09
2.33978e-08
-8.4776e-09
2.99039e-08
-6.53719e-09
3.38831e-08
-4.00341e-09
3.52093e-08
-1.35668e-09
3.40731e-08
1.11367e-09
3.08097e-08
3.23158e-09
2.58502e-08
4.93668e-09
1.95464e-08
6.26928e-09
1.2218e-08
7.30472e-09
4.06548e-09
8.11496e-09
-4.74612e-09
8.78851e-09
-1.42044e-08
9.42151e-09
-2.4262e-08
1.00381e-08
-3.49528e-08
1.06566e-08
-4.62715e-08
1.13037e-08
-5.82949e-08
1.19909e-08
-7.10268e-08
1.27179e-08
-8.45395e-08
1.34798e-08
-9.88199e-08
1.42672e-08
-1.13926e-07
1.5071e-08
-1.29823e-07
1.58814e-08
-1.46549e-07
1.66884e-08
-1.64047e-07
1.74813e-08
-1.82334e-07
1.82489e-08
-2.0133e-07
1.89801e-08
-2.21034e-07
1.96665e-08
-2.41353e-07
2.03034e-08
-2.62275e-07
2.08871e-08
-2.837e-07
2.14155e-08
-3.05618e-07
2.18867e-08
-3.27928e-07
2.23026e-08
-3.50619e-07
2.26646e-08
-3.73597e-07
2.29767e-08
-3.96861e-07
2.32416e-08
-4.20325e-07
2.34653e-08
-4.43998e-07
2.36515e-08
-4.67803e-07
2.38061e-08
-4.91756e-07
2.39311e-08
-5.15786e-07
2.40314e-08
-5.39915e-07
2.41084e-08
-5.64079e-07
2.4166e-08
-5.88302e-07
2.42048e-08
-6.12527e-07
2.42297e-08
-6.36784e-07
2.42411e-08
-6.61021e-07
2.42431e-08
-6.85272e-07
2.42344e-08
-7.09485e-07
2.42174e-08
-7.33694e-07
2.41898e-08
-7.57848e-07
2.41541e-08
-7.81979e-07
2.41068e-08
-8.06034e-07
2.40502e-08
-8.30043e-07
2.39812e-08
-8.53947e-07
2.39019e-08
-8.77783e-07
2.38072e-08
-9.01486e-07
2.3699e-08
-9.25085e-07
2.3572e-08
-9.48513e-07
2.34279e-08
-9.71798e-07
2.32591e-08
-9.94864e-07
2.30681e-08
-1.01773e-06
2.28488e-08
-1.04033e-06
2.26052e-08
-1.06268e-06
2.23324e-08
-1.0847e-06
2.20382e-08
-1.10643e-06
2.17234e-08
-1.12783e-06
2.1409e-08
-1.14893e-06
2.10929e-08
-1.16968e-06
2.07729e-08
-1.19012e-06
2.04345e-08
-1.21018e-06
2.00776e-08
-1.22987e-06
1.96908e-08
-1.24912e-06
1.92766e-08
-1.26795e-06
1.88246e-08
-1.28627e-06
1.8339e-08
-1.30409e-06
1.781e-08
-1.32131e-06
1.72436e-08
-1.33795e-06
1.66311e-08
-1.3539e-06
1.59775e-08
-1.36916e-06
1.52709e-08
-1.38364e-06
1.4515e-08
-1.39732e-06
1.36976e-08
-1.4101e-06
1.28211e-08
-1.42194e-06
1.18706e-08
-1.43274e-06
1.08488e-08
-1.44244e-06
9.74102e-09
-1.45091e-06
8.54654e-09
-1.45809e-06
7.24673e-09
-1.46383e-06
5.82912e-09
-1.468e-06
4.28664e-09
-1.4705e-06
2.62011e-09
-1.47127e-06
8.75657e-10
-1.47036e-06
-8.06351e-10
-1.46786e-06
-2.38722e-09
-1.46378e-06
-3.97967e-09
-1.45807e-06
-5.61354e-09
-1.45068e-06
-7.30287e-09
-1.44154e-06
-9.04748e-09
-1.43061e-06
-1.08483e-08
-1.41784e-06
-1.27009e-08
-1.40318e-06
-1.46014e-08
-1.38658e-06
-1.65443e-08
-1.36802e-06
-1.8522e-08
-1.34745e-06
-2.05286e-08
-1.32486e-06
-2.25531e-08
-1.30023e-06
-2.45886e-08
-1.27356e-06
-2.6622e-08
-1.24486e-06
-2.86442e-08
-1.21415e-06
-3.06417e-08
-1.18147e-06
-3.26033e-08
-1.14686e-06
-3.45164e-08
-1.11041e-06
-3.63608e-08
-1.07217e-06
-3.81394e-08
-1.03223e-06
-3.98287e-08
-9.90699e-07
-4.14125e-08
-9.47702e-07
-4.28744e-08
-9.03396e-07
-4.41845e-08
-8.5792e-07
-4.5356e-08
-8.1143e-07
-4.63807e-08
-7.64081e-07
-4.72329e-08
-7.16039e-07
-4.79047e-08
-6.67485e-07
-4.83817e-08
-6.18629e-07
-4.8674e-08
-5.69661e-07
-4.87749e-08
-5.20795e-07
-4.87055e-08
-4.72197e-07
-4.84549e-08
-4.24061e-07
-4.80465e-08
-3.76527e-07
-4.74685e-08
-3.29772e-07
-4.67479e-08
-2.83915e-07
-4.58764e-08
-2.3911e-07
-4.48829e-08
-1.95454e-07
-4.37597e-08
-1.53075e-07
-4.25369e-08
-1.12061e-07
-4.11956e-08
-7.24928e-08
-3.97945e-08
-3.4356e-08
-3.83788e-08
2.31797e-09
-3.69443e-08
3.7607e-08
-3.55569e-08
7.1338e-08
-3.40004e-08
1.03261e-07
-3.21732e-08
1.33326e-07
-3.02962e-08
1.61555e-07
-2.84291e-08
1.87978e-07
-2.65953e-08
2.12642e-07
-2.48106e-08
2.35598e-07
-2.30804e-08
2.56908e-07
-2.14144e-08
2.76635e-07
-1.98133e-08
2.9485e-07
-1.8285e-08
3.11625e-07
-1.68291e-08
3.27039e-07
-1.54535e-08
3.41171e-07
-1.41578e-08
3.54108e-07
-1.2949e-08
3.65934e-07
-1.18262e-08
3.76742e-07
-1.07958e-08
3.86621e-07
-9.85693e-09
3.95668e-07
-9.01449e-09
4.03974e-07
-8.26552e-09
4.11633e-07
-7.60911e-09
4.1872e-07
-7.03265e-09
4.25337e-07
-6.55398e-09
4.31596e-07
-6.19199e-09
4.37615e-07
-5.94585e-09
4.43498e-07
-5.8078e-09
4.49354e-07
-5.77633e-09
4.5528e-07
-5.84558e-09
4.61377e-07
-6.01267e-09
4.6773e-07
-6.27029e-09
4.74429e-07
-6.61287e-09
4.81541e-07
-7.02958e-09
4.89135e-07
-7.50877e-09
4.97249e-07
-8.03222e-09
5.0591e-07
-8.57701e-09
5.15096e-07
-9.10671e-09
5.24744e-07
-9.56608e-09
5.3468e-07
-9.85623e-09
5.44553e-07
-9.79216e-09
5.53562e-07
-8.93053e-09
5.59848e-07
-6.21052e-09
5.58135e-07
1.77846e-09
2.58038e-08
5.32376e-07
6.73238e-09
-1.27736e-08
1.1715e-08
-1.40014e-08
1.37738e-08
-1.05564e-08
1.34579e-08
-6.2397e-09
1.12624e-08
-1.82196e-09
7.46553e-09
2.42433e-09
2.22462e-09
6.34186e-09
-4.3989e-09
9.8397e-09
-1.23585e-08
1.2884e-08
-2.15998e-08
1.54953e-08
-3.20398e-08
1.77329e-08
-4.36143e-08
1.96745e-08
-5.62385e-08
2.14016e-08
-6.98208e-08
2.29895e-08
-8.42913e-08
2.44986e-08
-9.96223e-08
2.59741e-08
-1.15773e-07
2.74455e-08
-1.32721e-07
2.89262e-08
-1.50428e-07
3.04167e-08
-1.6887e-07
3.19083e-08
-1.87998e-07
3.33874e-08
-2.07778e-07
3.48375e-08
-2.28149e-07
3.62423e-08
-2.49063e-07
3.75868e-08
-2.70449e-07
3.88574e-08
-2.92257e-07
4.00413e-08
-3.14413e-07
4.11263e-08
-3.36868e-07
4.2105e-08
-3.5955e-07
4.29748e-08
-3.82414e-07
4.37361e-08
-4.05399e-07
4.43917e-08
-4.28473e-07
4.49464e-08
-4.51585e-07
4.5407e-08
-4.74713e-07
4.57811e-08
-4.97819e-07
4.6077e-08
-5.2089e-07
4.6303e-08
-5.43896e-07
4.64666e-08
-5.66829e-07
4.65753e-08
-5.89664e-07
4.66373e-08
-6.12403e-07
4.66596e-08
-6.35023e-07
4.66486e-08
-6.57534e-07
4.66097e-08
-6.79919e-07
4.65482e-08
-7.02189e-07
4.64676e-08
-7.24331e-07
4.63708e-08
-7.46356e-07
4.62595e-08
-7.68248e-07
4.61352e-08
-7.90018e-07
4.5998e-08
-8.11649e-07
4.5848e-08
-8.3315e-07
4.56839e-08
-8.54505e-07
4.5505e-08
-8.75718e-07
4.53096e-08
-8.96769e-07
4.50967e-08
-9.17662e-07
4.48639e-08
-9.38376e-07
4.46095e-08
-9.58911e-07
4.43305e-08
-9.79243e-07
4.40249e-08
-9.99371e-07
4.36893e-08
-1.01927e-06
4.33215e-08
-1.03894e-06
4.29177e-08
-1.05835e-06
4.24774e-08
-1.07751e-06
4.19984e-08
-1.09639e-06
4.14815e-08
-1.11499e-06
4.09267e-08
-1.13328e-06
4.03372e-08
-1.15128e-06
3.97147e-08
-1.16893e-06
3.90635e-08
-1.18622e-06
3.83794e-08
-1.2031e-06
3.76574e-08
-1.21955e-06
3.68897e-08
-1.23553e-06
3.60718e-08
-1.25103e-06
3.51962e-08
-1.26601e-06
3.426e-08
-1.28043e-06
3.32565e-08
-1.29427e-06
3.21838e-08
-1.30749e-06
3.10361e-08
-1.32006e-06
2.98126e-08
-1.33193e-06
2.85067e-08
-1.34305e-06
2.71156e-08
-1.3534e-06
2.5631e-08
-1.36292e-06
2.40498e-08
-1.37156e-06
2.23627e-08
-1.37928e-06
2.05661e-08
-1.38604e-06
1.86511e-08
-1.39178e-06
1.66163e-08
-1.39646e-06
1.44566e-08
-1.40005e-06
1.21741e-08
-1.40253e-06
9.76643e-09
-1.40388e-06
7.24264e-09
-1.40413e-06
4.60709e-09
-1.40332e-06
1.87992e-09
-1.40145e-06
-9.26463e-10
-1.39836e-06
-3.8277e-09
-1.39385e-06
-6.84055e-09
-1.3878e-06
-9.9664e-09
-1.38015e-06
-1.32055e-08
-1.37084e-06
-1.65605e-08
-1.35982e-06
-2.00279e-08
-1.34702e-06
-2.36049e-08
-1.33239e-06
-2.72831e-08
-1.31591e-06
-3.10547e-08
-1.29752e-06
-3.49079e-08
-1.27719e-06
-3.88299e-08
-1.2549e-06
-4.28059e-08
-1.23061e-06
-4.68178e-08
-1.20433e-06
-5.08479e-08
-1.17605e-06
-5.48739e-08
-1.14579e-06
-5.88745e-08
-1.11356e-06
-6.28238e-08
-1.07942e-06
-6.66977e-08
-1.04342e-06
-7.04673e-08
-1.00562e-06
-7.41043e-08
-9.6611e-07
-7.75838e-08
-9.25001e-07
-8.08755e-08
-8.82393e-07
-8.3951e-08
-8.38431e-07
-8.67698e-08
-7.93256e-07
-8.92884e-08
-7.47042e-07
-9.15074e-08
-6.99949e-07
-9.34129e-08
-6.52151e-07
-9.49689e-08
-6.03821e-07
-9.61533e-08
-5.55157e-07
-9.69528e-08
-5.06355e-07
-9.73689e-08
-4.57627e-07
-9.74053e-08
-4.09164e-07
-9.70785e-08
-3.61155e-07
-9.63953e-08
-3.13772e-07
-9.53775e-08
-2.67178e-07
-9.40342e-08
-2.21521e-07
-9.23943e-08
-1.76938e-07
-9.04707e-08
-1.33552e-07
-8.82979e-08
-9.14738e-08
-8.58863e-08
-5.07923e-08
-8.32828e-08
-1.15442e-08
-8.05227e-08
2.62219e-08
-7.76511e-08
6.2405e-08
-7.46598e-08
9.69062e-08
-7.15495e-08
1.29586e-07
-6.83426e-08
1.60468e-07
-6.49892e-08
1.89692e-07
-6.14991e-08
2.1728e-07
-5.79786e-08
2.43252e-07
-5.44823e-08
2.67632e-07
-5.10474e-08
2.90457e-07
-4.76956e-08
3.11769e-07
-4.44459e-08
3.31622e-07
-4.13102e-08
3.50073e-07
-3.83016e-08
3.67187e-07
-3.54274e-08
3.83034e-07
-3.26988e-08
3.97688e-07
-3.01217e-08
4.11228e-07
-2.77069e-08
4.23737e-07
-2.54583e-08
4.353e-07
-2.33859e-08
4.46008e-07
-2.14919e-08
4.55952e-07
-1.97856e-08
4.65228e-07
-1.82665e-08
4.73929e-07
-1.69411e-08
4.82156e-07
-1.58025e-08
4.9001e-07
-1.48516e-08
4.97593e-07
-1.40947e-08
5.04997e-07
-1.35537e-08
5.12323e-07
-1.32235e-08
5.19669e-07
-1.3105e-08
5.27133e-07
-1.31866e-08
5.34807e-07
-1.34665e-08
5.42781e-07
-1.39294e-08
5.51136e-07
-1.45693e-08
5.59948e-07
-1.53656e-08
5.6928e-07
-1.63041e-08
5.79185e-07
-1.73529e-08
5.89694e-07
-1.84833e-08
6.00821e-07
-1.96428e-08
6.1254e-07
-2.07671e-08
6.24778e-07
-2.17422e-08
6.37369e-07
-2.23869e-08
6.50006e-07
-2.23662e-08
6.62073e-07
-2.09379e-08
6.72656e-07
-1.67323e-08
6.80431e-07
-5.94472e-09
2.18104e-08
6.84466e-07
2.64403e-09
-1.54353e-08
1.76332e-09
-1.31436e-08
-1.42521e-09
-7.38128e-09
-6.15605e-09
-1.52036e-09
-1.20467e-08
4.06004e-09
-1.8923e-08
9.29147e-09
-2.67227e-08
1.41341e-08
-3.54497e-08
1.85581e-08
-4.5126e-08
2.25532e-08
-5.57758e-08
2.61365e-08
-6.74002e-08
2.93504e-08
-7.99878e-08
3.22535e-08
-9.3503e-08
3.49102e-08
-1.07903e-07
3.73814e-08
-1.2313e-07
3.97193e-08
-1.39127e-07
4.19633e-08
-1.55826e-07
4.41391e-08
-1.73166e-07
4.62588e-08
-1.91078e-07
4.83235e-08
-2.09503e-07
5.03259e-08
-2.28374e-07
5.22538e-08
-2.47636e-07
5.40922e-08
-2.67224e-07
5.58249e-08
-2.87082e-07
5.74368e-08
-3.07146e-07
5.89156e-08
-3.27368e-07
6.0254e-08
-3.47697e-07
6.14492e-08
-3.68102e-07
6.25008e-08
-3.88544e-07
6.34109e-08
-4.09001e-07
6.41842e-08
-4.29443e-07
6.48279e-08
-4.49857e-07
6.53511e-08
-4.70219e-07
6.57642e-08
-4.90524e-07
6.60781e-08
-5.10756e-07
6.6304e-08
-5.30913e-07
6.64528e-08
-5.50985e-07
6.65344e-08
-5.70974e-07
6.65578e-08
-5.90873e-07
6.65321e-08
-6.10685e-07
6.64654e-08
-6.30405e-07
6.6365e-08
-6.50038e-07
6.62368e-08
-6.69579e-07
6.6086e-08
-6.89032e-07
6.59163e-08
-7.08393e-07
6.573e-08
-7.27665e-07
6.55284e-08
-7.46843e-07
6.53119e-08
-7.65928e-07
6.50801e-08
-7.84912e-07
6.4832e-08
-8.03798e-07
6.4566e-08
-8.22575e-07
6.42802e-08
-8.41241e-07
6.39721e-08
-8.59787e-07
6.36396e-08
-8.78208e-07
6.32797e-08
-8.96491e-07
6.28894e-08
-9.14631e-07
6.24654e-08
-9.32615e-07
6.20046e-08
-9.50435e-07
6.15035e-08
-9.68076e-07
6.09588e-08
-9.85532e-07
6.03674e-08
-1.00279e-06
5.97272e-08
-1.01983e-06
5.90362e-08
-1.03664e-06
5.82934e-08
-1.05322e-06
5.74978e-08
-1.06953e-06
5.66492e-08
-1.08557e-06
5.57465e-08
-1.10129e-06
5.47879e-08
-1.11668e-06
5.3769e-08
-1.13171e-06
5.26844e-08
-1.14634e-06
5.15276e-08
-1.16056e-06
5.02928e-08
-1.17433e-06
4.89737e-08
-1.18763e-06
4.75647e-08
-1.20043e-06
4.60599e-08
-1.21269e-06
4.44544e-08
-1.22439e-06
4.27427e-08
-1.2355e-06
4.09205e-08
-1.24596e-06
3.89815e-08
-1.25576e-06
3.69196e-08
-1.26485e-06
3.47273e-08
-1.27318e-06
3.23982e-08
-1.28073e-06
2.99246e-08
-1.28745e-06
2.73002e-08
-1.2933e-06
2.45185e-08
-1.29824e-06
2.15765e-08
-1.30224e-06
1.84714e-08
-1.30524e-06
1.52039e-08
-1.30722e-06
1.17762e-08
-1.30814e-06
8.18985e-09
-1.30794e-06
4.45128e-09
-1.30657e-06
5.57414e-10
-1.30396e-06
-3.49977e-09
-1.30002e-06
-7.73614e-09
-1.29466e-06
-1.21625e-08
-1.28783e-06
-1.67728e-08
-1.27944e-06
-2.15644e-08
-1.26944e-06
-2.65307e-08
-1.25778e-06
-3.16672e-08
-1.2444e-06
-3.69644e-08
-1.22926e-06
-4.2412e-08
-1.21231e-06
-4.79963e-08
-1.1935e-06
-5.37003e-08
-1.17282e-06
-5.95053e-08
-1.15024e-06
-6.53876e-08
-1.12572e-06
-7.13227e-08
-1.09928e-06
-7.72808e-08
-1.0709e-06
-8.32314e-08
-1.04061e-06
-8.91396e-08
-1.00844e-06
-9.49686e-08
-9.7443e-07
-1.00679e-07
-9.38633e-07
-1.06228e-07
-9.01126e-07
-1.11572e-07
-8.62001e-07
-1.16666e-07
-8.21366e-07
-1.21467e-07
-7.79338e-07
-1.25933e-07
-7.36053e-07
-1.30009e-07
-6.91658e-07
-1.33639e-07
-6.46329e-07
-1.36797e-07
-6.00233e-07
-1.39468e-07
-5.53546e-07
-1.41612e-07
-5.06444e-07
-1.43196e-07
-4.59122e-07
-1.44207e-07
-4.11774e-07
-1.44642e-07
-3.64601e-07
-1.44512e-07
-3.17785e-07
-1.43832e-07
-2.71512e-07
-1.42624e-07
-2.25941e-07
-1.40911e-07
-1.81233e-07
-1.38725e-07
-1.37519e-07
-1.36097e-07
-9.4935e-08
-1.33063e-07
-5.35829e-08
-1.29666e-07
-1.35469e-08
-1.25954e-07
2.50988e-08
-1.21967e-07
6.22604e-08
-1.17735e-07
9.78516e-08
-1.13297e-07
1.31818e-07
-1.0869e-07
1.64146e-07
-1.03942e-07
1.94811e-07
-9.90751e-08
2.23843e-07
-9.40873e-08
2.51299e-07
-8.90182e-08
2.77207e-07
-8.39429e-08
3.01594e-07
-7.89174e-08
3.24492e-07
-7.39848e-08
3.4594e-07
-6.9176e-08
3.65985e-07
-6.45171e-08
3.84681e-07
-6.00275e-08
4.02088e-07
-5.57258e-08
4.18273e-07
-5.16256e-08
4.33307e-07
-4.77421e-08
4.47265e-07
-4.40867e-08
4.60227e-07
-4.06726e-08
4.72276e-07
-3.75091e-08
4.83499e-07
-3.46075e-08
4.93985e-07
-3.19748e-08
5.03825e-07
-2.96202e-08
5.13112e-07
-2.75475e-08
5.21941e-07
-2.57621e-08
5.30409e-07
-2.42621e-08
5.38617e-07
-2.30489e-08
5.46661e-07
-2.21288e-08
5.54634e-07
-2.15146e-08
5.62627e-07
-2.12052e-08
5.70733e-07
-2.11977e-08
5.7904e-07
-2.14817e-08
5.87634e-07
-2.20482e-08
5.96598e-07
-2.28806e-08
6.06004e-07
-2.39629e-08
6.1592e-07
-2.52702e-08
6.26403e-07
-2.67745e-08
6.37495e-07
-2.84345e-08
6.49225e-07
-3.02014e-08
6.61596e-07
-3.20037e-08
6.74582e-07
-3.37427e-08
6.8811e-07
-3.52616e-08
7.02041e-07
-3.63074e-08
7.16128e-07
-3.64431e-08
7.29995e-07
-3.47945e-08
7.43158e-07
-2.98847e-08
7.55504e-07
-1.82844e-08
8.01517e-09
7.69299e-07
-2.20827e-09
-1.32415e-08
-7.69196e-09
-7.67725e-09
-1.44884e-08
-5.94702e-10
-2.20845e-08
6.0672e-09
-3.03063e-08
1.22755e-08
-3.91018e-08
1.80801e-08
-4.84719e-08
2.34986e-08
-5.8452e-08
2.85315e-08
-6.90853e-08
3.31811e-08
-8.04165e-08
3.7461e-08
-9.24704e-08
4.13989e-08
-1.05257e-07
4.50331e-08
-1.18759e-07
4.84072e-08
-1.32948e-07
5.1564e-08
-1.47774e-07
5.45409e-08
-1.63183e-07
5.73669e-08
-1.79109e-07
6.00612e-08
-1.9549e-07
6.26336e-08
-2.12255e-07
6.50855e-08
-2.29347e-07
6.74123e-08
-2.46702e-07
6.96052e-08
-2.64268e-07
7.16536e-08
-2.81994e-07
7.35471e-08
-2.9984e-07
7.52771e-08
-3.17766e-07
7.6838e-08
-3.35746e-07
7.82283e-08
-3.53751e-07
7.94497e-08
-3.71762e-07
8.05063e-08
-3.89761e-07
8.14049e-08
-4.07737e-07
8.2154e-08
-4.25678e-07
8.27641e-08
-4.4358e-07
8.32467e-08
-4.61434e-07
8.36138e-08
-4.7924e-07
8.38778e-08
-4.96991e-07
8.4051e-08
-5.14689e-07
8.41452e-08
-5.3233e-07
8.41713e-08
-5.49918e-07
8.414e-08
-5.6745e-07
8.40605e-08
-5.84931e-07
8.3941e-08
-6.02358e-07
8.37882e-08
-6.19734e-07
8.36081e-08
-6.37055e-07
8.34049e-08
-6.54325e-07
8.3182e-08
-6.71538e-07
8.29411e-08
-6.88695e-07
8.26831e-08
-7.05792e-07
8.24077e-08
-7.22827e-07
8.21138e-08
-7.39795e-07
8.17996e-08
-7.56694e-07
8.14628e-08
-7.73515e-07
8.11008e-08
-7.90255e-07
8.07103e-08
-8.06905e-07
8.02883e-08
-8.23458e-07
7.9831e-08
-8.39905e-07
7.93348e-08
-8.56238e-07
7.87956e-08
-8.72445e-07
7.82096e-08
-8.88518e-07
7.75728e-08
-9.04444e-07
7.68812e-08
-9.20212e-07
7.61313e-08
-9.35808e-07
7.53198e-08
-9.5122e-07
7.44437e-08
-9.6643e-07
7.35003e-08
-9.81423e-07
7.24871e-08
-9.96178e-07
7.14015e-08
-1.01067e-06
7.02403e-08
-1.02489e-06
6.89995e-08
-1.03879e-06
6.7674e-08
-1.05237e-06
6.6258e-08
-1.06558e-06
6.47449e-08
-1.07841e-06
6.31285e-08
-1.09084e-06
6.14018e-08
-1.10283e-06
5.95584e-08
-1.11435e-06
5.75915e-08
-1.12539e-06
5.54945e-08
-1.1359e-06
5.3261e-08
-1.14586e-06
5.08844e-08
-1.15523e-06
4.83574e-08
-1.16397e-06
4.56726e-08
-1.17206e-06
4.28216e-08
-1.17945e-06
3.97965e-08
-1.1861e-06
3.65891e-08
-1.19198e-06
3.31917e-08
-1.19705e-06
2.95975e-08
-1.20126e-06
2.58011e-08
-1.20457e-06
2.17989e-08
-1.20694e-06
1.75882e-08
-1.20831e-06
1.31671e-08
-1.20863e-06
8.53523e-09
-1.20784e-06
3.68468e-09
-1.20587e-06
-1.38631e-09
-1.20266e-06
-6.6922e-09
-1.19813e-06
-1.22424e-08
-1.19224e-06
-1.80421e-08
-1.18491e-06
-2.40878e-08
-1.17609e-06
-3.03745e-08
-1.16571e-06
-3.68943e-08
-1.15373e-06
-4.36383e-08
-1.1401e-06
-5.05944e-08
-1.12476e-06
-5.77476e-08
-1.10768e-06
-6.50799e-08
-1.08881e-06
-7.25686e-08
-1.06813e-06
-8.01887e-08
-1.04561e-06
-8.79088e-08
-1.02123e-06
-9.56963e-08
-9.94994e-07
-1.03511e-07
-9.66898e-07
-1.11314e-07
-9.36963e-07
-1.19057e-07
-9.05219e-07