/*--------------------------------*- C++ -*----------------------------------*\
| =========                 |                                                 |
| \\      /  F ield         | OpenFOAM: The Open Source CFD Toolbox           |
|  \\    /   O peration     | Version:  2312                                  |
|   \\  /    A nd           | Website:  www.openfoam.com                      |
|    \\/     M anipulation  |                                                 |
\*---------------------------------------------------------------------------*/
FoamFile
{
    version     2.0;
    format      ascii;
    arch        "LSB;label=32;scalar=64";
    class       surfaceScalarField;
    location    "150";
    object      phi;
}
// * * * * * * * * * * * * * * * * * * * * * * * * * * * * * * * * * * * * * //

dimensions      [0 3 -1 0 0 0 0];

oriented        oriented;

internalField   nonuniform List<scalar> 
24170
(
2.95996e-07
2.28445e-08
2.5558e-07
4.04165e-08
2.24715e-07
3.0864e-08
1.99826e-07
2.48894e-08
1.82385e-07
1.74409e-08
1.70931e-07
1.14541e-08
1.63106e-07
7.82534e-09
1.57291e-07
5.81483e-09
1.52684e-07
4.60661e-09
1.48929e-07
3.75471e-09
1.45858e-07
3.07156e-09
1.43386e-07
2.4715e-09
1.41488e-07
1.89834e-09
1.40195e-07
1.29312e-09
1.39609e-07
5.85555e-10
1.39989e-07
-3.79594e-10
1.41624e-07
-1.63573e-09
-8.13943e-09
1.49764e-07
3.52298e-07
1.22713e-08
3.41645e-07
5.10693e-08
3.2506e-07
4.74489e-08
3.09579e-07
4.03706e-08
2.95819e-07
3.1201e-08
2.8451e-07
2.27623e-08
2.75579e-07
1.67568e-08
2.6854e-07
1.28538e-08
2.6292e-07
1.02263e-08
2.58374e-07
8.30065e-09
2.54677e-07
6.7687e-09
2.51696e-07
5.45248e-09
2.49369e-07
4.22515e-09
2.47693e-07
2.96862e-09
2.46747e-07
1.53123e-09
2.46723e-07
-3.55122e-10
2.48309e-07
-3.2228e-09
-9.74666e-09
2.49916e-07
3.66866e-07
1.1657e-08
3.70225e-07
4.77101e-08
3.66881e-07
5.07926e-08
3.60969e-07
4.62827e-08
3.53571e-07
3.85993e-08
3.45991e-07
3.03419e-08
3.39124e-07
2.36241e-08
3.33264e-07
1.87136e-08
3.28387e-07
1.51039e-08
3.24364e-07
1.23233e-08
3.2107e-07
1.00631e-08
3.18411e-07
8.11128e-09
3.16335e-07
6.30114e-09
3.14826e-07
4.47769e-09
3.1391e-07
2.44703e-09
3.13645e-07
-8.97693e-11
3.14042e-07
-3.61999e-09
-9.28487e-09
3.1358e-07
3.92617e-07
1.15788e-08
3.97383e-07
4.29436e-08
3.98502e-07
4.96739e-08
3.9699e-07
4.7795e-08
3.93493e-07
4.20957e-08
3.88932e-07
3.49034e-08
3.84191e-07
2.83648e-08
3.79783e-07
2.31213e-08
3.75908e-07
1.89786e-08
3.72602e-07
1.56292e-08
3.6984e-07
1.28257e-08
3.67583e-07
1.03681e-08
3.65801e-07
8.08258e-09
3.64476e-07
5.80317e-09
3.63589e-07
3.33345e-09
3.63088e-07
4.11793e-10
3.62747e-07
-3.27965e-09
-8.17997e-09
3.61642e-07
4.21387e-07
1.09046e-08
4.25871e-07
3.84596e-08
4.2861e-07
4.69346e-08
4.29335e-07
4.70701e-08
4.28263e-07
4.31674e-08
4.25906e-07
3.72604e-08
4.22944e-07
3.13272e-08
4.19887e-07
2.61783e-08
4.17016e-07
2.18492e-08
4.14458e-07
1.81872e-08
4.12259e-07
1.50256e-08
4.10425e-07
1.22013e-08
4.08951e-07
9.55676e-09
4.07818e-07
6.93672e-09
4.06983e-07
4.16836e-09
4.06341e-07
1.05377e-09
4.05639e-07
-2.57724e-09
-6.83425e-09
4.04293e-07
4.51784e-07
1.00296e-08
4.55969e-07
3.42739e-08
4.59428e-07
4.3476e-08
4.61442e-07
4.50562e-08
4.61965e-07
4.26446e-08
4.6123e-07
3.79951e-08
4.59714e-07
3.28426e-08
4.57854e-07
2.80386e-08
4.55935e-07
2.3768e-08
4.54121e-07
2.00009e-08
4.52499e-07
1.66477e-08
4.51109e-07
1.35918e-08
4.4996e-07
1.07056e-08
4.49037e-07
7.85908e-09
4.4829e-07
4.91621e-09
4.47599e-07
1.7445e-09
4.46743e-07
-1.7214e-09
-5.4407e-09
4.45349e-07
4.84145e-07
9.1568e-09
4.88082e-07
3.0337e-08
4.91865e-07
3.96929e-08
4.9465e-07
4.22714e-08
4.96248e-07
4.10465e-08
4.96718e-07
3.75248e-08
4.96372e-07
3.3189e-08
4.9555e-07
2.886e-08
4.94509e-07
2.48091e-08
4.93416e-07
2.10942e-08
4.92374e-07
1.76899e-08
4.9144e-07
1.45257e-08
4.90636e-07
1.151e-08
4.8995e-07
8.54492e-09
4.89331e-07
5.53531e-09
4.8867e-07
2.40511e-09
4.87794e-07
-8.44993e-10
-4.11864e-09
4.86472e-07
5.1881e-07
8.30494e-09
5.22488e-07
2.66593e-08
5.26379e-07
3.58018e-08
5.29623e-07
3.90273e-08
5.31954e-07
3.8715e-08
5.33324e-07
3.61552e-08
5.33916e-07
3.25963e-08
5.33983e-07
2.87932e-08
5.33733e-07
2.50587e-08
5.3332e-07
2.1508e-08
5.32845e-07
1.81646e-08
5.32372e-07
1.4999e-08
5.31926e-07
1.19551e-08
5.31502e-07
8.96918e-09
5.31053e-07
5.98398e-09
5.30491e-07
2.96743e-09
5.2969e-07
-4.39329e-11
-2.94568e-09
5.28517e-07
5.55981e-07
7.45801e-09
5.59387e-07
2.32529e-08
5.63261e-07
3.19283e-08
5.6677e-07
3.55182e-08
5.69603e-07
3.58817e-08
5.71645e-07
3.41136e-08
5.72986e-07
3.12544e-08
5.73802e-07
2.79781e-08
5.74251e-07
2.46093e-08
5.74462e-07
2.12969e-08
5.74528e-07
1.80991e-08
5.74507e-07
1.50198e-08
5.74427e-07
1.2035e-08
5.74284e-07
9.11192e-09
5.74043e-07
6.22548e-09
5.73636e-07
3.37446e-09
5.72981e-07
6.10578e-10
-1.97343e-09
5.72009e-07
5.95823e-07
6.61286e-09
5.98964e-07
2.01116e-08
6.02747e-07
2.8145e-08
6.06395e-07
3.18704e-08
6.09569e-07
3.27077e-08
6.12112e-07
3.1571e-08
6.14048e-07
2.93184e-08
6.15485e-07
2.65401e-08
6.16541e-07
2.35534e-08
6.17315e-07
2.05235e-08
6.17882e-07
1.75315e-08
6.18295e-07
1.46071e-08
6.18578e-07
1.17523e-08
6.18729e-07
8.96034e-09
6.18724e-07
6.23053e-09
6.18517e-07
3.58124e-09
6.18061e-07
1.06684e-09
-1.23778e-09
6.17326e-07
6.38519e-07
5.77462e-09
6.41407e-07
1.72236e-08
6.4506e-07
2.44926e-08
6.48761e-07
2.81692e-08
6.5216e-07
2.93088e-08
6.55074e-07
2.86571e-08
6.57478e-07
2.69147e-08
6.59428e-07
2.45896e-08
6.61002e-07
2.19794e-08
6.62272e-07
1.9254e-08
6.63295e-07
1.65079e-08
6.64114e-07
1.37886e-08
6.64748e-07
1.11183e-08
6.65198e-07
8.50973e-09
6.6545e-07
5.97914e-09
6.65475e-07
3.55546e-09
6.65253e-07
1.28899e-09
-7.62393e-10
6.64778e-07
5.74786e-07
5.07176e-09
5.77033e-07
1.49769e-08
5.80003e-07
2.15224e-08
5.83128e-07
2.50447e-08
5.86108e-07
2.63288e-08
5.88779e-07
2.59856e-08
5.91092e-07
2.46022e-08
5.93062e-07
2.26197e-08
5.94728e-07
2.03132e-08
5.96132e-07
1.78497e-08
5.9731e-07
1.53294e-08
5.98289e-07
1.281e-08
5.99082e-07
1.03256e-08
5.99691e-07
7.90078e-09
6.00109e-07
5.56091e-09
6.00326e-07
3.33883e-09
6.00335e-07
1.27954e-09
-5.73696e-10
6.00147e-07
7.00586e-07
4.30085e-09
7.02985e-07
1.25781e-08
7.06234e-07
1.82741e-08
7.09768e-07
2.151e-08
7.13254e-07
2.28432e-08
7.1649e-07
2.27497e-08
7.19394e-07
2.16982e-08
7.21955e-07
2.00588e-08
7.24191e-07
1.80766e-08
7.26131e-07
1.59094e-08
7.27802e-07
1.36584e-08
7.29225e-07
1.13876e-08
7.30411e-07
9.13996e-09
7.31363e-07
6.94833e-09
7.3208e-07
4.84374e-09
7.3256e-07
2.85955e-09
7.32806e-07
1.03326e-09
-6.02999e-10
7.32835e-07
8.53913e-07
3.47239e-09
8.56424e-07
1.00668e-08
8.59915e-07
1.47835e-08
8.63838e-07
1.75874e-08
8.67832e-07
1.88488e-08
8.71663e-07
1.89185e-08
8.75212e-07
1.81491e-08
8.78436e-07
1.68352e-08
8.81327e-07
1.51851e-08
8.83896e-07
1.33406e-08
8.86157e-07
1.13978e-08
8.88122e-07
9.42247e-09
8.89801e-07
7.46139e-09
8.91197e-07
5.55156e-09
8.92316e-07
3.72549e-09
8.93161e-07
2.01408e-09
8.93748e-07
4.46807e-10
-9.53317e-10
8.94098e-07
1.0408e-06
2.59917e-09
1.04337e-06
7.48742e-09
1.04706e-06
1.10961e-08
1.05133e-06
1.3315e-08
1.05582e-06
1.43647e-08
1.06025e-06
1.44861e-08
1.06448e-06
1.3925e-08
1.06841e-06
1.28991e-08
1.07202e-06
1.15734e-08
1.0753e-06
1.00661e-08
1.07823e-06
8.4618e-09
1.08083e-06
6.82158e-09
1.0831e-06
5.19101e-09
1.08505e-06
3.60605e-09
1.08668e-06
2.09694e-09
1.088e-06
6.89688e-10
1.08904e-06
-5.9381e-10
-1.73793e-09
1.08983e-06
1.26858e-06
1.69457e-09
1.2712e-06
4.86601e-09
1.27505e-06
7.25026e-09
1.27963e-06
8.73109e-09
1.28458e-06
9.41994e-09
1.2896e-06
9.46441e-09
1.29451e-06
9.01803e-09
1.29918e-06
8.22403e-09
1.30356e-06
7.19838e-09
1.3076e-06
6.02888e-09
1.31128e-06
4.78134e-09
1.31459e-06
3.50551e-09
1.31754e-06
2.23963e-09
1.32014e-06
1.01402e-09
1.32238e-06
-1.46821e-10
1.32429e-06
-1.22315e-09
1.3259e-06
-2.19996e-09
-3.06731e-09
1.32723e-06
1.54625e-06
7.59621e-10
1.54893e-06
2.18595e-09
1.55295e-06
3.2368e-09
1.55785e-06
3.83208e-09
1.56325e-06
4.01312e-09
1.56887e-06
3.84979e-09
1.57447e-06
3.4172e-09
1.5799e-06
2.789e-09
1.58507e-06
2.02867e-09
1.58991e-06
1.18702e-09
1.59439e-06
3.04154e-10
1.59849e-06
-5.88145e-10
1.60219e-06
-1.46451e-09
1.60551e-06
-2.30457e-09
1.60845e-06
-3.09205e-09
1.61104e-06
-3.81439e-09
1.61331e-06
-4.46265e-09
-5.03147e-09
1.61527e-06
1.88476e-06
-2.36122e-10
1.8876e-06
-6.58152e-10
1.89192e-06
-1.07819e-09
1.89727e-06
-1.51796e-09
1.90326e-06
-1.97922e-09
1.90957e-06
-2.46187e-09
1.91595e-06
-2.96302e-09
1.92222e-06
-3.47672e-09
1.92824e-06
-3.9958e-09
1.93394e-06
-4.51268e-09
1.93927e-06
-5.0193e-09
1.94419e-06
-5.50747e-09
1.94869e-06
-5.96922e-09
1.95278e-06
-6.39722e-09
1.95648e-06
-6.78511e-09
1.95979e-06
-7.12787e-09
1.96275e-06
-7.42208e-09
-7.66632e-09
1.96538e-06
2.29748e-06
-1.37907e-09
2.30078e-06
-3.95732e-09
2.30581e-06
-6.10839e-09
2.31206e-06
-7.76983e-09
2.31907e-06
-8.98809e-09
2.32645e-06
-9.8472e-09
2.33392e-06
-1.04293e-08
2.34125e-06
-1.08084e-08
2.3483e-06
-1.10455e-08
2.35497e-06
-1.11855e-08
2.36121e-06
-1.12589e-08
2.36699e-06
-1.12856e-08
2.3723e-06
-1.1278e-08
2.37714e-06
-1.12431e-08
2.38154e-06
-1.1185e-08
2.38552e-06
-1.11055e-08
2.38911e-06
-1.10059e-08
-1.0887e-08
2.39233e-06
1.68198e-06
-2.2839e-09
1.68461e-06
-6.59331e-09
1.68861e-06
-1.01091e-08
1.69351e-06
-1.26646e-08
1.6989e-06
-1.43768e-08
1.70447e-06
-1.54222e-08
1.71e-06
-1.59632e-08
1.71534e-06
-1.61479e-08
1.72039e-06
-1.60962e-08
1.7251e-06
-1.58947e-08
1.72945e-06
-1.56017e-08
1.73342e-06
-1.52564e-08
1.73702e-06
-1.48835e-08
1.74028e-06
-1.44986e-08
1.7432e-06
-1.41104e-08
1.74582e-06
-1.37239e-08
1.74816e-06
-1.33415e-08
-1.29647e-08
1.75024e-06
1.4643e-06
-3.132e-09
1.46694e-06
-9.23323e-09
1.47093e-06
-1.40966e-08
1.47569e-06
-1.74214e-08
1.48079e-06
-1.94753e-08
1.48592e-06
-2.05535e-08
1.49087e-06
-2.09128e-08
1.49551e-06
-2.07902e-08
1.49978e-06
-2.037e-08
1.50367e-06
-1.9777e-08
1.50716e-06
-1.9093e-08
1.51027e-06
-1.83712e-08
1.51303e-06
-1.76445e-08
1.51547e-06
-1.69323e-08
1.5176e-06
-1.6245e-08
1.51947e-06
-1.55875e-08
1.52108e-06
-1.49614e-08
-1.43666e-08
1.52249e-06
1.27475e-06
-3.86451e-09
1.27747e-06
-1.19618e-08
1.28157e-06
-1.81905e-08
1.28628e-06
-2.21347e-08
1.29116e-06
-2.43546e-08
1.29589e-06
-2.52816e-08
1.30026e-06
-2.52857e-08
1.30419e-06
-2.47175e-08
1.30765e-06
-2.38312e-08
1.31066e-06
-2.27857e-08
1.31324e-06
-2.16796e-08
1.31545e-06
-2.05743e-08
1.31731e-06
-1.9505e-08
1.31887e-06
-1.84898e-08
1.32016e-06
-1.75369e-08
1.32122e-06
-1.66474e-08
1.32208e-06
-1.58196e-08
-1.50502e-08
1.32276e-06
1.1096e-06
-4.3735e-09
1.11247e-06
-1.48324e-08
1.11672e-06
-2.24401e-08
1.1214e-06
-2.68088e-08
1.12603e-06
-2.8986e-08
1.13028e-06
-2.9535e-08
1.13397e-06
-2.89744e-08
1.13706e-06
-2.7804e-08
1.13958e-06
-2.63511e-08
1.14159e-06
-2.47986e-08
1.14316e-06
-2.32524e-08
1.14436e-06
-2.17729e-08
1.14524e-06
-2.03896e-08
1.14587e-06
-1.91132e-08
1.14627e-06
-1.79435e-08
1.1465e-06
-1.68754e-08
1.14658e-06
-1.59003e-08
-1.50101e-08
1.14654e-06
9.6571e-07
-4.56198e-09
9.68767e-07
-1.78899e-08
9.73161e-07
-2.68336e-08
9.77726e-07
-3.13739e-08
9.81989e-07
-3.32494e-08
9.85586e-07
-3.31312e-08
9.8837e-07
-3.17591e-08
9.90393e-07
-2.98265e-08
9.91767e-07
-2.7725e-08
9.9261e-07
-2.56421e-08
9.93032e-07
-2.36742e-08
9.93126e-07
-2.18669e-08
9.92968e-07
-2.02323e-08
9.9262e-07
-1.87651e-08
9.92129e-07
-1.74522e-08
9.91531e-07
-1.62776e-08
9.90855e-07
-1.52248e-08
-1.42793e-08
9.90125e-07
8.40225e-07
-4.25172e-09
8.43616e-07
-2.12808e-08
8.48105e-07
-3.13229e-08
8.52395e-07
-3.56635e-08
8.56034e-07
-3.68882e-08
8.58638e-07
-3.5736e-08
8.60168e-07
-3.32886e-08
8.60807e-07
-3.0466e-08
8.60774e-07
-2.76913e-08
8.60252e-07
-2.51207e-08
8.59392e-07
-2.28141e-08
8.58306e-07
-2.07814e-08
8.57078e-07
-1.90038e-08
8.55764e-07
-1.74518e-08
8.54407e-07
-1.60947e-08
8.53033e-07
-1.49041e-08
8.51664e-07
-1.38554e-08
-1.29278e-08
8.50312e-07
7.30266e-07
-2.78935e-09
7.34496e-07
-2.55103e-08
7.39041e-07
-3.58686e-08
7.42743e-07
-3.93649e-08
7.45275e-07
-3.94201e-08
7.46331e-07
-3.67929e-08
7.46093e-07
-3.30498e-08
7.44938e-07
-2.93112e-08
7.43202e-07
-2.59557e-08
7.41132e-07
-2.30504e-08
7.38897e-07
-2.0579e-08
7.36608e-07
-1.84924e-08
7.34333e-07
-1.67286e-08
7.3211e-07
-1.52292e-08
7.29962e-07
-1.39464e-08
7.27898e-07
-1.28405e-08
7.25925e-07
-1.18822e-08
-1.10466e-08
7.24044e-07
6.3337e-07
8.47681e-10
6.39168e-07
-3.13088e-08
6.43436e-07
-4.01366e-08
6.45903e-07
-4.18323e-08
6.4645e-07
-3.99665e-08
6.45067e-07
-3.54106e-08
6.42338e-07
-3.032e-08
6.38885e-07
-2.58584e-08
6.35145e-07
-2.2216e-08
6.31381e-07
-1.92862e-08
6.27735e-07
-1.69333e-08
6.24275e-07
-1.5032e-08
6.21023e-07
-1.34769e-08
6.1798e-07
-1.21863e-08
6.15136e-07
-1.11023e-08
6.12476e-07
-1.01807e-08
6.09988e-07
-9.39423e-09
-8.71808e-09
6.0766e-07
5.5063e-07
4.76451e-09
5.5717e-07
-3.78496e-08
5.58703e-07
-4.1669e-08
5.57859e-07
-4.09884e-08
5.54477e-07
-3.65847e-08
5.49107e-07
-3.004e-08
5.42841e-07
-2.4054e-08
5.36485e-07
-1.95028e-08
5.30455e-07
-1.61857e-08
5.24909e-07
-1.37402e-08
5.19871e-07
-1.18955e-08
5.15306e-07
-1.04675e-08
5.11161e-07
-9.33146e-09
5.0738e-07
-8.40484e-09
5.03913e-07
-7.6355e-09
5.00719e-07
-6.98681e-09
4.97766e-07
-6.44087e-09
-5.98123e-09
4.95029e-07
4.9448e-07
-6.95481e-09
4.90791e-07
-3.41602e-08
4.79688e-07
-3.05668e-08
4.68161e-07
-2.94611e-08
4.55745e-07
-2.41688e-08
4.4351e-07
-1.78051e-08
4.32392e-07
-1.29354e-08
4.227e-07
-9.81139e-09
4.14372e-07
-7.85723e-09
4.072e-07
-6.56883e-09
4.00963e-07
-5.65769e-09
3.95468e-07
-4.97296e-09
3.9057e-07
-4.43336e-09
3.86159e-07
-3.99322e-09
3.8215e-07
-3.62648e-09
3.7848e-07
-3.31709e-09
3.75099e-07
-3.06013e-09
-2.85586e-09
3.71974e-07
4.13313e-07
3.79153e-07
3.48586e-07
3.19125e-07
2.94956e-07
2.77151e-07
2.64215e-07
2.54404e-07
2.46547e-07
2.39978e-07
2.3432e-07
2.29347e-07
2.24914e-07
2.20921e-07
2.17294e-07
2.13977e-07
2.10917e-07
2.08061e-07
1.61591e-09
-1.6168e-09
4.57192e-09
-2.95775e-09
7.7447e-09
-3.17427e-09
1.04697e-08
-2.7267e-09
1.24168e-08
-1.94844e-09
1.34667e-08
-1.05163e-09
1.36367e-08
-1.71369e-10
1.30233e-08
6.11517e-10
1.17634e-08
1.25847e-09
9.98847e-09
1.77286e-09
7.80548e-09
2.18156e-09
5.28622e-09
2.51696e-09
2.47817e-09
2.80665e-09
-5.96889e-10
3.07255e-09
-3.93962e-09
3.34151e-09
-7.57395e-09
3.63174e-09
-1.15253e-08
3.95053e-09
-1.58379e-08
4.30995e-09
-2.05531e-08
4.71457e-09
-2.572e-08
5.16419e-09
-3.13745e-08
5.65421e-09
-3.75553e-08
6.17788e-09
-4.42811e-08
6.72548e-09
-5.15702e-08
7.28597e-09
-5.9417e-08
7.84644e-09
-6.78148e-08
8.39462e-09
-7.67329e-08
8.91792e-09
-8.61412e-08
9.40484e-09
-9.59862e-08
9.84478e-09
-1.0622e-07
1.02298e-08
-1.16773e-07
1.05537e-08
-1.27588e-07
1.08117e-08
-1.38588e-07
1.10011e-08
-1.49715e-07
1.11235e-08
-1.60894e-07
1.11804e-08
-1.72071e-07
1.11746e-08
-1.8318e-07
1.11102e-08
-1.94174e-07
1.09917e-08
-2.04997e-07
1.0824e-08
-2.15612e-07
1.0612e-08
-2.2597e-07
1.03604e-08
-2.36047e-07
1.00735e-08
-2.45801e-07
9.75541e-09
-2.55213e-07
9.40966e-09
-2.6425e-07
9.03932e-09
-2.72899e-07
8.64665e-09
-2.81129e-07
8.23369e-09
-2.88933e-07
7.80144e-09
-2.9628e-07
7.35072e-09
-3.03165e-07
6.88158e-09
-3.09556e-07
6.39439e-09
-3.15449e-07
5.88862e-09
-3.20811e-07
5.36459e-09
-3.25637e-07
4.82196e-09
-3.29895e-07
4.26077e-09
-3.33578e-07
3.67947e-09
-3.36652e-07
3.07667e-09
-3.39104e-07
2.44905e-09
-3.40894e-07
1.79427e-09
-3.42009e-07
1.11208e-09
-3.42422e-07
4.17705e-10
-3.42171e-07
-2.52693e-10
-3.41289e-07
-8.7617e-10
-3.3982e-07
-1.4682e-09
-3.37767e-07
-2.04575e-09
-3.35148e-07
-2.61765e-09
-3.31955e-07
-3.18551e-09
-3.28202e-07
-3.75061e-09
-3.23882e-07
-4.31304e-09
-3.19014e-07
-4.86486e-09
-3.13596e-07
-5.41072e-09
-3.07641e-07
-5.9517e-09
-3.01157e-07
-6.47653e-09
-2.94164e-07
-6.98832e-09
-2.86673e-07
-7.48376e-09
-2.78703e-07
-7.96463e-09
-2.7027e-07
-8.42568e-09
-2.61397e-07
-8.8663e-09
-2.52103e-07
-9.28441e-09
-2.42414e-07
-9.67936e-09
-2.32354e-07
-1.00487e-08
-2.21952e-07
-1.03904e-08
-2.11238e-07
-1.07013e-08
-2.00243e-07
-1.09813e-08
-1.89e-07
-1.12305e-08
-1.77537e-07
-1.14489e-08
-1.6589e-07
-1.16356e-08
-1.54089e-07
-1.17901e-08
-1.4217e-07
-1.19123e-08
-1.30162e-07
-1.20021e-08
-1.18096e-07
-1.20596e-08
-1.06003e-07
-1.20843e-08
-9.3917e-08
-1.2077e-08
-8.1869e-08
-1.20385e-08
-6.98888e-08
-1.19701e-08
-5.80061e-08
-1.18724e-08
-4.62478e-08
-1.17472e-08
-3.46403e-08
-1.15958e-08
-2.32081e-08
-1.14193e-08
-1.19815e-08
-1.12127e-08
-9.8902e-10
-1.09769e-08
9.78935e-09
-1.07607e-08
2.03396e-08
-1.05311e-08
3.06019e-08
-1.02408e-08
4.05515e-08
-9.9291e-09
5.01777e-08
-9.6054e-09
5.94712e-08
-9.27628e-09
6.84294e-08
-8.942e-09
7.70473e-08
-8.60603e-09
8.53258e-08
-8.26736e-09
9.32622e-08
-7.92935e-09
1.0086e-07
-7.59092e-09
1.08119e-07
-7.25527e-09
1.15043e-07
-6.92128e-09
1.21635e-07
-6.59192e-09
1.27902e-07
-6.266e-09
1.33846e-07
-5.94608e-09
1.39475e-07
-5.63097e-09
1.44794e-07
-5.32292e-09
1.49811e-07
-5.0211e-09
1.54535e-07
-4.72709e-09
1.58976e-07
-4.44e-09
1.63138e-07
-4.1613e-09
1.6703e-07
-3.88999e-09
1.70658e-07
-3.62777e-09
1.74031e-07
-3.3734e-09
1.77157e-07
-3.12827e-09
1.80046e-07
-2.8911e-09
1.82705e-07
-2.66313e-09
1.85145e-07
-2.44316e-09
1.87372e-07
-2.23228e-09
1.89398e-07
-2.02942e-09
1.91228e-07
-1.83545e-09
1.92872e-07
-1.64936e-09
1.94338e-07
-1.47201e-09
1.95636e-07
-1.30254e-09
1.96771e-07
-1.14167e-09
1.97754e-07
-9.88617e-10
1.9859e-07
-8.43878e-10
1.99289e-07
-7.06788e-10
1.99859e-07
-5.77437e-10
2.00307e-07
-4.55289e-10
2.00641e-07
-3.40043e-10
2.00867e-07
-2.31146e-10
2.0099e-07
-1.27868e-10
2.0101e-07
-2.42359e-11
2.00928e-07
7.82806e-11
2.00754e-07
1.70693e-10
2.005e-07
2.51576e-10
2.00174e-07
3.22896e-10
1.99785e-07
3.86442e-10
1.99339e-07
4.43561e-10
1.98841e-07
4.95167e-10
1.98297e-07
5.42132e-10
1.9771e-07
5.85011e-10
1.97084e-07
6.24184e-10
1.96422e-07
6.60024e-10
1.95727e-07
6.92931e-10
1.95002e-07
7.23421e-10
1.94249e-07
7.52111e-10
1.93468e-07
7.79667e-10
1.9266e-07
8.06764e-10
1.91824e-07
8.34282e-10
1.9096e-07
8.63205e-10
1.90064e-07
8.94856e-10
1.89133e-07
9.30779e-10
1.88159e-07
9.73189e-10
1.87133e-07
1.02488e-09
1.86043e-07
1.08948e-09
1.8487e-07
1.17256e-09
1.83588e-07
1.2817e-09
1.8216e-07
1.42746e-09
1.80535e-07
1.62533e-09
1.78638e-07
1.89686e-09
1.76359e-07
2.27797e-09
1.73511e-07
2.84877e-09
1.69811e-07
3.6991e-09
1.64687e-07
5.12402e-09
1.57331e-07
7.3563e-09
1.21774e-08
1.45154e-07
2.08856e-09
-3.70683e-09
4.64178e-09
-5.51366e-09
6.39399e-09
-4.92839e-09
7.07293e-09
-3.40744e-09
6.73781e-09
-1.61473e-09
5.49057e-09
1.93979e-10
3.42401e-09
1.8939e-09
6.11999e-10
3.42186e-09
-2.88707e-09
4.75626e-09
-7.02332e-09
5.90741e-09
-1.1751e-08
6.90796e-09
-1.7037e-08
7.80128e-09
-2.28629e-08
8.63139e-09
-2.92281e-08
9.43598e-09
-3.61318e-08
1.02442e-08
-4.35784e-08
1.10767e-08
-5.15752e-08
1.19465e-08
-6.01258e-08
1.28588e-08
-6.92222e-08
1.38104e-08
-7.88503e-08
1.47904e-08
-8.89796e-08
1.57831e-08
-9.95726e-08
1.67692e-08
-1.10575e-07
1.77278e-08
-1.21928e-07
1.86368e-08
-1.33556e-07
1.94739e-08
-1.45383e-07
2.02198e-08
-1.57325e-07
2.086e-08
-1.69307e-07
2.13841e-08
-1.81247e-07
2.17849e-08
-1.93078e-07
2.20588e-08
-2.04732e-07
2.22068e-08
-2.16154e-07
2.22322e-08
-2.27293e-07
2.21399e-08
-2.38109e-07
2.19375e-08
-2.48562e-07
2.16341e-08
-2.58629e-07
2.12392e-08
-2.68281e-07
2.07628e-08
-2.77505e-07
2.02146e-08
-2.86285e-07
1.9604e-08
-2.94614e-07
1.89392e-08
-3.02481e-07
1.8228e-08
-3.09886e-07
1.74768e-08
-3.16822e-07
1.66913e-08
-3.23289e-07
1.58757e-08
-3.29283e-07
1.50339e-08
-3.34805e-07
1.41681e-08
-3.3985e-07
1.32805e-08
-3.44422e-07
1.2372e-08
-3.48513e-07
1.14435e-08
-3.52127e-07
1.04951e-08
-3.55258e-07
9.52698e-09
-3.5791e-07
8.53887e-09
-3.60075e-07
7.5308e-09
-3.61757e-07
6.50229e-09
-3.62948e-07
5.45334e-09
-3.63654e-07
4.38399e-09
-3.63872e-07
3.2958e-09
-3.63615e-07
2.19139e-09
-3.62895e-07
1.07631e-09
-3.61742e-07
-4.14924e-11
-3.6017e-07
-1.15284e-09
-3.58163e-07
-2.25936e-09
-3.55668e-07
-3.36775e-09
-3.52656e-07
-4.47887e-09
-3.49108e-07
-5.59005e-09
-3.45024e-07
-6.70044e-09
-3.40397e-07
-7.80792e-09
-3.35235e-07
-8.91066e-09
-3.29539e-07
-1.00054e-08
-3.23312e-07
-1.10884e-08
-3.16562e-07
-1.21572e-08
-3.09302e-07
-1.32085e-08
-3.01537e-07
-1.42366e-08
-2.93283e-07
-1.52388e-08
-2.84551e-07
-1.6211e-08
-2.75361e-07
-1.715e-08
-2.65731e-07
-1.80512e-08
-2.55681e-07
-1.89115e-08
-2.45231e-07
-1.97278e-08
-2.34406e-07
-2.04977e-08
-2.2323e-07
-2.12174e-08
-2.11729e-07
-2.18838e-08
-1.99931e-07
-2.24919e-08
-1.87864e-07
-2.30393e-08
-1.75561e-07
-2.35258e-08
-1.6305e-07
-2.3951e-08
-1.50365e-07
-2.43134e-08
-1.37537e-07
-2.46122e-08
-1.24598e-07
-2.48469e-08
-1.11579e-07
-2.50175e-08
-9.85105e-08
-2.51237e-08
-8.54237e-08
-2.51661e-08
-7.23493e-08
-2.51455e-08
-5.93181e-08
-2.50639e-08
-4.63588e-08
-2.4923e-08
-3.34997e-08
-2.47251e-08
-2.07665e-08
-2.44734e-08
-8.1818e-09
-2.41735e-08
4.23782e-09
-2.38308e-08
1.64781e-08
-2.34449e-08
2.85258e-08
-2.3015e-08
4.03221e-08
-2.2547e-08
5.18369e-08
-2.20336e-08
6.30819e-08
-2.14735e-08
7.40476e-08
-2.08814e-08
8.4721e-08
-2.02669e-08
9.50928e-08
-1.96366e-08
1.05154e-07
-1.89945e-08
1.14901e-07
-1.83442e-08
1.24328e-07
-1.76884e-08
1.33434e-07
-1.70299e-08
1.42217e-07
-1.63709e-08
1.50679e-07
-1.57139e-08
1.5882e-07
-1.50609e-08
1.66643e-07
-1.44138e-08
1.7415e-07
-1.37741e-08
1.81347e-07
-1.31436e-08
1.88237e-07
-1.25232e-08
1.94825e-07
-1.19145e-08
2.01119e-07
-1.1318e-08
2.07125e-07
-1.0735e-08
2.12851e-07
-1.01658e-08
2.18303e-07
-9.61134e-09
2.23486e-07
-9.07184e-09
2.28407e-07
-8.54807e-09
2.33072e-07
-8.03986e-09
2.3749e-07
-7.54773e-09
2.41668e-07
-7.07138e-09
2.45614e-07
-6.61121e-09
2.49334e-07
-6.16684e-09
2.52837e-07
-5.73856e-09
2.5613e-07
-5.326e-09
2.5922e-07
-4.92941e-09
2.62114e-07
-4.54836e-09
2.64821e-07
-4.18304e-09
2.67347e-07
-3.83307e-09
2.69699e-07
-3.49854e-09
2.71883e-07
-3.17914e-09
2.73908e-07
-2.87468e-09
2.75779e-07
-2.5847e-09
2.77504e-07
-2.30879e-09
2.79089e-07
-2.04648e-09
2.80541e-07
-1.79721e-09
2.81865e-07
-1.56049e-09
2.83069e-07
-1.33534e-09
2.84162e-07
-1.12093e-09
2.85154e-07
-9.1679e-10
2.86045e-07
-7.24181e-10
2.86839e-07
-5.44738e-10
2.87538e-07
-3.78485e-10
2.88147e-07
-2.24498e-10
2.88669e-07
-8.1497e-11
2.89111e-07
5.17154e-11
2.89475e-07
1.75623e-10
2.89768e-07
2.90693e-10
2.89992e-07
3.97767e-10
2.90153e-07
4.97751e-10
2.90253e-07
5.91517e-10
2.90295e-07
6.8002e-10
2.90281e-07
7.6432e-10
2.90214e-07
8.45533e-10
2.90095e-07
9.24976e-10
2.89924e-07
1.00424e-09
2.89701e-07
1.0853e-09
2.89424e-07
1.17055e-09
2.89091e-07
1.2631e-09
2.88697e-07
1.36702e-09
2.88233e-07
1.48766e-09
2.8769e-07
1.63205e-09
2.87052e-07
1.81027e-09
2.86298e-07
2.03595e-09
2.85397e-07
2.3286e-09
2.84306e-07
2.71612e-09
2.82962e-07
3.24039e-09
2.8127e-07
3.97014e-09
2.79104e-07
5.01496e-09
2.76226e-07
6.57706e-09
2.72362e-07
8.989e-09
2.66747e-07
1.29711e-08
1.96329e-08
2.59292e-07
1.20022e-09
-4.90833e-09
1.58586e-09
-5.90147e-09
7.68595e-10
-4.11254e-09
-1.02661e-09
-1.61346e-09
-3.60177e-09
9.59492e-10
-6.84626e-09
3.43748e-09
-1.07081e-08
5.75496e-09
-1.51691e-08
7.88188e-09
-2.02249e-08
9.81127e-09
-2.58753e-08
1.15569e-08
-3.21171e-08
1.3149e-08
-3.89441e-08
1.46272e-08
-4.63459e-08
1.60324e-08
-5.43101e-08
1.73992e-08
-6.28182e-08
1.87516e-08
-7.18449e-08
2.01023e-08
-8.13526e-08
2.14537e-08
-9.12937e-08
2.27989e-08
-1.01608e-07
2.41238e-08
-1.12227e-07
2.54085e-08
-1.23074e-07
2.66302e-08
-1.34071e-07
2.7765e-08
-1.45134e-07
2.87901e-08
-1.56184e-07
2.9686e-08
-1.67148e-07
3.04378e-08
-1.77964e-07
3.10348e-08
-1.88575e-07
3.14701e-08
-1.98933e-07
3.17415e-08
-2.09e-07
3.18513e-08
-2.18747e-07
3.18053e-08
-2.28153e-07
3.1612e-08
-2.37204e-07
3.12818e-08
-2.4589e-07
3.0826e-08
-2.5421e-07
3.02564e-08
-2.62162e-07
2.95852e-08
-2.69748e-07
2.88242e-08
-2.7697e-07
2.79846e-08
-2.83833e-07
2.70767e-08
-2.90339e-07
2.61097e-08
-2.96492e-07
2.50915e-08
-3.02294e-07
2.4029e-08
-3.07745e-07
2.29276e-08
-3.12846e-07
2.17919e-08
-3.17596e-07
2.06253e-08
-3.21992e-07
1.94301e-08
-3.26032e-07
1.8208e-08
-3.29711e-07
1.69599e-08
-3.33025e-07
1.56862e-08
-3.35968e-07
1.43872e-08
-3.38535e-07
1.30626e-08
-3.4072e-07
1.17122e-08
-3.42517e-07
1.03357e-08
-3.43918e-07
8.9329e-09
-3.44919e-07
7.50366e-09
-3.45514e-07
6.04817e-09
-3.45697e-07
4.56724e-09
-3.45463e-07
3.06276e-09
-3.44809e-07
1.53773e-09
-3.43729e-07
-3.61858e-12
-3.42213e-07
-1.55731e-09
-3.40243e-07
-3.12189e-09
-3.37802e-07
-4.69976e-09
-3.34877e-07
-6.29204e-09
-3.31459e-07
-7.89616e-09
-3.27539e-07
-9.50822e-09
-3.23114e-07
-1.11242e-08
-3.18181e-07
-1.27398e-08
-3.12739e-07
-1.43505e-08
-3.06791e-07
-1.59514e-08
-3.0034e-07
-1.75376e-08
-2.93391e-07
-1.91035e-08
-2.85954e-07
-2.06436e-08
-2.78036e-07
-2.21519e-08
-2.69649e-07
-2.36227e-08
-2.60807e-07
-2.50503e-08
-2.51526e-07
-2.64288e-08
-2.41821e-07
-2.77523e-08
-2.31714e-07
-2.90157e-08
-2.21224e-07
-3.02138e-08
-2.10375e-07
-3.13434e-08
-1.99188e-07
-3.23995e-08
-1.8769e-07
-3.33774e-08
-1.75906e-07
-3.42713e-08
-1.63864e-07
-3.50768e-08
-1.51593e-07
-3.57922e-08
-1.39123e-07
-3.64163e-08
-1.26484e-07
-3.69475e-08
-1.13709e-07
-3.73845e-08
-1.00826e-07
-3.77268e-08
-8.78677e-08
-3.7974e-08
-7.48624e-08
-3.81266e-08
-6.18401e-08
-3.81853e-08
-4.88305e-08
-3.81519e-08
-3.58622e-08
-3.80287e-08
-2.29626e-08
-3.7819e-08
-1.01559e-08
-3.75278e-08
2.53437e-09
-3.71596e-08
1.50826e-08
-3.67173e-08
2.74614e-08
-3.6205e-08
3.96494e-08
-3.56278e-08
5.16308e-08
-3.49907e-08
6.33867e-08
-3.42965e-08
7.49041e-08
-3.35434e-08
8.61738e-08
-3.27357e-08
9.71837e-08
-3.18831e-08
1.0792e-07
-3.09959e-08
1.18371e-07
-3.00816e-08
1.28529e-07
-2.91472e-08
1.38388e-07
-2.81979e-08
1.47942e-07
-2.72388e-08
1.57189e-07
-2.6274e-08
1.66128e-07
-2.53078e-08
1.74759e-07
-2.43433e-08
1.83083e-07
-2.33841e-08
1.91102e-07
-2.24327e-08
1.9882e-07
-2.1492e-08
2.06239e-07
-2.05641e-08
2.13365e-07
-1.96511e-08
2.20203e-07
-1.87546e-08
2.26759e-07
-1.78761e-08
2.33041e-07
-1.70167e-08
2.39053e-07
-1.61777e-08
2.44802e-07
-1.53597e-08
2.50295e-07
-1.45636e-08
2.55537e-07
-1.37899e-08
2.60536e-07
-1.30389e-08
2.65298e-07
-1.23108e-08
2.69831e-07
-1.16057e-08
2.74142e-07
-1.09237e-08
2.78237e-07
-1.02648e-08
2.82125e-07
-9.62884e-09
2.85813e-07
-9.0159e-09
2.89307e-07
-8.42584e-09
2.92614e-07
-7.85847e-09
2.95742e-07
-7.31358e-09
2.98696e-07
-6.7909e-09
3.01485e-07
-6.29019e-09
3.04113e-07
-5.81118e-09
3.06587e-07
-5.35345e-09
3.08915e-07
-4.91645e-09
3.11101e-07
-4.49964e-09
3.13153e-07
-4.10237e-09
3.15077e-07
-3.7241e-09
3.16878e-07
-3.36419e-09
3.18562e-07
-3.02184e-09
3.20136e-07
-2.69685e-09
3.21606e-07
-2.38893e-09
3.22977e-07
-2.09752e-09
3.24254e-07
-1.82294e-09
3.25439e-07
-1.56503e-09
3.26536e-07
-1.32319e-09
3.2755e-07
-1.09647e-09
3.28484e-07
-8.83879e-10
3.29343e-07
-6.84414e-10
3.30129e-07
-4.9722e-10
3.30847e-07
-3.21354e-10
3.315e-07
-1.5576e-10
3.32089e-07
8.35736e-13
3.32619e-07
1.49617e-10
3.3309e-07
2.91829e-10
3.33506e-07
4.29036e-10
3.33867e-07
5.63143e-10
3.34174e-07
6.96382e-10
3.34427e-07
8.31502e-10
3.34625e-07
9.71879e-10
3.34766e-07
1.12187e-09
3.34845e-07
1.28713e-09
3.34857e-07
1.47512e-09
3.34793e-07
1.69567e-09
3.3464e-07
1.96245e-09
3.34382e-07
2.29407e-09
3.33993e-07
2.71688e-09
3.33441e-07
3.26835e-09
3.32676e-07
4.00539e-09
3.3163e-07
5.01589e-09
3.30212e-07
6.43252e-09
3.28287e-07
8.50201e-09
3.25708e-07
1.15678e-08
3.22302e-07
1.63762e-08
2.37673e-08
3.18168e-07
-3.016e-10
-4.60787e-09
-2.26726e-09
-3.93764e-09
-5.30261e-09
-1.07832e-09
-9.01118e-09
2.09416e-09
-1.3239e-08
5.18659e-09
-1.79309e-08
8.1286e-09
-2.3075e-08
1.08985e-08
-2.86801e-08
1.34862e-08
-3.47617e-08
1.58923e-08
-4.13345e-08
1.81289e-08
-4.84043e-08
2.02182e-08
-5.59655e-08
2.21877e-08
-6.39984e-08
2.40648e-08
-7.24713e-08
2.58713e-08
-8.134e-08
2.76197e-08
-9.05509e-08
2.93125e-08
-1.0004e-07
3.09427e-08
-1.09739e-07
3.24966e-08
-1.19571e-07
3.39556e-08
-1.29462e-07
3.52989e-08
-1.39338e-07
3.65057e-08
-1.49131e-07
3.75575e-08
-1.58781e-07
3.84394e-08
-1.68237e-07
3.91413e-08
-1.77457e-07
3.96582e-08
-1.86412e-07
3.99891e-08
-1.9508e-07
4.01373e-08
-2.03448e-07
4.01085e-08
-2.11508e-07
3.99115e-08
-2.19261e-07
3.95574e-08
-2.26708e-07
3.90584e-08
-2.33854e-07
3.84276e-08
-2.40707e-07
3.76779e-08
-2.47273e-07
3.68217e-08
-2.53559e-07
3.58709e-08
-2.59572e-07
3.48367e-08
-2.65317e-07
3.3729e-08
-2.70798e-07
3.25566e-08
-2.76015e-07
3.1327e-08
-2.80972e-07
3.00468e-08
-2.85664e-07
2.8721e-08
-2.90091e-07
2.73538e-08
-2.94247e-07
2.59482e-08
-2.98129e-07
2.45063e-08
-3.01728e-07
2.30296e-08
-3.05039e-07
2.15188e-08
-3.08053e-07
1.9974e-08
-3.10762e-07
1.83951e-08
-3.13156e-07
1.67816e-08
-3.15226e-07
1.5133e-08
-3.16961e-07
1.34487e-08
-3.18354e-07
1.17284e-08
-3.19392e-07
9.9716e-09
-3.20066e-07
8.17836e-09
-3.20366e-07
6.34903e-09
-3.20283e-07
4.48448e-09
-3.19806e-07
2.58632e-09
-3.18925e-07
6.56862e-10
-3.17627e-07
-1.3012e-09
-3.15898e-07
-3.28576e-09
-3.13724e-07
-5.29559e-09
-3.11094e-07
-7.32988e-09
-3.07999e-07
-9.38664e-09
-3.04433e-07
-1.14621e-08
-3.00389e-07
-1.35512e-08
-2.95864e-07
-1.56486e-08
-2.90855e-07
-1.77481e-08
-2.85361e-07
-1.98434e-08
-2.79383e-07
-2.1928e-08
-2.72925e-07
-2.39948e-08
-2.6599e-07
-2.60364e-08
-2.58587e-07
-2.80453e-08
-2.50723e-07
-3.00137e-08
-2.4241e-07
-3.19339e-08
-2.33659e-07
-3.37983e-08
-2.24487e-07
-3.55989e-08
-2.14909e-07
-3.73284e-08
-2.04942e-07
-3.89793e-08
-1.94609e-07
-4.05447e-08
-1.8393e-07
-4.20198e-08
-1.72928e-07
-4.33988e-08
-1.61626e-07
-4.46755e-08
-1.50051e-07
-4.58435e-08
-1.38228e-07
-4.68968e-08
-1.26185e-07
-4.78321e-08
-1.13951e-07
-4.86471e-08
-1.01555e-07
-4.934e-08
-8.90279e-08
-4.99093e-08
-7.63988e-08
-5.03542e-08
-6.36969e-08
-5.06746e-08
-5.09506e-08
-5.08711e-08
-3.81886e-08
-5.09452e-08
-2.54388e-08
-5.08993e-08
-1.27278e-08
-5.07371e-08
-8.07559e-11
-5.04633e-08
1.24756e-08
-5.00813e-08
2.49139e-08
-4.95949e-08
3.72092e-08
-4.90093e-08
4.93391e-08
-4.83312e-08
6.12839e-08
-4.75686e-08
7.3027e-08
-4.67291e-08
8.45535e-08
-4.58177e-08
9.58521e-08
-4.4836e-08
1.06912e-07
-4.37895e-08
1.17722e-07
-4.26865e-08
1.28269e-07
-4.15374e-08
1.38543e-07
-4.03508e-08
1.48535e-07
-3.91358e-08
1.5824e-07
-3.78993e-08
1.67653e-07
-3.66485e-08
1.7677e-07
-3.5389e-08
1.8559e-07
-3.41267e-08
1.94114e-07