/*--------------------------------*- C++ -*----------------------------------*\
| =========                 |                                                 |
| \\      /  F ield         | OpenFOAM: The Open Source CFD Toolbox           |
|  \\    /   O peration     | Version:  2312                                  |
|   \\  /    A nd           | Website:  www.openfoam.com                      |
|    \\/     M anipulation  |                                                 |
\*---------------------------------------------------------------------------*/
FoamFile
{
    version     2.0;
    format      ascii;
    arch        "LSB;label=32;scalar=64";
    class       volVectorField;
    location    "150";
    object      U;
}
// * * * * * * * * * * * * * * * * * * * * * * * * * * * * * * * * * * * * * //

dimensions      [0 1 -1 0 0 0 0];

internalField   nonuniform List<vector> 
12225
(
(0.908925 -0.379353 0)
(0.865075 -0.145897 0)
(0.76514 -0.0185123 0)
(0.662534 0.0104782 0)
(0.593496 0.00983268 0)
(0.550993 0.00577627 0)
(0.522441 0.00340478 0)
(0.501574 0.00238115 0)
(0.485488 0.00192555 0)
(0.472546 0.001644 0)
(0.461921 0.00140566 0)
(0.453248 0.001173 0)
(0.4464 0.000922892 0)
(0.441324 0.000626173 0)
(0.438356 0.000234497 0)
(0.437753 -0.000421842 0)
(0.440849 -0.000703485 0)
(0.44717 -0.0133322 0)
(1.04414 0.0828162 0)
(1.01927 0.0733973 0)
(0.977583 0.041306 0)
(0.928133 0.0269519 0)
(0.8839 0.0197243 0)
(0.847663 0.0144605 0)
(0.81841 0.010769 0)
(0.795215 0.00840738 0)
(0.776898 0.0068712 0)
(0.762205 0.00576795 0)
(0.75025 0.00487891 0)
(0.740525 0.00407875 0)
(0.732773 0.00327382 0)
(0.726881 0.00236483 0)
(0.722986 0.00120698 0)
(0.721327 -0.000468086 0)
(0.723279 -0.00327083 0)
(0.727527 -0.00964783 0)
(1.0039 0.0297834 0)
(1.00736 0.0402854 0)
(1.00852 0.0355573 0)
(0.9955 0.0319804 0)
(0.975948 0.0270453 0)
(0.95498 0.0215315 0)
(0.934959 0.0170374 0)
(0.917424 0.0138262 0)
(0.902784 0.0115164 0)
(0.890712 0.00974184 0)
(0.880782 0.00826857 0)
(0.872687 0.00693645 0)
(0.866233 0.00561009 0)
(0.861326 0.00414388 0)
(0.857985 0.00232551 0)
(0.856264 -0.000220704 0)
(0.856546 -0.00424024 0)
(0.856943 -0.0120933 0)
(0.999112 0.00731454 0)
(1.00521 0.0277704 0)
(1.01561 0.0338168 0)
(1.01516 0.0338908 0)
(1.00783 0.0305138 0)
(0.997087 0.0257703 0)
(0.984861 0.0214125 0)
(0.972947 0.0179455 0)
(0.962309 0.0152167 0)
(0.95316 0.0129873 0)
(0.945441 0.0110692 0)
(0.939056 0.00930527 0)
(0.933916 0.00754475 0)
(0.929957 0.00562032 0)
(0.927142 0.00329729 0)
(0.925373 0.000201671 0)
(0.924535 -0.00425152 0)
(0.922986 -0.0111887 0)
(0.999547 0.00549025 0)
(1.0055 0.0257758 0)
(1.01672 0.0329985 0)
(1.02104 0.0340706 0)
(1.02011 0.0319889 0)
(1.01575 0.0282691 0)
(1.00912 0.0243953 0)
(1.00171 0.0209982 0)
(0.994536 0.0181114 0)
(0.988037 0.0156195 0)
(0.982362 0.0133945 0)
(0.977561 0.0113029 0)
(0.973628 0.00920033 0)
(0.970534 0.00692106 0)
(0.968218 0.00424467 0)
(0.96651 0.000862464 0)
(0.965142 -0.00359119 0)
(0.962824 -0.00952751 0)
(0.999798 0.0062897 0)
(1.00523 0.0238598 0)
(1.01573 0.0310495 0)
(1.02208 0.0330126 0)
(1.02467 0.0320971 0)
(1.02428 0.0293859 0)
(1.02157 0.0261407 0)
(1.01761 0.023023 0)
(1.0133 0.0201818 0)
(1.00909 0.0175973 0)
(1.00525 0.0152004 0)
(1.00189 0.0128916 0)
(0.999065 0.0105476 0)
(0.996776 0.00802181 0)
(0.994955 0.00513042 0)
(0.993419 0.00164986 0)
(0.991891 -0.00261045 0)
(0.989413 -0.00773233 0)
(0.99979 0.00613903 0)
(1.00466 0.0212774 0)
(1.01418 0.0285112 0)
(1.02129 0.0312301 0)
(1.02575 0.0312419 0)
(1.02783 0.0294239 0)
(1.02782 0.0268381 0)
(1.02645 0.0241107 0)
(1.02442 0.0214516 0)
(1.02214 0.0189069 0)
(1.01989 0.0164566 0)
(1.01782 0.0140366 0)
(1.01602 0.0115521 0)
(1.01448 0.00888586 0)
(1.01317 0.00590037 0)
(1.0119 0.00245206 0)
(1.01044 -0.00153017 0)
(1.00814 -0.00598618 0)
(0.999804 0.00555735 0)
(1.00412 0.0187011 0)
(1.01258 0.0258313 0)
(1.01979 0.0290355 0)
(1.02518 0.02973 0)
(1.02874 0.0286569 0)
(1.03055 0.0266897 0)
(1.03108 0.0243887 0)
(1.03082 0.0219879 0)
(1.03012 0.0195742 0)
(1.02922 0.017164 0)
(1.02828 0.0147248 0)
(1.02739 0.012192 0)
(1.02656 0.00948195 0)
(1.02574 0.0065031 0)
(1.02481 0.0031778 0)
(1.02359 -0.000491138 0)
(1.02163 -0.00439162 0)
(0.999874 0.00497333 0)
(1.00365 0.0163476 0)
(1.01108 0.0231541 0)
(1.01804 0.0265994 0)
(1.02379 0.0277725 0)
(1.02821 0.0272932 0)
(1.03121 0.0258678 0)
(1.03308 0.0239821 0)
(1.03416 0.0218714 0)
(1.03471 0.0196446 0)
(1.03493 0.0173424 0)
(1.03495 0.0149584 0)
(1.03485 0.0124564 0)
(1.03466 0.00978481 0)
(1.03433 0.00689301 0)
(1.03378 0.00375256 0)
(1.03289 0.00040659 0)
(1.03137 -0.0030249 0)
(0.999957 0.00443203 0)
(1.00324 0.0141988 0)
(1.0097 0.020526 0)
(1.01624 0.0240275 0)
(1.02204 0.0255121 0)
(1.02688 0.0254851 0)
(1.03063 0.0245112 0)
(1.03342 0.0230031 0)
(1.03548 0.0211845 0)
(1.03698 0.0191726 0)
(1.03808 0.0170237 0)
(1.03889 0.0147513 0)
(1.03947 0.0123432 0)
(1.03984 0.00977622 0)
(1.03998 0.00703213 0)
(1.03983 0.00411612 0)
(1.03931 0.00108902 0)
(1.03826 -0.00194034 0)
(1.00002 0.00390348 0)
(1.00287 0.0122241 0)
(1.00847 0.0179759 0)
(1.0145 0.0213924 0)
(1.02015 0.0230488 0)
(1.02514 0.0233467 0)
(1.02932 0.0227325 0)
(1.03271 0.0215513 0)
(1.03545 0.0200076 0)
(1.03765 0.0182187 0)
(1.03943 0.0162492 0)
(1.04087 0.0141275 0)
(1.04201 0.0118603 0)
(1.04286 0.00944686 0)
(1.04342 0.00689272 0)
(1.04365 0.00422352 0)
(1.04352 0.00150394 0)
(1.04293 -0.00117451 0)
(1.00006 0.00341756 0)
(1.00256 0.0105523 0)
(1.00747 0.0157223 0)
(1.013 0.0189611 0)
(1.0184 0.0206705 0)
(1.02337 0.0211653 0)
(1.02773 0.0208022 0)
(1.03145 0.0198702 0)
(1.0346 0.0185527 0)
(1.03726 0.0169627 0)
(1.0395 0.015168 0)
(1.04138 0.013206 0)
(1.04292 0.0110965 0)
(1.04414 0.00885365 0)
(1.04504 0.00649738 0)
(1.04561 0.0040631 0)
(1.04581 0.00161228 0)
(1.04562 -0.000780861 0)
(1.00009 0.00294427 0)
(1.00228 0.00900695 0)
(1.00657 0.0135719 0)
(1.01162 0.0165645 0)
(1.01672 0.0182493 0)
(1.02157 0.0188636 0)
(1.02598 0.0186876 0)
(1.02989 0.0179596 0)
(1.03331 0.016841 0)
(1.03629 0.0154372 0)
(1.03886 0.0138167 0)
(1.04107 0.0120226 0)
(1.04294 0.0100837 0)
(1.04447 0.00802474 0)
(1.04566 0.00587441 0)
(1.04652 0.00367233 0)
(1.04705 0.0014739 0)
(1.04722 -0.000661971 0)
(1.00011 0.00243395 0)
(1.00199 0.00738172 0)
(1.00567 0.0112449 0)
(1.01019 0.0138816 0)
(1.01491 0.0154469 0)
(1.01955 0.0161067 0)
(1.02391 0.016067 0)
(1.02789 0.0155146 0)
(1.03147 0.0145852 0)
(1.03467 0.0133734 0)
(1.0375 0.0119447 0)
(1.03998 0.010345 0)
(1.04212 0.00860924 0)
(1.04392 0.00676843 0)
(1.0454 0.00485604 0)
(1.04655 0.00291147 0)
(1.04739 0.000981543 0)
(1.04792 -0.000887813 0)
(1.00011 0.00189456 0)
(1.0017 0.00570091 0)
(1.00481 0.00877051 0)
(1.00877 0.0109355 0)
(1.01307 0.0122703 0)
(1.0174 0.0128811 0)
(1.0216 0.0129068 0)
(1.02554 0.0124836 0)
(1.02918 0.011719 0)
(1.03249 0.0106925 0)
(1.03548 0.00946331 0)
(1.03814 0.00807645 0)
(1.04049 0.00656842 0)
(1.04252 0.00497244 0)
(1.04424 0.003322 0)
(1.04566 0.00165264 0)
(1.04679 1.65653e-06 0)
(1.04766 -0.00159634 0)
(1.00011 0.00133315 0)
(1.00144 0.00398842 0)
(1.00404 0.00618039 0)
(1.00746 0.00775764 0)
(1.0113 0.00874192 0)
(1.01527 0.00919312 0)
(1.01922 0.00919498 0)
(1.02302 0.00883704 0)
(1.0266 0.00819638 0)
(1.02993 0.0073343 0)
(1.03298 0.00629944 0)
(1.03574 0.00513122 0)
(1.03822 0.0038633 0)
(1.04041 0.00252636 0)
(1.04231 0.00114998 0)
(1.04395 -0.000236806 0)
(1.04534 -0.00160606 0)
(1.04649 -0.00293295 0)
(1.0001 0.000754413 0)
(1.00122 0.00225067 0)
(1.0034 0.00349129 0)
(1.00636 0.00436979 0)
(1.00976 0.00488252 0)
(1.01336 0.00505625 0)
(1.01702 0.00493308 0)
(1.02062 0.00456238 0)
(1.02407 0.00399069 0)
(1.02732 0.00325795 0)
(1.03034 0.002398 0)
(1.03312 0.00144008 0)
(1.03564 0.00041021 0)
(1.03792 -0.000667644 0)
(1.03994 -0.00177095 0)
(1.04173 -0.00287856 0)
(1.0433 -0.00397128 0)
(1.04467 -0.00503255 0)
(1.00009 0.000150635 0)
(1.00106 0.000453116 0)
(1.00297 0.000664594 0)
(1.00559 0.00073695 0)
(1.00866 0.00066233 0)
(1.01196 0.000445393 0)
(1.01536 9.72962e-05 0)
(1.01874 -0.000366216 0)
(1.02202 -0.000928349 0)
(1.02514 -0.001573 0)
(1.02807 -0.00228485 0)
(1.0308 -0.00304915 0)
(1.0333 -0.00385158 0)
(1.03558 -0.00467822 0)
(1.03765 -0.00551566 0)
(1.03951 -0.00635137 0)
(1.04117 -0.0071741 0)
(1.04266 -0.00797437 0)
(1.00009 -0.000507189 0)
(1.00101 -0.00150527 0)
(1.00282 -0.00244085 0)
(1.00533 -0.00329272 0)
(1.00827 -0.00406289 0)
(1.01144 -0.00476524 0)
(1.01471 -0.00541623 0)
(1.01795 -0.00603233 0)
(1.0211 -0.00662801 0)
(1.0241 -0.007214 0)
(1.02691 -0.00779701 0)
(1.02954 -0.00838017 0)
(1.03195 -0.00896378 0)
(1.03416 -0.00954599 0)
(1.03618 -0.0101236 0)
(1.038 -0.0106927 0)
(1.03965 -0.0112494 0)
(1.04113 -0.0117902 0)
(1.00009 -0.00114473 0)
(1.00109 -0.00342144 0)
(1.00307 -0.00547771 0)
(1.00579 -0.00720592 0)
(1.00891 -0.00860858 0)
(1.01221 -0.00972719 0)
(1.01555 -0.0106123 0)
(1.0188 -0.0113186 0)
(1.0219 -0.0118961 0)
(1.02482 -0.0123846 0)
(1.02751 -0.0128132 0)
(1.02999 -0.0132023 0)
(1.03224 -0.0135656 0)
(1.03428 -0.0139117 0)
(1.03612 -0.0142453 0)
(1.03777 -0.0145688 0)
(1.03924 -0.0148832 0)
(1.04055 -0.0151886 0)
(1.00009 -0.00170051 0)
(1.0012 -0.0051496 0)
(1.0035 -0.00819829 0)
(1.00658 -0.0106362 0)
(1.01003 -0.0124988 0)
(1.01357 -0.0138715 0)
(1.01704 -0.0148475 0)
(1.02034 -0.0155268 0)
(1.0234 -0.0159978 0)
(1.02619 -0.0163274 0)
(1.02871 -0.0165635 0)
(1.03097 -0.0167405 0)
(1.03297 -0.0168816 0)
(1.03474 -0.0170023 0)
(1.0363 -0.0171122 0)
(1.03767 -0.0172173 0)
(1.03885 -0.0173208 0)
(1.03988 -0.0174247 0)
(1.00006 -0.0022078 0)
(1.00129 -0.00690438 0)
(1.00404 -0.0109513 0)
(1.00764 -0.0140119 0)
(1.0115 -0.0162141 0)
(1.01532 -0.0177048 0)
(1.01893 -0.0186335 0)
(1.0222 -0.0191621 0)
(1.02511 -0.0194244 0)
(1.02764 -0.0195145 0)
(1.02984 -0.0194978 0)
(1.03171 -0.0194199 0)
(1.0333 -0.0193115 0)
(1.03464 -0.0191921 0)
(1.03575 -0.0190739 0)
(1.03667 -0.018964 0)
(1.03742 -0.0188662 0)
(1.03802 -0.0187826 0)
(0.999968 -0.00264891 0)
(1.00128 -0.00875623 0)
(1.00463 -0.0137987 0)
(1.00889 -0.0173649 0)
(1.01319 -0.0197687 0)
(1.01725 -0.0212165 0)
(1.02086 -0.0219324 0)
(1.02393 -0.0221657 0)
(1.02645 -0.0221035 0)
(1.02848 -0.0218661 0)
(1.03009 -0.0215335 0)
(1.03132 -0.0211594 0)
(1.03225 -0.0207779 0)
(1.03292 -0.0204092 0)
(1.03338 -0.0200646 0)
(1.03366 -0.0197498 0)
(1.03379 -0.0194665 0)
(1.03382 -0.0192153 0)
(0.999824 -0.00297796 0)
(1.00112 -0.0108217 0)
(1.00527 -0.0168075 0)
(1.01025 -0.0206883 0)
(1.01494 -0.0231112 0)
(1.01906 -0.0243127 0)
(1.0224 -0.0246165 0)
(1.02488 -0.0243923 0)
(1.02661 -0.0238871 0)
(1.02773 -0.0232426 0)
(1.02837 -0.0225469 0)
(1.02862 -0.0218557 0)
(1.02857 -0.0212 0)
(1.02829 -0.0205953 0)
(1.02785 -0.0200476 0)
(1.02728 -0.0195578 0)
(1.02661 -0.0191229 0)
(1.02589 -0.0187403 0)
(0.999534 -0.00270403 0)
(1.00067 -0.0129691 0)
(1.00598 -0.0199574 0)
(1.0117 -0.0239312 0)
(1.01651 -0.0261189 0)
(1.02025 -0.0268005 0)
(1.02272 -0.0264574 0)
(1.02397 -0.0256113 0)
(1.02427 -0.0245646 0)
(1.0239 -0.0234663 0)
(1.02304 -0.0224003 0)
(1.02186 -0.0214121 0)
(1.02046 -0.0205199 0)
(1.01893 -0.0197268 0)
(1.01734 -0.0190286 0)
(1.01571 -0.0184177 0)
(1.01407 -0.0178851 0)
(1.01246 -0.017423 0)
(0.998543 -0.000765642 0)
(0.999417 -0.0143368 0)
(1.0066 -0.0227326 0)
(1.01301 -0.0268219 0)
(1.01725 -0.028512 0)
(1.01966 -0.028333 0)
(1.02018 -0.0270969 0)
(1.01913 -0.0255029 0)
(1.01705 -0.0238786 0)
(1.01438 -0.022351 0)
(1.01139 -0.0209762 0)
(1.00827 -0.0197717 0)
(1.00513 -0.0187305 0)
(1.00205 -0.0178354 0)
(0.999057 -0.0170684 0)
(0.996175 -0.0164115 0)
(0.99341 -0.01585 0)
(0.990803 -0.0153711 0)
(0.996379 0.000195257 0)
(0.996958 -0.0155085 0)
(1.00657 -0.0243966 0)
(1.01304 -0.0286963 0)
(1.0152 -0.0297387 0)
(1.01434 -0.0283893 0)
(1.01098 -0.0260792 0)
(1.00593 -0.0237169 0)
(1.00013 -0.0215972 0)
(0.994159 -0.0197738 0)
(0.988305 -0.0182404 0)
(0.982708 -0.0169661 0)
(0.977432 -0.0159085 0)
(0.97249 -0.0150271 0)
(0.967871 -0.0142899 0)
(0.963554 -0.0136705 0)
(0.959509 -0.0131519 0)
(0.955767 -0.0127184 0)
(0.997396 -0.016093 0)
(0.997976 -0.028157 0)
(1.00618 -0.0286751 0)
(1.00816 -0.0298529 0)
(1.00391 -0.0292453 0)
(0.995666 -0.0263957 0)
(0.984907 -0.0229858 0)
(0.973245 -0.0200065 0)
(0.961912 -0.0176252 0)
(0.951429 -0.0157545 0)
(0.941888 -0.014288 0)
(0.933242 -0.0131325 0)
(0.925405 -0.0122106 0)
(0.918273 -0.0114634 0)
(0.911753 -0.0108511 0)
(0.905761 -0.010344 0)
(0.900217 -0.00992956 0)
(0.895142 -0.00959243 0)
(1.02979 -0.076409 0)
(1.02297 -0.0773721 0)
(1.00694 -0.048442 0)
(0.982731 -0.0332974 0)
(0.956638 -0.0260534 0)
(0.931034 -0.0207722 0)
(0.906849 -0.0166188 0)
(0.885175 -0.0136145 0)
(0.866495 -0.0115144 0)
(0.850528 -0.0100285 0)
(0.836735 -0.00895067 0)
(0.824652 -0.0081461 0)
(0.813937 -0.00752648 0)
(0.804333 -0.00703436 0)
(0.795638 -0.0066367 0)
(0.787713 -0.00630878 0)
(0.780408 -0.00604821 0)
(0.773747 -0.00584789 0)
(0.947758 0.332584 0)
(0.943919 0.161021 0)
(0.880821 0.0384476 0)
(0.795618 -0.00442279 0)
(0.726392 -0.0124631 0)
(0.677542 -0.0104101 0)
(0.642434 -0.00728211 0)
(0.615996 -0.00517119 0)
(0.595289 -0.00399441 0)
(0.578364 -0.00334647 0)
(0.563972 -0.0029565 0)
(0.551408 -0.00269149 0)
(0.540266 -0.00249231 0)
(0.53028 -0.00233223 0)
(0.521236 -0.00219927 0)
(0.513016 -0.00208794 0)
(0.50541 -0.00199805 0)
(0.498513 -0.00194068 0)
(0.000600619 -0.00133016 1.38353e-14)
(0.00274009 -0.0026567 -1.56986e-14)
(0.00545658 -0.00321946 0)
(0.00818111 -0.00313591 0)
(0.0103198 -0.00259389 0)
(0.01167 -0.00181674 1.22975e-14)
(0.0122172 -0.000995147 0)
(0.0119985 -0.000257259 0)
(0.0111421 0.000338363 0)
(0.00977407 0.000789566 0)
(0.00799916 0.00112456 -1.23124e-14)
(0.00589711 0.0013773 0)
(0.00352015 0.00157168 0)
(0.00089632 0.00171671 0)
(-0.0019646 0.0018189 0)
(-0.0050738 0.00190604 -1.2358e-14)
(-0.00845444 0.00201129 0)
(-0.0121397 0.00215476 0)
(-0.0161695 0.00234652 0)
(-0.0205858 0.00259147 0)
(-0.0254279 0.00289072 0)
(-0.0307305 0.00324364 0)
(-0.0365205 0.00364674 0)
(-0.0428151 0.0040947 -7.957e-15)
(-0.0496215 0.00457996 7.48717e-15)
(-0.0569355 0.00509208 -7.04365e-15)
(-0.0647405 0.0056166 -6.62832e-15)
(-0.0730097 0.00613813 0)
(-0.0817059 0.00664124 0)
(-0.090784 0.00711232 5.55469e-15)
(-0.100193 0.00753902 5.25241e-15)
(-0.109874 0.0079099 0)
(-0.119768 0.0082197 0)
(-0.129813 0.00846799 4.49447e-15)
(-0.139949 0.00865329 0)
(-0.15012 0.00877516 0)
(-0.160269 0.0088366 -3.92399e-15)
(-0.170347 0.0088416 0)
(-0.180308 0.00879484 -3.62535e-15)
(-0.190108 0.0087014 -6.99207e-15)
(-0.19971 0.00856639 0)
(-0.20908 0.00839469 0)
(-0.218187 0.00819087 0)
(-0.227004 0.00795894 0)
(-0.235508 0.0077025 0)
(-0.243676 0.00742444 -5.85975e-15)
(-0.251489 0.0071273 -5.72508e-15)
(-0.25893 0.00681262 -5.60238e-15)
(-0.265981 0.00648141 0)
(-0.272624 0.00613345 5.3895e-15)
(-0.278843 0.00576767 0)
(-0.28462 0.00538149 -5.21514e-15)
(-0.289936 0.00497213 -5.141e-15)
(-0.294773 0.00453637 0)
(-0.299113 0.00407247 0)
(-0.302938 0.00358069 0)
(-0.30623 0.00306569 -4.9225e-15)
(-0.30897 0.0025353 0)
(-0.311134 0.00200044 0)
(-0.312695 0.0014729 0)
(-0.313622 0.000968737 0)
(-0.313888 0.000504569 0)
(-0.313573 8.29407e-05 0)
(-0.312715 -0.000313058 0)
(-0.311323 -0.000697415 0)
(-0.309402 -0.00107643 4.82431e-15)
(-0.306955 -0.00145183 0)
(-0.303984 -0.00182474 0)
(-0.300491 -0.00219933 -4.89491e-15)
(-0.29648 -0.00255636 -4.93058e-15)
(-0.291957 -0.00291682 0)
(-0.286926 -0.00328455 5.02317e-15)
(-0.281397 -0.00363243 -5.07923e-15)
(-0.275381 -0.00396999 0)
(-0.26889 -0.00429665 5.2136e-15)
(-0.261938 -0.00462172 0)
(-0.25454 -0.0049368 0)
(-0.246711 -0.00524221 -5.47853e-15)
(-0.238472 -0.00553682 0)
(-0.22984 -0.00582 5.70273e-15)
(-0.220839 -0.00609 0)
(-0.211493 -0.00634543 -5.97137e-15)
(-0.201827 -0.00658583 -6.12496e-15)
(-0.191871 -0.00681228 -6.29241e-15)
(-0.181651 -0.0070248 -1.29494e-14)
(-0.171196 -0.00722335 1.33457e-14)
(-0.160535 -0.00740701 0)
(-0.149698 -0.00757555 0)
(-0.138717 -0.00772901 0)
(-0.127619 -0.00786708 1.53118e-14)
(-0.116434 -0.00798927 1.5917e-14)
(-0.10519 -0.00809513 -1.65767e-14)
(-0.0939161 -0.00818495 0)
(-0.0826438 -0.00825903 1.80827e-14)
(-0.0714015 -0.00831777 1.89424e-14)
(-0.060217 -0.00836138 1.98838e-14)
(-0.0491169 -0.00839006 0)
(-0.0381256 -0.00840385 0)
(-0.0272668 -0.00840293 0)
(-0.0165711 -0.00837379 2.47015e-14)
(-0.00607696 -0.00827018 0)
(0.00422915 -0.00801323 0)
(0.0143622 -0.00764205 -2.43766e-14)
(0.0242647 -0.00724846 0)
(0.0339031 -0.00686118 0)
(0.0432588 -0.00648552 -2.13446e-14)
(0.0523212 -0.0061242 0)
(0.0610841 -0.00577629 0)
(0.0695427 -0.00544239 1.92405e-14)
(0.0776946 -0.00512075 1.8682e-14)
(0.0855381 -0.00481232 0)
(0.0930729 -0.00451562 -1.77276e-14)
(0.1003 -0.00423147 0)
(0.10722 -0.00395857 1.69501e-14)
(0.113835 -0.00369774 0)
(0.12015 -0.00344778 1.6313e-14)
(0.126168 -0.00320935 1.60384e-14)
(0.131893 -0.00298136 0)
(0.13733 -0.00276432 0)
(0.142485 -0.00255742 0)
(0.147365 -0.0023609 0)
(0.151979 -0.00217396 0)
(0.156333 -0.00199688 0)
(0.160433 -0.00182884 0)
(0.164284 -0.00167027 1.45952e-14)
(0.167893 -0.00152029 -1.44851e-14)
(0.171268 -0.00137915 0)
(0.174417 -0.00124598 0)
(0.177347 -0.00112093 0)
(0.180067 -0.00100321 0)
(0.182584 -0.000892973 -2.81885e-14)
(0.184906 -0.000789509 0)
(0.18704 -0.000692911 2.79988e-14)
(0.188995 -0.000602547 -2.79259e-14)
(0.190778 -0.000518512 0)
(0.192396 -0.00044027 0)
(0.193858 -0.000367864 0)
(0.19517 -0.000300816 2.77568e-14)
(0.196339 -0.00023909 2.7741e-14)
(0.197374 -0.00018228 0)
(0.19828 -0.00013019 2.77361e-14)
(0.199067 -8.24453e-05 2.77456e-14)
(0.199741 -3.87156e-05 -2.77624e-14)
(0.200309 1.35294e-06 0)
(0.200774 3.83978e-05 0)
(0.201147 7.50683e-05 -2.78513e-14)
(0.201412 0.000111073 0)
(0.201583 0.000142605 0)
(0.201672 0.000168383 0)
(0.201687 0.000189184 0)
(0.201638 0.000206097 2.80832e-14)
(0.20153 0.000219997 2.81417e-14)
(0.201369 0.000231447 0)
(0.201161 0.000240882 2.82658e-14)
(0.20091 0.000248603 0)
(0.200618 0.00025484 0)
(0.20029 0.000259788 2.84655e-14)
(0.199929 0.000263644 0)
(0.199537 0.00026661 2.86046e-14)
(0.199117 0.000268925 0)
(0.198669 0.000270832 0)
(0.198194 0.000272589 2.8819e-14)
(0.197693 0.000274465 0)
(0.197164 0.000276753 2.89654e-14)
(0.196604 0.000279819 0)
(0.196012 0.000284167 0)
(0.195379 0.000290396 0)
(0.1947 0.000299263 -2.92742e-14)
(0.193961 0.000311913 0)
(0.193146 0.000329742 2.94471e-14)
(0.192233 0.00035449 0)
(0.191189 0.000389052 0)
(0.18997 0.000436779 0)
(0.1885 0.000504967 0)
(0.18671 0.000602112 0)
(0.184396 0.000756245 0)
(0.181489 0.000974803 0)
(0.176914 0.00139204 -6.18692e-14)
(0.172579 0.00193799 0)
(0.157344 0.00331156 0)
(0.00074989 -0.00531956 -4.11785e-14)
(0.00315838 -0.00884504 4.01911e-14)
(0.00511473 -0.008812 0)
(0.00617472 -0.00699685 -1.61036e-14)
(0.00631849 -0.00450397 0)
(0.00560997 -0.00187117 -6.44891e-15)
(0.00412292 0.000613341 1.22408e-14)
(0.00194817 0.00279514 1.18717e-14)
(-0.000867313 0.00461411 0)
(-0.00427586 0.00609022 1.10581e-14)
(-0.00823284 0.00729212 5.31331e-15)
(-0.0127023 0.00830331 0)
(-0.0176614 0.00920191 0)
(-0.0231029 0.010049 0)
(-0.0290282 0.0108873 0)
(-0.035442 0.0117514 4.51375e-15)
(-0.042351 0.0126709 0)
(-0.0497612 0.0136637 -8.51506e-15)
(-0.0576722 0.0147328 0)
(-0.0660754 0.015869 0)
(-0.0749516 0.0170541 7.70872e-15)
(-0.0842712 0.0182639 0)
(-0.0939937 0.0194693 -7.1565e-15)
(-0.10407 0.020637 3.44235e-15)
(-0.114439 0.0217318 -3.30952e-15)
(-0.125032 0.022725 3.18062e-15)
(-0.135778 0.0235952 3.05651e-15)
(-0.146605 0.0243247 0)
(-0.157441 0.0249003 0)
(-0.168222 0.0253147 -2.71924e-15)
(-0.178883 0.0255683 2.619e-15)
(-0.189372 0.0256635 0)
(-0.19964 0.0256049 0)
(-0.209645 0.0254026 -2.35627e-15)
(-0.219351 0.0250691 0)
(-0.22873 0.0246177 0)
(-0.237759 0.0240623 2.14471e-15)
(-0.246417 0.0234168 0)
(-0.254692 0.0226944 -2.0273e-15)
(-0.262572 0.0219074 3.94929e-15)
(-0.27005 0.0210667 0)
(-0.27712 0.0201821 0)
(-0.283777 0.0192618 7.34888e-15)
(-0.290019 0.0183128 7.18949e-15)
(-0.295843 0.0173407 7.04051e-15)
(-0.301246 0.0163498 -3.45056e-15)
(-0.306228 0.0153435 3.3853e-15)
(-0.310786 0.0143242 9.97248e-15)
(-0.314917 0.0132938 -6.53369e-15)
(-0.318621 0.0122535 -3.2131e-15)
(-0.321894 0.0112044 0)
(-0.324736 0.0101469 3.11543e-15)
(-0.327142 0.00908119 -3.07115e-15)
(-0.329111 0.00800675 0)
(-0.330639 0.00692261 0)
(-0.331726 0.00582682 0)
(-0.33237 0.00471841 2.9214e-15)
(-0.332577 0.00359701 0)
(-0.332355 0.00246586 -5.72465e-15)
(-0.33172 0.00133272 0)
(-0.330695 0.000215426 -5.62083e-15)
(-0.329304 -0.00086407 0)
(-0.327487 -0.00189977 5.53208e-15)
(-0.325198 -0.00290367 0)
(-0.322421 -0.00388448 -5.46072e-15)
(-0.319148 -0.0048473 2.71563e-15)
(-0.315375 -0.00579251 0)
(-0.311102 -0.00672007 5.38434e-15)
(-0.306331 -0.00762755 2.68336e-15)
(-0.301065 -0.00851315 2.67669e-15)
(-0.295305 -0.00937366 0)
(-0.28906 -0.0102069 2.67023e-15)
(-0.282338 -0.0110102 2.67006e-15)
(-0.275147 -0.0117819 0)
(-0.267499 -0.012519 -2.67606e-15)
(-0.259407 -0.0132189 5.36482e-15)
(-0.250887 -0.013879 0)
(-0.241955 -0.0144983 2.70115e-15)
(-0.232629 -0.0150751 0)
(-0.222929 -0.0156081 -8.18556e-15)
(-0.212876 -0.0160953 0)
(-0.202493 -0.0165347 8.29521e-15)
(-0.191804 -0.0169225 2.78758e-15)
(-0.180834 -0.0172589 -2.81275e-15)
(-0.16961 -0.0175454 -5.68058e-15)
(-0.158161 -0.0177826 5.74034e-15)
(-0.146514 -0.0179707 0)
(-0.134699 -0.0181098 0)
(-0.122746 -0.0182005 0)
(-0.110683 -0.018244 -1.80906e-14)
(-0.0985383 -0.0182409 -6.11581e-15)
(-0.0863403 -0.0181923 6.20682e-15)
(-0.0741179 -0.0180999 0)
(-0.0619 -0.017966 6.40529e-15)
(-0.0497143 -0.0177928 -6.51287e-15)
(-0.0375879 -0.0175829 -6.62616e-15)
(-0.0255458 -0.0173391 0)
(-0.0136143 -0.0170653 0)
(-0.00180554 -0.0167652 0)
(0.00986872 -0.0164419 -6.85279e-15)
(0.0213864 -0.0160894 0)
(0.0327139 -0.0156691 1.34062e-14)
(0.0438113 -0.0151742 1.99851e-14)
(0.0546686 -0.0146412 -1.32642e-14)
(0.0652875 -0.0140935 0)
(0.0756566 -0.0135419 -6.59275e-15)
(0.0857646 -0.012992 0)
(0.0956021 -0.0124464 -1.31413e-14)
(0.105162 -0.0119074 6.56473e-15)
(0.11444 -0.0113758 6.56189e-15)
(0.123432 -0.0108533 0)
(0.132135 -0.0103406 1.96941e-14)
(0.14055 -0.00983909 -1.31399e-14)
(0.148675 -0.00934915 -6.57766e-15)
(0.156513 -0.00887209 0)
(0.164065 -0.00840795 -6.5998e-15)
(0.171334 -0.00795775 -1.98421e-14)
(0.178322 -0.00752137 0)
(0.185035 -0.00709957 -1.32969e-14)
(0.191476 -0.00669222 -1.33368e-14)
(0.197652 -0.00629984 -1.33803e-14)
(0.20357 -0.00592202 0)
(0.209235 -0.00555907 0)
(0.214652 -0.00521051 0)
(0.219826 -0.00487674 6.79329e-15)
(0.224763 -0.00455711 6.82267e-15)
(0.229469 -0.00425182 0)
(0.23395 -0.00396016 1.37704e-14)
(0.238215 -0.00368225 1.38364e-14)
(0.242268 -0.00341737 0)
(0.246118 -0.00316556 1.39746e-14)
(0.24977 -0.00292616 2.80931e-14)
(0.253232 -0.00269917 -1.41205e-14)
(0.256509 -0.00248391 -1.41961e-14)
(0.259609 -0.00228038 0)
(0.262538 -0.00208802 0)
(0.265303 -0.00190676 0)
(0.26791 -0.00173609 -1.45124e-14)
(0.270364 -0.0015758 1.4594e-14)
(0.272673 -0.00142539 2.93527e-14)
(0.274842 -0.00128447 -1.47594e-14)
(0.276878 -0.00115257 1.4843e-14)
(0.278787 -0.00102919 1.49271e-14)
(0.280575 -0.000913805 0)
(0.282248 -0.000805798 0)
(0.28381 -0.000703034 -1.5181e-14)
(0.285277 -0.00060518 0)
(0.286652 -0.000515087 0)
(0.287934 -0.000433906 3.08665e-14)
(0.289126 -0.000361092 0)
(0.290231 -0.000295677 1.56008e-14)
(0.291255 -0.000236681 -1.56839e-14)
(0.292201 -0.000183252 0)
(0.293073 -0.00013487 1.58435e-14)
(0.293876 -9.11226e-05 0)
(0.294615 -5.15588e-05 0)
(0.295293 -1.56831e-05 -1.60761e-14)
(0.295913 1.69628e-05 3.23048e-14)
(0.296478 4.68782e-05 -1.6228e-14)
(0.296992 7.45932e-05 0)
(0.297455 0.000100668 0)
(0.297869 0.000125698 1.64506e-14)
(0.298236 0.000150416 0)
(0.298555 0.000175646 1.65958e-14)
(0.298826 0.000202414 0)
(0.299044 0.000231909 0)
(0.299207 0.000265828 0)
(0.299308 0.000306255 1.68815e-14)
(0.299337 0.000355766 0)
(0.299281 0.000418504 -1.70253e-14)
(0.299121 0.000499773 0)
(0.298828 0.000606999 0)
(0.298367 0.000750895 3.4506e-14)
(0.29768 0.000946702 -3.46737e-14)
(0.296694 0.00122086 0)
(0.295256 0.00161617 0)
(0.293331 0.00221136 0)
(0.290122 0.00314155 1.06573e-13)
(0.287087 0.00468521 0)
(0.276952 0.00739711 -7.30409e-14)
(0.000619093 -0.00870215 -1.27191e-22)
(0.00147924 -0.0118352 -4.53177e-14)
(0.00125166 -0.00954201 0)
(4.31594e-05 -0.00561235 2.28951e-14)
(-0.00191102 -0.00143104 0)
(-0.00450271 0.00258787 0)
(-0.00766502 0.00627718 1.74077e-23)
(-0.0113696 0.00956776 -6.87779e-15)
(-0.0156078 0.0124477 -6.53013e-15)
(-0.0203792 0.0149493 -6.26424e-15)
(-0.0256833 0.0171382 0)
(-0.0315164 0.0190977 0)
(-0.0378719 0.0209118 5.69345e-15)
(-0.0447409 0.0226523 1.10849e-14)
(-0.0521116 0.0243717 -1.08035e-14)
(-0.0599659 0.0261013 0)
(-0.0682767 0.0278535 -1.0267e-14)
(-0.0770067 0.0296249 4.99992e-15)
(-0.0861078 0.0313977 0)
(-0.095523 0.0331432 -9.45596e-15)
(-0.105188 0.0348259 -4.58967e-15)
(-0.115032 0.0364073 8.90089e-15)
(-0.124984 0.0378498 4.31075e-15)
(-0.134969 0.0391201 0)
(-0.144918 0.0401905 -8.067e-15)
(-0.154771 0.0410384 -7.79972e-15)
(-0.164475 0.0416486 0)
(-0.173982 0.0420163 -7.29472e-15)
(-0.183254 0.0421436 0)
(-0.19226 0.0420382 -6.8322e-15)
(-0.200978 0.041713 -3.30861e-15)
(-0.209391 0.041185 0)
(-0.217489 0.0404726 0)
(-0.225268 0.039596 0)
(-0.232724 0.0385758 0)
(-0.239859 0.0374326 0)
(-0.246673 0.0361856 0)
(-0.253171 0.0348528 -5.40434e-15)
(-0.259353 0.0334504 7.90182e-15)
(-0.265224 0.0319925 0)
(-0.270784 0.0304914 0)
(-0.276035 0.028957 0)
(-0.280977 0.0273976 3.07365e-24)
(-0.285609 0.0258196 -4.69325e-15)
(-0.289929 0.0242278 -9.19373e-15)
(-0.293933 0.0226257 9.01152e-15)
(-0.297619 0.0210156 4.41961e-15)
(-0.300981 0.019399 -4.33812e-15)
(-0.304015 0.0177768 1.55668e-24)
(-0.306715 0.0161496 -4.18801e-15)
(-0.309074 0.0145179 0)
(-0.311088 0.0128822 -4.05358e-15)
(-0.312749 0.0112433 7.62919e-24)
(-0.314052 0.0096018 0)
(-0.314989 0.00795881 0)
(-0.315556 0.00631578 3.82654e-15)
(-0.315748 0.00467545 0)
(-0.315559 0.00304129 0)
(-0.314984 0.00141838 -3.68966e-15)
(-0.314015 -0.000188171 -7.29176e-15)
(-0.312641 -0.00177575 3.60345e-15)
(-0.310844 -0.00334999 0)
(-0.308607 -0.0049142 -3.52879e-15)
(-0.305919 -0.0064647 0)
(-0.302771 -0.00799701 -3.46458e-15)
(-0.299157 -0.009508 -3.43608e-15)
(-0.295073 -0.010994 6.81984e-15)
(-0.290515 -0.0124519 3.38609e-15)
(-0.285485 -0.0138773 0)
(-0.279984 -0.0152661 -6.69099e-15)
(-0.274013 -0.0166142 0)
(-0.267579 -0.0179174 -9.94307e-15)
(-0.260688 -0.0191709 -6.60432e-15)
(-0.253349 -0.0203706 -6.58435e-15)
(-0.245571 -0.0215125 6.56905e-15)
(-0.237368 -0.0225926 -9.83743e-15)
(-0.228754 -0.0236063 0)
(-0.219743 -0.0245508 0)
(-0.210355 -0.0254237 6.5518e-15)
(-0.200606 -0.0262237 9.83648e-15)
(-0.190519 -0.0269476 0)
(-0.180114 -0.0275932 -3.29148e-15)
(-0.169415 -0.0281569 0)
(-0.158444 -0.0286363 9.94504e-15)
(-0.147228 -0.0290326 2.14853e-22)
(-0.135793 -0.0293469 -2.19828e-22)
(-0.124168 -0.0295796 -6.73408e-15)
(-0.11238 -0.0297315 0)
(-0.100458 -0.0298038 6.82534e-15)
(-0.0884305 -0.029798 2.3639e-22)
(-0.0763237 -0.029716 0)
(-0.0641657 -0.0295602 0)
(-0.0519839 -0.0293336 0)
(-0.0398057 -0.0290397 -7.1302e-15)
(-0.0276573 -0.0286826 0)
(-0.0155639 -0.0282671 0)
(-0.00354645 -0.0277982 0)
(0.0083738 -0.0272814 0)
(0.02017 -0.0267204 0)
(0.0318173 -0.0261169 -7.20965e-15)
(0.0432976 -0.0254761 0)
(0.0545963 -0.0248049 -7.16138e-15)
(0.0656979 -0.0241004 -7.15785e-15)
(0.0765914 -0.0233633 7.16353e-15)
(0.0872662 -0.0226031 0)
(0.0977092 -0.0218281 7.19286e-15)
(0.107908 -0.0210447 0)
(0.117853 -0.020258 7.23853e-15)
(0.127537 -0.0194717 -7.2662e-15)
(0.136953 -0.0186893 -2.18903e-14)
(0.146097 -0.0179137 0)
(0.154967 -0.0171473 -2.20982e-14)
(0.163563 -0.0163925 -7.40444e-15)
(0.171883 -0.0156512 0)
(0.179929 -0.014925 -1.49763e-14)
(0.187703 -0.0142155 -1.50666e-14)
(0.195207 -0.0135238 2.27417e-14)
(0.202444 -0.012851 0)
(0.209419 -0.0121978 7.68115e-15)
(0.216137 -0.0115648 7.73435e-15)
(0.222602 -0.0109525 2.33682e-14)
(0.228822 -0.0103612 0)
(0.2348 -0.00979099 0)
(0.240543 -0.00924206 0)
(0.246056 -0.00871437 8.02708e-15)
(0.251343 -0.00820769 0)
(0.256412 -0.00772182 0)
(0.261269 -0.00725639 -8.22153e-15)
(0.26592 -0.00681111 -8.28899e-15)
(0.270372 -0.00638554 0)
(0.27463 -0.00597936 0)
(0.278702 -0.00559213 -1.69964e-14)
(0.282594 -0.00522353 0)
(0.286312 -0.00487298 1.72864e-14)
(0.289863 -0.00454014 1.74342e-14)
(0.293252 -0.00422446 0)
(0.296486 -0.00392557 0)
(0.299571 -0.00364295 -1.78852e-14)
(0.302512 -0.00337611 -9.22617e-23)
(0.305315 -0.00312441 -8.74042e-23)
(0.307986 -0.00288726 0)
(0.310532 -0.002664 -3.69963e-14)
(0.312957 -0.00245403 0)
(0.315268 -0.00225672 0)
(0.317469 -0.00207128 0)
(0.319566 -0.00189731 1.9117e-14)
(0.321566 -0.00173454 0)
(0.323476 -0.0015827 -3.8855e-14)
(0.325297 -0.0014419 -1.95826e-14)
(0.327034 -0.00131191 0)
(0.32869 -0.00119213 -1.98905e-14)
(0.330269 -0.00108179 0)
(0.331774 -0.000980065 0)
(0.333209 -0.00088635 -6.10214e-14)
(0.334579 -0.000800106 4.09736e-14)
(0.335885 -0.000720692 0)
(0.337132 -0.000647418 4.15513e-14)
(0.338322 -0.000579545 -2.09181e-14)
(0.339457 -0.000516351 0)
(0.340541 -0.0004571 0)
(0.341574 -0.000400971 0)
(0.342559 -0.000347015 -6.43851e-14)
(0.343496 -0.000294147 0)
(0.344385 -0.000241075 -2.1726e-14)
(0.345227 -0.000186245 0)
(0.346018 -0.00012771 0)
(0.346756 -6.29627e-05 0)
(0.347436 1.12158e-05 0)
(0.348049 9.90627e-05 0)
(0.348584 0.000206383 0)
(0.349027 0.000341069 -4.52524e-14)
(0.349354 0.000514221 0)
(0.349537 0.000741632 -2.28876e-14)
(0.349532 0.00104708 6.90699e-14)
(0.349281 0.00146794 0)
(0.348681 0.00206313 0)
(0.347697 0.0029389 -4.69055e-14)
(0.345869 0.0042541 -4.72637e-14)
(0.344134 0.00635196 4.74791e-14)
(0.338597 0.00972209 4.86439e-14)
(0.000175096 -0.00959961 7.4583e-14)
(-0.00100056 -0.0101315 5.82163e-14)
(-0.0032461 -0.00564997 2.44273e-14)
(-0.00624416 -0.000251578 8.71203e-15)
(-0.00977226 0.00504811 0)
(-0.0137394 0.0100302 -1.20296e-14)
(-0.018115 0.0146271 5.44165e-15)
(-0.0228984 0.0188145 0)
(-0.0281026 0.0225983 4.80888e-15)