/*--------------------------------*- C++ -*----------------------------------*\
| =========                 |                                                 |
| \\      /  F ield         | OpenFOAM: The Open Source CFD Toolbox           |
|  \\    /   O peration     | Version:  2312                                  |
|   \\  /    A nd           | Website:  www.openfoam.com                      |
|    \\/     M anipulation  |                                                 |
\*---------------------------------------------------------------------------*/
FoamFile
{
    version     2.0;
    format      ascii;
    arch        "LSB;label=32;scalar=64";
    class       volVectorField;
    location    "150";
    object      U;
}
// * * * * * * * * * * * * * * * * * * * * * * * * * * * * * * * * * * * * * //

dimensions      [0 1 -1 0 0 0 0];

internalField   nonuniform List<vector> 
12225
(
(4.84801 -0.821833 0)
(4.65545 -0.673004 0)
(4.43864 -0.378846 0)
(4.2006 -0.186345 0)
(3.97982 -0.0822625 0)
(3.79132 -0.0311212 0)
(3.63295 -0.00788888 0)
(3.50112 0.00206232 0)
(3.39207 0.00578607 0)
(3.3019 0.00670464 0)
(3.22707 0.00641531 0)
(3.16463 0.0056622 0)
(3.1123 0.00477819 0)
(3.06853 0.00382309 0)
(3.03228 0.00289621 0)
(3.00391 0.00137393 0)
(2.97877 0.00285935 0)
(2.97094 -0.0156956 0)
(5.07192 0.209538 0)
(5.13589 0.30556 0)
(5.12828 0.246297 0)
(5.08363 0.176547 0)
(5.02591 0.127527 0)
(4.96083 0.0953664 0)
(4.89002 0.0743035 0)
(4.81583 0.0601721 0)
(4.74175 0.0503328 0)
(4.67023 0.0431178 0)
(4.60262 0.0375569 0)
(4.53952 0.0330643 0)
(4.48141 0.0292627 0)
(4.42836 0.025918 0)
(4.38046 0.0226411 0)
(4.33761 0.0196196 0)
(4.30099 0.0150975 0)
(4.26889 0.0133149 0)
(5.0041 0.0539785 0)
(5.02803 0.0569054 0)
(5.05647 0.0375962 0)
(5.07525 0.037296 0)
(5.08611 0.0451006 0)
(5.09011 0.0508256 0)
(5.0866 0.0530984 0)
(5.07634 0.0531425 0)
(5.06117 0.0518839 0)
(5.04278 0.0498502 0)
(5.02231 0.0473722 0)
(5.00067 0.0446626 0)
(4.97859 0.0418116 0)
(4.95671 0.0388031 0)
(4.93555 0.0355438 0)
(4.91543 0.0318169 0)
(4.89749 0.0273448 0)
(4.87931 0.0201264 0)
(4.99797 0.0107152 0)
(5.0099 0.0290399 0)
(5.03457 0.0406363 0)
(5.05393 0.0513949 0)
(5.06817 0.0584217 0)
(5.07987 0.0606302 0)
(5.08853 0.0599202 0)
(5.09383 0.0580534 0)
(5.09638 0.0557779 0)
(5.09685 0.0533242 0)
(5.09566 0.0507766 0)
(5.09318 0.0481708 0)
(5.08975 0.0454717 0)
(5.08573 0.0426086 0)
(5.08138 0.0394199 0)
(5.0769 0.0356534 0)
(5.07258 0.0309278 0)
(5.06694 0.02383 0)
(4.99928 0.00746472 0)
(5.00883 0.0331137 0)
(5.02781 0.0460194 0)
(5.04312 0.0521366 0)
(5.05535 0.0556024 0)
(5.06683 0.056716 0)
(5.07697 0.0561784 0)
(5.08516 0.0548822 0)
(5.09167 0.05325 0)
(5.0969 0.0513997 0)
(5.10109 0.0493744 0)
(5.10443 0.0471933 0)
(5.10707 0.0448292 0)
(5.10922 0.0422114 0)
(5.11097 0.0391996 0)
(5.11239 0.0355695 0)
(5.11343 0.0310721 0)
(5.11328 0.0251303 0)
(5.00014 0.00918799 0)
(5.00817 0.0317919 0)
(5.02328 0.0424156 0)
(5.0364 0.0473177 0)
(5.04751 0.0507929 0)
(5.05828 0.0525676 0)
(5.0682 0.0527219 0)
(5.07673 0.0519538 0)
(5.08406 0.050714 0)
(5.0905 0.0491661 0)
(5.09622 0.047375 0)
(5.10133 0.0453731 0)
(5.10594 0.0431445 0)
(5.11015 0.040627 0)
(5.114 0.0377092 0)
(5.11746 0.0342219 0)
(5.12041 0.0300373 0)
(5.12235 0.0249134 0)
(5.00028 0.00895111 0)
(5.00709 0.0278005 0)
(5.01981 0.0378462 0)
(5.0317 0.0431525 0)
(5.04208 0.046927 0)
(5.05212 0.0489875 0)
(5.06152 0.0494329 0)
(5.06987 0.0489134 0)
(5.07727 0.0478752 0)
(5.08397 0.046492 0)
(5.09011 0.0448353 0)
(5.09577 0.0429395 0)
(5.10102 0.0407948 0)
(5.10591 0.0383514 0)
(5.11045 0.0355264 0)
(5.11459 0.0322072 0)
(5.11817 0.0283379 0)
(5.1209 0.0238446 0)
(5.00028 0.0079332 0)
(5.00605 0.0240642 0)
(5.01697 0.0339007 0)
(5.02787 0.0394772 0)
(5.03765 0.0432523 0)
(5.04706 0.0453668 0)
(5.05597 0.0459869 0)
(5.06405 0.0456619 0)
(5.07134 0.0447894 0)
(5.07803 0.0435403 0)
(5.08423 0.0419909 0)
(5.09001 0.0401789 0)
(5.09541 0.0381044 0)
(5.10047 0.0357333 0)
(5.10518 0.0330111 0)
(5.10946 0.0298738 0)
(5.11319 0.0263116 0)
(5.1162 0.0223413 0)
(5.0003 0.00697534 0)
(5.00518 0.0209622 0)
(5.01454 0.0302868 0)
(5.02447 0.0358314 0)
(5.03367 0.0395033 0)
(5.04255 0.0416376 0)
(5.05103 0.0424088 0)
(5.05883 0.0422572 0)
(5.06596 0.0415314 0)
(5.07255 0.0404001 0)
(5.07869 0.0389453 0)
(5.08443 0.0372102 0)
(5.08981 0.0352059 0)
(5.09484 0.0329159 0)
(5.0995 0.0303115 0)
(5.10373 0.0273665 0)
(5.10743 0.0240999 0)
(5.11052 0.0205702 0)
(5.00031 0.00613842 0)
(5.00445 0.0182335 0)
(5.01244 0.0268218 0)
(5.0214 0.0321746 0)
(5.03 0.0357141 0)
(5.03837 0.0378414 0)
(5.04643 0.0387245 0)
(5.05396 0.0387146 0)
(5.06091 0.0381156 0)
(5.06736 0.0370911 0)
(5.07339 0.035727 0)
(5.07903 0.034072 0)
(5.08431 0.0321477 0)
(5.08923 0.029954 0)
(5.09377 0.0274845 0)
(5.09789 0.0247396 0)
(5.1015 0.0217548 0)
(5.10458 0.0186032 0)
(5.0003 0.00536434 0)
(5.00383 0.0157652 0)
(5.01064 0.0235189 0)
(5.01865 0.0285765 0)
(5.02663 0.031938 0)
(5.03447 0.034005 0)
(5.04211 0.0349456 0)
(5.04933 0.0350396 0)
(5.05606 0.0345461 0)
(5.06236 0.0336194 0)
(5.06825 0.0323458 0)
(5.07376 0.0307782 0)
(5.07891 0.0289471 0)
(5.0837 0.0268665 0)
(5.0881 0.0245473 0)
(5.09208 0.0220072 0)
(5.09559 0.0192899 0)
(5.09864 0.016469 0)
(5.00028 0.00467841 0)
(5.00333 0.0136891 0)
(5.00924 0.0206468 0)
(5.01645 0.0253533 0)
(5.02383 0.0285044 0)
(5.03118 0.0304692 0)
(5.0384 0.0314136 0)
(5.04531 0.0315662 0)
(5.05181 0.0311475 0)
(5.05792 0.0302994 0)
(5.06366 0.0291067 0)
(5.06903 0.0276245 0)
(5.07404 0.0258895 0)
(5.07869 0.0239255 0)
(5.08296 0.0217547 0)
(5.08682 0.0194046 0)
(5.09025 0.0169203 0)
(5.09325 0.0143718 0)
(5.00026 0.00403443 0)
(5.00292 0.0117882 0)
(5.00806 0.0179377 0)
(5.01451 0.0222322 0)
(5.02131 0.0251362 0)
(5.02817 0.0269641 0)
(5.03497 0.0278738 0)
(5.04154 0.0280535 0)
(5.04779 0.0276889 0)
(5.05369 0.0269081 0)
(5.05924 0.0257922 0)
(5.06445 0.0243973 0)
(5.06931 0.0227641 0)
(5.07382 0.0209234 0)
(5.07795 0.0189043 0)
(5.0817 0.0167401 0)
(5.08504 0.0144745 0)
(5.08801 0.0121727 0)
(5.00024 0.00336533 0)
(5.00252 0.0098101 0)
(5.00693 0.0150386 0)
(5.01262 0.0187994 0)
(5.01879 0.0213684 0)
(5.02511 0.0229926 0)
(5.03142 0.0238148 0)
(5.03759 0.0239851 0)
(5.04352 0.0236534 0)
(5.04914 0.0229313 0)
(5.05447 0.0218945 0)
(5.05947 0.0205979 0)
(5.06414 0.0190839 0)
(5.06847 0.0173878 0)
(5.07244 0.0155427 0)
(5.07606 0.0135842 0)
(5.0793 0.0115522 0)
(5.08222 0.00950502 0)
(5.00022 0.00267008 0)
(5.00215 0.0077637 0)
(5.00589 0.0119723 0)
(5.01086 0.0150753 0)
(5.01638 0.0172101 0)
(5.02212 0.0185528 0)
(5.02791 0.0192233 0)
(5.03364 0.0193364 0)
(5.03918 0.0190073 0)
(5.04449 0.0183285 0)
(5.04952 0.0173676 0)
(5.05427 0.0161758 0)
(5.0587 0.0147949 0)
(5.06283 0.013261 0)
(5.06662 0.011608 0)
(5.07009 0.00986984 0)
(5.07322 0.00808146 0)
(5.07607 0.00629246 0)
(5.00019 0.0019492 0)
(5.00182 0.00565775 0)
(5.00499 0.00875744 0)
(5.00929 0.0110776 0)
(5.01418 0.0126693 0)
(5.01935 0.0136427 0)
(5.02463 0.0140876 0)
(5.02989 0.0140864 0)
(5.03503 0.0137217 0)
(5.03998 0.0130646 0)
(5.0447 0.0121712 0)
(5.04915 0.0110859 0)
(5.05333 0.00984645 0)
(5.05723 0.00848627 0)
(5.06083 0.00703635 0)
(5.06414 0.0055265 0)
(5.06715 0.00398486 0)
(5.0699 0.00245233 0)
(5.00016 0.00120269 0)
(5.00155 0.00348553 0)
(5.00426 0.00539089 0)
(5.008 0.0068055 0)
(5.01233 0.00773792 0)
(5.01699 0.00824547 0)
(5.02179 0.00838345 0)
(5.02661 0.00820367 0)
(5.03135 0.00775843 0)
(5.03595 0.00709593 0)
(5.04035 0.00625661 0)
(5.04452 0.00527454 0)
(5.04845 0.00417942 0)
(5.05211 0.00299831 0)
(5.05552 0.00175601 0)
(5.05867 0.000475979 0)
(5.06155 -0.000821017 0)
(5.06421 -0.00210291 0)
(5.00014 0.000417772 0)
(5.00136 0.00120141 0)
(5.00375 0.0018109 0)
(5.00708 0.00219208 0)
(5.011 0.00234124 0)
(5.01525 0.00227694 0)
(5.01967 0.00201978 0)
(5.02413 0.00159135 0)
(5.02854 0.00101527 0)
(5.03284 0.000314961 0)
(5.03696 -0.000488329 0)
(5.04088 -0.00137523 0)
(5.04458 -0.00232771 0)
(5.04805 -0.0033286 0)
(5.05129 -0.00436177 0)
(5.05429 -0.00541191 0)
(5.05707 -0.00646567 0)
(5.05964 -0.00749988 0)
(5.00013 -0.000443824 0)
(5.00128 -0.00130823 0)
(5.00353 -0.0021437 0)
(5.00669 -0.00293994 0)
(5.01042 -0.00369879 0)
(5.01448 -0.00443614 0)
(5.0187 -0.00516883 0)
(5.02296 -0.0059072 0)
(5.02718 -0.00665756 0)
(5.03128 -0.00742396 0)
(5.03523 -0.00820826 0)
(5.03898 -0.00900937 0)
(5.04253 -0.00982423 0)
(5.04587 -0.0106481 0)
(5.04899 -0.0114754 0)
(5.05189 -0.0123 0)
(5.0546 -0.0131163 0)
(5.0571 -0.0139097 0)
(5.00014 -0.00126142 0)
(5.00135 -0.00370165 0)
(5.00374 -0.00592326 0)
(5.00709 -0.0078337 0)
(5.011 -0.00943294 0)
(5.01519 -0.0107826 0)
(5.0195 -0.0119394 0)
(5.02383 -0.012944 0)
(5.02808 -0.0138329 0)
(5.0322 -0.0146401 0)
(5.03613 -0.0153908 0)
(5.03986 -0.0161024 0)
(5.04338 -0.0167859 0)
(5.04668 -0.0174485 0)
(5.04976 -0.0180938 0)
(5.05263 -0.0187235 0)
(5.05531 -0.0193375 0)
(5.05779 -0.0199287 0)
(5.00015 -0.00196288 0)
(5.00149 -0.00579449 0)
(5.00418 -0.00923459 0)
(5.00792 -0.0120571 0)
(5.0122 -0.0142931 0)
(5.0167 -0.0160885 0)
(5.02127 -0.0175394 0)
(5.0258 -0.018707 0)
(5.03021 -0.0196571 0)
(5.03443 -0.0204529 0)
(5.03843 -0.0211409 0)
(5.0422 -0.0217528 0)
(5.04574 -0.0223107 0)
(5.04905 -0.0228308 0)
(5.05213 -0.0233232 0)
(5.055 -0.0237944 0)
(5.05766 -0.0242478 0)
(5.06014 -0.0246801 0)
(5.00015 -0.00261764 0)
(5.00164 -0.00786228 0)
(5.00479 -0.012545 0)
(5.00916 -0.0161944 0)
(5.01398 -0.0189435 0)
(5.01889 -0.0210754 0)
(5.0238 -0.0227221 0)
(5.02862 -0.0239664 0)
(5.03324 -0.0249112 0)
(5.03761 -0.0256487 0)
(5.04171 -0.026242 0)
(5.04554 -0.0267337 0)
(5.04912 -0.0271562 0)
(5.05245 -0.0275322 0)
(5.05553 -0.0278774 0)
(5.0584 -0.0282011 0)
(5.06106 -0.0285092 0)
(5.06352 -0.0288002 0)
(5.00011 -0.00321887 0)
(5.00171 -0.0099734 0)
(5.00549 -0.0158994 0)
(5.0107 -0.0202567 0)
(5.01617 -0.0234488 0)
(5.02155 -0.0258634 0)
(5.02685 -0.0276149 0)
(5.03199 -0.0288344 0)
(5.03684 -0.0296939 0)
(5.04136 -0.0303185 0)
(5.04557 -0.030781 0)
(5.04948 -0.0311312 0)
(5.0531 -0.0314082 0)
(5.05645 -0.0316399 0)
(5.05954 -0.0318442 0)
(5.06241 -0.0320319 0)
(5.06506 -0.0322091 0)
(5.06751 -0.0323754 0)
(5.00005 -0.00374738 0)
(5.00167 -0.0125011 0)
(5.00625 -0.0195108 0)
(5.01239 -0.0241377 0)
(5.0185 -0.0276218 0)
(5.02441 -0.0303271 0)
(5.0302 -0.0321751 0)
(5.03571 -0.0333335 0)
(5.04082 -0.0340681 0)
(5.04552 -0.0345446 0)
(5.04987 -0.0348464 0)
(5.05387 -0.0350321 0)
(5.05755 -0.0351483 0)
(5.06093 -0.0352272 0)
(5.06404 -0.0352881 0)
(5.06689 -0.0353423 0)
(5.06953 -0.0353944 0)
(5.07195 -0.0354429 0)
(4.99981 -0.00350028 0)
(5.00118 -0.0157315 0)
(5.00701 -0.0242139 0)
(5.0142 -0.0285345 0)
(5.02085 -0.0317492 0)
(5.02738 -0.0344136 0)
(5.03387 -0.0362247 0)
(5.03994 -0.0373114 0)
(5.04543 -0.0379568 0)
(5.05041 -0.0383247 0)
(5.05494 -0.038498 0)
(5.05906 -0.0385422 0)
(5.06279 -0.038512 0)
(5.06617 -0.0384446 0)
(5.06923 -0.0383633 0)
(5.07201 -0.0382815 0)
(5.07454 -0.0382051 0)
(5.07683 -0.0381315 0)
(4.99829 -0.000219503 0)
(4.99839 -0.0164762 0)
(5.00715 -0.0285553 0)
(5.01666 -0.0342864 0)
(5.02433 -0.0375273 0)
(5.0317 -0.0395232 0)
(5.03903 -0.0405728 0)
(5.04576 -0.0410768 0)
(5.0517 -0.0413142 0)
(5.05695 -0.0413799 0)
(5.06161 -0.0413154 0)
(5.06572 -0.0411664 0)
(5.06932 -0.0409733 0)
(5.07245 -0.0407636 0)
(5.07518 -0.0405547 0)
(5.07754 -0.0403587 0)
(5.07959 -0.0401786 0)
(5.08135 -0.0400094 0)
(4.99438 0.00177327 0)
(4.99229 -0.0104526 0)
(5.00588 -0.0233125 0)
(5.0204 -0.0347584 0)
(5.03141 -0.0428553 0)
(5.04084 -0.0468698 0)
(5.0493 -0.0481579 0)
(5.05646 -0.048209 0)
(5.06233 -0.0477516 0)
(5.06715 -0.0470431 0)
(5.07105 -0.0462115 0)
(5.07411 -0.045351 0)
(5.07641 -0.0445213 0)
(5.07803 -0.0437493 0)
(5.07907 -0.0430507 0)
(5.07961 -0.0424341 0)
(5.07975 -0.0418965 0)
(5.07954 -0.0414449 0)
(4.99485 -0.0275973 0)
(4.9972 -0.0243375 0)
(5.01307 -0.0074537 0)
(5.03039 -0.00724766 0)
(5.04571 -0.0165515 0)
(5.05852 -0.0255484 0)
(5.06786 -0.0319034 0)
(5.07346 -0.0362109 0)
(5.07593 -0.0390582 0)
(5.07597 -0.0407675 0)
(5.07409 -0.0416356 0)
(5.07062 -0.0419278 0)
(5.06588 -0.0418483 0)
(5.06014 -0.041534 0)
(5.05365 -0.0410867 0)
(5.04659 -0.0405847 0)
(5.03912 -0.0400795 0)
(5.03146 -0.039668 0)
(5.03832 -0.173435 0)
(5.08574 -0.276057 0)
(5.09644 -0.240762 0)
(5.08891 -0.185363 0)
(5.0782 -0.142604 0)
(5.06473 -0.112107 0)
(5.04547 -0.0903134 0)
(5.02036 -0.0748635 0)
(4.99121 -0.0638553 0)
(4.95964 -0.0557996 0)
(4.92682 -0.0497152 0)
(4.89357 -0.0450008 0)
(4.86046 -0.0412732 0)
(4.82793 -0.0382704 0)
(4.79626 -0.0358163 0)
(4.76565 -0.033807 0)
(4.73613 -0.0321643 0)
(4.70806 -0.0310107 0)
(4.9293 0.663074 0)
(4.86226 0.581859 0)
(4.7522 0.361625 0)
(4.60196 0.204105 0)
(4.44656 0.108798 0)
(4.30323 0.0543142 0)
(4.1751 0.0240052 0)
(4.06152 0.00734981 0)
(3.96157 -0.00171492 0)
(3.87406 -0.00649013 0)
(3.79728 -0.00882097 0)
(3.72964 -0.00977361 0)
(3.66971 -0.00996197 0)
(3.6164 -0.00974308 0)
(3.56866 -0.00932272 0)
(3.52575 -0.00883473 0)
(3.48671 -0.00835542 0)
(3.45139 -0.00809217 0)
(0.00266432 -0.00559158 1.48489e-16)
(0.00948843 -0.0102472 -1.3618e-16)
(0.0171096 -0.0113051 0)
(0.0239877 -0.00987748 0)
(0.0287906 -0.00707538 0)
(0.0312165 -0.00378314 9.06621e-17)
(0.0312827 -0.000592944 0)
(0.0292365 0.00213835 0)
(0.0255128 0.00428441 0)
(0.0204515 0.00589896 0)
(0.0143452 0.0071064 -9.38527e-17)
(0.00742094 0.00801455 0)
(-0.000163062 0.00866229 0)
(-0.00832084 0.00908798 0)
(-0.0170288 0.0094023 0)
(-0.0262885 0.00970915 -8.01533e-17)
(-0.0361166 0.0100562 0)
(-0.0465488 0.010461 0)
(-0.0576234 0.0109248 0)
(-0.0693765 0.0114428 0)
(-0.0818358 0.0120063 0)
(-0.095023 0.0126068 0)
(-0.10895 0.0132342 0)
(-0.12362 0.013877 -4.59703e-17)
(-0.139026 0.014521 4.31385e-17)
(-0.15515 0.0151525 -4.05377e-17)
(-0.171965 0.0157599 -3.81545e-17)
(-0.189436 0.0163341 0)
(-0.207522 0.01687 0)
(-0.226175 0.0173623 3.21206e-17)
(-0.245347 0.0178044 3.04348e-17)
(-0.26499 0.018192 0)
(-0.285052 0.0185248 0)
(-0.305485 0.0188034 2.6163e-17)
(-0.326242 0.0190306 0)
(-0.347282 0.0192103 0)
(-0.368564 0.0193492 -2.28407e-17)
(-0.390056 0.0194531 0)
(-0.411728 0.0195264 -2.10268e-17)
(-0.433553 0.0195716 -4.04343e-17)
(-0.455507 0.0195927 0)
(-0.477569 0.0195911 0)
(-0.499719 0.0195689 0)
(-0.52194 0.0195269 0)
(-0.544217 0.0194708 0)
(-0.56654 0.0194026 -3.27848e-17)
(-0.588897 0.019326 -3.17793e-17)
(-0.611283 0.0192414 -3.08329e-17)
(-0.633688 0.0191509 0)
(-0.656107 0.0190542 2.91005e-17)
(-0.678531 0.0189526 0)
(-0.700954 0.0188441 -2.7554e-17)
(-0.723364 0.0187296 -2.6842e-17)
(-0.745752 0.018606 0)
(-0.768104 0.0184725 0)
(-0.790412 0.0183246 0)
(-0.812661 0.0181621 -2.43377e-17)
(-0.834837 0.0179811 0)
(-0.85692 0.0177825 0)
(-0.878896 0.017563 0)
(-0.900743 0.0173268 0)
(-0.922437 0.0170732 0)
(-0.943953 0.0168078 0)
(-0.965268 0.0165313 0)
(-0.986358 0.0162497 0)
(-1.0072 0.0159658 2.0228e-17)
(-1.02777 0.0157004 0)
(-1.04808 0.0154465 0)
(-1.06815 0.0151945 -1.91976e-17)
(-1.08795 0.0149377 -1.88834e-17)
(-1.10747 0.0146748 0)
(-1.12668 0.0144006 1.82963e-17)
(-1.14555 0.0141174 -1.80225e-17)
(-1.16407 0.0138199 0)
(-1.18218 0.0135107 1.75117e-17)
(-1.19987 0.0131819 0)
(-1.21709 0.012833 0)
(-1.2338 0.0124522 -1.68338e-17)
(-1.24995 0.0120359 0)
(-1.26549 0.011572 1.64385e-17)
(-1.28039 0.011059 0)
(-1.29458 0.0104868 -1.60873e-17)
(-1.308 0.00985685 -1.59282e-17)
(-1.32061 0.00916418 -1.57799e-17)
(-1.33232 0.00841802 -3.12861e-17)
(-1.34306 0.00762044 3.1035e-17)
(-1.35276 0.00678432 0)
(-1.36131 0.00591197 0)
(-1.3686 0.00500886 0)
(-1.37451 0.00407806 3.02804e-17)
(-1.37892 0.0031221 3.01614e-17)
(-1.38175 0.0021515 -3.00717e-17)
(-1.38283 0.00122869 0)
(-1.38253 0.000363314 2.99231e-17)
(-1.38074 -0.000513944 2.98854e-17)
(-1.37745 -0.00141775 2.98723e-17)
(-1.37259 -0.00235743 0)
(-1.36611 -0.00333444 0)
(-1.35797 -0.00435141 0)
(-1.34809 -0.00540794 3.0082e-17)
(-1.33644 -0.00650411 0)
(-1.32295 -0.00763911 0)
(-1.3076 -0.00881115 -3.05501e-17)
(-1.29034 -0.0100198 0)
(-1.27114 -0.0112611 0)
(-1.24997 -0.0125342 -3.13363e-17)
(-1.22682 -0.0138335 0)
(-1.20168 -0.0151558 0)
(-1.17456 -0.0164939 3.25034e-17)
(-1.1455 -0.0178423 3.29898e-17)
(-1.11451 -0.0191923 0)
(-1.08165 -0.0205223 -3.41292e-17)
(-1.04698 -0.0218489 0)
(-1.01056 -0.0231432 3.55195e-17)
(-0.972495 -0.0243823 0)
(-0.932875 -0.0255825 3.72061e-17)
(-0.891843 -0.0267138 3.81812e-17)
(-0.84951 -0.0277802 0)
(-0.806047 -0.028757 0)
(-0.761581 -0.0296384 0)
(-0.716264 -0.0304137 0)
(-0.67026 -0.0310708 0)
(-0.623761 -0.0316131 0)
(-0.576959 -0.0320379 0)
(-0.530048 -0.0323496 4.98402e-17)
(-0.483212 -0.0325408 -5.19289e-17)
(-0.436623 -0.0326208 0)
(-0.390445 -0.032582 0)
(-0.344833 -0.0324369 0)
(-0.299933 -0.0321802 0)
(-0.255879 -0.0318261 -1.30608e-16)
(-0.212797 -0.0313705 0)
(-0.170796 -0.0308288 1.44638e-16)
(-0.129994 -0.0301949 -1.52513e-16)
(-0.0904677 -0.029476 0)
(-0.0522963 -0.0286768 0)
(-0.015553 -0.0277544 0)
(0.0200472 -0.0265171 1.77874e-16)
(0.0543631 -0.0249882 1.70085e-16)
(0.0869852 -0.0233682 0)
(0.11789 -0.0217744 1.57644e-16)
(0.147052 -0.0202361 1.52626e-16)
(0.174483 -0.0187634 -1.48244e-16)
(0.200214 -0.0173594 0)
(0.224288 -0.0160236 0)
(0.246755 -0.0147559 -1.38089e-16)
(0.267671 -0.0135534 0)
(0.287099 -0.0124149 0)
(0.305104 -0.0113377 0)
(0.321757 -0.0103221 0)
(0.337132 -0.00936707 1.27693e-16)
(0.351307 -0.00847316 1.2624e-16)
(0.364364 -0.00763891 0)
(0.376387 -0.00686516 1.23759e-16)
(0.387465 -0.00615173 0)
(0.397688 -0.00549896 0)
(0.407147 -0.00490462 1.20825e-16)
(0.41594 -0.00436563 0)
(0.424159 -0.0038736 1.19208e-16)
(0.431844 -0.00343263 0)
(0.439146 -0.00305451 0)
(0.446175 -0.0027405 1.16969e-16)
(0.453042 -0.00248751 0)
(0.459857 -0.00229351 1.15487e-16)
(0.466725 -0.00215611 0)
(0.47375 -0.00207308 0)
(0.481029 -0.00204121 0)
(0.488656 -0.0020571 -1.12204e-16)
(0.496714 -0.00211598 0)
(0.505279 -0.00221168 1.1031e-16)
(0.514411 -0.00233642 0)
(0.524149 -0.00248189 0)
(0.534502 -0.0026347 0)
(0.545427 -0.00277251 0)
(0.556838 -0.00285808 0)
(0.568367 -0.00282692 0)
(0.579892 -0.00252367 0)
(0.588338 -0.00159125 -2.04436e-16)
(0.598063 0.000976669 0)
(0.575056 0.00938467 0)
(0.00335397 -0.0193046 -3.75526e-16)
(0.00897737 -0.0245916 2.42821e-16)
(0.011782 -0.0207499 0)
(0.0124311 -0.0144442 -7.94974e-17)
(0.0113153 -0.00750982 0)
(0.00863603 -0.000722625 -3.15466e-17)
(0.00461227 0.0054691 5.99441e-17)
(-0.000658924 0.0108142 5.76623e-17)
(-0.00715978 0.0152409 0)
(-0.0148359 0.0188267 5.32071e-17)
(-0.0236238 0.0217208 2.56022e-17)
(-0.0334586 0.0240901 0)
(-0.0442724 0.0260847 0)
(-0.0559872 0.0278333 0)
(-0.0685332 0.0294478 0)
(-0.0818684 0.0310161 2.14792e-17)
(-0.095965 0.0325919 0)
(-0.110797 0.0341987 -4.01238e-17)
(-0.12634 0.035836 0)
(-0.142568 0.0374899 0)
(-0.159449 0.0391385 3.61489e-17)
(-0.176949 0.0407584 0)
(-0.195024 0.0423277 -3.36855e-17)
(-0.213627 0.0438274 1.62552e-17)
(-0.232706 0.0452386 -1.56879e-17)
(-0.252207 0.0465407 1.51421e-17)
(-0.272074 0.0477119 1.46196e-17)
(-0.292254 0.0487407 0)
(-0.312691 0.049623 0)
(-0.333334 0.0503592 -1.31907e-17)
(-0.354137 0.0509535 1.27596e-17)
(-0.375056 0.0514121 0)
(-0.396056 0.0517444 0)
(-0.417103 0.0519605 -1.15948e-17)
(-0.438172 0.0520719 0)
(-0.459241 0.0520894 0)
(-0.480289 0.0520236 1.06095e-17)
(-0.501302 0.0518855 0)
(-0.522263 0.0516876 -1.00367e-17)
(-0.543161 0.0514391 1.95417e-17)
(-0.56399 0.051149 0)
(-0.584743 0.0508243 0)
(-0.605415 0.0504729 3.61791e-17)
(-0.626007 0.0500986 3.52998e-17)
(-0.646517 0.049706 3.4463e-17)
(-0.666943 0.0492978 -1.68327e-17)
(-0.687285 0.0488774 1.6452e-17)
(-0.707541 0.0484451 4.82659e-17)
(-0.727706 0.0480024 -3.14823e-17)
(-0.747779 0.0475482 -1.54084e-17)
(-0.767756 0.0470833 0)
(-0.787632 0.0466059 1.47842e-17)
(-0.807401 0.0461169 -1.44912e-17)
(-0.827054 0.0456137 0)
(-0.846584 0.0450963 0)
(-0.86598 0.0445602 0)
(-0.885234 0.0440047 1.3429e-17)
(-0.904332 0.0434249 0)
(-0.923262 0.0428192 -2.59146e-17)
(-0.942014 0.0421821 0)
(-0.960574 0.0415145 -2.50415e-17)
(-0.978932 0.0408136 0)
(-0.997076 0.0400833 2.4234e-17)
(-1.015 0.0393239 0)
(-1.03268 0.0385436 -2.34874e-17)
(-1.05012 0.0377463 1.15674e-17)
(-1.0673 0.0369429 0)
(-1.08418 0.0361303 2.24652e-17)
(-1.10073 0.0353037 1.10736e-17)
(-1.11694 0.0344511 1.092e-17)
(-1.13276 0.0335695 0)
(-1.14817 0.0326498 1.06283e-17)
(-1.16315 0.031692 1.04896e-17)
(-1.17766 0.030689 0)
(-1.19168 0.0296436 -1.02263e-17)
(-1.20517 0.0285509 2.02029e-17)
(-1.2181 0.0274153 0)
(-1.23043 0.0262314 9.86443e-18)
(-1.24212 0.0250006 0)
(-1.25313 0.0237133 -2.89322e-17)
(-1.26342 0.0223689 0)
(-1.27294 0.0209565 2.83186e-17)
(-1.28165 0.0194737 9.34301e-18)
(-1.2895 0.0179083 -9.25043e-18)
(-1.29645 0.0162599 -1.83231e-17)
(-1.30245 0.0145193 1.81529e-17)
(-1.30746 0.0126879 0)
(-1.31146 0.0107591 0)
(-1.31442 0.00873783 0)
(-1.31634 0.00663131 -5.26538e-17)
(-1.31726 0.00446246 -1.74235e-17)
(-1.31718 0.00226958 1.72948e-17)
(-1.31616 9.88176e-05 0)
(-1.31383 -0.00205388 1.70494e-17)
(-1.31011 -0.00423674 -1.69383e-17)
(-1.3049 -0.00646216 -1.68351e-17)
(-1.29816 -0.00873688 0)
(-1.28982 -0.0110582 0)
(-1.27981 -0.0134247 0)
(-1.2681 -0.0158297 -1.65024e-17)
(-1.25463 -0.0182677 0)
(-1.23935 -0.0207304 3.27739e-17)
(-1.22223 -0.0232089 4.90292e-17)
(-1.20323 -0.0256941 -3.26174e-17)
(-1.18231 -0.0281737 0)
(-1.15945 -0.0306376 -1.62702e-17)
(-1.13466 -0.0330715 0)
(-1.10791 -0.0354637 -3.25502e-17)
(-1.07923 -0.0377989 1.62941e-17)
(-1.04864 -0.0400647 1.63249e-17)
(-1.01619 -0.0422458 0)
(-0.98191 -0.0443283 4.92741e-17)
(-0.945881 -0.0462993 -3.29879e-17)
(-0.90819 -0.0481427 -1.65765e-17)
(-0.868927 -0.0498416 0)
(-0.828215 -0.0513689 -1.67909e-17)
(-0.786179 -0.0527031 -5.0784e-17)
(-0.742955 -0.0538568 0)
(-0.698721 -0.0548253 -3.44639e-17)
(-0.653622 -0.0555821 -3.48206e-17)
(-0.607822 -0.0561189 -3.52109e-17)
(-0.561498 -0.0564299 0)
(-0.514841 -0.0565211 0)
(-0.468048 -0.0563948 0)
(-0.421313 -0.0560668 1.85512e-17)
(-0.374822 -0.0555408 1.88302e-17)
(-0.328748 -0.0548339 0)
(-0.283258 -0.0539499 3.8861e-17)
(-0.238501 -0.0529093 3.95054e-17)
(-0.194622 -0.0517181 0)
(-0.151747 -0.0503989 4.08747e-17)
(-0.109996 -0.0489563 8.31862e-17)
(-0.0694664 -0.0474058 -4.23354e-17)
(-0.0302577 -0.045756 -4.30932e-17)
(0.00765292 -0.0440843 0)
(0.0441718 -0.0424037 0)
(0.0791577 -0.0406488 0)
(0.112491 -0.0386851 -4.25659e-17)
(0.144113 -0.0364938 4.23999e-17)
(0.17411 -0.0342229 8.45664e-17)
(0.202562 -0.0319718 -4.21944e-17)
(0.229482 -0.0297794 4.21239e-17)
(0.254882 -0.0276656 4.20759e-17)
(0.278787 -0.0256394 0)
(0.301231 -0.0237063 0)
(0.322255 -0.0218694 -4.20255e-17)
(0.341911 -0.0201307 0)
(0.360254 -0.0184914 0)
(0.377347 -0.0169528 8.41574e-17)
(0.393258 -0.0155156 0)
(0.408058 -0.0141811 4.21389e-17)
(0.421825 -0.0129495 -4.21722e-17)
(0.434641 -0.0118218 0)
(0.44659 -0.0107974 4.22356e-17)
(0.45776 -0.00987692 0)
(0.468244 -0.00905851 0)
(0.478135 -0.00834191 -4.23154e-17)
(0.48753 -0.00772175 8.46652e-17)
(0.496532 -0.00719389 -4.23444e-17)
(0.505238 -0.00676295 0)
(0.513751 -0.0064386 0)
(0.522168 -0.00621632 4.23321e-17)
(0.530591 -0.0060926 0)
(0.539124 -0.00606095 4.2272e-17)
(0.547864 -0.00611768 0)
(0.556908 -0.00625521 0)
(0.566346 -0.00646839 0)
(0.576264 -0.00674778 4.20089e-17)
(0.586737 -0.00708525 0)
(0.597829 -0.00746688 -4.18077e-17)
(0.609591 -0.00787942 0)
(0.622052 -0.00830168 0)
(0.635213 -0.00870625 8.28686e-17)
(0.649028 -0.00904795 -8.26108e-17)
(0.6634 -0.00925278 0)
(0.678036 -0.00919051 0)
(0.692737 -0.00853535 0)
(0.705727 -0.00674709 2.46011e-16)
(0.719202 -0.00182661 0)
(0.721243 0.0108949 -1.67268e-16)
(0.00166199 -0.028664 -4.10132e-22)
(0.00236603 -0.0277548 -2.474e-16)
(0.000424165 -0.0185112 0)
(-0.00312015 -0.00859002 1.05412e-16)
(-0.0078484 0.000906785 0)
(-0.0135362 0.00971034 0)
(-0.0200684 0.0176945 3.3723e-23)
(-0.0274218 0.0247928 -3.18241e-17)
(-0.0356154 0.0309925 -3.02388e-17)
(-0.0446736 0.0363431 -2.90111e-17)
(-0.0546101 0.0409489 0)
(-0.0654223 0.0449457 0)
(-0.0770904 0.0484772 2.6301e-17)
(-0.0895798 0.0516753 5.11029e-17)
(-0.102846 0.0546465 -4.96764e-17)
(-0.116838 0.0574683 0)
(-0.131501 0.0601901 -4.6955e-17)
(-0.146778 0.0628351 2.28207e-17)
(-0.162613 0.0654055 0)
(-0.178948 0.0678888 -4.31004e-17)
(-0.195729 0.0702635 -2.09374e-17)
(-0.212902 0.072504 4.06819e-17)
(-0.230414 0.0745836 1.97598e-17)
(-0.248212 0.0764782 0)
(-0.266243 0.0781695 -3.72687e-17)
(-0.284453 0.0796456 -3.61765e-17)
(-0.3028 0.080901 0)
(-0.32125 0.0819334 -3.41019e-17)
(-0.33977 0.0827469 0)
(-0.358334 0.0833499 -3.21933e-17)
(-0.376919 0.083755 -1.56504e-17)
(-0.395505 0.0839776 0)
(-0.414076 0.0840357 0)
(-0.43262 0.0839475 0)
(-0.451128 0.0837316 0)
(-0.469591 0.0834053 0)
(-0.488004 0.0829848 0)
(-0.506365 0.0824835 -2.61004e-17)
(-0.524671 0.0819158 3.82322e-17)
(-0.542921 0.0812941 0)
(-0.561114 0.0806298 0)
(-0.57925 0.0799318 0)
(-0.597329 0.0792088 9.89323e-23)
(-0.615352 0.0784668 -2.28003e-17)
(-0.633318 0.0777102 -4.46571e-17)
(-0.651228 0.0769413 4.37519e-17)
(-0.66908 0.0761616 2.14413e-17)
(-0.686872 0.0753713 -2.10234e-17)
(-0.704603 0.07457 -1.02222e-22)
(-0.722269 0.0737561 -2.02342e-17)
(-0.739867 0.0729282 0)
(-0.757393 0.0720842 -1.95008e-17)
(-0.77484 0.0712227 -1.03035e-22)
(-0.792202 0.0703408 0)
(-0.809471 0.0694364 0)
(-0.826641 0.0685063 1.81795e-17)
(-0.843701 0.0675483 0)
(-0.860642 0.0665588 0)
(-0.877455 0.0655355 -1.72987e-17)
(-0.894129 0.0644753 -3.40476e-17)
(-0.910653 0.0633774 1.67577e-17)
(-0.927017 0.0622405 0)
(-0.943209 0.0610657 -1.62509e-17)
(-0.959215 0.0598534 0)
(-0.97502 0.0586063 -1.57755e-17)
(-0.990605 0.0573247 -1.55483e-17)
(-1.00595 0.0560104 3.06559e-17)
(-1.02102 0.0546592 1.51138e-17)
(-1.03581 0.0532669 0)
(-1.05027 0.0518266 -2.94066e-17)
(-1.06438 0.0503339 0)
(-1.07813 0.0487825 -4.29465e-17)
(-1.09148 0.047169 -2.82594e-17)
(-1.10441 0.045488 -2.78981e-17)
(-1.11689 0.0437376 2.75468e-17)
(-1.12888 0.0419138 -4.0808e-17)
(-1.14037 0.0400161 0)
(-1.1513 0.0380404 0)
(-1.16166 0.035985 2.62376e-17)
(-1.1714 0.0338445 3.88996e-17)
(-1.18048 0.0316164 0)
(-1.18887 0.029295 -1.2675e-17)
(-1.19653 0.0268779 0)
(-1.20342 0.0243601 3.72013e-17)
(-1.2095 0.0217425 -9.4318e-23)
(-1.21473 0.0190245 8.31083e-23)
(-1.21907 0.0162106 -2.404e-17)
(-1.22249 0.0133047 0)
(-1.22494 0.0103147 2.35766e-17)
(-1.22639 0.00724789 -3.38935e-23)
(-1.22677 0.00410909 0)
(-1.22604 0.000894763 0)
(-1.22412 -0.00240953 0)
(-1.2209 -0.00580898 -2.24967e-17)
(-1.21632 -0.00929567 0)
(-1.2103 -0.0128656 0)
(-1.2028 -0.0165142 0)
(-1.19374 -0.0202356 0)
(-1.18307 -0.0240219 0)
(-1.17074 -0.0278635 -2.14131e-17)
(-1.1567 -0.031749 0)
(-1.14091 -0.0356648 -2.11189e-17)
(-1.12333 -0.0395961 -2.09853e-17)
(-1.10392 -0.0435259 2.08612e-17)
(-1.08265 -0.047436 0)
(-1.05951 -0.0513064 2.06427e-17)
(-1.03448 -0.055116 0)
(-1.00757 -0.0588425 2.04665e-17)
(-0.978805 -0.0624619 -2.0395e-17)
(-0.948197 -0.0659503 -6.10045e-17)
(-0.915793 -0.069282 0)
(-0.881648 -0.072431 -6.07552e-17)
(-0.845836 -0.0753743 -2.02278e-17)
(-0.808447 -0.0780869 0)
(-0.769581 -0.0805479 -4.0441e-17)
(-0.729364 -0.0827215 -4.04878e-17)
(-0.687912 -0.0845742 6.08623e-17)
(-0.645384 -0.0861041 0)
(-0.601944 -0.0873104 2.04e-17)
(-0.557751 -0.0881682 2.04796e-17)
(-0.512971 -0.0886637 6.17224e-17)
(-0.467782 -0.0887944 0)
(-0.42237 -0.0885668 0)
(-0.376926 -0.0879946 0)
(-0.331637 -0.087095 2.11025e-17)
(-0.286682 -0.0858864 0)
(-0.242229 -0.0843904 0)
(-0.198435 -0.082628 -2.16468e-17)
(-0.155443 -0.0806257 -2.18518e-17)
(-0.113387 -0.0784061 0)
(-0.0723828 -0.0759954 0)
(-0.0325391 -0.0734186 -4.50551e-17)
(0.0060912 -0.0707242 0)
(0.0434099 -0.0679403 4.51747e-17)
(0.0793153 -0.0650574 4.50513e-17)
(0.113735 -0.0620803 0)
(0.146634 -0.0590474 0)
(0.177988 -0.0559802 -4.49017e-17)
(0.207791 -0.0528713 -1.23071e-21)
(0.236086 -0.0497402 -1.15611e-21)
(0.262913 -0.0466397 0)
(0.288293 -0.0436041 -9.03711e-17)
(0.312249 -0.0406576 0)
(0.33481 -0.0378157 0)
(0.356013 -0.0350901 0)
(0.375905 -0.0324888 4.56694e-17)
(0.394537 -0.0300187 0)
(0.411969 -0.0276842 -9.18797e-17)
(0.428264 -0.0254901 -4.60768e-17)
(0.443493 -0.0234396 0)
(0.457728 -0.0215365 -4.63422e-17)
(0.471049 -0.0197825 0)
(0.483538 -0.0181803 0)
(0.495279 -0.0167305 -1.40114e-16)
(0.506362 -0.0154347 9.36259e-17)
(0.516878 -0.0142916 0)
(0.52692 -0.0133008 9.4013e-17)
(0.536583 -0.0124579 -4.70903e-17)
(0.54597 -0.0117604 0)
(0.555178 -0.0112094 0)
(0.564305 -0.0108103 0)
(0.573445 -0.010559 -1.41988e-16)
(0.582693 -0.0104516 0)
(0.592144 -0.01048 -4.73842e-17)
(0.601889 -0.010638 0)
(0.612018 -0.0109152 0)
(0.622615 -0.0113027 0)
(0.633755 -0.011787 0)
(0.645507 -0.0123547 0)
(0.657929 -0.0129856 0)
(0.671061 -0.0136582 -9.45082e-17)
(0.684927 -0.0143406 0)
(0.699523 -0.014991 -4.71568e-17)
(0.714804 -0.0155423 1.41333e-16)
(0.730679 -0.0158877 0)
(0.746914 -0.0158392 0)
(0.763361 -0.0150077 -9.4126e-17)
(0.778882 -0.0127072 -9.42868e-17)
(0.795355 -0.00725859 9.4841e-17)
(0.805952 0.00565707 9.6464e-17)
(-0.00100612 -0.0286442 6.03131e-16)
(-0.00457645 -0.0210186 3.01501e-16)
(-0.00976206 -0.00866274 1.1367e-16)
(-0.0160658 0.00321417 4.00619e-17)
(-0.0231053 0.0142047 0)
(-0.0306857 0.0243146 -5.5695e-17)
(-0.0387688 0.0335529 2.52065e-17)
(-0.0473791 0.0419196 0)
(-0.0565583 0.0494305 2.22022e-17)
(-0.0663491 0.0561326 0)
(-0.0767847 0.0621037 -4.09572e-17)
(-0.0878821 0.0674428 0)
(-0.0996394 0.0722563 -1.92278e-17)
(-0.112037 0.0766446 -3.73616e-17)
(-0.125039 0.080693 3.63244e-17)
(-0.1386 0.0844665 0)
(-0.152667 0.0880082 3.43563e-17)
(-0.167181 0.0913411 0)
(-0.182085 0.0944713 0)
(-0.197321 0.0973926 3.15843e-17)
(-0.212836 0.100092 0)
(-0.228579 0.102552 4.38284e-23)
(-0.244503 0.104756 0)
(-0.260569 0.106688 0)
(-0.276739 0.108341 -4.01705e-23)
(-0.292987 0.109712 2.66538e-17)
(-0.309287 0.110809 2.59308e-17)
(-0.325619 0.111642 2.52358e-17)
(-0.341966 0.112223 0)
(-0.358315 0.11257 4.78586e-17)
(-0.374657 0.112701 0)
(-0.390984 0.112637 2.27325e-17)
(-0.407292 0.1124 0)
(-0.423576 0.11201 0)
(-0.439834 0.11149 -2.11235e-17)
(-0.456063 0.110858 0)
(-0.472263 0.110132 2.01594e-17)