/*--------------------------------*- C++ -*----------------------------------*\
| =========                 |                                                 |
| \\      /  F ield         | OpenFOAM: The Open Source CFD Toolbox           |
|  \\    /   O peration     | Version:  2312                                  |
|   \\  /    A nd           | Website:  www.openfoam.com                      |
|    \\/     M anipulation  |                                                 |
\*---------------------------------------------------------------------------*/
FoamFile
{
    version     2.0;
    format      ascii;
    arch        "LSB;label=32;scalar=64";
    class       volVectorField;
    location    "9.5";
    object      ddtU;
}
// * * * * * * * * * * * * * * * * * * * * * * * * * * * * * * * * * * * * * //

dimensions      [0 1 -2 0 0 0 0];

internalField   nonuniform List<vector> 
400
(
(1.77636e-13 2.51518e-14 0)
(0 1.3534e-14 0)
(0 7.83214e-15 0)
(-2.22045e-14 -2.02842e-15 0)
(0 -4.82299e-15 0)
(0 -6.24538e-15 0)
(4.44089e-14 -1.81132e-15 0)
(0 7.72178e-15 0)
(0 2.71569e-15 0)
(2.22045e-14 -6.00012e-15 0)
(0 -1.74046e-14 0)
(6.66134e-14 4.28954e-15 0)
(4.44089e-14 2.58484e-14 0)
(0 1.88232e-14 0)
(-2.22045e-14 1.06137e-15 0)
(-4.44089e-14 -1.66833e-14 0)
(0 -1.57633e-14 0)
(8.88178e-14 -6.77091e-15 0)
(0 4.76853e-15 0)
(4.44089e-14 1.22012e-14 0)
(0 1.79307e-14 0)
(0 2.53475e-14 0)
(-2.22045e-14 1.20043e-14 0)
(0 -2.5626e-14 0)
(0 -2.16444e-14 0)
(4.44089e-14 1.39518e-15 0)
(0 7.89151e-15 0)
(4.44089e-14 5.64465e-15 0)
(2.22045e-14 4.01645e-15 0)
(0 9.59497e-16 0)
(0 2.03529e-16 0)
(0 -1.00651e-14 0)
(4.44089e-14 -6.94108e-15 0)
(8.88178e-14 3.6323e-15 0)
(4.44089e-14 1.37231e-14 0)
(0 6.51561e-15 0)
(0 -1.28332e-14 0)
(0 -1.12688e-14 0)
(4.44089e-14 1.3849e-14 0)
(-4.44089e-14 1.63386e-14 0)
(4.44089e-14 1.03378e-14 0)
(4.44089e-14 3.5445e-15 0)
(4.44089e-14 -6.83776e-15 0)
(4.44089e-14 -3.00259e-14 0)
(-2.22045e-14 -3.11928e-14 0)
(-2.22045e-14 2.85655e-15 0)
(6.66134e-14 2.91213e-14 0)
(-2.22045e-14 1.44986e-14 0)
(0 -1.39142e-15 0)
(-2.22045e-14 3.89265e-15 0)
(-2.22045e-14 1.79764e-14 0)
(2.22045e-14 -1.93266e-14 0)
(-2.22045e-14 -3.59225e-14 0)
(-4.44089e-14 -1.1616e-14 0)
(0 2.79653e-14 0)
(-4.44089e-14 2.61163e-14 0)
(-2.22045e-14 -2.84425e-15 0)
(0 -1.28762e-14 0)
(-2.22045e-14 8.44908e-15 0)
(2.22045e-14 1.20319e-14 0)
(0 2.40163e-14 0)
(2.22045e-14 -2.46719e-14 0)
(0 -6.2108e-15 0)
(4.44089e-14 1.42195e-14 0)
(2.22045e-14 5.16654e-15 0)
(-6.66134e-14 5.09292e-16 0)
(-4.44089e-14 1.17564e-14 0)
(0 8.26617e-15 0)
(4.44089e-14 -8.09932e-15 0)
(-4.44089e-14 4.90855e-16 0)
(0 7.50399e-15 0)
(-4.44089e-14 -1.76346e-15 0)
(0 -2.53227e-15 0)
(-4.44089e-14 -3.89914e-16 0)
(0 -5.19305e-15 0)
(4.44089e-14 -1.26695e-14 0)
(8.88178e-14 9.27477e-16 0)
(-2.22045e-14 6.30947e-15 0)
(0 1.03718e-14 0)
(0 1.14788e-14 0)
(2.22045e-14 -2.00966e-14 0)
(0 -2.12005e-14 0)
(0 -1.23228e-14 0)
(2.22045e-14 2.2878e-14 0)
(-2.22045e-14 2.41392e-14 0)
(2.22045e-14 2.381e-15 0)
(2.22045e-14 -9.8703e-15 0)
(6.66134e-14 -4.65657e-15 0)
(0 2.75954e-15 0)
(0 1.36581e-14 0)
(0 1.47821e-14 0)
(4.44089e-14 9.75727e-16 0)
(0 -7.54249e-15 0)
(2.22045e-14 -1.84823e-15 0)
(0 -1.41783e-14 0)
(-2.22045e-14 -1.30863e-14 0)
(0 9.6575e-16 0)
(-2.22045e-14 1.31743e-14 0)
(0 1.59869e-14 0)
(-2.22045e-14 1.04679e-14 0)
(-4.44089e-14 -5.74042e-14 0)
(2.22045e-14 1.61562e-14 0)
(0 -4.52769e-15 0)
(-4.44089e-14 -6.21993e-15 0)
(0 1.84261e-15 0)
(4.44089e-14 9.87804e-15 0)
(0 -7.63165e-16 0)
(0 -1.24789e-14 0)
(0 -9.30551e-15 0)
(4.44089e-14 -1.21181e-14 0)
(8.88178e-14 3.60996e-15 0)
(2.22045e-14 1.49325e-14 0)
(2.22045e-14 9.78293e-15 0)
(4.44089e-14 2.08149e-16 0)
(-4.44089e-14 -8.99412e-15 0)
(4.44089e-14 -2.05381e-15 0)
(2.22045e-14 1.30291e-14 0)
(-2.22045e-14 1.21198e-14 0)
(-2.22045e-14 1.05305e-14 0)
(0 8.98191e-15 0)
(-8.88178e-14 -1.36367e-14 0)
(0 1.79656e-15 0)
(8.88178e-14 7.51381e-15 0)
(6.66134e-14 -1.11996e-14 0)
(2.22045e-14 1.80491e-14 0)
(4.44089e-14 2.46555e-14 0)
(2.22045e-14 9.4086e-15 0)
(0 -1.48582e-14 0)
(2.22045e-14 -1.3446e-14 0)
(0 -2.00978e-14 0)
(0 -1.3818e-14 0)
(-2.22045e-14 4.58206e-15 0)
(-4.44089e-14 5.63977e-15 0)
(0 9.55058e-16 0)
(0 1.27951e-14 0)
(0 1.18736e-14 0)
(-4.44089e-14 7.48681e-15 0)
(0 3.28042e-15 0)
(0 5.57601e-15 0)
(0 2.79664e-15 0)
(-8.88178e-14 2.79326e-14 0)
(0 -2.02509e-14 0)
(0 -5.69308e-15 0)
(-1.33227e-13 1.96351e-14 0)
(-4.44089e-14 1.54585e-14 0)
(4.44089e-14 2.14019e-15 0)
(0 -3.59444e-15 0)
(0 -3.92334e-15 0)
(4.44089e-14 -1.91944e-15 0)
(4.44089e-14 -6.01443e-16 0)
(4.44089e-14 -1.48056e-14 0)
(4.44089e-14 -4.14612e-15 0)
(0 -7.61469e-15 0)
(0 -1.4522e-15 0)
(-4.44089e-14 2.25288e-14 0)
(0 1.04898e-14 0)
(0 -1.21995e-14 0)
(0 -1.34195e-14 0)
(-2.22045e-14 -4.65288e-15 0)
(2.22045e-14 8.79935e-15 0)
(0 1.00802e-15 0)
(2.22045e-14 2.01164e-14 0)
(0 2.46732e-14 0)
(-6.66134e-14 2.27174e-14 0)
(0 -1.48791e-14 0)
(0 -2.69758e-14 0)
(0 -2.14731e-14 0)
(0 -6.39235e-15 0)
(4.44089e-14 -1.26864e-14 0)
(0 -3.36273e-15 0)
(0 -9.38369e-15 0)
(0 2.19074e-15 0)
(-4.44089e-14 5.10507e-15 0)
(-4.44089e-14 -5.19516e-15 0)
(-2.22045e-14 -1.5659e-14 0)
(4.44089e-14 -1.50458e-14 0)
(2.22045e-14 -1.93668e-16 0)
(0 3.16738e-15 0)
(2.22045e-14 5.18823e-15 0)
(-4.44089e-14 1.34016e-14 0)
(8.88178e-14 1.07576e-15 0)
(-4.44089e-14 2.01855e-14 0)
(0 3.40185e-14 0)
(-2.22045e-14 1.16011e-15 0)
(0 -4.9323e-15 0)
(2.22045e-14 -2.29351e-14 0)
(2.22045e-14 -1.8936e-14 0)
(4.44089e-14 -2.05036e-14 0)
(6.66134e-14 -1.66687e-14 0)
(0 1.04396e-15 0)
(4.44089e-14 8.47442e-15 0)
(-2.22045e-14 6.66605e-15 0)
(0 -3.65087e-15 0)
(0 -1.91484e-14 0)
(2.22045e-14 -2.72606e-14 0)
(2.22045e-14 -1.99187e-15 0)
(0 3.54534e-15 0)
(2.22045e-14 1.93143e-14 0)
(-2.22045e-14 2.04135e-14 0)
(-2.22045e-14 2.22229e-15 0)
(0 3.11044e-15 0)
(0 2.98224e-14 0)
(0 1.58776e-14 0)
(4.44089e-14 5.61972e-15 0)
(4.44089e-14 5.93231e-15 0)
(4.44089e-14 -8.89381e-15 0)
(0 -2.21611e-14 0)
(0 -1.24725e-14 0)
(-2.22045e-14 -3.21226e-16 0)
(-4.44089e-14 -4.00945e-16 0)
(0 4.58778e-15 0)
(-2.22045e-14 4.56374e-15 0)
(0 -4.44197e-15 0)
(2.22045e-14 -2.00688e-14 0)
(-2.22045e-14 -2.31972e-14 0)
(0 1.13907e-14 0)
(0 1.54066e-14 0)
(-4.44089e-14 6.68723e-15 0)
(0 -1.23403e-15 0)
(2.22045e-14 -6.57425e-15 0)
(-4.44089e-14 2.18221e-14 0)
(2.22045e-14 6.7513e-15 0)
(2.22045e-14 1.05382e-14 0)
(0 -2.25279e-15 0)
(2.22045e-14 2.05039e-15 0)
(4.44089e-14 1.64904e-14 0)
(2.22045e-14 -4.65912e-15 0)
(-2.22045e-14 4.49998e-15 0)
(2.22045e-14 6.22446e-15 0)
(4.44089e-14 1.21361e-16 0)
(0 -1.05275e-14 0)
(-2.22045e-14 -1.54599e-15 0)
(2.22045e-14 -1.79666e-16 0)
(2.22045e-14 -1.83856e-14 0)
(-4.44089e-14 2.35465e-15 0)
(2.22045e-14 1.31066e-14 0)
(2.22045e-14 1.32833e-15 0)
(2.22045e-14 -2.4026e-14 0)
(-2.22045e-14 -9.57271e-15 0)
(2.22045e-14 3.98699e-15 0)
(4.44089e-14 -4.72706e-14 0)
(0 1.39247e-14 0)
(4.44089e-14 1.67661e-14 0)
(-2.22045e-14 4.88947e-15 0)
(0 -1.73124e-15 0)
(0 1.94733e-14 0)
(4.44089e-14 1.70661e-14 0)
(4.44089e-14 3.80282e-15 0)
(4.44089e-14 1.27866e-15 0)
(-4.44089e-14 -7.0142e-15 0)
(4.44089e-14 -9.28307e-15 0)
(0 -7.07789e-15 0)
(4.44089e-14 5.10055e-15 0)
(0 3.56531e-15 0)
(-4.44089e-14 1.05421e-14 0)
(-4.44089e-14 -1.4635e-14 0)
(0 -2.6165e-14 0)
(0 -1.72279e-14 0)
(-4.44089e-14 4.09418e-15 0)
(0 1.61049e-14 0)
(0 -3.28589e-14 0)
(-4.44089e-14 1.50816e-14 0)
(-2.22045e-14 -2.06305e-15 0)
(6.66134e-14 5.36575e-15 0)
(4.44089e-14 3.5953e-15 0)
(2.22045e-14 8.17024e-15 0)
(4.44089e-14 2.22906e-14 0)
(0 1.44833e-14 0)
(0 3.10341e-15 0)
(2.22045e-14 -1.27243e-14 0)
(2.22045e-14 -5.9522e-15 0)
(0 -1.83418e-14 0)
(4.44089e-14 1.73005e-14 0)
(2.22045e-14 4.27871e-14 0)
(-4.44089e-14 1.22869e-14 0)
(-2.22045e-14 -4.18378e-14 0)
(-2.22045e-14 -4.23708e-14 0)
(-4.44089e-14 -7.26173e-15 0)
(2.22045e-14 -7.88393e-15 0)
(0 7.64653e-15 0)
(0 2.46778e-14 0)
(0 -1.55051e-14 0)
(-4.44089e-14 -1.01195e-14 0)
(-6.66134e-14 -6.68236e-15 0)
(-4.44089e-14 2.42421e-15 0)
(0 1.83832e-14 0)
(-4.44089e-14 2.34185e-14 0)
(0 1.53385e-14 0)
(-4.44089e-14 8.54552e-15 0)
(0 7.54375e-16 0)
(-4.44089e-14 1.29038e-15 0)
(-8.88178e-14 -1.77988e-14 0)
(0 -1.42947e-14 0)
(0 2.06578e-15 0)
(0 8.63929e-15 0)
(4.44089e-14 4.71326e-15 0)
(2.22045e-14 -4.0075e-15 0)
(-4.44089e-14 -1.54405e-14 0)
(0 -2.58372e-14 0)
(-2.22045e-14 -1.69121e-14 0)
(-4.44089e-14 -4.6523e-14 0)
(0 2.41202e-15 0)
(-4.44089e-14 -3.07072e-14 0)
(4.44089e-14 -1.64219e-14 0)
(0 -4.8901e-15 0)
(-4.44089e-14 1.94997e-14 0)
(0 3.20316e-14 0)
(0 2.25898e-14 0)
(0 -4.37708e-15 0)
(4.44089e-14 -1.56595e-14 0)
(4.44089e-14 -1.30865e-14 0)
(4.44089e-14 -4.38758e-15 0)
(0 -1.5599e-14 0)
(-4.44089e-14 -1.07837e-14 0)
(-4.44089e-14 -1.86011e-14 0)
(4.44089e-14 5.14672e-15 0)
(4.44089e-14 1.63818e-14 0)
(6.66134e-14 5.20981e-16 0)
(2.22045e-14 -3.53479e-15 0)
(0 -2.05282e-14 0)
(-8.88178e-14 -3.47864e-14 0)
(2.22045e-14 -1.15189e-14 0)
(4.44089e-14 -1.68576e-14 0)
(-4.44089e-14 -2.9961e-15 0)
(-2.22045e-14 1.0077e-15 0)
(0 -1.0473e-14 0)
(0 -3.32289e-15 0)
(4.44089e-14 5.6454e-15 0)
(6.66134e-14 -1.2985e-15 0)
(0 6.59228e-15 0)
(-4.44089e-14 -7.72863e-15 0)
(-2.22045e-14 -4.20012e-16 0)
(0 -1.76622e-17 0)
(2.22045e-14 -5.40609e-15 0)
(2.22045e-14 -2.16107e-14 0)
(-2.22045e-14 -2.55159e-14 0)
(0 -1.56273e-15 0)
(2.22045e-14 1.66963e-14 0)
(-2.22045e-14 1.15712e-14 0)
(2.22045e-14 -3.12798e-15 0)
(0 3.49831e-14 0)
(0 -2.48279e-14 0)
(0 2.03846e-14 0)
(0 1.9983e-14 0)
(2.22045e-14 -2.85043e-15 0)
(2.22045e-14 -2.87336e-14 0)
(2.22045e-14 -2.70577e-14 0)
(2.22045e-14 4.09613e-15 0)
(-2.22045e-14 1.65575e-14 0)
(2.22045e-14 1.81317e-14 0)
(6.66134e-14 1.06945e-14 0)
(2.22045e-14 -9.00785e-17 0)
(-6.66134e-14 -9.45911e-15 0)
(0 -2.53428e-14 0)
(2.22045e-14 -2.26876e-14 0)
(0 -1.04061e-14 0)
(0 2.29598e-15 0)
(4.44089e-14 1.02512e-14 0)
(0 -8.58477e-16 0)
(0 8.55157e-15 0)
(-2.22045e-14 -1.1907e-14 0)
(4.44089e-14 2.43145e-15 0)
(-6.66134e-14 1.63339e-14 0)
(-4.44089e-14 2.55116e-14 0)
(0 4.30526e-15 0)
(-4.44089e-14 -1.60504e-14 0)
(0 -8.60499e-15 0)
(0 1.07503e-14 0)
(0 8.98714e-15 0)
(0 -2.26843e-15 0)
(0 3.01315e-15 0)
(4.44089e-14 1.00765e-14 0)
(4.44089e-14 -1.14363e-14 0)
(4.44089e-14 -2.41941e-14 0)
(2.22045e-14 -1.92418e-14 0)
(-4.44089e-14 5.65873e-15 0)
(0 -9.36007e-19 0)
(0 -9.85863e-15 0)
(0 -4.44759e-15 0)
(0 1.17882e-14 0)
(0 -5.15243e-14 0)
(4.44089e-14 2.03981e-14 0)
(0 1.54861e-14 0)
(8.88178e-14 1.88077e-14 0)
(4.44089e-14 9.25927e-15 0)
(6.66134e-14 -7.54114e-15 0)
(0 -7.48132e-15 0)
(0 -3.56525e-15 0)
(2.22045e-14 5.50383e-15 0)
(2.22045e-14 5.90549e-15 0)
(2.22045e-14 -2.19714e-15 0)
(2.22045e-14 9.0822e-16 0)
(6.66134e-14 -1.28049e-14 0)
(0 -1.36792e-14 0)
(0 -8.51042e-16 0)
(0 8.56216e-15 0)
(0 3.07508e-15 0)
(0 -1.19711e-14 0)
(2.22045e-14 -4.59424e-15 0)
(0 4.69043e-15 0)
)
;

boundaryField
{
    movingWall
    {
        type            calculated;
        value           uniform (0 0 0);
    }
    fixedWalls
    {
        type            calculated;
        value           uniform (0 0 0);
    }
    frontAndBack
    {
        type            empty;
    }
}


// ************************************************************************* //
