/*--------------------------------*- C++ -*----------------------------------*\
| =========                 |                                                 |
| \\      /  F ield         | OpenFOAM: The Open Source CFD Toolbox           |
|  \\    /   O peration     | Version:  2312                                  |
|   \\  /    A nd           | Website:  www.openfoam.com                      |
|    \\/     M anipulation  |                                                 |
\*---------------------------------------------------------------------------*/
FoamFile
{
    version     2.0;
    format      ascii;
    arch        "LSB;label=32;scalar=64";
    class       volVectorField;
    location    "9.5";
    object      diffU;
}
// * * * * * * * * * * * * * * * * * * * * * * * * * * * * * * * * * * * * * //

dimensions      [0 1 -1 0 0 0 0];

internalField   nonuniform List<vector> 
400
(
(0 0 0)
(1.90958e-14 -1.75619e-13 0)
(1.43219e-14 -1.36985e-13 0)
(1.44329e-14 -1.4609e-13 0)
(1.43219e-14 -1.44164e-13 0)
(1.43219e-14 -1.44568e-13 0)
(1.44329e-14 -1.44476e-13 0)
(1.42109e-14 -1.44515e-13 0)
(1.42109e-14 -1.44535e-13 0)
(1.43219e-14 -1.44597e-13 0)
(1.40998e-14 -1.44664e-13 0)
(1.42109e-14 -1.44647e-13 0)
(1.43219e-14 -1.44497e-13 0)
(1.42109e-14 -1.44353e-13 0)
(1.37668e-14 -1.44353e-13 0)
(1.35447e-14 -1.44499e-13 0)
(1.33227e-14 -1.44632e-13 0)
(1.37668e-14 -1.44706e-13 0)
(1.38778e-14 -1.44616e-13 0)
(1.37668e-14 -1.44543e-13 0)
(4.64073e-14 -1.28029e-13 0)
(4.88498e-15 -1.47477e-13 0)
(1.38778e-14 -1.43483e-13 0)
(1.31006e-14 -1.44699e-13 0)
(1.31006e-14 -1.4461e-13 0)
(1.33227e-14 -1.44606e-13 0)
(1.35447e-14 -1.44572e-13 0)
(1.35447e-14 -1.44626e-13 0)
(1.38778e-14 -1.44627e-13 0)
(1.38778e-14 -1.44638e-13 0)
(1.35447e-14 -1.4455e-13 0)
(1.37668e-14 -1.44512e-13 0)
(1.33227e-14 -1.44532e-13 0)
(1.33227e-14 -1.44508e-13 0)
(1.35447e-14 -1.44439e-13 0)
(1.37668e-14 -1.44432e-13 0)
(1.35447e-14 -1.44615e-13 0)
(1.37668e-14 -1.44724e-13 0)
(1.37668e-14 -1.44663e-13 0)
(1.35447e-14 -1.44597e-13 0)
(8.43769e-15 -2.76016e-13 0)
(1.58762e-14 -1.1564e-13 0)
(1.44329e-14 -1.51175e-13 0)
(1.45439e-14 -1.43009e-13 0)
(1.42109e-14 -1.4503e-13 0)
(1.39888e-14 -1.44714e-13 0)
(1.43219e-14 -1.44701e-13 0)
(1.42109e-14 -1.44604e-13 0)
(1.42109e-14 -1.44555e-13 0)
(1.39888e-14 -1.44559e-13 0)
(1.38778e-14 -1.44424e-13 0)
(1.38778e-14 -1.44392e-13 0)
(1.39888e-14 -1.44563e-13 0)
(1.38778e-14 -1.44657e-13 0)
(1.39888e-14 -1.44514e-13 0)
(1.37668e-14 -1.44394e-13 0)
(1.37668e-14 -1.44461e-13 0)
(1.37668e-14 -1.44622e-13 0)
(1.37668e-14 -1.44724e-13 0)
(1.38778e-14 -1.44672e-13 0)
(-9.99201e-15 -6.21983e-14 0)
(1.9762e-14 -1.62543e-13 0)
(1.28786e-14 -1.40384e-13 0)
(1.43219e-14 -1.45377e-13 0)
(1.40998e-14 -1.44275e-13 0)
(1.37668e-14 -1.44593e-13 0)
(1.33227e-14 -1.44534e-13 0)
(1.31006e-14 -1.44493e-13 0)
(1.33227e-14 -1.44537e-13 0)
(1.33227e-14 -1.44527e-13 0)
(1.33227e-14 -1.4451e-13 0)
(1.33227e-14 -1.44487e-13 0)
(1.33227e-14 -1.44501e-13 0)
(1.31006e-14 -1.44499e-13 0)
(1.33227e-14 -1.44526e-13 0)
(1.35447e-14 -1.4462e-13 0)
(1.37668e-14 -1.44624e-13 0)
(1.38778e-14 -1.44638e-13 0)
(1.38778e-14 -1.44674e-13 0)
(1.39888e-14 -1.4463e-13 0)
(4.38538e-14 -1.23375e-13 0)
(6.66134e-15 -1.49266e-13 0)
(1.52101e-14 -1.43618e-13 0)
(1.40998e-14 -1.44868e-13 0)
(1.40998e-14 -1.44373e-13 0)
(1.40998e-14 -1.44396e-13 0)
(1.39888e-14 -1.44458e-13 0)
(1.42109e-14 -1.44504e-13 0)
(1.40998e-14 -1.44589e-13 0)
(1.39888e-14 -1.44444e-13 0)
(1.38778e-14 -1.44382e-13 0)
(1.42109e-14 -1.44443e-13 0)
(1.39888e-14 -1.44527e-13 0)
(1.39888e-14 -1.44606e-13 0)
(1.42109e-14 -1.44695e-13 0)
(1.42109e-14 -1.44678e-13 0)
(1.40998e-14 -1.4466e-13 0)
(1.38778e-14 -1.44621e-13 0)
(1.37668e-14 -1.44589e-13 0)
(1.38778e-14 -1.44591e-13 0)
(-1.17684e-14 -2.66963e-13 0)
(1.9984e-14 -1.17787e-13 0)
(1.26565e-14 -1.50646e-13 0)
(1.38778e-14 -1.43149e-13 0)
(1.33227e-14 -1.44814e-13 0)
(1.37668e-14 -1.44447e-13 0)
(1.37668e-14 -1.44489e-13 0)
(1.38778e-14 -1.4444e-13 0)
(1.35447e-14 -1.44466e-13 0)
(1.35447e-14 -1.44593e-13 0)
(1.37668e-14 -1.4463e-13 0)
(1.38778e-14 -1.44612e-13 0)
(1.39888e-14 -1.44542e-13 0)
(1.40998e-14 -1.44606e-13 0)
(1.37668e-14 -1.44705e-13 0)
(1.39888e-14 -1.44619e-13 0)
(1.39888e-14 -1.44506e-13 0)
(1.38778e-14 -1.44441e-13 0)
(1.38778e-14 -1.44497e-13 0)
(1.38778e-14 -1.44536e-13 0)
(1.89848e-14 1.58201e-15 0)
(1.28786e-14 -1.7657e-13 0)
(1.4766e-14 -1.3702e-13 0)
(1.38778e-14 -1.46261e-13 0)
(1.42109e-14 -1.44217e-13 0)
(1.43219e-14 -1.44612e-13 0)
(1.42109e-14 -1.44451e-13 0)
(1.40998e-14 -1.44519e-13 0)
(1.43219e-14 -1.44438e-13 0)
(1.45439e-14 -1.44629e-13 0)
(1.42109e-14 -1.44701e-13 0)
(1.43219e-14 -1.44647e-13 0)
(1.38778e-14 -1.44588e-13 0)
(1.39888e-14 -1.44606e-13 0)
(1.37668e-14 -1.4457e-13 0)
(1.38778e-14 -1.44516e-13 0)
(1.33227e-14 -1.44509e-13 0)
(1.35447e-14 -1.44502e-13 0)
(1.35447e-14 -1.44505e-13 0)
(1.37668e-14 -1.44545e-13 0)
(2.44249e-14 -1.79504e-13 0)
(8.65974e-15 -1.36794e-13 0)
(1.24345e-14 -1.46624e-13 0)
(1.31006e-14 -1.44246e-13 0)
(1.28786e-14 -1.44701e-13 0)
(1.33227e-14 -1.44541e-13 0)
(1.33227e-14 -1.44567e-13 0)
(1.31006e-14 -1.44613e-13 0)
(1.35447e-14 -1.4456e-13 0)
(1.35447e-14 -1.44476e-13 0)
(1.35447e-14 -1.4453e-13 0)
(1.33227e-14 -1.44512e-13 0)
(1.35447e-14 -1.44522e-13 0)
(1.35447e-14 -1.44473e-13 0)
(1.33227e-14 -1.44397e-13 0)
(1.33227e-14 -1.44486e-13 0)
(1.35447e-14 -1.4464e-13 0)
(1.37668e-14 -1.44713e-13 0)
(1.37668e-14 -1.44615e-13 0)
(1.38778e-14 -1.44567e-13 0)
(-2.66454e-15 -2.50816e-13 0)
(1.87628e-14 -1.21582e-13 0)
(1.35447e-14 -1.50066e-13 0)
(1.35447e-14 -1.43324e-13 0)
(1.33227e-14 -1.44861e-13 0)
(1.33227e-14 -1.44645e-13 0)
(1.35447e-14 -1.44757e-13 0)
(1.35447e-14 -1.44685e-13 0)
(1.35447e-14 -1.4472e-13 0)
(1.35447e-14 -1.44623e-13 0)
(1.37668e-14 -1.44634e-13 0)
(1.35447e-14 -1.44609e-13 0)
(1.33227e-14 -1.44582e-13 0)
(1.33227e-14 -1.44526e-13 0)
(1.37668e-14 -1.44625e-13 0)
(1.39888e-14 -1.44766e-13 0)
(1.40998e-14 -1.44792e-13 0)
(1.37668e-14 -1.44663e-13 0)
(1.38778e-14 -1.44539e-13 0)
(1.37668e-14 -1.44516e-13 0)
(1.60982e-14 2.84745e-14 0)
(1.33227e-14 -1.83059e-13 0)
(1.38778e-14 -1.35575e-13 0)
(1.42109e-14 -1.46519e-13 0)
(1.38778e-14 -1.44111e-13 0)
(1.40998e-14 -1.44783e-13 0)
(1.42109e-14 -1.44687e-13 0)
(1.39888e-14 -1.44626e-13 0)
(1.40998e-14 -1.44674e-13 0)
(1.40998e-14 -1.44606e-13 0)
(1.42109e-14 -1.44524e-13 0)
(1.39888e-14 -1.4449e-13 0)
(1.40998e-14 -1.44547e-13 0)
(1.39888e-14 -1.44664e-13 0)
(1.38778e-14 -1.44782e-13 0)
(1.39888e-14 -1.44746e-13 0)
(1.38778e-14 -1.44699e-13 0)
(1.38778e-14 -1.44542e-13 0)
(1.37668e-14 -1.44453e-13 0)
(1.37668e-14 -1.44507e-13 0)
(1.94289e-14 -2.89038e-13 0)
(1.15463e-14 -1.12707e-13 0)
(1.33227e-14 -1.51994e-13 0)
(1.35447e-14 -1.42898e-13 0)
(1.37668e-14 -1.44856e-13 0)
(1.39888e-14 -1.44467e-13 0)
(1.35447e-14 -1.44669e-13 0)
(1.37668e-14 -1.44645e-13 0)
(1.37668e-14 -1.44635e-13 0)
(1.35447e-14 -1.44648e-13 0)
(1.35447e-14 -1.44661e-13 0)
(1.38778e-14 -1.44604e-13 0)
(1.37668e-14 -1.44533e-13 0)
(1.39888e-14 -1.44619e-13 0)
(1.38778e-14 -1.44718e-13 0)
(1.37668e-14 -1.44648e-13 0)
(1.37668e-14 -1.44588e-13 0)
(1.33227e-14 -1.44591e-13 0)
(1.35447e-14 -1.44594e-13 0)
(1.38778e-14 -1.44602e-13 0)
(1.04361e-14 -7.1542e-14 0)
(1.63203e-14 -1.60656e-13 0)
(1.4766e-14 -1.40915e-13 0)
(1.37668e-14 -1.45525e-13 0)
(1.39888e-14 -1.44494e-13 0)
(1.40998e-14 -1.44601e-13 0)
(1.43219e-14 -1.44627e-13 0)
(1.39888e-14 -1.44692e-13 0)
(1.39888e-14 -1.44597e-13 0)
(1.42109e-14 -1.44654e-13 0)
(1.40998e-14 -1.44696e-13 0)
(1.39888e-14 -1.44666e-13 0)
(1.40998e-14 -1.44561e-13 0)
(1.40998e-14 -1.44612e-13 0)
(1.37668e-14 -1.44552e-13 0)
(1.38778e-14 -1.44493e-13 0)
(1.38778e-14 -1.445e-13 0)
(1.39888e-14 -1.44654e-13 0)
(1.37668e-14 -1.44627e-13 0)
(1.39888e-14 -1.44576e-13 0)
(1.33227e-14 -1.15741e-13 0)
(1.22125e-14 -1.51268e-13 0)
(1.28786e-14 -1.43015e-13 0)
(1.37668e-14 -1.4496e-13 0)
(1.35447e-14 -1.44634e-13 0)
(1.35447e-14 -1.44629e-13 0)
(1.37668e-14 -1.44559e-13 0)
(1.35447e-14 -1.44611e-13 0)
(1.37668e-14 -1.44624e-13 0)
(1.35447e-14 -1.44633e-13 0)
(1.35447e-14 -1.44625e-13 0)
(1.35447e-14 -1.44656e-13 0)
(1.37668e-14 -1.44611e-13 0)
(1.37668e-14 -1.44597e-13 0)
(1.35447e-14 -1.44506e-13 0)
(1.33227e-14 -1.44519e-13 0)
(1.35447e-14 -1.44631e-13 0)
(1.35447e-14 -1.44649e-13 0)
(1.33227e-14 -1.44612e-13 0)
(1.35447e-14 -1.44564e-13 0)
(2.05391e-14 -2.59926e-13 0)
(1.35447e-14 -1.19234e-13 0)
(1.4988e-14 -1.50558e-13 0)
(1.38778e-14 -1.43186e-13 0)
(1.42109e-14 -1.44871e-13 0)
(1.40998e-14 -1.44526e-13 0)
(1.43219e-14 -1.44532e-13 0)
(1.43219e-14 -1.44566e-13 0)
(1.40998e-14 -1.44684e-13 0)
(1.42109e-14 -1.44699e-13 0)
(1.43219e-14 -1.44662e-13 0)
(1.39888e-14 -1.44803e-13 0)
(1.39888e-14 -1.44714e-13 0)
(1.40998e-14 -1.44486e-13 0)
(1.38778e-14 -1.44361e-13 0)
(1.38778e-14 -1.44504e-13 0)
(1.40998e-14 -1.4467e-13 0)
(1.37668e-14 -1.4462e-13 0)
(1.38778e-14 -1.44668e-13 0)
(1.38778e-14 -1.44663e-13 0)
(-4.66294e-15 -1.20576e-15 0)
(1.74305e-14 -1.76035e-13 0)
(1.19904e-14 -1.37506e-13 0)
(1.35447e-14 -1.46356e-13 0)
(1.33227e-14 -1.44366e-13 0)
(1.35447e-14 -1.44734e-13 0)
(1.35447e-14 -1.44522e-13 0)
(1.35447e-14 -1.44532e-13 0)
(1.35447e-14 -1.44555e-13 0)
(1.33227e-14 -1.44473e-13 0)
(1.33227e-14 -1.44461e-13 0)
(1.31006e-14 -1.44583e-13 0)
(1.31006e-14 -1.44671e-13 0)
(1.31006e-14 -1.44619e-13 0)
(1.31006e-14 -1.44536e-13 0)
(1.35447e-14 -1.44569e-13 0)
(1.38778e-14 -1.44496e-13 0)
(1.33227e-14 -1.44533e-13 0)
(1.37668e-14 -1.44687e-13 0)
(1.37668e-14 -1.44683e-13 0)
(3.77476e-14 -2.21058e-13 0)
(7.32747e-15 -1.28227e-13 0)
(1.39888e-14 -1.48618e-13 0)
(1.31006e-14 -1.44029e-13 0)
(1.35447e-14 -1.44956e-13 0)
(1.33227e-14 -1.44639e-13 0)
(1.31006e-14 -1.44542e-13 0)
(1.33227e-14 -1.4442e-13 0)
(1.33227e-14 -1.44413e-13 0)
(1.33227e-14 -1.44467e-13 0)
(1.33227e-14 -1.44572e-13 0)
(1.33227e-14 -1.44611e-13 0)
(1.35447e-14 -1.44734e-13 0)
(1.33227e-14 -1.44766e-13 0)
(1.35447e-14 -1.44844e-13 0)
(1.37668e-14 -1.44758e-13 0)
(1.37668e-14 -1.44632e-13 0)
(1.38778e-14 -1.44636e-13 0)
(1.38778e-14 -1.44676e-13 0)
(1.37668e-14 -1.44662e-13 0)
(-9.54792e-15 -1.87589e-13 0)
(2.02061e-14 -1.35512e-13 0)
(1.37668e-14 -1.46796e-13 0)
(1.40998e-14 -1.44202e-13 0)
(1.37668e-14 -1.44714e-13 0)
(1.35447e-14 -1.44591e-13 0)
(1.35447e-14 -1.44641e-13 0)
(1.35447e-14 -1.44595e-13 0)
(1.40998e-14 -1.44613e-13 0)
(1.42109e-14 -1.44653e-13 0)
(1.42109e-14 -1.44677e-13 0)
(1.44329e-14 -1.44648e-13 0)
(1.40998e-14 -1.44656e-13 0)
(1.39888e-14 -1.44681e-13 0)
(1.38778e-14 -1.44765e-13 0)
(1.37668e-14 -1.4478e-13 0)
(1.39888e-14 -1.44719e-13 0)
(1.38778e-14 -1.44562e-13 0)
(1.37668e-14 -1.44539e-13 0)
(1.38778e-14 -1.44615e-13 0)
(1.26565e-14 -2.16816e-14 0)
(1.44329e-14 -1.71331e-13 0)
(1.38778e-14 -1.38297e-13 0)
(1.42109e-14 -1.45882e-13 0)
(1.43219e-14 -1.44186e-13 0)
(1.40998e-14 -1.44624e-13 0)
(1.42109e-14 -1.447e-13 0)
(1.42109e-14 -1.44685e-13 0)
(1.38778e-14 -1.44664e-13 0)
(1.38778e-14 -1.44665e-13 0)
(1.38778e-14 -1.44637e-13 0)
(1.39888e-14 -1.4451e-13 0)
(1.35447e-14 -1.44519e-13 0)
(1.37668e-14 -1.44612e-13 0)
(1.38778e-14 -1.44753e-13 0)
(1.37668e-14 -1.44774e-13 0)
(1.35447e-14 -1.44602e-13 0)
(1.37668e-14 -1.44483e-13 0)
(1.37668e-14 -1.44548e-13 0)
(1.38778e-14 -1.44556e-13 0)
(4.26326e-14 -1.84604e-13 0)
(5.9952e-15 -1.36272e-13 0)
(1.43219e-14 -1.46653e-13 0)
(1.31006e-14 -1.44121e-13 0)
(1.33227e-14 -1.44564e-13 0)
(1.33227e-14 -1.44542e-13 0)
(1.35447e-14 -1.44681e-13 0)
(1.33227e-14 -1.44668e-13 0)
(1.33227e-14 -1.44596e-13 0)
(1.35447e-14 -1.44633e-13 0)
(1.33227e-14 -1.44673e-13 0)
(1.37668e-14 -1.44573e-13 0)
(1.35447e-14 -1.44566e-13 0)
(1.35447e-14 -1.44676e-13 0)
(1.38778e-14 -1.44771e-13 0)
(1.35447e-14 -1.44691e-13 0)
(1.35447e-14 -1.44648e-13 0)
(1.35447e-14 -1.44672e-13 0)
(1.37668e-14 -1.44676e-13 0)
(1.37668e-14 -1.4458e-13 0)
(1.77636e-15 -2.41205e-13 0)
(1.78746e-14 -1.24122e-13 0)
(1.43219e-14 -1.49532e-13 0)
(1.45439e-14 -1.43516e-13 0)
(1.45439e-14 -1.44744e-13 0)
(1.45439e-14 -1.44533e-13 0)
(1.46549e-14 -1.44663e-13 0)
(1.43219e-14 -1.44717e-13 0)
(1.43219e-14 -1.44639e-13 0)
(1.43219e-14 -1.44571e-13 0)
(1.43219e-14 -1.44592e-13 0)
(1.42109e-14 -1.44599e-13 0)
(1.44329e-14 -1.44621e-13 0)
(1.42109e-14 -1.4471e-13 0)
(1.40998e-14 -1.44692e-13 0)
(1.40998e-14 -1.44627e-13 0)
(1.38778e-14 -1.44646e-13 0)
(1.37668e-14 -1.44671e-13 0)
(1.38778e-14 -1.44659e-13 0)
(1.38778e-14 -1.44618e-13 0)
)
;

boundaryField
{
    movingWall
    {
        type            calculated;
        value           uniform (1.37668e-14 -1.4459e-13 0);
    }
    fixedWalls
    {
        type            calculated;
        value           uniform (1.37668e-14 -1.4459e-13 0);
    }
    frontAndBack
    {
        type            empty;
    }
}


// ************************************************************************* //
