/*--------------------------------*- C++ -*----------------------------------*\
| =========                 |                                                 |
| \\      /  F ield         | OpenFOAM: The Open Source CFD Toolbox           |
|  \\    /   O peration     | Version:  2312                                  |
|   \\  /    A nd           | Website:  www.openfoam.com                      |
|    \\/     M anipulation  |                                                 |
\*---------------------------------------------------------------------------*/
FoamFile
{
    version     2.0;
    format      ascii;
    arch        "LSB;label=32;scalar=64";
    class       volScalarField;
    location    "9.5";
    object      divPhi;
}
// * * * * * * * * * * * * * * * * * * * * * * * * * * * * * * * * * * * * * //

dimensions      [0 0 -1 0 0 0 0];

internalField   nonuniform List<scalar> 
400
(
1.89735e-13
-3.55814e-15
1.0782e-14
-1.14921e-14
1.29194e-15
7.59635e-16
1.48768e-14
-1.23184e-14
1.24478e-14
-5.93267e-15
-3.57998e-15
-4.78027e-15
6.36724e-15
6.39296e-15
7.31029e-16
-1.63387e-14
-3.70149e-15
1.70994e-14
3.99552e-15
0
0
1.72299e-15
-1.45721e-14
-2.34885e-15
9.51537e-15
-1.31317e-14
-2.79743e-14
-1.01027e-14
1.54394e-14
-8.48611e-15
-8.8138e-15
3.71811e-15
-1.30032e-14
-8.03803e-19
7.98459e-15
6.4916e-15
6.40342e-15
-1.28711e-14
1.8087e-14
-2.71051e-14
0
-7.29482e-15
5.09549e-15
-1.95764e-14
2.96104e-14
-1.48723e-14
-1.85788e-14
-3.4636e-15
-6.26946e-15
-3.81973e-15
-5.45907e-15
-3.64272e-15
7.49385e-15
-1.21328e-15
-1.83034e-15
-1.12427e-14
2.52787e-16
-2.26106e-14
-5.66066e-16
2.71051e-14
0
-1.3134e-14
-1.03932e-14
2.76168e-14
-1.36855e-14
-1.57314e-15
-6.94071e-16
4.57794e-15
-5.94532e-15
8.69388e-15
1.16251e-15
-2.19272e-14
1.66167e-14
-1.70522e-14
-7.87886e-15
1.56617e-14
-2.92345e-14
1.00233e-14
-5.76837e-15
0
0
-2.88791e-14
-8.35621e-15
-1.27304e-15
-1.61271e-15
4.51041e-15
-5.70659e-16
-2.17543e-14
1.07615e-14
-1.21665e-14
2.7779e-14
-1.09905e-14
-1.04369e-14
2.87967e-14
-2.38709e-14
1.61077e-14
-1.38887e-14
1.01819e-14
-2.01676e-14
0
2.71051e-14
-5.47828e-17
-9.31276e-15
1.15726e-14
3.67709e-15
5.69922e-15
-1.68879e-14
8.40613e-15
1.36218e-14
-2.33932e-14
-1.98064e-14
-1.38124e-14
8.54898e-16
-5.87215e-15
-1.68953e-14
1.83347e-14
3.53883e-16
4.01212e-15
-1.99595e-15
2.71051e-14
0
3.1153e-15
1.16008e-14
-1.74471e-14
3.1882e-14
-1.37243e-14
3.1702e-14
1.22576e-15
-1.08431e-14
4.60077e-15
2.17096e-14
2.68882e-15
-1.72919e-14
-1.92658e-14
2.73001e-14
-2.58394e-14
-3.73768e-15
2.18503e-14
-2.5472e-14
0
0
1.42177e-14
2.22432e-14
-1.92606e-14
2.05435e-15
1.53393e-14
8.95235e-15
-2.3647e-15
-2.03611e-14
5.34358e-15
-3.02046e-15
3.40256e-15
2.50757e-15
-5.93335e-15
5.44157e-17
-6.33409e-16
-1.03102e-14
-2.35571e-14
-1.49296e-15
0
0
-2.67648e-14
2.07054e-14
9.01828e-15
1.30737e-14
-1.97491e-14
-5.40055e-16
9.23179e-15
1.29428e-14
-3.88976e-15
-2.40596e-14
1.35866e-14
-1.89119e-14
2.13707e-14
-1.00675e-14
-1.50048e-14
-5.79706e-16
-5.28003e-15
-6.92807e-15
2.71051e-14
2.71051e-14
-2.18293e-14
-6.73755e-15
-8.3829e-15
2.77904e-14
1.78264e-14
2.44145e-14
1.73319e-14
4.91713e-15
-9.55645e-15
5.71842e-15
-4.17318e-14
1.35143e-14
-2.83828e-15
-8.17326e-16
7.47745e-15
7.30332e-15
-2.04232e-14
-6.74175e-15
0
0
6.69833e-16
-2.03757e-14
2.43354e-14
1.7542e-14
-1.44141e-14
6.87502e-16
-1.61833e-14
3.40245e-15
-8.01692e-15
3.16999e-14
-1.9374e-14
2.89667e-14
1.63768e-14
-1.16345e-14
3.22086e-15
-7.12663e-15
-8.34347e-16
-1.33463e-14
-2.71051e-14
0
1.094e-14
1.58736e-15
-1.07174e-14
-1.98006e-14
-3.45383e-15
1.97452e-14
-1.25885e-14
2.37419e-14
-1.54122e-14
6.59143e-15
1.56901e-14
-2.2077e-14
-2.89348e-15
-7.16802e-15
-8.48208e-15
3.13159e-15
3.21264e-15
-2.81638e-14
2.71051e-14
0
-2.89414e-15
6.67226e-15
-3.06968e-14
1.7318e-14
6.76881e-16
1.8119e-14
-2.50888e-14
9.74863e-15
-1.04532e-14
2.18521e-14
-1.68119e-16
9.23316e-15
-1.41582e-14
-3.1749e-14
-1.22295e-14
-1.27255e-14
2.50211e-14
-1.29499e-14
0
-2.71051e-14
1.30759e-14
-1.04902e-14
2.21017e-14
-1.41157e-14
-7.68555e-15
-1.87775e-14
1.09491e-14
2.53493e-14
-3.57843e-15
1.23504e-14
-2.85137e-14
8.3242e-15
2.85253e-15
3.46297e-15
-1.2735e-14
-3.12614e-14
3.59387e-15
-7.87612e-15
-2.71051e-14
2.71051e-14
5.5356e-15
-2.51277e-14
-6.72556e-15
1.56602e-14
-1.66574e-14
9.60099e-15
1.44928e-14
1.02013e-14
-2.9058e-15
1.01727e-14
-1.70971e-14
3.94587e-15
6.36516e-15
-9.36703e-15
5.64434e-15
-1.60556e-14
3.7923e-15
-7.29329e-15
2.71051e-14
0
-2.59901e-14
1.85633e-14
-3.84859e-15
-2.50347e-14
-1.03665e-14
3.37211e-15
7.42415e-16
3.99697e-15
1.18454e-14
-3.54164e-15
1.91616e-14
6.12314e-15
4.06788e-15
-5.39458e-15
3.93681e-16
1.25336e-14
-1.26616e-14
2.05549e-15
0
2.71051e-14
9.28865e-15
8.54763e-15
-4.20243e-16
9.69736e-16
-3.91414e-15
8.73587e-15
8.2441e-15
4.2585e-15
-1.81807e-14
1.06362e-14
-2.48262e-14
2.24481e-15
1.20116e-14
2.57862e-15
-2.06057e-14
2.9109e-14
-2.69519e-15
1.81569e-14
0
0
1.42827e-14
-8.48902e-15
5.92091e-15
7.64974e-15
2.88818e-15
2.26858e-15
-5.23437e-15
5.0241e-15
1.38345e-14
8.39379e-15
-2.15937e-14
4.1154e-15
2.20529e-14
1.3863e-14
-5.54541e-15
3.08875e-15
3.2177e-15
-4.04256e-14
2.71051e-14
-2.71051e-14
2.48282e-15
-2.17523e-15
-5.84523e-15
2.97692e-14
-1.198e-14
1.89794e-14
-3.58538e-14
1.16134e-14
4.09414e-16
2.24497e-14
2.57217e-14
-2.1517e-14
5.93066e-16
3.82846e-15
-2.88018e-14
1.04533e-14
3.49361e-15
-1.31685e-14
-2.71051e-14
2.71051e-14
0
0
0
-2.71051e-14
-2.71051e-14
2.71051e-14
-2.71051e-14
2.71051e-14
0
0
0
0
0
0
0
0
0
0
2.71051e-14
)
;

boundaryField
{
    movingWall
    {
        type            extrapolatedCalculated;
        value           nonuniform List<scalar> 
20
(
2.71051e-14
0
0
0
-2.71051e-14
-2.71051e-14
2.71051e-14
-2.71051e-14
2.71051e-14
0
0
0
0
0
0
0
0
0
0
2.71051e-14
)
;
    }
    fixedWalls
    {
        type            extrapolatedCalculated;
        value           nonuniform List<scalar> 
60
(
1.89735e-13
0
0
0
0
2.71051e-14
0
0
0
2.71051e-14
0
0
0
-2.71051e-14
2.71051e-14
0
2.71051e-14
0
-2.71051e-14
2.71051e-14
0
-2.71051e-14
2.71051e-14
0
0
2.71051e-14
0
0
2.71051e-14
0
-2.71051e-14
2.71051e-14
0
-2.71051e-14
2.71051e-14
0
0
2.71051e-14
-2.71051e-14
2.71051e-14
1.89735e-13
-3.55814e-15
1.0782e-14
-1.14921e-14
1.29194e-15
7.59635e-16
1.48768e-14
-1.23184e-14
1.24478e-14
-5.93267e-15
-3.57998e-15
-4.78027e-15
6.36724e-15
6.39296e-15
7.31029e-16
-1.63387e-14
-3.70149e-15
1.70994e-14
3.99552e-15
0
)
;
    }
    frontAndBack
    {
        type            empty;
    }
}


// ************************************************************************* //
