/*--------------------------------*- C++ -*----------------------------------*\
| =========                 |                                                 |
| \\      /  F ield         | OpenFOAM: The Open Source CFD Toolbox           |
|  \\    /   O peration     | Version:  2312                                  |
|   \\  /    A nd           | Website:  www.openfoam.com                      |
|    \\/     M anipulation  |                                                 |
\*---------------------------------------------------------------------------*/
FoamFile
{
    version     2.0;
    format      ascii;
    arch        "LSB;label=32;scalar=64";
    class       volScalarField;
    location    "9.5";
    object      epsilon;
}
// * * * * * * * * * * * * * * * * * * * * * * * * * * * * * * * * * * * * * //

dimensions      [0 2 -3 0 0 0 0];

internalField   nonuniform List<scalar> 
400
(
7.05827e-07
7.05827e-07
7.05827e-07
7.05826e-07
7.05826e-07
7.05826e-07
7.05826e-07
7.05826e-07
7.05826e-07
7.05826e-07
7.05825e-07
7.05825e-07
7.05825e-07
7.05825e-07
7.05825e-07
7.05825e-07
7.05825e-07
7.05825e-07
7.05825e-07
7.05825e-07
7.19626e-07
7.12571e-07
7.13174e-07
7.13424e-07
7.13921e-07
7.14179e-07
7.14675e-07
7.1494e-07
7.15436e-07
7.15709e-07
7.16203e-07
7.16484e-07
7.16978e-07
7.17268e-07
7.17759e-07
7.18058e-07
7.18547e-07
7.18855e-07
7.191e-07
7.19499e-07
7.42261e-07
7.3478e-07
7.35431e-07
7.35699e-07
7.36233e-07
7.36508e-07
7.3704e-07
7.37321e-07
7.3785e-07
7.38138e-07
7.38665e-07
7.3896e-07
7.39483e-07
7.39786e-07
7.40305e-07
7.40616e-07
7.41132e-07
7.4145e-07
7.41707e-07
7.42124e-07
7.67318e-07
7.59499e-07
7.60179e-07
7.60459e-07
7.61017e-07
7.61304e-07
7.6186e-07
7.62154e-07
7.62707e-07
7.63007e-07
7.63558e-07
7.63866e-07
7.64413e-07
7.6473e-07
7.65272e-07
7.65597e-07
7.66136e-07
7.66469e-07
7.66737e-07
7.67173e-07
7.89664e-07
7.81538e-07
7.82245e-07
7.82536e-07
7.83116e-07
7.83414e-07
7.83991e-07
7.84296e-07
7.84871e-07
7.85184e-07
7.85756e-07
7.86076e-07
7.86644e-07
7.86973e-07
7.87537e-07
7.87875e-07
7.88434e-07
7.8878e-07
7.89059e-07
7.89512e-07
8.06923e-07
7.98556e-07
7.99284e-07
7.99583e-07
8.0018e-07
8.00487e-07
8.01081e-07
8.01396e-07
8.01987e-07
8.02309e-07
8.02898e-07
8.03227e-07
8.03812e-07
8.04151e-07
8.04732e-07
8.0508e-07
8.05656e-07
8.06012e-07
8.06299e-07
8.06765e-07
8.19018e-07
8.10481e-07
8.11222e-07
8.11528e-07
8.12137e-07
8.1245e-07
8.13057e-07
8.13377e-07
8.13981e-07
8.14309e-07
8.1491e-07
8.15246e-07
8.15843e-07
8.16189e-07
8.16781e-07
8.17136e-07
8.17724e-07
8.18088e-07
8.1838e-07
8.18856e-07
8.27039e-07
8.18388e-07
8.19139e-07
8.19449e-07
8.20066e-07
8.20384e-07
8.20998e-07
8.21323e-07
8.21934e-07
8.22267e-07
8.22875e-07
8.23216e-07
8.23821e-07
8.24171e-07
8.24771e-07
8.25131e-07
8.25727e-07
8.26095e-07
8.26392e-07
8.26874e-07
8.32319e-07
8.23593e-07
8.24351e-07
8.24664e-07
8.25286e-07
8.25606e-07
8.26226e-07
8.26553e-07
8.2717e-07
8.27506e-07
8.2812e-07
8.28463e-07
8.29073e-07
8.29427e-07
8.30032e-07
8.30395e-07
8.30996e-07
8.31367e-07
8.31667e-07
8.32153e-07
8.35973e-07
8.27197e-07
8.27959e-07
8.28274e-07
8.28899e-07
8.29221e-07
8.29844e-07
8.30174e-07
8.30795e-07
8.31132e-07
8.3175e-07
8.32095e-07
8.32709e-07
8.33064e-07
8.33673e-07
8.34038e-07
8.34643e-07
8.35017e-07
8.35318e-07
8.35807e-07
8.38783e-07
8.29966e-07
8.30732e-07
8.31047e-07
8.31676e-07
8.31999e-07
8.32625e-07
8.32956e-07
8.3358e-07
8.33919e-07
8.34539e-07
8.34886e-07
8.35503e-07
8.3586e-07
8.36471e-07
8.36838e-07
8.37445e-07
8.37821e-07
8.38123e-07
8.38615e-07
8.41238e-07
8.32386e-07
8.33154e-07
8.33472e-07
8.34102e-07
8.34427e-07
8.35056e-07
8.35388e-07
8.36014e-07
8.36354e-07
8.36977e-07
8.37326e-07
8.37944e-07
8.38303e-07
8.38917e-07
8.39285e-07
8.39894e-07
8.40271e-07
8.40575e-07
8.41068e-07
8.43628e-07
8.34743e-07
8.35515e-07
8.35833e-07
8.36466e-07
8.36792e-07
8.37423e-07
8.37757e-07
8.38385e-07
8.38726e-07
8.39351e-07
8.39702e-07
8.40323e-07
8.40682e-07
8.41299e-07
8.41668e-07
8.4228e-07
8.42659e-07
8.42963e-07
8.43459e-07
8.46114e-07
8.37194e-07
8.37969e-07
8.38288e-07
8.38924e-07
8.39251e-07
8.39885e-07
8.4022e-07
8.4085e-07
8.41193e-07
8.41821e-07
8.42172e-07
8.42796e-07
8.43157e-07
8.43775e-07
8.44146e-07
8.44761e-07
8.45141e-07
8.45447e-07
8.45944e-07
8.48757e-07
8.39799e-07
8.40577e-07
8.40898e-07
8.41536e-07
8.41865e-07
8.42501e-07
8.42837e-07
8.43471e-07
8.43815e-07
8.44445e-07
8.44798e-07
8.45424e-07
8.45786e-07
8.46408e-07
8.4678e-07
8.47397e-07
8.47779e-07
8.48086e-07
8.48585e-07
8.51522e-07
8.42526e-07
8.43307e-07
8.43629e-07
8.4427e-07
8.44601e-07
8.45239e-07
8.45577e-07
8.46213e-07
8.46559e-07
8.47192e-07
8.47546e-07
8.48175e-07
8.48539e-07
8.49163e-07
8.49537e-07
8.50157e-07
8.5054e-07
8.50849e-07
8.5135e-07
8.54274e-07
8.45239e-07
8.46023e-07
8.46347e-07
8.46991e-07
8.47322e-07
8.47963e-07
8.48303e-07
8.48941e-07
8.49288e-07
8.49924e-07
8.5028e-07
8.50912e-07
8.51277e-07
8.51904e-07
8.5228e-07
8.52902e-07
8.53287e-07
8.53597e-07
8.541e-07
8.56768e-07
8.477e-07
8.48487e-07
8.48812e-07
8.49458e-07
8.4979e-07
8.50434e-07
8.50774e-07
8.51415e-07
8.51764e-07
8.52402e-07
8.52759e-07
8.53393e-07
8.5376e-07
8.54389e-07
8.54766e-07
8.55391e-07
8.55777e-07
8.56088e-07
8.56594e-07
8.58688e-07
8.49764e-07
8.50525e-07
8.5084e-07
8.51467e-07
8.51792e-07
8.52418e-07
8.52754e-07
8.53379e-07
8.53725e-07
8.54348e-07
8.54706e-07
8.55326e-07
8.55697e-07
8.56313e-07
8.56697e-07
8.57309e-07
8.57706e-07
8.58012e-07
8.58518e-07
8.59575e-07
8.59574e-07
8.59575e-07
8.59573e-07
8.59574e-07
8.59573e-07
8.59574e-07
8.59572e-07
8.59574e-07
8.59572e-07
8.59573e-07
8.59572e-07
8.59573e-07
8.59572e-07
8.59572e-07
8.59572e-07
8.59572e-07
8.59572e-07
8.59572e-07
8.59572e-07
)
;

boundaryField
{
    movingWall
    {
        type            epsilonWallFunction;
        blending        stepwise;
        value           nonuniform List<scalar> 
20
(
8.59575e-07
8.59574e-07
8.59575e-07
8.59573e-07
8.59574e-07
8.59573e-07
8.59574e-07
8.59572e-07
8.59574e-07
8.59572e-07
8.59573e-07
8.59572e-07
8.59573e-07
8.59572e-07
8.59572e-07
8.59572e-07
8.59572e-07
8.59572e-07
8.59572e-07
8.59572e-07
)
;
    }
    fixedWalls
    {
        type            epsilonWallFunction;
        blending        stepwise;
        value           nonuniform List<scalar> 
60
(
7.05827e-07
7.19626e-07
7.42261e-07
7.67318e-07
7.89664e-07
8.06923e-07
8.19018e-07
8.27039e-07
8.32319e-07
8.35973e-07
8.38783e-07
8.41238e-07
8.43628e-07
8.46114e-07
8.48757e-07
8.51522e-07
8.54274e-07
8.56768e-07
8.58688e-07
8.59575e-07
7.05825e-07
7.19499e-07
7.42124e-07
7.67173e-07
7.89512e-07
8.06765e-07
8.18856e-07
8.26874e-07
8.32153e-07
8.35807e-07
8.38615e-07
8.41068e-07
8.43459e-07
8.45944e-07
8.48585e-07
8.5135e-07
8.541e-07
8.56594e-07
8.58518e-07
8.59572e-07
7.05827e-07
7.05827e-07
7.05827e-07
7.05826e-07
7.05826e-07
7.05826e-07
7.05826e-07
7.05826e-07
7.05826e-07
7.05826e-07
7.05825e-07
7.05825e-07
7.05825e-07
7.05825e-07
7.05825e-07
7.05825e-07
7.05825e-07
7.05825e-07
7.05825e-07
7.05825e-07
)
;
    }
    frontAndBack
    {
        type            empty;
    }
}


// ************************************************************************* //
