/*--------------------------------*- C++ -*----------------------------------*\
| =========                 |                                                 |
| \\      /  F ield         | OpenFOAM: The Open Source CFD Toolbox           |
|  \\    /   O peration     | Version:  2312                                  |
|   \\  /    A nd           | Website:  www.openfoam.com                      |
|    \\/     M anipulation  |                                                 |
\*---------------------------------------------------------------------------*/
FoamFile
{
    version     2.0;
    format      ascii;
    arch        "LSB;label=32;scalar=64";
    class       volScalarField;
    location    "9.5";
    object      flowTypeField;
}
// * * * * * * * * * * * * * * * * * * * * * * * * * * * * * * * * * * * * * //

dimensions      [0 0 0 0 0 0 0];

internalField   nonuniform List<scalar> 
400
(
0.472288
0.0597129
0.0668867
-0.0119896
0.210254
-0.201403
0.196806
0.143378
-0.15024
-0.227593
0.752089
0.361676
0.103607
0.606203
0.725683
0.515301
0.254514
0.947191
0.135716
0.419519
0.973456
0.779388
0.788049
0.531566
0.406498
-0.030231
0.899196
0.852344
0.905793
0.106762
0.468112
0.277115
0.947581
0.069229
0.813252
0.129169
-0.313492
0.419198
0.71286
0.80126
0.601873
0.12594
0.0470425
0.180459
-0.333601
0.423073
-0.373765
-0.160171
0.042689
-0.302523
-0.134803
0.253661
0.27184
0.749483
0.0481743
0.775818
0.000740632
0.0467205
0.746818
0.820165
0.784215
0.202801
0.169074
0.242595
0.292608
0.6532
0.183616
0.976033
0.898992
-0.0258643
0.256344
0.0202246
0.0240394
0.920453
0.731979
0.220915
0.264804
0.156092
0.315862
0.701862
0.881079
0.587354
0.596918
0.772936
-0.138576
0.427448
-0.36182
-0.0816651
0.717316
0.379721
0.0128271
-0.222196
-0.148854
-0.147451
0.0329871
0.127805
0.740157
0.828289
0.0681037
0.0509128
0.504862
0.0947978
0.0645083
-0.0158793
0.00709825
0.88756
0.0248327
0.119171
0.120324
-0.208363
0.515289
0.676767
0.934894
2.82951e-06
0.135556
0.413615
-0.257447
0.272508
0.2199
0.467209
0.429037
0.0884537
-0.00828023
0.124123
-0.297725
0.847408
-0.0271682
0.0294905
0.677726
0.0805199
0.32163
0.344275
-0.0745848
0.0930807
0.0744921
0.0602424
-0.00282083
0.945432
0.881516
0.466999
0.970249
0.529925
0.557167
0.35485
0.466049
0.00184484
0.226687
0.116558
-0.0411608
-0.0281242
0.0923374
0.022687
-0.0483701
-0.0805665
0.6165
-0.254559
0.129253
0.760571
0.464735
0.270113
0.609621
0.135201
0.0550907
0.26279
-0.339313
0.158981
0.0159161
0.0445261
0.128131
0.115403
0.0130141
0.108069
0.101571
0.025625
0.139002
-0.0430565
0.19158
0.338323
0.573188
0.572989
0.190449
0.0460442
-0.0129532
0.00123776
0.466498
-0.413044
0.454957
0.0547651
0.109741
-0.524408
-0.404197
-0.0818691
-0.562987
-0.393445
0.293995
0.127364
-0.249895
-0.226365
-0.0996064
0.0644708
0.264626
0.0351663
-0.0176492
-0.0269416
0.125094
0.443738
0.263774
0.902045
0.974848
-0.0725836
0.446564
0.359846
0.230197
0.390469
0.56298
-0.0225083
0.857367
0.853293
0.958216
0.0361032
0.59813
0.114676
0.126079
0.141152
-0.184945
0.323556
0.308709
0.200368
0.0316847
0.58299
0.23902
-0.438663
0.364712
0.424584
-0.0128799
-0.0621712
0.0330613
-0.221561
-0.140763
0.0668088
0.913381
0.456315
0.411757
0.407745
0.885511
0.811281
0.699667
0.410427
0.926845
0.980602
0.348386
0.948633
-0.0408624
0.314862
0.480328
0.513235
-0.177012
0.872791
0.630001
0.972268
0.461624
0.0728527
0.0575308
0.037343
0.226495
0.0434226
0.358023
0.464218
0.487625
0.0661175
0.54537
0.102778
-0.3804
-0.323205
0.128402
-0.300628
-0.216821
0.111976
-0.0682438
0.653847
0.19817
0.0542841
-0.0333358
0.144901
-0.303727
0.230199
-0.184561
0.0385403
-0.0156002
-0.0159117
0.138446
0.866293
0.133295
0.0166677
0.526489
0.925173
0.226141
0.0034497
0.293195
-0.687632
0.663065
0.180012
0.0675256
0.19049
-0.394477
0.0526797
0.11319
0.0919329
-0.0545319
-0.160089
-0.129437
-0.145889
-0.118948
-0.0675169
0.2842
0.259491
0.608039
-0.053141
0.359487
0.576334
0.939658
0.427777
0.375232
0.710967
0.179466
0.223246
0.00647213
0.216891
0.235249
-0.0444723
0.111424
0.0521867
0.471064
-0.163438
0.360847
0.760046
-0.111756
0.630215
0.757039
0.856174
0.541271
0.120926
0.0107184
0.138778
-0.411589
0.111727
0.710191
0.196444
0.0122504
-0.0477152
-0.141439
-0.0625497
0.129038
0.842139
0.430415
-0.104436
-0.0122432
0.11309
0.693594
0.445164
0.875692
0.438133
0.411359
0.400137
-0.0936858
-0.191254
-0.42809
0.307182
0.0888454
-0.120909
0.0737264
0.671316
0.027414
0.240108
-0.0300337
0.278886
0.0382392
0.252382
0.367405
0.290936
0.566891
0.0873585
0.117971
-0.00276631
0.53154
-0.123965
0.404021
0.289125
-0.466741
-0.0840174
0.339653
0.144667
0.203045
0.485278
0.0697419
-0.0313658
0.877814
0.912111
-0.0211713
0.064746
)
;

boundaryField
{
    movingWall
    {
        type            calculated;
        value           nonuniform List<scalar> 
20
(
0.630331
0.12574
0.34951
-0.111225
0.336231
-0.0232462
0.0572815
0.021546
-0.0613191
-0.0204066
0.0196154
0.0277203
0.0427575
0.0806534
0.00481266
-0.0283754
0.40891
0.933343
0.0545677
-0.00124387
)
;
    }
    fixedWalls
    {
        type            calculated;
        value           nonuniform List<scalar> 
60
(
0.0703574
0.766771
0.114633
0.20413
0.599017
0.0951091
0.0723409
0.541216
0.121663
0.0332259
0.0243772
0.117154
0.472938
0.0677217
0.0395233
0.175882
0.429331
0.105901
0.446732
0.100525
0.0204512
0.944347
0.864414
0.838611
0.425728
0.502341
0.646299
0.281503
0.899352
0.0308341
0.270637
0.477562
0.840252
0.933966
-0.710056
0.920871
0.715878
0.683218
-0.10362
0.250951
0.65889
0.143141
0.327067
-0.0117913
0.727795
-0.129697
0.0380421
-0.00643436
-0.0382011
-0.0581073
0.00813817
0.109723
0.142232
0.184089
0.821403
0.416832
0.119721
0.95556
0.373093
0.819079
)
;
    }
    frontAndBack
    {
        type            empty;
    }
}


// ************************************************************************* //
