/*--------------------------------*- C++ -*----------------------------------*\
| =========                 |                                                 |
| \\      /  F ield         | OpenFOAM: The Open Source CFD Toolbox           |
|  \\    /   O peration     | Version:  2312                                  |
|   \\  /    A nd           | Website:  www.openfoam.com                      |
|    \\/     M anipulation  |                                                 |
\*---------------------------------------------------------------------------*/
FoamFile
{
    version     2.0;
    format      ascii;
    arch        "LSB;label=32;scalar=64";
    class       surfaceScalarField;
    location    "9.5";
    object      fluxField;
}
// * * * * * * * * * * * * * * * * * * * * * * * * * * * * * * * * * * * * * //

dimensions      [0 3 -1 0 0 0 0];

oriented        oriented;

internalField   nonuniform List<scalar> 
760
(
-5e-05
4.02877e-18
-5e-05
-8.47912e-19
-5e-05
2.17773e-19
-5e-05
-4.02404e-20
-5e-05
1.01332e-20
-5e-05
1.34975e-22
-5e-05
3.28664e-21
-5e-05
9.70085e-22
-5e-05
4.41153e-22
-5e-05
-1.40955e-21
-5e-05
-8.74263e-22
-5e-05
5.31899e-22
-5e-05
3.77542e-21
-5e-05
7.96291e-21
-5e-05
9.69217e-21
-5e-05
6.23162e-21
-5e-05
-1.70103e-21
-5e-05
-6.25522e-21
-5e-05
-2.50958e-21
9.79486e-22
-5e-05
-2.87163e-18
-5e-05
6.5157e-19
-5e-05
-1.36966e-19
-5e-05
3.67879e-20
-5e-05
-1.15273e-20
-5e-05
-3.52755e-21
-5e-05
-2.33379e-21
-5e-05
-1.27776e-21
-5e-05
-5.84773e-23
-5e-05
-4.52521e-22
-5e-05
5.12399e-21
-5e-05
6.89738e-21
-5e-05
2.11148e-21
-5e-05
3.68091e-22
-5e-05
5.66336e-21
-5e-05
8.86059e-21
-5e-05
2.58615e-21
-5e-05
-4.15277e-21
-5e-05
-5.19559e-21
-2.23221e-21
-5e-05
-1.22587e-18
-5e-05
2.74918e-19
-5e-05
-5.94783e-20
-5e-05
1.98462e-20
-5e-05
-3.14337e-21
-5e-05
-3.20051e-21
-5e-05
-1.39933e-21
-5e-05
2.06226e-21
-5e-05
2.20415e-21
-5e-05
2.33957e-21
-5e-05
6.13578e-21
-5e-05
7.50912e-21
-5e-05
2.88228e-21
-5e-05
5.84953e-22
-5e-05
3.48674e-21
-5e-05
4.1551e-21
-5e-05
2.3631e-21
-5e-05
-2.01569e-21
-5e-05
-5.46031e-21
-3.0511e-21
-5e-05
2.59016e-18
-5e-05
-5.6572e-19
-5e-05
1.29447e-19
-5e-05
-2.66289e-20
-5e-05
1.32893e-20
-5e-05
4.76562e-21
-5e-05
4.67551e-21
-5e-05
4.56519e-21
-5e-05
1.34739e-21
-5e-05
5.21051e-21
-5e-05
7.19161e-21
-5e-05
6.24305e-21
-5e-05
3.78668e-21
-5e-05
1.85449e-21
-5e-05
-1.04142e-21
-5e-05
-2.96853e-21
-5e-05
-2.60436e-21
-5e-05
-2.01127e-21
-5e-05
-2.09285e-21
-1.03242e-21
-5e-05
-2.52897e-18
-5e-05
5.53176e-19
-5e-05
-1.27114e-19
-5e-05
2.90663e-20
-5e-05
-1.9395e-22
-5e-05
8.41625e-21
-5e-05
5.79729e-21
-5e-05
5.86714e-21
-5e-05
3.10247e-21
-5e-05
3.56427e-21
-5e-05
4.17578e-21
-5e-05
3.1146e-21
-5e-05
2.7603e-21
-5e-05
-8.13053e-22
-5e-05
-5.51515e-21
-5e-05
-2.94641e-21
-5e-05
3.46094e-22
-5e-05
2.91674e-21
-5e-05
2.3218e-21
1.32293e-21
-5e-05
5.94951e-19
-5e-05
-1.29429e-19
-5e-05
3.78297e-20
-5e-05
-5.75931e-21
-5e-05
3.71222e-21
-5e-05
3.01024e-21
-5e-05
5.97925e-21
-5e-05
5.49805e-21
-5e-05
6.866e-21
-5e-05
-1.06315e-21
-5e-05
-3.79584e-21
-5e-05
-1.9979e-21
-5e-05
1.24712e-21
-5e-05
-8.03149e-22
-5e-05
-2.38354e-21
-5e-05
1.12687e-21
-5e-05
4.10575e-21
-5e-05
5.90215e-21
-5e-05
4.41674e-21
2.47338e-21
-5e-05
2.78144e-18
-5e-05
-6.04607e-19
-5e-05
1.38384e-19
-5e-05
-3.31985e-20
-5e-05
6.55519e-21
-5e-05
6.58241e-22
-5e-05
4.03342e-21
-5e-05
1.18936e-21
-5e-05
4.51729e-21
-5e-05
1.84423e-21
-5e-05
-1.28154e-21
-5e-05
5.01479e-22
-5e-05
1.75672e-21
-5e-05
2.52909e-21
-5e-05
5.30475e-21
-5e-05
4.44957e-21
-5e-05
7.46968e-22
-5e-05
-8.89879e-22
-5e-05
1.47016e-21
1.69992e-21
-5e-05
-3.5285e-18
-5e-05
7.70077e-19
-5e-05
-1.87758e-19
-5e-05
4.02412e-20
-5e-05
-9.56166e-21
-5e-05
-1.81237e-22
-5e-05
-3.61373e-21
-5e-05
-2.94614e-21
-5e-05
-2.53437e-21
-5e-05
1.99711e-21
-5e-05
3.95838e-22
-5e-05
1.4491e-21
-5e-05
1.90755e-21
-5e-05
4.51617e-21
-5e-05
3.93299e-21
-5e-05
-1.81196e-21
-5e-05
-6.3149e-21
-5e-05
-4.91244e-21
-5e-05
6.40303e-22
2.42045e-21
-5e-05
1.67096e-18
-5e-05
-3.86544e-19
-5e-05
8.84782e-20
-5e-05
-1.65866e-20
-5e-05
5.18615e-21
-5e-05
-6.23309e-21
-5e-05
-6.59982e-21
-5e-05
-3.26804e-21
-5e-05
-5.37148e-21
-5e-05
-1.23954e-21
-5e-05
5.33154e-22
-5e-05
2.00458e-21
-5e-05
1.26856e-21
-5e-05
-2.62816e-22
-5e-05
-5.67939e-21
-5e-05
-8.30017e-21
-5e-05
-7.79107e-21
-5e-05
-6.30809e-22
-5e-05
4.69433e-21
3.9054e-21
-5e-05
7.15413e-19
-5e-05
-1.6466e-19
-5e-05
4.02786e-20
-5e-05
-5.95132e-21
-5e-05
5.30771e-21
-5e-05
-1.76963e-21
-5e-05
-4.39363e-21
-5e-05
-2.28986e-21
-5e-05
-3.24824e-21
-5e-05
-1.86389e-21
-5e-05
-1.33006e-22
-5e-05
2.13204e-21
-5e-05
2.48565e-21
-5e-05
-2.58528e-21
-5e-05
-8.01975e-21
-5e-05
-5.34314e-21
-5e-05
-2.68781e-21
-5e-05
1.15892e-21
-5e-05
3.317e-21
1.76695e-21
-5e-05
-1.785e-18
-5e-05
3.95414e-19
-5e-05
-9.32304e-20
-5e-05
1.89097e-20
-5e-05
-4.28525e-21
-5e-05
2.78927e-21
-5e-05
-2.89638e-21
-5e-05
-3.96009e-21
-5e-05
-1.31845e-21
-5e-05
-3.05881e-21
-5e-05
-4.42664e-21
-5e-05
-2.25314e-21
-5e-05
2.14198e-21
-5e-05
-1.29697e-21
-5e-05
-2.26846e-21
-5e-05
9.73387e-22
-5e-05
2.29225e-21
-5e-05
-1.6416e-21
-5e-05
-1.01949e-21
4.45353e-23
-5e-05
2.54742e-18
-5e-05
-5.68599e-19
-5e-05
1.31231e-19
-5e-05
-3.26493e-20
-5e-05
1.27128e-21
-5e-05
-1.25375e-21
-5e-05
-1.67924e-22
-5e-05
-3.09051e-21
-5e-05
-1.0426e-21
-5e-05
-2.6845e-21
-5e-05
-3.53718e-21
-5e-05
-3.54142e-21
-5e-05
1.91225e-22
-5e-05
-7.41614e-22
-5e-05
3.03258e-21
-5e-05
4.20257e-21
-5e-05
1.19819e-21
-5e-05
-3.07058e-21
-5e-05
-1.47042e-21
9.88042e-22
-5e-05
-2.16218e-18
-5e-05
4.66948e-19
-5e-05
-1.09839e-19
-5e-05
2.58218e-20
-5e-05
-8.13687e-21
-5e-05
6.24064e-22
-5e-05
2.18908e-21
-5e-05
7.17019e-23
-5e-05
-3.22801e-21
-5e-05
-3.81e-21
-5e-05
-2.67534e-21
-5e-05
-6.96864e-21
-5e-05
-3.63843e-21
-5e-05
2.42307e-21
-5e-05
7.80749e-21
-5e-05
3.92361e-21
-5e-05
-3.04231e-21
-5e-05
-2.21592e-21
-5e-05
-2.51343e-21
-1.1885e-21
-5e-05
7.01199e-19
-5e-05
-1.52244e-19
-5e-05
2.78921e-20
-5e-05
-9.07764e-21
-5e-05
-1.42733e-21
-5e-05
-2.01018e-21
-5e-05
3.13193e-21
-5e-05
2.02523e-21
-5e-05
-1.48415e-21
-5e-05
1.96809e-22
-5e-05
1.42891e-21
-5e-05
-5.15184e-21
-5e-05
-5.13118e-21
-5e-05
1.85877e-21
-5e-05
7.05924e-21
-5e-05
2.65045e-21
-5e-05
3.35761e-22
-5e-05
6.61773e-22
-5e-05
-4.40567e-21
-4.17665e-21
-5e-05
1.67289e-18
-5e-05
-3.77067e-19
-5e-05
7.64006e-20
-5e-05
-3.01377e-20
-5e-05
-3.56525e-21
-5e-05
-4.84123e-21
-5e-05
2.90486e-21
-5e-05
5.67709e-21
-5e-05
5.29123e-21
-5e-05
5.98747e-21
-5e-05
3.66412e-21
-5e-05
-3.4806e-22
-5e-05
-5.63002e-21
-5e-05
-5.15262e-21
-5e-05
-5.02053e-21
-5e-05
-3.69917e-21
-5e-05
1.28874e-21
-5e-05
2.56188e-22
-5e-05
-4.5934e-21
-4.13911e-21
-5e-05
-2.98669e-18
-5e-05
6.36025e-19
-5e-05
-1.55852e-19
-5e-05
2.37156e-20
-5e-05
-1.2259e-20
-5e-05
-1.25634e-21
-5e-05
-8.874e-23
-5e-05
4.11609e-21
-5e-05
3.84551e-21
-5e-05
1.49225e-21
-5e-05
-1.72985e-21
-5e-05
-1.98128e-21
-5e-05
-5.2673e-21
-5e-05
-6.69853e-21
-5e-05
-1.07419e-20
-5e-05
-8.97086e-21
-5e-05
-4.2684e-21
-5e-05
-4.66807e-22
-5e-05
-8.7794e-22
-2.43727e-21
-5e-05
1.99772e-18
-5e-05
-4.41588e-19
-5e-05
1.02159e-19
-5e-05
-2.26157e-20
-5e-05
6.98714e-21
-5e-05
-8.77856e-22
-5e-05
-4.05141e-21
-5e-05
-2.50106e-21
-5e-05
-2.41972e-21
-5e-05
-3.45437e-21
-5e-05
-3.35546e-21
-5e-05
5.20473e-22
-5e-05
1.01012e-22
-5e-05
-2.85494e-21
-5e-05
-8.47715e-21
-5e-05
-9.36722e-21
-5e-05
-3.51674e-21
-5e-05
3.36028e-21
-5e-05
2.32678e-21
2.08291e-22
-5e-05
2.07234e-18
-5e-05
-4.60596e-19
-5e-05
1.05723e-19
-5e-05
-2.05727e-20
-5e-05
1.07179e-20
-5e-05
3.39194e-22
-5e-05
-5.02879e-21
-5e-05
-4.31799e-21
-5e-05
-2.01125e-21
-5e-05
-2.94975e-21
-5e-05
-3.26575e-21
-5e-05
2.39383e-21
-5e-05
2.3533e-21
-5e-05
-2.71782e-21
-5e-05
-8.63356e-21
-5e-05
-7.14481e-21
-5e-05
-1.74709e-21
-5e-05
6.16538e-22
-5e-05
-1.1094e-21
1.08372e-21
-5e-05
-3.41574e-18
-5e-05
7.19631e-19
-5e-05
-1.7514e-19
-5e-05
3.8577e-20
-5e-05
-3.21084e-21
-5e-05
2.60848e-21
-5e-05
-4.09291e-21
-5e-05
-5.13575e-21
-5e-05
-1.38402e-21
-5e-05
-6.03958e-22
-5e-05
-2.13451e-21
-5e-05
1.8636e-22
-5e-05
-2.01544e-22
-5e-05
-5.16206e-21
-5e-05
-7.10565e-21
-5e-05
-3.46902e-21
-5e-05
-2.84538e-21
-5e-05
-4.0963e-21
-5e-05
-3.90306e-21
-4.77165e-22
-5e-05
-5e-05
-5e-05
-5e-05
-5e-05
-5e-05
-5e-05
-5e-05
-5e-05
-5e-05
-5e-05
-5e-05
-5e-05
-5e-05
-5e-05
-5e-05
-5e-05
-5e-05
-5e-05
)
;

boundaryField
{
    movingWall
    {
        type            calculated;
        value           uniform -0;
    }
    fixedWalls
    {
        type            calculated;
        value           nonuniform List<scalar> 
60
(
5e-05
5e-05
5e-05
5e-05
5e-05
5e-05
5e-05
5e-05
5e-05
5e-05
5e-05
5e-05
5e-05
5e-05
5e-05
5e-05
5e-05
5e-05
5e-05
5e-05
-5e-05
-5e-05
-5e-05
-5e-05
-5e-05
-5e-05
-5e-05
-5e-05
-5e-05
-5e-05
-5e-05
-5e-05
-5e-05
-5e-05
-5e-05
-5e-05
-5e-05
-5e-05
-5e-05
-5e-05
0
0
0
0
0
0
0
0
0
0
0
0
0
0
0
0
0
0
0
0
)
;
    }
    frontAndBack
    {
        type            empty;
        value           nonuniform List<scalar> 0();
    }
}


// ************************************************************************* //
