/*--------------------------------*- C++ -*----------------------------------*\
| =========                 |                                                 |
| \\      /  F ield         | OpenFOAM: The Open Source CFD Toolbox           |
|  \\    /   O peration     | Version:  2312                                  |
|   \\  /    A nd           | Website:  www.openfoam.com                      |
|    \\/     M anipulation  |                                                 |
\*---------------------------------------------------------------------------*/
FoamFile
{
    version     2.0;
    format      ascii;
    arch        "LSB;label=32;scalar=64";
    class       volTensorField;
    location    "9.5";
    object      gradU;
}
// * * * * * * * * * * * * * * * * * * * * * * * * * * * * * * * * * * * * * //

dimensions      [0 0 -1 0 0 0 0];

internalField   nonuniform List<tensor> 
400
(
(-8.40257e-13 1.1356e-11 0 1.89735e-12 1.61151e-11 0 0 0 0)
(1.43657e-12 -1.36985e-11 0 -3.79471e-13 -3.39165e-12 0 0 0 0)
(-4.60786e-13 2.95291e-12 0 5.42101e-14 8.71091e-13 0 0 0 0)
(0 -7.17854e-13 0 2.71051e-14 -1.60962e-13 0 0 0 0)
(-2.71051e-14 1.52247e-13 0 2.71051e-14 4.05329e-14 0 0 0 0)
(2.71051e-14 -3.1269e-14 0 2.71051e-14 5.39899e-16 0 0 0 0)
(-2.71051e-14 5.31628e-15 0 5.42101e-14 1.31466e-14 0 0 0 0)
(-2.71051e-14 -5.82222e-15 0 2.71051e-14 3.88034e-15 0 0 0 0)
(0 -8.28974e-15 0 5.42101e-14 1.76461e-15 0 0 0 0)
(0 -1.29675e-14 0 5.42101e-14 -5.6382e-15 0 0 0 0)
(-2.71051e-14 -4.90559e-15 0 0 -3.49705e-15 0 0 0 0)
(2.71051e-14 1.67512e-14 0 5.42101e-14 2.1276e-15 0 0 0 0)
(0 2.93497e-14 0 0 1.51017e-14 0 0 0 0)
(-2.71051e-14 1.43906e-14 0 0 3.18516e-14 0 0 0 0)
(-5.42101e-14 -1.45656e-14 0 0 3.87687e-14 0 0 0 0)
(-5.42101e-14 -2.79523e-14 0 0 2.49265e-14 0 0 0 0)
(0 -2.07071e-14 0 -8.13152e-14 -6.80414e-15 0 0 0 0)
(5.42101e-14 1.60245e-15 0 0 -2.50209e-14 0 0 0 0)
(0 1.6254e-14 0 0 -1.00383e-14 0 0 0 0)
(0 -1.98947e-15 0 0 3.91794e-15 0 0 0 0)
(2.41235e-12 1.36743e-12 0 8.40257e-13 -2.76016e-11 0 0 0 0)
(-3.27971e-12 -1.54549e-12 0 -3.25261e-13 5.99793e-12 0 0 0 0)
(8.40257e-13 2.77778e-13 0 0 -1.41895e-12 0 0 0 0)
(-8.13152e-14 -1.12703e-13 0 2.71051e-14 3.08113e-13 0 0 0 0)
(5.42101e-14 9.25401e-15 0 -5.42101e-14 -8.66419e-14 0 0 0 0)
(0 3.88272e-15 0 -8.13152e-14 -1.46501e-14 0 0 0 0)
(2.71051e-14 -1.97584e-15 0 0 -2.24817e-14 0 0 0 0)
(5.42101e-14 -5.55974e-15 0 0 -8.99136e-15 0 0 0 0)
(2.71051e-14 -1.2288e-15 0 0 -1.99852e-15 0 0 0 0)
(-2.71051e-14 7.70588e-15 0 -2.71051e-14 3.82812e-15 0 0 0 0)
(0 1.26714e-14 0 0 2.3993e-14 0 0 0 0)
(-5.42101e-14 1.84757e-15 0 -5.42101e-14 2.54619e-14 0 0 0 0)
(-2.71051e-14 3.7434e-16 0 0 -6.65574e-15 0 0 0 0)
(2.71051e-14 9.27637e-15 0 -5.42101e-14 -3.03793e-14 0 0 0 0)
(5.42101e-14 7.64047e-15 0 0 -1.61152e-14 0 0 0 0)
(0 -1.76205e-14 0 0 1.05159e-14 0 0 0 0)
(0 -2.92403e-14 0 8.13152e-14 1.71487e-14 0 0 0 0)
(0 -4.83664e-15 0 0 8.40981e-15 0 0 0 0)
(-5.42101e-14 1.26848e-14 0 0 -1.0744e-14 0 0 0 0)
(5.42101e-14 8.10985e-15 0 0 -1.28468e-14 0 0 0 0)
(-2.98156e-13 -1.02477e-11 0 -5.66496e-12 6.58302e-12 0 0 0 0)
(5.96311e-13 1.24841e-11 0 1.49078e-12 -1.50661e-12 0 0 0 0)
(-1.6263e-13 -2.73691e-12 0 -1.0842e-13 3.0995e-13 0 0 0 0)
(0 6.14457e-13 0 1.0842e-13 -6.77671e-14 0 0 0 0)
(-8.13152e-14 -1.70516e-13 0 1.0842e-13 3.35356e-14 0 0 0 0)
(2.71051e-14 3.28912e-14 0 8.13152e-14 1.30814e-15 0 0 0 0)
(0 1.0975e-14 0 -2.71051e-14 3.73784e-15 0 0 0 0)
(0 1.4661e-14 0 -8.13152e-14 1.33601e-14 0 0 0 0)
(-2.71051e-14 4.52974e-15 0 -5.42101e-14 9.05051e-15 0 0 0 0)
(0 1.3024e-14 0 -2.71051e-14 1.11684e-14 0 0 0 0)
(-2.71051e-14 1.67282e-14 0 -5.42101e-14 4.04719e-15 0 0 0 0)
(0 -1.38976e-14 0 -5.42101e-14 2.44697e-15 0 0 0 0)
(2.71051e-14 -2.64915e-14 0 0 3.0832e-15 0 0 0 0)
(-2.71051e-14 4.93115e-15 0 0 8.67449e-16 0 0 0 0)
(0 2.63295e-14 0 0 -8.7065e-15 0 0 0 0)
(-2.71051e-14 5.31164e-15 0 0 -1.8822e-14 0 0 0 0)
(0 -2.28131e-14 0 0 -8.92188e-16 0 0 0 0)
(0 -2.62903e-14 0 0 8.54831e-15 0 0 0 0)
(2.71051e-14 -5.00256e-15 0 0 -1.05887e-15 0 0 0 0)
(-2.71051e-14 2.16014e-14 0 2.71051e-14 -3.27555e-15 0 0 0 0)
(-1.81604e-12 6.44384e-12 0 3.55076e-12 1.52641e-11 0 0 0 0)
(2.30393e-12 -7.81856e-12 0 -8.94467e-13 -3.36255e-12 0 0 0 0)
(-5.69206e-13 1.71662e-12 0 1.0842e-13 7.55701e-13 0 0 0 0)
(1.35525e-13 -3.89118e-13 0 -5.42101e-14 -1.859e-13 0 0 0 0)
(-5.42101e-14 7.83292e-14 0 0 6.57306e-14 0 0 0 0)
(-8.13152e-14 -2.5915e-14 0 0 3.18645e-14 0 0 0 0)
(-2.71051e-14 1.00761e-14 0 -2.71051e-14 2.42994e-14 0 0 0 0)
(-5.42101e-14 -2.47071e-16 0 0 1.00117e-14 0 0 0 0)
(5.42101e-14 -3.4205e-15 0 0 -3.42705e-15 0 0 0 0)
(0 2.70256e-15 0 -5.42101e-14 1.14837e-14 0 0 0 0)
(0 3.94998e-15 0 0 4.22331e-15 0 0 0 0)
(0 8.83583e-16 0 5.42101e-14 -5.0643e-15 0 0 0 0)
(0 -1.20518e-15 0 -5.42101e-14 3.61757e-15 0 0 0 0)
(-5.42101e-14 -2.51333e-15 0 0 5.07814e-15 0 0 0 0)
(5.42101e-14 -1.20489e-14 0 0 -1.81126e-14 0 0 0 0)
(2.71051e-14 -9.8062e-15 0 2.71051e-14 -2.84945e-14 0 0 0 0)
(5.42101e-14 -1.87003e-15 0 5.42101e-14 -1.98698e-14 0 0 0 0)
(2.71051e-14 -5.00332e-15 0 2.71051e-14 1.76846e-17 0 0 0 0)
(2.71051e-14 8.60911e-16 0 2.71051e-14 1.34698e-14 0 0 0 0)
(-5.42101e-14 1.24443e-14 0 2.71051e-14 8.07473e-15 0 0 0 0)
(2.27682e-12 1.65393e-12 0 -1.89735e-13 -2.04765e-11 0 0 0 0)
(-2.87314e-12 -2.0243e-12 0 0 4.47558e-12 0 0 0 0)
(7.58942e-13 4.39746e-13 0 -2.71051e-14 -1.02625e-12 0 0 0 0)
(-1.35525e-13 -7.55132e-14 0 -2.71051e-14 2.22781e-13 0 0 0 0)
(0 4.72488e-14 0 -5.42101e-14 -5.39329e-14 0 0 0 0)
(0 -8.54002e-15 0 0 1.46025e-14 0 0 0 0)
(0 -1.08778e-14 0 2.71051e-14 4.48711e-15 0 0 0 0)
(2.71051e-14 -1.30654e-14 0 1.0842e-13 5.20777e-15 0 0 0 0)
(-2.71051e-14 6.00175e-15 0 0 7.02032e-15 0 0 0 0)
(0 2.06743e-14 0 5.42101e-14 -6.58496e-15 0 0 0 0)
(0 1.80174e-16 0 8.13152e-14 -1.20633e-14 0 0 0 0)
(0 -1.45033e-14 0 5.42101e-14 -1.25138e-14 0 0 0 0)
(0 -1.63491e-14 0 1.0842e-13 -4.10552e-15 0 0 0 0)
(0 -1.67991e-14 0 1.0842e-13 -1.06702e-14 0 0 0 0)
(2.71051e-14 -7.24315e-15 0 5.42101e-14 -1.78949e-14 0 0 0 0)
(0 3.55443e-15 0 2.71051e-14 8.85058e-17 0 0 0 0)
(-2.71051e-14 5.69909e-15 0 0 1.18018e-14 0 0 0 0)
(-5.42101e-14 7.04938e-15 0 0 1.9712e-14 0 0 0 0)
(0 3.05449e-15 0 -2.71051e-14 1.76586e-14 0 0 0 0)
(0 5.6791e-17 0 -2.71051e-14 9.42139e-15 0 0 0 0)
(-1.95156e-12 -9.55709e-12 0 -2.46656e-12 1.24957e-11 0 0 0 0)
(2.46656e-12 1.16317e-11 0 6.23416e-13 -2.73042e-12 0 0 0 0)
(-5.96311e-13 -2.53619e-12 0 -2.71051e-14 6.59777e-13 0 0 0 0)
(2.71051e-14 5.83195e-13 0 -2.71051e-14 -1.39303e-13 0 0 0 0)
(0 -1.29849e-13 0 0 1.56247e-14 0 0 0 0)
(5.42101e-14 3.2505e-14 0 2.71051e-14 -2.1624e-14 0 0 0 0)
(0 6.81358e-16 0 2.71051e-14 7.27835e-16 0 0 0 0)
(0 2.28614e-15 0 0 -1.47636e-15 0 0 0 0)
(-5.42101e-14 -1.52132e-14 0 5.42101e-14 1.50541e-14 0 0 0 0)
(0 -1.63811e-14 0 5.42101e-14 -1.85097e-14 0 0 0 0)
(5.42101e-14 -1.97884e-15 0 2.71051e-14 -3.18865e-14 0 0 0 0)
(2.71051e-14 8.84141e-15 0 0 -2.045e-14 0 0 0 0)
(2.71051e-14 6.38444e-16 0 0 -6.05272e-15 0 0 0 0)
(0 -1.63027e-14 0 0 3.96143e-17 0 0 0 0)
(-2.71051e-14 -1.29026e-15 0 -5.42101e-14 1.25264e-14 0 0 0 0)
(2.71051e-14 1.98905e-14 0 0 1.62931e-14 0 0 0 0)
(0 1.77535e-14 0 -5.42101e-14 1.50386e-14 0 0 0 0)
(-2.71051e-14 8.53454e-16 0 -2.71051e-14 1.19416e-14 0 0 0 0)
(0 -9.42973e-15 0 0 8.37973e-15 0 0 0 0)
(-2.71051e-14 -1.46357e-14 0 0 4.60179e-15 0 0 0 0)
(4.33681e-13 1.14192e-11 0 3.63208e-12 8.74596e-12 0 0 0 0)
(-4.33681e-13 -1.38602e-11 0 -1.11131e-12 -1.90071e-12 0 0 0 0)
(1.0842e-13 3.03086e-12 0 -5.42101e-14 4.02216e-13 0 0 0 0)
(-5.42101e-14 -7.19665e-13 0 -8.13152e-14 -1.09757e-13 0 0 0 0)
(2.71051e-14 1.64927e-13 0 -5.42101e-14 1.13719e-14 0 0 0 0)
(0 -2.34369e-14 0 -2.71051e-14 -9.40799e-15 0 0 0 0)
(-2.71051e-14 9.26988e-15 0 -5.42101e-14 -7.78331e-15 0 0 0 0)
(2.71051e-14 1.26086e-15 0 -1.0842e-13 -1.72347e-14 0 0 0 0)
(5.42101e-14 -1.10316e-14 0 -2.71051e-14 -9.39484e-15 0 0 0 0)
(0 -2.62663e-14 0 0 1.16295e-14 0 0 0 0)
(-2.71051e-14 -1.76014e-15 0 -2.71051e-14 1.00572e-14 0 0 0 0)
(-5.42101e-14 1.13304e-14 0 -2.71051e-14 9.9975e-15 0 0 0 0)
(0 4.14054e-15 0 -5.42101e-14 2.0384e-15 0 0 0 0)
(-2.71051e-14 1.78011e-15 0 -5.42101e-14 1.33289e-14 0 0 0 0)
(-2.71051e-14 9.01033e-15 0 -5.42101e-14 3.07531e-14 0 0 0 0)
(-5.42101e-14 6.06661e-15 0 -1.0842e-13 1.32908e-14 0 0 0 0)
(0 1.34762e-15 0 -8.13152e-14 -1.34351e-14 0 0 0 0)
(0 3.90485e-16 0 0 -2.71681e-14 0 0 0 0)
(5.42101e-14 -4.28535e-15 0 0 -1.17863e-14 0 0 0 0)
(0 -1.29247e-14 0 -2.71051e-14 -3.09383e-15 0 0 0 0)
(5.42101e-13 -2.71184e-12 0 -2.1684e-12 -2.52398e-11 0 0 0 0)
(-1.21973e-12 3.28796e-12 0 5.69206e-13 5.49873e-12 0 0 0 0)
(4.60786e-13 -7.45231e-13 0 -1.35525e-13 -1.30457e-12 0 0 0 0)
(8.13152e-14 1.92351e-13 0 -2.71051e-14 2.93759e-13 0 0 0 0)
(0 -2.95005e-14 0 -8.13152e-14 -6.44674e-14 0 0 0 0)
(5.42101e-14 1.33498e-14 0 -1.0842e-13 -3.35791e-15 0 0 0 0)
(0 -7.1454e-15 0 -5.42101e-14 -3.05886e-14 0 0 0 0)
(0 6.74608e-16 0 -2.71051e-14 -1.6542e-14 0 0 0 0)
(2.71051e-14 1.3651e-14 0 -8.13152e-14 -2.82067e-14 0 0 0 0)
(0 3.07095e-15 0 -1.0842e-13 6.11516e-16 0 0 0 0)
(-2.71051e-14 -3.61085e-15 0 -8.13152e-14 6.70951e-15 0 0 0 0)
(2.71051e-14 8.22599e-16 0 -1.0842e-13 3.7905e-15 0 0 0 0)
(0 3.96989e-15 0 -8.13152e-14 6.03331e-16 0 0 0 0)
(-2.71051e-14 1.2412e-14 0 -8.13152e-14 7.94833e-15 0 0 0 0)
(0 -1.32838e-15 0 0 -5.48703e-15 0 0 0 0)
(0 -2.42977e-14 0 5.42101e-14 -2.50461e-14 0 0 0 0)
(8.13152e-14 -2.27054e-14 0 8.13152e-14 -2.82475e-14 0 0 0 0)
(0 2.50228e-15 0 0 -1.60902e-14 0 0 0 0)
(2.71051e-14 1.46445e-14 0 0 -3.31943e-15 0 0 0 0)
(-2.71051e-14 2.44412e-16 0 2.71051e-14 2.88214e-15 0 0 0 0)
(-1.16552e-12 -8.32187e-12 0 -8.40257e-13 2.07978e-11 0 0 0 0)
(1.65341e-12 1.0075e-11 0 4.60786e-13 -4.62648e-12 0 0 0 0)
(-5.42101e-13 -2.17411e-12 0 1.89735e-13 1.10495e-12 0 0 0 0)
(0 5.20436e-13 0 1.0842e-13 -2.27311e-13 0 0 0 0)
(-2.71051e-14 -1.32189e-13 0 8.13152e-14 5.89912e-14 0 0 0 0)
(0 1.04419e-14 0 8.13152e-14 -2.42074e-14 0 0 0 0)
(2.71051e-14 -3.9142e-15 0 8.13152e-14 -1.19444e-14 0 0 0 0)
(0 3.64281e-15 0 8.13152e-14 -1.28763e-15 0 0 0 0)
(0 6.12195e-15 0 5.42101e-14 -1.13484e-14 0 0 0 0)
(0 8.6499e-15 0 8.13152e-14 -1.29466e-14 0 0 0 0)
(0 1.41884e-15 0 1.0842e-13 5.49263e-16 0 0 0 0)
(-2.71051e-14 5.22424e-15 0 8.13152e-14 2.22191e-15 0 0 0 0)
(0 8.29838e-15 0 8.13152e-14 -2.55596e-15 0 0 0 0)
(2.71051e-14 -4.31025e-15 0 8.13152e-14 -1.91159e-14 0 0 0 0)
(8.13152e-14 -2.39841e-14 0 8.13152e-14 -3.84495e-14 0 0 0 0)
(2.71051e-14 -1.66938e-14 0 5.42101e-14 -2.59528e-14 0 0 0 0)
(0 1.03035e-14 0 5.42101e-14 -5.9047e-15 0 0 0 0)
(-2.71051e-14 2.53185e-14 0 0 1.71265e-14 0 0 0 0)
(0 1.4687e-14 0 2.71051e-14 1.62161e-14 0 0 0 0)
(-2.71051e-14 -1.24874e-14 0 -2.71051e-14 5.93978e-15 0 0 0 0)
(1.89735e-13 1.34595e-11 0 2.19551e-12 -3.82217e-12 0 0 0 0)
(-2.43945e-13 -1.64049e-11 0 -7.31836e-13 8.87533e-13 0 0 0 0)
(1.0842e-13 3.65394e-12 0 -5.42101e-14 -1.92798e-13 0 0 0 0)
(0 -8.53604e-13 0 0 4.25411e-14 0 0 0 0)
(0 1.73603e-13 0 8.13152e-14 4.86277e-16 0 0 0 0)
(2.71051e-14 -5.75858e-14 0 5.42101e-14 1.78538e-14 0 0 0 0)
(-2.71051e-14 1.57744e-14 0 0 8.82475e-15 0 0 0 0)
(0 1.27052e-15 0 2.71051e-14 3.91273e-15 0 0 0 0)
(0 1.99205e-15 0 2.71051e-14 8.49299e-15 0 0 0 0)
(0 1.49687e-14 0 -2.71051e-14 -2.4974e-15 0 0 0 0)
(0 1.15577e-14 0 -2.71051e-14 -2.66464e-15 0 0 0 0)
(0 -2.28262e-15 0 2.71051e-14 5.09856e-16 0 0 0 0)
(0 -1.7368e-14 0 2.71051e-14 4.86837e-15 0 0 0 0)
(0 -2.34816e-14 0 5.42101e-14 -9.28987e-15 0 0 0 0)
(0 -8.16528e-15 0 0 -9.36143e-15 0 0 0 0)
(-2.71051e-14 8.24712e-15 0 -2.71051e-14 1.18281e-14 0 0 0 0)
(0 2.03739e-14 0 -5.42101e-14 2.0413e-14 0 0 0 0)
(-2.71051e-14 2.46231e-14 0 -5.42101e-14 7.15891e-15 0 0 0 0)
(0 3.4578e-15 0 -2.71051e-14 -5.50933e-15 0 0 0 0)
(0 -2.19115e-14 0 0 -8.5538e-15 0 0 0 0)
(3.52366e-13 -1.12565e-11 0 -5.42101e-13 -1.00016e-11 0 0 0 0)
(-6.23416e-13 1.37044e-11 0 2.98156e-13 2.2403e-12 0 0 0 0)
(1.89735e-13 -3.0191e-12 0 1.0842e-13 -5.34036e-13 0 0 0 0)
(2.71051e-14 7.13721e-13 0 -2.71051e-14 9.94441e-14 0 0 0 0)
(8.13152e-14 -1.56877e-13 0 0 -3.83719e-14 0 0 0 0)
(-2.71051e-14 1.87804e-14 0 0 1.82356e-14 0 0 0 0)
(-5.42101e-14 -1.78553e-14 0 2.71051e-14 5.989e-15 0 0 0 0)
(5.42101e-14 3.31106e-15 0 0 -6.68091e-15 0 0 0 0)
(-5.42101e-14 -2.88172e-16 0 0 7.71916e-15 0 0 0 0)
(0 -2.50773e-15 0 2.71051e-14 -4.77965e-15 0 0 0 0)
(5.42101e-14 4.4261e-15 0 -2.71051e-14 -1.71745e-14 0 0 0 0)
(0 1.27573e-14 0 0 -1.75408e-14 0 0 0 0)
(2.71051e-14 -1.50135e-15 0 2.71051e-14 -1.37468e-15 0 0 0 0)
(2.71051e-14 -1.85401e-14 0 0 5.15327e-15 0 0 0 0)
(-5.42101e-14 -2.86615e-15 0 -2.71051e-14 2.30052e-14 0 0 0 0)
(0 1.30806e-14 0 -2.71051e-14 2.52661e-14 0 0 0 0)
(-5.42101e-14 5.6343e-15 0 0 1.99202e-14 0 0 0 0)
(0 -6.03848e-16 0 0 -1.12021e-14 0 0 0 0)
(5.42101e-14 -1.02567e-15 0 0 -1.7346e-14 0 0 0 0)
(0 1.57568e-15 0 5.42101e-14 -6.88966e-15 0 0 0 0)
(-8.13152e-14 5.69816e-12 0 -5.96311e-13 1.73297e-11 0 0 0 0)
(4.33681e-13 -6.93731e-12 0 5.42101e-14 -3.85605e-12 0 0 0 0)
(-2.43945e-13 1.51309e-12 0 -2.71051e-14 8.97847e-13 0 0 0 0)
(-8.13152e-14 -3.5794e-13 0 0 -2.06236e-13 0 0 0 0)
(2.71051e-14 9.23948e-14 0 -2.71051e-14 2.22261e-14 0 0 0 0)
(2.71051e-14 -1.32249e-14 0 -5.42101e-14 -1.61721e-14 0 0 0 0)
(0 -9.14212e-15 0 0 1.09138e-14 0 0 0 0)
(-2.71051e-14 3.00069e-15 0 -2.71051e-14 3.47831e-15 0 0 0 0)
(0 3.8933e-15 0 0 1.10338e-15 0 0 0 0)
(2.71051e-14 -9.92503e-15 0 0 1.49721e-15 0 0 0 0)
(-2.71051e-14 -1.20344e-15 0 2.71051e-14 3.55784e-15 0 0 0 0)
(0 1.35172e-14 0 -2.71051e-14 -5.15312e-15 0 0 0 0)
(0 5.32606e-15 0 0 -7.80303e-15 0 0 0 0)
(0 8.98291e-16 0 0 2.2214e-15 0 0 0 0)
(-2.71051e-14 1.19476e-14 0 -5.42101e-14 2.12042e-14 0 0 0 0)
(0 5.16217e-15 0 -5.42101e-14 1.29167e-14 0 0 0 0)
(0 -1.60943e-14 0 0 -4.37622e-15 0 0 0 0)
(0 -1.26431e-14 0 5.42101e-14 -5.71592e-15 0 0 0 0)
(0 7.77023e-15 0 -5.42101e-14 -1.8037e-15 0 0 0 0)
(-2.71051e-14 2.32414e-15 0 -5.42101e-14 3.77403e-15 0 0 0 0)
(-1.89735e-13 2.21712e-12 0 1.00289e-12 -1.88384e-11 0 0 0 0)
(-2.71051e-14 -2.72744e-12 0 -2.71051e-13 4.14219e-12 0 0 0 0)
(1.35525e-13 6.30709e-13 0 0 -9.64281e-13 0 0 0 0)
(8.13152e-14 -1.619e-13 0 0 2.33884e-13 0 0 0 0)
(-5.42101e-14 3.31874e-14 0 2.71051e-14 -3.76326e-14 0 0 0 0)
(5.42101e-14 7.46808e-15 0 0 7.51127e-15 0 0 0 0)
(0 1.79509e-15 0 0 9.42803e-15 0 0 0 0)
(-5.42101e-14 -6.4994e-15 0 2.71051e-14 1.26488e-14 0 0 0 0)
(5.42101e-14 -2.26928e-15 0 0 -8.74165e-15 0 0 0 0)
(-5.42101e-14 -5.32718e-17 0 0 -4.50199e-15 0 0 0 0)
(0 -2.22423e-15 0 0 3.44736e-15 0 0 0 0)
(5.42101e-14 1.39639e-15 0 0 -1.37089e-14 0 0 0 0)
(0 5.87318e-15 0 -2.71051e-14 -1.53186e-14 0 0 0 0)
(0 1.04671e-14 0 0 1.26587e-14 0 0 0 0)
(-8.13152e-14 7.82919e-15 0 5.42101e-14 1.90997e-14 0 0 0 0)
(2.71051e-14 -1.24997e-14 0 0 -1.11586e-15 0 0 0 0)
(0 -1.29984e-14 0 2.71051e-14 -1.6962e-14 0 0 0 0)
(-2.71051e-14 1.96867e-15 0 0 3.41866e-15 0 0 0 0)
(2.71051e-14 8.46427e-15 0 0 -4.17203e-15 0 0 0 0)
(5.42101e-14 -3.94639e-16 0 0 -8.70618e-15 0 0 0 0)
(6.77626e-13 -8.99803e-12 0 -1.81604e-12 1.14535e-11 0 0 0 0)
(-5.69206e-13 1.09368e-11 0 5.42101e-13 -2.47677e-12 0 0 0 0)
(2.71051e-14 -2.39522e-12 0 -8.13152e-14 5.50924e-13 0 0 0 0)
(-8.13152e-14 5.68708e-13 0 0 -1.39598e-13 0 0 0 0)
(2.71051e-14 -1.33978e-13 0 -2.71051e-14 2.68382e-14 0 0 0 0)
(0 3.38357e-14 0 0 -1.0537e-14 0 0 0 0)
(2.71051e-14 -4.00454e-15 0 -2.71051e-14 3.7714e-15 0 0 0 0)
(-2.71051e-14 -1.5169e-14 0 0 7.81411e-15 0 0 0 0)
(0 -1.32575e-14 0 -2.71051e-14 6.97547e-15 0 0 0 0)
(0 2.26398e-15 0 -2.71051e-14 1.60272e-14 0 0 0 0)
(-2.71051e-14 -1.04103e-14 0 -2.71051e-14 1.6417e-14 0 0 0 0)
(0 -5.24878e-15 0 -5.42101e-14 7.2672e-15 0 0 0 0)
(0 3.16937e-14 0 -8.13152e-14 -5.971e-15 0 0 0 0)
(0 3.53166e-14 0 -1.0842e-13 -2.25722e-15 0 0 0 0)
(-2.71051e-14 -1.82703e-15 0 -5.42101e-14 -2.99303e-15 0 0 0 0)
(2.71051e-14 -3.08995e-14 0 5.42101e-14 -5.09261e-15 0 0 0 0)
(0 -1.15597e-14 0 2.71051e-14 1.35123e-14 0 0 0 0)
(-2.71051e-14 1.46868e-16 0 -5.42101e-14 1.15108e-14 0 0 0 0)
(0 -4.35461e-15 0 5.42101e-14 -7.56898e-15 0 0 0 0)
(-2.71051e-14 1.52024e-14 0 2.71051e-14 -1.19526e-14 0 0 0 0)
(-1.46367e-12 1.11939e-11 0 1.70762e-12 3.88676e-12 0 0 0 0)
(1.65341e-12 -1.363e-11 0 -6.23416e-13 -8.99293e-13 0 0 0 0)
(-4.06576e-13 2.96788e-12 0 -1.35525e-13 1.94034e-13 0 0 0 0)
(1.6263e-13 -6.85986e-13 0 -8.13152e-14 -8.42404e-14 0 0 0 0)
(-2.71051e-14 1.62248e-13 0 -5.42101e-14 -8.55172e-15 0 0 0 0)
(2.71051e-14 -1.55987e-14 0 -8.13152e-14 -1.13242e-14 0 0 0 0)
(0 2.01462e-14 0 -1.0842e-13 -9.08299e-16 0 0 0 0)
(0 -3.29533e-15 0 -1.0842e-13 1.46074e-14 0 0 0 0)
(0 5.94386e-15 0 -8.13152e-14 2.71015e-14 0 0 0 0)
(-2.71051e-14 9.38826e-15 0 -8.13152e-14 2.31626e-14 0 0 0 0)
(0 -1.09843e-14 0 -8.13152e-14 8.94082e-15 0 0 0 0)
(-5.42101e-14 -2.09916e-14 0 -2.71051e-14 1.92151e-14 0 0 0 0)
(0 -3.65124e-15 0 -2.71051e-14 -1.99534e-15 0 0 0 0)
(0 1.34451e-14 0 -2.71051e-14 -2.80456e-14 0 0 0 0)
(5.42101e-14 4.99379e-15 0 -2.71051e-14 -4.83191e-14 0 0 0 0)
(8.13152e-14 4.00559e-15 0 0 -2.53985e-14 0 0 0 0)
(-5.42101e-14 3.60502e-15 0 -5.42101e-14 3.81191e-15 0 0 0 0)
(0 -1.91126e-14 0 0 -1.62234e-15 0 0 0 0)
(5.42101e-14 -1.49991e-14 0 2.71051e-14 -7.50927e-16 0 0 0 0)
(0 1.91269e-14 0 -2.71051e-14 1.5015e-16 0 0 0 0)
(1.76183e-12 -6.01056e-12 0 -4.87891e-13 -1.86383e-11 0 0 0 0)
(-2.38524e-12 7.24406e-12 0 2.71051e-13 4.05237e-12 0 0 0 0)
(5.69206e-13 -1.58016e-12 0 2.1684e-13 -9.29011e-13 0 0 0 0)
(-2.71051e-14 3.66122e-13 0 2.71051e-14 2.15413e-13 0 0 0 0)
(0 -6.1062e-14 0 5.42101e-14 -3.47751e-14 0 0 0 0)
(0 4.14792e-14 0 0 1.43395e-14 0 0 0 0)
(0 2.19271e-14 0 0 -1.19744e-14 0 0 0 0)
(0 1.28408e-14 0 0 -6.24399e-15 0 0 0 0)
(0 -4.70233e-15 0 8.13152e-14 -5.78289e-15 0 0 0 0)
(0 -1.58967e-14 0 8.13152e-14 -1.79809e-14 0 0 0 0)
(0 -1.43578e-14 0 8.13152e-14 -2.15759e-14 0 0 0 0)
(0 -1.61849e-14 0 1.0842e-13 -6.53288e-15 0 0 0 0)
(2.71051e-14 -1.5567e-14 0 8.13152e-14 1.45087e-15 0 0 0 0)
(-2.71051e-14 -1.10071e-14 0 8.13152e-14 -6.18365e-15 0 0 0 0)
(8.13152e-14 8.20023e-16 0 8.13152e-14 -2.28856e-14 0 0 0 0)
(0 2.12315e-14 0 0 -2.10867e-14 0 0 0 0)
(2.71051e-14 1.22164e-14 0 2.71051e-14 -2.22285e-14 0 0 0 0)
(0 -4.41597e-15 0 8.13152e-14 -2.89198e-15 0 0 0 0)
(-2.71051e-14 -2.58212e-15 0 -2.71051e-14 1.48618e-14 0 0 0 0)
(0 1.58031e-14 0 2.71051e-14 6.80737e-15 0 0 0 0)
(-1.68051e-12 -3.3921e-12 0 -2.49366e-12 1.99376e-11 0 0 0 0)
(2.33103e-12 4.0793e-12 0 7.04731e-13 -4.31045e-12 0 0 0 0)
(-6.23416e-13 -8.69076e-13 0 0 1.03204e-12 0 0 0 0)
(2.71051e-14 2.0825e-13 0 1.35525e-13 -1.85325e-13 0 0 0 0)
(-5.42101e-14 -3.88258e-14 0 5.42101e-14 7.69847e-14 0 0 0 0)
(-5.42101e-14 7.20202e-15 0 8.13152e-14 1.51395e-15 0 0 0 0)
(0 -4.37346e-16 0 1.0842e-13 -1.58507e-14 0 0 0 0)
(8.13152e-14 2.89618e-15 0 1.0842e-13 -2.64686e-14 0 0 0 0)
(5.42101e-14 -5.79302e-15 0 5.42101e-14 -2.50609e-14 0 0 0 0)
(0 -6.40473e-15 0 5.42101e-14 -1.97865e-14 0 0 0 0)
(2.71051e-14 4.63714e-16 0 5.42101e-14 -6.50244e-15 0 0 0 0)
(0 2.03514e-15 0 5.42101e-14 1.0007e-14 0 0 0 0)
(-5.42101e-14 -3.30201e-15 0 2.71051e-14 2.14732e-14 0 0 0 0)
(0 -1.08914e-14 0 2.71051e-14 1.53744e-14 0 0 0 0)
(-5.42101e-14 -9.90931e-15 0 2.71051e-14 9.05917e-15 0 0 0 0)
(2.71051e-14 4.66269e-15 0 0 -1.58545e-15 0 0 0 0)
(2.71051e-14 2.17998e-14 0 -2.71051e-14 3.00663e-15 0 0 0 0)
(-5.42101e-14 1.79778e-14 0 0 1.53084e-14 0 0 0 0)
(2.71051e-14 -5.29973e-15 0 0 1.28189e-14 0 0 0 0)
(-2.71051e-14 -2.54229e-15 0 0 1.05822e-14 0 0 0 0)
(-5.42101e-14 9.61664e-12 0 5.20417e-12 2.98472e-13 0 0 0 0)
(1.35525e-13 -1.16616e-11 0 -1.40946e-12 -7.60299e-14 0 0 0 0)
(-2.71051e-14 2.54496e-12 0 2.71051e-14 1.42561e-14 0 0 0 0)
(2.71051e-14 -5.88936e-13 0 -8.13152e-14 8.17224e-15 0 0 0 0)
(0 1.25777e-13 0 -5.42101e-14 1.49232e-14 0 0 0 0)
(-2.71051e-14 -5.13562e-14 0 0 4.8682e-15 0 0 0 0)
(2.71051e-14 -6.05548e-15 0 0 -3.90952e-15 0 0 0 0)
(-2.71051e-14 3.63059e-15 0 -2.71051e-14 -7.26771e-15 0 0 0 0)
(-2.71051e-14 1.97978e-15 0 -1.0842e-13 1.63387e-15 0 0 0 0)
(0 2.66176e-15 0 -5.42101e-14 2.01847e-15 0 0 0 0)
(0 1.54357e-14 0 -1.0842e-13 3.58853e-16 0 0 0 0)
(-2.71051e-14 1.17908e-14 0 -5.42101e-14 7.49344e-15 0 0 0 0)
(0 -1.01996e-14 0 -8.13152e-14 9.00915e-15 0 0 0 0)
(0 -2.34212e-14 0 -2.71051e-14 5.48492e-16 0 0 0 0)
(2.71051e-14 -1.61398e-14 0 0 -6.25629e-16 0 0 0 0)
(-2.71051e-14 1.5179e-14 0 -5.42101e-14 8.88962e-15 0 0 0 0)
(-5.42101e-14 2.91102e-14 0 -5.42101e-14 7.07858e-15 0 0 0 0)
(5.42101e-14 5.39626e-15 0 -8.13152e-14 -1.0975e-14 0 0 0 0)
(2.71051e-14 -7.30823e-15 0 0 -1.37447e-14 0 0 0 0)
(-2.71051e-14 -7.59798e-15 0 -2.71051e-14 3.50173e-15 0 0 0 0)
(2.11419e-12 -3.16966e-12 0 -1.0842e-12 -2.19523e-11 0 0 0 0)
(-2.81893e-12 3.79508e-12 0 3.52366e-13 4.72091e-12 0 0 0 0)
(7.04731e-13 -7.84873e-13 0 5.42101e-14 -1.12345e-12 0 0 0 0)
(-8.13152e-14 2.08917e-13 0 2.71051e-14 2.36599e-13 0 0 0 0)
(0 -4.21298e-14 0 5.42101e-14 -5.57151e-14 0 0 0 0)
(0 -1.16307e-14 0 5.42101e-14 9.07716e-15 0 0 0 0)
(0 -1.25733e-14 0 2.71051e-14 3.74353e-15 0 0 0 0)
(0 8.43956e-15 0 2.71051e-14 -3.27102e-15 0 0 0 0)
(2.71051e-14 3.49317e-15 0 8.13152e-14 2.50894e-15 0 0 0 0)
(0 -7.67975e-15 0 5.42101e-14 9.38318e-15 0 0 0 0)
(0 5.93867e-15 0 8.13152e-14 4.52496e-15 0 0 0 0)
(5.42101e-14 1.06854e-14 0 2.71051e-14 -8.82989e-15 0 0 0 0)
(-5.42101e-14 -1.0247e-14 0 1.0842e-13 -1.02194e-14 0 0 0 0)
(5.42101e-14 -2.05262e-14 0 2.71051e-14 -9.77697e-15 0 0 0 0)
(0 -1.56818e-15 0 2.71051e-14 6.11162e-15 0 0 0 0)
(-5.42101e-14 1.23669e-14 0 8.13152e-14 1.47032e-14 0 0 0 0)
(0 1.93519e-15 0 5.42101e-14 -4.39317e-15 0 0 0 0)
(5.42101e-14 -2.84548e-15 0 5.42101e-14 -1.88513e-14 0 0 0 0)
(0 9.17697e-15 0 2.71051e-14 -1.11746e-14 0 0 0 0)
(0 7.70067e-15 0 2.71051e-14 -6.24355e-15 0 0 0 0)
(-7.86047e-13 -7.61479e-12 0 -1.68051e-12 1.3663e-11 0 0 0 0)
(1.24683e-12 9.16734e-12 0 3.52366e-13 -2.87853e-12 0 0 0 0)
(-3.25261e-13 -1.93934e-12 0 -1.0842e-13 7.00562e-13 0 0 0 0)
(2.71051e-14 4.78801e-13 0 -2.71051e-14 -1.54308e-13 0 0 0 0)
(0 -1.01744e-13 0 -5.42101e-14 1.28434e-14 0 0 0 0)
(0 8.10242e-15 0 -5.42101e-14 -1.04339e-14 0 0 0 0)
(-2.71051e-14 -1.84037e-14 0 -5.42101e-14 1.63716e-14 0 0 0 0)
(-2.71051e-14 2.396e-15 0 -2.71051e-14 2.0543e-14 0 0 0 0)
(0 1.4634e-14 0 -2.71051e-14 5.53607e-15 0 0 0 0)
(0 4.67779e-15 0 -5.42101e-14 2.41583e-15 0 0 0 0)
(-2.71051e-14 -2.7774e-15 0 -2.71051e-14 8.53803e-15 0 0 0 0)
(2.71051e-14 -2.95358e-15 0 -5.42101e-14 -7.4544e-16 0 0 0 0)
(0 -1.11467e-14 0 -5.42101e-14 8.06174e-16 0 0 0 0)
(-2.71051e-14 -7.09023e-15 0 -2.71051e-14 2.06482e-14 0 0 0 0)
(-2.71051e-14 8.34035e-15 0 -5.42101e-14 2.84226e-14 0 0 0 0)
(0 4.67417e-15 0 -2.71051e-14 1.38761e-14 0 0 0 0)
(-5.42101e-14 -4.44431e-15 0 0 1.13815e-14 0 0 0 0)
(2.71051e-14 -1.38522e-15 0 0 1.63852e-14 0 0 0 0)
(0 5.29956e-15 0 -2.71051e-14 1.56122e-14 0 0 0 0)
(-2.71051e-14 9.82022e-15 0 -2.71051e-14 1.90866e-15 0 0 0 0)
)
;

boundaryField
{
    movingWall
    {
        type            extrapolatedCalculated;
        value           nonuniform List<tensor> 
20
(
(-7.86047e-13 -7.61479e-12 0 4.79616e-12 3.86461e-11 0 0 0 0)
(1.24683e-12 9.16734e-12 0 -1.64313e-12 -8.18694e-12 0 0 0 0)
(-3.25261e-13 -1.93934e-12 0 -2.22045e-13 1.97676e-12 0 0 0 0)
(2.71051e-14 4.78801e-13 0 -3.10862e-13 -4.29563e-13 0 0 0 0)
(0 -1.01744e-13 0 -3.10862e-13 6.15586e-14 0 0 0 0)
(0 8.10242e-15 0 -3.10862e-13 -2.25852e-14 0 0 0 0)
(-2.71051e-14 -1.84037e-14 0 -3.55271e-13 2.91489e-14 0 0 0 0)
(-2.71051e-14 2.396e-15 0 -2.22045e-13 5.10295e-14 0 0 0 0)
(0 1.4634e-14 0 -2.22045e-13 1.95649e-14 0 0 0 0)
(0 4.67779e-15 0 -2.22045e-13 -7.50648e-15 0 0 0 0)
(-2.71051e-14 -2.7774e-15 0 -2.22045e-13 8.53787e-16 0 0 0 0)
(2.71051e-14 -2.95358e-15 0 -1.77636e-13 3.60313e-15 0 0 0 0)
(0 -1.11467e-14 0 -2.66454e-13 1.26681e-14 0 0 0 0)
(-2.71051e-14 -7.09023e-15 0 -1.77636e-13 4.819e-14 0 0 0 0)
(-2.71051e-14 8.34035e-15 0 -1.33227e-13 4.1029e-14 0 0 0 0)
(0 4.67417e-15 0 -1.33227e-13 1.48286e-14 0 0 0 0)
(-5.42101e-14 -4.44431e-15 0 -4.44089e-14 2.23324e-14 0 0 0 0)
(2.71051e-14 -1.38522e-15 0 0 3.26059e-14 0 0 0 0)
(0 5.29956e-15 0 -4.44089e-14 2.78733e-14 0 0 0 0)
(-2.71051e-14 9.82022e-15 0 -4.44089e-14 1.14076e-14 0 0 0 0)
)
;
    }
    fixedWalls
    {
        type            extrapolatedCalculated;
        value           nonuniform List<tensor> 
60
(
(-5.50671e-12 5.78359e-11 0 1.89735e-12 1.61151e-11 0 0 0 0)
(1.30562e-11 6.62449e-12 0 8.40257e-13 -2.76016e-11 0 0 0 0)
(-2.13163e-12 -5.25706e-11 0 -5.66496e-12 6.58302e-12 0 0 0 0)
(-9.50351e-12 3.29566e-11 0 3.55076e-12 1.52641e-11 0 0 0 0)
(1.20348e-11 8.48603e-12 0 -1.89735e-13 -2.04765e-11 0 0 0 0)
(-1.02141e-11 -4.89495e-11 0 -2.46656e-12 1.24957e-11 0 0 0 0)
(2.08722e-12 5.84687e-11 0 3.63208e-12 8.74596e-12 0 0 0 0)
(4.26326e-12 -1.39656e-11 0 -2.1684e-12 -2.52398e-11 0 0 0 0)
(-6.57252e-12 -4.24904e-11 0 -8.40257e-13 2.07978e-11 0 0 0 0)
(9.32587e-13 6.92257e-11 0 2.19551e-12 -3.82217e-12 0 0 0 0)
(2.26485e-12 -5.77791e-11 0 -5.42101e-13 -1.00016e-11 0 0 0 0)
(-1.33227e-12 2.92191e-11 0 -5.96311e-13 1.73297e-11 0 0 0 0)
(-1.77636e-13 1.15396e-11 0 1.00289e-12 -1.88384e-11 0 0 0 0)
(2.70894e-12 -4.61344e-11 0 -1.81604e-12 1.14535e-11 0 0 0 0)
(-7.37188e-12 5.73536e-11 0 1.70762e-12 3.88676e-12 0 0 0 0)
(9.59233e-12 -3.05873e-11 0 -4.87891e-13 -1.86383e-11 0 0 0 0)
(-9.32587e-12 -1.71997e-11 0 -2.49366e-12 1.99376e-11 0 0 0 0)
(-4.44089e-13 4.91633e-11 0 5.20417e-12 2.98472e-13 0 0 0 0)
(1.15463e-11 -1.60058e-11 0 -1.0842e-12 -2.19523e-11 0 0 0 0)
(-4.79616e-12 -3.86461e-11 0 -1.68051e-12 1.3663e-11 0 0 0 0)
(0 -1.86186e-14 0 0 3.91794e-15 0 0 0 0)
(8.88178e-14 2.94681e-15 0 0 -1.28468e-14 0 0 0 0)
(-4.44089e-14 3.27686e-14 0 2.71051e-14 -3.27555e-15 0 0 0 0)
(-8.88178e-14 1.6049e-14 0 2.71051e-14 8.07473e-15 0 0 0 0)
(-4.44089e-14 4.69679e-16 0 -2.71051e-14 9.42139e-15 0 0 0 0)
(-4.44089e-14 -2.16366e-14 0 0 4.60179e-15 0 0 0 0)
(0 -1.79375e-14 0 -2.71051e-14 -3.09383e-15 0 0 0 0)
(-4.44089e-14 -9.26124e-15 0 2.71051e-14 2.88214e-15 0 0 0 0)
(0 -2.9466e-14 0 -2.71051e-14 5.93978e-15 0 0 0 0)
(0 -3.30204e-14 0 0 -8.5538e-15 0 0 0 0)
(-4.44089e-14 4.74917e-15 0 5.42101e-14 -6.88966e-15 0 0 0 0)
(-8.88178e-14 -5.46173e-15 0 -5.42101e-14 3.77403e-15 0 0 0 0)
(8.88178e-14 -1.03469e-14 0 0 -8.70618e-15 0 0 0 0)
(-4.44089e-14 2.9363e-14 0 2.71051e-14 -1.19526e-14 0 0 0 0)
(0 3.74634e-14 0 -2.71051e-14 1.5015e-16 0 0 0 0)
(0 2.87624e-14 0 2.71051e-14 6.80737e-15 0 0 0 0)
(-4.44089e-14 1.02339e-14 0 0 1.05822e-14 0 0 0 0)
(-4.44089e-14 -1.35666e-14 0 -2.71051e-14 3.50173e-15 0 0 0 0)
(0 -3.77299e-15 0 2.71051e-14 -6.24355e-15 0 0 0 0)
(-4.44089e-14 1.14076e-14 0 -2.71051e-14 1.90866e-15 0 0 0 0)
(-8.40257e-13 1.1356e-11 0 -5.50671e-12 5.78359e-11 0 0 0 0)
(1.43657e-12 -1.36985e-11 0 2.13163e-12 -1.24118e-11 0 0 0 0)
(-4.60786e-13 2.95291e-12 0 2.22045e-13 3.04182e-12 0 0 0 0)
(0 -7.17854e-13 0 2.66454e-13 -6.00179e-13 0 0 0 0)
(-2.71051e-14 1.52247e-13 0 2.22045e-13 1.70407e-13 0 0 0 0)
(2.71051e-14 -3.1269e-14 0 2.22045e-13 8.81056e-15 0 0 0 0)
(-2.71051e-14 5.31628e-15 0 2.66454e-13 4.53306e-14 0 0 0 0)
(-2.71051e-14 -5.82222e-15 0 1.77636e-13 3.00757e-14 0 0 0 0)
(0 -8.28974e-15 0 1.77636e-13 2.20418e-14 0 0 0 0)
(0 -1.29675e-14 0 2.22045e-13 -3.08331e-15 0 0 0 0)
(-2.71051e-14 -4.90559e-15 0 1.33227e-13 -2.98284e-14 0 0 0 0)
(2.71051e-14 1.67512e-14 0 1.77636e-13 -2.27057e-14 0 0 0 0)
(0 2.93497e-14 0 2.22045e-13 3.71762e-14 0 0 0 0)
(-2.71051e-14 1.43906e-14 0 1.77636e-13 9.46932e-14 0 0 0 0)
(-5.42101e-14 -1.45656e-14 0 0 9.47388e-14 0 0 0 0)
(-5.42101e-14 -2.79523e-14 0 -8.88178e-14 3.64307e-14 0 0 0 0)
(0 -2.07071e-14 0 -1.77636e-13 -1.70705e-14 0 0 0 0)
(5.42101e-14 1.60245e-15 0 0 -4.63976e-14 0 0 0 0)
(0 1.6254e-14 0 4.44089e-14 -1.06607e-14 0 0 0 0)
(0 -1.98947e-15 0 0 1.86186e-14 0 0 0 0)
)
;
    }
    frontAndBack
    {
        type            empty;
    }
}


// ************************************************************************* //
