/*--------------------------------*- C++ -*----------------------------------*\
| =========                 |                                                 |
| \\      /  F ield         | OpenFOAM: The Open Source CFD Toolbox           |
|  \\    /   O peration     | Version:  2312                                  |
|   \\  /    A nd           | Website:  www.openfoam.com                      |
|    \\/     M anipulation  |                                                 |
\*---------------------------------------------------------------------------*/
FoamFile
{
    version     2.0;
    format      ascii;
    arch        "LSB;label=32;scalar=64";
    class       volVectorField;
    location    "9.5";
    object      gradPhi;
}
// * * * * * * * * * * * * * * * * * * * * * * * * * * * * * * * * * * * * * //

dimensions      [0 2 -1 0 0 0 0];

internalField   nonuniform List<vector> 
400
(
(-0.02 1.03242e-16 0)
(1.38966e-16 -1.38414e-16 0)
(-4.46678e-17 4.39072e-17 0)
(6.61744e-18 -5.99562e-18 0)
(-1.65436e-18 1.41985e-18 0)
(0 3.79817e-20 0)
(0 7.43842e-19 0)
(-1.65436e-18 7.39331e-19 0)
(0 6.22389e-19 0)
(0 -2.96633e-19 0)
(0 -1.78999e-19 0)
(0 -2.39013e-19 0)
(0 3.18362e-19 0)
(-1.65436e-18 1.6749e-18 0)
(-1.65436e-18 2.74706e-18 0)
(-3.30872e-18 1.89357e-18 0)
(0 -1.85074e-19 0)
(3.30872e-18 -1.85554e-18 0)
(0 -1.15548e-18 0)
(0 9.37067e-19 0)
(-0.02 -1.77845e-16 0)
(-2.41537e-16 2.41499e-16 0)
(6.94832e-17 -7.03856e-17 0)
(-1.15805e-17 1.12992e-17 0)
(4.96308e-18 -3.65459e-18 0)
(0 -6.94568e-19 0)
(0 -7.87303e-19 0)
(0 -1.24447e-18 0)
(1.65436e-18 -1.20567e-18 0)
(0 -1.27672e-19 0)
(-1.65436e-18 1.09356e-18 0)
(0 1.78017e-18 0)
(-1.65436e-18 3.86729e-19 0)
(1.65436e-18 -1.67494e-18 0)
(1.65436e-18 -2.34783e-18 0)
(0 -2.13737e-19 0)
(0 5.05245e-19 0)
(-1.65436e-18 1.21198e-18 0)
(0 7.04572e-19 0)
(1.65436e-18 -2.12162e-18 0)
(-0.02 2.88568e-17 0)
(4.79765e-17 -4.78847e-17 0)
(-1.48893e-17 1.31807e-17 0)
(0 -8.61379e-19 0)
(0 2.36e-18 0)
(0 -8.70306e-20 0)
(0 -8.8548e-19 0)
(0 3.31954e-19 0)
(-1.65436e-18 1.62506e-18 0)
(-1.65436e-18 1.58857e-18 0)
(0 1.67737e-19 0)
(0 -3.68041e-19 0)
(1.65436e-18 -3.30399e-19 0)
(0 -6.06239e-20 0)
(-1.65436e-18 8.64506e-19 0)
(0 -8.86717e-19 0)
(-1.65436e-18 1.04772e-18 0)
(-1.65436e-18 8.68276e-19 0)
(1.65436e-18 -9.32651e-19 0)
(0 6.38384e-19 0)
(-0.02 1.15526e-16 0)
(1.50547e-16 -1.4937e-16 0)
(-4.1359e-17 3.98831e-17 0)
(9.92617e-18 -8.48236e-18 0)
(-3.30872e-18 1.90097e-18 0)
(-3.30872e-18 2.02021e-18 0)
(-1.65436e-18 2.24949e-18 0)
(-1.65436e-18 1.75733e-18 0)
(1.65436e-18 -1.33905e-18 0)
(1.65436e-18 -7.29573e-19 0)
(0 3.31079e-19 0)
(-1.65436e-18 4.4103e-19 0)
(0 4.56145e-19 0)
(-1.65436e-18 5.63306e-19 0)
(1.65436e-18 -1.65768e-18 0)
(1.65436e-18 -1.36528e-18 0)
(1.65436e-18 -2.82962e-18 0)
(1.65436e-18 -1.07881e-18 0)
(-1.65436e-18 1.09514e-18 0)
(0 2.55682e-19 0)
(-0.02 -1.49116e-16 0)
(-1.91906e-16 1.91659e-16 0)
(5.29396e-17 -5.2753e-17 0)
(-8.27181e-18 8.04228e-18 0)
(1.65436e-18 -2.10687e-18 0)
(0 3.04178e-19 0)
(0 6.17061e-21 0)
(-1.65436e-18 3.86404e-20 0)
(0 8.35342e-19 0)
(-1.65436e-18 3.12233e-19 0)
(1.65436e-18 -2.44304e-20 0)
(0 -8.08417e-19 0)
(0 2.57088e-21 0)
(1.65436e-18 -4.1806e-19 0)
(0 -7.996e-19 0)
(1.65436e-18 2.2301e-20 0)
(-3.30872e-18 2.12254e-18 0)
(-1.65436e-18 1.36318e-18 0)
(-1.65436e-18 6.35293e-19 0)
(0 4.82616e-19 0)
(-0.02 1.11585e-16 0)
(1.38966e-16 -1.39505e-16 0)
(-3.47416e-17 3.51887e-17 0)
(4.96308e-18 -4.77873e-18 0)
(-1.65436e-18 1.61974e-18 0)
(1.65436e-18 -1.29581e-18 0)
(0 -8.15862e-19 0)
(1.65436e-18 -1.20248e-18 0)
(-1.65436e-18 1.49827e-18 0)
(0 -5.61332e-19 0)
(1.65436e-18 -2.37927e-18 0)
(1.65436e-18 -1.49635e-18 0)
(1.65436e-18 -7.90663e-19 0)
(0 -3.78189e-19 0)
(-1.65436e-18 3.48777e-19 0)
(1.65436e-18 1.11347e-19 0)
(0 -6.43126e-19 0)
(-1.65436e-18 1.04676e-18 0)
(-1.65436e-18 9.0858e-19 0)
(0 8.46461e-19 0)
(-0.02 1.62172e-17 0)
(3.30872e-17 -3.23676e-17 0)
(-1.65436e-17 1.73087e-17 0)
(1.65436e-18 -4.16149e-18 0)
(3.30872e-18 -1.30026e-18 0)
(-1.65436e-18 3.84077e-19 0)
(0 1.07424e-18 0)
(0 -3.59019e-19 0)
(1.65436e-18 -1.22324e-18 0)
(0 4.44438e-20 0)
(0 7.20545e-19 0)
(-1.65436e-18 8.25059e-19 0)
(-1.65436e-18 4.47911e-19 0)
(0 6.85569e-19 0)
(-1.65436e-18 2.20977e-18 0)
(-3.30872e-18 1.85706e-18 0)
(-1.65436e-18 1.15067e-18 0)
(3.30872e-18 -1.8186e-18 0)
(0 -1.1738e-18 0)
(1.65436e-18 -1.04054e-18 0)
(-0.02 -1.14834e-16 0)
(-1.77017e-16 1.76738e-16 0)
(6.45201e-17 -6.31648e-17 0)
(-1.32349e-17 1.07513e-17 0)
(1.65436e-18 -1.49138e-18 0)
(1.65436e-18 -1.25733e-18 0)
(3.30872e-18 -2.49274e-18 0)
(0 -1.79523e-19 0)
(0 -1.83115e-18 0)
(0 3.71405e-20 0)
(0 1.1875e-19 0)
(0 3.56867e-20 0)
(0 -3.65278e-19 0)
(0 6.66623e-19 0)
(0 -7.03008e-21 0)
(0 -1.45021e-18 0)
(3.30872e-18 -3.03913e-18 0)
(0 -9.1512e-19 0)
(0 -1.56301e-19 0)
(0 3.35684e-19 0)
(-0.02 1.07646e-16 0)
(1.50547e-16 -1.51127e-16 0)
(-5.29396e-17 5.41332e-17 0)
(8.27181e-18 -8.07283e-18 0)
(-1.65436e-18 1.90622e-18 0)
(0 -3.99166e-19 0)
(0 -4.7462e-19 0)
(1.65436e-18 -7.75428e-19 0)
(0 3.0994e-19 0)
(0 -4.61667e-19 0)
(-1.65436e-18 3.03294e-19 0)
(0 5.09201e-19 0)
(0 2.84281e-19 0)
(1.65436e-18 -1.3453e-18 0)
(3.30872e-18 -3.2166e-18 0)
(1.65436e-18 -2.07382e-18 0)
(0 4.86527e-19 0)
(-1.65436e-18 9.13856e-19 0)
(-1.65436e-18 1.0835e-18 0)
(0 7.13118e-19 0)
(-0.02 -1.82122e-17 0)
(-2.31611e-17 2.19308e-17 0)
(9.92617e-18 -9.50366e-18 0)
(-3.30872e-18 1.84045e-18 0)
(0 7.35834e-19 0)
(0 5.23521e-19 0)
(1.65436e-18 -1.07526e-19 0)
(0 4.05004e-19 0)
(0 -4.01281e-19 0)
(0 -2.83334e-19 0)
(0 1.33649e-19 0)
(-1.65436e-18 -5.54124e-20 0)
(0 2.66054e-19 0)
(0 1.44805e-19 0)
(0 4.62507e-19 0)
(0 1.12411e-18 0)
(0 3.94152e-19 0)
(-1.65436e-18 5.98092e-19 0)
(0 9.31605e-21 0)
(0 -2.6464e-19 0)
(-0.02 -4.37445e-17 0)
(-6.78288e-17 6.88876e-17 0)
(2.31611e-17 -2.50765e-17 0)
(0 1.63591e-18 0)
(3.30872e-18 -1.86767e-18 0)
(-1.65436e-18 1.09848e-18 0)
(-1.65436e-18 1.52416e-18 0)
(0 -3.20507e-19 0)
(-1.65436e-18 1.27952e-18 0)
(0 7.69763e-20 0)
(3.30872e-18 -1.41143e-18 0)
(0 -1.59262e-18 0)
(1.65436e-18 -5.82633e-19 0)
(1.65436e-18 -3.945e-19 0)
(-1.65436e-18 8.14396e-19 0)
(-1.65436e-18 1.14242e-18 0)
(-3.30872e-18 1.98901e-18 0)
(0 -3.75808e-19 0)
(1.65436e-18 -1.68548e-18 0)
(1.65436e-18 -1.89108e-18 0)
(-0.02 6.13385e-17 0)
(1.0257e-16 -1.0113e-16 0)
(-4.30134e-17 4.17557e-17 0)
(4.96308e-18 -4.46315e-18 0)
(0 -5.11878e-19 0)
(0 -8.07238e-19 0)
(1.65436e-18 -4.0237e-19 0)
(-1.65436e-18 1.79742e-19 0)
(1.65436e-18 -3.38282e-19 0)
(0 -3.69765e-19 0)
(0 9.98281e-20 0)
(0 3.97952e-19 0)
(-1.65436e-18 1.58324e-19 0)
(0 3.9174e-19 0)
(-1.65436e-18 1.57858e-18 0)
(-1.65436e-18 7.70106e-19 0)
(1.65436e-18 -8.42341e-19 0)
(1.65436e-18 -1.1529e-18 0)
(-1.65436e-18 6.14378e-19 0)
(-1.65436e-18 2.59077e-18 0)
(-0.02 -6.19765e-17 0)
(-1.00916e-16 1.00952e-16 0)
(4.46678e-17 -4.44691e-17 0)
(-6.61744e-18 5.7773e-18 0)
(0 5.00679e-19 0)
(0 2.06536e-19 0)
(0 1.27395e-18 0)
(-1.65436e-18 7.3024e-19 0)
(1.65436e-18 -6.99662e-19 0)
(-1.65436e-18 2.47952e-19 0)
(0 7.63034e-19 0)
(1.65436e-18 -7.9291e-19 0)
(1.65436e-18 -1.145e-18 0)
(-1.65436e-18 7.92016e-19 0)
(-1.65436e-18 1.26206e-19 0)
(0 -1.8737e-19 0)
(0 -7.92854e-19 0)
(0 1.09042e-18 0)
(0 -5.94561e-19 0)
(3.30872e-18 -2.46208e-18 0)
(-0.02 2.04429e-17 0)
(4.46678e-17 -4.52801e-17 0)
(-2.31611e-17 2.35364e-17 0)
(3.30872e-18 -2.78109e-18 0)
(0 -2.16434e-19 0)
(0 -4.18122e-19 0)
(0 -4.89575e-19 0)
(0 4.46637e-19 0)
(0 7.80034e-19 0)
(0 3.43737e-19 0)
(0 8.80167e-19 0)
(-1.65436e-18 -6.20243e-20 0)
(0 -4.5448e-20 0)
(0 -5.04715e-19 0)
(0 4.05343e-19 0)
(0 -2.52748e-20 0)
(0 4.28454e-19 0)
(0 2.83894e-19 0)
(0 2.5369e-19 0)
(-1.65436e-18 2.27583e-19 0)
(-0.02 6.04972e-17 0)
(6.61744e-17 -6.54291e-17 0)
(-1.32349e-17 1.28207e-17 0)
(4.96308e-18 -5.50712e-18 0)
(0 1.33542e-19 0)
(0 -4.4859e-19 0)
(0 6.36735e-20 0)
(0 1.77187e-19 0)
(0 5.9785e-19 0)
(-1.65436e-18 1.38888e-18 0)
(0 -1.08882e-19 0)
(-3.30872e-18 1.92608e-18 0)
(0 -2.18916e-19 0)
(1.65436e-18 -1.17962e-18 0)
(1.65436e-18 -1.99675e-18 0)
(3.30872e-18 -1.79154e-18 0)
(-1.65436e-18 7.60293e-19 0)
(0 9.92172e-21 0)
(1.65436e-18 -1.32611e-18 0)
(0 -5.88488e-20 0)
(-0.02 -1.2728e-16 0)
(-1.72054e-16 1.70541e-16 0)
(4.79765e-17 -4.79598e-17 0)
(-8.27181e-18 8.27536e-18 0)
(1.65436e-18 -2.03474e-18 0)
(-1.65436e-18 3.14541e-19 0)
(0 -3.11444e-19 0)
(0 6.67734e-19 0)
(-1.65436e-18 1.04504e-18 0)
(1.65436e-18 -6.17693e-19 0)
(0 -6.85719e-19 0)
(1.65436e-18 -8.97572e-19 0)
(0 1.08864e-19 0)
(0 -1.14864e-19 0)
(3.30872e-18 -2.51188e-18 0)
(0 -2.62533e-19 0)
(1.65436e-18 -1.28104e-18 0)
(0 -8.22697e-19 0)
(-1.65436e-18 1.82269e-18 0)
(0 7.37145e-20 0)
(-0.02 1.29815e-16 0)
(1.75362e-16 -1.75774e-16 0)
(-5.12852e-17 5.23541e-17 0)
(6.61744e-18 -5.24959e-18 0)
(-4.96308e-18 4.01073e-18 0)
(0 3.2262e-19 0)
(1.65436e-18 -1.08706e-18 0)
(3.30872e-18 -2.33542e-18 0)
(1.65436e-18 -2.69743e-18 0)
(0 -1.50131e-18 0)
(1.65436e-18 -6.46362e-19 0)
(-1.65436e-18 5.11119e-19 0)
(-1.65436e-18 1.16134e-18 0)
(0 3.97186e-19 0)
(0 1.75391e-18 0)
(0 -1.04997e-18 0)
(0 -5.26483e-19 0)
(0 1.85358e-18 0)
(0 8.05071e-19 0)
(-1.65436e-18 8.81012e-19 0)
(-0.02 9.10309e-19 0)
(4.96308e-18 -5.17131e-18 0)
(-1.65436e-18 5.0342e-19 0)
(1.65436e-18 -1.03819e-18 0)
(0 3.34e-19 0)
(0 3.40116e-19 0)
(0 -3.23365e-19 0)
(-1.65436e-18 6.81329e-19 0)
(-1.65436e-18 1.39353e-18 0)
(0 2.45506e-19 0)
(0 -1.12119e-19 0)
(-1.65436e-18 1.61622e-19 0)
(0 9.35298e-20 0)
(0 5.02064e-19 0)
(1.65436e-18 -7.91036e-19 0)
(-1.65436e-18 7.53017e-19 0)
(0 1.40949e-18 0)
(0 -1.05961e-18 0)
(0 -1.57387e-18 0)
(0 6.19132e-19 0)
(-0.02 -1.49254e-16 0)
(-2.00178e-16 2.01343e-16 0)
(5.62483e-17 -5.66049e-17 0)
(-1.15805e-17 1.02537e-17 0)
(3.30872e-18 -1.60453e-18 0)
(-1.65436e-18 6.11842e-19 0)
(0 8.35542e-19 0)
(0 -1.53097e-18 0)
(1.65436e-18 -1.02579e-18 0)
(0 6.84e-19 0)
(0 7.02796e-19 0)
(1.65436e-18 -3.44736e-19 0)
(-1.65436e-18 7.36306e-20 0)
(1.65436e-18 -1.07299e-18 0)
(0 8.53528e-19 0)
(-3.30872e-18 1.54769e-18 0)
(1.65436e-18 -9.87026e-19 0)
(1.65436e-18 -1.34146e-18 0)
(0 7.60218e-21 0)
(1.65436e-18 -1.50569e-18 0)
(-0.02 8.61867e-17 0)
(1.22423e-16 -1.22097e-16 0)
(-3.47416e-17 3.53453e-17 0)
(6.61744e-18 -6.484e-18 0)
(-1.65436e-18 -1.33207e-19 0)
(0 -7.56251e-19 0)
(1.65436e-18 4.06282e-19 0)
(-3.30872e-18 1.79269e-18 0)
(0 7.74584e-19 0)
(0 -2.04707e-20 0)
(0 2.32767e-19 0)
(0 6.91693e-20 0)
(0 -2.79401e-19 0)
(-1.65436e-18 1.3256e-18 0)
(-1.65436e-18 1.16383e-18 0)
(0 8.48368e-20 0)
(0 8.32589e-19 0)
(-1.65436e-18 1.18057e-18 0)
(0 6.58427e-19 0)
(0 7.4328e-19 0)
)
;

boundaryField
{
    movingWall
    {
        type            extrapolatedCalculated;
        value           nonuniform List<vector> 
20
(
(-0.02 8.61867e-17 0)
(1.22423e-16 -1.22097e-16 0)
(-3.47416e-17 3.53453e-17 0)
(6.61744e-18 -6.484e-18 0)
(-1.65436e-18 -1.33207e-19 0)
(0 -7.56251e-19 0)
(1.65436e-18 4.06282e-19 0)
(-3.30872e-18 1.79269e-18 0)
(0 7.74584e-19 0)
(0 -2.04707e-20 0)
(0 2.32767e-19 0)
(0 6.91693e-20 0)
(0 -2.79401e-19 0)
(-1.65436e-18 1.3256e-18 0)
(-1.65436e-18 1.16383e-18 0)
(0 8.48368e-20 0)
(0 8.32589e-19 0)
(-1.65436e-18 1.18057e-18 0)
(0 6.58427e-19 0)
(0 7.4328e-19 0)
)
;
    }
    fixedWalls
    {
        type            extrapolatedCalculated;
        value           nonuniform List<vector> 
60
(
(-0.02 1.03242e-16 0)
(-0.02 -1.77845e-16 0)
(-0.02 2.88568e-17 0)
(-0.02 1.15526e-16 0)
(-0.02 -1.49116e-16 0)
(-0.02 1.11585e-16 0)
(-0.02 1.62172e-17 0)
(-0.02 -1.14834e-16 0)
(-0.02 1.07646e-16 0)
(-0.02 -1.82122e-17 0)
(-0.02 -4.37445e-17 0)
(-0.02 6.13385e-17 0)
(-0.02 -6.19765e-17 0)
(-0.02 2.04429e-17 0)
(-0.02 6.04972e-17 0)
(-0.02 -1.2728e-16 0)
(-0.02 1.29815e-16 0)
(-0.02 9.10309e-19 0)
(-0.02 -1.49254e-16 0)
(-0.02 8.61867e-17 0)
(0 9.37067e-19 0)
(1.65436e-18 -2.12162e-18 0)
(0 6.38384e-19 0)
(0 2.55682e-19 0)
(0 4.82616e-19 0)
(0 8.46461e-19 0)
(1.65436e-18 -1.04054e-18 0)
(0 3.35684e-19 0)
(0 7.13118e-19 0)
(0 -2.6464e-19 0)
(1.65436e-18 -1.89108e-18 0)
(-1.65436e-18 2.59077e-18 0)
(3.30872e-18 -2.46208e-18 0)
(-1.65436e-18 2.27583e-19 0)
(0 -5.88488e-20 0)
(0 7.37145e-20 0)
(-1.65436e-18 8.81012e-19 0)
(0 6.19132e-19 0)
(1.65436e-18 -1.50569e-18 0)
(0 7.4328e-19 0)
(-0.02 1.03242e-16 0)
(1.38966e-16 -1.38414e-16 0)
(-4.46678e-17 4.39072e-17 0)
(6.61744e-18 -5.99562e-18 0)
(-1.65436e-18 1.41985e-18 0)
(0 3.79817e-20 0)
(0 7.43842e-19 0)
(-1.65436e-18 7.39331e-19 0)
(0 6.22389e-19 0)
(0 -2.96633e-19 0)
(0 -1.78999e-19 0)
(0 -2.39013e-19 0)
(0 3.18362e-19 0)
(-1.65436e-18 1.6749e-18 0)
(-1.65436e-18 2.74706e-18 0)
(-3.30872e-18 1.89357e-18 0)
(0 -1.85074e-19 0)
(3.30872e-18 -1.85554e-18 0)
(0 -1.15548e-18 0)
(0 9.37067e-19 0)
)
;
    }
    frontAndBack
    {
        type            empty;
    }
}


// ************************************************************************* //
