/*--------------------------------*- C++ -*----------------------------------*\
| =========                 |                                                 |
| \\      /  F ield         | OpenFOAM: The Open Source CFD Toolbox           |
|  \\    /   O peration     | Version:  2312                                  |
|   \\  /    A nd           | Website:  www.openfoam.com                      |
|    \\/     M anipulation  |                                                 |
\*---------------------------------------------------------------------------*/
FoamFile
{
    version     2.0;
    format      ascii;
    arch        "LSB;label=32;scalar=64";
    class       volScalarField;
    location    "9.5";
    object      initialResidual:Uy;
}
// * * * * * * * * * * * * * * * * * * * * * * * * * * * * * * * * * * * * * //

dimensions      [0 0 0 0 0 0 0];

internalField   nonuniform List<scalar> 
400
(
3.01887e-21
-9.10346e-22
1.45146e-21
-3.45331e-21
-4.03081e-22
2.94407e-21
-4.22321e-22
3.73394e-22
2.98589e-22
-2.13447e-21
-1.66289e-21
-3.1562e-21
3.64635e-21
7.1395e-21
4.53137e-21
1.01298e-21
-5.35057e-21
-2.86016e-21
-1.4258e-21
-2.24737e-21
-3.29554e-21
1.74285e-21
6.8041e-22
-7.04066e-21
-7.60553e-21
7.48796e-22
1.72156e-21
1.95994e-21
-6.09944e-22
6.87513e-22
6.99348e-21
-1.85163e-21
-7.39627e-21
9.28898e-22
6.61587e-21
4.15205e-21
-1.82423e-21
-5.30138e-21
-1.00737e-20
-4.45522e-21
-4.60619e-21
3.85506e-21
-4.35688e-21
-6.5305e-21
-1.2411e-20
-7.50436e-21
-2.08697e-22
3.2813e-21
2.05177e-21
-4.30825e-22
4.20479e-21
-2.59361e-21
-1.08347e-20
-5.16264e-21
4.34709e-21
9.23053e-21
4.95762e-21
-9.01501e-21
-1.32505e-20
-4.00652e-21
7.74009e-21
-7.64098e-21
-2.9213e-21
-1.91945e-21
-7.83214e-22
-2.24323e-21
-1.93806e-21
5.89972e-22
-4.87895e-21
-9.84881e-21
-7.03741e-21
-1.96718e-21
6.31774e-22
1.69321e-21
-6.86796e-22
-1.44403e-21
-4.83914e-21
-8.46976e-21
-7.38237e-21
-3.29977e-21
4.40787e-21
-9.38969e-21
-9.0959e-21
-2.53924e-21
9.04281e-21
4.98658e-21
7.77728e-22
-5.83322e-21
-1.08809e-20
-7.19665e-21
-2.9946e-21
4.31414e-22
-6.26968e-21
-4.10807e-21
-5.30292e-21
-9.02501e-21
-1.12442e-20
-8.44726e-21
-5.07229e-21
-8.97063e-22
-1.64241e-20
6.81553e-21
-6.49834e-21
-2.56354e-21
-3.64721e-21
-3.2468e-21
1.28793e-21
-5.911e-21
-9.23578e-21
-1.0468e-20
-7.52731e-21
-2.17132e-21
-3.85322e-21
-1.08024e-20
-1.00198e-20
-9.66399e-21
-1.59823e-21
-3.73162e-21
-2.213e-21
-3.96011e-22
1.25777e-21
-2.56148e-22
2.08616e-21
-4.5345e-21
-1.02321e-20
-6.40217e-21
-2.6993e-21
-3.63523e-21
-7.60717e-21
-8.78415e-21
-6.7053e-21
-6.69853e-21
-4.39774e-21
-1.07349e-20
-6.9694e-21
-6.5738e-21
-1.62194e-21
8.39939e-22
-3.0409e-21
-1.88438e-21
1.0935e-20
-8.65194e-21
-6.43311e-21
-7.90416e-21
-3.0939e-21
-2.2385e-21
-3.51096e-21
-3.71796e-21
-6.60203e-22
-2.19514e-21
-5.39777e-21
-2.6638e-21
-4.67488e-22
-3.63244e-21
-7.59391e-21
-5.20853e-21
-8.84403e-21
-3.86851e-21
-4.04764e-21
-1.48323e-21
-1.42601e-20
-3.86588e-21
-1.75304e-21
-1.39331e-21
-3.13644e-21
-4.01152e-21
-3.14239e-21
-1.29624e-21
2.56526e-21
7.36221e-22
-4.83944e-21
-1.138e-21
6.56309e-21
1.05435e-21
-9.8499e-21
-8.68538e-21
-3.927e-21
-2.31044e-21
-1.90431e-21
8.45292e-23
-1.03897e-20
-9.44871e-21
2.69428e-21
9.49032e-22
-2.40557e-21
-3.04722e-21
3.15371e-22
-1.2023e-21
-3.63005e-21
1.24922e-21
1.87477e-21
-2.33345e-22
1.73072e-21
-1.7388e-21
-4.90129e-21
-7.08018e-21
-4.93677e-21
-5.88784e-21
-1.42007e-21
2.84975e-21
-1.48738e-20
3.33242e-21
4.84651e-22
2.18241e-21
-1.01896e-21
-1.83426e-21
-2.74688e-21
-3.63713e-21
-3.7278e-21
-5.27026e-21
-1.71649e-21
2.2019e-21
2.88174e-21
-1.32827e-21
-3.82663e-21
-7.88937e-21
-8.86679e-21
-5.67156e-21
5.89092e-23
8.95894e-23
-3.97266e-21
-3.71754e-21
-2.91723e-21
-4.48397e-21
-8.95118e-22
1.72057e-21
-3.65813e-21
1.74877e-21
2.76578e-21
-3.31634e-21
-4.6049e-21
-2.0745e-21
-6.97576e-22
-1.79968e-22
4.44807e-22
-1.93697e-21
-3.56954e-21
-2.80385e-21
-2.50854e-21
-1.37213e-21
-1.93509e-20
-5.31989e-21
-5.7829e-21
-3.09326e-21
9.47252e-23
4.56742e-22
2.30919e-21
3.82831e-21
2.03329e-21
3.98641e-21
2.33775e-21
-1.81217e-21
-7.31627e-21
-2.01286e-21
5.06399e-21
2.16053e-21
-1.00893e-21
-3.90311e-21
-6.31084e-21
-1.42939e-21
-1.43738e-20
-2.51966e-21
-1.17359e-22
2.84272e-21
-2.29936e-21
-2.64717e-21
-1.19575e-21
-2.98126e-21
1.10825e-22
8.4072e-21
5.51809e-21
-5.59514e-22
-4.20487e-21
5.40841e-21
6.61943e-21
1.17575e-21
-4.13276e-21
-2.65719e-21
-6.39774e-21
-3.53088e-21
9.3255e-21
-1.08605e-20
3.34494e-21
-7.1705e-22
-1.00572e-21
3.00522e-21
3.22163e-21
-1.05506e-21
5.32835e-21
4.21268e-21
1.00633e-21
1.16857e-21
-1.42407e-21
-1.84162e-21
-2.21961e-21
1.55762e-21
4.07158e-21
-1.18917e-21
-4.76903e-21
-9.94072e-22
-1.36344e-20
9.80742e-21
-3.83669e-21
-4.87181e-21
-2.68816e-21
1.76435e-23
9.38161e-21
1.32468e-20
1.1955e-20
-4.22275e-22
-5.41615e-21
-4.36452e-21
-2.72546e-21
-3.675e-21
-8.2341e-22
5.90007e-22
3.71884e-22
-1.44305e-21
7.58116e-22
9.12072e-22
-6.22449e-21
1.19505e-20
9.14316e-22
1.84114e-21
-4.05857e-22
-4.64323e-21
1.61849e-22
4.71676e-21
-6.86692e-23
3.57027e-21
1.60655e-21
-1.79631e-21
-1.92207e-21
4.54319e-22
-9.21686e-22
-2.92959e-21
-1.97251e-21
4.35874e-21
1.23938e-21
-9.37547e-22
1.27184e-20
3.56883e-21
4.99239e-21
9.476e-21
7.80227e-21
-2.00579e-21
-8.94233e-21
-5.33886e-21
-5.18608e-21
-2.36387e-21
5.33678e-21
4.63469e-21
4.0791e-22
-5.26819e-21
-8.73697e-21
-1.28784e-22
6.2681e-21
5.83753e-21
-1.0656e-21
-1.26041e-21
-9.62598e-21
1.75785e-21
-3.73859e-22
7.09224e-21
1.06699e-20
1.6777e-21
-7.89798e-21
-1.39666e-21
4.89305e-22
-5.79825e-21
-2.79704e-21
2.0879e-21
2.69075e-21
-4.64707e-21
-1.31151e-21
3.68241e-21
5.49178e-21
-1.42313e-21
-8.90429e-22
-1.80942e-22
-1.93982e-20
6.04032e-23
1.46781e-21
4.39224e-21
6.78459e-21
1.57096e-21
-4.18412e-21
-3.15621e-21
-1.59082e-22
1.09009e-21
-1.37958e-21
-6.77442e-23
2.30798e-22
-3.78351e-21
2.69443e-21
2.1685e-21
3.62423e-21
-1.41992e-21
-1.03979e-21
-3.69692e-22
)
;

boundaryField
{
    movingWall
    {
        type            zeroGradient;
    }
    fixedWalls
    {
        type            zeroGradient;
    }
    frontAndBack
    {
        type            empty;
    }
}


// ************************************************************************* //
