/*--------------------------------*- C++ -*----------------------------------*\
| =========                 |                                                 |
| \\      /  F ield         | OpenFOAM: The Open Source CFD Toolbox           |
|  \\    /   O peration     | Version:  2312                                  |
|   \\  /    A nd           | Website:  www.openfoam.com                      |
|    \\/     M anipulation  |                                                 |
\*---------------------------------------------------------------------------*/
FoamFile
{
    version     2.0;
    format      ascii;
    arch        "LSB;label=32;scalar=64";
    class       volScalarField;
    location    "9.5";
    object      initialResidual:epsilon;
}
// * * * * * * * * * * * * * * * * * * * * * * * * * * * * * * * * * * * * * //

dimensions      [0 0 0 0 0 0 0];

internalField   nonuniform List<scalar> 
400
(
0
0
0
0
0
0
0
0
0
0
0
0
0
0
0
0
0
0
0
0
0
-7.00938e-14
-6.98476e-14
-6.99077e-14
-6.99964e-14
-7.00386e-14
-7.00857e-14
-7.01456e-14
-7.0171e-14
-7.026e-14
-7.0255e-14
-7.03724e-14
-7.03462e-14
-7.04765e-14
-7.04485e-14
-7.05723e-14
-7.05628e-14
-7.06608e-14
-1.41278e-13
0
0
-7.36514e-14
-7.33711e-14
-7.34391e-14
-7.35383e-14
-7.35861e-14
-7.36346e-14
-7.37038e-14
-7.37254e-14
-7.383e-14
-7.38139e-14
-7.39532e-14
-7.39105e-14
-7.40658e-14
-7.40203e-14
-7.41675e-14
-7.41444e-14
-7.42595e-14
-1.48616e-13
0
0
-7.75451e-14
-7.72524e-14
-7.73232e-14
-7.74287e-14
-7.74795e-14
-7.75314e-14
-7.76045e-14
-7.76281e-14
-7.77389e-14
-7.77222e-14
-7.78701e-14
-7.7825e-14
-7.79901e-14
-7.79416e-14
-7.80986e-14
-7.80735e-14
-7.81965e-14
-1.56492e-13
0
0
-8.0802e-14
-8.04964e-14
-8.05715e-14
-8.06818e-14
-8.07354e-14
-8.079e-14
-8.08671e-14
-8.08917e-14
-8.10086e-14
-8.09909e-14
-8.11466e-14
-8.1099e-14
-8.12727e-14
-8.12219e-14
-8.13868e-14
-8.13609e-14
-8.14899e-14
-1.63082e-13
0
0
-8.31423e-14
-8.28283e-14
-8.29054e-14
-8.30202e-14
-8.30753e-14
-8.31323e-14
-8.3212e-14
-8.32379e-14
-8.33585e-14
-8.33409e-14
-8.35016e-14
-8.34532e-14
-8.36323e-14
-8.35805e-14
-8.37508e-14
-8.37246e-14
-8.38578e-14
-1.67822e-13
0
0
-8.4668e-14
-8.43478e-14
-8.44269e-14
-8.45442e-14
-8.46007e-14
-8.4659e-14
-8.47404e-14
-8.47673e-14
-8.48904e-14
-8.48728e-14
-8.50369e-14
-8.49878e-14
-8.51707e-14
-8.51181e-14
-8.52921e-14
-8.52656e-14
-8.54018e-14
-1.70912e-13
0
0
-8.5616e-14
-8.52959e-14
-8.53753e-14
-8.54932e-14
-8.5551e-14
-8.561e-14
-8.56927e-14
-8.57198e-14
-8.58448e-14
-8.5827e-14
-8.59933e-14
-8.59438e-14
-8.61292e-14
-8.60761e-14
-8.62522e-14
-8.62257e-14
-8.63636e-14
-1.72837e-13
0
0
-8.62215e-14
-8.58933e-14
-8.5975e-14
-8.60952e-14
-8.61528e-14
-8.62132e-14
-8.62956e-14
-8.63242e-14
-8.64491e-14
-8.64324e-14
-8.65992e-14
-8.65501e-14
-8.67365e-14
-8.66836e-14
-8.68608e-14
-8.68344e-14
-8.69734e-14
-1.74058e-13
0
0
-8.66378e-14
-8.63097e-14
-8.63915e-14
-8.65118e-14
-8.65703e-14
-8.66303e-14
-8.67143e-14
-8.6742e-14
-8.68687e-14
-8.6851e-14
-8.70195e-14
-8.69696e-14
-8.71575e-14
-8.7104e-14
-8.72826e-14
-8.72559e-14
-8.73958e-14
-1.74904e-13
0
0
-8.69706e-14
-8.66417e-14
-8.67235e-14
-8.68449e-14
-8.69031e-14
-8.69639e-14
-8.70477e-14
-8.70763e-14
-8.72026e-14
-8.7186e-14
-8.73541e-14
-8.73052e-14
-8.7493e-14
-8.744e-14
-8.76189e-14
-8.75925e-14
-8.7733e-14
-1.75578e-13
0
0
-8.72777e-14
-8.69468e-14
-8.70295e-14
-8.7151e-14
-8.72099e-14
-8.72705e-14
-8.73553e-14
-8.73832e-14
-8.75111e-14
-8.74934e-14
-8.76633e-14
-8.76132e-14
-8.78024e-14
-8.77489e-14
-8.79288e-14
-8.79023e-14
-8.80432e-14
-1.76199e-13
0
0
-8.7591e-14
-8.72579e-14
-8.73408e-14
-8.74635e-14
-8.75223e-14
-8.75836e-14
-8.76683e-14
-8.76968e-14
-8.7825e-14
-8.78074e-14
-8.79779e-14
-8.79277e-14
-8.81178e-14
-8.80639e-14
-8.82448e-14
-8.8218e-14
-8.83596e-14
-1.76833e-13
0
0
-8.79266e-14
-8.75941e-14
-8.76773e-14
-8.77998e-14
-8.78591e-14
-8.79208e-14
-8.80058e-14
-8.80346e-14
-8.81632e-14
-8.81456e-14
-8.83168e-14
-8.82665e-14
-8.84574e-14
-8.84035e-14
-8.8585e-14
-8.85582e-14
-8.87004e-14
-1.77515e-13
0
0
-8.82932e-14
-8.79632e-14
-8.80456e-14
-8.81686e-14
-8.8228e-14
-8.82899e-14
-8.83755e-14
-8.84046e-14
-8.85337e-14
-8.85163e-14
-8.86881e-14
-8.86377e-14
-8.88295e-14
-8.87754e-14
-8.89576e-14
-8.8931e-14
-8.90737e-14
-1.78262e-13
0
0
-8.86913e-14
-8.83597e-14
-8.84427e-14
-8.85659e-14
-8.86261e-14
-8.86881e-14
-8.87743e-14
-8.88032e-14
-8.89333e-14
-8.89158e-14
-8.90882e-14
-8.90381e-14
-8.92303e-14
-8.91765e-14
-8.93593e-14
-8.93329e-14
-8.94762e-14
-1.79067e-13
0
0
-8.91041e-14
-8.87627e-14
-8.88482e-14
-8.89737e-14
-8.90335e-14
-8.90966e-14
-8.91827e-14
-8.92125e-14
-8.93422e-14
-8.93258e-14
-8.94982e-14
-8.94488e-14
-8.96412e-14
-8.95878e-14
-8.9771e-14
-8.97449e-14
-8.98887e-14
-1.79893e-13
0
0
-8.94766e-14
-8.9147e-14
-8.92295e-14
-8.93532e-14
-8.9414e-14
-8.9477e-14
-8.95633e-14
-8.95937e-14
-8.97234e-14
-8.97077e-14
-8.98801e-14
-8.98316e-14
-9.00238e-14
-8.99715e-14
-9.01544e-14
-9.01293e-14
-9.02728e-14
-1.80662e-13
0
0
-9.00258e-14
-8.96473e-14
-8.97349e-14
-8.98631e-14
-8.99249e-14
-8.99809e-14
-9.00739e-14
-9.0091e-14
-9.02357e-14
-9.01983e-14
-9.03935e-14
-9.03175e-14
-9.05365e-14
-9.04559e-14
-9.06647e-14
-9.06161e-14
-9.07789e-14
-1.81465e-13
0
0
0
0
0
0
0
0
0
0
0
0
0
0
0
0
0
0
0
0
0
)
;

boundaryField
{
    movingWall
    {
        type            zeroGradient;
    }
    fixedWalls
    {
        type            zeroGradient;
    }
    frontAndBack
    {
        type            empty;
    }
}


// ************************************************************************* //
