/*--------------------------------*- C++ -*----------------------------------*\
| =========                 |                                                 |
| \\      /  F ield         | OpenFOAM: The Open Source CFD Toolbox           |
|  \\    /   O peration     | Version:  2312                                  |
|   \\  /    A nd           | Website:  www.openfoam.com                      |
|    \\/     M anipulation  |                                                 |
\*---------------------------------------------------------------------------*/
FoamFile
{
    version     2.0;
    format      ascii;
    arch        "LSB;label=32;scalar=64";
    class       volScalarField;
    location    "9.5";
    object      initialResidual:k;
}
// * * * * * * * * * * * * * * * * * * * * * * * * * * * * * * * * * * * * * //

dimensions      [0 0 0 0 0 0 0];

internalField   nonuniform List<scalar> 
400
(
-1.72666e-13
-1.72676e-13
-1.72708e-13
-1.72656e-13
-1.72707e-13
-1.72654e-13
-1.72699e-13
-1.72664e-13
-1.72676e-13
-1.72684e-13
-1.7268e-13
-1.7268e-13
-1.7268e-13
-1.7268e-13
-1.72679e-13
-1.72679e-13
-1.7268e-13
-1.7268e-13
-1.72679e-13
-1.72679e-13
-1.77532e-13
-1.77073e-13
-1.77825e-13
-1.77498e-13
-1.77562e-13
-1.77334e-13
-1.77521e-13
-1.77406e-13
-1.77471e-13
-1.77449e-13
-1.77487e-13
-1.77485e-13
-1.7746e-13
-1.77494e-13
-1.77452e-13
-1.77438e-13
-1.77465e-13
-1.77454e-13
-1.77461e-13
-1.7745e-13
-1.84994e-13
-1.84761e-13
-1.85191e-13
-1.84926e-13
-1.85062e-13
-1.84825e-13
-1.85007e-13
-1.84912e-13
-1.84969e-13
-1.84927e-13
-1.84938e-13
-1.84929e-13
-1.84933e-13
-1.8499e-13
-1.84962e-13
-1.84939e-13
-1.84964e-13
-1.84934e-13
-1.84938e-13
-1.84934e-13
-1.925e-13
-1.93611e-13
-1.91888e-13
-1.92739e-13
-1.9241e-13
-1.92986e-13
-1.92191e-13
-1.9322e-13
-1.91956e-13
-1.93353e-13
-1.91788e-13
-1.93403e-13
-1.91801e-13
-1.93286e-13
-1.91967e-13
-1.9296e-13
-1.92271e-13
-1.92621e-13
-1.92543e-13
-1.92585e-13
-1.98899e-13
-1.98444e-13
-1.99246e-13
-1.9872e-13
-1.98905e-13
-1.98725e-13
-1.98854e-13
-1.98705e-13
-1.98947e-13
-1.98693e-13
-1.9884e-13
-1.98773e-13
-1.98698e-13
-1.98795e-13
-1.98814e-13
-1.98778e-13
-1.98816e-13
-1.98814e-13
-1.98797e-13
-1.98781e-13
-2.03131e-13
-2.03511e-13
-2.0276e-13
-2.03153e-13
-2.03109e-13
-2.03022e-13
-2.03194e-13
-2.0305e-13
-2.03131e-13
-2.0308e-13
-2.03125e-13
-2.03099e-13
-2.03112e-13
-2.03131e-13
-2.03025e-13
-2.0323e-13
-2.03006e-13
-2.0311e-13
-2.03073e-13
-2.03087e-13
-2.05887e-13
-2.05778e-13
-2.05854e-13
-2.05801e-13
-2.05911e-13
-2.05765e-13
-2.05869e-13
-2.05787e-13
-2.05859e-13
-2.05795e-13
-2.05849e-13
-2.058e-13
-2.05836e-13
-2.05772e-13
-2.05824e-13
-2.05865e-13
-2.058e-13
-2.05807e-13
-2.05803e-13
-2.05803e-13
-2.07489e-13
-2.0735e-13
-2.07756e-13
-2.07347e-13
-2.07523e-13
-2.07437e-13
-2.07511e-13
-2.07421e-13
-2.07493e-13
-2.07437e-13
-2.07479e-13
-2.07448e-13
-2.07485e-13
-2.07506e-13
-2.07372e-13
-2.07552e-13
-2.07373e-13
-2.07495e-13
-2.0745e-13
-2.07446e-13
-2.08519e-13
-2.08384e-13
-2.08519e-13
-2.09108e-13
-2.0797e-13
-2.09153e-13
-2.07827e-13
-2.09203e-13
-2.07766e-13
-2.09185e-13
-2.07796e-13
-2.09136e-13
-2.07849e-13
-2.09019e-13
-2.07968e-13
-2.08786e-13
-2.08187e-13
-2.08489e-13
-2.08431e-13
-2.08468e-13
-2.09255e-13
-2.08691e-13
-2.09667e-13
-2.09164e-13
-2.09266e-13
-2.09145e-13
-2.09224e-13
-2.09159e-13
-2.09223e-13
-2.09163e-13
-2.09211e-13
-2.0917e-13
-2.09205e-13
-2.09176e-13
-2.09205e-13
-2.09178e-13
-2.09204e-13
-2.09196e-13
-2.0919e-13
-2.09175e-13
-2.0979e-13
-2.09979e-13
-2.09584e-13
-2.10142e-13
-2.09496e-13
-2.10181e-13
-2.09365e-13
-2.10594e-13
-2.08953e-13
-2.10641e-13
-2.08886e-13
-2.10597e-13
-2.08942e-13
-2.10363e-13
-2.09152e-13
-2.10103e-13
-2.0943e-13
-2.09784e-13
-2.09697e-13
-2.09747e-13
-2.10382e-13
-2.09819e-13
-2.10814e-13
-2.1035e-13
-2.10413e-13
-2.10153e-13
-2.10407e-13
-2.10222e-13
-2.10403e-13
-2.10225e-13
-2.10376e-13
-2.10257e-13
-2.10198e-13
-2.10302e-13
-2.10309e-13
-2.10278e-13
-2.10321e-13
-2.10318e-13
-2.10302e-13
-2.10284e-13
-2.10895e-13
-2.11107e-13
-2.10621e-13
-2.10993e-13
-2.10812e-13
-2.10772e-13
-2.10956e-13
-2.10787e-13
-2.10902e-13
-2.10824e-13
-2.10884e-13
-2.10846e-13
-2.10869e-13
-2.10828e-13
-2.10834e-13
-2.10934e-13
-2.1081e-13
-2.10865e-13
-2.10831e-13
-2.1084e-13
-2.11523e-13
-2.11047e-13
-2.11858e-13
-2.11447e-13
-2.11506e-13
-2.11469e-13
-2.11521e-13
-2.11431e-13
-2.11528e-13
-2.11408e-13
-2.11501e-13
-2.11419e-13
-2.11468e-13
-2.11437e-13
-2.11473e-13
-2.1145e-13
-2.1147e-13
-2.11462e-13
-2.1146e-13
-2.11446e-13
-2.12214e-13
-2.11597e-13
-2.1255e-13
-2.12215e-13
-2.12239e-13
-2.12033e-13
-2.12192e-13
-2.12147e-13
-2.1219e-13
-2.1212e-13
-2.12184e-13
-2.12069e-13
-2.12139e-13
-2.12194e-13
-2.12006e-13
-2.12249e-13
-2.12008e-13
-2.12155e-13
-2.1212e-13
-2.12115e-13
-2.12898e-13
-2.12559e-13
-2.13289e-13
-2.12773e-13
-2.12944e-13
-2.12816e-13
-2.12902e-13
-2.12833e-13
-2.12913e-13
-2.12901e-13
-2.12712e-13
-2.13015e-13
-2.12708e-13
-2.13021e-13
-2.12701e-13
-2.12985e-13
-2.12733e-13
-2.12886e-13
-2.12848e-13
-2.12842e-13
-2.13625e-13
-2.13795e-13
-2.13419e-13
-2.14041e-13
-2.13263e-13
-2.14205e-13
-2.13044e-13
-2.14446e-13
-2.12772e-13
-2.14629e-13
-2.12621e-13
-2.14472e-13
-2.12736e-13
-2.14249e-13
-2.12969e-13
-2.13974e-13
-2.13259e-13
-2.13635e-13
-2.1354e-13
-2.13593e-13
-2.14356e-13
-2.14569e-13
-2.14388e-13
-2.14071e-13
-2.14444e-13
-2.14273e-13
-2.14309e-13
-2.14345e-13
-2.14285e-13
-2.14241e-13
-2.14321e-13
-2.14296e-13
-2.14348e-13
-2.143e-13
-2.14345e-13
-2.14314e-13
-2.1434e-13
-2.14303e-13
-2.14311e-13
-2.14297e-13
-2.14729e-13
-2.1597e-13
-2.14165e-13
-2.15319e-13
-2.14404e-13
-2.15109e-13
-2.14652e-13
-2.15024e-13
-2.14718e-13
-2.15132e-13
-2.14625e-13
-2.15245e-13
-2.1451e-13
-2.15223e-13
-2.14473e-13
-2.15138e-13
-2.1464e-13
-2.14883e-13
-2.14826e-13
-2.14856e-13
-2.15214e-13
-2.1508e-13
-2.1529e-13
-2.15015e-13
-2.15336e-13
-2.14992e-13
-2.15341e-13
-2.15009e-13
-2.15306e-13
-2.15059e-13
-2.15245e-13
-2.15125e-13
-2.15184e-13
-2.15163e-13
-2.15167e-13
-2.1517e-13
-2.15168e-13
-2.15168e-13
-2.15168e-13
-2.15168e-13
)
;

boundaryField
{
    movingWall
    {
        type            zeroGradient;
    }
    fixedWalls
    {
        type            zeroGradient;
    }
    frontAndBack
    {
        type            empty;
    }
}


// ************************************************************************* //
