/*--------------------------------*- C++ -*----------------------------------*\
| =========                 |                                                 |
| \\      /  F ield         | OpenFOAM: The Open Source CFD Toolbox           |
|  \\    /   O peration     | Version:  2312                                  |
|   \\  /    A nd           | Website:  www.openfoam.com                      |
|    \\/     M anipulation  |                                                 |
\*---------------------------------------------------------------------------*/
FoamFile
{
    version     2.0;
    format      ascii;
    arch        "LSB;label=32;scalar=64";
    class       volScalarField;
    location    "9.5";
    object      initialResidual:p;
}
// * * * * * * * * * * * * * * * * * * * * * * * * * * * * * * * * * * * * * //

dimensions      [0 0 0 0 0 0 0];

internalField   nonuniform List<scalar> 
400
(
-1.27857e-25
-6.62469e-21
-6.53682e-21
-3.17187e-21
4.93191e-21
8.57391e-21
1.48244e-21
-6.10914e-21
4.92279e-22
-7.25585e-21
8.06473e-21
5.01321e-21
-5.78952e-21
3.62436e-21
-3.28106e-21
7.21256e-21
2.62408e-21
8.79158e-21
-1.68845e-20
-6.77624e-21
-6.77594e-21
1.23144e-20
-1.81335e-20
6.9578e-21
7.29402e-21
-1.55675e-20
1.45282e-21
2.77807e-21
6.60553e-21
-5.89141e-21
-1.15866e-20
5.65512e-21
1.49225e-20
7.06017e-21
-3.83399e-21
-1.22808e-20
-1.58937e-20
2.1242e-20
-2.84836e-20
1.35526e-20
6.77604e-21
-2.53623e-21
8.79603e-21
-1.05337e-20
-4.1646e-21
4.08537e-21
-1.97124e-21
-1.61014e-20
6.38646e-21
-9.75902e-21
-9.56662e-21
9.06175e-21
5.19348e-21
-7.10057e-21
1.17748e-21
1.11851e-21
4.63039e-21
-8.12731e-21
1.48583e-20
1.28744e-26
2.03288e-20
-1.34011e-20
4.18719e-21
-7.37999e-21
-5.29239e-21
-7.1866e-21
1.82552e-20
1.08821e-20
-1.54593e-20
-1.05757e-22
-3.96609e-21
5.37102e-21
-3.05827e-21
-1.55267e-20
1.00428e-20
4.61757e-22
-9.39112e-21
-1.26772e-20
-3.68618e-21
6.7763e-21
6.7761e-21
-9.32019e-21
-1.14549e-20
4.74517e-21
2.05658e-21
4.95208e-22
-2.19007e-21
-1.23275e-21
-2.11073e-21
7.19651e-21
3.28959e-21
-1.60355e-20
1.78962e-22
-8.01789e-21
-8.74935e-21
-7.70717e-21
8.93826e-21
1.73766e-21
4.32985e-21
3.76948e-27
-6.77624e-21
-6.83908e-21
-3.76277e-21
1.06029e-20
-6.61731e-21
-2.68561e-20
-4.86028e-21
1.41001e-20
-2.68234e-22
-1.25904e-21
1.29624e-20
-1.33997e-20
8.36466e-22
-1.56685e-20
6.92713e-21
8.10161e-21
-8.02944e-21
1.30364e-20
-5.82366e-22
2.87182e-26
2.03286e-20
-3.89387e-21
3.58455e-21
-5.85678e-21
-5.10402e-21
3.48625e-21
9.90395e-21
-5.46473e-21
-5.67133e-21
1.48271e-21
2.72578e-21
2.11477e-21
1.42635e-21
5.74413e-21
8.55816e-22
-1.80384e-20
1.034e-20
-1.07329e-21
1.03775e-20
-8.36115e-27
-3.38812e-20
1.58224e-20
-3.69205e-21
-2.54896e-20
1.02852e-20
3.12081e-20
-1.4861e-21
1.33475e-20
-6.72422e-21
4.53876e-21
-4.51672e-21
6.08367e-21
6.63942e-21
-2.5429e-21
5.89841e-21
1.26996e-21
1.1614e-21
-1.07006e-20
1.26043e-20
-6.77625e-21
-2.28223e-25
1.68147e-21
-2.15308e-20
3.32845e-20
-2.41753e-21
4.48634e-21
-1.75065e-21
-1.4575e-21
4.04813e-22
7.49266e-21
6.8378e-21
-5.78479e-22
1.95852e-22
-1.77636e-20
2.14355e-20
8.76286e-21
4.80089e-21
-1.08608e-21
-1.40924e-20
6.77625e-21
-6.77625e-21
5.94554e-21
5.72191e-22
6.9908e-21
-1.78864e-21
-2.71496e-21
-1.88396e-21
1.24749e-20
-1.74305e-20
-1.42241e-21
1.56167e-22
1.01649e-21
-6.73345e-21
-9.40917e-21
1.47535e-20
-1.42748e-20
-5.77869e-21
-3.92339e-21
-9.14785e-22
6.77627e-21
-6.7764e-21
2.06773e-20
-7.20006e-21
-1.537e-21
1.19702e-20
-1.39779e-20
-1.77296e-21
-1.64422e-20
-8.66412e-22
-2.6344e-21
1.16617e-20
-1.01242e-21
-3.55912e-22
-2.85161e-21
-1.00487e-20
1.61477e-20
8.8362e-21
-2.38404e-21
2.12721e-20
-1.35526e-20
-6.77636e-21
9.25849e-21
-3.54986e-21
-8.97086e-21
1.43145e-20
1.14097e-21
-1.32058e-20
9.26089e-21
8.42615e-21
5.23308e-21
4.35947e-21
-2.60968e-21
-1.61274e-20
1.19183e-21
8.10198e-21
4.96697e-21
2.55351e-20
4.34545e-21
-1.10732e-20
-6.77627e-21
6.77618e-21
-1.68453e-20
1.17111e-20
-7.64796e-23
-1.38094e-20
6.0444e-21
9.03292e-22
-4.98642e-21
-1.86076e-20
1.82675e-20
9.36578e-21
1.28479e-20
4.16897e-21
-2.02242e-20
-1.836e-20
3.44179e-20
1.69516e-20
-2.3794e-20
3.8173e-21
-6.7763e-21
-6.7764e-21
1.10161e-20
2.13396e-20
8.12478e-21
-7.74384e-21
7.08045e-22
-6.14817e-21
-1.33518e-20
2.61546e-21
3.91585e-21
-1.20677e-20
4.79276e-22
1.40178e-20
3.32778e-21
-5.59833e-21
3.43762e-23
1.14538e-20
-3.54155e-21
3.84021e-21
6.77625e-21
1.35524e-20
1.21837e-20
-1.36275e-20
-8.65374e-21
7.73341e-21
1.08015e-20
6.51455e-21
5.16854e-21
4.39174e-21
-5.89285e-22
-2.30192e-20
-8.37718e-21
2.53837e-20
-9.62272e-21
1.3025e-20
-8.24624e-22
-2.50513e-20
6.9997e-21
-1.84739e-21
1.35525e-20
-2.03288e-20
2.64629e-20
1.17882e-20
-1.52644e-21
-2.06156e-20
7.82023e-21
-1.40785e-21
-4.57464e-23
1.19009e-20
1.89812e-22
4.67236e-21
-1.74071e-20
-2.28297e-21
-5.08778e-22
-6.66315e-21
2.81776e-20
5.86596e-21
-7.38048e-21
-6.30785e-21
-6.77629e-21
2.03286e-20
4.04104e-21
-3.06059e-21
4.15793e-21
4.59354e-22
1.01968e-20
1.08223e-20
-1.15174e-21
-3.03319e-20
-1.23025e-20
-1.09621e-20
1.45161e-20
-1.50805e-21
3.85798e-21
-3.02252e-21
-2.78657e-22
1.53515e-20
-2.87294e-21
1.4181e-20
-1.35526e-20
-6.77638e-21
-1.4145e-20
-3.43674e-21
-1.11728e-21
3.02268e-21
1.16263e-20
-1.27762e-20
-2.43541e-21
-7.23624e-21
5.09267e-21
-6.64212e-21
-5.7072e-21
-7.7718e-21
1.1663e-20
5.28807e-21
2.20277e-21
3.75005e-21
3.65464e-22
-1.23812e-21
-2.45059e-26
3.38813e-20
-4.834e-20
-3.36199e-21
4.65692e-21
-8.55128e-21
-1.18728e-21
9.81719e-21
-2.17867e-21
-1.71369e-21
5.17996e-21
-1.68761e-22
1.4839e-22
1.40883e-20
4.13103e-21
-4.3308e-21
3.25379e-21
-4.18164e-21
-8.16308e-21
1.30437e-20
-2.43649e-26
2.03287e-20
-1.35525e-20
-3.7809e-26
1.35525e-20
-1.35526e-20
-6.77629e-21
6.77624e-21
6.77624e-21
1.35525e-20
-6.77629e-21
-6.77629e-21
6.77624e-21
-2.62222e-26
-6.77629e-21
-2.43029e-26
-1.35525e-20
-1.80116e-26
-2.46239e-26
-6.77629e-21
6.77627e-21
)
;

boundaryField
{
    movingWall
    {
        type            zeroGradient;
    }
    fixedWalls
    {
        type            zeroGradient;
    }
    frontAndBack
    {
        type            empty;
    }
}


// ************************************************************************* //
