/*--------------------------------*- C++ -*----------------------------------*\
| =========                 |                                                 |
| \\      /  F ield         | OpenFOAM: The Open Source CFD Toolbox           |
|  \\    /   O peration     | Version:  2312                                  |
|   \\  /    A nd           | Website:  www.openfoam.com                      |
|    \\/     M anipulation  |                                                 |
\*---------------------------------------------------------------------------*/
FoamFile
{
    version     2.0;
    format      ascii;
    arch        "LSB;label=32;scalar=64";
    class       volScalarField;
    location    "9.5";
    object      L_P;
}
// * * * * * * * * * * * * * * * * * * * * * * * * * * * * * * * * * * * * * //

dimensions      [0 0 0 0 0 0 0];

internalField   nonuniform List<scalar> 
400
(
-209.846
-209.846
-209.846
-209.846
-209.846
-209.846
-209.846
-209.846
-209.846
-209.846
-209.846
-209.846
-209.846
-209.846
-209.846
-209.846
-209.846
-209.846
-209.846
-209.846
-209.622
-209.665
-209.661
-209.66
-209.657
-209.656
-209.653
-209.651
-209.648
-209.647
-209.644
-209.642
-209.639
-209.638
-209.635
-209.633
-209.63
-209.628
-209.627
-209.624
-209.264
-209.308
-209.304
-209.303
-209.3
-209.298
-209.295
-209.294
-209.291
-209.289
-209.286
-209.284
-209.281
-209.279
-209.276
-209.275
-209.272
-209.27
-209.268
-209.266
-208.88
-208.924
-208.92
-208.919
-208.916
-208.914
-208.911
-208.91
-208.907
-208.905
-208.902
-208.9
-208.897
-208.895
-208.892
-208.891
-208.888
-208.886
-208.884
-208.882
-208.547
-208.592
-208.589
-208.587
-208.584
-208.582
-208.579
-208.578
-208.575
-208.573
-208.57
-208.568
-208.565
-208.563
-208.56
-208.558
-208.555
-208.554
-208.552
-208.549
-208.297
-208.342
-208.339
-208.337
-208.334
-208.332
-208.329
-208.328
-208.325
-208.323
-208.32
-208.318
-208.315
-208.313
-208.31
-208.308
-208.305
-208.303
-208.302
-208.299
-208.125
-208.17
-208.167
-208.165
-208.162
-208.16
-208.157
-208.156
-208.152
-208.151
-208.148
-208.146
-208.143
-208.141
-208.138
-208.136
-208.133
-208.131
-208.13
-208.127
-208.012
-208.058
-208.054
-208.052
-208.049
-208.048
-208.044
-208.043
-208.04
-208.038
-208.035
-208.033
-208.03
-208.028
-208.025
-208.023
-208.02
-208.018
-208.017
-208.014
-207.938
-207.984
-207.98
-207.979
-207.976
-207.974
-207.971
-207.969
-207.966
-207.964
-207.961
-207.96
-207.956
-207.955
-207.951
-207.95
-207.947
-207.945
-207.943
-207.941
-207.887
-207.933
-207.93
-207.928
-207.925
-207.923
-207.92
-207.919
-207.915
-207.914
-207.911
-207.909
-207.906
-207.904
-207.901
-207.899
-207.896
-207.894
-207.892
-207.89
-207.849
-207.895
-207.891
-207.889
-207.886
-207.885
-207.881
-207.88
-207.877
-207.875
-207.872
-207.87
-207.867
-207.865
-207.862
-207.86
-207.857
-207.855
-207.853
-207.851
-207.815
-207.861
-207.857
-207.855
-207.852
-207.851
-207.848
-207.846
-207.843
-207.841
-207.838
-207.836
-207.833
-207.831
-207.828
-207.826
-207.823
-207.821
-207.82
-207.817
-207.782
-207.828
-207.824
-207.823
-207.819
-207.818
-207.815
-207.813
-207.81
-207.808
-207.805
-207.803
-207.8
-207.798
-207.795
-207.793
-207.79
-207.788
-207.787
-207.784
-207.748
-207.794
-207.79
-207.789
-207.785
-207.784
-207.781
-207.779
-207.776
-207.774
-207.771
-207.769
-207.766
-207.764
-207.761
-207.759
-207.756
-207.754
-207.753
-207.75
-207.712
-207.758
-207.754
-207.753
-207.749
-207.748
-207.745
-207.743
-207.74
-207.738
-207.735
-207.733
-207.73
-207.728
-207.725
-207.723
-207.72
-207.718
-207.717
-207.714
-207.674
-207.72
-207.716
-207.715
-207.712
-207.71
-207.707
-207.705
-207.702
-207.701
-207.697
-207.696
-207.692
-207.691
-207.688
-207.686
-207.683
-207.681
-207.679
-207.676
-207.637
-207.683
-207.679
-207.678
-207.674
-207.673
-207.67
-207.668
-207.665
-207.663
-207.66
-207.658
-207.655
-207.653
-207.65
-207.648
-207.645
-207.643
-207.642
-207.639
-207.603
-207.649
-207.645
-207.644
-207.641
-207.639
-207.636
-207.634
-207.631
-207.629
-207.626
-207.625
-207.621
-207.62
-207.616
-207.615
-207.611
-207.61
-207.608
-207.605
-207.577
-207.622
-207.619
-207.617
-207.614
-207.613
-207.61
-207.608
-207.605
-207.603
-207.6
-207.598
-207.595
-207.594
-207.59
-207.589
-207.585
-207.584
-207.582
-207.579
-207.565
-207.565
-207.565
-207.565
-207.565
-207.565
-207.565
-207.565
-207.565
-207.565
-207.565
-207.565
-207.565
-207.565
-207.565
-207.565
-207.565
-207.565
-207.565
-207.565
)
;

boundaryField
{
    movingWall
    {
        type            calculated;
        value           nonuniform List<scalar> 
20
(
-207.565
-207.565
-207.565
-207.565
-207.565
-207.565
-207.565
-207.565
-207.565
-207.565
-207.565
-207.565
-207.565
-207.565
-207.565
-207.565
-207.565
-207.565
-207.565
-207.565
)
;
    }
    fixedWalls
    {
        type            calculated;
        value           nonuniform List<scalar> 
60
(
-209.846
-209.622
-209.264
-208.88
-208.547
-208.297
-208.125
-208.012
-207.938
-207.887
-207.849
-207.815
-207.782
-207.748
-207.712
-207.674
-207.637
-207.603
-207.577
-207.565
-209.846
-209.624
-209.266
-208.882
-208.549
-208.299
-208.127
-208.014
-207.941
-207.89
-207.851
-207.817
-207.784
-207.75
-207.714
-207.676
-207.639
-207.605
-207.579
-207.565
-209.846
-209.846
-209.846
-209.846
-209.846
-209.846
-209.846
-209.846
-209.846
-209.846
-209.846
-209.846
-209.846
-209.846
-209.846
-209.846
-209.846
-209.846
-209.846
-209.846
)
;
    }
    frontAndBack
    {
        type            empty;
    }
}


// ************************************************************************* //
