/*--------------------------------*- C++ -*----------------------------------*\
| =========                 |                                                 |
| \\      /  F ield         | OpenFOAM: The Open Source CFD Toolbox           |
|  \\    /   O peration     | Version:  2312                                  |
|   \\  /    A nd           | Website:  www.openfoam.com                      |
|    \\/     M anipulation  |                                                 |
\*---------------------------------------------------------------------------*/
FoamFile
{
    version     2.0;
    format      ascii;
    arch        "LSB;label=32;scalar=64";
    class       volVectorField;
    location    "9.5";
    object      LambVectorField;
}
// * * * * * * * * * * * * * * * * * * * * * * * * * * * * * * * * * * * * * //

dimensions      [0 1 -2 0 0 0 0];

internalField   nonuniform List<vector> 
400
(
(-1.36763e-24 -9.45867e-12 -9.45867e-12)
(-4.13284e-25 1.3319e-11 -0)
(-2.20433e-26 -2.8987e-12 -2.8987e-12)
(-1.11777e-27 7.44959e-13 -0)
(-5.33128e-29 -1.25142e-13 -1.25142e-13)
(1.28577e-30 5.83741e-14 0)
(5.54097e-30 4.88938e-14 4.88938e-14)
(2.47577e-30 3.29273e-14 0)
(3.44402e-30 6.24999e-14 6.24999e-14)
(-5.17823e-31 6.71777e-14 -0)
(-3.65815e-31 4.90559e-15 4.90559e-15)
(-2.12633e-30 3.7459e-14 -0)
(-2.72778e-30 -2.93497e-14 -2.93497e-14)
(-3.40674e-30 -1.43906e-14 0)
(3.44982e-30 1.45656e-14 1.45656e-14)
(2.54581e-30 2.79523e-14 0)
(2.58653e-30 -6.06081e-14 -6.06081e-14)
(1.85875e-31 -1.60245e-15 -0)
(4.33199e-31 -1.6254e-14 -1.6254e-14)
(9.26028e-32 1.98947e-15 0)
(-8.73063e-27 -5.27172e-13 -5.27172e-13)
(-3.52273e-27 1.22023e-12 -0)
(-3.07318e-28 -2.77778e-13 -2.77778e-13)
(-1.52625e-29 1.39808e-13 -0)
(1.31295e-30 -6.34641e-14 -6.34641e-14)
(1.41662e-30 -8.51979e-14 -0)
(3.584e-32 1.97584e-15 1.97584e-15)
(-2.02295e-31 5.55974e-15 -0)
(-4.60286e-32 1.2288e-15 1.2288e-15)
(1.69438e-30 -3.48109e-14 -0)
(-5.01794e-31 -1.26714e-14 -1.26714e-14)
(-4.37475e-30 -5.60577e-14 0)
(-2.17403e-32 -3.7434e-16 -3.7434e-16)
(-5.19215e-30 -6.34865e-14 0)
(-1.15249e-30 -7.64047e-15 -7.64047e-15)
(2.78736e-30 1.76205e-14 0)
(-2.80425e-30 1.10555e-13 1.10555e-13)
(-6.49148e-31 4.83664e-15 -0)
(9.35267e-31 -1.26848e-14 -1.26848e-14)
(5.97454e-32 -8.10985e-15 -0)
(-6.02289e-25 4.58271e-12 4.58271e-12)
(-3.18255e-25 -1.09934e-11 0)
(-1.73085e-26 2.62849e-12 2.62849e-12)
(-7.99886e-28 -5.06037e-13 0)
(-1.22844e-28 2.78936e-13 2.78936e-13)
(-6.02755e-30 4.8424e-14 -0)
(4.24557e-30 -3.80801e-14 -3.80801e-14)
(1.4132e-30 -9.59761e-14 -0)
(-2.06289e-30 -5.87398e-14 -5.87398e-14)
(-1.22686e-30 -4.0129e-14 0)
(-1.17303e-29 -7.09383e-14 -7.09383e-14)
(-7.97604e-30 -4.03125e-14 0)
(6.98927e-31 2.64915e-14 2.64915e-14)
(3.30682e-31 -4.93115e-15 -0)
(-1.993e-30 -2.63295e-14 -2.63295e-14)
(-1.04233e-30 -5.31164e-15 0)
(2.93858e-30 2.28131e-14 2.28131e-14)
(-8.38553e-31 2.62903e-14 -0)
(-6.70804e-31 5.00256e-15 5.00256e-15)
(-4.5087e-31 5.50369e-15 -0)
(-2.38365e-25 -2.89308e-12 -2.89308e-12)
(-1.24308e-25 6.92409e-12 -0)
(-6.76383e-27 -1.6082e-12 -1.6082e-12)
(-2.63518e-28 3.34908e-13 -0)
(-2.46477e-29 -7.83292e-14 -7.83292e-14)
(-9.18944e-32 2.5915e-14 -0)
(-2.06421e-30 -3.71811e-14 -3.71811e-14)
(2.4019e-32 2.47071e-16 0)
(1.81447e-31 3.4205e-15 3.4205e-15)
(-3.58607e-30 -5.69127e-14 0)
(-3.16285e-31 -3.94998e-15 -3.94998e-15)
(5.46649e-30 5.33265e-14 0)
(-4.71258e-30 -5.30049e-14 -5.30049e-14)
(2.27351e-31 2.51333e-15 0)
(7.68421e-31 1.20489e-14 1.20489e-14)
(-1.10849e-30 3.69113e-14 -0)
(-1.92282e-30 5.60801e-14 5.60801e-14)
(-1.56469e-30 3.21084e-14 -0)
(-2.21291e-30 2.62441e-14 2.62441e-14)
(-5.88228e-31 1.46608e-14 -0)
(-3.91135e-26 -1.84367e-12 -1.84367e-12)
(-9.46519e-27 2.0243e-12 -0)
(-4.53796e-28 -4.66851e-13 -4.66851e-13)
(-1.34728e-29 4.84082e-14 -0)
(-2.20068e-29 -1.01459e-13 -1.01459e-13)
(1.65822e-30 8.54002e-15 0)
(4.99486e-30 3.79828e-14 3.79828e-14)
(1.0374e-29 1.21486e-13 0)
(-5.09371e-33 -6.00175e-15 -6.00175e-15)
(4.87645e-30 3.35358e-14 0)
(1.6843e-29 8.1135e-14 8.1135e-14)
(1.01154e-29 6.87134e-14 0)
(7.80541e-30 1.24769e-13 1.24769e-13)
(-2.03838e-30 1.25219e-13 -0)
(-6.47913e-30 6.14533e-14 6.14533e-14)
(-2.08917e-30 2.35506e-14 -0)
(3.98295e-31 -5.69909e-15 -5.69909e-15)
(2.236e-31 -7.04938e-15 -0)
(-1.82854e-32 -3.01595e-14 -3.01595e-14)
(3.18934e-32 -2.71618e-14 -0)
(-8.67694e-25 7.09053e-12 7.09053e-12)
(-2.95053e-25 -1.10083e-11 0)
(-1.51965e-26 2.50908e-12 2.50908e-12)
(-8.79425e-28 -6.103e-13 0)
(-2.91721e-29 1.29849e-13 1.29849e-13)
(-7.69378e-31 -5.39993e-15 0)
(2.65264e-30 2.64237e-14 2.64237e-14)
(-3.41304e-31 -2.28614e-15 0)
(8.55643e-30 6.94233e-14 6.94233e-14)
(-2.00455e-31 7.05912e-14 -0)
(-1.17967e-30 2.90839e-14 2.90839e-14)
(2.00064e-31 -8.84141e-15 -0)
(-3.05515e-32 -6.38444e-16 -6.38444e-16)
(-2.64816e-31 1.63027e-14 -0)
(6.09499e-30 -5.29198e-14 -5.29198e-14)
(5.79735e-31 -1.98905e-14 -0)
(-6.02561e-30 -7.19636e-14 -7.19636e-14)
(-4.14873e-30 -2.79585e-14 0)
(8.70042e-31 9.42973e-15 9.42973e-15)
(7.91667e-31 1.46357e-14 0)
(-1.13825e-24 -7.7871e-12 -7.7871e-12)
(-4.07709e-25 1.27489e-11 -0)
(-2.33534e-26 -3.08507e-12 -3.08507e-12)
(-1.0669e-27 6.3835e-13 -0)
(-8.17711e-29 -2.19137e-13 -2.19137e-13)
(8.09551e-32 -3.66819e-15 -0)
(-8.80984e-30 -6.348e-14 -6.348e-14)
(-7.7467e-30 -1.09681e-13 0)
(-2.43337e-30 -1.60735e-14 -1.60735e-14)
(-1.04241e-30 2.62663e-14 -0)
(2.8202e-30 -2.53449e-14 -2.53449e-14)
(2.20188e-30 -3.84355e-14 -0)
(-1.18544e-31 -5.83506e-14 -5.83506e-14)
(8.89254e-31 -5.59902e-14 -0)
(-1.25383e-30 -6.32204e-14 -6.32204e-14)
(-8.49732e-30 -1.14487e-13 0)
(-6.65425e-30 -8.26628e-14 -8.26628e-14)
(-3.42444e-32 -3.90485e-16 0)
(3.61699e-31 4.28535e-15 4.28535e-15)
(-6.35898e-31 -1.41803e-14 0)
(-1.89735e-26 5.43433e-13 5.43433e-13)
(-2.11946e-26 -2.71876e-12 0)
(-1.24042e-27 6.09706e-13 6.09706e-13)
(-7.53621e-29 -2.19456e-13 0)
(5.74846e-30 -5.18147e-14 -5.18147e-14)
(-5.89357e-30 -1.2177e-13 0)
(-1.06157e-30 -4.70647e-14 -4.70647e-14)
(6.40455e-31 -2.77797e-14 -0)
(-2.78266e-30 -9.49662e-14 -9.49662e-14)
(-1.26493e-29 -1.11491e-13 0)
(-4.66312e-30 -7.77043e-14 -7.77043e-14)
(-8.44959e-30 -1.09243e-13 0)
(-5.8196e-30 -8.52851e-14 -8.52851e-14)
(-1.09704e-29 -9.37272e-14 0)
(2.55524e-31 1.32838e-15 1.32838e-15)
(8.14613e-30 7.85078e-14 0)
(-5.26553e-30 1.04021e-13 1.04021e-13)
(3.08512e-31 -2.50228e-15 -0)
(3.74859e-31 -1.46445e-14 -1.46445e-14)
(6.21907e-31 2.68606e-14 0)
(-7.94742e-25 7.48161e-12 7.48161e-12)
(-2.21198e-25 -9.61423e-12 0)
(-1.29442e-26 2.36385e-12 2.36385e-12)
(-5.21713e-28 -4.12016e-13 0)
(-5.79715e-29 2.13505e-13 2.13505e-13)
(-3.944e-30 7.08733e-14 -0)
(-1.42422e-29 8.52294e-14 8.52294e-14)
(-7.36261e-30 7.76724e-14 -0)
(-6.284e-30 4.80882e-14 4.80882e-14)
(-2.43946e-30 7.26653e-14 -0)
(-4.72706e-30 1.07001e-13 1.07001e-13)
(-1.47485e-30 7.60909e-14 -0)
(5.88872e-31 7.30168e-14 7.30168e-14)
(5.44586e-30 8.56254e-14 0)
(-3.68944e-30 1.05299e-13 1.05299e-13)
(-1.24961e-29 7.09039e-14 -0)
(-8.86807e-30 4.39066e-14 4.39066e-14)
(1.85345e-30 -2.53185e-14 -0)
(6.35919e-31 1.2418e-14 1.2418e-14)
(-1.07681e-30 -1.46176e-14 0)
(-1.9494e-24 -1.1264e-11 -1.1264e-11)
(-6.0293e-25 1.56731e-11 -0)
(-3.3429e-26 -3.70815e-12 -3.70815e-12)
(-1.64721e-27 8.53604e-13 -0)
(-4.42032e-29 -9.22882e-14 -9.22882e-14)
(-2.16521e-29 1.11796e-13 -0)
(1.52835e-30 -1.57744e-14 -1.57744e-14)
(-9.28262e-31 2.58345e-14 -0)
(-2.11408e-30 2.5113e-14 2.5113e-14)
(6.73625e-31 -4.20737e-14 -0)
(-2.53255e-30 -3.86627e-14 -3.86627e-14)
(2.92601e-30 2.93877e-14 0)
(1.898e-30 4.4473e-14 4.4473e-14)
(-5.75801e-30 7.76917e-14 -0)
(-1.56886e-30 8.16528e-15 8.16528e-15)
(5.50668e-30 -3.53522e-14 -0)
(8.17941e-30 -7.45841e-14 -7.45841e-14)
(-3.78186e-30 -7.88332e-14 0)
(-4.17378e-30 -3.05628e-14 -3.05628e-14)
(1.80881e-30 2.19115e-14 0)
(-1.54767e-24 1.07144e-11 1.07144e-11)
(-4.27427e-25 -1.34062e-11 0)
(-2.31558e-26 3.12752e-12 3.12752e-12)
(-1.25322e-27 -7.40826e-13 0)
(-4.18329e-29 1.56877e-13 1.56877e-13)
(-2.30792e-30 -1.87804e-14 0)
(-3.54545e-30 4.49604e-14 4.49604e-14)
(1.84305e-31 -3.31106e-15 -0)
(-1.31829e-32 2.88172e-16 2.88172e-16)
(-1.73368e-30 2.96128e-14 -0)
(2.23316e-30 -3.15311e-14 -3.15311e-14)
(1.82227e-31 -1.27573e-14 -0)
(1.62337e-30 2.86064e-14 2.86064e-14)
(-5.4318e-31 1.85401e-14 -0)
(3.11838e-30 -2.42389e-14 -2.42389e-14)
(2.32913e-30 -4.01857e-14 -0)
(-1.21394e-32 -5.6343e-15 -5.6343e-15)
(-9.75924e-34 6.03848e-16 -0)
(-3.98364e-33 1.02567e-15 1.02567e-15)
(-6.24924e-31 5.26344e-14 -0)
(-4.59798e-25 -6.29448e-12 -6.29448e-12)
(-1.12327e-25 6.99152e-12 -0)
(-5.65968e-27 -1.54019e-12 -1.54019e-12)
(-3.3477e-28 3.5794e-13 -0)
(-1.13825e-29 -1.195e-13 -1.195e-13)
(4.63911e-31 -4.09852e-14 -0)
(-3.38241e-31 9.14212e-15 9.14212e-15)
(3.09307e-30 -3.01057e-14 -0)
(2.72188e-32 -3.8933e-15 -3.8933e-15)
(-6.33288e-31 9.92503e-15 -0)
(-3.00754e-30 2.83085e-14 2.83085e-14)
(3.08086e-30 -4.06223e-14 -0)
(-1.54087e-31 -5.32606e-15 -5.32606e-15)
(2.02843e-32 -8.98291e-16 -0)
(-2.50827e-30 -6.61577e-14 -6.61577e-14)
(-5.75285e-30 -5.93723e-14 0)
(1.441e-30 1.60943e-14 1.60943e-14)
(-4.28181e-30 6.68532e-14 -0)
(2.28681e-30 -6.19803e-14 -6.19803e-14)
(-7.71937e-31 -5.65343e-14 0)
(-3.50293e-26 -1.21423e-12 -1.21423e-12)
(-1.64033e-26 2.45639e-12 -0)
(-9.93115e-28 -6.30709e-13 -6.30709e-13)
(-6.00172e-29 1.619e-13 -0)
(2.70054e-31 -6.08235e-15 -6.08235e-15)
(2.89994e-31 -7.46808e-15 -0)
(-5.43575e-32 -1.79509e-15 -1.79509e-15)
(-7.0167e-31 3.36044e-14 -0)
(-7.87731e-32 2.26928e-15 2.26928e-15)
(-2.32121e-33 5.32718e-17 -0)
(-7.83943e-32 2.22423e-15 2.22423e-15)
(9.19037e-32 -1.39639e-15 -0)
(7.01832e-31 -3.29782e-14 -3.29782e-14)
(7.41449e-32 -1.04671e-14 -0)
(3.86769e-30 4.63809e-14 4.63809e-14)
(8.90083e-31 1.24997e-14 0)
(-1.66861e-30 4.01034e-14 4.01034e-14)
(1.15709e-31 -1.96867e-15 -0)
(1.85545e-31 -8.46427e-15 -8.46427e-15)
(1.02083e-32 3.94639e-16 0)
(-8.28342e-25 7.18199e-12 7.18199e-12)
(-2.63565e-25 -1.03947e-11 0)
(-1.38097e-26 2.3139e-12 2.3139e-12)
(-7.98225e-28 -5.68708e-13 0)
(-3.00394e-29 1.06873e-13 1.06873e-13)
(-2.15851e-30 -3.38357e-14 0)
(-1.32325e-30 -2.31005e-14 -2.31005e-14)
(3.60238e-31 1.5169e-14 0)
(1.30731e-30 -1.38475e-14 -1.38475e-14)
(3.19615e-30 -2.9369e-14 -0)
(1.19815e-30 -1.66947e-14 -1.66947e-14)
(1.04253e-29 -4.89613e-14 -0)
(1.4042e-29 -1.13009e-13 -1.13009e-13)
(-1.49495e-29 -1.43737e-13 0)
(-1.1991e-29 -5.23831e-14 -5.23831e-14)
(7.29696e-30 8.51096e-14 0)
(-3.09646e-30 3.86648e-14 3.86648e-14)
(1.62318e-30 -5.4357e-14 -0)
(-4.60413e-30 5.85647e-14 5.85647e-14)
(-8.73748e-31 1.19027e-14 -0)
(-1.36017e-24 -9.48623e-12 -9.48623e-12)
(-4.08999e-25 1.30066e-11 -0)
(-2.1984e-26 -3.10341e-12 -3.10341e-12)
(-1.06826e-27 6.0467e-13 -0)
(-4.84828e-29 -2.16458e-13 -2.16458e-13)
(9.47639e-30 -6.57165e-14 -0)
(-8.74189e-30 -1.28566e-13 -1.28566e-13)
(-6.01954e-30 -1.05125e-13 0)
(-3.05772e-30 -8.7259e-14 -8.7259e-14)
(-1.0585e-29 -9.07034e-14 0)
(-9.06737e-30 -7.03309e-14 -7.03309e-14)
(-4.19178e-32 -6.11345e-15 0)
(1.89956e-30 -2.34538e-14 -2.34538e-14)
(1.20255e-30 -4.05501e-14 -0)
(-1.71598e-30 -3.20988e-14 -3.20988e-14)
(-8.12417e-32 -4.00559e-15 0)
(-5.40659e-30 -5.78151e-14 -5.78151e-14)
(1.07666e-30 1.91126e-14 0)
(-4.10982e-30 4.21041e-14 4.21041e-14)
(4.33002e-30 -4.6232e-14 -0)
(-4.22309e-25 5.52267e-12 5.52267e-12)
(-1.14098e-25 -6.973e-12 0)
(-7.238e-27 1.797e-12 1.797e-12)
(-1.90247e-28 -3.39017e-13 0)
(-4.22579e-29 1.15272e-13 1.15272e-13)
(2.05107e-30 -4.14792e-14 -0)
(-1.05687e-30 -2.19271e-14 -2.19271e-14)
(-2.18066e-30 -1.28408e-14 0)
(1.51913e-29 8.60175e-14 8.60175e-14)
(1.19376e-29 9.72119e-14 0)
(1.6877e-30 9.5673e-14 9.5673e-14)
(-2.58917e-30 1.24605e-13 -0)
(-1.39713e-29 9.68822e-14 9.68822e-14)
(-1.62902e-29 9.23223e-14 -0)
(-2.04683e-29 8.04951e-14 8.04951e-14)
(3.57217e-30 -2.12315e-14 -0)
(-6.24811e-31 1.48886e-14 1.48886e-14)
(-3.9509e-30 8.57311e-14 -0)
(2.11205e-30 -2.45229e-14 -2.45229e-14)
(-8.12676e-31 1.13019e-14 -0)
(-3.86321e-26 8.98437e-13 8.98437e-13)
(-3.0635e-26 -3.37456e-12 0)
(-1.91742e-27 8.69076e-13 8.69076e-13)
(-2.81775e-29 -7.2725e-14 0)
(-1.1515e-29 9.30359e-14 9.30359e-14)
(-5.97068e-32 7.41131e-14 -0)
(-5.63325e-30 1.08858e-13 1.08858e-13)
(-5.46518e-31 1.05524e-13 -0)
(-1.36729e-30 6.00031e-14 6.00031e-14)
(-3.82536e-30 6.06148e-14 -0)
(-4.66703e-30 5.37464e-14 5.37464e-14)
(-3.05078e-30 5.2175e-14 -0)
(-2.02155e-30 3.04071e-14 3.04071e-14)
(-3.47638e-30 3.79965e-14 -0)
(-6.49221e-30 3.70144e-14 3.70144e-14)
(8.88641e-31 -4.66269e-15 -0)
(6.29749e-30 -4.89048e-14 -4.89048e-14)
(-4.92817e-31 -1.79778e-14 0)
(2.70327e-31 5.29973e-15 5.29973e-15)
(-6.5044e-32 2.54229e-15 -0)
(-5.42328e-25 -4.41247e-12 -4.41247e-12)
(-2.74159e-25 1.02521e-11 -0)
(-1.58439e-26 -2.51786e-12 -2.51786e-12)
(-6.55888e-28 5.07621e-13 -0)
(-7.25808e-29 -1.79987e-13 -1.79987e-13)
(-1.76196e-30 5.13562e-14 -0)
(-6.67966e-31 6.05548e-15 6.05548e-15)
(2.91569e-30 -3.07356e-14 -0)
(8.16979e-30 -1.104e-13 -1.104e-13)
(4.26912e-30 -5.68719e-14 -0)
(5.8688e-30 -1.23856e-13 -1.23856e-13)
(-5.23328e-30 -6.60009e-14 0)
(-5.01531e-30 -7.11155e-14 -7.11155e-14)
(8.36426e-32 -3.68383e-15 -0)
(-2.64191e-30 1.61398e-14 1.61398e-14)
(1.27748e-29 -6.93891e-14 -0)
(9.91451e-31 -8.33203e-14 -8.33203e-14)
(-9.27801e-30 -8.67114e-14 0)
(3.07409e-31 7.30823e-15 7.30823e-15)
(-6.61611e-31 -1.95071e-14 0)
(-8.34486e-26 2.08546e-12 2.08546e-12)
(-2.86362e-26 -3.44271e-12 0)
(-1.73163e-27 8.39084e-13 8.39084e-13)
(-8.53017e-29 -1.81812e-13 0)
(2.4531e-30 9.63399e-14 9.63399e-14)
(3.15222e-30 6.58408e-14 0)
(-3.60454e-30 3.96783e-14 3.96783e-14)
(-1.45322e-30 1.86655e-14 -0)
(-5.01824e-31 7.7822e-14 7.7822e-14)
(-2.65659e-30 6.18899e-14 -0)
(-6.27478e-30 7.53765e-14 7.53765e-14)
(2.70304e-31 1.64196e-14 0)
(2.80156e-30 1.18667e-13 1.18667e-13)
(-4.09664e-30 4.76313e-14 -0)
(-5.20859e-30 2.86732e-14 2.86732e-14)
(-7.01129e-30 6.89483e-14 -0)
(-3.03113e-30 5.22749e-14 5.22749e-14)
(-4.6978e-30 5.70556e-14 -0)
(-1.54969e-30 1.79281e-14 1.79281e-14)
(1.83032e-31 1.94044e-14 0)
(-5.73342e-25 5.93428e-12 5.93428e-12)
(-1.80419e-25 -8.81497e-12 0)
(-9.04825e-27 1.83092e-12 1.83092e-12)
(-5.43296e-28 -5.05906e-13 0)
(-7.31535e-30 4.75342e-14 4.75342e-14)
(-3.51835e-30 -6.23125e-14 0)
(2.6093e-30 -3.58064e-14 -3.58064e-14)
(3.76356e-30 -2.95011e-14 -0)
(2.04155e-30 -4.1739e-14 -4.1739e-14)
(-1.1051e-30 -5.88879e-14 0)
(5.19266e-32 -2.43277e-14 -2.43277e-14)
(4.6171e-31 -5.12565e-14 -0)
(1.36383e-30 -4.30634e-14 -4.30634e-14)
(2.41129e-30 -2.00148e-14 -0)
(6.41596e-30 -6.25505e-14 -6.25505e-14)
(1.17811e-30 -3.17792e-14 -0)
(-2.4813e-31 4.44431e-15 4.44431e-15)
(-1.12916e-31 1.38522e-15 -0)
(2.25805e-30 -3.24046e-14 -3.24046e-14)
(1.05307e-30 -3.69253e-14 -0)
)
;

boundaryField
{
    movingWall
    {
        type            calculated;
        value           nonuniform List<vector> 
20
(
(0 1.2411e-11 -0)
(0 -1.08105e-11 -0)
(0 1.7173e-12 -0)
(0 -7.89664e-13 -0)
(0 -2.09118e-13 -0)
(0 -3.18965e-13 -0)
(0 -3.36868e-13 -0)
(0 -2.24441e-13 -0)
(0 -2.36679e-13 -0)
(0 -2.26722e-13 -0)
(0 -2.19267e-13 -0)
(0 -1.74682e-13 -0)
(0 -2.55307e-13 -0)
(0 -1.70545e-13 -0)
(0 -1.41567e-13 -0)
(0 -1.37901e-13 -0)
(0 -3.99646e-14 -0)
(0 1.38522e-15 -0)
(0 -4.97085e-14 -0)
(0 -5.42291e-14 -0)
)
;
    }
    fixedWalls
    {
        type            calculated;
        value           nonuniform List<vector> 
60
(
(0 -5.59385e-11 -0)
(0 -5.78424e-12 -0)
(0 4.69056e-11 -0)
(0 -2.94058e-11 -0)
(0 -8.67576e-12 -0)
(0 4.64829e-11 -0)
(0 -5.48366e-11 -0)
(0 1.17972e-11 -0)
(0 4.16502e-11 -0)
(0 -6.70302e-11 -0)
(0 5.7237e-11 -0)
(0 -2.98154e-11 -0)
(0 -1.05367e-11 -0)
(0 4.43184e-11 -0)
(0 -5.5646e-11 -0)
(0 3.00995e-11 -0)
(0 1.4706e-11 -0)
(0 -4.39591e-11 -0)
(0 1.49216e-11 -0)
(0 3.69656e-11 -0)
(0 1.86186e-14 -0)
(0 -2.94681e-15 -0)
(0 -5.66353e-15 -0)
(0 1.1056e-14 -0)
(0 -2.75747e-14 -0)
(0 2.16366e-14 -0)
(0 -9.16759e-15 -0)
(0 3.63663e-14 -0)
(0 2.36097e-15 -0)
(0 3.30204e-14 -0)
(0 4.94609e-14 -0)
(0 -4.87484e-14 -0)
(0 1.03469e-14 -0)
(0 -2.25795e-15 -0)
(0 -6.45685e-14 -0)
(0 -1.65735e-15 -0)
(0 -1.02339e-14 -0)
(0 -1.35385e-14 -0)
(0 3.0878e-14 -0)
(0 -3.85127e-14 -0)
(0 -1.68627e-11 -0)
(0 1.58301e-11 -0)
(0 -2.73086e-12 -0)
(0 9.84308e-13 -0)
(0 6.97972e-14 -0)
(0 2.53314e-13 -0)
(0 2.61137e-13 -0)
(0 1.83458e-13 -0)
(0 1.85925e-13 -0)
(0 2.35012e-13 -0)
(0 1.38132e-13 -0)
(0 1.60885e-13 -0)
(0 1.92695e-13 -0)
(0 1.63245e-13 -0)
(0 1.45656e-14 -0)
(0 -6.08655e-14 -0)
(0 -1.56929e-13 -0)
(0 -1.60245e-15 -0)
(0 2.81549e-14 -0)
(0 1.98947e-15 -0)
)
;
    }
    frontAndBack
    {
        type            empty;
    }
}


// ************************************************************************* //
