/*--------------------------------*- C++ -*----------------------------------*\
| =========                 |                                                 |
| \\      /  F ield         | OpenFOAM: The Open Source CFD Toolbox           |
|  \\    /   O peration     | Version:  2312                                  |
|   \\  /    A nd           | Website:  www.openfoam.com                      |
|    \\/     M anipulation  |                                                 |
\*---------------------------------------------------------------------------*/
FoamFile
{
    version     2.0;
    format      ascii;
    arch        "LSB;label=32;scalar=64";
    class       volScalarField;
    location    "9.5";
    object      Lambda2Field;
}
// * * * * * * * * * * * * * * * * * * * * * * * * * * * * * * * * * * * * * //

dimensions      [0 0 -2 0 0 0 0];

internalField   nonuniform List<scalar> 
400
(
2.22524e-23
7.26191e-24
3.72401e-25
0
4.86136e-27
-1.12865e-28
1.02288e-27
0
0
-6.71183e-28
1.82456e-29
9.12609e-28
0
7.34684e-28
1.55605e-27
6.2133e-28
1.6838e-27
6.26044e-28
0
0
6.96842e-24
1.12592e-23
7.06031e-25
3.55733e-27
2.43708e-27
-1.01099e-28
5.06404e-28
8.08446e-29
4.37157e-30
0
0
5.48152e-28
4.4334e-29
2.31811e-28
2.74295e-28
0
0
0
1.5566e-28
1.6504e-28
5.81415e-23
1.89667e-23
3.23185e-25
6.66196e-26
0
2.67626e-27
0
-1.01367e-27
4.89126e-28
-2.28283e-28
0
7.5339e-28
1.84956e-28
7.52467e-31
0
3.54266e-28
0
0
7.3776e-30
5.96235e-28
2.61785e-23
1.23015e-23
5.10112e-25
3.94612e-26
2.93874e-27
1.01535e-27
4.61571e-28
1.00235e-28
1.46696e-29
-1.46297e-29
0
4.78991e-29
6.53329e-29
2.57875e-29
3.64362e-28
4.68886e-28
1.07968e-27
0
3.76961e-28
4.02504e-28
4.87012e-24
8.25491e-24
5.64073e-25
2.04139e-26
0
0
0
-6.81873e-28
5.82901e-29
1.12076e-27
1.46509e-29
-6.29632e-28
0
-1.7075e-27
3.42032e-28
9.6343e-29
1.47403e-28
3.88564e-28
0
0
2.73817e-23
1.33353e-23
4.2433e-25
0
0
1.34865e-27
1.84682e-29
0
6.06816e-28
-5.45413e-28
1.17458e-27
4.18202e-28
3.67373e-29
0
8.04629e-28
2.65465e-28
0
1.19469e-28
0
2.11764e-29
4.16634e-23
1.5591e-23
0
6.14584e-26
0
6.35258e-28
2.32163e-28
1.60333e-28
4.51863e-28
0
3.09447e-28
0
0
8.11607e-29
2.46233e-28
0
0
0
1.43508e-28
3.50325e-28
6.17423e-24
3.35926e-24
3.13321e-25
1.39847e-27
2.39884e-27
0
3.87353e-28
0
0
-3.32579e-28
1.0283e-27
0
0
-2.74601e-28
0
-6.89874e-28
1.65669e-27
0
6.46342e-29
1.49315e-29
8.35094e-24
7.37619e-24
0
5.64258e-26
0
8.49085e-28
4.164e-28
2.96216e-28
3.31872e-28
7.03368e-28
1.53831e-28
4.29747e-28
6.74784e-28
1.49305e-29
2.30008e-27
-1.7029e-28
5.58554e-28
2.93318e-28
3.98093e-28
3.73754e-28
2.95865e-23
1.20652e-23
0
0
1.41166e-26
-2.38705e-27
1.40084e-28
3.44376e-29
5.39945e-29
-3.99489e-28
0
-6.16106e-29
0
-1.18664e-27
0
0
0
-6.00136e-28
0
0
6.22633e-24
4.47469e-24
0
-9.45631e-27
6.61216e-27
3.32537e-28
5.72575e-29
4.46345e-29
5.96063e-29
-4.51271e-29
4.23548e-28
0
1.65777e-28
2.65562e-29
7.53806e-28
0
4.04752e-28
0
3.01145e-28
8.5418e-29
0
0
1.84971e-26
6.61216e-27
0
9.78459e-28
0
0
0
2.24163e-30
1.80382e-28
-3.3983e-28
0
0
8.70055e-29
-1.13e-28
0
-6.52712e-28
0
0
2.25952e-24
7.40008e-25
1.83671e-26
6.61216e-27
2.32501e-27
5.64192e-29
0
0
7.77039e-29
2.02679e-29
0
1.87933e-28
0
0
1.32702e-27
1.24514e-30
0
1.16872e-29
3.53168e-29
7.57977e-29
1.67999e-23
6.25284e-24
1.95502e-25
6.61216e-27
4.36617e-27
0
2.56175e-28
6.10603e-29
3.59346e-28
0
6.21368e-28
2.84537e-28
0
-3.82394e-27
7.93999e-28
-9.4038e-28
0
1.24536e-28
0
5.54925e-28
2.12572e-23
9.3059e-24
0
6.28775e-26
0
1.39665e-27
0
3.5728e-28
0
-2.87236e-29
8.93188e-28
9.38199e-28
9.89671e-29
0
2.45696e-27
6.45084e-28
6.54749e-28
0
3.72025e-29
-5.18414e-28
6.03654e-24
7.6529e-24
0
1.06584e-26
0
0
0
0
0
-9.69333e-28
0
-1.7121e-27
0
-1.60363e-28
2.2103e-27
0
8.80652e-28
-3.50722e-28
4.41206e-28
4.28345e-28
1.12829e-23
8.30853e-24
3.88648e-25
2.89579e-26
8.33985e-28
5.87926e-28
0
1.01459e-27
1.2141e-27
0
7.59822e-28
1.10325e-28
6.02747e-28
-5.88409e-29
1.55992e-28
2.51366e-30
1.60763e-29
2.34346e-28
1.71345e-28
1.11984e-28
5.00496e-23
1.64423e-23
6.97161e-26
4.79562e-26
0
2.36993e-29
2.44515e-29
0
5.20036e-28
-1.4022e-28
0
0
8.29385e-28
6.34833e-28
6.55148e-29
-8.81686e-29
2.07607e-28
0
2.02269e-28
2.18206e-28
7.90637e-24
9.2836e-24
4.54098e-25
1.22749e-26
0
-5.48106e-28
0
2.28755e-28
1.01873e-27
-3.28276e-28
4.82904e-28
3.67596e-28
1.82776e-27
0
0
1.2218e-27
1.04907e-28
2.0112e-28
2.48742e-28
2.08727e-28
1.34146e-23
4.78485e-24
3.16059e-25
0
5.51557e-27
-3.30366e-28
1.58622e-27
3.5707e-28
0
-2.47747e-28
2.96138e-28
1.6067e-28
6.04265e-28
6.18531e-28
2.82553e-28
0
1.34477e-28
2.68474e-28
0
0
)
;

boundaryField
{
    movingWall
    {
        type            calculated;
        value           nonuniform List<scalar> 
20
(
0
0
5.36415e-25
0
3.16285e-26
-2.00865e-27
7.27298e-27
2.02666e-28
0
-9.8233e-28
1.35139e-27
5.37645e-28
2.97008e-27
1.99416e-27
0
-4.02836e-28
1.09539e-27
7.34684e-28
0
0
)
;
    }
    fixedWalls
    {
        type            calculated;
        value           nonuniform List<scalar> 
60
(
1.40059e-22
1.76031e-22
3.02354e-22
2.07338e-22
1.43227e-22
2.25064e-22
2.16719e-22
4.84585e-23
7.89009e-23
1.52855e-22
3.64517e-23
0
1.16045e-23
9.11202e-23
1.52283e-22
1.06936e-22
1.29862e-22
2.55943e-22
1.50671e-22
8.79485e-23
0
1.6504e-28
9.06943e-28
5.00211e-28
2.66123e-28
2.11764e-29
4.86196e-28
0
7.98678e-28
0
9.16516e-28
3.10324e-28
1.02562e-28
9.3875e-28
0
7.79607e-28
1.38167e-28
3.79985e-28
0
0
0
0
8.68001e-25
0
3.45404e-26
-6.20843e-27
2.15123e-27
-1.29688e-28
0
-2.86987e-27
8.11283e-29
3.49115e-27
6.51694e-27
3.29098e-27
2.93874e-27
3.80986e-27
3.67831e-27
2.15274e-27
7.21825e-28
0
)
;
    }
    frontAndBack
    {
        type            empty;
    }
}


// ************************************************************************* //
