/*--------------------------------*- C++ -*----------------------------------*\
| =========                 |                                                 |
| \\      /  F ield         | OpenFOAM: The Open Source CFD Toolbox           |
|  \\    /   O peration     | Version:  2312                                  |
|   \\  /    A nd           | Website:  www.openfoam.com                      |
|    \\/     M anipulation  |                                                 |
\*---------------------------------------------------------------------------*/
FoamFile
{
    version     2.0;
    format      ascii;
    arch        "LSB;label=32;scalar=64";
    class       volScalarField;
    location    "9.5";
    object      magSqrP;
}
// * * * * * * * * * * * * * * * * * * * * * * * * * * * * * * * * * * * * * //

dimensions      [0 4 -4 0 0 0 0];

internalField   nonuniform List<scalar> 
400
(
0
8.10882e-30
1.28682e-30
7.95578e-31
2.85144e-31
2.12973e-31
1.57311e-31
4.36096e-32
0
0
0
0
0
0
0
0
0
0
0
0
1.98766e-30
0
7.74345e-31
3.10263e-31
4.79391e-31
2.88545e-31
1.06075e-31
1.19612e-33
0
0
0
0
0
0
0
0
0
0
0
0
5.00779e-31
2.02665e-30
3.49371e-31
7.77951e-31
5.72838e-31
2.017e-31
3.10342e-32
1.24465e-32
0
0
0
0
0
0
0
0
0
0
0
0
8.36065e-32
3.29912e-30
6.71637e-31
5.82942e-31
3.52962e-31
1.57397e-31
1.72087e-32
7.38095e-33
0
0
0
0
0
0
0
0
0
0
0
0
1.41163e-30
0
7.63809e-31
3.0861e-31
3.14499e-31
5.96993e-32
8.6504e-33
0
0
0
0
0
0
0
0
0
0
0
0
0
4.38408e-31
1.84572e-30
9.2289e-31
6.85887e-31
2.91714e-31
7.19656e-32
6.02079e-33
0
0
0
0
0
0
0
0
0
0
0
0
0
9.64917e-31
8.21156e-30
4.67167e-31
6.25549e-31
1.71059e-31
5.28886e-32
2.02959e-32
0
0
0
0
0
0
0
0
0
0
0
0
0
4.90812e-30
0
6.25974e-31
3.0473e-31
1.80625e-31
3.33801e-33
0
0
0
0
0
0
0
0
0
0
0
0
0
0
7.3827e-31
1.10148e-29
6.19067e-31
4.04856e-31
1.50819e-31
5.5269e-32
3.69586e-33
0
0
0
0
0
0
0
0
0
0
0
0
0
6.47363e-31
2.28619e-32
4.74121e-31
2.65771e-31
1.67926e-31
1.10466e-31
6.70899e-32
7.16221e-33
0
0
0
0
0
0
0
0
0
0
0
0
6.89097e-31
0
3.49536e-31
2.23428e-31
8.03623e-32
1.73397e-31
2.38741e-31
6.3923e-32
5.15566e-34
0
0
0
0
0
0
0
0
0
0
0
1.21079e-31
1.08847e-29
1.32577e-31
5.73057e-31
5.6461e-32
8.422e-32
2.0625e-31
5.63888e-32
0
0
0
0
0
0
0
0
0
0
0
0
6.36669e-31
0
2.01536e-31
8.75916e-32
2.13994e-31
4.47023e-32
1.87289e-31
7.30267e-32
0
0
0
0
0
0
0
0
0
0
0
0
5.90332e-32
8.52444e-30
5.36441e-32
2.3793e-31
1.16306e-31
4.12908e-32
6.35989e-32
4.17129e-32
0
0
0
0
0
0
0
0
0
0
0
0
4.75399e-31
0
4.46871e-31
1.12126e-31
1.05772e-31
3.41659e-32
1.71691e-32
2.75599e-33
0
0
0
0
0
0
0
0
0
0
0
0
1.21136e-30
0
3.87147e-31
1.6267e-31
2.36679e-31
4.29538e-32
1.40529e-32
2.62375e-33
0
0
0
0
0
0
0
0
0
0
0
0
0
6.26325e-30
7.23457e-31
7.63689e-31
2.99043e-31
8.40398e-32
5.81812e-33
0
0
0
0
0
0
0
0
0
0
0
0
0
3.38949e-31
4.46953e-31
5.48118e-31
3.80295e-31
3.22069e-31
1.18061e-31
4.09674e-32
0
0
0
0
0
0
0
0
0
0
0
0
0
1.31857e-30
0
4.82873e-31
2.40793e-31
4.17736e-31
1.31793e-31
6.30472e-32
0
0
0
0
0
0
0
0
0
0
0
0
0
0
5.50156e-30
4.60335e-31
3.96796e-31
2.00834e-31
1.16001e-31
4.43439e-32
1.60331e-33
0
0
0
0
0
0
0
0
0
0
0
0
)
;

boundaryField
{
    movingWall
    {
        type            calculated;
        value           nonuniform List<scalar> 
20
(
0
5.50156e-30
4.60335e-31
3.96796e-31
2.00834e-31
1.16001e-31
4.43439e-32
1.60331e-33
0
0
0
0
0
0
0
0
0
0
0
0
)
;
    }
    fixedWalls
    {
        type            calculated;
        value           nonuniform List<scalar> 
60
(
0
1.98766e-30
5.00779e-31
8.36065e-32
1.41163e-30
4.38408e-31
9.64917e-31
4.90812e-30
7.3827e-31
6.47363e-31
6.89097e-31
1.21079e-31
6.36669e-31
5.90332e-32
4.75399e-31
1.21136e-30
0
3.38949e-31
1.31857e-30
0
0
0
0
0
0
0
0
0
0
0
0
0
0
0
0
0
0
0
0
0
0
8.10882e-30
1.28682e-30
7.95578e-31
2.85144e-31
2.12973e-31
1.57311e-31
4.36096e-32
0
0
0
0
0
0
0
0
0
0
0
0
)
;
    }
    frontAndBack
    {
        type            empty;
    }
}


// ************************************************************************* //
