/*--------------------------------*- C++ -*----------------------------------*\
| =========                 |                                                 |
| \\      /  F ield         | OpenFOAM: The Open Source CFD Toolbox           |
|  \\    /   O peration     | Version:  2312                                  |
|   \\  /    A nd           | Website:  www.openfoam.com                      |
|    \\/     M anipulation  |                                                 |
\*---------------------------------------------------------------------------*/
FoamFile
{
    version     2.0;
    format      ascii;
    arch        "LSB;label=32;scalar=64";
    class       volVectorField;
    location    "9.5";
    object      momentum1:momentum;
}
// * * * * * * * * * * * * * * * * * * * * * * * * * * * * * * * * * * * * * //

dimensions      [1 1 -1 0 0 0 0];

internalField   nonuniform List<vector> 
400
(
(-2.5e-07 3.61474e-20 0)
(-2.5e-07 -7.75738e-21 0)
(-2.5e-07 1.90114e-21 0)
(-2.5e-07 -3.75112e-22 0)
(-2.5e-07 1.06504e-22 0)
(-2.5e-07 5.5066e-24 0)
(-2.5e-07 2.83316e-23 0)
(-2.5e-07 1.87973e-23 0)
(-2.5e-07 1.37761e-23 0)
(-2.5e-07 -1.92707e-24 0)
(-2.5e-07 -1.86428e-23 0)
(-2.5e-07 -1.4191e-23 0)
(-2.5e-07 2.32351e-23 0)
(-2.5e-07 5.91832e-23 0)
(-2.5e-07 5.92117e-23 0)
(-2.5e-07 2.27692e-23 0)
(-2.5e-07 -1.06691e-23 0)
(-2.5e-07 -2.89985e-23 0)
(-2.5e-07 -6.66294e-24 0)
(-2.5e-07 1.16366e-23 0)
(-2.5e-07 4.14031e-21 0)
(-2.5e-07 -7.21736e-22 0)
(-2.5e-07 2.76586e-22 0)
(-2.5e-07 -2.72919e-23 0)
(-2.5e-07 -5.17201e-24 0)
(-2.5e-07 -4.15685e-24 0)
(-2.5e-07 4.53479e-24 0)
(-2.5e-07 -9.09644e-24 0)
(-2.5e-07 -9.36457e-24 0)
(-2.5e-07 -1.21684e-23 0)
(-2.5e-07 9.90013e-24 0)
(-2.5e-07 1.951e-23 0)
(-2.5e-07 1.45191e-23 0)
(-2.5e-07 2.04459e-23 0)
(-2.5e-07 3.771e-23 0)
(-2.5e-07 3.95471e-23 0)
(-2.5e-07 -6.34128e-24 0)
(-2.5e-07 -3.35537e-23 0)
(-2.5e-07 -1.84329e-23 0)
(-2.5e-07 -1.84175e-24 0)
(-2.5e-07 -3.28566e-20 0)
(-2.5e-07 7.23744e-21 0)
(-2.5e-07 -1.64624e-21 0)
(-2.5e-07 3.95171e-22 0)
(-2.5e-07 -1.10101e-22 0)
(-2.5e-07 -3.11186e-23 0)
(-2.5e-07 -2.78727e-23 0)
(-2.5e-07 -3.68111e-24 0)
(-2.5e-07 8.77979e-24 0)
(-2.5e-07 7.64323e-24 0)
(-2.5e-07 4.13397e-23 0)
(-2.5e-07 4.94638e-23 0)
(-2.5e-07 6.59577e-24 0)
(-2.5e-07 -1.6765e-23 0)
(-2.5e-07 1.89236e-23 0)
(-2.5e-07 4.90588e-23 0)
(-2.5e-07 3.22027e-23 0)
(-2.5e-07 -7.97397e-24 0)
(-2.5e-07 -3.3523e-23 0)
(-2.5e-07 -2.04804e-23 0)
(-2.5e-07 2.05979e-20 0)
(-2.5e-07 -4.48825e-21 0)
(-2.5e-07 1.05146e-21 0)
(-2.5e-07 -1.9671e-22 0)
(-2.5e-07 7.86669e-23 0)
(-2.5e-07 -8.86498e-25 0)
(-2.5e-07 1.38794e-23 0)
(-2.5e-07 2.43037e-23 0)
(-2.5e-07 1.32617e-23 0)
(-2.5e-07 1.57525e-23 0)
(-2.5e-07 2.00181e-23 0)
(-2.5e-07 2.56274e-23 0)
(-2.5e-07 2.22271e-23 0)
(-2.5e-07 2.26145e-23 0)
(-2.5e-07 1.59437e-23 0)
(-2.5e-07 -7.50784e-24 0)
(-2.5e-07 -8.57174e-24 0)
(-2.5e-07 -1.21829e-23 0)
(-2.5e-07 -2.108e-23 0)
(-2.5e-07 -1.00306e-23 0)
(-2.5e-07 5.30377e-21 0)
(-2.5e-07 -1.16894e-21 0)
(-2.5e-07 2.43009e-22 0)
(-2.5e-07 -6.95793e-23 0)
(-2.5e-07 5.42258e-23 0)
(-2.5e-07 4.85427e-23 0)
(-2.5e-07 3.28758e-23 0)
(-2.5e-07 2.13482e-23 0)
(-2.5e-07 2.12176e-25 0)
(-2.5e-07 3.63526e-23 0)
(-2.5e-07 5.1898e-23 0)
(-2.5e-07 3.6803e-23 0)
(-2.5e-07 1.56397e-23 0)
(-2.5e-07 -4.06961e-24 0)
(-2.5e-07 -2.63579e-23 0)
(-2.5e-07 -2.21775e-23 0)
(-2.5e-07 -1.74719e-23 0)
(-2.5e-07 -7.92976e-24 0)
(-2.5e-07 1.51572e-25 0)
(-2.5e-07 -2.93549e-25 0)
(-2.5e-07 -3.05934e-20 0)
(-2.5e-07 6.70071e-21 0)
(-2.5e-07 -1.51415e-21 0)
(-2.5e-07 3.60243e-22 0)
(-2.5e-07 -5.61653e-23 0)
(-2.5e-07 3.56198e-23 0)
(-2.5e-07 2.50972e-23 0)
(-2.5e-07 3.73232e-23 0)
(-2.5e-07 3.08125e-23 0)
(-2.5e-07 -7.09914e-25 0)
(-2.5e-07 -1.01402e-23 0)
(-2.5e-07 -5.65702e-24 0)
(-2.5e-07 1.19633e-23 0)
(-2.5e-07 -4.06091e-24 0)
(-2.5e-07 -2.87935e-23 0)
(-2.5e-07 -7.28657e-24 0)
(-2.5e-07 2.09328e-23 0)
(-2.5e-07 3.70972e-23 0)
(-2.5e-07 2.30665e-23 0)
(-2.5e-07 1.35229e-23 0)
(-2.5e-07 3.65429e-20 0)
(-2.5e-07 -7.99499e-21 0)
(-2.5e-07 1.89245e-21 0)
(-2.5e-07 -4.17836e-22 0)
(-2.5e-07 9.32875e-23 0)
(-2.5e-07 -5.51737e-24 0)
(-2.5e-07 3.46954e-23 0)
(-2.5e-07 1.76573e-23 0)
(-2.5e-07 3.78475e-23 0)
(-2.5e-07 -9.92158e-24 0)
(-2.5e-07 -2.78182e-23 0)
(-2.5e-07 -1.43219e-23 0)
(-2.5e-07 5.07894e-25 0)
(-2.5e-07 -3.97058e-24 0)
(-2.5e-07 4.95817e-24 0)
(-2.5e-07 1.85552e-23 0)
(-2.5e-07 2.01247e-23 0)
(-2.5e-07 2.19243e-23 0)
(-2.5e-07 2.11009e-23 0)
(-2.5e-07 1.12109e-23 0)
(-2.5e-07 -8.72852e-21 0)
(-2.5e-07 1.94893e-21 0)
(-2.5e-07 -5.08614e-22 0)
(-2.5e-07 8.5851e-23 0)
(-2.5e-07 -2.77357e-23 0)
(-2.5e-07 1.20998e-23 0)
(-2.5e-07 5.63888e-24 0)
(-2.5e-07 -5.7637e-24 0)
(-2.5e-07 7.32539e-24 0)
(-2.5e-07 2.83639e-23 0)
(-2.5e-07 1.50028e-23 0)
(-2.5e-07 1.93367e-23 0)
(-2.5e-07 1.70593e-23 0)
(-2.5e-07 2.92614e-23 0)
(-2.5e-07 4.80893e-23 0)
(-2.5e-07 2.59405e-23 0)
(-2.5e-07 -1.2655e-23 0)
(-2.5e-07 -3.08231e-23 0)
(-2.5e-07 -6.3993e-24 0)
(-2.5e-07 5.78827e-24 0)
(-2.5e-07 -2.65565e-20 0)
(-2.5e-07 5.75184e-21 0)
(-2.5e-07 -1.36897e-21 0)
(-2.5e-07 3.16561e-22 0)
(-2.5e-07 -6.78809e-23 0)
(-2.5e-07 -1.39122e-23 0)
(-2.5e-07 -4.17762e-23 0)
(-2.5e-07 -2.36977e-23 0)
(-2.5e-07 -3.26691e-23 0)
(-2.5e-07 -8.39279e-24 0)
(-2.5e-07 -1.10444e-23 0)
(-2.5e-07 -4.84568e-24 0)
(-2.5e-07 2.01622e-24 0)
(-2.5e-07 1.59003e-23 0)
(-2.5e-07 -8.75941e-24 0)
(-2.5e-07 -4.40601e-23 0)
(-2.5e-07 -5.0494e-23 0)
(-2.5e-07 -1.83013e-23 0)
(-2.5e-07 1.28023e-23 0)
(-2.5e-07 1.84163e-23 0)
(-2.5e-07 4.32661e-20 0)
(-2.5e-07 -9.61728e-21 0)
(-2.5e-07 2.25375e-21 0)
(-2.5e-07 -4.82427e-22 0)
(-2.5e-07 1.19742e-22 0)
(-2.5e-07 -4.84187e-23 0)
(-2.5e-07 -2.4222e-23 0)
(-2.5e-07 -8.98276e-24 0)
(-2.5e-07 -2.10457e-23 0)
(-2.5e-07 -4.00265e-24 0)
(-2.5e-07 1.63759e-23 0)
(-2.5e-07 2.48915e-23 0)
(-2.5e-07 1.06694e-23 0)
(-2.5e-07 -1.85284e-23 0)
(-2.5e-07 -4.80345e-23 0)
(-2.5e-07 -3.89416e-23 0)
(-2.5e-07 -2.74167e-23 0)
(-2.5e-07 1.19932e-23 0)
(-2.5e-07 3.41409e-23 0)
(-2.5e-07 2.06377e-23 0)
(-2.5e-07 -3.61119e-20 0)
(-2.5e-07 7.97067e-21 0)
(-2.5e-07 -1.85097e-21 0)
(-2.5e-07 4.22914e-22 0)
(-2.5e-07 -6.66652e-23 0)
(-2.5e-07 3.07224e-23 0)
(-2.5e-07 -1.97143e-23 0)
(-2.5e-07 -1.39158e-23 0)
(-2.5e-07 -1.14367e-23 0)
(-2.5e-07 -1.46363e-23 0)
(-2.5e-07 -1.7706e-23 0)
(-2.5e-07 -3.57104e-24 0)
(-2.5e-07 1.41871e-23 0)
(-2.5e-07 -7.32441e-24 0)
(-2.5e-07 -3.2163e-23 0)
(-2.5e-07 -1.44898e-23 0)
(-2.5e-07 5.38639e-25 0)
(-2.5e-07 -4.04044e-25 0)
(-2.5e-07 -9.70981e-25 0)
(-2.5e-07 -2.96823e-24 0)
(-2.5e-07 1.82619e-20 0)
(-2.5e-07 -4.01654e-21 0)
(-2.5e-07 9.18664e-22 0)
(-2.5e-07 -2.33817e-22 0)
(-2.5e-07 2.38127e-23 0)
(-2.5e-07 -2.82975e-24 0)
(-2.5e-07 -9.24952e-24 0)
(-2.5e-07 -2.5685e-23 0)
(-2.5e-07 -1.7478e-24 0)
(-2.5e-07 -1.59518e-23 0)
(-2.5e-07 -2.65604e-23 0)
(-2.5e-07 -1.89604e-23 0)
(-2.5e-07 7.23267e-24 0)
(-2.5e-07 -5.64524e-24 0)
(-2.5e-07 9.4784e-24 0)
(-2.5e-07 2.42237e-23 0)
(-2.5e-07 2.23838e-23 0)
(-2.5e-07 -1.6012e-23 0)
(-2.5e-07 -9.22394e-24 0)
(-2.5e-07 3.41358e-24 0)
(-2.5e-07 7.21224e-21 0)
(-2.5e-07 -1.66945e-21 0)
(-2.5e-07 3.9365e-22 0)
(-2.5e-07 -9.26763e-23 0)
(-2.5e-07 -1.10999e-23 0)
(-2.5e-07 -9.7078e-24 0)
(-2.5e-07 7.57028e-24 0)
(-2.5e-07 -5.22006e-24 0)
(-2.5e-07 -8.6782e-24 0)
(-2.5e-07 -1.08933e-23 0)
(-2.5e-07 -8.81138e-24 0)
(-2.5e-07 -1.64538e-23 0)
(-2.5e-07 -5.32042e-24 0)
(-2.5e-07 -1.7709e-24 0)
(-2.5e-07 2.08474e-23 0)
(-2.5e-07 1.78021e-23 0)
(-2.5e-07 -1.04019e-23 0)
(-2.5e-07 -1.46938e-23 0)
(-2.5e-07 -5.48024e-24 0)
(-2.5e-07 6.46684e-24 0)
(-2.5e-07 -2.8834e-20 0)
(-2.5e-07 6.33893e-21 0)
(-2.5e-07 -1.49204e-21 0)
(-2.5e-07 3.50894e-22 0)
(-2.5e-07 -7.02688e-23 0)
(-2.5e-07 1.59484e-23 0)
(-2.5e-07 1.43206e-23 0)
(-2.5e-07 5.93708e-24 0)
(-2.5e-07 -2.36019e-23 0)
(-2.5e-07 -2.72068e-23 0)
(-2.5e-07 -1.7942e-23 0)
(-2.5e-07 -5.32325e-23 0)
(-2.5e-07 -3.10639e-23 0)
(-2.5e-07 2.60016e-23 0)
(-2.5e-07 5.72275e-23 0)
(-2.5e-07 2.1434e-23 0)
(-2.5e-07 -2.00212e-23 0)
(-2.5e-07 -7.46535e-24 0)
(-2.5e-07 -1.9654e-23 0)
(-2.5e-07 -1.83519e-23 0)
(-2.5e-07 3.5846e-20 0)
(-2.5e-07 -7.86137e-21 0)
(-2.5e-07 1.77096e-21 0)
(-2.5e-07 -4.4167e-22 0)
(-2.5e-07 5.59955e-23 0)
(-2.5e-07 -3.60503e-23 0)
(-2.5e-07 1.69988e-23 0)
(-2.5e-07 1.43152e-23 0)
(-2.5e-07 8.76047e-24 0)
(-2.5e-07 2.91748e-23 0)
(-2.5e-07 3.22311e-23 0)
(-2.5e-07 1.71416e-24 0)
(-2.5e-07 -2.02479e-23 0)
(-2.5e-07 -7.41394e-24 0)
(-2.5e-07 1.33648e-23 0)
(-2.5e-07 5.07053e-24 0)
(-2.5e-07 2.33788e-23 0)
(-2.5e-07 1.40831e-23 0)
(-2.5e-07 -2.44027e-23 0)
(-2.5e-07 -2.34146e-23 0)
(-2.5e-07 -1.91171e-20 0)
(-2.5e-07 4.0907e-21 0)
(-2.5e-07 -1.00695e-21 0)
(-2.5e-07 1.40293e-22 0)
(-2.5e-07 -9.16481e-23 0)
(-2.5e-07 -1.2362e-23 0)
(-2.5e-07 1.20498e-23 0)
(-2.5e-07 4.24557e-23 0)
(-2.5e-07 4.41519e-23 0)
(-2.5e-07 3.06998e-23 0)
(-2.5e-07 4.41007e-24 0)
(-2.5e-07 -5.19476e-24 0)
(-2.5e-07 -3.60523e-23 0)
(-2.5e-07 -4.41123e-23 0)
(-2.5e-07 -6.35701e-23 0)
(-2.5e-07 -4.20622e-23 0)
(-2.5e-07 -1.04914e-23 0)
(-2.5e-07 -1.15212e-23 0)
(-2.5e-07 -2.15313e-23 0)
(-2.5e-07 -1.79765e-23 0)
(-2.5e-07 -1.07498e-20 0)
(-2.5e-07 2.26955e-21 0)
(-2.5e-07 -5.51568e-22 0)
(-2.5e-07 9.68631e-23 0)
(-2.5e-07 -3.09423e-23 0)
(-2.5e-07 -2.01404e-25 0)
(-2.5e-07 -1.29372e-23 0)
(-2.5e-07 -1.29477e-24 0)
(-2.5e-07 -5.69676e-24 0)
(-2.5e-07 -1.57773e-23 0)
(-2.5e-07 -2.17086e-23 0)
(-2.5e-07 -1.4618e-23 0)
(-2.5e-07 -1.66207e-23 0)
(-2.5e-07 -2.28731e-23 0)
(-2.5e-07 -4.38493e-23 0)
(-2.5e-07 -4.76463e-23 0)
(-2.5e-07 -3.21926e-23 0)
(-2.5e-07 6.85313e-24 0)
(-2.5e-07 1.27519e-23 0)
(-2.5e-07 -6.3962e-24 0)
(-2.5e-07 3.0727e-20 0)
(-2.5e-07 -6.68543e-21 0)
(-2.5e-07 1.57315e-21 0)
(-2.5e-07 -3.23021e-22 0)
(-2.5e-07 1.00814e-22 0)
(-2.5e-07 -8.57715e-24 0)
(-2.5e-07 -2.75769e-23 0)
(-2.5e-07 -2.37159e-23 0)
(-2.5e-07 -1.85004e-23 0)
(-2.5e-07 -1.87664e-23 0)
(-2.5e-07 -1.1846e-23 0)
(-2.5e-07 1.98228e-23 0)
(-2.5e-07 1.76309e-23 0)
(-2.5e-07 -5.67633e-24 0)
(-2.5e-07 -4.09222e-23 0)
(-2.5e-07 -4.60259e-23 0)
(-2.5e-07 -2.97482e-24 0)
(-2.5e-07 2.67497e-23 0)
(-2.5e-07 1.05158e-23 0)
(-2.5e-07 8.47911e-24 0)
(-2.5e-07 -1.00036e-20 0)
(-2.5e-07 2.07948e-21 0)
(-2.5e-07 -5.15928e-22 0)
(-2.5e-07 1.17294e-22 0)
(-2.5e-07 6.36573e-24 0)
(-2.5e-07 1.19691e-23 0)
(-2.5e-07 -2.2711e-23 0)
(-2.5e-07 -1.9464e-23 0)
(-2.5e-07 -1.61209e-24 0)
(-2.5e-07 -1.07311e-23 0)
(-2.5e-07 -2.08115e-23 0)
(-2.5e-07 4.11556e-24 0)
(-2.5e-07 5.90214e-24 0)
(-2.5e-07 -2.15018e-23 0)
(-2.5e-07 -4.54134e-23 0)
(-2.5e-07 -2.54223e-23 0)
(-2.5e-07 -1.44961e-23 0)
(-2.5e-07 -2.05843e-23 0)
(-2.5e-07 -2.16098e-23 0)
(-2.5e-07 2.35812e-24 0)
(-2.5e-07 -2.41538e-20 0)
(-2.5e-07 5.11684e-21 0)
(-2.5e-07 -1.23548e-21 0)
(-2.5e-07 2.68477e-22 0)
(-2.5e-07 -3.84741e-23 0)
(-2.5e-07 1.41158e-23 0)
(-2.5e-07 -1.82181e-23 0)
(-2.5e-07 -3.18934e-23 0)
(-2.5e-07 -1.22281e-23 0)
(-2.5e-07 4.69155e-24 0)
(-2.5e-07 -5.33617e-25 0)
(-2.5e-07 -2.25196e-24 0)
(-2.5e-07 -7.91758e-24 0)
(-2.5e-07 -3.01188e-23 0)
(-2.5e-07 -2.56431e-23 0)
(-2.5e-07 -9.2679e-24 0)
(-2.5e-07 -1.39577e-23 0)
(-2.5e-07 -2.03787e-23 0)
(-2.5e-07 -1.74208e-23 0)
(-2.5e-07 -7.12977e-24 0)
)
;

boundaryField
{
    movingWall
    {
        type            calculated;
        value           uniform (0 0 0);
    }
    fixedWalls
    {
        type            calculated;
        value           uniform (0 0 0);
    }
    frontAndBack
    {
        type            empty;
    }
}


// ************************************************************************* //
