/*--------------------------------*- C++ -*----------------------------------*\
| =========                 |                                                 |
| \\      /  F ield         | OpenFOAM: The Open Source CFD Toolbox           |
|  \\    /   O peration     | Version:  2312                                  |
|   \\  /    A nd           | Website:  www.openfoam.com                      |
|    \\/     M anipulation  |                                                 |
\*---------------------------------------------------------------------------*/
FoamFile
{
    version     2.0;
    format      ascii;
    arch        "LSB;label=32;scalar=64";
    class       volVectorField;
    location    "9.5";
    object      norm_U_L1;
}
// * * * * * * * * * * * * * * * * * * * * * * * * * * * * * * * * * * * * * //

dimensions      [0 0 0 0 0 0 0];

internalField   nonuniform List<vector> 
400
(
(-0.0025 3.61474e-16 0)
(-0.0025 -7.75738e-17 0)
(-0.0025 1.90114e-17 0)
(-0.0025 -3.75112e-18 0)
(-0.0025 1.06504e-18 0)
(-0.0025 5.5066e-20 0)
(-0.0025 2.83316e-19 0)
(-0.0025 1.87973e-19 0)
(-0.0025 1.37761e-19 0)
(-0.0025 -1.92707e-20 0)
(-0.0025 -1.86428e-19 0)
(-0.0025 -1.4191e-19 0)
(-0.0025 2.32351e-19 0)
(-0.0025 5.91832e-19 0)
(-0.0025 5.92117e-19 0)
(-0.0025 2.27692e-19 0)
(-0.0025 -1.06691e-19 0)
(-0.0025 -2.89985e-19 0)
(-0.0025 -6.66294e-20 0)
(-0.0025 1.16366e-19 0)
(-0.0025 4.14031e-17 0)
(-0.0025 -7.21736e-18 0)
(-0.0025 2.76586e-18 0)
(-0.0025 -2.72919e-19 0)
(-0.0025 -5.17201e-20 0)
(-0.0025 -4.15685e-20 0)
(-0.0025 4.53479e-20 0)
(-0.0025 -9.09644e-20 0)
(-0.0025 -9.36457e-20 0)
(-0.0025 -1.21684e-19 0)
(-0.0025 9.90013e-20 0)
(-0.0025 1.951e-19 0)
(-0.0025 1.45191e-19 0)
(-0.0025 2.04459e-19 0)
(-0.0025 3.771e-19 0)
(-0.0025 3.95471e-19 0)
(-0.0025 -6.34128e-20 0)
(-0.0025 -3.35537e-19 0)
(-0.0025 -1.84329e-19 0)
(-0.0025 -1.84175e-20 0)
(-0.0025 -3.28566e-16 0)
(-0.0025 7.23744e-17 0)
(-0.0025 -1.64624e-17 0)
(-0.0025 3.95171e-18 0)
(-0.0025 -1.10101e-18 0)
(-0.0025 -3.11186e-19 0)
(-0.0025 -2.78727e-19 0)
(-0.0025 -3.68111e-20 0)
(-0.0025 8.77979e-20 0)
(-0.0025 7.64323e-20 0)
(-0.0025 4.13397e-19 0)
(-0.0025 4.94638e-19 0)
(-0.0025 6.59577e-20 0)
(-0.0025 -1.6765e-19 0)
(-0.0025 1.89236e-19 0)
(-0.0025 4.90588e-19 0)
(-0.0025 3.22027e-19 0)
(-0.0025 -7.97397e-20 0)
(-0.0025 -3.3523e-19 0)
(-0.0025 -2.04804e-19 0)
(-0.0025 2.05979e-16 0)
(-0.0025 -4.48825e-17 0)
(-0.0025 1.05146e-17 0)
(-0.0025 -1.9671e-18 0)
(-0.0025 7.86669e-19 0)
(-0.0025 -8.86498e-21 0)
(-0.0025 1.38794e-19 0)
(-0.0025 2.43037e-19 0)
(-0.0025 1.32617e-19 0)
(-0.0025 1.57525e-19 0)
(-0.0025 2.00181e-19 0)
(-0.0025 2.56274e-19 0)
(-0.0025 2.22271e-19 0)
(-0.0025 2.26145e-19 0)
(-0.0025 1.59437e-19 0)
(-0.0025 -7.50784e-20 0)
(-0.0025 -8.57174e-20 0)
(-0.0025 -1.21829e-19 0)
(-0.0025 -2.108e-19 0)
(-0.0025 -1.00306e-19 0)
(-0.0025 5.30377e-17 0)
(-0.0025 -1.16894e-17 0)
(-0.0025 2.43009e-18 0)
(-0.0025 -6.95793e-19 0)
(-0.0025 5.42258e-19 0)
(-0.0025 4.85427e-19 0)
(-0.0025 3.28758e-19 0)
(-0.0025 2.13482e-19 0)
(-0.0025 2.12176e-21 0)
(-0.0025 3.63526e-19 0)
(-0.0025 5.1898e-19 0)
(-0.0025 3.6803e-19 0)
(-0.0025 1.56397e-19 0)
(-0.0025 -4.06961e-20 0)
(-0.0025 -2.63579e-19 0)
(-0.0025 -2.21775e-19 0)
(-0.0025 -1.74719e-19 0)
(-0.0025 -7.92976e-20 0)
(-0.0025 1.51572e-21 0)
(-0.0025 -2.93549e-21 0)
(-0.0025 -3.05934e-16 0)
(-0.0025 6.70071e-17 0)
(-0.0025 -1.51415e-17 0)
(-0.0025 3.60243e-18 0)
(-0.0025 -5.61653e-19 0)
(-0.0025 3.56198e-19 0)
(-0.0025 2.50972e-19 0)
(-0.0025 3.73232e-19 0)
(-0.0025 3.08125e-19 0)
(-0.0025 -7.09914e-21 0)
(-0.0025 -1.01402e-19 0)
(-0.0025 -5.65702e-20 0)
(-0.0025 1.19633e-19 0)
(-0.0025 -4.06091e-20 0)
(-0.0025 -2.87935e-19 0)
(-0.0025 -7.28657e-20 0)
(-0.0025 2.09328e-19 0)
(-0.0025 3.70972e-19 0)
(-0.0025 2.30665e-19 0)
(-0.0025 1.35229e-19 0)
(-0.0025 3.65429e-16 0)
(-0.0025 -7.99499e-17 0)
(-0.0025 1.89245e-17 0)
(-0.0025 -4.17836e-18 0)
(-0.0025 9.32875e-19 0)
(-0.0025 -5.51737e-20 0)
(-0.0025 3.46954e-19 0)
(-0.0025 1.76573e-19 0)
(-0.0025 3.78475e-19 0)
(-0.0025 -9.92158e-20 0)
(-0.0025 -2.78182e-19 0)
(-0.0025 -1.43219e-19 0)
(-0.0025 5.07894e-21 0)
(-0.0025 -3.97058e-20 0)
(-0.0025 4.95817e-20 0)
(-0.0025 1.85552e-19 0)
(-0.0025 2.01247e-19 0)
(-0.0025 2.19243e-19 0)
(-0.0025 2.11009e-19 0)
(-0.0025 1.12109e-19 0)
(-0.0025 -8.72852e-17 0)
(-0.0025 1.94893e-17 0)
(-0.0025 -5.08614e-18 0)
(-0.0025 8.5851e-19 0)
(-0.0025 -2.77357e-19 0)
(-0.0025 1.20998e-19 0)
(-0.0025 5.63888e-20 0)
(-0.0025 -5.7637e-20 0)
(-0.0025 7.32539e-20 0)
(-0.0025 2.83639e-19 0)
(-0.0025 1.50028e-19 0)
(-0.0025 1.93367e-19 0)
(-0.0025 1.70593e-19 0)
(-0.0025 2.92614e-19 0)
(-0.0025 4.80893e-19 0)
(-0.0025 2.59405e-19 0)
(-0.0025 -1.2655e-19 0)
(-0.0025 -3.08231e-19 0)
(-0.0025 -6.3993e-20 0)
(-0.0025 5.78827e-20 0)
(-0.0025 -2.65565e-16 0)
(-0.0025 5.75184e-17 0)
(-0.0025 -1.36897e-17 0)
(-0.0025 3.16561e-18 0)
(-0.0025 -6.78809e-19 0)
(-0.0025 -1.39122e-19 0)
(-0.0025 -4.17762e-19 0)
(-0.0025 -2.36977e-19 0)
(-0.0025 -3.26691e-19 0)
(-0.0025 -8.39279e-20 0)
(-0.0025 -1.10444e-19 0)
(-0.0025 -4.84568e-20 0)
(-0.0025 2.01622e-20 0)
(-0.0025 1.59003e-19 0)
(-0.0025 -8.75941e-20 0)
(-0.0025 -4.40601e-19 0)
(-0.0025 -5.0494e-19 0)
(-0.0025 -1.83013e-19 0)
(-0.0025 1.28023e-19 0)
(-0.0025 1.84163e-19 0)
(-0.0025 4.32661e-16 0)
(-0.0025 -9.61728e-17 0)
(-0.0025 2.25375e-17 0)
(-0.0025 -4.82427e-18 0)
(-0.0025 1.19742e-18 0)
(-0.0025 -4.84187e-19 0)
(-0.0025 -2.4222e-19 0)
(-0.0025 -8.98276e-20 0)
(-0.0025 -2.10457e-19 0)
(-0.0025 -4.00265e-20 0)
(-0.0025 1.63759e-19 0)
(-0.0025 2.48915e-19 0)
(-0.0025 1.06694e-19 0)
(-0.0025 -1.85284e-19 0)
(-0.0025 -4.80345e-19 0)
(-0.0025 -3.89416e-19 0)
(-0.0025 -2.74167e-19 0)
(-0.0025 1.19932e-19 0)
(-0.0025 3.41409e-19 0)
(-0.0025 2.06377e-19 0)
(-0.0025 -3.61119e-16 0)
(-0.0025 7.97067e-17 0)
(-0.0025 -1.85097e-17 0)
(-0.0025 4.22914e-18 0)
(-0.0025 -6.66652e-19 0)
(-0.0025 3.07224e-19 0)
(-0.0025 -1.97143e-19 0)
(-0.0025 -1.39158e-19 0)
(-0.0025 -1.14367e-19 0)
(-0.0025 -1.46363e-19 0)
(-0.0025 -1.7706e-19 0)
(-0.0025 -3.57104e-20 0)
(-0.0025 1.41871e-19 0)
(-0.0025 -7.32441e-20 0)
(-0.0025 -3.2163e-19 0)
(-0.0025 -1.44898e-19 0)
(-0.0025 5.38639e-21 0)
(-0.0025 -4.04044e-21 0)
(-0.0025 -9.70981e-21 0)
(-0.0025 -2.96823e-20 0)
(-0.0025 1.82619e-16 0)
(-0.0025 -4.01654e-17 0)
(-0.0025 9.18664e-18 0)
(-0.0025 -2.33817e-18 0)
(-0.0025 2.38127e-19 0)
(-0.0025 -2.82975e-20 0)
(-0.0025 -9.24952e-20 0)
(-0.0025 -2.5685e-19 0)
(-0.0025 -1.7478e-20 0)
(-0.0025 -1.59518e-19 0)
(-0.0025 -2.65604e-19 0)
(-0.0025 -1.89604e-19 0)
(-0.0025 7.23267e-20 0)
(-0.0025 -5.64524e-20 0)
(-0.0025 9.4784e-20 0)
(-0.0025 2.42237e-19 0)
(-0.0025 2.23838e-19 0)
(-0.0025 -1.6012e-19 0)
(-0.0025 -9.22394e-20 0)
(-0.0025 3.41358e-20 0)
(-0.0025 7.21224e-17 0)
(-0.0025 -1.66945e-17 0)
(-0.0025 3.9365e-18 0)
(-0.0025 -9.26763e-19 0)
(-0.0025 -1.10999e-19 0)
(-0.0025 -9.7078e-20 0)
(-0.0025 7.57028e-20 0)
(-0.0025 -5.22006e-20 0)
(-0.0025 -8.6782e-20 0)
(-0.0025 -1.08933e-19 0)
(-0.0025 -8.81138e-20 0)
(-0.0025 -1.64538e-19 0)
(-0.0025 -5.32042e-20 0)
(-0.0025 -1.7709e-20 0)
(-0.0025 2.08474e-19 0)
(-0.0025 1.78021e-19 0)
(-0.0025 -1.04019e-19 0)
(-0.0025 -1.46938e-19 0)
(-0.0025 -5.48024e-20 0)
(-0.0025 6.46684e-20 0)
(-0.0025 -2.8834e-16 0)
(-0.0025 6.33893e-17 0)
(-0.0025 -1.49204e-17 0)
(-0.0025 3.50894e-18 0)
(-0.0025 -7.02688e-19 0)
(-0.0025 1.59484e-19 0)
(-0.0025 1.43206e-19 0)
(-0.0025 5.93708e-20 0)
(-0.0025 -2.36019e-19 0)
(-0.0025 -2.72068e-19 0)
(-0.0025 -1.7942e-19 0)
(-0.0025 -5.32325e-19 0)
(-0.0025 -3.10639e-19 0)
(-0.0025 2.60016e-19 0)
(-0.0025 5.72275e-19 0)
(-0.0025 2.1434e-19 0)
(-0.0025 -2.00212e-19 0)
(-0.0025 -7.46535e-20 0)
(-0.0025 -1.9654e-19 0)
(-0.0025 -1.83519e-19 0)
(-0.0025 3.5846e-16 0)
(-0.0025 -7.86137e-17 0)
(-0.0025 1.77096e-17 0)
(-0.0025 -4.4167e-18 0)
(-0.0025 5.59955e-19 0)
(-0.0025 -3.60503e-19 0)
(-0.0025 1.69988e-19 0)
(-0.0025 1.43152e-19 0)
(-0.0025 8.76047e-20 0)
(-0.0025 2.91748e-19 0)
(-0.0025 3.22311e-19 0)
(-0.0025 1.71416e-20 0)
(-0.0025 -2.02479e-19 0)
(-0.0025 -7.41394e-20 0)
(-0.0025 1.33648e-19 0)
(-0.0025 5.07053e-20 0)
(-0.0025 2.33788e-19 0)
(-0.0025 1.40831e-19 0)
(-0.0025 -2.44027e-19 0)
(-0.0025 -2.34146e-19 0)
(-0.0025 -1.91171e-16 0)
(-0.0025 4.0907e-17 0)
(-0.0025 -1.00695e-17 0)
(-0.0025 1.40293e-18 0)
(-0.0025 -9.16481e-19 0)
(-0.0025 -1.2362e-19 0)
(-0.0025 1.20498e-19 0)
(-0.0025 4.24557e-19 0)
(-0.0025 4.41519e-19 0)
(-0.0025 3.06998e-19 0)
(-0.0025 4.41007e-20 0)
(-0.0025 -5.19476e-20 0)
(-0.0025 -3.60523e-19 0)
(-0.0025 -4.41123e-19 0)
(-0.0025 -6.35701e-19 0)
(-0.0025 -4.20622e-19 0)
(-0.0025 -1.04914e-19 0)
(-0.0025 -1.15212e-19 0)
(-0.0025 -2.15313e-19 0)
(-0.0025 -1.79765e-19 0)
(-0.0025 -1.07498e-16 0)
(-0.0025 2.26955e-17 0)
(-0.0025 -5.51568e-18 0)
(-0.0025 9.68631e-19 0)
(-0.0025 -3.09423e-19 0)
(-0.0025 -2.01404e-21 0)
(-0.0025 -1.29372e-19 0)
(-0.0025 -1.29477e-20 0)
(-0.0025 -5.69676e-20 0)
(-0.0025 -1.57773e-19 0)
(-0.0025 -2.17086e-19 0)
(-0.0025 -1.4618e-19 0)
(-0.0025 -1.66207e-19 0)
(-0.0025 -2.28731e-19 0)
(-0.0025 -4.38493e-19 0)
(-0.0025 -4.76463e-19 0)
(-0.0025 -3.21926e-19 0)
(-0.0025 6.85313e-20 0)
(-0.0025 1.27519e-19 0)
(-0.0025 -6.3962e-20 0)
(-0.0025 3.0727e-16 0)
(-0.0025 -6.68543e-17 0)
(-0.0025 1.57315e-17 0)
(-0.0025 -3.23021e-18 0)
(-0.0025 1.00814e-18 0)
(-0.0025 -8.57715e-20 0)
(-0.0025 -2.75769e-19 0)
(-0.0025 -2.37159e-19 0)
(-0.0025 -1.85004e-19 0)
(-0.0025 -1.87664e-19 0)
(-0.0025 -1.1846e-19 0)
(-0.0025 1.98228e-19 0)
(-0.0025 1.76309e-19 0)
(-0.0025 -5.67633e-20 0)
(-0.0025 -4.09222e-19 0)
(-0.0025 -4.60259e-19 0)
(-0.0025 -2.97482e-20 0)
(-0.0025 2.67497e-19 0)
(-0.0025 1.05158e-19 0)
(-0.0025 8.47911e-20 0)
(-0.0025 -1.00036e-16 0)
(-0.0025 2.07948e-17 0)
(-0.0025 -5.15928e-18 0)
(-0.0025 1.17294e-18 0)
(-0.0025 6.36573e-20 0)
(-0.0025 1.19691e-19 0)
(-0.0025 -2.2711e-19 0)
(-0.0025 -1.9464e-19 0)
(-0.0025 -1.61209e-20 0)
(-0.0025 -1.07311e-19 0)
(-0.0025 -2.08115e-19 0)
(-0.0025 4.11556e-20 0)
(-0.0025 5.90214e-20 0)
(-0.0025 -2.15018e-19 0)
(-0.0025 -4.54134e-19 0)
(-0.0025 -2.54223e-19 0)
(-0.0025 -1.44961e-19 0)
(-0.0025 -2.05843e-19 0)
(-0.0025 -2.16098e-19 0)
(-0.0025 2.35812e-20 0)
(-0.0025 -2.41538e-16 0)
(-0.0025 5.11684e-17 0)
(-0.0025 -1.23548e-17 0)
(-0.0025 2.68477e-18 0)
(-0.0025 -3.84741e-19 0)
(-0.0025 1.41158e-19 0)
(-0.0025 -1.82181e-19 0)
(-0.0025 -3.18934e-19 0)
(-0.0025 -1.22281e-19 0)
(-0.0025 4.69155e-20 0)
(-0.0025 -5.33617e-21 0)
(-0.0025 -2.25196e-20 0)
(-0.0025 -7.91758e-20 0)
(-0.0025 -3.01188e-19 0)
(-0.0025 -2.56431e-19 0)
(-0.0025 -9.2679e-20 0)
(-0.0025 -1.39577e-19 0)
(-0.0025 -2.03787e-19 0)
(-0.0025 -1.74208e-19 0)
(-0.0025 -7.12977e-20 0)
)
;

boundaryField
{
    movingWall
    {
        type            calculated;
        value           uniform (-0.0025 -0 -0);
    }
    fixedWalls
    {
        type            calculated;
        value           uniform (-0.0025 -0 -0);
    }
    frontAndBack
    {
        type            empty;
    }
}


// ************************************************************************* //
