/*--------------------------------*- C++ -*----------------------------------*\
| =========                 |                                                 |
| \\      /  F ield         | OpenFOAM: The Open Source CFD Toolbox           |
|  \\    /   O peration     | Version:  2312                                  |
|   \\  /    A nd           | Website:  www.openfoam.com                      |
|    \\/     M anipulation  |                                                 |
\*---------------------------------------------------------------------------*/
FoamFile
{
    version     2.0;
    format      ascii;
    arch        "LSB;label=32;scalar=64";
    class       volScalarField;
    location    "9.5";
    object      norm_k_field;
}
// * * * * * * * * * * * * * * * * * * * * * * * * * * * * * * * * * * * * * //

dimensions      [0 0 0 0 0 0 0];

internalField   nonuniform List<scalar> 
400
(
2.68289e+09
6.97288e+08
1.25698e+09
1.41805e+09
1.74896e+09
1.83572e+09
1.92098e+09
2.21941e+09
2.68288e+09
2.68288e+09
2.68288e+09
2.68288e+09
2.68288e+09
2.68288e+09
2.68288e+09
2.68288e+09
2.68288e+09
2.68288e+09
2.68288e+09
2.68288e+09
1.12775e+09
2.71769e+09
1.44557e+09
1.7454e+09
1.60577e+09
1.7679e+09
2.04989e+09
2.62667e+09
2.71748e+09
2.71747e+09
2.71744e+09
2.71743e+09
2.71741e+09
2.71741e+09
2.71739e+09
2.71739e+09
2.71737e+09
2.71737e+09
2.71737e+09
2.71737e+09
1.62463e+09
1.1447e+09
1.74363e+09
1.47407e+09
1.57905e+09
1.91439e+09
2.35862e+09
2.49568e+09
2.77408e+09
2.77407e+09
2.77404e+09
2.77403e+09
2.77401e+09
2.77401e+09
2.77398e+09
2.77398e+09
2.77397e+09
2.77397e+09
2.77397e+09
2.77397e+09
2.20015e+09
1.00709e+09
1.55879e+09
1.60829e+09
1.77918e+09
2.03057e+09
2.50724e+09
2.61174e+09
2.83609e+09
2.83607e+09
2.83605e+09
2.83603e+09
2.83602e+09
2.83601e+09
2.83599e+09
2.83599e+09
2.83598e+09
2.83597e+09
2.83597e+09
2.83597e+09
1.32126e+09
2.89108e+09
1.54272e+09
1.85853e+09
1.85222e+09
2.32327e+09
2.64489e+09
2.89086e+09
2.89083e+09
2.89082e+09
2.89079e+09
2.89078e+09
2.89076e+09
2.89075e+09
2.89073e+09
2.89073e+09
2.89072e+09
2.89071e+09
2.89071e+09
2.89071e+09
1.76462e+09
1.24356e+09
1.4959e+09
1.60429e+09
1.90434e+09
2.3125e+09
2.72164e+09
2.9328e+09
2.93278e+09
2.93275e+09
2.93273e+09
2.93271e+09
2.93269e+09
2.93268e+09
2.93267e+09
2.93266e+09
2.93265e+09
2.93265e+09
2.93264e+09
2.93264e+09
1.49435e+09
7.66313e+08
1.75954e+09
1.65399e+09
2.09544e+09
2.40824e+09
2.59268e+09
2.96202e+09
2.96199e+09
2.96197e+09
2.96194e+09
2.96193e+09
2.96191e+09
2.9619e+09
2.96188e+09
2.96187e+09
2.96187e+09
2.96186e+09
2.96186e+09
2.96186e+09
9.27264e+08
2.98155e+09
1.66453e+09
1.92101e+09
2.09222e+09
2.81853e+09
2.98135e+09
2.98131e+09
2.98129e+09
2.98126e+09
2.98125e+09
2.98122e+09
2.98121e+09
2.98119e+09
2.98118e+09
2.98117e+09
2.98116e+09
2.98116e+09
2.98116e+09
2.98115e+09
1.61047e+09
6.93292e+08
1.6757e+09
1.82983e+09
2.15657e+09
2.42415e+09
2.82243e+09
2.99399e+09
2.99396e+09
2.99394e+09
2.99392e+09
2.9939e+09
2.99388e+09
2.99387e+09
2.99385e+09
2.99384e+09
2.99384e+09
2.99383e+09
2.99383e+09
2.99383e+09
1.66408e+09
2.60857e+09
1.77838e+09
1.98141e+09
2.12999e+09
2.25375e+09
2.38501e+09
2.76846e+09
3.00271e+09
3.0027e+09
3.00267e+09
3.00266e+09
3.00263e+09
3.00263e+09
3.0026e+09
3.0026e+09
3.00259e+09
3.00259e+09
3.00258e+09
3.00258e+09
1.64454e+09
3.0097e+09
1.89141e+09
2.04362e+09
2.34484e+09
2.12476e+09
2.02168e+09
2.40213e+09
2.94262e+09
3.00941e+09
3.00939e+09
3.00937e+09
3.00935e+09
3.00934e+09
3.00933e+09
3.00932e+09
3.00931e+09
3.00931e+09
3.0093e+09
3.0093e+09
2.23713e+09
7.01428e+08
2.21059e+09
1.71626e+09
2.43647e+09
2.33714e+09
2.07362e+09
2.43671e+09
3.0153e+09
3.01528e+09
3.01525e+09
3.01524e+09
3.01522e+09
3.01521e+09
3.01519e+09
3.01519e+09
3.01517e+09
3.01517e+09
3.01517e+09
3.01516e+09
1.68043e+09
3.02127e+09
2.08513e+09
2.33123e+09
2.0656e+09
2.49383e+09
2.10855e+09
2.37833e+09
3.02101e+09
3.02099e+09
3.02096e+09
3.02094e+09
3.02093e+09
3.02091e+09
3.0209e+09
3.02089e+09
3.02088e+09
3.02088e+09
3.02087e+09
3.02087e+09
2.43547e+09
7.72313e+08
2.45786e+09
2.03465e+09
2.25725e+09
2.51582e+09
2.41736e+09
2.5136e+09
3.02693e+09
3.02692e+09
3.02688e+09
3.02688e+09
3.02685e+09
3.02684e+09
3.02682e+09
3.02682e+09
3.0268e+09
3.0268e+09
3.0268e+09
3.0268e+09
1.79551e+09
3.0335e+09
1.81807e+09
2.27246e+09
2.28893e+09
2.56011e+09
2.68188e+09
2.88196e+09
3.03323e+09
3.0332e+09
3.03318e+09
3.03316e+09
3.03315e+09
3.03313e+09
3.03312e+09
3.03311e+09
3.0331e+09
3.0331e+09
3.03309e+09
3.03309e+09
1.44723e+09
3.04008e+09
1.87399e+09
2.16627e+09
2.04503e+09
2.51803e+09
2.7177e+09
2.89171e+09
3.03981e+09
3.03978e+09
3.03976e+09
3.03974e+09
3.03973e+09
3.03971e+09
3.0397e+09
3.03969e+09
3.03968e+09
3.03968e+09
3.03967e+09
3.03967e+09
3.04662e+09
8.69804e+08
1.64628e+09
1.62577e+09
1.96947e+09
2.36177e+09
2.8305e+09
3.04638e+09
3.04635e+09
3.04632e+09
3.0463e+09
3.04628e+09
3.04626e+09
3.04625e+09
3.04623e+09
3.04623e+09
3.04622e+09
3.04621e+09
3.04621e+09
3.04621e+09
1.92931e+09
1.82946e+09
1.75394e+09
1.88809e+09
1.94728e+09
2.27178e+09
2.53852e+09
3.0523e+09
3.05226e+09
3.05225e+09
3.05221e+09
3.05221e+09
3.05218e+09
3.05218e+09
3.05215e+09
3.05215e+09
3.05213e+09
3.05213e+09
3.05213e+09
3.05213e+09
1.42304e+09
3.05709e+09
1.80367e+09
2.0507e+09
1.85684e+09
2.24274e+09
2.44337e+09
3.05686e+09
3.05683e+09
3.05681e+09
3.05678e+09
3.05676e+09
3.05675e+09
3.05673e+09
3.05672e+09
3.05671e+09
3.0567e+09
3.0567e+09
3.05669e+09
3.05669e+09
3.0592e+09
9.1441e+08
1.8226e+09
1.8769e+09
2.11249e+09
2.28198e+09
2.52705e+09
2.94141e+09
3.05919e+09
3.05919e+09
3.05919e+09
3.05919e+09
3.05919e+09
3.05919e+09
3.05919e+09
3.05919e+09
3.05919e+09
3.05919e+09
3.05919e+09
3.05919e+09
)
;

boundaryField
{
    movingWall
    {
        type            calculated;
        value           nonuniform List<scalar> 
20
(
3.0592e+09
9.1441e+08
1.8226e+09
1.8769e+09
2.11249e+09
2.28198e+09
2.52705e+09
2.94141e+09
3.05919e+09
3.05919e+09
3.05919e+09
3.05919e+09
3.05919e+09
3.05919e+09
3.05919e+09
3.05919e+09
3.05919e+09
3.05919e+09
3.05919e+09
3.05919e+09
)
;
    }
    fixedWalls
    {
        type            calculated;
        value           nonuniform List<scalar> 
60
(
2.68289e+09
1.12775e+09
1.62463e+09
2.20015e+09
1.32126e+09
1.76462e+09
1.49435e+09
9.27264e+08
1.61047e+09
1.66408e+09
1.64454e+09
2.23713e+09
1.68043e+09
2.43547e+09
1.79551e+09
1.44723e+09
3.04662e+09
1.92931e+09
1.42304e+09
3.0592e+09
2.68288e+09
2.71737e+09
2.77397e+09
2.83597e+09
2.89071e+09
2.93264e+09
2.96186e+09
2.98115e+09
2.99383e+09
3.00258e+09
3.0093e+09
3.01516e+09
3.02087e+09
3.0268e+09
3.03309e+09
3.03967e+09
3.04621e+09
3.05213e+09
3.05669e+09
3.05919e+09
2.68289e+09
6.97288e+08
1.25698e+09
1.41805e+09
1.74896e+09
1.83572e+09
1.92098e+09
2.21941e+09
2.68288e+09
2.68288e+09
2.68288e+09
2.68288e+09
2.68288e+09
2.68288e+09
2.68288e+09
2.68288e+09
2.68288e+09
2.68288e+09
2.68288e+09
2.68288e+09
)
;
    }
    frontAndBack
    {
        type            empty;
    }
}


// ************************************************************************* //
