/*--------------------------------*- C++ -*----------------------------------*\
| =========                 |                                                 |
| \\      /  F ield         | OpenFOAM: The Open Source CFD Toolbox           |
|  \\    /   O peration     | Version:  2312                                  |
|   \\  /    A nd           | Website:  www.openfoam.com                      |
|    \\/     M anipulation  |                                                 |
\*---------------------------------------------------------------------------*/
FoamFile
{
    version     2.0;
    format      ascii;
    arch        "LSB;label=32;scalar=64";
    class       volVectorField;
    location    "9.5";
    object      norm_U_composite;
}
// * * * * * * * * * * * * * * * * * * * * * * * * * * * * * * * * * * * * * //

dimensions      [0 0 0 0 0 0 0];

internalField   nonuniform List<vector> 
400
(
(-0.5 7.22949e-14 0)
(-0.5 -1.55148e-14 0)
(-0.5 3.80228e-15 0)
(-0.5 -7.50224e-16 0)
(-0.5 2.13008e-16 0)
(-0.5 1.10132e-17 0)
(-0.5 5.66633e-17 0)
(-0.5 3.75946e-17 0)
(-0.5 2.75522e-17 0)
(-0.5 -3.85413e-18 0)
(-0.5 -3.72855e-17 0)
(-0.5 -2.83821e-17 0)
(-0.5 4.64703e-17 0)
(-0.5 1.18366e-16 0)
(-0.5 1.18423e-16 0)
(-0.5 4.55383e-17 0)
(-0.5 -2.13381e-17 0)
(-0.5 -5.7997e-17 0)
(-0.5 -1.33259e-17 0)
(-0.5 2.32732e-17 0)
(-0.5 8.28062e-15 0)
(-0.5 -1.44347e-15 0)
(-0.5 5.53172e-16 0)
(-0.5 -5.45837e-17 0)
(-0.5 -1.0344e-17 0)
(-0.5 -8.3137e-18 0)
(-0.5 9.06957e-18 0)
(-0.5 -1.81929e-17 0)
(-0.5 -1.87291e-17 0)
(-0.5 -2.43369e-17 0)
(-0.5 1.98003e-17 0)
(-0.5 3.90201e-17 0)
(-0.5 2.90381e-17 0)
(-0.5 4.08918e-17 0)
(-0.5 7.542e-17 0)
(-0.5 7.90941e-17 0)
(-0.5 -1.26826e-17 0)
(-0.5 -6.71074e-17 0)
(-0.5 -3.68657e-17 0)
(-0.5 -3.68351e-18 0)
(-0.5 -6.57132e-14 0)
(-0.5 1.44749e-14 0)
(-0.5 -3.29249e-15 0)
(-0.5 7.90343e-16 0)
(-0.5 -2.20201e-16 0)
(-0.5 -6.22372e-17 0)
(-0.5 -5.57453e-17 0)
(-0.5 -7.36222e-18 0)
(-0.5 1.75596e-17 0)
(-0.5 1.52865e-17 0)
(-0.5 8.26795e-17 0)
(-0.5 9.89275e-17 0)
(-0.5 1.31915e-17 0)
(-0.5 -3.35299e-17 0)
(-0.5 3.78473e-17 0)
(-0.5 9.81177e-17 0)
(-0.5 6.44055e-17 0)
(-0.5 -1.59479e-17 0)
(-0.5 -6.70461e-17 0)
(-0.5 -4.09607e-17 0)
(-0.5 4.11957e-14 0)
(-0.5 -8.97651e-15 0)
(-0.5 2.10292e-15 0)
(-0.5 -3.93419e-16 0)
(-0.5 1.57334e-16 0)
(-0.5 -1.773e-18 0)
(-0.5 2.77588e-17 0)
(-0.5 4.86075e-17 0)
(-0.5 2.65234e-17 0)
(-0.5 3.1505e-17 0)
(-0.5 4.00362e-17 0)
(-0.5 5.12549e-17 0)
(-0.5 4.44541e-17 0)
(-0.5 4.5229e-17 0)
(-0.5 3.18875e-17 0)
(-0.5 -1.50157e-17 0)
(-0.5 -1.71435e-17 0)
(-0.5 -2.43658e-17 0)
(-0.5 -4.21601e-17 0)
(-0.5 -2.00613e-17 0)
(-0.5 1.06075e-14 0)
(-0.5 -2.33789e-15 0)
(-0.5 4.86018e-16 0)
(-0.5 -1.39159e-16 0)
(-0.5 1.08452e-16 0)
(-0.5 9.70854e-17 0)
(-0.5 6.57515e-17 0)
(-0.5 4.26964e-17 0)
(-0.5 4.24352e-19 0)
(-0.5 7.27052e-17 0)
(-0.5 1.03796e-16 0)
(-0.5 7.3606e-17 0)
(-0.5 3.12794e-17 0)
(-0.5 -8.13922e-18 0)
(-0.5 -5.27159e-17 0)
(-0.5 -4.4355e-17 0)
(-0.5 -3.49438e-17 0)
(-0.5 -1.58595e-17 0)
(-0.5 3.03144e-19 0)
(-0.5 -5.87099e-19 0)
(-0.5 -6.11869e-14 0)
(-0.5 1.34014e-14 0)
(-0.5 -3.02831e-15 0)
(-0.5 7.20485e-16 0)
(-0.5 -1.12331e-16 0)
(-0.5 7.12396e-17 0)
(-0.5 5.01943e-17 0)
(-0.5 7.46463e-17 0)
(-0.5 6.1625e-17 0)
(-0.5 -1.41983e-18 0)
(-0.5 -2.02805e-17 0)
(-0.5 -1.1314e-17 0)
(-0.5 2.39265e-17 0)
(-0.5 -8.12183e-18 0)
(-0.5 -5.7587e-17 0)
(-0.5 -1.45731e-17 0)
(-0.5 4.18656e-17 0)
(-0.5 7.41944e-17 0)
(-0.5 4.61329e-17 0)
(-0.5 2.70457e-17 0)
(-0.5 7.30859e-14 0)
(-0.5 -1.599e-14 0)
(-0.5 3.7849e-15 0)
(-0.5 -8.35671e-16 0)
(-0.5 1.86575e-16 0)
(-0.5 -1.10347e-17 0)
(-0.5 6.93907e-17 0)
(-0.5 3.53146e-17 0)
(-0.5 7.5695e-17 0)
(-0.5 -1.98432e-17 0)
(-0.5 -5.56363e-17 0)
(-0.5 -2.86439e-17 0)
(-0.5 1.01579e-18 0)
(-0.5 -7.94115e-18 0)
(-0.5 9.91634e-18 0)
(-0.5 3.71105e-17 0)
(-0.5 4.02494e-17 0)
(-0.5 4.38486e-17 0)
(-0.5 4.22018e-17 0)
(-0.5 2.24218e-17 0)
(-0.5 -1.7457e-14 0)
(-0.5 3.89786e-15 0)
(-0.5 -1.01723e-15 0)
(-0.5 1.71702e-16 0)
(-0.5 -5.54713e-17 0)
(-0.5 2.41996e-17 0)
(-0.5 1.12778e-17 0)
(-0.5 -1.15274e-17 0)
(-0.5 1.46508e-17 0)
(-0.5 5.67277e-17 0)
(-0.5 3.00055e-17 0)
(-0.5 3.86734e-17 0)
(-0.5 3.41185e-17 0)
(-0.5 5.85229e-17 0)
(-0.5 9.61786e-17 0)
(-0.5 5.1881e-17 0)
(-0.5 -2.531e-17 0)
(-0.5 -6.16461e-17 0)
(-0.5 -1.27986e-17 0)
(-0.5 1.15765e-17 0)
(-0.5 -5.3113e-14 0)
(-0.5 1.15037e-14 0)
(-0.5 -2.73794e-15 0)
(-0.5 6.33122e-16 0)
(-0.5 -1.35762e-16 0)
(-0.5 -2.78243e-17 0)
(-0.5 -8.35523e-17 0)
(-0.5 -4.73953e-17 0)
(-0.5 -6.53383e-17 0)
(-0.5 -1.67856e-17 0)
(-0.5 -2.20888e-17 0)
(-0.5 -9.69136e-18 0)
(-0.5 4.03244e-18 0)
(-0.5 3.18005e-17 0)
(-0.5 -1.75188e-17 0)
(-0.5 -8.81202e-17 0)
(-0.5 -1.00988e-16 0)
(-0.5 -3.66026e-17 0)
(-0.5 2.56047e-17 0)
(-0.5 3.68325e-17 0)
(-0.5 8.65321e-14 0)
(-0.5 -1.92346e-14 0)
(-0.5 4.50751e-15 0)
(-0.5 -9.64854e-16 0)
(-0.5 2.39485e-16 0)
(-0.5 -9.68375e-17 0)
(-0.5 -4.8444e-17 0)
(-0.5 -1.79655e-17 0)
(-0.5 -4.20914e-17 0)
(-0.5 -8.0053e-18 0)
(-0.5 3.27518e-17 0)
(-0.5 4.9783e-17 0)
(-0.5 2.13387e-17 0)
(-0.5 -3.70568e-17 0)
(-0.5 -9.60691e-17 0)
(-0.5 -7.78832e-17 0)
(-0.5 -5.48335e-17 0)
(-0.5 2.39865e-17 0)
(-0.5 6.82819e-17 0)
(-0.5 4.12755e-17 0)
(-0.5 -7.22239e-14 0)
(-0.5 1.59413e-14 0)
(-0.5 -3.70193e-15 0)
(-0.5 8.45828e-16 0)
(-0.5 -1.3333e-16 0)
(-0.5 6.14449e-17 0)
(-0.5 -3.94286e-17 0)
(-0.5 -2.78317e-17 0)
(-0.5 -2.28733e-17 0)
(-0.5 -2.92726e-17 0)
(-0.5 -3.5412e-17 0)
(-0.5 -7.14208e-18 0)
(-0.5 2.83743e-17 0)
(-0.5 -1.46488e-17 0)
(-0.5 -6.4326e-17 0)
(-0.5 -2.89796e-17 0)
(-0.5 1.07728e-18 0)
(-0.5 -8.08087e-19 0)
(-0.5 -1.94196e-18 0)
(-0.5 -5.93646e-18 0)
(-0.5 3.65239e-14 0)
(-0.5 -8.03308e-15 0)
(-0.5 1.83733e-15 0)
(-0.5 -4.67634e-16 0)
(-0.5 4.76254e-17 0)
(-0.5 -5.65949e-18 0)
(-0.5 -1.8499e-17 0)
(-0.5 -5.13701e-17 0)
(-0.5 -3.49559e-18 0)
(-0.5 -3.19036e-17 0)
(-0.5 -5.31208e-17 0)
(-0.5 -3.79208e-17 0)
(-0.5 1.44653e-17 0)
(-0.5 -1.12905e-17 0)
(-0.5 1.89568e-17 0)
(-0.5 4.84473e-17 0)
(-0.5 4.47677e-17 0)
(-0.5 -3.2024e-17 0)
(-0.5 -1.84479e-17 0)
(-0.5 6.82716e-18 0)
(-0.5 1.44245e-14 0)
(-0.5 -3.3389e-15 0)
(-0.5 7.873e-16 0)
(-0.5 -1.85353e-16 0)
(-0.5 -2.21998e-17 0)
(-0.5 -1.94156e-17 0)
(-0.5 1.51406e-17 0)
(-0.5 -1.04401e-17 0)
(-0.5 -1.73564e-17 0)
(-0.5 -2.17865e-17 0)
(-0.5 -1.76228e-17 0)
(-0.5 -3.29077e-17 0)
(-0.5 -1.06408e-17 0)
(-0.5 -3.5418e-18 0)
(-0.5 4.16948e-17 0)
(-0.5 3.56041e-17 0)
(-0.5 -2.08038e-17 0)
(-0.5 -2.93877e-17 0)
(-0.5 -1.09605e-17 0)
(-0.5 1.29337e-17 0)
(-0.5 -5.7668e-14 0)
(-0.5 1.26779e-14 0)
(-0.5 -2.98408e-15 0)
(-0.5 7.01788e-16 0)
(-0.5 -1.40538e-16 0)
(-0.5 3.18969e-17 0)
(-0.5 2.86411e-17 0)
(-0.5 1.18742e-17 0)
(-0.5 -4.72039e-17 0)
(-0.5 -5.44135e-17 0)
(-0.5 -3.5884e-17 0)
(-0.5 -1.06465e-16 0)
(-0.5 -6.21278e-17 0)
(-0.5 5.20032e-17 0)
(-0.5 1.14455e-16 0)
(-0.5 4.2868e-17 0)
(-0.5 -4.00424e-17 0)
(-0.5 -1.49307e-17 0)
(-0.5 -3.9308e-17 0)
(-0.5 -3.67038e-17 0)
(-0.5 7.1692e-14 0)
(-0.5 -1.57227e-14 0)
(-0.5 3.54192e-15 0)
(-0.5 -8.83341e-16 0)
(-0.5 1.11991e-16 0)
(-0.5 -7.21005e-17 0)
(-0.5 3.39976e-17 0)
(-0.5 2.86304e-17 0)
(-0.5 1.75209e-17 0)
(-0.5 5.83497e-17 0)
(-0.5 6.44622e-17 0)
(-0.5 3.42832e-18 0)
(-0.5 -4.04958e-17 0)
(-0.5 -1.48279e-17 0)
(-0.5 2.67296e-17 0)
(-0.5 1.01411e-17 0)
(-0.5 4.67576e-17 0)
(-0.5 2.81662e-17 0)
(-0.5 -4.88054e-17 0)
(-0.5 -4.68293e-17 0)
(-0.5 -3.82342e-14 0)
(-0.5 8.1814e-15 0)
(-0.5 -2.01391e-15 0)
(-0.5 2.80586e-16 0)
(-0.5 -1.83296e-16 0)
(-0.5 -2.47241e-17 0)
(-0.5 2.40996e-17 0)
(-0.5 8.49113e-17 0)
(-0.5 8.83038e-17 0)
(-0.5 6.13997e-17 0)
(-0.5 8.82013e-18 0)
(-0.5 -1.03895e-17 0)
(-0.5 -7.21045e-17 0)
(-0.5 -8.82246e-17 0)
(-0.5 -1.2714e-16 0)
(-0.5 -8.41245e-17 0)
(-0.5 -2.09828e-17 0)
(-0.5 -2.30424e-17 0)
(-0.5 -4.30627e-17 0)
(-0.5 -3.5953e-17 0)
(-0.5 -2.14996e-14 0)
(-0.5 4.5391e-15 0)
(-0.5 -1.10314e-15 0)
(-0.5 1.93726e-16 0)
(-0.5 -6.18845e-17 0)
(-0.5 -4.02808e-19 0)
(-0.5 -2.58744e-17 0)
(-0.5 -2.58954e-18 0)
(-0.5 -1.13935e-17 0)
(-0.5 -3.15546e-17 0)
(-0.5 -4.34172e-17 0)
(-0.5 -2.92361e-17 0)
(-0.5 -3.32415e-17 0)
(-0.5 -4.57461e-17 0)
(-0.5 -8.76986e-17 0)
(-0.5 -9.52927e-17 0)
(-0.5 -6.43851e-17 0)
(-0.5 1.37063e-17 0)
(-0.5 2.55039e-17 0)
(-0.5 -1.27924e-17 0)
(-0.5 6.14541e-14 0)
(-0.5 -1.33709e-14 0)
(-0.5 3.14631e-15 0)
(-0.5 -6.46041e-16 0)
(-0.5 2.01627e-16 0)
(-0.5 -1.71543e-17 0)
(-0.5 -5.51538e-17 0)
(-0.5 -4.74317e-17 0)
(-0.5 -3.70009e-17 0)
(-0.5 -3.75328e-17 0)
(-0.5 -2.3692e-17 0)
(-0.5 3.96455e-17 0)
(-0.5 3.52617e-17 0)
(-0.5 -1.13527e-17 0)
(-0.5 -8.18444e-17 0)
(-0.5 -9.20517e-17 0)
(-0.5 -5.94963e-18 0)
(-0.5 5.34994e-17 0)
(-0.5 2.10317e-17 0)
(-0.5 1.69582e-17 0)
(-0.5 -2.00073e-14 0)
(-0.5 4.15895e-15 0)
(-0.5 -1.03186e-15 0)
(-0.5 2.34587e-16 0)
(-0.5 1.27315e-17 0)
(-0.5 2.39382e-17 0)
(-0.5 -4.5422e-17 0)
(-0.5 -3.89281e-17 0)
(-0.5 -3.22418e-18 0)
(-0.5 -2.14623e-17 0)
(-0.5 -4.16229e-17 0)
(-0.5 8.23112e-18 0)
(-0.5 1.18043e-17 0)
(-0.5 -4.30037e-17 0)
(-0.5 -9.08267e-17 0)
(-0.5 -5.08446e-17 0)
(-0.5 -2.89922e-17 0)
(-0.5 -4.11686e-17 0)
(-0.5 -4.32196e-17 0)
(-0.5 4.71624e-18 0)
(-0.5 -4.83076e-14 0)
(-0.5 1.02337e-14 0)
(-0.5 -2.47095e-15 0)
(-0.5 5.36953e-16 0)
(-0.5 -7.69483e-17 0)
(-0.5 2.82315e-17 0)
(-0.5 -3.64361e-17 0)
(-0.5 -6.37868e-17 0)
(-0.5 -2.44562e-17 0)
(-0.5 9.3831e-18 0)
(-0.5 -1.06723e-18 0)
(-0.5 -4.50392e-18 0)
(-0.5 -1.58352e-17 0)
(-0.5 -6.02375e-17 0)
(-0.5 -5.12863e-17 0)
(-0.5 -1.85358e-17 0)
(-0.5 -2.79155e-17 0)
(-0.5 -4.07573e-17 0)
(-0.5 -3.48416e-17 0)
(-0.5 -1.42595e-17 0)
)
;

boundaryField
{
    movingWall
    {
        type            calculated;
        value           uniform (-0.5 -0 -0);
    }
    fixedWalls
    {
        type            calculated;
        value           uniform (-0.5 -0 -0);
    }
    frontAndBack
    {
        type            empty;
    }
}


// ************************************************************************* //
