/*--------------------------------*- C++ -*----------------------------------*\
| =========                 |                                                 |
| \\      /  F ield         | OpenFOAM: The Open Source CFD Toolbox           |
|  \\    /   O peration     | Version:  2312                                  |
|   \\  /    A nd           | Website:  www.openfoam.com                      |
|    \\/     M anipulation  |                                                 |
\*---------------------------------------------------------------------------*/
FoamFile
{
    version     2.0;
    format      ascii;
    arch        "LSB;label=32;scalar=64";
    class       volScalarField;
    location    "9.5";
    object      P_A;
}
// * * * * * * * * * * * * * * * * * * * * * * * * * * * * * * * * * * * * * //

dimensions      [1 -1 -3 0 0 0 0];

internalField   nonuniform List<scalar> 
400
(
1.03606e-33
1.03606e-33
1.03606e-33
1.03606e-33
1.03606e-33
1.03605e-33
1.03605e-33
1.03605e-33
1.03605e-33
1.03605e-33
1.03605e-33
1.03605e-33
1.03605e-33
1.03605e-33
1.03605e-33
1.03605e-33
1.03605e-33
1.03605e-33
1.03605e-33
1.03605e-33
1.09091e-33
1.08021e-33
1.08106e-33
1.08143e-33
1.08214e-33
1.08252e-33
1.08323e-33
1.08362e-33
1.08434e-33
1.08474e-33
1.08547e-33
1.08589e-33
1.08661e-33
1.08705e-33
1.08777e-33
1.08822e-33
1.08895e-33
1.08942e-33
1.08979e-33
1.09039e-33
1.18474e-33
1.1728e-33
1.17377e-33
1.17418e-33
1.17498e-33
1.17541e-33
1.17622e-33
1.17665e-33
1.17746e-33
1.17791e-33
1.17872e-33
1.17918e-33
1.17999e-33
1.18047e-33
1.18128e-33
1.18177e-33
1.18258e-33
1.18309e-33
1.18349e-33
1.18416e-33
1.29433e-33
1.28114e-33
1.28222e-33
1.28266e-33
1.28356e-33
1.28401e-33
1.28492e-33
1.28538e-33
1.28629e-33
1.28677e-33
1.28768e-33
1.28818e-33
1.28908e-33
1.28961e-33
1.2905e-33
1.29104e-33
1.29194e-33
1.2925e-33
1.29295e-33
1.29368e-33
1.39725e-33
1.38287e-33
1.38403e-33
1.38453e-33
1.38549e-33
1.386e-33
1.38697e-33
1.38749e-33
1.38847e-33
1.389e-33
1.38998e-33
1.39053e-33
1.39151e-33
1.39209e-33
1.39306e-33
1.39366e-33
1.39463e-33
1.39524e-33
1.39573e-33
1.39653e-33
1.48013e-33
1.46479e-33
1.46604e-33
1.46656e-33
1.4676e-33
1.46813e-33
1.46917e-33
1.46972e-33
1.47077e-33
1.47133e-33
1.47238e-33
1.47296e-33
1.47402e-33
1.47462e-33
1.47567e-33
1.4763e-33
1.47734e-33
1.47799e-33
1.47851e-33
1.47937e-33
1.54002e-33
1.52397e-33
1.52528e-33
1.52582e-33
1.5269e-33
1.52746e-33
1.52855e-33
1.52912e-33
1.53022e-33
1.53081e-33
1.53191e-33
1.53252e-33
1.53361e-33
1.53425e-33
1.53534e-33
1.536e-33
1.53709e-33
1.53777e-33
1.53832e-33
1.53921e-33
1.58056e-33
1.56403e-33
1.56537e-33
1.56593e-33
1.56705e-33
1.56761e-33
1.56875e-33
1.56933e-33
1.57047e-33
1.57106e-33
1.57221e-33
1.57282e-33
1.57396e-33
1.57461e-33
1.57574e-33
1.57642e-33
1.57754e-33
1.57824e-33
1.5788e-33
1.57972e-33
1.60761e-33
1.59076e-33
1.59213e-33
1.59269e-33
1.59384e-33
1.59442e-33
1.59557e-33
1.59616e-33
1.59732e-33
1.59793e-33
1.59909e-33
1.59973e-33
1.60088e-33
1.60154e-33
1.6027e-33
1.60338e-33
1.60453e-33
1.60525e-33
1.60582e-33
1.60676e-33
1.6265e-33
1.60943e-33
1.6108e-33
1.61139e-33
1.61254e-33
1.61314e-33
1.61429e-33
1.61491e-33
1.61606e-33
1.6167e-33
1.61786e-33
1.61852e-33
1.61968e-33
1.62036e-33
1.62152e-33
1.62222e-33
1.62338e-33
1.62411e-33
1.62469e-33
1.62563e-33
1.64112e-33
1.62386e-33
1.62527e-33
1.62584e-33
1.62701e-33
1.62761e-33
1.62878e-33
1.62939e-33
1.63058e-33
1.63121e-33
1.63239e-33
1.63304e-33
1.63422e-33
1.63491e-33
1.63608e-33
1.63679e-33
1.63796e-33
1.63869e-33
1.63928e-33
1.64024e-33
1.65395e-33
1.63655e-33
1.63795e-33
1.63855e-33
1.63971e-33
1.64033e-33
1.6415e-33
1.64213e-33
1.64331e-33
1.64395e-33
1.64514e-33
1.64581e-33
1.64699e-33
1.64769e-33
1.64887e-33
1.64958e-33
1.65076e-33
1.6515e-33
1.65209e-33
1.65306e-33
1.66651e-33
1.64895e-33
1.65039e-33
1.65097e-33
1.65216e-33
1.65277e-33
1.65396e-33
1.65459e-33
1.65579e-33
1.65643e-33
1.65763e-33
1.65829e-33
1.6595e-33
1.66019e-33
1.66139e-33
1.6621e-33
1.6633e-33
1.66404e-33
1.66464e-33
1.66561e-33
1.67963e-33
1.66193e-33
1.66336e-33
1.66397e-33
1.66515e-33
1.66578e-33
1.66696e-33
1.66761e-33
1.6688e-33
1.66947e-33
1.67066e-33
1.67135e-33
1.67255e-33
1.67326e-33
1.67446e-33
1.67519e-33
1.67639e-33
1.67714e-33
1.67774e-33
1.67873e-33
1.69365e-33
1.67578e-33
1.67722e-33
1.67783e-33
1.67904e-33
1.67965e-33
1.68088e-33
1.6815e-33
1.68273e-33
1.68338e-33
1.68461e-33
1.68528e-33
1.68651e-33
1.68721e-33
1.68843e-33
1.68916e-33
1.69038e-33
1.69114e-33
1.69174e-33
1.69274e-33
1.7084e-33
1.69035e-33
1.69181e-33
1.69242e-33
1.69365e-33
1.69426e-33
1.6955e-33
1.69613e-33
1.69737e-33
1.69802e-33
1.69927e-33
1.69995e-33
1.70119e-33
1.7019e-33
1.70313e-33
1.70387e-33
1.7051e-33
1.70586e-33
1.70647e-33
1.70748e-33
1.72315e-33
1.70492e-33
1.70641e-33
1.70702e-33
1.70825e-33
1.70888e-33
1.71012e-33
1.71076e-33
1.71201e-33
1.71268e-33
1.71393e-33
1.71462e-33
1.71586e-33
1.71659e-33
1.71783e-33
1.71857e-33
1.71981e-33
1.72059e-33
1.7212e-33
1.72222e-33
1.73659e-33
1.71821e-33
1.7197e-33
1.72032e-33
1.72156e-33
1.7222e-33
1.72344e-33
1.72411e-33
1.72535e-33
1.72604e-33
1.72728e-33
1.728e-33
1.72923e-33
1.72998e-33
1.73121e-33
1.73198e-33
1.73322e-33
1.734e-33
1.73463e-33
1.73565e-33
1.74698e-33
1.72882e-33
1.73028e-33
1.73087e-33
1.73209e-33
1.73271e-33
1.73393e-33
1.73458e-33
1.7358e-33
1.73648e-33
1.73771e-33
1.73841e-33
1.73964e-33
1.74038e-33
1.74161e-33
1.74238e-33
1.74361e-33
1.74441e-33
1.74503e-33
1.74606e-33
1.75179e-33
1.75179e-33
1.75179e-33
1.75179e-33
1.75179e-33
1.75178e-33
1.75179e-33
1.75178e-33
1.75178e-33
1.75178e-33
1.75178e-33
1.75178e-33
1.75178e-33
1.75178e-33
1.75178e-33
1.75178e-33
1.75178e-33
1.75178e-33
1.75178e-33
1.75178e-33
)
;

boundaryField
{
    movingWall
    {
        type            calculated;
        value           nonuniform List<scalar> 
20
(
1.75179e-33
1.75179e-33
1.75179e-33
1.75179e-33
1.75179e-33
1.75178e-33
1.75179e-33
1.75178e-33
1.75178e-33
1.75178e-33
1.75178e-33
1.75178e-33
1.75178e-33
1.75178e-33
1.75178e-33
1.75178e-33
1.75178e-33
1.75178e-33
1.75178e-33
1.75178e-33
)
;
    }
    fixedWalls
    {
        type            calculated;
        value           nonuniform List<scalar> 
60
(
1.03606e-33
1.09091e-33
1.18474e-33
1.29433e-33
1.39725e-33
1.48013e-33
1.54002e-33
1.58056e-33
1.60761e-33
1.6265e-33
1.64112e-33
1.65395e-33
1.66651e-33
1.67963e-33
1.69365e-33
1.7084e-33
1.72315e-33
1.73659e-33
1.74698e-33
1.75179e-33
1.03605e-33
1.09039e-33
1.18416e-33
1.29368e-33
1.39653e-33
1.47937e-33
1.53921e-33
1.57972e-33
1.60676e-33
1.62563e-33
1.64024e-33
1.65306e-33
1.66561e-33
1.67873e-33
1.69274e-33
1.70748e-33
1.72222e-33
1.73565e-33
1.74606e-33
1.75178e-33
1.03606e-33
1.03606e-33
1.03606e-33
1.03606e-33
1.03606e-33
1.03605e-33
1.03605e-33
1.03605e-33
1.03605e-33
1.03605e-33
1.03605e-33
1.03605e-33
1.03605e-33
1.03605e-33
1.03605e-33
1.03605e-33
1.03605e-33
1.03605e-33
1.03605e-33
1.03605e-33
)
;
    }
    frontAndBack
    {
        type            empty;
    }
}


// ************************************************************************* //
