/*--------------------------------*- C++ -*----------------------------------*\
| =========                 |                                                 |
| \\      /  F ield         | OpenFOAM: The Open Source CFD Toolbox           |
|  \\    /   O peration     | Version:  2312                                  |
|   \\  /    A nd           | Website:  www.openfoam.com                      |
|    \\/     M anipulation  |                                                 |
\*---------------------------------------------------------------------------*/
FoamFile
{
    version     2.0;
    format      ascii;
    arch        "LSB;label=32;scalar=64";
    class       surfaceScalarField;
    location    "9.5";
    object      PecletNoField;
}
// * * * * * * * * * * * * * * * * * * * * * * * * * * * * * * * * * * * * * //

dimensions      [0 0 0 0 0 0 0];

oriented        oriented;

internalField   nonuniform List<scalar> 
760
(
457.968
4.72685e-12
457.968
6.33453e-12
457.968
2.0095e-12
457.968
2.74405e-13
457.968
6.49852e-14
457.968
1.73842e-15
457.968
3.40465e-14
457.968
3.38406e-14
457.968
2.84888e-14
457.968
1.35781e-14
457.968
8.19377e-15
457.968
1.09411e-14
457.968
1.45739e-14
457.968
7.66743e-14
457.968
1.2576e-13
457.968
8.66887e-14
457.968
8.47307e-15
457.968
8.49516e-14
457.968
5.29017e-14
4.29031e-14
457.528
3.41326e-12
457.354
4.71234e-12
457.379
1.2105e-12
457.4
2.42469e-13
457.422
1.02174e-13
457.443
3.00207e-14
457.464
1.98727e-15
457.486
2.30982e-14
457.507
2.66732e-14
457.528
1.9404e-14
457.55
4.18266e-14
457.571
7.04858e-14
457.593
3.22497e-14
457.614
1.8383e-18
457.636
1.82619e-14
457.657
7.68429e-14
457.679
1.46469e-14
457.694
2.94418e-14
457.712
2.06289e-14
5.41959e-14
457.122
2.09111e-12
456.942
2.52103e-12
456.968
6.07362e-13
456.99
2.02899e-13
457.013
5.72196e-15
457.035
3.39685e-14
457.057
4.24369e-14
457.08
7.91166e-15
457.102
4.75964e-14
457.124
5.31943e-14
457.146
4.94525e-14
457.168
5.3604e-14
457.191
1.71222e-14
457.213
2.77224e-15
457.235
5.7754e-14
457.257
3.62475e-14
457.279
6.25201e-14
457.294
1.02714e-14
457.312
6.32403e-14
2.49657e-14
456.686
3.1868e-12
456.502
4.29686e-12
456.529
1.21317e-12
456.551
1.84371e-13
456.574
9.24722e-14
456.597
5.82627e-14
456.62
6.02726e-14
456.643
7.23064e-14
456.665
1.35692e-14
456.688
1.9843e-14
456.711
6.45225e-14
456.733
7.36905e-14
456.756
3.79325e-14
456.779
2.29493e-14
456.801
1.79876e-14
456.824
2.61263e-14
456.846
6.67494e-14
456.862
3.90032e-14
456.88
1.31715e-14
1.32666e-14
456.305
3.62071e-12
456.118
4.44507e-12
456.145
1.19322e-12
456.168
1.82499e-13
456.192
3.6773e-15
456.215
7.20918e-14
456.238
6.05097e-14
456.261
7.40156e-14
456.284
2.45433e-14
456.307
3.40709e-14
456.331
6.33607e-14
456.354
3.6757e-14
456.377
3.80221e-14
456.4
3.85898e-15
456.423
5.44578e-14
456.446
2.50897e-14
456.469
3.01543e-14
456.484
2.32318e-14
456.503
1.58296e-14
8.76828e-15
456.016
1.47089e-12
455.827
1.91468e-12
455.854
4.11134e-13
455.877
3.53954e-14
455.901
7.01513e-14
455.924
1.29888e-14
455.948
2.32869e-14
455.971
1.91599e-14
455.995
9.28341e-14
456.018
8.46132e-15
456.042
4.51519e-14
456.065
3.14888e-14
456.089
1.94908e-15
456.112
1.33884e-14
456.135
3.85236e-14
456.158
1.99984e-14
456.182
8.06984e-16
456.198
7.09614e-14
456.217
5.7262e-14
4.73732e-14
455.816
2.2098e-12
455.625
3.38844e-12
455.652
1.19953e-12
455.676
2.24977e-13
455.7
1.08825e-14
455.723
3.04842e-14
455.747
7.22287e-14
455.771
2.79283e-15
455.795
3.70546e-14
455.818
1.04837e-14
455.842
1.22954e-14
455.866
6.12763e-15
455.889
2.23648e-14
455.913
1.78669e-14
455.936
6.22253e-14
455.96
6.46682e-14
455.983
5.3267e-14
455.999
1.19789e-14
456.018
3.7229e-15
8.87832e-17
455.685
3.02549e-12
455.492
4.66154e-12
455.52
1.67771e-12
455.543
2.64784e-13
455.567
5.7055e-14
455.591
2.67984e-14
455.615
4.13486e-14
455.639
5.38655e-15
455.663
4.63837e-14
455.687
1.21734e-14
455.711
6.8815e-15
455.734
7.75233e-15
455.758
5.71358e-15
455.782
4.82423e-14
455.805
6.18901e-14
455.829
1.44345e-15
455.853
8.52696e-14
455.869
5.3689e-14
455.888
3.40271e-15
1.52136e-14
455.598
1.88132e-12
455.405
2.22086e-12
455.433
7.87756e-13
455.457
1.02904e-13
455.481
2.97717e-14
455.505
4.49745e-14
455.529
6.29605e-14
455.553
4.0707e-14
455.577
3.22574e-14
455.601
8.86e-15
455.625
6.93728e-15
455.648
3.09504e-14
455.672
1.86655e-14
455.696
1.30644e-14
455.72
8.46941e-14
455.743
9.59471e-14
455.767
6.30837e-14
455.784
1.20318e-14
455.803
4.59794e-14
4.77141e-14
455.539
1.05112e-12
455.345
1.22209e-12
455.373
3.54923e-13
455.397
1.90861e-14
455.421
6.32774e-14
455.445
2.11278e-14
455.469
6.78503e-14
455.493
2.22562e-14
455.517
5.05314e-14
455.541
2.1765e-14
455.565
1.30247e-14
455.589
2.84226e-14
455.613
3.07843e-14
455.637
6.46559e-15
455.661
6.36113e-14
455.684
4.47163e-14
455.708
4.51159e-14
455.725
1.52243e-14
455.744
4.63987e-14
3.56481e-14
455.494
9.42366e-13
455.299
1.9142e-12
455.327
7.86839e-13
455.351
5.54013e-14
455.375
2.17726e-14
455.399
2.88949e-14
455.424
1.56543e-15
455.448
3.68504e-14
455.472
7.74812e-15
455.496
1.8257e-14
455.52
5.1266e-14
455.544
4.41252e-14
455.568
4.24019e-15
455.591
2.44367e-14
455.615
2.65026e-14
455.639
7.33718e-15
455.663
4.55143e-14
455.68
1.90086e-15
455.699
3.04073e-14
5.05301e-14
455.454
1.8526e-12
455.259
2.68963e-12
455.287
1.1142e-12
455.311
1.478e-13
455.336
4.50769e-14
455.36
7.86307e-15
455.384
1.67569e-14
455.408
2.86623e-14
455.432
7.65804e-15
455.456
3.50953e-14
455.48
4.67149e-14
455.504
2.59959e-14
455.528
1.14515e-14
455.552
6.59016e-15
455.576
4.54114e-14
455.6
4.24199e-14
455.624
7.1337e-15
455.64
5.44286e-14
455.659
2.41189e-15
6.75231e-14
455.415
9.71271e-13
455.22
1.90575e-12
455.248
9.1022e-13
455.272
1.15217e-13
455.297
2.22787e-14
455.321
1.54087e-15
455.345
4.12495e-14
455.369
4.59045e-15
455.393
3.95175e-14
455.418
2.38009e-14
455.442
1.19613e-14
455.466
6.21052e-14
455.49
4.06998e-14
455.514
2.9485e-14
455.538
5.11563e-14
455.562
3.38811e-14
455.586
2.89859e-14
455.602
4.74709e-15
455.621
2.94993e-14
4.46584e-14
455.375
3.9867e-14
455.18
1.55292e-13
455.208
1.6119e-13
455.232
1.13875e-14
455.257
3.21293e-14
455.281
1.7494e-14
455.305
1.89566e-14
455.329
2.49251e-14
455.353
3.99717e-15
455.378
8.14703e-15
455.402
2.81201e-14
455.426
6.49241e-14
455.45
4.27659e-14
455.474
6.49575e-15
455.498
6.96138e-14
455.522
3.27268e-14
455.546
9.4665e-15
455.562
8.18565e-15
455.582
1.79398e-14
3.42864e-14
455.333
2.71595e-12
455.137
3.13292e-12
455.165
7.44687e-13
455.19
2.62044e-13
455.214
2.60476e-14
455.238
3.79122e-14
455.263
2.18534e-14
455.287
3.29891e-14
455.311
2.32221e-14
455.335
5.50893e-14
455.359
2.31597e-14
455.384
2.27854e-14
455.408
5.27308e-14
455.432
4.72242e-14
455.456
2.13299e-14
455.48
4.88706e-14
455.504
2.51637e-14
455.52
8.6368e-15
455.54
7.83432e-14
3.69639e-14
455.289
3.08172e-12
455.093
4.62785e-12
455.121
1.43799e-12
455.145
1.14599e-13
455.17
1.18654e-13
455.194
2.3592e-14
455.218
7.67472e-15
455.242
6.33815e-14
455.267
7.07938e-14
455.291
2.69633e-14
455.315
8.06228e-15
455.339
1.80834e-14
455.364
4.77688e-14
455.388
5.245e-14
455.412
1.35714e-13
455.436
6.08217e-14
455.46
3.31812e-14
455.477
2.88335e-14
455.496
4.68099e-15
3.36027e-14
455.245
2.83088e-12
455.048
3.37045e-12
455.077
9.44506e-13
455.101
1.24302e-13
455.125
6.38838e-14
455.15
8.90689e-15
455.174
4.18033e-14
455.199
4.2924e-14
455.223
5.19981e-14
455.247
4.13803e-14
455.271
3.74867e-14
455.296
5.18746e-15
455.32
5.1102e-15
455.344
3.43609e-14
455.368
5.58393e-14
455.392
1.08627e-13
455.416
5.71536e-14
455.433
5.5582e-14
455.452
4.13452e-14
6.52553e-15
455.205
2.87213e-12
455.009
3.6055e-12
455.037
9.67346e-13
455.061
1.71534e-13
455.086
7.90784e-14
455.11
6.57177e-15
455.134
5.6517e-14
455.159
1.19116e-14
455.183
1.14339e-14
455.207
3.02024e-14
455.232
4.25876e-14
455.256
1.25445e-14
455.28
9.36782e-15
455.304
1.15006e-14
455.329
9.18512e-14
455.353
7.43325e-14
455.377
7.03236e-15
455.394
7.32624e-15
455.413
3.033e-14
3.47209e-14
455.179
3.92481e-12
454.985
5.55751e-12
455.012
1.60889e-12
455.036
2.95151e-13
455.06
6.0638e-15
455.084
3.44263e-14
455.108
1.84955e-14
455.131
8.16117e-14
455.155
3.52639e-14
455.179
9.31972e-16
455.203
1.05976e-14
455.227
3.14924e-15
455.251
1.27214e-14
455.275
6.03571e-14
455.299
5.29931e-14
455.323
3.86299e-15
455.347
3.79126e-14
455.364
5.37594e-14
455.383
2.99831e-14
3.3848e-14
455.378
455.378
455.378
455.378
455.378
455.378
455.378
455.378
455.378
455.378
455.378
455.378
455.378
455.378
455.378
455.378
455.378
455.378
455.378
)
;

boundaryField
{
    movingWall
    {
        type            calculated;
        value           uniform 0;
    }
    fixedWalls
    {
        type            calculated;
        value           nonuniform List<scalar> 
60
(
250
250
250
250
250
250
250
250
250
250
250
250
250
250
250
250
250
250
250
250
250
250
250
250
250
250
250
250
250
250
250
250
250
250
250
250
250
250
250
250
0
0
0
0
0
0
0
0
0
0
0
0
0
0
0
0
0
0
0
0
)
;
    }
    frontAndBack
    {
        type            empty;
        value           nonuniform List<scalar> 0();
    }
}


// ************************************************************************* //
