/*--------------------------------*- C++ -*----------------------------------*\
| =========                 |                                                 |
| \\      /  F ield         | OpenFOAM: The Open Source CFD Toolbox           |
|  \\    /   O peration     | Version:  2312                                  |
|   \\  /    A nd           | Website:  www.openfoam.com                      |
|    \\/     M anipulation  |                                                 |
\*---------------------------------------------------------------------------*/
FoamFile
{
    version     2.0;
    format      ascii;
    arch        "LSB;label=32;scalar=64";
    class       surfaceScalarField;
    location    "9.5";
    object      phi;
}
// * * * * * * * * * * * * * * * * * * * * * * * * * * * * * * * * * * * * * //

dimensions      [0 3 -1 0 0 0 0];

oriented        oriented;

internalField   nonuniform List<scalar> 
760
(
-5e-05
5.16208e-19
-5e-05
-6.92068e-19
-5e-05
2.19536e-19
-5e-05
-2.99781e-20
-5e-05
7.09925e-21
-5e-05
1.89909e-22
-5e-05
3.71921e-21
-5e-05
3.69666e-21
-5e-05
3.11195e-21
-5e-05
-1.48317e-21
-5e-05
-8.94996e-22
-5e-05
-1.19507e-21
-5e-05
1.59181e-21
-5e-05
8.3745e-21
-5e-05
1.37353e-20
-5e-05
9.46785e-21
-5e-05
-9.25372e-22
-5e-05
-9.27769e-21
-5e-05
-5.77738e-21
4.68534e-21
-5e-05
-3.73018e-19
-5e-05
5.15427e-19
-5e-05
-1.32392e-19
-5e-05
2.65178e-20
-5e-05
-1.11737e-20
-5e-05
-3.28293e-21
-5e-05
-2.17305e-22
-5e-05
-2.52567e-21
-5e-05
-2.9164e-21
-5e-05
-2.12153e-21
-5e-05
4.57281e-21
-5e-05
7.70579e-21
-5e-05
3.52546e-21
-5e-05
-2.00951e-25
-5e-05
1.99615e-21
-5e-05
8.39916e-21
-5e-05
1.60085e-21
-5e-05
-3.21777e-21
-5e-05
-2.25453e-21
-5.92276e-21
-5e-05
-2.28734e-19
-5e-05
2.76003e-19
-5e-05
-6.64888e-20
-5e-05
2.22109e-20
-5e-05
6.26329e-22
-5e-05
-3.71808e-21
-5e-05
-4.64471e-21
-5e-05
-8.659e-22
-5e-05
5.2089e-21
-5e-05
5.82133e-21
-5e-05
5.4115e-21
-5e-05
5.86558e-21
-5e-05
1.87346e-21
-5e-05
-3.0332e-22
-5e-05
6.31868e-21
-5e-05
3.96558e-21
-5e-05
6.83946e-21
-5e-05
1.12361e-21
-5e-05
-6.91778e-21
-2.73084e-21
-5e-05
3.48894e-19
-5e-05
-4.70846e-19
-5e-05
1.32927e-19
-5e-05
-2.02009e-20
-5e-05
1.01312e-20
-5e-05
6.38298e-21
-5e-05
6.60275e-21
-5e-05
7.92075e-21
-5e-05
-1.48633e-21
-5e-05
2.17347e-21
-5e-05
7.06689e-21
-5e-05
8.07074e-21
-5e-05
4.15419e-21
-5e-05
2.51321e-21
-5e-05
-1.96972e-21
-5e-05
-2.86084e-21
-5e-05
-7.30862e-21
-5e-05
-4.27043e-21
-5e-05
-1.44209e-21
-1.45243e-21
-5e-05
-3.96687e-19
-5e-05
4.87447e-19
-5e-05
-1.30838e-19
-5e-05
2.00105e-20
-5e-05
-4.03179e-22
-5e-05
7.90387e-21
-5e-05
6.6336e-21
-5e-05
8.11395e-21
-5e-05
2.69038e-21
-5e-05
3.73463e-21
-5e-05
6.94474e-21
-5e-05
4.02865e-21
-5e-05
4.16704e-21
-5e-05
4.2291e-22
-5e-05
-5.96771e-21
-5e-05
-2.74933e-21
-5e-05
3.3041e-21
-5e-05
2.54549e-21
-5e-05
1.73437e-21
9.60652e-22
-5e-05
1.61237e-19
-5e-05
-2.10078e-19
-5e-05
4.51057e-20
-5e-05
-3.88311e-21
-5e-05
7.69554e-21
-5e-05
1.4248e-21
-5e-05
2.55429e-21
-5e-05
2.10153e-21
-5e-05
1.01817e-20
-5e-05
9.27973e-22
-5e-05
-4.95159e-21
-5e-05
-3.45309e-21
-5e-05
2.13725e-22
-5e-05
-1.46804e-21
-5e-05
-4.22383e-21
-5e-05
-2.1926e-21
-5e-05
8.84708e-23
-5e-05
7.77929e-21
-5e-05
6.27728e-21
5.19296e-21
-5e-05
2.42323e-19
-5e-05
-3.71916e-19
-5e-05
1.31649e-19
-5e-05
-2.46906e-20
-5e-05
1.19424e-21
-5e-05
3.34519e-21
-5e-05
7.9255e-21
-5e-05
3.0644e-22
-5e-05
4.06549e-21
-5e-05
1.15019e-21
-5e-05
-1.34887e-21
-5e-05
6.72206e-22
-5e-05
2.45328e-21
-5e-05
1.95981e-21
-5e-05
6.82502e-21
-5e-05
7.09268e-21
-5e-05
5.84184e-21
-5e-05
-1.31368e-21
-5e-05
4.08265e-22
-9.73575e-24
-5e-05
-3.31849e-19
-5e-05
5.11774e-19
-5e-05
-1.84175e-19
-5e-05
2.90662e-20
-5e-05
-6.26268e-21
-5e-05
-2.94144e-21
-5e-05
-4.53818e-21
-5e-05
-5.91174e-22
-5e-05
-5.09028e-21
-5e-05
1.33589e-21
-5e-05
-7.55115e-22
-5e-05
8.5064e-22
-5e-05
6.26892e-22
-5e-05
5.29293e-21
-5e-05
6.78987e-21
-5e-05
-1.58352e-22
-5e-05
-9.35382e-21
-5e-05
-5.88929e-21
-5e-05
-3.73241e-22
1.66868e-21
-5e-05
2.06384e-19
-5e-05
-2.4386e-19
-5e-05
8.64915e-20
-5e-05
-1.1298e-20
-5e-05
3.26844e-21
-5e-05
-4.93727e-21
-5e-05
-6.91128e-21
-5e-05
-4.46831e-21
-5e-05
-3.54057e-21
-5e-05
-9.72439e-22
-5e-05
7.61357e-22
-5e-05
3.39664e-21
-5e-05
2.0483e-21
-5e-05
-1.4336e-21
-5e-05
-9.29313e-21
-5e-05
-1.05275e-20
-5e-05
-6.92119e-21
-5e-05
-1.32001e-21
-5e-05
5.04424e-21
5.23427e-21
-5e-05
1.15322e-19
-5e-05
-1.34206e-19
-5e-05
3.89732e-20
-5e-05
-2.09573e-21
-5e-05
6.9476e-21
-5e-05
-2.31966e-21
-5e-05
-7.44891e-21
-5e-05
-2.4433e-21
-5e-05
-5.54698e-21
-5e-05
-2.38911e-21
-5e-05
1.4296e-21
-5e-05
3.11958e-21
-5e-05
3.37857e-21
-5e-05
-7.0957e-22
-5e-05
-6.98059e-21
-5e-05
-4.9069e-21
-5e-05
-4.95043e-21
-5e-05
1.67045e-21
-5e-05
5.09083e-21
3.91107e-21
-5e-05
-1.034e-19
-5e-05
2.10232e-19
-5e-05
-8.64091e-20
-5e-05
6.08384e-21
-5e-05
-2.39077e-21
-5e-05
3.17273e-21
-5e-05
1.71875e-22
-5e-05
-4.04583e-21
-5e-05
8.50613e-22
-5e-05
-2.00423e-21
-5e-05
-5.62755e-21
-5e-05
-4.84351e-21
-5e-05
4.65403e-22
-5e-05
-2.68207e-21
-5e-05
-2.90862e-21
-5e-05
8.05214e-22
-5e-05
4.99461e-21
-5e-05
-2.08587e-22
-5e-05
-3.33657e-21
-5.54434e-21
-5e-05
2.03292e-19
-5e-05
-2.95421e-19
-5e-05
1.2237e-19
-5e-05
-1.62319e-20
-5e-05
-4.95016e-21
-5e-05
-8.63458e-22
-5e-05
-1.83997e-21
-5e-05
-3.14712e-21
-5e-05
-8.40796e-22
-5e-05
-3.85305e-21
-5e-05
-5.12841e-21
-5e-05
-2.85374e-21
-5e-05
1.25702e-21
-5e-05
-7.2337e-22
-5e-05
4.98426e-21
-5e-05
4.65574e-21
-5e-05
7.82899e-22
-5e-05
-5.9731e-21
-5e-05
-2.64677e-22
7.4095e-21
-5e-05
-1.0659e-19
-5e-05
2.09341e-19
-5e-05
-9.99759e-20
-5e-05
1.26546e-20
-5e-05
-2.44676e-21
-5e-05
1.6922e-22
-5e-05
4.52975e-21
-5e-05
5.04076e-22
-5e-05
-4.3391e-21
-5e-05
-2.61329e-21
-5e-05
-1.31324e-21
-5e-05
-6.81829e-21
-5e-05
-4.46797e-21
-5e-05
3.23671e-21
-5e-05
5.61529e-21
-5e-05
3.71889e-21
-5e-05
-3.18137e-21
-5e-05
-5.21e-22
-5e-05
-3.23748e-21
-4.90091e-21
-5e-05
-4.37551e-21
-5e-05
-1.70598e-20
-5e-05
1.77062e-20
-5e-05
-1.25084e-21
-5e-05
-3.52893e-21
-5e-05
-1.92139e-21
-5e-05
2.08188e-21
-5e-05
2.73726e-21
-5e-05
-4.38937e-22
-5e-05
-8.94608e-22
-5e-05
3.0876e-21
-5e-05
-7.12841e-21
-5e-05
-4.69521e-21
-5e-05
7.13133e-22
-5e-05
7.64201e-21
-5e-05
3.59252e-21
-5e-05
-1.0391e-21
-5e-05
8.98467e-22
-5e-05
-1.96903e-21
-3.763e-21
-5e-05
2.98111e-19
-5e-05
-3.44206e-19
-5e-05
8.18095e-20
-5e-05
-2.87864e-20
-5e-05
-2.86123e-21
-5e-05
-4.16434e-21
-5e-05
2.40025e-21
-5e-05
3.6232e-21
-5e-05
2.55031e-21
-5e-05
6.04981e-21
-5e-05
2.54318e-21
-5e-05
2.50199e-21
-5e-05
-5.7898e-21
-5e-05
-5.18497e-21
-5e-05
-2.34176e-21
-5e-05
-5.36518e-21
-5e-05
2.76237e-21
-5e-05
9.48076e-22
-5e-05
-8.59958e-21
-4.05724e-21
-5e-05
-3.38291e-19
-5e-05
5.08499e-19
-5e-05
-1.5799e-19
-5e-05
1.25904e-20
-5e-05
-1.30349e-20
-5e-05
-2.59164e-21
-5e-05
8.43028e-22
-5e-05
6.96187e-21
-5e-05
7.77551e-21
-5e-05
2.96135e-21
-5e-05
-8.85411e-22
-5e-05
-1.98587e-21
-5e-05
-5.24548e-21
-5e-05
-5.75929e-21
-5e-05
-1.49012e-20
-5e-05
-6.67784e-21
-5e-05
-3.64286e-21
-5e-05
-3.16541e-21
-5e-05
5.13873e-22
-3.68867e-21
-5e-05
3.10784e-19
-5e-05
-3.70372e-19
-5e-05
1.03781e-19
-5e-05
-1.36576e-20
-5e-05
7.0187e-21
-5e-05
-9.78534e-22
-5e-05
-4.5923e-21
-5e-05
-4.71524e-21
-5e-05
-5.71164e-21
-5e-05
-4.54518e-21
-5e-05
-4.11722e-21
-5e-05
5.69724e-22
-5e-05
5.61202e-22
-5e-05
-3.77336e-21
-5e-05
-6.13161e-21
-5e-05
-1.19277e-20
-5e-05
-6.27527e-21
-5e-05
6.10247e-21
-5e-05
4.53923e-21
7.16391e-22
-5e-05
3.15336e-19
-5e-05
-3.96229e-19
-5e-05
1.06298e-19
-5e-05
-1.88486e-20
-5e-05
8.6887e-21
-5e-05
7.22044e-22
-5e-05
-6.20912e-21
-5e-05
-1.30859e-21
-5e-05
1.25602e-21
-5e-05
-3.31765e-21
-5e-05
-4.67781e-21
-5e-05
1.37784e-21
-5e-05
1.02885e-21
-5e-05
-1.26304e-21
-5e-05
-1.00868e-20
-5e-05
-8.16262e-21
-5e-05
7.72188e-22
-5e-05
8.04425e-22
-5e-05
-3.33014e-21
3.81205e-21
-5e-05
-4.30933e-19
-5e-05
6.10484e-19
-5e-05
-1.76727e-19
-5e-05
3.242e-20
-5e-05
6.66036e-22
-5e-05
3.78125e-21
-5e-05
-2.03141e-21
-5e-05
-8.96345e-21
-5e-05
-3.87292e-21
-5e-05
1.02354e-22
-5e-05
-1.16384e-21
-5e-05
-3.45846e-22
-5e-05
1.397e-21
-5e-05
-6.628e-21
-5e-05
-5.81915e-21
-5e-05
-4.24184e-22
-5e-05
-4.16294e-21
-5e-05
-5.90286e-21
-5e-05
-3.29213e-21
-3.7164e-21
-5e-05
-5e-05
-5e-05
-5e-05
-5e-05
-5e-05
-5e-05
-5e-05
-5e-05
-5e-05
-5e-05
-5e-05
-5e-05
-5e-05
-5e-05
-5e-05
-5e-05
-5e-05
-5e-05
)
;

boundaryField
{
    movingWall
    {
        type            calculated;
        value           uniform 0;
    }
    fixedWalls
    {
        type            calculated;
        value           nonuniform List<scalar> 
60
(
5e-05
5e-05
5e-05
5e-05
5e-05
5e-05
5e-05
5e-05
5e-05
5e-05
5e-05
5e-05
5e-05
5e-05
5e-05
5e-05
5e-05
5e-05
5e-05
5e-05
-5e-05
-5e-05
-5e-05
-5e-05
-5e-05
-5e-05
-5e-05
-5e-05
-5e-05
-5e-05
-5e-05
-5e-05
-5e-05
-5e-05
-5e-05
-5e-05
-5e-05
-5e-05
-5e-05
-5e-05
0
0
0
0
0
0
0
0
0
0
0
0
0
0
0
0
0
0
0
0
)
;
    }
    frontAndBack
    {
        type            empty;
        value           nonuniform List<scalar> 0();
    }
}


// ************************************************************************* //
