/*--------------------------------*- C++ -*----------------------------------*\
| =========                 |                                                 |
| \\      /  F ield         | OpenFOAM: The Open Source CFD Toolbox           |
|  \\    /   O peration     | Version:  2312                                  |
|   \\  /    A nd           | Website:  www.openfoam.com                      |
|    \\/     M anipulation  |                                                 |
\*---------------------------------------------------------------------------*/
FoamFile
{
    version     2.0;
    format      ascii;
    arch        "LSB;label=32;scalar=64";
    class       volScalarField;
    location    "9.5";
    object      pNear;
}
// * * * * * * * * * * * * * * * * * * * * * * * * * * * * * * * * * * * * * //

dimensions      [0 2 -2 0 0 0 0];

internalField   nonuniform List<scalar> 
400
(
0
2.8476e-15
1.13438e-15
8.91952e-16
5.33989e-16
4.6149e-16
3.96625e-16
2.08829e-16
0
0
0
0
0
0
0
0
0
0
0
0
1.40984e-15
0
8.79969e-16
5.57013e-16
6.9238e-16
5.37164e-16
3.25691e-16
3.4585e-17
0
0
0
0
0
0
0
0
0
0
0
0
7.07657e-16
1.4236e-15
5.91076e-16
8.82016e-16
7.56861e-16
4.4911e-16
1.76165e-16
1.11564e-16
0
0
0
0
0
0
0
0
0
0
0
0
2.89148e-16
1.81635e-15
8.19535e-16
7.63506e-16
5.94106e-16
3.96733e-16
1.31182e-16
8.59125e-17
0
0
0
0
0
0
0
0
0
0
0
0
1.18812e-15
0
8.73961e-16
5.55526e-16
5.60802e-16
2.44334e-16
9.30075e-17
0
0
0
0
0
0
0
0
0
0
0
0
0
6.62124e-16
1.35857e-15
9.60672e-16
8.28183e-16
5.40106e-16
2.68264e-16
7.75938e-17
0
0
0
0
0
0
0
0
0
0
0
0
0
9.82302e-16
2.86558e-15
6.83496e-16
7.90916e-16
4.13593e-16
2.29975e-16
1.42464e-16
0
0
0
0
0
0
0
0
0
0
0
0
0
2.21543e-15
0
7.91185e-16
5.52024e-16
4.24999e-16
5.77755e-17
0
0
0
0
0
0
0
0
0
0
0
0
0
0
8.59227e-16
3.31885e-15
7.86808e-16
6.36283e-16
3.88355e-16
2.35094e-16
6.07936e-17
0
0
0
0
0
0
0
0
0
0
0
0
0
8.04589e-16
1.51202e-16
6.88564e-16
5.1553e-16
4.09788e-16
3.32364e-16
2.59017e-16
8.46299e-17
0
0
0
0
0
0
0
0
0
0
0
0
8.30119e-16
0
5.91215e-16
4.72682e-16
2.83482e-16
4.1641e-16
4.88611e-16
2.5283e-16
2.27061e-17
0
0
0
0
0
0
0
0
0
0
0
3.47964e-16
3.29919e-15
3.64111e-16
7.57005e-16
2.37615e-16
2.90207e-16
4.54148e-16
2.37463e-16
0
0
0
0
0
0
0
0
0
0
0
0
7.97915e-16
0
4.48927e-16
2.95959e-16
4.62595e-16
2.11429e-16
4.32769e-16
2.70234e-16
0
0
0
0
0
0
0
0
0
0
0
0
2.42968e-16
2.91967e-15
2.31612e-16
4.87781e-16
3.41037e-16
2.03201e-16
2.52188e-16
2.04237e-16
0
0
0
0
0
0
0
0
0
0
0
0
6.89492e-16
0
6.68484e-16
3.34852e-16
3.25226e-16
1.8484e-16
1.31031e-16
5.24975e-17
0
0
0
0
0
0
0
0
0
0
0
0
1.10062e-15
0
6.22211e-16
4.03324e-16
4.86497e-16
2.07253e-16
1.18545e-16
5.12226e-17
0
0
0
0
0
0
0
0
0
0
0
0
0
2.50265e-15
8.50563e-16
8.73893e-16
5.46848e-16
2.89896e-16
7.62766e-17
0
0
0
0
0
0
0
0
0
0
0
0
0
5.82193e-16
6.68545e-16
7.4035e-16
6.1668e-16
5.67512e-16
3.436e-16
2.02404e-16
0
0
0
0
0
0
0
0
0
0
0
0
0
1.14829e-15
0
6.9489e-16
4.90706e-16
6.46325e-16
3.63033e-16
2.51092e-16
0
0
0
0
0
0
0
0
0
0
0
0
0
0
2.34554e-15
6.7848e-16
6.29918e-16
4.48145e-16
3.40589e-16
2.1058e-16
4.00413e-17
0
0
0
0
0
0
0
0
0
0
0
0
)
;

boundaryField
{
    movingWall
    {
        type            zeroGradient;
    }
    fixedWalls
    {
        type            calculated;
        value           nonuniform List<scalar> 
60
(
2.11477e-16
1.09304e-15
7.50209e-16
4.8677e-16
9.74375e-16
7.8905e-16
1.11924e-15
1.82703e-15
1.05446e-15
8.16614e-16
7.53966e-16
4.8778e-16
6.4718e-16
3.93188e-16
6.84182e-16
8.73857e-16
2.52422e-16
5.79779e-16
8.91132e-16
1.72244e-16
0
0
0
0
0
0
0
0
0
0
0
0
0
0
0
0
0
0
0
0
4.2714e-16
2.16348e-15
1.355e-15
8.74622e-16
5.76808e-16
4.62635e-16
3.78185e-16
2.05674e-16
3.13244e-17
0
0
0
0
0
0
0
0
0
0
0
)
;
    }
    frontAndBack
    {
        type            empty;
    }
}


// ************************************************************************* //
