/*--------------------------------*- C++ -*----------------------------------*\
| =========                 |                                                 |
| \\      /  F ield         | OpenFOAM: The Open Source CFD Toolbox           |
|  \\    /   O peration     | Version:  2312                                  |
|   \\  /    A nd           | Website:  www.openfoam.com                      |
|    \\/     M anipulation  |                                                 |
\*---------------------------------------------------------------------------*/
FoamFile
{
    version     2.0;
    format      ascii;
    arch        "LSB;label=32;scalar=64";
    class       volScalarField;
    location    "9.5";
    object      QField;
}
// * * * * * * * * * * * * * * * * * * * * * * * * * * * * * * * * * * * * * //

dimensions      [0 0 -2 0 0 0 0];

internalField   nonuniform List<scalar> 
400
(
-3.50872e-23
-1.00705e-23
-5.61464e-25
1.94575e-26
-5.22532e-27
8.62183e-28
-6.44535e-28
5.26347e-29
4.49388e-28
7.02972e-28
9.47878e-29
-8.50413e-28
0
-8.6334e-28
-2.10166e-27
-1.35127e-27
-1.6838e-27
-1.35638e-27
0
0
-6.77337e-23
-2.01742e-23
-1.19229e-24
-2.19995e-26
-4.19521e-27
3.15724e-28
-6.09368e-28
-4.87423e-28
-5.417e-29
1.05107e-28
0
-1.28014e-27
1.80404e-28
-3.20559e-28
-8.73609e-28
0
2.37768e-27
0
5.82436e-28
-6.96426e-28
-6.00153e-23
-1.95095e-23
-3.47143e-25
-6.66196e-26
1.57604e-26
-2.63909e-27
2.97478e-28
1.19216e-27
2.42985e-31
3.53016e-28
7.97139e-28
-7.5339e-28
8.35703e-29
-2.35122e-29
0
5.1017e-28
0
0
-2.87007e-29
-4.96722e-28
-5.06008e-23
-1.47405e-23
-6.16266e-25
-4.62883e-26
-3.56326e-27
-2.59107e-27
-3.85523e-28
-5.42737e-28
-1.85781e-28
1.46506e-28
0
-4.78991e-29
-6.53329e-29
-2.75287e-28
-9.81888e-28
-5.06548e-28
-9.75772e-28
1.36095e-28
3.41766e-28
-7.75034e-28
-4.63076e-23
-1.2859e-23
-7.66941e-25
-3.22392e-26
2.56136e-27
0
2.94843e-28
1.55771e-27
-1.90286e-28
-1.12076e-27
-1.46509e-29
7.86227e-28
1.77257e-27
1.82136e-27
-9.23905e-29
-9.6343e-29
-3.19889e-28
-1.06859e-27
8.2792e-29
1.53932e-30
-4.79592e-23
-1.39861e-23
-4.62176e-25
1.20317e-26
0
-2.05329e-27
-1.84682e-29
0
8.6248e-30
8.88021e-28
-1.67493e-27
-5.54298e-28
-1.64059e-28
0
-4.09475e-28
4.41625e-28
9.62419e-28
-3.00545e-28
0
-1.24732e-28
-3.76824e-23
-1.45786e-23
2.07912e-25
-5.25698e-26
9.24896e-27
-6.35258e-28
7.13488e-28
-3.30446e-28
-8.08306e-28
0
-3.2031e-28
-2.34854e-28
2.24459e-28
-2.64782e-28
-3.45114e-28
-6.2754e-29
1.09582e-28
0
-6.38937e-28
-3.50325e-28
-1.95629e-23
-8.57849e-24
-7.02124e-25
2.91007e-26
-2.39884e-27
1.26536e-27
-3.87353e-28
1.82853e-29
3.45492e-28
3.32953e-28
-4.75479e-28
1.91928e-28
3.22812e-28
7.93845e-28
0
1.31718e-27
-4.50652e-28
0
-8.99733e-29
-8.47453e-29
-3.12327e-23
-1.22919e-23
-1.86487e-25
-5.64258e-26
9.15004e-27
-8.49085e-28
-5.46839e-30
-2.96216e-28
-3.31872e-28
-7.03368e-28
-1.53831e-28
-4.85035e-28
-6.74784e-28
-1.6765e-28
-1.17626e-27
2.01521e-28
-5.58554e-28
-4.64215e-28
-3.98093e-28
-4.99471e-28
-3.02757e-23
-1.22222e-23
1.77177e-25
0
-1.41166e-26
3.60566e-27
-2.39195e-28
-3.44376e-29
-5.39945e-29
4.05726e-28
3.13271e-28
6.18706e-29
4.7076e-28
1.27294e-27
0
-9.70632e-29
1.10447e-27
1.14078e-27
9.37237e-29
0
-9.6264e-24
-5.48268e-24
2.26006e-25
2.20409e-26
-3.12021e-27
-4.94277e-28
1.59305e-28
-3.62173e-28
-4.18457e-28
6.79722e-29
-8.11063e-28
0
3.43338e-30
1.3968e-28
-1.3248e-27
3.54552e-28
-1.07988e-27
0
-9.40326e-28
-8.5418e-29
1.98871e-24
-1.29622e-24
-1.78013e-25
1.67701e-26
3.10681e-27
-1.15527e-27
0
-1.2946e-29
0
4.05819e-29
-6.38161e-29
3.66385e-28
0
0
7.29388e-29
2.79842e-28
0
6.85384e-28
4.21225e-28
2.36968e-29
1.35079e-24
-8.51548e-25
-1.30684e-25
1.90183e-26
1.14052e-27
4.07187e-28
0
-5.09529e-28
-4.73886e-28
2.44053e-28
0
-7.43159e-28
1.59193e-28
0
-1.97751e-27
-3.02454e-29
3.52321e-28
-9.26629e-29
-1.13083e-28
-4.71963e-28
-8.57957e-24
-4.51905e-24
-1.79835e-25
1.13514e-26
-2.90404e-27
0
-6.31931e-30
-2.11802e-28
-3.59346e-28
6.13654e-29
-7.27156e-28
-2.84537e-28
2.57717e-27
3.82903e-27
-1.79176e-29
1.53703e-27
3.13328e-28
-3.04038e-28
2.36064e-28
-8.80851e-29
-2.48038e-23
-9.98407e-24
3.23333e-25
-6.94811e-26
9.02728e-27
-1.57535e-27
2.18425e-27
-3.5728e-28
4.83326e-28
1.35583e-28
-8.93188e-28
-1.61063e-27
-9.89671e-29
3.6443e-28
-2.48402e-27
-2.06528e-27
-1.12154e-29
0
3.65843e-28
5.18436e-28
-3.577e-23
-1.16294e-23
-1.86155e-25
-1.57626e-26
3.31018e-27
0
0
0
3.82371e-28
1.29264e-27
1.16751e-27
1.75477e-27
1.30516e-27
1.06266e-27
-1.92763e-27
0
-9.33632e-28
3.59085e-28
-4.7282e-28
-4.28345e-28
-4.19643e-23
-1.29226e-23
-6.43392e-25
-3.32464e-26
-2.0686e-27
-6.67705e-28
4.74172e-29
-2.4663e-27
-1.04452e-27
3.47201e-28
-2.01387e-28
-1.10325e-28
-1.07457e-27
2.95213e-28
-2.22506e-28
-4.29738e-29
6.72379e-28
-8.29868e-28
3.47456e-28
-2.86832e-28
-5.00628e-23
-1.64468e-23
-6.93678e-26
-4.76679e-26
6.8184e-27
-1.31953e-28
-1.05968e-28
2.95399e-28
1.70362e-28
1.44294e-28
1.67354e-27
4.36068e-28
-8.29385e-28
-6.34833e-28
-1.69577e-29
5.81899e-28
1.19434e-27
-1.56157e-28
-3.72551e-28
-3.00858e-28
-4.98481e-23
-1.46451e-23
-7.49184e-25
-2.49018e-26
2.28386e-27
6.30501e-28
3.40799e-28
-2.28755e-28
-2.16042e-28
4.1632e-28
-4.82904e-28
-7.68299e-28
1.66497e-27
2.63531e-29
4.25056e-29
-1.80268e-27
-1.04907e-28
-8.6768e-28
-2.48742e-28
-2.08727e-28
-2.35365e-23
-6.81929e-24
-4.38129e-25
8.7954e-27
-5.51557e-27
4.39233e-28
-1.44142e-27
-4.91875e-28
3.96655e-28
2.53583e-28
-3.06705e-28
-1.80319e-28
-6.04265e-28
-7.51853e-28
-3.18265e-28
1.26694e-28
-6.16994e-28
4.44121e-28
1.43645e-28
2.14443e-28
)
;

boundaryField
{
    movingWall
    {
        type            calculated;
        value           nonuniform List<scalar> 
20
(
6.14415e-24
4.85539e-24
-1.07358e-24
1.37198e-25
-3.16285e-26
2.51874e-27
-7.32838e-27
-8.51138e-28
3.2494e-27
1.03868e-27
-6.39849e-28
-4.26999e-28
-2.97008e-27
-2.56567e-27
-9.36891e-31
6.22724e-28
-1.40801e-27
8.83784e-28
2.35348e-28
1.26901e-28
)
;
    }
    fixedWalls
    {
        type            calculated;
        value           nonuniform List<scalar> 
60
(
-1.98476e-22
-3.65939e-22
-3.11842e-22
-2.62084e-22
-2.44821e-22
-2.48368e-22
-1.94108e-22
-1.37887e-22
-1.72397e-22
-1.5555e-22
-5.39744e-23
-5.66408e-24
-8.22654e-24
-5.2755e-23
-1.26591e-22
-1.93708e-22
-2.28826e-22
-2.55986e-22
-2.70822e-22
-1.30475e-22
0
-1.14102e-27
-7.42731e-28
-1.15219e-27
-4.05663e-28
-2.0436e-28
-4.86196e-28
1.23034e-28
-7.98678e-28
0
4.85094e-29
-6.31282e-28
-7.73265e-28
-2.65084e-28
1.01545e-27
-7.79607e-28
-4.69946e-28
-5.23231e-28
1.02267e-28
2.24443e-28
1.39373e-23
1.13697e-23
-2.05731e-24
1.91275e-25
-3.84246e-26
7.18193e-27
-2.64523e-27
2.19031e-28
1.47255e-27
2.87937e-27
1.46206e-27
-3.59104e-27
-6.51694e-27
-5.12296e-27
-5.1358e-27
-4.45758e-27
-3.67831e-27
-2.51522e-27
-7.21825e-28
0
)
;
    }
    frontAndBack
    {
        type            empty;
    }
}


// ************************************************************************* //
