/*--------------------------------*- C++ -*----------------------------------*\
| =========                 |                                                 |
| \\      /  F ield         | OpenFOAM: The Open Source CFD Toolbox           |
|  \\    /   O peration     | Version:  2312                                  |
|   \\  /    A nd           | Website:  www.openfoam.com                      |
|    \\/     M anipulation  |                                                 |
\*---------------------------------------------------------------------------*/
FoamFile
{
    version     2.0;
    format      ascii;
    arch        "LSB;label=32;scalar=64";
    class       surfaceScalarField;
    location    "9.5";
    object      surfaceK;
}
// * * * * * * * * * * * * * * * * * * * * * * * * * * * * * * * * * * * * * //

dimensions      [0 2 -2 0 0 0 0];

internalField   nonuniform List<scalar> 
760
(
2.68289e-06
2.70029e-06
2.68289e-06
2.70029e-06
2.68288e-06
2.70026e-06
2.68288e-06
2.70025e-06
2.68288e-06
2.70023e-06
2.68288e-06
2.70022e-06
2.68288e-06
2.7002e-06
2.68288e-06
2.7002e-06
2.68288e-06
2.70018e-06
2.68288e-06
2.70017e-06
2.68288e-06
2.70016e-06
2.68288e-06
2.70016e-06
2.68288e-06
2.70015e-06
2.68288e-06
2.70014e-06
2.68288e-06
2.70013e-06
2.68288e-06
2.70013e-06
2.68288e-06
2.70013e-06
2.68288e-06
2.70013e-06
2.68288e-06
2.70013e-06
2.70013e-06
2.71769e-06
2.746e-06
2.71766e-06
2.746e-06
2.71762e-06
2.74594e-06
2.71759e-06
2.74592e-06
2.71756e-06
2.74587e-06
2.71754e-06
2.74586e-06
2.71751e-06
2.74582e-06
2.71749e-06
2.74581e-06
2.71747e-06
2.74578e-06
2.71745e-06
2.74577e-06
2.71744e-06
2.74574e-06
2.71742e-06
2.74573e-06
2.71741e-06
2.74571e-06
2.7174e-06
2.74571e-06
2.71739e-06
2.74569e-06
2.71738e-06
2.74569e-06
2.71737e-06
2.74567e-06
2.71737e-06
2.74567e-06
2.71737e-06
2.74567e-06
2.74567e-06
2.77431e-06
2.80532e-06
2.77428e-06
2.80532e-06
2.77424e-06
2.80525e-06
2.7742e-06
2.80523e-06
2.77417e-06
2.80519e-06
2.77415e-06
2.80517e-06
2.77412e-06
2.80513e-06
2.7741e-06
2.80511e-06
2.77407e-06
2.80509e-06
2.77405e-06
2.80507e-06
2.77404e-06
2.80505e-06
2.77402e-06
2.80503e-06
2.77401e-06
2.80501e-06
2.77399e-06
2.80501e-06
2.77398e-06
2.80499e-06
2.77398e-06
2.80499e-06
2.77397e-06
2.80497e-06
2.77397e-06
2.80497e-06
2.77397e-06
2.80497e-06
2.80497e-06
2.83632e-06
2.8637e-06
2.83629e-06
2.8637e-06
2.83625e-06
2.86364e-06
2.83622e-06
2.86361e-06
2.83618e-06
2.86357e-06
2.83616e-06
2.86355e-06
2.83613e-06
2.86351e-06
2.8361e-06
2.86349e-06
2.83608e-06
2.86346e-06
2.83606e-06
2.86344e-06
2.83604e-06
2.86342e-06
2.83602e-06
2.8634e-06
2.83601e-06
2.86339e-06
2.836e-06
2.86338e-06
2.83599e-06
2.86336e-06
2.83598e-06
2.86336e-06
2.83598e-06
2.86335e-06
2.83597e-06
2.86334e-06
2.83597e-06
2.86334e-06
2.86334e-06
2.89108e-06
2.91205e-06
2.89104e-06
2.91205e-06
2.891e-06
2.91198e-06
2.89097e-06
2.91196e-06
2.89093e-06
2.91191e-06
2.8909e-06
2.91189e-06
2.89087e-06
2.91185e-06
2.89085e-06
2.91183e-06
2.89082e-06
2.9118e-06
2.8908e-06
2.91178e-06
2.89078e-06
2.91176e-06
2.89077e-06
2.91174e-06
2.89075e-06
2.91173e-06
2.89074e-06
2.91172e-06
2.89073e-06
2.9117e-06
2.89072e-06
2.91169e-06
2.89072e-06
2.91168e-06
2.89071e-06
2.91168e-06
2.89071e-06
2.91168e-06
2.91168e-06
2.93302e-06
2.94763e-06
2.93299e-06
2.94763e-06
2.93295e-06
2.94757e-06
2.93291e-06
2.94754e-06
2.93287e-06
2.9475e-06
2.93284e-06
2.94747e-06
2.93281e-06
2.94743e-06
2.93279e-06
2.94741e-06
2.93276e-06
2.94738e-06
2.93274e-06
2.94736e-06
2.93272e-06
2.94734e-06
2.9327e-06
2.94732e-06
2.93269e-06
2.9473e-06
2.93267e-06
2.94729e-06
2.93266e-06
2.94728e-06
2.93266e-06
2.94727e-06
2.93265e-06
2.94726e-06
2.93265e-06
2.94725e-06
2.93264e-06
2.94725e-06
2.94725e-06
2.96225e-06
2.9719e-06
2.96221e-06
2.9719e-06
2.96216e-06
2.97183e-06
2.96213e-06
2.9718e-06
2.96209e-06
2.97176e-06
2.96206e-06
2.97173e-06
2.96203e-06
2.97169e-06
2.962e-06
2.97167e-06
2.96198e-06
2.97164e-06
2.96196e-06
2.97162e-06
2.96194e-06
2.9716e-06
2.96192e-06
2.97157e-06
2.9619e-06
2.97156e-06
2.96189e-06
2.97154e-06
2.96188e-06
2.97153e-06
2.96187e-06
2.97152e-06
2.96186e-06
2.97151e-06
2.96186e-06
2.97151e-06
2.96186e-06
2.97151e-06
2.97151e-06
2.98155e-06
2.98789e-06
2.98151e-06
2.98789e-06
2.98146e-06
2.98781e-06
2.98143e-06
2.98779e-06
2.98139e-06
2.98775e-06
2.98136e-06
2.98771e-06
2.98133e-06
2.98768e-06
2.9813e-06
2.98765e-06
2.98128e-06
2.98763e-06
2.98125e-06
2.9876e-06
2.98123e-06
2.98758e-06
2.98122e-06
2.98756e-06
2.9812e-06
2.98754e-06
2.98119e-06
2.98753e-06
2.98118e-06
2.98752e-06
2.98117e-06
2.98751e-06
2.98116e-06
2.9875e-06
2.98116e-06
2.98749e-06
2.98115e-06
2.98749e-06
2.98749e-06
2.99422e-06
2.9986e-06
2.99419e-06
2.9986e-06
2.99414e-06
2.99853e-06
2.9941e-06
2.99851e-06
2.99407e-06
2.99846e-06
2.99404e-06
2.99843e-06
2.994e-06
2.99839e-06
2.99398e-06
2.99837e-06
2.99395e-06
2.99834e-06
2.99393e-06
2.99832e-06
2.99391e-06
2.99829e-06
2.99389e-06
2.99828e-06
2.99387e-06
2.99825e-06
2.99386e-06
2.99825e-06
2.99385e-06
2.99823e-06
2.99384e-06
2.99822e-06
2.99383e-06
2.99821e-06
2.99383e-06
2.99821e-06
2.99383e-06
2.9982e-06
2.9982e-06
3.00298e-06
3.00634e-06
3.00294e-06
3.00634e-06
3.00289e-06
3.00627e-06
3.00286e-06
3.00624e-06
3.00282e-06
3.0062e-06
3.00279e-06
3.00617e-06
3.00276e-06
3.00613e-06
3.00273e-06
3.00611e-06
3.00271e-06
3.00608e-06
3.00268e-06
3.00606e-06
3.00266e-06
3.00603e-06
3.00264e-06
3.00601e-06
3.00263e-06
3.00599e-06
3.00261e-06
3.00598e-06
3.0026e-06
3.00596e-06
3.00259e-06
3.00596e-06
3.00259e-06
3.00595e-06
3.00258e-06
3.00595e-06
3.00258e-06
3.00594e-06
3.00594e-06
3.0097e-06
3.01264e-06
3.00967e-06
3.01264e-06
3.00962e-06
3.01256e-06
3.00958e-06
3.01254e-06
3.00954e-06
3.01249e-06
3.00951e-06
3.01246e-06
3.00948e-06
3.01242e-06
3.00945e-06
3.0124e-06
3.00943e-06
3.01237e-06
3.0094e-06
3.01235e-06
3.00938e-06
3.01232e-06
3.00936e-06
3.0123e-06
3.00935e-06
3.01228e-06
3.00933e-06
3.01228e-06
3.00932e-06
3.01226e-06
3.00931e-06
3.01225e-06
3.00931e-06
3.01224e-06
3.0093e-06
3.01224e-06
3.0093e-06
3.01223e-06
3.01223e-06
3.01557e-06
3.01842e-06
3.01553e-06
3.01842e-06
3.01548e-06
3.01835e-06
3.01544e-06
3.01832e-06
3.01541e-06
3.01827e-06
3.01538e-06
3.01825e-06
3.01534e-06
3.01821e-06
3.01532e-06
3.01819e-06
3.01529e-06
3.01815e-06
3.01527e-06
3.01813e-06
3.01525e-06
3.01811e-06
3.01523e-06
3.01809e-06
3.01521e-06
3.01807e-06
3.0152e-06
3.01806e-06
3.01519e-06
3.01804e-06
3.01518e-06
3.01804e-06
3.01517e-06
3.01803e-06
3.01517e-06
3.01802e-06
3.01516e-06
3.01802e-06
3.01802e-06
3.02127e-06
3.02424e-06
3.02124e-06
3.02424e-06
3.02119e-06
3.02417e-06
3.02115e-06
3.02414e-06
3.02112e-06
3.02409e-06
3.02108e-06
3.02407e-06
3.02105e-06
3.02403e-06
3.02102e-06
3.02401e-06
3.021e-06
3.02397e-06
3.02097e-06
3.02395e-06
3.02095e-06
3.02392e-06
3.02093e-06
3.02391e-06
3.02092e-06
3.02389e-06
3.0209e-06
3.02388e-06
3.02089e-06
3.02386e-06
3.02088e-06
3.02385e-06
3.02088e-06
3.02384e-06
3.02087e-06
3.02384e-06
3.02087e-06
3.02384e-06
3.02383e-06
3.02721e-06
3.03035e-06
3.02717e-06
3.03036e-06
3.02712e-06
3.03028e-06
3.02708e-06
3.03026e-06
3.02705e-06
3.0302e-06
3.02701e-06
3.03018e-06
3.02698e-06
3.03014e-06
3.02695e-06
3.03012e-06
3.02693e-06
3.03008e-06
3.0269e-06
3.03006e-06
3.02688e-06
3.03003e-06
3.02686e-06
3.03002e-06
3.02685e-06
3.03e-06
3.02683e-06
3.02999e-06
3.02682e-06
3.02997e-06
3.02681e-06
3.02996e-06
3.0268e-06
3.02995e-06
3.0268e-06
3.02995e-06
3.0268e-06
3.02995e-06
3.02994e-06
3.0335e-06
3.03679e-06
3.03346e-06
3.03679e-06
3.03341e-06
3.03672e-06
3.03338e-06
3.03669e-06
3.03334e-06
3.03664e-06
3.03331e-06
3.03661e-06
3.03327e-06
3.03658e-06
3.03325e-06
3.03655e-06
3.03322e-06
3.03652e-06
3.03319e-06
3.03649e-06
3.03317e-06
3.03647e-06
3.03315e-06
3.03645e-06
3.03314e-06
3.03644e-06
3.03312e-06
3.03642e-06
3.03311e-06
3.03641e-06
3.03311e-06
3.0364e-06
3.0331e-06
3.03639e-06
3.03309e-06
3.03639e-06
3.03309e-06
3.03638e-06
3.03638e-06
3.04008e-06
3.04335e-06
3.04004e-06
3.04335e-06
3.03999e-06
3.04328e-06
3.03996e-06
3.04325e-06
3.03992e-06
3.0432e-06
3.03989e-06
3.04317e-06
3.03985e-06
3.04314e-06
3.03982e-06
3.04311e-06
3.0398e-06
3.04308e-06
3.03977e-06
3.04305e-06
3.03975e-06
3.04303e-06
3.03974e-06
3.04301e-06
3.03972e-06
3.04299e-06
3.0397e-06
3.04298e-06
3.03969e-06
3.04297e-06
3.03968e-06
3.04296e-06
3.03968e-06
3.04295e-06
3.03967e-06
3.04294e-06
3.03967e-06
3.04294e-06
3.04294e-06
3.04662e-06
3.04958e-06
3.04658e-06
3.04958e-06
3.04653e-06
3.04951e-06
3.04649e-06
3.04948e-06
3.04646e-06
3.04943e-06
3.04642e-06
3.0494e-06
3.04639e-06
3.04936e-06
3.04636e-06
3.04934e-06
3.04634e-06
3.04931e-06
3.04631e-06
3.04929e-06
3.04629e-06
3.04926e-06
3.04627e-06
3.04925e-06
3.04626e-06
3.04922e-06
3.04624e-06
3.04921e-06
3.04623e-06
3.04919e-06
3.04622e-06
3.04919e-06
3.04621e-06
3.04917e-06
3.04621e-06
3.04917e-06
3.04621e-06
3.04917e-06
3.04917e-06
3.05254e-06
3.05482e-06
3.0525e-06
3.05482e-06
3.05245e-06
3.05475e-06
3.05242e-06
3.05472e-06
3.05238e-06
3.05467e-06
3.05234e-06
3.05464e-06
3.05231e-06
3.0546e-06
3.05228e-06
3.05458e-06
3.05226e-06
3.05455e-06
3.05223e-06
3.05453e-06
3.05221e-06
3.0545e-06
3.05219e-06
3.05449e-06
3.05218e-06
3.05446e-06
3.05216e-06
3.05445e-06
3.05215e-06
3.05443e-06
3.05214e-06
3.05443e-06
3.05213e-06
3.05442e-06
3.05213e-06
3.05441e-06
3.05213e-06
3.05441e-06
3.05441e-06
3.05709e-06
3.05815e-06
3.05706e-06
3.05814e-06
3.05701e-06
3.05811e-06
3.05697e-06
3.05809e-06
3.05694e-06
3.05807e-06
3.05691e-06
3.05806e-06
3.05687e-06
3.05804e-06
3.05685e-06
3.05803e-06
3.05682e-06
3.05801e-06
3.0568e-06
3.058e-06
3.05677e-06
3.05799e-06
3.05676e-06
3.05798e-06
3.05674e-06
3.05797e-06
3.05673e-06
3.05796e-06
3.05671e-06
3.05796e-06
3.05671e-06
3.05795e-06
3.0567e-06
3.05795e-06
3.05669e-06
3.05794e-06
3.05669e-06
3.05794e-06
3.05794e-06
3.0592e-06
3.0592e-06
3.0592e-06
3.05919e-06
3.05919e-06
3.05919e-06
3.05919e-06
3.05919e-06
3.05919e-06
3.05919e-06
3.05919e-06
3.05919e-06
3.05919e-06
3.05919e-06
3.05919e-06
3.05919e-06
3.05919e-06
3.05919e-06
3.05919e-06
)
;

boundaryField
{
    movingWall
    {
        type            calculated;
        value           nonuniform List<scalar> 
20
(
3.0592e-06
3.0592e-06
3.0592e-06
3.05919e-06
3.05919e-06
3.05919e-06
3.05919e-06
3.05919e-06
3.05919e-06
3.05919e-06
3.05919e-06
3.05919e-06
3.05919e-06
3.05919e-06
3.05919e-06
3.05919e-06
3.05919e-06
3.05919e-06
3.05919e-06
3.05919e-06
)
;
    }
    fixedWalls
    {
        type            calculated;
        value           nonuniform List<scalar> 
60
(
2.68289e-06
2.71769e-06
2.77431e-06
2.83632e-06
2.89108e-06
2.93302e-06
2.96225e-06
2.98155e-06
2.99422e-06
3.00298e-06
3.0097e-06
3.01557e-06
3.02128e-06
3.02721e-06
3.0335e-06
3.04008e-06
3.04662e-06
3.05254e-06
3.05709e-06
3.0592e-06
2.68288e-06
2.71737e-06
2.77397e-06
2.83597e-06
2.89071e-06
2.93264e-06
2.96186e-06
2.98115e-06
2.99383e-06
3.00258e-06
3.0093e-06
3.01516e-06
3.02087e-06
3.0268e-06
3.03309e-06
3.03967e-06
3.04621e-06
3.05213e-06
3.05669e-06
3.05919e-06
2.68289e-06
2.68289e-06
2.68288e-06
2.68288e-06
2.68288e-06
2.68288e-06
2.68288e-06
2.68288e-06
2.68288e-06
2.68288e-06
2.68288e-06
2.68288e-06
2.68288e-06
2.68288e-06
2.68288e-06
2.68288e-06
2.68288e-06
2.68288e-06
2.68288e-06
2.68288e-06
)
;
    }
    frontAndBack
    {
        type            empty;
        value           nonuniform List<scalar> 0();
    }
}


// ************************************************************************* //
