/*--------------------------------*- C++ -*----------------------------------*\
| =========                 |                                                 |
| \\      /  F ield         | OpenFOAM: The Open Source CFD Toolbox           |
|  \\    /   O peration     | Version:  2312                                  |
|   \\  /    A nd           | Website:  www.openfoam.com                      |
|    \\/     M anipulation  |                                                 |
\*---------------------------------------------------------------------------*/
FoamFile
{
    version     2.0;
    format      ascii;
    arch        "LSB;label=32;scalar=64";
    class       surfaceScalarField;
    location    "9.5";
    object      surfaceDivU;
}
// * * * * * * * * * * * * * * * * * * * * * * * * * * * * * * * * * * * * * //

dimensions      [0 0 -1 0 0 0 0];

internalField   nonuniform List<scalar> 
760
(
6.66609e-12
-4.96022e-12
-7.72387e-13
3.79811e-13
1.24672e-13
-8.23318e-14
-7.37669e-14
3.37527e-14
2.05364e-14
-2.78808e-15
6.84323e-15
6.76738e-15
-1.85916e-14
1.90571e-15
-1.07301e-14
1.29372e-14
-1.9368e-15
1.43179e-14
-1.81202e-14
-1.72767e-14
-6.84729e-16
-5.05308e-15
2.21672e-14
1.30603e-15
9.92413e-15
-1.53312e-14
-5.34741e-15
3.10948e-15
-2.23625e-14
1.71585e-14
-1.80439e-14
-1.04732e-14
1.11925e-14
1.77022e-15
9.57546e-15
1.98416e-14
-5.01916e-15
-4.25154e-14
2.71051e-14
-1.12465e-11
-9.45966e-12
1.06987e-12
9.04299e-13
-1.73251e-13
-2.16705e-13
1.04731e-13
8.61632e-14
-1.65571e-14
-2.93413e-14
1.82986e-15
1.36489e-14
3.34345e-14
6.0863e-15
3.79851e-14
2.86741e-14
-1.022e-15
4.29135e-15
-4.20959e-15
-9.77842e-15
-3.06232e-15
-4.58551e-15
-3.61924e-14
-1.18446e-14
-2.21459e-14
-3.56499e-15
2.56154e-14
-1.16464e-14
2.90479e-14
1.83002e-14
9.34094e-15
-1.46262e-14
1.04193e-14
9.89849e-15
-3.22492e-14
1.47681e-14
-1.03912e-14
-2.13118e-14
1.35525e-14
2.69114e-12
9.86624e-12
-3.82272e-13
-9.88179e-13
4.27086e-14
1.67043e-13
-4.79095e-14
-5.4223e-14
8.64761e-16
-2.03658e-14
1.79054e-14
-1.04223e-14
1.32587e-15
-7.00015e-15
-5.0197e-15
-1.38501e-14
-4.46508e-15
2.06556e-14
-1.01543e-14
1.51002e-14
-1.33678e-14
-1.40028e-14
2.07828e-14
3.99284e-16
6.93447e-15
2.68904e-14
-1.89617e-14
-3.57787e-14
-2.53739e-14
4.89064e-15
-1.40687e-14
-2.47319e-14
1.42474e-14
2.66225e-14
2.57056e-14
1.90511e-14
2.63191e-15
3.91038e-14
-4.06576e-14
6.18693e-12
-2.37169e-12
-4.38865e-13
2.59516e-13
7.0111e-14
-3.59925e-14
-2.66792e-14
1.84274e-14
-3.16529e-14
-2.80195e-14
-3.53278e-14
-2.78464e-14
-2.21762e-14
-6.15944e-15
1.18252e-14
-6.24039e-15
4.02208e-14
2.24522e-14
1.12517e-14
3.99702e-15
-2.35738e-16
-4.37028e-15
6.50692e-15
-8.38976e-15
-1.58227e-14
-4.58584e-16
-1.19264e-14
-2.50222e-14
5.53262e-15
1.39919e-14
1.59593e-14
-1.18299e-14
3.14263e-14
9.03599e-15
3.24494e-14
-1.17416e-14
-4.18569e-15
2.7563e-14
-2.71051e-14
-8.2991e-12
-3.82181e-12
6.62388e-13
6.5776e-13
-8.76761e-14
-9.72544e-14
1.70872e-14
-7.59606e-15
-2.4213e-14
-2.00685e-14
1.32202e-15
2.2853e-14
9.77633e-15
-3.55197e-15
4.38668e-15
9.17785e-15
-1.37716e-14
-2.07206e-14
-1.1625e-14
-2.21028e-14
-1.25243e-14
7.59868e-16
-1.53553e-14
2.23341e-15
-9.65804e-15
8.01483e-15
8.96128e-16
-3.2324e-15
-3.37058e-15
-2.24484e-15
-1.87532e-14
9.91345e-15
-3.41319e-14
-4.64884e-15
-1.6628e-14
-2.30198e-14
4.64361e-15
1.34771e-14
-1.35525e-14
5.13505e-12
9.85269e-12
-1.01883e-13
-1.30544e-12
-1.71745e-14
2.84664e-13
-4.47518e-14
-1.32126e-13
2.69974e-14
2.05348e-14
1.7979e-14
2.08895e-14
-4.15046e-15
-2.06322e-14
-1.59295e-14
-1.77705e-16
-2.90519e-14
9.21406e-15
-9.71798e-15
-1.19904e-14
1.55176e-14
3.39776e-15
2.56035e-14
-1.65454e-14
1.44405e-14
1.95602e-14
-6.37337e-15
-1.01007e-14
1.10392e-14
-7.7101e-15
2.40178e-14
-2.39965e-15
6.46327e-15
-3.84709e-15
7.08524e-15
-1.70805e-14
-4.71905e-15
2.53263e-14
-1.35525e-14
3.4122e-12
-7.7656e-12
-9.18893e-13
9.67909e-13
1.69713e-13
-1.66512e-13
-6.68391e-14
1.08953e-13
1.44269e-14
-1.95655e-14
-1.77217e-14
2.80591e-14
-1.66595e-14
-3.98182e-14
2.49658e-14
-3.51355e-15
2.62756e-14
1.75184e-14
1.12537e-15
7.68267e-15
-2.86652e-14
-1.53239e-14
-2.25887e-14
-9.65136e-15
-4.98092e-15
7.32853e-15
-1.14374e-14
-1.30145e-14
-2.11489e-14
-8.62958e-15
-3.02645e-14
-3.53824e-14
-2.73909e-14
1.59692e-14
1.16056e-15
-2.51572e-14
1.64928e-14
3.1326e-14
-1.35525e-14
-1.02099e-11
-2.52077e-12
1.72029e-12
6.45093e-13
-2.27272e-13
-1.30798e-13
1.56227e-13
7.44143e-14
-5.93326e-15
-2.23036e-14
5.9626e-15
1.42764e-14
-2.66723e-14
-6.87457e-15
-1.0961e-14
-1.24284e-14
-1.07454e-15
-1.58117e-14
-8.76664e-15
1.51512e-15
3.68988e-15
-1.16945e-14
2.02658e-14
6.90737e-15
-7.0509e-16
6.35221e-15
-1.02067e-14
-5.04582e-15
-2.2863e-14
1.00597e-14
1.08513e-14
-2.02243e-14
1.82029e-14
2.59982e-14
5.00825e-15
-1.10865e-14
1.28061e-15
2.42218e-14
-1.35525e-14
8.33421e-12
8.00954e-12
-1.20599e-12
-1.17017e-12
1.70888e-13
2.43961e-13
-1.04116e-13
-9.92859e-14
-2.09389e-15
7.43519e-15
1.43924e-15
1.10996e-14
7.36933e-15
5.11815e-15
-1.72791e-14
-1.11158e-14
-1.32221e-14
-3.68692e-15
-1.41278e-15
-6.20687e-15
-8.47706e-15
8.00295e-16
-7.00625e-15
-5.27928e-15
2.01149e-15
7.50842e-15
1.52206e-14
-5.6962e-15
1.26985e-14
1.32593e-14
-5.07743e-15
-1.37341e-14
-3.29123e-15
6.14729e-15
8.12704e-15
-1.24963e-14
9.38866e-15
2.47012e-15
-1.35525e-14
-1.49484e-12
-6.64074e-12
2.79785e-13
1.12558e-12
-2.62131e-14
-2.14324e-13
1.22653e-14
8.01269e-14
2.06287e-14
1.55975e-14
1.47785e-14
1.55918e-14
-1.3367e-14
-2.81326e-14
2.47633e-15
1.46052e-14
3.32827e-15
-2.26859e-14
-3.9938e-15
-9.8454e-15
3.99808e-15
1.79858e-14
9.23539e-15
-2.42197e-16
-1.99262e-16
2.28078e-14
-7.65754e-15
5.78803e-15
-1.31733e-14
-2.05764e-14
-2.50938e-15
4.81302e-15
-3.05778e-15
-1.43437e-14
-1.81532e-14
-1.45179e-14
-2.04711e-14
1.81475e-14
-1.35525e-14
-4.02032e-12
3.79471e-12
6.31471e-13
-9.02024e-13
-1.07984e-13
1.57317e-13
8.3459e-14
-8.16893e-14
1.05606e-14
4.81822e-14
-2.73193e-14
3.07103e-15
-1.60415e-16
-1.96811e-14
-1.05571e-14
1.30039e-14
-3.58596e-14
-3.18271e-14
1.21342e-14
2.06591e-15
1.37455e-14
1.11774e-14
1.33302e-14
-1.15891e-14
2.87951e-14
1.82189e-14
-7.13085e-15
9.47537e-15
-2.59014e-15
-2.55768e-14
-7.02126e-15
2.39044e-14
-2.58038e-14
-2.01242e-14
2.17829e-14
-9.42438e-15
2.50661e-14
2.21252e-14
-1.35525e-14
6.913e-12
-8.94467e-13
-1.37618e-12
3.52353e-13
1.83612e-13
-7.91876e-14
-1.16966e-13
1.345e-14
4.06926e-14
-1.37312e-14
1.07092e-14
3.93982e-14
-6.51687e-15
4.04232e-15
-8.26622e-15
-3.31427e-14
6.09832e-15
1.85638e-14
1.10916e-15
-2.65415e-14
-1.41572e-14
1.1275e-15
-6.7004e-15
1.96375e-14
-1.10078e-15
-6.89442e-15
-8.9706e-15
3.36291e-15
9.17774e-16
-3.253e-14
1.08015e-14
1.62524e-14
-3.74478e-15
-3.68823e-15
-9.08201e-15
-2.41255e-14
-1.64934e-14
5.58484e-15
1.35525e-14
-7.45512e-12
-3.45589e-12
1.64934e-12
5.34542e-13
-2.49349e-13
-1.23236e-13
1.16685e-13
4.70408e-14
-1.50256e-14
-1.91284e-14
3.27314e-14
2.43328e-14
-2.25835e-14
2.41946e-14
-6.31262e-15
-3.64637e-14
-1.4076e-14
1.76807e-14
-2.65232e-14
-2.07789e-14
3.49222e-14
-2.49285e-15
1.94434e-14
2.99692e-14
-2.43073e-15
-3.98671e-15
-2.01965e-14
8.56367e-15
-1.71954e-14
-3.80292e-14
1.7626e-15
1.31481e-14
-2.4069e-14
-5.4131e-15
-9.45869e-15
-3.02133e-14
3.56307e-14
-2.85662e-16
-2.65057e-28
4.53376e-12
7.27771e-12
-1.23804e-12
-1.15349e-12
1.73154e-13
1.8148e-13
-8.87726e-14
-7.84308e-14
2.023e-14
3.56737e-15
1.5796e-14
-1.50302e-16
1.03143e-14
2.56261e-14
-1.24704e-14
1.8521e-15
1.09779e-14
7.61418e-15
3.25144e-15
1.23686e-14
-7.44585e-15
-3.36647e-15
6.53901e-15
-1.09998e-14
7.00769e-15
5.58265e-15
-9.26905e-15
-6.58772e-15
-7.68568e-15
-9.47511e-15
5.97243e-15
3.85601e-14
-1.15575e-14
-2.38561e-14
-2.10403e-14
-1.17166e-14
-3.59164e-14
2.26594e-14
-2.71051e-14
1.59045e-12
-7.2235e-12
2.66029e-13
1.2091e-12
-7.01046e-14
-2.80876e-13
1.39092e-14
1.22681e-13
-1.6813e-14
-3.16486e-14
9.67978e-15
1.49099e-14
1.71639e-14
5.63224e-15
2.19366e-14
6.03382e-15
9.00488e-15
4.72097e-15
5.75064e-15
-1.21456e-14
-6.92041e-15
-9.684e-15
-1.19562e-14
-1.82112e-14
-8.01275e-15
1.88629e-14
-6.79378e-15
-2.37023e-14
3.67707e-14
3.62377e-14
8.73166e-15
2.88701e-14
-2.40152e-14
-1.95118e-14
3.19832e-14
-4.21239e-16
3.14708e-14
2.97149e-14
1.35525e-14
-7.60485e-12
6.91179e-13
6.62191e-13
-1.53227e-13
-8.80902e-14
2.81381e-14
7.71232e-14
1.57522e-14
7.42967e-17
3.00873e-15
1.08624e-14
-1.78209e-14
-5.49783e-15
-8.2803e-15
-1.11819e-14
1.67826e-14
-1.64295e-14
2.85159e-15
-2.75803e-14
-1.74768e-14
-2.09748e-14
-1.01706e-14
1.26079e-14
-2.92161e-15
3.17338e-15
3.21995e-15
1.93292e-14
-5.55442e-15
2.8337e-14
1.57719e-14
6.2655e-16
3.98143e-15
4.08212e-15
2.50873e-14
-2.68949e-15
-2.13181e-14
1.17966e-14
1.64502e-14
-1.67239e-28
8.14281e-12
9.25638e-12
-7.87279e-13
-9.64111e-13
1.31981e-13
1.98922e-13
-5.83623e-14
-5.92718e-14
-1.48865e-14
2.18576e-14
-3.69636e-14
-4.17349e-14
1.40001e-14
8.94465e-15
3.0816e-14
-8.5577e-17
1.80435e-15
-8.86194e-15
-6.7139e-17
7.44279e-16
7.88255e-15
3.10107e-16
-1.23096e-14
-7.72392e-15
-5.50785e-15
-8.6439e-15
-9.11165e-15
2.40702e-15
-8.58368e-15
-7.11636e-15
2.84422e-14
-5.91901e-15
-3.12912e-16
3.02487e-15
-2.17841e-15
7.95364e-15
4.65355e-15
2.95398e-14
-2.71051e-14
1.49459e-13
-9.79848e-12
2.20905e-14
9.78857e-13
7.66941e-15
-2.20151e-13
2.09481e-14
9.02188e-14
-4.9908e-15
-2.56434e-14
4.17333e-15
-7.65717e-15
-5.14103e-15
2.24142e-14
-3.97635e-14
-1.89075e-14
-9.92201e-15
-6.79054e-15
1.12152e-15
6.44511e-15
-1.52964e-14
-1.08005e-14
-4.05826e-15
1.87129e-14
-7.29032e-16
-2.28015e-14
4.40231e-15
1.13453e-14
-4.45169e-15
9.17917e-15
-3.13363e-14
-3.47802e-14
1.12914e-14
-2.27375e-14
3.96719e-14
4.72506e-14
-2.21879e-15
3.52762e-15
-1.35525e-14
-8.96908e-12
-3.483e-12
7.36616e-13
1.3822e-13
-1.37602e-13
-2.50203e-14
4.36273e-14
9.39142e-15
-2.83098e-14
-3.35267e-14
1.05837e-14
5.21697e-15
8.64775e-15
5.36671e-15
1.40655e-14
3.28104e-15
9.57658e-15
1.07845e-14
-5.47693e-15
-1.20792e-15
2.32088e-14
-1.78215e-14
-3.03671e-17
4.10303e-14
-1.07272e-14
-2.75081e-14
1.61222e-14
1.67809e-14
-2.11493e-14
-6.58776e-16
-2.61813e-14
-6.93804e-15
1.32217e-14
-3.27958e-14
1.11063e-14
4.60175e-14
-7.80612e-15
5.74641e-15
-1.35525e-14
5.6243e-12
-6.23416e-13
1.21973e-13
-6.77626e-14
0
0
0
0
0
-1.35525e-14
6.31089e-30
1.35525e-14
0
0
1.35525e-14
-1.35525e-14
1.51461e-28
4.06576e-14
-1.67239e-28
)
;

boundaryField
{
    movingWall
    {
        type            calculated;
        value           nonuniform List<scalar> 
20
(
1.28749e-11
-1.6263e-12
3.79471e-13
-1.35525e-13
0
0
0
0
0
0
-2.71051e-14
2.71051e-14
0
0
0
2.71051e-14
-5.42101e-14
5.42101e-14
2.71051e-14
-2.71051e-14
)
;
    }
    fixedWalls
    {
        type            calculated;
        value           nonuniform List<scalar> 
60
(
1.52873e-11
-2.52077e-11
6.28837e-12
1.34441e-11
-1.81875e-11
1.05439e-11
9.16151e-12
-2.46927e-11
1.96512e-11
-3.63208e-12
-9.6494e-12
1.72388e-11
-1.90277e-11
1.2116e-11
2.43945e-12
-1.68864e-11
1.82688e-11
2.43945e-13
-1.98409e-11
1.28749e-11
0
5.42101e-14
-2.71051e-14
-5.42101e-14
0
-2.71051e-14
0
-2.71051e-14
0
-2.71051e-14
0
-2.71051e-14
5.42101e-14
-5.42101e-14
0
2.71051e-14
-2.71051e-14
-2.71051e-14
0
-2.71051e-14
1.52873e-11
-1.95508e-12
4.10305e-13
-1.60962e-13
1.34278e-14
2.7645e-14
-1.39585e-14
-2.32247e-14
1.76461e-15
-5.6382e-15
-3.06021e-14
2.92327e-14
1.51017e-14
4.74659e-15
-1.54414e-14
-2.92836e-14
-6.80414e-15
2.91892e-14
-1.00383e-14
0
)
;
    }
    frontAndBack
    {
        type            empty;
        value           nonuniform List<scalar> 0();
    }
}


// ************************************************************************* //
