/*--------------------------------*- C++ -*----------------------------------*\
| =========                 |                                                 |
| \\      /  F ield         | OpenFOAM: The Open Source CFD Toolbox           |
|  \\    /   O peration     | Version:  2312                                  |
|   \\  /    A nd           | Website:  www.openfoam.com                      |
|    \\/     M anipulation  |                                                 |
\*---------------------------------------------------------------------------*/
FoamFile
{
    version     2.0;
    format      ascii;
    arch        "LSB;label=32;scalar=64";
    class       surfaceScalarField;
    location    "9.5";
    object      surfaceP;
}
// * * * * * * * * * * * * * * * * * * * * * * * * * * * * * * * * * * * * * //

dimensions      [0 2 -2 0 0 0 0];

internalField   nonuniform List<scalar> 
760
(
1.4238e-15
7.04922e-16
1.99099e-15
1.4238e-15
1.01317e-15
1.00718e-15
7.1297e-16
7.24482e-16
4.97739e-16
6.13185e-16
4.29057e-16
4.99327e-16
3.02727e-16
3.61158e-16
1.04415e-16
1.21707e-16
0
0
0
0
0
0
0
0
0
0
0
0
0
0
0
0
0
0
0
0
0
0
0
7.04922e-16
1.05875e-15
4.39984e-16
7.11802e-16
7.18491e-16
7.35522e-16
6.24697e-16
7.19514e-16
6.14772e-16
7.24621e-16
4.31427e-16
4.93137e-16
1.80138e-16
2.50928e-16
1.72925e-17
7.30746e-17
0
0
0
0
0
0
0
0
0
0
0
0
0
0
0
0
0
0
0
0
0
0
0
1.06563e-15
4.98403e-16
1.00734e-15
1.61998e-15
7.36546e-16
7.05305e-16
8.19438e-16
8.22761e-16
6.02985e-16
6.75484e-16
3.12638e-16
4.22922e-16
1.43865e-16
1.53674e-16
5.5782e-17
9.87383e-17
0
0
0
0
0
0
0
0
0
0
0
0
0
0
0
0
0
0
0
0
0
0
0
1.05275e-15
7.38634e-16
1.31794e-15
9.08174e-16
7.91521e-16
8.46748e-16
6.78806e-16
6.59516e-16
4.9542e-16
5.77454e-16
2.63958e-16
3.20534e-16
1.08547e-16
1.12095e-16
4.29562e-17
4.29562e-17
0
0
0
0
0
0
0
0
0
0
0
0
0
0
0
0
0
0
0
0
0
0
0
5.9406e-16
9.25122e-16
4.36981e-16
6.79287e-16
7.14744e-16
9.17317e-16
5.58164e-16
6.91855e-16
4.02568e-16
5.50454e-16
1.68671e-16
2.56299e-16
4.65038e-17
8.53007e-17
0
0
0
0
0
0
0
0
0
0
0
0
0
0
0
0
0
0
0
0
0
0
0
0
0
1.01035e-15
8.22213e-16
1.15962e-15
2.11208e-15
8.94427e-16
8.22084e-16
6.84144e-16
8.0955e-16
4.04185e-16
4.76849e-16
1.72929e-16
2.4912e-16
3.87969e-17
1.10029e-16
0
0
0
0
0
0
0
0
0
0
0
0
0
0
0
0
0
0
0
0
0
0
0
0
0
1.92394e-15
1.59887e-15
1.77454e-15
1.43279e-15
7.37206e-16
7.37341e-16
6.02254e-16
6.7147e-16
3.21784e-16
4.19296e-16
1.86219e-16
1.43875e-16
7.12318e-17
7.12318e-17
0
0
0
0
0
0
0
0
0
0
0
0
0
0
0
0
0
0
0
0
0
0
0
0
0
1.10771e-15
1.53733e-15
3.95593e-16
1.65942e-15
6.71604e-16
7.88997e-16
4.88512e-16
5.94153e-16
2.41388e-16
4.06677e-16
2.88878e-17
1.46435e-16
0
3.03968e-17
0
0
0
0
0
0
0
0
0
0
0
0
0
0
0
0
0
0
0
0
0
0
0
0
0
2.08904e-15
8.31908e-16
2.05283e-15
1.73503e-15
7.11545e-16
7.37686e-16
5.12319e-16
5.75906e-16
3.11724e-16
3.99071e-16
1.47944e-16
2.83729e-16
3.03968e-17
1.59905e-16
0
4.23149e-17
0
0
0
0
0
0
0
0
0
0
0
0
0
0
0
0
0
0
0
0
0
0
0
4.77895e-16
8.17354e-16
4.19883e-16
7.56008e-17
6.02047e-16
6.3989e-16
4.62659e-16
4.94106e-16
3.71076e-16
3.46635e-16
2.95691e-16
3.74387e-16
1.71823e-16
3.73814e-16
4.23149e-17
1.6873e-16
0
1.1353e-17
0
0
0
0
0
0
0
0
0
0
0
0
0
0
0
0
0
0
0
0
0
4.15059e-16
5.89041e-16
2.95608e-16
1.6496e-15
5.31948e-16
4.77663e-16
3.78082e-16
6.14843e-16
3.49946e-16
2.60549e-16
4.52511e-16
3.53308e-16
3.7072e-16
4.71379e-16
1.37768e-16
2.45147e-16
1.1353e-17
1.1353e-17
0
0
0
0
0
0
0
0
0
0
0
0
0
0
0
0
0
0
0
0
0
1.82358e-15
5.7294e-16
1.83165e-15
1.6496e-15
5.60558e-16
4.06519e-16
4.9731e-16
5.26482e-16
2.63911e-16
3.50105e-16
3.72177e-16
2.50818e-16
3.45805e-16
4.43458e-16
1.18732e-16
2.53849e-16
0
0
0
0
0
0
0
0
0
0
0
0
0
0
0
0
0
0
0
0
0
0
0
3.98958e-16
5.20441e-16
2.24464e-16
1.45983e-15
3.72443e-16
3.40269e-16
3.79277e-16
3.9187e-16
3.37012e-16
4.01816e-16
3.22099e-16
2.07315e-16
3.51502e-16
3.42478e-16
1.35117e-16
2.37236e-16
0
0
0
0
0
0
0
0
0
0
0
0
0
0
0
0
0
0
0
0
0
0
0
1.58132e-15
4.6623e-16
1.57564e-15
1.45983e-15
3.59696e-16
4.50048e-16
4.14409e-16
4.11317e-16
2.72119e-16
3.33132e-16
2.27695e-16
1.94021e-16
2.28213e-16
1.91609e-16
1.02119e-16
1.28367e-16
0
0
0
0
0
0
0
0
0
0
0
0
0
0
0
0
0
0
0
0
0
0
0
3.44746e-16
8.95055e-16
3.34242e-16
0
5.01668e-16
6.45348e-16
3.30039e-16
3.69088e-16
2.55033e-16
4.05862e-16
1.57935e-16
1.96047e-16
9.17641e-17
1.24788e-16
2.62488e-17
5.186e-17
0
0
0
0
0
0
0
0
0
0
0
0
0
0
0
0
0
0
0
0
0
0
0
5.50309e-16
5.50309e-16
3.11106e-16
1.25132e-15
5.12768e-16
7.36387e-16
4.4491e-16
6.38608e-16
3.46875e-16
5.16672e-16
1.62899e-16
2.48575e-16
8.48838e-17
9.74108e-17
2.56113e-17
2.56113e-17
0
0
0
0
0
0
0
0
0
0
0
0
0
0
0
0
0
0
0
0
0
0
0
1.25132e-15
2.91097e-16
1.67661e-15
1.5856e-15
8.62228e-16
7.95456e-16
7.1037e-16
7.45287e-16
4.18372e-16
5.5718e-16
1.83086e-16
3.16748e-16
3.81383e-17
1.3934e-16
0
0
0
0
0
0
0
0
0
0
0
0
0
0
0
0
0
0
0
0
0
0
0
0
0
6.25369e-16
8.65242e-16
7.04448e-16
3.34273e-16
6.78515e-16
7.1762e-16
5.92096e-16
5.53693e-16
4.55556e-16
6.06918e-16
2.73002e-16
3.53317e-16
1.01202e-16
2.26748e-16
0
0
0
0
0
0
0
0
0
0
0
0
0
0
0
0
0
0
0
0
0
0
0
0
0
5.74145e-16
5.74145e-16
3.47445e-16
1.17277e-15
5.92798e-16
6.86685e-16
5.68516e-16
5.60312e-16
5.04679e-16
5.47235e-16
3.07063e-16
3.51811e-16
1.25546e-16
2.30836e-16
0
2.00207e-17
0
0
0
0
0
0
0
0
0
0
0
0
0
0
0
0
0
0
0
0
0
0
0
1.17277e-15
1.51201e-15
6.54199e-16
5.39031e-16
3.94367e-16
2.75584e-16
1.25311e-16
2.00207e-17
0
0
0
0
0
0
0
0
0
0
0
)
;

boundaryField
{
    movingWall
    {
        type            calculated;
        value           nonuniform List<scalar> 
20
(
0
2.34554e-15
6.7848e-16
6.29918e-16
4.48145e-16
3.40589e-16
2.1058e-16
4.00413e-17
0
0
0
0
0
0
0
0
0
0
0
0
)
;
    }
    fixedWalls
    {
        type            calculated;
        value           nonuniform List<scalar> 
60
(
0
1.40984e-15
7.07657e-16
2.89148e-16
1.18812e-15
6.62124e-16
9.82302e-16
2.21543e-15
8.59227e-16
8.04589e-16
8.30119e-16
3.47964e-16
7.97915e-16
2.42968e-16
6.89492e-16
1.10062e-15
0
5.82193e-16
1.14829e-15
0
0
0
0
0
0
0
0
0
0
0
0
0
0
0
0
0
0
0
0
0
0
2.8476e-15
1.13438e-15
8.91952e-16
5.33989e-16
4.6149e-16
3.96625e-16
2.08829e-16
0
0
0
0
0
0
0
0
0
0
0
0
)
;
    }
    frontAndBack
    {
        type            empty;
        value           nonuniform List<scalar> 0();
    }
}


// ************************************************************************* //
