/*--------------------------------*- C++ -*----------------------------------*\
| =========                 |                                                 |
| \\      /  F ield         | OpenFOAM: The Open Source CFD Toolbox           |
|  \\    /   O peration     | Version:  2312                                  |
|   \\  /    A nd           | Website:  www.openfoam.com                      |
|    \\/     M anipulation  |                                                 |
\*---------------------------------------------------------------------------*/
FoamFile
{
    version     2.0;
    format      ascii;
    arch        "LSB;label=32;scalar=64";
    class       surfaceVectorField;
    location    "9.5";
    object      surfaceU;
}
// * * * * * * * * * * * * * * * * * * * * * * * * * * * * * * * * * * * * * //

dimensions      [0 1 -1 0 0 0 0];

internalField   nonuniform List<vector> 
760
(
(-1 5.67801e-14 0)
(-1 8.05755e-14 0)
(-1 -1.17125e-14 0)
(-1 -1.69582e-14 0)
(-1 3.05206e-15 0)
(-1 4.35545e-15 0)
(-1 -5.37215e-16 0)
(-1 -8.04808e-16 0)
(-1 2.24022e-16 0)
(-1 2.02664e-16 0)
(-1 6.76765e-17 0)
(-1 2.69949e-18 0)
(-1 9.42579e-17 0)
(-1 6.57329e-17 0)
(-1 6.51468e-17 0)
(-1 1.94017e-17 0)
(-1 2.36981e-17 0)
(-1 8.82306e-18 0)
(-1 -4.11397e-17 0)
(-1 -2.8191e-17 0)
(-1 -6.56676e-17 0)
(-1 -1.74853e-17 0)
(-1 1.80882e-17 0)
(-1 1.0638e-17 0)
(-1 1.64837e-16 0)
(-1 7.55084e-17 0)
(-1 2.3679e-16 0)
(-1 1.59258e-16 0)
(-1 1.63962e-16 0)
(-1 1.93843e-16 0)
(-1 2.42002e-17 0)
(-1 1.24632e-16 0)
(-1 -7.93351e-17 0)
(-1 -3.40207e-17 0)
(-1 -7.13229e-17 0)
(-1 -1.25104e-16 0)
(-1 9.94735e-18 0)
(-1 -5.01916e-17 0)
(-1 1.95897e-17 0)
(-1 6.83715e-15 0)
(-1 -5.74326e-14 0)
(-1 -8.903e-16 0)
(-1 1.30314e-14 0)
(-1 4.98589e-16 0)
(-1 -2.73932e-15 0)
(-1 -6.49278e-17 0)
(-1 7.35759e-16 0)
(-1 -1.86577e-17 0)
(-1 -2.30545e-16 0)
(-1 7.55872e-19 0)
(-1 -7.05509e-17 0)
(-1 -9.12331e-18 0)
(-1 -4.66757e-17 0)
(-1 -3.6922e-17 0)
(-1 -2.55551e-17 0)
(-1 -4.3066e-17 0)
(-1 -1.16955e-18 0)
(-1 -4.5366e-18 0)
(-1 -9.05041e-18 0)
(-1 5.88203e-17 0)
(-1 1.0248e-16 0)
(-1 6.80582e-17 0)
(-1 1.37948e-16 0)
(-1 6.99299e-17 0)
(-1 4.22297e-17 0)
(-1 1.16312e-16 0)
(-1 7.36183e-18 0)
(-1 1.54514e-16 0)
(-1 1.13267e-16 0)
(-1 6.64116e-17 0)
(-1 1.77212e-16 0)
(-1 -7.97899e-17 0)
(-1 5.17229e-17 0)
(-1 -1.03973e-16 0)
(-1 -8.30553e-17 0)
(-1 -4.05492e-17 0)
(-1 -1.03912e-16 0)
(-1 -4.46442e-17 0)
(-1 -5.12383e-14 0)
(-1 -2.45175e-14 0)
(-1 1.11824e-14 0)
(-1 5.49836e-15 0)
(-1 -2.50215e-15 0)
(-1 -1.18957e-15 0)
(-1 5.70142e-16 0)
(-1 3.96924e-16 0)
(-1 -2.82438e-16 0)
(-1 -6.28674e-17 0)
(-1 -1.17983e-16 0)
(-1 -6.40102e-17 0)
(-1 -6.31075e-17 0)
(-1 -2.79865e-17 0)
(-1 1.01974e-17 0)
(-1 4.12452e-17 0)
(-1 3.2846e-17 0)
(-1 4.4083e-17 0)
(-1 9.79659e-17 0)
(-1 4.67914e-17 0)
(-1 1.81607e-16 0)
(-1 1.22716e-16 0)
(-1 1.12119e-16 0)
(-1 1.50182e-16 0)
(-1 -2.03384e-17 0)
(-1 5.76457e-17 0)
(-1 4.31735e-18 0)
(-1 1.16991e-17 0)
(-1 1.35965e-16 0)
(-1 6.97348e-17 0)
(-1 1.62523e-16 0)
(-1 8.3102e-17 0)
(-1 4.84575e-17 0)
(-1 4.7262e-17 0)
(-1 -8.2994e-17 0)
(-1 -4.03138e-17 0)
(-1 -1.08007e-16 0)
(-1 -1.09206e-16 0)
(-1 -6.1022e-17 0)
(-1 3.22192e-14 0)
(-1 5.18032e-14 0)
(-1 -6.87358e-15 0)
(-1 -1.13144e-14 0)
(-1 1.7095e-15 0)
(-1 2.58894e-15 0)
(-1 -2.36085e-16 0)
(-1 -5.32578e-16 0)
(-1 1.55561e-16 0)
(-1 2.65785e-16 0)
(-1 2.59858e-17 0)
(-1 9.53124e-17 0)
(-1 7.63662e-17 0)
(-1 9.35103e-17 0)
(-1 7.51309e-17 0)
(-1 9.13039e-17 0)
(-1 5.80284e-17 0)
(-1 2.69478e-17 0)
(-1 7.15412e-17 0)
(-1 1.0421e-16 0)
(-1 9.12911e-17 0)
(-1 1.43832e-16 0)
(-1 9.5709e-17 0)
(-1 1.24861e-16 0)
(-1 8.96831e-17 0)
(-1 7.57335e-17 0)
(-1 7.71165e-17 0)
(-1 3.70898e-17 0)
(-1 1.68718e-17 0)
(-1 -2.08284e-17 0)
(-1 -3.21592e-17 0)
(-1 -5.93706e-17 0)
(-1 -4.15093e-17 0)
(-1 -5.20872e-17 0)
(-1 -6.65259e-17 0)
(-1 -4.02253e-17 0)
(-1 -6.22213e-17 0)
(-1 -4.18569e-17 0)
(-1 -2.06484e-17 0)
(-1 8.26965e-15 0)
(-1 -5.05793e-14 0)
(-1 -1.85187e-15 0)
(-1 1.10635e-14 0)
(-1 3.46859e-16 0)
(-1 -2.54229e-15 0)
(-1 -3.07069e-17 0)
(-1 5.81327e-16 0)
(-1 2.05537e-16 0)
(-1 -3.879e-18 0)
(-1 1.62837e-16 0)
(-1 1.68325e-16 0)
(-1 1.08448e-16 0)
(-1 1.15946e-16 0)
(-1 4.31208e-17 0)
(-1 1.17343e-16 0)
(-1 7.31295e-17 0)
(-1 6.20494e-17 0)
(-1 1.76501e-16 0)
(-1 7.12854e-17 0)
(-1 1.77402e-16 0)
(-1 8.35155e-17 0)
(-1 1.04885e-16 0)
(-1 6.2292e-17 0)
(-1 2.31402e-17 0)
(-1 5.52059e-17 0)
(-1 -6.08551e-17 0)
(-1 -1.62611e-17 0)
(-1 -9.70709e-17 0)
(-1 -1.10303e-16 0)
(-1 -7.92987e-17 0)
(-1 -5.89281e-17 0)
(-1 -5.08033e-17 0)
(-1 6.92189e-18 0)
(-1 -1.55564e-17 0)
(-1 5.83348e-17 0)
(-1 -2.83955e-19 0)
(-1 4.64361e-17 0)
(-1 2.64586e-17 0)
(-1 -4.77854e-14 0)
(-1 1.1899e-14 0)
(-1 1.03731e-14 0)
(-1 -2.58857e-15 0)
(-1 -2.30782e-15 0)
(-1 7.56593e-16 0)
(-1 6.08155e-16 0)
(-1 -1.15186e-16 0)
(-1 -4.10911e-17 0)
(-1 7.42444e-17 0)
(-1 1.21434e-16 0)
(-1 6.02048e-17 0)
(-1 1.24841e-16 0)
(-1 1.19585e-16 0)
(-1 1.36271e-16 0)
(-1 1.09961e-16 0)
(-1 6.02052e-17 0)
(-1 1.3732e-16 0)
(-1 -2.17003e-17 0)
(-1 -2.1263e-17 0)
(-1 -3.15945e-17 0)
(-1 -7.59168e-17 0)
(-1 1.26125e-17 0)
(-1 -3.99579e-17 0)
(-1 1.58047e-17 0)
(-1 2.49423e-17 0)
(-1 -6.57089e-17 0)
(-1 -1.6063e-17 0)
(-1 -7.21602e-17 0)
(-1 -4.76707e-17 0)
(-1 2.72925e-17 0)
(-1 2.25373e-17 0)
(-1 1.1606e-16 0)
(-1 8.2115e-17 0)
(-1 1.20327e-16 0)
(-1 1.18043e-16 0)
(-1 7.31786e-17 0)
(-1 8.83347e-17 0)
(-1 4.94675e-17 0)
(-1 5.70959e-14 0)
(-1 5.56288e-14 0)
(-1 -1.22051e-14 0)
(-1 -1.20921e-14 0)
(-1 2.94923e-15 0)
(-1 2.76767e-15 0)
(-1 -6.49096e-16 0)
(-1 -6.63969e-16 0)
(-1 1.7554e-16 0)
(-1 1.31104e-16 0)
(-1 5.8356e-17 0)
(-1 1.31648e-17 0)
(-1 1.04705e-16 0)
(-1 8.06685e-17 0)
(-1 1.1101e-16 0)
(-1 2.37872e-17 0)
(-1 5.58519e-17 0)
(-1 9.03458e-17 0)
(-1 -7.54795e-17 0)
(-1 3.68845e-17 0)
(-1 -8.42802e-17 0)
(-1 -2.56308e-17 0)
(-1 -2.76281e-17 0)
(-1 1.00296e-17 0)
(-1 -6.92536e-18 0)
(-1 3.51343e-17 0)
(-1 1.97519e-18 0)
(-1 5.05817e-17 0)
(-1 4.70268e-17 0)
(-1 1.06095e-16 0)
(-1 7.73599e-17 0)
(-1 8.89915e-17 0)
(-1 8.4098e-17 0)
(-1 1.49394e-17 0)
(-1 8.60504e-17 0)
(-1 -1.77976e-17 0)
(-1 6.46236e-17 0)
(-1 2.94032e-17 0)
(-1 3.39984e-17 0)
(-1 -1.35592e-14 0)
(-1 -7.05701e-14 0)
(-1 2.88063e-15 0)
(-1 1.54015e-14 0)
(-1 -8.45525e-16 0)
(-1 -3.75517e-15 0)
(-1 1.16231e-16 0)
(-1 8.04824e-16 0)
(-1 -3.12717e-17 0)
(-1 -1.91233e-16 0)
(-1 3.54773e-17 0)
(-1 -3.62473e-18 0)
(-1 -2.49649e-19 0)
(-1 -7.22746e-17 0)
(-1 3.12339e-18 0)
(-1 -5.89227e-17 0)
(-1 7.13785e-17 0)
(-1 -5.06875e-17 0)
(-1 8.67332e-17 0)
(-1 3.99421e-17 0)
(-1 6.8679e-17 0)
(-1 7.91676e-18 0)
(-1 7.2792e-17 0)
(-1 2.89821e-17 0)
(-1 9.26414e-17 0)
(-1 3.8151e-17 0)
(-1 1.54702e-16 0)
(-1 9.03234e-17 0)
(-1 1.4806e-16 0)
(-1 7.86598e-17 0)
(-1 2.6571e-17 0)
(-1 -3.62392e-17 0)
(-1 -8.69562e-17 0)
(-1 -1.26298e-16 0)
(-1 -7.44448e-17 0)
(-1 -9.82488e-17 0)
(-1 -1.22206e-18 0)
(-1 1.28061e-17 0)
(-1 4.84091e-17 0)
(-1 -4.16093e-14 0)
(-1 3.34191e-14 0)
(-1 8.76574e-15 0)
(-1 -7.73088e-15 0)
(-1 -2.10482e-15 0)
(-1 1.76956e-15 0)
(-1 4.97361e-16 0)
(-1 -3.31732e-16 0)
(-1 -1.63586e-16 0)
(-1 1.03723e-16 0)
(-1 -1.11377e-16 0)
(-1 -1.24662e-16 0)
(-1 -1.30948e-16 0)
(-1 -1.31996e-16 0)
(-1 -1.12734e-16 0)
(-1 -6.53609e-17 0)
(-1 -8.21239e-17 0)
(-1 -1.0743e-16 0)
(-1 -3.88743e-17 0)
(-1 -2.47909e-17 0)
(-1 -3.17801e-17 0)
(-1 1.06631e-17 0)
(-1 -5.65892e-18 0)
(-1 4.00916e-17 0)
(-1 3.5833e-17 0)
(-1 2.53712e-17 0)
(-1 1.42817e-17 0)
(-1 -5.25632e-18 0)
(-1 -1.05639e-16 0)
(-1 -1.13588e-16 0)
(-1 -1.89108e-16 0)
(-1 -1.66003e-16 0)
(-1 -1.37591e-16 0)
(-1 -1.55821e-16 0)
(-1 -1.0998e-17 0)
(-1 -1.26162e-17 0)
(-1 6.24372e-17 0)
(-1 9.38866e-17 0)
(-1 7.8108e-17 0)
(-1 6.72976e-14 0)
(-1 1.43083e-14 0)
(-1 -1.47271e-14 0)
(-1 -3.29321e-15 0)
(-1 3.54265e-15 0)
(-1 8.05573e-16 0)
(-1 -7.2537e-16 0)
(-1 -1.19026e-16 0)
(-1 1.42647e-16 0)
(-1 1.06154e-16 0)
(-1 -1.45282e-16 0)
(-1 -3.53926e-17 0)
(-1 -6.64096e-17 0)
(-1 -8.78726e-17 0)
(-1 -6.00569e-17 0)
(-1 -4.57972e-17 0)
(-1 -5.00967e-17 0)
(-1 -6.49647e-17 0)
(-1 2.47465e-17 0)
(-1 -3.72779e-17 0)
(-1 8.25348e-17 0)
(-1 -2.66013e-18 0)
(-1 7.11217e-17 0)
(-1 4.26409e-17 0)
(-1 -1.57181e-17 0)
(-1 4.9713e-17 0)
(-1 -1.33126e-16 0)
(-1 -5.17057e-17 0)
(-1 -1.73952e-16 0)
(-1 -1.60395e-16 0)
(-1 -1.32717e-16 0)
(-1 -1.06863e-16 0)
(-1 -3.0847e-17 0)
(-1 -5.37562e-17 0)
(-1 9.22684e-17 0)
(-1 2.31784e-17 0)
(-1 1.09557e-16 0)
(-1 6.63399e-17 0)
(-1 3.5339e-17 0)
(-1 -5.62825e-14 0)
(-1 -3.57e-14 0)
(-1 1.22394e-14 0)
(-1 7.90827e-15 0)
(-1 -2.85611e-15 0)
(-1 -1.86461e-15 0)
(-1 7.12497e-16 0)
(-1 3.78194e-16 0)
(-1 -7.18856e-17 0)
(-1 -8.57051e-17 0)
(-1 2.20163e-17 0)
(-1 5.57854e-17 0)
(-1 -6.72603e-17 0)
(-1 -5.79277e-17 0)
(-1 -5.0705e-17 0)
(-1 -7.92018e-17 0)
(-1 -5.21459e-17 0)
(-1 -2.63689e-17 0)
(-1 -6.46845e-17 0)
(-1 -6.11761e-17 0)
(-1 -4.25541e-17 0)
(-1 -8.85327e-17 0)
(-1 2.12322e-17 0)
(-1 -4.50629e-17 0)
(-1 1.37255e-17 0)
(-1 4.28396e-17 0)
(-1 -7.89748e-17 0)
(-1 -2.59393e-17 0)
(-1 -9.33055e-17 0)
(-1 -4.53692e-17 0)
(-1 -2.79023e-17 0)
(-1 1.94677e-17 0)
(-1 2.6919e-19 0)
(-1 4.58449e-17 0)
(-1 -2.75005e-18 0)
(-1 -3.28321e-17 0)
(-1 -7.87842e-18 0)
(-1 -2.03898e-17 0)
(-1 8.90706e-19 0)
(-1 2.84908e-14 0)
(-1 5.09484e-14 0)
(-1 -6.19575e-15 0)
(-1 -1.1372e-14 0)
(-1 1.36969e-15 0)
(-1 2.62463e-15 0)
(-1 -4.20008e-16 0)
(-1 -6.52986e-16 0)
(-1 4.19659e-17 0)
(-1 2.54256e-17 0)
(-1 -2.41585e-17 0)
(-1 -2.50751e-17 0)
(-1 -6.98691e-17 0)
(-1 -3.35848e-18 0)
(-1 -5.48657e-17 0)
(-1 -6.18102e-17 0)
(-1 -3.53992e-17 0)
(-1 -2.0852e-17 0)
(-1 -8.50243e-17 0)
(-1 -5.36901e-17 0)
(-1 -9.10416e-17 0)
(-1 -7.07435e-17 0)
(-1 -2.34554e-17 0)
(-1 -7.08285e-17 0)
(-1 3.17485e-18 0)
(-1 3.82451e-18 0)
(-1 7.66631e-18 0)
(-1 -1.48323e-17 0)
(-1 6.74041e-17 0)
(-1 6.06516e-17 0)
(-1 9.3215e-17 0)
(-1 8.40514e-17 0)
(-1 1.27437e-17 0)
(-1 2.39638e-17 0)
(-1 -5.04719e-17 0)
(-1 -6.14117e-17 0)
(-1 -1.16207e-17 0)
(-1 -2.94084e-17 0)
(-1 1.97608e-17 0)
(-1 1.10856e-14 0)
(-1 -4.32435e-14 0)
(-1 -2.5516e-15 0)
(-1 9.33897e-15 0)
(-1 6.01948e-16 0)
(-1 -2.19678e-15 0)
(-1 -2.07552e-16 0)
(-1 5.16435e-16 0)
(-1 -4.16154e-17 0)
(-1 -1.62737e-16 0)
(-1 -4.27502e-18 0)
(-1 1.24813e-17 0)
(-1 4.70044e-18 0)
(-1 4.37817e-17 0)
(-1 -2.77965e-17 0)
(-1 1.43404e-18 0)
(-1 -3.91429e-17 0)
(-1 -6.45603e-17 0)
(-1 -3.94093e-17 0)
(-1 -7.62e-17 0)
(-1 -5.05305e-17 0)
(-1 -5.35067e-17 0)
(-1 -4.35485e-17 0)
(-1 -1.39373e-16 0)
(-1 -1.41826e-17 0)
(-1 -7.27687e-17 0)
(-1 3.8153e-17 0)
(-1 4.84614e-17 0)
(-1 7.72989e-17 0)
(-1 1.5615e-16 0)
(-1 1.48003e-17 0)
(-1 7.84721e-17 0)
(-1 -5.01915e-17 0)
(-1 -6.08462e-17 0)
(-1 -4.03482e-17 0)
(-1 -4.43184e-17 0)
(-1 1.9732e-18 0)
(-1 -5.02685e-17 0)
(-1 -2.37701e-17 0)
(-1 -4.49901e-14 0)
(-1 1.4024e-14 0)
(-1 9.69379e-15 0)
(-1 -3.04488e-15 0)
(-1 -2.28229e-15 0)
(-1 5.57842e-16 0)
(-1 5.6125e-16 0)
(-1 -1.81553e-16 0)
(-1 -1.08641e-16 0)
(-1 -2.85465e-17 0)
(-1 6.0538e-17 0)
(-1 -4.02037e-17 0)
(-1 4.05153e-17 0)
(-1 6.26387e-17 0)
(-1 -3.53297e-17 0)
(-1 4.05046e-17 0)
(-1 -1.01617e-16 0)
(-1 -2.96829e-17 0)
(-1 -9.02975e-17 0)
(-1 3.93618e-18 0)
(-1 -1.42349e-16 0)
(-1 2.85783e-17 0)
(-1 -1.68593e-16 0)
(-1 -1.03037e-16 0)
(-1 -1.01247e-17 0)
(-1 -1.02624e-16 0)
(-1 1.66458e-16 0)
(-1 3.71753e-17 0)
(-1 1.57323e-16 0)
(-1 1.41185e-16 0)
(-1 2.82566e-18 0)
(-1 5.30091e-17 0)
(-1 -5.49731e-17 0)
(-1 6.71521e-18 0)
(-1 -5.42387e-17 0)
(-1 1.32355e-17 0)
(-1 -7.60118e-17 0)
(-1 -8.81134e-17 0)
(-1 -8.3533e-17 0)
(-1 5.59693e-14 0)
(-1 3.34578e-14 0)
(-1 -1.21808e-14 0)
(-1 -7.54134e-15 0)
(-1 2.65858e-15 0)
(-1 1.52801e-15 0)
(-1 -7.7135e-16 0)
(-1 -6.02755e-16 0)
(-1 3.98905e-17 0)
(-1 -7.13051e-17 0)
(-1 -3.8103e-17 0)
(-1 -9.68246e-17 0)
(-1 6.2628e-17 0)
(-1 5.80972e-17 0)
(-1 4.61513e-17 0)
(-1 1.13542e-16 0)
(-1 7.58706e-17 0)
(-1 1.05825e-16 0)
(-1 1.22812e-16 0)
(-1 1.19749e-16 0)
(-1 6.78905e-17 0)
(-1 7.32823e-17 0)
(-1 -3.70675e-17 0)
(-1 -6.96119e-18 0)
(-1 -5.53237e-17 0)
(-1 -1.126e-16 0)
(-1 1.19018e-17 0)
(-1 -1.03052e-16 0)
(-1 3.68707e-17 0)
(-1 -1.00411e-16 0)
(-1 5.68986e-17 0)
(-1 -7.39834e-17 0)
(-1 7.49237e-17 0)
(-1 2.57748e-17 0)
(-1 -2.06392e-17 0)
(-1 5.12376e-18 0)
(-1 -9.56346e-17 0)
(-1 -9.1868e-17 0)
(-1 -8.27823e-17 0)
(-1 -3.00528e-14 0)
(-1 -5.97338e-14 0)
(-1 6.1675e-15 0)
(-1 1.27205e-14 0)
(-1 -1.73332e-15 0)
(-1 -3.11704e-15 0)
(-1 9.72898e-17 0)
(-1 4.74312e-16 0)
(-1 -2.0802e-16 0)
(-1 -2.45181e-16 0)
(-1 -6.24453e-19 0)
(-1 -2.51269e-17 0)
(-1 1.09011e-16 0)
(-1 -1.7748e-18 0)
(-1 1.73215e-16 0)
(-1 8.23218e-17 0)
(-1 1.49703e-16 0)
(-1 7.69102e-17 0)
(-1 7.02198e-17 0)
(-1 2.9845e-17 0)
(-1 -1.56938e-18 0)
(-1 -3.45971e-17 0)
(-1 -8.2494e-17 0)
(-1 -3.96256e-17 0)
(-1 -1.60329e-16 0)
(-1 -1.05346e-16 0)
(-1 -2.15365e-16 0)
(-1 -1.33971e-16 0)
(-1 -2.11265e-16 0)
(-1 -2.14839e-16 0)
(-1 -1.05107e-16 0)
(-1 -1.79417e-16 0)
(-1 -4.40252e-17 0)
(-1 -8.53679e-17 0)
(-1 -6.61051e-17 0)
(-1 -9.33615e-18 0)
(-1 -7.90157e-17 0)
(-1 -1.75588e-17 0)
(-1 -4.87454e-17 0)
(-1 -1.69605e-14 0)
(-1 3.99544e-14 0)
(-1 3.43597e-15 0)
(-1 -8.83176e-15 0)
(-1 -9.0941e-16 0)
(-1 2.04317e-15 0)
(-1 1.31842e-16 0)
(-1 -4.52315e-16 0)
(-1 -6.22873e-17 0)
(-1 1.39743e-16 0)
(-1 -2.62772e-17 0)
(-1 -1.75571e-17 0)
(-1 -2.8464e-17 0)
(-1 -8.10282e-17 0)
(-1 -1.39831e-17 0)
(-1 -5.00212e-17 0)
(-1 -4.29481e-17 0)
(-1 -4.83944e-17 0)
(-1 -7.49718e-17 0)
(-1 -6.90874e-17 0)
(-1 -7.26532e-17 0)
(-1 -6.71092e-17 0)
(-1 -6.24775e-17 0)
(-1 1.04095e-17 0)
(-1 -7.89876e-17 0)
(-1 2.02024e-18 0)
(-1 -1.33445e-16 0)
(-1 -5.70988e-17 0)
(-1 -1.82991e-16 0)
(-1 -1.69543e-16 0)
(-1 -1.59678e-16 0)
(-1 -1.87344e-16 0)
(-1 -5.06789e-17 0)
(-1 -7.03348e-17 0)
(-1 3.92101e-17 0)
(-1 6.72056e-17 0)
(-1 1.27115e-17 0)
(-1 4.65355e-17 0)
(-1 4.16583e-18 0)
(-1 4.80832e-14 0)
(-1 4.14468e-14 0)
(-1 -1.02246e-14 0)
(-1 -9.21191e-15 0)
(-1 2.50027e-15 0)
(-1 2.11445e-15 0)
(-1 -4.44414e-16 0)
(-1 -4.11454e-16 0)
(-1 1.84473e-16 0)
(-1 2.14359e-16 0)
(-1 -7.23081e-17 0)
(-1 6.78387e-18 0)
(-1 -1.02586e-16 0)
(-1 -1.00576e-16 0)
(-1 -8.44326e-17 0)
(-1 -8.63598e-17 0)
(-1 -7.45336e-17 0)
(-1 -4.0225e-17 0)
(-1 -6.12248e-17 0)
(-1 -5.89951e-17 0)
(-1 1.59535e-17 0)
(-1 -6.5315e-17 0)
(-1 7.49072e-17 0)
(-1 4.78766e-17 0)
(-1 2.39091e-17 0)
(-1 4.7066e-17 0)
(-1 -9.3197e-17 0)
(-1 -5.43563e-17 0)
(-1 -1.73896e-16 0)
(-1 -1.72671e-16 0)
(-1 -9.80014e-17 0)
(-1 -1.42896e-16 0)
(-1 4.75497e-17 0)
(-1 -3.49418e-17 0)
(-1 7.45311e-17 0)
(-1 1.23308e-17 0)
(-1 3.79899e-17 0)
(-1 -2.21879e-17 0)
(-1 2.16745e-17 0)
(-1 -1.58483e-14 0)
(-1 -6.83149e-14 0)
(-1 3.1271e-15 0)
(-1 1.43926e-14 0)
(-1 -7.97268e-16 0)
(-1 -3.50281e-15 0)
(-1 2.47319e-16 0)
(-1 7.71541e-16 0)
(-1 3.66696e-17 0)
(-1 -6.42168e-17 0)
(-1 -2.14838e-17 0)
(-1 5.21697e-17 0)
(-1 -8.43501e-17 0)
(-1 -8.18581e-17 0)
(-1 -4.21523e-17 0)
(-1 -1.02715e-16 0)
(-1 -2.46864e-17 0)
(-1 -2.76803e-17 0)
(-1 -6.30852e-17 0)
(-1 -1.20792e-17 0)
(-1 -3.33918e-17 0)
(-1 -4.26902e-17 0)
(-1 2.00354e-17 0)
(-1 3.7272e-18 0)
(-1 -3.11994e-17 0)
(-1 -4.03087e-18 0)
(-1 -1.3383e-16 0)
(-1 -1.03241e-16 0)
(-1 -1.41671e-16 0)
(-1 -1.42113e-16 0)
(-1 -7.98368e-17 0)
(-1 -6.93804e-17 0)
(-1 -7.01608e-17 0)
(-1 -5.69077e-17 0)
(-1 -8.43882e-17 0)
(-1 -8.1926e-17 0)
(-1 -3.85033e-17 0)
(-1 -7.80612e-17 0)
(-1 -9.54329e-18 0)
(-1 -3.8074e-14 0)
(-1 7.76272e-15 0)
(-1 -1.934e-15 0)
(-1 4.60005e-16 0)
(-1 -4.87167e-17 0)
(-1 -8.20464e-18 0)
(-1 -1.00223e-16 0)
(-1 -8.8243e-17 0)
(-1 -1.50731e-17 0)
(-1 8.31586e-18 0)
(-1 -5.57115e-18 0)
(-1 -2.03391e-17 0)
(-1 -7.60727e-17 0)
(-1 -1.11524e-16 0)
(-1 -6.98221e-17 0)
(-1 -4.64513e-17 0)
(-1 -6.86728e-17 0)
(-1 -7.55989e-17 0)
(-1 -4.91011e-17 0)
)
;

boundaryField
{
    movingWall
    {
        type            calculated;
        value           uniform (-1 -0 -0);
    }
    fixedWalls
    {
        type            calculated;
        value           uniform (-1 -0 -0);
    }
    frontAndBack
    {
        type            empty;
        value           nonuniform List<vector> 0();
    }
}


// ************************************************************************* //
