/*--------------------------------*- C++ -*----------------------------------*\
| =========                 |                                                 |
| \\      /  F ield         | OpenFOAM: The Open Source CFD Toolbox           |
|  \\    /   O peration     | Version:  2312                                  |
|   \\  /    A nd           | Website:  www.openfoam.com                      |
|    \\/     M anipulation  |                                                 |
\*---------------------------------------------------------------------------*/
FoamFile
{
    version     2.0;
    format      ascii;
    arch        "LSB;label=32;scalar=64";
    class       volScalarField;
    location    "9.5";
    object      turbulenceProperties:nut;
}
// * * * * * * * * * * * * * * * * * * * * * * * * * * * * * * * * * * * * * //

dimensions      [0 2 -1 0 0 0 0];

internalField   nonuniform List<scalar> 
400
(
9.17801e-07
9.17801e-07
9.17801e-07
9.17801e-07
9.17801e-07
9.17801e-07
9.17801e-07
9.17801e-07
9.17801e-07
9.178e-07
9.17801e-07
9.178e-07
9.178e-07
9.178e-07
9.178e-07
9.178e-07
9.178e-07
9.178e-07
9.178e-07
9.178e-07
9.23709e-07
9.32858e-07
9.32023e-07
9.31689e-07
9.31009e-07
9.30665e-07
9.29993e-07
9.2964e-07
9.28974e-07
9.28613e-07
9.27953e-07
9.27584e-07
9.2693e-07
9.26553e-07
9.25906e-07
9.25521e-07
9.24882e-07
9.24486e-07
9.24169e-07
9.23655e-07
9.33243e-07
9.42746e-07
9.41867e-07
9.41513e-07
9.40798e-07
9.40438e-07
9.39732e-07
9.39365e-07
9.38667e-07
9.38295e-07
9.37606e-07
9.37228e-07
9.36547e-07
9.36162e-07
9.35491e-07
9.35099e-07
9.34438e-07
9.34038e-07
9.33711e-07
9.33186e-07
9.4358e-07
9.53293e-07
9.52402e-07
9.52032e-07
9.51307e-07
9.50931e-07
9.50217e-07
9.49834e-07
9.49129e-07
9.48741e-07
9.48044e-07
9.47649e-07
9.4696e-07
9.46563e-07
9.45881e-07
9.45476e-07
9.44804e-07
9.44393e-07
9.44059e-07
9.43523e-07
9.52621e-07
9.62527e-07
9.61607e-07
9.61241e-07
9.60495e-07
9.60117e-07
9.59384e-07
9.58998e-07
9.58275e-07
9.57882e-07
9.57169e-07
9.56769e-07
9.56065e-07
9.55661e-07
9.54964e-07
9.54553e-07
9.53867e-07
9.53447e-07
9.53108e-07
9.52561e-07
9.59493e-07
9.69543e-07
9.68622e-07
9.68238e-07
9.67489e-07
9.67099e-07
9.66359e-07
9.65963e-07
9.65234e-07
9.6483e-07
9.6411e-07
9.63701e-07
9.62989e-07
9.62574e-07
9.61872e-07
9.61451e-07
9.60758e-07
9.6033e-07
9.59986e-07
9.59431e-07
9.64254e-07
9.7441e-07
9.73475e-07
9.73091e-07
9.72331e-07
9.7194e-07
9.7119e-07
9.70793e-07
9.70052e-07
9.69648e-07
9.68917e-07
9.68507e-07
9.67785e-07
9.67368e-07
9.66657e-07
9.66232e-07
9.65532e-07
9.651e-07
9.64752e-07
9.64191e-07
9.67388e-07
9.77613e-07
9.76669e-07
9.76283e-07
9.75522e-07
9.75122e-07
9.74374e-07
9.73967e-07
9.73228e-07
9.72815e-07
9.72085e-07
9.71666e-07
9.70945e-07
9.7052e-07
9.69808e-07
9.69379e-07
9.68675e-07
9.68239e-07
9.67889e-07
9.67324e-07
9.69441e-07
9.79711e-07
9.78764e-07
9.78374e-07
9.7761e-07
9.7721e-07
9.76456e-07
9.76051e-07
9.75305e-07
9.74894e-07
9.74157e-07
9.7374e-07
9.73012e-07
9.72588e-07
9.71871e-07
9.7144e-07
9.70732e-07
9.70295e-07
9.69944e-07
9.69376e-07
9.70857e-07
9.8116e-07
9.80203e-07
9.79821e-07
9.79046e-07
9.78653e-07
9.77889e-07
9.7749e-07
9.76734e-07
9.7633e-07
9.75582e-07
9.75173e-07
9.74435e-07
9.74017e-07
9.73291e-07
9.72864e-07
9.7215e-07
9.71714e-07
9.71361e-07
9.70792e-07
9.71941e-07
9.82266e-07
9.81316e-07
9.80923e-07
9.80153e-07
9.79753e-07
9.78992e-07
9.78585e-07
9.77836e-07
9.77423e-07
9.76682e-07
9.76262e-07
9.7553e-07
9.75107e-07
9.74383e-07
9.73952e-07
9.73239e-07
9.72801e-07
9.72447e-07
9.71876e-07
9.72887e-07
9.83236e-07
9.82273e-07
9.8189e-07
9.8111e-07
9.80717e-07
9.79949e-07
9.79547e-07
9.78791e-07
9.78381e-07
9.77635e-07
9.77218e-07
9.76483e-07
9.76059e-07
9.75332e-07
9.74902e-07
9.74186e-07
9.73748e-07
9.73393e-07
9.72822e-07
9.73805e-07
9.8417e-07
9.83217e-07
9.82823e-07
9.82049e-07
9.81649e-07
9.80884e-07
9.80477e-07
9.79723e-07
9.79308e-07
9.78565e-07
9.78143e-07
9.7741e-07
9.76981e-07
9.76258e-07
9.75823e-07
9.75109e-07
9.74667e-07
9.74313e-07
9.7374e-07
9.74759e-07
9.85147e-07
9.84184e-07
9.83797e-07
9.83016e-07
9.8262e-07
9.81847e-07
9.81448e-07
9.80682e-07
9.80278e-07
9.79522e-07
9.7911e-07
9.78366e-07
9.77945e-07
9.77213e-07
9.76782e-07
9.76063e-07
9.75623e-07
9.75267e-07
9.74693e-07
9.7577e-07
9.86179e-07
9.85216e-07
9.84824e-07
9.84046e-07
9.83643e-07
9.82879e-07
9.82466e-07
9.81711e-07
9.81294e-07
9.80548e-07
9.80124e-07
9.79388e-07
9.78957e-07
9.78232e-07
9.77795e-07
9.77078e-07
9.76635e-07
9.76279e-07
9.75704e-07
9.76825e-07
9.87255e-07
9.86292e-07
9.85897e-07
9.85122e-07
9.84712e-07
9.83951e-07
9.83534e-07
9.82781e-07
9.82359e-07
9.81614e-07
9.81191e-07
9.80451e-07
9.80021e-07
9.79292e-07
9.78855e-07
9.78136e-07
9.77692e-07
9.77335e-07
9.76759e-07
9.77871e-07
9.88324e-07
9.87362e-07
9.86964e-07
9.86185e-07
9.85779e-07
9.85011e-07
9.84598e-07
9.83839e-07
9.83421e-07
9.82671e-07
9.82246e-07
9.81505e-07
9.81077e-07
9.80343e-07
9.79907e-07
9.79185e-07
9.78742e-07
9.78383e-07
9.77806e-07
9.78818e-07
9.89289e-07
9.88322e-07
9.87929e-07
9.87144e-07
9.86742e-07
9.85968e-07
9.85561e-07
9.84792e-07
9.84385e-07
9.83622e-07
9.83208e-07
9.82455e-07
9.82032e-07
9.81292e-07
9.8086e-07
9.80133e-07
9.7969e-07
9.79331e-07
9.78753e-07
9.79545e-07
9.89832e-07
9.88905e-07
9.88517e-07
9.87762e-07
9.87366e-07
9.86616e-07
9.86212e-07
9.85469e-07
9.85056e-07
9.84321e-07
9.83897e-07
9.83173e-07
9.82737e-07
9.82022e-07
9.81575e-07
9.80869e-07
9.80411e-07
9.8006e-07
9.79482e-07
9.79882e-07
9.79882e-07
9.79881e-07
9.79882e-07
9.79881e-07
9.79882e-07
9.79881e-07
9.79882e-07
9.79881e-07
9.79882e-07
9.79881e-07
9.79881e-07
9.79881e-07
9.79881e-07
9.79881e-07
9.79881e-07
9.79881e-07
9.79881e-07
9.79881e-07
9.79881e-07
)
;

boundaryField
{
    movingWall
    {
        type            nutkWallFunction;
        blending        stepwise;
        value           uniform 0;
    }
    fixedWalls
    {
        type            nutkWallFunction;
        blending        stepwise;
        value           uniform 0;
    }
    frontAndBack
    {
        type            empty;
    }
}


// ************************************************************************* //
