/*--------------------------------*- C++ -*----------------------------------*\
| =========                 |                                                 |
| \\      /  F ield         | OpenFOAM: The Open Source CFD Toolbox           |
|  \\    /   O peration     | Version:  2312                                  |
|   \\  /    A nd           | Website:  www.openfoam.com                      |
|    \\/     M anipulation  |                                                 |
\*---------------------------------------------------------------------------*/
FoamFile
{
    version     2.0;
    format      ascii;
    arch        "LSB;label=32;scalar=64";
    class       volSymmTensorField;
    location    "9.5";
    object      turbulenceProperties:devReff;
}
// * * * * * * * * * * * * * * * * * * * * * * * * * * * * * * * * * * * * * //

dimensions      [0 2 -2 0 0 0 0];

internalField   nonuniform List<symmTensor> 
400
(
(1.29526e-16 -1.44698e-16 -0 -2.40704e-16 -0 1.11178e-16)
(-4.55984e-17 1.53701e-16 -0 5.98285e-17 -0 -1.42301e-17)
(1.3048e-17 -3.28311e-17 -0 -1.60344e-17 -0 2.98642e-18)
(-1.17156e-18 7.54146e-18 -0 2.34313e-18 -0 -1.17156e-18)
(6.8959e-19 -1.95813e-18 -0 -7.87325e-19 -0 9.77349e-20)
(-3.9064e-19 4.54614e-20 -0 1.89426e-19 -0 2.01215e-19)
(4.90258e-19 -6.49897e-19 -0 -3.88661e-19 -0 -1.01597e-19)
(4.22813e-19 -2.32362e-19 -0 -2.53771e-19 -0 -1.69042e-19)
(1.28438e-20 -5.01349e-19 -0 -2.56876e-20 -0 1.28438e-20)
(-4.10378e-20 -4.50278e-19 -0 8.20757e-20 -0 -4.10378e-20)
(3.69117e-19 5.35582e-20 -0 -1.46378e-19 -0 -2.22738e-19)
(-3.79084e-19 -7.74741e-19 -0 1.66313e-19 -0 2.12771e-19)
(1.09918e-19 -3.20434e-19 -0 -2.19836e-19 -0 1.09918e-19)
(6.26403e-19 -1.57114e-19 -0 -6.60952e-19 -0 3.45482e-20)
(1.07132e-18 1.59025e-19 -0 -9.58929e-19 -0 -1.12391e-19)
(9.70568e-19 3.05178e-19 -0 -7.57427e-19 -0 -2.13142e-19)
(-4.95242e-20 1.11386e-18 -0 9.90483e-20 -0 -4.95242e-20)
(-9.71255e-19 -1.74953e-20 -0 7.58801e-19 -0 2.12455e-19)
(-7.30643e-20 -1.77458e-19 -0 1.46129e-19 -0 -7.30643e-20)
(2.85169e-20 2.17206e-20 -0 -5.70338e-20 -0 2.85169e-20)
(-2.36144e-16 -2.41161e-17 -0 4.19584e-16 -0 -1.8344e-16)
(9.15251e-17 2.04526e-17 -0 -1.11337e-16 -0 1.98119e-17)
(-2.2589e-17 -3.03667e-18 -0 2.68065e-17 -0 -4.21755e-18)
(3.43068e-18 9.35733e-19 -0 -5.08354e-18 -0 1.65286e-18)
(-1.42148e-18 4.91416e-19 -0 1.65783e-18 -0 -2.36342e-19)
(-1.06757e-19 8.46388e-19 -0 2.13514e-19 -0 -1.06757e-19)
(-5.58827e-19 2.15959e-20 -0 5.25139e-19 -0 3.36887e-20)
(-8.55511e-19 6.0766e-20 -0 5.26028e-19 -0 3.29483e-19)
(-4.09535e-19 1.34295e-20 -0 2.26609e-19 -0 1.82926e-19)
(4.22852e-19 2.12006e-19 -0 -2.53262e-19 -0 -1.6959e-19)
(1.74796e-19 -1.38472e-19 -0 -3.49593e-19 -0 1.74796e-19)
(9.75339e-19 5.72196e-19 -0 -7.65907e-19 -0 -2.09432e-19)
(3.46415e-19 -4.09038e-21 -0 -1.00481e-19 -0 -2.45935e-19)
(-6.1618e-19 4.90971e-19 -0 6.40031e-19 -0 -2.38506e-20)
(-9.07109e-19 -8.34791e-20 -0 6.29628e-19 -0 2.77481e-19)
(7.65942e-20 1.92513e-19 -0 -1.53188e-19 -0 7.65942e-20)
(1.24899e-19 -5.68912e-19 -0 -2.49797e-19 -0 1.24899e-19)
(6.12486e-20 5.28378e-20 -0 -1.22497e-19 -0 6.12486e-20)
(7.11354e-19 -1.38571e-19 -0 -2.38307e-19 -0 -4.73047e-19)
(-8.83119e-19 -8.85892e-20 -0 5.81894e-19 -0 3.01226e-19)
(5.23289e-17 1.73977e-16 -0 -9.81382e-17 -0 4.58093e-17)
(-1.96913e-17 -1.52924e-16 -0 2.63321e-17 -0 -6.64076e-18)
(4.63359e-18 3.11332e-17 -0 -5.70823e-18 -0 1.07464e-18)
(-4.94316e-19 -7.90938e-18 -0 9.88632e-19 -0 -4.94316e-19)
(1.43081e-18 6.79377e-19 -0 -1.08231e-18 -0 -3.48498e-19)
(-3.85847e-19 -1.24947e-18 -0 1.78612e-19 -0 2.07235e-19)
(2.72606e-20 1.76458e-19 -0 -5.45213e-20 -0 2.72606e-20)
(9.74338e-20 7.29154e-19 -0 -1.94868e-19 -0 9.74338e-20)
(4.61325e-19 5.43437e-19 -0 -3.29663e-19 -0 -1.31662e-19)
(8.1442e-20 1.54023e-19 -0 -1.62884e-19 -0 8.1442e-20)
(4.24797e-19 4.09962e-19 -0 -2.56665e-19 -0 -1.68132e-19)
(1.7842e-20 7.44909e-19 -0 -3.56841e-20 -0 1.7842e-20)
(-3.72768e-19 2.89725e-19 -0 1.52664e-19 -0 2.20103e-19)
(4.01558e-19 -5.39278e-20 -0 -2.10266e-19 -0 -1.91292e-19)
(-6.34732e-20 -2.87926e-19 -0 1.26946e-19 -0 -6.34732e-20)
(2.57982e-19 -5.80833e-20 -0 7.6829e-20 -0 -3.34811e-19)
(-6.50371e-21 2.49449e-19 -0 1.30074e-20 -0 -6.50371e-21)
(6.23117e-20 2.87459e-19 -0 -1.24623e-19 -0 6.23117e-20)
(-4.02863e-19 5.46965e-20 -0 2.13009e-19 -0 1.89854e-19)
(3.71251e-19 -5.32516e-19 -0 -1.49813e-19 -0 -2.21438e-19)
(1.37862e-16 -1.09377e-16 -0 -2.35975e-16 -0 9.81136e-17)
(-5.82015e-17 9.54363e-17 -0 6.59318e-17 -0 -7.73027e-18)
(1.38301e-17 -1.99885e-17 -0 -1.51918e-17 -0 1.36171e-18)
(-3.33636e-18 4.85534e-18 -0 3.70417e-18 -0 -3.67806e-19)
(1.27145e-18 -8.57807e-19 -0 -1.35556e-18 -0 8.41094e-20)
(1.41993e-18 2.83793e-19 -0 -1.05891e-18 -0 -3.6102e-19)
(5.73131e-19 1.86471e-19 -0 -5.52649e-19 -0 -2.04819e-20)
(8.6454e-19 2.70539e-21 -0 -5.41897e-19 -0 -3.22643e-19)
(-8.1642e-19 3.74515e-20 -0 4.45733e-19 -0 3.70687e-19)
(8.38217e-20 5.63943e-19 -0 -1.67643e-19 -0 8.38217e-20)
(3.08246e-20 -4.32446e-20 -0 -6.16492e-20 -0 3.08246e-20)
(-3.69615e-20 -6.03146e-19 -0 7.39229e-20 -0 -3.69615e-20)
(2.64009e-20 6.06629e-19 -0 -5.28018e-20 -0 2.64009e-20)
(8.28278e-19 2.75123e-20 -0 -4.69727e-19 -0 -3.58551e-19)
(-9.23342e-19 1.31886e-19 -0 6.5993e-19 -0 2.63412e-19)
(-6.03494e-19 -1.89344e-19 -0 6.13633e-19 -0 -1.0139e-20)
(-9.36073e-19 -5.72852e-19 -0 6.85508e-19 -0 2.50565e-19)
(-3.95402e-19 -2.4189e-19 -0 1.97508e-19 -0 1.97895e-19)
(-2.97243e-19 -3.06061e-19 -0 1.20651e-21 -0 2.96036e-19)
(8.4991e-19 -4.32809e-19 -0 -5.13321e-19 -0 -3.36589e-19)
(-1.82764e-16 -1.60368e-17 -0 3.15653e-16 -0 -1.3289e-16)
(7.47049e-17 2.21915e-17 -0 -8.64162e-17 -0 1.17113e-17)
(-1.85918e-17 -4.52321e-18 -0 2.05452e-17 -0 -1.95339e-18)
(3.60867e-18 1.12482e-18 -0 -4.24629e-18 -0 6.3762e-19)
(-3.94087e-19 7.62996e-20 -0 7.88175e-19 -0 -3.94087e-19)
(1.06697e-19 9.35996e-20 -0 -2.13394e-19 -0 1.06697e-19)
(3.27839e-20 -1.77841e-19 -0 -6.55679e-20 -0 3.27839e-20)
(-3.58011e-19 -1.04499e-18 -0 1.21934e-19 -0 2.36077e-19)
(4.4732e-19 -6.57689e-20 -0 -3.00591e-19 -0 -1.46729e-19)
(-4.81048e-20 -8.20575e-19 -0 9.62096e-20 -0 -4.81048e-20)
(-8.81201e-20 -8.92958e-19 -0 1.7624e-19 -0 -8.81201e-20)
(-9.14071e-20 -4.35058e-19 -0 1.82814e-19 -0 -9.14071e-20)
(-2.99869e-20 -1.00874e-18 -0 5.99738e-20 -0 -2.99869e-20)
(-7.79325e-20 -1.00377e-18 -0 1.55865e-19 -0 -7.79325e-20)
(-5.26605e-19 -5.14521e-19 -0 4.59341e-19 -0 6.72646e-20)
(6.46361e-22 -3.35861e-19 -0 -1.29272e-21 -0 6.46361e-22)
(4.82057e-19 -6.24271e-20 -0 -3.70304e-19 -0 -1.11753e-19)
(9.3566e-19 -7.7215e-20 -0 -6.83745e-19 -0 -2.51915e-19)
(1.28944e-19 2.63428e-19 -0 -2.57889e-19 -0 1.28944e-19)
(6.87923e-20 2.96248e-19 -0 -1.37585e-19 -0 6.87923e-20)
(1.19815e-16 1.31773e-16 -0 -1.96854e-16 -0 7.70387e-17)
(-5.60437e-17 -1.34433e-16 -0 5.79733e-17 -0 -1.92962e-18)
(1.35455e-17 2.81158e-17 -0 -1.40096e-17 -0 4.64085e-19)
(-1.415e-18 -6.09933e-18 -0 2.2354e-18 -0 -8.20406e-19)
(1.14242e-19 1.42412e-18 -0 -2.28485e-19 -0 1.14242e-19)
(-9.50805e-19 -6.53749e-19 -0 7.12556e-19 -0 2.3825e-19)
(5.32114e-21 -3.04716e-19 -0 -1.06423e-20 -0 5.32114e-21)
(-1.07931e-20 -2.50697e-20 -0 2.15862e-20 -0 -1.07931e-20)
(9.02617e-19 -4.2761e-19 -0 -6.1638e-19 -0 -2.86236e-19)
(-1.35304e-19 -4.14789e-19 -0 2.70607e-19 -0 -1.35304e-19)
(-1.02556e-18 -2.75487e-19 -0 8.62386e-19 -0 1.63173e-19)
(-5.45701e-19 -9.69346e-20 -0 4.97058e-19 -0 4.86428e-20)
(-4.4044e-19 -6.99926e-21 -0 2.86576e-19 -0 1.53864e-19)
(2.89517e-22 1.7872e-19 -0 -5.79033e-22 -0 2.89517e-22)
(4.87705e-19 6.08388e-19 -0 -3.81166e-19 -0 -1.06539e-19)
(-2.77084e-19 -2.18029e-19 -0 -4.00541e-20 -0 3.17138e-19)
(1.0989e-19 3.99592e-19 -0 -2.1978e-19 -0 1.0989e-19)
(4.83363e-19 2.87726e-19 -0 -3.72566e-19 -0 -1.10797e-19)
(6.12278e-20 1.0335e-19 -0 -1.22456e-19 -0 6.12278e-20)
(4.29697e-19 1.60399e-19 -0 -2.65281e-19 -0 -1.64415e-19)
(5.75887e-17 -1.65026e-16 -0 -1.24687e-16 -0 6.70986e-17)
(-7.56027e-18 1.64303e-16 -0 2.46393e-17 -0 -1.70791e-17)
(1.35614e-18 -3.26642e-17 -0 -5.09178e-18 -0 3.73564e-18)
(-9.77646e-21 8.78923e-18 -0 1.20926e-18 -0 -1.19948e-18)
(-3.13357e-19 -1.21483e-18 -0 3.19026e-20 -0 2.81454e-19)
(-6.8816e-20 5.54543e-19 -0 1.37632e-19 -0 -6.8816e-20)
(3.39571e-19 4.93048e-19 -0 -8.43936e-20 -0 -2.55178e-19)
(-5.22538e-19 1.17562e-18 -0 4.50348e-19 -0 7.21901e-20)
(-8.61625e-19 4.18361e-19 -0 5.33874e-19 -0 3.27751e-19)
(8.50477e-20 2.88132e-19 -0 -1.70095e-19 -0 8.50477e-20)
(4.69962e-19 3.1662e-19 -0 -3.45298e-19 -0 -1.24664e-19)
(8.6591e-19 1.73024e-19 -0 -5.42613e-19 -0 -3.23298e-19)
(1.49045e-20 5.49152e-19 -0 -2.98089e-20 -0 1.49045e-20)
(4.93817e-19 5.75019e-19 -0 -3.93092e-19 -0 -1.00725e-19)
(6.21175e-19 4.9569e-19 -0 -6.47847e-19 -0 2.66715e-20)
(8.89808e-19 1.12243e-18 -0 -5.90654e-19 -0 -2.99154e-19)
(-9.82156e-20 8.76887e-19 -0 1.96431e-19 -0 -9.82156e-20)
(-1.98601e-19 -4.28171e-21 -0 3.97201e-19 -0 -1.98601e-19)
(-8.7869e-19 4.69878e-20 -0 5.68579e-19 -0 3.10111e-19)
(-2.26142e-20 4.38894e-19 -0 4.52285e-20 -0 -2.26142e-20)
(-1.9247e-16 5.35235e-17 -0 3.7305e-16 -0 -1.80579e-16)
(5.80949e-17 -4.23425e-17 -0 -8.94104e-17 -0 3.13155e-17)
(-1.62904e-17 9.66777e-18 -0 2.2465e-17 -0 -6.17462e-18)
(9.59535e-19 -1.81379e-18 -0 -3.70415e-18 -0 2.74461e-18)
(-4.71709e-19 1.21626e-18 -0 9.43417e-19 -0 -4.71709e-19)
(-8.17852e-19 1.04341e-18 -0 4.4578e-19 -0 3.72073e-19)
(-2.23794e-19 6.73338e-19 -0 4.47588e-19 -0 -2.23794e-19)
(-1.21021e-19 2.90047e-19 -0 2.42042e-19 -0 -1.21021e-19)
(-6.02919e-19 7.42494e-19 -0 6.10977e-19 -0 -8.05879e-21)
(4.47337e-21 1.15598e-18 -0 -8.94674e-21 -0 4.47337e-21)
(4.4561e-19 9.31815e-19 -0 -2.96422e-19 -0 -1.49188e-19)
(-3.68791e-19 1.18053e-18 -0 1.42808e-19 -0 2.25984e-19)
(4.41274e-21 8.48551e-19 -0 -8.82548e-21 -0 4.41274e-21)
(4.54607e-19 7.55903e-19 -0 -3.14501e-19 -0 -1.40106e-19)
(-4.01278e-20 1.45721e-20 -0 8.02556e-20 -0 -4.01278e-20)
(-1.8316e-19 -3.2812e-19 -0 3.66321e-19 -0 -1.8316e-19)
(-1.39578e-18 -6.42871e-19 -0 1.00773e-18 -0 3.88055e-19)
(-1.17654e-19 -2.74456e-20 -0 2.35309e-19 -0 -1.17654e-19)
(-4.20652e-19 -1.6062e-19 -0 2.46733e-19 -0 1.73919e-19)
(4.17433e-19 -2.9995e-19 -0 -2.40326e-19 -0 -1.77107e-19)
(1.69141e-16 1.00503e-16 -0 -3.12711e-16 -0 1.4357e-16)
(-5.80702e-17 -1.1568e-16 -0 7.98326e-17 -0 -2.17623e-17)
(1.60228e-17 2.1786e-17 -0 -2.01423e-17 -0 4.11957e-18)
(-1.66367e-18 -6.90382e-18 -0 3.32734e-18 -0 -1.66367e-18)
(8.28453e-19 5.58477e-19 -0 -1.06181e-18 -0 2.33356e-19)
(-1.77153e-19 -1.00724e-18 -0 3.54306e-19 -0 -1.77153e-19)
(-4.84094e-19 -8.49588e-19 -0 3.73154e-19 -0 1.1094e-19)
(-9.42203e-21 -9.32503e-19 -0 1.88441e-20 -0 -9.42203e-21)
(-8.30351e-20 -6.62163e-19 -0 1.6607e-19 -0 -8.30351e-20)
(-9.4725e-20 -9.87357e-19 -0 1.8945e-19 -0 -9.4725e-20)
(4.01846e-21 -1.20539e-18 -0 -8.03693e-21 -0 4.01846e-21)
(4.12847e-19 -9.49661e-19 -0 -2.30806e-19 -0 -1.82041e-19)
(-1.86977e-20 -9.8333e-19 -0 3.73954e-20 -0 -1.86977e-20)
(-5.36384e-19 -8.44943e-19 -0 4.77944e-19 -0 5.84408e-20)
(-1.47081e-18 -6.29029e-19 -0 1.15727e-18 -0 3.13544e-19)
(-5.86335e-19 -4.11608e-19 -0 5.77908e-19 -0 8.42759e-21)
(-4.31859e-20 -7.07762e-19 -0 8.63718e-20 -0 -4.31859e-20)
(5.21723e-19 -2.77752e-19 -0 -4.48744e-19 -0 -7.29783e-20)
(1.18593e-19 -4.58457e-19 -0 -2.37186e-19 -0 1.18593e-19)
(4.39871e-19 4.34305e-19 -0 -2.85091e-19 -0 -1.5478e-19)
(-3.07304e-17 -1.71749e-16 -0 5.72977e-17 -0 -2.65673e-17)
(1.00692e-17 1.88182e-16 -0 -1.47807e-17 -0 4.71156e-18)
(-2.99861e-18 -3.95258e-17 -0 3.61627e-18 -0 -6.1766e-19)
(3.11396e-19 9.37242e-18 -0 -6.22791e-19 -0 3.11396e-19)
(3.55924e-21 -2.79876e-18 -0 -7.11848e-21 -0 3.55924e-21)
(-2.66095e-19 3.70601e-20 -0 -6.29635e-20 -0 3.29059e-19)
(4.61326e-19 -1.73169e-19 -0 -3.2754e-19 -0 -1.33786e-19)
(2.86346e-20 -3.11493e-19 -0 -5.72692e-20 -0 2.86346e-20)
(6.21502e-20 -3.19391e-19 -0 -1.243e-19 -0 6.21502e-20)
(-1.82748e-20 1.33213e-19 -0 3.65497e-20 -0 -1.82748e-20)
(-1.94973e-20 1.70642e-19 -0 3.89947e-20 -0 -1.94973e-20)
(3.7305e-21 -2.7243e-19 -0 -7.46101e-21 -0 3.7305e-21)
(3.56184e-20 -1.06859e-19 -0 -7.12368e-20 -0 3.56184e-20)
(-6.79648e-20 -3.37216e-19 -0 1.3593e-19 -0 -6.79648e-20)
(-6.84838e-20 8.96e-20 -0 1.36968e-19 -0 -6.84838e-20)
(4.83086e-19 2.06926e-19 -0 -3.71331e-19 -0 -1.11754e-19)
(1.49317e-19 3.71255e-19 -0 -2.98633e-19 -0 1.49317e-19)
(4.48882e-19 3.2462e-19 -0 -3.02987e-19 -0 -1.45896e-19)
(-4.02965e-20 2.59443e-19 -0 8.05931e-20 -0 -4.02965e-20)
(-6.25613e-20 2.40386e-19 -0 1.25123e-19 -0 -6.25613e-20)
(-7.83132e-17 1.29454e-16 -0 1.48894e-16 -0 -7.05809e-17)
(2.5531e-17 -1.5378e-16 -0 -3.73691e-17 -0 1.1838e-17)
(-6.68767e-18 3.19631e-17 -0 9.20825e-18 -0 -2.52058e-18)
(3.31141e-19 -7.53968e-18 -0 -1.25756e-18 -0 9.26418e-19)
(-1.47136e-18 1.72253e-18 -0 1.15701e-18 -0 3.14349e-19)
(5.30291e-19 -2.06204e-19 -0 -4.65368e-19 -0 -6.4923e-20)
(8.37399e-19 -1.01553e-19 -0 -4.84452e-19 -0 -3.52946e-19)
(-8.42432e-19 -3.63507e-20 -0 4.94563e-19 -0 3.47869e-19)
(8.49973e-19 3.1635e-21 -0 -5.09726e-19 -0 -3.40247e-19)
(-3.49789e-20 -2.70015e-19 -0 6.99577e-20 -0 -3.49789e-20)
(-9.19076e-19 2.4894e-19 -0 6.48057e-19 -0 2.71019e-19)
(-1.28355e-19 -1.40027e-19 -0 2.56709e-19 -0 -1.28355e-19)
(-4.06715e-19 -2.81014e-19 -0 2.18445e-19 -0 1.8827e-19)
(-3.58936e-19 2.03479e-19 -0 1.2291e-19 -0 2.36026e-19)
(9.61542e-19 3.28915e-19 -0 -7.33238e-19 -0 -2.28303e-19)
(1.84846e-19 1.53903e-19 -0 -3.69692e-19 -0 1.84846e-19)
(9.38874e-19 -6.18265e-20 -0 -6.88026e-19 -0 -2.50847e-19)
(-8.19456e-20 6.6259e-21 -0 1.63891e-19 -0 -8.19456e-20)
(-9.19975e-19 1.12542e-20 -0 6.50315e-19 -0 2.6966e-19)
(-5.0395e-20 -6.12075e-19 -0 1.0079e-19 -0 -5.0395e-20)
(1.27961e-16 -5.59821e-17 -0 -2.54137e-16 -0 1.26176e-16)
(-3.45856e-17 7.55988e-17 -0 5.96447e-17 -0 -2.50591e-17)
(1.01457e-17 -1.63195e-17 -0 -1.49333e-17 -0 4.78755e-18)
(-3.19249e-19 3.93086e-18 -0 2.42449e-18 -0 -2.10524e-18)
(-2.34146e-19 -7.16954e-19 -0 -1.26994e-19 -0 3.61141e-19)
(-5.15231e-19 7.40485e-19 -0 4.35197e-19 -0 8.00345e-20)
(7.98889e-20 1.0038e-19 -0 -1.59778e-19 -0 7.98889e-20)
(4.22262e-19 2.64655e-19 -0 -2.49321e-19 -0 -1.72941e-19)
(8.07587e-21 -4.27437e-20 -0 -1.61517e-20 -0 8.07587e-21)
(-3.85802e-19 1.08961e-19 -0 1.76464e-19 -0 2.09338e-19)
(4.2277e-19 -2.84338e-19 -0 -2.50442e-19 -0 -1.72328e-19)
(-3.77113e-20 1.49157e-19 -0 7.54226e-20 -0 -3.77113e-20)
(-5.70999e-20 -5.84614e-20 -0 1.142e-19 -0 -5.70999e-20)
(1.62548e-20 -9.85969e-21 -0 -3.25097e-20 -0 1.62548e-20)
(5.51798e-19 4.63846e-19 -0 -5.08621e-19 -0 -4.31763e-20)
(9.45066e-20 5.38296e-19 -0 -1.89013e-19 -0 9.45066e-20)
(-3.2017e-20 1.76621e-19 -0 6.40339e-20 -0 -3.2017e-20)
(-4.18167e-20 -4.56146e-19 -0 8.36334e-20 -0 -4.18167e-20)
(-1.31952e-20 5.09603e-19 -0 2.63904e-20 -0 -1.31952e-20)
(4.24166e-19 5.69335e-19 -0 -2.53495e-19 -0 -1.70671e-19)
(-1.35043e-16 -3.53357e-17 -0 2.7425e-16 -0 -1.39207e-16)
(3.07293e-17 3.29359e-17 -0 -6.08632e-17 -0 3.01339e-17)
(-9.04528e-18 -6.92722e-18 -0 1.51135e-17 -0 -6.06827e-18)
(5.21714e-19 1.77812e-18 -0 -2.82957e-18 -0 2.30785e-18)
(5.18262e-19 -6.62135e-19 -0 1.54152e-19 -0 -6.72414e-19)
(-7.38764e-19 -8.20118e-20 -0 2.86896e-19 -0 4.51868e-19)
(6.90187e-20 -1.97117e-20 -0 -1.38037e-19 -0 6.90187e-20)
(8.86264e-19 -2.2626e-19 -0 -5.82022e-19 -0 -3.04242e-19)
(-8.57603e-19 2.49161e-20 -0 5.24783e-19 -0 3.32821e-19)
(7.60634e-19 5.84887e-22 -0 -3.30888e-19 -0 -4.29745e-19)
(2.52314e-20 2.44189e-20 -0 -5.04628e-20 -0 2.52314e-20)
(-8.93834e-19 -1.53297e-20 -0 5.97415e-19 -0 2.96419e-19)
(-1.12106e-19 2.33071e-19 -0 2.24212e-19 -0 -1.12106e-19)
(9.26365e-20 -1.14897e-19 -0 -1.85273e-19 -0 9.26365e-20)
(1.32981e-18 -6.80959e-19 -0 -8.74548e-19 -0 -4.55262e-19)
(-4.04832e-19 1.37195e-19 -0 2.14663e-19 -0 1.90169e-19)
(-1.24107e-19 -1.54822e-19 -0 2.48213e-19 -0 -1.24107e-19)
(4.21638e-19 -2.16054e-20 -0 -2.48337e-19 -0 -1.733e-19)
(-4.27136e-19 -9.28896e-20 -0 2.59353e-19 -0 1.67783e-19)
(-8.56876e-19 4.33067e-21 -0 5.23978e-19 -0 3.32899e-19)
(7.38839e-17 1.18682e-16 -0 -1.62641e-16 -0 8.87575e-17)
(-9.80136e-18 -1.26097e-16 -0 3.21083e-17 -0 -2.2307e-17)
(3.63733e-18 2.72027e-17 -0 -7.87011e-18 -0 4.23278e-18)
(1.68658e-19 -6.24657e-18 -0 1.44898e-18 -0 -1.61764e-18)
(-2.00418e-19 1.76918e-18 -0 -1.94555e-19 -0 3.94973e-19)
(-7.71492e-20 -3.71605e-19 -0 1.54298e-19 -0 -7.71492e-20)
(-3.69273e-19 3.41641e-19 -0 1.4322e-19 -0 2.26054e-19)
(4.54077e-19 1.66578e-19 -0 -3.12849e-19 -0 -1.41228e-19)
(5.10636e-20 4.43209e-19 -0 -1.02127e-19 -0 5.10636e-20)
(1.17322e-19 2.72762e-19 -0 -2.34645e-19 -0 1.17322e-19)
(5.16968e-19 4.11901e-19 -0 -4.38735e-19 -0 -7.82332e-20)
(5.31916e-20 6.52806e-19 -0 -1.06383e-19 -0 5.31916e-20)
(-4.37012e-20 5.44763e-19 -0 8.74024e-20 -0 -4.37012e-20)
(-1.65197e-20 8.02528e-19 -0 3.30395e-20 -0 -1.65197e-20)
(3.74814e-19 6.15132e-19 -0 -1.54552e-19 -0 -2.20262e-19)
(-4.33969e-19 -2.55876e-19 -0 2.72885e-19 -0 1.61084e-19)
(9.88744e-20 -1.70626e-19 -0 -1.97749e-19 -0 9.88744e-20)
(4.80885e-19 5.93378e-19 -0 -3.6678e-19 -0 -1.14105e-19)
(-5.5381e-20 -5.47177e-19 -0 1.10762e-19 -0 -5.5381e-20)
(3.09176e-19 -4.64311e-19 -0 -2.34117e-20 -0 -2.85764e-19)
(4.98601e-17 -1.41604e-16 -0 -6.75903e-17 -0 1.77302e-17)
(-3.0806e-17 1.56591e-16 -0 2.52828e-17 -0 5.52323e-18)
(7.3761e-18 -3.1114e-17 -0 -5.81956e-18 -0 -1.55654e-18)
(-2.99886e-18 8.42866e-18 -0 2.4248e-18 -0 5.74066e-19)
(3.34343e-19 -1.18669e-18 -0 -7.32389e-20 -0 -2.61104e-19)
(-4.7987e-19 1.06447e-18 -0 3.64316e-19 -0 1.15554e-19)
(-6.65049e-21 9.69503e-19 -0 1.3301e-20 -0 -6.65049e-21)
(1.0695e-19 1.22691e-18 -0 -2.13901e-19 -0 1.0695e-19)
(1.98414e-19 8.27706e-19 -0 -3.96828e-19 -0 1.98414e-19)
(5.66435e-19 7.8985e-19 -0 -5.37573e-19 -0 -2.88619e-20)
(6.545e-20 1.0135e-18 -0 -1.309e-19 -0 6.545e-20)
(9.34301e-19 5.28107e-19 -0 -6.78135e-19 -0 -2.56166e-19)
(-1.4605e-20 3.37685e-19 -0 2.92101e-20 -0 -1.4605e-20)
(-2.05274e-19 1.49972e-19 -0 4.10548e-19 -0 -2.05274e-19)
(-1.14715e-18 2.42743e-19 -0 1.10403e-18 -0 4.31156e-20)
(-1.37609e-18 -4.39725e-20 -0 9.66867e-19 -0 4.09228e-19)
(8.21321e-19 5.55496e-19 -0 -4.52504e-19 -0 -3.68817e-19)
(-1.18719e-20 2.09792e-19 -0 2.37438e-20 -0 -1.18719e-20)
(-7.98862e-19 -1.32878e-19 -0 4.07673e-19 -0 3.91189e-19)
(1.09867e-21 8.75656e-20 -0 -2.19734e-21 -0 1.09867e-21)
(-1.62179e-16 7.13323e-17 -0 2.85679e-16 -0 -1.235e-16)
(6.4626e-17 -8.25704e-17 -0 -7.68374e-17 -0 1.22114e-17)
(-1.51422e-17 1.49779e-17 -0 1.77775e-17 -0 -2.63528e-18)
(1.9747e-18 -4.31995e-18 -0 -3.35386e-18 -0 1.37916e-18)
(-2.54673e-19 7.52689e-20 -0 5.09345e-19 -0 -2.54673e-19)
(1.05011e-19 -4.55637e-19 -0 -2.10021e-19 -0 1.05011e-19)
(-8.76841e-20 -2.40846e-19 -0 1.75368e-19 -0 -8.76841e-20)
(-4.57207e-20 -1.41038e-19 -0 9.14414e-20 -0 -4.57207e-20)
(-4.23415e-20 -8.41422e-19 -0 8.4683e-20 -0 -4.23415e-20)
(-1.31648e-19 -7.18449e-19 -0 2.63296e-19 -0 -1.31648e-19)
(-1.57959e-19 -7.353e-19 -0 3.15917e-19 -0 -1.57959e-19)
(-4.78258e-20 -1.01285e-18 -0 9.56517e-20 -0 -4.78258e-20)
(-3.86214e-19 -7.21944e-19 -0 1.77176e-19 -0 2.09038e-19)
(3.51554e-19 -7.71984e-19 -0 -1.07881e-19 -0 -2.43674e-19)
(-1.35789e-18 -9.01786e-19 -0 9.30213e-19 -0 4.27676e-19)
(-1.54339e-19 -2.33097e-19 -0 3.08678e-19 -0 -1.54339e-19)
(-5.59436e-19 -4.31676e-19 -0 5.23746e-19 -0 3.569e-20)
(-2.11648e-20 -8.44176e-19 -0 4.23297e-20 -0 -2.11648e-20)
(5.05484e-19 3.25886e-19 -0 -4.15885e-19 -0 -8.95986e-20)
(4.98153e-20 -4.70993e-19 -0 -9.96305e-20 -0 4.98153e-20)
(1.70513e-16 6.46132e-17 -0 -3.0413e-16 -0 1.33616e-16)
(-6.57287e-17 -5.25684e-17 -0 8.0229e-17 -0 -1.45003e-17)
(1.66926e-17 9.54885e-18 -0 -1.96857e-17 -0 2.99315e-18)
(-1.75451e-18 -3.77705e-18 -0 2.91342e-18 -0 -1.15891e-18)
(1.35793e-18 -1.69015e-19 -0 -1.52473e-18 -0 1.66804e-19)
(8.05142e-19 -9.7243e-19 -0 -4.19203e-19 -0 -3.85939e-19)
(-1.1608e-19 -1.18619e-18 -0 2.3216e-19 -0 -1.1608e-19)
(-1.38478e-18 -1.22277e-18 -0 9.83139e-19 -0 4.01645e-19)
(-9.77424e-19 -5.31806e-19 -0 7.63977e-19 -0 2.13447e-19)
(-1.44882e-19 -5.25067e-19 -0 2.89764e-19 -0 -1.44882e-19)
(-4.44524e-19 -6.00465e-19 -0 2.93676e-19 -0 1.50848e-19)
(7.32663e-20 -6.17699e-19 -0 -1.46533e-19 -0 7.32663e-20)
(9.5095e-19 -2.61393e-19 -0 -7.11284e-19 -0 -2.39667e-19)
(1.12552e-19 -1.78043e-19 -0 -2.25103e-19 -0 1.12552e-19)
(8.59976e-19 -1.88815e-19 -0 -5.29461e-19 -0 -3.30515e-19)
(-4.0842e-19 -5.11959e-20 -0 2.21618e-19 -0 1.86802e-19)
(-3.74782e-19 5.82475e-20 -0 1.5438e-19 -0 2.20401e-19)
(9.05589e-19 -1.97374e-19 -0 -6.20861e-19 -0 -2.84728e-19)
(-3.02939e-19 5.81825e-20 -0 1.07392e-20 -0 2.922e-19)
(4.74185e-19 2.79088e-20 -0 -3.53262e-19 -0 -1.20923e-19)
(2.97813e-18 -1.62715e-16 -0 -4.76593e-18 -0 1.7878e-18)
(-2.54278e-18 1.43641e-16 -0 2.1069e-18 -0 4.35874e-19)
(5.01553e-19 -2.82627e-17 -0 -4.07427e-19 -0 -9.41254e-20)
(-3.37241e-19 7.36467e-18 -0 7.88243e-20 -0 2.58416e-19)
(1.09309e-19 -7.8632e-19 -0 -2.18618e-19 -0 1.09309e-19)
(4.32719e-19 5.64237e-19 -0 -2.69845e-19 -0 -1.62874e-19)
(-4.25667e-19 6.65253e-20 -0 2.55783e-19 -0 1.69884e-19)
(3.43792e-19 2.5788e-19 -0 -9.20563e-20 -0 -2.51736e-19)
(4.08956e-19 1.16923e-18 -0 -2.22426e-19 -0 -1.8653e-19)
(1.47811e-20 5.66227e-19 -0 -2.95623e-20 -0 1.47811e-20)
(2.62767e-21 1.02131e-18 -0 -5.25534e-21 -0 2.62767e-21)
(4.51802e-19 4.65901e-19 -0 -3.08203e-19 -0 -1.43599e-19)
(6.59618e-20 1.00506e-18 -0 -1.31924e-19 -0 6.59618e-20)
(4.0157e-21 5.54881e-19 -0 -8.0314e-21 -0 4.0157e-21)
(-4.01445e-19 1.77236e-19 -0 2.07593e-19 -0 1.93852e-19)
(4.61926e-19 4.28596e-19 -0 -3.28579e-19 -0 -1.33347e-19)
(8.45461e-19 2.756e-19 -0 -5.00455e-19 -0 -3.45007e-19)
(-8.73948e-19 8.33566e-19 -0 5.57476e-19 -0 3.16472e-19)
(-4.97399e-19 8.02395e-20 -0 3.99607e-19 -0 9.77919e-20)
(4.22403e-19 3.80996e-19 -0 -2.49646e-19 -0 -1.72757e-19)
(-1.91635e-16 4.67055e-17 -0 3.36844e-16 -0 -1.45209e-16)
(7.5894e-17 -4.55797e-17 -0 -8.9829e-17 -0 1.3935e-17)
(-1.8556e-17 8.02919e-18 -0 2.16235e-17 -0 -3.06752e-18)
(2.92462e-18 -2.59354e-18 -0 -4.06218e-18 -0 1.13756e-18)
(-4.08123e-19 -1.32735e-19 -0 8.16246e-19 -0 -4.08123e-19)
(6.64894e-20 -4.67836e-19 -0 -1.32979e-19 -0 6.64894e-20)
(2.74192e-20 -1.59655e-19 -0 -5.48384e-20 -0 2.74192e-20)
(-2.39574e-20 -3.90501e-19 -0 4.79149e-20 -0 -2.39574e-20)
(-3.78641e-19 -9.31659e-19 -0 1.61759e-19 -0 2.16882e-19)
(6.87165e-20 -5.11139e-19 -0 -1.37433e-19 -0 6.87165e-20)
(3.31358e-20 -9.58424e-19 -0 -6.62715e-20 -0 3.31358e-20)
(-8.58575e-19 -4.15087e-19 -0 5.26274e-19 -0 3.32301e-19)
(7.19038e-19 -1.07825e-18 -0 -2.47278e-19 -0 -4.7176e-19)
(-8.65419e-19 -7.22538e-20 -0 5.40087e-19 -0 3.25332e-19)
(4.47453e-20 -2.80447e-19 -0 -8.94906e-20 -0 4.47453e-20)
(9.01393e-19 -1.02878e-18 -0 -6.1216e-19 -0 -2.89232e-19)
(-3.21605e-20 -6.16524e-19 -0 6.43211e-20 -0 -3.21605e-20)
(-9.31663e-19 -5.64005e-19 -0 6.72827e-19 -0 2.58836e-19)
(-8.17989e-20 -3.98379e-19 -0 1.63598e-19 -0 -8.17989e-20)
(-4.57006e-20 -3.82149e-19 -0 9.14013e-20 -0 -4.57006e-20)
(1.1152e-16 1.02061e-16 -0 -2.05778e-16 -0 9.42581e-17)
(-3.9324e-17 -1.04525e-16 -0 5.12679e-17 -0 -1.19439e-17)
(9.88982e-18 2.24842e-17 -0 -1.2637e-17 -0 2.74717e-18)
(-1.52634e-18 -4.95957e-18 -0 2.45745e-18 -0 -9.31116e-19)
(9.40124e-20 1.71236e-18 -0 -1.88025e-19 -0 9.40124e-20)
(-7.63756e-20 5.06257e-19 -0 1.52751e-19 -0 -7.63756e-20)
(5.16653e-19 7.97291e-19 -0 -4.38085e-19 -0 -7.85678e-20)
(5.47187e-19 2.71303e-19 -0 -4.99153e-19 -0 -4.80339e-20)
(4.05236e-20 1.36931e-19 -0 -8.10472e-20 -0 4.05236e-20)
(1.76837e-20 5.43859e-19 -0 -3.53674e-20 -0 1.76837e-20)
(4.59311e-19 3.28106e-19 -0 -3.23402e-19 -0 -1.35909e-19)
(-4.0227e-19 6.27651e-19 -0 2.0932e-19 -0 1.9295e-19)
(5.90113e-21 7.1761e-19 -0 -1.18023e-20 -0 5.90113e-21)
(5.47957e-19 3.7546e-19 -0 -5.00694e-19 -0 -4.72634e-20)
(6.04865e-19 5.03645e-19 -0 -6.14509e-19 -0 9.64438e-21)
(1.01572e-19 2.46288e-19 -0 -2.03143e-19 -0 1.01572e-19)
(8.76939e-19 4.8798e-20 -0 -5.63438e-19 -0 -3.13502e-19)
(-2.76875e-19 1.52095e-20 -0 -4.14697e-20 -0 3.18345e-19)
(1.1428e-19 2.39422e-19 -0 -2.28561e-19 -0 1.1428e-19)
(4.10785e-19 1.89785e-19 -0 -2.26349e-19 -0 -1.84436e-19)
)
;

boundaryField
{
    movingWall
    {
        type            calculated;
        value           nonuniform List<symmTensor> 
20
(
(2.68121e-16 2.81863e-17 -0 -5.20522e-16 -0 2.524e-16)
(-7.1204e-17 -7.52421e-17 -0 1.17471e-16 -0 -4.62674e-17)
(1.75152e-17 2.16139e-17 -0 -2.85252e-17 -0 1.101e-17)
(-3.22515e-18 -1.67939e-18 -0 5.9082e-18 -0 -2.68305e-18)
(4.10391e-19 4.12607e-18 -0 -8.20781e-19 -0 4.10391e-19)
(-1.50568e-19 3.0276e-18 -0 3.01136e-19 -0 -1.50568e-19)
(5.55727e-19 3.73675e-18 -0 -5.69353e-19 -0 1.36258e-20)
(7.01597e-19 2.19649e-18 -0 -8.61093e-19 -0 1.59496e-19)
(1.30433e-19 2.07411e-18 -0 -2.60866e-19 -0 1.30433e-19)
(-5.00432e-20 2.17367e-18 -0 1.00086e-19 -0 -5.00432e-20)
(3.67093e-19 2.24822e-18 -0 -1.92084e-19 -0 -1.75008e-19)
(-3.3738e-19 1.80589e-18 -0 1.32659e-19 -0 2.04721e-19)
(8.44542e-20 2.776e-18 -0 -1.68908e-19 -0 8.44542e-20)
(6.82668e-19 1.84726e-18 -0 -8.23234e-19 -0 1.40566e-19)
(6.34928e-19 1.24886e-18 -0 -7.27754e-19 -0 9.28266e-20)
(9.88576e-20 1.28553e-18 -0 -1.97715e-19 -0 9.88576e-20)
(8.71684e-19 4.88532e-19 -0 -6.59166e-19 -0 -2.12518e-19)
(-1.44028e-19 1.38522e-20 -0 -2.54045e-19 -0 3.98073e-19)
(1.85822e-19 3.91094e-19 -0 -3.71643e-19 -0 1.85822e-19)
(4.37452e-19 3.45887e-19 -0 -3.32802e-19 -0 -1.0465e-19)
)
;
    }
    fixedWalls
    {
        type            calculated;
        value           nonuniform List<symmTensor> 
60
(
(1.80857e-16 -5.97333e-16 -0 -2.51579e-16 -0 7.07226e-17)
(-3.58094e-16 -7.46475e-17 -0 4.55063e-16 -0 -9.69693e-17)
(7.23085e-17 5.82355e-16 -0 -1.01984e-16 -0 2.96759e-17)
(2.28474e-16 -3.65073e-16 -0 -2.66879e-16 -0 3.84042e-17)
(-2.96974e-16 -8.29629e-17 -0 3.53252e-16 -0 -5.6278e-17)
(2.19492e-16 5.1416e-16 -0 -2.34703e-16 -0 1.52108e-17)
(3.04768e-17 -6.21008e-16 -0 -1.02698e-16 -0 7.22212e-17)
(-2.25109e-16 1.6134e-16 -0 3.64952e-16 -0 -1.39844e-16)
(2.26286e-16 4.33307e-16 -0 -3.21121e-16 -0 9.48354e-17)
(-3.79156e-17 -7.14212e-16 -0 5.71795e-17 -0 -1.92639e-17)
(-9.68757e-17 5.83212e-16 -0 1.48454e-16 -0 -5.15786e-17)
(1.33295e-16 -2.86228e-16 -0 -2.39944e-16 -0 1.06649e-16)
(-1.23221e-16 -1.25425e-16 -0 2.49994e-16 -0 -1.26773e-16)
(4.02374e-17 4.79504e-16 -0 -1.34654e-16 -0 9.44163e-17)
(1.24204e-16 -5.90612e-16 -0 -1.00969e-16 -0 -2.32341e-17)
(-2.52153e-16 3.10752e-16 -0 3.1246e-16 -0 -6.03066e-17)
(2.57263e-16 1.96934e-16 -0 -3.28008e-16 -0 7.07452e-17)
(7.911e-18 -5.43674e-16 -0 -6.94022e-18 -0 -9.70785e-19)
(-3.003e-16 1.709e-16 -0 3.69673e-16 -0 -6.93735e-17)
(1.55035e-16 4.03266e-16 -0 -2.14147e-16 -0 5.91121e-17)
(2.61196e-20 1.86186e-19 -0 -5.22393e-20 -0 2.61196e-20)
(-1.26988e-18 -2.94681e-20 -0 7.6341e-19 -0 5.06474e-19)
(5.70282e-19 -5.98736e-19 -0 -2.52385e-19 -0 -3.17896e-19)
(1.23807e-18 -4.31541e-19 -0 -6.99782e-19 -0 -5.38287e-19)
(6.54928e-19 2.66354e-19 -0 -4.21678e-19 -0 -2.3325e-19)
(6.22798e-19 2.16366e-19 -0 -3.57417e-19 -0 -2.65381e-19)
(-2.06255e-20 4.50425e-19 -0 4.12511e-20 -0 -2.06255e-20)
(6.11333e-19 -1.78438e-19 -0 -3.34488e-19 -0 -2.76845e-19)
(3.95985e-20 5.65711e-19 -0 -7.91971e-20 -0 3.95985e-20)
(-5.70253e-20 3.30204e-19 -0 1.14051e-19 -0 -5.70253e-20)
(5.46188e-19 -5.89593e-19 -0 -2.04197e-19 -0 -3.41991e-19)
(1.2094e-18 5.96718e-19 -0 -6.42439e-19 -0 -5.66959e-19)
(-1.24228e-18 1.03469e-19 -0 7.08201e-19 -0 5.34078e-19)
(5.12435e-19 -5.64681e-19 -0 -1.36692e-19 -0 -3.75743e-19)
(1.001e-21 -1.03584e-19 -0 -2.00201e-21 -0 1.001e-21)
(4.53825e-20 -5.58675e-19 -0 -9.0765e-20 -0 4.53825e-20)
(6.62667e-19 -1.02339e-19 -0 -4.37156e-19 -0 -2.25511e-19)
(6.15464e-19 4.06716e-19 -0 -3.42749e-19 -0 -2.72715e-19)
(-4.16237e-20 -2.33321e-19 -0 8.32474e-20 -0 -4.16237e-20)
(6.04843e-19 1.56974e-19 -0 -3.21508e-19 -0 -2.83335e-19)
(3.96776e-16 -5.84932e-17 -0 -7.76747e-16 -0 3.79971e-16)
(-1.019e-16 1.15669e-16 -0 1.75068e-16 -0 -7.31683e-17)
(2.64226e-17 -3.17495e-17 -0 -4.36296e-17 -0 1.72069e-17)
(-4.00119e-18 4.51401e-18 -0 8.00239e-18 -0 -4.00119e-18)
(1.49745e-18 -3.74292e-18 -0 -2.45279e-18 -0 9.55345e-19)
(-3.02664e-19 -1.90776e-18 -0 6.32263e-20 -0 2.39437e-19)
(6.63605e-19 -2.7177e-18 -0 -7.85109e-19 -0 1.21504e-19)
(5.61905e-19 -1.71813e-18 -0 -5.81709e-19 -0 1.98041e-20)
(1.46945e-19 -1.69346e-18 -0 -2.9389e-19 -0 1.46945e-19)
(-2.05554e-20 -2.09077e-18 -0 4.11107e-20 -0 -2.05554e-20)
(1.62545e-19 -1.28321e-18 -0 2.17012e-19 -0 -3.79557e-19)
(-5.12772e-19 -1.94387e-18 -0 4.83442e-19 -0 2.93293e-20)
(2.47841e-19 -2.51394e-18 -0 -4.95683e-19 -0 2.47841e-19)
(9.92688e-19 -1.92026e-18 -0 -1.44328e-18 -0 4.50587e-19)
(1.35439e-18 1.45656e-19 -0 -1.62458e-18 -0 2.70191e-19)
(9.65673e-19 1.1677e-18 -0 -8.47143e-19 -0 -1.1853e-19)
(-1.13803e-19 1.98343e-18 -0 2.27607e-19 -0 -1.13803e-19)
(-1.03212e-18 -1.60245e-20 -0 9.80035e-19 -0 5.20834e-20)
(-7.10714e-20 -6.0663e-19 -0 1.42143e-19 -0 -7.10714e-20)
(1.24124e-19 1.98947e-20 -0 -2.48248e-19 -0 1.24124e-19)
)
;
    }
    frontAndBack
    {
        type            empty;
    }
}


// ************************************************************************* //
