/*--------------------------------*- C++ -*----------------------------------*\
| =========                 |                                                 |
| \\      /  F ield         | OpenFOAM: The Open Source CFD Toolbox           |
|  \\    /   O peration     | Version:  2312                                  |
|   \\  /    A nd           | Website:  www.openfoam.com                      |
|    \\/     M anipulation  |                                                 |
\*---------------------------------------------------------------------------*/
FoamFile
{
    version     2.0;
    format      ascii;
    arch        "LSB;label=32;scalar=64";
    class       volScalarField;
    location    "9.5";
    object      turbulenceProperties:L;
}
// * * * * * * * * * * * * * * * * * * * * * * * * * * * * * * * * * * * * * //

dimensions      [0 1 0 0 0 0 0];

internalField   nonuniform List<scalar> 
400
(
0.00102303
0.00102303
0.00102303
0.00102303
0.00102303
0.00102303
0.00102303
0.00102303
0.00102303
0.00102303
0.00102303
0.00102303
0.00102303
0.00102303
0.00102303
0.00102303
0.00102303
0.00102303
0.00102303
0.00102303
0.001023
0.00103313
0.00103222
0.00103185
0.0010311
0.00103073
0.00102999
0.0010296
0.00102887
0.00102847
0.00102774
0.00102734
0.00102662
0.0010262
0.00102549
0.00102506
0.00102436
0.00102392
0.00102357
0.001023
0.00102296
0.00103337
0.00103242
0.00103204
0.00103126
0.00103087
0.0010301
0.0010297
0.00102894
0.00102854
0.00102779
0.00102737
0.00102663
0.00102621
0.00102548
0.00102505
0.00102433
0.00102389
0.00102353
0.00102296
0.00102292
0.00103345
0.00103249
0.00103209
0.00103132
0.00103091
0.00103014
0.00102973
0.00102897
0.00102856
0.00102781
0.00102738
0.00102664
0.00102621
0.00102547
0.00102503
0.00102431
0.00102386
0.0010235
0.00102292
0.00102289
0.00103353
0.00103255
0.00103216
0.00103137
0.00103097
0.00103019
0.00102978
0.00102901
0.00102859
0.00102783
0.0010274
0.00102665
0.00102621
0.00102547
0.00102503
0.00102429
0.00102384
0.00102348
0.00102289
0.00102288
0.00103359
0.00103262
0.00103222
0.00103142
0.00103101
0.00103023
0.00102981
0.00102904
0.00102861
0.00102785
0.00102742
0.00102666
0.00102622
0.00102548
0.00102503
0.00102429
0.00102384
0.00102347
0.00102288
0.00102287
0.00103364
0.00103266
0.00103226
0.00103146
0.00103105
0.00103026
0.00102984
0.00102906
0.00102864
0.00102787
0.00102744
0.00102667
0.00102623
0.00102548
0.00102503
0.00102429
0.00102383
0.00102347
0.00102287
0.00102287
0.00103368
0.00103269
0.00103229
0.00103149
0.00103107
0.00103029
0.00102986
0.00102909
0.00102865
0.00102789
0.00102745
0.00102669
0.00102624
0.00102549
0.00102504
0.00102429
0.00102383
0.00102346
0.00102287
0.00102287
0.0010337
0.00103271
0.00103231
0.00103151
0.00103109
0.0010303
0.00102988
0.0010291
0.00102867
0.00102789
0.00102746
0.00102669
0.00102625
0.00102549
0.00102504
0.00102429
0.00102383
0.00102346
0.00102287
0.00102286
0.00103372
0.00103273
0.00103233
0.00103152
0.00103111
0.00103031
0.00102989
0.0010291
0.00102868
0.0010279
0.00102747
0.00102669
0.00102625
0.00102549
0.00102504
0.00102429
0.00102384
0.00102346
0.00102286
0.00102286
0.00103373
0.00103274
0.00103233
0.00103153
0.00103111
0.00103032
0.0010299
0.00102911
0.00102868
0.00102791
0.00102747
0.0010267
0.00102626
0.0010255
0.00102504
0.0010243
0.00102384
0.00102346
0.00102286
0.00102286
0.00103374
0.00103274
0.00103234
0.00103153
0.00103112
0.00103032
0.0010299
0.00102912
0.00102869
0.00102791
0.00102747
0.0010267
0.00102626
0.0010255
0.00102505
0.0010243
0.00102383
0.00102346
0.00102286
0.00102286
0.00103375
0.00103276
0.00103235
0.00103154
0.00103113
0.00103033
0.00102991
0.00102912
0.00102869
0.00102791
0.00102747
0.00102671
0.00102626
0.0010255
0.00102505
0.0010243
0.00102383
0.00102346
0.00102286
0.00102286
0.00103376
0.00103276
0.00103236
0.00103155
0.00103114
0.00103033
0.00102992
0.00102912
0.0010287
0.00102791
0.00102748
0.0010267
0.00102626
0.0010255
0.00102505
0.00102429
0.00102383
0.00102346
0.00102286
0.00102286
0.00103377
0.00103277
0.00103236
0.00103156
0.00103114
0.00103034
0.00102992
0.00102913
0.0010287
0.00102792
0.00102748
0.00102671
0.00102626
0.0010255
0.00102505
0.0010243
0.00102383
0.00102346
0.00102286
0.00102285
0.00103378
0.00103278
0.00103237
0.00103157
0.00103114
0.00103035
0.00102992
0.00102914
0.0010287
0.00102792
0.00102748
0.00102671
0.00102626
0.0010255
0.00102505
0.00102429
0.00102383
0.00102346
0.00102285
0.00102285
0.00103378
0.00103279
0.00103238
0.00103157
0.00103115
0.00103035
0.00102993
0.00102914
0.0010287
0.00102792
0.00102748
0.00102671
0.00102626
0.0010255
0.00102505
0.00102429
0.00102383
0.00102345
0.00102285
0.00102285
0.00103379
0.00103279
0.00103238
0.00103157
0.00103116
0.00103035
0.00102993
0.00102914
0.00102871
0.00102792
0.00102749
0.00102671
0.00102627
0.0010255
0.00102505
0.00102429
0.00102383
0.00102345
0.00102285
0.00102284
0.00103359
0.00103263
0.00103223
0.00103145
0.00103104
0.00103026
0.00102984
0.00102907
0.00102865
0.00102788
0.00102744
0.00102669
0.00102624
0.00102549
0.00102503
0.00102429
0.00102382
0.00102345
0.00102285
0.00102284
0.00102284
0.00102284
0.00102284
0.00102284
0.00102284
0.00102284
0.00102284
0.00102284
0.00102284
0.00102284
0.00102284
0.00102284
0.00102284
0.00102284
0.00102284
0.00102284
0.00102284
0.00102284
0.00102284
)
;

boundaryField
{
    movingWall
    {
        type            calculated;
        value           nonuniform List<scalar> 
20
(
0.00102284
0.00102284
0.00102284
0.00102284
0.00102284
0.00102284
0.00102284
0.00102284
0.00102284
0.00102284
0.00102284
0.00102284
0.00102284
0.00102284
0.00102284
0.00102284
0.00102284
0.00102284
0.00102284
0.00102284
)
;
    }
    fixedWalls
    {
        type            calculated;
        value           nonuniform List<scalar> 
60
(
0.00102303
0.001023
0.00102296
0.00102292
0.00102289
0.00102288
0.00102287
0.00102287
0.00102287
0.00102286
0.00102286
0.00102286
0.00102286
0.00102286
0.00102286
0.00102285
0.00102285
0.00102285
0.00102284
0.00102284
0.00102303
0.001023
0.00102296
0.00102292
0.00102289
0.00102288
0.00102287
0.00102287
0.00102287
0.00102286
0.00102286
0.00102286
0.00102286
0.00102286
0.00102286
0.00102285
0.00102285
0.00102285
0.00102285
0.00102284
0.00102303
0.00102303
0.00102303
0.00102303
0.00102303
0.00102303
0.00102303
0.00102303
0.00102303
0.00102303
0.00102303
0.00102303
0.00102303
0.00102303
0.00102303
0.00102303
0.00102303
0.00102303
0.00102303
0.00102303
)
;
    }
    frontAndBack
    {
        type            empty;
    }
}


// ************************************************************************* //
