/*--------------------------------*- C++ -*----------------------------------*\
| =========                 |                                                 |
| \\      /  F ield         | OpenFOAM: The Open Source CFD Toolbox           |
|  \\    /   O peration     | Version:  2312                                  |
|   \\  /    A nd           | Website:  www.openfoam.com                      |
|    \\/     M anipulation  |                                                 |
\*---------------------------------------------------------------------------*/
FoamFile
{
    version     2.0;
    format      ascii;
    arch        "LSB;label=32;scalar=64";
    class       volScalarField;
    location    "9.5";
    object      turbulenceProperties:k;
}
// * * * * * * * * * * * * * * * * * * * * * * * * * * * * * * * * * * * * * //

dimensions      [0 2 -2 0 0 0 0];

internalField   nonuniform List<scalar> 
400
(
2.68289e-06
2.68289e-06
2.68288e-06
2.68288e-06
2.68288e-06
2.68288e-06
2.68288e-06
2.68288e-06
2.68288e-06
2.68288e-06
2.68288e-06
2.68288e-06
2.68288e-06
2.68288e-06
2.68288e-06
2.68288e-06
2.68288e-06
2.68288e-06
2.68288e-06
2.68288e-06
2.71769e-06
2.71769e-06
2.71763e-06
2.71762e-06
2.71757e-06
2.71756e-06
2.71752e-06
2.71751e-06
2.71748e-06
2.71747e-06
2.71744e-06
2.71743e-06
2.71741e-06
2.71741e-06
2.71739e-06
2.71739e-06
2.71737e-06
2.71737e-06
2.71737e-06
2.71737e-06
2.77431e-06
2.77431e-06
2.77424e-06
2.77423e-06
2.77418e-06
2.77417e-06
2.77413e-06
2.77411e-06
2.77408e-06
2.77407e-06
2.77404e-06
2.77403e-06
2.77401e-06
2.77401e-06
2.77398e-06
2.77398e-06
2.77397e-06
2.77397e-06
2.77397e-06
2.77397e-06
2.83632e-06
2.83632e-06
2.83627e-06
2.83624e-06
2.8362e-06
2.83617e-06
2.83614e-06
2.83612e-06
2.83609e-06
2.83607e-06
2.83605e-06
2.83603e-06
2.83602e-06
2.83601e-06
2.83599e-06
2.83599e-06
2.83598e-06
2.83597e-06
2.83597e-06
2.83597e-06
2.89108e-06
2.89108e-06
2.891e-06
2.89099e-06
2.89094e-06
2.89092e-06
2.89088e-06
2.89086e-06
2.89083e-06
2.89082e-06
2.89079e-06
2.89078e-06
2.89076e-06
2.89075e-06
2.89073e-06
2.89073e-06
2.89072e-06
2.89071e-06
2.89071e-06
2.89071e-06
2.93302e-06
2.93302e-06
2.93296e-06
2.93293e-06
2.93289e-06
2.93286e-06
2.93283e-06
2.9328e-06
2.93278e-06
2.93275e-06
2.93273e-06
2.93271e-06
2.93269e-06
2.93268e-06
2.93267e-06
2.93266e-06
2.93265e-06
2.93265e-06
2.93264e-06
2.93264e-06
2.96225e-06
2.96225e-06
2.96218e-06
2.96215e-06
2.9621e-06
2.96208e-06
2.96204e-06
2.96202e-06
2.96199e-06
2.96197e-06
2.96194e-06
2.96193e-06
2.96191e-06
2.9619e-06
2.96188e-06
2.96187e-06
2.96187e-06
2.96186e-06
2.96186e-06
2.96186e-06
2.98155e-06
2.98155e-06
2.98148e-06
2.98145e-06
2.98141e-06
2.98138e-06
2.98135e-06
2.98131e-06
2.98129e-06
2.98126e-06
2.98125e-06
2.98122e-06
2.98121e-06
2.98119e-06
2.98118e-06
2.98117e-06
2.98116e-06
2.98116e-06
2.98116e-06
2.98115e-06
2.99422e-06
2.99422e-06
2.99415e-06
2.99412e-06
2.99408e-06
2.99405e-06
2.99402e-06
2.99399e-06
2.99396e-06
2.99394e-06
2.99392e-06
2.9939e-06
2.99388e-06
2.99387e-06
2.99385e-06
2.99384e-06
2.99384e-06
2.99383e-06
2.99383e-06
2.99383e-06
3.00298e-06
3.00298e-06
3.0029e-06
3.00289e-06
3.00283e-06
3.00281e-06
3.00277e-06
3.00275e-06
3.00271e-06
3.0027e-06
3.00267e-06
3.00266e-06
3.00263e-06
3.00263e-06
3.0026e-06
3.0026e-06
3.00259e-06
3.00259e-06
3.00258e-06
3.00258e-06
3.0097e-06
3.0097e-06
3.00963e-06
3.0096e-06
3.00956e-06
3.00953e-06
3.00949e-06
3.00946e-06
3.00944e-06
3.00941e-06
3.00939e-06
3.00937e-06
3.00935e-06
3.00934e-06
3.00933e-06
3.00932e-06
3.00931e-06
3.00931e-06
3.0093e-06
3.0093e-06
3.01557e-06
3.01557e-06
3.01549e-06
3.01547e-06
3.01542e-06
3.0154e-06
3.01535e-06
3.01533e-06
3.0153e-06
3.01528e-06
3.01525e-06
3.01524e-06
3.01522e-06
3.01521e-06
3.01519e-06
3.01519e-06
3.01517e-06
3.01517e-06
3.01517e-06
3.01516e-06
3.02128e-06
3.02127e-06
3.02121e-06
3.02118e-06
3.02113e-06
3.0211e-06
3.02106e-06
3.02104e-06
3.02101e-06
3.02099e-06
3.02096e-06
3.02094e-06
3.02093e-06
3.02091e-06
3.0209e-06
3.02089e-06
3.02088e-06
3.02088e-06
3.02087e-06
3.02087e-06
3.02721e-06
3.02721e-06
3.02713e-06
3.02711e-06
3.02705e-06
3.02704e-06
3.02699e-06
3.02697e-06
3.02693e-06
3.02692e-06
3.02688e-06
3.02688e-06
3.02685e-06
3.02684e-06
3.02682e-06
3.02682e-06
3.0268e-06
3.0268e-06
3.0268e-06
3.0268e-06
3.0335e-06
3.0335e-06
3.03343e-06
3.0334e-06
3.03335e-06
3.03332e-06
3.03329e-06
3.03326e-06
3.03323e-06
3.0332e-06
3.03318e-06
3.03316e-06
3.03315e-06
3.03313e-06
3.03312e-06
3.03311e-06
3.0331e-06
3.0331e-06
3.03309e-06
3.03309e-06
3.04008e-06
3.04008e-06
3.04001e-06
3.03998e-06
3.03994e-06
3.0399e-06
3.03987e-06
3.03983e-06
3.03981e-06
3.03978e-06
3.03976e-06
3.03974e-06
3.03973e-06
3.03971e-06
3.0397e-06
3.03969e-06
3.03968e-06
3.03968e-06
3.03967e-06
3.03967e-06
3.04662e-06
3.04662e-06
3.04655e-06
3.04652e-06
3.04647e-06
3.04644e-06
3.04641e-06
3.04638e-06
3.04635e-06
3.04632e-06
3.0463e-06
3.04628e-06
3.04626e-06
3.04625e-06
3.04623e-06
3.04623e-06
3.04622e-06
3.04621e-06
3.04621e-06
3.04621e-06
3.05254e-06
3.05254e-06
3.05246e-06
3.05244e-06
3.05239e-06
3.05237e-06
3.05232e-06
3.0523e-06
3.05226e-06
3.05225e-06
3.05221e-06
3.05221e-06
3.05218e-06
3.05218e-06
3.05215e-06
3.05215e-06
3.05213e-06
3.05213e-06
3.05213e-06
3.05213e-06
3.05709e-06
3.05709e-06
3.05703e-06
3.05699e-06
3.05695e-06
3.05692e-06
3.05689e-06
3.05686e-06
3.05683e-06
3.05681e-06
3.05678e-06
3.05676e-06
3.05675e-06
3.05673e-06
3.05672e-06
3.05671e-06
3.0567e-06
3.0567e-06
3.05669e-06
3.05669e-06
3.0592e-06
3.0592e-06
3.0592e-06
3.05919e-06
3.05919e-06
3.05919e-06
3.05919e-06
3.05919e-06
3.05919e-06
3.05919e-06
3.05919e-06
3.05919e-06
3.05919e-06
3.05919e-06
3.05919e-06
3.05919e-06
3.05919e-06
3.05919e-06
3.05919e-06
3.05919e-06
)
;

boundaryField
{
    movingWall
    {
        type            kqRWallFunction;
        value           nonuniform List<scalar> 
20
(
3.0592e-06
3.0592e-06
3.0592e-06
3.05919e-06
3.05919e-06
3.05919e-06
3.05919e-06
3.05919e-06
3.05919e-06
3.05919e-06
3.05919e-06
3.05919e-06
3.05919e-06
3.05919e-06
3.05919e-06
3.05919e-06
3.05919e-06
3.05919e-06
3.05919e-06
3.05919e-06
)
;
    }
    fixedWalls
    {
        type            kqRWallFunction;
        value           nonuniform List<scalar> 
60
(
2.68289e-06
2.71769e-06
2.77431e-06
2.83632e-06
2.89108e-06
2.93302e-06
2.96225e-06
2.98155e-06
2.99422e-06
3.00298e-06
3.0097e-06
3.01557e-06
3.02128e-06
3.02721e-06
3.0335e-06
3.04008e-06
3.04662e-06
3.05254e-06
3.05709e-06
3.0592e-06
2.68288e-06
2.71737e-06
2.77397e-06
2.83597e-06
2.89071e-06
2.93264e-06
2.96186e-06
2.98115e-06
2.99383e-06
3.00258e-06
3.0093e-06
3.01516e-06
3.02087e-06
3.0268e-06
3.03309e-06
3.03967e-06
3.04621e-06
3.05213e-06
3.05669e-06
3.05919e-06
2.68289e-06
2.68289e-06
2.68288e-06
2.68288e-06
2.68288e-06
2.68288e-06
2.68288e-06
2.68288e-06
2.68288e-06
2.68288e-06
2.68288e-06
2.68288e-06
2.68288e-06
2.68288e-06
2.68288e-06
2.68288e-06
2.68288e-06
2.68288e-06
2.68288e-06
2.68288e-06
)
;
    }
    frontAndBack
    {
        type            empty;
    }
}


// ************************************************************************* //
