/*--------------------------------*- C++ -*----------------------------------*\
| =========                 |                                                 |
| \\      /  F ield         | OpenFOAM: The Open Source CFD Toolbox           |
|  \\    /   O peration     | Version:  2312                                  |
|   \\  /    A nd           | Website:  www.openfoam.com                      |
|    \\/     M anipulation  |                                                 |
\*---------------------------------------------------------------------------*/
FoamFile
{
    version     2.0;
    format      ascii;
    arch        "LSB;label=32;scalar=64";
    class       volSymmTensorField;
    location    "9.5";
    object      turbulenceProperties:R;
}
// * * * * * * * * * * * * * * * * * * * * * * * * * * * * * * * * * * * * * //

dimensions      [0 2 -2 0 0 0 0];

internalField   nonuniform List<symmTensor> 
400
(
(1.78859e-06 -1.2164e-17 -0 1.78859e-06 -0 1.78859e-06)
(1.78859e-06 1.29208e-17 -0 1.78859e-06 -0 1.78859e-06)
(1.78859e-06 -2.75993e-18 -0 1.78859e-06 -0 1.78859e-06)
(1.78859e-06 6.3397e-19 -0 1.78859e-06 -0 1.78859e-06)
(1.78859e-06 -1.6461e-19 -0 1.78859e-06 -0 1.78859e-06)
(1.78859e-06 3.8217e-21 -0 1.78859e-06 -0 1.78859e-06)
(1.78859e-06 -5.46334e-20 -0 1.78859e-06 -0 1.78859e-06)
(1.78859e-06 -1.95334e-20 -0 1.78859e-06 -0 1.78859e-06)
(1.78859e-06 -4.21457e-20 -0 1.78859e-06 -0 1.78859e-06)
(1.78859e-06 -3.78524e-20 -0 1.78859e-06 -0 1.78859e-06)
(1.78859e-06 4.50235e-21 -0 1.78859e-06 -0 1.78859e-06)
(1.78859e-06 -6.51283e-20 -0 1.78859e-06 -0 1.78859e-06)
(1.78859e-06 -2.69372e-20 -0 1.78859e-06 -0 1.78859e-06)
(1.78859e-06 -1.32077e-20 -0 1.78859e-06 -0 1.78859e-06)
(1.78859e-06 1.33683e-20 -0 1.78859e-06 -0 1.78859e-06)
(1.78859e-06 2.56547e-20 -0 1.78859e-06 -0 1.78859e-06)
(1.78859e-06 9.3636e-20 -0 1.78859e-06 -0 1.78859e-06)
(1.78859e-06 -1.47073e-21 -0 1.78859e-06 -0 1.78859e-06)
(1.78859e-06 -1.4918e-20 -0 1.78859e-06 -0 1.78859e-06)
(1.78859e-06 1.82594e-21 -0 1.78859e-06 -0 1.78859e-06)
(1.81179e-06 -2.03926e-18 -0 1.81179e-06 -0 1.81179e-06)
(1.8118e-06 1.74514e-18 -0 1.8118e-06 -0 1.8118e-06)
(1.81175e-06 -2.58895e-19 -0 1.81175e-06 -0 1.81175e-06)
(1.81174e-06 7.97509e-20 -0 1.81174e-06 -0 1.81174e-06)
(1.81171e-06 4.18545e-20 -0 1.81171e-06 -0 1.81171e-06)
(1.81171e-06 7.20637e-20 -0 1.81171e-06 -0 1.81171e-06)
(1.81168e-06 1.83751e-21 -0 1.81168e-06 -0 1.81168e-06)
(1.81167e-06 5.16856e-21 -0 1.81167e-06 -0 1.81167e-06)
(1.81165e-06 1.14152e-21 -0 1.81165e-06 -0 1.81165e-06)
(1.81164e-06 1.80143e-20 -0 1.81164e-06 -0 1.81164e-06)
(1.81163e-06 -1.17584e-20 -0 1.81163e-06 -0 1.81163e-06)
(1.81162e-06 4.85706e-20 -0 1.81162e-06 -0 1.81162e-06)
(1.81161e-06 -3.46987e-22 -0 1.81161e-06 -0 1.81161e-06)
(1.8116e-06 4.16335e-20 -0 1.8116e-06 -0 1.8116e-06)
(1.81159e-06 -7.07436e-21 -0 1.81159e-06 -0 1.81159e-06)
(1.81159e-06 1.63081e-20 -0 1.81159e-06 -0 1.81159e-06)
(1.81158e-06 -4.81631e-20 -0 1.81158e-06 -0 1.81158e-06)
(1.81158e-06 4.4714e-21 -0 1.81158e-06 -0 1.81158e-06)
(1.81158e-06 -1.17229e-20 -0 1.81158e-06 -0 1.81158e-06)
(1.81158e-06 -7.4907e-21 -0 1.81158e-06 -0 1.81158e-06)
(1.84954e-06 1.48503e-17 -0 1.84954e-06 -0 1.84954e-06)
(1.84954e-06 -1.31748e-17 -0 1.84954e-06 -0 1.84954e-06)
(1.8495e-06 2.67992e-18 -0 1.8495e-06 -0 1.8495e-06)
(1.84948e-06 -6.80599e-19 -0 1.84948e-06 -0 1.84948e-06)
(1.84945e-06 5.84196e-20 -0 1.84945e-06 -0 1.84945e-06)
(1.84944e-06 -1.07404e-19 -0 1.84944e-06 -0 1.84944e-06)
(1.84942e-06 1.51579e-20 -0 1.84942e-06 -0 1.84942e-06)
(1.84941e-06 6.26126e-20 -0 1.84941e-06 -0 1.84941e-06)
(1.84939e-06 4.66333e-20 -0 1.84939e-06 -0 1.84939e-06)
(1.84938e-06 1.32122e-20 -0 1.84938e-06 -0 1.84938e-06)
(1.84936e-06 3.51432e-20 -0 1.84936e-06 -0 1.84936e-06)
(1.84936e-06 6.38324e-20 -0 1.84936e-06 -0 1.84936e-06)
(1.84934e-06 2.48105e-20 -0 1.84934e-06 -0 1.84934e-06)
(1.84934e-06 -4.61635e-21 -0 1.84934e-06 -0 1.84934e-06)
(1.84932e-06 -2.4631e-20 -0 1.84932e-06 -0 1.84932e-06)
(1.84932e-06 -4.96691e-21 -0 1.84932e-06 -0 1.84932e-06)
(1.84931e-06 2.13175e-20 -0 1.84931e-06 -0 1.84931e-06)
(1.84931e-06 2.45561e-20 -0 1.84931e-06 -0 1.84931e-06)
(1.84931e-06 4.67094e-21 -0 1.84931e-06 -0 1.84931e-06)
(1.84931e-06 -4.54521e-20 -0 1.84931e-06 -0 1.84931e-06)
(1.89088e-06 -9.43071e-18 -0 1.89088e-06 -0 1.89088e-06)
(1.89088e-06 8.30606e-18 -0 1.89088e-06 -0 1.89088e-06)
(1.89084e-06 -1.73817e-18 -0 1.89084e-06 -0 1.89084e-06)
(1.89082e-06 4.22062e-19 -0 1.89082e-06 -0 1.89082e-06)
(1.8908e-06 -7.45151e-20 -0 1.8908e-06 -0 1.8908e-06)
(1.89078e-06 2.46434e-20 -0 1.89078e-06 -0 1.89078e-06)
(1.89076e-06 1.61812e-20 -0 1.89076e-06 -0 1.89076e-06)
(1.89074e-06 2.34677e-22 -0 1.89074e-06 -0 1.89074e-06)
(1.89073e-06 3.24649e-21 -0 1.89073e-06 -0 1.89073e-06)
(1.89071e-06 4.88673e-20 -0 1.89071e-06 -0 1.89071e-06)
(1.8907e-06 -3.74476e-21 -0 1.8907e-06 -0 1.8907e-06)
(1.89069e-06 -5.22095e-20 -0 1.89069e-06 -0 1.89069e-06)
(1.89068e-06 5.24761e-20 -0 1.89068e-06 -0 1.89068e-06)
(1.89067e-06 2.37902e-21 -0 1.89067e-06 -0 1.89067e-06)
(1.89066e-06 1.13969e-20 -0 1.89066e-06 -0 1.89066e-06)
(1.89066e-06 -1.63557e-20 -0 1.89066e-06 -0 1.89066e-06)
(1.89065e-06 -4.94511e-20 -0 1.89065e-06 -0 1.89065e-06)
(1.89065e-06 -2.08727e-20 -0 1.89065e-06 -0 1.89065e-06)
(1.89065e-06 -2.64015e-20 -0 1.89065e-06 -0 1.89065e-06)
(1.89065e-06 -3.73157e-20 -0 1.89065e-06 -0 1.89065e-06)
(1.92739e-06 -1.39482e-18 -0 1.92739e-06 -0 1.92739e-06)
(1.92739e-06 1.94845e-18 -0 1.92739e-06 -0 1.92739e-06)
(1.92734e-06 -3.96798e-19 -0 1.92734e-06 -0 1.92734e-06)
(1.92733e-06 9.86409e-20 -0 1.92733e-06 -0 1.92733e-06)
(1.92729e-06 6.68632e-21 -0 1.92729e-06 -0 1.92729e-06)
(1.92728e-06 8.19942e-21 -0 1.92728e-06 -0 1.92728e-06)
(1.92726e-06 -1.55682e-20 -0 1.92726e-06 -0 1.92726e-06)
(1.92724e-06 -9.14451e-20 -0 1.92724e-06 -0 1.92724e-06)
(1.92722e-06 -5.75133e-21 -0 1.92722e-06 -0 1.92722e-06)
(1.92721e-06 -7.17305e-20 -0 1.92721e-06 -0 1.92721e-06)
(1.92719e-06 -7.80048e-20 -0 1.92719e-06 -0 1.92719e-06)
(1.92718e-06 -3.79902e-20 -0 1.92718e-06 -0 1.92718e-06)
(1.92717e-06 -8.8026e-20 -0 1.92717e-06 -0 1.92717e-06)
(1.92717e-06 -8.75587e-20 -0 1.92717e-06 -0 1.92717e-06)
(1.92715e-06 -4.48518e-20 -0 1.92715e-06 -0 1.92715e-06)
(1.92715e-06 -2.92661e-20 -0 1.92715e-06 -0 1.92715e-06)
(1.92714e-06 -5.43617e-21 -0 1.92714e-06 -0 1.92714e-06)
(1.92714e-06 -6.72121e-21 -0 1.92714e-06 -0 1.92714e-06)
(1.92714e-06 2.29228e-20 -0 1.92714e-06 -0 1.92714e-06)
(1.92714e-06 2.57651e-20 -0 1.92714e-06 -0 1.92714e-06)
(1.95535e-06 1.15366e-17 -0 1.95535e-06 -0 1.95535e-06)
(1.95535e-06 -1.18819e-17 -0 1.95535e-06 -0 1.95535e-06)
(1.95531e-06 2.48286e-18 -0 1.95531e-06 -0 1.95531e-06)
(1.95529e-06 -5.38428e-19 -0 1.95529e-06 -0 1.95529e-06)
(1.95526e-06 1.25628e-19 -0 1.95526e-06 -0 1.95526e-06)
(1.95524e-06 -5.76488e-20 -0 1.95524e-06 -0 1.95524e-06)
(1.95522e-06 -2.68517e-20 -0 1.95522e-06 -0 1.95522e-06)
(1.9552e-06 -2.20833e-21 -0 1.9552e-06 -0 1.9552e-06)
(1.95518e-06 -3.76411e-20 -0 1.95518e-06 -0 1.95518e-06)
(1.95517e-06 -3.64986e-20 -0 1.95517e-06 -0 1.95517e-06)
(1.95515e-06 -2.42244e-20 -0 1.95515e-06 -0 1.95515e-06)
(1.95514e-06 -8.52047e-21 -0 1.95514e-06 -0 1.95514e-06)
(1.95513e-06 -6.14815e-22 -0 1.95513e-06 -0 1.95513e-06)
(1.95512e-06 1.56926e-20 -0 1.95512e-06 -0 1.95512e-06)
(1.95511e-06 5.33843e-20 -0 1.95511e-06 -0 1.95511e-06)
(1.95511e-06 -1.91238e-20 -0 1.95511e-06 -0 1.95511e-06)
(1.9551e-06 3.5026e-20 -0 1.9551e-06 -0 1.9551e-06)
(1.9551e-06 2.52102e-20 -0 1.9551e-06 -0 1.9551e-06)
(1.9551e-06 9.05241e-21 -0 1.9551e-06 -0 1.9551e-06)
(1.9551e-06 1.4042e-20 -0 1.9551e-06 -0 1.9551e-06)
(1.97483e-06 -1.45132e-17 -0 1.97483e-06 -0 1.97483e-06)
(1.97483e-06 1.45884e-17 -0 1.97483e-06 -0 1.97483e-06)
(1.97479e-06 -2.8977e-18 -0 1.97479e-06 -0 1.97479e-06)
(1.97477e-06 7.79426e-19 -0 1.97477e-06 -0 1.97477e-06)
(1.97474e-06 -1.07654e-19 -0 1.97474e-06 -0 1.97474e-06)
(1.97472e-06 4.91237e-20 -0 1.97472e-06 -0 1.97472e-06)
(1.9747e-06 4.36455e-20 -0 1.9747e-06 -0 1.9747e-06)
(1.97468e-06 1.0403e-19 -0 1.97468e-06 -0 1.97468e-06)
(1.97466e-06 3.69945e-20 -0 1.97466e-06 -0 1.97466e-06)
(1.97465e-06 2.5469e-20 -0 1.97465e-06 -0 1.97465e-06)
(1.97463e-06 2.7968e-20 -0 1.97463e-06 -0 1.97463e-06)
(1.97462e-06 1.52778e-20 -0 1.97462e-06 -0 1.97462e-06)
(1.97461e-06 4.84566e-20 -0 1.97461e-06 -0 1.97461e-06)
(1.9746e-06 5.07191e-20 -0 1.9746e-06 -0 1.9746e-06)
(1.97459e-06 4.36927e-20 -0 1.97459e-06 -0 1.97459e-06)
(1.97458e-06 9.88973e-20 -0 1.97458e-06 -0 1.97458e-06)
(1.97458e-06 7.72112e-20 -0 1.97458e-06 -0 1.97458e-06)
(1.97457e-06 -3.76857e-22 -0 1.97457e-06 -0 1.97457e-06)
(1.97457e-06 4.1343e-21 -0 1.97457e-06 -0 1.97457e-06)
(1.97457e-06 3.85964e-20 -0 1.97457e-06 -0 1.97457e-06)
(1.9877e-06 4.72109e-18 -0 1.9877e-06 -0 1.9877e-06)
(1.9877e-06 -3.77082e-18 -0 1.9877e-06 -0 1.9877e-06)
(1.98765e-06 8.60208e-19 -0 1.98765e-06 -0 1.98765e-06)
(1.98763e-06 -1.61327e-19 -0 1.98763e-06 -0 1.98763e-06)
(1.98761e-06 1.08103e-19 -0 1.98761e-06 -0 1.98761e-06)
(1.98758e-06 9.27053e-20 -0 1.98758e-06 -0 1.98758e-06)
(1.98756e-06 5.97832e-20 -0 1.98756e-06 -0 1.98756e-06)
(1.98754e-06 2.57424e-20 -0 1.98754e-06 -0 1.98754e-06)
(1.98753e-06 6.58526e-20 -0 1.98753e-06 -0 1.98753e-06)
(1.98751e-06 1.02485e-19 -0 1.98751e-06 -0 1.98751e-06)
(1.9875e-06 8.25553e-20 -0 1.9875e-06 -0 1.9875e-06)
(1.98748e-06 1.04549e-19 -0 1.98748e-06 -0 1.98748e-06)
(1.98747e-06 7.5098e-20 -0 1.98747e-06 -0 1.98747e-06)
(1.98746e-06 6.68719e-20 -0 1.98746e-06 -0 1.98746e-06)
(1.98745e-06 1.28827e-21 -0 1.98745e-06 -0 1.98745e-06)
(1.98745e-06 -2.89964e-20 -0 1.98745e-06 -0 1.98745e-06)
(1.98744e-06 -5.67738e-20 -0 1.98744e-06 -0 1.98744e-06)
(1.98744e-06 -2.42281e-21 -0 1.98744e-06 -0 1.98744e-06)
(1.98744e-06 -1.41743e-20 -0 1.98744e-06 -0 1.98744e-06)
(1.98744e-06 -2.64558e-20 -0 1.98744e-06 -0 1.98744e-06)
(1.99615e-06 8.88214e-18 -0 1.99615e-06 -0 1.99615e-06)
(1.99615e-06 -1.0322e-17 -0 1.99615e-06 -0 1.99615e-06)
(1.9961e-06 1.94224e-18 -0 1.9961e-06 -0 1.9961e-06)
(1.99608e-06 -6.15257e-19 -0 1.99608e-06 -0 1.99608e-06)
(1.99606e-06 4.97351e-20 -0 1.99606e-06 -0 1.99606e-06)
(1.99603e-06 -8.9666e-20 -0 1.99603e-06 -0 1.99603e-06)
(1.99601e-06 -7.55786e-20 -0 1.99601e-06 -0 1.99601e-06)
(1.99599e-06 -8.29233e-20 -0 1.99599e-06 -0 1.99599e-06)
(1.99598e-06 -5.88422e-20 -0 1.99598e-06 -0 1.99598e-06)
(1.99596e-06 -8.77064e-20 -0 1.99596e-06 -0 1.99596e-06)
(1.99594e-06 -1.07e-19 -0 1.99594e-06 -0 1.99594e-06)
(1.99593e-06 -8.42669e-20 -0 1.99593e-06 -0 1.99593e-06)
(1.99592e-06 -8.71951e-20 -0 1.99592e-06 -0 1.99592e-06)
(1.99591e-06 -7.48941e-20 -0 1.99591e-06 -0 1.99591e-06)
(1.9959e-06 -5.57184e-20 -0 1.9959e-06 -0 1.9959e-06)
(1.9959e-06 -3.64448e-20 -0 1.9959e-06 -0 1.9959e-06)
(1.99589e-06 -6.26255e-20 -0 1.99589e-06 -0 1.99589e-06)
(1.99589e-06 -2.45664e-20 -0 1.99589e-06 -0 1.99589e-06)
(1.99588e-06 -4.0536e-20 -0 1.99588e-06 -0 1.99588e-06)
(1.99588e-06 3.838e-20 -0 1.99588e-06 -0 1.99588e-06)
(2.00199e-06 -1.51988e-17 -0 2.00199e-06 -0 2.00199e-06)
(2.00199e-06 1.68139e-17 -0 2.00199e-06 -0 2.00199e-06)
(2.00194e-06 -3.52847e-18 -0 2.00194e-06 -0 2.00194e-06)
(2.00192e-06 8.3638e-19 -0 2.00192e-06 -0 2.00192e-06)
(2.00189e-06 -2.49577e-19 -0 2.00189e-06 -0 2.00189e-06)
(2.00188e-06 3.30359e-21 -0 2.00188e-06 -0 2.00188e-06)
(2.00185e-06 -1.54256e-20 -0 2.00185e-06 -0 2.00185e-06)
(2.00184e-06 -2.77369e-20 -0 2.00184e-06 -0 2.00184e-06)
(2.00181e-06 -2.84201e-20 -0 2.00181e-06 -0 2.00181e-06)
(2.0018e-06 1.18491e-20 -0 2.0018e-06 -0 2.0018e-06)
(2.00178e-06 1.51678e-20 -0 2.00178e-06 -0 2.00178e-06)
(2.00177e-06 -2.42062e-20 -0 2.00177e-06 -0 2.00177e-06)
(2.00175e-06 -9.48816e-21 -0 2.00175e-06 -0 2.00175e-06)
(2.00175e-06 -2.99301e-20 -0 2.00175e-06 -0 2.00175e-06)
(2.00174e-06 7.9472e-21 -0 2.00174e-06 -0 2.00174e-06)
(2.00173e-06 1.83462e-20 -0 2.00173e-06 -0 2.00173e-06)
(2.00173e-06 3.28938e-20 -0 2.00173e-06 -0 2.00173e-06)
(2.00172e-06 2.87501e-20 -0 2.00172e-06 -0 2.00172e-06)
(2.00172e-06 2.297e-20 -0 2.00172e-06 -0 2.00172e-06)
(2.00172e-06 2.12715e-20 -0 2.00172e-06 -0 2.00172e-06)
(2.00647e-06 1.14676e-17 -0 2.00647e-06 -0 2.00647e-06)
(2.00647e-06 -1.37542e-17 -0 2.00647e-06 -0 2.00647e-06)
(2.00642e-06 2.8563e-18 -0 2.00642e-06 -0 2.00642e-06)
(2.0064e-06 -6.73517e-19 -0 2.0064e-06 -0 2.0064e-06)
(2.00637e-06 1.53763e-19 -0 2.00637e-06 -0 2.00637e-06)
(2.00635e-06 -1.84001e-20 -0 2.00635e-06 -0 2.00635e-06)
(2.00633e-06 -9.05542e-21 -0 2.00633e-06 -0 2.00633e-06)
(2.00631e-06 -3.24015e-21 -0 2.00631e-06 -0 2.00631e-06)
(2.00629e-06 2.81785e-22 -0 2.00629e-06 -0 2.00629e-06)
(2.00628e-06 -2.4042e-20 -0 2.00628e-06 -0 2.00628e-06)
(2.00626e-06 2.21501e-20 -0 2.00626e-06 -0 2.00626e-06)
(2.00625e-06 -1.24544e-20 -0 2.00625e-06 -0 2.00625e-06)
(2.00623e-06 -2.49772e-20 -0 2.00623e-06 -0 2.00623e-06)
(2.00623e-06 1.80785e-20 -0 2.00623e-06 -0 2.00623e-06)
(2.00622e-06 2.92034e-20 -0 2.00622e-06 -0 2.00622e-06)
(2.00621e-06 1.36591e-20 -0 2.00621e-06 -0 2.00621e-06)
(2.00621e-06 -5.48352e-21 -0 2.00621e-06 -0 2.00621e-06)
(2.0062e-06 5.87424e-22 -0 2.0062e-06 -0 2.0062e-06)
(2.0062e-06 9.97413e-22 -0 2.0062e-06 -0 2.0062e-06)
(2.0062e-06 -5.42169e-20 -0 2.0062e-06 -0 2.0062e-06)
(2.01038e-06 -4.96353e-18 -0 2.01038e-06 -0 2.01038e-06)
(2.01038e-06 6.76771e-18 -0 2.01038e-06 -0 2.01038e-06)
(2.01033e-06 -1.45964e-18 -0 2.01033e-06 -0 2.01033e-06)
(2.01032e-06 3.51458e-19 -0 2.01032e-06 -0 2.01032e-06)
(2.01028e-06 -6.40564e-20 -0 2.01028e-06 -0 2.01028e-06)
(2.01027e-06 6.61347e-20 -0 2.01027e-06 -0 2.01027e-06)
(2.01024e-06 8.95881e-21 -0 2.01024e-06 -0 2.01024e-06)
(2.01022e-06 2.36114e-20 -0 2.01022e-06 -0 2.01022e-06)
(2.0102e-06 -3.81073e-21 -0 2.0102e-06 -0 2.0102e-06)
(2.01019e-06 9.71046e-21 -0 2.01019e-06 -0 2.01019e-06)
(2.01017e-06 -2.53223e-20 -0 2.01017e-06 -0 2.01017e-06)
(2.01016e-06 1.32783e-20 -0 2.01016e-06 -0 2.01016e-06)
(2.01014e-06 -5.20081e-21 -0 2.01014e-06 -0 2.01014e-06)
(2.01014e-06 -8.76785e-22 -0 2.01014e-06 -0 2.01014e-06)
(2.01013e-06 4.122e-20 -0 2.01013e-06 -0 2.01013e-06)
(2.01012e-06 4.78169e-20 -0 2.01012e-06 -0 2.01012e-06)
(2.01011e-06 1.56788e-20 -0 2.01011e-06 -0 2.01011e-06)
(2.01011e-06 -4.04758e-20 -0 2.01011e-06 -0 2.01011e-06)
(2.01011e-06 4.52043e-20 -0 2.01011e-06 -0 2.01011e-06)
(2.01011e-06 5.04758e-20 -0 2.01011e-06 -0 2.01011e-06)
(2.01418e-06 -3.13566e-18 -0 2.01418e-06 -0 2.01418e-06)
(2.01418e-06 2.95102e-18 -0 2.01418e-06 -0 2.01418e-06)
(2.01414e-06 -6.20124e-19 -0 2.01414e-06 -0 2.01414e-06)
(2.01412e-06 1.59119e-19 -0 2.01412e-06 -0 2.01412e-06)
(2.01409e-06 -5.92102e-20 -0 2.01409e-06 -0 2.01409e-06)
(2.01407e-06 -7.33103e-21 -0 2.01407e-06 -0 2.01407e-06)
(2.01404e-06 -1.76078e-21 -0 2.01404e-06 -0 2.01404e-06)
(2.01403e-06 -2.02034e-20 -0 2.01403e-06 -0 2.01403e-06)
(2.01401e-06 2.22327e-21 -0 2.01401e-06 -0 2.01401e-06)
(2.01399e-06 5.21695e-23 -0 2.01399e-06 -0 2.01399e-06)
(2.01398e-06 2.17656e-21 -0 2.01398e-06 -0 2.01398e-06)
(2.01396e-06 -1.36587e-21 -0 2.01396e-06 -0 2.01396e-06)
(2.01395e-06 2.07522e-20 -0 2.01395e-06 -0 2.01395e-06)
(2.01394e-06 -1.02262e-20 -0 2.01394e-06 -0 2.01394e-06)
(2.01393e-06 -6.05663e-20 -0 2.01393e-06 -0 2.01393e-06)
(2.01393e-06 1.21975e-20 -0 2.01393e-06 -0 2.01393e-06)
(2.01392e-06 -1.37556e-20 -0 2.01392e-06 -0 2.01392e-06)
(2.01392e-06 -1.91879e-21 -0 2.01392e-06 -0 2.01392e-06)
(2.01391e-06 -8.24685e-21 -0 2.01391e-06 -0 2.01391e-06)
(2.01391e-06 3.84276e-22 -0 2.01391e-06 -0 2.01391e-06)
(2.01814e-06 1.05411e-17 -0 2.01814e-06 -0 2.01814e-06)
(2.01814e-06 -1.13084e-17 -0 2.01814e-06 -0 2.01814e-06)
(2.01808e-06 2.43736e-18 -0 2.01808e-06 -0 2.01808e-06)
(2.01807e-06 -5.59493e-19 -0 2.01807e-06 -0 2.01807e-06)
(2.01804e-06 1.58347e-19 -0 2.01804e-06 -0 2.01804e-06)
(2.01802e-06 -3.32477e-20 -0 2.01802e-06 -0 2.01802e-06)
(2.01799e-06 3.05449e-20 -0 2.01799e-06 -0 2.01799e-06)
(2.01798e-06 1.48876e-20 -0 2.01798e-06 -0 2.01798e-06)
(2.01795e-06 3.95829e-20 -0 2.01795e-06 -0 2.01795e-06)
(2.01795e-06 2.43512e-20 -0 2.01795e-06 -0 2.01795e-06)
(2.01792e-06 3.67471e-20 -0 2.01792e-06 -0 2.01792e-06)
(2.01792e-06 5.82168e-20 -0 2.01792e-06 -0 2.01792e-06)
(2.0179e-06 4.8548e-20 -0 2.0179e-06 -0 2.0179e-06)
(2.0179e-06 7.14913e-20 -0 2.0179e-06 -0 2.0179e-06)
(2.01788e-06 5.47602e-20 -0 2.01788e-06 -0 2.01788e-06)
(2.01788e-06 -2.27694e-20 -0 2.01788e-06 -0 2.01788e-06)
(2.01787e-06 -1.51732e-20 -0 2.01787e-06 -0 2.01787e-06)
(2.01787e-06 5.27454e-20 -0 2.01787e-06 -0 2.01787e-06)
(2.01787e-06 -4.86224e-20 -0 2.01787e-06 -0 2.01787e-06)
(2.01787e-06 -4.12367e-20 -0 2.01787e-06 -0 2.01787e-06)
(2.02233e-06 -1.25889e-17 -0 2.02233e-06 -0 2.02233e-06)
(2.02233e-06 1.40564e-17 -0 2.02233e-06 -0 2.02233e-06)
(2.02228e-06 -2.79048e-18 -0 2.02228e-06 -0 2.02228e-06)
(2.02227e-06 7.55656e-19 -0 2.02227e-06 -0 2.02227e-06)
(2.02224e-06 -1.06314e-19 -0 2.02224e-06 -0 2.02224e-06)
(2.02222e-06 9.53287e-20 -0 2.02222e-06 -0 2.02222e-06)
(2.02219e-06 8.67627e-20 -0 2.02219e-06 -0 2.02219e-06)
(2.02217e-06 1.09757e-19 -0 2.02217e-06 -0 2.02217e-06)
(2.02215e-06 7.39929e-20 -0 2.02215e-06 -0 2.02215e-06)
(2.02214e-06 7.05814e-20 -0 2.02214e-06 -0 2.02214e-06)
(2.02212e-06 9.0504e-20 -0 2.02212e-06 -0 2.02212e-06)
(2.02211e-06 4.71407e-20 -0 2.02211e-06 -0 2.02211e-06)
(2.0221e-06 3.01224e-20 -0 2.0221e-06 -0 2.0221e-06)
(2.02209e-06 1.33725e-20 -0 2.02209e-06 -0 2.02209e-06)
(2.02208e-06 2.16299e-20 -0 2.02208e-06 -0 2.02208e-06)
(2.02207e-06 -3.91664e-21 -0 2.02207e-06 -0 2.02207e-06)
(2.02207e-06 4.94451e-20 -0 2.02207e-06 -0 2.02207e-06)
(2.02206e-06 1.8666e-20 -0 2.02206e-06 -0 2.02206e-06)
(2.02206e-06 -1.18188e-20 -0 2.02206e-06 -0 2.02206e-06)
(2.02206e-06 7.78429e-21 -0 2.02206e-06 -0 2.02206e-06)
(2.02672e-06 6.34785e-18 -0 2.02672e-06 -0 2.02672e-06)
(2.02672e-06 -7.41933e-18 -0 2.02672e-06 -0 2.02672e-06)
(2.02667e-06 1.34463e-18 -0 2.02667e-06 -0 2.02667e-06)
(2.02665e-06 -3.87681e-19 -0 2.02665e-06 -0 2.02665e-06)
(2.02662e-06 6.74995e-21 -0 2.02662e-06 -0 2.02662e-06)
(2.0266e-06 -4.0845e-20 -0 2.0266e-06 -0 2.0266e-06)
(2.02658e-06 -2.15752e-20 -0 2.02658e-06 -0 2.02658e-06)
(2.02656e-06 -1.26294e-20 -0 2.02656e-06 -0 2.02656e-06)
(2.02654e-06 -7.52937e-20 -0 2.02654e-06 -0 2.02654e-06)
(2.02652e-06 -6.42644e-20 -0 2.02652e-06 -0 2.02652e-06)
(2.02651e-06 -6.57263e-20 -0 2.02651e-06 -0 2.02651e-06)
(2.0265e-06 -9.05004e-20 -0 2.0265e-06 -0 2.0265e-06)
(2.02648e-06 -6.44629e-20 -0 2.02648e-06 -0 2.02648e-06)
(2.02647e-06 -6.89034e-20 -0 2.02647e-06 -0 2.02647e-06)
(2.02647e-06 -8.04344e-20 -0 2.02647e-06 -0 2.02647e-06)
(2.02646e-06 -2.07825e-20 -0 2.02646e-06 -0 2.02646e-06)
(2.02645e-06 -3.84618e-20 -0 2.02645e-06 -0 2.02645e-06)
(2.02645e-06 -7.51837e-20 -0 2.02645e-06 -0 2.02645e-06)
(2.02645e-06 2.90143e-20 -0 2.02645e-06 -0 2.02645e-06)
(2.02645e-06 -4.19109e-20 -0 2.02645e-06 -0 2.02645e-06)
(2.03108e-06 5.75552e-18 -0 2.03108e-06 -0 2.03108e-06)
(2.03108e-06 -4.72817e-18 -0 2.03108e-06 -0 2.03108e-06)
(2.03103e-06 8.58092e-19 -0 2.03103e-06 -0 2.03103e-06)
(2.03101e-06 -3.39294e-19 -0 2.03101e-06 -0 2.03101e-06)
(2.03098e-06 -1.51718e-20 -0 2.03098e-06 -0 2.03098e-06)
(2.03096e-06 -8.72584e-20 -0 2.03096e-06 -0 2.03096e-06)
(2.03094e-06 -1.06364e-19 -0 2.03094e-06 -0 2.03094e-06)
(2.03092e-06 -1.09602e-19 -0 2.03092e-06 -0 2.03092e-06)
(2.0309e-06 -4.76346e-20 -0 2.0309e-06 -0 2.0309e-06)
(2.03088e-06 -4.70128e-20 -0 2.03088e-06 -0 2.03088e-06)
(2.03087e-06 -5.37264e-20 -0 2.03087e-06 -0 2.03087e-06)
(2.03085e-06 -5.52467e-20 -0 2.03085e-06 -0 2.03085e-06)
(2.03084e-06 -2.33628e-20 -0 2.03084e-06 -0 2.03084e-06)
(2.03083e-06 -1.59068e-20 -0 2.03083e-06 -0 2.03083e-06)
(2.03082e-06 -1.68577e-20 -0 2.03082e-06 -0 2.03082e-06)
(2.03082e-06 -4.56901e-21 -0 2.03082e-06 -0 2.03082e-06)
(2.03081e-06 5.19484e-21 -0 2.03081e-06 -0 2.03081e-06)
(2.03081e-06 -1.75956e-20 -0 2.03081e-06 -0 2.03081e-06)
(2.03081e-06 5.18517e-21 -0 2.03081e-06 -0 2.03081e-06)
(2.0308e-06 2.48587e-21 -0 2.0308e-06 -0 2.0308e-06)
(2.03503e-06 -1.45069e-17 -0 2.03503e-06 -0 2.03503e-06)
(2.03503e-06 1.2931e-17 -0 2.03503e-06 -0 2.03503e-06)
(2.03498e-06 -2.54203e-18 -0 2.03498e-06 -0 2.03498e-06)
(2.03496e-06 6.6216e-19 -0 2.03496e-06 -0 2.03496e-06)
(2.03493e-06 -7.06472e-20 -0 2.03493e-06 -0 2.03493e-06)
(2.03491e-06 5.06754e-20 -0 2.03491e-06 -0 2.03491e-06)
(2.03488e-06 5.97051e-21 -0 2.03488e-06 -0 2.03488e-06)
(2.03487e-06 2.31355e-20 -0 2.03487e-06 -0 2.03487e-06)
(2.03484e-06 1.04822e-19 -0 2.03484e-06 -0 2.03484e-06)
(2.03484e-06 5.07434e-20 -0 2.03484e-06 -0 2.03484e-06)
(2.03481e-06 9.14616e-20 -0 2.03481e-06 -0 2.03481e-06)
(2.03481e-06 4.1707e-20 -0 2.03481e-06 -0 2.03481e-06)
(2.03478e-06 8.99092e-20 -0 2.03478e-06 -0 2.03478e-06)
(2.03478e-06 4.96184e-20 -0 2.03478e-06 -0 2.03478e-06)
(2.03477e-06 1.58379e-20 -0 2.03477e-06 -0 2.03477e-06)
(2.03477e-06 3.82841e-20 -0 2.03477e-06 -0 2.03477e-06)
(2.03476e-06 2.46012e-20 -0 2.03476e-06 -0 2.03476e-06)
(2.03476e-06 7.4377e-20 -0 2.03476e-06 -0 2.03476e-06)
(2.03475e-06 7.15718e-21 -0 2.03475e-06 -0 2.03475e-06)
(2.03475e-06 3.39657e-20 -0 2.03475e-06 -0 2.03475e-06)
(2.03806e-06 4.16685e-18 -0 2.03806e-06 -0 2.03806e-06)
(2.03806e-06 -4.10528e-18 -0 2.03806e-06 -0 2.03806e-06)
(2.03802e-06 7.22556e-19 -0 2.03802e-06 -0 2.03802e-06)
(2.038e-06 -2.33312e-19 -0 2.038e-06 -0 2.038e-06)
(2.03797e-06 -1.19324e-20 -0 2.03797e-06 -0 2.03797e-06)
(2.03795e-06 -4.20415e-20 -0 2.03795e-06 -0 2.03795e-06)
(2.03792e-06 -1.43373e-20 -0 2.03792e-06 -0 2.03792e-06)
(2.03791e-06 -3.50545e-20 -0 2.03791e-06 -0 2.03791e-06)
(2.03789e-06 -8.3576e-20 -0 2.03789e-06 -0 2.03789e-06)
(2.03787e-06 -4.5835e-20 -0 2.03787e-06 -0 2.03787e-06)
(2.03786e-06 -8.58858e-20 -0 2.03786e-06 -0 2.03786e-06)
(2.03784e-06 -3.7182e-20 -0 2.03784e-06 -0 2.03784e-06)
(2.03783e-06 -9.65213e-20 -0 2.03783e-06 -0 2.03783e-06)
(2.03782e-06 -6.46528e-21 -0 2.03782e-06 -0 2.03782e-06)
(2.03781e-06 -2.50778e-20 -0 2.03781e-06 -0 2.03781e-06)
(2.03781e-06 -9.1956e-20 -0 2.03781e-06 -0 2.03781e-06)
(2.0378e-06 -5.50712e-20 -0 2.0378e-06 -0 2.0378e-06)
(2.0378e-06 -5.03585e-20 -0 2.0378e-06 -0 2.0378e-06)
(2.0378e-06 -3.55586e-20 -0 2.0378e-06 -0 2.0378e-06)
(2.03779e-06 -3.40916e-20 -0 2.03779e-06 -0 2.03779e-06)
(2.03946e-06 9.1083e-18 -0 2.03946e-06 -0 2.03946e-06)
(2.03946e-06 -9.32819e-18 -0 2.03946e-06 -0 2.03946e-06)
(2.03946e-06 2.00657e-18 -0 2.03946e-06 -0 2.03946e-06)
(2.03946e-06 -4.42609e-19 -0 2.03946e-06 -0 2.03946e-06)
(2.03946e-06 1.52817e-19 -0 2.03946e-06 -0 2.03946e-06)
(2.03946e-06 4.51801e-20 -0 2.03946e-06 -0 2.03946e-06)
(2.03946e-06 7.11529e-20 -0 2.03946e-06 -0 2.03946e-06)
(2.03946e-06 2.4212e-20 -0 2.03946e-06 -0 2.03946e-06)
(2.03946e-06 1.22202e-20 -0 2.03946e-06 -0 2.03946e-06)
(2.03946e-06 4.85358e-20 -0 2.03946e-06 -0 2.03946e-06)
(2.03946e-06 2.92813e-20 -0 2.03946e-06 -0 2.03946e-06)
(2.03946e-06 5.60136e-20 -0 2.03946e-06 -0 2.03946e-06)
(2.03946e-06 6.40419e-20 -0 2.03946e-06 -0 2.03946e-06)
(2.03946e-06 3.35073e-20 -0 2.03946e-06 -0 2.03946e-06)
(2.03946e-06 4.49469e-20 -0 2.03946e-06 -0 2.03946e-06)
(2.03946e-06 2.19796e-20 -0 2.03946e-06 -0 2.03946e-06)
(2.03946e-06 4.35489e-21 -0 2.03946e-06 -0 2.03946e-06)
(2.03946e-06 1.35735e-21 -0 2.03946e-06 -0 2.03946e-06)
(2.03946e-06 2.13668e-20 -0 2.03946e-06 -0 2.03946e-06)
(2.03946e-06 1.69371e-20 -0 2.03946e-06 -0 2.03946e-06)
)
;

boundaryField
{
    movingWall
    {
        type            kqRWallFunction;
        value           nonuniform List<symmTensor> 
20
(
(2.03946e-06 0 -0 2.03946e-06 -0 2.03946e-06)
(2.03946e-06 -0 -0 2.03946e-06 -0 2.03946e-06)
(2.03946e-06 0 -0 2.03946e-06 -0 2.03946e-06)
(2.03946e-06 -0 -0 2.03946e-06 -0 2.03946e-06)
(2.03946e-06 0 -0 2.03946e-06 -0 2.03946e-06)
(2.03946e-06 0 -0 2.03946e-06 -0 2.03946e-06)
(2.03946e-06 0 -0 2.03946e-06 -0 2.03946e-06)
(2.03946e-06 0 -0 2.03946e-06 -0 2.03946e-06)
(2.03946e-06 0 -0 2.03946e-06 -0 2.03946e-06)
(2.03946e-06 0 -0 2.03946e-06 -0 2.03946e-06)
(2.03946e-06 0 -0 2.03946e-06 -0 2.03946e-06)
(2.03946e-06 0 -0 2.03946e-06 -0 2.03946e-06)
(2.03946e-06 0 -0 2.03946e-06 -0 2.03946e-06)
(2.03946e-06 0 -0 2.03946e-06 -0 2.03946e-06)
(2.03946e-06 0 -0 2.03946e-06 -0 2.03946e-06)
(2.03946e-06 0 -0 2.03946e-06 -0 2.03946e-06)
(2.03946e-06 0 -0 2.03946e-06 -0 2.03946e-06)
(2.03946e-06 0 -0 2.03946e-06 -0 2.03946e-06)
(2.03946e-06 0 -0 2.03946e-06 -0 2.03946e-06)
(2.03946e-06 0 -0 2.03946e-06 -0 2.03946e-06)
)
;
    }
    fixedWalls
    {
        type            kqRWallFunction;
        value           nonuniform List<symmTensor> 
60
(
(1.78859e-06 -0 -0 1.78859e-06 -0 1.78859e-06)
(1.81179e-06 -0 -0 1.81179e-06 -0 1.81179e-06)
(1.84954e-06 0 -0 1.84954e-06 -0 1.84954e-06)
(1.89088e-06 -0 -0 1.89088e-06 -0 1.89088e-06)
(1.92739e-06 -0 -0 1.92739e-06 -0 1.92739e-06)
(1.95535e-06 0 -0 1.95535e-06 -0 1.95535e-06)
(1.97483e-06 -0 -0 1.97483e-06 -0 1.97483e-06)
(1.9877e-06 0 -0 1.9877e-06 -0 1.9877e-06)
(1.99615e-06 0 -0 1.99615e-06 -0 1.99615e-06)
(2.00199e-06 -0 -0 2.00199e-06 -0 2.00199e-06)
(2.00647e-06 0 -0 2.00647e-06 -0 2.00647e-06)
(2.01038e-06 -0 -0 2.01038e-06 -0 2.01038e-06)
(2.01418e-06 -0 -0 2.01418e-06 -0 2.01418e-06)
(2.01814e-06 0 -0 2.01814e-06 -0 2.01814e-06)
(2.02233e-06 -0 -0 2.02233e-06 -0 2.02233e-06)
(2.02672e-06 0 -0 2.02672e-06 -0 2.02672e-06)
(2.03108e-06 0 -0 2.03108e-06 -0 2.03108e-06)
(2.03503e-06 -0 -0 2.03503e-06 -0 2.03503e-06)
(2.03806e-06 0 -0 2.03806e-06 -0 2.03806e-06)
(2.03946e-06 0 -0 2.03946e-06 -0 2.03946e-06)
(1.78859e-06 0 -0 1.78859e-06 -0 1.78859e-06)
(1.81158e-06 -0 -0 1.81158e-06 -0 1.81158e-06)
(1.84931e-06 -0 -0 1.84931e-06 -0 1.84931e-06)
(1.89065e-06 -0 -0 1.89065e-06 -0 1.89065e-06)
(1.92714e-06 0 -0 1.92714e-06 -0 1.92714e-06)
(1.9551e-06 0 -0 1.9551e-06 -0 1.9551e-06)
(1.97457e-06 0 -0 1.97457e-06 -0 1.97457e-06)
(1.98744e-06 -0 -0 1.98744e-06 -0 1.98744e-06)
(1.99588e-06 0 -0 1.99588e-06 -0 1.99588e-06)
(2.00172e-06 0 -0 2.00172e-06 -0 2.00172e-06)
(2.0062e-06 -0 -0 2.0062e-06 -0 2.0062e-06)
(2.01011e-06 0 -0 2.01011e-06 -0 2.01011e-06)
(2.01391e-06 0 -0 2.01391e-06 -0 2.01391e-06)
(2.01787e-06 -0 -0 2.01787e-06 -0 2.01787e-06)
(2.02206e-06 -0 -0 2.02206e-06 -0 2.02206e-06)
(2.02645e-06 -0 -0 2.02645e-06 -0 2.02645e-06)
(2.0308e-06 -0 -0 2.0308e-06 -0 2.0308e-06)
(2.03475e-06 0 -0 2.03475e-06 -0 2.03475e-06)
(2.03779e-06 -0 -0 2.03779e-06 -0 2.03779e-06)
(2.03946e-06 0 -0 2.03946e-06 -0 2.03946e-06)
(1.78859e-06 -0 -0 1.78859e-06 -0 1.78859e-06)
(1.78859e-06 0 -0 1.78859e-06 -0 1.78859e-06)
(1.78859e-06 -0 -0 1.78859e-06 -0 1.78859e-06)
(1.78859e-06 0 -0 1.78859e-06 -0 1.78859e-06)
(1.78859e-06 -0 -0 1.78859e-06 -0 1.78859e-06)
(1.78859e-06 -0 -0 1.78859e-06 -0 1.78859e-06)
(1.78859e-06 -0 -0 1.78859e-06 -0 1.78859e-06)
(1.78859e-06 -0 -0 1.78859e-06 -0 1.78859e-06)
(1.78859e-06 -0 -0 1.78859e-06 -0 1.78859e-06)
(1.78859e-06 -0 -0 1.78859e-06 -0 1.78859e-06)
(1.78859e-06 -0 -0 1.78859e-06 -0 1.78859e-06)
(1.78859e-06 -0 -0 1.78859e-06 -0 1.78859e-06)
(1.78859e-06 -0 -0 1.78859e-06 -0 1.78859e-06)
(1.78859e-06 -0 -0 1.78859e-06 -0 1.78859e-06)
(1.78859e-06 0 -0 1.78859e-06 -0 1.78859e-06)
(1.78859e-06 0 -0 1.78859e-06 -0 1.78859e-06)
(1.78859e-06 0 -0 1.78859e-06 -0 1.78859e-06)
(1.78859e-06 -0 -0 1.78859e-06 -0 1.78859e-06)
(1.78859e-06 -0 -0 1.78859e-06 -0 1.78859e-06)
(1.78859e-06 0 -0 1.78859e-06 -0 1.78859e-06)
)
;
    }
    frontAndBack
    {
        type            empty;
    }
}


// ************************************************************************* //
