/*--------------------------------*- C++ -*----------------------------------*\
| =========                 |                                                 |
| \\      /  F ield         | OpenFOAM: The Open Source CFD Toolbox           |
|  \\    /   O peration     | Version:  2312                                  |
|   \\  /    A nd           | Website:  www.openfoam.com                      |
|    \\/     M anipulation  |                                                 |
\*---------------------------------------------------------------------------*/
FoamFile
{
    version     2.0;
    format      ascii;
    arch        "LSB;label=32;scalar=64";
    class       volScalarField;
    location    "9.5";
    object      turbulenceProperties:I;
}
// * * * * * * * * * * * * * * * * * * * * * * * * * * * * * * * * * * * * * //

dimensions      [0 0 0 0 0 0 0];

internalField   nonuniform List<scalar> 
400
(
0.00133738
0.00133738
0.00133738
0.00133738
0.00133738
0.00133738
0.00133738
0.00133738
0.00133738
0.00133738
0.00133738
0.00133738
0.00133738
0.00133738
0.00133738
0.00133738
0.00133738
0.00133738
0.00133738
0.00133738
0.00134603
0.00134603
0.00134601
0.00134601
0.001346
0.001346
0.00134599
0.00134598
0.00134598
0.00134597
0.00134597
0.00134596
0.00134596
0.00134596
0.00134595
0.00134595
0.00134595
0.00134595
0.00134595
0.00134595
0.00135998
0.00135998
0.00135996
0.00135996
0.00135995
0.00135994
0.00135993
0.00135993
0.00135992
0.00135992
0.00135991
0.00135991
0.0013599
0.0013599
0.0013599
0.0013599
0.00135989
0.00135989
0.00135989
0.00135989
0.00137509
0.00137509
0.00137508
0.00137507
0.00137506
0.00137506
0.00137505
0.00137504
0.00137504
0.00137503
0.00137503
0.00137502
0.00137502
0.00137502
0.00137501
0.00137501
0.00137501
0.00137501
0.00137501
0.00137501
0.0013883
0.0013883
0.00138829
0.00138828
0.00138827
0.00138827
0.00138826
0.00138825
0.00138824
0.00138824
0.00138823
0.00138823
0.00138823
0.00138822
0.00138822
0.00138822
0.00138822
0.00138822
0.00138821
0.00138821
0.00139834
0.00139834
0.00139832
0.00139832
0.00139831
0.0013983
0.00139829
0.00139828
0.00139828
0.00139827
0.00139827
0.00139826
0.00139826
0.00139826
0.00139825
0.00139825
0.00139825
0.00139825
0.00139825
0.00139825
0.00140529
0.00140529
0.00140527
0.00140526
0.00140525
0.00140525
0.00140524
0.00140523
0.00140523
0.00140522
0.00140521
0.00140521
0.00140521
0.0014052
0.0014052
0.0014052
0.0014052
0.0014052
0.00140519
0.00140519
0.00140986
0.00140986
0.00140984
0.00140983
0.00140982
0.00140982
0.00140981
0.0014098
0.0014098
0.00140979
0.00140979
0.00140978
0.00140978
0.00140977
0.00140977
0.00140977
0.00140977
0.00140977
0.00140976
0.00140976
0.00141285
0.00141285
0.00141283
0.00141283
0.00141282
0.00141281
0.0014128
0.0014128
0.00141279
0.00141278
0.00141278
0.00141277
0.00141277
0.00141277
0.00141276
0.00141276
0.00141276
0.00141276
0.00141276
0.00141276
0.00141492
0.00141492
0.0014149
0.00141489
0.00141488
0.00141488
0.00141487
0.00141486
0.00141485
0.00141485
0.00141484
0.00141484
0.00141483
0.00141483
0.00141483
0.00141483
0.00141482
0.00141482
0.00141482
0.00141482
0.0014165
0.0014165
0.00141648
0.00141648
0.00141646
0.00141646
0.00141645
0.00141644
0.00141644
0.00141643
0.00141643
0.00141642
0.00141642
0.00141641
0.00141641
0.00141641
0.00141641
0.00141641
0.0014164
0.0014164
0.00141788
0.00141788
0.00141786
0.00141786
0.00141784
0.00141784
0.00141783
0.00141782
0.00141782
0.00141781
0.0014178
0.0014178
0.0014178
0.00141779
0.00141779
0.00141779
0.00141779
0.00141778
0.00141778
0.00141778
0.00141922
0.00141922
0.0014192
0.0014192
0.00141919
0.00141918
0.00141917
0.00141916
0.00141916
0.00141915
0.00141915
0.00141914
0.00141914
0.00141913
0.00141913
0.00141913
0.00141913
0.00141913
0.00141912
0.00141912
0.00142061
0.00142061
0.00142059
0.00142059
0.00142058
0.00142057
0.00142056
0.00142056
0.00142055
0.00142054
0.00142054
0.00142053
0.00142053
0.00142053
0.00142052
0.00142052
0.00142052
0.00142052
0.00142052
0.00142052
0.00142209
0.00142209
0.00142207
0.00142206
0.00142205
0.00142205
0.00142204
0.00142203
0.00142202
0.00142202
0.00142201
0.00142201
0.001422
0.001422
0.001422
0.001422
0.00142199
0.00142199
0.00142199
0.00142199
0.00142363
0.00142363
0.00142361
0.0014236
0.0014236
0.00142359
0.00142358
0.00142357
0.00142357
0.00142356
0.00142356
0.00142355
0.00142355
0.00142354
0.00142354
0.00142354
0.00142354
0.00142353
0.00142353
0.00142353
0.00142516
0.00142516
0.00142514
0.00142514
0.00142513
0.00142512
0.00142511
0.0014251
0.0014251
0.00142509
0.00142509
0.00142508
0.00142508
0.00142507
0.00142507
0.00142507
0.00142507
0.00142506
0.00142506
0.00142506
0.00142654
0.00142654
0.00142653
0.00142652
0.00142651
0.0014265
0.00142649
0.00142649
0.00142648
0.00142648
0.00142647
0.00142647
0.00142646
0.00142646
0.00142645
0.00142645
0.00142645
0.00142645
0.00142645
0.00142645
0.00142761
0.00142761
0.00142759
0.00142758
0.00142757
0.00142757
0.00142756
0.00142755
0.00142755
0.00142754
0.00142753
0.00142753
0.00142753
0.00142752
0.00142752
0.00142752
0.00142752
0.00142751
0.00142751
0.00142751
0.0014281
0.0014281
0.0014281
0.0014281
0.0014281
0.0014281
0.0014281
0.0014281
0.0014281
0.0014281
0.0014281
0.0014281
0.0014281
0.0014281
0.0014281
0.0014281
0.0014281
0.0014281
0.0014281
0.0014281
)
;

boundaryField
{
    movingWall
    {
        type            calculated;
        value           nonuniform List<scalar> 
20
(
0.0014281
0.0014281
0.0014281
0.0014281
0.0014281
0.0014281
0.0014281
0.0014281
0.0014281
0.0014281
0.0014281
0.0014281
0.0014281
0.0014281
0.0014281
0.0014281
0.0014281
0.0014281
0.0014281
0.0014281
)
;
    }
    fixedWalls
    {
        type            calculated;
        value           nonuniform List<scalar> 
60
(
0.00133738
0.00134603
0.00135998
0.00137509
0.0013883
0.00139834
0.00140529
0.00140986
0.00141285
0.00141492
0.0014165
0.00141788
0.00141922
0.00142061
0.00142209
0.00142363
0.00142516
0.00142654
0.00142761
0.0014281
0.00133738
0.00134595
0.00135989
0.00137501
0.00138821
0.00139825
0.00140519
0.00140976
0.00141276
0.00141482
0.0014164
0.00141778
0.00141912
0.00142052
0.00142199
0.00142353
0.00142506
0.00142645
0.00142751
0.0014281
0.00133738
0.00133738
0.00133738
0.00133738
0.00133738
0.00133738
0.00133738
0.00133738
0.00133738
0.00133738
0.00133738
0.00133738
0.00133738
0.00133738
0.00133738
0.00133738
0.00133738
0.00133738
0.00133738
0.00133738
)
;
    }
    frontAndBack
    {
        type            empty;
    }
}


// ************************************************************************* //
