/*--------------------------------*- C++ -*----------------------------------*\
| =========                 |                                                 |
| \\      /  F ield         | OpenFOAM: The Open Source CFD Toolbox           |
|  \\    /   O peration     | Version:  2312                                  |
|   \\  /    A nd           | Website:  www.openfoam.com                      |
|    \\/     M anipulation  |                                                 |
\*---------------------------------------------------------------------------*/
FoamFile
{
    version     2.0;
    format      ascii;
    arch        "LSB;label=32;scalar=64";
    class       volScalarField;
    location    "9.5";
    object      turbulenceProperties:nuEff;
}
// * * * * * * * * * * * * * * * * * * * * * * * * * * * * * * * * * * * * * //

dimensions      [0 2 -1 0 0 0 0];

internalField   nonuniform List<scalar> 
400
(
1.09178e-05
1.09178e-05
1.09178e-05
1.09178e-05
1.09178e-05
1.09178e-05
1.09178e-05
1.09178e-05
1.09178e-05
1.09178e-05
1.09178e-05
1.09178e-05
1.09178e-05
1.09178e-05
1.09178e-05
1.09178e-05
1.09178e-05
1.09178e-05
1.09178e-05
1.09178e-05
1.09237e-05
1.09329e-05
1.0932e-05
1.09317e-05
1.0931e-05
1.09307e-05
1.093e-05
1.09296e-05
1.0929e-05
1.09286e-05
1.0928e-05
1.09276e-05
1.09269e-05
1.09266e-05
1.09259e-05
1.09255e-05
1.09249e-05
1.09245e-05
1.09242e-05
1.09237e-05
1.09332e-05
1.09427e-05
1.09419e-05
1.09415e-05
1.09408e-05
1.09404e-05
1.09397e-05
1.09394e-05
1.09387e-05
1.09383e-05
1.09376e-05
1.09372e-05
1.09365e-05
1.09362e-05
1.09355e-05
1.09351e-05
1.09344e-05
1.0934e-05
1.09337e-05
1.09332e-05
1.09436e-05
1.09533e-05
1.09524e-05
1.0952e-05
1.09513e-05
1.09509e-05
1.09502e-05
1.09498e-05
1.09491e-05
1.09487e-05
1.0948e-05
1.09476e-05
1.0947e-05
1.09466e-05
1.09459e-05
1.09455e-05
1.09448e-05
1.09444e-05
1.09441e-05
1.09435e-05
1.09526e-05
1.09625e-05
1.09616e-05
1.09612e-05
1.09605e-05
1.09601e-05
1.09594e-05
1.0959e-05
1.09583e-05
1.09579e-05
1.09572e-05
1.09568e-05
1.09561e-05
1.09557e-05
1.0955e-05
1.09546e-05
1.09539e-05
1.09534e-05
1.09531e-05
1.09526e-05
1.09595e-05
1.09695e-05
1.09686e-05
1.09682e-05
1.09675e-05
1.09671e-05
1.09664e-05
1.0966e-05
1.09652e-05
1.09648e-05
1.09641e-05
1.09637e-05
1.0963e-05
1.09626e-05
1.09619e-05
1.09615e-05
1.09608e-05
1.09603e-05
1.096e-05
1.09594e-05
1.09643e-05
1.09744e-05
1.09735e-05
1.09731e-05
1.09723e-05
1.09719e-05
1.09712e-05
1.09708e-05
1.09701e-05
1.09696e-05
1.09689e-05
1.09685e-05
1.09678e-05
1.09674e-05
1.09667e-05
1.09662e-05
1.09655e-05
1.09651e-05
1.09648e-05
1.09642e-05
1.09674e-05
1.09776e-05
1.09767e-05
1.09763e-05
1.09755e-05
1.09751e-05
1.09744e-05
1.0974e-05
1.09732e-05
1.09728e-05
1.09721e-05
1.09717e-05
1.09709e-05
1.09705e-05
1.09698e-05
1.09694e-05
1.09687e-05
1.09682e-05
1.09679e-05
1.09673e-05
1.09694e-05
1.09797e-05
1.09788e-05
1.09784e-05
1.09776e-05
1.09772e-05
1.09765e-05
1.09761e-05
1.09753e-05
1.09749e-05
1.09742e-05
1.09737e-05
1.0973e-05
1.09726e-05
1.09719e-05
1.09714e-05
1.09707e-05
1.09703e-05
1.09699e-05
1.09694e-05
1.09709e-05
1.09812e-05
1.09802e-05
1.09798e-05
1.0979e-05
1.09787e-05
1.09779e-05
1.09775e-05
1.09767e-05
1.09763e-05
1.09756e-05
1.09752e-05
1.09744e-05
1.0974e-05
1.09733e-05
1.09729e-05
1.09722e-05
1.09717e-05
1.09714e-05
1.09708e-05
1.09719e-05
1.09823e-05
1.09813e-05
1.09809e-05
1.09802e-05
1.09798e-05
1.0979e-05
1.09786e-05
1.09778e-05
1.09774e-05
1.09767e-05
1.09763e-05
1.09755e-05
1.09751e-05
1.09744e-05
1.0974e-05
1.09732e-05
1.09728e-05
1.09724e-05
1.09719e-05
1.09729e-05
1.09832e-05
1.09823e-05
1.09819e-05
1.09811e-05
1.09807e-05
1.09799e-05
1.09795e-05
1.09788e-05
1.09784e-05
1.09776e-05
1.09772e-05
1.09765e-05
1.09761e-05
1.09753e-05
1.09749e-05
1.09742e-05
1.09737e-05
1.09734e-05
1.09728e-05
1.09738e-05
1.09842e-05
1.09832e-05
1.09828e-05
1.0982e-05
1.09816e-05
1.09809e-05
1.09805e-05
1.09797e-05
1.09793e-05
1.09786e-05
1.09781e-05
1.09774e-05
1.0977e-05
1.09763e-05
1.09758e-05
1.09751e-05
1.09747e-05
1.09743e-05
1.09737e-05
1.09748e-05
1.09851e-05
1.09842e-05
1.09838e-05
1.0983e-05
1.09826e-05
1.09818e-05
1.09814e-05
1.09807e-05
1.09803e-05
1.09795e-05
1.09791e-05
1.09784e-05
1.09779e-05
1.09772e-05
1.09768e-05
1.09761e-05
1.09756e-05
1.09753e-05
1.09747e-05
1.09758e-05
1.09862e-05
1.09852e-05
1.09848e-05
1.0984e-05
1.09836e-05
1.09829e-05
1.09825e-05
1.09817e-05
1.09813e-05
1.09805e-05
1.09801e-05
1.09794e-05
1.0979e-05
1.09782e-05
1.09778e-05
1.09771e-05
1.09766e-05
1.09763e-05
1.09757e-05
1.09768e-05
1.09873e-05
1.09863e-05
1.09859e-05
1.09851e-05
1.09847e-05
1.0984e-05
1.09835e-05
1.09828e-05
1.09824e-05
1.09816e-05
1.09812e-05
1.09805e-05
1.098e-05
1.09793e-05
1.09789e-05
1.09781e-05
1.09777e-05
1.09773e-05
1.09768e-05
1.09779e-05
1.09883e-05
1.09874e-05
1.0987e-05
1.09862e-05
1.09858e-05
1.0985e-05
1.09846e-05
1.09838e-05
1.09834e-05
1.09827e-05
1.09822e-05
1.09815e-05
1.09811e-05
1.09803e-05
1.09799e-05
1.09792e-05
1.09787e-05
1.09784e-05
1.09778e-05
1.09788e-05
1.09893e-05
1.09883e-05
1.09879e-05
1.09871e-05
1.09867e-05
1.0986e-05
1.09856e-05
1.09848e-05
1.09844e-05
1.09836e-05
1.09832e-05
1.09825e-05
1.0982e-05
1.09813e-05
1.09809e-05
1.09801e-05
1.09797e-05
1.09793e-05
1.09788e-05
1.09795e-05
1.09898e-05
1.09889e-05
1.09885e-05
1.09878e-05
1.09874e-05
1.09866e-05
1.09862e-05
1.09855e-05
1.09851e-05
1.09843e-05
1.09839e-05
1.09832e-05
1.09827e-05
1.0982e-05
1.09816e-05
1.09809e-05
1.09804e-05
1.09801e-05
1.09795e-05
1.09799e-05
1.09799e-05
1.09799e-05
1.09799e-05
1.09799e-05
1.09799e-05
1.09799e-05
1.09799e-05
1.09799e-05
1.09799e-05
1.09799e-05
1.09799e-05
1.09799e-05
1.09799e-05
1.09799e-05
1.09799e-05
1.09799e-05
1.09799e-05
1.09799e-05
1.09799e-05
)
;

boundaryField
{
    movingWall
    {
        type            calculated;
        value           uniform 1e-05;
    }
    fixedWalls
    {
        type            calculated;
        value           uniform 1e-05;
    }
    frontAndBack
    {
        type            empty;
    }
}


// ************************************************************************* //
