/*--------------------------------*- C++ -*----------------------------------*\
| =========                 |                                                 |
| \\      /  F ield         | OpenFOAM: The Open Source CFD Toolbox           |
|  \\    /   O peration     | Version:  2312                                  |
|   \\  /    A nd           | Website:  www.openfoam.com                      |
|    \\/     M anipulation  |                                                 |
\*---------------------------------------------------------------------------*/
FoamFile
{
    version     2.0;
    format      ascii;
    arch        "LSB;label=32;scalar=64";
    class       volScalarField;
    location    "9.5";
    object      turbulenceProperties:omega;
}
// * * * * * * * * * * * * * * * * * * * * * * * * * * * * * * * * * * * * * //

dimensions      [0 0 -1 0 0 0 0];

internalField   nonuniform List<scalar> 
400
(
2.92317
2.92317
2.92317
2.92317
2.92317
2.92317
2.92317
2.92316
2.92316
2.92316
2.92316
2.92316
2.92316
2.92316
2.92316
2.92316
2.92316
2.92316
2.92316
2.92316
2.94215
2.9133
2.91584
2.91687
2.91895
2.92002
2.92209
2.92318
2.92525
2.92637
2.92842
2.92958
2.93162
2.93281
2.93484
2.93606
2.93808
2.93934
2.94034
2.94198
2.97276
2.94279
2.94547
2.94656
2.94875
2.94987
2.95204
2.95318
2.95534
2.9565
2.95864
2.95983
2.96195
2.96317
2.96527
2.96652
2.9686
2.96987
2.97091
2.97258
3.00592
2.97529
2.97801
2.97914
2.98137
2.98252
2.98473
2.98591
2.9881
2.9893
2.99148
2.9927
2.99486
2.99611
2.99826
2.99953
3.00165
3.00296
3.00402
3.00572
3.03487
3.00364
3.00643
3.00756
3.00985
3.01101
3.01327
3.01446
3.01671
3.01792
3.02015
3.02139
3.0236
3.02487
3.02706
3.02836
3.03052
3.03186
3.03293
3.03467
3.05685
3.02516
3.02797
3.02914
3.03144
3.03264
3.03492
3.03614
3.03841
3.03965
3.0419
3.04317
3.04541
3.04671
3.04892
3.05024
3.05243
3.05379
3.05488
3.05665
3.07206
3.04004
3.04289
3.04407
3.0464
3.0476
3.04991
3.05114
3.05343
3.05468
3.05696
3.05824
3.0605
3.06181
3.06405
3.06539
3.0676
3.06897
3.07007
3.07186
3.08206
3.04982
3.0527
3.05388
3.05622
3.05744
3.05976
3.061
3.0633
3.06457
3.06686
3.06815
3.07042
3.07174
3.07399
3.07534
3.07757
3.07895
3.08006
3.08186
3.08861
3.05623
3.05912
3.06031
3.06266
3.06388
3.06621
3.06745
3.06977
3.07104
3.07334
3.07464
3.07692
3.07825
3.0805
3.08186
3.0841
3.08548
3.0866
3.0884
3.09312
3.06065
3.06355
3.06473
3.0671
3.06831
3.07066
3.0719
3.07424
3.0755
3.07782
3.07911
3.08141
3.08272
3.085
3.08635
3.0886
3.08999
3.09111
3.09292
3.09659
3.06404
3.06694
3.06813
3.0705
3.07172
3.07407
3.07532
3.07765
3.07893
3.08124
3.08254
3.08484
3.08617
3.08844
3.0898
3.09205
3.09344
3.09457
3.09638
3.09961
3.06699
3.06991
3.07109
3.07347
3.07469
3.07705
3.0783
3.08064
3.08191
3.08423
3.08553
3.08783
3.08916
3.09145
3.09281
3.09507
3.09646
3.09758
3.0994
3.10255
3.06987
3.07278
3.07398
3.07635
3.07758
3.07994
3.08119
3.08353
3.08481
3.08714
3.08845
3.09075
3.09209
3.09437
3.09573
3.09799
3.09939
3.10052
3.10234
3.10559
3.07285
3.07578
3.07697
3.07936
3.08058
3.08295
3.08419
3.08655
3.08782
3.09016
3.09146
3.09378
3.09511
3.0974
3.09877
3.10104
3.10243
3.10356
3.10539
3.10883
3.07602
3.07894
3.08014
3.08253
3.08376
3.08613
3.08739
3.08974
3.09103
3.09336
3.09467
3.09698
3.09833
3.10061
3.10199
3.10426
3.10566
3.10679
3.10862
3.11221
3.07933
3.08226
3.08346
3.08585
3.08709
3.08945
3.09073
3.09307
3.09437
3.0967
3.09802
3.10033
3.10168
3.10397
3.10535
3.10762
3.10903
3.11016
3.112
3.11556
3.08261
3.08554
3.08676
3.08915
3.09039
3.09276
3.09403
3.09639
3.09768
3.10002
3.10134
3.10366
3.10501
3.10731
3.10869
3.11097
3.11238
3.11351
3.11535
3.1186
3.08559
3.08853
3.08974
3.09214
3.09338
3.09576
3.09702
3.0994
3.10067
3.10304
3.10434
3.10668
3.10802
3.11034
3.11171
3.114
3.11541
3.11654
3.11838
3.12093
3.0885
3.09133
3.09251
3.09483
3.09604
3.09835
3.0996
3.1019
3.10318
3.10547
3.10679
3.10906
3.11043
3.11268
3.11409
3.11632
3.11777
3.11888
3.12072
3.12201
3.122
3.12201
3.122
3.12201
3.122
3.12201
3.122
3.12201
3.122
3.122
3.122
3.122
3.122
3.122
3.122
3.122
3.122
3.122
3.122
)
;

boundaryField
{
    movingWall
    {
        type            calculated;
        value           nonuniform List<scalar> 
20
(
3.12201
3.122
3.12201
3.122
3.12201
3.122
3.12201
3.122
3.12201
3.122
3.122
3.122
3.122
3.122
3.122
3.122
3.122
3.122
3.122
3.122
)
;
    }
    fixedWalls
    {
        type            calculated;
        value           nonuniform List<scalar> 
60
(
2.92317
2.94215
2.97276
3.00592
3.03487
3.05685
3.07206
3.08206
3.08861
3.09312
3.09659
3.09961
3.10255
3.10559
3.10883
3.11221
3.11556
3.1186
3.12093
3.12201
2.92316
2.94198
2.97258
3.00572
3.03467
3.05665
3.07186
3.08186
3.0884
3.09292
3.09638
3.0994
3.10234
3.10539
3.10862
3.112
3.11535
3.11838
3.12072
3.122
2.92317
2.92317
2.92317
2.92317
2.92317
2.92317
2.92317
2.92316
2.92316
2.92316
2.92316
2.92316
2.92316
2.92316
2.92316
2.92316
2.92316
2.92316
2.92316
2.92316
)
;
    }
    frontAndBack
    {
        type            empty;
    }
}


// ************************************************************************* //
