/*--------------------------------*- C++ -*----------------------------------*\
| =========                 |                                                 |
| \\      /  F ield         | OpenFOAM: The Open Source CFD Toolbox           |
|  \\    /   O peration     | Version:  2312                                  |
|   \\  /    A nd           | Website:  www.openfoam.com                      |
|    \\/     M anipulation  |                                                 |
\*---------------------------------------------------------------------------*/
FoamFile
{
    version     2.0;
    format      ascii;
    arch        "LSB;label=32;scalar=64";
    class       volVectorField;
    location    "9.5";
    object      UMean;
}
// * * * * * * * * * * * * * * * * * * * * * * * * * * * * * * * * * * * * * //

dimensions      [0 1 -1 0 0 0 0];

internalField   nonuniform List<vector> 
400
(
(-0.736891 3.94281e-05 0)
(-0.737212 0.000178102 0)
(-0.737808 0.000267909 0)
(-0.738496 0.000313038 0)
(-0.739256 0.00035466 0)
(-0.740106 0.000409671 0)
(-0.741071 0.000481805 0)
(-0.742159 0.000559187 0)
(-0.743324 0.000600595 0)
(-0.744448 0.000563552 0)
(-0.74536 0.000426226 0)
(-0.745881 0.000196231 0)
(-0.745872 -0.000117019 0)
(-0.745218 -0.000450481 0)
(-0.743931 -0.000759182 0)
(-0.742161 -0.000962152 0)
(-0.740169 -0.000967465 0)
(-0.738272 -0.0007063 0)
(-0.737011 -0.000284096 0)
(-0.736709 6.93597e-05 0)
(-0.737062 0.000387396 0)
(-0.737703 0.000832728 0)
(-0.73858 0.00107591 0)
(-0.73956 0.0012022 0)
(-0.740618 0.00132527 0)
(-0.741771 0.00148129 0)
(-0.743034 0.00164709 0)
(-0.744379 0.00176261 0)
(-0.745734 0.00174981 0)
(-0.746986 0.00153851 0)
(-0.747993 0.00109303 0)
(-0.748605 0.00041929 0)
(-0.748674 -0.000440415 0)
(-0.748095 -0.00139343 0)
(-0.746807 -0.0022911 0)
(-0.744872 -0.00292167 0)
(-0.742489 -0.00305387 0)
(-0.739976 -0.00248082 0)
(-0.737791 -0.0012909 0)
(-0.73684 -7.38093e-05 0)
(-0.737225 0.00107473 0)
(-0.73805 0.00172608 0)
(-0.739031 0.00207943 0)
(-0.74013 0.00229982 0)
(-0.741321 0.00252145 0)
(-0.742618 0.00278145 0)
(-0.744029 0.00303392 0)
(-0.745532 0.00318613 0)
(-0.747062 0.00312623 0)
(-0.748516 0.00275627 0)
(-0.749755 0.00201564 0)
(-0.750618 0.000890063 0)
(-0.750947 -0.000565746 0)
(-0.75063 -0.00223015 0)
(-0.749588 -0.0038942 0)
(-0.747759 -0.00523618 0)
(-0.745184 -0.00583173 0)
(-0.742083 -0.0052298 0)
(-0.73894 -0.00326041 0)
(-0.736996 -0.000761678 0)
(-0.737319 0.00192335 0)
(-0.738254 0.00271296 0)
(-0.739287 0.00314722 0)
(-0.740425 0.00346536 0)
(-0.741661 0.00379841 0)
(-0.743022 0.00417755 0)
(-0.744523 0.00454246 0)
(-0.746149 0.0047677 0)
(-0.747836 0.00469901 0)
(-0.74947 0.00419642 0)
(-0.750904 0.00317066 0)
(-0.751972 0.0016065 0)
(-0.752535 -0.000433495 0)
(-0.752482 -0.00279885 0)
(-0.751751 -0.00525514 0)
(-0.750251 -0.0074654 0)
(-0.747854 -0.00889948 0)
(-0.744515 -0.00880762 0)
(-0.740584 -0.00644382 0)
(-0.737378 -0.00208506 0)
(-0.737352 0.00285772 0)
(-0.738328 0.00375573 0)
(-0.739362 0.00424382 0)
(-0.740484 0.00464724 0)
(-0.741708 0.00509672 0)
(-0.743066 0.00561681 0)
(-0.744584 0.00612411 0)
(-0.746249 0.00645265 0)
(-0.74799 0.00639683 0)
(-0.749676 0.005771 0)
(-0.751149 0.00447017 0)
(-0.752268 0.00249891 0)
(-0.752932 -5.30742e-05 0)
(-0.753075 -0.00301181 0)
(-0.75263 -0.00615217 0)
(-0.751558 -0.00919398 0)
(-0.749656 -0.0116607 0)
(-0.746596 -0.0126456 0)
(-0.742355 -0.0106917 0)
(-0.738167 -0.00468936 0)
(-0.737334 0.0038027 0)
(-0.73829 0.00479244 0)
(-0.739278 0.00531765 0)
(-0.740339 0.00579713 0)
(-0.74149 0.00636335 0)
(-0.742769 0.00703166 0)
(-0.744206 0.00769086 0)
(-0.74579 0.00812838 0)
(-0.747447 0.00808128 0)
(-0.749057 0.0073286 0)
(-0.750493 0.00576892 0)
(-0.751646 0.00343035 0)
(-0.75241 0.000437173 0)
(-0.752687 -0.00303394 0)
(-0.752432 -0.00673476 0)
(-0.751657 -0.0104229 0)
(-0.750258 -0.0137981 0)
(-0.747798 -0.0161211 0)
(-0.743761 -0.0154599 0)
(-0.739006 -0.00862607 0)
(-0.737281 0.0046957 0)
(-0.738165 0.00576988 0)
(-0.739067 0.00632021 0)
(-0.740018 0.00685835 0)
(-0.741038 0.0075228 0)
(-0.742156 0.00832336 0)
(-0.743404 0.00911911 0)
(-0.74478 0.00965658 0)
(-0.746237 0.00963088 0)
(-0.747696 0.00880063 0)
(-0.749082 0.00706231 0)
(-0.750296 0.00443557 0)
(-0.751197 0.00103429 0)
(-0.751632 -0.00293466 0)
(-0.751544 -0.0071732 0)
(-0.750963 -0.011384 0)
(-0.749903 -0.0154155 0)
(-0.748058 -0.0189255 0)
(-0.744549 -0.0200839 0)
(-0.73965 -0.0136493 0)
(-0.737207 0.00548494 0)
(-0.737978 0.00664438 0)
(-0.738759 0.00720705 0)
(-0.739563 0.00777699 0)
(-0.740399 0.00850216 0)
(-0.741285 0.00939244 0)
(-0.742244 0.010289 0)
(-0.743299 0.010927 0)
(-0.744448 0.010968 0)
(-0.745673 0.0101447 0)
(-0.746951 0.00834352 0)
(-0.748196 0.00553629 0)
(-0.749229 0.00178946 0)
(-0.749876 -0.00266435 0)
(-0.750028 -0.00744223 0)
(-0.749699 -0.0121474 0)
(-0.748935 -0.0166939 0)
(-0.747612 -0.0210974 0)
(-0.744749 -0.0241889 0)
(-0.740019 -0.0192863 0)
(-0.737119 0.00613517 0)
(-0.737751 0.0073819 0)
(-0.738389 0.00794437 0)
(-0.739021 0.0085136 0)
(-0.739639 0.00924959 0)
(-0.740243 0.0101678 0)
(-0.74085 0.0111112 0)
(-0.7415 0.0118283 0)
(-0.742233 0.0119776 0)
(-0.743093 0.0112818 0)
(-0.744126 0.00956697 0)
(-0.745283 0.00671386 0)
(-0.746413 0.00273454 0)
(-0.747296 -0.00213657 0)
(-0.747779 -0.00739178 0)
(-0.747848 -0.012582 0)
(-0.747498 -0.0176071 0)
(-0.746697 -0.0227254 0)
(-0.744536 -0.0276716 0)
(-0.740184 -0.0250724 0)
(-0.737029 0.00662761 0)
(-0.737508 0.00796328 0)
(-0.737991 0.00851374 0)
(-0.738443 0.00904683 0)
(-0.738835 0.0097356 0)
(-0.739145 0.0106079 0)
(-0.73938 0.0115357 0)
(-0.739581 0.0122887 0)
(-0.73982 0.0125559 0)
(-0.740184 0.0120434 0)
(-0.740768 0.0105425 0)
(-0.741627 0.00786634 0)
(-0.74271 0.00389768 0)
(-0.743799 -0.00118259 0)
(-0.744737 -0.00681898 0)
(-0.74538 -0.0124875 0)
(-0.74561 -0.0179906 0)
(-0.745431 -0.02378 0)
(-0.744037 -0.0304464 0)
(-0.740285 -0.0307245 0)
(-0.736946 0.00696036 0)
(-0.737276 0.00838414 0)
(-0.737607 0.00891114 0)
(-0.737885 0.00937589 0)
(-0.738064 0.00996502 0)
(-0.738104 0.0107203 0)
(-0.737999 0.0115513 0)
(-0.737774 0.0122619 0)
(-0.737507 0.0125933 0)
(-0.737306 0.0122718 0)
(-0.737314 0.0110717 0)
(-0.737642 0.00876506 0)
(-0.738422 0.0051079 0)
(-0.73964 0.000140577 0)
(-0.741069 -0.00564718 0)
(-0.74238 -0.0116744 0)
(-0.743317 -0.0176693 0)
(-0.743876 -0.0241148 0)
(-0.743333 -0.0324532 0)
(-0.740393 -0.0361046 0)
(-0.736881 0.00714811 0)
(-0.73708 0.00865587 0)
(-0.737273 0.0091483 0)
(-0.737395 0.00951887 0)
(-0.73739 0.00996815 0)
(-0.73721 0.0105494 0)
(-0.736834 0.0112069 0)
(-0.736274 0.0117877 0)
(-0.735594 0.0120852 0)
(-0.734901 0.0118751 0)
(-0.734341 0.0109487 0)
(-0.734083 0.00908965 0)
(-0.73436 0.00606956 0)
(-0.735394 0.0017047 0)
(-0.737125 -0.00386014 0)
(-0.739071 -0.0100542 0)
(-0.740753 -0.0165304 0)
(-0.7421 -0.0236203 0)
(-0.742493 -0.0336218 0)
(-0.740534 -0.0411704 0)
(-0.736846 0.00722583 0)
(-0.736947 0.00880141 0)
(-0.737023 0.00924641 0)
(-0.737013 0.00950304 0)
(-0.736855 0.00978829 0)
(-0.736506 0.0101654 0)
(-0.735941 0.0106056 0)
(-0.735165 0.0109971 0)
(-0.734226 0.0111828 0)
(-0.733219 0.0109872 0)
(-0.732281 0.0102426 0)
(-0.731593 0.0087899 0)
(-0.73139 0.00643958 0)
(-0.732004 0.00298506 0)
(-0.733592 -0.00182077 0)
(-0.735834 -0.00784706 0)
(-0.738132 -0.0145824 0)
(-0.74021 -0.0222461 0)
(-0.741591 -0.0338874 0)
(-0.740724 -0.0459114 0)
(-0.736853 0.00726152 0)
(-0.736901 0.0088613 0)
(-0.736889 0.00923203 0)
(-0.736765 0.00935493 0)
(-0.736477 0.00946413 0)
(-0.735997 0.00963256 0)
(-0.735305 0.00984962 0)
(-0.734409 0.0100404 0)
(-0.733347 0.0100886 0)
(-0.732202 0.00986222 0)
(-0.731093 0.00923715 0)
(-0.730186 0.0081094 0)
(-0.729671 0.00635853 0)
(-0.729817 0.0037578 0)
(-0.730957 -2.98117e-05 0)
(-0.733048 -0.0053785 0)
(-0.735657 -0.0119748 0)
(-0.738316 -0.0200344 0)
(-0.740652 -0.0331108 0)
(-0.740957 -0.0501769 0)
(-0.73692 0.00726006 0)
(-0.736985 0.00885171 0)
(-0.736903 0.00911295 0)
(-0.736671 0.00908113 0)
(-0.73626 0.00901152 0)
(-0.735661 0.00898322 0)
(-0.734872 0.00899845 0)
(-0.733906 0.00900897 0)
(-0.732796 0.00893343 0)
(-0.731613 0.00867632 0)
(-0.730457 0.00814878 0)
(-0.729455 0.00727679 0)
(-0.728755 0.00597607 0)
(-0.728546 0.00407818 0)
(-0.729139 0.00123818 0)
(-0.730777 -0.00303581 0)
(-0.733352 -0.00899638 0)
(-0.7364 -0.0171585 0)
(-0.739464 -0.0310881 0)
(-0.741136 -0.0537638 0)
(-0.737079 0.00761752 0)
(-0.737204 0.00893162 0)
(-0.737075 0.00894756 0)
(-0.736733 0.00870418 0)
(-0.736189 0.00844389 0)
(-0.735465 0.00823344 0)
(-0.734575 0.00807775 0)
(-0.733541 0.00794246 0)
(-0.732397 0.00777071 0)
(-0.731199 0.00749529 0)
(-0.730026 0.00705055 0)
(-0.728974 0.00637744 0)
(-0.728157 0.00541382 0)
(-0.727709 0.00404754 0)
(-0.727863 0.0020004 0)
(-0.728916 -0.00120283 0)
(-0.731265 -0.00609906 0)
(-0.734138 -0.0140163 0)
(-0.737538 -0.0279023 0)
(-0.741057 -0.057002 0)
(-0.737435 0.00713189 0)
(-0.737812 0.00837372 0)
(-0.737515 0.0083292 0)
(-0.73696 0.00801399 0)
(-0.736221 0.00765664 0)
(-0.735329 0.00732992 0)
(-0.7343 0.00705963 0)
(-0.733161 0.00682842 0)
(-0.731944 0.00659707 0)
(-0.730694 0.00631797 0)
(-0.729469 0.00594257 0)
(-0.728339 0.00542448 0)
(-0.727403 0.00472309 0)
(-0.72677 0.00375754 0)
(-0.726623 0.00234826 0)
(-0.727129 4.55002e-05 0)
(-0.729168 -0.00360152 0)
(-0.730889 -0.0111394 0)
(-0.734941 -0.0242152 0)
(-0.740475 -0.0608316 0)
(-0.737925 0.0115255 0)
(-0.738321 0.0110913 0)
(-0.737717 0.0096311 0)
(-0.736885 0.00834642 0)
(-0.735901 0.00742993 0)
(-0.734754 0.00675229 0)
(-0.733471 0.00624487 0)
(-0.732102 0.00585179 0)
(-0.730686 0.00551723 0)
(-0.729259 0.00519574 0)
(-0.727867 0.00485139 0)
(-0.726577 0.00445629 0)
(-0.725467 0.00397675 0)
(-0.72461 0.00335725 0)
(-0.724198 0.00249967 0)
(-0.724166 0.000972145 0)
(-0.72598 -0.0016653 0)
(-0.725142 -0.0083823 0)
(-0.733156 -0.0192141 0)
(-0.737813 -0.0638762 0)
(-0.738604 0.00430617 0)
(-0.73929 0.00265188 0)
(-0.737166 0.00274556 0)
(-0.734804 0.00346555 0)
(-0.732368 0.00363826 0)
(-0.729997 0.00351262 0)
(-0.727753 0.0033584 0)
(-0.725633 0.00323345 0)
(-0.723619 0.00311638 0)
(-0.7217 0.00298721 0)
(-0.719881 0.00283781 0)
(-0.718182 0.00266049 0)
(-0.716648 0.00244533 0)
(-0.715282 0.00214937 0)
(-0.714319 0.00174466 0)
(-0.713327 0.000902212 0)
(-0.715047 -0.000274338 0)
(-0.711715 -0.00442882 0)
(-0.730678 -0.00998324 0)
(-0.721646 -0.0558014 0)
(-0.726338 0.0241917 0)
(-0.720846 0.0176952 0)
(-0.714439 0.0108468 0)
(-0.709019 0.00708697 0)
(-0.704905 0.00514433 0)
(-0.701481 0.00401778 0)
(-0.698382 0.00328188 0)
(-0.695516 0.00276346 0)
(-0.692862 0.00237641 0)
(-0.690394 0.00207676 0)
(-0.688094 0.00183478 0)
(-0.685958 0.00163106 0)
(-0.684009 0.00145202 0)
(-0.68223 0.00128149 0)
(-0.68087 0.00109683 0)
(-0.679349 0.000839553 0)
(-0.680767 0.000532707 0)
(-0.674919 -0.000578815 0)
(-0.706375 0.00149393 0)
(-0.641459 -0.0252253 0)
)
;

boundaryField
{
    movingWall
    {
        type            calculated;
        value           uniform (-0.473684 0 0);
    }
    fixedWalls
    {
        type            calculated;
        value           uniform (-0.736842 0 0);
    }
    frontAndBack
    {
        type            empty;
    }
}


// ************************************************************************* //
