/*--------------------------------*- C++ -*----------------------------------*\
| =========                 |                                                 |
| \\      /  F ield         | OpenFOAM: The Open Source CFD Toolbox           |
|  \\    /   O peration     | Version:  2312                                  |
|   \\  /    A nd           | Website:  www.openfoam.com                      |
|    \\/     M anipulation  |                                                 |
\*---------------------------------------------------------------------------*/
FoamFile
{
    version     2.0;
    format      ascii;
    arch        "LSB;label=32;scalar=64";
    class       volVectorField;
    location    "9.5";
    object      UNear;
}
// * * * * * * * * * * * * * * * * * * * * * * * * * * * * * * * * * * * * * //

dimensions      [0 1 -1 0 0 0 0];

internalField   nonuniform List<vector> 
400
(
(-1 1.4459e-13 0)
(-1 -3.10295e-14 0)
(-1 7.60456e-15 0)
(-1 -1.50045e-15 0)
(-1 4.26017e-16 0)
(-1 2.20264e-17 0)
(-1 1.13327e-16 0)
(-1 7.51892e-17 0)
(-1 5.51044e-17 0)
(-1 -7.70826e-18 0)
(-1 -7.45711e-17 0)
(-1 -5.67641e-17 0)
(-1 9.29405e-17 0)
(-1 2.36733e-16 0)
(-1 2.36847e-16 0)
(-1 9.10767e-17 0)
(-1 -4.26763e-17 0)
(-1 -1.15994e-16 0)
(-1 -2.66518e-17 0)
(-1 4.65465e-17 0)
(-1 1.65612e-14 0)
(-1 -2.88694e-15 0)
(-1 1.10634e-15 0)
(-1 -1.09167e-16 0)
(-1 -2.0688e-17 0)
(-1 -1.66274e-17 0)
(-1 1.81391e-17 0)
(-1 -3.63858e-17 0)
(-1 -3.74583e-17 0)
(-1 -4.86737e-17 0)
(-1 3.96005e-17 0)
(-1 7.80401e-17 0)
(-1 5.80763e-17 0)
(-1 8.17835e-17 0)
(-1 1.5084e-16 0)
(-1 1.58188e-16 0)
(-1 -2.53651e-17 0)
(-1 -1.34215e-16 0)
(-1 -7.37315e-17 0)
(-1 -7.36702e-18 0)
(-1 -1.31426e-13 0)
(-1 2.89497e-14 0)
(-1 -6.58498e-15 0)
(-1 1.58069e-15 0)
(-1 -4.40402e-16 0)
(-1 -1.24474e-16 0)
(-1 -1.11491e-16 0)
(-1 -1.47244e-17 0)
(-1 3.51192e-17 0)
(-1 3.05729e-17 0)
(-1 1.65359e-16 0)
(-1 1.97855e-16 0)
(-1 2.63831e-17 0)
(-1 -6.70599e-17 0)
(-1 7.56946e-17 0)
(-1 1.96235e-16 0)
(-1 1.28811e-16 0)
(-1 -3.18959e-17 0)
(-1 -1.34092e-16 0)
(-1 -8.19215e-17 0)
(-1 8.23914e-14 0)
(-1 -1.7953e-14 0)
(-1 4.20585e-15 0)
(-1 -7.86838e-16 0)
(-1 3.14668e-16 0)
(-1 -3.54599e-18 0)
(-1 5.55175e-17 0)
(-1 9.72149e-17 0)
(-1 5.30468e-17 0)
(-1 6.301e-17 0)
(-1 8.00724e-17 0)
(-1 1.0251e-16 0)
(-1 8.89083e-17 0)
(-1 9.0458e-17 0)
(-1 6.3775e-17 0)
(-1 -3.00313e-17 0)
(-1 -3.4287e-17 0)
(-1 -4.87316e-17 0)
(-1 -8.43202e-17 0)
(-1 -4.01225e-17 0)
(-1 2.12151e-14 0)
(-1 -4.67578e-15 0)
(-1 9.72035e-16 0)
(-1 -2.78317e-16 0)
(-1 2.16903e-16 0)
(-1 1.94171e-16 0)
(-1 1.31503e-16 0)
(-1 8.53928e-17 0)
(-1 8.48704e-19 0)
(-1 1.4541e-16 0)
(-1 2.07592e-16 0)
(-1 1.47212e-16 0)
(-1 6.25588e-17 0)
(-1 -1.62784e-17 0)
(-1 -1.05432e-16 0)
(-1 -8.87099e-17 0)
(-1 -6.98875e-17 0)
(-1 -3.17191e-17 0)
(-1 6.06287e-19 0)
(-1 -1.1742e-18 0)
(-1 -1.22374e-13 0)
(-1 2.68028e-14 0)
(-1 -6.05661e-15 0)
(-1 1.44097e-15 0)
(-1 -2.24661e-16 0)
(-1 1.42479e-16 0)
(-1 1.00389e-16 0)
(-1 1.49293e-16 0)
(-1 1.2325e-16 0)
(-1 -2.83966e-18 0)
(-1 -4.0561e-17 0)
(-1 -2.26281e-17 0)
(-1 4.78531e-17 0)
(-1 -1.62437e-17 0)
(-1 -1.15174e-16 0)
(-1 -2.91463e-17 0)
(-1 8.37313e-17 0)
(-1 1.48389e-16 0)
(-1 9.22658e-17 0)
(-1 5.40914e-17 0)
(-1 1.46172e-13 0)
(-1 -3.198e-14 0)
(-1 7.5698e-15 0)
(-1 -1.67134e-15 0)
(-1 3.7315e-16 0)
(-1 -2.20695e-17 0)
(-1 1.38781e-16 0)
(-1 7.06293e-17 0)
(-1 1.5139e-16 0)
(-1 -3.96863e-17 0)
(-1 -1.11273e-16 0)
(-1 -5.72877e-17 0)
(-1 2.03158e-18 0)
(-1 -1.58823e-17 0)
(-1 1.98327e-17 0)
(-1 7.4221e-17 0)
(-1 8.04988e-17 0)
(-1 8.76971e-17 0)
(-1 8.44036e-17 0)
(-1 4.48437e-17 0)
(-1 -3.49141e-14 0)
(-1 7.79571e-15 0)
(-1 -2.03445e-15 0)
(-1 3.43404e-16 0)
(-1 -1.10943e-16 0)
(-1 4.83992e-17 0)
(-1 2.25555e-17 0)
(-1 -2.30548e-17 0)
(-1 2.93016e-17 0)
(-1 1.13455e-16 0)
(-1 6.00111e-17 0)
(-1 7.73469e-17 0)
(-1 6.82371e-17 0)
(-1 1.17046e-16 0)
(-1 1.92357e-16 0)
(-1 1.03762e-16 0)
(-1 -5.062e-17 0)
(-1 -1.23292e-16 0)
(-1 -2.55972e-17 0)
(-1 2.31531e-17 0)
(-1 -1.06226e-13 0)
(-1 2.30074e-14 0)
(-1 -5.47589e-15 0)
(-1 1.26624e-15 0)
(-1 -2.71524e-16 0)
(-1 -5.56486e-17 0)
(-1 -1.67105e-16 0)
(-1 -9.47907e-17 0)
(-1 -1.30677e-16 0)
(-1 -3.35712e-17 0)
(-1 -4.41775e-17 0)
(-1 -1.93827e-17 0)
(-1 8.06489e-18 0)
(-1 6.3601e-17 0)
(-1 -3.50376e-17 0)
(-1 -1.7624e-16 0)
(-1 -2.01976e-16 0)
(-1 -7.32053e-17 0)
(-1 5.12093e-17 0)
(-1 7.36651e-17 0)
(-1 1.73064e-13 0)
(-1 -3.84691e-14 0)
(-1 9.01501e-15 0)
(-1 -1.92971e-15 0)
(-1 4.78969e-16 0)
(-1 -1.93675e-16 0)
(-1 -9.68881e-17 0)
(-1 -3.59311e-17 0)
(-1 -8.41828e-17 0)
(-1 -1.60106e-17 0)
(-1 6.55037e-17 0)
(-1 9.9566e-17 0)
(-1 4.26775e-17 0)
(-1 -7.41137e-17 0)
(-1 -1.92138e-16 0)
(-1 -1.55766e-16 0)
(-1 -1.09667e-16 0)
(-1 4.79729e-17 0)
(-1 1.36564e-16 0)
(-1 8.25509e-17 0)
(-1 -1.44448e-13 0)
(-1 3.18827e-14 0)
(-1 -7.40387e-15 0)
(-1 1.69166e-15 0)
(-1 -2.66661e-16 0)
(-1 1.2289e-16 0)
(-1 -7.88572e-17 0)
(-1 -5.56634e-17 0)
(-1 -4.57466e-17 0)
(-1 -5.85451e-17 0)
(-1 -7.08239e-17 0)
(-1 -1.42842e-17 0)
(-1 5.67486e-17 0)
(-1 -2.92976e-17 0)
(-1 -1.28652e-16 0)
(-1 -5.79591e-17 0)
(-1 2.15455e-18 0)
(-1 -1.61617e-18 0)
(-1 -3.88392e-18 0)
(-1 -1.18729e-17 0)
(-1 7.30478e-14 0)
(-1 -1.60662e-14 0)
(-1 3.67465e-15 0)
(-1 -9.35267e-16 0)
(-1 9.52508e-17 0)
(-1 -1.1319e-17 0)
(-1 -3.69981e-17 0)
(-1 -1.0274e-16 0)
(-1 -6.99118e-18 0)
(-1 -6.38071e-17 0)
(-1 -1.06242e-16 0)
(-1 -7.58416e-17 0)
(-1 2.89307e-17 0)
(-1 -2.2581e-17 0)
(-1 3.79136e-17 0)
(-1 9.68946e-17 0)
(-1 8.95353e-17 0)
(-1 -6.4048e-17 0)
(-1 -3.68958e-17 0)
(-1 1.36543e-17 0)
(-1 2.8849e-14 0)
(-1 -6.6778e-15 0)
(-1 1.5746e-15 0)
(-1 -3.70705e-16 0)
(-1 -4.43996e-17 0)
(-1 -3.88312e-17 0)
(-1 3.02811e-17 0)
(-1 -2.08803e-17 0)
(-1 -3.47128e-17 0)
(-1 -4.35731e-17 0)
(-1 -3.52455e-17 0)
(-1 -6.58154e-17 0)
(-1 -2.12817e-17 0)
(-1 -7.0836e-18 0)
(-1 8.33896e-17 0)
(-1 7.12083e-17 0)
(-1 -4.16076e-17 0)
(-1 -5.87754e-17 0)
(-1 -2.1921e-17 0)
(-1 2.58674e-17 0)
(-1 -1.15336e-13 0)
(-1 2.53557e-14 0)
(-1 -5.96815e-15 0)
(-1 1.40358e-15 0)
(-1 -2.81075e-16 0)
(-1 6.37937e-17 0)
(-1 5.72822e-17 0)
(-1 2.37483e-17 0)
(-1 -9.44077e-17 0)
(-1 -1.08827e-16 0)
(-1 -7.17679e-17 0)
(-1 -2.1293e-16 0)
(-1 -1.24256e-16 0)
(-1 1.04006e-16 0)
(-1 2.2891e-16 0)
(-1 8.5736e-17 0)
(-1 -8.00847e-17 0)
(-1 -2.98614e-17 0)
(-1 -7.8616e-17 0)
(-1 -7.34075e-17 0)
(-1 1.43384e-13 0)
(-1 -3.14455e-14 0)
(-1 7.08384e-15 0)
(-1 -1.76668e-15 0)
(-1 2.23982e-16 0)
(-1 -1.44201e-16 0)
(-1 6.79951e-17 0)
(-1 5.72608e-17 0)
(-1 3.50419e-17 0)
(-1 1.16699e-16 0)
(-1 1.28924e-16 0)
(-1 6.85665e-18 0)
(-1 -8.09917e-17 0)
(-1 -2.96558e-17 0)
(-1 5.34593e-17 0)
(-1 2.02821e-17 0)
(-1 9.35152e-17 0)
(-1 5.63323e-17 0)
(-1 -9.76107e-17 0)
(-1 -9.36585e-17 0)
(-1 -7.64684e-14 0)
(-1 1.63628e-14 0)
(-1 -4.02781e-15 0)
(-1 5.61172e-16 0)
(-1 -3.66592e-16 0)
(-1 -4.94481e-17 0)
(-1 4.81992e-17 0)
(-1 1.69823e-16 0)
(-1 1.76608e-16 0)
(-1 1.22799e-16 0)
(-1 1.76403e-17 0)
(-1 -2.0779e-17 0)
(-1 -1.44209e-16 0)
(-1 -1.76449e-16 0)
(-1 -2.5428e-16 0)
(-1 -1.68249e-16 0)
(-1 -4.19656e-17 0)
(-1 -4.60848e-17 0)
(-1 -8.61253e-17 0)
(-1 -7.1906e-17 0)
(-1 -4.29992e-14 0)
(-1 9.07821e-15 0)
(-1 -2.20627e-15 0)
(-1 3.87452e-16 0)
(-1 -1.23769e-16 0)
(-1 -8.05617e-19 0)
(-1 -5.17488e-17 0)
(-1 -5.17908e-18 0)
(-1 -2.2787e-17 0)
(-1 -6.31093e-17 0)
(-1 -8.68344e-17 0)
(-1 -5.84721e-17 0)
(-1 -6.6483e-17 0)
(-1 -9.14922e-17 0)
(-1 -1.75397e-16 0)
(-1 -1.90585e-16 0)
(-1 -1.2877e-16 0)
(-1 2.74125e-17 0)
(-1 5.10077e-17 0)
(-1 -2.55848e-17 0)
(-1 1.22908e-13 0)
(-1 -2.67417e-14 0)
(-1 6.29261e-15 0)
(-1 -1.29208e-15 0)
(-1 4.03254e-16 0)
(-1 -3.43086e-17 0)
(-1 -1.10308e-16 0)
(-1 -9.48634e-17 0)
(-1 -7.40017e-17 0)
(-1 -7.50656e-17 0)
(-1 -4.73841e-17 0)
(-1 7.92911e-17 0)
(-1 7.05234e-17 0)
(-1 -2.27053e-17 0)
(-1 -1.63689e-16 0)
(-1 -1.84103e-16 0)
(-1 -1.18993e-17 0)
(-1 1.06999e-16 0)
(-1 4.20634e-17 0)
(-1 3.39164e-17 0)
(-1 -4.00145e-14 0)
(-1 8.31791e-15 0)
(-1 -2.06371e-15 0)
(-1 4.69175e-16 0)
(-1 2.54629e-17 0)
(-1 4.78764e-17 0)
(-1 -9.0844e-17 0)
(-1 -7.78562e-17 0)
(-1 -6.44835e-18 0)
(-1 -4.29245e-17 0)
(-1 -8.32458e-17 0)
(-1 1.64622e-17 0)
(-1 2.36086e-17 0)
(-1 -8.60073e-17 0)
(-1 -1.81653e-16 0)
(-1 -1.01689e-16 0)
(-1 -5.79844e-17 0)
(-1 -8.23372e-17 0)
(-1 -8.64392e-17 0)
(-1 9.43248e-18 0)
(-1 -9.66153e-14 0)
(-1 2.04673e-14 0)
(-1 -4.94191e-15 0)
(-1 1.07391e-15 0)
(-1 -1.53897e-16 0)
(-1 5.6463e-17 0)
(-1 -7.28723e-17 0)
(-1 -1.27574e-16 0)
(-1 -4.89123e-17 0)
(-1 1.87662e-17 0)
(-1 -2.13447e-18 0)
(-1 -9.00784e-18 0)
(-1 -3.16703e-17 0)
(-1 -1.20475e-16 0)
(-1 -1.02573e-16 0)
(-1 -3.70716e-17 0)
(-1 -5.58309e-17 0)
(-1 -8.15147e-17 0)
(-1 -6.96831e-17 0)
(-1 -2.85191e-17 0)
)
;

boundaryField
{
    movingWall
    {
        type            fixedValue;
        value           uniform (-1 -0 -0);
    }
    fixedWalls
    {
        type            calculated;
        value           nonuniform List<vector> 
60
(
(-1 5.78359e-14 0)
(-1 6.62449e-15 0)
(-1 -5.25706e-14 0)
(-1 3.29566e-14 0)
(-1 8.48603e-15 0)
(-1 -4.89495e-14 0)
(-1 5.84687e-14 0)
(-1 -1.39656e-14 0)
(-1 -4.24904e-14 0)
(-1 6.92257e-14 0)
(-1 -5.77791e-14 0)
(-1 2.92191e-14 0)
(-1 1.15396e-14 0)
(-1 -4.61344e-14 0)
(-1 5.73536e-14 0)
(-1 -3.05873e-14 0)
(-1 -1.71997e-14 0)
(-1 4.91633e-14 0)
(-1 -1.60058e-14 0)
(-1 -3.86461e-14 0)
(-1 1.86186e-17 0)
(-1 -2.94681e-18 0)
(-1 -3.27686e-17 0)
(-1 -1.6049e-17 0)
(-1 -4.69679e-19 0)
(-1 2.16366e-17 0)
(-1 1.79375e-17 0)
(-1 9.26124e-18 0)
(-1 2.9466e-17 0)
(-1 3.30204e-17 0)
(-1 -4.74917e-18 0)
(-1 5.46173e-18 0)
(-1 1.03469e-17 0)
(-1 -2.9363e-17 0)
(-1 -3.74634e-17 0)
(-1 -2.87624e-17 0)
(-1 -1.02339e-17 0)
(-1 1.35666e-17 0)
(-1 3.77299e-18 0)
(-1 -1.14076e-17 0)
(-1 5.78359e-14 0)
(-1 -1.24118e-14 0)
(-1 3.04182e-15 0)
(-1 -6.00179e-16 0)
(-1 1.70407e-16 0)
(-1 8.81056e-18 0)
(-1 4.53306e-17 0)
(-1 3.00757e-17 0)
(-1 2.20418e-17 0)
(-1 -3.08331e-18 0)
(-1 -2.98284e-17 0)
(-1 -2.27057e-17 0)
(-1 3.71762e-17 0)
(-1 9.46932e-17 0)
(-1 9.47388e-17 0)
(-1 3.64307e-17 0)
(-1 -1.70705e-17 0)
(-1 -4.63976e-17 0)
(-1 -1.06607e-17 0)
(-1 1.86186e-17 0)
)
;
    }
    frontAndBack
    {
        type            empty;
    }
}


// ************************************************************************* //
