/*--------------------------------*- C++ -*----------------------------------*\
| =========                 |                                                 |
| \\      /  F ield         | OpenFOAM: The Open Source CFD Toolbox           |
|  \\    /   O peration     | Version:  2312                                  |
|   \\  /    A nd           | Website:  www.openfoam.com                      |
|    \\/     M anipulation  |                                                 |
\*---------------------------------------------------------------------------*/
FoamFile
{
    version     2.0;
    format      ascii;
    arch        "LSB;label=32;scalar=64";
    class       volSymmTensorField;
    location    "9.5";
    object      UPrime2Mean;
}
// * * * * * * * * * * * * * * * * * * * * * * * * * * * * * * * * * * * * * //

dimensions      [0 2 -2 0 0 0 0];

internalField   nonuniform List<symmTensor> 
400
(
(0.193836 2.88726e-05 0 1.21991e-08 0 0)
(0.193361 0.000131025 0 1.1738e-07 0 0)
(0.192486 0.000196427 0 2.67721e-07 0 0)
(0.191479 0.000228661 0 3.71907e-07 0 0)
(0.190373 0.000257859 0 5.10388e-07 0 0)
(0.189142 0.000296027 0 7.81513e-07 0 0)
(0.187753 0.000345171 0 1.31069e-06 0 0)
(0.186204 0.000395795 0 2.17637e-06 0 0)
(0.184568 0.00041871 0 2.93011e-06 0 0)
(0.183013 0.000386489 0 2.86893e-06 0 0)
(0.181772 0.000287635 0 1.83708e-06 0 0)
(0.181074 0.000129516 0 5.59685e-07 0 0)
(0.181098 -8.34362e-05 0 1.01929e-07 0 0)
(0.181999 -0.000311353 0 1.07864e-06 0 0)
(0.183772 -0.00052763 0 3.34959e-06 0 0)
(0.186243 -0.000677828 0 5.65931e-06 0 0)
(0.189068 -0.000693447 0 5.83497e-06 0 0)
(0.191809 -0.000515072 0 2.93937e-06 0 0)
(0.193658 -0.000209264 0 3.41492e-07 0 0)
(0.194103 5.13601e-05 0 1.60668e-07 0 0)
(0.193584 0.000284961 0 5.63502e-07 0 0)
(0.192641 0.000610644 0 2.85665e-06 0 0)
(0.191359 0.000784689 0 4.91199e-06 0 0)
(0.189934 0.000871271 0 6.31065e-06 0 0)
(0.188409 0.000953062 0 8.2329e-06 0 0)
(0.186761 0.00105452 0 1.17642e-05 0 0)
(0.184976 0.00115685 0 1.71465e-05 0 0)
(0.183104 0.00121755 0 2.26661e-05 0 0)
(0.181251 0.00118653 0 2.48153e-05 0 0)
(0.179569 0.00102384 0 2.08893e-05 0 0)
(0.178236 0.00071345 0 1.1989e-05 0 0)
(0.177441 0.00026285 0 3.15327e-06 0 0)
(0.177367 -0.000303472 0 1.0972e-06 0 0)
(0.178152 -0.00093392 0 1.09802e-05 0 0)
(0.179886 -0.00154254 0 3.2488e-05 0 0)
(0.182514 -0.00199637 0 5.58669e-05 0 0)
(0.185808 -0.00213119 0 6.36085e-05 0 0)
(0.189358 -0.00177429 0 4.18702e-05 0 0)
(0.192513 -0.000944246 0 9.50851e-06 0 0)
(0.193909 -5.39498e-05 0 6.79437e-07 0 0)
(0.193345 0.000789683 0 4.70662e-06 0 0)
(0.192132 0.00126259 0 1.31833e-05 0 0)
(0.190703 0.001511 0 1.97594e-05 0 0)
(0.189115 0.00165822 0 2.50127e-05 0 0)
(0.187407 0.00180048 0 3.2455e-05 0 0)
(0.18557 0.00196121 0 4.47987e-05 0 0)
(0.183599 0.00210511 0 6.11408e-05 0 0)
(0.181535 0.00216922 0 7.53858e-05 0 0)
(0.179471 0.0020857 0 7.84116e-05 0 0)
(0.177541 0.0018022 0 6.47524e-05 0 0)
(0.17592 0.00129146 0 3.80003e-05 0 0)
(0.174805 0.00055061 0 1.09681e-05 0 0)
(0.174389 -0.000389167 0 2.09693e-06 0 0)
(0.174816 -0.00146319 0 2.77292e-05 0 0)
(0.176201 -0.00255479 0 9.30772e-05 0 0)
(0.178644 -0.0034743 0 0.000179843 0 0)
(0.182127 -0.00394889 0 0.00023733 0 0)
(0.186404 -0.00364335 0 0.000201113 0 0)
(0.190855 -0.00234702 0 7.64715e-05 0 0)
(0.19368 -0.000560321 0 2.85673e-06 0 0)
(0.193206 0.00141248 0 1.59609e-05 0 0)
(0.191834 0.00198121 0 3.38116e-05 0 0)
(0.190333 0.00228173 0 4.71225e-05 0 0)
(0.188692 0.00249115 0 5.95948e-05 0 0)
(0.186926 0.00270176 0 7.75153e-05 0 0)
(0.185007 0.00293109 0 0.000105059 0 0)
(0.18292 0.00313352 0 0.000139036 0 0)
(0.180697 0.00322617 0 0.000166139 0 0)
(0.178426 0.00311752 0 0.00016893 0 0)
(0.176255 0.00273272 0 0.000138411 0 0)
(0.174371 0.00202913 0 8.27666e-05 0 0)
(0.172976 0.00100408 0 2.65529e-05 0 0)
(0.172246 -0.000306542 0 2.79163e-06 0 0)
(0.172319 -0.00182179 0 4.21722e-05 0 0)
(0.173288 -0.00341166 0 0.000159482 0 0)
(0.175287 -0.00488044 0 0.000340504 0 0)
(0.178507 -0.00590509 0 0.000517411 0 0)
(0.183051 -0.00599214 0 0.000551298 0 0)
(0.188526 -0.00454226 0 0.000319915 0 0)
(0.193122 -0.00152437 0 3.00127e-05 0 0)
(0.193157 0.00209809 0 3.65408e-05 0 0)
(0.191727 0.00274093 0 6.62665e-05 0 0)
(0.190225 0.0030745 0 8.76201e-05 0 0)
(0.188605 0.00333834 0 0.000110027 0 0)
(0.186858 0.00362284 0 0.000143102 0 0)
(0.184942 0.00393966 0 0.000192219 0 0)
(0.182828 0.00422721 0 0.000249558 0 0)
(0.180541 0.00437684 0 0.000291702 0 0)
(0.178181 0.00426525 0 0.000291406 0 0)
(0.175919 0.00378915 0 0.00023715 0 0)
(0.173958 0.00289537 0 0.000144652 0 0)
(0.172477 0.00159272 0 5.20648e-05 0 0)
(0.171603 -6.43302e-05 0 5.67838e-06 0 0)
(0.171419 -0.00197604 0 4.77975e-05 0 0)
(0.172014 -0.0040168 0 0.000203082 0 0)
(0.17345 -0.00602365 0 0.000470479 0 0)
(0.176014 -0.00770986 0 0.000800792 0 0)
(0.180175 -0.00851097 0 0.00103215 0 0)
(0.186037 -0.00742045 0 0.000840945 0 0)
(0.19198 -0.00338672 0 0.000188985 0 0)
(0.19318 0.00279264 0 6.60327e-05 0 0)
(0.191782 0.00349842 0 0.000108919 0 0)
(0.190344 0.00385531 0 0.000138684 0 0)
(0.188813 0.00417017 0 0.00017279 0 0)
(0.187163 0.00453403 0 0.000224208 0 0)
(0.18535 0.00495196 0 0.000298502 0 0)
(0.183334 0.00534311 0 0.00038125 0 0)
(0.181137 0.00556671 0 0.000437496 0 0)
(0.178861 0.00545916 0 0.000430232 0 0)
(0.17667 0.00488997 0 0.000348624 0 0)
(0.174733 0.00380498 0 0.000218506 0 0)
(0.173193 0.00223021 0 8.94842e-05 0 0)
(0.172186 0.000249374 0 1.80006e-05 0 0)
(0.171832 -0.00202898 0 5.45406e-05 0 0)
(0.172185 -0.00446126 0 0.000231862 0 0)
(0.173231 -0.00690876 0 0.000557155 0 0)
(0.17512 -0.0091971 0 0.00101177 0 0)
(0.17847 -0.0108736 0 0.00149387 0 0)
(0.184049 -0.0106764 0 0.00158785 0 0)
(0.190769 -0.00618093 0 0.000625655 0 0)
(0.193255 0.00345007 0 0.000101246 0 0)
(0.191964 0.00421637 0 0.000157527 0 0)
(0.190649 0.00459116 0 0.000195022 0 0)
(0.18927 0.0049492 0 0.000240352 0 0)
(0.187802 0.00538672 0 0.000309421 0 0)
(0.186205 0.00590585 0 0.000407621 0 0)
(0.184436 0.00640458 0 0.000513237 0 0)
(0.182501 0.00671027 0 0.000581265 0 0)
(0.180471 0.00662334 0 0.000568141 0 0)
(0.178454 0.0059912 0 0.000465525 0 0)
(0.176559 0.00475504 0 0.000305899 0 0)
(0.174921 0.00294083 0 0.000144793 0 0)
(0.173729 0.000635386 0 4.67546e-05 0 0)
(0.173175 -0.00202224 0 7.26467e-05 0 0)
(0.173324 -0.00484741 0 0.00026269 0 0)
(0.174127 -0.00766601 0 0.00062564 0 0)
(0.17556 -0.0104065 0 0.00116033 0 0)
(0.178064 -0.0128807 0 0.00184742 0 0)
(0.182915 -0.0139169 0 0.00237491 0 0)
(0.189839 -0.00976141 0 0.00141988 0 0)
(0.193366 0.004033 0 0.000137052 0 0)
(0.192238 0.00486318 0 0.000206245 0 0)
(0.191095 0.00525016 0 0.00024959 0 0)
(0.189925 0.00563682 0 0.000303025 0 0)
(0.188714 0.00612843 0 0.000384569 0 0)
(0.187437 0.00672919 0 0.000499591 0 0)
(0.186062 0.00732422 0 0.000621445 0 0)
(0.184557 0.00772571 0 0.000701501 0 0)
(0.18293 0.00769887 0 0.000690677 0 0)
(0.181209 0.00706262 0 0.000579767 0 0)
(0.179435 0.00574743 0 0.000404052 0 0)
(0.177735 0.00375086 0 0.000219216 0 0)
(0.176353 0.0011388 0 9.55893e-05 0 0)
(0.175521 -0.00191732 0 0.000106395 0 0)
(0.175366 -0.00515732 0 0.000299206 0 0)
(0.175847 -0.00833498 0 0.000685089 0 0)
(0.17689 -0.0114326 0 0.00127255 0 0)
(0.178668 -0.0145168 0 0.00209856 0 0)
(0.182611 -0.016883 0 0.00306745 0 0)
(0.189302 -0.0138211 0 0.00250417 0 0)
(0.193495 0.0045146 0 0.000167948 0 0)
(0.19257 0.00541343 0 0.000248882 0 0)
(0.191634 0.0058063 0 0.000295522 0 0)
(0.190711 0.00620154 0 0.00035217 0 0)
(0.18981 0.00671609 0 0.000437947 0 0)
(0.188933 0.00736117 0 0.000558369 0 0)
(0.188053 0.0080223 0 0.000686313 0 0)
(0.187116 0.00851463 0 0.000775499 0 0)
(0.186065 0.00858836 0 0.000775825 0 0)
(0.184841 0.00804243 0 0.000676206 0 0)
(0.183384 0.00675587 0 0.000503909 0 0)
(0.181777 0.0046618 0 0.000307493 0 0)
(0.180241 0.00179678 0 0.000162961 0 0)
(0.179081 -0.00164338 0 0.000153598 0 0)
(0.17848 -0.00528325 0 0.000332793 0 0)
(0.178427 -0.00882299 0 0.000720612 0 0)
(0.17891 -0.0122467 0 0.00134041 0 0)
(0.17996 -0.0158109 0 0.00226526 0 0)
(0.182906 -0.019465 0 0.00362867 0 0)
(0.189058 -0.0180303 0 0.00373177 0 0)
(0.193627 0.00488084 0 0.000189704 0 0)
(0.192926 0.00585142 0 0.000280589 0 0)
(0.192216 0.00624334 0 0.000327933 0 0)
(0.191554 0.00662282 0 0.000382251 0 0)
(0.190981 0.00711923 0 0.000462664 0 0)
(0.19053 0.00775578 0 0.000575209 0 0)
(0.190191 0.00843906 0 0.000698055 0 0)
(0.189905 0.00899518 0 0.000789622 0 0)
(0.189569 0.00918575 0 0.000804779 0 0)
(0.189055 0.00878509 0 0.000727424 0 0)
(0.188228 0.00763612 0 0.000578049 0 0)
(0.18702 0.00561049 0 0.000395988 0 0)
(0.185518 0.00265337 0 0.00024305 0 0)
(0.184041 -0.00105267 0 0.000205479 0 0)
(0.182792 -0.00505691 0 0.000347917 0 0)
(0.18193 -0.00897281 0 0.000709389 0 0)
(0.181601 -0.0127247 0 0.00133606 0 0)
(0.181772 -0.0167274 0 0.00233793 0 0)
(0.183623 -0.0215708 0 0.0040385 0 0)
(0.188909 -0.0221632 0 0.00498897 0 0)
(0.19375 0.00512922 0 0.000200189 0 0)
(0.193267 0.00617198 0 0.000298785 0 0)
(0.192781 0.00655484 0 0.000344562 0 0)
(0.192374 0.0068944 0 0.000391929 0 0)
(0.192114 0.00733197 0 0.000459307 0 0)
(0.192061 0.00790293 0 0.000552839 0 0)
(0.192228 0.00854207 0 0.000657482 0 0)
(0.192581 0.00909948 0 0.000739605 0 0)
(0.193001 0.00936907 0 0.000763234 0 0)
(0.19333 0.00913083 0 0.000711697 0 0)
(0.193353 0.00820373 0 0.000598944 0 0)
(0.192907 0.00641648 0 0.000454362 0 0)
(0.191813 0.00360436 0 0.000317392 0 0)
(0.190105 -0.000140978 0 0.000252412 0 0)
(0.188104 -0.00436849 0 0.000334741 0 0)
(0.186257 -0.00861056 0 0.000636661 0 0)
(0.184902 -0.0127199 0 0.00123778 0 0)
(0.184014 -0.0171504 0 0.0022863 0 0)
(0.184643 -0.0231388 0 0.00428413 0 0)
(0.188748 -0.0261011 0 0.00620712 0 0)
(0.193845 0.00527043 0 0.000199848 0 0)
(0.193556 0.00638131 0 0.000303496 0 0)
(0.193274 0.00674619 0 0.000346112 0 0)
(0.193098 0.00702482 0 0.000383706 0 0)
(0.193111 0.00736967 0 0.00043378 0 0)
(0.193389 0.00782492 0 0.000501924 0 0)
(0.193965 0.00835161 0 0.000578906 0 0)
(0.194827 0.00883151 0 0.000640589 0 0)
(0.195882 0.00909688 0 0.000660799 0 0)
(0.196967 0.00896065 0 0.000626785 0 0)
(0.197855 0.00824914 0 0.000548617 0 0)
(0.198289 0.00679057 0 0.000449981 0 0)
(0.197918 0.00441791 0 0.000356265 0 0)
(0.196425 0.00103541 0 0.000288452 0 0)
(0.193912 -0.0031485 0 0.000304736 0 0)
(0.191088 -0.00761629 0 0.00051421 0 0)
(0.188622 -0.0121137 0 0.00104733 0 0)
(0.186582 -0.0169854 0 0.00209779 0 0)
(0.185864 -0.0241067 0 0.00434836 0 0)
(0.188541 -0.0298009 0 0.00736665 0 0)
(0.193896 0.005329 0 0.000191502 0 0)
(0.193754 0.00649484 0 0.000296865 0 0)
(0.193644 0.00683052 0 0.000335211 0 0)
(0.193666 0.00703121 0 0.000362027 0 0)
(0.193909 0.00726117 0 0.000394195 0 0)
(0.194441 0.00757097 0 0.000436759 0 0)
(0.195305 0.00794116 0 0.000484509 0 0)
(0.1965 0.00828467 0 0.000521915 0 0)
(0.197956 0.00847233 0 0.000531805 0 0)
(0.199527 0.00835508 0 0.000505607 0 0)
(0.200999 0.00779013 0 0.000451157 0 0)
(0.202089 0.00664776 0 0.000389094 0 0)
(0.20243 0.00478672 0 0.000336391 0 0)
(0.201527 0.00206978 0 0.000296 0 0)
(0.199169 -0.00162672 0 0.000274531 0 0)
(0.195854 -0.00609169 0 0.000380254 0 0)
(0.192447 -0.0108677 0 0.000797157 0 0)
(0.18932 -0.0161734 0 0.00178494 0 0)
(0.187173 -0.0244194 0 0.00421845 0 0)
(0.188264 -0.0332477 0 0.00846961 0 0)
(0.193885 0.00535565 0 0.0001802 0 0)
(0.193823 0.00654111 0 0.000282955 0 0)
(0.193845 0.00682593 0 0.000315475 0 0)
(0.194038 0.00693184 0 0.000331456 0 0)
(0.194476 0.00703491 0 0.000347505 0 0)
(0.195207 0.00719113 0 0.000368528 0 0)
(0.196263 0.00739356 0 0.000391853 0 0)
(0.197641 0.00758305 0 0.00040866 0 0)
(0.199283 0.00766364 0 0.000408576 0 0)
(0.201065 0.00752284 0 0.000386376 0 0)
(0.202796 0.00705428 0 0.000347346 0 0)
(0.204217 0.00617248 0 0.000306455 0 0)
(0.205025 0.0047879 0 0.000277868 0 0)
(0.204811 0.00273725 0 0.000259972 0 0)
(0.203093 -0.000214318 0 0.000244654 0 0)
(0.199969 -0.00426679 0 0.000272224 0 0)
(0.196074 -0.00905982 0 0.000541082 0 0)
(0.19207 -0.0147203 0 0.0013896 0 0)
(0.188531 -0.0239752 0 0.00387085 0 0)
(0.187923 -0.0363342 0 0.00947922 0 0)
(0.193785 0.00535263 0 0.000168069 0 0)
(0.193701 0.00653113 0 0.000264637 0 0)
(0.193826 0.00673711 0 0.000289482 0 0)
(0.194181 0.00673134 0 0.000294939 0 0)
(0.194805 0.00670375 0 0.000297675 0 0)
(0.195713 0.00671332 0 0.000302546 0 0)
(0.196915 0.00676147 0 0.000308559 0 0)
(0.198397 0.00680948 0 0.000311123 0 0)
(0.200108 0.00679029 0 0.000304606 0 0)
(0.201941 0.00662314 0 0.000285954 0 0)
(0.203736 0.00623246 0 0.000257898 0 0)
(0.205292 0.00555786 0 0.000228859 0 0)
(0.206376 0.00453618 0 0.000208791 0 0)
(0.206696 0.00304387 0 0.000201168 0 0)
(0.205786 0.000824887 0 0.000196984 0 0)
(0.203313 -0.00246115 0 0.000200807 0 0)
(0.199451 -0.00689346 0 0.000331337 0 0)
(0.194859 -0.012739 0 0.000979177 0 0)
(0.19025 -0.0226454 0 0.00329127 0 0)
(0.187664 -0.0389395 0 0.0103256 0 0)
(0.193548 0.0056124 0 0.000174843 0 0)
(0.193379 0.00658201 0 0.000253833 0 0)
(0.193576 0.00660776 0 0.000263707 0 0)
(0.194093 0.0064473 0 0.000256679 0 0)
(0.194915 0.00627954 0 0.000247927 0 0)
(0.196011 0.00615284 0 0.000241209 0 0)
(0.197364 0.00606998 0 0.000236199 0 0)
(0.198943 0.00600307 0 0.000230373 0 0)
(0.2007 0.00590565 0 0.000220743 0 0)
(0.202547 0.00572184 0 0.000205464 0 0)
(0.20436 0.0053968 0 0.000185319 0 0)
(0.205984 0.00488286 0 0.000163979 0 0)
(0.20724 0.00413286 0 0.000146898 0 0)
(0.20792 0.00306385 0 0.000138688 0 0)
(0.207671 0.00146684 0 0.00013638 0 0)
(0.20606 -0.00101214 0 0.000137943 0 0)
(0.202514 -0.00471886 0 0.000190098 0 0)
(0.19818 -0.010527 0 0.000633659 0 0)
(0.193061 -0.0205147 0 0.00256043 0 0)
(0.18778 -0.0413539 0 0.0111064 0 0)
(0.193019 0.00524733 0 0.000148187 0 0)
(0.192486 0.00615237 0 0.000211467 0 0)
(0.192926 0.00613521 0 0.000216685 0 0)
(0.193758 0.00592465 0 0.000206793 0 0)
(0.194867 0.00568659 0 0.000194084 0 0)
(0.196211 0.00547303 0 0.000182264 0 0)
(0.19777 0.0053022 0 0.000172324 0 0)
(0.199505 0.00515957 0 0.000163216 0 0)
(0.201367 0.00501351 0 0.000153272 0 0)
(0.20329 0.00482521 0 0.000141236 0 0)
(0.205177 0.00455495 0 0.000126935 0 0)
(0.206917 0.00416549 0 0.000111478 0 0)
(0.208354 0.00362551 0 9.71017e-05 0 0)
(0.209315 0.00287405 0 8.61384e-05 0 0)
(0.20952 0.00177503 0 7.99132e-05 0 0)
(0.208727 -1.16524e-05 0 7.71174e-05 0 0)
(0.205612 -0.00281041 0 0.000102811 0 0)
(0.203017 -0.0084906 0 0.000402472 0 0)
(0.19689 -0.0180206 0 0.00185923 0 0)
(0.18864 -0.0443251 0 0.0121065 0 0)
(0.192292 0.00846361 0 0.000381816 0 0)
(0.191737 0.00812767 0 0.000361574 0 0)
(0.192624 0.00708226 0 0.000280145 0 0)
(0.19386 0.00616364 0 0.000215771 0 0)
(0.195327 0.00551519 0 0.000175212 0 0)
(0.197049 0.00504229 0 0.000148083 0 0)
(0.198986 0.00469438 0 0.000129254 0 0)
(0.201067 0.0044291 0 0.000115273 0 0)
(0.203233 0.00420385 0 0.000103579 0 0)
(0.205426 0.00398323 0 9.26335e-05 0 0)
(0.207574 0.00373876 0 8.17431e-05 0 0)
(0.209569 0.00344814 0 7.08519e-05 0 0)
(0.211285 0.00308481 0 6.00096e-05 0 0)
(0.212602 0.00260584 0 4.91531e-05 0 0)
(0.213222 0.00193417 0 3.86903e-05 0 0)
(0.21325 0.00073683 0 2.86825e-05 0 0)
(0.210427 -0.00131902 0 4.01543e-05 0 0)
(0.211749 -0.00654133 0 0.000246843 0 0)
(0.199519 -0.0144156 0 0.00113136 0 0)
(0.192599 -0.0471561 0 0.0126483 0 0)
(0.191321 0.00315739 0 5.53316e-05 0 0)
(0.190316 0.00193344 0 2.0928e-05 0 0)
(0.193433 0.00202261 0 2.2824e-05 0 0)
(0.19693 0.00257786 0 3.69425e-05 0 0)
(0.200575 0.00273489 0 4.14088e-05 0 0)
(0.204161 0.00266797 0 3.93588e-05 0 0)
(0.207591 0.00257639 0 3.6588e-05 0 0)
(0.210863 0.00250397 0 3.43628e-05 0 0)
(0.214 0.00243481 0 3.2262e-05 0 0)
(0.217015 0.00235328 0 2.9911e-05 0 0)
(0.219894 0.00225261 0 2.72415e-05 0 0)
(0.2226 0.00212628 0 2.42532e-05 0 0)
(0.225058 0.00196579 0 2.0933e-05 0 0)
(0.227256 0.00173603 0 1.67819e-05 0 0)
(0.228809 0.00141146 0 1.18197e-05 0 0)
(0.230407 0.00072487 0 4.92218e-06 0 0)
(0.227629 -0.000247267 0 6.28485e-06 0 0)
(0.232996 -0.00365745 0 8.40726e-05 0 0)
(0.2032 -0.00758289 0 0.000322242 0 0)
(0.217313 -0.0438588 0 0.00923516 0 0)
(0.209769 0.0185514 0 0.0016521 0 0)
(0.218201 0.0138478 0 0.000909337 0 0)
(0.228375 0.00869949 0 0.000352831 0 0)
(0.237151 0.00580202 0 0.000155076 0 0)
(0.243942 0.00427862 0 8.35263e-05 0 0)
(0.249674 0.00338553 0 5.17528e-05 0 0)
(0.254928 0.00279822 0 3.4946e-05 0 0)
(0.25984 0.00238199 0 2.50174e-05 0 0)
(0.264439 0.00206921 0 1.86567e-05 0 0)
(0.268758 0.00182548 0 1.43607e-05 0 0)
(0.272819 0.00162711 0 1.12941e-05 0 0)
(0.276623 0.00145845 0 8.99095e-06 0 0)
(0.280123 0.00130819 0 7.17305e-06 0 0)
(0.283338 0.00116235 0 5.61155e-06 0 0)
(0.285812 0.000999462 0 4.10204e-06 0 0)
(0.288578 0.000766827 0 2.33422e-06 0 0)
(0.286002 0.00047851 0 9.31438e-07 0 0)
(0.29655 -0.000558161 0 3.64261e-06 0 0)
(0.241619 0.0011789 0 2.86499e-05 0 0)
(0.360904 -0.0254315 0 0.0018014 0 0)
)
;

boundaryField
{
    movingWall
    {
        type            calculated;
        value           uniform (0.775623 0 0 0 0 0);
    }
    fixedWalls
    {
        type            calculated;
        value           uniform (0.193906 0 0 0 0 0);
    }
    frontAndBack
    {
        type            empty;
    }
}


// ************************************************************************* //
