/*--------------------------------*- C++ -*----------------------------------*\
| =========                 |                                                 |
| \\      /  F ield         | OpenFOAM: The Open Source CFD Toolbox           |
|  \\    /   O peration     | Version:  2312                                  |
|   \\  /    A nd           | Website:  www.openfoam.com                      |
|    \\/     M anipulation  |                                                 |
\*---------------------------------------------------------------------------*/
FoamFile
{
    version     2.0;
    format      ascii;
    arch        "LSB;label=32;scalar=64";
    class       volVectorField;
    location    "9.5";
    object      vorticityField;
}
// * * * * * * * * * * * * * * * * * * * * * * * * * * * * * * * * * * * * * //

dimensions      [0 0 -1 0 0 0 0];

internalField   nonuniform List<vector> 
400
(
(0 -0 9.45867e-12)
(0 -0 -1.3319e-11)
(0 -0 2.8987e-12)
(0 -0 -7.44959e-13)
(0 -0 1.25142e-13)
(0 -0 -5.83741e-14)
(0 -0 -4.88938e-14)
(0 -0 -3.29273e-14)
(0 -0 -6.24999e-14)
(0 -0 -6.71777e-14)
(0 -0 -4.90559e-15)
(0 -0 -3.7459e-14)
(0 -0 2.93497e-14)
(0 -0 1.43906e-14)
(0 -0 -1.45656e-14)
(0 -0 -2.79523e-14)
(0 -0 6.06081e-14)
(0 -0 1.60245e-15)
(0 -0 1.6254e-14)
(0 -0 -1.98947e-15)
(0 -0 5.27172e-13)
(0 -0 -1.22023e-12)
(0 -0 2.77778e-13)
(0 -0 -1.39808e-13)
(0 -0 6.34641e-14)
(0 -0 8.51979e-14)
(0 -0 -1.97584e-15)
(0 -0 -5.55974e-15)
(0 -0 -1.2288e-15)
(0 -0 3.48109e-14)
(0 -0 1.26714e-14)
(0 -0 5.60577e-14)
(0 -0 3.7434e-16)
(0 -0 6.34865e-14)
(0 -0 7.64047e-15)
(0 -0 -1.76205e-14)
(0 -0 -1.10555e-13)
(0 -0 -4.83664e-15)
(0 -0 1.26848e-14)
(0 -0 8.10985e-15)
(0 -0 -4.58271e-12)
(0 -0 1.09934e-11)
(0 -0 -2.62849e-12)
(0 -0 5.06037e-13)
(0 -0 -2.78936e-13)
(0 -0 -4.8424e-14)
(0 -0 3.80801e-14)
(0 -0 9.59761e-14)
(0 -0 5.87398e-14)
(0 -0 4.0129e-14)
(0 -0 7.09383e-14)
(0 -0 4.03125e-14)
(0 -0 -2.64915e-14)
(0 -0 4.93115e-15)
(0 -0 2.63295e-14)
(0 -0 5.31164e-15)
(0 -0 -2.28131e-14)
(0 -0 -2.62903e-14)
(0 -0 -5.00256e-15)
(0 -0 -5.50369e-15)
(0 -0 2.89308e-12)
(0 -0 -6.92409e-12)
(0 -0 1.6082e-12)
(0 -0 -3.34908e-13)
(0 -0 7.83292e-14)
(0 -0 -2.5915e-14)
(0 -0 3.71811e-14)
(0 -0 -2.47071e-16)
(0 -0 -3.4205e-15)
(0 -0 5.69127e-14)
(0 -0 3.94998e-15)
(0 -0 -5.33265e-14)
(0 -0 5.30049e-14)
(0 -0 -2.51333e-15)
(0 -0 -1.20489e-14)
(0 -0 -3.69113e-14)
(0 -0 -5.60801e-14)
(0 -0 -3.21084e-14)
(0 -0 -2.62441e-14)
(0 -0 -1.46608e-14)
(0 -0 1.84367e-12)
(0 -0 -2.0243e-12)
(0 -0 4.66851e-13)
(0 -0 -4.84082e-14)
(0 -0 1.01459e-13)
(0 -0 -8.54002e-15)
(0 -0 -3.79828e-14)
(0 -0 -1.21486e-13)
(0 -0 6.00175e-15)
(0 -0 -3.35358e-14)
(0 -0 -8.1135e-14)
(0 -0 -6.87134e-14)
(0 -0 -1.24769e-13)
(0 -0 -1.25219e-13)
(0 -0 -6.14533e-14)
(0 -0 -2.35506e-14)
(0 -0 5.69909e-15)
(0 -0 7.04938e-15)
(0 -0 3.01595e-14)
(0 -0 2.71618e-14)
(0 -0 -7.09053e-12)
(0 -0 1.10083e-11)
(0 -0 -2.50908e-12)
(0 -0 6.103e-13)
(0 -0 -1.29849e-13)
(0 -0 5.39993e-15)
(0 -0 -2.64237e-14)
(0 -0 2.28614e-15)
(0 -0 -6.94233e-14)
(0 -0 -7.05912e-14)
(0 -0 -2.90839e-14)
(0 -0 8.84141e-15)
(0 -0 6.38444e-16)
(0 -0 -1.63027e-14)
(0 -0 5.29198e-14)
(0 -0 1.98905e-14)
(0 -0 7.19636e-14)
(0 -0 2.79585e-14)
(0 -0 -9.42973e-15)
(0 -0 -1.46357e-14)
(0 -0 7.7871e-12)
(0 -0 -1.27489e-11)
(0 -0 3.08507e-12)
(0 -0 -6.3835e-13)
(0 -0 2.19137e-13)
(0 -0 3.66819e-15)
(0 -0 6.348e-14)
(0 -0 1.09681e-13)
(0 -0 1.60735e-14)
(0 -0 -2.62663e-14)
(0 -0 2.53449e-14)
(0 -0 3.84355e-14)
(0 -0 5.83506e-14)
(0 -0 5.59902e-14)
(0 -0 6.32204e-14)
(0 -0 1.14487e-13)
(0 -0 8.26628e-14)
(0 -0 3.90485e-16)
(0 -0 -4.28535e-15)
(0 -0 1.41803e-14)
(0 -0 -5.43433e-13)
(0 -0 2.71876e-12)
(0 -0 -6.09706e-13)
(0 -0 2.19456e-13)
(0 -0 5.18147e-14)
(0 -0 1.2177e-13)
(0 -0 4.70647e-14)
(0 -0 2.77797e-14)
(0 -0 9.49662e-14)
(0 -0 1.11491e-13)
(0 -0 7.77043e-14)
(0 -0 1.09243e-13)
(0 -0 8.52851e-14)
(0 -0 9.37272e-14)
(0 -0 -1.32838e-15)
(0 -0 -7.85078e-14)
(0 -0 -1.04021e-13)
(0 -0 2.50228e-15)
(0 -0 1.46445e-14)
(0 -0 -2.68606e-14)
(0 -0 -7.48161e-12)
(0 -0 9.61423e-12)
(0 -0 -2.36385e-12)
(0 -0 4.12016e-13)
(0 -0 -2.13505e-13)
(0 -0 -7.08733e-14)
(0 -0 -8.52294e-14)
(0 -0 -7.76724e-14)
(0 -0 -4.80882e-14)
(0 -0 -7.26653e-14)
(0 -0 -1.07001e-13)
(0 -0 -7.60909e-14)
(0 -0 -7.30168e-14)
(0 -0 -8.56254e-14)
(0 -0 -1.05299e-13)
(0 -0 -7.09039e-14)
(0 -0 -4.39066e-14)
(0 -0 2.53185e-14)
(0 -0 -1.2418e-14)
(0 -0 1.46176e-14)
(0 -0 1.1264e-11)
(0 -0 -1.56731e-11)
(0 -0 3.70815e-12)
(0 -0 -8.53604e-13)
(0 -0 9.22882e-14)
(0 -0 -1.11796e-13)
(0 -0 1.57744e-14)
(0 -0 -2.58345e-14)
(0 -0 -2.5113e-14)
(0 -0 4.20737e-14)
(0 -0 3.86627e-14)
(0 -0 -2.93877e-14)
(0 -0 -4.4473e-14)
(0 -0 -7.76917e-14)
(0 -0 -8.16528e-15)
(0 -0 3.53522e-14)
(0 -0 7.45841e-14)
(0 -0 7.88332e-14)
(0 -0 3.05628e-14)
(0 -0 -2.19115e-14)
(0 -0 -1.07144e-11)
(0 -0 1.34062e-11)
(0 -0 -3.12752e-12)
(0 -0 7.40826e-13)
(0 -0 -1.56877e-13)
(0 -0 1.87804e-14)
(0 -0 -4.49604e-14)
(0 -0 3.31106e-15)
(0 -0 -2.88172e-16)
(0 -0 -2.96128e-14)
(0 -0 3.15311e-14)
(0 -0 1.27573e-14)
(0 -0 -2.86064e-14)
(0 -0 -1.85401e-14)
(0 -0 2.42389e-14)
(0 -0 4.01857e-14)
(0 -0 5.6343e-15)
(0 -0 -6.03848e-16)
(0 -0 -1.02567e-15)
(0 -0 -5.26344e-14)
(0 -0 6.29448e-12)
(0 -0 -6.99152e-12)
(0 -0 1.54019e-12)
(0 -0 -3.5794e-13)
(0 -0 1.195e-13)
(0 -0 4.09852e-14)
(0 -0 -9.14212e-15)
(0 -0 3.01057e-14)
(0 -0 3.8933e-15)
(0 -0 -9.92503e-15)
(0 -0 -2.83085e-14)
(0 -0 4.06223e-14)
(0 -0 5.32606e-15)
(0 -0 8.98291e-16)
(0 -0 6.61577e-14)
(0 -0 5.93723e-14)
(0 -0 -1.60943e-14)
(0 -0 -6.68532e-14)
(0 -0 6.19803e-14)
(0 -0 5.65343e-14)
(0 -0 1.21423e-12)
(0 -0 -2.45639e-12)
(0 -0 6.30709e-13)
(0 -0 -1.619e-13)
(0 -0 6.08235e-15)
(0 -0 7.46808e-15)
(0 -0 1.79509e-15)
(0 -0 -3.36044e-14)
(0 -0 -2.26928e-15)
(0 -0 -5.32718e-17)
(0 -0 -2.22423e-15)
(0 -0 1.39639e-15)
(0 -0 3.29782e-14)
(0 -0 1.04671e-14)
(0 -0 -4.63809e-14)
(0 -0 -1.24997e-14)
(0 -0 -4.01034e-14)
(0 -0 1.96867e-15)
(0 -0 8.46427e-15)
(0 -0 -3.94639e-16)
(0 -0 -7.18199e-12)
(0 -0 1.03947e-11)
(0 -0 -2.3139e-12)
(0 -0 5.68708e-13)
(0 -0 -1.06873e-13)
(0 -0 3.38357e-14)
(0 -0 2.31005e-14)
(0 -0 -1.5169e-14)
(0 -0 1.38475e-14)
(0 -0 2.9369e-14)
(0 -0 1.66947e-14)
(0 -0 4.89613e-14)
(0 -0 1.13009e-13)
(0 -0 1.43737e-13)
(0 -0 5.23831e-14)
(0 -0 -8.51096e-14)
(0 -0 -3.86648e-14)
(0 -0 5.4357e-14)
(0 -0 -5.85647e-14)
(0 -0 -1.19027e-14)
(0 -0 9.48623e-12)
(0 -0 -1.30066e-11)
(0 -0 3.10341e-12)
(0 -0 -6.0467e-13)
(0 -0 2.16458e-13)
(0 -0 6.57165e-14)
(0 -0 1.28566e-13)
(0 -0 1.05125e-13)
(0 -0 8.7259e-14)
(0 -0 9.07034e-14)
(0 -0 7.03309e-14)
(0 -0 6.11345e-15)
(0 -0 2.34538e-14)
(0 -0 4.05501e-14)
(0 -0 3.20988e-14)
(0 -0 4.00559e-15)
(0 -0 5.78151e-14)
(0 -0 -1.91126e-14)
(0 -0 -4.21041e-14)
(0 -0 4.6232e-14)
(0 -0 -5.52267e-12)
(0 -0 6.973e-12)
(0 -0 -1.797e-12)
(0 -0 3.39017e-13)
(0 -0 -1.15272e-13)
(0 -0 4.14792e-14)
(0 -0 2.19271e-14)
(0 -0 1.28408e-14)
(0 -0 -8.60175e-14)
(0 -0 -9.72119e-14)
(0 -0 -9.5673e-14)
(0 -0 -1.24605e-13)
(0 -0 -9.68822e-14)
(0 -0 -9.23223e-14)
(0 -0 -8.04951e-14)
(0 -0 2.12315e-14)
(0 -0 -1.48886e-14)
(0 -0 -8.57311e-14)
(0 -0 2.45229e-14)
(0 -0 -1.13019e-14)
(0 -0 -8.98437e-13)
(0 -0 3.37456e-12)
(0 -0 -8.69076e-13)
(0 -0 7.2725e-14)
(0 -0 -9.30359e-14)
(0 -0 -7.41131e-14)
(0 -0 -1.08858e-13)
(0 -0 -1.05524e-13)
(0 -0 -6.00031e-14)
(0 -0 -6.06148e-14)
(0 -0 -5.37464e-14)
(0 -0 -5.2175e-14)
(0 -0 -3.04071e-14)
(0 -0 -3.79965e-14)
(0 -0 -3.70144e-14)
(0 -0 4.66269e-15)
(0 -0 4.89048e-14)
(0 -0 1.79778e-14)
(0 -0 -5.29973e-15)
(0 -0 -2.54229e-15)
(0 -0 4.41247e-12)
(0 -0 -1.02521e-11)
(0 -0 2.51786e-12)
(0 -0 -5.07621e-13)
(0 -0 1.79987e-13)
(0 -0 -5.13562e-14)
(0 -0 -6.05548e-15)
(0 -0 3.07356e-14)
(0 -0 1.104e-13)
(0 -0 5.68719e-14)
(0 -0 1.23856e-13)
(0 -0 6.60009e-14)
(0 -0 7.11155e-14)
(0 -0 3.68383e-15)
(0 -0 -1.61398e-14)
(0 -0 6.93891e-14)
(0 -0 8.33203e-14)
(0 -0 8.67114e-14)
(0 -0 -7.30823e-15)
(0 -0 1.95071e-14)
(0 -0 -2.08546e-12)
(0 -0 3.44271e-12)
(0 -0 -8.39084e-13)
(0 -0 1.81812e-13)
(0 -0 -9.63399e-14)
(0 -0 -6.58408e-14)
(0 -0 -3.96783e-14)
(0 -0 -1.86655e-14)
(0 -0 -7.7822e-14)
(0 -0 -6.18899e-14)
(0 -0 -7.53765e-14)
(0 -0 -1.64196e-14)
(0 -0 -1.18667e-13)
(0 -0 -4.76313e-14)
(0 -0 -2.86732e-14)
(0 -0 -6.89483e-14)
(0 -0 -5.22749e-14)
(0 -0 -5.70556e-14)
(0 -0 -1.79281e-14)
(0 -0 -1.94044e-14)
(0 -0 -5.93428e-12)
(0 -0 8.81497e-12)
(0 -0 -1.83092e-12)
(0 -0 5.05906e-13)
(0 -0 -4.75342e-14)
(0 -0 6.23125e-14)
(0 -0 3.58064e-14)
(0 -0 2.95011e-14)
(0 -0 4.1739e-14)
(0 -0 5.88879e-14)
(0 -0 2.43277e-14)
(0 -0 5.12565e-14)
(0 -0 4.30634e-14)
(0 -0 2.00148e-14)
(0 -0 6.25505e-14)
(0 -0 3.17792e-14)
(0 -0 -4.44431e-15)
(0 -0 -1.38522e-15)
(0 -0 3.24046e-14)
(0 -0 3.69253e-14)
)
;

boundaryField
{
    movingWall
    {
        type            calculated;
        value           nonuniform List<vector> 
20
(
(0 -0 -1.2411e-11)
(0 -0 1.08105e-11)
(0 -0 -1.7173e-12)
(0 -0 7.89664e-13)
(0 -0 2.09118e-13)
(0 -0 3.18965e-13)
(0 -0 3.36868e-13)
(0 -0 2.24441e-13)
(0 -0 2.36679e-13)
(0 -0 2.26722e-13)
(0 -0 2.19267e-13)
(0 -0 1.74682e-13)
(0 -0 2.55307e-13)
(0 -0 1.70545e-13)
(0 -0 1.41567e-13)
(0 -0 1.37901e-13)
(0 -0 3.99646e-14)
(0 -0 -1.38522e-15)
(0 -0 4.97085e-14)
(0 -0 5.42291e-14)
)
;
    }
    fixedWalls
    {
        type            calculated;
        value           nonuniform List<vector> 
60
(
(0 -0 5.59385e-11)
(0 -0 5.78424e-12)
(0 -0 -4.69056e-11)
(0 -0 2.94058e-11)
(0 -0 8.67576e-12)
(0 -0 -4.64829e-11)
(0 -0 5.48366e-11)
(0 -0 -1.17972e-11)
(0 -0 -4.16502e-11)
(0 -0 6.70302e-11)
(0 -0 -5.7237e-11)
(0 -0 2.98154e-11)
(0 -0 1.05367e-11)
(0 -0 -4.43184e-11)
(0 -0 5.5646e-11)
(0 -0 -3.00995e-11)
(0 -0 -1.4706e-11)
(0 -0 4.39591e-11)
(0 -0 -1.49216e-11)
(0 -0 -3.69656e-11)
(0 -0 -1.86186e-14)
(0 -0 2.94681e-15)
(0 -0 5.66353e-15)
(0 -0 -1.1056e-14)
(0 -0 2.75747e-14)
(0 -0 -2.16366e-14)
(0 -0 9.16759e-15)
(0 -0 -3.63663e-14)
(0 -0 -2.36097e-15)
(0 -0 -3.30204e-14)
(0 -0 -4.94609e-14)
(0 -0 4.87484e-14)
(0 -0 -1.03469e-14)
(0 -0 2.25795e-15)
(0 -0 6.45685e-14)
(0 -0 1.65735e-15)
(0 -0 1.02339e-14)
(0 -0 1.35385e-14)
(0 -0 -3.0878e-14)
(0 -0 3.85127e-14)
(0 -0 1.68627e-11)
(0 -0 -1.58301e-11)
(0 -0 2.73086e-12)
(0 -0 -9.84308e-13)
(0 -0 -6.97972e-14)
(0 -0 -2.53314e-13)
(0 -0 -2.61137e-13)
(0 -0 -1.83458e-13)
(0 -0 -1.85925e-13)
(0 -0 -2.35012e-13)
(0 -0 -1.38132e-13)
(0 -0 -1.60885e-13)
(0 -0 -1.92695e-13)
(0 -0 -1.63245e-13)
(0 -0 -1.45656e-14)
(0 -0 6.08655e-14)
(0 -0 1.56929e-13)
(0 -0 1.60245e-15)
(0 -0 -2.81549e-14)
(0 -0 -1.98947e-15)
)
;
    }
    frontAndBack
    {
        type            empty;
    }
}


// ************************************************************************* //
