/*--------------------------------*- C++ -*----------------------------------*\
| =========                 |                                                 |
| \\      /  F ield         | OpenFOAM: The Open Source CFD Toolbox           |
|  \\    /   O peration     | Version:  2312                                  |
|   \\  /    A nd           | Website:  www.openfoam.com                      |
|    \\/     M anipulation  |                                                 |
\*---------------------------------------------------------------------------*/
FoamFile
{
    version     2.0;
    format      ascii;
    arch        "LSB;label=32;scalar=64";
    class       volVectorField;
    location    "9.5";
    object      wallShearStress;
}
// * * * * * * * * * * * * * * * * * * * * * * * * * * * * * * * * * * * * * //

dimensions      [0 2 -2 0 0 0 0];

internalField   uniform (0 0 0);

boundaryField
{
    movingWall
    {
        type            calculated;
        value           uniform (0 0 0);
    }
    fixedWalls
    {
        type            calculated;
        value           nonuniform List<vector> 
60
(
(1.80857e-16 -5.97333e-16 0)
(-3.58094e-16 -7.46475e-17 0)
(7.23085e-17 5.82355e-16 0)
(2.28474e-16 -3.65073e-16 0)
(-2.96974e-16 -8.29629e-17 0)
(2.19492e-16 5.1416e-16 0)
(3.04768e-17 -6.21008e-16 0)
(-2.25109e-16 1.6134e-16 0)
(2.26286e-16 4.33307e-16 0)
(-3.79156e-17 -7.14212e-16 0)
(-9.68757e-17 5.83212e-16 0)
(1.33295e-16 -2.86228e-16 0)
(-1.23221e-16 -1.25425e-16 0)
(4.02374e-17 4.79504e-16 0)
(1.24204e-16 -5.90612e-16 0)
(-2.52153e-16 3.10752e-16 0)
(2.57263e-16 1.96934e-16 0)
(7.911e-18 -5.43674e-16 0)
(-3.003e-16 1.709e-16 0)
(1.55035e-16 4.03266e-16 0)
(-2.61196e-20 -1.86186e-19 0)
(1.26988e-18 2.94681e-20 0)
(-5.70282e-19 5.98736e-19 0)
(-1.23807e-18 4.31541e-19 0)
(-6.54928e-19 -2.66354e-19 0)
(-6.22798e-19 -2.16366e-19 0)
(2.06255e-20 -4.50425e-19 0)
(-6.11333e-19 1.78438e-19 0)
(-3.95985e-20 -5.65711e-19 0)
(5.70253e-20 -3.30204e-19 0)
(-5.46188e-19 5.89593e-19 0)
(-1.2094e-18 -5.96718e-19 0)
(1.24228e-18 -1.03469e-19 0)
(-5.12435e-19 5.64681e-19 0)
(-1.001e-21 1.03584e-19 0)
(-4.53825e-20 5.58675e-19 0)
(-6.62667e-19 1.02339e-19 0)
(-6.15464e-19 -4.06716e-19 0)
(4.16237e-20 2.33321e-19 0)
(-6.04843e-19 -1.56974e-19 0)
(-5.84932e-17 -7.76747e-16 0)
(1.15669e-16 1.75068e-16 0)
(-3.17495e-17 -4.36296e-17 0)
(4.51401e-18 8.00239e-18 0)
(-3.74292e-18 -2.45279e-18 0)
(-1.90776e-18 6.32263e-20 0)
(-2.7177e-18 -7.85109e-19 0)
(-1.71813e-18 -5.81709e-19 0)
(-1.69346e-18 -2.9389e-19 0)
(-2.09077e-18 4.11107e-20 0)
(-1.28321e-18 2.17012e-19 0)
(-1.94387e-18 4.83442e-19 0)
(-2.51394e-18 -4.95683e-19 0)
(-1.92026e-18 -1.44328e-18 0)
(1.45656e-19 -1.62458e-18 0)
(1.1677e-18 -8.47143e-19 0)
(1.98343e-18 2.27607e-19 0)
(-1.60245e-20 9.80035e-19 0)
(-6.0663e-19 1.42143e-19 0)
(1.98947e-20 -2.48248e-19 0)
)
;
    }
    frontAndBack
    {
        type            empty;
    }
}


// ************************************************************************* //
