/*--------------------------------*- C++ -*----------------------------------*\
| =========                 |                                                 |
| \\      /  F ield         | OpenFOAM: The Open Source CFD Toolbox           |
|  \\    /   O peration     | Version:  2312                                  |
|   \\  /    A nd           | Website:  www.openfoam.com                      |
|    \\/     M anipulation  |                                                 |
\*---------------------------------------------------------------------------*/
FoamFile
{
    version     2.0;
    format      ascii;
    arch        "LSB;label=32;scalar=64";
    class       volScalarField;
    location    "9.5";
    object      yPlus;
}
// * * * * * * * * * * * * * * * * * * * * * * * * * * * * * * * * * * * * * //

dimensions      [0 0 0 0 0 0 0];

internalField   uniform 0;

boundaryField
{
    movingWall
    {
        type            calculated;
        value           nonuniform List<scalar> 
20
(
4.93347e-06
2.28449e-06
1.11501e-06
5.75676e-07
4.45041e-07
4.41363e-07
4.72007e-07
3.77353e-07
3.7325e-07
3.72635e-07
3.7253e-07
3.33234e-07
4.08316e-07
3.39168e-07
2.95171e-07
2.89449e-07
1.7626e-07
1.42754e-07
1.81024e-07
1.69283e-07
)
;
    }
    fixedWalls
    {
        type            calculated;
        value           nonuniform List<scalar> 
60
(
6.02585e-06
3.02496e-06
5.73442e-06
4.63003e-06
3.03375e-06
5.59038e-06
6.047e-06
3.02095e-06
5.18385e-06
6.57799e-06
6.01163e-06
4.27562e-06
2.68572e-06
5.37435e-06
6.01173e-06
4.47606e-06
3.4969e-06
5.54331e-06
3.51211e-06
4.93347e-06
1.07873e-07
2.35673e-07
1.85725e-07
2.37508e-07
1.66605e-07
1.75712e-07
1.05882e-07
1.68383e-07
1.35707e-07
1.43658e-07
1.67074e-07
2.3583e-07
2.36403e-07
1.82412e-07
1.53018e-07
1.34076e-07
1.68769e-07
1.70358e-07
4.85605e-08
1.69283e-07
6.02585e-06
2.80552e-06
1.38065e-06
6.40638e-07
4.18253e-07
3.72676e-07
4.11006e-07
3.35563e-07
3.34475e-07
3.72547e-07
2.9211e-07
3.34553e-07
3.75113e-07
3.547e-07
2.43335e-07
2.44948e-07
3.33967e-07
1.70289e-07
1.6895e-07
1.07873e-07
)
;
    }
    frontAndBack
    {
        type            empty;
    }
}


// ************************************************************************* //
