/*--------------------------------*- C++ -*----------------------------------*\
| =========                 |                                                 |
| \\      /  F ield         | OpenFOAM: The Open Source CFD Toolbox           |
|  \\    /   O peration     | Version:  2312                                  |
|   \\  /    A nd           | Website:  www.openfoam.com                      |
|    \\/     M anipulation  |                                                 |
\*---------------------------------------------------------------------------*/
FoamFile
{
    version     2.0;
    format      ascii;
    arch        "LSB;label=32;scalar=64";
    class       volVectorField;
    location    "2.875";
    object      diffU;
}
// * * * * * * * * * * * * * * * * * * * * * * * * * * * * * * * * * * * * * //

dimensions      [0 1 -1 0 0 0 0];

internalField   nonuniform List<vector> 
400
(
(0 0 0)
(7.64533e-07 -8.2247e-07 0)
(5.41799e-07 -6.18445e-07 0)
(6.20308e-07 -6.67239e-07 0)
(5.96869e-07 -6.55255e-07 0)
(6.05698e-07 -6.5809e-07 0)
(6.03732e-07 -6.57351e-07 0)
(6.05092e-07 -6.57457e-07 0)
(6.05212e-07 -6.57367e-07 0)
(6.05603e-07 -6.57332e-07 0)
(6.05798e-07 -6.57296e-07 0)
(6.0597e-07 -6.57269e-07 0)
(6.06083e-07 -6.57249e-07 0)
(6.06165e-07 -6.57233e-07 0)
(6.0622e-07 -6.57222e-07 0)
(6.06257e-07 -6.57214e-07 0)
(6.0628e-07 -6.57209e-07 0)
(6.06295e-07 -6.57205e-07 0)
(6.06304e-07 -6.57202e-07 0)
(6.06307e-07 -6.57199e-07 0)
(1.14687e-07 -1.29926e-06 0)
(7.47005e-07 -4.86816e-07 0)
(5.50768e-07 -6.99229e-07 0)
(6.1892e-07 -6.47526e-07 0)
(5.97279e-07 -6.61187e-07 0)
(6.05623e-07 -6.57563e-07 0)
(6.03794e-07 -6.58275e-07 0)
(6.05152e-07 -6.57842e-07 0)
(6.05269e-07 -6.57741e-07 0)
(6.05652e-07 -6.5759e-07 0)
(6.05835e-07 -6.57489e-07 0)
(6.05999e-07 -6.57407e-07 0)
(6.06104e-07 -6.57346e-07 0)
(6.0618e-07 -6.573e-07 0)
(6.06229e-07 -6.57267e-07 0)
(6.06263e-07 -6.57243e-07 0)
(6.06284e-07 -6.57227e-07 0)
(6.06297e-07 -6.57216e-07 0)
(6.06305e-07 -6.57208e-07 0)
(6.06307e-07 -6.57198e-07 0)
(-5.23084e-07 -2.99074e-08 0)
(8.87259e-07 -8.06396e-07 0)
(4.93861e-07 -6.2499e-07 0)
(6.31458e-07 -6.67849e-07 0)
(5.9292e-07 -6.57669e-07 0)
(6.06995e-07 -6.59549e-07 0)
(6.03669e-07 -6.58594e-07 0)
(6.05444e-07 -6.58363e-07 0)
(6.05396e-07 -6.58049e-07 0)
(6.05778e-07 -6.57833e-07 0)
(6.0592e-07 -6.5766e-07 0)
(6.06062e-07 -6.57529e-07 0)
(6.06148e-07 -6.57431e-07 0)
(6.0621e-07 -6.57357e-07 0)
(6.06249e-07 -6.57305e-07 0)
(6.06275e-07 -6.57268e-07 0)
(6.0629e-07 -6.57243e-07 0)
(6.063e-07 -6.57226e-07 0)
(6.06305e-07 -6.57213e-07 0)
(6.06307e-07 -6.57197e-07 0)
(-9.95824e-08 -1.0964e-06 0)
(8.07917e-07 -5.77621e-07 0)
(5.28715e-07 -6.8208e-07 0)
(6.2522e-07 -6.59337e-07 0)
(5.95825e-07 -6.61233e-07 0)
(6.06873e-07 -6.60006e-07 0)
(6.04261e-07 -6.59183e-07 0)
(6.05706e-07 -6.58748e-07 0)
(6.0565e-07 -6.58313e-07 0)
(6.05948e-07 -6.58029e-07 0)
(6.06049e-07 -6.57795e-07 0)
(6.06153e-07 -6.57625e-07 0)
(6.06212e-07 -6.57495e-07 0)
(6.06253e-07 -6.574e-07 0)
(6.06277e-07 -6.57331e-07 0)
(6.06292e-07 -6.57284e-07 0)
(6.06299e-07 -6.57252e-07 0)
(6.06304e-07 -6.57231e-07 0)
(6.06306e-07 -6.57216e-07 0)
(6.06307e-07 -6.57196e-07 0)
(-1.13028e-07 -1.39074e-07 0)
(7.7684e-07 -8.39244e-07 0)
(5.38146e-07 -6.2049e-07 0)
(6.21582e-07 -6.78298e-07 0)
(5.99373e-07 -6.57392e-07 0)
(6.0705e-07 -6.61879e-07 0)
(6.05166e-07 -6.59185e-07 0)
(6.06038e-07 -6.59116e-07 0)
(6.0599e-07 -6.58465e-07 0)
(6.06159e-07 -6.58166e-07 0)
(6.06212e-07 -6.57881e-07 0)
(6.06265e-07 -6.57684e-07 0)
(6.06291e-07 -6.57532e-07 0)
(6.06306e-07 -6.57422e-07 0)
(6.06312e-07 -6.57343e-07 0)
(6.06313e-07 -6.5729e-07 0)
(6.06311e-07 -6.57255e-07 0)
(6.06309e-07 -6.57232e-07 0)
(6.06308e-07 -6.57217e-07 0)
(6.06307e-07 -6.57194e-07 0)
(1.40637e-06 -1.01227e-06 0)
(4.08906e-07 -6.38471e-07 0)
(6.8204e-07 -6.67483e-07 0)
(5.86622e-07 -6.67299e-07 0)
(6.13082e-07 -6.60118e-07 0)
(6.04366e-07 -6.61417e-07 0)
(6.0696e-07 -6.59461e-07 0)
(6.06176e-07 -6.59185e-07 0)
(6.0644e-07 -6.58547e-07 0)
(6.06375e-07 -6.58215e-07 0)
(6.06401e-07 -6.57911e-07 0)
(6.06389e-07 -6.577e-07 0)
(6.0638e-07 -6.57537e-07 0)
(6.06366e-07 -6.5742e-07 0)
(6.06351e-07 -6.57337e-07 0)
(6.06336e-07 -6.57283e-07 0)
(6.06324e-07 -6.57249e-07 0)
(6.06314e-07 -6.57228e-07 0)
(6.06309e-07 -6.57215e-07 0)
(6.06307e-07 -6.57192e-07 0)
(1.52232e-06 -1.75573e-07 0)
(3.55944e-07 -7.76363e-07 0)
(6.99545e-07 -6.358e-07 0)
(5.80798e-07 -6.69994e-07 0)
(6.17061e-07 -6.59513e-07 0)
(6.04345e-07 -6.60994e-07 0)
(6.07953e-07 -6.59483e-07 0)
(6.06531e-07 -6.59079e-07 0)
(6.06826e-07 -6.5853e-07 0)
(6.06617e-07 -6.58176e-07 0)
(6.06591e-07 -6.57883e-07 0)
(6.0652e-07 -6.57668e-07 0)
(6.06473e-07 -6.57507e-07 0)
(6.06428e-07 -6.57392e-07 0)
(6.06391e-07 -6.57313e-07 0)
(6.06361e-07 -6.57263e-07 0)
(6.06337e-07 -6.57233e-07 0)
(6.0632e-07 -6.57217e-07 0)
(6.0631e-07 -6.5721e-07 0)
(6.06307e-07 -6.57189e-07 0)
(1.53626e-06 -1.12623e-06 0)
(3.44363e-07 -5.70578e-07 0)
(7.03593e-07 -6.83269e-07 0)
(5.80613e-07 -6.56179e-07 0)
(6.17964e-07 -6.61816e-07 0)
(6.04926e-07 -6.59641e-07 0)
(6.08463e-07 -6.59483e-07 0)
(6.06947e-07 -6.58825e-07 0)
(6.07147e-07 -6.58422e-07 0)
(6.06861e-07 -6.5806e-07 0)
(6.0677e-07 -6.57794e-07 0)
(6.06648e-07 -6.5759e-07 0)
(6.06562e-07 -6.57442e-07 0)
(6.06488e-07 -6.57338e-07 0)
(6.06429e-07 -6.5727e-07 0)
(6.06384e-07 -6.57229e-07 0)
(6.06349e-07 -6.57209e-07 0)
(6.06326e-07 -6.57201e-07 0)
(6.06312e-07 -6.57201e-07 0)
(6.06307e-07 -6.57186e-07 0)
(1.26456e-06 9.0223e-09 0)
(4.72089e-07 -7.5105e-07 0)
(6.67068e-07 -6.3798e-07 0)
(5.94939e-07 -6.61588e-07 0)
(6.13672e-07 -6.60043e-07 0)
(6.06639e-07 -6.5943e-07 0)
(6.08415e-07 -6.59159e-07 0)
(6.07434e-07 -6.58575e-07 0)
(6.074e-07 -6.58213e-07 0)
(6.07098e-07 -6.57883e-07 0)
(6.06933e-07 -6.57647e-07 0)
(6.06767e-07 -6.57468e-07 0)
(6.06643e-07 -6.57344e-07 0)
(6.06541e-07 -6.5726e-07 0)
(6.06463e-07 -6.57209e-07 0)
(6.06404e-07 -6.57183e-07 0)
(6.0636e-07 -6.57176e-07 0)
(6.0633e-07 -6.57179e-07 0)
(6.06313e-07 -6.5719e-07 0)
(6.06307e-07 -6.57182e-07 0)
(3.98046e-07 -1.61363e-06 0)
(5.68914e-07 -5.01329e-07 0)
(6.04387e-07 -6.97724e-07 0)
(5.98774e-07 -6.54827e-07 0)
(6.11209e-07 -6.60792e-07 0)
(6.07433e-07 -6.59153e-07 0)
(6.08724e-07 -6.58764e-07 0)
(6.07799e-07 -6.58299e-07 0)
(6.07669e-07 -6.57922e-07 0)
(6.07304e-07 -6.57645e-07 0)
(6.07078e-07 -6.57444e-07 0)
(6.06867e-07 -6.57305e-07 0)
(6.06709e-07 -6.57214e-07 0)
(6.06583e-07 -6.57159e-07 0)
(6.06489e-07 -6.57132e-07 0)
(6.06419e-07 -6.57127e-07 0)
(6.06368e-07 -6.57136e-07 0)
(6.06333e-07 -6.57153e-07 0)
(6.06314e-07 -6.57177e-07 0)
(6.06306e-07 -6.57179e-07 0)
(2.15677e-06 9.45867e-07 0)
(3.2442e-07 -9.60003e-07 0)
(7.37204e-07 -5.91191e-07 0)
(5.85363e-07 -6.73289e-07 0)
(6.18513e-07 -6.57457e-07 0)
(6.06655e-07 -6.59576e-07 0)
(6.09453e-07 -6.58348e-07 0)
(6.08078e-07 -6.57921e-07 0)
(6.07946e-07 -6.57562e-07 0)
(6.0748e-07 -6.57334e-07 0)
(6.07197e-07 -6.57188e-07 0)
(6.06941e-07 -6.57102e-07 0)
(6.06754e-07 -6.57056e-07 0)
(6.06609e-07 -6.5704e-07 0)
(6.06503e-07 -6.57044e-07 0)
(6.06426e-07 -6.57063e-07 0)
(6.06371e-07 -6.57092e-07 0)
(6.06335e-07 -6.57125e-07 0)
(6.06314e-07 -6.57162e-07 0)
(6.06306e-07 -6.57175e-07 0)
(-8.22065e-07 -2.94653e-06 0)
(7.81069e-07 -2.44185e-07 0)
(5.07473e-07 -7.60249e-07 0)
(6.15682e-07 -6.45354e-07 0)
(6.06907e-07 -6.62784e-07 0)
(6.10203e-07 -6.58222e-07 0)
(6.09488e-07 -6.57843e-07 0)
(6.08652e-07 -6.5739e-07 0)
(6.08151e-07 -6.5708e-07 0)
(6.07626e-07 -6.56948e-07 0)
(6.0727e-07 -6.56877e-07 0)
(6.06977e-07 -6.56864e-07 0)
(6.06767e-07 -6.56878e-07 0)
(6.06611e-07 -6.56908e-07 0)
(6.06501e-07 -6.56949e-07 0)
(6.06423e-07 -6.56997e-07 0)
(6.06369e-07 -6.57047e-07 0)
(6.06333e-07 -6.57096e-07 0)
(6.06313e-07 -6.57147e-07 0)
(6.06306e-07 -6.57172e-07 0)
(4.06289e-06 2.92256e-06 0)
(-4.40681e-08 -1.40689e-06 0)
(9.02047e-07 -4.89277e-07 0)
(5.58156e-07 -6.97884e-07 0)
(6.32882e-07 -6.51186e-07 0)
(6.05596e-07 -6.59607e-07 0)
(6.11522e-07 -6.56636e-07 0)
(6.08527e-07 -6.56727e-07 0)
(6.0842e-07 -6.5646e-07 0)
(6.07657e-07 -6.56474e-07 0)
(6.07283e-07 -6.56519e-07 0)
(6.06954e-07 -6.56601e-07 0)
(6.06739e-07 -6.56688e-07 0)
(6.06583e-07 -6.56774e-07 0)
(6.06479e-07 -6.56856e-07 0)
(6.06407e-07 -6.56933e-07 0)
(6.0636e-07 -6.57004e-07 0)
(6.06329e-07 -6.57069e-07 0)
(6.06312e-07 -6.57134e-07 0)
(6.06305e-07 -6.57169e-07 0)
(-2.51385e-06 -5.47165e-06 0)
(1.08124e-06 2.88779e-07 0)
(3.78865e-07 -8.85363e-07 0)
(6.4192e-07 -6.2036e-07 0)
(6.03156e-07 -6.65938e-07 0)
(6.14097e-07 -6.55197e-07 0)
(6.10322e-07 -6.55897e-07 0)
(6.0929e-07 -6.55654e-07 0)
(6.08329e-07 -6.55703e-07 0)
(6.07618e-07 -6.55928e-07 0)
(6.07177e-07 -6.56129e-07 0)
(6.06858e-07 -6.56334e-07 0)
(6.06655e-07 -6.56505e-07 0)
(6.06519e-07 -6.56652e-07 0)
(6.06433e-07 -6.56775e-07 0)
(6.06378e-07 -6.5688e-07 0)
(6.06343e-07 -6.5697e-07 0)
(6.06321e-07 -6.57049e-07 0)
(6.06309e-07 -6.57123e-07 0)
(6.06305e-07 -6.57168e-07 0)
(7.15263e-06 6.04632e-06 0)
(-7.1672e-07 -2.19012e-06 0)
(1.20287e-06 -3.00307e-07 0)
(5.00545e-07 -7.40291e-07 0)
(6.61459e-07 -6.35016e-07 0)
(6.01259e-07 -6.58731e-07 0)
(6.14418e-07 -6.5275e-07 0)
(6.08034e-07 -6.54637e-07 0)
(6.0838e-07 -6.54763e-07 0)
(6.0726e-07 -6.5536e-07 0)
(6.0696e-07 -6.5575e-07 0)
(6.06656e-07 -6.56094e-07 0)
(6.0651e-07 -6.56354e-07 0)
(6.06414e-07 -6.56558e-07 0)
(6.06363e-07 -6.56718e-07 0)
(6.06334e-07 -6.56846e-07 0)
(6.06318e-07 -6.5695e-07 0)
(6.0631e-07 -6.57037e-07 0)
(6.06306e-07 -6.57117e-07 0)
(6.06304e-07 -6.57168e-07 0)
(-3.13438e-06 -8.01727e-06 0)
(1.17695e-06 8.85867e-07 0)
(3.3404e-07 -1.00309e-06 0)
(6.52057e-07 -5.83013e-07 0)
(6.05748e-07 -6.62223e-07 0)
(6.14527e-07 -6.48565e-07 0)
(6.10429e-07 -6.51608e-07 0)
(6.08295e-07 -6.52946e-07 0)
(6.07497e-07 -6.53905e-07 0)
(6.06774e-07 -6.54846e-07 0)
(6.06532e-07 -6.55456e-07 0)
(6.06358e-07 -6.55933e-07 0)
(6.06299e-07 -6.56267e-07 0)
(6.06272e-07 -6.56515e-07 0)
(6.06271e-07 -6.56698e-07 0)
(6.06278e-07 -6.56839e-07 0)
(6.06287e-07 -6.56949e-07 0)
(6.06296e-07 -6.57037e-07 0)
(6.06302e-07 -6.57117e-07 0)
(6.06304e-07 -6.5717e-07 0)
(1.39391e-05 7.58554e-06 0)
(-2.47304e-06 -2.86356e-06 0)
(1.86343e-06 -1.12405e-07 0)
(3.25378e-07 -7.82555e-07 0)
(7.20981e-07 -6.06422e-07 0)
(5.8188e-07 -6.54919e-07 0)
(6.17416e-07 -6.46502e-07 0)
(6.04116e-07 -6.52155e-07 0)
(6.07014e-07 -6.53166e-07 0)
(6.05721e-07 -6.54587e-07 0)
(6.06009e-07 -6.55347e-07 0)
(6.05952e-07 -6.55908e-07 0)
(6.06046e-07 -6.56279e-07 0)
(6.06104e-07 -6.56541e-07 0)
(6.06167e-07 -6.56728e-07 0)
(6.06216e-07 -6.56866e-07 0)
(6.06254e-07 -6.5697e-07 0)
(6.06281e-07 -6.57052e-07 0)
(6.06297e-07 -6.57125e-07 0)
(6.06303e-07 -6.57173e-07 0)
(4.95047e-06 -1.10176e-05 0)
(-8.0648e-07 2.26439e-06 0)
(1.09268e-06 -1.27788e-06 0)
(4.6298e-07 -4.19416e-07 0)
(6.63635e-07 -6.78868e-07 0)
(5.90557e-07 -6.26782e-07 0)
(6.09706e-07 -6.51112e-07 0)
(6.02567e-07 -6.50019e-07 0)
(6.05004e-07 -6.53673e-07 0)
(6.04745e-07 -6.54601e-07 0)
(6.05313e-07 -6.5556e-07 0)
(6.05537e-07 -6.56054e-07 0)
(6.05777e-07 -6.56415e-07 0)
(6.05939e-07 -6.56646e-07 0)
(6.06066e-07 -6.5681e-07 0)
(6.06157e-07 -6.56927e-07 0)
(6.06223e-07 -6.57014e-07 0)
(6.06267e-07 -6.57081e-07 0)
(6.06293e-07 -6.57139e-07 0)
(6.06303e-07 -6.57179e-07 0)
(7.00484e-06 7.85072e-06 0)
(-8.53762e-07 -1.69635e-06 0)
(1.13717e-06 -3.63287e-07 0)
(4.53896e-07 -5.80686e-07 0)
(6.2684e-07 -6.47836e-07 0)
(5.82637e-07 -6.31589e-07 0)
(6.00792e-07 -6.53251e-07 0)
(6.00116e-07 -6.50897e-07 0)
(6.02899e-07 -6.54882e-07 0)
(6.03845e-07 -6.5521e-07 0)
(6.04669e-07 -6.5609e-07 0)
(6.05184e-07 -6.56399e-07 0)
(6.05548e-07 -6.56674e-07 0)
(6.05803e-07 -6.56829e-07 0)
(6.05982e-07 -6.56943e-07 0)
(6.06109e-07 -6.57021e-07 0)
(6.06197e-07 -6.57079e-07 0)
(6.06256e-07 -6.57122e-07 0)
(6.0629e-07 -6.5716e-07 0)
(6.06303e-07 -6.57186e-07 0)
(-2.47228e-05 -1.04242e-05 0)
(7.10624e-06 2.71673e-06 0)
(-1.89532e-06 -1.45707e-06 0)
(1.22562e-06 -3.69802e-07 0)
(3.45692e-07 -7.23162e-07 0)
(6.53946e-07 -6.28561e-07 0)
(5.72976e-07 -6.61149e-07 0)
(6.0561e-07 -6.53331e-07 0)
(5.99629e-07 -6.56777e-07 0)
(6.0393e-07 -6.56348e-07 0)
(6.04123e-07 -6.56837e-07 0)
(6.05043e-07 -6.56904e-07 0)
(6.05407e-07 -6.57017e-07 0)
(6.05733e-07 -6.57069e-07 0)
(6.05936e-07 -6.5711e-07 0)
(6.06083e-07 -6.57137e-07 0)
(6.06182e-07 -6.57157e-07 0)
(6.06249e-07 -6.57172e-07 0)
(6.06289e-07 -6.57185e-07 0)
(6.06303e-07 -6.57195e-07 0)
)
;

boundaryField
{
    movingWall
    {
        type            calculated;
        value           uniform (6.06306e-07 -6.57199e-07 0);
    }
    fixedWalls
    {
        type            calculated;
        value           uniform (6.06306e-07 -6.57199e-07 0);
    }
    frontAndBack
    {
        type            empty;
    }
}


// ************************************************************************* //
