/*--------------------------------*- C++ -*----------------------------------*\
| =========                 |                                                 |
| \\      /  F ield         | OpenFOAM: The Open Source CFD Toolbox           |
|  \\    /   O peration     | Version:  2312                                  |
|   \\  /    A nd           | Website:  www.openfoam.com                      |
|    \\/     M anipulation  |                                                 |
\*---------------------------------------------------------------------------*/
FoamFile
{
    version     2.0;
    format      ascii;
    arch        "LSB;label=32;scalar=64";
    class       volScalarField;
    location    "2.875";
    object      divU;
}
// * * * * * * * * * * * * * * * * * * * * * * * * * * * * * * * * * * * * * //

dimensions      [0 0 -1 0 0 0 0];

internalField   nonuniform List<scalar> 
400
(
-4.32941e-05
5.46911e-05
-1.47502e-05
5.4703e-06
-1.6655e-06
5.60734e-07
-1.83477e-07
5.78179e-08
-1.98562e-08
6.12368e-09
-2.04601e-09
7.1219e-10
-1.64556e-10
1.25657e-10
3.02882e-11
4.81793e-11
2.65217e-11
2.26355e-11
-7.53218e-11
1.24033e-10
-3.80826e-05
4.52155e-05
-1.3463e-05
4.5901e-06
-1.57116e-06
5.0566e-07
-1.71424e-07
5.69611e-08
-1.81095e-08
6.49065e-09
-1.7551e-09
8.30494e-10
-9.49382e-11
1.61977e-10
5.04277e-11
5.25993e-11
2.83554e-11
3.71852e-11
-7.45052e-11
1.1067e-10
-6.45572e-05
9.2614e-05
-2.38652e-05
8.72473e-06
-2.45082e-06
8.3054e-07
-2.45913e-07
8.21356e-08
-2.38016e-08
8.52451e-09
-2.17075e-09
9.71067e-10
-1.41477e-10
1.58194e-10
3.67833e-11
4.62731e-11
1.31889e-11
2.62284e-11
-5.87252e-11
1.02213e-10
-6.13443e-05
5.95449e-05
-1.78197e-05
5.66603e-06
-1.80698e-06
6.10617e-07
-1.75689e-07
6.35759e-08
-1.73904e-08
6.63086e-09
-1.61247e-09
7.55618e-10
-1.03723e-10
1.26073e-10
3.24677e-11
2.47891e-11
4.20476e-12
3.76198e-11
-4.49362e-11
6.90637e-11
-4.64674e-05
5.90325e-05
-1.40661e-05
5.32657e-06
-1.34182e-06
4.38199e-07
-1.28993e-07
3.87619e-08
-1.13665e-08
3.66966e-09
-9.67842e-10
3.76635e-10
-5.63455e-11
7.11834e-11
2.79893e-11
1.58309e-11
-1.32626e-11
2.24938e-11
-1.93529e-11
5.04425e-11
5.66163e-05
-6.61446e-05
1.62405e-05
-6.06532e-06
1.56233e-06
-5.23682e-07
1.51151e-07
-4.83306e-08
1.3441e-08
-4.80433e-09
1.15535e-09
-4.78558e-10
1.14539e-10
-2.00818e-11
3.66682e-11
-1.91787e-11
-2.66418e-11
4.03971e-11
2.33576e-12
2.79182e-12
5.51684e-05
-7.54878e-05
2.09068e-05
-7.13644e-06
2.18496e-06
-7.33191e-07
2.16435e-07
-7.66869e-08
2.11117e-08
-8.1078e-09
2.01334e-09
-8.57126e-10
2.03716e-10
-6.63112e-11
3.8092e-11
-2.47329e-11
-4.82619e-11
1.3858e-11
3.14951e-11
-2.03559e-11
8.52603e-05
-8.0735e-05
2.3407e-05
-7.7223e-06
2.37836e-06
-7.93735e-07
2.34506e-07
-8.12518e-08
2.31362e-08
-8.36955e-09
2.28426e-09
-8.3666e-10
2.52772e-10
-5.3746e-11
4.27691e-11
-5.60331e-11
-6.43422e-11
4.04072e-11
5.54463e-11
-7.49455e-11
3.66362e-06
-5.28238e-05
1.08395e-05
-5.20436e-06
1.27238e-06
-4.76946e-07
1.51425e-07
-4.89294e-08
1.63602e-08
-5.23835e-09
1.91891e-09
-4.7681e-10
2.63252e-10
-1.96045e-11
3.71231e-11
-4.58964e-11
-8.49653e-11
-1.98919e-12
7.78289e-11
-9.48677e-11
6.91194e-05
-2.61135e-07
7.66491e-06
-4.87925e-07
1.1245e-06
-2.63067e-07
1.17569e-07
-4.018e-08
1.56417e-08
-4.055e-09
2.20008e-09
-2.96182e-10
3.17255e-10
6.97488e-12
4.26046e-11
-8.70634e-11
-1.10587e-10
2.32046e-11
9.2222e-11
-1.46476e-10
-6.43226e-06
-0.000116242
1.98418e-05
-1.09218e-05
1.93004e-06
-8.12871e-07
2.34311e-07
-5.97473e-08
2.44634e-08
-5.13145e-09
2.77705e-09
-3.05968e-10
3.63512e-10
-2.48183e-11
2.03396e-12
-9.78599e-11
-1.40932e-10
-4.66695e-11
9.41091e-11
-1.51409e-10
7.23089e-05
8.8265e-05
-6.34732e-06
7.48395e-06
7.92e-08
2.5493e-07
1.60045e-08
-1.43225e-08
7.53639e-09
-2.10679e-09
2.05675e-09
-2.28719e-10
2.13799e-10
-1.17465e-10
-6.6195e-11
-1.82735e-10
-1.84637e-10
-2.55535e-11
9.25292e-11
-1.81875e-10
2.81084e-05
-0.000262788
4.7711e-05
-2.44171e-05
4.42868e-06
-1.83358e-06
4.87712e-07
-1.36628e-07
5.0761e-08
-1.16645e-08
4.56226e-09
-1.39112e-09
1.43567e-10
-3.78878e-10
-1.77497e-10
-2.24743e-10
-2.0685e-10
-1.04736e-10
7.03037e-11
-1.53388e-10
4.78532e-05
0.000210948
-2.50348e-05
1.81884e-05
-1.16532e-06
8.04179e-07
-9.20402e-08
9.71596e-09
2.51208e-09
-3.74552e-09
8.54006e-10
-1.52292e-09
-4.47725e-10
-6.08339e-10
-3.07992e-10
-3.16491e-10
-2.41547e-10
-7.84985e-11
5.80696e-11
-1.36013e-10
0.000267768
-0.000535268
0.000109954
-5.04063e-05
1.04429e-05
-4.04093e-06
1.10637e-06
-3.33113e-07
1.02428e-07
-3.37455e-08
6.82607e-09
-4.89621e-09
-3.75362e-10
-1.05809e-09
-3.73504e-10
-3.35587e-10
-2.12973e-10
-1.23907e-10
2.79922e-11
-6.07153e-11
-0.000163082
0.000279497
-3.36996e-05
2.29444e-05
-8.93632e-07
8.49369e-07
1.61115e-09
-4.49702e-08
7.58889e-09
-1.92292e-08
-1.24733e-09
-4.60599e-09
-1.09591e-09
-1.07623e-09
-3.82303e-10
-3.12221e-10
-1.68811e-10
-5.82027e-11
3.67801e-11
1.15739e-11
0.000725308
-0.00106971
0.000252362
-9.78847e-05
2.39858e-05
-8.17816e-06
2.27321e-06
-7.47498e-07
1.83705e-07
-7.59318e-08
1.26947e-08
-8.375e-09
4.85214e-10
-1.00204e-09
-1.68442e-11
-9.42338e-11
2.13886e-11
-2.70432e-12
4.43447e-11
1.14627e-10
0.000319656
-0.000269058
0.000101858
-2.27178e-05
8.61639e-06
-3.06e-06
5.26174e-07
-3.4446e-07
4.62584e-08
-3.14145e-08
4.82399e-09
-2.67503e-09
6.52291e-10
-5.52096e-12
2.83263e-10
1.43217e-10
1.1988e-10
7.09126e-11
7.75779e-11
2.12314e-10
0.00055319
-0.000541533
0.000112847
-4.60711e-05
8.44473e-06
-2.78267e-06
7.44234e-07
-1.20624e-07
6.25361e-08
2.27078e-09
6.1936e-09
2.91801e-09
1.58662e-09
1.16692e-09
6.43913e-10
4.05633e-10
2.79072e-10
1.82047e-10
1.04368e-10
2.96719e-10
-0.00175701
0.00204927
-0.000537467
0.00018771
-5.15075e-05
1.73036e-05
-4.83352e-06
1.64836e-06
-4.41971e-07
1.65498e-07
-3.57363e-08
1.89053e-08
-1.53648e-09
2.93157e-09
5.57876e-10
7.16387e-10
4.25034e-10
2.62512e-10
8.07731e-11
3.32443e-10
)
;

boundaryField
{
    movingWall
    {
        type            extrapolatedCalculated;
        value           nonuniform List<scalar> 
20
(
-0.00175701
0.00204927
-0.000537467
0.00018771
-5.15075e-05
1.73036e-05
-4.83352e-06
1.64836e-06
-4.41971e-07
1.65498e-07
-3.57363e-08
1.89053e-08
-1.53648e-09
2.93157e-09
5.57876e-10
7.16387e-10
4.25034e-10
2.62512e-10
8.07731e-11
3.32443e-10
)
;
    }
    fixedWalls
    {
        type            extrapolatedCalculated;
        value           nonuniform List<scalar> 
60
(
-4.32941e-05
-3.80826e-05
-6.45572e-05
-6.13443e-05
-4.64674e-05
5.66163e-05
5.51684e-05
8.52603e-05
3.66362e-06
6.91194e-05
-6.43226e-06
7.23089e-05
2.81084e-05
4.78532e-05
0.000267768
-0.000163082
0.000725308
0.000319656
0.00055319
-0.00175701
1.24033e-10
1.1067e-10
1.02213e-10
6.90637e-11
5.04425e-11
2.79182e-12
-2.03559e-11
-7.49455e-11
-9.48677e-11
-1.46476e-10
-1.51409e-10
-1.81875e-10
-1.53388e-10
-1.36013e-10
-6.07153e-11
1.15739e-11
1.14627e-10
2.12314e-10
2.96719e-10
3.32443e-10
-4.32941e-05
5.46911e-05
-1.47502e-05
5.4703e-06
-1.6655e-06
5.60734e-07
-1.83477e-07
5.78179e-08
-1.98562e-08
6.12368e-09
-2.04601e-09
7.1219e-10
-1.64556e-10
1.25657e-10
3.02882e-11
4.81793e-11
2.65217e-11
2.26355e-11
-7.53218e-11
1.24033e-10
)
;
    }
    frontAndBack
    {
        type            empty;
    }
}


// ************************************************************************* //
