/*--------------------------------*- C++ -*----------------------------------*\
| =========                 |                                                 |
| \\      /  F ield         | OpenFOAM: The Open Source CFD Toolbox           |
|  \\    /   O peration     | Version:  2312                                  |
|   \\  /    A nd           | Website:  www.openfoam.com                      |
|    \\/     M anipulation  |                                                 |
\*---------------------------------------------------------------------------*/
FoamFile
{
    version     2.0;
    format      ascii;
    arch        "LSB;label=32;scalar=64";
    class       volScalarField;
    location    "2.875";
    object      enstrophyField;
}
// * * * * * * * * * * * * * * * * * * * * * * * * * * * * * * * * * * * * * //

dimensions      [0 0 -2 0 0 0 0];

internalField   nonuniform List<scalar> 
400
(
1.26381e-08
4.20786e-09
3.78882e-10
2.01146e-11
3.81206e-12
3.24722e-15
1.63464e-13
2.76628e-14
2.54208e-14
1.01862e-14
5.42505e-15
2.3788e-15
1.05965e-15
4.29527e-16
1.63765e-16
5.56594e-17
1.60959e-17
3.31083e-18
4.08514e-19
6.3397e-22
1.32125e-11
1.1391e-09
6.35877e-11
3.61614e-12
1.8532e-13
1.30316e-14
2.33667e-16
1.67052e-16
2.36649e-17
2.95139e-17
1.80188e-17
1.31467e-17
8.95846e-18
5.95459e-18
3.75408e-18
2.27851e-18
1.47116e-18
1.11182e-18
1.53042e-18
3.54965e-19
2.39684e-09
2.15164e-09
1.28963e-10
7.5972e-12
4.75751e-13
2.36408e-14
2.58599e-15
3.86963e-19
1.11416e-16
4.26146e-17
4.00486e-17
2.80254e-17
2.04187e-17
1.37922e-17
8.78646e-18
5.30785e-18
3.39306e-18
2.53208e-18
3.63835e-18
7.84469e-19
2.962e-09
1.37673e-09
7.93803e-11
4.71944e-12
2.53554e-13
1.99056e-14
2.85499e-16
3.78918e-16
7.77197e-17
9.40918e-17
6.2838e-17
4.79669e-17
3.369e-17
2.25651e-17
1.39893e-17
8.1696e-18
5.02659e-18
3.62194e-18
5.55294e-18
1.04524e-18
6.84298e-09
3.39532e-11
2.90422e-13
1.43878e-14
3.51521e-15
2.54288e-15
2.06112e-17
3.13669e-16
1.26985e-16
1.23225e-16
8.49622e-17
6.3767e-17
4.41114e-17
2.88088e-17
1.71503e-17
9.45578e-18
5.44237e-18
3.66895e-18
6.32406e-18
9.09215e-19
1.94378e-08
2.93136e-09
1.80932e-10
1.1592e-11
6.97017e-13
5.65236e-14
1.53902e-15
8.89597e-16
8.97354e-17
1.57411e-16
9.3278e-17
7.19967e-17
4.79879e-17
3.02265e-17
1.68194e-17
8.38329e-18
4.24538e-18
2.49659e-18
5.44757e-18
4.22268e-19
2.70449e-10
7.82827e-10
3.59681e-11
1.56715e-12
8.48238e-14
1.4026e-15
8.46985e-16
1.647e-16
1.91997e-16
1.30072e-16
9.68659e-17
6.76269e-17
4.44172e-17
2.60048e-17
1.29241e-17
5.27391e-18
1.97683e-18
7.67726e-19
3.19971e-18
8.59756e-21
7.76941e-11
5.34059e-10
1.41109e-11
2.67265e-13
2.60581e-17
7.11291e-18
6.24357e-16
1.24531e-16
1.82574e-16
1.07343e-16
8.22807e-17
5.41657e-17
3.36148e-17
1.74446e-17
6.84464e-18
1.6319e-18
1.36285e-19
3.66641e-20
7.77613e-19
5.04829e-19
1.46304e-08
3.79803e-09
1.77979e-10
8.08985e-12
3.97248e-13
1.31748e-14
1.7658e-15
4.42375e-17
1.44055e-16
7.72947e-17
5.66174e-17
3.4995e-17
1.91727e-17
7.69984e-18
1.46926e-18
1.28844e-20
1.00219e-18
2.49072e-18
1.26617e-19
3.00974e-18
1.43274e-08
5.65597e-09
2.50063e-10
1.08156e-11
4.20183e-13
2.02279e-14
1.68895e-16
1.9752e-16
5.831e-17
4.68302e-17
2.86571e-17
1.54989e-17
6.2203e-18
9.28975e-19
2.9583e-19
3.26208e-18
6.94705e-18
1.03212e-17
3.45652e-18
8.5765e-18
3.17614e-08
1.52987e-08
7.35854e-10
3.45888e-11
1.62272e-12
6.70138e-14
3.97539e-15
2.24447e-17
5.50578e-17
1.29418e-17
8.18191e-18
2.46106e-18
8.03713e-20
1.24676e-18
6.35334e-18
1.3487e-17
1.945e-17
2.4763e-17
1.24613e-17
1.77589e-17
7.15341e-08
3.26342e-08
1.60185e-09
7.77154e-11
3.70913e-12
1.80031e-13
7.64813e-15
4.95266e-16
5.08575e-18
3.26152e-18
2.82437e-20
8.86969e-19
4.32141e-18
1.08852e-17
2.07558e-17
3.08998e-17
3.81448e-17
4.51944e-17
2.74032e-17
3.01696e-17
1.02236e-07
6.88951e-08
3.50798e-09
1.76999e-10
8.83169e-12
4.36536e-13
2.0943e-14
1.06636e-15
2.81549e-17
1.24873e-17
6.01684e-18
1.25154e-17
1.88089e-17
2.88999e-17
4.1579e-17
5.29284e-17
6.01137e-17
6.84405e-17
4.62692e-17
4.3975e-17
2.42084e-07
1.38282e-07
7.32003e-09
3.83746e-10
2.01065e-11
1.03353e-12
5.62031e-14
2.362e-15
2.7517e-16
4.26567e-18
3.37111e-17
3.04033e-17
4.00012e-17
5.0315e-17
6.36472e-17
7.41769e-17
8.00164e-17
8.89579e-17
6.46521e-17
5.61193e-17
1.67686e-07
2.07519e-07
1.117e-08
5.94592e-10
3.11795e-11
1.64969e-12
7.94971e-14
5.19154e-15
5.84325e-17
1.01661e-16
3.9612e-17
5.46461e-17
5.8129e-17
6.81762e-17
7.96109e-17
8.79002e-17
9.16067e-17
1.00259e-16
7.65064e-17
6.26071e-17
7.94234e-07
3.84608e-07
2.26725e-08
1.33146e-09
7.8217e-11
4.49832e-12
2.72283e-13
1.31329e-14
1.42505e-15
8.24461e-19
9.29982e-17
5.7541e-17
6.92902e-17
7.39754e-17
8.30728e-17
8.82422e-17
8.98627e-17
9.73148e-17
7.6661e-17
6.03586e-17
2.09814e-08
1.63278e-07
8.74325e-09
4.64941e-10
2.43242e-11
1.29757e-12
6.08069e-14
4.38809e-15
1.89642e-17
1.15889e-16
5.29874e-17
6.23883e-17
6.16515e-17
6.58876e-17
7.11078e-17
7.37543e-17
7.38672e-17
7.93821e-17
6.37317e-17
4.86947e-17
1.27311e-09
3.2971e-07
1.91599e-08
1.10684e-09
6.40999e-11
3.64446e-12
2.18648e-13
1.03762e-14
1.09301e-15
5.78234e-19
6.40334e-17
3.8001e-17
4.29849e-17
4.35198e-17
4.63411e-17
4.71002e-17
4.65958e-17
5.03658e-17
4.15559e-17
3.09196e-17
6.89764e-06
1.30036e-06
8.42005e-08
5.48303e-09
3.56552e-10
2.36702e-11
1.51749e-12
1.0919e-13
5.63904e-15
7.70925e-16
1.08177e-20
4.01485e-17
1.75418e-17
2.04617e-17
1.91396e-17
1.87216e-17
1.78323e-17
2.00598e-17
1.79697e-17
1.31234e-17
3.20642e-06
9.80978e-07
1.27881e-07
7.20972e-09
1.2442e-09
3.69673e-11
2.02334e-11
3.16039e-14
8.5818e-13
1.19922e-13
9.57073e-14
3.2892e-14
1.65949e-14
6.8258e-15
2.90234e-15
1.08499e-15
3.5659e-16
9.01145e-17
1.5312e-17
2.86564e-18
)
;

boundaryField
{
    movingWall
    {
        type            calculated;
        value           nonuniform List<scalar> 
20
(
5.80065e-05
6.11341e-06
8.57137e-07
5.15579e-08
8.46578e-09
3.18972e-10
1.2496e-10
1.26053e-14
4.41765e-12
4.57455e-13
4.31208e-13
1.36884e-13
7.07352e-14
2.83671e-14
1.1997e-14
4.39358e-15
1.40318e-15
3.22514e-16
4.1508e-17
4.47001e-18
)
;
    }
    fixedWalls
    {
        type            calculated;
        value           nonuniform List<scalar> 
60
(
6.94422e-08
2.09135e-08
3.70855e-08
2.34761e-08
1.6049e-09
4.66844e-08
1.61391e-08
1.30958e-08
7.23177e-08
1.11295e-07
2.91266e-07
6.11999e-07
1.28173e-06
2.49707e-06
3.76328e-06
6.56188e-06
3.09659e-06
5.95382e-06
2.02916e-05
1.68191e-05
1.03305e-19
8.52931e-20
3.04273e-19
8.23086e-19
1.91724e-18
4.00426e-18
7.60297e-18
1.32567e-17
2.13497e-17
3.18939e-17
4.42859e-17
5.71368e-17
6.8322e-17
7.51949e-17
7.52739e-17
6.70308e-17
5.10069e-17
3.08185e-17
1.23753e-17
2.63781e-18
4.25488e-08
7.82945e-09
8.53906e-10
4.3078e-11
1.09954e-11
5.62537e-16
5.97078e-13
1.17106e-13
1.0123e-13
4.14889e-14
2.19511e-14
9.64892e-15
4.285e-15
1.73061e-15
6.54824e-16
2.19469e-16
6.13212e-17
1.13982e-17
7.76604e-19
6.49947e-20
)
;
    }
    frontAndBack
    {
        type            empty;
    }
}


// ************************************************************************* //
