/*--------------------------------*- C++ -*----------------------------------*\
| =========                 |                                                 |
| \\      /  F ield         | OpenFOAM: The Open Source CFD Toolbox           |
|  \\    /   O peration     | Version:  2312                                  |
|   \\  /    A nd           | Website:  www.openfoam.com                      |
|    \\/     M anipulation  |                                                 |
\*---------------------------------------------------------------------------*/
FoamFile
{
    version     2.0;
    format      ascii;
    arch        "LSB;label=32;scalar=64";
    class       volScalarField;
    location    "2.875";
    object      epsilonzeroGrad;
}
// * * * * * * * * * * * * * * * * * * * * * * * * * * * * * * * * * * * * * //

dimensions      [0 2 -3 0 0 0 0];

internalField   nonuniform List<scalar> 
400
(
9.12079e-05
9.11986e-05
9.11901e-05
9.11836e-05
9.1177e-05
9.1171e-05
9.11653e-05
9.11603e-05
9.11566e-05
9.11523e-05
9.11495e-05
9.11465e-05
9.11447e-05
9.11426e-05
9.1141e-05
9.11399e-05
9.11389e-05
9.11384e-05
9.1138e-05
9.11379e-05
0.000226128
0.000213512
0.000214302
0.000214632
0.000215318
0.000215695
0.000216392
0.000216807
0.000217519
0.000217968
0.000218698
0.00021918
0.000219929
0.000220443
0.000221211
0.00022176
0.000222544
0.000223129
0.000223531
0.000224232
0.000563097
0.000514716
0.000517478
0.000518675
0.00052113
0.000522504
0.000525012
0.000526541
0.000529118
0.000530794
0.000533449
0.000535267
0.000538008
0.000539968
0.000542794
0.000544901
0.000547811
0.00055007
0.000551571
0.000554233
0.000952313
0.000850069
0.000855354
0.000857725
0.000862552
0.000865301
0.000870269
0.000873383
0.00087852
0.000881984
0.000887313
0.00089112
0.000896657
0.00090081
0.000906561
0.000911073
0.000917041
0.000921922
0.000925028
0.000930652
0.00124964
0.00110003
0.00110737
0.00111058
0.00111732
0.00112118
0.00112813
0.00113257
0.00113979
0.00114477
0.00115229
0.00115781
0.00116567
0.00117173
0.00117994
0.00118656
0.00119512
0.00120232
0.00120681
0.00121501
0.00143343
0.00125253
0.00126075
0.00126474
0.0012726
0.00127718
0.00128536
0.00129064
0.00129916
0.00130512
0.00131404
0.00132067
0.00133
0.00133733
0.00134709
0.00135512
0.00136535
0.0013741
0.00137947
0.00138937
0.00154434
0.00134392
0.00135287
0.00135716
0.00136572
0.00137072
0.00137963
0.00138542
0.00139473
0.0014013
0.00141104
0.00141837
0.00142859
0.00143669
0.00144741
0.00145631
0.00146755
0.00147726
0.00148318
0.00149413
0.00161671
0.00140339
0.00141275
0.00141727
0.00142627
0.00143155
0.00144094
0.00144707
0.00145688
0.00146384
0.00147413
0.00148191
0.00149271
0.00150133
0.00151267
0.00152215
0.00153406
0.00154441
0.00155068
0.00156232
0.00167159
0.00144844
0.00145806
0.00146279
0.00147212
0.0014776
0.00148736
0.00149374
0.00150394
0.0015112
0.0015219
0.00153003
0.00154127
0.00155028
0.00156209
0.001572
0.00158442
0.00159526
0.00160181
0.00161397
0.0017199
0.00148799
0.00149802
0.0015028
0.00151244
0.00151811
0.00152818
0.00153479
0.00154532
0.00155285
0.0015639
0.00157234
0.00158397
0.00159333
0.00160556
0.00161586
0.00162872
0.00163999
0.00164678
0.00165942
0.00176789
0.00152732
0.00153749
0.00154251
0.00155243
0.00155828
0.00156866
0.00157549
0.00158636
0.00159415
0.00160557
0.00161432
0.00162633
0.00163603
0.00164868
0.00165937
0.00167268
0.00168438
0.00169141
0.00170451
0.00181943
0.00156929
0.00158026
0.00158502
0.00159535
0.00160138
0.0016121
0.00161917
0.0016304
0.00163848
0.00165028
0.00165936
0.00167179
0.00168187
0.00169496
0.00170607
0.00171986
0.00173203
0.00173932
0.00175292
0.00187756
0.00161682
0.00162764
0.00163296
0.00164355
0.00164982
0.00166091
0.00166826
0.00167989
0.0016883
0.00170054
0.00170999
0.00172289
0.00173339
0.00174699
0.00175858
0.00177291
0.00178561
0.0017932
0.00180738
0.00194492
0.00167152
0.00168289
0.00168828
0.0016993
0.00170582
0.00171736
0.00172502
0.00173713
0.00174591
0.00175866
0.00176855
0.00178199
0.001793
0.00180718
0.00181933
0.0018343
0.00184763
0.00185555
0.0018704
0.00202458
0.00173606
0.00174819
0.00175355
0.00176512
0.00177193
0.00178398
0.00179203
0.00180469
0.00181393
0.00182728
0.00183769
0.00185178
0.00186339
0.00187828
0.0018911
0.00190682
0.0019209
0.00192923
0.00194488
0.00212109
0.00181408
0.00182662
0.00183235
0.00184448
0.00185167
0.00186434
0.00187285
0.00188619
0.00189598
0.00191005
0.00192111
0.00193599
0.00194833
0.00196407
0.00197773
0.00199436
0.00200938
0.0020182
0.00203483
0.00224182
0.00191121
0.00192446
0.00193048
0.00194335
0.00195099
0.00196445
0.00197354
0.00198771
0.00199821
0.00201319
0.00202507
0.00204094
0.00205422
0.00207101
0.00208574
0.00210351
0.00211974
0.00212917
0.00214705
0.00239619
0.00203547
0.00204956
0.00205594
0.00206971
0.00207792
0.00209235
0.00210218
0.00211742
0.0021288
0.00214495
0.00215788
0.00217499
0.00218951
0.00220764
0.00222379
0.00224299
0.00226083
0.00227104
0.00229053
0.00256606
0.002187
0.00220059
0.00220718
0.00222095
0.00222938
0.00224399
0.00225423
0.0022698
0.00228185
0.00229849
0.00231237
0.00233017
0.00234593
0.00236496
0.00238268
0.00240306
0.0024228
0.00243377
0.00245505
0.00258288
0.00258187
0.00258153
0.00258089
0.0025807
0.00258022
0.00258004
0.00257975
0.00257964
0.00257944
0.00257933
0.00257922
0.00257916
0.00257908
0.00257906
0.00257903
0.00257902
0.00257901
0.00257901
0.00257901
)
;

boundaryField
{
    movingWall
    {
        type            zeroGradient;
    }
    fixedWalls
    {
        type            zeroGradient;
    }
    frontAndBack
    {
        type            empty;
    }
}


// ************************************************************************* //
