/*--------------------------------*- C++ -*----------------------------------*\
| =========                 |                                                 |
| \\      /  F ield         | OpenFOAM: The Open Source CFD Toolbox           |
|  \\    /   O peration     | Version:  2312                                  |
|   \\  /    A nd           | Website:  www.openfoam.com                      |
|    \\/     M anipulation  |                                                 |
\*---------------------------------------------------------------------------*/
FoamFile
{
    version     2.0;
    format      ascii;
    arch        "LSB;label=32;scalar=64";
    class       volScalarField;
    location    "2.875";
    object      flowTypeField;
}
// * * * * * * * * * * * * * * * * * * * * * * * * * * * * * * * * * * * * * //

dimensions      [0 0 0 0 0 0 0];

internalField   nonuniform List<scalar> 
400
(
-0.28894
-0.0498802
-0.141499
0.1065
-0.094396
0.856572
-0.0815307
0.184865
0.0219607
0.0868569
0.0648599
0.0864222
0.0902512
0.106487
0.122973
0.153272
0.206542
0.312635
0.466869
0.895733
0.911667
0.331359
0.420544
0.506704
0.591013
0.729858
0.796728
0.868789
0.897438
0.874786
0.856
0.837254
0.809257
0.779734
0.743638
0.701713
0.638128
0.525303
0.251602
0.0157121
0.291319
0.402429
0.406749
0.57284
0.566666
0.755218
0.616565
0.994092
0.794914
0.855513
0.795483
0.774107
0.729055
0.686988
0.636429
0.57879
0.492534
0.354673
0.120851
0.0139002
-0.0254883
0.28362
0.349084
0.517691
0.577483
0.725748
0.865639
0.81315
0.844548
0.788704
0.758452
0.717234
0.672797
0.624423
0.572311
0.510972
0.418892
0.273261
0.0741366
0.0248186
0.262439
0.878758
0.961071
0.971035
0.958412
0.859867
0.977568
0.752874
0.835541
0.74841
0.737642
0.685331
0.647628
0.600536
0.55721
0.506376
0.42636
0.286922
0.0727533
0.0555926
-0.118311
0.147679
0.19938
0.366051
0.490702
0.455378
0.821168
0.580369
0.863618
0.721204
0.734852
0.680252
0.651465
0.614815
0.58849
0.563795
0.519635
0.414698
0.113452
0.175925
0.644134
0.527746
0.603943
0.745456
0.795474
0.922492
0.836043
0.859496
0.784645
0.763249
0.732846
0.705788
0.679587
0.66267
0.659348
0.673632
0.68752
0.674691
0.235628
0.801489
0.80753
0.599207
0.739266
0.890952
0.995891
0.994769
0.799076
0.893264
0.762305
0.797182
0.757148
0.748773
0.732809
0.736836
0.763492
0.826717
0.92081
0.932508
0.541772
0.275286
-0.191997
0.0429378
-0.0369955
0.305655
0.31821
0.669522
0.520169
0.925092
0.794538
0.830307
0.80656
0.805503
0.806207
0.831541
0.894081
0.985237
0.825354
0.620562
0.810559
0.0947144
-0.104394
-0.0982347
-0.322744
-0.164123
0.16502
0.338539
0.850296
0.840928
0.878305
0.87309
0.868995
0.875657
0.893451
0.943028
0.955384
0.808748
0.639882
0.431945
0.393648
0.0463073
0.0162243
0.163435
0.050333
0.356858
0.274897
0.560983
0.584918
0.956035
0.89042
0.938573
0.933914
0.95275
0.98827
0.939135
0.822579
0.672233
0.506335
0.315161
0.216103
0.0260617
-0.0665543
0.0258886
-0.219321
0.127162
-0.392909
-0.0593749
0.558733
0.798563
0.972842
0.971735
0.996431
0.973802
0.923221
0.841038
0.718076
0.568982
0.409673
0.236363
0.130991
0.0165477
0.0938703
0.193953
0.110496
0.366294
0.285318
0.531558
0.504194
0.833725
0.937942
0.954776
0.953845
0.913977
0.856905
0.76774
0.641502
0.494661
0.342511
0.187335
0.0873098
0.0111552
-0.087294
0.0462341
-0.141679
0.131733
-0.159792
-0.102895
0.460505
0.712581
0.870331
0.976057
0.907527
0.880817
0.812899
0.72172
0.594583
0.451497
0.304364
0.159048
0.0645336
0.00845422
0.237215
0.240216
0.197055
0.414595
0.354006
0.585013
0.504064
0.812158
0.934141
0.912547
0.909657
0.860481
0.796112
0.704599
0.581195
0.442245
0.297369
0.154499
0.0583823
0.00818539
-0.425689
-0.094676
-0.30696
-0.0994206
-0.302375
-0.420532
0.259677
0.671743
0.788574
0.992794
0.883074
0.87226
0.79972
0.718364
0.602745
0.47146
0.328056
0.176842
0.0671639
0.0109939
0.819746
0.550781
0.574033
0.705978
0.708084
0.819912
0.800772
0.909103
0.977584
0.93392
0.922828
0.880802
0.829694
0.754777
0.656555
0.53668
0.398446
0.234043
0.0982666
0.0195179
0.934757
0.220288
0.328184
0.355451
0.517615
0.529865
0.740573
0.736877
0.906562
0.994487
0.931437
0.911516
0.87147
0.813021
0.737423
0.638828
0.517681
0.344921
0.165581
0.0389972
-0.229174
-0.318893
-0.216354
-0.0932551
0.218173
-0.000512844
0.566051
0.101439
0.83578
0.823578
0.999169
0.915751
0.922042
0.877466
0.834848
0.771223
0.687646
0.535589
0.317858
0.0960373
0.0759452
0.400066
0.249588
0.456975
0.239272
0.589201
0.0463123
0.886748
-0.218535
0.29043
-0.0230292
0.117548
0.0575116
0.0981339
0.101218
0.135346
0.178437
0.252495
0.317322
0.238228
)
;

boundaryField
{
    movingWall
    {
        type            calculated;
        value           nonuniform List<scalar> 
20
(
0.0240318
0.0817072
-0.0550373
0.105132
-0.0462437
0.20422
-0.0967012
0.930594
-0.108031
0.127398
-0.0399228
0.0212843
-0.00647664
0.0107348
0.00907514
0.0205349
0.0348384
0.0697054
0.127593
0.115717
)
;
    }
    fixedWalls
    {
        type            calculated;
        value           nonuniform List<scalar> 
60
(
0.00391134
0.340647
0.427727
0.321139
0.810729
0.194494
0.512704
0.556686
0.0354982
-0.158403
0.151844
0.00661624
0.190542
0.0426837
0.24771
-0.0765348
0.551047
0.22253
-0.271916
0.427742
0.358367
0.433163
0.22679
0.119994
0.0640446
0.0391661
0.0254808
0.018497
0.0141304
0.011416
0.00962028
0.00829875
0.00758714
0.00731838
0.00820065
0.0108679
0.0173276
0.031115
0.0720255
0.150693
0.184597
-0.0172683
-0.132453
0.0285909
-0.118541
0.944888
-0.0575454
0.0638394
-0.00954354
0.0133293
0.00317263
0.00871555
0.00782561
0.0110514
0.0143935
0.0233977
0.0445919
0.108499
0.332007
0.453992
)
;
    }
    frontAndBack
    {
        type            empty;
    }
}


// ************************************************************************* //
