/*--------------------------------*- C++ -*----------------------------------*\
| =========                 |                                                 |
| \\      /  F ield         | OpenFOAM: The Open Source CFD Toolbox           |
|  \\    /   O peration     | Version:  2312                                  |
|   \\  /    A nd           | Website:  www.openfoam.com                      |
|    \\/     M anipulation  |                                                 |
\*---------------------------------------------------------------------------*/
FoamFile
{
    version     2.0;
    format      ascii;
    arch        "LSB;label=32;scalar=64";
    class       surfaceScalarField;
    location    "2.875";
    object      fluxField;
}
// * * * * * * * * * * * * * * * * * * * * * * * * * * * * * * * * * * * * * //

dimensions      [0 3 -1 0 0 0 0];

oriented        oriented;

internalField   nonuniform List<scalar> 
760
(
-5e-05
3.78418e-13
-5e-05
1.27791e-13
-5e-05
-8.19255e-14
-5e-05
-9.17618e-15
-5e-05
-5.11069e-14
-5e-05
-3.13825e-14
-5e-05
-3.07238e-14
-5e-05
-2.25484e-14
-5e-05
-1.77516e-14
-5e-05
-1.31092e-14
-5e-05
-9.68158e-15
-5e-05
-6.96169e-15
-5e-05
-4.91762e-15
-5e-05
-3.38725e-15
-5e-05
-2.27752e-15
-5e-05
-1.49571e-15
-5e-05
-9.62626e-16
-5e-05
-5.91411e-16
-5e-05
-3.16437e-16
3.40652e-17
-5e-05
-3.69267e-13
-5e-05
5.29643e-13
-5e-05
-2.45533e-13
-5e-05
-2.44227e-14
-5e-05
-1.11473e-13
-5e-05
-6.78494e-14
-5e-05
-6.17962e-14
-5e-05
-4.51857e-14
-5e-05
-3.47881e-14
-5e-05
-2.56297e-14
-5e-05
-1.87842e-14
-5e-05
-1.34667e-14
-5e-05
-9.46606e-15
-5e-05
-6.49093e-15
-5e-05
-4.33962e-15
-5e-05
-2.83314e-15
-5e-05
-1.81363e-15
-5e-05
-1.10876e-15
-5e-05
-5.96303e-16
7.5254e-17
-5e-05
4.70236e-12
-5e-05
-1.7405e-12
-5e-05
1.83196e-13
-5e-05
-3.19712e-13
-5e-05
-1.12614e-13
-5e-05
-1.28928e-13
-5e-05
-8.44872e-14
-5e-05
-6.78288e-14
-5e-05
-4.90965e-14
-5e-05
-3.66122e-14
-5e-05
-2.6435e-14
-5e-05
-1.89128e-14
-5e-05
-1.31885e-14
-5e-05
-8.98201e-15
-5e-05
-5.94929e-15
-5e-05
-3.84593e-15
-5e-05
-2.43882e-15
-5e-05
-1.48064e-15
-5e-05
-8.00287e-16
1.30033e-16
-5e-05
1.9732e-12
-5e-05
-2.56171e-12
-5e-05
2.95698e-13
-5e-05
-5.80951e-13
-5e-05
-1.05668e-13
-5e-05
-1.87186e-13
-5e-05
-9.9249e-14
-5e-05
-8.66536e-14
-5e-05
-5.94995e-14
-5e-05
-4.49447e-14
-5e-05
-3.19534e-14
-5e-05
-2.27827e-14
-5e-05
-1.57146e-14
-5e-05
-1.05875e-14
-5e-05
-6.90924e-15
-5e-05
-4.39326e-15
-5e-05
-2.74079e-15
-5e-05
-1.64446e-15
-5e-05
-8.96383e-16
2.04169e-16
-5e-05
4.07633e-12
-5e-05
-4.08294e-12
-5e-05
6.60619e-13
-5e-05
-7.79985e-13
-5e-05
-7.78072e-14
-5e-05
-2.22462e-13
-5e-05
-1.0621e-13
-5e-05
-9.7573e-14
-5e-05
-6.53486e-14
-5e-05
-4.95853e-14
-5e-05
-3.4854e-14
-5e-05
-2.4653e-14
-5e-05
-1.67608e-14
-5e-05
-1.10921e-14
-5e-05
-7.06645e-15
-5e-05
-4.36637e-15
-5e-05
-2.64533e-15
-5e-05
-1.5525e-15
-5e-05
-8.59494e-16
3.01468e-16
-5e-05
3.16385e-12
-5e-05
-2.5109e-12
-5e-05
2.77855e-13
-5e-05
-5.72384e-13
-5e-05
-1.30839e-13
-5e-05
-2.00326e-13
-5e-05
-1.13659e-13
-5e-05
-9.66487e-14
-5e-05
-6.69804e-14
-5e-05
-4.98247e-14
-5e-05
-3.49049e-14
-5e-05
-2.42501e-14
-5e-05
-1.61488e-14
-5e-05
-1.03552e-14
-5e-05
-6.32242e-15
-5e-05
-3.69563e-15
-5e-05
-2.10587e-15
-5e-05
-1.17544e-15
-5e-05
-6.74122e-16
4.23587e-16
-5e-05
3.14753e-13
-5e-05
-8.13586e-13
-5e-05
-1.16779e-13
-5e-05
-2.94401e-13
-5e-05
-1.73273e-13
-5e-05
-1.55916e-13
-5e-05
-1.14207e-13
-5e-05
-8.76561e-14
-5e-05
-6.38529e-14
-5e-05
-4.59658e-14
-5e-05
-3.19719e-14
-5e-05
-2.1515e-14
-5e-05
-1.37964e-14
-5e-05
-8.32128e-15
-5e-05
-4.63735e-15
-5e-05
-2.35695e-15
-5e-05
-1.10804e-15
-5e-05
-5.04904e-16
-5e-05
-3.3533e-16
5.69466e-16
-5e-05
4.92964e-12
-5e-05
-1.80769e-13
-5e-05
-1.71279e-13
-5e-05
-8.42492e-14
-5e-05
-1.86516e-13
-5e-05
-1.16827e-13
-5e-05
-1.06103e-13
-5e-05
-7.5054e-14
-5e-05
-5.59295e-14
-5e-05
-3.86447e-14
-5e-05
-2.60702e-14
-5e-05
-1.65248e-14
-5e-05
-9.71419e-15
-5e-05
-5.01465e-15
-5e-05
-2.03289e-15
-5e-05
-3.73442e-16
-5e-05
3.28467e-16
-5e-05
4.44616e-16
-5e-05
1.49475e-16
7.35268e-16
-5e-05
-7.25528e-12
-5e-05
1.55046e-12
-5e-05
-5.32667e-13
-5e-05
-5.04484e-14
-5e-05
-1.60916e-13
-5e-05
-1.04641e-13
-5e-05
-8.81259e-14
-5e-05
-6.19076e-14
-5e-05
-4.34353e-14
-5e-05
-2.82703e-14
-5e-05
-1.73114e-14
-5e-05
-9.39476e-15
-5e-05
-3.99606e-15
-5e-05
-5.27954e-16
-5e-05
1.40674e-15
-5e-05
2.18189e-15
-5e-05
2.14575e-15
-5e-05
1.63298e-15
-5e-05
7.60035e-16
9.13855e-16
-5e-05
1.61658e-11
-5e-05
-3.67336e-12
-5e-05
6.37062e-13
-5e-05
-3.42976e-13
-5e-05
-9.62682e-14
-5e-05
-1.08291e-13
-5e-05
-6.78603e-14
-5e-05
-4.55588e-14
-5e-05
-2.71511e-14
-5e-05
-1.45327e-14
-5e-05
-5.85484e-15
-5e-05
-2.28781e-16
-5e-05
3.19032e-15
-5e-05
4.97722e-15
-5e-05
5.5301e-15
-5e-05
5.18189e-15
-5e-05
4.24523e-15
-5e-05
2.99321e-15
-5e-05
1.46069e-15
1.09495e-15
-5e-05
-1.71566e-11
-5e-05
2.75524e-12
-5e-05
-9.26061e-13
-5e-05
-1.06145e-13
-5e-05
-1.46081e-13
-5e-05
-8.50001e-14
-5e-05
-4.48394e-14
-5e-05
-2.28186e-14
-5e-05
-6.09158e-15
-5e-05
2.90191e-15
-5e-05
8.3069e-15
-5e-05
1.0789e-14
-5e-05
1.15964e-14
-5e-05
1.12426e-14
-5e-05
1.01053e-14
-5e-05
8.43668e-15
-5e-05
6.48359e-15
-5e-05
4.42832e-15
-5e-05
2.20188e-15
1.26509e-15
-5e-05
3.22608e-11
-5e-05
-8.41694e-12
-5e-05
1.62179e-12
-5e-05
-7.21019e-13
-5e-05
1.06801e-14
-5e-05
-8.57858e-14
-5e-05
-2.05397e-15
-5e-05
7.02853e-15
-5e-05
2.14373e-14
-5e-05
2.43959e-14
-5e-05
2.50455e-14
-5e-05
2.33028e-14
-5e-05
2.07989e-14
-5e-05
1.78725e-14
-5e-05
1.47988e-14
-5e-05
1.1686e-14
-5e-05
8.67091e-15
-5e-05
5.81376e-15
-5e-05
2.91706e-15
1.40847e-15
-4.99999e-05
-3.08673e-11
-5e-05
4.90717e-12
-5e-05
-1.50606e-12
-5e-05
-9.61634e-14
-5e-05
-6.81552e-14
-5e-05
-1.01677e-14
-5e-05
4.66043e-14
-5e-05
5.04294e-14
-5e-05
5.58668e-14
-5e-05
4.98872e-14
-5e-05
4.37558e-14
-5e-05
3.65651e-14
-5e-05
3.01059e-14
-5e-05
2.42858e-14
-5e-05
1.91597e-14
-5e-05
1.45974e-14
-5e-05
1.0574e-14
-5e-05
6.99581e-15
-5e-05
3.52744e-15
1.50751e-15
-5.00001e-05
4.72265e-11
-5e-05
-1.46736e-11
-5e-05
3.21819e-12
-5e-05
-1.15633e-12
-5e-05
3.36106e-13
-5e-05
1.17353e-14
-5e-05
1.43772e-13
-5e-05
1.02685e-13
-5e-05
9.82932e-14
-5e-05
7.77367e-14
-5e-05
6.29736e-14
-5e-05
4.92351e-14
-5e-05
3.84572e-14
-5e-05
2.96907e-14
-5e-05
2.26195e-14
-5e-05
1.67764e-14
-5e-05
1.19276e-14
-5e-05
7.80872e-15
-5e-05
3.94576e-15
1.54433e-15
-4.99999e-05
-1.6414e-11
-5e-05
2.53623e-13
-5e-05
2.74999e-13
-5e-05
-2.22657e-13
-5e-05
4.28969e-13
-5e-05
1.77534e-13
-5e-05
2.50999e-13
-5e-05
1.70369e-13
-5e-05
1.43242e-13
-5e-05
1.04791e-13
-5e-05
7.97885e-14
-5e-05
5.92493e-14
-5e-05
4.4408e-14
-5e-05
3.31146e-14
-5e-05
2.45357e-14
-5e-05
1.78066e-14
-5e-05
1.24671e-14
-5e-05
8.08813e-15
-5e-05
4.08864e-15
1.50215e-15
-5.00001e-05
2.20665e-11
-5e-05
-1.65825e-11
-5e-05
4.97253e-12
-5e-05
-1.27926e-12
-5e-05
1.14381e-12
-5e-05
2.72846e-13
-5e-05
4.072e-13
-5e-05
2.32418e-13
-5e-05
1.83173e-13
-5e-05
1.24124e-13
-5e-05
8.98709e-14
-5e-05
6.39093e-14
-5e-05
4.62809e-14
-5e-05
3.35484e-14
-5e-05
2.42943e-14
-5e-05
1.73222e-14
-5e-05
1.19759e-14
-5e-05
7.71193e-15
-5e-05
3.8955e-15
1.36708e-15
-4.99997e-05
-5.29421e-11
-5e-05
1.78806e-11
-5e-05
-1.89724e-12
-5e-05
2.81068e-12
-5e-05
7.27699e-13
-5e-05
8.17427e-13
-5e-05
4.1959e-13
-5e-05
3.0561e-13
-5e-05
1.88974e-13
-5e-05
1.30252e-13
-5e-05
8.72801e-14
-5e-05
6.08817e-14
-5e-05
4.25906e-14
-5e-05
3.02755e-14
-5e-05
2.15026e-14
-5e-05
1.51291e-14
-5e-05
1.0355e-14
-5e-05
6.63075e-15
-5e-05
3.34452e-15
1.13307e-15
-4.99999e-05
-4.63126e-11
-5e-05
4.70608e-11
-5e-05
-8.16929e-12
-5e-05
7.85741e-12
-5e-05
-3.07635e-13
-5e-05
1.40067e-12
-5e-05
2.50869e-13
-5e-05
3.37044e-13
-5e-05
1.46089e-13
-5e-05
1.14662e-13
-5e-05
6.86942e-14
-5e-05
4.8607e-14
-5e-05
3.27172e-14
-5e-05
2.30684e-14
-5e-05
1.61097e-14
-5e-05
1.12399e-14
-5e-05
7.63673e-15
-5e-05
4.88441e-15
-5e-05
2.46552e-15
8.08421e-16
-4.99999e-05
-3.14767e-11
-5e-05
5.83694e-11
-5e-05
-1.26489e-11
-5e-05
9.09775e-12
-5e-05
-1.41499e-12
-5e-05
1.3562e-12
-5e-05
-3.50963e-17
-5e-05
2.54228e-13
-5e-05
6.84903e-14
-5e-05
7.09747e-14
-5e-05
3.67628e-14
-5e-05
2.7365e-14
-5e-05
1.76538e-14
-5e-05
1.24925e-14
-5e-05
8.6001e-15
-5e-05
5.97862e-15
-5e-05
4.04595e-15
-5e-05
2.60153e-15
-5e-05
1.31879e-15
4.19153e-16
-5.00005e-05
-4.99999e-05
-5e-05
-5e-05
-5e-05
-5e-05
-5e-05
-5e-05
-5e-05
-5e-05
-5e-05
-5e-05
-5e-05
-5e-05
-5e-05
-5e-05
-5e-05
-5e-05
-5e-05
)
;

boundaryField
{
    movingWall
    {
        type            calculated;
        value           uniform -0;
    }
    fixedWalls
    {
        type            calculated;
        value           nonuniform List<scalar> 
60
(
5e-05
5e-05
5e-05
5e-05
5e-05
5e-05
5e-05
5e-05
5e-05
5e-05
5e-05
5e-05
5e-05
5e-05
5e-05
5e-05
5e-05
5e-05
5e-05
5e-05
-5e-05
-5e-05
-5e-05
-5e-05
-5e-05
-5e-05
-5e-05
-5e-05
-5e-05
-5e-05
-5e-05
-5e-05
-5e-05
-5e-05
-5e-05
-5e-05
-5e-05
-5e-05
-5e-05
-5e-05
0
0
0
0
0
0
0
0
0
0
0
0
0
0
0
0
0
0
0
0
)
;
    }
    frontAndBack
    {
        type            empty;
        value           nonuniform List<scalar> 0();
    }
}


// ************************************************************************* //
