/*--------------------------------*- C++ -*----------------------------------*\
| =========                 |                                                 |
| \\      /  F ield         | OpenFOAM: The Open Source CFD Toolbox           |
|  \\    /   O peration     | Version:  2312                                  |
|   \\  /    A nd           | Website:  www.openfoam.com                      |
|    \\/     M anipulation  |                                                 |
\*---------------------------------------------------------------------------*/
FoamFile
{
    version     2.0;
    format      ascii;
    arch        "LSB;label=32;scalar=64";
    class       volTensorField;
    location    "2.875";
    object      gradU;
}
// * * * * * * * * * * * * * * * * * * * * * * * * * * * * * * * * * * * * * //

dimensions      [0 0 -1 0 0 0 0];

internalField   nonuniform List<tensor> 
400
(
(-4.48078e-05 4.91928e-05 0 -0.000109792 1.51367e-06 0 0 0 0)
(5.41799e-05 -6.18445e-05 0 2.98927e-05 5.11164e-07 0 0 0 0)
(-1.44225e-05 1.55231e-05 0 -1.20044e-05 -3.27702e-07 0 0 0 0)
(5.507e-06 -3.68095e-06 0 2.6617e-06 -3.67047e-08 0 0 0 0)
(-1.46107e-06 9.14884e-07 0 -1.8463e-06 -2.04428e-07 0 0 0 0)
(6.86264e-07 -2.09657e-07 0 -1.29069e-07 -1.2553e-07 0 0 0 0)
(-6.05813e-08 6.32721e-08 0 -5.08505e-07 -1.22895e-07 0 0 0 0)
(1.48011e-07 -1.57021e-09 0 -2.36784e-07 -9.01935e-08 0 0 0 0)
(5.115e-08 1.24981e-08 0 -2.12983e-07 -7.10062e-08 0 0 0 0)
(5.85605e-08 7.13409e-09 0 -1.35598e-07 -5.24368e-08 0 0 0 0)
(3.66803e-08 6.31423e-09 0 -9.78496e-08 -3.87263e-08 0 0 0 0)
(2.8559e-08 4.71347e-09 0 -6.42619e-08 -2.78468e-08 0 0 0 0)
(1.95059e-08 3.59574e-09 0 -4.244e-08 -1.96705e-08 0 0 0 0)
(1.36747e-08 2.65237e-09 0 -2.66573e-08 -1.3549e-08 0 0 0 0)
(9.14037e-09 1.90911e-09 0 -1.61887e-08 -9.11008e-09 0 0 0 0)
(6.03101e-09 1.33278e-09 0 -9.218e-09 -5.98283e-09 0 0 0 0)
(3.87703e-09 9.18524e-10 0 -4.75526e-09 -3.8505e-09 0 0 0 0)
(2.38828e-09 6.64603e-10 0 -1.90866e-09 -2.36565e-09 0 0 0 0)
(1.19043e-09 6.43471e-10 0 -2.60425e-10 -1.26575e-09 0 0 0 0)
(-1.22244e-11 2.91116e-10 0 3.26724e-10 1.36261e-10 0 0 0 0)
(-3.50919e-05 -4.71679e-05 0 -5.23084e-05 -2.99074e-06 0 0 0 0)
(4.36081e-05 6.00032e-05 0 1.22726e-05 1.60741e-06 0 0 0 0)
(-1.28085e-05 -1.6071e-05 0 -4.79379e-06 -6.54432e-07 0 0 0 0)
(4.65109e-06 3.80422e-06 0 1.11494e-06 -6.09861e-08 0 0 0 0)
(-1.3297e-06 -1.00371e-06 0 -3.94907e-07 -2.41464e-07 0 0 0 0)
(6.51528e-07 2.91189e-07 0 1.29748e-07 -1.45867e-07 0 0 0 0)
(-4.71342e-08 -2.79354e-08 0 -6.31746e-09 -1.2429e-07 0 0 0 0)
(1.47511e-07 5.34592e-08 0 3.51807e-08 -9.05495e-08 0 0 0 0)
(5.00366e-08 2.52585e-08 0 1.83789e-08 -6.81461e-08 0 0 0 0)
(5.65726e-08 2.51458e-08 0 1.74628e-08 -5.0082e-08 0 0 0 0)
(3.46555e-08 1.82758e-08 0 1.22727e-08 -3.64106e-08 0 0 0 0)
(2.68506e-08 1.43424e-08 0 9.21469e-09 -2.60201e-08 0 0 0 0)
(1.80988e-08 1.0702e-08 0 6.46919e-09 -1.81938e-08 0 0 0 0)
(1.25767e-08 7.90802e-09 0 4.45705e-09 -1.24147e-08 0 0 0 0)
(8.29884e-09 5.65707e-09 0 2.91696e-09 -8.24842e-09 0 0 0 0)
(5.40234e-09 3.9268e-09 0 1.79208e-09 -5.34972e-09 0 0 0 0)
(3.43237e-09 2.69866e-09 0 9.83344e-10 -3.40402e-09 0 0 0 0)
(2.10658e-09 1.92015e-09 0 4.28965e-10 -2.0694e-09 0 0 0 0)
(1.04495e-09 1.85843e-09 0 1.08908e-10 -1.11946e-09 0 0 0 0)
(-5.41017e-11 8.38372e-10 0 -4.20128e-12 1.64755e-10 0 0 0 0)
(-8.48437e-05 4.78094e-05 0 -2.1427e-05 2.02865e-05 0 0 0 0)
(0.000101695 -5.95082e-05 0 6.09116e-06 -9.08056e-06 0 0 0 0)
(-2.55801e-05 1.38547e-05 0 -2.20534e-06 1.71492e-06 0 0 0 0)
(9.90589e-06 -3.26798e-06 0 6.30017e-07 -1.18116e-06 0 0 0 0)
(-2.44626e-06 8.30003e-07 0 -1.45447e-07 -4.56359e-09 0 0 0 0)
(1.07485e-06 -9.24827e-08 0 1.24961e-07 -2.44313e-07 0 0 0 0)
(-1.55149e-07 1.1859e-07 0 4.66735e-08 -9.07639e-08 0 0 0 0)
(1.72708e-07 5.45732e-08 0 5.54529e-08 -9.05721e-08 0 0 0 0)
(3.34321e-08 5.29657e-08 0 3.80381e-08 -5.72337e-08 0 0 0 0)
(5.24544e-08 3.88696e-08 0 2.96377e-08 -4.39299e-08 0 0 0 0)
(2.84321e-08 3.03761e-08 0 2.14264e-08 -3.06029e-08 0 0 0 0)
(2.27554e-08 2.29303e-08 0 1.54436e-08 -2.17843e-08 0 0 0 0)
(1.47482e-08 1.72011e-08 0 1.08107e-08 -1.48897e-08 0 0 0 0)
(1.01225e-08 1.25977e-08 0 7.34563e-09 -9.96432e-09 0 0 0 0)
(6.47545e-09 8.9741e-09 0 4.78209e-09 -6.43868e-09 0 0 0 0)
(4.09744e-09 6.17717e-09 0 2.919e-09 -4.05116e-09 0 0 0 0)
(2.51394e-09 4.19885e-09 0 1.59383e-09 -2.50075e-09 0 0 0 0)
(1.51376e-09 2.94917e-09 0 6.98795e-10 -1.48753e-09 0 0 0 0)
(7.57207e-10 2.87762e-09 0 1.80086e-10 -8.15939e-10 0 0 0 0)
(-1.16877e-10 1.24582e-09 0 -6.74916e-12 2.19116e-10 0 0 0 0)
(-5.04277e-05 -3.5962e-05 0 4.10056e-05 -1.09166e-05 0 0 0 0)
(6.28297e-05 4.14316e-05 0 -1.10419e-05 -3.28484e-06 0 0 0 0)
(-1.82697e-05 -8.17159e-06 0 4.42843e-06 4.50009e-07 0 0 0 0)
(6.71098e-06 2.08474e-06 0 -9.87534e-07 -1.04496e-06 0 0 0 0)
(-1.83476e-06 -6.68667e-08 0 6.45248e-07 2.77817e-08 0 0 0 0)
(8.43648e-07 2.04989e-07 0 5.46156e-09 -2.33031e-07 0 0 0 0)
(-1.16642e-07 1.25806e-07 0 1.49702e-07 -5.90475e-08 0 0 0 0)
(1.38875e-07 8.69895e-08 0 5.94607e-08 -7.52994e-08 0 0 0 0)
(2.42214e-08 7.19008e-08 0 5.94332e-08 -4.16119e-08 0 0 0 0)
(3.99609e-08 5.17765e-08 0 3.80585e-08 -3.333e-08 0 0 0 0)
(2.04614e-08 4.04214e-08 0 2.92108e-08 -2.20738e-08 0 0 0 0)
(1.62351e-08 3.00556e-08 0 2.0261e-08 -1.54794e-08 0 0 0 0)
(1.00009e-08 2.2522e-08 0 1.43135e-08 -1.01046e-08 0 0 0 0)
(6.54796e-09 1.6359e-08 0 9.64113e-09 -6.42189e-09 0 0 0 0)
(3.87223e-09 1.15702e-08 0 6.28076e-09 -3.83976e-09 0 0 0 0)
(2.2141e-09 7.86472e-09 0 3.82254e-09 -2.18932e-09 0 0 0 0)
(1.21208e-09 5.26229e-09 0 2.09162e-09 -1.20787e-09 0 0 0 0)
(6.92887e-10 3.60497e-09 0 9.13522e-10 -6.55257e-10 0 0 0 0)
(3.39437e-10 3.56508e-09 0 2.32534e-10 -3.84384e-10 0 0 0 0)
(-2.27493e-10 1.43519e-09 0 -1.06523e-11 2.96542e-10 0 0 0 0)
(-5.48799e-05 3.36079e-05 0 0.000150595 8.41251e-06 0 0 0 0)
(6.51174e-05 -4.81416e-05 0 -3.9901e-05 -6.08492e-06 0 0 0 0)
(-1.55258e-05 1.60946e-05 0 1.53325e-05 1.45968e-06 0 0 0 0)
(6.1227e-06 -3.69021e-06 0 -3.85984e-06 -7.96136e-07 0 0 0 0)
(-1.45326e-06 1.64193e-06 0 1.72578e-06 1.11445e-07 0 0 0 0)
(5.79307e-07 -1.79312e-07 0 -2.50627e-07 -1.41108e-07 0 0 0 0)
(-1.0115e-07 2.76322e-07 0 2.69901e-07 -2.78429e-08 0 0 0 0)
(8.24394e-08 7.20088e-08 0 4.69621e-08 -4.36775e-08 0 0 0 0)
(1.20299e-08 9.4935e-08 0 7.89986e-08 -2.33964e-08 0 0 0 0)
(2.2232e-08 5.84077e-08 0 4.27089e-08 -1.85624e-08 0 0 0 0)
(1.06347e-08 4.82266e-08 0 3.51911e-08 -1.16025e-08 0 0 0 0)
(7.85797e-09 3.48995e-08 0 2.36064e-08 -7.48135e-09 0 0 0 0)
(4.12829e-09 2.62587e-08 0 1.6866e-08 -4.18464e-09 0 0 0 0)
(2.08977e-09 1.88626e-08 0 1.1272e-08 -2.0186e-09 0 0 0 0)
(6.56837e-10 1.32067e-08 0 7.35e-09 -6.28843e-10 0 0 0 0)
(-9.16964e-11 8.80907e-09 0 4.46033e-09 1.07539e-10 0 0 0 0)
(-3.95083e-10 5.73291e-09 0 2.43371e-09 3.81817e-10 0 0 0 0)
(-3.45318e-10 3.77265e-09 0 1.06379e-09 3.67814e-10 0 0 0 0)
(-1.66913e-10 3.82942e-09 0 2.73002e-10 1.47556e-10 0 0 0 0)
(-3.38759e-10 1.33366e-09 0 -1.48265e-11 3.89199e-10 0 0 0 0)
(6.02662e-05 -3.36344e-05 0 0.000163534 -3.64994e-06 0 0 0 0)
(-7.24327e-05 3.44787e-05 0 -4.20896e-05 6.28814e-06 0 0 0 0)
(1.77715e-05 -2.88281e-06 0 1.61399e-05 -1.53106e-06 0 0 0 0)
(-6.89573e-06 7.36504e-07 0 -4.07848e-06 8.30405e-07 0 0 0 0)
(1.77446e-06 5.88162e-07 0 1.76885e-06 -2.12128e-07 0 0 0 0)
(-6.12226e-07 6.57018e-08 0 -2.70523e-07 8.8544e-08 0 0 0 0)
(1.80947e-07 2.23236e-07 0 2.78716e-07 -2.97957e-08 0 0 0 0)
(-5.20276e-08 9.1436e-08 0 4.92555e-08 3.69697e-09 0 0 0 0)
(1.99683e-08 9.70159e-08 0 8.36192e-08 -6.5273e-09 0 0 0 0)
(-3.84656e-09 6.35704e-08 0 4.58272e-08 -9.57762e-10 0 0 0 0)
(1.35888e-09 5.15024e-08 0 3.78438e-08 -2.03537e-10 0 0 0 0)
(-2.0901e-09 3.74735e-08 0 2.54737e-08 1.61153e-09 0 0 0 0)
(-2.33358e-09 2.79848e-08 0 1.81881e-08 2.44812e-09 0 0 0 0)
(-2.968e-09 1.99148e-08 0 1.21397e-08 2.94792e-09 0 0 0 0)
(-2.93941e-09 1.36964e-08 0 7.89646e-09 2.97609e-09 0 0 0 0)
(-2.70216e-09 8.87538e-09 0 4.78068e-09 2.68298e-09 0 0 0 0)
(-2.18448e-09 5.52256e-09 0 2.60867e-09 2.15784e-09 0 0 0 0)
(-1.46785e-09 3.37071e-09 0 1.13616e-09 1.50825e-09 0 0 0 0)
(-7.39155e-10 3.58647e-09 0 2.85687e-10 7.4149e-10 0 0 0 0)
(-4.85668e-10 8.9844e-10 0 -2.05456e-11 4.88475e-10 0 0 0 0)
(6.65648e-05 3.62461e-05 0 1.29889e-05 -1.13964e-05 0 0 0 0)
(-8.2277e-05 -4.60227e-05 0 -6.45435e-06 6.78927e-06 0 0 0 0)
(2.24854e-05 1.06369e-05 0 2.15536e-06 -1.57853e-06 0 0 0 0)
(-8.24837e-06 -2.37128e-06 0 -6.00884e-07 1.11193e-06 0 0 0 0)
(2.35469e-06 9.00067e-07 0 4.88183e-07 -1.69737e-07 0 0 0 0)
(-9.10831e-07 3.02023e-09 0 5.59843e-08 1.7764e-07 0 0 0 0)
(2.18629e-07 1.91475e-07 0 1.50317e-07 -2.19419e-09 0 0 0 0)
(-1.12658e-07 9.52773e-08 0 7.71279e-08 3.59707e-08 0 0 0 0)
(8.60165e-09 9.02803e-08 0 7.06845e-08 1.25101e-08 0 0 0 0)
(-2.35434e-08 6.47314e-08 0 4.86025e-08 1.54356e-08 0 0 0 0)
(-9.71882e-09 5.07959e-08 0 3.68772e-08 1.17322e-08 0 0 0 0)
(-1.17978e-08 3.75512e-08 0 2.59213e-08 1.09406e-08 0 0 0 0)
(-9.20574e-09 2.75951e-08 0 1.81699e-08 9.40947e-09 0 0 0 0)
(-8.2018e-09 1.93906e-08 0 1.21788e-08 8.13549e-09 0 0 0 0)
(-6.70221e-09 1.29417e-08 0 7.85762e-09 6.74031e-09 0 0 0 0)
(-5.37946e-09 7.99083e-09 0 4.74309e-09 5.35471e-09 0 0 0 0)
(-4.0396e-09 4.55818e-09 0 2.5698e-09 3.99134e-09 0 0 0 0)
(-2.6683e-09 2.3563e-09 0 1.11716e-09 2.68215e-09 0 0 0 0)
(-1.32368e-09 2.80965e-09 0 2.79941e-10 1.35517e-09 0 0 0 0)
(-6.03874e-10 1.037e-10 0 -2.74303e-11 5.83518e-10 0 0 0 0)
(6.68008e-05 -3.82415e-05 0 -2.5776e-05 1.84595e-05 0 0 0 0)
(-8.32663e-05 4.42966e-05 0 1.16145e-05 2.53127e-06 0 0 0 0)
(2.3625e-05 -8.56014e-06 0 -3.24772e-06 -2.18e-07 0 0 0 0)
(-8.5629e-06 2.1453e-06 0 1.41418e-06 8.40607e-07 0 0 0 0)
(2.43133e-06 -3.46129e-07 0 -3.38909e-07 -5.29714e-08 0 0 0 0)
(-9.50093e-07 2.33245e-07 0 2.29473e-07 1.56358e-07 0 0 0 0)
(2.0209e-07 8.15668e-08 0 4.62296e-08 3.24153e-08 0 0 0 0)
(-1.3166e-07 1.0614e-07 0 9.03586e-08 5.04081e-08 0 0 0 0)
(-8.55717e-09 7.64808e-08 0 5.73719e-08 3.16934e-08 0 0 0 0)
(-3.76539e-08 6.27925e-08 0 4.81403e-08 2.92843e-08 0 0 0 0)
(-2.13223e-08 4.70075e-08 0 3.41793e-08 2.36066e-08 0 0 0 0)
(-2.07974e-08 3.51508e-08 0 2.47425e-08 1.99607e-08 0 0 0 0)
(-1.60761e-08 2.51796e-08 0 1.69803e-08 1.63289e-08 0 0 0 0)
(-1.32803e-08 1.72457e-08 0 1.1339e-08 1.32265e-08 0 0 0 0)
(-1.03751e-08 1.09156e-08 0 7.21569e-09 1.04178e-08 0 0 0 0)
(-7.99006e-09 6.12641e-09 0 4.31981e-09 7.93404e-09 0 0 0 0)
(-5.81037e-09 2.85e-09 0 2.32792e-09 5.74602e-09 0 0 0 0)
(-3.75768e-09 7.34535e-10 0 1.00533e-09 3.79808e-09 0 0 0 0)
(-1.88377e-09 1.48783e-09 0 2.40747e-10 1.93922e-09 0 0 0 0)
(-7.38152e-10 -1.04024e-09 0 -3.54263e-11 6.63207e-10 0 0 0 0)
(5.24033e-05 5.7237e-05 0 -0.000113821 -4.87397e-05 0 0 0 0)
(-5.97488e-05 -6.47002e-05 0 2.24552e-05 6.92491e-06 0 0 0 0)
(1.22851e-05 8.94622e-06 0 -9.92062e-06 -1.44555e-06 0 0 0 0)
(-5.33956e-06 -2.20625e-06 0 1.81615e-06 1.35203e-07 0 0 0 0)
(1.16998e-06 2.15817e-07 0 -6.75528e-07 1.02399e-07 0 0 0 0)
(-5.25692e-07 8.8407e-08 0 2.50732e-07 4.87456e-08 0 0 0 0)
(7.95147e-08 8.55253e-08 0 2.60979e-08 7.19099e-08 0 0 0 0)
(-1.01515e-07 9.45554e-08 0 8.51493e-08 5.25859e-08 0 0 0 0)
(-3.36166e-08 6.91565e-08 0 5.21827e-08 4.99768e-08 0 0 0 0)
(-4.6736e-08 5.66446e-08 0 4.42112e-08 4.14976e-08 0 0 0 0)
(-3.31167e-08 4.14724e-08 0 3.08312e-08 3.50356e-08 0 0 0 0)
(-2.89969e-08 3.02735e-08 0 2.19075e-08 2.85201e-08 0 0 0 0)
(-2.26093e-08 2.08609e-08 0 1.46685e-08 2.28725e-08 0 0 0 0)
(-1.79664e-08 1.34795e-08 0 9.55529e-09 1.79468e-08 0 0 0 0)
(-1.37214e-08 7.64924e-09 0 5.93503e-09 1.37585e-08 0 0 0 0)
(-1.02672e-08 3.319e-09 0 3.47953e-09 1.02213e-08 0 0 0 0)
(-7.35412e-09 4.22231e-10 0 1.83799e-09 7.26915e-09 0 0 0 0)
(-4.75545e-09 -1.4505e-09 0 7.81412e-10 4.75346e-09 0 0 0 0)
(-2.3644e-09 -3.25226e-10 0 1.77999e-10 2.44224e-09 0 0 0 0)
(-8.09221e-10 -2.49873e-09 0 -4.52654e-11 7.14346e-10 0 0 0 0)
(-2.45651e-05 -8.00562e-05 0 8.92212e-05 9.36845e-05 0 0 0 0)
(2.06342e-05 9.15907e-05 0 -1.47669e-05 -2.08953e-05 0 0 0 0)
(2.986e-06 -1.53499e-05 0 7.01365e-06 4.67892e-06 0 0 0 0)
(6.82185e-07 3.69325e-06 0 -9.57687e-07 -1.17011e-06 0 0 0 0)
(8.65911e-07 -4.32586e-07 0 4.84129e-07 2.58593e-07 0 0 0 0)
(-2.48467e-07 2.02755e-07 0 1.6189e-09 -1.46007e-08 0 0 0 0)
(3.65071e-08 8.54071e-08 0 1.03786e-07 8.10624e-08 0 0 0 0)
(-1.05575e-07 8.42071e-08 0 6.43315e-08 6.53951e-08 0 0 0 0)
(-4.94952e-08 6.53925e-08 0 5.45934e-08 6.51369e-08 0 0 0 0)
(-5.90053e-08 4.78513e-08 0 3.81735e-08 5.49503e-08 0 0 0 0)
(-4.3626e-08 3.40299e-08 0 2.64593e-08 4.58261e-08 0 0 0 0)
(-3.69601e-08 2.29877e-08 0 1.74202e-08 3.66639e-08 0 0 0 0)
(-2.84283e-08 1.46063e-08 0 1.10792e-08 2.87455e-08 0 0 0 0)
(-2.20137e-08 8.13163e-09 0 6.76857e-09 2.20207e-08 0 0 0 0)
(-1.64508e-08 3.19015e-09 0 3.95934e-09 1.64935e-08 0 0 0 0)
(-1.2087e-08 -3.62934e-10 0 2.19131e-09 1.2e-08 0 0 0 0)
(-8.50852e-09 -2.61788e-09 0 1.1096e-09 8.39792e-09 0 0 0 0)
(-5.4177e-09 -4.09237e-09 0 4.51028e-10 5.44092e-09 0 0 0 0)
(-2.71042e-09 -2.55128e-09 0 7.79812e-11 2.80264e-09 0 0 0 0)
(-8.70885e-10 -4.19683e-09 0 -5.5213e-11 7.244e-10 0 0 0 0)
(0.000126858 0.000130026 0 -0.000122011 -0.00013329 0 0 0 0)
(-0.000141956 -0.000153706 0 2.12154e-05 2.57144e-05 0 0 0 0)
(2.60943e-05 2.86714e-05 0 -9.69145e-06 -6.25249e-06 0 0 0 0)
(-1.18691e-05 -6.62657e-06 0 1.69073e-06 9.47323e-07 0 0 0 0)
(2.12929e-06 1.37133e-06 0 -4.30185e-07 -1.9925e-07 0 0 0 0)
(-9.06034e-07 -8.9124e-08 0 2.76974e-07 9.31628e-08 0 0 0 0)
(1.42227e-07 1.65521e-07 0 7.63539e-08 9.2084e-08 0 0 0 0)
(-1.50708e-07 7.86299e-08 0 8.53298e-08 9.09608e-08 0 0 0 0)
(-5.97746e-08 5.87117e-08 0 4.82181e-08 8.4238e-08 0 0 0 0)
(-7.48701e-08 3.73337e-08 0 3.22462e-08 6.97386e-08 0 0 0 0)
(-5.38699e-08 2.31859e-08 0 1.91407e-08 5.66469e-08 0 0 0 0)
(-4.4377e-08 1.31929e-08 0 1.09743e-08 4.4071e-08 0 0 0 0)
(-3.32609e-08 6.21767e-09 0 5.81674e-09 3.36244e-08 0 0 0 0)
(-2.50862e-08 1.22748e-09 0 2.80657e-09 2.50614e-08 0 0 0 0)
(-1.82986e-08 -2.37148e-09 0 1.19316e-09 1.83007e-08 0 0 0 0)
(-1.3117e-08 -4.77653e-09 0 4.1712e-10 1.30192e-08 0 0 0 0)
(-9.09434e-09 -6.13683e-09 0 1.00153e-10 8.95341e-09 0 0 0 0)
(-5.78712e-09 -7.04579e-09 0 -8.32125e-12 5.74045e-09 0 0 0 0)
(-2.87064e-09 -5.04174e-09 0 -4.94938e-11 2.96474e-09 0 0 0 0)
(-8.31963e-10 -6.02576e-09 0 -6.60821e-11 6.8056e-10 0 0 0 0)
(-0.000125361 -0.000187632 0 0.000190612 0.00019767 0 0 0 0)
(0.000132954 0.000218628 0 -3.68488e-05 -4.46887e-05 0 0 0 0)
(-1.65387e-05 -4.01169e-05 0 1.64843e-05 1.01914e-05 0 0 0 0)
(9.94345e-06 9.7465e-06 0 -2.72069e-06 -2.4595e-06 0 0 0 0)
(-5.47843e-07 -1.28675e-06 0 1.4369e-06 6.27043e-07 0 0 0 0)
(2.58073e-07 4.94089e-07 0 -1.05963e-07 -3.14268e-09 0 0 0 0)
(-1.55137e-07 8.32051e-08 0 2.06883e-07 1.71142e-07 0 0 0 0)
(-1.33711e-07 7.63612e-08 0 4.48885e-08 1.19388e-07 0 0 0 0)
(-1.02579e-07 4.41703e-08 0 4.73596e-08 1.10115e-07 0 0 0 0)
(-8.80827e-08 2.02602e-08 0 1.77062e-08 8.59759e-08 0 0 0 0)
(-6.48978e-08 8.3623e-09 0 8.59997e-09 6.69545e-08 0 0 0 0)
(-5.0284e-08 -3.478e-11 0 1.29711e-09 5.00553e-08 0 0 0 0)
(-3.65961e-08 -4.4033e-09 0 -1.46343e-09 3.68099e-08 0 0 0 0)
(-2.66373e-08 -7.19214e-09 0 -2.52627e-09 2.65199e-08 0 0 0 0)
(-1.88403e-08 -8.85207e-09 0 -2.40912e-09 1.87741e-08 0 0 0 0)
(-1.318e-08 -9.71019e-09 0 -1.84892e-09 1.29973e-08 0 0 0 0)
(-8.93393e-09 -9.8966e-09 0 -1.16221e-09 8.74931e-09 0 0 0 0)
(-5.56732e-09 -1.0081e-08 0 -5.73733e-10 5.54177e-09 0 0 0 0)
(-2.76818e-09 -7.61117e-09 0 -2.08031e-10 2.86071e-09 0 0 0 0)
(-7.55364e-10 -7.84213e-09 0 -7.4295e-11 5.73486e-10 0 0 0 0)
(0.000280621 0.000283007 0 -0.000169178 -0.000252512 0 0 0 0)
(-0.000316084 -0.000341184 0 3.0017e-05 5.32964e-05 0 0 0 0)
(6.02224e-05 7.09006e-05 0 -1.28607e-05 -1.25114e-05 0 0 0 0)
(-2.69165e-05 -1.61909e-05 0 2.62388e-06 2.49942e-06 0 0 0 0)
(4.74402e-06 3.82768e-06 0 -3.75103e-07 -3.15341e-07 0 0 0 0)
(-2.13605e-06 -5.45025e-07 0 3.89358e-07 3.02472e-07 0 0 0 0)
(2.93079e-07 2.88052e-07 0 8.33916e-08 1.94633e-07 0 0 0 0)
(-3.10232e-07 1.76037e-08 0 6.3785e-08 1.73603e-07 0 0 0 0)
(-8.6957e-08 2.52991e-08 0 1.77951e-08 1.37718e-07 0 0 0 0)
(-1.1363e-07 -5.82707e-09 0 -8.29604e-10 1.01965e-07 0 0 0 0)
(-7.0279e-08 -1.27347e-08 0 -9.26573e-09 7.48413e-08 0 0 0 0)
(-5.44404e-08 -1.69517e-08 0 -1.19487e-08 5.30493e-08 0 0 0 0)
(-3.70843e-08 -1.73178e-08 0 -1.11844e-08 3.72278e-08 0 0 0 0)
(-2.60319e-08 -1.68083e-08 0 -9.20569e-09 2.5653e-08 0 0 0 0)
(-1.76212e-08 -1.5894e-08 0 -6.77494e-09 1.74437e-08 0 0 0 0)
(-1.18701e-08 -1.48013e-08 0 -4.51264e-09 1.16454e-08 0 0 0 0)
(-7.81918e-09 -1.35924e-08 0 -2.62754e-09 7.61233e-09 0 0 0 0)
(-4.83294e-09 -1.29344e-08 0 -1.23477e-09 4.7282e-09 0 0 0 0)
(-2.37123e-09 -1.001e-08 0 -3.9034e-10 2.44154e-09 0 0 0 0)
(-5.49582e-10 -9.45996e-09 0 -8.18031e-11 3.96193e-10 0 0 0 0)
(-0.000264522 -0.000386848 0 0.000308974 0.000312375 0 0 0 0)
(0.000289271 0.000458629 0 -6.72652e-05 -7.83229e-05 0 0 0 0)
(-4.39319e-05 -9.09139e-05 0 3.00821e-05 1.8897e-05 0 0 0 0)
(2.24291e-05 2.19426e-05 0 -5.76108e-06 -4.24065e-06 0 0 0 0)
(-2.78237e-06 -3.4837e-06 0 2.85767e-06 1.61704e-06 0 0 0 0)
(7.16567e-07 1.00406e-06 0 -4.33666e-07 8.76121e-08 0 0 0 0)
(-4.8071e-07 -4.56638e-08 0 2.89607e-07 3.8867e-07 0 0 0 0)
(-1.99307e-07 1.94463e-08 0 -4.9285e-08 2.09023e-07 0 0 0 0)
(-1.67194e-07 -2.74679e-08 0 -4.00854e-09 1.69706e-07 0 0 0 0)
(-1.15144e-07 -4.26166e-08 0 -3.96957e-08 1.11398e-07 0 0 0 0)
(-7.60169e-08 -4.05536e-08 0 -3.23425e-08 7.68709e-08 0 0 0 0)
(-5.22027e-08 -3.76482e-08 0 -2.98504e-08 5.06797e-08 0 0 0 0)
(-3.38531e-08 -3.17996e-08 0 -2.28551e-08 3.34054e-08 0 0 0 0)
(-2.22279e-08 -2.69762e-08 0 -1.69448e-08 2.16195e-08 0 0 0 0)
(-1.41472e-08 -2.28597e-08 0 -1.15772e-08 1.38393e-08 0 0 0 0)
(-9.03265e-09 -1.95416e-08 0 -7.36154e-09 8.71615e-09 0 0 0 0)
(-5.65601e-09 -1.68138e-08 0 -4.16339e-09 5.41448e-09 0 0 0 0)
(-3.33013e-09 -1.52518e-08 0 -1.91332e-09 3.25163e-09 0 0 0 0)
(-1.61519e-09 -1.19432e-08 0 -5.71971e-10 1.67327e-09 0 0 0 0)
(-2.83275e-10 -1.06799e-08 0 -8.55978e-11 1.47273e-10 0 0 0 0)
(0.00052233 0.000517059 0 -6.20529e-05 -0.000254562 0 0 0 0)
(-0.000594976 -0.000634662 0 9.57154e-06 5.97088e-05 0 0 0 0)
(0.000121727 0.000144983 0 -4.48255e-06 -1.17728e-05 0 0 0 0)
(-5.4141e-05 -3.34709e-05 0 1.01364e-06 3.73468e-06 0 0 0 0)
(1.00714e-05 8.15594e-06 0 2.59172e-07 3.71454e-07 0 0 0 0)
(-4.70412e-06 -1.7734e-06 0 4.30186e-08 6.63194e-07 0 0 0 0)
(6.7746e-07 4.09464e-07 0 1.07229e-08 4.2891e-07 0 0 0 0)
(-6.03847e-07 -2.01361e-07 0 -9.94631e-08 2.70733e-07 0 0 0 0)
(-7.73677e-08 -7.23262e-08 0 -8.31366e-08 1.79796e-07 0 0 0 0)
(-1.41964e-07 -9.86618e-08 0 -8.44027e-08 1.08218e-07 0 0 0 0)
(-6.04336e-08 -7.3453e-08 0 -6.45523e-08 6.72597e-08 0 0 0 0)
(-4.4953e-08 -6.04173e-08 0 -4.9963e-08 4.00568e-08 0 0 0 0)
(-2.41787e-08 -4.6378e-08 0 -3.55957e-08 2.38034e-08 0 0 0 0)
(-1.4754e-08 -3.63744e-08 0 -2.46974e-08 1.36959e-08 0 0 0 0)
(-8.038e-09 -2.87974e-08 0 -1.61791e-08 7.6645e-09 0 0 0 0)
(-4.45631e-09 -2.32261e-08 0 -9.96712e-09 4.12074e-09 0 0 0 0)
(-2.37096e-09 -1.90569e-08 0 -5.52125e-09 2.15797e-09 0 0 0 0)
(-1.24152e-09 -1.66756e-08 0 -2.51513e-09 1.11761e-09 0 0 0 0)
(-5.43538e-10 -1.31144e-08 0 -7.44549e-10 5.71519e-10 0 0 0 0)
(1.08014e-10 -1.12805e-08 0 -9.05851e-11 -1.68733e-10 0 0 0 0)
(-0.000317003 -0.000581701 0 0.000678644 0.000153922 0 0 0 0)
(0.000346842 0.000701418 0 -0.000175632 -6.73444e-05 0 0 0 0)
(-5.24898e-05 -0.000146888 0 6.60557e-05 1.87901e-05 0 0 0 0)
(2.71708e-05 3.40868e-05 0 -1.75167e-05 -4.22642e-06 0 0 0 0)
(-3.75299e-06 -6.55518e-06 0 5.95218e-06 2.85936e-06 0 0 0 0)
(4.68118e-07 1.06152e-06 0 -1.93792e-06 3.81251e-07 0 0 0 0)
(-6.23192e-07 -4.38124e-07 0 2.99824e-07 6.24803e-07 0 0 0 0)
(-2.93167e-07 -2.29668e-07 0 -3.91735e-07 2.48197e-07 0 0 0 0)
(-1.52133e-07 -1.89983e-07 0 -1.36597e-07 1.59722e-07 0 0 0 0)
(-9.65593e-08 -1.55153e-07 0 -1.53868e-07 7.73301e-08 0 0 0 0)
(-4.15771e-08 -1.08715e-07 0 -9.50769e-08 4.03298e-08 0 0 0 0)
(-2.32461e-08 -8.11046e-08 0 -7.03769e-08 1.86401e-08 0 0 0 0)
(-8.58745e-09 -5.81605e-08 0 -4.63885e-08 7.49155e-09 0 0 0 0)
(-2.81128e-09 -4.31151e-08 0 -3.09516e-08 1.73504e-09 0 0 0 0)
(5.82976e-10 -3.24348e-08 0 -1.95451e-08 -9.65283e-10 0 0 0 0)
(1.62525e-09 -2.50481e-08 0 -1.17634e-08 -1.93747e-09 0 0 0 0)
(1.79595e-09 -1.98169e-08 0 -6.41075e-09 -1.96476e-09 0 0 0 0)
(1.44657e-09 -1.68383e-08 0 -2.88731e-09 -1.50476e-09 0 0 0 0)
(8.09357e-10 -1.32295e-08 0 -8.47196e-10 -7.7257e-10 0 0 0 0)
(5.51859e-10 -1.10827e-08 0 -9.55182e-11 -5.40286e-10 0 0 0 0)
(0.00102534 0.000603637 0 0.000808485 -0.000300034 0 0 0 0)
(-0.00120756 -0.000769794 0 -0.000198343 0.000137852 0 0 0 0)
(0.000279841 0.000208101 0 7.58643e-05 -2.74791e-05 0 0 0 0)
(-0.000114244 -4.94017e-05 0 -1.89077e-05 1.63598e-05 0 0 0 0)
(2.56502e-05 1.27636e-05 0 5.78877e-06 -1.66444e-06 0 0 0 0)
(-1.03565e-05 -4.00795e-06 0 -2.39701e-06 2.17832e-06 0 0 0 0)
(2.22365e-06 2.76409e-07 0 -7.23224e-08 4.95596e-08 0 0 0 0)
(-1.04027e-06 -6.66442e-07 0 -5.7276e-07 2.92769e-07 0 0 0 0)
(1.60499e-07 -2.43193e-07 0 -2.49351e-07 2.3206e-08 0 0 0 0)
(-1.00444e-07 -2.18054e-07 0 -2.0283e-07 2.45119e-08 0 0 0 0)
(2.30579e-08 -1.32143e-07 0 -1.21849e-07 -1.03632e-08 0 0 0 0)
(3.73535e-09 -9.32555e-08 0 -8.20851e-08 -1.21103e-08 0 0 0 0)
(1.52466e-08 -6.32831e-08 0 -5.21789e-08 -1.47614e-08 0 0 0 0)
(1.20895e-08 -4.48312e-08 0 -3.33519e-08 -1.30915e-08 0 0 0 0)
(1.11502e-08 -3.24699e-08 0 -2.05445e-08 -1.11671e-08 0 0 0 0)
(8.67809e-09 -2.42256e-08 0 -1.20803e-08 -8.77233e-09 0 0 0 0)
(6.5051e-09 -1.86242e-08 0 -6.46957e-09 -6.48371e-09 0 0 0 0)
(4.32204e-09 -1.54834e-08 0 -2.88325e-09 -4.32473e-09 0 0 0 0)
(2.24826e-09 -1.21499e-08 0 -8.59935e-10 -2.20391e-09 0 0 0 0)
(1.05067e-09 -9.96765e-09 0 -9.90419e-11 -9.36048e-10 0 0 0 0)
(0.000293138 -0.000743883 0 -0.000693423 2.65181e-05 0 0 0 0)
(-0.000385779 0.000973974 0 0.000161927 0.000116721 0 0 0 0)
(0.000126946 -0.00026838 0 -7.26261e-05 -2.50882e-05 0 0 0 0)
(-4.29048e-05 5.99015e-05 0 1.28518e-05 2.01869e-05 0 0 0 0)
(1.27577e-05 -2.07366e-05 0 -9.41408e-06 -4.14134e-06 0 0 0 0)
(-5.39298e-06 2.77552e-06 0 7.57162e-08 2.33298e-06 0 0 0 0)
(1.20106e-06 -2.32368e-06 0 -1.66239e-06 -6.74884e-07 0 0 0 0)
(-4.70196e-07 -2.56022e-07 0 -4.00079e-07 1.25736e-07 0 0 0 0)
(2.17797e-07 -4.5824e-07 0 -4.11486e-07 -1.71539e-07 0 0 0 0)
(3.09433e-08 -1.88722e-07 0 -1.87646e-07 -6.23578e-08 0 0 0 0)
(7.91675e-08 -1.45337e-07 0 -1.34021e-07 -7.43435e-08 0 0 0 0)
(4.64237e-08 -8.55028e-08 0 -7.67849e-08 -4.90988e-08 0 0 0 0)
(4.01458e-08 -5.91417e-08 0 -4.98697e-08 -3.94936e-08 0 0 0 0)
(2.8823e-08 -3.95207e-08 0 -3.01912e-08 -2.88286e-08 0 0 0 0)
(2.18546e-08 -2.81157e-08 0 -1.84885e-08 -2.15713e-08 0 0 0 0)
(1.57001e-08 -2.03647e-08 0 -1.06591e-08 -1.55569e-08 0 0 0 0)
(1.09929e-08 -1.53693e-08 0 -5.71575e-09 -1.08731e-08 0 0 0 0)
(7.05626e-09 -1.25585e-08 0 -2.52196e-09 -6.98535e-09 0 0 0 0)
(3.59356e-09 -9.84084e-09 0 -7.24274e-10 -3.51598e-09 0 0 0 0)
(1.51089e-09 -7.94269e-09 0 -7.89028e-11 -1.29858e-09 0 0 0 0)
(0.000493846 0.000746876 0 -0.00296732 5.93437e-05 0 0 0 0)
(-0.000586767 -0.0008214 0 0.000791272 4.52342e-05 0 0 0 0)
(0.000130766 0.000111567 0 -0.0002988 -1.79184e-05 0 0 0 0)
(-5.10325e-05 -2.84549e-05 0 7.62641e-05 4.96136e-06 0 0 0 0)
(1.28741e-05 -5.09034e-06 0 -3.17943e-05 -4.42942e-06 0 0 0 0)
(-2.60479e-06 -5.41501e-07 0 6.33894e-06 -1.7788e-07 0 0 0 0)
(1.74785e-06 -1.93083e-06 0 -3.67295e-06 -1.00362e-06 0 0 0 0)
(2.1064e-07 -1.63097e-07 0 3.04215e-07 -3.31264e-07 0 0 0 0)
(3.72932e-07 -4.31286e-07 0 -5.37484e-07 -3.10396e-07 0 0 0 0)
(1.77021e-07 -1.20858e-07 0 -8.1592e-08 -1.74751e-07 0 0 0 0)
(1.33919e-07 -1.18884e-07 0 -1.19031e-07 -1.27726e-07 0 0 0 0)
(8.78862e-08 -5.84055e-08 0 -4.94447e-08 -8.49682e-08 0 0 0 0)
(6.18402e-08 -4.30129e-08 0 -3.70897e-08 -6.02536e-08 0 0 0 0)
(4.34706e-08 -2.6909e-08 0 -2.05119e-08 -4.23037e-08 0 0 0 0)
(3.06825e-08 -1.91983e-08 0 -1.30113e-08 -3.00386e-08 0 0 0 0)
(2.14508e-08 -1.35273e-08 0 -7.40822e-09 -2.10451e-08 0 0 0 0)
(1.46422e-08 -1.00526e-08 0 -4.08064e-09 -1.43631e-08 0 0 0 0)
(9.31357e-09 -8.12633e-09 0 -1.79232e-09 -9.13153e-09 0 0 0 0)
(4.69132e-09 -6.46313e-09 0 -4.68186e-10 -4.58695e-09 0 0 0 0)
(1.8538e-09 -5.15309e-09 0 -2.9924e-11 -1.55707e-09 0 0 0 0)
(-0.00188291 -0.000639305 0 0.00189305 0.000125907 0 0 0 0)
(0.00228275 0.000896712 0 -0.000503987 -0.000233477 0 0 0 0)
(-0.000588062 -0.000308653 0 0.000197076 5.05956e-05 0 0 0 0)
(0.000224101 7.33905e-05 0 -4.66905e-05 -3.6391e-05 0 0 0 0)
(-5.71675e-05 -2.58759e-05 0 2.40079e-05 5.65996e-06 0 0 0 0)
(2.27284e-05 6.20132e-06 0 -2.3972e-06 -5.4248e-06 0 0 0 0)
(-4.83366e-06 -2.47706e-06 0 3.88429e-06 1.40385e-10 0 0 0 0)
(2.66527e-06 4.37198e-07 0 6.8861e-07 -1.01691e-06 0 0 0 0)
(-1.68009e-07 -3.01727e-07 0 1.00837e-06 -2.73961e-07 0 0 0 0)
(4.49397e-07 -6.05167e-09 0 4.83687e-07 -2.83899e-07 0 0 0 0)
(1.11315e-07 -5.55548e-08 0 3.81955e-07 -1.47051e-07 0 0 0 0)
(1.28365e-07 -1.80306e-08 0 2.38453e-07 -1.0946e-07 0 0 0 0)
(6.90786e-08 -1.64771e-08 0 1.65703e-07 -7.06151e-08 0 0 0 0)
(5.29014e-08 -9.30568e-09 0 1.07534e-07 -4.99699e-08 0 0 0 0)
(3.49583e-08 -6.85711e-09 0 6.93313e-08 -3.44004e-08 0 0 0 0)
(2.46309e-08 -4.68928e-09 0 4.18937e-08 -2.39145e-08 0 0 0 0)
(1.66088e-08 -3.45572e-09 0 2.32497e-08 -1.61838e-08 0 0 0 0)
(1.06686e-08 -2.78233e-09 0 1.06426e-08 -1.04061e-08 0 0 0 0)
(5.35593e-09 -2.26638e-09 0 3.26751e-09 -5.27515e-09 0 0 0 0)
(2.00905e-09 -1.79867e-09 0 5.95335e-10 -1.67661e-09 0 0 0 0)
)
;

boundaryField
{
    movingWall
    {
        type            extrapolatedCalculated;
        value           nonuniform List<tensor> 
20
(
(-0.00188291 -0.000639305 0 0.0101316 0.00390679 0 0 0 0)
(0.00228275 0.000896712 0 -0.00259997 -0.00134957 0 0 0 0)
(-0.000588062 -0.000308653 0 0.00100065 0.000319947 0 0 0 0)
(0.000224101 7.33905e-05 0 -0.000247726 -0.000114959 0 0 0 0)
(-5.71675e-05 -2.58759e-05 0 0.000104245 2.63852e-05 0 0 0 0)
(2.27284e-05 6.20132e-06 0 -1.90562e-05 -1.14553e-05 0 0 0 0)
(-4.83366e-06 -2.47706e-06 0 1.33318e-05 1.57986e-06 0 0 0 0)
(2.66527e-06 4.37198e-07 0 2.7842e-07 -1.54705e-06 0 0 0 0)
(-1.68009e-07 -3.01727e-07 0 2.6707e-06 -1.68931e-07 0 0 0 0)
(4.49397e-07 -6.05167e-09 0 9.50458e-07 -3.40146e-07 0 0 0 0)
(1.11315e-07 -5.55548e-08 0 8.73109e-07 -1.44725e-07 0 0 0 0)
(1.28365e-07 -1.80306e-08 0 5.05198e-07 -1.17927e-07 0 0 0 0)
(6.90786e-08 -1.64771e-08 0 3.59648e-07 -7.26023e-08 0 0 0 0)
(5.29014e-08 -9.30568e-09 0 2.28884e-07 -5.20184e-08 0 0 0 0)
(3.49583e-08 -6.85711e-09 0 1.48043e-07 -3.53796e-08 0 0 0 0)
(2.46309e-08 -4.68928e-09 0 8.90505e-08 -2.45899e-08 0 0 0 0)
(1.66088e-08 -3.45572e-09 0 4.95194e-08 -1.66225e-08 0 0 0 0)
(1.06686e-08 -2.78233e-09 0 2.26151e-08 -1.07671e-08 0 0 0 0)
(5.35593e-09 -2.26638e-09 0 6.84492e-09 -5.49315e-09 0 0 0 0)
(2.00905e-09 -1.79867e-09 0 1.19131e-09 -1.70154e-09 0 0 0 0)
)
;
    }
    fixedWalls
    {
        type            extrapolatedCalculated;
        value           nonuniform List<tensor> 
60
(
(-0.000242522 0.00026288 0 -0.000109792 1.51367e-06 0 0 0 0)
(-0.000196647 -0.000256825 0 -5.23084e-05 -2.99074e-06 0 0 0 0)
(-0.000451756 0.000250917 0 -2.1427e-05 2.02865e-05 0 0 0 0)
(-0.000282355 -0.000175679 0 4.10056e-05 -1.09166e-05 0 0 0 0)
(-0.000287734 0.00020725 0 0.000150595 8.41251e-06 0 0 0 0)
(0.000320024 -0.000142029 0 0.000163534 -3.64994e-06 0 0 0 0)
(0.000366404 0.00019265 0 1.29889e-05 -1.13964e-05 0 0 0 0)
(0.00037198 -0.000187614 0 -2.5776e-05 1.84595e-05 0 0 0 0)
(0.0002633 0.000266488 0 -0.000113821 -4.87397e-05 0 0 0 0)
(-8.3304e-05 -0.000382573 0 8.92212e-05 9.36845e-05 0 0 0 0)
(0.000620185 0.000641226 0 -0.000122011 -0.00013329 0 0 0 0)
(-0.000571348 -0.000915732 0 0.000190612 0.00019767 0 0 0 0)
(0.00138263 0.00143191 0 -0.000169178 -0.000252512 0 0 0 0)
(-0.00124806 -0.00192578 0 0.000308974 0.000312375 0 0 0 0)
(0.00261853 0.00268141 0 -6.20529e-05 -0.000254562 0 0 0 0)
(-0.00149627 -0.00294403 0 0.000678644 0.000153922 0 0 0 0)
(0.00533311 0.00329709 0 0.000808485 -0.000300034 0 0 0 0)
(0.00173767 -0.00414417 0 -0.000693423 2.65181e-05 0 0 0 0)
(0.00255941 0.00340317 0 -0.00296732 5.93437e-05 0 0 0 0)
(-0.0101316 -0.00390679 0 0.00189305 0.000125907 0 0 0 0)
(-6.51657e-10 -1.2782e-10 0 3.26724e-10 1.36261e-10 0 0 0 0)
(-6.55209e-10 -4.17222e-10 0 -4.20128e-12 1.64755e-10 0 0 0 0)
(-6.3487e-10 -7.86842e-10 0 -6.74916e-12 2.19116e-10 0 0 0 0)
(-6.28209e-10 -1.29368e-09 0 -1.06523e-11 2.96542e-10 0 0 0 0)
(-5.92193e-10 -1.97301e-09 0 -1.48265e-11 3.89199e-10 0 0 0 0)
(-5.69012e-10 -2.85048e-09 0 -2.05456e-11 4.88475e-10 0 0 0 0)
(-5.09948e-10 -3.92691e-09 0 -2.74303e-11 5.83518e-10 0 0 0 0)
(-4.59321e-10 -5.18455e-09 0 -3.54263e-11 6.63207e-10 0 0 0 0)
(-3.68239e-10 -6.57974e-09 0 -4.52654e-11 7.14346e-10 0 0 0 0)
(-2.78266e-10 -8.04194e-09 0 -5.5213e-11 7.244e-10 0 0 0 0)
(-1.47349e-10 -9.47734e-09 0 -6.60821e-11 6.8056e-10 0 0 0 0)
(-1.40776e-11 -1.07642e-08 0 -7.4295e-11 5.73486e-10 0 0 0 0)
(1.49925e-10 -1.17713e-08 0 -8.18031e-11 3.96193e-10 0 0 0 0)
(3.13083e-10 -1.23489e-08 0 -8.55978e-11 1.47273e-10 0 0 0 0)
(4.92317e-10 -1.23604e-08 0 -9.05851e-11 -1.68733e-10 0 0 0 0)
(6.7546e-10 -1.1674e-08 0 -9.55182e-11 -5.40286e-10 0 0 0 0)
(8.74412e-10 -1.01992e-08 0 -9.90419e-11 -9.36048e-10 0 0 0 0)
(1.07159e-09 -7.92982e-09 0 -7.89028e-11 -1.29858e-09 0 0 0 0)
(1.19007e-09 -5.00492e-09 0 -2.9924e-11 -1.55707e-09 0 0 0 0)
(1.19131e-09 -1.70154e-09 0 5.95335e-10 -1.67661e-09 0 0 0 0)
(-4.48078e-05 4.91928e-05 0 -0.000242522 0.00026288 0 0 0 0)
(5.41799e-05 -6.18445e-05 0 6.3291e-05 -6.61085e-05 0 0 0 0)
(-1.44225e-05 1.55231e-05 0 -2.58026e-05 1.55014e-05 0 0 0 0)
(5.507e-06 -3.68095e-06 0 5.60108e-06 -4.01601e-06 0 0 0 0)
(-1.46107e-06 9.14884e-07 0 -3.77456e-06 7.77627e-07 0 0 0 0)
(6.86264e-07 -2.09657e-07 0 -2.43199e-07 -3.56477e-07 0 0 0 0)
(-6.05813e-08 6.32721e-08 0 -1.0295e-06 -6.10007e-08 0 0 0 0)
(1.48011e-07 -1.57021e-09 0 -4.85524e-07 -1.03389e-07 0 0 0 0)