/*--------------------------------*- C++ -*----------------------------------*\
| =========                 |                                                 |
| \\      /  F ield         | OpenFOAM: The Open Source CFD Toolbox           |
|  \\    /   O peration     | Version:  2312                                  |
|   \\  /    A nd           | Website:  www.openfoam.com                      |
|    \\/     M anipulation  |                                                 |
\*---------------------------------------------------------------------------*/
FoamFile
{
    version     2.0;
    format      ascii;
    arch        "LSB;label=32;scalar=64";
    class       volScalarField;
    location    "2.875";
    object      Lambda2Field;
}
// * * * * * * * * * * * * * * * * * * * * * * * * * * * * * * * * * * * * * //

dimensions      [0 0 -2 0 0 0 0];

internalField   nonuniform List<scalar> 
400
(
0
0
3.20278e-12
0
2.58673e-13
4.2818e-14
0
8.50666e-15
0
1.78226e-15
7.27601e-16
4.72546e-16
2.27877e-16
1.12871e-16
5.26404e-17
2.35087e-17
1.06635e-17
4.32778e-18
1.24954e-18
9.52642e-20
2.48283e-09
7.38978e-10
1.09263e-10
4.24518e-12
5.47337e-13
5.90586e-14
2.39812e-15
1.00799e-14
2.96789e-15
2.94732e-15
1.4253e-15
8.09207e-16
3.96801e-16
1.89371e-16
8.53721e-17
3.56567e-17
1.44349e-17
5.10607e-18
1.29433e-18
0
5.85551e-10
0
3.68681e-11
0
1.17175e-13
4.81324e-14
1.50661e-14
1.12295e-14
3.13241e-15
3.08184e-15
1.45924e-15
8.28683e-16
4.03466e-16
1.91826e-16
8.48464e-17
3.4443e-17
1.30122e-17
4.27361e-18
1.09158e-18
5.25197e-21
1.25532e-10
0
3.70532e-12
0
8.44031e-14
5.54231e-14
2.24627e-14
1.08424e-14
4.85997e-15
3.08143e-15
1.59941e-15
8.48571e-16
4.22387e-16
1.9896e-16
8.76639e-17
3.48564e-17
1.24758e-17
3.72258e-18
9.44221e-19
3.64648e-20
8.07299e-09
1.95793e-09
2.49046e-10
1.48775e-11
2.84778e-12
6.48517e-14
7.53651e-14
5.28941e-15
7.64445e-15
2.83909e-15
1.81025e-15
8.79823e-16
4.59921e-16
2.16693e-16
9.75004e-17
3.92997e-17
1.41083e-17
4.13256e-18
1.0733e-18
9.49841e-20
0
0
4.62819e-11
0
1.43388e-12
0
6.38768e-14
4.51739e-15
8.19986e-15
2.91417e-15
1.95089e-15
9.57186e-16
5.14435e-16
2.5045e-16
1.16793e-16
4.96287e-17
1.91785e-17
5.98425e-18
1.57096e-18
2.17415e-19
7.35901e-10
3.43141e-10
4.34022e-11
2.66125e-12
5.1062e-13
3.1725e-14
2.92102e-14
8.64242e-15
6.45541e-15
3.38436e-15
1.96767e-15
1.09307e-15
5.86145e-16
3.0234e-16
1.46611e-16
6.65741e-17
2.8032e-17
9.7522e-18
2.53865e-18
3.37649e-19
1.36531e-09
5.2089e-10
3.4904e-11
3.74047e-12
1.20125e-13
7.79709e-14
5.13374e-15
1.21317e-14
4.46108e-15
3.88042e-15
2.06132e-15
1.26815e-15
6.85997e-16
3.70489e-16
1.86406e-16
8.94139e-17
3.97195e-17
1.48586e-17
3.9068e-18
4.76696e-19
0
0
2.32699e-12
0
6.33191e-14
2.45426e-14
8.28597e-15
1.08166e-14
4.73884e-15
4.22637e-15
2.37536e-15
1.47661e-15
8.17177e-16
4.50888e-16
2.33674e-16
1.16024e-16
5.41176e-17
2.1462e-17
5.5325e-18
6.23397e-19
0
-9.159e-10
0
-2.16782e-12
6.75347e-14
5.41421e-16
1.01968e-14
9.6937e-15
6.01978e-15
4.84619e-15
2.80364e-15
1.74469e-15
9.69993e-16
5.39643e-16
2.83261e-16
1.43204e-16
6.94901e-17
2.75057e-17
7.14745e-18
7.56475e-19
2.28215e-10
0
1.29153e-10
0
2.61137e-13
0
2.31053e-14
1.49833e-14
6.40397e-15
6.06735e-15
3.34576e-15
2.08704e-15
1.14245e-15
6.31518e-16
3.3201e-16
1.67506e-16
8.20924e-17
3.30114e-17
8.49012e-18
8.61357e-19
0
0
0
0
0
0
4.12812e-14
1.76814e-14
1.26143e-14
7.75059e-15
4.28364e-15
2.50549e-15
1.34572e-15
7.21472e-16
3.76282e-16
1.86883e-16
9.13171e-17
3.6495e-17
9.24621e-18
9.11516e-19
3.08693e-08
0
9.98693e-10
0
3.07951e-12
0
7.23746e-14
3.1261e-14
8.01172e-15
1.04017e-14
5.05714e-15
3.01678e-15
1.56893e-15
8.1281e-16
4.18189e-16
2.02408e-16
9.68541e-17
3.83269e-17
9.53005e-18
9.30823e-19
0
0
0
0
0
0
1.65941e-13
3.87651e-14
2.80638e-14
1.41012e-14
7.09017e-15
3.69225e-15
1.8627e-15
9.24511e-16
4.64796e-16
2.19828e-16
1.01993e-16
3.97547e-17
9.43999e-18
9.35862e-19
1.1656e-07
0
5.07369e-09
0
1.78415e-11
3.63536e-13
2.28103e-13
9.33245e-14
1.19987e-14
2.00385e-14
8.39379e-15
4.62317e-15
2.23547e-15
1.08593e-15
5.30526e-16
2.48478e-16
1.10839e-16
4.31904e-17
1.00597e-17
1.03351e-18
0
-2.89198e-09
0
0
0
-1.83801e-12
2.57008e-13
1.51571e-13
4.90956e-14
2.9853e-14
1.20093e-14
6.05535e-15
2.77172e-15
1.33749e-15
6.34281e-16
2.97292e-16
1.30267e-16
5.07099e-17
1.18631e-17
1.3505e-18
5.88543e-07
1.71687e-07
2.09142e-08
1.20172e-09
8.88181e-11
1.43522e-11
1.2869e-14
4.67425e-13
6.11884e-14
4.48287e-14
1.62353e-14
7.66884e-15
3.5345e-15
1.64136e-15
7.91407e-16
3.67961e-16
1.62807e-16
6.33225e-17
1.55028e-17
1.8634e-18
5.17166e-07
1.71337e-07
2.97008e-08
1.17735e-09
2.44417e-10
5.65293e-12
4.42766e-12
1.18238e-13
2.18531e-13
3.63704e-14
2.50371e-14
8.72048e-15
4.53061e-15
2.02395e-15
9.9744e-16
4.59087e-16
2.08692e-16
8.04672e-17
2.00411e-17
2.31301e-18
0
-3.05655e-07
0
0
3.27588e-10
0
8.85785e-12
0
3.30975e-13
4.03988e-14
3.04648e-14
1.01074e-14
5.2346e-15
2.34156e-15
1.16168e-15
5.43111e-16
2.55414e-16
9.79498e-17
2.50344e-17
2.57867e-18
4.08824e-07
0
5.67226e-09
0
3.29075e-11
1.45627e-11
4.95071e-13
1.33517e-12
0
7.76714e-14
0
7.68201e-15
2.04154e-15
1.49631e-15
7.46668e-16
3.75451e-16
1.95509e-16
7.86762e-17
2.12806e-17
1.74022e-18
)
;

boundaryField
{
    movingWall
    {
        type            calculated;
        value           nonuniform List<scalar> 
20
(
0
0
3.69635e-08
0
5.70678e-10
1.30499e-11
0
2.5151e-12
0
1.09948e-13
0
4.79775e-15
0
5.75992e-16
2.06936e-16
1.87082e-16
1.04728e-16
5.08971e-17
1.31728e-17
7.5244e-19
)
;
    }
    fixedWalls
    {
        type            calculated;
        value           nonuniform List<scalar> 
60
(
5.86121e-09
1.34431e-08
1.35779e-08
0
3.2084e-08
0
1.07018e-08
5.1767e-09
8.20239e-09
-2.53568e-08
8.51623e-08
0
4.62382e-07
0
1.78005e-06
0
4.30396e-06
2.87437e-06
0
0
2.84577e-20
2.88972e-20
2.05458e-19
1.01718e-19
3.79945e-19
2.97172e-19
3.67763e-19
3.94646e-19
4.33435e-19
5.21452e-19
6.47994e-19
7.99922e-19
9.85404e-19
1.07873e-18
1.36204e-18
1.40699e-18
1.77475e-18
1.77398e-18
1.56603e-18
4.06244e-19
0
0
0
0
0
1.78064e-13
0
1.14517e-14
0
8.47045e-16
6.23024e-17
1.59272e-16
6.05362e-17
3.79871e-17
1.81022e-17
1.02265e-17
5.70291e-18
2.97239e-18
1.02923e-18
1.89857e-19
)
;
    }
    frontAndBack
    {
        type            empty;
    }
}


// ************************************************************************* //
