/*--------------------------------*- C++ -*----------------------------------*\
| =========                 |                                                 |
| \\      /  F ield         | OpenFOAM: The Open Source CFD Toolbox           |
|  \\    /   O peration     | Version:  2312                                  |
|   \\  /    A nd           | Website:  www.openfoam.com                      |
|    \\/     M anipulation  |                                                 |
\*---------------------------------------------------------------------------*/
FoamFile
{
    version     2.0;
    format      ascii;
    arch        "LSB;label=32;scalar=64";
    class       volVectorField;
    location    "2.875";
    object      LambVectorField;
}
// * * * * * * * * * * * * * * * * * * * * * * * * * * * * * * * * * * * * * //

dimensions      [0 1 -2 0 0 0 0];

internalField   nonuniform List<vector> 
400
(
(-1.04485e-10 -0.000158985 -0.000158985)
(-1.51615e-11 9.17372e-05 -0)
(-1.06679e-12 -2.75275e-05 -2.75275e-05)
(-6.36804e-14 6.34265e-06 -0)
(-5.36792e-15 -2.76118e-06 -2.76118e-06)
(-7.18196e-17 8.05881e-08 -0)
(8.7197e-17 -5.71777e-07 -5.71777e-07)
(6.07964e-17 -2.35214e-07 -0)
(3.79268e-17 -2.25481e-07 -2.25481e-07)
(1.90534e-17 -1.42732e-07 -0)
(1.00896e-17 -1.04164e-07 -1.04164e-07)
(4.85235e-18 -6.89754e-08 -0)
(2.28928e-18 -4.60358e-08 -4.60358e-08)
(1.008e-18 -2.93096e-08 -0)
(4.1995e-19 -1.80978e-08 -1.80978e-08)
(1.61431e-19 -1.05508e-08 -0)
(5.60385e-20 -5.67378e-09 -5.67378e-09)
(1.57359e-20 -2.57326e-09 -0)
(2.92023e-21 -9.03897e-10 -9.03897e-10)
(1.13786e-23 3.56082e-11 0)
(3.30054e-12 -5.14053e-06 -5.14053e-06)
(-8.13248e-12 -4.77306e-05 0)
(-4.73988e-13 1.12772e-05 1.12772e-05)
(-2.60134e-14 -2.68929e-06 0)
(-2.42811e-15 6.08802e-07 6.08802e-07)
(5.87821e-17 -1.61441e-07 -0)
(-2.32706e-17 2.16179e-08 2.16179e-08)
(1.17615e-17 -1.82785e-08 -0)
(3.7278e-18 -6.87966e-09 -6.87966e-09)
(3.00309e-18 -7.68295e-09 -0)
(1.74331e-18 -6.00313e-09 -6.00313e-09)
(1.06717e-18 -5.12771e-09 -0)
(6.22127e-19 -4.23284e-09 -4.23284e-09)
(3.48888e-19 -3.45097e-09 -0)
(1.86043e-19 -2.7401e-09 -2.7401e-09)
(9.50545e-20 -2.13472e-09 -0)
(4.91066e-20 -1.71532e-09 -1.71532e-09)
(2.61573e-20 -1.49119e-09 -0)
(1.64924e-20 -1.74953e-09 -1.74953e-09)
(-8.7885e-22 -8.42573e-10 0)
(-4.34314e-11 -6.92365e-05 -6.92366e-05)
(-9.78725e-12 6.55994e-05 -0)
(-5.17283e-13 -1.60601e-05 -1.60601e-05)
(-4.15133e-14 3.898e-06 -0)
(4.59017e-16 -9.75449e-07 -9.75449e-07)
(-5.10963e-16 2.17443e-07 -0)
(1.00352e-16 -7.19164e-08 -7.19164e-08)
(-1.02398e-18 8.79731e-10 -0)
(1.26834e-17 -1.49276e-08 -1.49276e-08)
(5.85594e-18 -9.23197e-09 -0)
(4.12554e-18 -8.94971e-09 -8.94971e-09)
(2.47473e-18 -7.48671e-09 -0)
(1.48044e-18 -6.39042e-09 -6.39042e-09)
(8.32658e-19 -5.25209e-09 -0)
(4.43048e-19 -4.19201e-09 -4.19201e-09)
(2.24155e-19 -3.25818e-09 -0)
(1.14405e-19 -2.60502e-09 -2.60502e-09)
(6.03304e-20 -2.25037e-09 -0)
(3.89129e-20 -2.69754e-09 -2.69754e-09)
(-2.46394e-21 -1.25257e-09 0)
(-3.38039e-11 7.69676e-05 7.69677e-05)
(-4.1757e-12 -5.24734e-05 0)
(-3.13506e-13 1.26e-05 1.26e-05)
(6.5703e-15 -3.07228e-06 -0)
(-2.87266e-15 7.12115e-07 7.12115e-07)
(5.60123e-16 -1.99528e-07 -0)
(-4.74109e-17 2.38955e-08 2.38955e-08)
(4.26472e-17 -2.75288e-08 -0)
(1.38913e-17 -1.24675e-08 -1.24675e-08)
(1.13884e-17 -1.3718e-08 -0)
(6.68629e-18 -1.12105e-08 -1.12105e-08)
(4.17212e-18 -9.79458e-09 -0)
(2.42869e-18 -8.20853e-09 -8.20853e-09)
(1.34856e-18 -6.7179e-09 -0)
(6.99708e-19 -5.28947e-09 -5.28947e-09)
(3.43745e-19 -4.04218e-09 -0)
(1.70062e-19 -3.17067e-09 -3.17067e-09)
(8.72475e-20 -2.69145e-09 -0)
(5.86067e-20 -3.33255e-09 -3.33255e-09)
(-4.67618e-21 -1.44585e-09 0)
(6.06139e-11 0.000116987 0.000116987)
(-1.50015e-12 8.24054e-06 -0)
(-2.79773e-14 -7.62132e-07 -7.62132e-07)
(3.57918e-15 -1.69634e-07 -0)
(-1.61619e-17 8.38476e-08 8.38476e-08)
(3.33765e-16 -7.13146e-08 -0)
(1.27502e-17 -6.42046e-09 -6.42046e-09)
(4.80136e-17 -2.50467e-08 -0)
(2.01721e-17 -1.59365e-08 -1.59365e-08)
(1.51902e-17 -1.56987e-08 -0)
(8.8864e-18 -1.30355e-08 -1.30355e-08)
(5.48104e-18 -1.12931e-08 -0)
(3.12507e-18 -9.3927e-09 -9.3927e-09)
(1.69087e-18 -7.59063e-09 -0)
(8.43867e-19 -5.85667e-09 -5.85667e-09)
(3.94391e-19 -4.34874e-09 -0)
(1.84741e-19 -3.2992e-09 -3.2992e-09)
(9.03721e-20 -2.70886e-09 -0)
(6.49729e-20 -3.55642e-09 -3.55642e-09)
(-6.65147e-21 -1.34849e-09 0)
(-7.00091e-11 0.000197169 0.000197168)
(-1.43398e-12 -7.65684e-05 0)
(-1.95641e-13 1.90227e-05 1.90227e-05)
(4.8631e-14 -4.81498e-06 -0)
(-3.44707e-15 1.18069e-06 1.18069e-06)
(1.4183e-15 -3.36225e-07 -0)
(-1.25525e-16 5.54801e-08 5.54801e-08)
(8.37687e-17 -4.21805e-08 -0)
(1.80608e-17 -1.33967e-08 -1.33967e-08)
(1.80235e-17 -1.77432e-08 -0)
(9.73109e-18 -1.36585e-08 -1.36585e-08)
(6.00917e-18 -1.19997e-08 -0)
(3.30855e-18 -9.79672e-09 -9.79672e-09)
(1.71775e-18 -7.77516e-09 -0)
(8.03701e-19 -5.7999e-09 -5.7999e-09)
(3.43808e-19 -4.0947e-09 -0)
(1.45163e-19 -2.91389e-09 -2.91389e-09)
(6.42174e-20 -2.23454e-09 -0)
(5.31775e-20 -3.30078e-09 -3.30078e-09)
(-6.54887e-21 -9.18986e-10 0)
(-1.12013e-11 -2.32572e-05 -2.32572e-05)
(-4.71513e-12 3.95684e-05 -0)
(-1.81494e-13 -8.48152e-06 -8.48152e-06)
(-2.26529e-14 1.7704e-06 -0)
(9.53111e-16 -4.11883e-07 -4.11883e-07)
(-2.00985e-16 5.29641e-08 -0)
(9.39975e-17 -4.11579e-08 -4.11579e-08)
(3.41206e-17 -1.81494e-08 -0)
(2.60831e-17 -1.95958e-08 -1.95958e-08)
(1.5761e-17 -1.6129e-08 -0)
(9.51685e-18 -1.39188e-08 -1.39188e-08)
(5.45707e-18 -1.16299e-08 -0)
(2.90514e-18 -9.4252e-09 -9.4252e-09)
(1.39388e-18 -7.21177e-09 -0)
(5.81244e-19 -5.08411e-09 -5.08411e-09)
(2.07404e-19 -3.24774e-09 -0)
(6.84346e-20 -1.98838e-09 -1.98838e-09)
(2.26504e-20 -1.23913e-09 -0)
(2.74581e-20 -2.52971e-09 -2.52971e-09)
(-1.28734e-21 -1.3113e-10 0)
(-5.84675e-12 1.24655e-05 1.24655e-05)
(-2.83095e-12 -3.26821e-05 0)
(-1.38494e-13 5.31242e-06 5.31242e-06)
(-7.45275e-16 -7.31115e-07 0)
(-3.33302e-17 7.21916e-09 7.21916e-09)
(9.21022e-18 -3.77171e-09 -0)
(8.07263e-17 -3.53372e-08 -3.53372e-08)
(2.5665e-17 -1.57817e-08 -0)
(2.33712e-17 -1.91088e-08 -1.91088e-08)
(1.2622e-17 -1.46522e-08 -0)
(7.63445e-18 -1.28281e-08 -1.28281e-08)
(4.07346e-18 -1.04082e-08 -0)
(1.99757e-18 -8.19937e-09 -8.19937e-09)
(8.24417e-19 -5.90671e-09 -0)
(2.63316e-19 -3.6999e-09 -3.6999e-09)
(5.49512e-20 -1.8066e-09 -0)
(5.17086e-21 -5.22083e-10 -5.22083e-10)
(-5.19098e-22 2.70792e-10 -0)
(3.19122e-21 -1.24709e-09 -1.24709e-09)
(1.30238e-20 1.00482e-09 0)
(-1.13962e-10 -0.000171058 -0.000171058)
(-8.17967e-12 8.71554e-05 -0)
(-3.62597e-13 -1.88668e-05 -1.88668e-05)
(-1.76557e-14 4.0224e-06 -0)
(2.53476e-15 -8.91346e-07 -8.91346e-07)
(-3.62175e-16 1.62325e-07 -0)
(1.16458e-16 -5.94274e-08 -5.94274e-08)
(1.2942e-17 -9.40611e-09 -0)
(1.72135e-17 -1.69738e-08 -1.69738e-08)
(8.50874e-18 -1.24334e-08 -0)
(4.76381e-18 -1.06412e-08 -1.06412e-08)
(2.25566e-18 -8.36601e-09 -0)
(8.97536e-19 -6.19237e-09 -6.19237e-09)
(2.3943e-19 -3.92424e-09 -0)
(1.73942e-20 -1.71421e-09 -1.71421e-09)
(2.48484e-21 1.60526e-10 0)
(3.26234e-20 1.41576e-09 1.41576e-09)
(4.39723e-20 2.23191e-09 0)
(4.2965e-21 5.03225e-10 5.03225e-10)
(4.03579e-20 2.45346e-09 0)
(-1.61902e-10 0.000169277 0.000169278)
(-1.6578e-11 -0.000106358 0)
(-9.06291e-13 2.23635e-05 2.23635e-05)
(-1.10292e-14 -4.65094e-06 0)
(-3.29368e-15 9.16715e-07 9.16715e-07)
(3.93114e-16 -2.01136e-07 -0)
(-2.87699e-17 1.83791e-08 1.83791e-08)
(2.1871e-17 -1.98756e-08 -0)
(7.81087e-18 -1.07991e-08 -1.07991e-08)
(4.32084e-18 -9.67783e-09 -0)
(1.85311e-18 -7.57062e-09 -7.57062e-09)
(5.91099e-19 -5.56756e-09 -0)
(5.25535e-20 -3.52712e-09 -3.52712e-09)
(-5.43795e-20 -1.36307e-09 0)
(5.10872e-20 7.69195e-10 7.69195e-10)
(1.83386e-19 2.55424e-09 0)
(2.34038e-19 3.72748e-09 3.72748e-09)
(2.07259e-19 4.5434e-09 0)
(5.74848e-20 2.62926e-09 2.62926e-09)
(8.32666e-20 4.14162e-09 0)
(-4.04032e-10 -0.000252037 -0.000252036)
(-5.29669e-11 0.000174921 -0)
(-2.53225e-12 -3.83628e-05 -3.83628e-05)
(-1.33829e-13 8.3173e-06 -0)
(4.64453e-16 -1.80151e-06 -1.80151e-06)
(-8.70277e-16 3.66098e-07 -0)
(1.02458e-16 -8.91672e-08 -8.91672e-08)
(-4.8371e-18 6.69996e-09 -0)
(3.80659e-18 -1.04936e-08 -1.04936e-08)
(6.86022e-19 -5.08759e-09 -0)
(-4.28134e-20 -4.04522e-09 -4.04522e-09)
(-2.15241e-19 -2.21858e-09 0)
(-5.71373e-20 -4.00927e-10 -4.00927e-10)
(2.51381e-19 1.57909e-09 0)
(5.51762e-19 3.56464e-09 3.56464e-09)
(7.03631e-19 5.19365e-09 0)
(6.67496e-19 6.23699e-09 6.23699e-09)
(5.21553e-19 7.03747e-09 0)
(1.82538e-19 4.99225e-09 4.99225e-09)
(1.41205e-19 5.95968e-09 0)
(-8.65925e-10 0.000378244 0.000378245)
(-1.05516e-10 -0.000255477 0)
(-5.83278e-12 5.66013e-05 5.66013e-05)
(-1.47669e-13 -1.24672e-05 0)
(-1.52127e-14 2.72365e-06 2.72365e-06)
(6.13754e-16 -6.00052e-07 -0)
(-7.97132e-17 1.23678e-07 1.23678e-07)
(6.0045e-18 -3.14727e-08 -0)
(3.79813e-19 3.18928e-09 3.18928e-09)
(-6.40853e-19 -2.55403e-09 0)
(7.64568e-20 2.37671e-10 2.37671e-10)
(4.45574e-19 1.33189e-09 0)
(9.44711e-19 2.93987e-09 2.93987e-09)
(1.35548e-18 4.66587e-09 0)
(1.60702e-18 6.44294e-09 6.44294e-09)
(1.58788e-18 7.86127e-09 0)
(1.33043e-18 8.73439e-09 8.73439e-09)
(9.79463e-19 9.50731e-09 0)
(3.81342e-19 7.40314e-09 7.40314e-09)
(2.09036e-19 7.76784e-09 0)
(-1.61872e-09 -0.000452184 -0.000452182)
(-2.78286e-10 0.000371201 -0)
(-1.40654e-11 -8.37613e-05 -8.37613e-05)
(-7.65489e-13 1.88148e-05 -0)
(-2.52697e-14 -4.20278e-06 -4.20278e-06)
(-2.25055e-15 9.34383e-07 -0)
(-1.15094e-16 -2.04661e-07 -2.04661e-07)
(2.17942e-17 4.61813e-08 0)
(-5.54094e-18 -7.50399e-09 -7.50399e-09)
(3.62275e-18 4.99746e-09 0)
(2.35934e-18 3.46896e-09 3.46896e-09)
(2.98969e-18 5.00307e-09 0)
(3.13176e-18 6.13334e-09 6.13334e-09)
(3.22649e-18 7.60261e-09 0)
(3.12355e-18 9.1191e-09 9.1191e-09)
(2.73115e-18 1.02887e-08 0)
(2.13283e-18 1.09648e-08 1.09648e-08)
(1.51543e-18 1.16996e-08 0)
(6.26929e-19 9.61968e-09 9.61968e-09)
(2.75982e-19 9.37816e-09 0)
(-3.35e-09 0.000695824 0.000695826)
(-4.97484e-10 -0.000525894 0)
(-2.7607e-11 0.000120996 0.000120996)
(-1.02057e-12 -2.77036e-05 0)
(-5.54161e-14 6.34137e-06 6.34137e-06)
(-2.87817e-15 -1.43773e-06 0)
(4.36458e-16 3.3527e-07 3.3527e-07)
(-1.06207e-16 -6.87313e-08 0)
(3.51015e-17 2.34593e-08 2.34593e-08)
(3.71114e-18 2.92085e-09 0)
(8.78675e-18 8.21111e-09 8.21111e-09)
(6.74541e-18 7.79785e-09 0)
(6.20405e-18 8.94441e-09 8.94441e-09)
(5.4876e-18 1.00315e-08 0)
(4.7822e-18 1.12825e-08 1.12825e-08)
(3.87864e-18 1.21801e-08 0)
(2.88992e-18 1.26504e-08 1.26504e-08)
(2.00483e-18 1.33385e-08 0)
(8.63373e-19 1.13712e-08 1.13712e-08)
(3.2707e-19 1.05943e-08 0)
(-3.88209e-09 -0.000579109 -0.000579105)
(-9.8756e-10 0.000644235 -0)
(-5.3343e-11 -0.000149465 -0.000149465)
(-2.86539e-12 3.44846e-05 -0)
(-1.75174e-13 -7.89677e-06 -7.89677e-06)
(-2.78362e-15 1.81642e-06 -0)
(-1.77402e-15 -3.98741e-07 -3.98741e-07)
(2.61078e-16 1.01897e-07 0)
(-2.63283e-17 -1.08104e-08 -1.08104e-08)
(2.6221e-17 1.42591e-08 0)
(1.28958e-17 8.90078e-09 8.90078e-09)
(1.15454e-17 1.04543e-08 0)
(9.10743e-18 1.07823e-08 1.07823e-08)
(7.48015e-18 1.1677e-08 0)
(6.06841e-18 1.26183e-08 1.26183e-08)
(4.67529e-18 1.3259e-08 0)
(3.36577e-18 1.35356e-08 1.35356e-08)
(2.29463e-18 1.41605e-08 0)
(1.01314e-18 1.23698e-08 1.23698e-08)
(3.45779e-19 1.11899e-08 0)
(-9.27623e-09 0.00126035 0.00126035)
(-1.35335e-09 -0.000877049 0)
(-7.36556e-11 0.000212944 0.000212944)
(-3.82824e-12 -5.16035e-05 0)
(-6.28405e-14 1.25074e-05 1.25074e-05)
(-2.58966e-14 -2.99944e-06 0)
(4.1258e-15 7.37948e-07 7.37948e-07)
(-6.89204e-16 -1.62067e-07 0)
(1.75867e-16 5.33863e-08 5.33863e-08)
(3.02118e-18 1.2841e-09 0)
(2.37671e-17 1.3638e-08 1.3638e-08)
(1.35769e-17 1.07276e-08 0)
(1.09675e-17 1.1772e-08 1.1772e-08)
(8.31981e-18 1.21635e-08 0)
(6.45139e-18 1.28897e-08 1.28897e-08)
(4.77785e-18 1.32847e-08 0)
(3.35187e-18 1.34062e-08 1.34062e-08)
(2.25281e-18 1.3951e-08 0)
(1.01091e-18 1.23823e-08 1.23823e-08)
(3.2066e-19 1.09871e-08 0)
(1.68851e-09 0.000204845 0.000204843)
(-1.26083e-09 0.000571452 -0)
(-7.20416e-11 -0.000132236 -0.000132236)
(-3.8226e-12 3.0494e-05 -0)
(-3.54159e-13 -6.97484e-06 -6.97484e-06)
(3.673e-15 1.61094e-06 0)
(-3.73042e-15 -3.48732e-07 -3.48732e-07)
(4.7254e-16 9.36813e-08 0)
(-2.48356e-17 -6.1586e-09 -6.1586e-09)
(3.97687e-17 1.52242e-08 0)
(1.90666e-17 1.02944e-08 1.02944e-08)
(1.44183e-17 1.11703e-08 0)
(1.02112e-17 1.11042e-08 1.11042e-08)
(7.55269e-18 1.14793e-08 0)
(5.62007e-18 1.19254e-08 1.19254e-08)
(4.04729e-18 1.21453e-08 0)
(2.78356e-18 1.21546e-08 1.21546e-08)
(1.85219e-18 1.26002e-08 0)
(8.37472e-19 1.129e-08 1.129e-08)
(2.51631e-19 9.86861e-09 0)
(-5.22788e-10 5.04599e-05 5.04597e-05)
(-2.37246e-09 -0.000812047 0)
(-1.21501e-10 0.000195754 0.000195754)
(-1.11876e-11 -4.70497e-05 0)
(-2.45344e-13 1.13225e-05 1.13225e-05)
(-8.212e-14 -2.6998e-06 0)
(4.02491e-15 6.61284e-07 6.61284e-07)
(-1.03437e-15 -1.44057e-07 0)
(1.64871e-16 4.67548e-08 4.67548e-08)
(2.79373e-18 1.07539e-09 0)
(1.85488e-17 1.13167e-08 1.13167e-08)
(9.97764e-18 8.71791e-09 0)
(7.26963e-18 9.27198e-09 9.27198e-09)
(5.15999e-18 9.32951e-09 0)
(3.74337e-18 9.62716e-09 9.62716e-09)
(2.63923e-18 9.70568e-09 0)
(1.78772e-18 9.65358e-09 9.65358e-09)
(1.18665e-18 1.00365e-08 0)
(5.43369e-19 9.11656e-09 9.11656e-09)
(1.55896e-19 7.86379e-09 0)
(-3.16001e-08 -0.00371418 -0.00371415)
(-1.67582e-09 0.00161267 -0)
(-1.20612e-10 -0.000410367 -0.000410366)
(8.01239e-12 0.000104719 0)
(-2.50037e-13 -2.6704e-05 -2.6704e-05)
(1.76207e-13 6.88044e-06 0)
(-6.87833e-15 -1.74212e-06 -1.74212e-06)
(2.94476e-15 4.67311e-07 0)
(-2.46092e-16 -1.06198e-07 -1.06198e-07)
(7.8086e-17 3.92664e-08 0)
(-1.63078e-19 -1.4709e-10 -1.4709e-10)
(7.16673e-18 8.96086e-09 0)
(3.10755e-18 5.92315e-09 5.92315e-09)
(2.36472e-18 6.39714e-09 0)
(1.58112e-18 6.18703e-09 6.18703e-09)
(1.08718e-18 6.11908e-09 0)
(7.18321e-19 5.97198e-09 5.97198e-09)
(4.88628e-19 6.33401e-09 0)
(2.33914e-19 5.99495e-09 5.99495e-09)
(6.41025e-20 5.12316e-09 0)
(-2.47335e-08 0.00253242 0.00253249)
(-4.72586e-09 -0.00140069 0)
(-4.04517e-10 0.000505731 0.000505732)
(-3.45109e-11 -0.000120081 0)
(-3.29048e-12 4.98838e-05 4.98838e-05)
(-2.46247e-13 -8.59853e-06 0)
(-2.51251e-14 6.36135e-06 6.36135e-06)
(9.72368e-16 2.51412e-07 0)
(5.53292e-16 1.3101e-06 1.3101e-06)
(4.16457e-16 4.89739e-07 0)
(1.58296e-16 4.3751e-07 4.3751e-07)
(7.56159e-17 2.56484e-07 0)
(3.30668e-17 1.82181e-07 1.82181e-07)
(1.51946e-17 1.1684e-07 0)
(6.73879e-18 7.61884e-08 7.61884e-08)
(2.86368e-18 4.65829e-08 0)
(1.10978e-18 2.67054e-08 2.67054e-08)
(3.61368e-19 1.34249e-08 0)
(7.59964e-20 5.5339e-09 5.5339e-09)
(1.01837e-20 2.39401e-09 0)
)
;

boundaryField
{
    movingWall
    {
        type            calculated;
        value           nonuniform List<vector> 
20
(
(0 0.0107709 -0)
(0 -0.00349669 -0)
(0 0.0013093 -0)
(0 -0.000321117 -0)
(0 0.000130121 -0)
(0 -2.52576e-05 -0)
(0 1.58089e-05 -0)
(0 -1.58778e-07 -0)
(0 2.97242e-06 -0)
(0 9.56509e-07 -0)
(0 9.28664e-07 -0)
(0 5.23229e-07 -0)
(0 3.76126e-07 -0)
(0 2.38189e-07 -0)
(0 1.549e-07 -0)
(0 9.37398e-08 -0)
(0 5.29751e-08 -0)
(0 2.53974e-08 -0)
(0 9.11131e-09 -0)
(0 2.98999e-09 -0)
)
;
    }
    fixedWalls
    {
        type            calculated;
        value           nonuniform List<vector> 
60
(
(0 -0.000372672 -0)
(0 0.000204516 -0)
(0 -0.000272344 -0)
(0 0.000216684 -0)
(0 -5.66551e-05 -0)
(0 0.000305563 -0)
(0 -0.000179661 -0)
(0 0.000161838 -0)
(0 -0.00038031 -0)
(0 0.000471794 -0)
(0 -0.000763237 -0)
(0 0.00110634 -0)
(0 -0.00160108 -0)
(0 0.00223476 -0)
(0 -0.00274346 -0)
(0 0.00362267 -0)
(0 -0.00248861 -0)
(0 0.00345074 -0)
(0 -0.00637049 -0)
(0 0.00579985 -0)
(0 4.54545e-10 -0)
(0 4.13021e-10 -0)
(0 7.80093e-10 -0)
(0 1.28303e-09 -0)
(0 1.95819e-09 -0)
(0 2.82993e-09 -0)
(0 3.89948e-09 -0)
(0 5.14913e-09 -0)
(0 6.53447e-09 -0)
(0 7.98672e-09 -0)
(0 9.41126e-09 -0)
(0 1.06899e-08 -0)
(0 1.16895e-08 -0)
(0 1.22633e-08 -0)
(0 1.22698e-08 -0)
(0 1.15785e-08 -0)
(0 1.01002e-08 -0)
(0 7.85092e-09 -0)
(0 4.97499e-09 -0)
(0 2.29687e-09 -0)
(0 -0.000291715 -0)
(0 0.000125136 -0)
(0 -4.13257e-05 -0)
(0 9.28203e-06 -0)
(0 -4.68944e-06 -0)
(0 -3.35421e-08 -0)
(0 -1.09277e-06 -0)
(0 -4.83954e-07 -0)
(0 -4.49955e-07 -0)
(0 -2.88059e-07 -0)
(0 -2.09529e-07 -0)
(0 -1.38917e-07 -0)
(0 -9.25743e-08 -0)
(0 -5.88321e-08 -0)
(0 -3.61891e-08 -0)
(0 -2.09509e-08 -0)
(0 -1.10744e-08 -0)
(0 -4.77456e-09 -0)
(0 -1.24628e-09 -0)
(0 3.6054e-10 -0)
)
;
    }
    frontAndBack
    {
        type            empty;
    }
}


// ************************************************************************* //
