/*--------------------------------*- C++ -*----------------------------------*\
| =========                 |                                                 |
| \\      /  F ield         | OpenFOAM: The Open Source CFD Toolbox           |
|  \\    /   O peration     | Version:  2312                                  |
|   \\  /    A nd           | Website:  www.openfoam.com                      |
|    \\/     M anipulation  |                                                 |
\*---------------------------------------------------------------------------*/
FoamFile
{
    version     2.0;
    format      ascii;
    arch        "LSB;label=32;scalar=64";
    class       volScalarField;
    location    "2.875";
    object      QField;
}
// * * * * * * * * * * * * * * * * * * * * * * * * * * * * * * * * * * * * * //

dimensions      [0 0 -2 0 0 0 0];

internalField   nonuniform List<scalar> 
400
(
5.33317e-09
1.8764e-09
1.91072e-10
9.59546e-12
1.98783e-12
-1.13207e-13
3.96193e-14
-1.37215e-14
-9.70084e-16
-2.10336e-15
-8.02649e-16
-4.92378e-16
-2.31087e-16
-1.14573e-16
-5.23636e-17
-2.3797e-17
-1.05607e-17
-4.38132e-18
-1.33921e-18
-9.67804e-20
-2.36233e-09
-6.66298e-10
-6.86588e-11
-4.52511e-12
-7.52977e-14
-1.32818e-13
5.68181e-15
-1.52377e-14
-3.87403e-15
-3.27238e-15
-1.48612e-15
-8.30816e-16
-3.98519e-16
-1.91382e-16
-8.49537e-17
-3.59381e-17
-1.43376e-17
-5.18302e-18
-1.37219e-18
-5.39131e-21
-6.96771e-10
-5.6097e-10
-1.33134e-11
-9.64152e-12
1.31885e-13
-2.51045e-13
8.54691e-15
-1.86687e-14
-3.92815e-15
-3.45632e-15
-1.52096e-15
-8.49837e-16
-4.05553e-16
-1.93402e-16
-8.46083e-17
-3.46306e-17
-1.2979e-17
-4.31263e-18
-1.13605e-18
-1.72013e-20
2.02514e-09
2.51097e-10
2.79658e-11
-4.95393e-12
-7.82713e-15
-1.97716e-13
-1.19459e-14
-1.56297e-14
-5.28119e-15
-3.30244e-15
-1.6324e-15
-8.60267e-16
-4.23425e-16
-1.9977e-16
-8.75382e-17
-3.49106e-17
-1.24707e-17
-3.74723e-18
-9.59478e-19
-5.21731e-20
-5.52286e-09
-2.31713e-09
-2.69433e-10
-1.91181e-11
-2.99556e-12
-1.26685e-13
-7.17633e-14
-6.98243e-15
-7.78119e-15
-2.90721e-15
-1.82054e-15
-8.82641e-16
-4.60154e-16
-2.16837e-16
-9.7482e-17
-3.93012e-17
-1.41031e-17
-4.14033e-18
-1.07007e-18
-1.12071e-19
5.28041e-09
9.9573e-10
1.93191e-11
-2.72243e-12
-1.41678e-12
-3.64351e-14
-6.76109e-14
-4.69607e-15
-8.24273e-15
-2.90957e-15
-1.94932e-15
-9.57957e-16
-5.14702e-16
-2.50509e-16
-1.16901e-16
-4.96802e-17
-1.91203e-17
-6.04355e-18
-1.57268e-18
-2.18778e-19
-1.2294e-09
-8.55647e-10
-5.84202e-11
-1.05965e-11
-8.39076e-13
-1.61969e-13
-2.92616e-14
-1.14009e-14
-6.27381e-15
-3.50951e-15
-1.98723e-15
-1.10245e-15
-5.8802e-16
-3.02879e-16
-1.46866e-16
-6.67066e-17
-2.7837e-17
-9.78915e-18
-2.58034e-18
-3.49527e-19
2.47399e-10
-7.25252e-10
-3.29512e-11
-1.02319e-11
-2.46097e-13
-2.02077e-13
2.78001e-15
-1.62274e-14
-4.65906e-15
-4.12552e-15
-2.11003e-15
-1.28485e-15
-6.90061e-16
-3.712e-16
-1.8685e-16
-8.98583e-17
-4.00211e-17
-1.50104e-17
-4.01125e-18
-5.264e-19
3.96065e-09
1.0391e-09
7.09934e-11
3.28495e-12
2.65596e-13
-4.77917e-14
3.48586e-15
-1.33896e-14
-5.28882e-15
-4.44375e-15
-2.4389e-15
-1.49021e-15
-8.23129e-16
-4.5124e-16
-2.34184e-16
-1.16493e-16
-5.42342e-17
-2.14714e-17
-5.71655e-18
-6.91171e-19
4.84134e-09
9.21357e-10
1.2163e-10
2.73875e-12
4.33346e-13
3.29954e-15
-5.90473e-15
-1.23213e-14
-6.79396e-15
-5.06901e-15
-2.89962e-15
-1.75555e-15
-9.79012e-16
-5.39797e-16
-2.83962e-16
-1.44249e-16
-6.85491e-17
-2.76315e-17
-7.39738e-18
-8.62589e-19
-1.0442e-09
-3.89386e-10
1.14713e-10
-4.01233e-14
1.65665e-13
-5.97237e-14
4.58673e-16
-2.0418e-14
-7.86626e-15
-6.42521e-15
-3.49536e-15
-2.10052e-15
-1.15455e-15
-6.3214e-16
-3.32047e-16
-1.6878e-16
-8.08107e-17
-3.32793e-17
-8.76024e-18
-9.64395e-19
1.09848e-08
2.11464e-09
4.92748e-10
2.06134e-12
1.50541e-12
5.1544e-14
-4.37641e-14
-1.93913e-14
-1.33874e-14
-7.93173e-15
-4.41711e-15
-2.51694e-15
-1.35354e-15
-7.24587e-16
-3.75035e-16
-1.89258e-16
-8.96677e-17
-3.66366e-17
-9.50235e-18
-1.01582e-18
-2.29815e-08
-6.60482e-09
1.58366e-10
-2.47926e-11
-6.021e-14
-4.33887e-13
3.30216e-14
-5.49801e-14
-1.24257e-14
-1.15911e-14
-5.37777e-15
-3.09057e-15
-1.57426e-15
-8.22529e-16
-4.15062e-16
-2.05025e-16
-9.52367e-17
-3.88221e-17
-9.69677e-18
-9.91594e-19
3.68958e-08
8.19319e-09
1.9047e-09
3.1299e-11
5.45606e-12
4.98208e-13
-1.73613e-13
-4.07015e-14
-2.84838e-14
-1.45185e-14
-7.15509e-15
-3.76943e-15
-1.85766e-15
-9.37663e-16
-4.60439e-16
-2.22586e-16
-1.00627e-16
-4.001e-17
-9.53379e-18
-9.55891e-19
-1.0088e-07
-2.94506e-08
-7.83166e-10
-1.68271e-10
1.62728e-12
-3.04345e-12
2.86179e-13
-1.83509e-13
-1.99233e-14
-2.36904e-14
-8.80631e-15
-4.8193e-15
-2.22639e-15
-1.10042e-15
-5.27524e-16
-2.49861e-16
-1.10334e-16
-4.33289e-17
-1.00749e-17
-1.04007e-18
3.45974e-07
9.98333e-08
8.7165e-09
4.82254e-10
2.82865e-11
2.23561e-12
-2.58012e-13
-1.62732e-13
-5.02501e-14
-3.134e-14
-1.20131e-14
-6.1412e-15
-2.76231e-15
-1.33936e-15
-6.34504e-16
-2.97799e-16
-1.3057e-16
-5.07941e-17
-1.18333e-17
-1.35676e-18
-7.95669e-07
-3.19149e-07
-2.34772e-08
-2.80309e-09
-1.16579e-10
-3.21668e-11
1.30193e-13
-6.86269e-13
-5.69159e-14
-4.66899e-14
-1.63404e-14
-7.70013e-15
-3.5271e-15
-1.65348e-15
-7.91595e-16
-3.68778e-16
-1.62668e-16
-6.33341e-17
-1.54031e-17
-1.97069e-18
-5.08052e-07
-2.02741e-07
-2.26763e-08
-1.63596e-09
-2.4805e-10
-1.27918e-11
-4.67344e-12
-1.61549e-13
-2.2592e-13
-3.73425e-14
-2.53638e-14
-8.84466e-15
-4.53488e-15
-2.02411e-15
-9.91249e-16
-4.61314e-16
-2.07374e-16
-8.09625e-17
-1.97624e-17
-2.58871e-18
2.24553e-06
6.23409e-07
3.0993e-08
1.91689e-09
-2.18869e-10
3.89588e-12
-8.84603e-12
-2.01611e-14
-3.47566e-13
-4.07957e-14
-3.12559e-14
-1.03554e-14
-5.32143e-15
-2.39092e-15
-1.17145e-15
-5.51648e-16
-2.51328e-16
-9.96121e-17
-2.45448e-17
-3.04069e-18
9.73168e-07
-8.10388e-08
3.10749e-08
-4.72862e-09
2.9766e-10
-1.08431e-10
9.62094e-12
-3.01141e-12
3.50281e-13
-1.24656e-13
4.85044e-15
-9.75138e-15
-2.14767e-15
-1.6428e-15
-7.27166e-16
-3.92582e-16
-1.8845e-16
-8.14079e-17
-2.08479e-17
-2.29759e-18
)
;

boundaryField
{
    movingWall
    {
        type            calculated;
        value           nonuniform List<scalar> 
20
(
-8.7895e-07
-7.49301e-07
1.20705e-07
-7.58163e-09
1.18907e-09
-1.42187e-10
2.53871e-11
-4.24504e-12
8.34202e-13
-1.47109e-13
3.23954e-14
-6.02869e-15
9.10708e-16
-6.21928e-16
-2.21666e-16
-1.88088e-16
-1.04955e-16
-5.19473e-17
-1.39077e-17
-1.27569e-18
)
;
    }
    fixedWalls
    {
        type            calculated;
        value           nonuniform List<scalar> 
60
(
2.84951e-08
-1.2846e-08
-3.78817e-09
1.02862e-08
-3.36314e-08
2.20585e-08
-6.678e-09
2.03064e-09
1.74989e-08
2.63293e-08
-4.42761e-09
6.16113e-08
-1.06884e-07
2.05154e-07
-5.0019e-07
1.76764e-06
-4.26577e-06
-2.82758e-06
1.02502e-05
6.12013e-06
-4.70331e-20
-1.09702e-19
-1.4442e-19
-2.00071e-19
-2.59733e-19
-3.36513e-19
-4.0528e-19
-4.88295e-19
-5.60885e-19
-6.45596e-19
-7.26562e-19
-8.07797e-19
-9.03528e-19
-1.01093e-18
-1.20274e-18
-1.48002e-18
-1.82864e-18
-2.01723e-18
-2.00279e-18
-9.84387e-19
1.51279e-10
3.32446e-10
1.76968e-10
-1.49889e-12
2.31711e-12
-2.95626e-13
6.88342e-14
-1.60651e-14
2.02593e-15
-1.12279e-15
-1.38042e-16
-1.71074e-16
-6.80534e-17
-3.91074e-17
-1.9395e-17
-1.07642e-17
-5.98855e-18
-3.1104e-18
-1.15048e-18
-1.9127e-19
)
;
    }
    frontAndBack
    {
        type            empty;
    }
}


// ************************************************************************* //
