/*--------------------------------*- C++ -*----------------------------------*\
| =========                 |                                                 |
| \\      /  F ield         | OpenFOAM: The Open Source CFD Toolbox           |
|  \\    /   O peration     | Version:  2312                                  |
|   \\  /    A nd           | Website:  www.openfoam.com                      |
|    \\/     M anipulation  |                                                 |
\*---------------------------------------------------------------------------*/
FoamFile
{
    version     2.0;
    format      ascii;
    arch        "LSB;label=32;scalar=64";
    class       volVectorField;
    location    "2.875";
    object      UzeroGrad;
}
// * * * * * * * * * * * * * * * * * * * * * * * * * * * * * * * * * * * * * //

dimensions      [0 1 -1 0 0 0 0];

internalField   nonuniform List<vector> 
400
(
(-1 6.57199e-07 0)
(-1 -1.65271e-07 0)
(-1 3.87536e-08 0)
(-1 -1.004e-08 0)
(-1 1.94407e-09 0)
(-1 -8.91193e-10 0)
(-1 -1.52502e-10 0)
(-1 -2.58472e-10 0)
(-1 -1.68204e-10 0)
(-1 -1.33491e-10 0)
(-1 -9.68629e-11 0)
(-1 -7.03489e-11 0)
(-1 -4.97282e-11 0)
(-1 -3.43915e-11 0)
(-1 -2.32045e-11 0)
(-1 -1.53004e-11 0)
(-1 -9.87675e-12 0)
(-1 -6.11516e-12 0)
(-1 -3.23071e-12 0)
(-1 3.19551e-13 0)
(-1 -6.42062e-07 0)
(-1 1.70383e-07 0)
(-1 -4.20306e-08 0)
(-1 9.67298e-09 0)
(-1 -3.98835e-09 0)
(-1 -3.64109e-10 0)
(-1 -1.07645e-09 0)
(-1 -6.43462e-10 0)
(-1 -5.41858e-10 0)
(-1 -3.90877e-10 0)
(-1 -2.904e-10 0)
(-1 -2.08119e-10 0)
(-1 -1.46976e-10 0)
(-1 -1.01099e-10 0)
(-1 -6.78963e-11 0)
(-1 -4.45279e-11 0)
(-1 -2.86283e-11 0)
(-1 -1.75413e-11 0)
(-1 -9.42677e-12 0)
(-1 1.04306e-12 0)
(-1 6.27291e-07 0)
(-1 -1.49197e-07 0)
(-1 3.22092e-08 0)
(-1 -1.06499e-08 0)
(-1 -4.7057e-10 0)
(-1 -2.34987e-09 0)
(-1 -1.3954e-09 0)
(-1 -1.16397e-09 0)
(-1 -8.49665e-10 0)
(-1 -6.34311e-10 0)
(-1 -4.60969e-10 0)
(-1 -3.3055e-10 0)
(-1 -2.31666e-10 0)
(-1 -1.58539e-10 0)
(-1 -1.05689e-10 0)
(-1 -6.87976e-11 0)
(-1 -4.3917e-11 0)
(-1 -2.68091e-11 0)
(-1 -1.44253e-11 0)
(-1 1.96711e-12 0)
(-1 -4.39197e-07 0)
(-1 7.95774e-08 0)
(-1 -2.48814e-08 0)
(-1 -2.13858e-09 0)
(-1 -4.03398e-09 0)
(-1 -2.80724e-09 0)
(-1 -1.98409e-09 0)
(-1 -1.54918e-09 0)
(-1 -1.11419e-09 0)
(-1 -8.30176e-10 0)
(-1 -5.96429e-10 0)
(-1 -4.25962e-10 0)
(-1 -2.95873e-10 0)
(-1 -2.00742e-10 0)
(-1 -1.32283e-10 0)
(-1 -8.50395e-11 0)
(-1 -5.36358e-11 0)
(-1 -3.24166e-11 0)
(-1 -1.75862e-11 0)
(-1 3.23421e-12 0)
(-1 5.18125e-07 0)
(-1 -1.82046e-07 0)
(-1 3.67093e-08 0)
(-1 -2.10995e-08 0)
(-1 -1.92753e-10 0)
(-1 -4.68018e-09 0)
(-1 -1.98587e-09 0)
(-1 -1.91696e-09 0)
(-1 -1.26578e-09 0)
(-1 -9.67611e-10 0)
(-1 -6.81707e-10 0)
(-1 -4.85344e-10 0)
(-1 -3.32712e-10 0)
(-1 -2.22758e-10 0)
(-1 -1.44086e-10 0)
(-1 -9.06908e-11 0)
(-1 -5.59957e-11 0)
(-1 -3.33617e-11 0)
(-1 -1.82692e-11 0)
(-1 4.93253e-12 0)
(-0.999999 -3.55072e-07 0)
(-1 1.87282e-08 0)
(-1 -1.02846e-08 0)
(-1 -1.00999e-08 0)
(-1 -2.91954e-09 0)
(-1 -4.21832e-09 0)
(-1 -2.26252e-09 0)
(-1 -1.98596e-09 0)
(-1 -1.34816e-09 0)
(-1 -1.0158e-09 0)
(-1 -7.12454e-10 0)
(-1 -5.00776e-10 0)
(-1 -3.3772e-10 0)
(-1 -2.20928e-10 0)
(-1 -1.38571e-10 0)
(-1 -8.39641e-11 0)
(-1 -4.98177e-11 0)
(-1 -2.87385e-11 0)
(-1 -1.61106e-11 0)
(-1 7.1262e-12 0)
(-0.999999 4.81626e-07 0)
(-1 -1.19164e-07 0)
(-1 2.13988e-08 0)
(-1 -1.27954e-08 0)
(-1 -2.31403e-09 0)
(-1 -3.79474e-09 0)
(-1 -2.28383e-09 0)
(-1 -1.87999e-09 0)
(-1 -1.33106e-09 0)
(-1 -9.77188e-10 0)
(-1 -6.83743e-10 0)
(-1 -4.69229e-10 0)
(-1 -3.08231e-10 0)
(-1 -1.93278e-10 0)
(-1 -1.14325e-10 0)
(-1 -6.38611e-11 0)
(-1 -3.44172e-11 0)
(-1 -1.82792e-11 0)
(-1 -1.08543e-11 0)
(-1 9.81728e-12 0)
(-0.999999 -4.69036e-07 0)
(-1 8.66208e-08 0)
(-1 -2.60699e-08 0)
(-1 1.01937e-09 0)
(-1 -4.61691e-09 0)
(-1 -2.44192e-09 0)
(-1 -2.28446e-09 0)
(-1 -1.62625e-09 0)
(-1 -1.22306e-09 0)
(-1 -8.61444e-10 0)
(-1 -5.95133e-10 0)
(-1 -3.91369e-10 0)
(-1 -2.43625e-10 0)
(-1 -1.39573e-10 0)
(-1 -7.11684e-11 0)
(-1 -3.0417e-11 0)
(-1 -9.90429e-12 0)
(-1 -1.91696e-12 0)
(-1 -2.55894e-12 0)
(-1 1.29614e-11 0)
(-0.999999 6.66221e-07 0)
(-1 -9.38516e-08 0)
(-1 1.92188e-08 0)
(-1 -4.38934e-09 0)
(-1 -2.84375e-09 0)
(-1 -2.23116e-09 0)
(-1 -1.95968e-09 0)
(-1 -1.37591e-09 0)
(-1 -1.01412e-09 0)
(-1 -6.84345e-10 0)
(-1 -4.47677e-10 0)
(-1 -2.69622e-10 0)
(-1 -1.44942e-10 0)
(-1 -6.10131e-11 0)
(-1 -1.01471e-11 0)
(-1 1.54793e-11 0)
(-1 2.3043e-11 0)
(-1 1.97016e-11 0)
(-1 8.53794e-12 0)
(-1 1.64494e-11 0)
(-1 -9.56432e-07 0)
(-1 1.5587e-07 0)
(-1 -4.05254e-08 0)
(-1 2.3714e-09 0)
(-1 -3.59291e-09 0)
(-1 -1.95446e-09 0)
(-1 -1.56536e-09 0)
(-1 -1.10039e-09 0)
(-1 -7.2329e-10 0)
(-1 -4.46468e-10 0)
(-1 -2.44777e-10 0)
(-1 -1.06168e-10 0)
(-1 -1.48998e-11 0)
(-1 3.9895e-11 0)
(-1 6.64165e-11 0)
(-1 7.17965e-11 0)
(-1 6.27872e-11 0)
(-1 4.56177e-11 0)
(-1 2.18635e-11 0)
(-1 2.01048e-11 0)
(-0.999998 1.60307e-06 0)
(-1 -3.02804e-07 0)
(-1 6.60079e-08 0)
(-1 -1.60904e-08 0)
(-1 -2.57813e-10 0)
(-1 -2.37717e-09 0)
(-1 -1.14905e-09 0)
(-1 -7.21959e-10 0)
(-1 -3.62754e-10 0)
(-1 -1.34842e-10 0)
(-1 1.05837e-11 0)
(-1 9.70172e-11 0)
(-1 1.42513e-10 0)
(-1 1.59194e-10 0)
(-1 1.54788e-10 0)
(-1 1.35479e-10 0)
(-1 1.07022e-10 0)
(-1 7.41108e-11 0)
(-1 3.65643e-11 0)
(-1 2.36934e-11 0)
(-1 -2.28933e-06 0)
(-1 4.13014e-07 0)
(-1 -1.0305e-07 0)
(-1 1.18446e-08 0)
(-1 -5.58541e-09 0)
(-1 -1.02284e-09 0)
(-1 -6.44522e-10 0)
(-1 -1.90784e-10 0)
(-1 1.1909e-10 0)
(-1 2.50919e-10 0)
(-1 3.21692e-10 0)
(-1 3.34542e-10 0)
(-1 3.21344e-10 0)
(-1 2.90509e-10 0)
(-1 2.49423e-10 0)
(-1 2.01988e-10 0)
(-1 1.52321e-10 0)
(-1 1.03022e-10 0)
(-1 5.15109e-11 0)
(-1 2.69104e-11 0)
(-0.999997 3.57976e-06 0)
(-1 -7.49692e-07 0)
(-1 1.67922e-07 0)
(-1 -4.06854e-08 0)
(-1 6.01261e-09 0)
(-1 -2.4086e-09 0)
(-1 5.62363e-10 0)
(-1 4.71926e-10 0)
(-1 7.384e-10 0)
(-1 7.24917e-10 0)
(-1 6.80129e-10 0)
(-1 5.9757e-10 0)
(-1 5.10611e-10 0)
(-1 4.24392e-10 0)
(-1 3.42528e-10 0)
(-1 2.65452e-10 0)
(-1 1.94515e-10 0)
(-1 1.29528e-10 0)
(-1 6.51714e-11 0)
(-1 2.94282e-11 0)
(-1 -4.81445e-06 0)
(-1 9.45978e-07 0)
(-1 -2.28164e-07 0)
(-1 3.68389e-08 0)
(-1 -8.73882e-09 0)
(-1 2.00189e-09 0)
(-1 1.30181e-09 0)
(-1 1.54525e-09 0)
(-1 1.49627e-09 0)
(-1 1.27057e-09 0)
(-1 1.07011e-09 0)
(-1 8.65035e-10 0)
(-1 6.93623e-10 0)
(-1 5.47039e-10 0)
(-1 4.23861e-10 0)
(-1 3.18442e-10 0)
(-1 2.28445e-10 0)
(-1 1.50304e-10 0)
(-1 7.59263e-11 0)
(-1 3.08724e-11 0)
(-0.999993 6.70352e-06 0)
(-1 -1.53292e-06 0)
(-0.999999 3.56892e-07 0)
(-1 -8.30919e-08 0)
(-1 2.2183e-08 0)
(-1 -1.53248e-09 0)
(-1 4.44906e-09 0)
(-1 2.56216e-09 0)
(-1 2.43546e-09 0)
(-1 1.8389e-09 0)
(-1 1.44884e-09 0)
(-1 1.10437e-09 0)
(-1 8.44665e-10 0)
(-1 6.40588e-10 0)
(-1 4.80921e-10 0)
(-1 3.52614e-10 0)
(-1 2.4866e-10 0)
(-1 1.62045e-10 0)
(-1 8.19041e-11 0)
(-1 3.09009e-11 0)
(-1 -7.36008e-06 0)
(-0.999999 1.54307e-06 0)
(-1 -3.45892e-07 0)
(-1 7.41856e-08 0)
(-1 -5.02428e-09 0)
(-1 8.63382e-09 0)
(-1 5.59091e-09 0)
(-1 4.25258e-09 0)
(-1 3.29423e-09 0)
(-1 2.35275e-09 0)
(-1 1.7427e-09 0)
(-1 1.2656e-09 0)
(-1 9.31656e-10 0)
(-1 6.83998e-10 0)
(-1 5.00506e-10 0)
(-1 3.5965e-10 0)
(-1 2.50024e-10 0)
(-1 1.6148e-10 0)
(-1 8.16415e-11 0)
(-1 2.9185e-11 0)
(-0.999987 8.24273e-06 0)
(-1 -2.20636e-06 0)
(-0.999999 5.44794e-07 0)
(-1 -1.25356e-07 0)
(-1 5.07766e-08 0)
(-1 2.28003e-09 0)
(-1 1.06971e-08 0)
(-1 5.04413e-09 0)
(-1 4.03268e-09 0)
(-1 2.6122e-09 0)
(-1 1.85214e-09 0)
(-1 1.29077e-09 0)
(-1 9.19581e-10 0)
(-1 6.57938e-10 0)
(-1 4.71268e-10 0)
(-1 3.33239e-10 0)
(-1 2.29012e-10 0)
(-1 1.46997e-10 0)
(-1 7.41784e-11 0)
(-1 2.54981e-11 0)
(-0.999996 -1.03604e-05 0)
(-1 2.92159e-06 0)
(-1 -6.20683e-07 0)
(-1 2.37783e-07 0)
(-1 -2.16687e-08 0)
(-1 3.0417e-08 0)
(-1 6.08651e-09 0)
(-1 7.18027e-09 0)
(-1 3.52629e-09 0)
(-1 2.59787e-09 0)
(-1 1.63907e-09 0)
(-1 1.1445e-09 0)
(-1 7.84042e-10 0)
(-1 5.53083e-10 0)
(-1 3.88835e-10 0)
(-1 2.71926e-10 0)
(-1 1.85187e-10 0)
(-1 1.18233e-10 0)
(-1 5.96024e-11 0)
(-1 1.98246e-11 0)
(-0.999994 8.50791e-06 0)
(-1 -1.03915e-06 0)
(-0.999999 2.93912e-07 0)
(-1 7.65132e-08 0)
(-1 9.36326e-09 0)
(-1 2.56098e-08 0)
(-1 3.94825e-09 0)
(-1 6.30148e-09 0)
(-1 2.31728e-09 0)
(-1 1.98862e-09 0)
(-1 1.1087e-09 0)
(-1 7.99781e-10 0)
(-1 5.24645e-10 0)
(-1 3.69653e-10 0)
(-1 2.55555e-10 0)
(-1 1.7767e-10 0)
(-1 1.20282e-10 0)
(-1 7.71436e-11 0)
(-1 3.90186e-11 0)
(-1 1.25123e-11 0)
(-1.00003 -9.76698e-06 0)
(-0.999994 3.37393e-06 0)
(-1 -7.99867e-07 0)
(-0.999999 2.87397e-07 0)
(-1 -6.59629e-08 0)
(-1 2.86382e-08 0)
(-1 -3.94965e-09 0)
(-1 3.86763e-09 0)
(-1 4.22328e-10 0)
(-1 8.50366e-10 0)
(-1 3.61812e-10 0)
(-1 2.94817e-10 0)
(-1 1.81506e-10 0)
(-1 1.30046e-10 0)
(-1 8.8449e-11 0)
(-1 6.14749e-11 0)
(-1 4.15562e-11 0)
(-1 2.69177e-11 0)
(-1 1.37329e-11 0)
(-1 4.25384e-12 0)
)
;

boundaryField
{
    movingWall
    {
        type            zeroGradient;
    }
    fixedWalls
    {
        type            zeroGradient;
    }
    frontAndBack
    {
        type            empty;
    }
}


// ************************************************************************* //
