/*--------------------------------*- C++ -*----------------------------------*\
| =========                 |                                                 |
| \\      /  F ield         | OpenFOAM: The Open Source CFD Toolbox           |
|  \\    /   O peration     | Version:  2312                                  |
|   \\  /    A nd           | Website:  www.openfoam.com                      |
|    \\/     M anipulation  |                                                 |
\*---------------------------------------------------------------------------*/
FoamFile
{
    version     2.0;
    format      ascii;
    arch        "LSB;label=32;scalar=64";
    class       volVectorField;
    location    "6.25";
    object      diffU;
}
// * * * * * * * * * * * * * * * * * * * * * * * * * * * * * * * * * * * * * //

dimensions      [0 1 -1 0 0 0 0];

internalField   nonuniform List<vector> 
400
(
(0 0 0)
(2.4758e-14 -1.74021e-13 0)
(1.88738e-14 -1.35462e-13 0)
(1.9762e-14 -1.44535e-13 0)
(1.95399e-14 -1.42586e-13 0)
(1.95399e-14 -1.43007e-13 0)
(1.9984e-14 -1.42947e-13 0)
(1.96509e-14 -1.42949e-13 0)
(1.9873e-14 -1.42846e-13 0)
(1.95399e-14 -1.42783e-13 0)
(1.95399e-14 -1.42772e-13 0)
(1.93179e-14 -1.42726e-13 0)
(1.92069e-14 -1.4276e-13 0)
(1.92069e-14 -1.42808e-13 0)
(1.88738e-14 -1.429e-13 0)
(1.90958e-14 -1.43037e-13 0)
(1.88738e-14 -1.43048e-13 0)
(1.92069e-14 -1.4295e-13 0)
(1.92069e-14 -1.42859e-13 0)
(1.92069e-14 -1.42904e-13 0)
(5.37348e-14 -1.28964e-13 0)
(9.32587e-15 -1.45696e-13 0)
(1.9873e-14 -1.42315e-13 0)
(1.84297e-14 -1.43104e-13 0)
(1.86517e-14 -1.43015e-13 0)
(1.82077e-14 -1.43035e-13 0)
(1.84297e-14 -1.43029e-13 0)
(1.82077e-14 -1.43004e-13 0)
(1.82077e-14 -1.42922e-13 0)
(1.86517e-14 -1.42806e-13 0)
(1.86517e-14 -1.42804e-13 0)
(1.84297e-14 -1.42822e-13 0)
(1.88738e-14 -1.42881e-13 0)
(1.90958e-14 -1.42823e-13 0)
(1.90958e-14 -1.42811e-13 0)
(1.92069e-14 -1.42957e-13 0)
(1.92069e-14 -1.42971e-13 0)
(1.88738e-14 -1.42965e-13 0)
(1.88738e-14 -1.42961e-13 0)
(1.90958e-14 -1.42947e-13 0)
(4.66294e-15 -2.81793e-13 0)
(2.40918e-14 -1.12452e-13 0)
(1.88738e-14 -1.5012e-13 0)
(1.9762e-14 -1.41255e-13 0)
(1.95399e-14 -1.43061e-13 0)
(1.94289e-14 -1.42691e-13 0)
(1.90958e-14 -1.42798e-13 0)
(1.90958e-14 -1.42842e-13 0)
(1.86517e-14 -1.42922e-13 0)
(1.86517e-14 -1.42889e-13 0)
(1.86517e-14 -1.42842e-13 0)
(1.88738e-14 -1.42954e-13 0)
(1.86517e-14 -1.43043e-13 0)
(1.86517e-14 -1.42979e-13 0)
(1.86517e-14 -1.42951e-13 0)
(1.86517e-14 -1.42947e-13 0)
(1.88738e-14 -1.42961e-13 0)
(1.90958e-14 -1.42981e-13 0)
(1.90958e-14 -1.43077e-13 0)
(1.90958e-14 -1.43022e-13 0)
(-1.55431e-15 -3.44428e-14 0)
(2.36478e-14 -1.67062e-13 0)
(1.79856e-14 -1.37219e-13 0)
(1.88738e-14 -1.44143e-13 0)
(1.88738e-14 -1.42422e-13 0)
(1.90958e-14 -1.42822e-13 0)
(1.92069e-14 -1.42761e-13 0)
(1.94289e-14 -1.42802e-13 0)
(1.95399e-14 -1.42817e-13 0)
(1.93179e-14 -1.42819e-13 0)
(1.94289e-14 -1.42793e-13 0)
(1.93179e-14 -1.42819e-13 0)
(1.94289e-14 -1.429e-13 0)
(1.92069e-14 -1.42972e-13 0)
(1.96509e-14 -1.43048e-13 0)
(1.94289e-14 -1.43025e-13 0)
(1.92069e-14 -1.43061e-13 0)
(1.92069e-14 -1.42991e-13 0)
(1.90958e-14 -1.42992e-13 0)
(1.92069e-14 -1.42982e-13 0)
(4.31877e-14 -1.52548e-13 0)
(1.28786e-14 -1.41473e-13 0)
(1.9873e-14 -1.43481e-13 0)
(1.88738e-14 -1.43027e-13 0)
(1.94289e-14 -1.43145e-13 0)
(1.93179e-14 -1.431e-13 0)
(1.94289e-14 -1.43052e-13 0)
(1.95399e-14 -1.42903e-13 0)
(1.95399e-14 -1.42784e-13 0)
(1.95399e-14 -1.4282e-13 0)
(1.94289e-14 -1.4286e-13 0)
(1.95399e-14 -1.42853e-13 0)
(1.94289e-14 -1.42853e-13 0)
(1.93179e-14 -1.42946e-13 0)
(1.92069e-14 -1.43004e-13 0)
(1.94289e-14 -1.42972e-13 0)
(1.93179e-14 -1.42884e-13 0)
(1.93179e-14 -1.42847e-13 0)
(1.90958e-14 -1.42951e-13 0)
(1.92069e-14 -1.42966e-13 0)
(1.04361e-14 -2.35605e-13 0)
(2.22045e-14 -1.22872e-13 0)
(1.95399e-14 -1.47602e-13 0)
(1.95399e-14 -1.41827e-13 0)
(1.95399e-14 -1.43059e-13 0)
(1.94289e-14 -1.42781e-13 0)
(1.95399e-14 -1.42924e-13 0)
(1.92069e-14 -1.42956e-13 0)
(1.94289e-14 -1.42947e-13 0)
(1.92069e-14 -1.429e-13 0)
(1.92069e-14 -1.42828e-13 0)
(1.88738e-14 -1.42846e-13 0)
(1.92069e-14 -1.428e-13 0)
(1.90958e-14 -1.42934e-13 0)
(1.92069e-14 -1.43061e-13 0)
(1.90958e-14 -1.43011e-13 0)
(1.88738e-14 -1.42857e-13 0)
(1.93179e-14 -1.42799e-13 0)
(1.90958e-14 -1.42885e-13 0)
(1.90958e-14 -1.42982e-13 0)
(1.06581e-14 -3.07664e-14 0)
(2.07612e-14 -1.67497e-13 0)
(1.88738e-14 -1.37362e-13 0)
(1.90958e-14 -1.44364e-13 0)
(1.90958e-14 -1.42883e-13 0)
(1.92069e-14 -1.4316e-13 0)
(1.93179e-14 -1.42949e-13 0)
(1.93179e-14 -1.42901e-13 0)
(1.94289e-14 -1.42861e-13 0)
(1.90958e-14 -1.42753e-13 0)
(1.90958e-14 -1.42787e-13 0)
(1.90958e-14 -1.4285e-13 0)
(1.92069e-14 -1.42834e-13 0)
(1.90958e-14 -1.42904e-13 0)
(1.92069e-14 -1.42909e-13 0)
(1.90958e-14 -1.4286e-13 0)
(1.90958e-14 -1.42934e-13 0)
(1.88738e-14 -1.42975e-13 0)
(1.94289e-14 -1.42821e-13 0)
(1.93179e-14 -1.42893e-13 0)
(3.9968e-14 -1.64229e-13 0)
(1.39888e-14 -1.38244e-13 0)
(1.95399e-14 -1.44082e-13 0)
(1.86517e-14 -1.42735e-13 0)
(1.88738e-14 -1.43241e-13 0)
(1.86517e-14 -1.43013e-13 0)
(1.84297e-14 -1.42853e-13 0)
(1.84297e-14 -1.42743e-13 0)
(1.86517e-14 -1.4268e-13 0)
(1.84297e-14 -1.42752e-13 0)
(1.86517e-14 -1.42932e-13 0)
(1.86517e-14 -1.42995e-13 0)
(1.86517e-14 -1.43036e-13 0)
(1.88738e-14 -1.42953e-13 0)
(1.88738e-14 -1.42862e-13 0)
(1.86517e-14 -1.42799e-13 0)
(1.88738e-14 -1.42976e-13 0)
(1.88738e-14 -1.43066e-13 0)
(1.88738e-14 -1.42899e-13 0)
(1.90958e-14 -1.42866e-13 0)
(5.32907e-15 -2.13275e-13 0)
(2.20934e-14 -1.27306e-13 0)
(1.79856e-14 -1.46506e-13 0)
(1.86517e-14 -1.42051e-13 0)
(1.84297e-14 -1.43065e-13 0)
(1.84297e-14 -1.42872e-13 0)
(1.82077e-14 -1.43134e-13 0)
(1.88738e-14 -1.43112e-13 0)
(1.88738e-14 -1.42996e-13 0)
(1.92069e-14 -1.42967e-13 0)
(1.95399e-14 -1.42935e-13 0)
(1.93179e-14 -1.42856e-13 0)
(1.93179e-14 -1.42909e-13 0)
(1.93179e-14 -1.42882e-13 0)
(1.90958e-14 -1.4288e-13 0)
(1.92069e-14 -1.42935e-13 0)
(1.92069e-14 -1.42971e-13 0)
(1.90958e-14 -1.42983e-13 0)
(1.90958e-14 -1.42974e-13 0)
(1.90958e-14 -1.42941e-13 0)
(1.92069e-14 -5.57181e-14 0)
(1.93179e-14 -1.62047e-13 0)
(1.90958e-14 -1.38529e-13 0)
(1.94289e-14 -1.44018e-13 0)
(1.92069e-14 -1.42746e-13 0)
(1.92069e-14 -1.43101e-13 0)
(1.93179e-14 -1.4309e-13 0)
(1.88738e-14 -1.42926e-13 0)
(1.86517e-14 -1.42975e-13 0)
(1.86517e-14 -1.43057e-13 0)
(1.88738e-14 -1.4305e-13 0)
(1.92069e-14 -1.42955e-13 0)
(1.93179e-14 -1.42895e-13 0)
(1.92069e-14 -1.4291e-13 0)
(1.94289e-14 -1.42889e-13 0)
(1.93179e-14 -1.42919e-13 0)
(1.92069e-14 -1.4284e-13 0)
(1.88738e-14 -1.42839e-13 0)
(1.90958e-14 -1.42971e-13 0)
(1.90958e-14 -1.43003e-13 0)
(6.66134e-15 -2.17066e-13 0)
(2.10942e-14 -1.26879e-13 0)
(1.77636e-14 -1.46494e-13 0)
(1.93179e-14 -1.4208e-13 0)
(1.88738e-14 -1.42929e-13 0)
(1.88738e-14 -1.42824e-13 0)
(1.86517e-14 -1.42877e-13 0)
(1.88738e-14 -1.42922e-13 0)
(1.94289e-14 -1.43084e-13 0)
(1.93179e-14 -1.43199e-13 0)
(1.93179e-14 -1.43264e-13 0)
(1.92069e-14 -1.43245e-13 0)
(1.93179e-14 -1.43083e-13 0)
(1.93179e-14 -1.42901e-13 0)
(1.90958e-14 -1.42737e-13 0)
(1.88738e-14 -1.42696e-13 0)
(1.88738e-14 -1.42773e-13 0)
(1.90958e-14 -1.4293e-13 0)
(1.92069e-14 -1.43011e-13 0)
(1.90958e-14 -1.4298e-13 0)
(3.84137e-14 -8.09435e-14 0)
(1.55431e-14 -1.56002e-13 0)
(2.07612e-14 -1.39768e-13 0)
(1.82077e-14 -1.43616e-13 0)
(1.88738e-14 -1.42705e-13 0)
(1.90958e-14 -1.42957e-13 0)
(1.90958e-14 -1.43055e-13 0)
(1.92069e-14 -1.43288e-13 0)
(1.93179e-14 -1.43119e-13 0)
(1.93179e-14 -1.42862e-13 0)
(1.88738e-14 -1.42872e-13 0)
(1.88738e-14 -1.43036e-13 0)
(1.86517e-14 -1.43031e-13 0)
(1.88738e-14 -1.42828e-13 0)
(1.90958e-14 -1.4267e-13 0)
(1.86517e-14 -1.42706e-13 0)
(1.93179e-14 -1.42894e-13 0)
(1.93179e-14 -1.42932e-13 0)
(1.92069e-14 -1.42893e-13 0)
(1.90958e-14 -1.42909e-13 0)
(3.9968e-15 -1.54393e-13 0)
(1.96509e-14 -1.40505e-13 0)
(1.64313e-14 -1.43543e-13 0)
(1.88738e-14 -1.42799e-13 0)
(1.84297e-14 -1.43081e-13 0)
(1.86517e-14 -1.42989e-13 0)
(1.86517e-14 -1.42969e-13 0)
(1.86517e-14 -1.43066e-13 0)
(1.82077e-14 -1.43061e-13 0)
(1.84297e-14 -1.43025e-13 0)
(1.86517e-14 -1.42982e-13 0)
(1.88738e-14 -1.43017e-13 0)
(1.88738e-14 -1.4305e-13 0)
(1.84297e-14 -1.43012e-13 0)
(1.86517e-14 -1.42991e-13 0)
(1.90958e-14 -1.4301e-13 0)
(1.90958e-14 -1.43002e-13 0)
(1.86517e-14 -1.42899e-13 0)
(1.92069e-14 -1.42861e-13 0)
(1.90958e-14 -1.42914e-13 0)
(2.74225e-14 -2.12483e-13 0)
(2.02061e-14 -1.27795e-13 0)
(2.13163e-14 -1.46389e-13 0)
(1.9873e-14 -1.42151e-13 0)
(1.9984e-14 -1.43201e-13 0)
(1.96509e-14 -1.42945e-13 0)
(1.9762e-14 -1.42902e-13 0)
(1.9762e-14 -1.42876e-13 0)
(1.95399e-14 -1.42997e-13 0)
(1.9762e-14 -1.43182e-13 0)
(1.95399e-14 -1.43175e-13 0)
(1.95399e-14 -1.43012e-13 0)
(1.94289e-14 -1.42956e-13 0)
(1.93179e-14 -1.42982e-13 0)
(1.92069e-14 -1.42983e-13 0)
(1.93179e-14 -1.42951e-13 0)
(1.92069e-14 -1.42869e-13 0)
(1.92069e-14 -1.42892e-13 0)
(1.90958e-14 -1.4299e-13 0)
(1.90958e-14 -1.4296e-13 0)
(5.10703e-15 -2.0059e-14 0)
(2.10942e-14 -1.69293e-13 0)
(1.75415e-14 -1.36744e-13 0)
(1.92069e-14 -1.44169e-13 0)
(1.86517e-14 -1.42551e-13 0)
(1.86517e-14 -1.42947e-13 0)
(1.86517e-14 -1.42884e-13 0)
(1.86517e-14 -1.42926e-13 0)
(1.86517e-14 -1.42983e-13 0)
(1.88738e-14 -1.43002e-13 0)
(1.86517e-14 -1.42981e-13 0)
(1.86517e-14 -1.42906e-13 0)
(1.88738e-14 -1.42884e-13 0)
(1.88738e-14 -1.42885e-13 0)
(1.86517e-14 -1.42859e-13 0)
(1.86517e-14 -1.42874e-13 0)
(1.86517e-14 -1.42927e-13 0)
(1.88738e-14 -1.42925e-13 0)
(1.88738e-14 -1.43003e-13 0)
(1.90958e-14 -1.4298e-13 0)
(4.03011e-14 -2.21493e-13 0)
(1.37668e-14 -1.26241e-13 0)
(1.93179e-14 -1.46976e-13 0)
(1.84297e-14 -1.42009e-13 0)
(1.86517e-14 -1.43063e-13 0)
(1.86517e-14 -1.42924e-13 0)
(1.88738e-14 -1.43023e-13 0)
(1.88738e-14 -1.42995e-13 0)
(1.88738e-14 -1.4302e-13 0)
(1.88738e-14 -1.43023e-13 0)
(1.86517e-14 -1.43005e-13 0)
(1.86517e-14 -1.42984e-13 0)
(1.88738e-14 -1.42991e-13 0)
(1.86517e-14 -1.43013e-13 0)
(1.88738e-14 -1.43052e-13 0)
(1.93179e-14 -1.43076e-13 0)
(1.93179e-14 -1.43094e-13 0)
(1.92069e-14 -1.43065e-13 0)
(1.90958e-14 -1.43017e-13 0)
(1.92069e-14 -1.42965e-13 0)
(-3.9968e-15 -1.6726e-13 0)
(2.55351e-14 -1.37747e-13 0)
(1.84297e-14 -1.44067e-13 0)
(1.96509e-14 -1.42694e-13 0)
(1.94289e-14 -1.4303e-13 0)
(1.94289e-14 -1.42991e-13 0)
(1.96509e-14 -1.43004e-13 0)
(1.94289e-14 -1.4294e-13 0)
(1.95399e-14 -1.42987e-13 0)
(1.94289e-14 -1.4307e-13 0)
(1.94289e-14 -1.4305e-13 0)
(1.94289e-14 -1.42978e-13 0)
(1.94289e-14 -1.42973e-13 0)
(1.95399e-14 -1.43024e-13 0)
(1.93179e-14 -1.4313e-13 0)
(1.94289e-14 -1.43066e-13 0)
(1.92069e-14 -1.42914e-13 0)
(1.90958e-14 -1.42892e-13 0)
(1.92069e-14 -1.42929e-13 0)
(1.90958e-14 -1.42962e-13 0)
(2.04281e-14 -4.66316e-14 0)
(1.82077e-14 -1.63679e-13 0)
(1.92069e-14 -1.38063e-13 0)
(1.90958e-14 -1.4412e-13 0)
(1.95399e-14 -1.42774e-13 0)
(1.92069e-14 -1.43019e-13 0)
(1.90958e-14 -1.43027e-13 0)
(1.93179e-14 -1.42975e-13 0)
(1.94289e-14 -1.42967e-13 0)
(1.93179e-14 -1.42987e-13 0)
(1.88738e-14 -1.42929e-13 0)
(1.86517e-14 -1.42884e-13 0)
(1.88738e-14 -1.4286e-13 0)
(1.88738e-14 -1.42969e-13 0)
(1.90958e-14 -1.43008e-13 0)
(1.88738e-14 -1.42958e-13 0)
(1.88738e-14 -1.42945e-13 0)
(1.88738e-14 -1.42939e-13 0)
(1.90958e-14 -1.42934e-13 0)
(1.93179e-14 -1.42946e-13 0)
(4.35207e-14 -1.72391e-13 0)
(1.28786e-14 -1.36816e-13 0)
(1.9984e-14 -1.4449e-13 0)
(1.86517e-14 -1.42737e-13 0)
(1.82077e-14 -1.43143e-13 0)
(1.86517e-14 -1.43057e-13 0)
(1.86517e-14 -1.43044e-13 0)
(1.86517e-14 -1.42964e-13 0)
(1.84297e-14 -1.42916e-13 0)
(1.84297e-14 -1.42847e-13 0)
(1.84297e-14 -1.42866e-13 0)
(1.86517e-14 -1.42941e-13 0)
(1.90958e-14 -1.43025e-13 0)
(1.90958e-14 -1.43115e-13 0)
(1.92069e-14 -1.43018e-13 0)
(1.90958e-14 -1.42947e-13 0)
(1.90958e-14 -1.4303e-13 0)
(1.90958e-14 -1.43067e-13 0)
(1.92069e-14 -1.43017e-13 0)
(1.92069e-14 -1.42936e-13 0)
(8.88178e-15 -2.3029e-13 0)
(2.29816e-14 -1.24087e-13 0)
(1.9762e-14 -1.47375e-13 0)
(2.0095e-14 -1.41976e-13 0)
(1.9984e-14 -1.43247e-13 0)
(1.9762e-14 -1.43037e-13 0)
(1.95399e-14 -1.42992e-13 0)
(1.9762e-14 -1.4296e-13 0)
(1.9762e-14 -1.42995e-13 0)
(1.9762e-14 -1.42964e-13 0)
(1.9762e-14 -1.42948e-13 0)
(1.9762e-14 -1.42971e-13 0)
(1.9873e-14 -1.4306e-13 0)
(1.95399e-14 -1.43071e-13 0)
(1.93179e-14 -1.42994e-13 0)
(1.94289e-14 -1.42942e-13 0)
(1.93179e-14 -1.42939e-13 0)
(1.90958e-14 -1.42961e-13 0)
(1.90958e-14 -1.42959e-13 0)
(1.92069e-14 -1.42939e-13 0)
)
;

boundaryField
{
    movingWall
    {
        type            calculated;
        value           uniform (1.90958e-14 -1.42929e-13 0);
    }
    fixedWalls
    {
        type            calculated;
        value           uniform (1.90958e-14 -1.42929e-13 0);
    }
    frontAndBack
    {
        type            empty;
    }
}


// ************************************************************************* //
