/*--------------------------------*- C++ -*----------------------------------*\
| =========                 |                                                 |
| \\      /  F ield         | OpenFOAM: The Open Source CFD Toolbox           |
|  \\    /   O peration     | Version:  2312                                  |
|   \\  /    A nd           | Website:  www.openfoam.com                      |
|    \\/     M anipulation  |                                                 |
\*---------------------------------------------------------------------------*/
FoamFile
{
    version     2.0;
    format      ascii;
    arch        "LSB;label=32;scalar=64";
    class       volScalarField;
    location    "6.25";
    object      divPhi;
}
// * * * * * * * * * * * * * * * * * * * * * * * * * * * * * * * * * * * * * //

dimensions      [0 0 -1 0 0 0 0];

internalField   nonuniform List<scalar> 
400
(
-5.42101e-14
2.48068e-14
3.15215e-16
-1.49893e-14
4.88892e-15
-1.50143e-14
2.55556e-14
-1.03422e-14
-1.55011e-14
4.42353e-15
-2.22841e-15
5.5505e-15
-5.87525e-15
1.8843e-15
-2.31123e-15
1.73029e-14
2.08404e-15
3.27295e-15
-1.80474e-14
0
2.71051e-14
-1.20735e-14
-8.60449e-16
-4.68766e-15
2.67453e-14
-2.24746e-14
1.00291e-14
-2.58881e-14
2.44932e-14
1.73492e-14
-3.09391e-17
9.54516e-15
1.14967e-14
-1.15632e-14
8.85274e-15
-2.31961e-15
-2.19075e-14
6.40492e-16
-2.54862e-15
0
0
-1.42555e-14
1.74502e-14
-1.84268e-14
6.56777e-16
7.15912e-15
1.81153e-14
9.53516e-16
1.76276e-14
-1.56139e-14
-5.15092e-15
6.18808e-15
3.16117e-14
-1.57453e-14
7.76205e-15
8.42253e-15
-3.86166e-16
-2.47886e-15
1.86467e-14
0
-2.71051e-14
3.78404e-14
-2.40309e-14
8.59113e-15
8.63499e-15
-5.12998e-16
-4.8907e-17
1.00976e-14
-3.57036e-15
-1.50013e-15
-1.06295e-14
2.37071e-14
3.56673e-15
1.10604e-14
-1.7132e-14
2.10787e-14
1.75931e-15
-8.07724e-15
-1.60954e-14
0
0
-8.08589e-15
1.40597e-14
-1.21029e-14
4.28903e-14
-2.76644e-14
-1.22454e-14
2.65193e-14
-1.07542e-14
-1.55589e-14
-9.21591e-15
-1.78704e-14
-4.26022e-15
2.52474e-14
5.67971e-15
7.36356e-15
1.88573e-15
-2.08047e-14
3.92578e-15
0
0
1.4779e-14
1.72992e-15
-2.28857e-14
-2.36486e-15
-5.44922e-15
-1.64136e-14
8.54465e-15
-2.74542e-14
-1.01833e-14
-2.62568e-16
-7.41304e-15
-4.23904e-15
7.08276e-15
1.82895e-14
-3.94404e-15
4.88149e-15
1.20485e-15
1.8137e-14
0
0
3.22588e-15
-2.99694e-14
2.56441e-14
-3.11281e-14
-1.22495e-14
1.44654e-14
7.39633e-15
-7.10157e-16
-8.16374e-15
-8.92774e-15
-2.80554e-14
3.51818e-16
-4.82985e-15
4.44674e-15
-2.64628e-14
6.43947e-15
1.95134e-15
1.43362e-14
0
0
-1.49286e-14
4.04703e-16
-1.60435e-14
2.8298e-15
-3.05379e-14
-2.56809e-14
1.24973e-14
3.32633e-15
-2.09888e-14
-4.19845e-15
5.19496e-15
1.46222e-14
-2.60927e-14
5.5304e-15
1.0356e-14
-1.7278e-14
9.19833e-15
-6.7926e-15
0
0
1.78437e-14
-1.62504e-15
6.14126e-15
1.10831e-14
2.42558e-14
1.16822e-14
2.21004e-14
6.0421e-15
7.72727e-15
-1.70777e-14
7.58085e-15
9.54697e-15
-1.60657e-14
2.32558e-14
2.56547e-16
6.464e-15
2.90117e-14
-9.67926e-15
0
0
-4.76613e-15
1.55111e-14
2.44955e-14
8.9418e-15
-1.15605e-14
1.01504e-14
-1.12125e-14
1.51411e-14
-5.63125e-15
9.3969e-15
1.21874e-14
-1.26671e-14
4.10053e-15
1.31988e-14
-9.70245e-15
-7.76509e-15
2.50265e-14
-2.77535e-15
-2.71051e-14
-2.71051e-14
-4.15545e-15
-1.37851e-14
-3.7446e-15
-9.92013e-15
4.79179e-15
1.97347e-14
-1.88476e-14
1.78937e-14
-2.83523e-14
1.97091e-14
1.04872e-14
-2.61867e-14
1.0817e-14
2.06448e-14
-2.01702e-15
1.1634e-14
-1.04388e-14
1.20378e-14
0
2.71051e-14
4.26374e-15
1.24969e-14
5.1925e-15
-1.18425e-14
2.1801e-14
1.43274e-14
8.40296e-15
1.1367e-14
5.80812e-15
-8.07855e-15
-1.40455e-14
4.07112e-16
2.71349e-14
-2.91526e-14
-2.40661e-15
5.55068e-15
4.07871e-15
1.74695e-14
0
-2.71051e-14
-1.17526e-14
3.94059e-14
-1.33658e-16
-6.30748e-15
-1.15994e-14
4.1512e-15
1.88715e-14
-9.71481e-15
1.07842e-14
-1.08812e-14
1.09986e-14
-1.26956e-14
-6.11607e-15
-1.16696e-14
5.10644e-15
4.25747e-15
-4.75051e-15
-4.46705e-15
0
0
5.05416e-15
2.60357e-14
6.88069e-15
-2.23812e-14
-1.75615e-16
4.82757e-15
-1.78183e-14
-8.52871e-15
3.42548e-14
-3.22798e-14
1.84504e-14
-2.36626e-14
-9.29163e-15
-8.38865e-15
-1.61653e-15
3.21531e-15
-2.41139e-15
-5.361e-15
0
2.71051e-14
-5.53532e-15
-4.53601e-15
3.34672e-15
-2.54524e-14
3.174e-15
-6.86195e-16
-5.70482e-15
-1.68404e-14
2.63809e-14
-1.80025e-14
-5.86803e-15
2.45283e-14
-3.12497e-14
7.05558e-15
6.73556e-15
1.53408e-14
-2.38423e-14
7.00398e-15
0
-2.71051e-14
2.10347e-14
-7.61412e-15
-6.83171e-15
-1.85596e-14
-6.99864e-15
7.34977e-15
-1.06676e-14
7.1313e-15
7.8756e-15
-1.19411e-14
-7.07874e-15
1.9735e-14
-1.29111e-14
1.31357e-14
1.75418e-14
-4.53747e-14
1.43788e-14
-1.78269e-14
0
0
9.48368e-15
-1.81602e-14
8.46798e-15
1.23439e-15
4.75669e-15
6.74468e-15
-8.02631e-16
-3.04852e-15
4.68603e-15
4.84737e-15
-3.91556e-15
-2.84022e-14
-5.61145e-15
3.12286e-14
1.89877e-15
-1.35352e-15
5.64865e-15
1.50114e-14
0
0
1.44983e-14
1.82312e-14
2.76702e-15
-1.58695e-14
-6.94608e-15
4.30789e-15
2.91537e-15
-8.33609e-15
-1.82881e-14
2.38338e-14
1.11991e-14
1.68047e-15
-3.27527e-14
7.79058e-15
3.75188e-15
-1.04688e-14
1.45869e-14
-2.00731e-14
0
0
-2.06172e-14
2.25002e-15
-3.2586e-15
1.34678e-14
-4.03242e-14
3.94292e-14
-1.72549e-14
-3.45602e-15
2.57281e-14
-5.06896e-15
1.73329e-14
2.76612e-14
-8.30408e-15
1.05434e-14
-1.78595e-15
-7.71407e-15
6.92304e-15
-8.46934e-15
0
0
0
0
-2.71051e-14
0
0
2.71051e-14
2.71051e-14
0
0
0
-2.71051e-14
2.71051e-14
-2.71051e-14
2.71051e-14
0
-2.71051e-14
0
0
0
)
;

boundaryField
{
    movingWall
    {
        type            extrapolatedCalculated;
        value           nonuniform List<scalar> 
20
(
0
0
0
-2.71051e-14
0
0
2.71051e-14
2.71051e-14
0
0
0
-2.71051e-14
2.71051e-14
-2.71051e-14
2.71051e-14
0
-2.71051e-14
0
0
0
)
;
    }
    fixedWalls
    {
        type            extrapolatedCalculated;
        value           nonuniform List<scalar> 
60
(
-5.42101e-14
2.71051e-14
0
-2.71051e-14
0
0
0
0
0
0
-2.71051e-14
2.71051e-14
-2.71051e-14
0
2.71051e-14
-2.71051e-14
0
0
0
0
0
0
0
0
0
0
0
0
0
-2.71051e-14
0
0
0
0
0
0
0
0
0
0
-5.42101e-14
2.48068e-14
3.15215e-16
-1.49893e-14
4.88892e-15
-1.50143e-14
2.55556e-14
-1.03422e-14
-1.55011e-14
4.42353e-15
-2.22841e-15
5.5505e-15
-5.87525e-15
1.8843e-15
-2.31123e-15
1.73029e-14
2.08404e-15
3.27295e-15
-1.80474e-14
0
)
;
    }
    frontAndBack
    {
        type            empty;
    }
}


// ************************************************************************* //
