/*--------------------------------*- C++ -*----------------------------------*\
| =========                 |                                                 |
| \\      /  F ield         | OpenFOAM: The Open Source CFD Toolbox           |
|  \\    /   O peration     | Version:  2312                                  |
|   \\  /    A nd           | Website:  www.openfoam.com                      |
|    \\/     M anipulation  |                                                 |
\*---------------------------------------------------------------------------*/
FoamFile
{
    version     2.0;
    format      ascii;
    arch        "LSB;label=32;scalar=64";
    class       volScalarField;
    location    "6.25";
    object      epsilonzeroGrad;
}
// * * * * * * * * * * * * * * * * * * * * * * * * * * * * * * * * * * * * * //

dimensions      [0 2 -3 0 0 0 0];

internalField   nonuniform List<scalar> 
400
(
3.50063e-06
3.50063e-06
3.50062e-06
3.50062e-06
3.50062e-06
3.50061e-06
3.50061e-06
3.50061e-06
3.5006e-06
3.5006e-06
3.5006e-06
3.5006e-06
3.5006e-06
3.5006e-06
3.5006e-06
3.5006e-06
3.5006e-06
3.5006e-06
3.5006e-06
3.5006e-06
3.73817e-06
3.6748e-06
3.68005e-06
3.68223e-06
3.68661e-06
3.68883e-06
3.69324e-06
3.69553e-06
3.69995e-06
3.70231e-06
3.70675e-06
3.70919e-06
3.71362e-06
3.71616e-06
3.72059e-06
3.72321e-06
3.72765e-06
3.73035e-06
3.73258e-06
3.73618e-06
4.08879e-06
4.01626e-06
4.02237e-06
4.02489e-06
4.02996e-06
4.03252e-06
4.03761e-06
4.04022e-06
4.04533e-06
4.048e-06
4.0531e-06
4.05586e-06
4.06094e-06
4.06379e-06
4.06885e-06
4.07179e-06
4.07684e-06
4.07985e-06
4.08239e-06
4.08643e-06
4.42353e-06
4.34289e-06
4.34967e-06
4.35246e-06
4.35809e-06
4.36093e-06
4.36659e-06
4.36949e-06
4.37516e-06
4.37813e-06
4.3838e-06
4.38686e-06
4.39251e-06
4.39567e-06
4.4013e-06
4.40456e-06
4.41018e-06
4.41352e-06
4.41634e-06
4.42084e-06
4.67711e-06
4.5901e-06
4.5974e-06
4.60041e-06
4.60648e-06
4.60955e-06
4.61565e-06
4.61877e-06
4.62489e-06
4.62809e-06
4.6342e-06
4.6375e-06
4.64359e-06
4.64701e-06
4.65308e-06
4.6566e-06
4.66266e-06
4.66627e-06
4.66931e-06
4.67416e-06
4.84452e-06
4.75319e-06
4.76085e-06
4.76401e-06
4.77037e-06
4.77358e-06
4.77998e-06
4.78325e-06
4.78967e-06
4.79303e-06
4.79944e-06
4.8029e-06
4.80929e-06
4.81288e-06
4.81924e-06
4.82294e-06
4.82929e-06
4.83309e-06
4.83628e-06
4.84137e-06
4.94724e-06
4.85326e-06
4.86114e-06
4.86439e-06
4.87093e-06
4.87424e-06
4.88082e-06
4.88419e-06
4.89079e-06
4.89424e-06
4.90084e-06
4.90441e-06
4.91098e-06
4.91467e-06
4.92122e-06
4.92502e-06
4.93156e-06
4.93547e-06
4.93875e-06
4.94399e-06
5.00958e-06
4.91398e-06
4.92199e-06
4.92529e-06
4.93195e-06
4.93531e-06
4.942e-06
4.94543e-06
4.95214e-06
4.95566e-06
4.96237e-06
4.96599e-06
4.97268e-06
4.97643e-06
4.98309e-06
4.98696e-06
4.99361e-06
4.99759e-06
5.00093e-06
5.00626e-06
5.04962e-06
4.95298e-06
4.96107e-06
4.96441e-06
4.97114e-06
4.97453e-06
4.9813e-06
4.98476e-06
4.99154e-06
4.9951e-06
5.00188e-06
5.00555e-06
5.0123e-06
5.0161e-06
5.02283e-06
5.02674e-06
5.03347e-06
5.03748e-06
5.04086e-06
5.04625e-06
5.07863e-06
4.98124e-06
4.9894e-06
4.99276e-06
4.99954e-06
5.00296e-06
5.00978e-06
5.01327e-06
5.0201e-06
5.02369e-06
5.03052e-06
5.03421e-06
5.04102e-06
5.04484e-06
5.05163e-06
5.05557e-06
5.06235e-06
5.0664e-06
5.0698e-06
5.07523e-06
5.10307e-06
5.00504e-06
5.01325e-06
5.01663e-06
5.02346e-06
5.0269e-06
5.03376e-06
5.03727e-06
5.04415e-06
5.04776e-06
5.05463e-06
5.05835e-06
5.0652e-06
5.06905e-06
5.07588e-06
5.07985e-06
5.08667e-06
5.09074e-06
5.09416e-06
5.09963e-06
5.12647e-06
5.02784e-06
5.0361e-06
5.03951e-06
5.04637e-06
5.04984e-06
5.05674e-06
5.06027e-06
5.06719e-06
5.07082e-06
5.07774e-06
5.08148e-06
5.08837e-06
5.09224e-06
5.09912e-06
5.10311e-06
5.10997e-06
5.11407e-06
5.11751e-06
5.12301e-06
5.15091e-06
5.05165e-06
5.05996e-06
5.06339e-06
5.0703e-06
5.07378e-06
5.08073e-06
5.08428e-06
5.09125e-06
5.0949e-06
5.10186e-06
5.10563e-06
5.11256e-06
5.11646e-06
5.12337e-06
5.12739e-06
5.1343e-06
5.13842e-06
5.14189e-06
5.14742e-06
5.17767e-06
5.07772e-06
5.08608e-06
5.08953e-06
5.09649e-06
5.1e-06
5.10699e-06
5.11057e-06
5.11758e-06
5.12126e-06
5.12826e-06
5.13206e-06
5.13904e-06
5.14297e-06
5.14993e-06
5.15398e-06
5.16093e-06
5.16508e-06
5.16857e-06
5.17415e-06
5.20755e-06
5.10683e-06
5.11526e-06
5.11873e-06
5.12574e-06
5.12928e-06
5.13632e-06
5.13993e-06
5.14699e-06
5.1507e-06
5.15776e-06
5.16158e-06
5.16862e-06
5.17257e-06
5.17959e-06
5.18367e-06
5.19067e-06
5.19486e-06
5.19837e-06
5.20399e-06
5.24074e-06
5.13916e-06
5.14766e-06
5.15116e-06
5.15823e-06
5.1618e-06
5.1689e-06
5.17254e-06
5.17966e-06
5.1834e-06
5.19052e-06
5.19438e-06
5.20147e-06
5.20546e-06
5.21253e-06
5.21665e-06
5.22371e-06
5.22793e-06
5.23148e-06
5.23714e-06
5.27618e-06
5.1737e-06
5.18228e-06
5.18581e-06
5.19294e-06
5.19654e-06
5.20371e-06
5.20738e-06
5.21456e-06
5.21833e-06
5.22552e-06
5.22941e-06
5.23657e-06
5.24059e-06
5.24773e-06
5.25188e-06
5.259e-06
5.26327e-06
5.26684e-06
5.27256e-06
5.31085e-06
5.20749e-06
5.21614e-06
5.2197e-06
5.22688e-06
5.23051e-06
5.23773e-06
5.24144e-06
5.24868e-06
5.25249e-06
5.25973e-06
5.26365e-06
5.27087e-06
5.27493e-06
5.28213e-06
5.28632e-06
5.2935e-06
5.2978e-06
5.30141e-06
5.30718e-06
5.33932e-06
5.23732e-06
5.24569e-06
5.24915e-06
5.25615e-06
5.25969e-06
5.26675e-06
5.2704e-06
5.2775e-06
5.28127e-06
5.28838e-06
5.2923e-06
5.29941e-06
5.3035e-06
5.3106e-06
5.31486e-06
5.32196e-06
5.32636e-06
5.32994e-06
5.33573e-06
5.35218e-06
5.35217e-06
5.35216e-06
5.35216e-06
5.35215e-06
5.35214e-06
5.35214e-06
5.35214e-06
5.35214e-06
5.35213e-06
5.35213e-06
5.35213e-06
5.35213e-06
5.35212e-06
5.35212e-06
5.35212e-06
5.35212e-06
5.35212e-06
5.35212e-06
5.35212e-06
)
;

boundaryField
{
    movingWall
    {
        type            zeroGradient;
    }
    fixedWalls
    {
        type            zeroGradient;
    }
    frontAndBack
    {
        type            empty;
    }
}


// ************************************************************************* //
