/*--------------------------------*- C++ -*----------------------------------*\
| =========                 |                                                 |
| \\      /  F ield         | OpenFOAM: The Open Source CFD Toolbox           |
|  \\    /   O peration     | Version:  2312                                  |
|   \\  /    A nd           | Website:  www.openfoam.com                      |
|    \\/     M anipulation  |                                                 |
\*---------------------------------------------------------------------------*/
FoamFile
{
    version     2.0;
    format      ascii;
    arch        "LSB;label=32;scalar=64";
    class       volScalarField;
    location    "6.25";
    object      flowTypeField;
}
// * * * * * * * * * * * * * * * * * * * * * * * * * * * * * * * * * * * * * //

dimensions      [0 0 0 0 0 0 0];

internalField   nonuniform List<scalar> 
400
(
0.453684
0.0675345
0.0633856
-0.00369633
0.196628
0.732694
0.261748
-0.162382
0.112644
0.829464
0.795108
0.106373
0.699129
0.112264
0.558733
0.679172
0.453743
0.384322
0.198546
0.593507
0.968891
0.777853
0.807673
0.744969
0.862998
0.953935
0.0835698
0.353152
-0.0542155
0.0577287
0.02243
0.411652
0.0951408
0.106227
0.246864
0.354165
0.92846
0.254397
0.94136
0.52519
0.599007
0.123799
0.0884078
0.0882335
-0.0238329
0.26889
-0.059973
-0.000308335
-0.010797
0.287539
-0.0800514
-0.166132
0.0230534
0.412216
0.12841
0.0900802
0.901448
-0.209399
0.170171
0.0104916
0.654908
0.153005
0.0892175
0.24975
0.073643
0.836756
0.317935
0.273549
-0.00583693
0.0236681
0.000369369
-0.171366
-0.188013
-0.178187
0.0259384
0.0804895
0.155944
0.220746
0.928232
0.549394
0.866875
0.750014
0.683254
0.760487
0.346262
0.34043
0.732426
0.310725
-0.14314
0.271569
0.816769
0.248208
0.619135
0.454624
0.321368
0.00563802
-0.133898
0.734543
0.552897
-0.20853
0.666609
0.127224
0.0942119
0.095165
0.321203
0.495571
0.710487
0.0830108
0.343391
-0.0657389
0.0271717
-0.0990319
0.316129
0.935778
0.314106
-0.328241
-0.376921
0.158518
-0.12915
0.0598944
0.452464
0.0899208
0.0145041
0.208091
-0.775138
0.164469
-0.233486
-0.0685751
-0.016996
-0.0160266
0.189953
0.114677
0.0997622
0.137168
0.0655328
0.105018
0.151027
0.322242
-0.0201701
0.682015
0.917406
0.56382
0.617731
0.517692
0.954463
-0.214454
-0.0908945
-0.170331
0.024975
0.221081
-0.360133
0.00124094
0.168671
0.317014
-0.118645
0.149213
0.270727
0.00539569
0.60099
0.342361
0.670608
0.14155
0.102309
0.298688
0.0364047
-0.172983
-0.0536322
0.634611
0.710267
0.858429
0.437213
0.0327976
-0.014161
0.145812
-0.016268
-0.0397494
0.201642
0.0697655
0.410982
0.5331
0.0214154
0.0131095
-0.030055
-0.125643
0.600311
-0.335571
0.339885
0.815172
-0.152011
-0.0389338
0.535908
0.711338
0.799414
0.934578
0.134132
0.265913
0.182656
0.0676446
0.0225177
0.0486755
-0.170358
-0.0327611
-0.0980524
-0.315814
0.755782
-0.0551814
0.251895
0.268395
0.0105112
-0.224758
0.664137
-0.500844
-0.300532
-0.328505
0.0204711
0.206094
0.542746
-0.109138
-0.129467
0.513525
0.332491
0.0874707
-0.0316645
0.328803
0.356548
0.0900059
0.0349415
0.348792
-0.31238
-0.067711
0.50056
0.379976
-0.0992123
-0.416626
-0.0892694
-0.049424
0.514714
0.00422858
0.927357
0.295163
0.978139
0.762052
0.577983
0.4828
-0.056553
0.204425
-0.0734386
0.139912
0.566229
0.398296
0.427669
-0.0820331
0.0361185
0.29476
0.972277
0.169071
0.737273
-0.252488
0.52174
0.129952
0.561645
0.100669
0.0299291
0.185683
0.056397
0.237434
0.691594
0.630339
-0.521804
-0.323468
0.41404
-0.484226
0.850605
-0.0210636
0.673418
0.0833098
-0.0675589
-0.0744799
0.485608
0.164786
0.141012
0.0562795
-0.0718901
0.23927
-0.699136
0.406107
-0.0136055
0.0956482
0.137921
0.0368721
-0.034247
-0.11729
0.0275918
0.0223575
-0.00939655
0.444643
-0.00746
0.699418
0.852701
0.000591998
0.61359
0.148681
0.0730833
0.199231
-0.252374
0.0502187
-0.0262024
0.00380529
-0.0332775
0.0214677
0.0948739
0.0204605
0.0659194
-0.00409667
0.237693
0.23867
0.287398
0.652889
0.512088
0.51838
0.99488
0.563838
0.521664
0.753808
-0.184855
0.149087
0.00373928
0.0310686
-0.0822442
-0.212608
0.346283
0.333559
0.203678
-0.028231
-0.135002
-0.461389
0.282874
0.902859
0.43746
0.11833
0.628332
0.13648
0.0846121
0.230833
-0.778162
0.251457
-0.040096
0.0119084
0.0103224
0.085702
0.0343405
-0.0834023
0.31605
0.745717
0.804945
0.412222
0.736134
0.956382
0.264372
0.866232
0.91492
0.520158
0.437756
0.891866
-0.100346
0.248332
0.171141
0.706465
0.213333
0.0910673
0.0728194
-0.103244
0.0252973
0.0295988
0.605336
-0.0225186
-0.431042
0.898473
-0.456658
0.596948
0.545205
0.0722161
0.141498
-0.0829445
0.121022
0.225498
0.524007
0.278468
0.76451
0.248836
0.657748
0.40916
0.185408
0.247883
-0.177946
-0.0976463
0.329728
0.890076
0.870173
0.179243
)
;

boundaryField
{
    movingWall
    {
        type            calculated;
        value           nonuniform List<scalar> 
20
(
0.638066
0.126507
0.364576
-0.200678
0.331011
-0.0574624
-0.0326225
0.00728899
0.006251
-0.0161799
0.00314538
0.0435437
0.0483573
0.0501849
-0.093398
-0.0400216
0.0632316
0.883348
0.8704
0.072884
)
;
    }
    fixedWalls
    {
        type            calculated;
        value           nonuniform List<scalar> 
60
(
0.0675927
0.795722
0.115287
0.135337
0.723986
0.131512
0.0784638
0.577566
0.143502
0.00394426
-0.0455077
0.06109
0.718902
0.0969641
0.0321533
0.137577
0.592683
0.123285
0.503332
0.0922091
0.715887
0.416771
0.00453072
0.849106
0.20926
0.756418
0.786465
0.905577
0.582529
0.00843159
0.0854726
0.197026
0.202432
0.105415
0.000226749
0.627838
0.47096
0.892556
0.894049
0.36351
0.622698
0.142396
0.257786
0.0179017
0.87554
-0.122596
0.0165819
0.045751
0.0583435
0.119526
0.0929915
0.249287
0.347259
0.178479
0.34618
0.731203
0.0348032
0.486345
0.223957
-0.00257382
)
;
    }
    frontAndBack
    {
        type            empty;
    }
}


// ************************************************************************* //
