/*--------------------------------*- C++ -*----------------------------------*\
| =========                 |                                                 |
| \\      /  F ield         | OpenFOAM: The Open Source CFD Toolbox           |
|  \\    /   O peration     | Version:  2312                                  |
|   \\  /    A nd           | Website:  www.openfoam.com                      |
|    \\/     M anipulation  |                                                 |
\*---------------------------------------------------------------------------*/
FoamFile
{
    version     2.0;
    format      ascii;
    arch        "LSB;label=32;scalar=64";
    class       surfaceScalarField;
    location    "6.25";
    object      fluxField;
}
// * * * * * * * * * * * * * * * * * * * * * * * * * * * * * * * * * * * * * //

dimensions      [0 3 -1 0 0 0 0];

oriented        oriented;

internalField   nonuniform List<scalar> 
760
(
-5e-05
3.92237e-18
-5e-05
-8.46441e-19
-5e-05
2.02056e-19
-5e-05
-4.44861e-20
-5e-05
6.45585e-21
-5e-05
-4.58892e-21
-5e-05
-2.91941e-21
-5e-05
-2.35995e-21
-5e-05
2.27062e-21
-5e-05
6.73128e-21
-5e-05
7.05521e-21
-5e-05
7.77451e-21
-5e-05
5.43947e-21
-5e-05
5.69481e-21
-5e-05
3.6744e-21
-5e-05
-3.38251e-21
-5e-05
-4.01404e-21
-5e-05
-1.41202e-21
-5e-05
9.80872e-22
1.84425e-22
-5e-05
-3.12246e-18
-5e-05
6.92785e-19
-5e-05
-1.64413e-19
-5e-05
3.75125e-20
-5e-05
-5.41558e-21
-5e-05
3.31111e-21
-5e-05
7.88323e-22
-5e-05
3.13586e-22
-5e-05
3.63481e-22
-5e-05
4.09289e-21
-5e-05
5.30143e-21
-5e-05
2.06149e-21
-5e-05
-1.63845e-21
-5e-05
1.4331e-21
-5e-05
2.40519e-21
-5e-05
-1.13993e-21
-5e-05
-1.83565e-21
-5e-05
-2.18346e-21
-5e-05
-4.47925e-21
-2.7456e-21
-5e-05
-7.59429e-19
-5e-05
1.58622e-19
-5e-05
-3.70156e-20
-5e-05
1.15322e-20
-5e-05
9.41221e-21
-5e-05
8.63295e-21
-5e-05
7.48416e-21
-5e-05
5.35854e-21
-5e-05
2.99204e-21
-5e-05
3.77859e-21
-5e-05
5.58189e-21
-5e-05
2.13283e-21
-5e-05
-2.1175e-21
-5e-05
-2.3053e-21
-5e-05
-3.4987e-21
-5e-05
-2.83282e-21
-5e-05
-4.08227e-21
-5e-05
-2.84542e-21
-5e-05
-5.26383e-21
-3.63717e-21
-5e-05
2.47169e-18
-5e-05
-5.66909e-19
-5e-05
1.28964e-19
-5e-05
-3.27789e-20
-5e-05
7.29093e-21
-5e-05
-1.57888e-21
-5e-05
1.13842e-21
-5e-05
3.82646e-21
-5e-05
6.43886e-21
-5e-05
5.48333e-21
-5e-05
5.14417e-21
-5e-05
4.6622e-21
-5e-05
2.63874e-21
-5e-05
-1.49547e-21
-5e-05
-4.82407e-21
-5e-05
-3.43911e-21
-5e-05
-2.16522e-21
-5e-05
5.00974e-22
-5e-05
-2.11273e-21
-2.23666e-21
-5e-05
-2.55736e-18
-5e-05
5.37843e-19
-5e-05
-1.30603e-19
-5e-05
2.51087e-20
-5e-05
-8.65418e-21
-5e-05
-5.63486e-22
-5e-05
-2.9398e-21
-5e-05
-1.22856e-23
-5e-05
3.17716e-21
-5e-05
3.45921e-21
-5e-05
4.26585e-21
-5e-05
3.9803e-21
-5e-05
5.13822e-21
-5e-05
-5.38814e-22
-5e-05
-5.15146e-21
-5e-05
-3.1101e-21
-5e-05
2.93252e-21
-5e-05
5.30201e-21
-5e-05
5.64901e-22
-2.21482e-21
-5e-05
4.87182e-19
-5e-05
-1.12766e-19
-5e-05
2.23806e-20
-5e-05
-8.30391e-21
-5e-05
-2.09195e-21
-5e-05
-2.0623e-21
-5e-05
-3.71747e-22
-5e-05
3.99617e-23
-5e-05
1.26265e-21
-5e-05
5.14829e-21
-5e-05
6.08255e-21
-5e-05
4.04995e-21
-5e-05
5.5991e-21
-5e-05
5.0749e-22
-5e-05
-2.78153e-21
-5e-05
-3.11698e-22
-5e-05
1.70258e-21
-5e-05
2.11236e-21
-5e-05
3.81669e-21
-3.92942e-22
-5e-05
2.27158e-18
-5e-05
-4.97054e-19
-5e-05
1.10377e-19
-5e-05
-3.09945e-20
-5e-05
-6.63817e-21
-5e-05
-7.85407e-21
-5e-05
1.4024e-21
-5e-05
5.37294e-21
-5e-05
7.95036e-21
-5e-05
8.83453e-21
-5e-05
3.47988e-21
-5e-05
3.37299e-22
-5e-05
-2.80961e-22
-5e-05
2.70022e-23
-5e-05
2.18878e-21
-5e-05
4.9956e-21
-5e-05
-1.26038e-21
-5e-05
-4.54814e-21
-5e-05
3.46533e-21
2.4864e-21
-5e-05
-2.29114e-18
-5e-05
5.07721e-19
-5e-05
-1.18236e-19
-5e-05
2.68132e-20
-5e-05
-1.11977e-20
-5e-05
-6.51909e-22
-5e-05
-3.21078e-21
-5e-05
1.1442e-22
-5e-05
4.58619e-21
-5e-05
3.46876e-21
-5e-05
-2.10791e-22
-5e-05
2.03848e-22
-5e-05
-2.14974e-21
-5e-05
5.81808e-22
-5e-05
2.92377e-21
-5e-05
3.10585e-21
-5e-05
-2.20033e-21
-5e-05
-4.75668e-21
-5e-05
-3.62149e-22
1.27649e-21
-5e-05
4.21636e-19
-5e-05
-8.73708e-20
-5e-05
2.05774e-20
-5e-05
-5.2549e-21
-5e-05
1.17286e-21
-5e-05
-2.84938e-21
-5e-05
-9.12857e-21
-5e-05
-4.4689e-21
-5e-05
-2.80738e-21
-5e-05
-4.14667e-21
-5e-05
-3.16988e-21
-5e-05
1.20533e-21
-5e-05
1.36741e-21
-5e-05
1.66014e-21
-5e-05
2.24853e-21
-5e-05
1.10827e-22
-5e-05
1.19715e-21
-5e-05
9.25102e-22
-5e-05
-2.16737e-21
-2.14843e-21
-5e-05
3.26873e-19
-5e-05
-7.66875e-20
-5e-05
2.0893e-20
-5e-05
-5.96781e-21
-5e-05
4.5828e-21
-5e-05
-1.66665e-21
-5e-05
-2.71069e-21
-5e-05
2.58703e-22
-5e-05
-5.00967e-21
-5e-05
-9.93766e-21
-5e-05
-1.13986e-20
-5e-05
-8.53461e-21
-5e-05
-2.98939e-21
-5e-05
1.1813e-21
-5e-05
5.83309e-21
-5e-05
6.09373e-21
-5e-05
6.14835e-21
-5e-05
2.26105e-21
-5e-05
-3.08187e-21
-3.13026e-21
-5e-05
-3.03763e-19
-5e-05
7.44413e-20
-5e-05
-1.00747e-20
-5e-05
4.07735e-21
-5e-05
5.62472e-21
-5e-05
1.92281e-21
-5e-05
-1.84355e-21
-5e-05
-8.79521e-21
-5e-05
-8.59901e-21
-5e-05
-5.0641e-21
-5e-05
-6.93098e-21
-5e-05
-1.05546e-20
-5e-05
-6.38194e-21
-5e-05
3.24303e-21
-5e-05
1.1292e-20
-5e-05
1.14153e-20
-5e-05
4.79272e-21
-5e-05
-8.68634e-23
-5e-05
-1.13127e-21
-7.75768e-22
-5e-05
1.26306e-18
-5e-05
-2.66221e-19
-5e-05
6.37049e-20
-5e-05
-1.3914e-20
-5e-05
1.82136e-21
-5e-05
-2.20544e-21
-5e-05
-4.13272e-21
-5e-05
-1.23952e-20
-5e-05
-8.04012e-21
-5e-05
-7.00097e-22
-5e-05
1.16472e-22
-5e-05
-4.85469e-21
-5e-05
-5.54789e-21
-5e-05
4.85095e-22
-5e-05
4.92485e-21
-5e-05
3.55512e-21
-5e-05
-9.34393e-22
-5e-05
6.76247e-22
-5e-05
2.61025e-21
8.77001e-22
-5e-05
-2.02543e-18
-5e-05
4.38947e-19
-5e-05
-1.01833e-19
-5e-05
2.27034e-20
-5e-05
-1.05927e-20
-5e-05
-1.89149e-21
-5e-05
-3.06613e-22
-5e-05
-2.1024e-21
-5e-05
-4.98534e-21
-5e-05
-8.69007e-21
-5e-05
-7.47222e-21
-5e-05
-4.27058e-21
-5e-05
-3.68519e-21
-5e-05
-3.38503e-21
-5e-05
-2.89247e-21
-5e-05
-2.56829e-21
-5e-05
-3.03179e-22
-5e-05
1.69837e-21
-5e-05
1.96118e-22
-4.02003e-22
-5e-05
1.33292e-18
-5e-05
-2.80742e-19
-5e-05
6.81417e-20
-5e-05
-1.15326e-20
-5e-05
2.66246e-21
-5e-05
-8.25202e-22
-5e-05
1.81965e-21
-5e-05
1.39708e-21
-5e-05
-3.02219e-21
-5e-05
-8.12215e-21
-5e-05
-7.4365e-21
-5e-05
-1.48803e-21
-5e-05
4.62687e-22
-5e-05
-2.2255e-22
-5e-05
4.22483e-22
-5e-05
8.51246e-22
-5e-05
1.57465e-21
-5e-05
1.04227e-21
-5e-05
-3.35258e-21
-2.04611e-21
-5e-05
1.10767e-18
-5e-05
-2.41873e-19
-5e-05
5.34776e-20
-5e-05
-7.98807e-21
-5e-05
6.12372e-21
-5e-05
-3.03104e-22
-5e-05
-1.19822e-21
-5e-05
-1.57801e-21
-5e-05
-3.59797e-21
-5e-05
-4.14501e-21
-5e-05
-3.17527e-21
-5e-05
-7.93492e-22
-5e-05
-4.12826e-22
-5e-05
-9.98943e-22
-5e-05
-1.29952e-21
-5e-05
-2.27151e-21
-5e-05
-4.0634e-21
-5e-05
-3.29799e-21
-5e-05
-4.03083e-21
-2.15614e-21
-5e-05
-2.57236e-18
-5e-05
5.46779e-19
-5e-05
-1.29612e-19
-5e-05
2.88849e-20
-5e-05
-5.86616e-21
-5e-05
-1.40646e-21
-5e-05
-4.20188e-21
-5e-05
-1.92596e-21
-5e-05
-3.70956e-21
-5e-05
-5.83939e-21
-5e-05
-4.9073e-21
-5e-05
-2.60239e-21
-5e-05
-2.6316e-21
-5e-05
-4.46396e-21
-5e-05
-8.09028e-21
-5e-05
-7.08103e-21
-5e-05
-3.73948e-21
-5e-05
-2.47441e-21
-5e-05
-2.18393e-21
-1.70377e-21
-5e-05
1.79917e-18
-5e-05
-3.89167e-19
-5e-05
9.3215e-20
-5e-05
-2.38732e-20
-5e-05
1.34634e-21
-5e-05
-3.7863e-21
-5e-05
-4.31911e-21
-5e-05
-1.4077e-21
-5e-05
-2.4015e-21
-5e-05
-4.94392e-21
-5e-05
-3.01237e-21
-5e-05
-8.94672e-23
-5e-05
6.55915e-22
-5e-05
-3.35901e-21
-5e-05
-6.99255e-21
-5e-05
-4.14233e-21
-5e-05
-1.81662e-23
-5e-05
6.76551e-22
-5e-05
-1.14259e-22
-1.2219e-21
-5e-05
1.6709e-18
-5e-05
-3.65901e-19
-5e-05
8.26427e-20
-5e-05
-2.49387e-20
-5e-05
-1.45755e-21
-5e-05
-5.43665e-21
-5e-05
-5.32095e-21
-5e-05
-1.99336e-21
-5e-05
-6.16122e-22
-5e-05
6.18505e-22
-5e-05
1.58316e-21
-5e-05
8.3183e-22
-5e-05
-6.53833e-22
-5e-05
-5.63271e-21
-5e-05
-4.18262e-21
-5e-05
-1.15329e-21
-5e-05
-2.92666e-21
-5e-05
-3.67515e-21
-5e-05
-2.30344e-21
-5.82878e-22
-5e-05
-2.92057e-18
-5e-05
6.23893e-19
-5e-05
-1.50153e-19
-5e-05
2.86445e-20
-5e-05
-1.3266e-20
-5e-05
-5.87898e-21
-5e-05
-4.43774e-21
-5e-05
-1.62055e-21
-5e-05
-1.31218e-21
-5e-05
1.202e-21
-5e-05
1.09888e-21
-5e-05
-1.34105e-21
-5e-05
-5.66292e-21
-5e-05
-8.17476e-21
-5e-05
-3.82594e-21
-5e-05
-7.40661e-22
-5e-05
-2.7764e-21
-5e-05
-4.2296e-21
-5e-05
-2.92031e-21
-4.16006e-22
-5e-05
-5e-05
-5e-05
-5e-05
-5e-05
-5e-05
-5e-05
-5e-05
-5e-05
-5e-05
-5e-05
-5e-05
-5e-05
-5e-05
-5e-05
-5e-05
-5e-05
-5e-05
-5e-05
)
;

boundaryField
{
    movingWall
    {
        type            calculated;
        value           uniform -0;
    }
    fixedWalls
    {
        type            calculated;
        value           nonuniform List<scalar> 
60
(
5e-05
5e-05
5e-05
5e-05
5e-05
5e-05
5e-05
5e-05
5e-05
5e-05
5e-05
5e-05
5e-05
5e-05
5e-05
5e-05
5e-05
5e-05
5e-05
5e-05
-5e-05
-5e-05
-5e-05
-5e-05
-5e-05
-5e-05
-5e-05
-5e-05
-5e-05
-5e-05
-5e-05
-5e-05
-5e-05
-5e-05
-5e-05
-5e-05
-5e-05
-5e-05
-5e-05
-5e-05
0
0
0
0
0
0
0
0
0
0
0
0
0
0
0
0
0
0
0
0
)
;
    }
    frontAndBack
    {
        type            empty;
        value           nonuniform List<scalar> 0();
    }
}


// ************************************************************************* //
