/*--------------------------------*- C++ -*----------------------------------*\
| =========                 |                                                 |
| \\      /  F ield         | OpenFOAM: The Open Source CFD Toolbox           |
|  \\    /   O peration     | Version:  2312                                  |
|   \\  /    A nd           | Website:  www.openfoam.com                      |
|    \\/     M anipulation  |                                                 |
\*---------------------------------------------------------------------------*/
FoamFile
{
    version     2.0;
    format      ascii;
    arch        "LSB;label=32;scalar=64";
    class       volVectorField;
    location    "6.25";
    object      gradPhi;
}
// * * * * * * * * * * * * * * * * * * * * * * * * * * * * * * * * * * * * * //

dimensions      [0 2 -1 0 0 0 0];

internalField   nonuniform List<vector> 
400
(
(-0.02 9.991e-17 0)
(1.42275e-16 -1.41061e-16 0)
(-3.97047e-17 4.06733e-17 0)
(6.61744e-18 -7.52573e-18 0)
(0 2.44446e-19 0)
(0 -7.50717e-19 0)
(1.65436e-18 -7.74716e-20 0)
(0 -5.17111e-19 0)
(-1.65436e-18 5.80196e-19 0)
(-1.65436e-18 1.57643e-18 0)
(-1.65436e-18 1.24383e-18 0)
(-1.65436e-18 1.63278e-18 0)
(0 1.06149e-18 0)
(-1.65436e-18 1.44947e-18 0)
(-1.65436e-18 1.23969e-18 0)
(1.65436e-18 -4.90109e-19 0)
(1.65436e-18 -1.25105e-18 0)
(0 -1.19161e-18 0)
(0 4.52882e-19 0)
(0 6.70665e-19 0)
(-0.02 -1.88355e-16 0)
(-2.54772e-16 2.54299e-16 0)
(7.44463e-17 -7.45977e-17 0)
(-1.48893e-17 1.40676e-17 0)
(1.65436e-18 -2.62436e-19 0)
(-3.30872e-18 9.82239e-19 0)
(1.65436e-18 -7.76327e-19 0)
(-1.65436e-18 5.77956e-19 0)
(1.65436e-18 -7.10791e-19 0)
(1.65436e-18 -7.08968e-19 0)
(0 1.09873e-19 0)
(1.65436e-18 -1.15552e-18 0)
(1.65436e-18 -1.84191e-18 0)
(1.65436e-18 -2.02763e-18 0)
(1.65436e-18 -7.97054e-19 0)
(0 3.74128e-19 0)
(-3.30872e-18 1.51093e-18 0)
(0 1.22363e-18 0)
(0 -1.93557e-18 0)
(1.65436e-18 -1.49588e-18 0)
(-0.02 5.4505e-17 0)
(8.27181e-17 -8.14243e-17 0)
(-2.81241e-17 2.80206e-17 0)
(4.96308e-18 -4.75271e-18 0)
(-1.65436e-18 1.40608e-18 0)
(-1.65436e-18 1.48169e-18 0)
(-3.30872e-18 3.11482e-18 0)
(0 1.34208e-18 0)
(0 1.01197e-18 0)
(0 -2.92903e-19 0)
(0 -2.55999e-19 0)
(0 -1.67854e-19 0)
(0 1.00575e-18 0)
(-1.65436e-18 1.14615e-18 0)
(1.65436e-18 -1.40979e-18 0)
(0 -8.18146e-19 0)
(1.65436e-18 -1.63444e-18 0)
(0 -1.55968e-19 0)
(0 1.05976e-18 0)
(0 -4.68057e-19 0)
(-0.02 9.9887e-17 0)
(1.22423e-16 -1.22078e-16 0)
(-3.14329e-17 3.0452e-17 0)
(6.61744e-18 -6.78062e-18 0)
(0 3.9891e-19 0)
(1.65436e-18 -1.73886e-18 0)
(3.30872e-18 -2.26346e-18 0)
(1.65436e-18 -8.98049e-19 0)
(0 2.95356e-19 0)
(-1.65436e-18 7.05688e-19 0)
(0 -2.7393e-19 0)
(0 8.75949e-19 0)
(0 -4.69966e-20 0)
(1.65436e-18 -1.37022e-18 0)
(-1.65436e-18 1.10549e-19 0)
(0 6.32807e-19 0)
(-1.65436e-18 1.46253e-18 0)
(0 -2.79919e-19 0)
(0 -3.81852e-19 0)
(-1.65436e-18 1.24709e-18 0)
(-0.02 -1.28474e-16 0)
(-1.72054e-16 1.71176e-16 0)
(4.96308e-17 -4.95951e-17 0)
(-9.92617e-18 8.45207e-18 0)
(6.61744e-18 -3.70824e-18 0)
(-1.65436e-18 -2.31705e-21 0)
(0 -6.09827e-19 0)
(1.65436e-18 -5.34166e-19 0)
(0 -3.5919e-19 0)
(0 -7.02938e-19 0)
(0 7.06805e-20 0)
(0 -7.23619e-19 0)
(-1.65436e-18 9.63905e-19 0)
(0 7.0935e-19 0)
(0 -2.14666e-19 0)
(1.65436e-18 -6.85755e-19 0)
(0 6.32116e-21 0)
(-3.30872e-18 2.07413e-18 0)
(-1.65436e-18 1.00106e-18 0)
(0 -4.88862e-19 0)
(-0.02 6.73047e-17 0)
(9.76073e-17 -9.6435e-17 0)
(-2.81241e-17 2.91991e-17 0)
(3.30872e-18 -4.6049e-18 0)
(0 1.803e-18 0)
(0 -2.44494e-19 0)
(-1.65436e-18 1.14685e-18 0)
(0 4.5652e-19 0)
(0 -8.35001e-19 0)
(-1.65436e-18 2.6878e-19 0)
(0 4.47667e-19 0)
(-1.65436e-18 5.22867e-19 0)
(0 1.05886e-21 0)
(0 4.4702e-19 0)
(0 6.30489e-19 0)
(-1.65436e-18 7.89873e-19 0)
(0 1.49788e-19 0)
(1.65436e-18 -1.61003e-18 0)
(0 7.10563e-19 0)
(0 2.00407e-19 0)
(-0.02 5.42849e-17 0)
(6.78288e-17 -6.6985e-17 0)
(-1.98523e-17 1.73886e-17 0)
(6.61744e-18 -4.34977e-18 0)
(0 -1.43816e-18 0)
(1.65436e-18 -1.69527e-18 0)
(0 -1.16656e-18 0)
(0 -5.74162e-20 0)
(0 1.3372e-18 0)
(-1.65436e-18 1.45623e-18 0)
(0 -4.33259e-19 0)
(0 -1.03212e-18 0)
(1.65436e-18 -1.12571e-18 0)
(0 -5.9563e-19 0)
(0 6.63115e-19 0)
(-3.30872e-18 1.58457e-18 0)
(0 7.78994e-20 0)
(1.65436e-18 -1.31793e-18 0)
(1.65436e-18 -1.90043e-19 0)
(-1.65436e-18 1.4692e-18 0)
(-0.02 -1.24757e-16 0)
(-1.62127e-16 1.61723e-16 0)
(4.46678e-17 -4.45599e-17 0)
(-9.92617e-18 1.01129e-17 0)
(0 -1.01261e-18 0)
(-1.65436e-18 1.79609e-18 0)
(-1.65436e-18 7.0319e-19 0)
(0 2.5505e-19 0)
(0 2.01824e-19 0)
(1.65436e-18 -1.99651e-18 0)
(1.65436e-18 -1.11879e-18 0)
(0 3.07267e-19 0)
(0 -6.41736e-19 0)
(0 2.92112e-19 0)
(0 5.41832e-20 0)
(0 -8.69568e-19 0)
(0 -1.18588e-18 0)
(0 3.62349e-19 0)
(1.65436e-18 -1.05644e-18 0)
(1.65436e-18 -1.0622e-18 0)
(-0.02 7.18909e-17 0)
(8.76811e-17 -8.78081e-17 0)
(-2.64698e-17 2.70036e-17 0)
(4.96308e-18 -5.66703e-18 0)
(-3.30872e-18 3.12317e-18 0)
(1.65436e-18 2.91759e-20 0)
(3.30872e-18 -2.1976e-18 0)
(1.65436e-18 -2.23035e-18 0)
(3.30872e-18 -2.57472e-18 0)
(1.65436e-18 -1.2747e-18 0)
(0 -6.43965e-19 0)
(0 1.19295e-19 0)
(0 1.10149e-18 0)
(-1.65436e-18 5.01348e-19 0)
(0 8.86271e-19 0)
(0 -5.04972e-19 0)
(-1.65436e-18 1.1871e-18 0)
(0 9.90671e-19 0)
(0 -1.44333e-19 0)
(0 -4.23192e-19 0)
(-0.02 -5.242e-18 0)
(-4.96308e-18 5.64577e-18 0)
(1.65436e-18 -4.98447e-19 0)
(0 9.1771e-19 0)
(0 -1.07066e-19 0)
(0 -4.3556e-19 0)
(-1.65436e-18 1.27866e-18 0)
(-3.30872e-18 2.40011e-18 0)
(0 4.54949e-19 0)
(0 -6.67926e-19 0)
(1.65436e-18 -1.38677e-18 0)
(3.30872e-18 -2.48018e-18 0)
(0 -1.1107e-18 0)
(0 -3.46941e-19 0)
(0 -5.02854e-19 0)
(0 8.57303e-19 0)
(-1.65436e-18 6.43798e-19 0)
(0 1.15599e-18 0)
(0 3.45196e-19 0)
(0 -7.57451e-19 0)
(-0.02 2.2697e-17 0)
(1.8198e-17 -1.75878e-17 0)
(3.30872e-18 -4.17531e-18 0)
(1.65436e-18 -1.412e-18 0)
(-3.30872e-18 1.76741e-18 0)
(0 8.17614e-19 0)
(0 4.79217e-19 0)
(3.30872e-18 -3.09226e-18 0)
(3.30872e-18 -1.21762e-18 0)
(-1.65436e-18 2.19199e-19 0)
(0 5.1561e-19 0)
(0 -8.50118e-20 0)
(0 -6.7598e-19 0)
(0 3.35825e-19 0)
(-1.65436e-18 1.72756e-18 0)
(-1.65436e-18 1.73952e-18 0)
(0 9.69956e-19 0)
(1.65436e-18 -1.77327e-18 0)
(1.65436e-18 -6.14595e-19 0)
(-1.65436e-18 9.91712e-19 0)
(-0.02 -2.95223e-17 0)
(-1.98523e-17 2.07498e-17 0)
(-1.32349e-17 1.21561e-17 0)
(0 1.80211e-18 0)
(1.65436e-18 -2.80663e-18 0)
(1.65436e-18 -5.04795e-19 0)
(1.65436e-18 -2.70363e-19 0)
(0 7.27367e-21 0)
(1.65436e-18 -3.26334e-19 0)
(-1.65436e-18 1.70802e-18 0)
(-3.30872e-18 2.67638e-18 0)
(-1.65436e-18 1.48387e-18 0)
(0 -2.55646e-20 0)
(0 -5.39362e-19 0)
(0 -1.13462e-18 0)
(1.65436e-18 -1.37473e-18 0)
(3.30872e-18 -3.01467e-18 0)
(0 7.25877e-19 0)
(-1.65436e-18 1.62684e-18 0)
(0 7.90792e-19 0)
(-0.02 3.75322e-18 0)
(-3.14329e-17 3.17252e-17 0)
(3.14329e-17 -3.11806e-17 0)
(-1.65436e-18 1.08894e-18 0)
(1.65436e-18 -1.0785e-18 0)
(0 -3.14763e-19 0)
(0 8.4644e-19 0)
(-1.65436e-18 1.87868e-18 0)
(-1.65436e-18 1.65642e-18 0)
(1.65436e-18 -2.4617e-18 0)
(3.30872e-18 -2.85064e-18 0)
(0 -1.03045e-19 0)
(-1.65436e-18 7.00116e-19 0)
(0 -3.07294e-19 0)
(1.65436e-18 -1.83635e-18 0)
(3.30872e-18 -2.33485e-18 0)
(-1.65436e-18 1.29059e-18 0)
(0 -4.41461e-19 0)
(1.65436e-18 -1.09683e-18 0)
(0 -9.33653e-19 0)
(-0.02 1.21195e-17 0)
(5.29396e-17 -5.20145e-17 0)
(-3.14329e-17 3.32128e-17 0)
(0 -1.00454e-18 0)
(-1.65436e-18 1.90682e-18 0)
(0 5.71188e-19 0)
(0 3.38183e-20 0)
(-1.65436e-18 8.76017e-19 0)
(0 5.93049e-20 0)
(0 1.17353e-18 0)
(-1.65436e-18 2.85323e-19 0)
(0 3.72587e-19 0)
(-1.65436e-18 8.06903e-19 0)
(0 -1.58778e-19 0)
(0 1.64046e-19 0)
(0 1.0191e-18 0)
(0 -5.21078e-20 0)
(-1.65436e-18 1.47221e-18 0)
(0 -4.46973e-20 0)
(0 -1.97851e-19 0)
(-0.02 3.81104e-17 0)
(2.97785e-17 -3.17003e-17 0)
(3.30872e-18 -2.88384e-18 0)
(3.30872e-18 -2.8872e-18 0)
(-3.30872e-18 1.20169e-18 0)
(0 1.67481e-19 0)
(0 -2.75688e-19 0)
(0 -7.49579e-19 0)
(0 -4.15584e-19 0)
(1.65436e-18 -3.93695e-19 0)
(-1.65436e-18 7.13863e-19 0)
(0 1.39332e-19 0)
(1.65436e-18 -3.00958e-19 0)
(-1.65436e-18 2.57348e-19 0)
(0 7.72212e-19 0)
(0 4.17604e-19 0)
(1.65436e-18 -7.48979e-19 0)
(1.65436e-18 -2.4268e-18 0)
(0 -7.37004e-19 0)
(0 -5.11524e-20 0)
(-0.02 -1.08427e-16 0)
(-1.42275e-16 1.4363e-16 0)
(3.63959e-17 -3.67457e-17 0)
(-8.27181e-18 7.62259e-18 0)
(1.65436e-18 -2.36587e-18 0)
(0 -5.08632e-19 0)
(1.65436e-18 -9.53454e-19 0)
(0 -2.48139e-19 0)
(0 -1.56668e-19 0)
(0 4.29987e-19 0)
(-1.65436e-18 3.03071e-19 0)
(0 -6.05357e-20 0)
(1.65436e-18 -2.39668e-19 0)
(0 -4.3832e-19 0)
(3.30872e-18 -2.4065e-18 0)
(1.65436e-18 -2.17019e-18 0)
(0 -3.25271e-19 0)
(0 5.55803e-19 0)
(-1.65436e-18 1.13711e-19 0)
(0 7.98519e-20 0)
(-0.02 1.18138e-16 0)
(1.58819e-16 -1.59142e-16 0)
(-4.63221e-17 4.55513e-17 0)
(9.92617e-18 -8.72178e-18 0)
(-1.65436e-18 9.89698e-19 0)
(1.65436e-18 -7.67486e-19 0)
(0 -3.02547e-20 0)
(0 4.93248e-19 0)
(-1.65436e-18 8.46261e-19 0)
(0 -1.59478e-19 0)
(1.65436e-18 -5.15829e-19 0)
(0 1.58159e-19 0)
(-1.65436e-18 3.03645e-19 0)
(0 3.64981e-19 0)
(0 9.04646e-19 0)
(0 5.73101e-19 0)
(0 8.45808e-19 0)
(0 9.18747e-19 0)
(-1.65436e-18 1.64191e-18 0)
(0 4.74141e-19 0)
(-0.02 -2.32777e-18 0)
(-4.96308e-18 5.67174e-18 0)
(3.30872e-18 -3.60144e-18 0)
(1.65436e-18 -1.6403e-18 0)
(0 -8.55194e-19 0)
(-1.65436e-18 7.70114e-19 0)
(0 -1.21839e-19 0)
(1.65436e-18 -1.16935e-18 0)
(0 -2.64378e-19 0)
(-3.30872e-18 1.5618e-18 0)
(0 2.30457e-18 0)
(0 7.55736e-19 0)
(0 1.48883e-19 0)
(0 -1.35706e-18 0)
(0 1.8335e-19 0)
(-1.65436e-18 1.44791e-18 0)
(0 -4.55765e-19 0)
(1.65436e-18 -9.08341e-19 0)
(0 -1.75422e-18 0)
(0 -3.32788e-19 0)
(-0.02 -1.26367e-16 0)
(-1.68745e-16 1.67651e-16 0)
(4.63221e-17 -4.55224e-17 0)
(-9.92617e-18 1.05407e-17 0)
(0 -1.24364e-18 0)
(0 -1.66891e-18 0)
(1.65436e-18 4.00814e-19 0)
(-1.65436e-18 1.70199e-18 0)
(0 2.44004e-19 0)
(0 -5.09695e-19 0)
(1.65436e-18 -1.44514e-18 0)
(1.65436e-18 -1.04857e-18 0)
(3.30872e-18 -1.41147e-18 0)
(0 -1.32822e-19 0)
(0 1.37642e-19 0)
(0 -2.76891e-19 0)
(0 1.37737e-19 0)
(1.65436e-18 -3.83192e-19 0)
(-1.65436e-18 5.80188e-19 0)
(0 1.30168e-19 0)
(-0.02 7.08715e-17 0)
(1.05879e-16 -1.06034e-16 0)
(-2.97785e-17 2.97031e-17 0)
(3.30872e-18 -5.25808e-18 0)
(-1.65436e-18 2.03712e-18 0)
(-1.65436e-18 2.01621e-18 0)
(0 7.39044e-19 0)
(1.65436e-18 -4.92509e-19 0)
(0 1.72801e-19 0)
(0 6.88461e-20 0)
(0 2.53448e-19 0)
(-1.65436e-18 4.88609e-19 0)
(0 1.32744e-18 0)
(-3.30872e-18 1.77046e-18 0)
(0 8.28081e-19 0)
(0 8.92977e-20 0)
(0 3.85703e-19 0)
(-1.65436e-18 1.0091e-18 0)
(0 4.23467e-19 0)
(0 1.57053e-19 0)
)
;

boundaryField
{
    movingWall
    {
        type            extrapolatedCalculated;
        value           nonuniform List<vector> 
20
(
(-0.02 7.08715e-17 0)
(1.05879e-16 -1.06034e-16 0)
(-2.97785e-17 2.97031e-17 0)
(3.30872e-18 -5.25808e-18 0)
(-1.65436e-18 2.03712e-18 0)
(-1.65436e-18 2.01621e-18 0)
(0 7.39044e-19 0)
(1.65436e-18 -4.92509e-19 0)
(0 1.72801e-19 0)
(0 6.88461e-20 0)
(0 2.53448e-19 0)
(-1.65436e-18 4.88609e-19 0)
(0 1.32744e-18 0)
(-3.30872e-18 1.77046e-18 0)
(0 8.28081e-19 0)
(0 8.92977e-20 0)
(0 3.85703e-19 0)
(-1.65436e-18 1.0091e-18 0)
(0 4.23467e-19 0)
(0 1.57053e-19 0)
)
;
    }
    fixedWalls
    {
        type            extrapolatedCalculated;
        value           nonuniform List<vector> 
60
(
(-0.02 9.991e-17 0)
(-0.02 -1.88355e-16 0)
(-0.02 5.4505e-17 0)
(-0.02 9.9887e-17 0)
(-0.02 -1.28474e-16 0)
(-0.02 6.73047e-17 0)
(-0.02 5.42849e-17 0)
(-0.02 -1.24757e-16 0)
(-0.02 7.18909e-17 0)
(-0.02 -5.242e-18 0)
(-0.02 2.2697e-17 0)
(-0.02 -2.95223e-17 0)
(-0.02 3.75322e-18 0)
(-0.02 1.21195e-17 0)
(-0.02 3.81104e-17 0)
(-0.02 -1.08427e-16 0)
(-0.02 1.18138e-16 0)
(-0.02 -2.32777e-18 0)
(-0.02 -1.26367e-16 0)
(-0.02 7.08715e-17 0)
(0 6.70665e-19 0)
(1.65436e-18 -1.49588e-18 0)
(0 -4.68057e-19 0)
(-1.65436e-18 1.24709e-18 0)
(0 -4.88862e-19 0)
(0 2.00407e-19 0)
(-1.65436e-18 1.4692e-18 0)
(1.65436e-18 -1.0622e-18 0)
(0 -4.23192e-19 0)
(0 -7.57451e-19 0)
(-1.65436e-18 9.91712e-19 0)
(0 7.90792e-19 0)
(0 -9.33653e-19 0)
(0 -1.97851e-19 0)
(0 -5.11524e-20 0)
(0 7.98519e-20 0)
(0 4.74141e-19 0)
(0 -3.32788e-19 0)
(0 1.30168e-19 0)
(0 1.57053e-19 0)
(-0.02 9.991e-17 0)
(1.42275e-16 -1.41061e-16 0)
(-3.97047e-17 4.06733e-17 0)
(6.61744e-18 -7.52573e-18 0)
(0 2.44446e-19 0)
(0 -7.50717e-19 0)
(1.65436e-18 -7.74716e-20 0)
(0 -5.17111e-19 0)
(-1.65436e-18 5.80196e-19 0)
(-1.65436e-18 1.57643e-18 0)
(-1.65436e-18 1.24383e-18 0)
(-1.65436e-18 1.63278e-18 0)
(0 1.06149e-18 0)
(-1.65436e-18 1.44947e-18 0)
(-1.65436e-18 1.23969e-18 0)
(1.65436e-18 -4.90109e-19 0)
(1.65436e-18 -1.25105e-18 0)
(0 -1.19161e-18 0)
(0 4.52882e-19 0)
(0 6.70665e-19 0)
)
;
    }
    frontAndBack
    {
        type            empty;
    }
}


// ************************************************************************* //
