/*--------------------------------*- C++ -*----------------------------------*\
| =========                 |                                                 |
| \\      /  F ield         | OpenFOAM: The Open Source CFD Toolbox           |
|  \\    /   O peration     | Version:  2312                                  |
|   \\  /    A nd           | Website:  www.openfoam.com                      |
|    \\/     M anipulation  |                                                 |
\*---------------------------------------------------------------------------*/
FoamFile
{
    version     2.0;
    format      ascii;
    arch        "LSB;label=32;scalar=64";
    class       volVectorField;
    location    "6.25";
    object      LambVectorField;
}
// * * * * * * * * * * * * * * * * * * * * * * * * * * * * * * * * * * * * * //

dimensions      [0 1 -2 0 0 0 0];

internalField   nonuniform List<vector> 
400
(
(-1.37767e-24 -9.63881e-12 -9.63881e-12)
(-4.07684e-25 1.31125e-11 -0)
(-2.16147e-26 -2.89439e-12 -2.89439e-12)
(-1.18713e-27 7.39519e-13 -0)
(-4.31723e-29 -1.25627e-13 -1.25627e-13)
(1.41185e-30 -1.8111e-14 -0)
(-3.68718e-31 2.12677e-14 2.12677e-14)
(1.25868e-30 -6.42752e-14 -0)
(-1.38212e-30 -1.65894e-14 -1.65894e-14)
(-1.07797e-30 -7.36764e-15 0)
(-8.98523e-31 -5.72343e-15 -5.72343e-15)
(-1.12895e-29 -5.54642e-14 0)
(1.39755e-30 8.24365e-15 8.24365e-15)
(4.98444e-30 4.11567e-14 0)
(6.64298e-31 2.28954e-14 2.28954e-14)
(-1.59473e-30 1.47872e-14 -0)
(1.03348e-30 -8.69507e-15 -8.69507e-15)
(3.9605e-31 -1.89551e-14 -0)
(-3.23376e-31 -4.57434e-15 -4.57434e-15)
(2.37418e-31 9.55428e-15 0)
(-8.82609e-27 -6.32002e-13 -6.32002e-13)
(-3.46836e-27 1.25377e-12 -0)
(-1.59276e-28 -2.59218e-13 -2.59218e-13)
(-1.21895e-29 6.9987e-14 -0)
(5.85707e-31 -6.85675e-15 -6.85675e-15)
(-1.48039e-31 1.40187e-15 -0)
(1.10874e-29 -1.11499e-13 -1.11499e-13)
(2.82802e-30 -3.78001e-14 -0)
(-1.16648e-30 -1.55301e-13 -1.55301e-13)
(-1.1444e-29 -9.30859e-14 0)
(-9.98801e-30 -7.97647e-14 -7.97647e-14)
(-2.08295e-30 -1.9388e-14 0)
(-3.9034e-30 -8.124e-14 -8.124e-14)
(-9.42088e-30 -8.83065e-14 0)
(-4.81238e-30 -4.07962e-14 -4.07962e-14)
(1.05e-30 -3.82436e-14 -0)
(-3.39097e-32 8.13106e-16 8.13106e-16)
(1.96562e-30 -5.52346e-14 -0)
(5.6985e-32 -1.81143e-15 -1.81143e-15)
(8.54938e-32 -4.89309e-15 -0)
(-7.3725e-25 5.30916e-12 5.30916e-12)
(-3.57526e-25 -1.17307e-11 0)
(-1.93479e-26 2.69057e-12 2.69057e-12)
(-1.0915e-27 -6.51768e-13 0)
(-2.24051e-29 1.70767e-13 1.70767e-13)
(1.9568e-29 8.22028e-14 0)
(1.26236e-29 9.63838e-14 9.63838e-14)
(1.29221e-29 1.4792e-13 0)
(9.85232e-31 1.40184e-13 1.40184e-13)
(7.7979e-31 1.9124e-14 0)
(7.63226e-30 8.78903e-14 8.78903e-14)
(-2.53145e-30 1.01358e-13 -0)
(-9.51321e-30 8.37536e-14 8.37536e-14)
(4.5328e-31 -9.1832e-15 -0)
(-1.11136e-30 5.10883e-14 5.10883e-14)
(-1.00154e-30 5.52069e-14 -0)
(-1.06619e-31 3.36104e-15 3.36104e-15)
(-3.40574e-30 6.5809e-14 -0)
(-5.99707e-31 4.06e-15 4.06e-15)
(2.21703e-30 -2.40063e-14 -0)
(-5.00508e-25 -4.61355e-12 -4.61355e-12)
(-2.20555e-25 9.13921e-12 -0)
(-1.26235e-26 -2.21064e-12 -2.21064e-12)
(-4.99727e-28 4.11847e-13 -0)
(-6.70484e-29 -1.32065e-13 -1.32065e-13)
(7.32094e-31 6.82463e-15 0)
(8.79675e-30 5.2239e-14 5.2239e-14)
(7.07815e-31 5.57409e-15 0)
(9.3476e-30 8.29767e-14 8.29767e-14)
(1.17037e-29 1.06042e-13 0)
(7.39735e-30 5.42181e-14 5.42181e-14)
(7.16492e-30 6.49652e-14 0)
(2.00826e-30 6.95242e-14 6.95242e-14)
(-4.11483e-30 9.60232e-14 -0)
(-7.0257e-30 5.9442e-14 5.9442e-14)
(-5.28653e-30 5.55476e-14 -0)
(-6.69678e-30 5.08995e-14 5.08995e-14)
(-2.93798e-30 4.73374e-14 -0)
(5.61169e-32 -8.92984e-16 -8.92984e-16)
(-8.23982e-31 1.55074e-14 -0)
(-1.95834e-26 2.03596e-12 2.03596e-12)
(-1.47854e-27 -1.01512e-12 0)
(-1.75504e-28 3.1806e-13 3.1806e-13)
(-4.66796e-30 4.77408e-14 -0)
(-1.3282e-29 6.14752e-14 6.14752e-14)
(-3.03113e-30 1.77854e-14 -0)
(-9.15868e-31 7.45472e-15 7.45472e-15)
(-6.98192e-31 -2.67759e-14 0)
(-5.12863e-30 -3.5394e-14 -3.5394e-14)
(8.23461e-31 7.55713e-15 0)
(2.27163e-31 3.27656e-15 3.27656e-15)
(-2.12127e-30 -2.78385e-14 0)
(7.14245e-31 9.31658e-15 9.31658e-15)
(-2.56927e-31 1.51432e-14 -0)
(1.83649e-30 -2.45624e-14 -2.45624e-14)
(5.07567e-31 -1.19728e-14 -0)
(-2.99702e-30 -6.66598e-14 -6.66598e-14)
(5.47032e-31 6.6627e-15 0)
(-2.56615e-31 1.18435e-14 1.18435e-14)
(1.19549e-30 -3.29049e-14 -0)
(-3.74071e-25 4.03635e-12 4.03635e-12)
(-1.60744e-25 -8.01429e-12 0)
(-8.47646e-27 1.81419e-12 1.81419e-12)
(-4.70734e-28 -4.27114e-13 0)
(-8.88916e-30 6.83187e-14 6.83187e-14)
(-2.00209e-30 -1.35379e-14 0)
(-5.08619e-32 -9.65952e-15 -9.65952e-15)
(6.58779e-31 -2.4797e-14 -0)
(9.97103e-32 -5.59704e-15 -5.59704e-15)
(-1.94422e-30 -6.6122e-14 0)
(-6.0348e-30 -5.9571e-14 -5.9571e-14)
(-2.47885e-30 -2.98611e-14 0)
(-2.36405e-30 -1.83452e-14 -1.83452e-14)
(4.99697e-33 -1.0896e-15 -0)
(-1.01651e-30 7.74249e-15 7.74249e-15)
(6.11582e-30 -7.45732e-14 -0)
(-5.45514e-30 -7.54089e-14 -7.54089e-14)
(-6.6811e-30 -5.14023e-14 0)
(3.20615e-30 7.24339e-14 7.24339e-14)
(-1.37474e-30 2.63053e-14 -0)
(-6.54153e-25 -5.83216e-12 -5.83216e-12)
(-2.41239e-25 9.81929e-12 -0)
(-1.28797e-26 -2.31336e-12 -2.31336e-12)
(-6.36376e-28 4.43689e-13 -0)
(-1.06248e-29 -2.2881e-13 -2.2881e-13)
(2.34442e-29 -1.01763e-13 -0)
(2.70367e-30 -1.34275e-13 -1.34275e-13)
(-2.53941e-30 -9.01608e-14 0)
(-4.7173e-30 -6.90464e-14 -6.90464e-14)
(-1.5655e-29 -8.86829e-14 0)
(-6.31263e-30 -4.44558e-14 -4.44558e-14)
(-3.91138e-30 -4.95203e-14 0)
(-7.21853e-30 -7.59052e-14 -7.59052e-14)
(-1.16224e-30 -4.67031e-14 0)
(-6.32324e-31 -3.15708e-14 -3.15708e-14)
(-3.60118e-30 -5.17835e-14 0)
(-2.78457e-31 6.57126e-14 6.57126e-14)
(2.97791e-30 -6.54743e-14 -0)
(-6.7658e-30 -6.24127e-14 -6.24127e-14)
(5.29687e-31 1.44948e-14 0)
(-2.38403e-26 1.11929e-12 1.11929e-12)
(-8.80534e-27 -1.87919e-12 0)
(-4.23875e-28 3.67806e-13 3.67806e-13)
(-2.16194e-29 -1.11153e-13 0)
(-2.25649e-31 7.23322e-16 7.23322e-16)
(5.52331e-30 -6.59244e-14 -0)
(-1.23936e-29 -1.62579e-13 -1.62579e-13)
(-8.30137e-30 -4.44513e-14 0)
(-2.00567e-29 -8.03253e-14 -8.03253e-14)
(9.2591e-30 5.23547e-14 0)
(-2.1983e-31 7.84448e-14 7.84448e-14)
(-6.78089e-31 1.03535e-14 -0)
(-5.32128e-30 5.00413e-14 5.00413e-14)
(-8.76618e-31 3.68241e-14 -0)
(-4.70083e-30 -6.96187e-14 -6.96187e-14)
(1.48129e-30 1.137e-14 0)
(-1.23167e-30 2.66724e-14 2.66724e-14)
(1.04224e-30 -7.63865e-15 -0)
(-6.02234e-31 -1.99356e-14 -1.99356e-14)
(-1.1194e-30 -1.77929e-14 0)
(-2.38133e-25 3.38518e-12 3.38518e-12)
(-9.58445e-26 -6.13478e-12 0)
(-5.17737e-27 1.44741e-12 1.44741e-12)
(-2.30737e-28 -2.6279e-13 0)
(-1.48367e-29 1.09137e-13 1.09137e-13)
(1.96067e-30 3.39767e-14 0)
(-2.7099e-29 1.32408e-13 1.32408e-13)
(-2.41627e-30 1.32634e-14 -0)
(9.54424e-31 -1.44072e-14 -1.44072e-14)
(2.30967e-31 -6.06168e-15 -0)
(-8.96747e-32 1.593e-14 1.593e-14)
(5.79733e-30 7.87174e-14 0)
(1.15715e-30 5.68671e-14 5.68671e-14)
(2.4152e-30 5.13021e-14 0)
(5.6216e-30 1.13733e-13 1.13733e-13)
(-5.46903e-31 9.04415e-14 -0)
(-1.33383e-30 3.18827e-14 3.18827e-14)
(-2.93317e-30 5.4496e-14 -0)
(1.87587e-31 -4.19706e-15 -4.19706e-15)
(6.70257e-32 -5.65479e-15 -0)
(-5.82031e-25 -6.67381e-12 -6.67381e-12)
(-1.56245e-25 8.1727e-12 -0)
(-8.17179e-27 -1.85718e-12 -1.85718e-12)
(-5.17921e-28 4.75934e-13 -0)
(-6.84702e-30 -3.7444e-14 -3.7444e-14)
(-1.52014e-29 8.85442e-14 -0)
(-1.02395e-29 6.38051e-14 6.38051e-14)
(-3.91296e-32 -1.14431e-14 0)
(-4.34856e-30 9.44335e-14 9.44335e-14)
(-7.88583e-30 6.17218e-14 -0)
(4.5241e-30 -3.7338e-14 -3.7338e-14)
(3.95538e-31 -1.55514e-14 -0)
(-1.53749e-31 -4.47619e-15 -4.47619e-15)
(-1.19154e-32 -6.16495e-16 0)
(-1.06227e-30 -2.62203e-14 -2.62203e-14)
(-3.35635e-31 -3.20259e-14 0)
(-3.1528e-30 -3.51398e-14 -3.51398e-14)
(1.19639e-30 1.31722e-14 0)
(-6.92626e-31 1.64912e-14 1.64912e-14)
(8.59998e-31 -1.16084e-14 -0)
(-5.733e-25 7.73305e-12 7.73305e-12)
(-1.18927e-25 -7.40956e-12 0)
(-5.99786e-27 1.68273e-12 1.68273e-12)
(-4.17965e-28 -4.92008e-13 0)
(9.1376e-33 2.02393e-14 2.02393e-14)
(-6.23478e-30 -5.93702e-14 0)
(-2.31122e-30 -4.44014e-14 -4.44014e-14)
(5.18604e-31 7.48492e-14 0)
(-1.26368e-29 8.18772e-14 8.18772e-14)
(-1.949e-29 7.22542e-14 -0)
(-1.54695e-30 4.6208e-15 4.6208e-15)
(1.4278e-29 -4.51905e-14 -0)
(2.19815e-29 -1.42808e-13 -1.42808e-13)
(-2.48203e-30 -8.88835e-14 0)
(-9.18539e-30 -4.76395e-14 -4.76395e-14)
(-1.81146e-29 -7.76554e-14 0)
(3.64998e-30 2.33655e-14 2.33655e-14)
(-1.96115e-32 5.08538e-14 -0)
(-2.61536e-30 3.21791e-14 3.21791e-14)
(6.76917e-31 -1.32401e-14 -0)
(-3.18312e-25 -5.13525e-12 -5.13525e-12)
(-7.4774e-26 5.71981e-12 -0)
(-4.25858e-27 -1.34706e-12 -1.34706e-12)
(-1.64379e-28 2.39475e-13 -0)
(-2.08677e-29 -9.29363e-14 -9.29363e-14)
(-9.8454e-31 3.50332e-14 -0)
(-4.15921e-30 3.30634e-14 3.30634e-14)
(1.71574e-29 -4.78274e-14 -0)
(3.37749e-29 -1.78117e-13 -1.78117e-13)
(-8.94389e-30 -1.33136e-13 0)
(-2.12141e-30 -3.68688e-14 -3.68688e-14)
(4.07099e-30 -3.83208e-14 -0)
(4.85567e-30 -4.79082e-14 -4.79082e-14)
(-1.19446e-29 -1.17338e-13 0)
(-1.71799e-29 -6.63648e-14 -6.63648e-14)
(1.10427e-29 4.94425e-14 0)
(1.76589e-30 4.97483e-14 4.97483e-14)
(8.38876e-32 -2.71579e-14 -0)
(-8.35204e-32 -2.31843e-15 -2.31843e-15)
(1.12775e-31 5.61199e-15 0)
(2.37697e-27 -2.07351e-13 -2.07351e-13)
(-1.51315e-27 -6.24248e-13 0)
(-1.57293e-28 2.56516e-13 2.56516e-13)
(1.86452e-29 1.43585e-13 0)
(-1.9327e-29 1.27417e-13 1.27417e-13)
(-2.58451e-30 4.29932e-14 -0)
(-3.51716e-30 8.9011e-14 8.9011e-14)
(-1.24136e-29 9.0562e-14 -0)
(-3.02451e-30 2.2916e-14 2.2916e-14)
(-4.40693e-30 4.62999e-14 -0)
(-2.82843e-30 5.34872e-14 5.34872e-14)
(-7.7472e-30 8.80833e-14 -0)
(-1.30043e-29 1.07864e-13 1.07864e-13)
(-1.74974e-30 2.12366e-14 -0)
(7.76168e-33 -1.25436e-16 -1.25436e-16)
(-6.687e-30 8.24147e-14 -0)
(8.10902e-31 -1.11277e-14 -1.11277e-14)
(-2.05956e-30 -6.83359e-14 0)
(-1.74996e-30 -2.55896e-14 -2.55896e-14)
(1.24926e-31 8.33699e-15 0)
(-3.86051e-25 5.5504e-12 5.5504e-12)
(-9.79745e-26 -6.47384e-12 0)
(-5.34237e-27 1.54398e-12 1.54398e-12)
(-2.27028e-28 -2.91705e-13 0)
(-2.89671e-29 1.06487e-13 1.06487e-13)
(4.65221e-31 -2.99273e-14 -0)
(-1.86717e-31 -6.85219e-15 -6.85219e-15)
(5.01587e-31 9.46804e-15 0)
(-5.71478e-30 8.47498e-14 8.47498e-14)
(-1.81914e-29 7.20678e-14 -0)
(4.17107e-30 -1.6955e-14 -1.6955e-14)
(4.06241e-30 -4.90213e-14 -0)
(8.01661e-32 -2.98618e-15 -2.98618e-15)
(-3.01659e-30 5.69077e-14 -0)
(1.69082e-31 -3.14155e-15 -3.14155e-15)
(8.32662e-31 -3.85617e-14 -0)
(-5.30026e-30 -8.72541e-14 -8.72541e-14)
(2.50734e-30 6.63387e-14 0)
(-4.16888e-31 6.88608e-15 6.88608e-15)
(2.84569e-31 -9.16053e-15 -0)
(-1.02925e-24 -8.37674e-12 -8.37674e-12)
(-2.91902e-25 1.10721e-11 -0)
(-1.67149e-26 -2.70214e-12 -2.70214e-12)
(-5.51864e-28 4.45201e-13 -0)
(-9.75592e-29 -2.57737e-13 -2.57737e-13)
(8.38516e-31 -4.80166e-14 -0)
(-3.79558e-30 -8.33521e-14 -8.33521e-14)
(-2.86343e-31 -9.85209e-14 0)
(2.49497e-30 -4.66729e-14 -4.66729e-14)
(7.87127e-30 -1.08621e-13 -0)
(4.67679e-30 -9.08967e-14 -9.08967e-14)
(-2.12468e-30 -9.09957e-14 0)
(-3.78205e-30 -8.33909e-14 -8.33909e-14)
(-3.69841e-30 -8.38519e-14 0)
(-1.99847e-30 -2.82587e-14 -2.82587e-14)
(3.81041e-31 6.84797e-15 0)
(1.33073e-31 5.93849e-14 5.93849e-14)
(2.95239e-32 7.58034e-15 0)
(-4.02199e-31 5.46744e-15 5.46744e-15)
(6.31405e-31 -1.24342e-14 -0)
(-4.15837e-25 5.29301e-12 5.29301e-12)
(-1.17574e-25 -7.0451e-12 0)
(-6.71013e-27 1.65818e-12 1.65818e-12)
(-3.10153e-28 -3.37101e-13 0)
(-2.30798e-29 1.72787e-13 1.72787e-13)
(4.12719e-31 7.73044e-14 0)
(-1.08006e-29 1.15557e-13 1.15557e-13)
(-5.34916e-30 8.10149e-14 -0)
(-7.603e-30 8.4046e-14 8.4046e-14)
(-7.45044e-30 7.98248e-14 -0)
(-5.85512e-30 7.74906e-14 7.74906e-14)
(-4.40413e-30 7.99459e-14 -0)
(-3.53304e-30 5.71076e-14 5.71076e-14)
(-7.3471e-30 8.73987e-14 -0)
(-1.07436e-29 8.75591e-14 8.75591e-14)
(-8.55837e-30 5.84177e-14 -0)
(-4.29016e-30 2.60362e-14 2.60362e-14)
(1.04721e-30 -7.7106e-15 -0)
(-1.49656e-30 1.70702e-14 1.70702e-14)
(4.36715e-31 -1.23137e-14 -0)
(1.55309e-27 -6.38322e-14 -6.38322e-14)
(-9.77222e-27 -1.88563e-12 0)
(-5.62879e-28 4.94714e-13 4.94714e-13)
(-1.16401e-29 -4.94612e-14 0)
(-1.122e-29 1.11009e-13 1.11009e-13)
(-3.17619e-30 5.15638e-14 -0)
(3.77418e-31 -5.05856e-15 -5.05856e-15)
(-5.78562e-31 5.25411e-14 -0)
(-3.88835e-30 6.7133e-14 6.7133e-14)
(-4.68212e-30 3.33863e-14 -0)
(-2.17097e-30 1.79816e-14 1.79816e-14)
(3.78994e-31 -7.73352e-15 -0)
(-1.3737e-30 3.16538e-14 3.16538e-14)
(-4.04967e-30 4.28563e-14 -0)
(-6.2944e-30 3.13295e-14 3.13295e-14)
(6.66131e-30 -4.87158e-14 -0)
(-6.75718e-31 -4.44627e-14 -4.44627e-14)
(5.48299e-32 1.4884e-15 0)
(-6.31649e-33 -2.01527e-14 -2.01527e-14)
(-7.80122e-31 2.38679e-14 -0)
(-2.70739e-25 -2.81148e-12 -2.81148e-12)
(-1.63842e-25 7.89631e-12 -0)
(-8.7267e-27 -1.79326e-12 -1.79326e-12)
(-4.3174e-28 3.62726e-13 -0)
(-3.80448e-29 -2.45566e-13 -2.45566e-13)
(7.46803e-30 -8.31121e-14 -0)
(1.10793e-29 -1.12876e-13 -1.12876e-13)
(2.72738e-30 -6.02116e-14 -0)
(5.12229e-30 -1.34303e-13 -1.34303e-13)
(6.45663e-30 -1.12258e-13 -0)
(-2.82382e-32 -1.18715e-13 -1.18715e-13)
(-4.00924e-30 -8.82548e-14 0)
(-1.2935e-30 -1.85756e-14 -1.85756e-14)
(4.88855e-31 -1.22624e-14 -0)
(8.59711e-32 -1.09111e-15 -1.09111e-15)
(9.66861e-31 -3.33919e-14 -0)
(3.05406e-32 -1.91789e-15 -1.91789e-15)
(1.07931e-32 -1.10403e-15 -0)
(-1.35509e-31 2.77466e-14 2.77466e-14)
(3.41225e-32 -2.10749e-15 -0)
(-3.44505e-26 1.16933e-12 1.16933e-12)
(-1.40736e-26 -2.3022e-12 0)
(-1.00859e-27 6.4625e-13 6.4625e-13)
(-5.07325e-30 -2.6325e-14 0)
(-1.83895e-29 8.62428e-14 8.62428e-14)
(-9.11916e-30 7.14606e-14 -0)
(-5.14846e-30 4.48928e-14 4.48928e-14)
(-4.92022e-31 1.42872e-14 -0)
(5.7408e-31 4.25407e-14 4.25407e-14)
(4.05118e-30 4.92508e-14 0)
(5.72567e-30 9.07563e-14 9.07563e-14)
(-1.51094e-30 1.24308e-13 -0)
(-9.44886e-30 9.86439e-14 9.86439e-14)
(-9.91794e-30 5.34826e-14 -0)
(-9.0978e-31 1.02785e-14 1.02785e-14)
(-9.52847e-31 5.54731e-14 -0)
(-3.95572e-30 3.91104e-14 3.91104e-14)
(1.90592e-31 -1.38885e-15 -0)
(3.50025e-30 -4.01156e-14 -4.01156e-14)
(6.72351e-32 -9.43779e-15 -0)
(-4.75452e-25 5.44238e-12 5.44238e-12)
(-1.52149e-25 -8.07472e-12 0)
(-7.22971e-27 1.62632e-12 1.62632e-12)
(-4.45092e-28 -4.67012e-13 0)
(-3.36651e-29 1.06061e-13 1.06061e-13)
(5.65313e-30 -5.25636e-14 -0)
(4.84792e-31 -7.71642e-15 -7.71642e-15)
(8.13975e-31 -2.67895e-14 -0)
(-2.50199e-32 3.79194e-16 3.79194e-16)
(1.60111e-31 -4.68487e-15 -0)
(-1.39883e-32 7.31101e-16 7.31101e-16)
(6.61529e-31 -1.59454e-14 -0)
(9.32219e-30 -7.1309e-14 -7.1309e-14)
(8.61047e-30 -6.08306e-14 -0)
(4.33089e-30 -6.712e-14 -6.712e-14)
(7.42887e-31 -5.96712e-14 -0)
(2.49372e-31 -2.51546e-14 -2.51546e-14)
(-6.27736e-32 1.96449e-15 -0)
(6.6323e-32 -2.24379e-15 -2.24379e-15)
(2.95122e-31 -3.10125e-14 -0)
)
;

boundaryField
{
    movingWall
    {
        type            calculated;
        value           nonuniform List<vector> 
20
(
(0 1.09375e-11 -0)
(0 -9.84587e-12 -0)
(0 1.5225e-12 -0)
(0 -8.12483e-13 -0)
(0 -2.4921e-13 -0)
(0 -2.91912e-13 -0)
(0 -1.85352e-13 -0)
(0 -2.66138e-13 -0)
(0 -2.66074e-13 -0)
(0 -2.71138e-13 -0)
(0 -2.65722e-13 -0)
(0 -2.55294e-13 -0)
(0 -3.00856e-13 -0)
(0 -1.84256e-13 -0)
(0 -1.01728e-13 -0)
(0 -1.38688e-13 -0)
(0 -8.68674e-14 -0)
(0 1.96449e-15 -0)
(0 -2.24379e-15 -0)
(0 -4.83164e-14 -0)
)
;
    }
    fixedWalls
    {
        type            calculated;
        value           nonuniform List<vector> 
60
(
(0 -5.56267e-11 -0)
(0 -5.09822e-12 -0)
(0 5.0016e-11 -0)
(0 -3.95728e-11 -0)
(0 5.06725e-12 -0)
(0 3.38448e-11 -0)
(0 -4.19378e-11 -0)
(0 7.97773e-12 -0)
(0 2.60512e-11 -0)
(0 -3.4749e-11 -0)
(0 3.1579e-11 -0)
(0 -2.50383e-11 -0)
(0 3.4741e-12 -0)
(0 2.79299e-11 -0)
(0 -4.78742e-11 -0)
(0 3.05309e-11 -0)
(0 7.75367e-12 -0)
(0 -3.37757e-11 -0)
(0 1.06191e-11 -0)
(0 3.3535e-11 -0)
(0 9.93974e-15 -0)
(0 -6.98894e-15 -0)
(0 -3.69407e-14 -0)
(0 5.8511e-15 -0)
(0 -4.16377e-14 -0)
(0 6.20063e-15 -0)
(0 1.46173e-14 -0)
(0 -1.94006e-15 -0)
(0 -4.74116e-15 -0)
(0 -2.96337e-14 -0)
(0 -2.04505e-14 -0)
(0 8.03818e-15 -0)
(0 5.99384e-15 -0)
(0 -1.24259e-14 -0)
(0 -2.03118e-14 -0)
(0 -1.41863e-14 -0)
(0 1.40311e-14 -0)
(0 -6.47643e-15 -0)
(0 -2.84961e-15 -0)
(0 -3.09115e-14 -0)
(0 -1.88221e-11 -0)
(0 1.5811e-11 -0)
(0 -3.03742e-12 -0)
(0 9.78867e-13 -0)
(0 2.49036e-14 -0)
(0 2.13735e-13 -0)
(0 3.49434e-13 -0)
(0 2.1198e-13 -0)
(0 2.94273e-13 -0)
(0 1.70268e-13 -0)
(0 1.71912e-13 -0)
(0 8.75638e-14 -0)
(0 5.26526e-14 -0)
(0 5.84606e-14 -0)
(0 -6.59225e-14 -0)
(0 1.47872e-14 -0)
(0 -9.75129e-14 -0)
(0 2.54538e-14 -0)
(0 3.98346e-14 -0)
(0 5.39632e-14 -0)
)
;
    }
    frontAndBack
    {
        type            empty;
    }
}


// ************************************************************************* //
