/*--------------------------------*- C++ -*----------------------------------*\
| =========                 |                                                 |
| \\      /  F ield         | OpenFOAM: The Open Source CFD Toolbox           |
|  \\    /   O peration     | Version:  2312                                  |
|   \\  /    A nd           | Website:  www.openfoam.com                      |
|    \\/     M anipulation  |                                                 |
\*---------------------------------------------------------------------------*/
FoamFile
{
    version     2.0;
    format      ascii;
    arch        "LSB;label=32;scalar=64";
    class       volScalarField;
    location    "6.25";
    object      Lambda2Field;
}
// * * * * * * * * * * * * * * * * * * * * * * * * * * * * * * * * * * * * * //

dimensions      [0 0 -2 0 0 0 0];

internalField   nonuniform List<scalar> 
400
(
1.90428e-23
9.37254e-24
3.97882e-25
0
4.87449e-27
2.29387e-27
1.58221e-28
-4.56519e-28
0
7.24962e-28
7.34684e-28
0
4.90394e-28
1.38024e-28
3.47069e-28
1.83062e-28
0
3.19007e-29
0
5.44203e-31
6.90067e-24
1.1588e-23
8.00071e-25
6.61216e-27
2.26665e-27
9.98568e-28
2.60496e-27
0
2.5865e-28
0
1.2608e-28
2.09172e-28
7.40794e-28
0
7.27171e-28
9.46015e-28
7.60921e-29
0
4.77826e-28
0
6.07805e-23
2.09023e-23
7.34576e-25
4.12099e-26
0
3.29565e-27
0
0
1.03364e-28
2.16327e-28
0
-8.9507e-28
5.36403e-28
0
1.69234e-28
0
8.3581e-29
-6.21769e-28
0
0
3.48832e-23
1.55088e-23
4.24408e-25
6.30196e-26
2.93874e-27
9.19666e-28
1.43338e-27
0
0
2.57862e-28
0
-4.80673e-28
0
-1.18549e-27
4.51064e-28
0
8.8596e-28
5.51741e-28
1.59071e-28
3.45739e-28
2.10846e-24
5.33542e-24
3.3031e-25
5.66884e-27
2.5449e-27
2.5261e-28
5.32623e-28
2.35776e-28
0
0
1.5027e-29
0
1.21658e-28
1.46432e-29
2.21462e-28
0
0
3.68799e-28
1.49782e-28
-1.57198e-28
2.37471e-23
7.76677e-24
2.27602e-25
1.23116e-26
3.32115e-27
3.59429e-29
6.01707e-28
6.25593e-29
0
0
4.44068e-28
-7.46251e-29
2.37437e-28
7.0515e-28
0
-9.78587e-28
0
3.14991e-28
0
2.16784e-29
2.61013e-23
9.61797e-24
3.59995e-26
6.27985e-26
0
1.25847e-27
0
-2.64232e-28
0
0
5.2878e-28
2.54237e-28
4.39913e-28
4.06958e-28
0
1.31548e-28
5.96451e-28
9.91646e-29
2.90023e-28
1.32649e-28
3.37212e-24
4.51658e-24
2.74558e-25
4.33403e-27
7.5429e-28
-2.22262e-28
0
-2.77394e-29
8.04923e-29
0
0
0
9.07901e-28
9.42499e-28
0
0
1.91991e-28
0
3.33751e-28
2.52406e-28
1.25386e-23
5.17414e-24
1.83965e-25
3.97359e-26
7.15254e-28
-1.08995e-28
3.37936e-28
7.11287e-28
9.2653e-28
9.27918e-28
3.02899e-28
2.11237e-28
0
1.76247e-28
1.58702e-28
-7.42867e-30
3.09314e-28
0
0
0
9.25775e-25
8.98575e-25
0
-2.2127e-26
5.50513e-27
-1.12657e-27
3.10063e-27
3.57603e-28
0
0
1.15456e-27
1.51786e-27
3.08717e-28
3.66854e-30
2.39812e-29
4.39342e-28
4.8315e-28
0
0
0
0
-1.25171e-24
0
-4.17002e-26
4.15569e-27
-7.3584e-29
1.03663e-27
1.92726e-28
3.82266e-28
-5.98145e-28
0
-4.24921e-28
0
-1.14497e-27
1.78096e-28
7.50703e-28
1.6589e-28
0
0
8.8698e-29
1.27827e-24
2.81348e-24
0
2.10997e-26
6.06377e-28
0
0
5.53373e-28
0
0
2.07457e-27
1.38119e-27
2.10588e-29
-2.80748e-27
0
0
5.29775e-28
0
2.25326e-28
0
3.14691e-24
2.05456e-24
0
3.02097e-26
0
6.08069e-28
0
9.43173e-28
3.94137e-28
1.45024e-27
1.67582e-27
-5.44894e-28
7.94969e-28
1.59065e-28
7.34684e-28
5.10533e-28
3.73315e-29
-7.49043e-28
2.98031e-28
0
2.59274e-25
1.25132e-24
0
2.03963e-26
7.87071e-28
1.81914e-29
8.40741e-29
1.95942e-28
0
-9.62908e-28
7.18885e-29
-4.70159e-28
2.77508e-28
0
0
0
0
0
0
0
1.37167e-23
6.98221e-24
0
7.89042e-26
0
2.70768e-27
0
1.07329e-27
4.08593e-28
2.31346e-28
0
-7.79453e-28
5.65896e-28
0
0
0
0
3.01406e-28
1.48336e-29
0
8.09193e-24
7.38561e-24
5.98562e-26
2.78252e-26
0
3.26138e-28
0
2.44188e-29
0
1.21186e-28
1.04568e-27
1.11344e-28
5.77608e-28
0
2.14676e-27
1.42013e-28
2.00121e-28
1.08527e-29
3.9942e-28
3.27416e-30
6.61295e-24
6.06708e-24
3.23996e-25
1.22322e-26
0
2.34076e-28
0
9.04751e-29
3.41312e-29
-1.57424e-28
2.4729e-28
0
3.00121e-28
0
0
-4.47585e-28
2.45324e-28
1.58857e-28
3.58513e-28
8.77433e-29
3.58385e-23
1.14086e-23
3.29842e-25
5.10999e-26
0
2.78749e-27
0
0
1.65604e-28
7.89581e-29
1.82261e-27
-5.50717e-28
2.3119e-28
4.85026e-28
0
0
0
3.02997e-28
2.5176e-28
6.53362e-30
6.01931e-24
6.92209e-24
3.23493e-25
5.06086e-26
0
8.04454e-28
5.05092e-28
3.49652e-28
6.326e-28
2.68847e-28
1.29522e-27
-9.87853e-28
1.42502e-27
3.94359e-29
4.56085e-28
-6.57405e-29
0
4.91863e-30
0
4.45538e-31
1.00461e-23
2.9154e-24
3.64406e-25
-9.24995e-27
7.34684e-28
0
0
5.0573e-29
0
0
0
3.02482e-28
1.54833e-27
7.10331e-28
0
-2.8727e-28
3.3439e-28
2.86232e-28
1.3771e-28
0
)
;

boundaryField
{
    movingWall
    {
        type            calculated;
        value           nonuniform List<scalar> 
20
(
0
0
5.50141e-25
-1.96562e-26
3.84152e-26
-3.84479e-27
0
2.318e-28
1.01038e-28
-1.06142e-27
1.94804e-28
2.97352e-27
3.84521e-27
1.7627e-27
0
-7.02765e-28
9.07918e-28
1.6337e-28
1.41051e-28
0
)
;
    }
    fixedWalls
    {
        type            calculated;
        value           nonuniform List<scalar> 
60
(
1.46674e-22
1.94703e-22
3.40464e-22
2.34075e-22
8.81738e-23
1.31569e-22
1.42727e-22
7.43224e-23
8.9051e-23
4.72971e-24
0
3.32304e-23
4.15727e-23
8.07694e-24
9.39216e-23
1.00055e-22
1.0458e-22
1.82974e-22
1.09187e-22
6.59451e-23
2.52438e-29
0
0
6.07472e-28
3.95239e-29
5.66615e-28
1.86066e-28
6.82099e-28
0
0
0
0
0
0
0
3.27416e-30
3.54371e-28
6.53362e-30
2.47561e-30
0
0
0
0
0
2.78653e-26
-3.47376e-27
2.07383e-27
2.23489e-27
5.15701e-27
4.24749e-27
1.75137e-27
1.11385e-28
3.68592e-28
1.10665e-28
3.25465e-27
1.86088e-27
0
9.11627e-28
2.03142e-28
0
)
;
    }
    frontAndBack
    {
        type            empty;
    }
}


// ************************************************************************* //
