/*--------------------------------*- C++ -*----------------------------------*\
| =========                 |                                                 |
| \\      /  F ield         | OpenFOAM: The Open Source CFD Toolbox           |
|  \\    /   O peration     | Version:  2312                                  |
|   \\  /    A nd           | Website:  www.openfoam.com                      |
|    \\/     M anipulation  |                                                 |
\*---------------------------------------------------------------------------*/
FoamFile
{
    version     2.0;
    format      ascii;
    arch        "LSB;label=32;scalar=64";
    class       volScalarField;
    location    "6.25";
    object      QField;
}
// * * * * * * * * * * * * * * * * * * * * * * * * * * * * * * * * * * * * * //

dimensions      [0 0 -2 0 0 0 0];

internalField   nonuniform List<scalar> 
400
(
-3.81168e-23
-1.22069e-23
-5.54169e-25
9.66362e-27
-4.83976e-27
-2.952e-27
-1.58221e-28
5.45628e-28
0
-1.45961e-27
-7.64928e-28
6.79842e-29
-5.89748e-28
-2.36562e-28
-7.96759e-28
-7.33465e-28
0
-1.53091e-28
0
-1.99954e-29
-7.15799e-23
-2.0969e-23
-1.31118e-24
-2.66709e-26
2.57421e-27
-1.71305e-27
1.13777e-27
-2.89841e-28
2.26654e-27
3.8503e-28
-1.2608e-28
-2.09172e-28
-7.73499e-28
-3.55606e-28
-7.27171e-28
-6.22407e-28
-2.36183e-28
2.22821e-28
-1.18397e-27
0
-6.86421e-23
-2.19272e-23
-7.67496e-25
-4.39047e-26
6.78713e-28
-3.4195e-27
4.99347e-28
5.85804e-28
3.46332e-28
-2.16327e-28
5.34654e-28
1.63749e-27
2.50219e-28
0
-1.69234e-28
-1.29506e-28
-4.87158e-28
6.2878e-28
0
0
-5.32575e-23
-1.73638e-23
-5.1029e-25
-7.08201e-26
-4.59981e-28
-9.19666e-28
-1.48287e-27
0
1.35104e-28
-2.57862e-28
4.32005e-31
5.83036e-28
8.30179e-28
1.19598e-27
1.39923e-28
1.38238e-28
-3.87317e-28
-7.35385e-28
3.41643e-28
-4.66199e-28
-3.44458e-23
-1.02026e-23
-5.93852e-25
-1.52825e-26
-3.0637e-27
-2.5261e-28
-5.32623e-28
-4.16198e-28
2.24672e-28
0
9.52271e-29
-5.40522e-29
-2.70994e-28
-1.03721e-28
-1.04415e-28
0
6.74899e-28
-5.20529e-28
-2.90309e-28
1.57206e-28
-3.0355e-23
-9.31581e-24
-3.19998e-25
-1.23116e-26
-3.29794e-27
-1.62501e-28
-7.51291e-28
-6.25593e-29
0
4.62616e-28
9.36496e-29
7.47027e-29
-2.37437e-28
-7.0515e-28
0
1.10388e-27
1.14919e-27
-4.98032e-28
6.35353e-28
-2.16784e-29
-3.04787e-23
-1.02067e-23
-6.67843e-26
-6.47801e-26
1.30527e-26
-1.97765e-27
2.80316e-27
7.19282e-28
7.91922e-29
1.99442e-28
-5.2878e-28
-2.54237e-28
-4.39913e-28
-4.06958e-28
1.21044e-28
-1.31548e-28
1.26604e-27
-1.55577e-27
4.06567e-28
-6.24357e-28
-2.95927e-23
-8.55233e-24
-4.82674e-25
-1.65245e-26
-7.5429e-28
1.0522e-27
4.66675e-27
4.70171e-28
-8.04923e-29
-4.79124e-28
1.31376e-27
0
-4.28604e-28
-9.42499e-28
7.55617e-28
0
-1.0191e-28
0
-8.29953e-28
-2.52406e-28
-2.28918e-23
-6.58746e-24
-2.50669e-25
-4.18883e-26
-4.58955e-28
1.86257e-28
1.31758e-27
-8.72103e-28
-1.60322e-27
-1.65133e-27
-3.02899e-28
-2.11237e-28
1.44033e-28
-2.74555e-28
6.49191e-28
4.17392e-28
-2.38857e-28
1.55005e-29
0
0
-9.43385e-25
-8.98999e-25
9.77394e-26
2.27844e-26
-5.33828e-27
1.98949e-27
-2.81549e-27
-1.5377e-27
1.06672e-27
4.0721e-28
-2.39912e-27
-2.11201e-27
4.72366e-28
-5.19155e-29
-2.39812e-29
-5.15288e-28
-3.19028e-28
0
0
0
1.3845e-23
3.15852e-24
2.64001e-25
5.15797e-26
-4.26184e-27
2.79731e-28
-6.25744e-28
-1.82603e-27
7.21523e-28
9.78171e-28
0
4.90208e-28
3.7283e-27
1.65612e-27
-3.52731e-29
-1.45153e-27
-2.93955e-28
3.8915e-28
1.37532e-28
-2.55274e-28
1.1046e-23
1.44409e-24
2.14286e-25
-3.15667e-28
-2.77443e-28
0
0
-1.12664e-27
5.77223e-27
1.73344e-27
-2.46825e-27
-1.47935e-27
6.54297e-28
2.92918e-27
6.58906e-28
6.05459e-28
-1.87e-27
1.43113e-30
-8.11311e-28
0
1.82485e-23
3.01694e-24
4.21134e-26
1.9034e-26
2.05966e-27
-6.08069e-28
6.25788e-28
-1.48e-27
-7.75944e-28
-2.16136e-27
-2.50749e-27
5.50353e-28
-2.62239e-28
-1.59065e-28
-8.47555e-28
-1.2384e-27
-1.36873e-28
7.65759e-28
-5.64556e-28
0
1.29699e-23
8.209e-25
1.37215e-25
6.20613e-27
-7.22581e-28
-1.15607e-28
2.3053e-28
-3.79414e-28
1.65556e-27
9.68068e-28
-3.87283e-30
5.94041e-28
-4.49714e-28
1.46235e-28
0
-6.02137e-29
4.82923e-28
7.28626e-28
0
0
-1.12198e-23
-6.76418e-24
4.87821e-25
-7.75503e-26
1.61875e-26
-2.70768e-27
1.65635e-28
-1.07329e-27
-4.08593e-28
4.52938e-28
3.17117e-28
7.87171e-28
7.38649e-29
2.90452e-28
3.12693e-29
0
2.80527e-28
-4.70572e-28
-1.47073e-28
0
-2.90749e-23
-9.61362e-24
-1.89387e-25
-3.32064e-26
4.83818e-27
-3.26138e-28
4.48091e-28
-2.44188e-29
2.22056e-28
-1.21186e-28
-1.23211e-28
-1.11344e-28
-8.34842e-29
8.70358e-28
-1.70104e-27
-8.14808e-28
-6.40905e-29
-8.92932e-29
-7.1754e-29
-4.90456e-29
-3.31745e-23
-9.42831e-24
-5.07338e-25
-2.27802e-26
1.63255e-27
-4.01481e-28
0
-9.04751e-29
5.58732e-28
1.70254e-28
-2.4729e-28
0
4.79727e-28
3.07139e-28
1.14503e-28
5.8576e-28
-3.36452e-28
3.41628e-28
-4.12837e-28
-8.77433e-29
-3.58634e-23
-1.14126e-23
-3.22672e-25
-5.11973e-26
1.49133e-26
-2.56498e-27
4.83103e-28
2.61843e-28
-1.65604e-28
-7.90068e-28
1.19624e-28
5.64298e-28
-2.3119e-28
-8.95341e-28
0
-4.7774e-28
0
-9.43625e-28
-2.19964e-28
-6.92831e-29
-3.60745e-23
-1.06976e-23
-5.2318e-25
-5.52756e-26
1.7365e-27
-8.97239e-28
-5.05092e-28
-4.28268e-28
-6.326e-28
-2.68847e-28
6.62694e-28
1.48695e-27
3.22916e-28
-3.94359e-29
-4.56085e-28
6.84648e-29
3.25405e-28
-6.01135e-29
3.52653e-28
-1.80923e-29
-1.69403e-23
-4.43601e-24
-4.53734e-25
1.92724e-26
-1.4383e-27
-5.84745e-28
0
1.67147e-28
0
0
0
-3.02482e-28
-1.42762e-27
-1.41372e-27
6.99845e-28
2.96047e-28
-3.53885e-28
-4.58574e-28
3.16621e-28
6.08087e-29
)
;

boundaryField
{
    movingWall
    {
        type            calculated;
        value           nonuniform List<scalar> 
20
(
6.20912e-24
4.92029e-24
-9.58648e-25
1.54656e-25
-4.11219e-26
4.45144e-27
1.37071e-27
2.45337e-28
-1.01038e-28
1.2483e-27
-1.94804e-28
-2.97352e-27
-4.5279e-27
-1.89331e-27
1.14663e-27
7.27565e-28
-2.80717e-28
-3.46447e-28
3.20474e-28
7.03515e-29
)
;
    }
    fixedWalls
    {
        type            calculated;
        value           nonuniform List<scalar> 
60
(
-2.08171e-22
-3.93166e-22
-3.61704e-22
-2.72603e-22
-1.89162e-22
-1.61754e-22
-1.55426e-22
-1.56993e-22
-1.18481e-22
-4.74457e-24
6.96156e-23
5.44767e-23
7.4349e-23
4.77586e-23
-5.75703e-23
-1.52967e-22
-1.80777e-22
-1.82984e-22
-1.93169e-22
-9.69822e-23
-3.27605e-29
0
0
-8.24869e-28
3.90028e-28
-5.66615e-28
-1.02295e-27
-6.82099e-28
0
0
0
0
0
0
0
-8.03563e-29
-3.54371e-28
-2.27027e-28
-2.96423e-29
2.92775e-29
9.49312e-24
7.42068e-24
-1.1955e-24
1.55016e-25
-3.08566e-26
4.7221e-27
-2.07383e-27
-2.23489e-27
-5.15701e-27
-4.48137e-27
-2.71878e-27
-1.11385e-28
-1.47197e-27
-6.89046e-28
-2.66267e-27
-2.33851e-27
7.72278e-28
-1.06831e-27
-2.03142e-28
1.54878e-28
)
;
    }
    frontAndBack
    {
        type            empty;
    }
}


// ************************************************************************* //
