/*--------------------------------*- C++ -*----------------------------------*\
| =========                 |                                                 |
| \\      /  F ield         | OpenFOAM: The Open Source CFD Toolbox           |
|  \\    /   O peration     | Version:  2312                                  |
|   \\  /    A nd           | Website:  www.openfoam.com                      |
|    \\/     M anipulation  |                                                 |
\*---------------------------------------------------------------------------*/
FoamFile
{
    version     2.0;
    format      ascii;
    arch        "LSB;label=32;scalar=64";
    class       volVectorField;
    location    "6.25";
    object      U;
}
// * * * * * * * * * * * * * * * * * * * * * * * * * * * * * * * * * * * * * //

dimensions      [0 1 -1 0 0 0 0];

internalField   nonuniform List<vector> 
400
(
(-1 1.42929e-13 0)
(-1 -3.10913e-14 0)
(-1 7.46779e-15 0)
(-1 -1.60528e-15 0)
(-1 3.43655e-16 0)
(-1 -7.79559e-17 0)
(-1 -1.73369e-17 0)
(-1 -1.95827e-17 0)
(-1 8.33137e-17 0)
(-1 1.46311e-16 0)
(-1 1.5699e-16 0)
(-1 2.03545e-16 0)
(-1 1.69531e-16 0)
(-1 1.21109e-16 0)
(-1 2.90145e-17 0)
(-1 -1.07845e-16 0)
(-1 -1.18858e-16 0)
(-1 -2.08941e-17 0)
(-1 7.06934e-17 0)
(-1 2.48493e-17 0)
(-1 1.39653e-14 0)
(-1 -2.76635e-15 0)
(-1 6.14449e-16 0)
(-1 -1.74168e-16 0)
(-1 -8.54206e-17 0)
(-1 -1.05601e-16 0)
(-1 -9.94393e-17 0)
(-1 -7.48152e-17 0)
(-1 7.51107e-18 0)
(-1 1.2294e-16 0)
(-1 1.25218e-16 0)
(-1 1.07435e-16 0)
(-1 4.80477e-17 0)
(-1 1.06684e-16 0)
(-1 1.17962e-16 0)
(-1 -2.74556e-17 0)
(-1 -4.17039e-17 0)
(-1 -3.55866e-17 0)
(-1 -3.14586e-17 0)
(-1 -1.74723e-17 0)
(-1 -1.38864e-13 0)
(-1 3.04778e-14 0)
(-1 -7.19098e-15 0)
(-1 1.67467e-15 0)
(-1 -1.31202e-16 0)
(-1 2.38045e-16 0)
(-1 1.30972e-16 0)
(-1 8.73586e-17 0)
(-1 7.02815e-18 0)
(-1 4.07754e-17 0)
(-1 8.68386e-17 0)
(-1 -2.49755e-17 0)
(-1 -1.13586e-16 0)
(-1 -4.93596e-17 0)
(-1 -2.17537e-17 0)
(-1 -1.81415e-17 0)
(-1 -3.17219e-17 0)
(-1 -5.17519e-17 0)
(-1 -1.47711e-16 0)
(-1 -9.23519e-17 0)
(-1 1.08487e-13 0)
(-1 -2.41329e-14 0)
(-1 5.71036e-15 0)
(-1 -1.21338e-15 0)
(-1 5.07691e-16 0)
(-1 1.07272e-16 0)
(-1 1.68394e-16 0)
(-1 1.26983e-16 0)
(-1 1.12653e-16 0)
(-1 1.10368e-16 0)
(-1 1.36437e-16 0)
(-1 1.10289e-16 0)
(-1 2.88858e-17 0)
(-1 -4.28525e-17 0)
(-1 -1.18194e-16 0)
(-1 -9.51712e-17 0)
(-1 -1.31569e-16 0)
(-1 -6.20647e-17 0)
(-1 -6.2842e-17 0)
(-1 -5.31349e-17 0)
(-1 -9.6188e-15 0)
(-1 1.45652e-15 0)
(-1 -5.51797e-16 0)
(-1 -9.77771e-17 0)
(-1 -2.16054e-16 0)
(-1 -1.70428e-16 0)
(-1 -1.22857e-16 0)
(-1 2.60754e-17 0)
(-1 1.44901e-16 0)
(-1 1.08965e-16 0)
(-1 6.93298e-17 0)
(-1 7.61993e-17 0)
(-1 7.66639e-17 0)
(-1 -1.69665e-17 0)
(-1 -7.47685e-17 0)
(-1 -4.23932e-17 0)
(-1 4.49599e-17 0)
(-1 8.21037e-17 0)
(-1 -2.16671e-17 0)
(-1 -3.63316e-17 0)
(-1 -9.26757e-14 0)
(-1 2.00572e-14 0)
(-1 -4.6723e-15 0)
(-1 1.10213e-15 0)
(-1 -1.30113e-16 0)
(-1 1.47888e-16 0)
(-1 5.26547e-18 0)
(-1 -2.65669e-17 0)
(-1 -1.78148e-17 0)
(-1 2.94035e-17 0)
(-1 1.01304e-16 0)
(-1 8.30128e-17 0)
(-1 1.28865e-16 0)
(-1 -4.58607e-18 0)
(-1 -1.3129e-16 0)
(-1 -8.2011e-17 0)
(-1 7.23409e-17 0)
(-1 1.29977e-16 0)
(-1 4.42631e-17 0)
(-1 -5.22611e-17 0)
(-1 1.12163e-13 0)
(-1 -2.45679e-14 0)
(-1 5.56753e-15 0)
(-1 -1.43428e-15 0)
(-1 4.64351e-17 0)
(-1 -2.3038e-16 0)
(-1 -2.01353e-17 0)
(-1 2.81653e-17 0)
(-1 6.83207e-17 0)
(-1 1.76528e-16 0)
(-1 1.41998e-16 0)
(-1 7.89854e-17 0)
(-1 9.50993e-17 0)
(-1 2.48856e-17 0)
(-1 2.00288e-17 0)
(-1 6.95431e-17 0)
(-1 -4.2375e-18 0)
(-1 -4.54821e-17 0)
(-1 1.08404e-16 0)
(-1 3.65434e-17 0)
(-1 -2.12996e-14 0)
(-1 4.68571e-15 0)
(-1 -1.15244e-15 0)
(-1 1.94501e-16 0)
(-1 -3.11962e-16 0)
(-1 -8.37825e-17 0)
(-1 7.62313e-17 0)
(-1 1.86752e-16 0)
(-1 2.49694e-16 0)
(-1 1.76853e-16 0)
(-1 -2.80235e-18 0)
(-1 -6.54934e-17 0)
(-1 -1.06338e-16 0)
(-1 -2.38056e-17 0)
(-1 6.75225e-17 0)
(-1 1.30281e-16 0)
(-1 -4.61775e-17 0)
(-1 -1.36444e-16 0)
(-1 3.0209e-17 0)
(-1 6.29125e-17 0)
(-1 -7.03458e-14 0)
(-1 1.56231e-14 0)
(-1 -3.577e-15 0)
(-1 8.78026e-16 0)
(-1 -1.35946e-16 0)
(-1 5.77061e-17 0)
(-1 -2.04663e-16 0)
(-1 -1.82175e-16 0)
(-1 -6.62461e-17 0)
(-1 -3.81028e-17 0)
(-1 -5.62929e-18 0)
(-1 7.36474e-17 0)
(-1 2.03483e-17 0)
(-1 4.70779e-17 0)
(-1 4.94281e-17 0)
(-1 -6.04704e-18 0)
(-1 -4.18356e-17 0)
(-1 -5.38235e-17 0)
(-1 -4.46949e-17 0)
(-1 -1.18529e-17 0)
(-1 8.72113e-14 0)
(-1 -1.9118e-14 0)
(-1 4.4001e-15 0)
(-1 -1.08822e-15 0)
(-1 1.8286e-16 0)
(-1 -1.71681e-16 0)
(-1 -1.6048e-16 0)
(-1 3.41948e-18 0)
(-1 -4.60489e-17 0)
(-1 -1.27764e-16 0)
(-1 -1.21166e-16 0)
(-1 -2.54342e-17 0)
(-1 3.43483e-17 0)
(-1 1.93276e-17 0)
(-1 4.05132e-17 0)
(-1 1.04801e-17 0)
(-1 8.97217e-17 0)
(-1 9.08275e-17 0)
(-1 -4.19998e-17 0)
(-1 -7.40842e-17 0)
(-1 -7.41363e-14 0)
(-1 1.60505e-14 0)
(-1 -3.56437e-15 0)
(-1 8.4951e-16 0)
(-1 4.51478e-19 0)
(-1 1.05015e-16 0)
(-1 5.20528e-17 0)
(-1 6.92865e-18 0)
(-1 -1.54338e-16 0)
(-1 -2.69742e-16 0)
(-1 -3.34779e-16 0)
(-1 -3.1595e-16 0)
(-1 -1.53924e-16 0)
(-1 2.79245e-17 0)
(-1 1.9281e-16 0)
(-1 2.33269e-16 0)
(-1 1.56212e-16 0)
(-1 -3.85645e-19 0)
(-1 -8.12751e-17 0)
(-1 -5.11261e-17 0)
(-1 6.19858e-14 0)
(-1 -1.30728e-14 0)
(-1 3.16139e-15 0)
(-1 -6.86415e-16 0)
(-1 2.24537e-16 0)
(-1 -2.8103e-17 0)
(-1 -1.25795e-16 0)
(-1 -3.58737e-16 0)
(-1 -1.89622e-16 0)
(-1 6.71784e-17 0)
(-1 5.75395e-17 0)
(-1 -1.06235e-16 0)
(-1 -1.01354e-16 0)
(-1 1.01797e-16 0)
(-1 2.58871e-16 0)
(-1 2.23343e-16 0)
(-1 3.54965e-17 0)
(-1 -3.08889e-18 0)
(-1 3.60245e-17 0)
(-1 2.00954e-17 0)
(-1 -1.14635e-14 0)
(-1 2.42396e-15 0)
(-1 -6.1319e-16 0)
(-1 1.29855e-16 0)
(-1 -1.51683e-16 0)
(-1 -6.01144e-17 0)
(-1 -3.95138e-17 0)
(-1 -1.37073e-16 0)
(-1 -1.31982e-16 0)
(-1 -9.51823e-17 0)
(-1 -5.28806e-17 0)
(-1 -8.79531e-17 0)
(-1 -1.20562e-16 0)
(-1 -8.23928e-17 0)
(-1 -6.18773e-17 0)
(-1 -8.11385e-17 0)
(-1 -7.28722e-17 0)
(-1 3.01388e-17 0)
(-1 6.83854e-17 0)
(-1 1.49846e-17 0)
(-1 -6.95537e-14 0)
(-1 1.51339e-14 0)
(-1 -3.46012e-15 0)
(-1 7.78279e-16 0)
(-1 -2.72024e-16 0)
(-1 -1.55451e-17 0)
(-1 2.72493e-17 0)
(-1 5.29768e-17 0)
(-1 -6.74311e-17 0)
(-1 -2.5242e-16 0)
(-1 -2.46008e-16 0)
(-1 -8.28703e-17 0)
(-1 -2.68457e-17 0)
(-1 -5.30085e-17 0)
(-1 -5.38213e-17 0)
(-1 -2.1593e-17 0)
(-1 6.07451e-17 0)
(-1 3.77961e-17 0)
(-1 -6.05406e-17 0)
(-1 -3.10647e-17 0)
(-1 1.2287e-13 0)
(-1 -2.63636e-14 0)
(-1 6.18579e-15 0)
(-1 -1.23958e-15 0)
(-1 3.78522e-16 0)
(-1 -1.7463e-17 0)
(-1 4.55367e-17 0)
(-1 2.90642e-18 0)
(-1 -5.34566e-17 0)
(-1 -7.24657e-17 0)
(-1 -5.14518e-17 0)
(-1 2.33492e-17 0)
(-1 4.53532e-17 0)
(-1 4.41065e-17 0)
(-1 7.07206e-17 0)
(-1 5.56428e-17 0)
(-1 2.24085e-18 0)
(-1 3.8948e-18 0)
(-1 -7.35626e-17 0)
(-1 -5.07796e-17 0)
(-1 -7.85635e-14 0)
(-1 1.66887e-14 0)
(-1 -4.04668e-15 0)
(-1 9.2006e-16 0)
(-1 -1.33573e-16 0)
(-1 5.33889e-18 0)
(-1 -9.34654e-17 0)
(-1 -6.60268e-17 0)
(-1 -9.04624e-17 0)
(-1 -9.33349e-17 0)
(-1 -7.55591e-17 0)
(-1 -5.50889e-17 0)
(-1 -6.18663e-17 0)
(-1 -8.40642e-17 0)
(-1 -1.22701e-16 0)
(-1 -1.46503e-16 0)
(-1 -1.64777e-16 0)
(-1 -1.35814e-16 0)
(-1 -8.76707e-17 0)
(-1 -3.54659e-17 0)
(-1 -2.43308e-14 0)
(-1 5.18248e-15 0)
(-1 -1.13779e-15 0)
(-1 2.35338e-16 0)
(-1 -1.01073e-16 0)
(-1 -6.15972e-17 0)
(-1 -7.46098e-17 0)
(-1 -1.10116e-17 0)
(-1 -5.79201e-17 0)
(-1 -1.40241e-16 0)
(-1 -1.20733e-16 0)
(-1 -4.90067e-17 0)
(-1 -4.33976e-17 0)
(-1 -9.44941e-17 0)
(-1 -2.0091e-16 0)
(-1 -1.36738e-16 0)
(-1 1.51974e-17 0)
(-1 3.68382e-17 0)
(-1 3.13431e-19 0)
(-1 -3.2685e-17 0)
(-1 9.62978e-14 0)
(-1 -2.07492e-14 0)
(-1 4.86639e-15 0)
(-1 -1.19026e-15 0)
(-1 1.54927e-16 0)
(-1 -8.98549e-17 0)
(-1 -9.81545e-17 0)
(-1 -4.52965e-17 0)
(-1 -3.81397e-17 0)
(-1 -5.7516e-17 0)
(-1 2.37866e-19 0)
(-1 4.5428e-17 0)
(-1 6.96343e-17 0)
(-1 -3.98661e-17 0)
(-1 -7.87921e-17 0)
(-1 -2.8955e-17 0)
(-1 -1.59241e-17 0)
(-1 -9.77611e-18 0)
(-1 -4.8838e-18 0)
(-1 -1.61911e-17 0)
(-1 -2.94616e-14 0)
(-1 6.11311e-15 0)
(-1 -1.56068e-15 0)
(-1 1.92716e-16 0)
(-1 -2.13229e-16 0)
(-1 -1.27611e-16 0)
(-1 -1.14683e-16 0)
(-1 -3.44379e-17 0)
(-1 1.34949e-17 0)
(-1 8.22562e-17 0)
(-1 6.30884e-17 0)
(-1 -1.21548e-17 0)
(-1 -9.57876e-17 0)
(-1 -1.85442e-16 0)
(-1 -8.85129e-17 0)
(-1 -1.71768e-17 0)
(-1 -1.01142e-16 0)
(-1 -1.3723e-16 0)
(-1 -8.72539e-17 0)
(-1 -7.12403e-18 0)
(-1 -8.7361e-14 0)
(-1 1.88426e-14 0)
(-1 -4.44543e-15 0)
(-1 9.53063e-16 0)
(-1 -3.17412e-16 0)
(-1 -1.07548e-16 0)
(-1 -6.2826e-17 0)
(-1 -3.03841e-17 0)
(-1 -6.59819e-17 0)
(-1 -3.41761e-17 0)
(-1 -1.91331e-17 0)
(-1 -4.14871e-17 0)
(-1 -1.30729e-16 0)
(-1 -1.41548e-16 0)
(-1 -6.45245e-17 0)
(-1 -1.24497e-17 0)
(-1 -9.91356e-18 0)
(-1 -3.19541e-17 0)
(-1 -2.95585e-17 0)
(-1 -9.51622e-18 0)
)
;

boundaryField
{
    movingWall
    {
        type            fixedValue;
        value           uniform (-1 -0 -0);
    }
    fixedWalls
    {
        type            noSlip;
    }
    frontAndBack
    {
        type            empty;
    }
}


// ************************************************************************* //
