/*--------------------------------*- C++ -*----------------------------------*\
| =========                 |                                                 |
| \\      /  F ield         | OpenFOAM: The Open Source CFD Toolbox           |
|  \\    /   O peration     | Version:  2312                                  |
|   \\  /    A nd           | Website:  www.openfoam.com                      |
|    \\/     M anipulation  |                                                 |
\*---------------------------------------------------------------------------*/
FoamFile
{
    version     2.0;
    format      ascii;
    arch        "LSB;label=32;scalar=64";
    class       volVectorField;
    location    "6.25";
    object      vorticityField;
}
// * * * * * * * * * * * * * * * * * * * * * * * * * * * * * * * * * * * * * //

dimensions      [0 0 -1 0 0 0 0];

internalField   nonuniform List<vector> 
400
(
(0 -0 9.63881e-12)
(0 -0 -1.31125e-11)
(0 -0 2.89439e-12)
(0 -0 -7.39519e-13)
(0 -0 1.25627e-13)
(0 -0 1.8111e-14)
(0 -0 -2.12677e-14)
(0 -0 6.42752e-14)
(0 -0 1.65894e-14)
(0 -0 7.36764e-15)
(0 -0 5.72343e-15)
(0 -0 5.54642e-14)
(0 -0 -8.24365e-15)
(0 -0 -4.11567e-14)
(0 -0 -2.28954e-14)
(0 -0 -1.47872e-14)
(0 -0 8.69507e-15)
(0 -0 1.89551e-14)
(0 -0 4.57434e-15)
(0 -0 -9.55428e-15)
(0 -0 6.32002e-13)
(0 -0 -1.25377e-12)
(0 -0 2.59218e-13)
(0 -0 -6.9987e-14)
(0 -0 6.85675e-15)
(0 -0 -1.40187e-15)
(0 -0 1.11499e-13)
(0 -0 3.78001e-14)
(0 -0 1.55301e-13)
(0 -0 9.30859e-14)
(0 -0 7.97647e-14)
(0 -0 1.9388e-14)
(0 -0 8.124e-14)
(0 -0 8.83065e-14)
(0 -0 4.07962e-14)
(0 -0 3.82436e-14)
(0 -0 -8.13106e-16)
(0 -0 5.52346e-14)
(0 -0 1.81143e-15)
(0 -0 4.89309e-15)
(0 -0 -5.30916e-12)
(0 -0 1.17307e-11)
(0 -0 -2.69057e-12)
(0 -0 6.51768e-13)
(0 -0 -1.70767e-13)
(0 -0 -8.22028e-14)
(0 -0 -9.63838e-14)
(0 -0 -1.4792e-13)
(0 -0 -1.40184e-13)
(0 -0 -1.9124e-14)
(0 -0 -8.78903e-14)
(0 -0 -1.01358e-13)
(0 -0 -8.37536e-14)
(0 -0 9.1832e-15)
(0 -0 -5.10883e-14)
(0 -0 -5.52069e-14)
(0 -0 -3.36104e-15)
(0 -0 -6.5809e-14)
(0 -0 -4.06e-15)
(0 -0 2.40063e-14)
(0 -0 4.61355e-12)
(0 -0 -9.13921e-12)
(0 -0 2.21064e-12)
(0 -0 -4.11847e-13)
(0 -0 1.32065e-13)
(0 -0 -6.82463e-15)
(0 -0 -5.2239e-14)
(0 -0 -5.57409e-15)
(0 -0 -8.29767e-14)
(0 -0 -1.06042e-13)
(0 -0 -5.42181e-14)
(0 -0 -6.49652e-14)
(0 -0 -6.95242e-14)
(0 -0 -9.60232e-14)
(0 -0 -5.9442e-14)
(0 -0 -5.55476e-14)
(0 -0 -5.08995e-14)
(0 -0 -4.73374e-14)
(0 -0 8.92984e-16)
(0 -0 -1.55074e-14)
(0 -0 -2.03596e-12)
(0 -0 1.01512e-12)
(0 -0 -3.1806e-13)
(0 -0 -4.77408e-14)
(0 -0 -6.14752e-14)
(0 -0 -1.77854e-14)
(0 -0 -7.45472e-15)
(0 -0 2.67759e-14)
(0 -0 3.5394e-14)
(0 -0 -7.55713e-15)
(0 -0 -3.27656e-15)
(0 -0 2.78385e-14)
(0 -0 -9.31658e-15)
(0 -0 -1.51432e-14)
(0 -0 2.45624e-14)
(0 -0 1.19728e-14)
(0 -0 6.66598e-14)
(0 -0 -6.6627e-15)
(0 -0 -1.18435e-14)
(0 -0 3.29049e-14)
(0 -0 -4.03635e-12)
(0 -0 8.01429e-12)
(0 -0 -1.81419e-12)
(0 -0 4.27114e-13)
(0 -0 -6.83187e-14)
(0 -0 1.35379e-14)
(0 -0 9.65952e-15)
(0 -0 2.4797e-14)
(0 -0 5.59704e-15)
(0 -0 6.6122e-14)
(0 -0 5.9571e-14)
(0 -0 2.98611e-14)
(0 -0 1.83452e-14)
(0 -0 1.0896e-15)
(0 -0 -7.74249e-15)
(0 -0 7.45732e-14)
(0 -0 7.54089e-14)
(0 -0 5.14023e-14)
(0 -0 -7.24339e-14)
(0 -0 -2.63053e-14)
(0 -0 5.83216e-12)
(0 -0 -9.81929e-12)
(0 -0 2.31336e-12)
(0 -0 -4.43689e-13)
(0 -0 2.2881e-13)
(0 -0 1.01763e-13)
(0 -0 1.34275e-13)
(0 -0 9.01608e-14)
(0 -0 6.90464e-14)
(0 -0 8.86829e-14)
(0 -0 4.44558e-14)
(0 -0 4.95203e-14)
(0 -0 7.59052e-14)
(0 -0 4.67031e-14)
(0 -0 3.15708e-14)
(0 -0 5.17835e-14)
(0 -0 -6.57126e-14)
(0 -0 6.54743e-14)
(0 -0 6.24127e-14)
(0 -0 -1.44948e-14)
(0 -0 -1.11929e-12)
(0 -0 1.87919e-12)
(0 -0 -3.67806e-13)
(0 -0 1.11153e-13)
(0 -0 -7.23322e-16)
(0 -0 6.59244e-14)
(0 -0 1.62579e-13)
(0 -0 4.44513e-14)
(0 -0 8.03253e-14)
(0 -0 -5.23547e-14)
(0 -0 -7.84448e-14)
(0 -0 -1.03535e-14)
(0 -0 -5.00413e-14)
(0 -0 -3.68241e-14)
(0 -0 6.96187e-14)
(0 -0 -1.137e-14)
(0 -0 -2.66724e-14)
(0 -0 7.63865e-15)
(0 -0 1.99356e-14)
(0 -0 1.77929e-14)
(0 -0 -3.38518e-12)
(0 -0 6.13478e-12)
(0 -0 -1.44741e-12)
(0 -0 2.6279e-13)
(0 -0 -1.09137e-13)
(0 -0 -3.39767e-14)
(0 -0 -1.32408e-13)
(0 -0 -1.32634e-14)
(0 -0 1.44072e-14)
(0 -0 6.06168e-15)
(0 -0 -1.593e-14)
(0 -0 -7.87174e-14)
(0 -0 -5.68671e-14)
(0 -0 -5.13021e-14)
(0 -0 -1.13733e-13)
(0 -0 -9.04415e-14)
(0 -0 -3.18827e-14)
(0 -0 -5.4496e-14)
(0 -0 4.19706e-15)
(0 -0 5.65479e-15)
(0 -0 6.67381e-12)
(0 -0 -8.1727e-12)
(0 -0 1.85718e-12)
(0 -0 -4.75934e-13)
(0 -0 3.7444e-14)
(0 -0 -8.85442e-14)
(0 -0 -6.38051e-14)
(0 -0 1.14431e-14)
(0 -0 -9.44335e-14)
(0 -0 -6.17218e-14)
(0 -0 3.7338e-14)
(0 -0 1.55514e-14)
(0 -0 4.47619e-15)
(0 -0 6.16495e-16)
(0 -0 2.62203e-14)
(0 -0 3.20259e-14)
(0 -0 3.51398e-14)
(0 -0 -1.31722e-14)
(0 -0 -1.64912e-14)
(0 -0 1.16084e-14)
(0 -0 -7.73305e-12)
(0 -0 7.40956e-12)
(0 -0 -1.68273e-12)
(0 -0 4.92008e-13)
(0 -0 -2.02393e-14)
(0 -0 5.93702e-14)
(0 -0 4.44014e-14)
(0 -0 -7.48492e-14)
(0 -0 -8.18772e-14)
(0 -0 -7.22542e-14)
(0 -0 -4.6208e-15)
(0 -0 4.51905e-14)
(0 -0 1.42808e-13)
(0 -0 8.88835e-14)
(0 -0 4.76395e-14)
(0 -0 7.76554e-14)
(0 -0 -2.33655e-14)
(0 -0 -5.08538e-14)
(0 -0 -3.21791e-14)
(0 -0 1.32401e-14)
(0 -0 5.13525e-12)
(0 -0 -5.71981e-12)
(0 -0 1.34706e-12)
(0 -0 -2.39475e-13)
(0 -0 9.29363e-14)
(0 -0 -3.50332e-14)
(0 -0 -3.30634e-14)
(0 -0 4.78274e-14)
(0 -0 1.78117e-13)
(0 -0 1.33136e-13)
(0 -0 3.68688e-14)
(0 -0 3.83208e-14)
(0 -0 4.79082e-14)
(0 -0 1.17338e-13)
(0 -0 6.63648e-14)
(0 -0 -4.94425e-14)
(0 -0 -4.97483e-14)
(0 -0 2.71579e-14)
(0 -0 2.31843e-15)
(0 -0 -5.61199e-15)
(0 -0 2.07351e-13)
(0 -0 6.24248e-13)
(0 -0 -2.56516e-13)
(0 -0 -1.43585e-13)
(0 -0 -1.27417e-13)
(0 -0 -4.29932e-14)
(0 -0 -8.9011e-14)
(0 -0 -9.0562e-14)
(0 -0 -2.2916e-14)
(0 -0 -4.62999e-14)
(0 -0 -5.34872e-14)
(0 -0 -8.80833e-14)
(0 -0 -1.07864e-13)
(0 -0 -2.12366e-14)
(0 -0 1.25436e-16)
(0 -0 -8.24147e-14)
(0 -0 1.11277e-14)
(0 -0 6.83359e-14)
(0 -0 2.55896e-14)
(0 -0 -8.33699e-15)
(0 -0 -5.5504e-12)
(0 -0 6.47384e-12)
(0 -0 -1.54398e-12)
(0 -0 2.91705e-13)
(0 -0 -1.06487e-13)
(0 -0 2.99273e-14)
(0 -0 6.85219e-15)
(0 -0 -9.46804e-15)
(0 -0 -8.47498e-14)
(0 -0 -7.20678e-14)
(0 -0 1.6955e-14)
(0 -0 4.90213e-14)
(0 -0 2.98618e-15)
(0 -0 -5.69077e-14)
(0 -0 3.14155e-15)
(0 -0 3.85617e-14)
(0 -0 8.72541e-14)
(0 -0 -6.63387e-14)
(0 -0 -6.88608e-15)
(0 -0 9.16053e-15)
(0 -0 8.37674e-12)
(0 -0 -1.10721e-11)
(0 -0 2.70214e-12)
(0 -0 -4.45201e-13)
(0 -0 2.57737e-13)
(0 -0 4.80166e-14)
(0 -0 8.33521e-14)
(0 -0 9.85209e-14)
(0 -0 4.66729e-14)
(0 -0 1.08621e-13)
(0 -0 9.08967e-14)
(0 -0 9.09957e-14)
(0 -0 8.33909e-14)
(0 -0 8.38519e-14)
(0 -0 2.82587e-14)
(0 -0 -6.84797e-15)
(0 -0 -5.93849e-14)
(0 -0 -7.58034e-15)
(0 -0 -5.46744e-15)
(0 -0 1.24342e-14)
(0 -0 -5.29301e-12)
(0 -0 7.0451e-12)
(0 -0 -1.65818e-12)
(0 -0 3.37101e-13)
(0 -0 -1.72787e-13)
(0 -0 -7.73044e-14)
(0 -0 -1.15557e-13)
(0 -0 -8.10149e-14)
(0 -0 -8.4046e-14)
(0 -0 -7.98248e-14)
(0 -0 -7.74906e-14)
(0 -0 -7.99459e-14)
(0 -0 -5.71076e-14)
(0 -0 -8.73987e-14)
(0 -0 -8.75591e-14)
(0 -0 -5.84177e-14)
(0 -0 -2.60362e-14)
(0 -0 7.7106e-15)
(0 -0 -1.70702e-14)
(0 -0 1.23137e-14)
(0 -0 6.38322e-14)
(0 -0 1.88563e-12)
(0 -0 -4.94714e-13)
(0 -0 4.94612e-14)
(0 -0 -1.11009e-13)
(0 -0 -5.15638e-14)
(0 -0 5.05856e-15)
(0 -0 -5.25411e-14)
(0 -0 -6.7133e-14)
(0 -0 -3.33863e-14)
(0 -0 -1.79816e-14)
(0 -0 7.73352e-15)
(0 -0 -3.16538e-14)
(0 -0 -4.28563e-14)
(0 -0 -3.13295e-14)
(0 -0 4.87158e-14)
(0 -0 4.44627e-14)
(0 -0 -1.4884e-15)
(0 -0 2.01527e-14)
(0 -0 -2.38679e-14)
(0 -0 2.81148e-12)
(0 -0 -7.89631e-12)
(0 -0 1.79326e-12)
(0 -0 -3.62726e-13)
(0 -0 2.45566e-13)
(0 -0 8.31121e-14)
(0 -0 1.12876e-13)
(0 -0 6.02116e-14)
(0 -0 1.34303e-13)
(0 -0 1.12258e-13)
(0 -0 1.18715e-13)
(0 -0 8.82548e-14)
(0 -0 1.85756e-14)
(0 -0 1.22624e-14)
(0 -0 1.09111e-15)
(0 -0 3.33919e-14)
(0 -0 1.91789e-15)
(0 -0 1.10403e-15)
(0 -0 -2.77466e-14)
(0 -0 2.10749e-15)
(0 -0 -1.16933e-12)
(0 -0 2.3022e-12)
(0 -0 -6.4625e-13)
(0 -0 2.6325e-14)
(0 -0 -8.62428e-14)
(0 -0 -7.14606e-14)
(0 -0 -4.48928e-14)
(0 -0 -1.42872e-14)
(0 -0 -4.25407e-14)
(0 -0 -4.92508e-14)
(0 -0 -9.07563e-14)
(0 -0 -1.24308e-13)
(0 -0 -9.86439e-14)
(0 -0 -5.34826e-14)
(0 -0 -1.02785e-14)
(0 -0 -5.54731e-14)
(0 -0 -3.91104e-14)
(0 -0 1.38885e-15)
(0 -0 4.01156e-14)
(0 -0 9.43779e-15)
(0 -0 -5.44238e-12)
(0 -0 8.07472e-12)
(0 -0 -1.62632e-12)
(0 -0 4.67012e-13)
(0 -0 -1.06061e-13)
(0 -0 5.25636e-14)
(0 -0 7.71642e-15)
(0 -0 2.67895e-14)
(0 -0 -3.79194e-16)
(0 -0 4.68487e-15)
(0 -0 -7.31101e-16)
(0 -0 1.59454e-14)
(0 -0 7.1309e-14)
(0 -0 6.08306e-14)
(0 -0 6.712e-14)
(0 -0 5.96712e-14)
(0 -0 2.51546e-14)
(0 -0 -1.96449e-15)
(0 -0 2.24379e-15)
(0 -0 3.10125e-14)
)
;

boundaryField
{
    movingWall
    {
        type            calculated;
        value           nonuniform List<vector> 
20
(
(0 -0 -1.09375e-11)
(0 -0 9.84587e-12)
(0 -0 -1.5225e-12)
(0 -0 8.12483e-13)
(0 -0 2.4921e-13)
(0 -0 2.91912e-13)
(0 -0 1.85352e-13)
(0 -0 2.66138e-13)
(0 -0 2.66074e-13)
(0 -0 2.71138e-13)
(0 -0 2.65722e-13)
(0 -0 2.55294e-13)
(0 -0 3.00856e-13)
(0 -0 1.84256e-13)
(0 -0 1.01728e-13)
(0 -0 1.38688e-13)
(0 -0 8.68674e-14)
(0 -0 -1.96449e-15)
(0 -0 2.24379e-15)
(0 -0 4.83164e-14)
)
;
    }
    fixedWalls
    {
        type            calculated;
        value           nonuniform List<vector> 
60
(
(0 -0 5.56267e-11)
(0 -0 5.09822e-12)
(0 -0 -5.0016e-11)
(0 -0 3.95728e-11)
(0 -0 -5.06725e-12)
(0 -0 -3.38448e-11)
(0 -0 4.19378e-11)
(0 -0 -7.97773e-12)
(0 -0 -2.60512e-11)
(0 -0 3.4749e-11)
(0 -0 -3.1579e-11)
(0 -0 2.50383e-11)
(0 -0 -3.4741e-12)
(0 -0 -2.79299e-11)
(0 -0 4.78742e-11)
(0 -0 -3.05309e-11)
(0 -0 -7.75367e-12)
(0 -0 3.37757e-11)
(0 -0 -1.06191e-11)
(0 -0 -3.3535e-11)
(0 -0 -9.93974e-15)
(0 -0 6.98894e-15)
(0 -0 3.69407e-14)
(0 -0 -5.8511e-15)
(0 -0 4.16377e-14)
(0 -0 -6.20063e-15)
(0 -0 -1.46173e-14)
(0 -0 1.94006e-15)
(0 -0 4.74116e-15)
(0 -0 2.96337e-14)
(0 -0 2.04505e-14)
(0 -0 -8.03818e-15)
(0 -0 -5.99384e-15)
(0 -0 1.24259e-14)
(0 -0 2.03118e-14)
(0 -0 1.41863e-14)
(0 -0 -1.40311e-14)
(0 -0 6.47643e-15)
(0 -0 2.84961e-15)
(0 -0 3.09115e-14)
(0 -0 1.88221e-11)
(0 -0 -1.5811e-11)
(0 -0 3.03742e-12)
(0 -0 -9.78867e-13)
(0 -0 -2.49036e-14)
(0 -0 -2.13735e-13)
(0 -0 -3.49434e-13)
(0 -0 -2.1198e-13)
(0 -0 -2.94273e-13)
(0 -0 -1.70268e-13)
(0 -0 -1.71912e-13)
(0 -0 -8.75638e-14)
(0 -0 -5.26526e-14)
(0 -0 -5.84606e-14)
(0 -0 6.59225e-14)
(0 -0 -1.47872e-14)
(0 -0 9.75129e-14)
(0 -0 -2.54538e-14)
(0 -0 -3.98346e-14)
(0 -0 -5.39632e-14)
)
;
    }
    frontAndBack
    {
        type            empty;
    }
}


// ************************************************************************* //
