/*--------------------------------*- C++ -*----------------------------------*\
| =========                 |                                                 |
| \\      /  F ield         | OpenFOAM: The Open Source CFD Toolbox           |
|  \\    /   O peration     | Version:  2312                                  |
|   \\  /    A nd           | Website:  www.openfoam.com                      |
|    \\/     M anipulation  |                                                 |
\*---------------------------------------------------------------------------*/
FoamFile
{
    version     2.0;
    format      ascii;
    arch        "LSB;label=32;scalar=64";
    class       volVectorField;
    location    "8.875";
    object      diffU;
}
// * * * * * * * * * * * * * * * * * * * * * * * * * * * * * * * * * * * * * //

dimensions      [0 1 -1 0 0 0 0];

internalField   nonuniform List<vector> 
400
(
(0 0 0)
(1.12133e-14 -1.40226e-13 0)
(8.88178e-15 -1.10059e-13 0)
(8.43769e-15 -1.17122e-13 0)
(8.65974e-15 -1.15637e-13 0)
(8.65974e-15 -1.15922e-13 0)
(8.54872e-15 -1.15877e-13 0)
(8.43769e-15 -1.15977e-13 0)
(8.43769e-15 -1.16095e-13 0)
(8.77076e-15 -1.16032e-13 0)
(8.54872e-15 -1.15864e-13 0)
(8.54872e-15 -1.15819e-13 0)
(8.43769e-15 -1.158e-13 0)
(8.21565e-15 -1.15879e-13 0)
(7.99361e-15 -1.15912e-13 0)
(7.88258e-15 -1.15886e-13 0)
(7.77156e-15 -1.15888e-13 0)
(7.10543e-15 -1.16027e-13 0)
(7.54952e-15 -1.16063e-13 0)
(7.54952e-15 -1.16036e-13 0)
(1.94289e-14 -9.49142e-14 0)
(2.88658e-15 -1.20167e-13 0)
(6.66134e-15 -1.14935e-13 0)
(7.32747e-15 -1.16214e-13 0)
(7.10543e-15 -1.15986e-13 0)
(7.10543e-15 -1.15936e-13 0)
(7.32747e-15 -1.15937e-13 0)
(7.54952e-15 -1.15998e-13 0)
(7.54952e-15 -1.1612e-13 0)
(7.32747e-15 -1.16053e-13 0)
(7.10543e-15 -1.15958e-13 0)
(7.32747e-15 -1.15922e-13 0)
(7.54952e-15 -1.15788e-13 0)
(7.54952e-15 -1.15796e-13 0)
(7.54952e-15 -1.15877e-13 0)
(7.77156e-15 -1.15811e-13 0)
(7.99361e-15 -1.15777e-13 0)
(8.10463e-15 -1.15893e-13 0)
(7.54952e-15 -1.16064e-13 0)
(7.77156e-15 -1.16059e-13 0)
(1.29896e-14 -2.05943e-13 0)
(7.54952e-15 -9.75331e-14 0)
(8.21565e-15 -1.20432e-13 0)
(7.77156e-15 -1.15046e-13 0)
(7.88258e-15 -1.16044e-13 0)
(7.77156e-15 -1.1583e-13 0)
(7.54952e-15 -1.16056e-13 0)
(7.54952e-15 -1.16071e-13 0)
(7.54952e-15 -1.16055e-13 0)
(7.32747e-15 -1.16052e-13 0)
(7.54952e-15 -1.16061e-13 0)
(7.32747e-15 -1.15936e-13 0)
(7.10543e-15 -1.15882e-13 0)
(7.54952e-15 -1.15897e-13 0)
(7.32747e-15 -1.15989e-13 0)
(7.32747e-15 -1.15925e-13 0)
(7.54952e-15 -1.15861e-13 0)
(7.54952e-15 -1.15942e-13 0)
(7.77156e-15 -1.16091e-13 0)
(7.77156e-15 -1.1603e-13 0)
(-7.32747e-15 -8.57125e-14 0)
(1.15463e-14 -1.22096e-13 0)
(7.10543e-15 -1.14438e-13 0)
(7.54952e-15 -1.16026e-13 0)
(7.54952e-15 -1.15726e-13 0)
(7.88258e-15 -1.15943e-13 0)
(7.88258e-15 -1.1599e-13 0)
(7.88258e-15 -1.15957e-13 0)
(7.77156e-15 -1.15907e-13 0)
(7.54952e-15 -1.15942e-13 0)
(7.54952e-15 -1.15982e-13 0)
(7.32747e-15 -1.15858e-13 0)
(7.77156e-15 -1.15968e-13 0)
(7.99361e-15 -1.16054e-13 0)
(8.10463e-15 -1.1601e-13 0)
(7.88258e-15 -1.15979e-13 0)
(7.99361e-15 -1.159e-13 0)
(7.99361e-15 -1.16022e-13 0)
(7.77156e-15 -1.16102e-13 0)
(7.77156e-15 -1.1606e-13 0)
(1.94289e-14 -8.37148e-14 0)
(4.21885e-15 -1.22894e-13 0)
(7.77156e-15 -1.1427e-13 0)
(7.32747e-15 -1.16186e-13 0)
(7.77156e-15 -1.15929e-13 0)
(7.77156e-15 -1.16138e-13 0)
(7.88258e-15 -1.16069e-13 0)
(7.88258e-15 -1.16029e-13 0)
(7.88258e-15 -1.15967e-13 0)
(8.21565e-15 -1.15886e-13 0)
(8.10463e-15 -1.1591e-13 0)
(8.21565e-15 -1.16e-13 0)
(8.10463e-15 -1.16105e-13 0)
(7.99361e-15 -1.16077e-13 0)
(7.77156e-15 -1.15936e-13 0)
(7.54952e-15 -1.15864e-13 0)
(7.54952e-15 -1.159e-13 0)
(7.77156e-15 -1.15989e-13 0)
(7.88258e-15 -1.16041e-13 0)
(7.88258e-15 -1.16009e-13 0)
(-3.9968e-15 -1.92004e-13 0)
(1.13243e-14 -9.95667e-14 0)
(7.88258e-15 -1.19584e-13 0)
(8.54872e-15 -1.15113e-13 0)
(8.43769e-15 -1.16125e-13 0)
(8.32667e-15 -1.15944e-13 0)
(8.10463e-15 -1.16002e-13 0)
(8.21565e-15 -1.16026e-13 0)
(7.88258e-15 -1.16097e-13 0)
(7.88258e-15 -1.16023e-13 0)
(7.99361e-15 -1.15964e-13 0)
(7.77156e-15 -1.15995e-13 0)
(7.99361e-15 -1.16002e-13 0)
(7.54952e-15 -1.15977e-13 0)
(7.77156e-15 -1.1591e-13 0)
(7.88258e-15 -1.15852e-13 0)
(7.77156e-15 -1.15991e-13 0)
(7.88258e-15 -1.16007e-13 0)
(7.77156e-15 -1.15934e-13 0)
(7.77156e-15 -1.15921e-13 0)
(1.83187e-14 -2.67452e-14 0)
(6.21725e-15 -1.34372e-13 0)
(8.77076e-15 -1.11442e-13 0)
(7.77156e-15 -1.16885e-13 0)
(7.99361e-15 -1.15778e-13 0)
(7.77156e-15 -1.16001e-13 0)
(7.54952e-15 -1.15889e-13 0)
(7.99361e-15 -1.15893e-13 0)
(7.99361e-15 -1.15985e-13 0)
(8.21565e-15 -1.15942e-13 0)
(8.10463e-15 -1.15898e-13 0)
(7.88258e-15 -1.15891e-13 0)
(8.10463e-15 -1.15844e-13 0)
(7.77156e-15 -1.15755e-13 0)
(7.54952e-15 -1.15843e-13 0)
(7.54952e-15 -1.16027e-13 0)
(7.77156e-15 -1.16006e-13 0)
(7.77156e-15 -1.15855e-13 0)
(7.88258e-15 -1.15833e-13 0)
(7.77156e-15 -1.15937e-13 0)
(1.55431e-15 -1.33705e-13 0)
(7.10543e-15 -1.12586e-13 0)
(5.9952e-15 -1.1678e-13 0)
(7.77156e-15 -1.15745e-13 0)
(7.32747e-15 -1.15888e-13 0)
(7.54952e-15 -1.15912e-13 0)
(7.54952e-15 -1.1599e-13 0)
(7.54952e-15 -1.16035e-13 0)
(7.32747e-15 -1.15978e-13 0)
(7.32747e-15 -1.15913e-13 0)
(7.10543e-15 -1.15885e-13 0)
(7.32747e-15 -1.15966e-13 0)
(7.32747e-15 -1.15929e-13 0)
(7.32747e-15 -1.15829e-13 0)
(7.54952e-15 -1.15866e-13 0)
(7.77156e-15 -1.1601e-13 0)
(7.10543e-15 -1.16038e-13 0)
(7.54952e-15 -1.16006e-13 0)
(7.77156e-15 -1.15942e-13 0)
(7.77156e-15 -1.15946e-13 0)
(7.88258e-15 -2.06844e-13 0)
(9.4369e-15 -9.62682e-14 0)
(8.77076e-15 -1.20767e-13 0)
(7.54952e-15 -1.1501e-13 0)
(8.10463e-15 -1.16222e-13 0)
(8.10463e-15 -1.15967e-13 0)
(7.88258e-15 -1.16026e-13 0)
(8.21565e-15 -1.16022e-13 0)
(8.21565e-15 -1.15928e-13 0)
(8.32667e-15 -1.15943e-13 0)
(8.32667e-15 -1.15984e-13 0)
(8.32667e-15 -1.15897e-13 0)
(8.32667e-15 -1.15802e-13 0)
(8.10463e-15 -1.15916e-13 0)
(7.99361e-15 -1.15926e-13 0)
(8.21565e-15 -1.15869e-13 0)
(8.21565e-15 -1.15931e-13 0)
(7.99361e-15 -1.16014e-13 0)
(7.88258e-15 -1.15951e-13 0)
(7.77156e-15 -1.15877e-13 0)
(1.77636e-15 2.74805e-14 0)
(9.4369e-15 -1.4673e-13 0)
(7.54952e-15 -1.08835e-13 0)
(8.32667e-15 -1.17571e-13 0)
(7.99361e-15 -1.15623e-13 0)
(8.10463e-15 -1.15998e-13 0)
(7.88258e-15 -1.15812e-13 0)
(7.88258e-15 -1.15865e-13 0)
(7.77156e-15 -1.15908e-13 0)
(7.54952e-15 -1.15926e-13 0)
(7.88258e-15 -1.1591e-13 0)
(7.32747e-15 -1.15846e-13 0)
(7.54952e-15 -1.15867e-13 0)
(7.54952e-15 -1.15971e-13 0)
(7.54952e-15 -1.16024e-13 0)
(7.54952e-15 -1.15942e-13 0)
(7.54952e-15 -1.15875e-13 0)
(7.77156e-15 -1.15893e-13 0)
(7.77156e-15 -1.15885e-13 0)
(7.77156e-15 -1.15861e-13 0)
(5.77316e-15 -2.31182e-13 0)
(6.43929e-15 -9.22788e-14 0)
(6.88338e-15 -1.2166e-13 0)
(7.54952e-15 -1.14909e-13 0)
(7.77156e-15 -1.16252e-13 0)
(7.99361e-15 -1.15884e-13 0)
(7.54952e-15 -1.15928e-13 0)
(8.21565e-15 -1.15939e-13 0)
(8.32667e-15 -1.15919e-13 0)
(8.21565e-15 -1.15897e-13 0)
(8.21565e-15 -1.15797e-13 0)
(7.99361e-15 -1.15817e-13 0)
(7.99361e-15 -1.15914e-13 0)
(7.99361e-15 -1.15877e-13 0)
(7.77156e-15 -1.15897e-13 0)
(7.32747e-15 -1.16037e-13 0)
(7.54952e-15 -1.16069e-13 0)
(7.54952e-15 -1.16044e-13 0)
(7.77156e-15 -1.1595e-13 0)
(7.88258e-15 -1.15889e-13 0)
(2.33147e-14 -7.7411e-14 0)
(5.9952e-15 -1.24012e-13 0)
(9.88098e-15 -1.14208e-13 0)
(6.88338e-15 -1.16483e-13 0)
(7.54952e-15 -1.16005e-13 0)
(7.32747e-15 -1.1601e-13 0)
(7.10543e-15 -1.16074e-13 0)
(7.10543e-15 -1.16003e-13 0)
(7.10543e-15 -1.15854e-13 0)
(7.10543e-15 -1.1582e-13 0)
(7.32747e-15 -1.1583e-13 0)
(7.32747e-15 -1.15827e-13 0)
(7.32747e-15 -1.15895e-13 0)
(7.32747e-15 -1.15922e-13 0)
(7.88258e-15 -1.15882e-13 0)
(8.10463e-15 -1.15963e-13 0)
(7.99361e-15 -1.15946e-13 0)
(7.77156e-15 -1.15943e-13 0)
(7.88258e-15 -1.1594e-13 0)
(7.77156e-15 -1.15923e-13 0)
(-1.35447e-14 -7.38763e-14 0)
(1.03251e-14 -1.24496e-13 0)
(5.10703e-15 -1.13789e-13 0)
(7.88258e-15 -1.16314e-13 0)
(6.88338e-15 -1.15825e-13 0)
(7.10543e-15 -1.1592e-13 0)
(7.32747e-15 -1.15954e-13 0)
(7.32747e-15 -1.15984e-13 0)
(7.32747e-15 -1.15957e-13 0)
(7.54952e-15 -1.15996e-13 0)
(7.32747e-15 -1.16047e-13 0)
(7.32747e-15 -1.1606e-13 0)
(7.54952e-15 -1.16098e-13 0)
(7.10543e-15 -1.16138e-13 0)
(7.10543e-15 -1.16027e-13 0)
(7.32747e-15 -1.1591e-13 0)
(7.10543e-15 -1.15977e-13 0)
(7.77156e-15 -1.15999e-13 0)
(7.54952e-15 -1.15985e-13 0)
(7.54952e-15 -1.16017e-13 0)
(2.38698e-14 -1.96522e-13 0)
(5.77316e-15 -9.89667e-14 0)
(9.65894e-15 -1.19733e-13 0)
(7.77156e-15 -1.14982e-13 0)
(7.99361e-15 -1.16162e-13 0)
(7.88258e-15 -1.16059e-13 0)
(8.32667e-15 -1.16061e-13 0)
(8.32667e-15 -1.16006e-13 0)
(8.10463e-15 -1.15992e-13 0)
(8.21565e-15 -1.15981e-13 0)
(8.21565e-15 -1.15907e-13 0)
(8.10463e-15 -1.1585e-13 0)
(7.99361e-15 -1.15819e-13 0)
(7.77156e-15 -1.15979e-13 0)
(7.54952e-15 -1.16086e-13 0)
(7.88258e-15 -1.16102e-13 0)
(8.10463e-15 -1.16117e-13 0)
(7.77156e-15 -1.16005e-13 0)
(8.10463e-15 -1.15993e-13 0)
(7.99361e-15 -1.16007e-13 0)
(-6.43929e-15 -2.69634e-14 0)
(9.88098e-15 -1.35041e-13 0)
(6.43929e-15 -1.11557e-13 0)
(7.77156e-15 -1.16859e-13 0)
(7.54952e-15 -1.15688e-13 0)
(7.88258e-15 -1.15957e-13 0)
(7.32747e-15 -1.15923e-13 0)
(7.32747e-15 -1.15882e-13 0)
(7.32747e-15 -1.15923e-13 0)
(7.32747e-15 -1.15956e-13 0)
(7.54952e-15 -1.15963e-13 0)
(7.54952e-15 -1.15972e-13 0)
(7.88258e-15 -1.15941e-13 0)
(7.99361e-15 -1.16002e-13 0)
(7.88258e-15 -1.16135e-13 0)
(7.88258e-15 -1.16121e-13 0)
(7.54952e-15 -1.1605e-13 0)
(7.54952e-15 -1.15967e-13 0)
(7.77156e-15 -1.15965e-13 0)
(7.77156e-15 -1.15975e-13 0)
(1.77636e-14 -1.73426e-13 0)
(5.10703e-15 -1.03632e-13 0)
(7.32747e-15 -1.1904e-13 0)
(7.32747e-15 -1.15526e-13 0)
(7.32747e-15 -1.16185e-13 0)
(7.88258e-15 -1.15926e-13 0)
(7.88258e-15 -1.16022e-13 0)
(8.10463e-15 -1.16045e-13 0)
(7.99361e-15 -1.16014e-13 0)
(8.21565e-15 -1.16013e-13 0)
(7.99361e-15 -1.16038e-13 0)
(8.10463e-15 -1.16096e-13 0)
(7.88258e-15 -1.16142e-13 0)
(8.21565e-15 -1.16034e-13 0)
(7.99361e-15 -1.1601e-13 0)
(7.88258e-15 -1.15997e-13 0)
(7.99361e-15 -1.16017e-13 0)
(7.77156e-15 -1.16036e-13 0)
(7.77156e-15 -1.16008e-13 0)
(7.77156e-15 -1.15995e-13 0)
(-1.17684e-14 -1.33792e-13 0)
(1.32117e-14 -1.13072e-13 0)
(7.77156e-15 -1.16851e-13 0)
(8.43769e-15 -1.1604e-13 0)
(7.99361e-15 -1.16199e-13 0)
(8.10463e-15 -1.16187e-13 0)
(8.21565e-15 -1.16115e-13 0)
(8.10463e-15 -1.1603e-13 0)
(7.99361e-15 -1.15935e-13 0)
(8.21565e-15 -1.15818e-13 0)
(8.10463e-15 -1.15827e-13 0)
(8.10463e-15 -1.1594e-13 0)
(7.99361e-15 -1.16126e-13 0)
(7.99361e-15 -1.16096e-13 0)
(7.88258e-15 -1.1598e-13 0)
(7.88258e-15 -1.15964e-13 0)
(7.88258e-15 -1.15902e-13 0)
(7.77156e-15 -1.15914e-13 0)
(7.88258e-15 -1.1595e-13 0)
(7.77156e-15 -1.16015e-13 0)
(1.9762e-14 -2.78758e-14 0)
(5.10703e-15 -1.35217e-13 0)
(8.21565e-15 -1.11495e-13 0)
(7.32747e-15 -1.16904e-13 0)
(7.77156e-15 -1.15756e-13 0)
(7.32747e-15 -1.16017e-13 0)
(7.10543e-15 -1.15883e-13 0)
(7.10543e-15 -1.15945e-13 0)
(7.10543e-15 -1.16044e-13 0)
(7.32747e-15 -1.16131e-13 0)
(7.10543e-15 -1.16161e-13 0)
(7.99361e-15 -1.16163e-13 0)
(7.88258e-15 -1.16116e-13 0)
(7.54952e-15 -1.15993e-13 0)
(7.88258e-15 -1.15776e-13 0)
(7.77156e-15 -1.15784e-13 0)
(7.32747e-15 -1.15938e-13 0)
(7.77156e-15 -1.16009e-13 0)
(7.77156e-15 -1.1597e-13 0)
(7.88258e-15 -1.16008e-13 0)
(2.62013e-14 -1.54143e-13 0)
(2.88658e-15 -1.07329e-13 0)
(8.10463e-15 -1.18017e-13 0)
(7.54952e-15 -1.15556e-13 0)
(7.77156e-15 -1.16111e-13 0)
(7.88258e-15 -1.15939e-13 0)
(7.88258e-15 -1.16006e-13 0)
(8.10463e-15 -1.16112e-13 0)
(8.10463e-15 -1.16116e-13 0)
(8.21565e-15 -1.16176e-13 0)
(7.99361e-15 -1.16188e-13 0)
(7.54952e-15 -1.16097e-13 0)
(7.54952e-15 -1.15928e-13 0)
(7.10543e-15 -1.15911e-13 0)
(7.32747e-15 -1.15939e-13 0)
(7.54952e-15 -1.15953e-13 0)
(7.77156e-15 -1.16037e-13 0)
(7.77156e-15 -1.16093e-13 0)
(7.77156e-15 -1.16033e-13 0)
(7.77156e-15 -1.16022e-13 0)
(-1.55431e-15 -1.87325e-13 0)
(1.13243e-14 -1.00968e-13 0)
(8.54872e-15 -1.19686e-13 0)
(8.65974e-15 -1.15383e-13 0)
(8.54872e-15 -1.1622e-13 0)
(8.32667e-15 -1.15994e-13 0)
(8.54872e-15 -1.16068e-13 0)
(8.32667e-15 -1.16053e-13 0)
(8.21565e-15 -1.15963e-13 0)
(8.21565e-15 -1.15896e-13 0)
(8.10463e-15 -1.15904e-13 0)
(7.99361e-15 -1.159e-13 0)
(8.21565e-15 -1.15912e-13 0)
(8.32667e-15 -1.15992e-13 0)
(8.21565e-15 -1.16143e-13 0)
(8.21565e-15 -1.16117e-13 0)
(7.88258e-15 -1.16019e-13 0)
(7.88258e-15 -1.1603e-13 0)
(7.88258e-15 -1.16024e-13 0)
(7.88258e-15 -1.16027e-13 0)
)
;

boundaryField
{
    movingWall
    {
        type            calculated;
        value           uniform (7.77156e-15 -1.15985e-13 0);
    }
    fixedWalls
    {
        type            calculated;
        value           uniform (7.77156e-15 -1.15985e-13 0);
    }
    frontAndBack
    {
        type            empty;
    }
}


// ************************************************************************* //
