/*--------------------------------*- C++ -*----------------------------------*\
| =========                 |                                                 |
| \\      /  F ield         | OpenFOAM: The Open Source CFD Toolbox           |
|  \\    /   O peration     | Version:  2312                                  |
|   \\  /    A nd           | Website:  www.openfoam.com                      |
|    \\/     M anipulation  |                                                 |
\*---------------------------------------------------------------------------*/
FoamFile
{
    version     2.0;
    format      ascii;
    arch        "LSB;label=32;scalar=64";
    class       volScalarField;
    location    "8.875";
    object      divU;
}
// * * * * * * * * * * * * * * * * * * * * * * * * * * * * * * * * * * * * * //

dimensions      [0 0 -1 0 0 0 0];

internalField   nonuniform List<scalar> 
400
(
1.32815e-11
-1.94772e-12
4.26588e-13
-1.63599e-13
6.19213e-14
1.13099e-14
-3.86237e-14
-4.74887e-16
2.65303e-15
1.57034e-14
-1.2255e-14
-4.0936e-15
1.1107e-14
-2.46513e-14
1.8062e-14
2.25121e-16
-5.07417e-14
-2.20364e-14
1.14728e-14
5.42101e-14
-1.98951e-11
2.97205e-12
-5.56493e-13
2.06612e-13
-3.30773e-14
2.05189e-14
2.48087e-14
1.72591e-14
-2.04136e-14
-6.76459e-14
2.22843e-14
-1.5798e-14
3.00007e-14
6.62535e-16
3.74688e-14
2.34516e-14
3.3291e-14
-4.05608e-14
8.72626e-15
0
1.40946e-12
-6.63157e-13
8.95784e-14
-4.57079e-14
2.00402e-14
-6.15567e-14
-7.55653e-15
-5.73874e-15
8.41609e-16
-2.38504e-15
1.98854e-14
-9.42808e-15
-1.50992e-14
1.90867e-15
-2.99679e-14
6.61598e-15
-6.12263e-15
2.77917e-14
4.86899e-15
0
1.10318e-11
-1.08509e-12
2.44967e-13
-7.84192e-14
5.86982e-14
-1.10991e-14
-8.81008e-15
-1.5572e-15
-1.74485e-14
-3.9999e-14
7.86349e-15
-1.58005e-14
7.1007e-14
1.10965e-14
2.47812e-15
-1.44071e-14
1.70829e-14
-3.12031e-14
-1.72631e-14
0
-9.83913e-12
1.08647e-12
-2.15498e-13
9.41897e-14
1.88078e-14
-1.11636e-14
1.70978e-14
-8.43702e-15
1.78348e-14
6.15479e-15
-1.75243e-14
2.46814e-14
-4.08249e-14
-8.33041e-15
-1.4685e-14
-2.87731e-14
3.51013e-14
-2.52967e-15
5.37772e-14
-2.71051e-14
4.8518e-12
7.42443e-14
-1.3991e-14
2.43675e-14
-4.73867e-14
-2.4512e-14
-1.91759e-14
5.13263e-15
-3.81637e-14
5.71442e-16
1.08049e-14
8.42274e-15
1.24272e-14
2.38651e-14
4.88651e-14
-1.79535e-14
-2.97522e-14
1.08916e-14
2.03316e-14
0
6.74916e-12
-2.28478e-12
4.56177e-13
-1.472e-13
3.04675e-14
-2.13358e-14
9.10806e-15
5.8455e-14
7.49893e-16
3.86608e-14
-8.40095e-15
1.13523e-14
-7.34409e-15
-1.54669e-14
-5.5078e-14
4.75859e-14
-7.31443e-15
3.80452e-14
-3.46867e-14
0
-1.87296e-11
4.2903e-12
-9.10057e-13
3.11284e-13
-6.81879e-14
3.62613e-14
-4.50553e-15
-8.67126e-15
-2.07251e-14
1.14167e-14
-1.69603e-14
1.07957e-14
-3.11472e-15
2.25881e-14
4.49609e-14
-7.20721e-14
2.21149e-16
7.64101e-14
-1.93843e-14
2.71051e-14
1.63172e-11
-3.32533e-12
6.16253e-13
-2.50853e-13
9.38926e-14
5.721e-16
1.32851e-14
3.54459e-14
4.05695e-14
1.01132e-14
7.65471e-15
2.27485e-14
-2.40168e-14
-4.58507e-14
-2.51261e-14
4.31326e-14
-1.05827e-14
-2.07542e-14
1.34832e-14
-2.71051e-14
-2.87314e-12
9.7674e-13
-2.04826e-13
3.03202e-14
9.58588e-15
8.86591e-15
-4.0777e-15
-1.0427e-14
1.43761e-14
1.47619e-14
-2.79309e-14
-2.34518e-14
1.89188e-14
1.2274e-14
4.9664e-15
-2.79478e-14
-2.44459e-14
5.75225e-14
1.35796e-14
0
-1.0842e-11
2.40819e-12
-3.89684e-13
1.39198e-13
5.26848e-14
-1.94298e-14
-3.18819e-15
3.00058e-14
-7.40601e-15
-1.77659e-15
-1.99031e-14
5.59882e-15
-1.09812e-14
-9.99139e-15
-6.2097e-14
-3.00432e-14
2.26228e-14
5.25453e-14
-1.91112e-14
0
1.71304e-11
-4.58113e-12
8.85251e-13
-4.07853e-13
9.53562e-14
-5.01744e-14
-5.79091e-15
-1.57907e-15
-1.11955e-14
4.24864e-14
-1.77724e-14
-1.87118e-14
-2.93083e-14
-8.95198e-15
8.74945e-14
9.80873e-15
-2.2357e-14
-2.42733e-14
4.46952e-15
-2.71051e-14
-1.37965e-11
4.37444e-12
-8.32751e-13
3.38541e-13
-8.29695e-14
5.34004e-14
-4.47329e-15
-1.94684e-15
-2.49523e-14
-6.69619e-16
-2.55114e-14
6.06682e-15
5.34406e-15
-6.8788e-14
3.99575e-14
-5.82817e-14
4.18963e-14
2.37284e-14
-8.03709e-16
5.42101e-14
6.09864e-12
-2.45343e-12
4.20441e-13
-2.03837e-13
3.91876e-14
-4.47795e-15
5.28048e-14
-1.88593e-14
5.60123e-15
3.35054e-15
-1.71378e-14
1.48377e-14
-6.08425e-15
-1.0604e-15
2.07977e-15
2.89724e-14
-1.95705e-14
-1.91256e-16
1.19852e-15
-5.42101e-14
1.13841e-12
8.20555e-13
-1.60831e-13
9.40709e-14
9.74535e-15
-4.54736e-14
-2.45759e-14
4.33712e-15
3.37939e-15
1.7645e-16
2.40318e-14
1.73445e-14
1.58283e-14
-3.37045e-14
9.64545e-15
-1.47451e-14
-3.66514e-14
5.09607e-14
-2.66023e-16
0
-9.97466e-12
1.17431e-12
-3.10751e-13
9.46293e-14
-1.42492e-14
6.69965e-14
1.04528e-14
-1.04733e-14
2.16744e-15
1.4019e-14
1.05492e-14
-6.5511e-15
-2.97931e-14
-1.59738e-14
2.51169e-14
2.81211e-14
-2.18591e-14
-2.50864e-14
1.2568e-15
0
1.3146e-11
-1.19817e-12
2.53978e-13
-9.73452e-14
2.86346e-14
3.08307e-14
2.43659e-14
-2.75601e-14
-8.05745e-16
2.20005e-15
-2.88306e-14
-1.32501e-14
-9.34893e-17
1.52207e-14
-5.60398e-15
2.23017e-14
-1.39846e-14
3.18151e-14
-2.21113e-14
0
-1.11131e-12
-5.69663e-13
1.10315e-13
5.27793e-15
1.03588e-14
1.46878e-15
-4.60348e-14
-8.66208e-15
-1.88852e-14
2.06139e-14
-1.07061e-14
5.23548e-14
-7.38914e-15
6.67799e-15
2.5559e-14
-8.49958e-14
-3.97003e-16
4.1107e-14
2.3845e-14
-2.71051e-14
-1.45825e-11
1.6355e-12
-3.56354e-13
1.30256e-13
-8.93074e-15
3.744e-15
1.67298e-14
-1.94605e-14
4.33868e-14
-1.01031e-14
-3.92687e-14
-2.9735e-14
-1.40205e-14
-4.74283e-14
4.30237e-14
1.71702e-14
-8.50683e-15
-1.51979e-14
-8.64211e-15
0
1.03812e-11
-1.35525e-12
2.98156e-13
-1.0842e-13
0
0
0
-2.71051e-14
0
0
-2.71051e-14
0
5.42101e-14
-2.71051e-14
0
-2.71051e-14
-2.71051e-14
2.71051e-14
0
-2.71051e-14
)
;

boundaryField
{
    movingWall
    {
        type            extrapolatedCalculated;
        value           nonuniform List<scalar> 
20
(
1.03812e-11
-1.35525e-12
2.98156e-13
-1.0842e-13
0
0
0
-2.71051e-14
0
0
-2.71051e-14
0
5.42101e-14
-2.71051e-14
0
-2.71051e-14
-2.71051e-14
2.71051e-14
0
-2.71051e-14
)
;
    }
    fixedWalls
    {
        type            extrapolatedCalculated;
        value           nonuniform List<scalar> 
60
(
1.32815e-11
-1.98951e-11
1.40946e-12
1.10318e-11
-9.83913e-12
4.8518e-12
6.74916e-12
-1.87296e-11
1.63172e-11
-2.87314e-12
-1.0842e-11
1.71304e-11
-1.37965e-11
6.09864e-12
1.13841e-12
-9.97466e-12
1.3146e-11
-1.11131e-12
-1.45825e-11
1.03812e-11
5.42101e-14
0
0
0
-2.71051e-14
0
0
2.71051e-14
-2.71051e-14
0
0
-2.71051e-14
5.42101e-14
-5.42101e-14
0
0
0
-2.71051e-14
0
-2.71051e-14
1.32815e-11
-1.94772e-12
4.26588e-13
-1.63599e-13
6.19213e-14
1.13099e-14
-3.86237e-14
-4.74887e-16
2.65303e-15
1.57034e-14
-1.2255e-14
-4.0936e-15
1.1107e-14
-2.46513e-14
1.8062e-14
2.25121e-16
-5.07417e-14
-2.20364e-14
1.14728e-14
5.42101e-14
)
;
    }
    frontAndBack
    {
        type            empty;
    }
}


// ************************************************************************* //
