/*--------------------------------*- C++ -*----------------------------------*\
| =========                 |                                                 |
| \\      /  F ield         | OpenFOAM: The Open Source CFD Toolbox           |
|  \\    /   O peration     | Version:  2312                                  |
|   \\  /    A nd           | Website:  www.openfoam.com                      |
|    \\/     M anipulation  |                                                 |
\*---------------------------------------------------------------------------*/
FoamFile
{
    version     2.0;
    format      ascii;
    arch        "LSB;label=32;scalar=64";
    class       volScalarField;
    location    "8.875";
    object      enstrophyField;
}
// * * * * * * * * * * * * * * * * * * * * * * * * * * * * * * * * * * * * * //

dimensions      [0 0 -2 0 0 0 0];

internalField   nonuniform List<scalar> 
400
(
3.86763e-23
5.87881e-23
2.66888e-24
1.87262e-25
2.16637e-27
1.30996e-27
1.78457e-27
2.8879e-27
1.78145e-27
4.84381e-28
2.26774e-28
1.14188e-27
1.8166e-27
7.34646e-28
2.40817e-31
3.06704e-30
8.48797e-28
6.72527e-28
1.42477e-27
8.2058e-29
7.52333e-26
1.27287e-24
1.13597e-25
2.81615e-28
5.94975e-27
6.41512e-27
8.35571e-27
4.06534e-27
5.30176e-27
1.15128e-26
4.45866e-27
1.16229e-26
1.09725e-26
2.62026e-27
1.38736e-27
2.0637e-27
1.79368e-28
6.04842e-27
2.50804e-27
1.15459e-28
1.00992e-23
2.93123e-23
1.58138e-24
9.62411e-26
8.78443e-27
3.40228e-27
5.55747e-27
1.46218e-27
1.37042e-27
1.94716e-31
1.19795e-28
1.5986e-28
7.40086e-30
2.10752e-27
1.62402e-27
8.31094e-29
1.34079e-30
8.42843e-30
3.90396e-29
1.12259e-28
1.60714e-24
3.24429e-24
2.01e-25
8.29412e-27
3.42676e-29
1.43258e-27
4.05842e-28
1.77466e-28
1.12008e-30
6.71147e-27
1.04765e-27
3.19763e-27
8.19659e-27
1.70327e-27
1.09144e-27
9.35605e-28
9.20988e-30
1.11979e-27
7.26251e-30
1.84568e-28
2.38443e-24
4.58564e-24
1.58132e-25
3.05562e-26
1.21913e-27
8.44036e-28
1.30866e-28
1.4287e-28
8.23493e-29
2.30285e-28
2.14855e-27
2.7178e-27
6.05609e-28
2.5313e-27
2.84468e-27
6.66898e-30
7.81778e-29
9.97835e-29
1.93918e-30
3.14326e-29
1.69621e-23
2.48666e-23
1.3382e-24
4.25676e-26
6.07034e-27
7.52896e-29
1.05845e-27
4.47858e-29
3.58713e-28
8.72112e-29
3.8189e-30
2.71932e-28
1.60347e-30
4.23028e-29
7.87462e-29
3.26104e-29
1.19543e-28
1.62317e-29
3.6976e-29
6.72382e-29
2.12301e-23
3.25067e-23
1.87882e-24
6.20506e-26
2.50736e-26
9.2643e-28
2.10925e-27
9.98439e-28
5.36014e-27
1.97612e-27
6.44202e-27
3.76032e-27
2.3026e-27
1.47668e-27
3.63069e-28
1.33355e-28
4.85286e-27
4.8606e-27
3.32642e-29
2.014e-28
7.02845e-26
9.72044e-25
4.98891e-26
3.97841e-27
2.51814e-27
5.19602e-29
2.20942e-27
3.3643e-28
8.82749e-28
1.58554e-28
1.77019e-27
1.71462e-27
8.93216e-29
1.1457e-27
2.61469e-27
2.55115e-27
3.57598e-28
9.96959e-28
1.80041e-29
3.39314e-29
2.5693e-23
3.49762e-23
2.07436e-24
8.0121e-26
1.12269e-26
5.96635e-28
5.33608e-28
1.5112e-28
1.07251e-27
1.53059e-29
1.22711e-27
1.65533e-28
1.89516e-30
7.7824e-29
1.13253e-29
3.56195e-28
4.59124e-27
4.25218e-28
8.99557e-29
1.01822e-28
6.59985e-23
8.88903e-23
4.73838e-24
2.30328e-25
1.70074e-26
1.79716e-28
8.17577e-28
4.5512e-29
1.87483e-29
3.83595e-32
3.17238e-29
9.43242e-30
1.07498e-28
1.2385e-28
4.23075e-30
7.61107e-27
3.71079e-27
3.41208e-28
4.59772e-28
2.52551e-28
6.37358e-23
6.3591e-23
3.00802e-24
2.28683e-25
2.47528e-27
3.75067e-27
2.87246e-27
1.51798e-27
1.7063e-27
4.37068e-27
1.93697e-27
6.84887e-29
1.16008e-27
1.56779e-27
9.30124e-28
4.85903e-27
1.50637e-27
2.18543e-27
6.78459e-29
8.57104e-29
1.23961e-23
8.2383e-24
4.19165e-25
1.61476e-26
8.26547e-27
2.76449e-27
1.51006e-27
5.33679e-27
4.95365e-27
4.36098e-28
3.25299e-27
2.8002e-27
1.54121e-28
4.03655e-28
2.98679e-27
2.07069e-29
1.57707e-27
1.43843e-27
4.24624e-28
5.75608e-29
5.55351e-24
7.85741e-24
3.57285e-25
4.86816e-26
7.75035e-28
7.9916e-28
1.42789e-26
3.33031e-27
3.40932e-27
6.89432e-27
3.84107e-27
3.73004e-27
3.97049e-27
2.00611e-28
1.24461e-27
1.75315e-27
3.98604e-29
3.63163e-31
4.18997e-28
5.23088e-30
2.50887e-23
2.99005e-23
1.50865e-24
7.37995e-26
1.78578e-26
2.53901e-27
5.22555e-28
2.3967e-29
3.2184e-30
6.31927e-28
9.85043e-29
3.87818e-29
2.24837e-27
5.83053e-27
4.38009e-27
3.56002e-27
2.56984e-27
7.64138e-29
3.7258e-28
2.90972e-28
2.90325e-23
3.53235e-23
2.12627e-24
6.43918e-26
1.47069e-26
2.77133e-28
1.90411e-27
3.45293e-33
2.76197e-29
8.32173e-30
3.25715e-28
2.52346e-30
2.89313e-28
1.08019e-27
2.18505e-27
3.62952e-29
9.04311e-28
3.53359e-29
1.42782e-27
2.89941e-28
8.08367e-24
1.30732e-23
8.7779e-25
2.08447e-26
7.35852e-27
5.80865e-29
7.23847e-27
1.42808e-27
1.29736e-27
3.50186e-27
1.9572e-27
2.09046e-27
2.1827e-28
8.70147e-29
7.03491e-30
1.84042e-31
4.81499e-28
3.81616e-31
2.65785e-28
5.32154e-30
1.36458e-24
1.38948e-24
8.20995e-26
2.12661e-27
8.75466e-28
1.95847e-27
2.44688e-27
7.99769e-27
8.40337e-27
4.23844e-27
4.62772e-27
4.46776e-28
1.22213e-28
2.3683e-27
8.13813e-28
3.07396e-29
3.7191e-27
1.18235e-29
1.44848e-28
1.2627e-31
4.78352e-24
2.66805e-23
1.67683e-24
5.04555e-26
6.70597e-27
8.63872e-28
1.88432e-27
1.29914e-28
1.7234e-28
6.81481e-29
5.23291e-30
1.71871e-27
2.53543e-27
6.65879e-27
5.2288e-27
2.11859e-27
2.53608e-28
5.32652e-30
9.45711e-33
2.78131e-31
3.49376e-25
4.46756e-24
3.84466e-25
1.51684e-27
7.15436e-27
4.79806e-27
1.16793e-26
1.07262e-26
1.00669e-26
3.92202e-27
5.05507e-27
3.38069e-28
3.58421e-29
3.39931e-27
1.70591e-27
4.14502e-27
4.54307e-27
3.56557e-28
2.00633e-28
1.7482e-28
1.10952e-23
2.19678e-23
8.88566e-25
8.0306e-26
2.04265e-28
2.40889e-27
2.84413e-27
4.21438e-27
4.70849e-27
3.8042e-27
1.44788e-27
2.84561e-31
1.59818e-28
2.67554e-28
7.8324e-29
7.8088e-28
6.42543e-28
3.52954e-28
3.75546e-28
6.18263e-28
)
;

boundaryField
{
    movingWall
    {
        type            calculated;
        value           nonuniform List<scalar> 
20
(
4.38291e-23
3.34971e-23
6.39183e-25
2.4628e-25
3.11899e-26
2.81425e-26
4.65027e-26
2.70369e-26
1.86944e-26
1.68447e-26
8.82177e-27
3.87758e-27
1.41808e-26
1.9783e-26
1.36323e-26
1.80595e-26
1.41257e-27
9.62411e-28
9.99489e-28
1.37645e-27
)
;
    }
    fixedWalls
    {
        type            calculated;
        value           nonuniform List<scalar> 
60
(
1.05867e-21
2.53998e-23
5.5534e-22
6.59609e-23
7.88243e-23
4.58192e-22
6.16947e-22
1.81847e-23
6.624e-22
1.65906e-21
1.16259e-21
1.50584e-22
1.41397e-22
5.4273e-22
6.56385e-22
2.52866e-22
2.65392e-23
4.94523e-22
8.64446e-23
3.81274e-22
2.0267e-28
4.3116e-28
1.59123e-28
4.50114e-28
4.52254e-29
3.35732e-28
1.88687e-28
1.23422e-28
9.43468e-28
1.23048e-27
7.35081e-28
3.11771e-28
8.28043e-29
1.67898e-28
2.63299e-28
8.18272e-30
7.2254e-29
3.98453e-29
7.76683e-29
9.57354e-28
7.54376e-23
7.66639e-23
1.74148e-24
3.39676e-25
2.76684e-26
7.19538e-26
5.00528e-26
4.15417e-26
3.69739e-26
7.09119e-26
4.19242e-26
4.63422e-26
3.71334e-26
1.78344e-26
4.00618e-27
8.79155e-28
9.93601e-29
3.09802e-26
3.87102e-27
5.16419e-27
)
;
    }
    frontAndBack
    {
        type            empty;
    }
}


// ************************************************************************* //
