/*--------------------------------*- C++ -*----------------------------------*\
| =========                 |                                                 |
| \\      /  F ield         | OpenFOAM: The Open Source CFD Toolbox           |
|  \\    /   O peration     | Version:  2312                                  |
|   \\  /    A nd           | Website:  www.openfoam.com                      |
|    \\/     M anipulation  |                                                 |
\*---------------------------------------------------------------------------*/
FoamFile
{
    version     2.0;
    format      ascii;
    arch        "LSB;label=32;scalar=64";
    class       volScalarField;
    location    "8.875";
    object      flowTypeField;
}
// * * * * * * * * * * * * * * * * * * * * * * * * * * * * * * * * * * * * * //

dimensions      [0 0 0 0 0 0 0];

internalField   nonuniform List<scalar> 
400
(
0.42161
0.0480098
0.0475822
-0.0618082
0.472644
-0.506799
0.218022
-0.396664
0.0855554
0.470838
0.383056
0.242088
0.150592
0.392389
0.898695
0.890933
0.495557
0.375653
0.137465
0.712074
0.973817
0.61779
0.551633
0.86891
-0.160565
-0.0405589
0.115294
0.190725
0.0770387
-0.0335466
0.0587722
-0.119627
-0.0676597
0.10899
0.28586
-0.0442131
0.458642
-0.0789406
-0.300163
0.00067932
0.376241
0.105972
-0.0149317
0.00838874
-0.49762
0.145886
-0.290183
0.00521998
0.171194
0.849407
0.547197
0.405581
0.706159
0.0268668
0.0784446
0.555836
0.77165
0.902695
0.0750276
5.41835e-05
0.815346
0.345056
0.29928
0.238486
0.796968
0.0403505
-0.048649
0.303336
0.898082
0.053141
0.179976
0.0193239
0.0742323
0.0750191
0.139971
0.271872
0.776185
-0.0883091
0.796398
0.00559982
0.750806
0.219255
0.341585
-0.230447
0.3847
-0.502689
0.528457
0.380683
0.64683
0.405392
-0.0641977
-0.141909
0.106137
-0.130563
-0.177326
0.89609
0.714818
0.00579963
0.889738
0.675317
0.271777
0.0503444
-0.0161882
0.188817
-0.0616634
0.555459
0.252138
0.369722
0.270769
0.0726602
0.0668683
0.188562
0.911572
0.652834
0.529953
0.481766
0.46868
0.524324
0.541684
0.135834
0.269535
0.064206
-0.0879296
0.205694
-0.586883
0.273082
-0.195218
0.377341
0.0500595
-0.010635
-0.0120947
-0.065181
-0.0880659
0.121292
0.606102
0.656635
-0.207236
-0.137227
0.636573
0.00767759
0.971091
0.611504
0.621755
0.581495
0.075067
0.577153
-0.178191
0.126511
0.29097
0.334304
-0.0818137
-0.0791418
0.497935
0.219675
0.0831907
0.262815
0.047185
0.49447
0.466625
0.167199
0.537993
0.0932263
0.0068426
0.184729
-0.223267
0.363848
0.00675121
0.53096
0.225321
0.0234023
0.0859119
0.149407
0.875786
0.5527
0.624636
0.281448
-0.0868502
0.244339
0.499552
0.48625
0.00458943
0.0231125
-0.0544688
0.000906068
-0.17126
0.0781633
0.0301903
0.607206
0.00973046
0.76205
0.809045
0.780241
0.581285
0.0279369
0.234922
-0.121665
-0.0432021
0.509045
-0.115731
0.00155288
0.184915
-0.00776782
-0.0506035
-0.216634
0.430814
-0.321396
0.145761
0.265261
-0.0711181
-0.137427
-0.00930714
0.0126919
0.111068
0.0758424
0.458189
-0.136676
0.0953722
0.139881
0.561472
0.0870858
0.635725
0.18835
0.161743
0.443826
-0.108145
0.221332
-0.0124075
-0.265591
-0.220448
0.463376
0.0501741
0.114055
0.428022
0.345131
0.388623
0.470745
0.0804416
0.110692
-0.0638502
0.310843
0.678216
0.202204
0.163533
0.06445
0.382373
0.320017
-0.038904
-0.00361563
-0.00113992
-0.037248
-0.0156744
-0.06119
-0.0899382
0.607835
0.241103
0.220874
0.788711
0.925032
-0.0460012
0.904219
0.11476
0.0182589
-0.0654951
0.0318801
-0.575443
0.123375
0.418325
0.693993
0.313301
-0.284116
0.591755
0.25185
-0.0500742
-0.21559
-0.138199
0.146383
0.120424
0.0295242
-0.00424223
0.54066
-0.017539
0.0187894
-0.124049
0.174519
-0.888403
0.548013
-0.00832256
0.775049
0.0376521
0.171814
0.329531
0.932779
0.586152
-0.0751814
-0.202052
0.644511
0.295714
0.790648
0.0144057
0.109485
0.597211
0.134876
0.00138277
0.305756
-0.1384
0.835178
-0.0566742
0.0473999
0.0597929
-0.0141496
-0.112803
-0.187747
0.332113
0.165436
0.674168
0.891951
0.224787
0.923538
0.146734
0.295035
0.852278
0.536359
0.519945
0.52165
0.266747
-0.0117951
-0.233474
-0.120204
-0.193903
-0.0572547
0.140022
0.0233841
0.0128314
-0.261266
0.129747
0.576434
-0.00033647
0.753017
0.508275
0.348659
0.565309
0.135251
0.00887265
0.262497
-0.294082
0.337815
0.193865
0.100112
0.252671
0.765716
0.884995
0.366439
-0.0818948
-0.359193
-0.174001
0.394397
0.13126
0.907047
0.959414
0.928269
0.930362
0.396267
0.272761
0.751529
-0.155037
0.0960357
-0.0918055
-0.0766287
-0.024011
0.00669563
0.176431
0.54156
0.759265
0.14619
0.395418
0.115479
-0.163877
0.0172234
0.265386
0.303569
0.562675
0.0811221
0.146404
-0.101585
0.764515
-0.272638
0.0787486
0.0801839
-0.179061
-0.0633687
0.121556
0.50986
0.649744
0.322103
0.224509
0.0458928
0.102228
0.134057
0.0352248
0.111968
)
;

boundaryField
{
    movingWall
    {
        type            calculated;
        value           nonuniform List<scalar> 
20
(
0.623757
0.106442
0.418147
-0.345949
0.226979
-0.0680884
0.0243266
-0.00922938
-0.0867209
-0.0124763
0.0483344
0.071607
0.100555
0.109861
0.119304
-0.0125112
0.0231242
0.0793122
0.0481803
0.0480676
)
;
    }
    fixedWalls
    {
        type            calculated;
        value           nonuniform List<scalar> 
60
(
0.0496344
0.630054
0.0755458
0.335905
0.253898
0.0321269
0.0348837
0.634492
0.0814726
-0.00199902
-0.0193672
0.225671
0.227406
0.00740701
-0.00258512
0.117446
0.539804
0.116309
0.394974
0.0991809
0.72205
0.000186091
3.85048e-05
0.00234151
0.736148
0.0352715
0.00817718
0.0613734
0.0180488
0.000324942
0.314036
0.10263
0.807583
0.747103
0.150164
0.237496
0.0048187
0.738854
0.527206
0.190034
0.685749
0.151461
0.400024
-0.0765246
0.37306
-0.064724
0.00669578
-0.0814635
-0.00169075
0.0606442
0.0817952
0.0449796
0.0192617
0.0101734
0.0412431
0.32213
0.794169
0.0718203
0.0966373
0.0466679
)
;
    }
    frontAndBack
    {
        type            empty;
    }
}


// ************************************************************************* //
