/*--------------------------------*- C++ -*----------------------------------*\
| =========                 |                                                 |
| \\      /  F ield         | OpenFOAM: The Open Source CFD Toolbox           |
|  \\    /   O peration     | Version:  2312                                  |
|   \\  /    A nd           | Website:  www.openfoam.com                      |
|    \\/     M anipulation  |                                                 |
\*---------------------------------------------------------------------------*/
FoamFile
{
    version     2.0;
    format      ascii;
    arch        "LSB;label=32;scalar=64";
    class       surfaceScalarField;
    location    "8.875";
    object      fluxField;
}
// * * * * * * * * * * * * * * * * * * * * * * * * * * * * * * * * * * * * * //

dimensions      [0 3 -1 0 0 0 0];

oriented        oriented;

internalField   nonuniform List<scalar> 
760
(
-5e-05
3.42641e-18
-5e-05
-7.10547e-19
-5e-05
1.7441e-19
-5e-05
-3.41234e-20
-5e-05
8.70405e-21
-5e-05
2.82748e-21
-5e-05
3.89661e-21
-5e-05
-1.18722e-22
-5e-05
-6.11301e-21
-5e-05
-2.8504e-21
-5e-05
3.71251e-21
-5e-05
5.75286e-21
-5e-05
9.55302e-21
-5e-05
7.38969e-21
-5e-05
4.5155e-21
-5e-05
6.83254e-21
-5e-05
7.64336e-21
-5e-05
1.26715e-21
-5e-05
-3.90805e-21
-3.09365e-21
-5e-05
-1.72217e-18
-5e-05
3.56765e-19
-5e-05
-8.49131e-20
-5e-05
1.77717e-20
-5e-05
-1.49306e-21
-5e-05
5.12972e-21
-5e-05
-5.74088e-22
-5e-05
-2.46149e-21
-5e-05
-5.1034e-21
-5e-05
-3.35894e-21
-5e-05
-1.20519e-21
-5e-05
2.82675e-21
-5e-05
7.50017e-21
-5e-05
6.9419e-21
-5e-05
2.59094e-21
-5e-05
5.86289e-21
-5e-05
8.32276e-21
-5e-05
3.41232e-21
-5e-05
-4.5947e-21
-2.9503e-21
-5e-05
-1.49213e-18
-5e-05
3.08549e-19
-5e-05
-7.24731e-20
-5e-05
2.24543e-20
-5e-05
5.01005e-21
-5e-05
4.93963e-21
-5e-05
-1.88913e-21
-5e-05
-1.43468e-21
-5e-05
2.10402e-22
-5e-05
-5.96259e-22
-5e-05
-1.80492e-21
-5e-05
4.41924e-21
-5e-05
3.00147e-21
-5e-05
4.77169e-22
-5e-05
-7.157e-22
-5e-05
1.65399e-21
-5e-05
5.24561e-21
-5e-05
1.7165e-22
-5e-05
-5.55902e-21
-2.9902e-21
-5e-05
1.56358e-18
-5e-05
-3.25484e-19
-5e-05
8.15706e-20
-5e-05
-6.05228e-21
-5e-05
7.8983e-21
-5e-05
-2.77477e-21
-5e-05
-2.20252e-21
-5e-05
-3.89301e-22
-5e-05
2.41414e-21
-5e-05
3.55277e-21
-5e-05
1.96587e-21
-5e-05
2.82614e-21
-5e-05
-2.57704e-21
-5e-05
-4.00213e-21
-5e-05
6.1953e-22
-5e-05
3.1745e-21
-5e-05
4.27072e-21
-5e-05
-1.02452e-21
-5e-05
-4.31577e-21
-2.46965e-21
-5e-05
-1.0937e-18
-5e-05
2.37737e-19
-5e-05
-4.70982e-20
-5e-05
1.67712e-20
-5e-05
-2.07431e-21
-5e-05
-2.7909e-21
-5e-05
-2.50182e-21
-5e-05
-2.10926e-21
-5e-05
-2.31757e-21
-5e-05
1.5387e-21
-5e-05
2.39519e-21
-5e-05
-6.05923e-22
-5e-05
-3.42996e-21
-5e-05
-2.0826e-21
-5e-05
3.10502e-21
-5e-05
6.35924e-21
-5e-05
1.99907e-21
-5e-05
-6.32418e-22
-5e-05
-1.08219e-22
1.02513e-21
-5e-05
3.30544e-19
-5e-05
-4.92016e-20
-5e-05
2.36073e-20
-5e-05
-6.84377e-22
-5e-05
1.70584e-21
-5e-05
6.48262e-22
-5e-05
1.9823e-21
-5e-05
1.28316e-21
-5e-05
-2.76467e-21
-5e-05
1.4286e-22
-5e-05
2.70122e-21
-5e-05
2.10568e-21
-5e-05
3.1068e-21
-5e-05
5.96628e-21
-5e-05
5.44001e-21
-5e-05
2.28789e-21
-5e-05
-6.61783e-22
-5e-05
2.72291e-21
-5e-05
5.08289e-21
2.83367e-21
-5e-05
1.78802e-18
-5e-05
-3.74684e-19
-5e-05
9.37154e-20
-5e-05
-1.64711e-20
-5e-05
7.61686e-21
-5e-05
1.4423e-21
-5e-05
2.27702e-21
-5e-05
1.06122e-21
-5e-05
1.87473e-22
-5e-05
2.88893e-21
-5e-05
4.67602e-21
-5e-05
2.83808e-21
-5e-05
4.94024e-21
-5e-05
9.68581e-21
-5e-05
6.55929e-21
-5e-05
-1.65606e-21
-5e-05
-1.82861e-21
-5e-05
2.73504e-21
-5e-05
4.88085e-21
2.19609e-21
-5e-05
-2.71446e-18
-5e-05
5.77908e-19
-5e-05
-1.39423e-19
-5e-05
3.03872e-20
-5e-05
-3.49444e-21
-5e-05
2.28905e-21
-5e-05
-1.12638e-21
-5e-05
-2.16781e-21
-5e-05
1.595e-21
-5e-05
2.85419e-21
-5e-05
2.53618e-21
-5e-05
2.69892e-21
-5e-05
5.99758e-21
-5e-05
5.64703e-21
-5e-05
4.46397e-21
-5e-05
2.31076e-21
-5e-05
5.52872e-23
-5e-05
-1.22627e-21
-5e-05
1.93019e-21
3.69689e-21
-5e-05
1.31517e-18
-5e-05
-2.75679e-19
-5e-05
5.91955e-20
-5e-05
-1.52795e-20
-5e-05
3.14436e-21
-5e-05
1.43025e-22
-5e-05
3.32128e-21
-5e-05
2.08522e-21
-5e-05
3.36612e-21
-5e-05
2.52829e-21
-5e-05
1.91368e-21
-5e-05
5.68713e-21
-5e-05
7.54832e-21
-5e-05
2.08984e-21
-5e-05
4.9473e-22
-5e-05
4.00688e-21
-5e-05
4.13058e-21
-5e-05
1.58771e-21
-5e-05
3.37079e-21
5.81543e-21
-5e-05
7.06724e-19
-5e-05
-1.75943e-19
-5e-05
3.6885e-20
-5e-05
-1.27487e-20
-5e-05
2.39647e-21
-5e-05
2.21648e-21
-5e-05
5.75684e-21
-5e-05
4.1695e-21
-5e-05
3.59402e-21
-5e-05
3.69049e-21
-5e-05
6.56979e-21
-5e-05
7.68957e-21
-5e-05
4.7297e-21
-5e-05
3.06849e-21
-5e-05
1.2416e-21
-5e-05
-2.10677e-22
-5e-05
6.64792e-22
-5e-05
8.28091e-22
-5e-05
3.39489e-21
5.49692e-21
-5e-05
-1.91556e-18
-5e-05
3.91984e-19
-5e-05
-9.74211e-20
-5e-05
1.44708e-20
-5e-05
-7.15758e-21
-5e-05
1.91881e-21
-5e-05
-7.97047e-22
-5e-05
7.25198e-22
-5e-05
4.92476e-21
-5e-05
6.33212e-21
-5e-05
8.57675e-21
-5e-05
8.17597e-21
-5e-05
4.03097e-21
-5e-05
4.27842e-21
-5e-05
4.80453e-21
-5e-05
-7.34535e-22
-5e-05
-1.12057e-21
-5e-05
-4.16203e-22
-5e-05
1.99847e-21
3.9571e-21
-5e-05
2.01708e-18
-5e-05
-4.13446e-19
-5e-05
9.93401e-20
-5e-05
-2.06482e-20
-5e-05
3.51026e-21
-5e-05
1.00893e-21
-5e-05
-1.44773e-21
-5e-05
-3.94767e-22
-5e-05
3.97739e-21
-5e-05
3.84534e-21
-5e-05
2.33317e-21
-5e-05
2.0983e-21
-5e-05
-5.50823e-22
-5e-05
-2.238e-21
-5e-05
1.54484e-21
-5e-05
2.45218e-21
-5e-05
1.187e-21
-5e-05
7.0793e-22
-5e-05
1.11738e-21
7.56371e-22
-5e-05
-9.60681e-19
-5e-05
2.12696e-19
-5e-05
-3.87812e-20
-5e-05
1.68725e-20
-5e-05
-4.13579e-22
-5e-05
-2.02426e-22
-5e-05
-1.11832e-21
-5e-05
-4.8671e-22
-5e-05
5.38185e-22
-5e-05
-1.67405e-22
-5e-05
3.98406e-22
-5e-05
1.5167e-21
-5e-05
1.33601e-21
-5e-05
-3.64446e-21
-5e-05
-3.56315e-21
-5e-05
-1.01789e-21
-5e-05
-3.07845e-21
-5e-05
-8.44166e-22
-5e-05
-2.00927e-22
-1.35307e-21
-5e-05
2.12142e-19
-5e-05
-5.09277e-20
-5e-05
1.70189e-20
-5e-05
3.25083e-21
-5e-05
3.02065e-21
-5e-05
-1.11949e-21
-5e-05
-3.51326e-22
-5e-05
2.06144e-21
-5e-05
1.40031e-21
-5e-05
8.37636e-22
-5e-05
2.49181e-21
-5e-05
3.70942e-21
-5e-05
5.2552e-21
-5e-05
-2.65101e-22
-5e-05
-6.25632e-21
-5e-05
-6.30941e-21
-5e-05
-4.89262e-21
-5e-05
-4.7814e-23
-5e-05
2.99631e-22
-2.88935e-22
-5e-05
7.89523e-19
-5e-05
-1.67556e-19
-5e-05
3.43312e-20
-5e-05
-1.03636e-20
-5e-05
2.43634e-21
-5e-05
2.18412e-21
-5e-05
6.32297e-22
-5e-05
1.08428e-21
-5e-05
8.44847e-22
-5e-05
4.41126e-23
-5e-05
-7.68324e-22
-5e-05
-2.44014e-21
-5e-05
-2.81918e-21
-5e-05
-1.64987e-21
-5e-05
-4.3649e-21
-5e-05
-3.68627e-21
-5e-05
-2.38658e-21
-5e-05
-8.12344e-22
-5e-05
-6.65056e-23
6.99496e-24
-5e-05
-1.8812e-18
-5e-05
3.81668e-19
-5e-05
-9.80165e-20
-5e-05
1.01048e-20
-5e-05
-1.03386e-20
-5e-05
-3.57965e-21
-5e-05
-4.16307e-21
-5e-05
-2.61831e-21
-5e-05
5.41861e-22
-5e-05
3.50475e-21
-5e-05
2.63729e-21
-5e-05
-1.63777e-21
-5e-05
-7.44828e-21
-5e-05
-3.99344e-21
-5e-05
-4.97046e-22
-5e-05
2.54005e-22
-5e-05
1.3115e-21
-5e-05
5.04667e-22
-5e-05
3.14201e-22
-1.00416e-21
-5e-05
1.75756e-18
-5e-05
-4.07962e-19
-5e-05
9.05995e-20
-5e-05
-2.43363e-20
-5e-05
3.82374e-22
-5e-05
-5.84486e-21
-5e-05
-6.84797e-22
-5e-05
-1.13757e-22
-5e-05
-2.01436e-22
-5e-05
5.50011e-22
-5e-05
-4.31391e-22
-5e-05
-3.31252e-21
-5e-05
-6.79964e-21
-5e-05
-2.97108e-21
-5e-05
5.37527e-21
-5e-05
5.57542e-21
-5e-05
3.28011e-21
-5e-05
1.1775e-21
-5e-05
1.24843e-21
-1.30926e-21
-5e-05
1.2488e-18
-5e-05
-2.64389e-19
-5e-05
6.146e-20
-5e-05
-1.2233e-20
-5e-05
2.5897e-21
-5e-05
3.67196e-22
-5e-05
2.04382e-21
-5e-05
-2.16552e-21
-5e-05
-4.72129e-21
-5e-05
-8.39906e-21
-5e-05
-9.45278e-21
-5e-05
-7.24008e-21
-5e-05
-1.84729e-21
-5e-05
1.6695e-21
-5e-05
6.38976e-21
-5e-05
5.85612e-21
-5e-05
-9.92507e-23
-5e-05
-3.27578e-21
-5e-05
-8.15013e-22
-1.47304e-21
-5e-05
-2.73742e-18
-5e-05
5.91835e-19
-5e-05
-1.43299e-19
-5e-05
2.57877e-20
-5e-05
-9.00895e-21
-5e-05
9.36e-22
-5e-05
-2.59381e-21
-5e-05
-4.86512e-21
-5e-05
-2.70583e-21
-5e-05
-2.52579e-21
-5e-05
-3.04092e-21
-5e-05
-6.57483e-22
-5e-05
3.27114e-21
-5e-05
1.69544e-21
-5e-05
-2.79659e-21
-5e-05
-2.48372e-21
-5e-05
-2.12671e-21
-5e-05
-3.79948e-21
-5e-05
-2.16053e-21
-1.95587e-21
-5e-05
-5e-05
-5e-05
-5e-05
-5e-05
-5e-05
-5e-05
-5e-05
-5e-05
-5e-05
-5e-05
-5e-05
-5e-05
-5e-05
-5e-05
-5e-05
-5e-05
-5e-05
-5e-05
)
;

boundaryField
{
    movingWall
    {
        type            calculated;
        value           uniform -0;
    }
    fixedWalls
    {
        type            calculated;
        value           nonuniform List<scalar> 
60
(
5e-05
5e-05
5e-05
5e-05
5e-05
5e-05
5e-05
5e-05
5e-05
5e-05
5e-05
5e-05
5e-05
5e-05
5e-05
5e-05
5e-05
5e-05
5e-05
5e-05
-5e-05
-5e-05
-5e-05
-5e-05
-5e-05
-5e-05
-5e-05
-5e-05
-5e-05
-5e-05
-5e-05
-5e-05
-5e-05
-5e-05
-5e-05
-5e-05
-5e-05
-5e-05
-5e-05
-5e-05
0
0
0
0
0
0
0
0
0
0
0
0
0
0
0
0
0
0
0
0
)
;
    }
    frontAndBack
    {
        type            empty;
        value           nonuniform List<scalar> 0();
    }
}


// ************************************************************************* //
