/*--------------------------------*- C++ -*----------------------------------*\
| =========                 |                                                 |
| \\      /  F ield         | OpenFOAM: The Open Source CFD Toolbox           |
|  \\    /   O peration     | Version:  2312                                  |
|   \\  /    A nd           | Website:  www.openfoam.com                      |
|    \\/     M anipulation  |                                                 |
\*---------------------------------------------------------------------------*/
FoamFile
{
    version     2.0;
    format      ascii;
    arch        "LSB;label=32;scalar=64";
    class       volTensorField;
    location    "8.875";
    object      gradU;
}
// * * * * * * * * * * * * * * * * * * * * * * * * * * * * * * * * * * * * * //

dimensions      [0 0 -1 0 0 0 0];

internalField   nonuniform List<tensor> 
400
(
(-4.33681e-13 9.1745e-12 0 3.79471e-13 1.37056e-11 0 0 0 0)
(8.94467e-13 -1.10059e-11 0 -1.6263e-13 -2.84219e-12 0 0 0 0)
(-2.71051e-13 2.31036e-12 0 0 6.97638e-13 0 0 0 0)
(-2.71051e-14 -5.57774e-13 0 5.42101e-14 -1.36493e-13 0 0 0 0)
(2.71051e-14 1.20034e-13 0 5.42101e-14 3.48162e-14 0 0 0 0)
(0 -2.40802e-14 0 2.71051e-14 1.13099e-14 0 0 0 0)
(-5.42101e-14 -5.53219e-15 0 5.42101e-14 1.55865e-14 0 0 0 0)
(0 -2.17885e-14 0 5.42101e-14 -4.74887e-16 0 0 0 0)
(2.71051e-14 -5.47994e-15 0 5.42101e-14 -2.4452e-14 0 0 0 0)
(2.71051e-14 2.30852e-14 0 5.42101e-14 -1.14016e-14 0 0 0 0)
(-2.71051e-14 2.12967e-14 0 0 1.485e-14 0 0 0 0)
(-2.71051e-14 6.42135e-15 0 5.42101e-14 2.30115e-14 0 0 0 0)
(-2.71051e-14 -6.06597e-15 0 5.42101e-14 3.82121e-14 0 0 0 0)
(-5.42101e-14 -1.12263e-14 0 2.71051e-14 2.95588e-14 0 0 0 0)
(0 -6.93998e-16 0 0 1.8062e-14 0 0 0 0)
(-2.71051e-14 2.47671e-15 0 0 2.73302e-14 0 0 0 0)
(-8.13152e-14 -1.40968e-14 0 2.71051e-14 3.05734e-14 0 0 0 0)
(-2.71051e-14 -1.75351e-14 0 -5.42101e-14 5.06862e-15 0 0 0 0)
(2.71051e-14 -8.28983e-16 0 -5.42101e-14 -1.56322e-14 0 0 0 0)
(5.42101e-14 1.28108e-14 0 0 -1.23746e-14 0 0 0 0)
(7.04731e-13 1.68894e-12 0 1.30104e-12 -2.05943e-11 0 0 0 0)
(-1.30104e-12 -2.00211e-12 0 -4.06576e-13 4.26925e-12 0 0 0 0)
(4.87891e-13 3.95335e-13 0 -8.13152e-14 -1.03729e-12 0 0 0 0)
(0 -1.05048e-13 0 -8.13152e-14 2.0758e-13 0 0 0 0)
(0 2.77697e-14 0 -8.13152e-14 -4.07884e-14 0 0 0 0)
(0 4.85043e-15 0 -1.0842e-13 9.20896e-15 0 0 0 0)
(5.42101e-14 -6.25261e-15 0 -1.35525e-13 -1.78828e-14 0 0 0 0)
(2.71051e-14 -1.82499e-14 0 -1.0842e-13 -9.37107e-15 0 0 0 0)
(-2.71051e-14 -5.44678e-15 0 -1.0842e-13 4.03844e-15 0 0 0 0)
(-5.42101e-14 1.62169e-14 0 -1.35525e-13 -2.03415e-15 0 0 0 0)
(5.42101e-14 1.31164e-14 0 -8.13152e-14 -1.96708e-14 0 0 0 0)
(0 1.69407e-14 0 -1.35525e-13 -1.17044e-14 0 0 0 0)
(2.71051e-14 1.26133e-14 0 -1.35525e-13 -8.21139e-15 0 0 0 0)
(0 -8.92376e-15 0 -8.13152e-14 -1.79117e-15 0 0 0 0)
(5.42101e-14 -1.53459e-15 0 -5.42101e-14 -7.69825e-15 0 0 0 0)
(2.71051e-14 1.00347e-14 0 -5.42101e-14 -3.8786e-15 0 0 0 0)
(2.71051e-14 -8.16475e-15 0 -2.71051e-14 2.71762e-15 0 0 0 0)
(-5.42101e-14 -2.86705e-14 0 8.13152e-14 8.58066e-15 0 0 0 0)
(0 -1.66142e-14 0 5.42101e-14 -2.74659e-15 0 0 0 0)
(0 1.5196e-14 0 0 5.73403e-16 0 0 0 0)
(4.87891e-13 -7.15057e-12 0 -2.6563e-12 9.20178e-13 0 0 0 0)
(-4.60786e-13 8.55114e-12 0 8.94467e-13 -1.92865e-13 0 0 0 0)
(2.71051e-14 -1.75131e-12 0 2.71051e-14 4.97602e-14 0 0 0 0)
(-5.42101e-14 4.38728e-13 0 0 1.87307e-14 0 0 0 0)
(0 -7.83375e-14 0 5.42101e-14 2.60124e-14 0 0 0 0)
(-5.42101e-14 -1.17456e-15 0 8.13152e-14 -7.6037e-16 0 0 0 0)
(0 -2.41122e-14 0 8.13152e-14 -5.26018e-15 0 0 0 0)
(0 1.32704e-16 0 5.42101e-14 4.10721e-15 0 0 0 0)
(-2.71051e-14 1.85698e-15 0 5.42101e-14 2.12552e-14 0 0 0 0)
(0 -6.24045e-16 0 0 1.10507e-14 0 0 0 0)
(2.71051e-14 1.16264e-14 0 2.71051e-14 -2.39892e-15 0 0 0 0)
(-2.71051e-14 1.78807e-14 0 0 6.36997e-15 0 0 0 0)
(0 3.8473e-15 0 0 -1.79948e-14 0 0 0 0)
(2.71051e-14 -1.07132e-14 0 5.42101e-14 -2.58589e-14 0 0 0 0)
(-2.71051e-14 -2.78142e-15 0 5.42101e-14 -1.32266e-14 0 0 0 0)
(2.71051e-14 1.28926e-14 0 0 -1.68356e-14 0 0 0 0)
(0 -1.63755e-15 0 0 -1.23086e-14 0 0 0 0)
(5.42101e-14 -2.29993e-14 0 -2.71051e-14 -1.29627e-14 0 0 0 0)
(0 -8.83624e-15 0 0 -3.85728e-15 0 0 0 0)
(0 1.4984e-14 0 0 -1.59629e-16 0 0 0 0)
(-1.19262e-12 2.41626e-12 0 6.23416e-13 1.22228e-11 0 0 0 0)
(1.46367e-12 -2.87253e-12 0 -3.25261e-13 -2.53613e-12 0 0 0 0)
(-3.79471e-13 6.0693e-13 0 -2.71051e-14 6.16175e-13 0 0 0 0)
(2.71051e-14 -1.28795e-13 0 0 -1.14026e-13 0 0 0 0)
(5.42101e-14 8.2786e-15 0 0 1.1553e-14 0 0 0 0)
(2.71051e-14 -2.64222e-14 0 2.71051e-14 -3.08576e-14 0 0 0 0)
(0 -1.38503e-15 0 2.71051e-14 -1.25355e-15 0 0 0 0)
(0 8.26543e-15 0 2.71051e-14 4.18154e-15 0 0 0 0)
(-2.71051e-14 1.49672e-15 0 0 8.81497e-15 0 0 0 0)
(-5.42101e-14 -7.43723e-15 0 1.0842e-13 1.65961e-14 0 0 0 0)
(0 8.43564e-15 0 5.42101e-14 1.50832e-14 0 0 0 0)
(0 1.34482e-15 0 8.13152e-14 -6.37239e-15 0 0 0 0)
(8.13152e-14 -1.96156e-14 0 1.0842e-13 -2.2314e-14 0 0 0 0)
(2.71051e-14 -4.15552e-15 0 5.42101e-14 -1.79172e-14 0 0 0 0)
(0 7.48873e-15 0 5.42101e-14 5.34092e-15 0 0 0 0)
(-2.71051e-14 1.09526e-14 0 5.42101e-14 6.082e-15 0 0 0 0)
(2.71051e-14 -4.29182e-15 0 0 -3.89955e-15 0 0 0 0)
(-2.71051e-14 -2.02191e-14 0 2.71051e-14 -4.78466e-15 0 0 0 0)
(-2.71051e-14 -3.81117e-15 0 0 4.97298e-15 0 0 0 0)
(0 1.92129e-14 0 0 2.08222e-15 0 0 0 0)
(7.86047e-13 2.53614e-12 0 3.52366e-13 -1.06291e-11 0 0 0 0)
(-1.16552e-12 -3.05552e-12 0 -2.71051e-14 2.25288e-12 0 0 0 0)
(2.98156e-13 6.70795e-13 0 1.0842e-13 -5.14675e-13 0 0 0 0)
(0 -1.65894e-13 0 8.13152e-14 9.12938e-14 0 0 0 0)
(5.42101e-14 4.83142e-15 0 5.42101e-14 -3.98904e-14 0 0 0 0)
(0 -1.39811e-14 0 2.71051e-14 -6.45026e-17 0 0 0 0)
(2.71051e-14 1.09269e-14 0 2.71051e-14 -1.19719e-15 0 0 0 0)
(0 1.02012e-14 0 2.71051e-14 -6.87982e-15 0 0 0 0)
(2.71051e-14 1.42716e-14 0 2.71051e-14 -1.89268e-14 0 0 0 0)
(2.71051e-14 5.64414e-15 0 2.71051e-14 -8.05629e-15 0 0 0 0)
(-2.71051e-14 -1.13421e-14 0 5.42101e-14 1.71729e-15 0 0 0 0)
(2.71051e-14 -1.95165e-14 0 5.42101e-14 -1.37283e-14 0 0 0 0)
(-2.71051e-14 -7.69751e-15 0 2.71051e-14 -3.41169e-15 0 0 0 0)
(-2.71051e-14 1.69418e-14 0 -5.42101e-14 7.67812e-15 0 0 0 0)
(-2.71051e-14 2.12178e-14 0 -5.42101e-14 9.94197e-15 0 0 0 0)
(-5.42101e-14 3.65212e-15 0 0 1.2739e-14 0 0 0 0)
(5.42101e-14 -1.25042e-14 0 0 -9.08661e-15 0 0 0 0)
(0 -1.41268e-14 0 0 1.56839e-15 0 0 0 0)
(2.71051e-14 -1.96936e-15 0 0 1.68302e-14 0 0 0 0)
(-2.71051e-14 7.92875e-15 0 0 1.39791e-14 0 0 0 0)
(-8.40257e-13 -5.95998e-12 0 -1.35525e-13 5.69696e-12 0 0 0 0)
(1.21973e-12 7.24192e-12 0 1.89735e-13 -1.14775e-12 0 0 0 0)
(-2.98156e-13 -1.55466e-12 0 8.13152e-14 2.82822e-13 0 0 0 0)
(8.13152e-14 3.45989e-13 0 5.42101e-14 -6.98222e-14 0 0 0 0)
(-5.42101e-14 -8.30797e-14 0 2.71051e-14 1.51206e-14 0 0 0 0)
(-2.71051e-14 1.22711e-14 0 0 1.37566e-14 0 0 0 0)
(-2.71051e-14 -8.20035e-15 0 -5.42101e-14 1.79365e-14 0 0 0 0)
(0 -9.46423e-15 0 0 1.35697e-14 0 0 0 0)
(-2.71051e-14 3.20248e-16 0 2.71051e-14 -1.78842e-15 0 0 0 0)
(0 1.32069e-14 0 0 -5.58334e-15 0 0 0 0)
(0 2.76366e-15 0 0 1.22411e-15 0 0 0 0)
(0 -3.78416e-15 0 -2.71051e-14 1.08464e-14 0 0 0 0)
(-2.71051e-14 1.79079e-15 0 0 2.6147e-14 0 0 0 0)
(0 9.19813e-15 0 0 3.21955e-14 0 0 0 0)
(2.71051e-14 1.25496e-14 0 0 9.33997e-15 0 0 0 0)
(0 -8.07594e-15 0 0 -1.62854e-14 0 0 0 0)
(-2.71051e-14 -1.54624e-14 0 0 -1.06434e-14 0 0 0 0)
(0 5.69767e-15 0 0 1.34213e-14 0 0 0 0)
(0 8.59954e-15 0 0 2.07644e-14 0 0 0 0)
(0 -1.15964e-14 0 0 7.23416e-15 0 0 0 0)
(9.21572e-13 7.08535e-12 0 5.69206e-13 5.82989e-12 0 0 0 0)
(-9.75782e-13 -8.46966e-12 0 -4.06576e-13 -1.30193e-12 0 0 0 0)
(1.6263e-13 1.74873e-12 0 -1.89735e-13 2.80433e-13 0 0 0 0)
(-8.13152e-14 -4.33595e-13 0 -8.13152e-14 -6.31469e-14 0 0 0 0)
(0 8.84102e-14 0 -1.35525e-13 2.36441e-14 0 0 0 0)
(-2.71051e-14 -1.11653e-14 0 -5.42101e-14 3.17616e-15 0 0 0 0)
(0 1.07399e-14 0 -5.42101e-14 1.17887e-15 0 0 0 0)
(5.42101e-14 -9.52366e-15 0 -5.42101e-14 -8.87742e-16 0 0 0 0)
(0 -4.88144e-15 0 -1.0842e-13 1.18086e-14 0 0 0 0)
(2.71051e-14 8.65667e-15 0 -5.42101e-14 1.09843e-14 0 0 0 0)
(-2.71051e-14 5.08764e-15 0 -1.0842e-13 7.89921e-15 0 0 0 0)
(0 5.40647e-15 0 -8.13152e-14 2.9296e-15 0 0 0 0)
(-2.71051e-14 1.36516e-14 0 -5.42101e-14 7.33377e-15 0 0 0 0)
(-2.71051e-14 1.34725e-16 0 -5.42101e-14 1.48781e-14 0 0 0 0)
(-5.42101e-14 -2.72631e-14 0 -5.42101e-14 4.47709e-15 0 0 0 0)
(5.42101e-14 -1.63312e-14 0 0 -1.57758e-14 0 0 0 0)
(0 1.72025e-14 0 -8.13152e-14 -4.6673e-15 0 0 0 0)
(2.71051e-14 1.7281e-14 0 -8.13152e-14 4.85287e-17 0 0 0 0)
(-2.71051e-14 -8.15649e-15 0 0 -8.08177e-16 0 0 0 0)
(0 -2.00699e-14 0 0 -2.55033e-15 0 0 0 0)
(-7.04731e-13 -1.43202e-12 0 -1.0571e-12 -1.80099e-11 0 0 0 0)
(4.87891e-13 1.69246e-12 0 2.98156e-13 3.81037e-12 0 0 0 0)
(2.71051e-14 -3.15877e-13 0 0 -9.32553e-13 0 0 0 0)
(1.35525e-13 8.9201e-14 0 0 1.87433e-13 0 0 0 0)
(-2.71051e-14 -1.67566e-14 0 5.42101e-14 -4.44452e-14 0 0 0 0)
(2.71051e-14 -1.01941e-14 0 0 3.38699e-15 0 0 0 0)
(0 -1.22643e-14 0 5.42101e-14 -1.36136e-14 0 0 0 0)
(0 1.16549e-15 0 2.71051e-14 -1.29162e-14 0 0 0 0)
(-2.71051e-14 1.21923e-14 0 5.42101e-14 5.63009e-15 0 0 0 0)
(0 9.29753e-15 0 2.71051e-14 -1.38976e-16 0 0 0 0)
(0 -5.29103e-15 0 5.42101e-14 -8.55938e-15 0 0 0 0)
(0 -4.3496e-15 0 5.42101e-14 -5.56658e-16 0 0 0 0)
(0 1.37393e-14 0 2.71051e-14 4.22936e-15 0 0 0 0)
(2.71051e-14 6.34145e-15 0 5.42101e-14 -1.61551e-14 0 0 0 0)
(5.42101e-14 -1.81043e-14 0 5.42101e-14 -8.38126e-15 0 0 0 0)
(-8.13152e-14 -1.72203e-14 0 5.42101e-14 1.58673e-14 0 0 0 0)
(0 3.61911e-16 0 2.71051e-14 7.53558e-15 0 0 0 0)
(8.13152e-14 9.5568e-15 0 5.42101e-14 -1.58452e-14 0 0 0 0)
(0 6.00068e-15 0 0 -1.18026e-14 0 0 0 0)
(0 -8.23788e-15 0 0 6.0032e-15 0 0 0 0)
(1.89735e-13 -7.11419e-12 0 5.42101e-14 1.61185e-11 0 0 0 0)
(8.13152e-14 8.60769e-12 0 2.43945e-13 -3.41435e-12 0 0 0 0)
(-1.89735e-13 -1.87421e-12 0 1.6263e-13 7.94473e-13 0 0 0 0)
(-8.13152e-14 4.54513e-13 0 5.42101e-14 -1.82667e-13 0 0 0 0)
(5.42101e-14 -9.56361e-14 0 5.42101e-14 2.65552e-14 0 0 0 0)
(0 1.96664e-14 0 5.42101e-14 -8.5841e-15 0 0 0 0)
(0 -5.56321e-15 0 2.71051e-14 1.77906e-14 0 0 0 0)
(2.71051e-14 9.72002e-15 0 2.71051e-14 1.70121e-14 0 0 0 0)
(2.71051e-14 7.89573e-15 0 5.42101e-14 7.0845e-15 0 0 0 0)
(0 -5.5328e-15 0 0 -1.30358e-15 0 0 0 0)
(0 4.66996e-15 0 5.42101e-14 -2.49001e-15 0 0 0 0)
(0 1.81952e-14 0 0 1.19528e-14 0 0 0 0)
(-2.71051e-14 -1.94687e-15 0 0 6.20296e-15 0 0 0 0)
(-2.71051e-14 -1.24759e-14 0 0 -1.42287e-14 0 0 0 0)
(0 4.75927e-15 0 0 -1.5877e-14 0 0 0 0)
(2.71051e-14 -4.14405e-16 0 -2.71051e-14 6.78445e-15 0 0 0 0)
(-2.71051e-14 -1.45101e-14 0 8.13152e-14 1.63012e-14 0 0 0 0)
(-2.71051e-14 -2.05719e-15 0 2.71051e-14 1.12559e-14 0 0 0 0)
(0 1.3692e-14 0 2.71051e-14 5.76241e-15 0 0 0 0)
(-2.71051e-14 -1.42704e-14 0 0 8.47418e-15 0 0 0 0)
(-4.33681e-13 1.12722e-11 0 -2.1684e-13 -2.43378e-12 0 0 0 0)
(5.69206e-13 -1.36316e-11 0 -2.98156e-13 3.98942e-13 0 0 0 0)
(-1.0842e-13 2.9158e-12 0 -1.6263e-13 -8.92419e-14 0 0 0 0)
(2.71051e-14 -6.78717e-13 0 0 1.0123e-14 0 0 0 0)
(0 1.57326e-13 0 -2.71051e-14 -2.99154e-15 0 0 0 0)
(0 -1.89587e-14 0 0 8.29381e-15 0 0 0 0)
(-2.71051e-14 1.3332e-14 0 -2.71051e-14 9.74223e-15 0 0 0 0)
(-2.71051e-14 -9.54065e-15 0 0 8.33713e-15 0 0 0 0)
(0 -6.12345e-15 0 0 9.11587e-16 0 0 0 0)
(0 -2.76982e-16 0 0 4.64878e-15 0 0 0 0)
(-5.42101e-14 7.9654e-15 0 0 1.86245e-14 0 0 0 0)
(-2.71051e-14 4.34337e-15 0 0 8.00974e-15 0 0 0 0)
(2.71051e-14 -1.24423e-14 0 -2.71051e-14 -1.12745e-14 0 0 0 0)
(0 -1.57385e-14 0 0 3.9146e-15 0 0 0 0)
(0 2.90887e-15 0 0 2.98748e-15 0 0 0 0)
(0 1.49578e-14 0 -1.0842e-13 -1.68702e-14 0 0 0 0)
(0 4.83339e-15 0 -8.13152e-14 -1.38632e-14 0 0 0 0)
(5.42101e-14 -9.81962e-16 0 -2.71051e-14 -3.03847e-15 0 0 0 0)
(0 3.21894e-15 0 -2.71051e-14 9.64091e-17 0 0 0 0)
(0 -2.24745e-14 0 0 -1.27405e-15 0 0 0 0)
(-3.52366e-13 -9.14903e-12 0 2.1413e-12 -1.04892e-11 0 0 0 0)
(1.35525e-13 1.09522e-11 0 -3.25261e-13 2.27171e-12 0 0 0 0)
(1.35525e-13 -2.26303e-12 0 1.89735e-13 -5.37224e-13 0 0 0 0)
(2.71051e-14 5.40763e-13 0 -1.35525e-13 1.08878e-13 0 0 0 0)
(8.13152e-14 -9.74653e-14 0 -2.71051e-14 -3.82162e-14 0 0 0 0)
(-2.71051e-14 3.24001e-14 0 -5.42101e-14 -1.19067e-15 0 0 0 0)
(2.71051e-14 -5.51989e-15 0 -8.13152e-14 -2.62155e-14 0 0 0 0)
(5.42101e-14 8.89372e-16 0 -5.42101e-14 -1.37772e-14 0 0 0 0)
(0 4.20738e-15 0 -5.42101e-14 5.32297e-15 0 0 0 0)
(0 1.21801e-14 0 -8.13152e-14 1.05665e-14 0 0 0 0)
(-2.71051e-14 8.03092e-15 0 -5.42101e-14 8.02786e-15 0 0 0 0)
(0 -1.17037e-14 0 0 1.94561e-15 0 0 0 0)
(0 -6.04201e-15 0 -5.42101e-14 -2.79489e-15 0 0 0 0)
(-2.71051e-14 1.78608e-15 0 -5.42101e-14 4.83969e-15 0 0 0 0)
(-8.13152e-14 -1.60255e-14 0 2.71051e-14 1.42517e-14 0 0 0 0)
(-2.71051e-14 -1.7265e-14 0 8.13152e-14 -2.09543e-15 0 0 0 0)
(2.71051e-14 -6.78314e-16 0 5.42101e-14 -7.14143e-15 0 0 0 0)
(5.42101e-14 1.19024e-14 0 -5.42101e-14 -4.97718e-15 0 0 0 0)
(0 1.54564e-14 0 2.71051e-14 -5.58571e-15 0 0 0 0)
(0 -1.30928e-14 0 0 -6.1593e-15 0 0 0 0)
(1.38236e-12 3.05471e-12 0 -1.92446e-12 1.57306e-11 0 0 0 0)
(-1.35525e-12 -3.67967e-12 0 3.79471e-13 -3.22172e-12 0 0 0 0)
(1.0842e-13 7.52973e-13 0 -1.6263e-13 7.87045e-13 0 0 0 0)
(-2.71051e-13 -1.79709e-13 0 0 -1.40476e-13 0 0 0 0)
(5.42101e-14 4.72575e-14 0 -8.13152e-14 4.26714e-14 0 0 0 0)
(-5.42101e-14 -6.95799e-15 0 -8.13152e-14 -3.6395e-15 0 0 0 0)
(0 7.45446e-16 0 -5.42101e-14 -2.60273e-15 0 0 0 0)
(0 2.19979e-14 0 -8.13152e-14 -4.47986e-15 0 0 0 0)
(0 1.82203e-14 0 -8.13152e-14 -3.7895e-15 0 0 0 0)
(5.42101e-14 2.42791e-15 0 -2.71051e-14 -9.9471e-15 0 0 0 0)
(0 -6.55514e-16 0 -8.13152e-14 -2.49743e-14 0 0 0 0)
(0 -6.47938e-15 0 -8.13152e-14 -2.43107e-14 0 0 0 0)
(0 -9.5482e-15 0 -2.71051e-14 -1.83272e-14 0 0 0 0)
(2.71051e-14 1.30814e-15 0 -2.71051e-14 -2.60656e-14 0 0 0 0)
(1.0842e-13 -4.02625e-15 0 -8.13152e-14 -1.30388e-14 0 0 0 0)
(0 -6.43535e-15 0 0 1.27469e-14 0 0 0 0)
(-2.71051e-14 1.95164e-15 0 -5.42101e-14 9.23027e-15 0 0 0 0)
(-2.71051e-14 5.73761e-16 0 5.42101e-14 4.49653e-15 0 0 0 0)
(0 2.03682e-15 0 -2.71051e-14 -3.52434e-15 0 0 0 0)
(0 -1.07295e-14 0 0 -1.28029e-14 0 0 0 0)
(-1.87025e-12 3.35983e-12 0 2.71051e-14 -1.1911e-11 0 0 0 0)
(1.87025e-12 -3.9913e-12 0 -2.71051e-14 2.50457e-12 0 0 0 0)
(-2.71051e-13 8.18217e-13 0 -2.71051e-14 -5.52485e-13 0 0 0 0)
(1.89735e-13 -2.0361e-13 0 1.0842e-13 1.50083e-13 0 0 0 0)
(-5.42101e-14 3.93709e-14 0 0 -1.56953e-14 0 0 0 0)
(5.42101e-14 -1.28739e-14 0 2.71051e-14 -4.84543e-15 0 0 0 0)
(0 -6.36025e-15 0 1.6263e-13 1.31762e-15 0 0 0 0)
(0 -2.974e-16 0 8.13152e-14 -3.67771e-16 0 0 0 0)
(0 -1.25986e-15 0 8.13152e-14 -1.37568e-14 0 0 0 0)
(2.71051e-14 -9.00478e-15 0 1.0842e-13 -1.6051e-14 0 0 0 0)
(-2.71051e-14 -6.33265e-15 0 8.13152e-14 -7.73905e-15 0 0 0 0)
(0 -5.05658e-15 0 8.13152e-14 -2.32639e-15 0 0 0 0)
(0 -7.79698e-15 0 8.13152e-14 7.54735e-15 0 0 0 0)
(-5.42101e-14 7.07452e-15 0 2.71051e-14 -5.62587e-15 0 0 0 0)
(5.42101e-14 2.2787e-14 0 -2.71051e-14 -2.0432e-14 0 0 0 0)
(-5.42101e-14 5.00399e-15 0 -5.42101e-14 -1.38803e-14 0 0 0 0)
(5.42101e-14 -8.92865e-15 0 0 -1.70618e-14 0 0 0 0)
(2.71051e-14 -8.52248e-16 0 0 -6.20839e-15 0 0 0 0)
(0 -1.84306e-15 0 2.71051e-14 -5.27323e-15 0 0 0 0)
(5.42101e-14 3.23446e-15 0 0 -8.43778e-15 0 0 0 0)
(1.40946e-12 -6.35177e-12 0 7.31836e-13 4.69129e-12 0 0 0 0)
(-1.40946e-12 7.6789e-12 0 -5.42101e-14 -1.0545e-12 0 0 0 0)
(1.89735e-13 -1.60151e-12 0 1.35525e-13 2.23201e-13 0 0 0 0)
(-1.6263e-13 3.57081e-13 0 -2.71051e-14 -5.44868e-14 0 0 0 0)
(2.71051e-14 -1.07671e-13 0 8.13152e-14 1.37369e-14 0 0 0 0)
(0 1.0055e-14 0 8.13152e-14 -3.66825e-15 0 0 0 0)
(5.42101e-14 5.22311e-15 0 -2.71051e-14 3.06799e-15 0 0 0 0)
(-2.71051e-14 6.92343e-15 0 0 1.01926e-14 0 0 0 0)
(0 2.53708e-15 0 0 3.44849e-15 0 0 0 0)
(0 8.44566e-15 0 -2.71051e-14 4.02016e-15 0 0 0 0)
(-2.71051e-14 1.30691e-14 0 2.71051e-14 8.37363e-15 0 0 0 0)
(0 8.80702e-15 0 0 8.77088e-15 0 0 0 0)
(-2.71051e-14 -1.28477e-14 0 5.42101e-14 1.56767e-14 0 0 0 0)
(-2.71051e-14 -2.66712e-14 0 8.13152e-14 1.35174e-14 0 0 0 0)
(0 -1.22807e-14 0 8.13152e-14 -1.07727e-14 0 0 0 0)
(5.42101e-14 -3.06519e-15 0 8.13152e-14 -2.11661e-14 0 0 0 0)
(0 9.62356e-15 0 8.13152e-14 -7.25667e-15 0 0 0 0)
(0 1.23623e-14 0 0 3.18541e-15 0 0 0 0)
(0 -1.92577e-16 0 2.71051e-14 2.00223e-15 0 0 0 0)
(-5.42101e-14 2.98154e-15 0 2.71051e-14 4.25656e-15 0 0 0 0)
(-1.19262e-12 6.99662e-12 0 -6.23416e-13 2.30952e-12 0 0 0 0)
(1.27394e-12 -8.45939e-12 0 -5.42101e-14 -4.66512e-13 0 0 0 0)
(-2.1684e-13 1.81823e-12 0 -2.43945e-13 6.92491e-14 0 0 0 0)
(1.35525e-13 -4.13074e-13 0 -5.42101e-14 -5.44577e-14 0 0 0 0)
(0 9.01895e-14 0 -8.13152e-14 -2.33723e-15 0 0 0 0)
(-5.42101e-14 -2.35429e-14 0 0 1.32144e-14 0 0 0 0)
(-2.71051e-14 7.50062e-15 0 -5.42101e-14 3.9345e-15 0 0 0 0)
(0 8.31014e-17 0 0 -3.90866e-15 0 0 0 0)
(0 -7.43232e-15 0 0 -2.22184e-15 0 0 0 0)
(0 -4.07964e-15 0 0 -3.17409e-15 0 0 0 0)
(2.71051e-14 -1.58192e-15 0 -2.71051e-14 -1.30405e-14 0 0 0 0)
(5.42101e-14 2.24654e-15 0 0 -2.45983e-14 0 0 0 0)
(5.42101e-14 -3.05042e-15 0 -2.71051e-14 -3.22975e-14 0 0 0 0)
(-2.71051e-14 -1.93749e-14 0 2.71051e-14 -5.53908e-15 0 0 0 0)
(0 -1.18966e-14 0 5.42101e-14 7.56568e-15 0 0 0 0)
(-2.71051e-14 8.52e-15 0 0 1.04926e-14 0 0 0 0)
(-5.42101e-14 1.54228e-14 0 -2.71051e-14 1.00242e-14 0 0 0 0)
(5.42101e-14 8.40665e-15 0 0 -3.05812e-15 0 0 0 0)
(0 -7.71906e-16 0 -5.42101e-14 -1.46455e-15 0 0 0 0)
(0 -3.02433e-15 0 -2.71051e-14 1.18372e-15 0 0 0 0)
(7.31836e-13 -4.50875e-12 0 -4.87891e-13 -1.06829e-11 0 0 0 0)
(-1.02999e-12 5.43862e-12 0 3.25261e-13 2.19689e-12 0 0 0 0)
(2.1684e-13 -1.18946e-12 0 1.35525e-13 -5.29391e-13 0 0 0 0)
(0 2.85495e-13 0 8.13152e-14 8.18735e-14 0 0 0 0)
(2.71051e-14 -3.99987e-14 0 8.13152e-14 -5.10996e-14 0 0 0 0)
(8.13152e-14 1.63267e-14 0 2.71051e-14 -2.30551e-14 0 0 0 0)
(2.71051e-14 -1.19e-14 0 1.0842e-13 -1.91815e-14 0 0 0 0)
(0 7.67097e-16 0 5.42101e-14 -1.48104e-14 0 0 0 0)
(0 3.27165e-15 0 5.42101e-14 -1.21194e-15 0 0 0 0)
(0 -2.37304e-15 0 8.13152e-14 1.38426e-14 0 0 0 0)
(0 -8.35509e-15 0 5.42101e-14 1.36225e-14 0 0 0 0)
(0 -1.045e-14 0 5.42101e-14 3.20946e-15 0 0 0 0)
(0 6.2115e-15 0 2.71051e-14 -1.85164e-14 0 0 0 0)
(0 1.3192e-14 0 0 -9.37428e-15 0 0 0 0)
(0 3.75097e-15 0 0 1.54714e-14 0 0 0 0)
(0 -6.06699e-16 0 0 1.57611e-14 0 0 0 0)
(-2.71051e-14 -3.92714e-15 0 2.71051e-14 1.47923e-14 0 0 0 0)
(-2.71051e-14 8.73631e-16 0 0 5.26805e-15 0 0 0 0)
(0 4.04926e-15 0 2.71051e-14 1.52283e-15 0 0 0 0)
(0 3.26237e-15 0 0 -4.04462e-15 0 0 0 0)
(-1.40946e-12 -1.48939e-12 0 1.6263e-13 1.4555e-11 0 0 0 0)
(1.95156e-12 1.69413e-12 0 2.71051e-14 -3.15852e-12 0 0 0 0)
(-4.87891e-13 -2.96795e-13 0 1.0842e-13 7.54464e-13 0 0 0 0)
(2.71051e-14 6.52168e-14 0 0 -1.37764e-13 0 0 0 0)
(-2.71051e-14 -1.47391e-14 0 2.71051e-14 4.28837e-14 0 0 0 0)
(2.71051e-14 8.37527e-15 0 -5.42101e-14 -9.06081e-15 0 0 0 0)
(0 1.57453e-14 0 -5.42101e-14 1.39131e-14 0 0 0 0)
(-2.71051e-14 1.80526e-14 0 -1.0842e-13 1.00182e-14 0 0 0 0)
(0 2.12206e-14 0 -1.0842e-13 -2.97319e-15 0 0 0 0)
(2.71051e-14 1.07548e-14 0 -8.13152e-14 -1.1819e-14 0 0 0 0)
(-2.71051e-14 -1.2215e-14 0 -1.0842e-13 -1.22747e-14 0 0 0 0)
(0 -2.98923e-14 0 0 -6.69897e-15 0 0 0 0)
(0 -1.56342e-14 0 0 2.59458e-15 0 0 0 0)
(0 1.46129e-14 0 -5.42101e-14 4.08944e-15 0 0 0 0)
(-2.71051e-14 1.32388e-14 0 -2.71051e-14 2.34893e-14 0 0 0 0)
(0 7.84087e-15 0 0 2.12857e-14 0 0 0 0)
(-2.71051e-14 4.92979e-15 0 -8.13152e-14 7.87446e-15 0 0 0 0)
(2.71051e-14 -4.86281e-15 0 0 2.69135e-15 0 0 0 0)
(-2.71051e-14 -1.00846e-14 0 -2.71051e-14 3.73693e-15 0 0 0 0)
(0 -5.02533e-16 0 0 -1.22039e-15 0 0 0 0)
(9.21572e-13 6.88777e-12 0 3.79471e-12 -2.03502e-12 0 0 0 0)
(-1.13841e-12 -8.36196e-12 0 -1.0571e-12 5.74296e-13 0 0 0 0)
(2.1684e-13 1.8313e-12 0 0 -1.16558e-13 0 0 0 0)
(-5.42101e-14 -4.26085e-13 0 -1.0842e-13 4.8413e-14 0 0 0 0)
(0 8.87048e-14 0 -2.71051e-14 8.82929e-15 0 0 0 0)
(-2.71051e-14 -1.2644e-14 0 -5.42101e-14 2.48482e-14 0 0 0 0)
(-5.42101e-14 7.17907e-15 0 -5.42101e-14 1.09145e-14 0 0 0 0)
(0 -1.61192e-14 0 0 -8.20705e-15 0 0 0 0)
(0 -1.85656e-14 0 0 -1.80794e-14 0 0 0 0)
(5.42101e-14 -1.16746e-14 0 0 -3.57963e-14 0 0 0 0)
(2.71051e-14 -3.23509e-15 0 0 -3.60856e-14 0 0 0 0)
(8.13152e-14 4.41935e-15 0 -5.42101e-14 -1.57103e-14 0 0 0 0)
(-2.71051e-14 1.69999e-14 0 -5.42101e-14 1.98094e-14 0 0 0 0)
(0 3.40867e-14 0 -8.13152e-14 1.85623e-14 0 0 0 0)
(2.71051e-14 2.09472e-14 0 -8.13152e-14 4.05796e-15 0 0 0 0)
(-8.13152e-14 -1.62215e-14 0 -8.13152e-14 1.12277e-15 0 0 0 0)
(0 -2.25215e-14 0 0 -1.35174e-14 0 0 0 0)
(5.42101e-14 -3.2639e-15 0 0 -1.78131e-14 0 0 0 0)
(2.71051e-14 1.37529e-16 0 0 -8.25378e-15 0 0 0 0)
(-2.71051e-14 7.4583e-16 0 0 -6.55124e-16 0 0 0 0)
(1.35525e-12 -2.95011e-12 0 -2.11419e-12 -1.59449e-11 0 0 0 0)
(-1.78893e-12 3.61258e-12 0 6.23416e-13 3.42489e-12 0 0 0 0)
(4.60786e-13 -8.22677e-13 0 5.42101e-14 -8.19034e-13 0 0 0 0)
(-2.71051e-14 1.90604e-13 0 1.35525e-13 1.52083e-13 0 0 0 0)
(2.71051e-14 -3.83039e-14 0 8.13152e-14 -4.63946e-14 0 0 0 0)
(0 1.04604e-14 0 1.0842e-13 2.27522e-15 0 0 0 0)
(2.71051e-14 -1.73099e-14 0 1.35525e-13 -1.85505e-14 0 0 0 0)
(0 -1.09413e-14 0 1.35525e-13 -1.07984e-14 0 0 0 0)
(2.71051e-14 -6.36862e-15 0 1.35525e-13 8.06184e-15 0 0 0 0)
(-2.71051e-14 -7.25137e-15 0 8.13152e-14 2.34931e-14 0 0 0 0)
(-5.42101e-14 7.87101e-15 0 1.0842e-13 2.56475e-14 0 0 0 0)
(-5.42101e-14 2.60026e-14 0 0 2.63304e-14 0 0 0 0)
(-2.71051e-14 1.86384e-14 0 2.71051e-14 2.04737e-14 0 0 0 0)
(-5.42101e-14 -1.13853e-15 0 8.13152e-14 1.03778e-16 0 0 0 0)
(8.13152e-14 -4.20073e-15 0 5.42101e-14 -3.67454e-14 0 0 0 0)
(5.42101e-14 -9.73453e-15 0 8.13152e-14 -3.33593e-14 0 0 0 0)
(0 -1.40061e-14 0 8.13152e-14 -8.10983e-15 0 0 0 0)
(0 4.0085e-16 0 2.71051e-14 -2.09482e-15 0 0 0 0)
(0 7.07344e-15 0 2.71051e-14 -5.38205e-15 0 0 0 0)
(0 8.40637e-15 0 2.71051e-14 -1.93134e-15 0 0 0 0)
(-5.69206e-13 -5.63224e-12 0 -9.21572e-13 1.09497e-11 0 0 0 0)
(1.00289e-12 6.76391e-12 0 1.35525e-13 -2.36734e-12 0 0 0 0)
(-2.71051e-13 -1.44151e-12 0 -1.0842e-13 5.73194e-13 0 0 0 0)
(0 3.46554e-13 0 -5.42101e-14 -1.03151e-13 0 0 0 0)
(-2.71051e-14 -6.11031e-14 0 -8.13152e-14 3.60358e-14 0 0 0 0)
(0 1.52001e-14 0 -5.42101e-14 -3.744e-15 0 0 0 0)
(0 -5.89455e-15 0 -8.13152e-14 1.03752e-14 0 0 0 0)
(-5.42101e-14 1.04932e-14 0 -8.13152e-14 1.94605e-14 0 0 0 0)
(0 1.5726e-14 0 -8.13152e-14 1.08233e-14 0 0 0 0)
(0 5.91103e-15 0 -8.13152e-14 1.01031e-14 0 0 0 0)
(-2.71051e-14 -3.97801e-16 0 -5.42101e-14 1.21637e-14 0 0 0 0)
(0 -7.54402e-16 0 0 2.62993e-15 0 0 0 0)
(5.42101e-14 -9.2267e-15 0 -2.71051e-14 -1.30846e-14 0 0 0 0)
(-2.71051e-14 -2.31324e-14 0 0 -6.78177e-15 0 0 0 0)
(0 -1.25159e-14 0 0 1.11864e-14 0 0 0 0)
(-2.71051e-14 1.24141e-14 0 -2.71051e-14 9.93487e-15 0 0 0 0)
(-2.71051e-14 8.74305e-15 0 -2.71051e-14 8.50683e-15 0 0 0 0)
(0 -5.36124e-16 0 -2.71051e-14 1.51979e-14 0 0 0 0)
(0 3.01008e-16 0 -2.71051e-14 8.64211e-15 0 0 0 0)
(-2.71051e-14 8.05922e-15 0 -2.71051e-14 7.82349e-15 0 0 0 0)
)
;

boundaryField
{
    movingWall
    {
        type            extrapolatedCalculated;
        value           nonuniform List<tensor> 
20
(
(-5.69206e-13 -5.63224e-12 0 3.73035e-12 2.85358e-11 0 0 0 0)
(1.00289e-12 6.76391e-12 0 -1.42109e-12 -6.00686e-12 0 0 0 0)
(-2.71051e-13 -1.44151e-12 0 -3.10862e-13 1.48018e-12 0 0 0 0)
(0 3.46554e-13 0 -3.55271e-13 -2.4082e-13 0 0 0 0)
(-2.71051e-14 -6.11031e-14 0 -3.10862e-13 9.39664e-14 0 0 0 0)
(0 1.52001e-14 0 -2.22045e-13 3.59252e-15 0 0 0 0)
(0 -5.89455e-15 0 -3.10862e-13 3.31659e-14 0 0 0 0)
(-5.42101e-14 1.04932e-14 0 -2.22045e-13 2.71707e-14 0 0 0 0)
(0 1.5726e-14 0 -1.77636e-13 -8.80676e-15 0 0 0 0)
(0 5.91103e-15 0 -1.77636e-13 -3.57331e-14 0 0 0 0)
(-2.71051e-14 -3.97801e-16 0 -1.33227e-13 -3.24509e-14 0 0 0 0)
(0 -7.54402e-16 0 -8.88178e-14 -3.41419e-14 0 0 0 0)
(5.42101e-14 -9.2267e-15 0 -1.77636e-13 -2.94333e-14 0 0 0 0)
(-2.71051e-14 -2.31324e-14 0 -2.22045e-13 2.7649e-15 0 0 0 0)
(0 -1.25159e-14 0 -1.77636e-13 6.30963e-14 0 0 0 0)
(-2.71051e-14 1.24141e-14 0 -1.77636e-13 5.28285e-14 0 0 0 0)
(-2.71051e-14 8.74305e-15 0 -4.44089e-14 1.34401e-14 0 0 0 0)
(0 -5.36124e-16 0 -4.44089e-14 1.78563e-14 0 0 0 0)
(0 3.01008e-16 0 -4.44089e-14 1.55846e-14 0 0 0 0)
(-2.71051e-14 8.05922e-15 0 -4.44089e-14 1.66523e-14 0 0 0 0)
)
;
    }
    fixedWalls
    {
        type            extrapolatedCalculated;
        value           nonuniform List<tensor> 
60
(
(-3.10862e-12 4.63941e-11 0 3.79471e-13 1.37056e-11 0 0 0 0)
(4.66294e-12 8.42842e-12 0 1.30104e-12 -2.05943e-11 0 0 0 0)
(2.08722e-12 -3.59832e-11 0 -2.6563e-12 9.20178e-13 0 0 0 0)
(-6.03961e-12 1.21091e-11 0 6.23416e-13 1.22228e-11 0 0 0 0)
(4.66294e-12 1.29082e-11 0 3.52366e-13 -1.06291e-11 0 0 0 0)
(-4.70735e-12 -3.04073e-11 0 -1.35525e-13 5.69696e-12 0 0 0 0)
(4.21885e-12 3.5696e-11 0 5.69206e-13 5.82989e-12 0 0 0 0)
(-2.4869e-12 -7.0878e-12 0 -1.0571e-12 -1.80099e-11 0 0 0 0)
(4.44089e-14 -3.63436e-11 0 5.42101e-14 1.61185e-11 0 0 0 0)
(-2.39808e-12 5.73863e-11 0 -2.1684e-13 -2.43378e-12 0 0 0 0)
(-7.99361e-13 -4.60787e-11 0 2.1413e-12 -1.04892e-11 0 0 0 0)
(6.21725e-12 1.54297e-11 0 -1.92446e-12 1.57306e-11 0 0 0 0)
(-8.52651e-12 1.68436e-11 0 2.71051e-14 -1.1911e-11 0 0 0 0)
(6.43929e-12 -3.22145e-11 0 7.31836e-13 4.69129e-12 0 0 0 0)
(-5.68434e-12 3.56088e-11 0 -6.23416e-13 2.30952e-12 0 0 0 0)
(3.9968e-12 -2.29764e-11 0 -4.87891e-13 -1.06829e-11 0 0 0 0)
(-7.81597e-12 -7.12286e-12 0 1.6263e-13 1.4555e-11 0 0 0 0)
(4.79616e-12 3.52438e-11 0 3.79471e-12 -2.03502e-12 0 0 0 0)
(7.37188e-12 -1.52629e-11 0 -2.11419e-12 -1.59449e-11 0 0 0 0)
(-3.73035e-12 -2.85358e-11 0 -9.21572e-13 1.09497e-11 0 0 0 0)
(8.88178e-14 2.01331e-14 0 0 -1.23746e-14 0 0 0 0)
(0 2.93653e-14 0 0 5.73403e-16 0 0 0 0)
(0 1.78394e-14 0 0 -1.59629e-16 0 0 0 0)
(0 3.00038e-14 0 0 2.08222e-15 0 0 0 0)
(-4.44089e-14 9.51056e-15 0 0 1.39791e-14 0 0 0 0)
(0 -2.59126e-14 0 0 7.23416e-15 0 0 0 0)
(0 -1.94261e-14 0 0 -2.55033e-15 0 0 0 0)
(0 -1.57113e-14 0 0 6.0032e-15 0 0 0 0)
(0 -4.34389e-14 0 0 8.47418e-15 0 0 0 0)
(0 -4.9608e-14 0 0 -1.27405e-15 0 0 0 0)
(-4.44089e-14 -3.83427e-14 0 0 -6.1593e-15 0 0 0 0)
(0 -2.49708e-14 0 0 -1.28029e-14 0 0 0 0)
(8.88178e-14 1.28689e-14 0 0 -8.43778e-15 0 0 0 0)
(-8.88178e-14 8.78029e-15 0 2.71051e-14 4.25656e-15 0 0 0 0)
(0 -4.15734e-15 0 -2.71051e-14 1.18372e-15 0 0 0 0)
(0 4.04542e-15 0 0 -4.04462e-15 0 0 0 0)
(0 1.20212e-14 0 0 -1.22039e-15 0 0 0 0)
(-4.44089e-14 8.92696e-15 0 0 -6.55124e-16 0 0 0 0)
(0 1.46416e-14 0 2.71051e-14 -1.93134e-15 0 0 0 0)
(-4.44089e-14 1.66523e-14 0 -2.71051e-14 7.82349e-15 0 0 0 0)
(-4.33681e-13 9.1745e-12 0 -3.10862e-12 4.63941e-11 0 0 0 0)
(8.94467e-13 -1.10059e-11 0 1.37668e-12 -9.6961e-12 0 0 0 0)
(-2.71051e-13 2.31036e-12 0 4.44089e-13 2.37057e-12 0 0 0 0)
(-2.71051e-14 -5.57774e-13 0 2.66454e-13 -4.54663e-13 0 0 0 0)
(2.71051e-14 1.20034e-13 0 3.55271e-13 1.39478e-13 0 0 0 0)
(0 -2.40802e-14 0 3.55271e-13 2.54718e-14 0 0 0 0)
(-5.42101e-14 -5.53219e-15 0 3.10862e-13 4.3157e-14 0 0 0 0)
(0 -2.17885e-14 0 2.66454e-13 3.34305e-15 0 0 0 0)
(2.71051e-14 -5.47994e-15 0 2.66454e-13 -4.39972e-14 0 0 0 0)
(2.71051e-14 2.30852e-14 0 3.9968e-13 -1.85767e-14 0 0 0 0)
(-2.71051e-14 2.12967e-14 0 3.10862e-13 4.83435e-14 0 0 0 0)
(-2.71051e-14 6.42135e-15 0 3.10862e-13 6.661e-14 0 0 0 0)
(-2.71051e-14 -6.06597e-15 0 2.66454e-13 7.40289e-14 0 0 0 0)
(-5.42101e-14 -1.12263e-14 0 1.77636e-13 4.23461e-14 0 0 0 0)
(0 -6.93998e-16 0 8.88178e-14 2.91237e-14 0 0 0 0)
(-2.71051e-14 2.47671e-15 0 4.44089e-14 3.95701e-14 0 0 0 0)
(-8.13152e-14 -1.40968e-14 0 0 3.90305e-14 0 0 0 0)
(-2.71051e-14 -1.75351e-14 0 -2.66454e-13 -1.68171e-14 0 0 0 0)
(2.71051e-14 -8.28983e-16 0 -8.88178e-14 -3.111e-14 0 0 0 0)
(5.42101e-14 1.28108e-14 0 -8.88178e-14 -2.01331e-14 0 0 0 0)
)
;
    }
    frontAndBack
    {
        type            empty;
    }
}


// ************************************************************************* //
