/*--------------------------------*- C++ -*----------------------------------*\
| =========                 |                                                 |
| \\      /  F ield         | OpenFOAM: The Open Source CFD Toolbox           |
|  \\    /   O peration     | Version:  2312                                  |
|   \\  /    A nd           | Website:  www.openfoam.com                      |
|    \\/     M anipulation  |                                                 |
\*---------------------------------------------------------------------------*/
FoamFile
{
    version     2.0;
    format      ascii;
    arch        "LSB;label=32;scalar=64";
    class       volVectorField;
    location    "8.875";
    object      LambVectorField;
}
// * * * * * * * * * * * * * * * * * * * * * * * * * * * * * * * * * * * * * //

dimensions      [0 1 -2 0 0 0 0];

internalField   nonuniform List<vector> 
400
(
(-1.02009e-24 -8.79503e-12 -8.79503e-12)
(-2.62843e-25 1.08433e-11 -0)
(-1.36922e-26 -2.31036e-12 -2.31036e-12)
(-6.95617e-28 6.11984e-13 -0)
(-2.29523e-29 -6.58236e-14 -6.58236e-14)
(3.25945e-30 5.11852e-14 0)
(6.44574e-30 5.97423e-14 5.97423e-14)
(6.35169e-31 7.59987e-14 0)
(-6.56549e-30 5.969e-14 5.969e-14)
(-1.4455e-30 3.11249e-14 -0)
(-2.57389e-30 -2.12967e-14 -2.12967e-14)
(7.95802e-30 4.77888e-14 0)
(1.11554e-29 6.02761e-14 6.02761e-14)
(4.05796e-30 3.83314e-14 0)
(5.05294e-32 6.93998e-16 6.93998e-16)
(-2.45009e-31 -2.47671e-15 0)
(4.02032e-30 4.12019e-14 4.12019e-14)
(1.54192e-30 -3.6675e-14 -0)
(4.15172e-30 -5.33811e-14 -5.33811e-14)
(6.448e-31 -1.28108e-14 -0)
(-8.17347e-27 -3.879e-13 -3.879e-13)
(-6.67192e-27 1.59553e-12 -0)
(-5.00455e-28 -4.7665e-13 -4.7665e-13)
(-5.41758e-30 2.37325e-14 -0)
(5.80505e-32 -1.09085e-13 -1.09085e-13)
(-5.59779e-30 -1.13271e-13 0)
(-6.20148e-30 -1.29273e-13 -1.29273e-13)
(1.18182e-30 -9.01703e-14 -0)
(1.38527e-29 -1.02973e-13 -1.02973e-13)
(1.02539e-29 -1.51742e-13 -0)
(-2.61024e-30 -9.44315e-14 -9.44315e-14)
(-9.69524e-30 -1.52466e-13 0)
(-2.91905e-29 -1.48139e-13 -1.48139e-13)
(-1.37343e-29 -7.23914e-14 0)
(-5.679e-30 -5.26755e-14 -5.26755e-14)
(-1.12028e-29 -6.42448e-14 0)
(-3.94258e-30 -1.89403e-14 -1.89403e-14)
(1.01989e-29 1.09986e-13 0)
(-5.56304e-30 7.08243e-14 7.08243e-14)
(1.11559e-30 -1.5196e-14 -0)
(-4.04295e-25 4.49427e-12 4.49427e-12)
(-1.41283e-25 -7.65668e-12 0)
(-7.90767e-27 1.77841e-12 1.77841e-12)
(-4.12029e-28 -4.38728e-13 0)
(-7.8455e-30 1.32548e-13 1.32548e-13)
(1.28494e-29 8.24897e-14 0)
(-7.47856e-30 1.05427e-13 1.05427e-13)
(-4.61567e-30 5.40774e-14 -0)
(-3.64423e-30 5.23531e-14 5.23531e-14)
(-4.16757e-32 6.24045e-16 -0)
(-1.17404e-30 1.54787e-14 1.54787e-14)
(-8.84748e-31 -1.78807e-14 0)
(-3.96112e-31 -3.8473e-15 -3.8473e-15)
(5.71023e-30 6.49233e-14 0)
(-2.37847e-31 5.69915e-14 5.69915e-14)
(-7.75351e-31 -1.28926e-14 0)
(2.04289e-31 1.63755e-15 1.63755e-15)
(-1.79681e-31 -4.10571e-15 0)
(-9.29934e-31 8.83624e-15 8.83624e-15)
(6.68264e-31 -1.4984e-14 -0)
(-5.42743e-26 -1.79284e-12 -1.79284e-12)
(-1.55645e-26 2.54727e-12 -0)
(-9.81199e-28 -6.34035e-13 -6.34035e-13)
(-5.27675e-30 1.28795e-13 -0)
(-2.14906e-30 -8.2786e-15 -8.2786e-15)
(2.23829e-30 5.35272e-14 0)
(-1.31898e-31 2.84901e-14 2.84901e-14)
(5.26862e-31 1.88396e-14 0)
(-1.16781e-31 -1.49672e-15 -1.49672e-15)
(4.97409e-30 1.15857e-13 0)
(1.67187e-31 4.57745e-14 4.57745e-14)
(1.01794e-29 7.99703e-14 0)
(2.18949e-30 1.28036e-13 1.28036e-13)
(-4.01945e-30 5.83656e-14 -0)
(-1.14255e-30 4.67214e-14 4.67214e-14)
(2.6043e-31 4.32575e-14 0)
(3.65113e-31 4.29182e-15 4.29182e-15)
(-1.74616e-30 4.73242e-14 -0)
(-4.46363e-31 3.81117e-15 3.81117e-15)
(1.44115e-30 -1.92129e-14 -0)
(-7.04714e-26 -2.18377e-12 -2.18377e-12)
(-2.09235e-26 3.02841e-12 -0)
(-9.64629e-28 -5.62374e-13 -5.62374e-13)
(-4.97189e-29 2.47209e-13 -0)
(2.78199e-30 4.93787e-14 4.93787e-14)
(-6.27825e-30 4.10862e-14 -0)
(-1.35041e-30 1.61781e-14 1.61781e-14)
(-7.35954e-31 1.69038e-14 -0)
(2.37946e-31 1.28335e-14 1.28335e-14)
(2.12845e-30 2.14609e-14 0)
(4.91527e-30 6.55522e-14 6.55522e-14)
(-1.05012e-30 7.37266e-14 -0)
(-4.18264e-30 3.48026e-14 3.48026e-14)
(6.49037e-30 -7.11519e-14 -0)
(-3.71376e-30 -7.54279e-14 -7.54279e-14)
(-4.41758e-31 -3.65212e-15 0)
(1.07232e-30 1.25042e-14 1.25042e-14)
(-5.76775e-32 1.41268e-14 -0)
(-1.09321e-31 1.96936e-15 1.96936e-15)
(1.88517e-31 -7.92875e-15 -0)
(-4.42766e-25 5.82446e-12 5.82446e-12)
(-1.15787e-25 -7.05218e-12 0)
(-5.88821e-27 1.63597e-12 1.63597e-12)
(-2.54422e-28 -2.91779e-13 0)
(-1.53501e-29 1.10185e-13 1.10185e-13)
(-5.05211e-31 -1.22711e-14 0)
(7.63831e-31 -4.60098e-14 -4.60098e-14)
(-3.86449e-31 9.46423e-15 -0)
(-2.97964e-30 2.67848e-14 2.67848e-14)
(4.96977e-31 -1.32069e-14 -0)
(-5.7554e-32 -2.76366e-15 -2.76366e-15)
(2.33057e-31 -2.33209e-14 -0)
(3.04727e-32 -1.79079e-15 -1.79079e-15)
(-7.27978e-32 -9.19813e-15 0)
(-9.40781e-31 -1.25496e-14 -1.25496e-14)
(1.07741e-30 8.07594e-15 0)
(-8.9595e-32 1.54624e-14 1.54624e-14)
(1.2087e-31 -5.69767e-15 -0)
(-4.40145e-31 -8.59954e-15 -8.59954e-15)
(7.51232e-31 1.15964e-14 0)
(-5.81501e-25 -6.51614e-12 -6.51614e-12)
(-1.48253e-25 8.06308e-12 -0)
(-8.8074e-27 -1.93846e-12 -1.93846e-12)
(-3.16821e-28 3.5228e-13 -0)
(-4.64769e-29 -2.23935e-13 -2.23935e-13)
(6.56023e-31 -4.30449e-14 -0)
(-6.22828e-30 -6.495e-14 -6.495e-14)
(-4.11825e-30 -4.46864e-14 0)
(-6.80057e-32 -1.03539e-13 -1.03539e-13)
(-2.72493e-30 -6.28668e-14 0)
(-9.90056e-30 -1.13508e-13 -1.13508e-13)
(-8.17099e-30 -8.67216e-14 0)
(-9.58806e-30 -6.78617e-14 -6.78617e-14)
(-1.25393e-29 -5.43448e-14 0)
(-3.84359e-30 -2.6947e-14 -2.6947e-14)
(-6.84193e-31 1.63312e-14 -0)
(2.03704e-30 -9.85176e-14 -9.85176e-14)
(-1.28303e-29 -9.85962e-14 0)
(1.24087e-30 8.15649e-15 8.15649e-15)
(9.74697e-31 2.00699e-14 0)
(-6.64349e-27 3.74925e-13 3.74925e-13)
(-4.73962e-27 -1.39431e-12 0)
(-2.51085e-28 3.15877e-13 3.15877e-13)
(-2.14527e-29 -8.9201e-14 0)
(6.8929e-30 7.09667e-14 7.09667e-14)
(7.43484e-31 1.01941e-14 0)
(-3.1993e-31 6.64744e-14 6.64744e-14)
(-1.28945e-30 2.59396e-14 -0)
(2.87491e-31 4.20178e-14 4.20178e-14)
(1.28593e-30 1.78075e-14 0)
(5.93925e-30 5.95011e-14 5.95011e-14)
(1.13035e-30 5.85597e-14 0)
(7.52778e-31 1.33657e-14 1.33657e-14)
(7.50081e-30 4.78687e-14 0)
(8.65863e-30 7.23144e-14 7.23144e-14)
(-1.73917e-30 7.14304e-14 -0)
(-1.40314e-30 2.67431e-14 2.67431e-14)
(-9.256e-31 4.46533e-14 -0)
(-2.58633e-31 -6.00068e-15 -6.00068e-15)
(3.23569e-31 8.23788e-15 0)
(-6.51314e-25 7.1684e-12 7.1684e-12)
(-1.64909e-25 -8.36375e-12 0)
(-9.74023e-27 2.03684e-12 2.03684e-12)
(-3.90291e-28 -4.00302e-13 0)
(-3.54995e-29 1.49846e-13 1.49846e-13)
(6.43533e-31 3.45437e-14 0)
(-1.31465e-30 3.26683e-14 3.26683e-14)
(-6.43292e-31 1.7385e-14 -0)
(2.63796e-30 4.63144e-14 4.63144e-14)
(2.32127e-31 5.5328e-15 0)
(8.07372e-32 4.95401e-14 4.95401e-14)
(-1.61308e-30 -1.81952e-14 0)
(3.57411e-31 1.94687e-15 1.94687e-15)
(8.63152e-31 1.24759e-14 0)
(-2.79954e-31 -4.75927e-15 -4.75927e-15)
(-3.11689e-30 -2.66906e-14 0)
(5.23961e-30 9.58252e-14 9.58252e-14)
(-8.25942e-31 2.91622e-14 -0)
(4.5748e-31 1.34131e-14 1.34131e-14)
(1.54973e-30 1.42704e-14 0)
(-1.64828e-24 -1.1489e-11 -1.1489e-11)
(-4.09926e-25 1.33334e-11 -0)
(-2.20104e-26 -3.07843e-12 -3.07843e-12)
(-1.07656e-27 6.78717e-13 -0)
(-6.68896e-29 -1.84431e-13 -1.84431e-13)
(-2.44728e-31 1.89587e-14 -0)
(-6.9994e-30 -4.0437e-14 -4.0437e-14)
(1.1488e-30 9.54065e-15 0)
(4.75714e-31 6.12345e-15 6.12345e-15)
(1.63909e-32 2.76982e-16 0)
(-5.96747e-31 -7.9654e-15 -7.9654e-15)
(-6.02994e-31 -4.34337e-15 0)
(-1.73535e-30 -1.46628e-14 -1.46628e-14)
(2.26762e-31 1.57385e-14 0)
(1.13544e-31 -2.90887e-15 -2.90887e-15)
(-5.36655e-30 -1.23378e-13 0)
(-9.52323e-30 -8.61485e-14 -8.61485e-14)
(-2.3989e-30 -2.61231e-14 0)
(-3.05438e-30 -3.0324e-14 -3.0324e-14)
(2.78729e-30 2.24745e-14 0)
(-1.30061e-24 1.12903e-11 1.12903e-11)
(-2.6735e-25 -1.12775e-11 0)
(-1.39181e-26 2.45276e-12 2.45276e-12)
(-7.27835e-28 -6.76288e-13 0)
(-1.87736e-29 7.03603e-14 7.03603e-14)
(-8.79679e-30 -8.66102e-14 0)
(-4.33396e-30 -7.57953e-14 -7.57953e-14)
(-2.55489e-30 -5.50995e-14 0)
(-3.85985e-30 -5.84175e-14 -5.84175e-14)
(-8.26895e-30 -9.34952e-14 0)
(-1.16935e-29 -6.2241e-14 -6.2241e-14)
(1.97503e-30 1.17037e-14 0)
(-3.41208e-30 -4.81681e-14 -4.81681e-14)
(-6.06616e-30 -5.59962e-14 0)
(3.82559e-30 4.31306e-14 4.31306e-14)
(-5.11866e-30 9.85802e-14 -0)
(-4.60803e-30 5.48884e-14 5.48884e-14)
(3.88127e-30 -6.61125e-14 -0)
(4.08532e-31 1.16487e-14 1.16487e-14)
(1.25503e-30 1.30928e-14 0)
(-1.92068e-25 -4.97917e-12 -4.97917e-12)
(-3.25832e-26 4.05914e-12 -0)
(-1.62758e-27 -9.15603e-13 -9.15603e-13)
(-8.93855e-29 1.79709e-13 -0)
(2.50483e-30 -1.28573e-13 -1.28573e-13)
(1.84519e-30 -7.43572e-14 -0)
(4.89444e-30 -5.49556e-14 -5.49556e-14)
(1.79359e-30 -1.03313e-13 -0)
(-1.30309e-29 -9.95355e-14 -9.95355e-14)
(-4.86828e-30 -2.9533e-14 0)
(-1.25181e-29 -8.06596e-14 -8.06596e-14)
(-1.18455e-29 -7.48358e-14 0)
(-1.58718e-30 -1.75568e-14 -1.75568e-14)
(-1.78449e-30 -2.84132e-14 0)
(-7.99813e-30 -7.72889e-14 -7.72889e-14)
(1.45069e-31 6.43535e-15 0)
(-2.19761e-30 -5.61618e-14 -5.61618e-14)
(2.25588e-30 5.36363e-14 0)
(-1.30753e-30 -2.91419e-14 -2.91419e-14)
(6.6981e-31 1.07295e-14 0)
(-1.40337e-25 -3.33272e-12 -3.33272e-12)
(-3.37381e-26 3.96419e-12 -0)
(-1.85632e-27 -8.45322e-13 -8.45322e-13)
(-1.02514e-28 3.12031e-13 -0)
(-6.2951e-30 -3.93709e-14 -3.93709e-14)
(2.60553e-30 3.9979e-14 0)
(5.26449e-30 1.68991e-13 1.68991e-13)
(1.2814e-31 8.16126e-14 0)
(2.32685e-30 8.2575e-14 8.2575e-14)
(-1.29503e-30 1.17425e-13 -0)
(-5.4227e-30 8.76478e-14 8.76478e-14)
(-6.42217e-30 8.63717e-14 -0)
(-1.00193e-29 8.91121e-14 8.91121e-14)
(-3.05115e-30 2.00305e-14 -0)
(2.07999e-30 -4.9892e-14 -4.9892e-14)
(-4.47332e-30 -5.92141e-14 0)
(7.45551e-32 8.92865e-15 8.92865e-15)
(-1.17113e-32 8.52248e-16 -0)
(-4.99007e-33 2.89481e-14 2.89481e-14)
(1.0406e-31 -3.23446e-15 -0)
(-5.70487e-25 7.0836e-12 7.0836e-12)
(-1.31606e-25 -7.73311e-12 0)
(-6.50911e-27 1.73704e-12 1.73704e-12)
(-3.85507e-28 -3.84186e-13 0)
(-3.33438e-29 1.88986e-13 1.88986e-13)
(-5.2212e-30 7.12602e-14 -0)
(2.45324e-30 -3.23282e-14 -3.23282e-14)
(1.45659e-31 -6.92343e-15 -0)
(1.68746e-32 -2.53708e-15 -2.53708e-15)
(-1.54018e-31 -3.55507e-14 0)
(1.09208e-30 1.4036e-14 1.4036e-14)
(-1.18915e-30 -8.80702e-15 0)
(1.11233e-29 6.70578e-14 6.70578e-14)
(7.06911e-31 1.07986e-13 0)
(-9.43786e-30 9.35958e-14 9.35958e-14)
(-9.8101e-30 8.43803e-14 -0)
(-9.4266e-30 7.16916e-14 7.16916e-14)
(2.47556e-31 -1.23623e-14 -0)
(-2.14688e-31 2.72976e-14 2.72976e-14)
(-5.29529e-31 2.41235e-14 -0)
(-6.7835e-25 -7.62004e-12 -7.62004e-12)
(-1.60166e-25 8.40518e-12 -0)
(-9.1313e-27 -2.06217e-12 -2.06217e-12)
(-3.13434e-28 3.58864e-13 -0)
(-5.09817e-29 -1.71505e-13 -1.71505e-13)
(6.70738e-31 2.35429e-14 0)
(-3.81573e-30 -6.17107e-14 -6.17107e-14)
(-8.60069e-33 -8.31014e-17 0)
(4.65735e-31 7.43232e-15 7.43232e-15)
(1.19016e-31 4.07964e-15 0)
(-5.58116e-31 -2.55231e-14 -2.55231e-14)
(-2.99999e-32 -2.24654e-15 0)
(-1.0664e-30 -2.40546e-14 -2.40546e-14)
(-7.97147e-31 4.648e-14 -0)
(-9.87743e-30 6.61067e-14 6.61067e-14)
(1.15971e-30 -8.52e-15 -0)
(2.731e-30 -4.25279e-14 -4.25279e-14)
(-1.52265e-31 -8.40665e-15 0)
(-1.06075e-30 -5.34382e-14 -5.34382e-14)
(-2.50279e-31 -2.40807e-14 0)
(-2.30962e-25 4.02086e-12 4.02086e-12)
(-6.31676e-26 -5.11336e-12 0)
(-4.0475e-27 1.32498e-12 1.32498e-12)
(-9.36901e-29 -2.0418e-13 0)
(-2.42394e-29 1.21314e-13 1.21314e-13)
(6.34572e-31 1.07784e-14 0)
(-4.39657e-30 1.2032e-13 1.2032e-13)
(-3.21327e-30 5.3443e-14 -0)
(-1.47057e-30 5.09385e-14 5.09385e-14)
(-2.29378e-30 8.36882e-14 -0)
(-3.29093e-30 6.25652e-14 6.25652e-14)
(-7.17465e-30 6.46601e-14 -0)
(-3.28237e-30 2.08936e-14 2.08936e-14)
(6.44357e-31 -1.3192e-14 -0)
(9.44476e-32 -3.75097e-15 -3.75097e-15)
(-6.87676e-33 6.06699e-16 -0)
(-9.69647e-31 3.10322e-14 3.10322e-14)
(4.42111e-32 -8.73631e-16 -0)
(-5.1899e-31 2.30558e-14 2.30558e-14)
(3.29942e-32 -3.26237e-15 -0)
(-2.94177e-26 1.65202e-12 1.65202e-12)
(-4.85649e-27 -1.66702e-12 0)
(-3.50877e-28 4.05215e-13 4.05215e-13)
(3.56539e-30 -6.52168e-14 -0)
(-8.94356e-30 4.18441e-14 4.18441e-14)
(1.26461e-29 -6.25854e-14 -0)
(9.09296e-30 -6.99554e-14 -6.99554e-14)
(5.64164e-30 -1.26473e-13 -0)
(-6.55257e-30 -1.29641e-13 -1.29641e-13)
(-1.54308e-29 -9.20699e-14 0)
(-1.52092e-29 -9.62052e-14 -9.62052e-14)
(1.35856e-30 2.98923e-14 0)
(-2.20178e-30 1.56342e-14 1.56342e-14)
(7.632e-30 -6.8823e-14 -0)
(-2.13727e-31 -4.03439e-14 -4.03439e-14)
(-1.68539e-31 -7.84087e-15 0)
(-7.21925e-30 -8.6245e-14 -8.6245e-14)
(3.44252e-31 4.86281e-15 0)
(-5.97048e-31 -1.70205e-14 -1.70205e-14)
(-1.51026e-32 5.02533e-16 -0)
(-2.72528e-25 -3.09306e-12 -3.09306e-12)
(-1.40485e-25 7.30486e-12 -0)
(-8.22232e-27 -1.8313e-12 -1.8313e-12)
(-2.91865e-28 3.17665e-13 -0)
(-2.65239e-29 -1.1581e-13 -1.1581e-13)
(1.31904e-30 -4.15661e-14 -0)
(-6.29794e-30 -6.13892e-14 -6.13892e-14)
(6.45689e-31 1.61192e-14 0)
(-1.08797e-30 1.85656e-14 1.85656e-14)
(-1.6998e-30 1.16746e-14 -0)
(-5.67265e-31 3.23509e-15 3.23509e-15)
(1.04331e-29 -5.86295e-14 -0)
(9.33947e-30 -7.121e-14 -7.121e-14)
(9.17449e-31 -1.15402e-13 -0)
(-2.14458e-29 -1.02262e-13 -1.02262e-13)
(-1.31178e-29 -6.50937e-14 0)
(1.06973e-30 2.25215e-14 2.25215e-14)
(-7.73306e-32 3.2639e-15 -0)
(-2.04356e-33 -1.37529e-16 -1.37529e-16)
(1.6645e-32 -7.4583e-16 -0)
(-3.18962e-26 8.35914e-13 8.35914e-13)
(-2.58749e-26 -2.98917e-12 0)
(-1.78138e-27 8.76887e-13 8.76887e-13)
(-2.36542e-29 -5.50789e-14 0)
(-1.50053e-29 1.19619e-13 1.19619e-13)
(4.54742e-30 9.79598e-14 0)
(-3.18472e-30 1.52835e-13 1.52835e-13)
(-1.85541e-29 1.46467e-13 -0)
(-1.84817e-29 1.41894e-13 1.41894e-13)
(-1.68599e-29 8.85665e-14 -0)
(-2.03878e-29 1.00549e-13 1.00549e-13)
(2.9033e-30 -2.60026e-14 -0)
(4.84821e-31 8.46665e-15 8.46665e-15)
(6.16176e-30 8.24537e-14 0)
(2.67973e-30 5.84108e-14 5.84108e-14)
(2.97939e-30 9.10497e-14 0)
(-4.90601e-30 9.53213e-14 9.53213e-14)
(-2.86639e-30 2.67042e-14 -0)
(-9.50693e-31 2.00316e-14 2.00316e-14)
(-6.84449e-31 1.86987e-14 -0)
(-3.36058e-25 4.71067e-12 4.71067e-12)
(-9.95396e-26 -6.62839e-12 0)
(-4.93305e-27 1.33309e-12 1.33309e-12)
(-2.4128e-28 -4.00764e-13 0)
(4.74814e-30 -2.02121e-14 -2.02121e-14)
(6.23395e-31 -6.94102e-14 -0)
(6.25348e-30 -7.54206e-14 -7.54206e-14)
(6.23624e-30 -9.18083e-14 -0)
(-2.13655e-30 -9.70411e-14 -9.70411e-14)
(-7.79216e-30 -8.72262e-14 0)
(-4.36564e-30 -5.38123e-14 -5.38123e-14)
(6.43918e-32 7.54402e-16 0)
(-1.31555e-30 -1.78784e-14 -1.78784e-14)
(-1.59897e-31 2.31324e-14 -0)
(-1.97427e-30 1.25159e-14 1.25159e-14)
(5.21934e-30 -3.95191e-14 -0)
(1.2045e-30 -3.58481e-14 -3.58481e-14)
(1.18606e-30 -2.65689e-14 -0)
(1.06778e-30 -2.74061e-14 -2.74061e-14)
(1.46392e-30 -3.51643e-14 -0)
)
;

boundaryField
{
    movingWall
    {
        type            calculated;
        value           nonuniform List<vector> 
20
(
(0 9.36259e-12 -0)
(0 -8.185e-12 -0)
(0 1.13065e-12 -0)
(0 -7.01826e-13 -0)
(0 -2.49759e-13 -0)
(0 -2.37245e-13 -0)
(0 -3.04968e-13 -0)
(0 -2.32538e-13 -0)
(0 -1.93362e-13 -0)
(0 -1.83547e-13 -0)
(0 -1.32829e-13 -0)
(0 -8.80634e-14 -0)
(0 -1.68409e-13 -0)
(0 -1.98912e-13 -0)
(0 -1.6512e-13 -0)
(0 -1.9005e-13 -0)
(0 -5.3152e-14 -0)
(0 -4.38728e-14 -0)
(0 -4.47099e-14 -0)
(0 -5.24681e-14 -0)
)
;
    }
    fixedWalls
    {
        type            calculated;
        value           nonuniform List<vector> 
60
(
(0 -4.60146e-11 -0)
(0 -7.12738e-12 -0)
(0 3.33269e-11 -0)
(0 -1.14857e-11 -0)
(0 -1.25558e-11 -0)
(0 3.02718e-11 -0)
(0 -3.51268e-11 -0)
(0 6.0307e-12 -0)
(0 3.63978e-11 -0)
(0 -5.76032e-11 -0)
(0 4.822e-11 -0)
(0 -1.73542e-11 -0)
(0 -1.68165e-11 -0)
(0 3.29463e-11 -0)
(0 -3.62322e-11 -0)
(0 2.24885e-11 -0)
(0 7.28549e-12 -0)
(0 -3.14491e-11 -0)
(0 1.31487e-11 -0)
(0 2.76143e-11 -0)
(0 -2.01331e-14 -0)
(0 -2.93653e-14 -0)
(0 -1.78394e-14 -0)
(0 -3.00038e-14 -0)
(0 -9.51056e-15 -0)
(0 2.59126e-14 -0)
(0 1.94261e-14 -0)
(0 1.57113e-14 -0)
(0 4.34389e-14 -0)
(0 4.9608e-14 -0)
(0 3.83427e-14 -0)
(0 2.49708e-14 -0)
(0 -1.28689e-14 -0)
(0 1.83248e-14 -0)
(0 -2.29477e-14 -0)
(0 -4.04542e-15 -0)
(0 -1.20212e-14 -0)
(0 -8.92696e-15 -0)
(0 1.24634e-14 -0)
(0 -4.37574e-14 -0)
(0 -1.22831e-11 -0)
(0 1.23826e-11 -0)
(0 -1.86627e-12 -0)
(0 8.24228e-13 -0)
(0 2.35238e-13 -0)
(0 3.79352e-13 -0)
(0 3.16395e-13 -0)
(0 2.88242e-13 -0)
(0 2.71933e-13 -0)
(0 3.76595e-13 -0)
(0 2.89566e-13 -0)
(0 3.04441e-13 -0)
(0 2.72519e-13 -0)
(0 1.88862e-13 -0)
(0 8.95118e-14 -0)
(0 4.19322e-14 -0)
(0 1.40968e-14 -0)
(0 -2.48918e-13 -0)
(0 -8.79889e-14 -0)
(0 -1.01629e-13 -0)
)
;
    }
    frontAndBack
    {
        type            empty;
    }
}


// ************************************************************************* //
