/*--------------------------------*- C++ -*----------------------------------*\
| =========                 |                                                 |
| \\      /  F ield         | OpenFOAM: The Open Source CFD Toolbox           |
|  \\    /   O peration     | Version:  2312                                  |
|   \\  /    A nd           | Website:  www.openfoam.com                      |
|    \\/     M anipulation  |                                                 |
\*---------------------------------------------------------------------------*/
FoamFile
{
    version     2.0;
    format      ascii;
    arch        "LSB;label=32;scalar=64";
    class       volScalarField;
    location    "8.875";
    object      Lambda2Field;
}
// * * * * * * * * * * * * * * * * * * * * * * * * * * * * * * * * * * * * * //

dimensions      [0 0 -2 0 0 0 0];

internalField   nonuniform List<scalar> 
400
(
3.66954e-24
2.58996e-24
7.34684e-26
-1.16065e-26
7.24172e-27
-5.2478e-28
8.35323e-28
-1.18093e-27
4.37616e-28
1.38145e-27
3.3391e-28
8.77629e-28
4.05847e-28
5.69431e-28
0
7.34684e-28
9.77038e-28
9.76272e-28
7.79623e-28
1.5313e-28
2.69403e-24
2.50672e-24
2.05891e-25
8.54196e-27
0
-4.4108e-28
3.78612e-27
2.06648e-27
1.32523e-27
0
1.54971e-27
-2.1589e-27
0
7.25637e-28
8.36131e-28
0
3.18375e-28
0
0
0
1.92321e-23
7.68591e-24
0
3.5084e-28
0
0
0
7.19392e-30
8.35351e-28
0
3.80786e-28
4.05765e-29
0
8.79215e-29
5.83903e-28
2.83437e-28
0
7.91429e-28
0
0
2.92868e-24
3.07666e-24
1.27547e-25
7.34684e-28
1.50605e-28
1.85098e-29
0
2.24035e-28
7.82637e-29
0
4.57297e-28
1.09354e-28
2.46948e-27
9.57547e-29
4.05965e-28
6.30734e-28
1.98114e-29
0
2.83618e-29
0
1.51152e-24
1.44125e-24
1.61624e-25
-5.15514e-27
2.46272e-27
-3.78954e-28
3.63041e-28
2.76505e-28
7.86232e-28
2.17889e-28
1.19826e-28
-3.23305e-28
1.05803e-28
-1.83732e-28
0
1.62282e-28
1.21655e-28
0
2.84226e-28
1.95415e-28
1.51376e-24
2.69139e-24
0
2.36313e-26
6.86857e-28
1.89245e-28
1.17923e-27
0
1.91235e-28
0
0
1.0257e-28
6.84469e-28
0
1.26608e-28
0
1.73054e-28
0
0
0
4.88232e-24
4.39571e-24
0
3.92454e-26
0
6.15358e-28
0
5.17067e-28
5.29247e-28
0
1.83081e-28
-4.31045e-28
0
2.14055e-28
1.67952e-27
2.48876e-28
0
-6.70525e-28
1.72852e-29
0
2.01043e-24
7.42654e-25
7.34684e-28
1.83671e-26
0
1.14717e-29
0
3.15908e-29
1.13402e-27
2.5201e-28
0
-2.35483e-28
3.72405e-28
6.04758e-28
3.96152e-28
0
9.80961e-30
7.69147e-28
0
0
0
2.10642e-24
0
3.12513e-26
0
1.06612e-27
0
5.52875e-28
1.01447e-27
0
2.53159e-28
0
3.94243e-29
2.02457e-28
0
5.72612e-29
0
7.09356e-29
3.71121e-28
7.18118e-29
0
4.22349e-24
0
1.02475e-28
0
0
1.42335e-28
6.95077e-29
0
0
3.62732e-28
6.41559e-29
5.18112e-28
0
0
-1.33712e-27
0
3.58484e-29
0
0
0
0
0
-6.14326e-26
5.33992e-27
-1.02173e-27
1.18353e-27
1.41599e-28
0
-8.78773e-28
2.99327e-28
0
3.27538e-28
0
2.33801e-28
-6.69225e-28
6.97912e-28
0
4.18946e-28
0
0
4.40384e-25
0
1.97334e-26
0
5.79036e-28
0
-1.76869e-27
0
3.31362e-29
5.33033e-29
5.26872e-28
2.58805e-28
6.4396e-28
1.9908e-27
0
6.28885e-28
5.13225e-29
0
0
3.5889e-24
3.60601e-24
5.12906e-26
4.49393e-28
6.33861e-28
0
0
-2.40479e-29
0
-2.41616e-28
2.19744e-28
-4.05765e-28
0
2.23406e-28
4.22127e-28
0
3.11036e-28
3.85441e-29
0
7.11962e-29
0
6.95687e-25
0
0
0
8.17622e-28
1.29117e-28
1.03889e-28
0
-2.12758e-28
4.73608e-28
0
3.82096e-29
-1.43409e-27
0
1.98757e-28
7.82541e-28
0
0
9.89332e-29
0
6.76218e-25
0
2.53584e-26
0
1.74621e-28
3.28075e-28
0
0
0
3.75792e-28
6.05075e-28
1.27047e-27
0
0
1.10094e-28
1.34602e-28
9.3521e-30
4.18451e-29
8.19746e-29
2.73537e-24
2.82985e-24
0
2.32151e-26
0
9.74073e-28
0
4.15844e-29
1.77356e-28
-1.34776e-30
0
-5.56193e-28
1.68363e-28
0
0
0
3.53116e-28
2.77523e-29
1.09755e-28
0
1.74437e-24
3.85452e-24
2.05859e-25
7.34684e-28
3.3518e-28
0
0
-1.22259e-27
0
-1.39842e-28
2.05904e-27
0
0
-7.75445e-28
3.75846e-28
0
3.33817e-28
7.24335e-30
3.59732e-28
0
2.69864e-23
9.16922e-24
4.70198e-26
4.85401e-26
0
1.30286e-27
6.72105e-28
0
0
1.28137e-27
7.34684e-28
7.23851e-30
0
-2.42721e-27
0
1.32031e-27
0
3.17308e-28
6.81297e-29
4.29187e-31
8.07381e-24
5.45243e-24
1.67726e-25
2.65664e-26
0
1.13412e-27
0
-1.36621e-27
0
0
3.79211e-27
6.9329e-28
9.42289e-28
0
1.97546e-27
3.2128e-28
0
1.08651e-29
1.91726e-28
2.27855e-28
5.51451e-24
1.92246e-24
2.29757e-25
-8.14663e-27
5.70329e-27
-8.09983e-28
4.79316e-28
0
0
-3.78583e-28
7.56249e-28
0
5.01205e-28
4.59924e-29
0
0
1.56657e-28
1.45317e-29
0
0
)
;

boundaryField
{
    movingWall
    {
        type            calculated;
        value           nonuniform List<scalar> 
20
(
0
0
5.2158e-25
-6.51266e-26
1.97293e-26
-3.3622e-27
1.83239e-27
0
0
0
7.87682e-28
6.70043e-29
4.57773e-27
5.14407e-27
2.22327e-27
0
3.46415e-28
2.38087e-29
0
0
)
;
    }
    fixedWalls
    {
        type            calculated;
        value           nonuniform List<scalar> 
60
(
2.72688e-23
3.27087e-23
9.99384e-23
4.4026e-23
2.62914e-23
2.62801e-23
3.81171e-23
1.36772e-23
0
-6.52038e-24
0
8.96035e-24
7.3158e-23
0
1.01127e-23
2.71844e-23
5.9931e-23
1.37881e-22
8.66134e-23
4.02133e-23
2.54465e-28
0
0
0
2.18028e-28
0
0
0
0
0
4.05477e-28
0
1.12598e-28
2.56109e-28
1.12685e-28
0
0
4.29187e-31
3.96863e-28
0
0
0
1.09947e-24
0
4.33792e-26
-7.90619e-27
1.21899e-27
-5.79446e-27
0
9.57178e-27
7.35502e-27
2.73084e-27
0
0
0
8.44672e-28
1.57306e-27
4.95511e-27
8.08312e-28
0
)
;
    }
    frontAndBack
    {
        type            empty;
    }
}


// ************************************************************************* //
