/*--------------------------------*- C++ -*----------------------------------*\
| =========                 |                                                 |
| \\      /  F ield         | OpenFOAM: The Open Source CFD Toolbox           |
|  \\    /   O peration     | Version:  2312                                  |
|   \\  /    A nd           | Website:  www.openfoam.com                      |
|    \\/     M anipulation  |                                                 |
\*---------------------------------------------------------------------------*/
FoamFile
{
    version     2.0;
    format      ascii;
    arch        "LSB;label=32;scalar=64";
    class       volScalarField;
    location    "8.875";
    object      QField;
}
// * * * * * * * * * * * * * * * * * * * * * * * * * * * * * * * * * * * * * //

dimensions      [0 0 -2 0 0 0 0];

internalField   nonuniform List<scalar> 
400
(
-9.42533e-24
-4.33213e-24
-1.89095e-25
3.39367e-26
-5.56334e-27
6.52695e-28
-5.45043e-28
1.18116e-27
-3.65706e-28
-1.56049e-27
-4.02511e-28
-9.71829e-28
-7.06903e-28
-1.29809e-27
0
-7.40786e-28
-2.10399e-27
-1.08797e-27
-4.68651e-28
-6.70828e-28
-1.67108e-23
-6.36848e-24
-4.73938e-25
-8.54196e-27
2.2581e-27
5.25885e-28
-1.81682e-27
-2.23267e-27
-7.00004e-28
2.30807e-27
2.0625e-31
2.29589e-27
1.48685e-27
-7.25637e-28
-5.00514e-28
4.38853e-28
-1.47645e-28
1.86619e-27
9.00659e-28
0
-1.85451e-23
-7.55984e-24
4.88181e-26
-1.01539e-27
4.24668e-27
1.36729e-28
1.96069e-27
-7.19392e-30
-6.76791e-28
0
-3.80156e-28
-1.72658e-28
0
-1.20145e-28
5.09288e-28
-4.5633e-28
0
-1.32611e-27
0
0
-1.60836e-23
-4.64639e-24
-2.17369e-25
-3.09069e-27
6.26289e-28
-1.20223e-28
3.75413e-29
-2.24035e-28
-2.3893e-28
-9.33311e-29
-4.57297e-28
-1.09354e-28
3.12258e-28
-2.60375e-28
-4.05965e-28
-7.58597e-28
-1.05697e-28
6.7773e-28
-1.34793e-28
0
-9.24863e-24
-2.70859e-24
-2.26181e-25
1.34897e-26
-2.42438e-27
3.78959e-28
-3.28625e-28
-2.76505e-28
-8.99845e-28
-3.71351e-28
5.68311e-28
6.85883e-28
3.01115e-28
7.103e-28
8.80741e-28
-6.90582e-28
-4.92586e-28
0
4.56184e-28
-3.78904e-28
-5.59464e-24
-2.774e-24
4.20924e-26
-2.44337e-26
1.43219e-27
-3.72875e-28
-9.3071e-28
0
3.9795e-29
0
0
-1.0257e-28
-7.08717e-28
0
2.5316e-28
0
2.8849e-28
0
0
0
1.33964e-24
-2.17316e-24
3.77402e-25
-3.01231e-26
1.19818e-26
-6.9136e-28
5.82213e-28
-5.64403e-28
-5.29247e-28
7.67009e-28
3.37495e-28
4.39628e-28
5.41271e-28
-3.95969e-28
-1.72064e-27
-8.55208e-28
1.39882e-27
1.40652e-27
2.19057e-29
0
1.11784e-23
1.35443e-24
-2.52769e-26
2.5402e-26
2.11307e-27
9.18046e-29
6.64846e-28
-3.15908e-29
-8.13548e-28
-2.5201e-28
2.86827e-28
2.35792e-28
-3.72405e-28
-7.81656e-28
5.27089e-28
-3.56736e-28
-9.80961e-30
-1.80653e-27
0
0
3.44392e-24
-2.37745e-24
1.54063e-25
-9.78558e-27
6.624e-27
-1.06612e-27
1.50791e-28
1.97653e-28
-2.36003e-28
0
-2.53159e-28
0
-1.68132e-28
3.85671e-28
0
1.7266e-28
7.38044e-28
-2.49332e-28
-3.71121e-28
-2.29693e-28
3.49974e-24
-3.83726e-24
4.83874e-25
2.74385e-28
4.26433e-27
0
9.73006e-29
-2.25978e-28
0
0
-1.00963e-27
-2.17104e-28
-6.42845e-28
0
0
1.62173e-27
3.93028e-28
-1.91332e-28
8.72496e-29
0
2.32868e-23
3.87021e-24
3.56569e-25
7.62382e-26
-5.74936e-27
1.78869e-27
-1.15942e-27
-6.98652e-28
2.28083e-28
9.90424e-28
2.17761e-28
0
-3.27538e-28
-3.43562e-29
-7.24508e-28
1.46071e-27
-1.56797e-28
3.75416e-28
-4.18946e-28
0
2.7624e-23
5.76257e-24
2.07788e-25
3.8076e-26
6.15597e-27
-3.68492e-28
4.04107e-29
1.78876e-27
1.48159e-27
-4.73425e-28
-5.33033e-29
-5.26872e-28
-2.58805e-28
-6.71053e-28
-1.74106e-27
0
-1.44388e-28
-1.52982e-28
5.52081e-29
0
2.21856e-23
4.57598e-24
1.71929e-25
5.05515e-26
8.50846e-28
8.62776e-29
1.03437e-27
2.41831e-29
1.02446e-28
5.41238e-28
7.24707e-28
4.11177e-28
6.34013e-28
1.13224e-28
-4.89978e-28
1.02372e-27
-9.24923e-28
-1.68279e-28
4.99562e-29
-4.57413e-28
1.12607e-23
1.90255e-24
2.59394e-25
1.85399e-26
9.12761e-27
-8.17622e-28
3.07889e-28
-2.76271e-28
0
2.2892e-28
-5.81206e-28
0
2.71555e-28
1.80238e-27
9.98606e-28
-8.9817e-28
-7.82541e-28
0
5.2198e-30
-3.11564e-28
1.60742e-24
-1.05289e-24
4.28532e-25
-2.97732e-26
7.33378e-27
-7.16355e-28
2.99965e-28
0
0
0
-3.96343e-28
-1.33347e-27
-1.83353e-27
6.75295e-28
6.44914e-28
-2.84402e-28
-1.25374e-28
-1.65781e-28
-4.18451e-29
-8.19746e-29
-1.00179e-23
-4.03175e-24
4.64082e-26
-2.32151e-26
1.86744e-27
-2.31726e-27
7.70283e-28
-4.15844e-29
-1.77356e-28
1.92964e-28
4.5293e-28
5.66494e-28
-1.68363e-28
0
0
0
-2.945e-28
-1.42791e-28
-1.09755e-28
0
-2.02726e-23
-6.20998e-24
-3.35918e-25
-3.73411e-27
-7.62862e-28
2.08431e-28
8.53556e-28
1.68572e-27
2.30074e-27
5.54172e-28
-9.91649e-28
0
0
7.92168e-28
-2.77839e-28
0
1.87429e-28
7.29491e-29
-3.74633e-28
0
-2.80125e-23
-9.49319e-24
-2.52745e-26
-4.88207e-26
2.40435e-27
-1.35894e-27
-2.02496e-28
0
0
-1.94052e-27
-9.78101e-28
-1.03791e-27
3.84632e-28
2.77177e-27
1.81332e-27
-1.41035e-27
0
-9.65652e-28
-2.23719e-28
1.77572e-29
-2.78465e-23
-8.37905e-24
-3.32802e-25
-2.99539e-26
1.85716e-27
-1.13412e-27
1.84312e-27
1.48282e-27
1.08163e-27
-4.71359e-29
-2.24373e-27
-1.42737e-27
-1.06014e-27
8.69537e-29
-2.76024e-27
-1.01685e-27
1.13891e-27
-1.08651e-29
-1.91726e-28
-2.27855e-28
-1.14231e-23
-3.29086e-24
-3.11654e-25
1.87867e-26
-5.94536e-27
8.24e-28
-4.79316e-28
-2.01702e-28
1.27876e-27
4.80657e-28
-3.51262e-28
0
-9.59406e-28
1.8382e-28
0
6.71986e-29
6.40271e-30
-1.45317e-29
8.15884e-30
6.38953e-30
)
;

boundaryField
{
    movingWall
    {
        type            calculated;
        value           nonuniform List<scalar> 
20
(
4.76746e-24
3.58789e-24
-8.49316e-25
1.23121e-25
-2.15416e-26
3.37511e-27
-1.83239e-27
8.57022e-28
2.79349e-27
1.05001e-27
8.26586e-28
-6.70043e-29
-3.23457e-27
-5.21137e-27
-2.22327e-27
7.73259e-28
2.39754e-29
-2.38087e-29
1.33674e-29
-9.34605e-29
)
;
    }
    fixedWalls
    {
        type            calculated;
        value           nonuniform List<scalar> 
60
(
-6.02109e-23
-1.06996e-22
-9.36613e-23
-8.13702e-23
-5.41113e-23
-3.09385e-23
4.277e-24
3.72963e-23
2.686e-24
1.82801e-23
1.07053e-22
1.27495e-22
1.01103e-22
5.37843e-23
9.07095e-24
-5.39074e-23
-1.12603e-22
-1.435e-22
-1.49813e-22
-6.7144e-23
-1.09908e-27
0
0
0
-6.20797e-28
0
0
0
0
0
2.73528e-28
0
-7.49426e-28
-6.16049e-28
-1.12685e-28
0
0
2.90933e-29
-3.96863e-28
1.03929e-28
8.39985e-24
6.4787e-24
-1.66855e-24
1.60945e-25
-3.8864e-26
8.555e-27
-6.19794e-28
5.80564e-27
2.67601e-28
-9.73021e-27
-7.93069e-27
-3.80162e-27
-3.90257e-28
-3.01396e-28
6.16394e-29
-1.18254e-27
-3.17377e-27
-4.21647e-27
-9.16868e-28
4.64098e-29
)
;
    }
    frontAndBack
    {
        type            empty;
    }
}


// ************************************************************************* //
