/*--------------------------------*- C++ -*----------------------------------*\
| =========                 |                                                 |
| \\      /  F ield         | OpenFOAM: The Open Source CFD Toolbox           |
|  \\    /   O peration     | Version:  2312                                  |
|   \\  /    A nd           | Website:  www.openfoam.com                      |
|    \\/     M anipulation  |                                                 |
\*---------------------------------------------------------------------------*/
FoamFile
{
    version     2.0;
    format      ascii;
    arch        "LSB;label=32;scalar=64";
    class       volVectorField;
    location    "8.875";
    object      UzeroGrad;
}
// * * * * * * * * * * * * * * * * * * * * * * * * * * * * * * * * * * * * * //

dimensions      [0 1 -1 0 0 0 0];

internalField   nonuniform List<vector> 
400
(
(-1 1.15985e-13 0)
(-1 -2.42403e-14 0)
(-1 5.92644e-15 0)
(-1 -1.13666e-15 0)
(-1 3.48694e-16 0)
(-1 6.36795e-17 0)
(-1 1.07892e-16 0)
(-1 8.35763e-18 0)
(-1 -1.09993e-16 0)
(-1 -4.64417e-17 0)
(-1 1.20859e-16 0)
(-1 1.66525e-16 0)
(-1 1.85072e-16 0)
(-1 1.05865e-16 0)
(-1 7.28092e-17 0)
(-1 9.89253e-17 0)
(-1 9.75763e-17 0)
(-1 -4.20428e-17 0)
(-1 -7.77751e-17 0)
(-1 -5.03327e-17 0)
(-1 2.10711e-14 0)
(-1 -4.18162e-15 0)
(-1 1.04994e-15 0)
(-1 -2.28277e-16 0)
(-1 -5.32159e-19 0)
(-1 4.94196e-17 0)
(-1 4.79721e-17 0)
(-1 -1.31065e-17 0)
(-1 -1.34527e-16 0)
(-1 -6.75743e-17 0)
(-1 2.76416e-17 0)
(-1 6.35895e-17 0)
(-1 1.97049e-16 0)
(-1 1.89722e-16 0)
(-1 1.07811e-16 0)
(-1 1.74376e-16 0)
(-1 2.08158e-16 0)
(-1 9.2729e-17 0)
(-1 -7.8547e-17 0)
(-1 -7.34132e-17 0)
(-1 -8.99579e-14 0)
(-1 1.84522e-14 0)
(-1 -4.44647e-15 0)
(-1 9.39144e-16 0)
(-1 -5.91901e-17 0)
(-1 1.55769e-16 0)
(-1 -7.09357e-17 0)
(-1 -8.5353e-17 0)
(-1 -6.96086e-17 0)
(-1 -6.67832e-17 0)
(-1 -7.58491e-17 0)
(-1 4.94805e-17 0)
(-1 1.02958e-16 0)
(-1 8.79535e-17 0)
(-1 -4.17337e-18 0)
(-1 6.01393e-17 0)
(-1 1.24752e-16 0)
(-1 4.37638e-17 0)
(-1 -1.05241e-16 0)
(-1 -4.45986e-17 0)
(-1 3.02728e-14 0)
(-1 -6.11027e-15 0)
(-1 1.54755e-15 0)
(-1 -4.097e-17 0)
(-1 2.59592e-16 0)
(-1 4.18159e-17 0)
(-1 -4.62962e-18 0)
(-1 2.79657e-17 0)
(-1 7.80247e-17 0)
(-1 4.29328e-17 0)
(-1 3.65241e-18 0)
(-1 1.27289e-16 0)
(-1 1.71006e-17 0)
(-1 -6.88668e-17 0)
(-1 -2.44546e-17 0)
(-1 6.02045e-18 0)
(-1 8.50717e-17 0)
(-1 -3.68978e-17 0)
(-1 -1.1712e-16 0)
(-1 -7.50095e-17 0)
(-1 3.22705e-14 0)
(-1 -6.90907e-15 0)
(-1 1.71528e-15 0)
(-1 -2.01121e-16 0)
(-1 5.63399e-17 0)
(-1 -1.52807e-16 0)
(-1 -8.34711e-17 0)
(-1 -4.35377e-17 0)
(-1 1.8541e-17 0)
(-1 9.91779e-17 0)
(-1 7.49824e-17 0)
(-1 -1.42434e-17 0)
(-1 -1.20182e-16 0)
(-1 -9.12185e-17 0)
(-1 4.92358e-17 0)
(-1 1.20959e-16 0)
(-1 8.5757e-17 0)
(-1 -4.08284e-18 0)
(-1 -5.55111e-17 0)
(-1 -2.37764e-17 0)
(-1 -7.60184e-14 0)
(-1 1.64186e-14 0)
(-1 -3.59921e-15 0)
(-1 8.71968e-16 0)
(-1 -1.39312e-16 0)
(-1 4.11709e-17 0)
(-1 -1.66015e-17 0)
(-1 -4.08325e-17 0)
(-1 -1.11244e-16 0)
(-1 -3.76301e-17 0)
(-1 2.08253e-17 0)
(-1 -9.99351e-18 0)
(-1 -1.70163e-17 0)
(-1 7.91441e-18 0)
(-1 7.4965e-17 0)
(-1 1.3341e-16 0)
(-1 -5.79437e-18 0)
(-1 -2.12139e-17 0)
(-1 5.11824e-17 0)
(-1 6.47815e-17 0)
(-1 8.92401e-14 0)
(-1 -1.83866e-14 0)
(-1 4.5435e-15 0)
(-1 -8.99343e-16 0)
(-1 2.07546e-16 0)
(-1 -1.52404e-17 0)
(-1 9.58935e-17 0)
(-1 9.21589e-17 0)
(-1 6.56814e-19 0)
(-1 4.33445e-17 0)
(-1 8.72235e-17 0)
(-1 9.42209e-17 0)
(-1 1.41288e-16 0)
(-1 2.30737e-16 0)
(-1 1.42635e-16 0)
(-1 -4.18947e-17 0)
(-1 -2.06769e-17 0)
(-1 1.3013e-16 0)
(-1 1.52133e-16 0)
(-1 4.85652e-17 0)
(-1 -1.77195e-14 0)
(-1 3.39927e-15 0)
(-1 -7.94881e-16 0)
(-1 2.40499e-16 0)
(-1 9.71286e-17 0)
(-1 7.29325e-17 0)
(-1 -4.81283e-18 0)
(-1 -4.971e-17 0)
(-1 6.84212e-18 0)
(-1 7.22128e-17 0)
(-1 9.98174e-17 0)
(-1 1.93025e-17 0)
(-1 5.63214e-17 0)
(-1 1.56696e-16 0)
(-1 1.19736e-16 0)
(-1 -2.43477e-17 0)
(-1 -5.24674e-17 0)
(-1 -2.07286e-17 0)
(-1 4.31006e-17 0)
(-1 3.92782e-17 0)
(-1 -9.0859e-14 0)
(-1 1.97171e-14 0)
(-1 -4.78203e-15 0)
(-1 9.74991e-16 0)
(-1 -2.36906e-16 0)
(-1 1.86295e-17 0)
(-1 -4.02425e-17 0)
(-1 -3.70026e-17 0)
(-1 5.69577e-17 0)
(-1 4.19547e-17 0)
(-1 1.62973e-18 0)
(-1 8.86543e-17 0)
(-1 1.83582e-16 0)
(-1 6.91856e-17 0)
(-1 5.88229e-17 0)
(-1 1.16778e-16 0)
(-1 5.46789e-17 0)
(-1 -2.83223e-17 0)
(-1 3.4107e-17 0)
(-1 1.08597e-16 0)
(-1 1.43466e-13 0)
(-1 -3.07442e-14 0)
(-1 7.14985e-15 0)
(-1 -1.58617e-15 0)
(-1 3.6268e-16 0)
(-1 -1.29085e-17 0)
(-1 1.73094e-16 0)
(-1 1.20411e-16 0)
(-1 7.76872e-17 0)
(-1 5.91769e-17 0)
(-1 7.49173e-17 0)
(-1 1.38831e-16 0)
(-1 1.18351e-16 0)
(-1 1.44081e-17 0)
(-1 -3.90337e-17 0)
(-1 4.34968e-17 0)
(-1 1.10544e-16 0)
(-1 9.18306e-17 0)
(-1 1.00725e-16 0)
(-1 1.2402e-16 0)
(-1 -1.15197e-13 0)
(-1 2.37065e-14 0)
(-1 -5.67445e-15 0)
(-1 1.07622e-15 0)
(-1 -2.66822e-16 0)
(-1 1.01568e-16 0)
(-1 5.71799e-17 0)
(-1 4.63687e-17 0)
(-1 6.60736e-17 0)
(-1 8.84425e-17 0)
(-1 1.87874e-16 0)
(-1 1.68752e-16 0)
(-1 7.08369e-17 0)
(-1 1.08332e-16 0)
(-1 8.86977e-17 0)
(-1 -5.19239e-17 0)
(-1 -8.39527e-17 0)
(-1 -5.8707e-17 0)
(-1 3.50711e-17 0)
(-1 9.58567e-17 0)
(-1 3.85743e-14 0)
(-1 -8.02712e-15 0)
(-1 1.77761e-15 0)
(-1 -4.97391e-16 0)
(-1 -1.94818e-17 0)
(-1 -2.48152e-17 0)
(-1 -8.90617e-17 0)
(-1 -1.73608e-17 0)
(-1 1.30917e-16 0)
(-1 1.64842e-16 0)
(-1 1.55196e-16 0)
(-1 1.58287e-16 0)
(-1 9.04021e-17 0)
(-1 6.2805e-17 0)
(-1 1.03484e-16 0)
(-1 2.25424e-17 0)
(-1 3.913e-17 0)
(-1 4.20589e-17 0)
(-1 4.48676e-17 0)
(-1 6.24271e-17 0)
(-1 4.2109e-14 0)
(-1 -8.51071e-15 0)
(-1 2.196e-15 0)
(-1 -3.28537e-16 0)
(-1 1.59892e-16 0)
(-1 6.51726e-17 0)
(-1 3.11526e-17 0)
(-1 1.57011e-18 0)
(-1 2.81786e-17 0)
(-1 -1.10285e-17 0)
(-1 -6.18692e-17 0)
(-1 -7.4355e-17 0)
(-1 -1.12435e-16 0)
(-1 -1.52325e-16 0)
(-1 -4.16898e-17 0)
(-1 7.55449e-17 0)
(-1 8.3501e-18 0)
(-1 -1.37417e-17 0)
(-1 -1.7238e-19 0)
(-1 -3.21723e-17 0)
(-1 -8.05362e-14 0)
(-1 1.70186e-14 0)
(-1 -3.74725e-15 0)
(-1 1.00344e-15 0)
(-1 -1.76435e-16 0)
(-1 -7.32696e-17 0)
(-1 -7.58855e-17 0)
(-1 -2.10385e-17 0)
(-1 -6.65117e-18 0)
(-1 4.33235e-18 0)
(-1 7.78055e-17 0)
(-1 1.35023e-16 0)
(-1 1.65876e-16 0)
(-1 6.5463e-18 0)
(-1 -1.00836e-16 0)
(-1 -1.16261e-16 0)
(-1 -1.31488e-16 0)
(-1 -2.0025e-17 0)
(-1 -7.86471e-18 0)
(-1 -2.19507e-17 0)
(-1 8.90219e-14 0)
(-1 -1.90557e-14 0)
(-1 4.428e-15 0)
(-1 -8.73405e-16 0)
(-1 2.97261e-16 0)
(-1 2.84901e-17 0)
(-1 6.18325e-17 0)
(-1 1.03496e-16 0)
(-1 6.26635e-17 0)
(-1 2.91731e-17 0)
(-1 2.18671e-17 0)
(-1 1.33538e-17 0)
(-1 4.43324e-17 0)
(-1 -1.71503e-17 0)
(-1 -1.49417e-16 0)
(-1 -1.36116e-16 0)
(-1 -6.42166e-17 0)
(-1 1.81124e-17 0)
(-1 1.98499e-17 0)
(-1 1.03934e-17 0)
(-1 -5.7441e-14 0)
(-1 1.23534e-14 0)
(-1 -3.05476e-15 0)
(-1 4.58861e-16 0)
(-1 -1.99808e-16 0)
(-1 5.88746e-17 0)
(-1 -3.65406e-17 0)
(-1 -6.01251e-17 0)
(-1 -2.88696e-17 0)
(-1 -2.74086e-17 0)
(-1 -5.26e-17 0)
(-1 -1.10959e-16 0)
(-1 -1.571e-16 0)
(-1 -4.88445e-17 0)
(-1 -2.51795e-17 0)
(-1 -1.13347e-17 0)
(-1 -3.12465e-17 0)
(-1 -5.06062e-17 0)
(-1 -2.25102e-17 0)
(-1 -1.01136e-17 0)
(-1 -1.78072e-14 0)
(-1 2.91328e-15 0)
(-1 -8.65903e-16 0)
(-1 -5.46698e-17 0)
(-1 -2.13735e-16 0)
(-1 -2.02061e-16 0)
(-1 -1.29982e-16 0)
(-1 -4.46075e-17 0)
(-1 5.0544e-17 0)
(-1 1.67599e-16 0)
(-1 1.58092e-16 0)
(-1 4.54485e-17 0)
(-1 -1.40832e-16 0)
(-1 -1.10893e-16 0)
(-1 5.29765e-18 0)
(-1 2.14949e-17 0)
(-1 8.37063e-17 0)
(-1 7.07929e-17 0)
(-1 3.50782e-17 0)
(-1 -3.00529e-17 0)
(-1 8.81095e-14 0)
(-1 -1.92318e-14 0)
(-1 4.48988e-15 0)
(-1 -9.18782e-16 0)
(-1 2.2903e-16 0)
(-1 -3.17335e-17 0)
(-1 1.0259e-16 0)
(-1 4.00572e-17 0)
(-1 -5.86015e-17 0)
(-1 -1.45598e-16 0)
(-1 -1.75347e-16 0)
(-1 -1.77949e-16 0)
(-1 -1.31154e-16 0)
(-1 -7.95004e-18 0)
(-1 2.09713e-16 0)
(-1 2.01522e-16 0)
(-1 4.74981e-17 0)
(-1 -2.36927e-17 0)
(-1 1.48591e-17 0)
(-1 -2.23174e-17 0)
(-1 -3.81573e-14 0)
(-1 8.65623e-15 0)
(-1 -2.03148e-15 0)
(-1 4.2946e-16 0)
(-1 -1.25442e-16 0)
(-1 4.64213e-17 0)
(-1 -2.08376e-17 0)
(-1 -1.26678e-16 0)
(-1 -1.3025e-16 0)
(-1 -1.90364e-16 0)
(-1 -2.02764e-16 0)
(-1 -1.11654e-16 0)
(-1 5.72625e-17 0)
(-1 7.473e-17 0)
(-1 4.58772e-17 0)
(-1 3.27227e-17 0)
(-1 -5.14681e-17 0)
(-1 -1.07339e-16 0)
(-1 -4.74596e-17 0)
(-1 -3.66041e-17 0)
(-1 -7.13396e-14 0)
(-1 1.50172e-14 0)
(-1 -3.70046e-15 0)
(-1 6.02049e-16 0)
(-1 -2.34916e-16 0)
(-1 -8.98131e-18 0)
(-1 -8.29147e-17 0)
(-1 -6.79268e-17 0)
(-1 2.20169e-17 0)
(-1 8.93328e-17 0)
(-1 8.11273e-17 0)
(-1 8.53548e-17 0)
(-1 7.35832e-17 0)
(-1 -6.91226e-18 0)
(-1 -1.57741e-16 0)
(-1 -1.32071e-16 0)
(-1 -3.36002e-17 0)
(-1 -4.46409e-17 0)
(-1 -3.89614e-17 0)
(-1 -4.16308e-17 0)
)
;

boundaryField
{
    movingWall
    {
        type            zeroGradient;
    }
    fixedWalls
    {
        type            zeroGradient;
    }
    frontAndBack
    {
        type            empty;
    }
}


// ************************************************************************* //
