/*--------------------------------*- C++ -*----------------------------------*\
| =========                 |                                                 |
| \\      /  F ield         | OpenFOAM: The Open Source CFD Toolbox           |
|  \\    /   O peration     | Version:  2312                                  |
|   \\  /    A nd           | Website:  www.openfoam.com                      |
|    \\/     M anipulation  |                                                 |
\*---------------------------------------------------------------------------*/
FoamFile
{
    version     2.0;
    format      ascii;
    arch        "LSB;label=32;scalar=64";
    class       volScalarField;
    location    "8.875";
    object      zeroGradient(epsilon);
}
// * * * * * * * * * * * * * * * * * * * * * * * * * * * * * * * * * * * * * //

dimensions      [0 2 -3 0 0 0 0];

internalField   nonuniform List<scalar> 
400
(
9.07089e-07
9.07088e-07
9.07088e-07
9.07087e-07
9.07088e-07
9.07087e-07
9.07087e-07
9.07086e-07
9.07087e-07
9.07086e-07
9.07087e-07
9.07085e-07
9.07087e-07
9.07085e-07
9.07087e-07
9.07085e-07
9.07086e-07
9.07086e-07
9.07086e-07
9.07086e-07
9.28582e-07
9.18668e-07
9.1952e-07
9.19863e-07
9.20563e-07
9.2092e-07
9.2162e-07
9.21987e-07
9.22686e-07
9.23064e-07
9.23763e-07
9.24151e-07
9.24851e-07
9.25248e-07
9.25949e-07
9.26355e-07
9.27057e-07
9.27473e-07
9.27826e-07
9.28387e-07
9.6333e-07
9.52739e-07
9.53665e-07
9.54036e-07
9.54794e-07
9.55177e-07
9.55932e-07
9.56324e-07
9.57077e-07
9.57478e-07
9.58229e-07
9.58638e-07
9.59387e-07
9.59803e-07
9.60552e-07
9.60975e-07
9.61723e-07
9.62154e-07
9.62528e-07
9.63118e-07
1.00097e-06
9.8983e-07
9.90804e-07
9.91194e-07
9.91991e-07
9.92395e-07
9.9319e-07
9.93602e-07
9.94394e-07
9.94815e-07
9.95605e-07
9.96035e-07
9.96824e-07
9.97262e-07
9.9805e-07
9.98495e-07
9.99282e-07
9.99734e-07
1.00013e-06
1.00075e-06
1.03371e-06
1.02207e-06
1.02309e-06
1.02349e-06
1.02433e-06
1.02475e-06
1.02558e-06
1.02601e-06
1.02683e-06
1.02727e-06
1.0281e-06
1.02855e-06
1.02937e-06
1.02983e-06
1.03065e-06
1.03111e-06
1.03194e-06
1.03241e-06
1.03282e-06
1.03347e-06
1.05833e-06
1.04632e-06
1.04737e-06
1.04779e-06
1.04865e-06
1.04908e-06
1.04994e-06
1.05038e-06
1.05123e-06
1.05169e-06
1.05254e-06
1.053e-06
1.05385e-06
1.05433e-06
1.05517e-06
1.05565e-06
1.0565e-06
1.05699e-06
1.05742e-06
1.05808e-06
1.07517e-06
1.0629e-06
1.06397e-06
1.0644e-06
1.06528e-06
1.06572e-06
1.0666e-06
1.06705e-06
1.06792e-06
1.06839e-06
1.06926e-06
1.06973e-06
1.0706e-06
1.07108e-06
1.07195e-06
1.07244e-06
1.0733e-06
1.0738e-06
1.07424e-06
1.07492e-06
1.08613e-06
1.07369e-06
1.07477e-06
1.07521e-06
1.0761e-06
1.07655e-06
1.07744e-06
1.0779e-06
1.07878e-06
1.07925e-06
1.08013e-06
1.08061e-06
1.08149e-06
1.08198e-06
1.08286e-06
1.08336e-06
1.08423e-06
1.08474e-06
1.08518e-06
1.08587e-06
1.09327e-06
1.08072e-06
1.08181e-06
1.08225e-06
1.08315e-06
1.0836e-06
1.0845e-06
1.08496e-06
1.08585e-06
1.08633e-06
1.08722e-06
1.0877e-06
1.08859e-06
1.08908e-06
1.08997e-06
1.09047e-06
1.09136e-06
1.09187e-06
1.09231e-06
1.09301e-06
1.09822e-06
1.08559e-06
1.08669e-06
1.08713e-06
1.08804e-06
1.08849e-06
1.08939e-06
1.08986e-06
1.09076e-06
1.09123e-06
1.09213e-06
1.09262e-06
1.09351e-06
1.09401e-06
1.0949e-06
1.0954e-06
1.09629e-06
1.09681e-06
1.09725e-06
1.09796e-06
1.10207e-06
1.08938e-06
1.09049e-06
1.09093e-06
1.09184e-06
1.0923e-06
1.0932e-06
1.09367e-06
1.09457e-06
1.09505e-06
1.09595e-06
1.09644e-06
1.09734e-06
1.09784e-06
1.09873e-06
1.09924e-06
1.10014e-06
1.10065e-06
1.1011e-06
1.10181e-06
1.10549e-06
1.09275e-06
1.09386e-06
1.09431e-06
1.09522e-06
1.09568e-06
1.09658e-06
1.09706e-06
1.09796e-06
1.09844e-06
1.09935e-06
1.09984e-06
1.10074e-06
1.10124e-06
1.10214e-06
1.10265e-06
1.10355e-06
1.10407e-06
1.10452e-06
1.10523e-06
1.10887e-06
1.09608e-06
1.09719e-06
1.09764e-06
1.09856e-06
1.09902e-06
1.09993e-06
1.1004e-06
1.10131e-06
1.10179e-06
1.1027e-06
1.10319e-06
1.1041e-06
1.1046e-06
1.10551e-06
1.10602e-06
1.10692e-06
1.10744e-06
1.10789e-06
1.10861e-06
1.11243e-06
1.09958e-06
1.1007e-06
1.10115e-06
1.10207e-06
1.10253e-06
1.10345e-06
1.10392e-06
1.10483e-06
1.10532e-06
1.10623e-06
1.10673e-06
1.10764e-06
1.10814e-06
1.10905e-06
1.10956e-06
1.11047e-06
1.11099e-06
1.11145e-06
1.11216e-06
1.11625e-06
1.10334e-06
1.10447e-06
1.10492e-06
1.10584e-06
1.10631e-06
1.10723e-06
1.1077e-06
1.10862e-06
1.10911e-06
1.11002e-06
1.11052e-06
1.11143e-06
1.11194e-06
1.11285e-06
1.11337e-06
1.11428e-06
1.1148e-06
1.11526e-06
1.11598e-06
1.12029e-06
1.10732e-06
1.10845e-06
1.1089e-06
1.10983e-06
1.1103e-06
1.11122e-06
1.1117e-06
1.11262e-06
1.11311e-06
1.11403e-06
1.11453e-06
1.11545e-06
1.11596e-06
1.11688e-06
1.11739e-06
1.11831e-06
1.11884e-06
1.1193e-06
1.12002e-06
1.12436e-06
1.11132e-06
1.11246e-06
1.11291e-06
1.11384e-06
1.11431e-06
1.11524e-06
1.11572e-06
1.11665e-06
1.11714e-06
1.11807e-06
1.11857e-06
1.11949e-06
1.12e-06
1.12092e-06
1.12144e-06
1.12236e-06
1.12289e-06
1.12336e-06
1.12408e-06
1.12808e-06
1.11499e-06
1.11613e-06
1.11659e-06
1.11752e-06
1.118e-06
1.11893e-06
1.11941e-06
1.12034e-06
1.12084e-06
1.12176e-06
1.12227e-06
1.1232e-06
1.12371e-06
1.12463e-06
1.12516e-06
1.12608e-06
1.12661e-06
1.12708e-06
1.12781e-06
1.13098e-06
1.11809e-06
1.1192e-06
1.11964e-06
1.12055e-06
1.12101e-06
1.12192e-06
1.12239e-06
1.1233e-06
1.12379e-06
1.1247e-06
1.1252e-06
1.12611e-06
1.12663e-06
1.12754e-06
1.12807e-06
1.12898e-06
1.12952e-06
1.12998e-06
1.13071e-06
1.13231e-06
1.13231e-06
1.13231e-06
1.13231e-06
1.13231e-06
1.13231e-06
1.13231e-06
1.13231e-06
1.13231e-06
1.13231e-06
1.13231e-06
1.13231e-06
1.13231e-06
1.13231e-06
1.13231e-06
1.13231e-06
1.13231e-06
1.13231e-06
1.13231e-06
1.13231e-06
)
;

boundaryField
{
    movingWall
    {
        type            zeroGradient;
    }
    fixedWalls
    {
        type            zeroGradient;
    }
    frontAndBack
    {
        type            empty;
    }
}


// ************************************************************************* //
